FOO
141312
    1MOL0     O    1   3.473   6.942   6.272 -0.2674  0.1110  0.4076
    1MOL0     C    2   3.486   6.831   6.229 -0.5329 -0.7234 -0.7257
    1MOL0     O    3   3.585   6.786   6.143 -0.8869 -0.1802 -0.3386
    1MOL0     C    4   3.614   6.867   6.028 -0.4178  0.5867 -0.2630
    1MOL0     C    5   3.732   6.856   5.950  0.1690  0.0470 -0.1340
    1MOL0     C    6   3.754   6.941   5.836 -0.2978 -0.1992  0.4376
    1MOL0     C    7   3.658   7.026   5.792  0.3364  0.5290 -0.0355
    1MOL0     O    8   3.686   7.099   5.677 -0.0619  0.0293 -0.3128
    1MOL0     C    9   3.584   7.142   5.589 -0.7827  0.1380 -0.1691
    1MOL0     C   10   3.631   7.199   5.460  0.4627 -0.1326  0.4302
    1MOL0     C   11   3.559   7.166   5.325  0.6582  1.4540  0.1815
    1MOL0     C   12   3.652   7.184   5.205  0.3061  0.2211  0.8266
    1MOL0     C   13   3.609   7.116   5.069 -0.9708 -0.6677  0.6615
    1MOL0     C   14   3.713   7.136   4.954  0.8802  0.1413 -0.6319
    1MOL0     C   15   3.699   7.038   4.836 -0.0532  0.2086 -0.0465
    1MOL0     C   16   3.583   7.084   4.740 -0.0621  0.5457  0.7720
    1MOL0     N   17   3.584   7.011   4.611 -0.5787  1.3633 -0.5337
    1MOL0     C   18   3.544   7.063   4.490 -0.6975  0.4931 -0.2087
    1MOL0     C   19   3.571   6.961   4.406  0.1653  0.7063 -0.1509
    1MOL0     C   20   3.561   6.975   4.258  0.0629 -0.3386  0.5923
    1MOL0     C   21   3.663   7.051   4.182 -0.1255 -0.1222  0.5103
    1MOL0     C   22   3.814   7.000   4.198  0.0178 -0.8744 -0.8280
    1MOL0     C   23   3.899   7.061   4.309  0.7847 -0.0230  0.1430
    1MOL0     O   24   4.033   7.008   4.299  0.7016  0.4894  0.3850
    1MOL0     C   25   4.066   6.913   4.396 -0.0611  0.3339 -0.4360
    1MOL0     C   26   3.983   6.853   4.494 -0.3807 -0.3009 -0.4840
    1MOL0     C   27   4.036   6.755   4.583  0.6877  0.0235 -0.1024
    1MOL0     C   28   3.934   6.686   4.667 -0.3701  0.2616  0.3313
    1MOL0     C   29   4.171   6.736   4.597  0.2219 -0.5291  0.4661
    1MOL0     C   30   4.249   6.643   4.682 -0.3534  0.1163  0.5509
    1MOL0     O   31   4.388   6.647   4.677 -0.4099 -0.3928  0.5331
    1MOL0     C   32   4.468   6.580   4.767 -1.6473 -0.4799 -0.1228
    1MOL0     C   33   4.606   6.634   4.777 -0.9506  0.5830  0.5281
    1MOL0     C   34   4.699   6.569   4.856 -0.0522 -0.4280 -1.0034
    1MOL0     C   35   4.667   6.447   4.912 -1.1212 -0.5074 -0.4222
    1MOL0     O   36   4.768   6.382   4.975  0.5676 -0.1981  0.2031
    1MOL0     C   37   4.732   6.347   5.110 -0.4472  0.2379  0.6475
    1MOL0     C   38   4.868   6.335   5.189 -0.4531 -0.5860  1.2221
    1MOL0     C   39   4.919   6.473   5.220  1.5514 -0.9977  1.0130
    1MOL0     C   40   5.067   6.466   5.259  0.6583 -0.0867  0.4417
    1MOL0     C   41   5.091   6.407   5.396 -0.4318 -0.6819 -0.2354
    1MOL0     C   42   5.187   6.494   5.484  0.1499 -0.2709 -1.0095
    1MOL0     C   43   5.342   6.491   5.471  0.4300  1.1121 -0.0775
    1MOL0     C   44   5.401   6.531   5.332  0.5110 -0.2286 -0.5383
    1MOL0    Cl   45   5.580   6.542   5.336  0.1668 -0.3426 -0.0469
    1MOL0     C   46   4.536   6.388   4.896 -0.3264  0.6189  0.5577
    1MOL0     C   47   4.440   6.457   4.826 -0.0214 -0.8704  0.3287
    1MOL0     O   48   4.181   6.579   4.759  0.6566  0.7250 -0.6724
    1MOL0     C   49   4.245   6.813   4.508 -0.2173  1.1968  0.2398
    1MOL0     C   50   4.194   6.900   4.412  0.4580  0.0371 -0.1228
    1MOL0     N   51   3.611   6.850   4.476  0.0433  0.2693 -0.1156
    1MOL0     N   52   3.618   6.884   4.601  0.2501  0.7442 -0.4961
    1MOL0     C   53   3.536   7.032   5.864  0.0134 -0.1961  0.6044
    1MOL0     C   54   3.519   6.956   5.976 -0.2650 -0.2206 -0.6822
    1MOL0     C   55   3.403   6.722   6.294 -0.0872  0.5910 -0.0973
    1MOL0     C   56   3.419   6.596   6.234 -0.0033 -0.0703 -0.0870
    1MOL0     C   57   3.341   6.490   6.262  0.5934  0.7513 -0.4872
    1MOL0     C   58   3.253   6.491   6.366 -0.6060  0.3335  1.1108
    1MOL0     O   59   3.175   6.383   6.383 -0.7012  0.2813  0.2011
    1MOL0     C   60   3.061   6.375   6.462  0.5092  0.2739  0.0487
    1MOL0     C   61   2.932   6.416   6.386 -0.1472 -0.6826 -0.1841
    1MOL0     C   62   2.819   6.431   6.482  0.0005  0.6512 -0.0509
    1MOL0     C   63   2.708   6.510   6.429  0.2982 -0.0269  0.2487
    1MOL0     C   64   2.740   6.653   6.410  1.2411 -0.2133 -0.8148
    1MOL0     C   65   2.778   6.763   6.382 -0.9688 -0.2021  0.5521
    1MOL0     C   66   3.238   6.614   6.431  0.9412  0.2682  0.1980
    1MOL0     C   67   3.297   6.736   6.389 -0.5784 -0.0830 -0.0876
    1MOL0     C   68   3.246   6.867   6.452  0.0892 -0.3690  0.0438
    1MOL0     H   69   3.812   6.790   5.982 -0.2683  0.0698  1.0549
    1MOL0     H   70   3.849   6.917   5.791  0.0459 -1.0539  1.5709
    1MOL0     H   71   3.537   7.226   5.639 -0.1273  0.8510 -0.7334
    1MOL0     H   72   3.517   7.061   5.556  2.0624 -2.1248 -0.8439
    1MOL0     H   73   3.641   7.307   5.476 -1.1615  0.9873 -4.3207
    1MOL0     H   74   3.736   7.172   5.442 -0.5095 -2.5400 -2.5499
    1MOL0     H   75   3.528   7.061   5.317  2.8603  0.8976 -2.8539
    1MOL0     H   76   3.478   7.239   5.314  1.4332  2.6456  1.8249
    1MOL0     H   77   3.661   7.292   5.189 -0.5495  0.2963  0.8252
    1MOL0     H   78   3.750   7.146   5.235  1.9265  2.0092 -1.8273
    1MOL0     H   79   3.509   7.154   5.045  0.0199  3.5866  2.2665
    1MOL0     H   80   3.599   7.012   5.100  0.6389  0.2388  4.9432
    1MOL0     H   81   3.699   7.240   4.922  1.7385 -0.1183 -1.9362
    1MOL0     H   82   3.818   7.131   4.987  0.0945 -0.3338  2.0541
    1MOL0     H   83   3.679   6.937   4.871 -3.1186  0.7000 -0.0718
    1MOL0     H   84   3.785   7.044   4.770 -0.0995 -1.5461 -0.2958
    1MOL0     H   85   3.486   7.075   4.790 -0.0685 -1.9976  0.4260
    1MOL0     H   86   3.605   7.189   4.721 -0.7839  0.6596  0.5530
    1MOL0     H   87   3.528   7.167   4.463 -0.0569  0.5929 -0.2375
    1MOL0     H   88   3.459   6.996   4.225 -0.4568 -0.1964  2.1905
    1MOL0     H   89   3.572   6.869   4.231  0.1426 -0.7889  2.2789
    1MOL0     H   90   3.642   7.043   4.075  2.9180  0.0137 -0.1673
    1MOL0     H   91   3.665   7.158   4.203  1.9043  0.3313 -1.5657
    1MOL0     H   92   3.819   6.892   4.210  0.2409 -0.7888 -0.1181
    1MOL0     H   93   3.865   7.024   4.104  2.0284  0.2079  0.4647
    1MOL0     H   94   3.909   7.168   4.288  0.7094 -0.4905 -2.6377
    1MOL0     H   95   3.845   7.062   4.405 -2.3489 -3.2741 -1.3541
    1MOL0     H   96   3.877   6.873   4.482  0.0308  2.1411 -0.4719
    1MOL0     H   97   3.942   6.578   4.653  0.1126  0.1616  1.3029
    1MOL0     H   98   3.832   6.709   4.635 -1.0689 -0.4970  1.8960
    1MOL0     H   99   3.937   6.719   4.771  0.0515  1.4468 -0.0344
    1MOL0     H  100   4.652   6.721   4.731  0.9742 -1.3691 -1.5314
    1MOL0     H  101   4.795   6.620   4.859  0.7157 -1.8740  1.6471
    1MOL0     H  102   4.663   6.422   5.150 -0.3858  2.7431 -3.3475
    1MOL0     H  103   4.688   6.247   5.105  3.8728 -1.8938  0.4313
    1MOL0     H  104   4.843   6.281   5.281 -0.0228  0.3402  1.8930
    1MOL0     H  105   4.943   6.281   5.129  0.1568  0.0347  1.4155
    1MOL0     H  106   4.861   6.530   5.293  0.8489  1.1739 -1.0831
    1MOL0     H  107   4.915   6.533   5.128  2.8330  0.0254  1.5897
    1MOL0     H  108   5.114   6.564   5.252  1.1995 -0.3704  0.0382
    1MOL0     H  109   5.136   6.411   5.194  1.5996  0.1457  1.2160
    1MOL0     H  110   4.996   6.419   5.447 -0.0135 -4.0597  1.5734
    1MOL0     H  111   5.133   6.306   5.396  1.0652 -0.1476  2.2038
    1MOL0     H  112   5.170   6.455   5.585  3.6828 -1.5700 -0.7906
    1MOL0     H  113   5.156   6.599   5.482  0.1074 -0.1068  2.1954
    1MOL0     H  114   5.383   6.391   5.490  1.0800  1.4514  0.3437
    1MOL0     H  115   5.379   6.550   5.556  0.1143 -0.6128  1.3188
    1MOL0     H  116   5.365   6.634   5.322  1.0686  0.3993  2.6987
    1MOL0     H  117   5.378   6.470   5.244  2.7198 -0.4410 -1.0306
    1MOL0     H  118   4.514   6.288   4.931 -0.8363  0.8018  0.7707
    1MOL0     H  119   4.344   6.413   4.803 -0.1023 -0.4994 -0.0646
    1MOL0     H  120   4.354   6.818   4.512 -0.3252  3.0947  2.3687
    1MOL0     H  121   4.264   6.955   4.350  0.8207  0.4811  0.6725
    1MOL0     H  122   3.451   7.095   5.837 -0.7587 -0.0211  3.2230
    1MOL0     H  123   3.414   6.962   6.006 -0.2383  0.2390 -0.6782
    1MOL0     H  124   3.485   6.576   6.150 -0.2671 -0.0386 -0.3039
    1MOL0     H  125   3.336   6.404   6.196 -2.4775 -0.3253  0.9867
    1MOL0     H  126   3.048   6.269   6.489 -1.1000  0.6178  0.7355
    1MOL0     H  127   3.070   6.417   6.563 -0.3476 -0.7796  0.5769
    1MOL0     H  128   2.906   6.344   6.308  0.0898 -0.6896 -0.2554
    1MOL0     H  129   2.962   6.511   6.341 -0.8535 -0.2728  0.1937
    1MOL0     H  130   2.791   6.330   6.513  0.4724  0.7830  0.8457
    1MOL0     H  131   2.851   6.478   6.575  0.8896 -1.4833  0.7947
    1MOL0     H  132   2.624   6.500   6.498 -3.2184 -2.3406 -3.8520
    1MOL0     H  133   2.672   6.466   6.335  1.4747 -2.3364  0.7998
    1MOL0     H  134   2.816   6.853   6.337 -2.9296  0.2140 -0.3884
    1MOL0     H  135   3.160   6.609   6.507 -1.2226  1.9099 -1.7448
    1MOL0     H  136   3.193   6.926   6.377 -1.6726 -2.2491 -0.2779
    1MOL0     H  137   3.174   6.852   6.533  0.3692 -2.2426 -0.0139
    1MOL0     H  138   3.327   6.920   6.504 -0.9904  1.6645 -0.2466
    2MOL0     O  139   0.688   7.396   2.094 -0.0374 -0.5691  0.2892
    2MOL0     C  140   0.759   7.307   2.128  1.0619  0.5343 -0.4659
    2MOL0     O  141   0.879   7.270   2.072 -0.3140  0.7961 -0.3117
    2MOL0     C  142   0.958   7.341   1.999 -0.2108 -0.5494  0.9384
    2MOL0     C  143   0.957   7.483   1.995 -1.0671  0.3423 -1.0882
    2MOL0     C  144   1.049   7.548   1.919 -0.7549 -0.0997  0.2889
    2MOL0     C  145   1.152   7.487   1.844  0.5035 -0.1764  1.2288
    2MOL0     O  146   1.255   7.561   1.778  0.4848 -0.6509 -0.8851
    2MOL0     C  147   1.199   7.628   1.665  0.6463  0.2585 -0.8886
    2MOL0     C  148   1.319   7.686   1.586  0.3579 -0.2527  0.5261
    2MOL0     C  149   1.427   7.765   1.658  0.3121  0.5000  1.1575
    2MOL0     C  150   1.383   7.900   1.713  0.1806  0.3461 -0.1059
    2MOL0     C  151   1.496   7.990   1.755  0.3710 -0.3966 -0.6062
    2MOL0     C  152   1.444   8.120   1.802 -0.1694 -0.0580 -0.7230
    2MOL0     C  153   1.551   8.232   1.805  0.1683 -0.1290 -0.6193
    2MOL0     C  154   1.493   8.360   1.876  0.3114 -0.4843  0.0835
    2MOL0     N  155   1.569   8.478   1.869 -0.2876 -0.4289 -0.0470
    2MOL0     C  156   1.556   8.591   1.954 -1.5269  0.3260 -0.4822
    2MOL0     C  157   1.634   8.686   1.899 -0.3389  1.0117  0.0720
    2MOL0     C  158   1.638   8.829   1.942 -0.1177 -0.1382 -0.7069
    2MOL0     C  159   1.517   8.904   1.925  0.1043  0.4094  0.9564
    2MOL0     C  160   1.527   9.046   1.972  0.2594 -0.2912  0.9262
    2MOL0     C  161   1.449   9.068   2.100 -0.2855 -0.2986  0.2992
    2MOL0     O  162   1.303   9.063   2.059 -0.3737 -0.5554 -0.0925
    2MOL0     C  163   1.208   9.112   2.153  0.8652  0.9003  0.1830
    2MOL0     C  164   1.073   9.087   2.115 -0.2027  0.0614  0.3277
    2MOL0     C  165   0.968   9.126   2.202 -0.2577  0.8448  0.2443
    2MOL0     C  166   0.834   9.129   2.131  0.3050 -0.1147 -0.0417
    2MOL0     C  167   0.990   9.186   2.322 -1.9844 -0.2318  0.8909
    2MOL0     C  168   0.886   9.228   2.415 -0.3046  1.5365  0.8921
    2MOL0     O  169   0.762   9.168   2.425  0.2982 -0.1661  0.4277
    2MOL0     C  170   0.652   9.214   2.498 -0.6846 -0.2010 -0.2992
    2MOL0     C  171   0.527   9.201   2.445  0.3354 -0.9198  0.1608
    2MOL0     C  172   0.411   9.221   2.532 -0.0917 -0.5682  1.7567
    2MOL0     C  173   0.423   9.262   2.658  0.9990 -0.9697  0.1323
    2MOL0     O  174   0.309   9.297   2.738 -0.7944 -0.0114  0.5438
    2MOL0     C  175   0.174   9.272   2.700 -0.6200  0.0865  0.5868
    2MOL0     C  176   0.079   9.347   2.785 -0.0096  2.1425  0.6978
    2MOL0     C  177  -0.076   9.309   2.786  0.2198 -0.5013  0.1067
    2MOL0     C  178  -0.153   9.410   2.874  0.3684  0.6527  0.8321
    2MOL0     C  179  -0.304   9.378   2.868  0.2804 -0.2143 -1.3450
    2MOL0     C  180  -0.380   9.482   2.945  0.1973 -0.5746  0.0833
    2MOL0     C  181  -0.525   9.452   2.916 -0.4536  0.2490  1.1779
    2MOL0     C  182  -0.646   9.513   3.003 -0.8072  0.4878  0.1922
    2MOL0    Cl  183  -0.609   9.687   3.008  0.1298  0.1847  0.0473
    2MOL0     C  184   0.554   9.276   2.714  0.1114 -0.0193  0.0019
    2MOL0     C  185   0.662   9.246   2.634  0.3042  0.5794  1.4146
    2MOL0     O  186   0.915   9.319   2.489 -0.1194 -0.0254  0.2404
    2MOL0     C  187   1.131   9.197   2.362 -0.3084 -0.1001  0.4781
    2MOL0     C  188   1.243   9.159   2.285  0.5491 -0.3959  0.4130
    2MOL0     N  189   1.688   8.624   1.788 -0.0008 -0.2610 -0.5346
    2MOL0     N  190   1.656   8.504   1.767  0.7265  0.1124 -0.1907
    2MOL0     C  191   1.146   7.347   1.840 -0.5132 -0.2852 -0.2817
    2MOL0     C  192   1.055   7.275   1.920 -0.6407 -1.6152 -0.5873
    2MOL0     C  193   0.704   7.227   2.240 -0.7419  0.1244 -0.3220
    2MOL0     C  194   0.584   7.262   2.302  0.4760  0.1608  0.9875
    2MOL0     C  195   0.535   7.189   2.412  0.4045  0.8143  0.0204
    2MOL0     C  196   0.611   7.095   2.483 -0.0742  1.0467 -0.2717
    2MOL0     O  197   0.548   7.027   2.591  0.7056 -0.1501  0.0774
    2MOL0     C  198   0.623   6.964   2.701  0.5881  0.3743 -0.5452
    2MOL0     C  199   0.681   7.064   2.786  0.4471 -0.9109  0.1144
    2MOL0     C  200   0.751   7.010   2.904 -0.6134  0.3013 -0.6751
    2MOL0     C  201   0.853   6.907   2.864  0.4007 -0.6226  0.8055
    2MOL0     C  202   0.935   6.877   2.980  0.3935 -0.0163 -1.2080
    2MOL0     C  203   0.999   6.837   3.067  0.4000 -0.6808 -1.1463
    2MOL0     C  204   0.741   7.078   2.440 -0.9026  0.2815  0.3326
    2MOL0     C  205   0.782   7.139   2.319 -0.1234 -0.4105 -0.5251
    2MOL0     C  206   0.915   7.089   2.267 -0.7978 -0.2886  0.5364
    2MOL0     H  207   0.889   7.531   2.064  0.4265 -2.0056  2.2755
    2MOL0     H  208   1.066   7.655   1.931 -2.1849  0.4130 -1.6547
    2MOL0     H  209   1.148   7.714   1.709  1.4220  0.4820 -0.4168
    2MOL0     H  210   1.137   7.557   1.610 -0.9912  1.4335 -0.6250
    2MOL0     H  211   1.369   7.604   1.535  2.7715  1.1274  0.5266
    2MOL0     H  212   1.275   7.747   1.506 -3.1230 -1.5028  1.2899
    2MOL0     H  213   1.483   7.709   1.734 -0.5968 -0.0743  1.4142
    2MOL0     H  214   1.506   7.797   1.589 -1.5754  3.7514  0.2704
    2MOL0     H  215   1.321   7.948   1.637 -3.4651 -2.1455  0.9885
    2MOL0     H  216   1.313   7.873   1.793  0.5067  1.3794  0.5487
    2MOL0     H  217   1.561   8.019   1.672 -2.8171  0.2829 -3.0624
    2MOL0     H  218   1.554   7.939   1.834  1.3273  0.6338 -0.6206
    2MOL0     H  219   1.356   8.158   1.751  0.5752  0.8044 -1.3877
    2MOL0     H  220   1.402   8.107   1.903 -0.2141 -0.0608 -0.7418
    2MOL0     H  221   1.587   8.263   1.706  1.0848 -0.0225 -0.2615
    2MOL0     H  222   1.630   8.186   1.864  0.1098 -0.7300 -1.0000
    2MOL0     H  223   1.401   8.392   1.827  0.7005  3.1375  1.3737
    2MOL0     H  224   1.466   8.337   1.979 -1.9998 -0.6372 -0.4934
    2MOL0     H  225   1.489   8.593   2.040  0.5606 -1.9305  1.3552
    2MOL0     H  226   1.716   8.880   1.886  0.0378 -1.6511 -1.9397
    2MOL0     H  227   1.663   8.845   2.047  1.0725 -1.0614 -0.8250
    2MOL0     H  228   1.508   8.905   1.816  2.4680  2.4441  0.6992
    2MOL0     H  229   1.433   8.850   1.970  1.4980 -0.5818  2.4461
    2MOL0     H  230   1.628   9.073   2.004  1.1956 -1.6906 -0.7165
    2MOL0     H  231   1.490   9.117   1.897 -2.4591 -2.6628 -0.1343
    2MOL0     H  232   1.485   8.998   2.175  1.2226 -1.6222 -1.5738
    2MOL0     H  233   1.466   9.173   2.129 -2.0265  0.4772 -1.2311
    2MOL0     H  234   1.046   9.043   2.020  1.1245  1.0663 -0.5585
    2MOL0     H  235   0.783   9.225   2.144  0.7845 -0.1519  2.7033
    2MOL0     H  236   0.768   9.051   2.169 -0.5244  1.2700  1.4712
    2MOL0     H  237   0.840   9.116   2.023 -2.1614  0.4588 -0.2976
    2MOL0     H  238   0.513   9.170   2.342  0.0082  2.7549 -1.0751
    2MOL0     H  239   0.316   9.204   2.483 -0.0978  0.8661  1.2275
    2MOL0     H  240   0.155   9.304   2.597 -1.9624 -0.5235  0.6381
    2MOL0     H  241   0.154   9.165   2.712 -0.3465 -0.1243 -0.6468
    2MOL0     H  242   0.106   9.335   2.891 -1.9025  0.0087  0.9991
    2MOL0     H  243   0.075   9.453   2.757 -1.2727  1.9900  0.2796
    2MOL0     H  244  -0.089   9.210   2.832  3.6427 -1.1929 -0.1575
    2MOL0     H  245  -0.111   9.318   2.683 -0.4098 -1.5266  0.2114
    2MOL0     H  246  -0.124   9.508   2.835  1.9850 -0.6551 -1.5101
    2MOL0     H  247  -0.123   9.404   2.979 -2.3017  1.1681  1.7046
    2MOL0     H  248  -0.346   9.378   2.767  0.3424 -0.1047 -1.3717
    2MOL0     H  249  -0.316   9.284   2.923 -0.0731  0.1945 -0.7066
    2MOL0     H  250  -0.351   9.580   2.905 -1.1878 -0.3863 -0.5378
    2MOL0     H  251  -0.347   9.476   3.049  1.5684 -2.8591 -0.4158
    2MOL0     H  252  -0.539   9.348   2.886  1.0466  0.5760 -0.8812
    2MOL0     H  253  -0.543   9.507   2.823 -1.0739 -0.8655  0.6205
    2MOL0     H  254  -0.645   9.475   3.105  0.4559  2.4637  0.9701
    2MOL0     H  255  -0.750   9.504   2.969 -0.7579  3.0992 -0.8752
    2MOL0     H  256   0.570   9.322   2.811 -1.8405  0.7239  0.0021
    2MOL0     H  257   0.766   9.241   2.666  2.0312  1.9517 -3.1712
    2MOL0     H  258   1.156   9.239   2.458  0.1187  1.1401 -0.1626
    2MOL0     H  259   1.348   9.154   2.311  0.1396  1.3017  2.7086
    2MOL0     H  260   1.220   7.301   1.775  0.5318 -0.3614  0.9162
    2MOL0     H  261   1.059   7.166   1.913  0.6924 -1.6458  0.3455
    2MOL0     H  262   0.528   7.348   2.265  2.0715  1.2814  1.0974
    2MOL0     H  263   0.433   7.199   2.448  1.1580 -0.7196  2.9520
    2MOL0     H  264   0.552   6.903   2.758 -1.1958  0.8939 -2.1298
    2MOL0     H  265   0.697   6.893   2.662 -0.2579  0.3096 -2.1085
    2MOL0     H  266   0.594   7.122   2.817 -0.1287 -1.4084 -0.5130
    2MOL0     H  267   0.737   7.136   2.726 -1.5704  2.1143  1.5895
    2MOL0     H  268   0.806   7.095   2.946  1.0257  0.1292 -2.3087
    2MOL0     H  269   0.689   6.958   2.978  0.4711 -0.4770 -0.2807
    2MOL0     H  270   0.935   6.949   2.805 -0.8967  1.9211  0.7080
    2MOL0     H  271   0.802   6.813   2.841 -0.1706 -0.3520  0.9723
    2MOL0     H  272   1.049   6.815   3.159  0.5147 -0.3051 -1.1203
    2MOL0     H  273   0.795   7.005   2.500 -0.7730  0.4606  0.4344
    2MOL0     H  274   0.968   7.031   2.343 -0.6790 -1.6443 -0.5303
    2MOL0     H  275   0.912   7.019   2.183 -0.2519 -1.1685  1.2352
    2MOL0     H  276   0.974   7.178   2.247 -0.8433 -0.1904  0.8433
    3MOL0     O  277   2.003   1.469   5.349 -0.0953  0.2376 -0.0623
    3MOL0     C  278   1.977   1.371   5.277 -0.2398 -0.3837 -0.3713
    3MOL0     O  279   2.061   1.260   5.267  0.5484  0.1819 -0.2391
    3MOL0     C  280   2.177   1.224   5.330 -1.0190  0.0542 -0.9425
    3MOL0     C  281   2.268   1.146   5.258  0.6657 -0.1872 -0.6619
    3MOL0     C  282   2.395   1.100   5.303  0.0328 -0.6201  0.7416
    3MOL0     C  283   2.420   1.130   5.436  0.1782  0.6431  0.0993
    3MOL0     O  284   2.544   1.080   5.476 -0.3605  0.1249 -0.4226
    3MOL0     C  285   2.603   1.167   5.577 -1.0013 -0.1494  0.2941
    3MOL0     C  286   2.751   1.158   5.578 -0.5629  0.0622  0.5124
    3MOL0     C  287   2.809   1.217   5.704 -1.0153  0.7657  0.1886
    3MOL0     C  288   2.949   1.172   5.708 -0.3421 -0.3171 -0.1408
    3MOL0     C  289   3.048   1.242   5.813 -0.8897  0.3641  0.6028
    3MOL0     C  290   3.034   1.198   5.957 -0.4274  0.1323  0.4340
    3MOL0     C  291   3.138   1.246   6.052  0.5771 -0.3735 -0.4639
    3MOL0     C  292   3.121   1.395   6.085 -1.2400  0.7964  0.2934
    3MOL0     N  293   3.249   1.445   6.153  0.2759 -0.5637  0.3317
    3MOL0     C  294   3.317   1.397   6.264  0.4734  0.9635  0.4847
    3MOL0     C  295   3.408   1.486   6.299 -1.0077  0.8517 -0.3331
    3MOL0     C  296   3.493   1.465   6.420  0.3211  0.8557 -0.8624
    3MOL0     C  297   3.538   1.604   6.487  0.6461  0.3317 -0.0840
    3MOL0     C  298   3.601   1.561   6.616 -0.6023 -1.4099 -0.3377
    3MOL0     C  299   3.661   1.675   6.707 -0.0126  0.5697  0.3417
    3MOL0     O  300   3.755   1.758   6.633 -0.4263  0.0669  0.4308
    3MOL0     C  301   3.787   1.880   6.681  0.0487 -0.6804 -2.0330
    3MOL0     C  302   3.751   1.989   6.611  0.3149 -0.4613 -0.2119
    3MOL0     C  303   3.777   2.120   6.651  0.1397  0.0718 -0.4674
    3MOL0     C  304   3.733   2.242   6.563  0.4486 -0.8356  0.1258
    3MOL0     C  305   3.830   2.138   6.784  0.2042 -0.2121  0.2280
    3MOL0     C  306   3.848   2.263   6.836 -0.1879 -0.2002  0.2275
    3MOL0     O  307   3.975   2.289   6.887  0.1455  0.2844  0.1976
    3MOL0     C  308   4.011   2.419   6.907 -0.2111  0.2426 -0.6741
    3MOL0     C  309   3.994   2.505   6.797  0.0424  0.1676 -0.2140
    3MOL0     C  310   4.055   2.635   6.803  0.1581 -0.1768  0.6129
    3MOL0     C  311   4.121   2.676   6.917 -0.2975 -0.0616  0.2035
    3MOL0     O  312   4.196   2.789   6.933  0.0024  0.1309  0.8157
    3MOL0     C  313   4.163   2.901   6.848  0.4893  0.9648 -0.2236
    3MOL0     C  314   4.215   3.020   6.923 -0.2352  0.1836  0.6987
    3MOL0     C  315   4.361   3.000   6.961  0.4969 -0.0669 -0.4340
    3MOL0     C  316   4.415   3.098   7.071 -0.0364  0.3608  0.5573
    3MOL0     C  317   4.549   3.043   7.132 -0.2696 -0.1824  0.1384
    3MOL0     C  318   4.616   3.141   7.219  1.6393 -0.0725 -0.5035
    3MOL0     C  319   4.716   3.065   7.307  0.1807 -0.8734  1.0672
    3MOL0     C  320   4.789   2.948   7.247 -0.2494 -0.7278 -0.3789
    3MOL0    Cl  321   4.939   2.895   7.343  0.3668  0.0361 -0.2109
    3MOL0     C  322   4.134   2.588   7.021  0.4219  0.3393  0.0358
    3MOL0     C  323   4.080   2.461   7.016  0.7743 -0.2465 -0.5512
    3MOL0     O  324   3.760   2.343   6.835  0.4908 -0.0938 -0.7179
    3MOL0     C  325   3.854   2.026   6.866  1.2202  0.2859 -0.4126
    3MOL0     C  326   3.845   1.898   6.808 -0.8357  0.0044 -0.6531
    3MOL0     N  327   3.385   1.596   6.222 -0.0704 -0.2065  0.3019
    3MOL0     N  328   3.294   1.574   6.138  0.4392 -0.1396 -0.8793
    3MOL0     C  329   2.330   1.207   5.515  0.4614 -0.0092 -0.1515
    3MOL0     C  330   2.207   1.251   5.465 -0.0022  0.6902  0.6199
    3MOL0     C  331   1.845   1.364   5.211 -0.6290  0.0186 -0.2937
    3MOL0     C  332   1.833   1.266   5.107 -1.7690 -0.4682 -0.6016
    3MOL0     C  333   1.719   1.252   5.044  0.0353 -0.0842  0.4400
    3MOL0     C  334   1.611   1.336   5.055  1.1827  0.2521 -0.4366
    3MOL0     O  335   1.508   1.312   4.973  0.1794 -0.0336  0.6031
    3MOL0     C  336   1.377   1.364   5.000 -0.9899 -0.0830 -0.4841
    3MOL0     C  337   1.274   1.317   4.899 -0.6309 -0.9078  0.2652
    3MOL0     C  338   1.231   1.173   4.930  0.4751 -0.4250  0.2445
    3MOL0     C  339   1.090   1.145   4.873  0.4518  0.1043  0.4980
    3MOL0     C  340   0.976   1.213   4.936 -0.4235 -0.6881  0.4976
    3MOL0     C  341   0.871   1.262   4.984 -0.6130  0.2492 -0.8961
    3MOL0     C  342   1.626   1.445   5.143  0.4579 -0.5839 -0.1419
    3MOL0     C  343   1.742   1.463   5.222 -0.3426  0.0837  0.3488
    3MOL0     C  344   1.729   1.575   5.321  0.1473 -0.8221 -0.0720
    3MOL0     H  345   2.239   1.105   5.162  2.3335  0.4022 -1.4709
    3MOL0     H  346   2.452   1.042   5.232 -2.5306  0.2217 -2.2394
    3MOL0     H  347   2.564   1.136   5.675 -2.6024  0.2288 -0.2028
    3MOL0     H  348   2.579   1.273   5.568  0.5124  0.2592  0.7912
    3MOL0     H  349   2.770   1.050   5.575  0.4095  0.2222  0.4901
    3MOL0     H  350   2.800   1.184   5.484 -1.5931  1.0877  0.2390
    3MOL0     H  351   2.805   1.326   5.698 -1.7788  0.6715 -1.6088
    3MOL0     H  352   2.763   1.186   5.799 -2.8447  0.5894 -0.7054
    3MOL0     H  353   2.945   1.064   5.728  1.2442 -0.4936 -0.6548
    3MOL0     H  354   2.994   1.194   5.611  0.0607 -0.5467 -0.0096
    3MOL0     H  355   3.053   1.351   5.810  0.5658  0.3280  0.6936
    3MOL0     H  356   3.146   1.220   5.769 -1.5374  0.1809 -0.7974
    3MOL0     H  357   2.937   1.240   5.984 -0.0087  1.2250  0.2653
    3MOL0     H  358   3.031   1.088   5.959  1.4450  0.0434  0.6394
    3MOL0     H  359   3.240   1.230   6.017  0.5514  0.1970 -0.8127
    3MOL0     H  360   3.135   1.178   6.138 -0.1368 -3.2639 -2.5904
    3MOL0     H  361   3.115   1.451   5.991 -2.4873 -2.4088 -1.7347
    3MOL0     H  362   3.027   1.415   6.137 -1.6033  1.9551 -0.7607
    3MOL0     H  363   3.298   1.296   6.299  0.1767  0.6195 -0.6055
    3MOL0     H  364   3.581   1.409   6.388 -1.3872 -3.0207  0.6369
    3MOL0     H  365   3.445   1.400   6.493  2.5560  0.9480  0.7797
    3MOL0     H  366   3.603   1.663   6.422  0.5008 -1.5514 -2.0606
    3MOL0     H  367   3.447   1.662   6.506 -1.8277 -3.3799  0.4045
    3MOL0     H  368   3.520   1.518   6.676 -1.0920 -2.7333 -1.8846
    3MOL0     H  369   3.664   1.475   6.594  0.6701 -1.0276  1.5783
    3MOL0     H  370   3.584   1.744   6.743 -0.5105  1.0446 -1.4798
    3MOL0     H  371   3.724   1.645   6.791  0.0849 -1.0535 -0.2880
    3MOL0     H  372   3.690   1.958   6.527 -1.4387  1.9350  0.0690
    3MOL0     H  373   3.685   2.214   6.469  0.3987  0.8637 -0.3857
    3MOL0     H  374   3.807   2.318   6.537 -1.9991  0.9357 -2.3243
    3MOL0     H  375   3.653   2.297   6.612  0.7444 -0.5062  0.2406
    3MOL0     H  376   3.955   2.457   6.708 -1.5497  3.2958 -1.3732
    3MOL0     H  377   4.064   2.687   6.708  0.5246 -1.0995  0.1326
    3MOL0     H  378   4.216   2.881   6.755  0.0861 -1.0303 -0.0782
    3MOL0     H  379   4.058   2.913   6.818  0.4972  1.1031 -0.1983
    3MOL0     H  380   4.204   3.112   6.866 -1.4169 -0.7774 -0.7197
    3MOL0     H  381   4.153   3.033   7.011 -0.9608 -0.6252  0.3279
    3MOL0     H  382   4.431   2.991   6.877 -1.5630  3.3631 -2.7511
    3MOL0     H  383   4.376   2.903   7.010 -2.4169 -0.6288 -0.4924
    3MOL0     H  384   4.341   3.107   7.151 -1.3421 -1.9852 -0.2905
    3MOL0     H  385   4.434   3.194   7.023 -0.8560  0.7554  1.0054
    3MOL0     H  386   4.528   2.950   7.186 -1.7778  0.3596  0.5292
    3MOL0     H  387   4.620   3.026   7.051 -0.4496  2.7334 -0.7584
    3MOL0     H  388   4.539   3.183   7.284  1.5102  1.2322 -1.4771
    3MOL0     H  389   4.667   3.222   7.166  0.1538  0.1872 -1.5791
    3MOL0     H  390   4.669   3.045   7.404 -2.1295  0.9142  0.3983
    3MOL0     H  391   4.795   3.137   7.328 -0.8980  1.7817 -2.7821
    3MOL0     H  392   4.805   2.980   7.143 -1.2175  3.6796  0.6363
    3MOL0     H  393   4.725   2.860   7.241 -0.0894 -0.7924 -1.2992
    3MOL0     H  394   4.180   2.625   7.113  2.7454  0.3612 -1.0619
    3MOL0     H  395   4.098   2.408   7.110  0.6287  0.5896 -0.0383
    3MOL0     H  396   3.870   2.041   6.972  0.4064  0.9153 -0.3754
    3MOL0     H  397   3.859   1.812   6.873  0.8490  0.2376 -0.6839
    3MOL0     H  398   2.353   1.227   5.619 -0.9683  1.9541 -0.1406
    3MOL0     H  399   2.133   1.294   5.531 -0.2019 -2.0462  2.3341
    3MOL0     H  400   1.916   1.197   5.100 -2.3253 -1.6743  2.6440
    3MOL0     H  401   1.722   1.173   4.970 -1.6241 -0.4460  0.7309
    3MOL0     H  402   1.341   1.344   5.101  1.8433 -3.4971  0.0243
    3MOL0     H  403   1.389   1.472   4.985  1.6107 -0.5883 -2.9295
    3MOL0     H  404   1.331   1.324   4.806  3.6043 -1.3272  2.5724
    3MOL0     H  405   1.194   1.392   4.899  1.0377  0.9613 -0.9539
    3MOL0     H  406   1.301   1.113   4.871  0.2655  0.1711 -0.6321
    3MOL0     H  407   1.236   1.158   5.039 -1.1599 -1.6386  0.1943
    3MOL0     H  408   1.071   1.039   4.888  3.7000 -0.6173  0.1524
    3MOL0     H  409   1.091   1.163   4.765 -3.4195  0.6343  0.4013
    3MOL0     H  410   0.770   1.285   5.012 -1.5321 -1.0483 -2.8463
    3MOL0     H  411   1.541   1.513   5.148 -0.0891 -1.2059 -0.9176
    3MOL0     H  412   1.704   1.532   5.419 -3.1758  1.5110  0.2837
    3MOL0     H  413   1.816   1.638   5.341 -0.9159 -0.0612  2.5303
    3MOL0     H  414   1.652   1.646   5.289 -0.1987 -1.5511 -0.9212
    4MOL0     O  415   1.916   4.221  10.127  0.0452 -0.0796 -0.4028
    4MOL0     C  416   1.866   4.273  10.233 -0.4335  0.8525  0.5254
    4MOL0     O  417   1.940   4.285  10.350  0.8026 -0.8240  0.2217
    4MOL0     C  418   2.070   4.246  10.361 -0.2575 -0.0437  1.3797
    4MOL0     C  419   2.175   4.302  10.278  0.0953  0.1732 -0.1519
    4MOL0     C  420   2.310   4.260  10.287  0.2632 -0.8822  0.4929
    4MOL0     C  421   2.349   4.169  10.385  0.7036  0.2533 -0.3893
    4MOL0     O  422   2.485   4.143  10.384 -0.3487  0.3574 -0.5509
    4MOL0     C  423   2.526   4.036  10.479 -0.2013  0.3863 -0.7415
    4MOL0     C  424   2.677   4.010  10.470  0.2335 -0.6054 -0.2143
    4MOL0     C  425   2.717   3.871  10.523  0.3945  0.0054  0.3053
    4MOL0     C  426   2.877   3.861  10.502 -0.2132 -0.1510  0.9061
    4MOL0     C  427   2.938   3.762  10.603  0.6139 -0.2291 -0.7721
    4MOL0     C  428   2.898   3.623  10.565  0.0441  0.6466 -0.1440
    4MOL0     C  429   2.925   3.573  10.416  0.1524  0.1781  0.5908
    4MOL0     C  430   3.067   3.591  10.385 -0.2054  0.5613  0.0892
    4MOL0     N  431   3.123   3.491  10.291  0.2006 -0.2643 -0.4719
    4MOL0     C  432   3.139   3.522  10.160  0.5808 -0.3130  0.2478
    4MOL0     C  433   3.176   3.412  10.097 -0.3401  1.0054  0.0842
    4MOL0     C  434   3.212   3.396   9.947 -0.4021 -1.3616 -0.1546
    4MOL0     C  435   3.363   3.403   9.902 -0.0005  0.2387 -0.3753
    4MOL0     C  436   3.417   3.547   9.903 -0.4007 -0.5162 -0.2925
    4MOL0     C  437   3.575   3.563   9.895  0.2170 -0.0379 -1.3625
    4MOL0     O  438   3.633   3.524   9.774  0.3646 -0.6001 -0.3825
    4MOL0     C  439   3.757   3.574   9.756 -0.2980  0.4843 -0.2583
    4MOL0     C  440   3.778   3.704   9.722 -0.1666 -0.6289 -0.1639
    4MOL0     C  441   3.904   3.764   9.704 -0.7629 -0.5894 -0.4830
    4MOL0     C  442   3.914   3.912   9.682  0.0164  0.8201  0.2475
    4MOL0     C  443   4.020   3.683   9.722 -0.3813  0.3113  0.3510
    4MOL0     C  444   4.155   3.748   9.713 -0.6030 -0.7405  0.0848
    4MOL0     O  445   4.236   3.698   9.613  0.0645  0.8104  0.4870
    4MOL0     C  446   4.346   3.774   9.576 -0.2865 -0.1430  0.5538
    4MOL0     C  447   4.468   3.701   9.548 -0.7497 -0.2283  0.4284
    4MOL0     C  448   4.581   3.773   9.525 -0.5397  0.1242  0.2012
    4MOL0     C  449   4.575   3.911   9.489 -0.7052 -0.3008  0.9188
    4MOL0     O  450   4.697   3.975   9.475 -0.0279  0.2107  0.5409
    4MOL0     C  451   4.700   4.113   9.453  0.4804  0.2116 -0.1201
    4MOL0     C  452   4.840   4.162   9.455 -0.1678  0.4387  0.6691
    4MOL0     C  453   4.911   4.135   9.329  0.0630 -1.1548  0.3779
    4MOL0     C  454   5.006   4.242   9.305 -0.9443  0.3027  0.4018
    4MOL0     C  455   5.109   4.205   9.191  0.0251  0.4082 -0.1296
    4MOL0     C  456   5.242   4.295   9.200  0.6448  0.8386 -0.2193
    4MOL0     C  457   5.338   4.276   9.083 -1.3011 -0.0231 -0.5790
    4MOL0     C  458   5.456   4.372   9.097 -0.6478  0.4639 -0.2269
    4MOL0    Cl  459   5.581   4.312   8.973  0.1965  0.2474  0.2554
    4MOL0     C  460   4.453   3.972   9.486  0.9815 -0.2025  0.0944
    4MOL0     C  461   4.340   3.913   9.548 -0.9612 -0.2276 -0.2934
    4MOL0     O  462   4.180   3.853   9.776 -0.2642  0.4171  0.1895
    4MOL0     C  463   4.000   3.551   9.757  0.7130  0.0448  0.0600
    4MOL0     C  464   3.868   3.495   9.769  0.2634 -0.6665  0.3569
    4MOL0     N  465   3.175   3.309  10.195  0.3199 -0.1018  0.5024
    4MOL0     N  466   3.155   3.362  10.314 -1.3638 -0.5123  0.0287
    4MOL0     C  467   2.247   4.115  10.470  0.0015 -0.1427  0.0245
    4MOL0     C  468   2.107   4.150  10.457 -0.5647  1.0406  0.1433
    4MOL0     C  469   1.722   4.319  10.228 -0.1730 -1.0141  0.0131
    4MOL0     C  470   1.675   4.370  10.102 -0.1823  0.3725 -0.0249
    4MOL0     C  471   1.545   4.402  10.069 -0.2717  0.1919  1.0194
    4MOL0     C  472   1.456   4.393  10.175  1.4054  0.0351 -0.1510
    4MOL0     O  473   1.322   4.431  10.163  0.0949 -0.6632 -0.6499
    4MOL0     C  474   1.233   4.353  10.236  0.6954 -0.1229 -0.0541
    4MOL0     C  475   1.143   4.464  10.309  0.2807  0.1651  0.1792
    4MOL0     C  476   1.042   4.529  10.211  0.3037  1.0372  0.5143
    4MOL0     C  477   1.106   4.586  10.089  0.4348  0.0493  0.0844
    4MOL0     C  478   1.018   4.684  10.020  0.2612  0.6159  1.2054
    4MOL0     C  479   0.942   4.756   9.956 -0.4289 -1.3411 -0.0477
    4MOL0     C  480   1.506   4.362  10.313  0.3085  1.1278  0.4776
    4MOL0     C  481   1.637   4.308  10.336  0.5538 -0.1536 -0.2218
    4MOL0     C  482   1.679   4.271  10.475 -0.5181  0.4098  0.2944
    4MOL0     H  483   2.137   4.375  10.206  0.9229 -0.9777 -1.8279
    4MOL0     H  484   2.379   4.296  10.212 -1.3057  0.9415 -0.1613
    4MOL0     H  485   2.478   3.948  10.436 -0.6261  1.8358 -3.4705
    4MOL0     H  486   2.483   4.053  10.578 -0.4735  1.6860 -1.0708
    4MOL0     H  487   2.717   4.007  10.368  0.5003  1.8922 -0.2263
    4MOL0     H  488   2.721   4.091  10.528 -3.9263  0.1308  2.3297
    4MOL0     H  489   2.688   3.872  10.628 -1.8542  0.2422 -0.2515
    4MOL0     H  490   2.663   3.789  10.474  2.4278 -2.3023  1.6922
    4MOL0     H  491   2.902   3.835  10.398 -1.4747  1.3657  0.1890
    4MOL0     H  492   2.925   3.957  10.521  1.2134 -0.2967 -1.5238
    4MOL0     H  493   2.916   3.790  10.707 -0.9443  0.4634 -1.2523
    4MOL0     H  494   3.046   3.772  10.589  0.6013  0.2821 -0.5333
    4MOL0     H  495   2.960   3.563  10.633  0.0974 -0.5257 -1.1864
    4MOL0     H  496   2.793   3.596  10.582  0.4925 -2.2802 -1.3677
    4MOL0     H  497   2.867   3.639  10.351  2.6810  2.5105  0.5656
    4MOL0     H  498   2.887   3.470  10.412  1.1648 -0.1767 -0.6308
    4MOL0     H  499   3.093   3.693  10.358 -0.7460  0.4783 -0.7777
    4MOL0     H  500   3.123   3.569  10.476  0.0122  3.1855  0.6566
    4MOL0     H  501   3.131   3.618  10.108  2.3855 -1.3868 -2.2085
    4MOL0     H  502   3.159   3.482   9.905 -0.9052 -0.6064  1.9224
    4MOL0     H  503   3.174   3.298   9.920 -0.2011 -0.9019 -2.2851
    4MOL0     H  504   3.436   3.348   9.964 -0.3716 -0.5932 -0.6589
    4MOL0     H  505   3.358   3.363   9.801 -3.3456 -1.5123  0.3309
    4MOL0     H  506   3.377   3.590   9.811  0.9766  0.7069 -0.3449
    4MOL0     H  507   3.376   3.618   9.975 -1.5277 -0.8178 -0.6081
    4MOL0     H  508   3.600   3.667   9.917 -0.9835 -0.0612  0.2966
    4MOL0     H  509   3.607   3.496   9.976 -1.5348  1.1387  0.3783
    4MOL0     H  510   3.694   3.773   9.710  0.7215  0.1796 -2.1163
    4MOL0     H  511   3.966   3.973   9.756  2.9267 -1.3747  0.1942
    4MOL0     H  512   3.816   3.960   9.677  0.9434  2.7000 -3.8993
    4MOL0     H  513   3.967   3.917   9.587 -2.8820 -0.9053 -1.6344
    4MOL0     H  514   4.475   3.594   9.562  0.4752 -0.2876 -0.4765
    4MOL0     H  515   4.675   3.719   9.524  0.0344  0.8212 -4.1143
    4MOL0     H  516   4.655   4.141   9.358 -0.3026 -1.4645 -0.2566
    4MOL0     H  517   4.647   4.166   9.533 -1.9352  0.6484 -1.8983
    4MOL0     H  518   4.819   4.269   9.466 -2.3681  0.0489  0.7253
    4MOL0     H  519   4.896   4.122   9.539  2.8080 -0.9738 -1.7986
    4MOL0     H  520   4.853   4.129   9.237  0.4217  1.1774 -0.0733
    4MOL0     H  521   4.951   4.033   9.333 -0.7359 -1.5726 -1.4474
    4MOL0     H  522   5.071   4.255   9.392  0.0034 -3.2776  0.3723
    4MOL0     H  523   4.954   4.336   9.281  0.8295  2.1789  3.3541
    4MOL0     H  524   5.124   4.097   9.197  1.5074  0.6727  1.8503
    4MOL0     H  525   5.075   4.219   9.088  1.0827 -2.3553 -0.9547
    4MOL0     H  526   5.306   4.274   9.286 -1.0496  0.1571  0.9505
    4MOL0     H  527   5.203   4.397   9.193 -1.3924  0.4332  2.9392
    4MOL0     H  528   5.298   4.282   8.982 -0.0446 -2.3155 -1.3027
    4MOL0     H  529   5.387   4.178   9.082 -0.0135  0.5659  0.5881
    4MOL0     H  530   5.485   4.354   9.201 -0.8648  2.7715  0.2812
    4MOL0     H  531   5.435   4.479   9.095  3.7177  1.5082 -1.0538
    4MOL0     H  532   4.436   4.068   9.438  2.3389  0.5209  1.0007
    4MOL0     H  533   4.243   3.963   9.550 -1.2719 -0.8087 -0.4936
    4MOL0     H  534   4.081   3.487   9.792 -2.3434 -2.0492  4.2422
    4MOL0     H  535   3.845   3.391   9.791  0.6913 -1.2455 -1.6769
    4MOL0     H  536   2.261   4.036  10.543 -0.9887 -1.4646 -1.1557
    4MOL0     H  537   2.041   4.101  10.528 -1.0764  1.9651  0.3218
    4MOL0     H  538   1.738   4.397  10.018 -0.2711  2.8256  0.6204
    4MOL0     H  539   1.511   4.444   9.975 -1.0392 -2.0065  0.2719
    4MOL0     H  540   1.167   4.298  10.169 -1.7458  1.5133  0.8533
    4MOL0     H  541   1.276   4.278  10.303 -0.1764  2.1828  3.3721
    4MOL0     H  542   1.202   4.539  10.362  0.0792  1.3517 -1.2107
    4MOL0     H  543   1.090   4.410  10.388 -0.8885 -0.0743 -0.7268
    4MOL0     H  544   0.978   4.450  10.171  1.4473  1.3528 -2.1383
    4MOL0     H  545   0.977   4.607  10.252 -0.8518  0.4698 -0.1846
    4MOL0     H  546   1.136   4.514  10.012 -0.0139  1.9368 -1.9797
    4MOL0     H  547   1.197   4.637  10.124  1.2154 -2.2833  1.7152
    4MOL0     H  548   0.867   4.816   9.910 -0.2851 -0.2306  1.1101
    4MOL0     H  549   1.434   4.362  10.394  0.3533  0.7514  0.5217
    4MOL0     H  550   1.721   4.359  10.525  0.8641 -0.5910  0.9623
    4MOL0     H  551   1.588   4.248  10.530 -1.6219  0.7996 -1.2872
    4MOL0     H  552   1.746   4.185  10.480 -0.2281  0.6045 -0.1220
    5MOL0     O  553   0.913   9.231   9.812 -0.4837 -0.8031  0.2429
    5MOL0     C  554   1.007   9.150   9.828 -0.2180  0.0208  0.7763
    5MOL0     O  555   1.079   9.090   9.722  0.2150  0.2653  0.1185
    5MOL0     C  556   1.024   9.105   9.599  0.8507 -0.6232 -0.1058
    5MOL0     C  557   0.888   9.082   9.565 -0.3562 -0.4926  0.4236
    5MOL0     C  558   0.845   9.102   9.433 -0.8380  0.1421 -0.0400
    5MOL0     C  559   0.931   9.134   9.327 -0.7011  0.4394  0.4535
    5MOL0     O  560   0.878   9.181   9.209 -0.5085  0.6192 -0.4396
    5MOL0     C  561   0.939   9.286   9.139 -0.2684  0.2456  0.2227
    5MOL0     C  562   0.819   9.354   9.064  0.5360 -0.1040  0.2195
    5MOL0     C  563   0.877   9.444   8.961 -0.0454  0.0133 -0.0659
    5MOL0     C  564   0.767   9.492   8.861 -0.5050 -0.2522 -0.0729
    5MOL0     C  565   0.820   9.581   8.747  0.4664  0.0919  0.5065
    5MOL0     C  566   0.806   9.732   8.775 -0.0383  0.0386  0.0834
    5MOL0     C  567   0.827   9.805   8.642 -0.0677 -0.1057 -0.5040
    5MOL0     C  568   0.958   9.881   8.625 -0.8578 -0.5568  0.0610
    5MOL0     N  569   1.080   9.798   8.636  0.6514 -0.2911 -0.3967
    5MOL0     C  570   1.143   9.781   8.757 -0.3271  0.4285  0.0753
    5MOL0     C  571   1.253   9.707   8.724  1.0622 -0.2927 -0.5951
    5MOL0     C  572   1.370   9.686   8.815  0.5329  0.1228  0.6579
    5MOL0     C  573   1.371   9.546   8.868  0.3760 -1.3358  0.3167
    5MOL0     C  574   1.283   9.531   8.990  0.3990 -0.8370 -0.1958
    5MOL0     C  575   1.287   9.384   9.033 -0.5346 -0.4637  0.3874
    5MOL0     O  576   1.420   9.360   9.059 -0.9595 -0.0490 -0.4351
    5MOL0     C  577   1.449   9.297   9.177 -0.5362  0.0714  0.3158
    5MOL0     C  578   1.468   9.374   9.291 -0.3164 -1.6842 -0.0782
    5MOL0     C  579   1.487   9.328   9.418  0.1300 -0.2136  0.6343
    5MOL0     C  580   1.533   9.429   9.524  0.1273  1.0261  0.2731
    5MOL0     C  581   1.476   9.182   9.438 -0.7101  0.0028 -0.4023
    5MOL0     C  582   1.472   9.104   9.569 -0.4481  0.6202  0.2302
    5MOL0     O  583   1.519   9.173   9.680  0.0799  0.3804  0.9769
    5MOL0     C  584   1.556   9.109   9.796 -0.3589  0.5755  0.2421
    5MOL0     C  585   1.456   9.049   9.881 -0.2484 -0.6374 -0.3254
    5MOL0     C  586   1.499   8.996  10.006  0.8822  0.2737  0.4836
    5MOL0     C  587   1.636   8.998  10.035 -0.7414 -0.6015 -0.2862
    5MOL0     O  588   1.693   8.953  10.147 -0.3362  0.3259 -0.0819
    5MOL0     C  589   1.635   8.837  10.208  0.6429  0.5494  0.4664
    5MOL0     C  590   1.685   8.815  10.350  0.3241 -0.5925 -0.4267
    5MOL0     C  591   1.621   8.898  10.460  0.3181  0.8188  0.0911
    5MOL0     C  592   1.656   9.044  10.443  0.2847  0.1478 -0.8018
    5MOL0     C  593   1.637   9.119  10.581  0.2991 -0.5504  0.3106
    5MOL0     C  594   1.683   9.259  10.577 -0.7340 -0.1718  0.1786
    5MOL0     C  595   1.584   9.352  10.508 -0.0755  0.2745 -0.7045
    5MOL0     C  596   1.639   9.492  10.512 -0.7853  0.5407  0.2621
    5MOL0    Cl  597   1.535   9.597  10.422 -0.1946  0.1448 -0.2178
    5MOL0     C  598   1.730   9.056   9.940 -0.0908  0.3330  0.1989
    5MOL0     C  599   1.692   9.100   9.819  0.4983  0.0679 -0.2206
    5MOL0     O  600   1.429   8.987   9.562  0.3942  0.5197 -0.0869
    5MOL0     C  601   1.465   9.107   9.320  0.2939 -0.2024 -0.1600
    5MOL0     C  602   1.447   9.160   9.190 -0.4223  0.6846  0.0528
    5MOL0     N  603   1.243   9.677   8.591  0.2551 -0.8775  0.9220
    5MOL0     N  604   1.136   9.724   8.535  0.1972 -0.2776 -0.3458
    5MOL0     C  605   1.069   9.129   9.356 -0.5532 -0.1308 -0.5894
    5MOL0     C  606   1.114   9.116   9.487 -0.3596  1.3471 -0.2002
    5MOL0     C  607   1.042   9.110   9.967 -0.5034  0.8934 -0.3956
    5MOL0     C  608   1.087   8.976   9.995  0.3497  0.5900  0.0973
    5MOL0     C  609   1.134   8.936  10.119  0.1449  1.0241  0.4980
    5MOL0     C  610   1.119   9.007  10.233  0.2326  0.1036 -0.4122
    5MOL0     O  611   1.145   8.948  10.354 -0.1883 -0.1968  0.4466
    5MOL0     C  612   1.191   9.029  10.463 -0.0986 -0.1881  0.5959
    5MOL0     C  613   1.240   8.928  10.574  0.0344 -0.3808 -0.0436
    5MOL0     C  614   1.115   8.841  10.621 -0.4086 -0.2434  0.6360
    5MOL0     C  615   1.165   8.738  10.721  0.4346 -0.6854  0.1264
    5MOL0     C  616   1.047   8.664  10.768  0.3109  0.0971  0.4160
    5MOL0     C  617   0.943   8.610  10.797  1.0140 -0.2615 -0.0112
    5MOL0     C  618   1.072   9.136  10.215 -0.6647  0.2422 -0.3900
    5MOL0     C  619   1.037   9.187  10.089  0.3298 -0.3532  0.5479
    5MOL0     C  620   1.011   9.338  10.070 -0.0744  0.3159  0.1973
    5MOL0     H  621   0.811   9.057   9.637  2.2962 -2.9377  2.7192
    5MOL0     H  622   0.737   9.097   9.425 -1.0545 -0.8118  2.5320
    5MOL0     H  623   1.002   9.243   9.061 -0.0315 -0.1102  0.6026
    5MOL0     H  624   0.987   9.359   9.205  1.8116  0.4704 -1.4326
    5MOL0     H  625   0.751   9.280   9.022  0.6296  1.0457 -2.1245
    5MOL0     H  626   0.759   9.418   9.130  1.3333  1.3617 -0.4294
    5MOL0     H  627   0.917   9.534   9.009 -2.7310  0.4024  1.7189
    5MOL0     H  628   0.958   9.394   8.908  0.9716  0.7748  0.7262
    5MOL0     H  629   0.710   9.406   8.826 -0.4799  0.0197 -0.7923
    5MOL0     H  630   0.700   9.558   8.916 -0.0098  1.8168 -1.8051
    5MOL0     H  631   0.748   9.565   8.666  1.4195  1.3693 -0.6418
    5MOL0     H  632   0.922   9.554   8.717  0.3815  2.7816 -2.8474
    5MOL0     H  633   0.704   9.755   8.809 -1.4117  0.6475 -3.8528
    5MOL0     H  634   0.871   9.762   8.857  2.3885 -0.3204 -1.6184
    5MOL0     H  635   0.746   9.875   8.619 -0.2027 -0.0790  0.0467
    5MOL0     H  636   0.826   9.729   8.563 -0.1806 -0.3543 -0.2642
    5MOL0     H  637   0.967   9.937   8.532 -0.6617  0.4792  0.6802
    5MOL0     H  638   0.962   9.951   8.709  2.0397  0.4228 -0.7861
    5MOL0     H  639   1.107   9.818   8.853  0.9510 -0.6555  1.0166
    5MOL0     H  640   1.365   9.756   8.899  0.4594  2.2347 -0.9925
    5MOL0     H  641   1.466   9.706   8.764  0.3296  2.5420  1.0667
    5MOL0     H  642   1.344   9.476   8.788 -0.3544 -1.0148  0.2822
    5MOL0     H  643   1.472   9.523   8.905  0.6923  1.2606  1.2444
    5MOL0     H  644   1.308   9.600   9.071 -1.9355 -0.5812  0.3806
    5MOL0     H  645   1.180   9.564   8.976  0.4538 -0.4125  0.3589
    5MOL0     H  646   1.221   9.365   9.118 -0.0090  1.3711  1.2635
    5MOL0     H  647   1.263   9.334   8.939  3.7989  1.2721 -1.9565
    5MOL0     H  648   1.461   9.481   9.271  1.2435 -1.0541  2.2770
    5MOL0     H  649   1.498   9.530   9.501  1.1186  1.5556  1.0076
    5MOL0     H  650   1.640   9.441   9.544  0.7060 -0.8538 -1.3751
    5MOL0     H  651   1.482   9.406   9.618  1.4617 -1.1281  0.5372
    5MOL0     H  652   1.350   9.066   9.866 -0.6783  1.7152  3.7711
    5MOL0     H  653   1.418   8.965  10.071 -0.2706  1.2892 -0.4253
    5MOL0     H  654   1.526   8.842  10.203  0.5048  0.6215  2.6944
    5MOL0     H  655   1.664   8.751  10.146  0.8749  0.0247  1.2869
    5MOL0     H  656   1.669   8.709  10.371  0.0662 -0.2223  1.4521
    5MOL0     H  657   1.792   8.837  10.349 -0.0486  1.5488  0.7982
    5MOL0     H  658   1.659   8.874  10.559 -0.0542  0.4450  0.1488
    5MOL0     H  659   1.512   8.891  10.469  0.3489  1.1096  0.7276
    5MOL0     H  660   1.579   9.089  10.380 -0.8352 -0.8270 -0.1559
    5MOL0     H  661   1.755   9.067  10.403 -0.7311  0.8674 -3.0300
    5MOL0     H  662   1.534   9.117  10.618  0.9314 -1.0229  2.1190
    5MOL0     H  663   1.703   9.069  10.652 -0.5550 -0.8414  0.9076
    5MOL0     H  664   1.776   9.261  10.520 -0.1380 -2.1096  0.9869
    5MOL0     H  665   1.691   9.285  10.683 -3.2331 -0.2568  0.4560
    5MOL0     H  666   1.490   9.346  10.564  0.9592  0.9425  1.2240
    5MOL0     H  667   1.579   9.326  10.402 -2.0257  1.5030 -0.9795
    5MOL0     H  668   1.733   9.498  10.456 -0.3575  4.1252  1.1038
    5MOL0     H  669   1.653   9.527  10.615 -0.3281 -1.7519  1.0298
    5MOL0     H  670   1.837   9.063   9.961 -0.3895 -0.6724  2.2699
    5MOL0     H  671   1.769   9.151   9.762 -0.8295  0.5603 -1.6737
    5MOL0     H  672   1.469   8.999   9.322 -1.8091 -0.3637 -1.5323
    5MOL0     H  673   1.445   9.091   9.106 -2.8250  2.1705 -1.2267
    5MOL0     H  674   1.136   9.135   9.272  0.2097 -0.8838 -0.0525
    5MOL0     H  675   1.219   9.096   9.506 -0.3330 -3.0050 -3.5033
    5MOL0     H  676   1.079   8.908   9.911 -2.0068  2.7011 -1.5591
    5MOL0     H  677   1.176   8.836  10.130 -1.4801  0.3091  0.3949
    5MOL0     H  678   1.275   9.091  10.431  0.1790 -1.7927 -2.0218
    5MOL0     H  679   1.106   9.093  10.490  0.3838  3.3612 -4.7918
    5MOL0     H  680   1.300   8.975  10.652  1.4491 -1.1425 -0.6369
    5MOL0     H  681   1.311   8.859  10.528 -2.1945 -2.0796 -1.1545
    5MOL0     H  682   1.057   8.920  10.671  2.2435  1.1555  1.7293
    5MOL0     H  683   1.050   8.799  10.544  0.8056  0.3098 -0.7369
    5MOL0     H  684   1.208   8.798  10.801  0.5149  1.4434 -1.4282
    5MOL0     H  685   1.220   8.653  10.680 -1.6291 -2.7100  1.3270
    5MOL0     H  686   0.841   8.581  10.815  0.6555  0.8582 -0.1516
    5MOL0     H  687   1.052   9.196  10.303 -0.6853  1.7061 -1.3464
    5MOL0     H  688   1.072   9.366   9.984  0.3885 -1.4048 -0.0740
    5MOL0     H  689   0.905   9.367  10.064 -0.1782 -0.2590 -1.2978
    5MOL0     H  690   1.050   9.384  10.161  2.2393 -1.1019 -0.0059
    6MOL0     O  691   8.277  10.439   1.799  0.1620  0.4840 -0.0559
    6MOL0     C  692   8.336  10.415   1.908  0.2096  0.1903 -1.2014
    6MOL0     O  693   8.331  10.301   1.982  0.0608 -0.3679  0.0543
    6MOL0     C  694   8.237  10.208   1.951 -0.5024 -0.3177  0.4292
    6MOL0     C  695   8.110  10.204   2.016 -0.7020  0.6114 -0.0763
    6MOL0     C  696   8.016  10.104   1.981 -0.7436  0.2530 -0.5341
    6MOL0     C  697   8.041  10.033   1.863 -0.4713  0.6844  0.1377
    6MOL0     O  698   7.951   9.939   1.811  0.2956 -0.5092 -0.5165
    6MOL0     C  699   7.830   9.914   1.877  0.0157  0.6322 -0.2710
    6MOL0     C  700   7.710  10.012   1.852  0.7991 -0.3797 -0.0347
    6MOL0     C  701   7.574   9.961   1.913  0.3906  0.0682 -0.5552
    6MOL0     C  702   7.486  10.075   1.957 -1.1791  0.0366  0.4061
    6MOL0     C  703   7.348  10.012   1.990  0.2177 -0.5982 -1.0796
    6MOL0     C  704   7.257  10.106   2.062 -0.1539 -0.5123  0.2665
    6MOL0     C  705   7.109  10.066   2.075 -0.1424 -0.1290  0.3663
    6MOL0     C  706   7.031  10.125   1.963  0.3915  0.0037 -0.1852
    6MOL0     N  707   6.888  10.104   1.989  0.4391  0.6231  0.1740
    6MOL0     C  708   6.812  10.204   2.049 -0.0070  0.2144  0.2885
    6MOL0     C  709   6.689  10.160   2.027  0.2388 -0.2261  1.2902
    6MOL0     C  710   6.574  10.230   2.089  0.0798  0.1252  0.4589
    6MOL0     C  711   6.545  10.193   2.233 -0.2769  0.2568 -0.7630
    6MOL0     C  712   6.441  10.280   2.283  0.6536  0.5588 -0.9796
    6MOL0     C  713   6.427  10.280   2.436  0.0355 -0.0038  0.7217
    6MOL0     O  714   6.303  10.341   2.478  0.6625 -0.3537 -0.7853
    6MOL0     C  715   6.183  10.272   2.467 -1.1756  0.9371 -0.2291
    6MOL0     C  716   6.065  10.352   2.460 -0.6915 -1.2407 -0.0208
    6MOL0     C  717   5.934  10.297   2.446  0.0775  0.8308 -0.3450
    6MOL0     C  718   5.824  10.384   2.402  0.4564 -0.5426  0.1422
    6MOL0     C  719   5.917  10.157   2.473 -0.3745  0.4806  0.4340
    6MOL0     C  720   5.787  10.083   2.462  0.4327  0.6195 -0.0170
    6MOL0     O  721   5.792   9.951   2.461 -0.0994 -0.2546  0.1586
    6MOL0     C  722   5.677   9.870   2.477  0.2219  0.3413 -0.0201
    6MOL0     C  723   5.583   9.906   2.576  0.6953 -0.1661 -0.5892
    6MOL0     C  724   5.473   9.827   2.592 -0.8210  0.4546 -0.3324
    6MOL0     C  725   5.454   9.711   2.509  0.9643 -0.1279 -0.0957
    6MOL0     O  726   5.336   9.640   2.503 -0.2888  0.0044 -0.1506
    6MOL0     C  727   5.226   9.685   2.588 -0.3131  0.0330 -0.4773
    6MOL0     C  728   5.122   9.578   2.571 -1.0367  0.5197  0.1032
    6MOL0     C  729   4.989   9.605   2.639  0.9585  0.3601 -0.3921
    6MOL0     C  730   4.946   9.740   2.604  0.1236 -0.5951 -0.4498
    6MOL0     C  731   4.807   9.773   2.646  0.5678  0.3538  0.0529
    6MOL0     C  732   4.699   9.689   2.568  0.3354  1.3259 -0.8257
    6MOL0     C  733   4.560   9.753   2.585  0.4469  0.1771  0.2201
    6MOL0     C  734   4.459   9.689   2.494 -0.1717 -0.2716 -0.4388
    6MOL0    Cl  735   4.306   9.778   2.531 -0.0265 -0.1757  0.3892
    6MOL0     C  736   5.547   9.676   2.414  0.1367  0.4771 -0.1921
    6MOL0     C  737   5.661   9.761   2.391 -0.2207  0.1770  0.3294
    6MOL0     O  738   5.681  10.140   2.459 -1.0496  0.1409  0.0191
    6MOL0     C  739   6.033  10.081   2.464 -0.1344 -0.5692  0.0308
    6MOL0     C  740   6.161  10.135   2.476  0.5073  0.0723 -0.3141
    6MOL0     N  741   6.690  10.035   1.960 -0.5720 -0.6052  0.4901
    6MOL0     N  742   6.819  10.007   1.937  0.3786  0.0598  0.2910
    6MOL0     C  743   8.162  10.043   1.797 -0.8095 -0.1055  1.1074
    6MOL0     C  744   8.271  10.127   1.838  0.6729 -0.5725 -0.6251
    6MOL0     C  745   8.403  10.534   1.971 -0.0115 -0.2338  1.5283
    6MOL0     C  746   8.380  10.667   1.912  0.9051  0.0333  0.3713
    6MOL0     C  747   8.438  10.786   1.966 -0.4883  0.4639 -0.6722
    6MOL0     C  748   8.526  10.776   2.079 -0.4679 -0.2519 -0.9135
    6MOL0     O  749   8.569  10.887   2.153  0.4604  0.1805 -0.5757
    6MOL0     C  750   8.589  10.872   2.289 -0.4117 -0.6724  0.3876
    6MOL0     C  751   8.629  11.004   2.356  0.3505 -0.2674 -0.3817
    6MOL0     C  752   8.510  11.099   2.353 -0.4140  0.3321 -0.2066
    6MOL0     C  753   8.448  11.161   2.223 -0.8215 -0.3374  0.4557
    6MOL0     C  754   8.305  11.152   2.211 -0.8922  0.0287  0.2321
    6MOL0     C  755   8.188  11.129   2.202 -0.1178  0.6034 -0.0549
    6MOL0     C  756   8.558  10.644   2.122  1.2542  0.2448  0.5728
    6MOL0     C  757   8.504  10.534   2.063  1.2091 -0.4063  0.7825
    6MOL0     C  758   8.550  10.406   2.134  0.6752 -0.2427  0.0656
    6MOL0     H  759   8.095  10.267   2.103  0.7268  0.2195  0.4666
    6MOL0     H  760   7.926  10.079   2.037 -0.3050 -0.5094 -0.1471
    6MOL0     H  761   7.858   9.894   1.981  2.3461  1.7794 -0.6154
    6MOL0     H  762   7.782   9.821   1.846 -1.9038  1.1114  1.0328
    6MOL0     H  763   7.738  10.111   1.888 -2.0301 -0.1539  1.8147
    6MOL0     H  764   7.697  10.021   1.744  2.0760  0.2996 -0.1590
    6MOL0     H  765   7.512   9.899   1.847 -1.2491 -2.1111  2.7742
    6MOL0     H  766   7.596   9.900   2.000 -2.4712  0.4117  0.5300
    6MOL0     H  767   7.536  10.130   2.037 -2.1571  0.7503  0.5413
    6MOL0     H  768   7.473  10.147   1.875  2.2852  1.2085  0.7291
    6MOL0     H  769   7.354   9.917   2.043 -0.0272  0.9322  1.9403
    6MOL0     H  770   7.308  10.004   1.889 -1.2287  0.0099 -0.5821
    6MOL0     H  771   7.307  10.120   2.158  1.3648 -3.0848 -0.0542
    6MOL0     H  772   7.265  10.198   2.003  0.0816 -0.1077  0.9171
    6MOL0     H  773   7.066  10.115   2.163  0.3558  2.3477 -0.7126
    6MOL0     H  774   7.104   9.957   2.086 -1.3699 -0.2953 -1.4397
    6MOL0     H  775   7.053  10.231   1.954 -0.5906  0.4352  1.9921
    6MOL0     H  776   7.061  10.081   1.867 -0.7204  3.4996 -2.3271
    6MOL0     H  777   6.843  10.299   2.092  0.6137 -0.7264  1.9713
    6MOL0     H  778   6.488  10.196   2.030 -0.0036 -0.2367  0.7818
    6MOL0     H  779   6.584  10.338   2.076 -0.8589  0.3437  1.4069
    6MOL0     H  780   6.502  10.093   2.244 -0.3217  0.1258 -1.9352
    6MOL0     H  781   6.635  10.207   2.294  0.2641 -1.8452 -1.0092
    6MOL0     H  782   6.440  10.384   2.250 -3.7745  0.5661 -1.4412
    6MOL0     H  783   6.350  10.235   2.242 -1.3245  2.8615  0.6287
    6MOL0     H  784   6.431  10.183   2.485 -2.8459 -0.4478  0.2289
    6MOL0     H  785   6.507  10.340   2.482  0.2742  0.1419  0.1319
    6MOL0     H  786   6.075  10.458   2.440 -1.0316 -1.0956  0.5382
    6MOL0     H  787   5.747  10.400   2.478 -1.0853  1.0589 -1.6179
    6MOL0     H  788   5.773  10.343   2.314  0.8600 -2.4448  0.7575
    6MOL0     H  789   5.863  10.483   2.375  2.6054 -1.0387  1.2502
    6MOL0     H  790   5.596   9.992   2.641  1.7805 -0.1703 -0.7860
    6MOL0     H  791   5.401   9.859   2.667 -1.3522 -1.1623 -0.1199
    6MOL0     H  792   5.257   9.685   2.693 -2.4070 -1.9919  0.2187
    6MOL0     H  793   5.191   9.784   2.559 -1.5793  0.3004  1.7443
    6MOL0     H  794   5.110   9.564   2.463  4.1010  1.9682 -0.9527
    6MOL0     H  795   5.158   9.483   2.612 -0.8710  0.4453 -0.2088
    6MOL0     H  796   5.005   9.592   2.746  0.2572 -1.9558 -0.5325
    6MOL0     H  797   4.915   9.531   2.608  0.3979  0.3751  0.8769
    6MOL0     H  798   4.963   9.759   2.498  1.0971  0.9054 -0.0455
    6MOL0     H  799   5.010   9.801   2.668 -0.7023 -3.6628  3.7385
    6MOL0     H  800   4.791   9.759   2.753 -0.3160 -3.2635 -0.3981
    6MOL0     H  801   4.794   9.877   2.614 -0.0816 -0.6291 -3.2918
    6MOL0     H  802   4.699   9.583   2.593 -1.1076  1.5652  0.3572
    6MOL0     H  803   4.722   9.698   2.461  1.3820  0.5423 -0.6749
    6MOL0     H  804   4.577   9.856   2.552  0.9339 -0.0676 -0.2960
    6MOL0     H  805   4.520   9.742   2.686 -0.5150 -1.7663 -0.3311
    6MOL0     H  806   4.453   9.580   2.504  3.2583 -0.4267  2.0528
    6MOL0     H  807   4.492   9.696   2.390  2.3666 -1.2706  0.2019
    6MOL0     H  808   5.521   9.593   2.350 -0.6374 -0.7924  1.7059
    6MOL0     H  809   5.734   9.731   2.318 -0.4988 -1.4654  0.6884
    6MOL0     H  810   6.009   9.976   2.454 -2.8711 -0.0817  0.6763
    6MOL0     H  811   6.242  10.064   2.487  0.4639  0.2484  1.3905
    6MOL0     H  812   8.174   9.979   1.711 -1.2145  1.1121  0.1206
    6MOL0     H  813   8.362  10.149   1.783  0.5743  1.7296  0.0408
    6MOL0     H  814   8.307  10.680   1.833  1.5824 -0.9285 -0.4464
    6MOL0     H  815   8.403  10.883   1.932 -1.8951  0.0774 -0.3971
    6MOL0     H  816   8.491  10.844   2.330 -2.3646 -1.5053 -4.2053
    6MOL0     H  817   8.676  10.808   2.307  1.2580  1.5431  0.5809
    6MOL0     H  818   8.706  11.060   2.302 -2.5618  1.2526 -3.2613
    6MOL0     H  819   8.667  10.991   2.458  0.0378  0.3342 -0.1859
    6MOL0     H  820   8.429  11.058   2.414  0.3574  0.4022  0.8948
    6MOL0     H  821   8.546  11.193   2.398 -2.1404  1.2589 -0.6769
    6MOL0     H  822   8.494  11.121   2.132 -2.5962  0.2462 -0.7563
    6MOL0     H  823   8.473  11.268   2.213  0.2571 -0.5891  0.3009
    6MOL0     H  824   8.096  11.076   2.216  0.9437 -1.4606 -0.5740
    6MOL0     H  825   8.622  10.628   2.208 -0.3185  4.1978  2.7440
    6MOL0     H  826   8.468  10.379   2.201  1.3021 -2.7537 -0.0432
    6MOL0     H  827   8.571  10.332   2.057 -0.4424  0.1575 -0.6282
    6MOL0     H  828   8.644  10.404   2.192 -0.2036 -1.6176  1.5297
    7MOL0     O  829   5.882  10.604  10.812  0.3604 -0.2438  0.0272
    7MOL0     C  830   5.822  10.521  10.753 -0.1062  0.3685  0.0302
    7MOL0     O  831   5.869  10.393  10.733 -0.1718  0.1501 -0.0280
    7MOL0     C  832   5.992  10.348  10.778 -0.1532 -1.2104 -0.2794
    7MOL0     C  833   6.002  10.326  10.916 -1.0479  0.5111 -0.1868
    7MOL0     C  834   6.130  10.294  10.977 -0.4013 -0.2168 -0.5132
    7MOL0     C  835   6.250  10.299  10.904  0.1631  0.4110 -0.3474
    7MOL0     O  836   6.373  10.262  10.964  0.2596 -0.5796  0.8329
    7MOL0     C  837   6.501  10.308  10.927  0.0303 -1.4767  0.6492
    7MOL0     C  838   6.601  10.196  10.944  0.1963 -0.1947  0.0018
    7MOL0     C  839   6.741  10.220  10.884 -0.4546 -0.5805  0.2949
    7MOL0     C  840   6.807  10.082  10.889  0.6144 -0.1896 -1.2714
    7MOL0     C  841   6.946  10.091  10.830  0.3158  0.3049  0.1554
    7MOL0     C  842   7.019   9.950  10.823  0.3793 -0.2025  0.2197
    7MOL0     C  843   7.166   9.945  10.785  0.2598  0.4969  0.8671
    7MOL0     C  844   7.189  10.022  10.659 -1.0790 -0.6694  0.3939
    7MOL0     N  845   7.175  10.168  10.651  0.7280  0.7238 -0.5775
    7MOL0     C  846   7.234  10.258  10.735 -0.1934 -0.1340  0.2231
    7MOL0     C  847   7.194  10.380  10.684  0.6746  0.2157 -0.2033
    7MOL0     C  848   7.229  10.517  10.724  0.1669 -0.5026 -0.0152
    7MOL0     C  849   7.364  10.553  10.649 -0.3465 -1.9650 -0.5717
    7MOL0     C  850   7.407  10.697  10.672  0.1963 -0.1618  0.0820
    7MOL0     C  851   7.547  10.741  10.639  1.1132 -0.6639 -0.0467
    7MOL0     O  852   7.628  10.670  10.736 -0.2717  0.2872  0.2335
    7MOL0     C  853   7.757  10.662  10.690  1.8156  0.0954  0.3154
    7MOL0     C  854   7.807  10.558  10.608  0.6834  0.1141  0.0316
    7MOL0     C  855   7.944  10.556  10.592  0.2863 -0.3146  1.0110
    7MOL0     C  856   7.995  10.443  10.502 -0.6787  0.6716 -0.3336
    7MOL0     C  857   8.035  10.649  10.651  0.0034 -0.3866 -0.2552
    7MOL0     C  858   8.183  10.631  10.647 -0.4028  0.5810 -0.1346
    7MOL0     O  859   8.238  10.506  10.638 -0.5934 -0.8068 -0.4411
    7MOL0     C  860   8.374  10.479  10.659 -0.7032 -0.2882 -0.6892
    7MOL0     C  861   8.481  10.559  10.709  0.7953 -0.5788  0.4194
    7MOL0     C  862   8.615  10.522  10.710 -0.3078 -0.0560  0.0157
    7MOL0     C  863   8.650  10.390  10.684  0.2406  0.2086  1.1148
    7MOL0     O  864   8.777  10.332  10.684 -0.2031 -0.2166  0.2210
    7MOL0     C  865   8.878  10.417  10.747  1.0017 -0.5615  0.1536
    7MOL0     C  866   9.013  10.357  10.722  0.7624  0.4729  0.2824
    7MOL0     C  867   9.137  10.433  10.772  0.0934 -0.4400 -0.0522
    7MOL0     C  868   9.121  10.510  10.901  0.9251  0.5131  0.4003
    7MOL0     C  869   9.244  10.581  10.949  0.1706  0.6547 -0.1514
    7MOL0     C  870   9.301  10.674  10.840 -0.4965  0.7572  0.1530
    7MOL0     C  871   9.416  10.758  10.906  0.0593 -0.2982 -0.5595
    7MOL0     C  872   9.493  10.835  10.802  0.5035 -0.4721  0.6283
    7MOL0    Cl  873   9.598  10.721  10.701  0.4091 -0.6117 -0.1574
    7MOL0     C  874   8.551  10.312  10.623 -0.2418 -0.6403  0.2278
    7MOL0     C  875   8.417  10.355  10.611  0.6411  0.1048 -0.3302
    7MOL0     O  876   8.253  10.728  10.678  0.0692 -0.3018  0.1359
    7MOL0     C  877   7.975  10.753  10.722 -0.2066 -0.3307  0.5719
    7MOL0     C  878   7.843  10.756  10.737  0.4024  0.3850  0.1144
    7MOL0     N  879   7.112  10.354  10.576  0.5533 -0.2279  0.3756
    7MOL0     N  880   7.104  10.229  10.553  0.6109 -0.1450 -0.3517
    7MOL0     C  881   6.236  10.337  10.767  0.4409  0.4387 -0.0018
    7MOL0     C  882   6.114  10.378  10.718 -0.4564  0.7365  0.0266
    7MOL0     C  883   5.707  10.547  10.666 -0.7077 -0.8187 -0.9213
    7MOL0     C  884   5.654  10.451  10.582 -0.3744  0.2443 -0.5784
    7MOL0     C  885   5.541  10.465  10.504  0.6383  0.9701 -0.1934
    7MOL0     C  886   5.478  10.582  10.501  0.1454  0.0751 -0.6195
    7MOL0     O  887   5.372  10.588  10.410  0.7273 -0.6530 -0.4024
    7MOL0     C  888   5.248  10.617  10.471  0.9843 -0.0988 -0.3006
    7MOL0     C  889   5.213  10.503  10.567 -0.6994  1.1582  0.2901
    7MOL0     C  890   5.065  10.499  10.588  0.0665  1.2226  0.3772
    7MOL0     C  891   5.022  10.399  10.697 -0.5740  0.1577 -0.9308
    7MOL0     C  892   4.876  10.379  10.716 -1.0802 -0.0558 -0.0542
    7MOL0     C  893   4.755  10.360  10.724  0.4903 -0.5263 -0.3940
    7MOL0     C  894   5.526  10.687  10.578 -0.4341  0.1071 -0.4654
    7MOL0     C  895   5.638  10.671  10.665 -0.4279  0.4139 -0.5150
    7MOL0     C  896   5.652  10.778  10.777  0.5747  0.4210 -0.0381
    7MOL0     H  897   5.907  10.305  10.964 -2.0645  1.1763 -1.8234
    7MOL0     H  898   6.144  10.277  11.083  5.2206 -0.4598 -0.9678
    7MOL0     H  899   6.535  10.391  10.989 -0.8197  2.1698 -3.2262
    7MOL0     H  900   6.498  10.336  10.821 -0.0629  1.9388  1.4382
    7MOL0     H  901   6.602  10.172  11.051 -0.0675  1.6331  0.4470
    7MOL0     H  902   6.556  10.111  10.892 -1.2250 -1.0784  2.5098
    7MOL0     H  903   6.735  10.263  10.783  0.8157 -2.4220 -0.6249
    7MOL0     H  904   6.806  10.295  10.929  1.6794 -1.5444 -1.0041
    7MOL0     H  905   6.818  10.045  10.991 -2.1810 -1.8409 -1.4521
    7MOL0     H  906   6.750  10.012  10.827  1.0467 -0.3131 -1.5332
    7MOL0     H  907   6.989  10.154  10.909  0.8588 -1.0279  0.9658
    7MOL0     H  908   6.943  10.133  10.729 -0.2903  0.5052  0.2527
    7MOL0     H  909   7.002   9.913  10.925  0.6264  2.3265  1.2662
    7MOL0     H  910   6.962   9.875  10.768 -0.0529 -0.5829  1.1608
    7MOL0     H  911   7.191   9.844  10.751  2.0396  0.7117  1.4640
    7MOL0     H  912   7.227   9.975  10.870 -1.1769 -0.4199  2.2756
    7MOL0     H  913   7.295  10.004  10.636 -1.3654 -0.6780 -1.0390
    7MOL0     H  914   7.126   9.990  10.575 -1.6690  0.7400  0.2822
    7MOL0     H  915   7.298  10.227  10.817 -0.0360 -1.4881 -0.3802
    7MOL0     H  916   7.244  10.519  10.833 -0.4584  1.3322  0.0736
    7MOL0     H  917   7.148  10.584  10.695 -0.6321 -1.5008 -0.1155
    7MOL0     H  918   7.440  10.478  10.671  0.0347 -1.0887  1.1921
    7MOL0     H  919   7.328  10.542  10.546 -3.4469 -1.8340  0.3797
    7MOL0     H  920   7.330  10.759  10.624 -2.9196 -2.6651  1.4649
    7MOL0     H  921   7.385  10.712  10.778 -1.1033 -2.1373  0.1449
    7MOL0     H  922   7.582  10.717  10.538 -0.0379 -0.6862 -0.4493
    7MOL0     H  923   7.556  10.850  10.650 -0.8907  0.1181 -4.2822
    7MOL0     H  924   7.736  10.485  10.568 -2.8979  3.5792 -0.6109
    7MOL0     H  925   7.921  10.384  10.447 -0.6938 -0.2997  0.6959
    7MOL0     H  926   8.043  10.363  10.558 -2.3206 -2.6545 -3.3258
    7MOL0     H  927   8.060  10.486  10.425 -3.0187 -1.1531 -3.5990
    7MOL0     H  928   8.457  10.663  10.730 -0.7418 -0.8349  0.0993
    7MOL0     H  929   8.683  10.593  10.757  0.3171  0.0197 -0.9780
    7MOL0     H  930   8.877  10.519  10.707 -1.7188  0.4206  2.3456
    7MOL0     H  931   8.856  10.431  10.854 -1.6485  2.4771 -0.6120
    7MOL0     H  932   9.017  10.258  10.769  2.4458  1.1660  1.7200
    7MOL0     H  933   9.021  10.347  10.613  2.2756  0.8207  0.3286
    7MOL0     H  934   9.157  10.497  10.685 -0.9298 -2.5901 -2.0006
    7MOL0     H  935   9.218  10.360  10.786  3.6193  2.9232 -0.9971
    7MOL0     H  936   9.077  10.437  10.971  0.9091 -0.8242 -0.9644
    7MOL0     H  937   9.055  10.597  10.893  1.2124  0.8138  1.1426
    7MOL0     H  938   9.210  10.630  11.041 -1.5711 -1.6021  0.5328
    7MOL0     H  939   9.317  10.502  10.969 -0.3630 -0.5236 -2.4997
    7MOL0     H  940   9.218  10.738  10.808 -2.0785 -1.9423 -1.5929
    7MOL0     H  941   9.333  10.616  10.753 -1.4252  0.3814  0.0424
    7MOL0     H  942   9.485  10.688  10.955  0.8683 -0.7421 -2.2649
    7MOL0     H  943   9.384  10.824  10.987 -3.4101 -1.9261 -0.3889
    7MOL0     H  944   9.571  10.895  10.850 -1.4830  1.0570  2.0855
    7MOL0     H  945   9.434  10.897  10.734  1.0747 -0.6217 -0.0196
    7MOL0     H  946   8.582  10.214  10.589  1.6056 -0.3652  1.0280
    7MOL0     H  947   8.339  10.301  10.559  0.4726  1.6221 -1.7755
    7MOL0     H  948   8.045  10.825  10.763  0.0864 -0.5591  0.4769
    7MOL0     H  949   7.789  10.832  10.792 -0.4359  0.5900 -0.9484
    7MOL0     H  950   6.324  10.351  10.706 -0.1398  0.2961 -0.8835
    7MOL0     H  951   6.110  10.429  10.622 -1.0221 -0.8990 -0.8505
    7MOL0     H  952   5.698  10.352  10.582  0.9071  0.7932 -0.8834
    7MOL0     H  953   5.502  10.391  10.435  0.0237 -1.3525  2.4650
    7MOL0     H  954   5.253  10.707  10.533  1.2225  0.1776 -0.7187
    7MOL0     H  955   5.171  10.626  10.394  0.6437 -1.8583 -0.2136
    7MOL0     H  956   5.267  10.524  10.660  0.0998 -0.5419  0.2474
    7MOL0     H  957   5.239  10.402  10.537 -2.2723  0.0627  2.3325
    7MOL0     H  958   5.042  10.598  10.628  1.3269  1.6626  0.0539
    7MOL0     H  959   5.013  10.483  10.493  0.9725 -3.0032  0.4122
    7MOL0     H  960   5.055  10.443  10.792  1.3339  1.3137 -2.0502
    7MOL0     H  961   5.067  10.300  10.691 -2.4948 -1.1958  3.2336
    7MOL0     H  962   4.653  10.355  10.755  0.5363  1.3840  0.1688
    7MOL0     H  963   5.463  10.774  10.559  0.3809  0.2674 -2.7899
    7MOL0     H  964   5.705  10.734  10.861 -0.2677  1.7366  1.2309
    7MOL0     H  965   5.690  10.876  10.747 -3.3912  1.8423 -1.0918
    7MOL0     H  966   5.553  10.793  10.820  0.9922 -2.1417  2.0578
    8MOL0     O  967   2.538   7.393  10.920 -0.3970 -0.1003 -0.3394
    8MOL0     C  968   2.656   7.411  10.954  0.3862 -0.2894  0.3865
    8MOL0     O  969   2.732   7.516  10.915  0.0187  0.2310 -0.8289
    8MOL0     C  970   2.683   7.616  10.828  0.5670  0.4476  0.4965
    8MOL0     C  971   2.710   7.610  10.691  0.6609  0.3796  0.2430
    8MOL0     C  972   2.654   7.711  10.606  0.3163  0.3151  0.2799
    8MOL0     C  973   2.594   7.834  10.648  0.1922  0.4292  0.8492
    8MOL0     O  974   2.554   7.936  10.560  0.0411 -0.7938  0.3054
    8MOL0     C  975   2.437   8.015  10.581 -0.4188  0.6100 -0.2900
    8MOL0     C  976   2.331   7.961  10.491  0.0547  0.0543  0.1397
    8MOL0     C  977   2.199   8.054  10.493  0.1029 -0.0062 -0.3509
    8MOL0     C  978   2.128   8.079  10.630 -0.1987  0.1517  0.7667
    8MOL0     C  979   1.993   8.145  10.599 -0.1736 -0.3772  0.4555
    8MOL0     C  980   1.922   8.163  10.729  0.1067  0.6435 -0.8496
    8MOL0     C  981   1.971   8.281  10.823  1.4733 -0.3209  0.5504
    8MOL0     C  982   1.865   8.306  10.929 -1.0538 -0.2718 -0.4765
    8MOL0     N  983   1.851   8.190  11.031 -0.7451  0.9775  0.2386
    8MOL0     C  984   1.953   8.161  11.108 -0.4357  0.6335 -0.2996
    8MOL0     C  985   1.932   8.039  11.146  0.1896  0.8063  0.3891
    8MOL0     C  986   2.030   7.940  11.219 -0.2635 -0.3884  0.3460
    8MOL0     C  987   2.064   7.822  11.126 -0.0068 -0.0559  0.9284
    8MOL0     C  988   2.161   7.876  11.024 -0.8299  0.8580 -0.3544
    8MOL0     C  989   2.230   7.761  10.952 -0.0438 -0.2226 -0.2660
    8MOL0     O  990   2.135   7.685  10.880 -0.2018 -0.1709 -0.9441
    8MOL0     C  991   2.189   7.622  10.765  0.1096 -0.0593 -0.8606
    8MOL0     C  992   2.137   7.651  10.640 -0.6409  0.5937 -0.5075
    8MOL0     C  993   2.193   7.604  10.521 -0.4181 -0.2236 -0.6043
    8MOL0     C  994   2.120   7.647  10.397  0.0479 -0.0937 -0.0909
    8MOL0     C  995   2.315   7.525  10.526  0.1965 -0.1093  0.1602
    8MOL0     C  996   2.388   7.465  10.405  0.8616 -0.2315 -0.6078
    8MOL0     O  997   2.528   7.473  10.398  0.4500 -0.3477  0.2743
    8MOL0     C  998   2.587   7.444  10.280  0.2821  0.4743  0.0765
    8MOL0     C  999   2.665   7.320  10.283 -0.0376 -0.0040  0.9499
    8MOL0     C 1000   2.725   7.285  10.161 -0.6311 -0.2635 -0.5638
    8MOL0     C 1001   2.707   7.361  10.045  0.7483  0.1414 -0.4399
    8MOL0     O 1002   2.760   7.325   9.925  0.0420 -0.4073 -0.2036
    8MOL0     C 1003   2.694   7.210   9.874 -0.0887  0.8098 -0.1728
    8MOL0     C 1004   2.737   7.186   9.726 -0.5868 -0.2952  0.0223
    8MOL0     C 1005   2.680   7.281   9.625 -0.0875 -0.2976  0.5415
    8MOL0     C 1006   2.530   7.303   9.626  0.1671  0.2385 -0.2988
    8MOL0     C 1007   2.451   7.175   9.603 -1.3269  0.2233  0.2213
    8MOL0     C 1008   2.303   7.214   9.580  0.3381 -1.5408 -0.7654
    8MOL0     C 1009   2.231   7.089   9.546  0.7615 -0.3620  0.5297
    8MOL0     C 1010   2.078   7.117   9.525 -0.4808 -0.3967 -0.4902
    8MOL0    Cl 1011   2.055   7.232   9.394  0.1952  0.3358 -0.4473
    8MOL0     C 1012   2.650   7.488  10.053  0.8231 -0.0870 -0.2355
    8MOL0     C 1013   2.576   7.520  10.173  1.2680  0.4155  1.5113
    8MOL0     O 1014   2.310   7.414  10.314 -0.4485 -0.1056 -0.6285
    8MOL0     C 1015   2.360   7.492  10.655 -0.8487  0.8110 -0.0993
    8MOL0     C 1016   2.299   7.540  10.768 -0.1027 -0.1696  1.0998
    8MOL0     N 1017   1.814   7.996  11.091  0.1185 -0.4175  0.2474
    8MOL0     N 1018   1.759   8.088  11.022  0.2669  0.4043 -0.7653
    8MOL0     C 1019   2.574   7.837  10.781 -0.2056  0.1753  0.4156
    8MOL0     C 1020   2.618   7.734  10.868  0.1813 -0.5710 -0.5503
    8MOL0     C 1021   2.717   7.310  11.053 -0.2865  0.0928  0.3451
    8MOL0     C 1022   2.624   7.222  11.123  0.2746  0.0389 -0.7382
    8MOL0     C 1023   2.670   7.127  11.215  1.0778 -0.3562 -0.4492
    8MOL0     C 1024   2.809   7.122  11.249 -0.7519 -0.5518  0.0439
    8MOL0     O 1025   2.839   7.037  11.349 -0.5112 -0.1052  0.2077
    8MOL0     C 1026   2.955   7.071  11.426 -0.1748  0.1705 -0.6008
    8MOL0     C 1027   2.961   6.996  11.559  0.5980 -0.5671 -0.5085
    8MOL0     C 1028   2.940   6.847  11.544 -0.2321 -0.4132  0.2117
    8MOL0     C 1029   2.953   6.763  11.676  0.6299  0.4416 -0.3300
    8MOL0     C 1030   2.827   6.764  11.749 -0.5277 -0.3996  0.3597
    8MOL0     C 1031   2.741   6.757  11.832 -0.3712  0.1075 -0.4232
    8MOL0     C 1032   2.897   7.214  11.191  0.5215  0.0771  0.4089
    8MOL0     C 1033   2.856   7.309  11.091  0.7733 -0.2679 -0.0205
    8MOL0     C 1034   2.967   7.387  11.031 -0.0308  0.1135 -0.2455
    8MOL0     H 1035   2.773   7.528  10.658  0.6704 -0.5537  2.3763
    8MOL0     H 1036   2.665   7.715  10.498 -0.9613 -1.9242  0.0053
    8MOL0     H 1037   2.461   8.120  10.560 -0.7936  0.7941  0.1867
    8MOL0     H 1038   2.397   8.015  10.683 -2.1613 -2.2809 -0.8690
    8MOL0     H 1039   2.354   7.957  10.384 -2.8892  0.3667 -0.5817
    8MOL0     H 1040   2.302   7.861  10.525 -2.0416  1.2421  2.1073
    8MOL0     H 1041   2.212   8.150  10.442  0.3781 -0.6285 -1.4898
    8MOL0     H 1042   2.130   7.989  10.437 -0.1743  0.2727 -0.3368
    8MOL0     H 1043   2.117   7.983  10.681  3.2279 -1.0084 -0.4211
    8MOL0     H 1044   2.188   8.137  10.701  0.5940 -1.0012  1.0604
    8MOL0     H 1045   1.935   8.080  10.534 -2.6071  1.6561  0.4530
    8MOL0     H 1046   2.004   8.241  10.548 -0.4172 -0.2146  0.7145
    8MOL0     H 1047   1.819   8.172  10.693 -0.9913 -2.9717  0.9501
    8MOL0     H 1048   1.927   8.072  10.789 -0.6777  0.0587 -1.6429
    8MOL0     H 1049   1.987   8.366  10.757  1.5159 -0.7500  0.0005
    8MOL0     H 1050   2.065   8.264  10.877  1.0540  0.1020  1.4301
    8MOL0     H 1051   1.882   8.401  10.981  0.6915  0.3271 -2.0589
    8MOL0     H 1052   1.765   8.319  10.888 -1.4962 -2.1084 -0.0823
    8MOL0     H 1053   2.040   8.216  11.140  1.2288 -1.6732 -0.6385
    8MOL0     H 1054   1.975   7.905  11.307 -0.0468 -0.1972  0.5582
    8MOL0     H 1055   2.116   8.001  11.249 -0.6591  0.3227  0.0492
    8MOL0     H 1056   2.102   7.741  11.188  3.4604 -1.8287 -2.9857
    8MOL0     H 1057   1.976   7.784  11.072  1.2880  0.9311 -2.1182
    8MOL0     H 1058   2.110   7.938  10.950  0.2307  1.3935 -0.6506
    8MOL0     H 1059   2.236   7.938  11.072 -0.9558  0.8815 -0.1862
    8MOL0     H 1060   2.297   7.794  10.872 -1.0446 -1.2046 -1.5738
    8MOL0     H 1061   2.296   7.700  11.013  1.1946 -0.2447 -1.5634
    8MOL0     H 1062   2.056   7.723  10.632 -2.0796 -1.1407 -3.0787
    8MOL0     H 1063   2.066   7.569  10.342  1.2986 -2.1693  1.4572
    8MOL0     H 1064   2.185   7.686  10.318 -0.3950  1.6690  0.3948
    8MOL0     H 1065   2.051   7.728  10.418  2.8120  2.5114 -0.4271
    8MOL0     H 1066   2.674   7.270  10.379  0.9003 -1.4655  0.1406
    8MOL0     H 1067   2.788   7.197  10.155  0.6190  0.4439  1.0883
    8MOL0     H 1068   2.713   7.125   9.940 -3.1060  2.2878  2.8827
    8MOL0     H 1069   2.586   7.227   9.878 -0.8946 -3.4356  0.9538
    8MOL0     H 1070   2.846   7.183   9.733 -0.5893 -0.2427  0.0846
    8MOL0     H 1071   2.707   7.087   9.690  2.5527 -0.3909 -2.8060
    8MOL0     H 1072   2.708   7.235   9.529  3.8875 -2.2864  2.4238
    8MOL0     H 1073   2.722   7.379   9.649 -2.6314  1.2183 -0.6305
    8MOL0     H 1074   2.497   7.376   9.552  1.6625 -1.0426 -2.3698
    8MOL0     H 1075   2.504   7.350   9.721 -0.3311  0.8087 -0.7093
    8MOL0     H 1076   2.497   7.121   9.520  0.9980  1.7831  0.3900
    8MOL0     H 1077   2.460   7.115   9.694 -0.6587 -0.1641 -0.0882
    8MOL0     H 1078   2.305   7.286   9.498  1.6218  0.0407  0.5705
    8MOL0     H 1079   2.262   7.269   9.665  2.0584  0.4042 -1.0840
    8MOL0     H 1080   2.242   7.014   9.626  0.6979  0.8768  1.7335
    8MOL0     H 1081   2.261   7.035   9.456 -3.1598 -0.7543 -0.7193
    8MOL0     H 1082   2.037   7.162   9.615  0.6705 -0.9066  0.3187
    8MOL0     H 1083   2.020   7.025   9.510 -0.8864 -0.1760 -0.2793
    8MOL0     H 1084   2.657   7.553   9.966 -2.1860 -0.7548 -1.0730
    8MOL0     H 1085   2.515   7.609  10.183 -0.6547 -1.0541  3.8647
    8MOL0     H 1086   2.437   7.418  10.675 -0.8469  0.5292 -1.0851
    8MOL0     H 1087   2.329   7.527  10.872 -3.5132  1.3297  2.4092
    8MOL0     H 1088   2.531   7.925  10.828  0.4875  1.0528 -0.5680
    8MOL0     H 1089   2.604   7.738  10.976  0.2849 -2.6312 -0.4278
    8MOL0     H 1090   2.521   7.203  11.096  0.4303 -0.3914 -1.0443
    8MOL0     H 1091   2.614   7.042  11.254 -0.0303 -0.1508 -1.5290
    8MOL0     H 1092   3.049   7.053  11.372  0.9522  1.5679  0.8062
    8MOL0     H 1093   2.955   7.178  11.449 -0.7432 -0.5817  3.7343
    8MOL0     H 1094   2.879   7.041  11.617  1.0063  1.7687 -1.6155
    8MOL0     H 1095   3.057   7.010  11.609  0.0725 -1.8760  0.9493
    8MOL0     H 1096   2.841   6.832  11.500 -0.1442 -1.7620  0.4085
    8MOL0     H 1097   3.011   6.805  11.472  0.7592  1.2354  0.1948
    8MOL0     H 1098   3.029   6.819  11.733 -1.0613  2.3782  0.1641
    8MOL0     H 1099   2.974   6.658  11.658  0.0780  0.4725 -1.2156
    8MOL0     H 1100   2.664   6.753  11.906 -0.7738  0.5658 -0.8132
    8MOL0     H 1101   3.001   7.214  11.222  0.2562  0.5648  1.3518
    8MOL0     H 1102   2.964   7.487  11.075  2.5711 -0.7946  2.3824
    8MOL0     H 1103   3.067   7.348  11.057 -0.2888  0.7671  1.9450
    8MOL0     H 1104   2.970   7.392  10.922 -0.3748 -1.1740 -0.3323
    9MOL0     O 1105   9.785   6.988   5.830 -0.3560 -0.0061  0.3278
    9MOL0     C 1106   9.717   6.887   5.815 -0.0568 -0.1290 -0.0423
    9MOL0     O 1107   9.736   6.797   5.714 -0.3759  0.0090  0.1062
    9MOL0     C 1108   9.810   6.824   5.602 -0.3311  0.0016  0.4611
    9MOL0     C 1109   9.913   6.923   5.590 -0.5361 -0.0697 -1.0757
    9MOL0     C 1110   9.967   6.967   5.469  0.1658  0.3337 -0.1911
    9MOL0     C 1111   9.918   6.906   5.352 -0.1618  0.2917  0.0351
    9MOL0     O 1112   9.971   6.931   5.224 -0.3191  0.5980  0.8436
    9MOL0     C 1113  10.099   7.001   5.224 -0.7761  0.3365  0.1224
    9MOL0     C 1114  10.143   7.029   5.076 -0.5251  0.5305 -0.1602
    9MOL0     C 1115  10.185   6.897   4.996  0.4346 -0.1333  1.1963
    9MOL0     C 1116  10.275   6.926   4.874 -0.4119  0.2780  0.0386
    9MOL0     C 1117  10.292   6.813   4.785 -0.1707  1.4209  0.0928
    9MOL0     C 1118  10.369   6.865   4.658 -0.0169 -0.1834  0.6741
    9MOL0     C 1119  10.383   6.760   4.543 -0.7406  0.7916  0.7562
    9MOL0     C 1120  10.505   6.656   4.556 -0.7465  0.1826  0.4136
    9MOL0     N 1121  10.494   6.566   4.676  0.3023  1.0147  0.6134
    9MOL0     C 1122  10.585   6.570   4.782 -0.0960  0.0114  0.0998
    9MOL0     C 1123  10.534   6.488   4.877 -0.2490 -0.2635 -0.2864
    9MOL0     C 1124  10.597   6.474   5.010 -0.6031  0.1164 -0.0990
    9MOL0     C 1125  10.545   6.580   5.118 -0.7288  0.0543 -0.7634
    9MOL0     C 1126  10.606   6.560   5.251  0.6027 -0.2769  1.2654
    9MOL0     C 1127  10.710   6.666   5.289  0.0704  0.3504  0.3366
    9MOL0     O 1128  10.787   6.620   5.402  0.4619 -0.4628  0.4547
    9MOL0     C 1129  10.742   6.621   5.535  0.1979  0.2760 -0.1151
    9MOL0     C 1130  10.848   6.604   5.629 -0.2231 -0.0868  0.7899
    9MOL0     C 1131  10.827   6.631   5.768 -0.6305  0.3538  0.6613
    9MOL0     C 1132  10.947   6.637   5.867 -0.4637 -0.0028 -0.4789
    9MOL0     C 1133  10.704   6.669   5.813  0.2341  0.4507 -0.0728
    9MOL0     C 1134  10.656   6.680   5.951 -0.3102  0.0930 -0.3861
    9MOL0     O 1135  10.521   6.702   5.969 -0.5097 -0.2011  0.5799
    9MOL0     C 1136  10.479   6.740   6.091  0.9087  1.2100 -0.0076
    9MOL0     C 1137  10.484   6.658   6.208  0.8474 -0.1617  1.4712
    9MOL0     C 1138  10.412   6.692   6.322 -0.3399 -0.1721  0.1154
    9MOL0     C 1139  10.342   6.808   6.340  0.6015  0.0065  0.1443
    9MOL0     O 1140  10.286   6.838   6.460  0.0443 -0.6050 -0.7308
    9MOL0     C 1141  10.278   6.980   6.488 -0.9590  0.3593  0.3251
    9MOL0     C 1142  10.243   6.997   6.639  0.1719 -0.9134 -0.5028
    9MOL0     C 1143  10.189   7.142   6.675  0.2367  0.6597 -0.8255
    9MOL0     C 1144  10.134   7.140   6.813 -0.4551 -0.4626 -0.3250
    9MOL0     C 1145  10.090   7.284   6.860 -0.1649  0.0044 -0.4530
    9MOL0     C 1146   9.960   7.344   6.815 -0.6578 -0.4236 -0.4088
    9MOL0     C 1147   9.941   7.482   6.873 -0.8334 -0.6014 -0.5395
    9MOL0     C 1148   9.789   7.522   6.872  0.8458  0.0625 -0.2193
    9MOL0    Cl 1149   9.694   7.523   6.715 -0.2349  0.3262  0.1952
    9MOL0     C 1150  10.324   6.886   6.225  0.4032  0.5191 -0.9663
    9MOL0     C 1151  10.388   6.854   6.104 -0.2299  0.1322  0.2873
    9MOL0     O 1152  10.731   6.663   6.047 -0.4170 -0.1763 -0.4371
    9MOL0     C 1153  10.603   6.687   5.711  0.0621  0.9672  0.2773
    9MOL0     C 1154  10.618   6.668   5.576 -0.5816  0.7176 -0.4513
    9MOL0     N 1155  10.407   6.439   4.831 -0.2710 -0.0950 -0.3169
    9MOL0     N 1156  10.390   6.487   4.718  0.0177 -0.2345 -0.7580
    9MOL0     C 1157   9.826   6.806   5.356  0.0002  0.1849 -1.0566
    9MOL0     C 1158   9.781   6.752   5.483  0.2873  0.6082  0.8202
    9MOL0     C 1159   9.613   6.855   5.922 -0.3169 -0.5213 -0.0347
    9MOL0     C 1160   9.527   6.748   5.904 -0.1607  0.1457 -0.4478
    9MOL0     C 1161   9.424   6.720   5.998  0.1314 -0.2855  0.9134
    9MOL0     C 1162   9.394   6.801   6.105  0.1669 -0.4042  0.6778
    9MOL0     O 1163   9.286   6.779   6.188  1.0605  0.4736 -0.4300
    9MOL0     C 1164   9.182   6.678   6.171 -0.4175  0.5487 -0.0291
    9MOL0     C 1165   9.063   6.707   6.250  0.3223  0.2292 -0.6274
    9MOL0     C 1166   9.089   6.739   6.399 -0.9806 -0.7067  0.5263
    9MOL0     C 1167   8.950   6.751   6.454  0.3180  0.6832 -0.5156
    9MOL0     C 1168   8.945   6.718   6.598 -0.8827 -0.4809  0.4646
    9MOL0     C 1169   8.948   6.703   6.723 -0.3347  0.2634  0.5912
    9MOL0     C 1170   9.482   6.916   6.122  0.6487  0.2251  0.0890
    9MOL0     C 1171   9.587   6.946   6.031  0.0124  0.2004  0.6974
    9MOL0     C 1172   9.677   7.061   6.069  0.3854 -0.5616 -1.1227
    9MOL0     H 1173   9.955   6.964   5.681 -0.7777  1.9512 -1.8177
    9MOL0     H 1174  10.049   7.037   5.478 -0.0066  0.8675 -2.3244
    9MOL0     H 1175  10.177   6.948   5.279  0.8985  0.6870 -1.7743
    9MOL0     H 1176  10.074   7.092   5.278 -0.7629  0.4850 -0.1179
    9MOL0     H 1177  10.068   7.090   5.024  0.6476  0.6058 -1.8371
    9MOL0     H 1178  10.233   7.090   5.084  1.2201 -1.8937 -0.1148
    9MOL0     H 1179  10.238   6.836   5.069  0.2259 -1.0791  0.5767
    9MOL0     H 1180  10.090   6.855   4.961  0.2388  2.6223 -2.2230
    9MOL0     H 1181  10.230   7.010   4.820  3.1533  1.9124 -0.6514
    9MOL0     H 1182  10.379   6.955   4.894 -0.1493  0.3405 -1.3151
    9MOL0     H 1183  10.196   6.770   4.754 -0.5579  0.6480  2.2222
    9MOL0     H 1184  10.352   6.734   4.831 -0.1535  0.2035 -1.8656
    9MOL0     H 1185  10.312   6.953   4.627 -0.2365  0.0897  1.8115
    9MOL0     H 1186  10.470   6.892   4.691 -0.3083 -0.2632  1.6735
    9MOL0     H 1187  10.385   6.812   4.446  0.2430 -0.4665  0.0668
    9MOL0     H 1188  10.285   6.711   4.543 -0.2615 -0.1968  0.6574
    9MOL0     H 1189  10.521   6.589   4.471  0.1511 -0.8417  1.3579
    9MOL0     H 1190  10.593   6.719   4.569 -3.0547  3.6344  0.5736
    9MOL0     H 1191  10.681   6.619   4.798  1.3301 -1.9846 -1.6588
    9MOL0     H 1192  10.706   6.473   5.000 -0.6499  1.2844 -0.8898
    9MOL0     H 1193  10.567   6.372   5.038  0.2934 -0.5137 -1.3825
    9MOL0     H 1194  10.582   6.670   5.068 -0.7708 -0.4880 -1.7893
    9MOL0     H 1195  10.436   6.593   5.118 -0.5058  2.3148 -0.2587
    9MOL0     H 1196  10.534   6.548   5.333 -1.1524 -1.9001 -0.4060
    9MOL0     H 1197  10.665   6.469   5.246  2.0531  0.5569  2.4866
    9MOL0     H 1198  10.785   6.680   5.211 -0.3170  1.9974  0.2237
    9MOL0     H 1199  10.656   6.759   5.313 -1.7299 -0.7757  0.8596
    9MOL0     H 1200  10.951   6.586   5.600 -1.2703 -0.0417 -3.6295
    9MOL0     H 1201  11.040   6.614   5.814  0.2948 -2.1426  1.6033
    9MOL0     H 1202  10.946   6.560   5.944  0.6006 -0.7316 -1.1559
    9MOL0     H 1203  10.955   6.735   5.914  2.1952 -0.2258 -0.3506
    9MOL0     H 1204  10.543   6.567   6.207 -2.1692 -2.3008 -0.6000
    9MOL0     H 1205  10.417   6.616   6.400  0.0352  1.1413  1.4339
    9MOL0     H 1206  10.378   7.023   6.476 -1.5533  1.9552  0.8829
    9MOL0     H 1207  10.207   7.029   6.422 -1.2264 -0.2619  0.1395
    9MOL0     H 1208  10.165   6.930   6.675  1.1431 -1.4516  0.6812
    9MOL0     H 1209  10.334   6.978   6.697  0.0384 -1.7617 -0.5604
    9MOL0     H 1210  10.105   7.171   6.611 -1.6793  0.9995  1.6956
    9MOL0     H 1211  10.274   7.211   6.663  1.0646 -0.3354 -0.8569
    9MOL0     H 1212  10.226   7.114   6.867  2.0636  2.8074 -2.5961
    9MOL0     H 1213  10.059   7.066   6.841 -1.2731  1.0410  1.6970
    9MOL0     H 1214  10.088   7.281   6.970 -1.3977  0.2719 -0.4518
    9MOL0     H 1215  10.171   7.349   6.827  2.3109 -0.4631  3.9422
    9MOL0     H 1216   9.881   7.271   6.835  1.6196 -2.1746  3.2953
    9MOL0     H 1217   9.951   7.356   6.706 -2.2380 -2.8705 -0.6220
    9MOL0     H 1218  10.011   7.547   6.819  1.4236 -2.1099  0.4243
    9MOL0     H 1219   9.989   7.487   6.971 -1.9731 -1.3902  0.0866
    9MOL0     H 1220   9.778   7.621   6.916 -0.4760 -0.8161  1.5046
    9MOL0     H 1221   9.733   7.450   6.931  1.4207 -0.8642 -0.7672
    9MOL0     H 1222  10.250   6.966   6.225 -0.7306 -0.4716  0.2486
    9MOL0     H 1223  10.365   6.912   6.015 -1.0788  2.1623  1.7644
    9MOL0     H 1224  10.504   6.726   5.733 -2.2184 -2.1773 -3.2613
    9MOL0     H 1225  10.539   6.686   5.504 -1.6317 -0.2975  0.4143
    9MOL0     H 1226   9.796   6.764   5.260 -1.3818 -1.6363  0.1109
    9MOL0     H 1227   9.722   6.661   5.486  0.7943  0.2978  2.4748
    9MOL0     H 1228   9.537   6.681   5.820 -0.7834  0.2368 -0.5939
    9MOL0     H 1229   9.366   6.631   5.975 -1.6524  1.3093 -1.1317
    9MOL0     H 1230   9.156   6.668   6.065  2.2639  2.5376 -0.9822
    9MOL0     H 1231   9.218   6.579   6.202  0.2721  0.3739 -1.3192
    9MOL0     H 1232   8.984   6.631   6.247 -0.7014  0.6958  4.6003
    9MOL0     H 1233   9.021   6.802   6.214  0.8844  0.4532 -0.6930
    9MOL0     H 1234   9.132   6.656   6.456 -0.1110 -1.4933 -1.2059
    9MOL0     H 1235   9.144   6.833   6.407 -2.8075  0.3737  0.9384
    9MOL0     H 1236   8.868   6.701   6.402 -2.0896  2.9624  0.8424
    9MOL0     H 1237   8.930   6.858   6.438 -0.5597  0.3493 -1.8108
    9MOL0     H 1238   8.938   6.688   6.829  0.1263 -0.2570  0.5614
    9MOL0     H 1239   9.459   6.989   6.200  0.9263 -0.3329  0.7039
    9MOL0     H 1240   9.673   7.153   6.010  1.0217  1.1004  1.2787
    9MOL0     H 1241   9.654   7.093   6.171 -2.1563  2.1635 -2.3912
    9MOL0     H 1242   9.779   7.021   6.069  1.0061  0.8974  0.1350
   10MOL0     O 1243   2.274   6.544   7.505 -0.5977 -0.1214 -0.4198
   10MOL0     C 1244   2.224   6.573   7.396  0.3649 -0.7002 -0.9179
   10MOL0     O 1245   2.253   6.510   7.288  0.4287  0.3458  0.3823
   10MOL0     C 1246   2.330   6.393   7.287  0.1169 -0.1506 -0.5000
   10MOL0     C 1247   2.456   6.411   7.223 -0.1952  0.2647  0.6875
   10MOL0     C 1248   2.532   6.293   7.200 -0.9699  0.3179 -0.3421
   10MOL0     C 1249   2.485   6.165   7.239  0.2654  0.1518  1.0662
   10MOL0     O 1250   2.563   6.066   7.189  0.1725  1.1070  0.0202
   10MOL0     C 1251   2.515   5.927   7.197 -0.3565  0.1896 -1.8458
   10MOL0     C 1252   2.618   5.828   7.137 -0.5551 -0.7224 -1.3632
   10MOL0     C 1253   2.763   5.865   7.140 -0.2293  0.7358 -0.7896
   10MOL0     C 1254   2.847   5.783   7.045  0.2867 -0.0232  1.1362
   10MOL0     C 1255   2.992   5.826   7.065 -0.2674  0.0462 -0.1214
   10MOL0     C 1256   3.088   5.733   6.993 -0.1256  0.4592  0.4648
   10MOL0     C 1257   3.234   5.756   7.048  0.1497  0.2348 -0.5135
   10MOL0     C 1258   3.333   5.706   6.951 -1.0228  0.6845  1.1713
   10MOL0     N 1259   3.475   5.703   6.997  0.2285  0.4575  0.0872
   10MOL0     C 1260   3.569   5.800   6.998 -0.0750 -0.1646  0.2740
   10MOL0     C 1261   3.690   5.739   7.031  0.3614  0.2581  0.2081
   10MOL0     C 1262   3.837   5.787   7.047 -0.3025 -0.2010  0.1659
   10MOL0     C 1263   3.904   5.854   6.914  0.5771  0.6623 -0.3120
   10MOL0     C 1264   3.890   5.756   6.802  1.2742  0.2232  0.6445
   10MOL0     C 1265   3.954   5.823   6.675  0.3298  0.3925  0.4891
   10MOL0     O 1266   3.873   5.932   6.635  0.0852 -0.1394 -0.1191
   10MOL0     C 1267   3.867   5.994   6.517 -0.8024 -0.1115 -0.5634
   10MOL0     C 1268   3.935   5.952   6.408  0.5952  0.0896 -0.0606
   10MOL0     C 1269   3.906   6.008   6.283 -0.6323  0.2839  0.0320
   10MOL0     C 1270   3.976   5.946   6.167 -0.7293 -0.0420 -0.3764
   10MOL0     C 1271   3.807   6.098   6.268  0.5693 -0.5545 -0.4146
   10MOL0     C 1272   3.751   6.144   6.130  0.3808  0.1950 -0.0043
   10MOL0     O 1273   3.637   6.228   6.135  0.2063  0.3232  0.0264
   10MOL0     C 1274   3.604   6.304   6.024  0.3183  0.3844  0.1202
   10MOL0     C 1275   3.702   6.393   5.966 -0.6547  0.2703  0.2108
   10MOL0     C 1276   3.660   6.475   5.863 -0.6682  0.4722  0.1195
   10MOL0     C 1277   3.529   6.486   5.827 -0.4833  0.5277  0.2854
   10MOL0     O 1278   3.467   6.568   5.738 -0.0506 -0.5587  0.1352
   10MOL0     C 1279   3.530   6.681   5.684 -0.6646  0.1404 -0.1116
   10MOL0     C 1280   3.432   6.768   5.604  0.6620 -0.3447  0.0111
   10MOL0     C 1281   3.300   6.789   5.672  0.0517  1.0675 -0.5803
   10MOL0     C 1282   3.244   6.921   5.627 -0.0549  0.4596  0.8328
   10MOL0     C 1283   3.090   6.927   5.636  0.7937  0.4991 -0.0505
   10MOL0     C 1284   3.022   6.854   5.523 -0.3712 -0.8699 -0.0026
   10MOL0     C 1285   2.875   6.901   5.493  0.3212  0.1519  0.2497
   10MOL0     C 1286   2.768   6.806   5.544  0.6688 -0.2441 -0.3010
   10MOL0    Cl 1287   2.731   6.809   5.718 -0.6558 -0.0853  0.0329
   10MOL0     C 1288   3.441   6.398   5.881 -0.0500  0.8144 -0.0273
   10MOL0     C 1289   3.472   6.301   5.979 -0.6015  0.7612 -0.1568
   10MOL0     O 1290   3.807   6.116   6.021 -0.3530  0.0249 -0.2079
   10MOL0     C 1291   3.737   6.141   6.386 -0.1778 -0.3257 -0.0208
   10MOL0     C 1292   3.779   6.099   6.505  0.4363  0.0613 -0.5784
   10MOL0     N 1293   3.662   5.602   7.050  0.1198  0.2480  0.6288
   10MOL0     N 1294   3.534   5.584   7.021  0.5921  0.7743 -0.1601
   10MOL0     C 1295   2.359   6.149   7.308  0.9432 -0.6280 -0.6157
   10MOL0     C 1296   2.279   6.266   7.334 -0.5423 -1.6430  0.0266
   10MOL0     C 1297   2.124   6.680   7.379  0.9056 -0.9665  0.1034
   10MOL0     C 1298   2.046   6.686   7.263 -0.6385  0.0424  0.5015
   10MOL0     C 1299   1.939   6.771   7.254  0.5037  0.1885  0.7396
   10MOL0     C 1300   1.909   6.856   7.357  1.2363  0.8432  0.5644
   10MOL0     O 1301   1.804   6.953   7.349  0.3345 -0.3740  0.4152
   10MOL0     C 1302   1.782   7.002   7.220  0.2822  0.2443 -0.5439
   10MOL0     C 1303   1.685   7.124   7.238  0.3752  0.0287 -0.6383
   10MOL0     C 1304   1.665   7.212   7.113 -0.2508 -0.1909 -0.4505
   10MOL0     C 1305   1.555   7.154   7.021  0.0076  0.4026  0.3128
   10MOL0     C 1306   1.550   7.231   6.901 -0.2458 -0.7946  0.5081
   10MOL0     C 1307   1.537   7.315   6.811  0.2457  0.4884  0.6702
   10MOL0     C 1308   1.997   6.869   7.466 -0.9670 -0.8098  0.3194
   10MOL0     C 1309   2.107   6.784   7.475  0.4511  0.3982 -0.7323
   10MOL0     C 1310   2.201   6.818   7.589  0.8156 -0.2272  0.5152
   10MOL0     H 1311   2.476   6.510   7.183  1.2495  0.7909  2.5449
   10MOL0     H 1312   2.630   6.313   7.156  0.0948  2.1784  2.5557
   10MOL0     H 1313   2.417   5.923   7.150 -2.4902 -0.4987  2.2079
   10MOL0     H 1314   2.502   5.901   7.303  1.6011 -0.8165 -1.7952
   10MOL0     H 1315   2.613   5.736   7.196 -0.0560  0.6234  0.8992
   10MOL0     H 1316   2.580   5.802   7.038  0.5193 -4.7435 -0.8706
   10MOL0     H 1317   2.790   5.964   7.102  2.6689 -0.6555 -2.7380
   10MOL0     H 1318   2.796   5.863   7.244 -0.9145 -0.7988 -0.5756
   10MOL0     H 1319   2.821   5.678   7.063 -2.1522  0.2488 -0.3581
   10MOL0     H 1320   2.823   5.810   6.942 -0.6828  0.7087  1.5279
   10MOL0     H 1321   3.007   5.812   7.172 -4.1176 -1.5712  0.3940
   10MOL0     H 1322   3.014   5.930   7.039 -4.2314  0.7335 -1.4896
   10MOL0     H 1323   3.056   5.631   7.019 -2.9976  0.8823 -1.0634
   10MOL0     H 1324   3.081   5.735   6.884  0.0239  0.0133  0.4434
   10MOL0     H 1325   3.254   5.712   7.146  1.2501  0.2989 -0.6953
   10MOL0     H 1326   3.241   5.865   7.051 -3.7872  0.6110  1.0199
   10MOL0     H 1327   3.311   5.606   6.911 -2.0770  1.1213  0.6234
   10MOL0     H 1328   3.330   5.770   6.863  2.3747  0.1365  0.5413
   10MOL0     H 1329   3.550   5.906   6.984  0.5421  0.1314  1.5799
   10MOL0     H 1330   3.901   5.715   7.100  1.3529  1.1521  0.0845
   10MOL0     H 1331   3.834   5.869   7.119 -0.2193  0.3572 -0.4594
   10MOL0     H 1332   3.849   5.945   6.891 -3.8230 -2.1875 -2.3872
   10MOL0     H 1333   4.010   5.874   6.932  0.6216 -0.4027  0.7547
   10MOL0     H 1334   3.938   5.665   6.840 -2.6696 -2.8427 -1.0043
   10MOL0     H 1335   3.790   5.723   6.773  0.3571  1.6023  2.0708
   10MOL0     H 1336   4.052   5.870   6.684 -0.5877  2.3315  0.9351
   10MOL0     H 1337   3.963   5.747   6.597 -2.4668 -0.2677  0.6961
   10MOL0     H 1338   4.020   5.885   6.415  0.3722 -0.0297  1.9776
   10MOL0     H 1339   4.037   5.856   6.181 -2.0899 -1.2763 -2.0301
   10MOL0     H 1340   4.047   6.019   6.125 -0.2028  0.4963  1.3413
   10MOL0     H 1341   3.892   5.913   6.106 -1.2310  0.1842  0.1775
   10MOL0     H 1342   3.808   6.389   5.986 -0.6948  1.9416  0.9433
   10MOL0     H 1343   3.741   6.529   5.815  0.7241 -3.2583 -2.2092
   10MOL0     H 1344   3.579   6.744   5.758 -1.4061  0.8697 -0.2292
   10MOL0     H 1345   3.615   6.651   5.621 -1.2473 -0.6079 -0.5614
   10MOL0     H 1346   3.489   6.860   5.588 -0.4537  0.5008  0.7721
   10MOL0     H 1347   3.423   6.700   5.519 -3.7825  0.4624 -0.4124
   10MOL0     H 1348   3.303   6.798   5.781 -0.9744  1.7610 -0.5956
   10MOL0     H 1349   3.242   6.701   5.642  3.0761 -1.8175  1.2757
   10MOL0     H 1350   3.277   6.930   5.523  1.9153  0.4585  1.4137
   10MOL0     H 1351   3.290   7.011   5.668  1.4832  0.6514 -1.1629
   10MOL0     H 1352   3.050   6.896   5.734  0.3346  1.3858  0.0556
   10MOL0     H 1353   3.067   7.034   5.637  0.2419  0.4258  2.4890
   10MOL0     H 1354   3.030   6.745   5.529 -1.5514 -0.9773 -0.2280
   10MOL0     H 1355   3.066   6.884   5.427  2.0011  0.1132  1.3123
   10MOL0     H 1356   2.868   6.921   5.386 -0.6242  2.1611  0.6430
   10MOL0     H 1357   2.859   6.998   5.540 -0.7133  1.1589 -2.0246
   10MOL0     H 1358   2.794   6.706   5.510  0.4661 -0.8994  1.3774
   10MOL0     H 1359   2.680   6.835   5.486  1.1741 -1.4121 -1.6989
   10MOL0     H 1360   3.338   6.393   5.847 -0.6252 -0.5957  1.8084
   10MOL0     H 1361   3.409   6.223   6.021 -1.3129  1.3082 -0.1913
   10MOL0     H 1362   3.648   6.203   6.376  0.2734  0.1236 -1.5729
   10MOL0     H 1363   3.728   6.142   6.591 -3.0994 -4.0946 -0.2552
   10MOL0     H 1364   2.329   6.051   7.343  2.1358  0.3217  3.5347
   10MOL0     H 1365   2.183   6.256   7.383  0.0095  0.6632  1.7596
   10MOL0     H 1366   2.071   6.612   7.188 -1.0072 -1.7536  2.0821
   10MOL0     H 1367   1.871   6.759   7.171 -1.4782 -0.2105  2.3289
   10MOL0     H 1368   1.875   7.034   7.172  0.3929 -0.4935 -0.8364
   10MOL0     H 1369   1.722   6.932   7.161  1.7297 -1.1383 -0.4590
   10MOL0     H 1370   1.726   7.184   7.320 -5.9194  1.4761  1.9784
   10MOL0     H 1371   1.589   7.091   7.279 -1.4984  2.6632 -2.5607
   10MOL0     H 1372   1.638   7.309   7.155  2.6207  0.5985 -0.1907
   10MOL0     H 1373   1.763   7.211   7.062  0.5762  0.8772  1.0530
   10MOL0     H 1374   1.460   7.158   7.075 -0.8051 -0.0370 -1.0483
   10MOL0     H 1375   1.580   7.051   6.995 -1.7965 -0.5041  1.9249
   10MOL0     H 1376   1.519   7.396   6.743 -1.8605  3.3107  4.2013
   10MOL0     H 1377   1.960   6.943   7.537 -0.6678  1.9198 -2.1895
   10MOL0     H 1378   2.197   6.742   7.668 -1.1478 -0.4421  0.2562
   10MOL0     H 1379   2.299   6.828   7.541 -0.1928  3.5272 -1.1425
   10MOL0     H 1380   2.171   6.917   7.624 -1.2793 -0.7657  0.3925
   11MOL0     O 1381   7.524   1.716   0.920  0.4904  0.3693  0.2252
   11MOL0     C 1382   7.604   1.626   0.953  0.9133  0.1270  0.2821
   11MOL0     O 1383   7.586   1.500   0.920 -0.1730  0.7301  0.2781
   11MOL0     C 1384   7.456   1.462   0.881  0.0353 -0.1123 -0.1354
   11MOL0     C 1385   7.410   1.473   0.745 -0.7310 -0.3966 -0.4511
   11MOL0     C 1386   7.279   1.429   0.717 -0.5516  1.2200 -1.0526
   11MOL0     C 1387   7.195   1.375   0.819  0.3058  0.2343  0.0414
   11MOL0     O 1388   7.067   1.348   0.776 -0.3600  0.1575  0.6641
   11MOL0     C 1389   6.965   1.406   0.850 -0.7644  0.2244 -0.1385
   11MOL0     C 1390   6.872   1.307   0.910  0.0646 -0.2152  0.6481
   11MOL0     C 1391   6.899   1.250   1.051 -0.1858 -0.2747  0.5922
   11MOL0     C 1392   6.764   1.187   1.113 -0.9656 -0.0662 -0.1751
   11MOL0     C 1393   6.801   1.082   1.225  0.2650 -0.6765 -0.1349
   11MOL0     C 1394   6.875   1.140   1.347 -0.1331 -0.0973  0.9662
   11MOL0     C 1395   6.908   1.029   1.450 -0.5109 -0.7711  0.2594
   11MOL0     C 1396   7.048   0.957   1.430 -0.2058  0.5687  0.1157
   11MOL0     N 1397   7.171   1.027   1.463  0.7496  0.1666  0.1650
   11MOL0     C 1398   7.231   1.121   1.386 -0.1745 -0.2114  0.2085
   11MOL0     C 1399   7.342   1.158   1.450 -0.4207 -0.2241  0.3411
   11MOL0     C 1400   7.445   1.256   1.396 -0.3522  0.6321  0.4022
   11MOL0     C 1401   7.545   1.197   1.299  0.8426  0.9096 -0.0230
   11MOL0     C 1402   7.626   1.074   1.352  0.0242  0.7369 -0.0021
   11MOL0     C 1403   7.761   1.059   1.274  0.2581 -0.1815 -0.1374
   11MOL0     O 1404   7.836   1.184   1.268 -1.0916 -0.7356  0.0324
   11MOL0     C 1405   7.945   1.187   1.176 -0.8525 -0.1432 -0.5378
   11MOL0     C 1406   7.952   1.103   1.063 -0.5070  0.0130  0.0088
   11MOL0     C 1407   8.075   1.091   0.991 -0.1796 -0.5679 -0.9492
   11MOL0     C 1408   8.070   1.009   0.867  0.5536 -0.5197  0.0532
   11MOL0     C 1409   8.189   1.166   1.036  0.9487 -0.0284 -0.0702
   11MOL0     C 1410   8.325   1.145   0.985 -0.4213  0.2832 -0.1999
   11MOL0     O 1411   8.367   1.011   0.973 -0.1808 -0.6168 -0.6974
   11MOL0     C 1412   8.500   0.996   0.933 -0.5754 -0.3925  0.0869
   11MOL0     C 1413   8.550   1.037   0.804 -0.6694  0.2729  0.5696
   11MOL0     C 1414   8.689   1.004   0.771 -0.1756 -0.6547  1.1794
   11MOL0     C 1415   8.783   0.943   0.858  0.9502  0.2615 -0.8140
   11MOL0     O 1416   8.919   0.921   0.836 -0.3305 -0.4901  0.8550
   11MOL0     C 1417   8.982   0.978   0.719 -0.0570 -0.8409 -0.0839
   11MOL0     C 1418   9.132   0.940   0.712 -0.1228  0.7312 -0.7303
   11MOL0     C 1419   9.155   0.794   0.661 -0.5169  0.4067 -0.1651
   11MOL0     C 1420   9.306   0.770   0.605 -0.2389  0.1114 -1.3586
   11MOL0     C 1421   9.315   0.638   0.528  0.7816  0.2731 -0.9503
   11MOL0     C 1422   9.266   0.517   0.609 -0.6891  0.6136 -0.6388
   11MOL0     C 1423   9.296   0.391   0.521  0.1376  0.0957  0.1266
   11MOL0     C 1424   9.229   0.268   0.588 -0.2923  0.7540  0.5029
   11MOL0    Cl 1425   9.295   0.139   0.492  0.2262 -0.2916 -0.0528
   11MOL0     C 1426   8.730   0.908   0.982  0.2729  0.0045 -0.1264
   11MOL0     C 1427   8.598   0.945   1.020 -0.3837  0.4924  0.0446
   11MOL0     O 1428   8.388   1.247   0.945 -0.5150 -0.3030  0.7039
   11MOL0     C 1429   8.172   1.266   1.132  0.1118 -0.6899 -0.9264
   11MOL0     C 1430   8.056   1.281   1.199  0.0828  0.7280 -0.9667
   11MOL0     N 1431   7.351   1.083   1.569  0.0260 -0.0257  0.6392
   11MOL0     N 1432   7.249   1.008   1.571  1.0375  0.4528  0.1380
   11MOL0     C 1433   7.245   1.361   0.951  0.1643 -0.1108  0.6306
   11MOL0     C 1434   7.374   1.400   0.976 -0.3970  0.1625 -1.0934
   11MOL0     C 1435   7.728   1.660   1.027 -0.7719  0.6665  0.0351
   11MOL0     C 1436   7.738   1.772   1.104  0.2511  0.4174  0.5703
   11MOL0     C 1437   7.847   1.812   1.169 -0.3604 -0.6371 -0.1179
   11MOL0     C 1438   7.966   1.737   1.167  0.2066  0.5970 -0.3560
   11MOL0     O 1439   8.079   1.792   1.224  0.1367  0.1461  0.0968
   11MOL0     C 1440   8.195   1.713   1.239  0.3627 -0.5490  0.1549
   11MOL0     C 1441   8.285   1.707   1.113  1.0883 -0.2652  1.2454
   11MOL0     C 1442   8.417   1.641   1.136 -0.2166  0.4377  0.6334
   11MOL0     C 1443   8.521   1.696   1.034  1.0054  0.3460 -0.0277
   11MOL0     C 1444   8.580   1.831   1.062  0.7521 -0.0605  0.7627
   11MOL0     C 1445   8.639   1.934   1.080 -0.0155  0.7845 -0.1702
   11MOL0     C 1446   7.968   1.613   1.104 -0.3612 -0.6906  0.2732
   11MOL0     C 1447   7.848   1.580   1.025  0.5156  0.1078 -0.2542
   11MOL0     C 1448   7.852   1.443   0.952 -0.0109  0.2591 -0.7398
   11MOL0     H 1449   7.485   1.509   0.676  0.2881  3.3776  2.3207
   11MOL0     H 1450   7.239   1.431   0.616 -0.8433 -0.4308 -0.9923
   11MOL0     H 1451   6.902   1.451   0.772 -3.8258 -1.0446  1.4426
   11MOL0     H 1452   6.998   1.488   0.915  1.6455  1.0815 -2.2766
   11MOL0     H 1453   6.774   1.355   0.906  1.7056  3.3840 -0.0101
   11MOL0     H 1454   6.875   1.222   0.841  0.9919  0.9205 -0.7745
   11MOL0     H 1455   6.975   1.172   1.044  0.6458  0.3642  2.0451
   11MOL0     H 1456   6.946   1.315   1.126  1.0956  2.1128 -2.1085
   11MOL0     H 1457   6.701   1.270   1.145  1.5895  1.9475 -0.0454
   11MOL0     H 1458   6.712   1.135   1.032 -1.8193  2.3430 -1.2503
   11MOL0     H 1459   6.866   1.008   1.176  1.0800  1.2567 -2.1491
   11MOL0     H 1460   6.714   1.028   1.263 -2.2172  1.7649 -1.9919
   11MOL0     H 1461   6.968   1.177   1.302 -1.1484 -0.3713 -1.5399
   11MOL0     H 1462   6.817   1.226   1.382  0.8482  0.9861  0.0426
   11MOL0     H 1463   6.826   0.957   1.446 -0.6270 -0.7484  1.8639
   11MOL0     H 1464   6.903   1.059   1.555  0.2168  1.6492 -0.3197
   11MOL0     H 1465   7.049   0.867   1.492  1.6462  0.1832 -0.4096
   11MOL0     H 1466   7.058   0.922   1.327  1.9583 -1.2983  0.8823
   11MOL0     H 1467   7.204   1.153   1.286  2.6535 -0.2359 -0.6730
   11MOL0     H 1468   7.505   1.299   1.476  0.4872  2.2817 -1.0339
   11MOL0     H 1469   7.386   1.339   1.355 -0.2536  0.7206  0.4393
   11MOL0     H 1470   7.494   1.162   1.209  1.6134 -1.4483  0.3662
   11MOL0     H 1471   7.614   1.280   1.281  0.4444  1.6439  1.6435
   11MOL0     H 1472   7.646   1.077   1.460 -1.2772 -0.0145  0.2779
   11MOL0     H 1473   7.578   0.978   1.333 -1.7304  1.3294  1.2189
   11MOL0     H 1474   7.831   0.985   1.313  1.7252  0.4384 -1.4872
   11MOL0     H 1475   7.743   1.024   1.172  3.4442  1.7339 -1.5080
   11MOL0     H 1476   7.866   1.046   1.029 -1.5521  2.0575 -0.9189
   11MOL0     H 1477   8.001   1.039   0.788  0.1887 -0.4979  0.3775
   11MOL0     H 1478   8.061   0.903   0.895  1.6275  0.1192  3.2467
   11MOL0     H 1479   8.166   1.012   0.814  1.3844 -1.0122  1.4651
   11MOL0     H 1480   8.489   1.083   0.727  1.8581  1.4275 -0.8749
   11MOL0     H 1481   8.728   1.043   0.678 -0.2386 -2.0262  0.5547
   11MOL0     H 1482   8.917   0.955   0.634 -1.5469 -2.1900  1.3434
   11MOL0     H 1483   8.963   1.085   0.732 -0.9139 -0.9110 -0.6332
   11MOL0     H 1484   9.189   1.006   0.646  0.9561 -1.3157 -1.9298
   11MOL0     H 1485   9.170   0.957   0.813  0.7550  0.2573 -0.9697
   11MOL0     H 1486   9.085   0.783   0.578 -1.0285 -0.2818  0.3404
   11MOL0     H 1487   9.129   0.713   0.730 -2.3144 -0.1672 -1.4706
   11MOL0     H 1488   9.380   0.762   0.685 -0.5634  1.2181 -0.9406
   11MOL0     H 1489   9.334   0.853   0.539  0.5634 -0.5028 -1.8063
   11MOL0     H 1490   9.259   0.637   0.433 -0.2296 -2.1279 -0.4116
   11MOL0     H 1491   9.422   0.628   0.510  1.1084  2.0234 -0.1135
   11MOL0     H 1492   9.158   0.530   0.612 -0.8313 -0.6441 -0.1423
   11MOL0     H 1493   9.308   0.508   0.709 -1.8894 -0.1531 -0.1989
   11MOL0     H 1494   9.405   0.381   0.509 -0.1150 -2.2128 -0.7683
   11MOL0     H 1495   9.243   0.391   0.425 -1.9526  0.8072  1.2233
   11MOL0     H 1496   9.120   0.260   0.586 -0.1757 -1.6098  0.0590
   11MOL0     H 1497   9.257   0.242   0.691  0.3038  0.1539  0.2006
   11MOL0     H 1498   8.789   0.867   1.063 -1.0639  1.3342  1.5911
   11MOL0     H 1499   8.569   0.926   1.123 -1.1669  0.9514 -0.0781
   11MOL0     H 1500   8.249   1.340   1.151  1.4828 -1.8791 -1.6907
   11MOL0     H 1501   8.041   1.366   1.266 -1.0947  0.1883 -0.5352
   11MOL0     H 1502   7.180   1.320   1.028 -0.0104 -0.7928  0.1379
   11MOL0     H 1503   7.427   1.387   1.069 -0.8689  1.6595 -0.5730
   11MOL0     H 1504   7.648   1.829   1.088  0.6644  0.0647 -4.6055
   11MOL0     H 1505   7.849   1.905   1.225 -0.7137 -0.8328  0.2188
   11MOL0     H 1506   8.248   1.741   1.331  0.0034 -1.6528  0.7111
   11MOL0     H 1507   8.173   1.610   1.265  0.6081 -0.7474 -0.4008
   11MOL0     H 1508   8.305   1.810   1.082 -0.1274 -0.6202 -0.8644
   11MOL0     H 1509   8.236   1.676   1.021  1.8617  1.4858  0.2036
   11MOL0     H 1510   8.459   1.667   1.233  0.5904  4.1752 -0.5395
   11MOL0     H 1511   8.410   1.533   1.127 -0.1618  0.4573  0.3239
   11MOL0     H 1512   8.477   1.683   0.935  2.5304 -2.6141 -0.4268
   11MOL0     H 1513   8.606   1.628   1.043 -0.9933 -2.1479  1.3913
   11MOL0     H 1514   8.704   2.019   1.084  1.1788 -0.1000 -0.1901
   11MOL0     H 1515   8.047   1.540   1.091  0.3371  0.4801 -3.2381
   11MOL0     H 1516   7.957   1.417   0.939  0.2790  0.7560  0.4767
   11MOL0     H 1517   7.801   1.362   1.006 -0.1440 -0.2756 -1.6365
   11MOL0     H 1518   7.803   1.456   0.855 -1.7206  2.2168  0.3136
   12MOL0     O 1519   5.460   8.002   8.726  0.0339 -0.3369  0.9945
   12MOL0     C 1520   5.383   8.057   8.802 -0.1257  0.5968 -0.2973
   12MOL0     O 1521   5.246   8.038   8.811 -1.0132  0.4195 -0.2485
   12MOL0     C 1522   5.179   7.960   8.727 -0.2054 -0.3962 -0.1153
   12MOL0     C 1523   5.057   7.922   8.765  0.2143 -0.3675 -1.0144
   12MOL0     C 1524   4.972   7.845   8.687  0.7862 -0.7477 -1.5718
   12MOL0     C 1525   5.005   7.797   8.557  0.2811 -0.8110  0.2282
   12MOL0     O 1526   4.910   7.756   8.474 -0.5635 -0.2732 -0.1733
   12MOL0     C 1527   4.846   7.632   8.517  0.4152 -0.2789  0.7996
   12MOL0     C 1528   4.766   7.566   8.403 -0.6834  0.0839 -0.6060
   12MOL0     C 1529   4.635   7.640   8.377 -0.9830 -0.4637 -0.0037
   12MOL0     C 1530   4.561   7.562   8.274 -1.3361  0.0311 -0.2467
   12MOL0     C 1531   4.445   7.647   8.222  0.6461 -0.3552 -0.8453
   12MOL0     C 1532   4.351   7.573   8.121  0.6631 -0.8613  0.4903
   12MOL0     C 1533   4.413   7.523   7.983 -0.1496 -0.7979  0.0231
   12MOL0     C 1534   4.450   7.638   7.881  0.2740 -0.3872 -0.0860
   12MOL0     N 1535   4.593   7.662   7.867  0.2433 -0.1647  0.3195
   12MOL0     C 1536   4.654   7.721   7.967  0.3452 -1.0257 -0.8705
   12MOL0     C 1537   4.779   7.686   7.959  0.7245  0.9252  0.5271
   12MOL0     C 1538   4.894   7.740   8.050  0.4982 -0.8478  0.5788
   12MOL0     C 1539   5.028   7.658   8.030  0.0559 -0.3913 -0.8195
   12MOL0     C 1540   5.128   7.685   8.138  0.9712  0.2368 -0.2958
   12MOL0     C 1541   5.260   7.608   8.116  0.3757 -0.1843 -0.9932
   12MOL0     O 1542   5.358   7.640   8.215  0.0910 -0.5072  0.2708
   12MOL0     C 1543   5.420   7.765   8.195 -0.0170  0.6534  0.9299
   12MOL0     C 1544   5.401   7.862   8.090  0.7751 -0.2081 -0.5393
   12MOL0     C 1545   5.482   7.980   8.087  0.3036  0.4983  0.3719
   12MOL0     C 1546   5.481   8.065   7.965  0.5734 -0.2892  0.0378
   12MOL0     C 1547   5.571   8.012   8.197  0.3041 -0.3253  0.3526
   12MOL0     C 1548   5.673   8.125   8.201 -0.3639  0.2753  0.5044
   12MOL0     O 1549   5.744   8.146   8.314 -0.0181  0.0154 -0.2891
   12MOL0     C 1550   5.809   8.260   8.345 -0.2138 -0.2480 -0.7755
   12MOL0     C 1551   5.837   8.367   8.261 -0.0892  0.1137  0.4683
   12MOL0     C 1552   5.905   8.476   8.312 -0.4545  0.2510 -0.1317
   12MOL0     C 1553   5.951   8.484   8.439  0.2920  0.4159  0.6546
   12MOL0     O 1554   6.015   8.588   8.495 -0.2658  0.0599 -0.2167
   12MOL0     C 1555   5.996   8.719   8.440 -0.0718  0.0365  0.0594
   12MOL0     C 1556   6.029   8.820   8.554 -1.1586  0.2545 -0.2827
   12MOL0     C 1557   6.183   8.793   8.588  0.8116 -0.4820  0.4604
   12MOL0     C 1558   6.234   8.922   8.657 -0.2644 -1.3094 -0.6129
   12MOL0     C 1559   6.197   8.925   8.807  0.5377  1.3411  0.3630
   12MOL0     C 1560   6.275   9.028   8.886 -0.7127  1.2299  0.5992
   12MOL0     C 1561   6.426   8.997   8.883  0.4673  0.8633  0.5289
   12MOL0     C 1562   6.498   9.042   9.010 -0.2668 -0.1880 -0.0648
   12MOL0    Cl 1563   6.512   9.219   8.993  0.0142 -0.2349 -0.0999
   12MOL0     C 1564   5.915   8.382   8.521  0.1853 -0.6690  0.3094
   12MOL0     C 1565   5.849   8.270   8.475 -0.4210 -0.2626  0.0017
   12MOL0     O 1566   5.686   8.186   8.100  0.2578  0.0132  0.8076
   12MOL0     C 1567   5.578   7.926   8.306 -0.0567  0.4406  0.3893
   12MOL0     C 1568   5.507   7.804   8.304 -0.1393  0.9016 -0.1165
   12MOL0     N 1569   4.792   7.600   7.849  0.6359  0.1276 -0.3896
   12MOL0     N 1570   4.681   7.595   7.788 -0.5896  0.0118  0.2207
   12MOL0     C 1571   5.136   7.825   8.521  0.7506 -0.1268 -0.2371
   12MOL0     C 1572   5.214   7.911   8.600 -1.2783  0.3625 -0.0734
   12MOL0     C 1573   5.444   8.147   8.905  0.0644  0.2264 -0.2134
   12MOL0     C 1574   5.385   8.137   9.042 -1.1922 -0.3071  0.4016
   12MOL0     C 1575   5.454   8.198   9.148  0.3670 -0.5872  1.2592
   12MOL0     C 1576   5.558   8.282   9.123 -0.6049 -0.0073  1.1100
   12MOL0     O 1577   5.620   8.349   9.228  0.9310  0.6475 -0.1805
   12MOL0     C 1578   5.665   8.264   9.334 -0.1833  0.3636  0.0677
   12MOL0     C 1579   5.809   8.306   9.376 -0.6955 -0.2941 -0.6679
   12MOL0     C 1580   5.835   8.462   9.428  0.1134  0.0851 -0.8956
   12MOL0     C 1581   5.851   8.565   9.317  0.0713  0.2076  0.9432
   12MOL0     C 1582   5.872   8.690   9.389  1.0110  0.3334 -1.1979
   12MOL0     C 1583   5.903   8.770   9.484 -1.0700  0.5548  0.1852
   12MOL0     C 1584   5.601   8.308   8.994  0.0824 -0.1823 -0.6856
   12MOL0     C 1585   5.533   8.250   8.884 -1.0093 -0.4294 -1.3286
   12MOL0     C 1586   5.574   8.298   8.742 -0.5954 -0.4940 -0.5703
   12MOL0     H 1587   5.028   7.930   8.869 -1.9422  0.3154 -1.6238
   12MOL0     H 1588   4.875   7.822   8.731  1.4785  0.8502  1.0193
   12MOL0     H 1589   4.783   7.657   8.602  0.9890 -0.9637  1.4383
   12MOL0     H 1590   4.919   7.554   8.542 -0.2488 -1.0245  0.4656
   12MOL0     H 1591   4.828   7.551   8.314 -1.1918 -0.0329 -0.9446
   12MOL0     H 1592   4.738   7.467   8.440  6.6472 -1.4786  2.4977
   12MOL0     H 1593   4.582   7.652   8.471 -0.2748 -0.0948  0.3561
   12MOL0     H 1594   4.661   7.739   8.338 -1.1676  0.2639  1.6397
   12MOL0     H 1595   4.631   7.538   8.193 -1.9631 -1.8639 -0.2761
   12MOL0     H 1596   4.531   7.465   8.315  2.3826 -0.7457  1.0015
   12MOL0     H 1597   4.471   7.745   8.183 -2.2038  0.5794 -0.6287
   12MOL0     H 1598   4.388   7.657   8.315  1.4983  1.2149 -0.4662
   12MOL0     H 1599   4.324   7.481   8.174 -0.4736 -0.4200  0.7076
   12MOL0     H 1600   4.260   7.633   8.113  1.5441  0.2444 -3.4489
   12MOL0     H 1601   4.338   7.461   7.932 -0.5728  0.1264 -0.5040
   12MOL0     H 1602   4.500   7.469   8.021  0.4178 -0.6078 -0.9526
   12MOL0     H 1603   4.421   7.604   7.781 -0.8522  0.7381 -0.1594
   12MOL0     H 1604   4.401   7.733   7.905 -0.1166 -0.4235 -0.7286
   12MOL0     H 1605   4.622   7.778   8.053  3.3883  2.3534 -1.7233
   12MOL0     H 1606   4.865   7.729   8.155  1.3565 -1.4966  0.7581
   12MOL0     H 1607   4.918   7.842   8.017 -0.7791 -1.2253 -1.7346
   12MOL0     H 1608   5.006   7.551   8.030  0.9765 -0.5936  0.2768
   12MOL0     H 1609   5.072   7.689   7.934  2.5556 -0.4019  0.2377
   12MOL0     H 1610   5.154   7.790   8.131  0.4868  0.4668  0.9775
   12MOL0     H 1611   5.079   7.658   8.232  2.3281 -0.9966  0.1027
   12MOL0     H 1612   5.254   7.499   8.115  0.3613 -0.3470  3.0161
   12MOL0     H 1613   5.291   7.629   8.013 -3.0992  2.7808 -1.6273
   12MOL0     H 1614   5.330   7.831   8.014 -1.8986 -1.3854  2.2401
   12MOL0     H 1615   5.476   8.169   7.997 -0.7940 -0.2934 -0.1155
   12MOL0     H 1616   5.390   8.057   7.905  0.1543 -0.0570  0.6405
   12MOL0     H 1617   5.571   8.040   7.907  0.0775  0.8477 -1.2756
   12MOL0     H 1618   5.804   8.372   8.158  0.8380 -0.2365  0.1401
   12MOL0     H 1619   5.931   8.552   8.240  0.5364 -1.6580 -1.8772
   12MOL0     H 1620   6.052   8.735   8.348  3.7967  1.2868  2.4195
   12MOL0     H 1621   5.889   8.732   8.419 -0.8938 -3.6524  1.1863
   12MOL0     H 1622   6.018   8.925   8.524 -0.1261  0.6902  0.7693
   12MOL0     H 1623   5.968   8.792   8.641  0.3034  0.0960  0.7402
   12MOL0     H 1624   6.250   8.786   8.502  0.8210  1.0779  0.3251
   12MOL0     H 1625   6.208   8.707   8.652  0.9314 -1.4693 -0.8765
   12MOL0     H 1626   6.205   9.017   8.612 -2.5053 -0.0932  2.9261
   12MOL0     H 1627   6.342   8.904   8.645 -0.4997 -2.3826 -1.3000
   12MOL0     H 1628   6.089   8.935   8.817  0.1598  0.6735 -2.3521
   12MOL0     H 1629   6.228   8.825   8.840 -0.3965  1.8270  2.9300
   12MOL0     H 1630   6.236   9.033   8.989  0.5096  0.2432  1.1348
   12MOL0     H 1631   6.271   9.127   8.839  1.8774  0.6332 -1.0793
   12MOL0     H 1632   6.481   9.030   8.794  0.4557 -0.2588  0.0951
   12MOL0     H 1633   6.438   8.889   8.870 -0.2825  0.8849 -0.4663
   12MOL0     H 1634   6.598   9.000   9.026 -0.9879 -1.6808  0.6369
   12MOL0     H 1635   6.442   9.019   9.101 -0.9834  0.2292 -0.3955
   12MOL0     H 1636   5.937   8.389   8.627 -1.4572  0.5451  0.6155
   12MOL0     H 1637   5.844   8.181   8.536  2.2213  0.1786  1.0271
   12MOL0     H 1638   5.644   7.927   8.393  0.9605 -1.4906 -0.3016
   12MOL0     H 1639   5.526   7.736   8.386  1.3573  0.8093 -0.5028
   12MOL0     H 1640   5.167   7.779   8.427  2.1279  0.0410  0.1135
   12MOL0     H 1641   5.308   7.940   8.556 -1.2430 -0.5057 -0.5936
   12MOL0     H 1642   5.297   8.076   9.061 -1.8452  0.0381 -1.2807
   12MOL0     H 1643   5.418   8.190   9.251  1.2624  0.7164  1.6868
   12MOL0     H 1644   5.603   8.268   9.424 -1.0014  0.2319 -0.4846
   12MOL0     H 1645   5.662   8.158   9.307 -0.1936 -0.6778  3.6456
   12MOL0     H 1646   5.885   8.291   9.299 -0.4886 -2.1693 -0.1353
   12MOL0     H 1647   5.843   8.247   9.461  1.8997 -0.0804 -1.4548
   12MOL0     H 1648   5.747   8.487   9.488  0.5035 -0.1209 -0.2263
   12MOL0     H 1649   5.919   8.458   9.498 -1.2551  1.4544  0.9403
   12MOL0     H 1650   5.770   8.574   9.245 -0.1496 -2.4182  0.7642
   12MOL0     H 1651   5.944   8.556   9.260 -2.2221  0.8191 -3.2249
   12MOL0     H 1652   5.930   8.836   9.563 -0.0251  1.2437 -0.7312
   12MOL0     H 1653   5.684   8.377   8.995 -0.7461  0.8508  1.6855
   12MOL0     H 1654   5.502   8.371   8.705  2.2882  2.5730 -0.6241
   12MOL0     H 1655   5.672   8.346   8.748  0.1078 -1.9949  1.3645
   12MOL0     H 1656   5.578   8.212   8.675  0.3307 -0.9177  0.0021
   13MOL0     O 1657   0.658   4.881   5.442  0.0413 -0.2222 -0.6296
   13MOL0     C 1658   0.565   4.804   5.428 -0.1505 -0.9610  0.3421
   13MOL0     O 1659   0.574   4.669   5.397  0.1352 -0.1814  0.5835
   13MOL0     C 1660   0.702   4.615   5.380  0.8292 -1.2801 -0.4245
   13MOL0     C 1661   0.753   4.526   5.467  0.7533 -0.1526  0.3387
   13MOL0     C 1662   0.878   4.466   5.446 -0.4579 -0.0426 -0.5448
   13MOL0     C 1663   0.951   4.490   5.334  0.8242 -0.2183 -0.0776
   13MOL0     O 1664   1.065   4.424   5.306  0.2233 -0.4835 -0.7669
   13MOL0     C 1665   1.081   4.297   5.375 -0.0582 -0.6122  0.5291
   13MOL0     C 1666   1.195   4.220   5.304 -0.5340  0.4258  0.2446
   13MOL0     C 1667   1.332   4.262   5.345  0.3094  0.0539  0.4344
   13MOL0     C 1668   1.418   4.144   5.380 -1.8871  1.0588  0.1905
   13MOL0     C 1669   1.443   4.041   5.263 -0.4475 -0.2824 -0.4601
   13MOL0     C 1670   1.511   3.918   5.306 -0.6627  0.3854  0.3152
   13MOL0     C 1671   1.548   3.833   5.175 -0.5168  0.5986  0.4236
   13MOL0     C 1672   1.634   3.712   5.196  0.0967 -0.0083  0.0992
   13MOL0     N 1673   1.767   3.734   5.253 -0.3392 -0.4662 -0.2570
   13MOL0     C 1674   1.860   3.827   5.211  0.4000 -0.3436  0.4424
   13MOL0     C 1675   1.970   3.785   5.277 -0.0397 -1.2499 -0.3662
   13MOL0     C 1676   2.112   3.849   5.256  0.6122 -0.0994 -0.5995
   13MOL0     C 1677   2.172   3.914   5.382 -0.4182  0.2744 -0.1774
   13MOL0     C 1678   2.133   4.060   5.412  0.3903  0.4293  0.4291
   13MOL0     C 1679   2.214   4.137   5.517 -0.4683 -0.1999 -0.1526
   13MOL0     O 1680   2.347   4.090   5.529  0.4414 -0.6670  0.1498
   13MOL0     C 1681   2.427   4.148   5.619  0.0243 -0.2787  0.2415
   13MOL0     C 1682   2.455   4.275   5.629  0.4712  0.7561  0.6831
   13MOL0     C 1683   2.550   4.329   5.725 -0.0936 -0.2474  0.5046
   13MOL0     C 1684   2.552   4.474   5.703 -0.3639 -0.4482  0.1899
   13MOL0     C 1685   2.622   4.242   5.814  0.1834  1.0293  0.5295
   13MOL0     C 1686   2.727   4.293   5.904  0.9916 -1.1026 -0.0563
   13MOL0     O 1687   2.771   4.200   5.994  0.3055  0.3170 -0.9136
   13MOL0     C 1688   2.846   4.265   6.090  0.0433 -0.4072 -1.4003
   13MOL0     C 1689   2.789   4.343   6.186 -0.3426 -0.0434 -0.1628
   13MOL0     C 1690   2.857   4.401   6.296  0.2893 -0.8479  0.1061
   13MOL0     C 1691   2.993   4.383   6.299  0.1729  0.4126  0.4734
   13MOL0     O 1692   3.065   4.446   6.400 -0.6474  0.3783  0.4507
   13MOL0     C 1693   3.011   4.572   6.453  0.5233  0.2732  0.1779
   13MOL0     C 1694   3.094   4.643   6.552  0.1366  0.0487 -0.1944
   13MOL0     C 1695   3.237   4.652   6.495  0.1804 -0.2235 -0.8343
   13MOL0     C 1696   3.323   4.722   6.600  0.2442  0.5360  0.9447
   13MOL0     C 1697   3.456   4.734   6.536 -0.3500  0.2256  0.4674
   13MOL0     C 1698   3.551   4.829   6.615  0.7763  0.8907 -0.7565
   13MOL0     C 1699   3.669   4.875   6.535  0.6887  0.3115  0.5089
   13MOL0     C 1700   3.750   4.971   6.618 -0.3570  0.4872  0.3317
   13MOL0    Cl 1701   3.915   4.994   6.536  0.4657  0.0605 -0.4754
   13MOL0     C 1702   3.055   4.298   6.201  0.3392 -0.5973  0.0896
   13MOL0     C 1703   2.984   4.242   6.099 -0.4131 -0.1738 -0.0433
   13MOL0     O 1704   2.759   4.412   5.896 -0.5273 -0.6602 -0.0794
   13MOL0     C 1705   2.586   4.109   5.802 -0.2211  0.6767  0.4107
   13MOL0     C 1706   2.481   4.060   5.714  0.1689 -0.0790  0.2061
   13MOL0     N 1707   1.945   3.674   5.355  0.8456 -0.4266 -0.0864
   13MOL0     N 1708   1.822   3.645   5.344 -0.9649 -0.2415 -0.2332
   13MOL0     C 1709   0.899   4.583   5.244 -0.6787 -0.5041  0.7475
   13MOL0     C 1710   0.775   4.642   5.266  0.4325  0.0876 -0.4395
   13MOL0     C 1711   0.429   4.861   5.434  0.2580 -0.6881  0.7843
   13MOL0     C 1712   0.326   4.776   5.400 -0.0432  0.0592 -0.0456
   13MOL0     C 1713   0.191   4.823   5.383 -0.1412 -1.2902 -0.1392
   13MOL0     C 1714   0.170   4.955   5.409  0.4914 -0.5975  0.1489
   13MOL0     O 1715   0.044   5.004   5.398  0.5585 -0.1689  1.1120
   13MOL0     C 1716   0.018   5.137   5.347 -0.0552 -0.4362 -0.3948
   13MOL0     C 1717  -0.016   5.234   5.472 -0.0777  0.0289  1.0775
   13MOL0     C 1718  -0.154   5.217   5.527  0.2243  0.4615 -1.3889
   13MOL0     C 1719  -0.259   5.254   5.423  0.5529  0.0106 -0.1967
   13MOL0     C 1720  -0.389   5.267   5.493  0.3484  0.7850 -0.6260
   13MOL0     C 1721  -0.486   5.291   5.558  0.2830  0.0880 -0.0288
   13MOL0     C 1722   0.266   5.043   5.455 -0.5369  1.1990 -0.5914
   13MOL0     C 1723   0.398   4.994   5.475 -0.3786  0.0905  0.4986
   13MOL0     C 1724   0.492   5.092   5.548  0.4394 -0.2869  0.7971
   13MOL0     H 1725   0.704   4.491   5.558  1.6996 -0.7477  0.6332
   13MOL0     H 1726   0.921   4.406   5.526  4.8694  2.2229 -1.2998
   13MOL0     H 1727   0.988   4.243   5.357  0.7713 -2.2748  0.9822
   13MOL0     H 1728   1.104   4.294   5.482  1.5419  1.6168  0.3195
   13MOL0     H 1729   1.181   4.113   5.321  1.1352 -0.0059 -0.8309
   13MOL0     H 1730   1.178   4.242   5.198  2.3018  0.6099 -0.2589
   13MOL0     H 1731   1.377   4.315   5.260  0.1653 -0.0531  0.2902
   13MOL0     H 1732   1.328   4.337   5.424  1.0925  0.9794 -0.3683
   13MOL0     H 1733   1.516   4.172   5.419 -1.1285 -2.2564  0.9720
   13MOL0     H 1734   1.381   4.085   5.464 -2.2400 -0.1171 -0.7598
   13MOL0     H 1735   1.505   4.100   5.194 -1.1220  0.5974 -0.3412
   13MOL0     H 1736   1.347   4.018   5.216 -0.7176 -0.0959 -0.0041
   13MOL0     H 1737   1.601   3.928   5.368  0.3046 -2.6257 -0.3975
   13MOL0     H 1738   1.441   3.862   5.369  1.6173 -1.6917  1.1653
   13MOL0     H 1739   1.606   3.906   5.119  0.0198  0.7774  1.1913
   13MOL0     H 1740   1.460   3.803   5.118 -0.5352  0.8993  0.2940
   13MOL0     H 1741   1.588   3.641   5.265 -2.5452 -1.7121 -3.0733
   13MOL0     H 1742   1.649   3.650   5.107  0.3737 -1.9607  1.4452
   13MOL0     H 1743   1.837   3.917   5.156 -4.2238 -1.6453 -0.1509
   13MOL0     H 1744   2.096   3.928   5.183 -1.6169  0.9600  0.9241
   13MOL0     H 1745   2.179   3.776   5.209 -1.3183 -0.9841 -2.0960
   13MOL0     H 1746   2.162   3.845   5.466 -2.4117  1.5934  0.7287
   13MOL0     H 1747   2.280   3.923   5.362  0.0088  0.2848  1.8860
   13MOL0     H 1748   2.140   4.130   5.329 -0.0936 -1.7076 -1.5235
   13MOL0     H 1749   2.026   4.065   5.433  0.0549  0.8444 -1.2813
   13MOL0     H 1750   2.229   4.244   5.497 -2.2258  0.8104  3.1260
   13MOL0     H 1751   2.175   4.121   5.618  4.9566  0.3984  2.3915
   13MOL0     H 1752   2.401   4.336   5.557  0.9319 -0.2373 -0.5533
   13MOL0     H 1753   2.451   4.506   5.674  0.1146  0.3856 -0.6031
   13MOL0     H 1754   2.617   4.493   5.618  0.7824  0.4979  1.2493
   13MOL0     H 1755   2.580   4.531   5.792 -1.9233  0.9027 -0.1386
   13MOL0     H 1756   2.683   4.366   6.179 -0.0658  0.8264 -1.8532
   13MOL0     H 1757   2.806   4.458   6.373  0.6766  1.3318 -1.1677
   13MOL0     H 1758   3.017   4.640   6.368  1.5084  0.1526  0.1298
   13MOL0     H 1759   2.911   4.558   6.494 -0.7862 -1.2716 -3.1659
   13MOL0     H 1760   3.047   4.741   6.560 -4.5153 -1.7924 -1.4904
   13MOL0     H 1761   3.091   4.595   6.650 -0.7920  0.6903  0.1109
   13MOL0     H 1762   3.231   4.719   6.409 -0.3970  0.0022 -0.6260
   13MOL0     H 1763   3.285   4.558   6.468  0.6374 -0.0428 -0.6619
   13MOL0     H 1764   3.341   4.657   6.687  1.5732 -1.6676 -0.8670
   13MOL0     H 1765   3.278   4.812   6.643 -0.1397  0.5610  0.4977
   13MOL0     H 1766   3.506   4.639   6.518  2.1089  1.5166  0.0996
   13MOL0     H 1767   3.443   4.781   6.438 -2.5912  1.0257  1.0726
   13MOL0     H 1768   3.577   4.776   6.706 -2.3704 -0.4482 -0.5079
   13MOL0     H 1769   3.494   4.919   6.640  1.9107  2.3666 -3.0439
   13MOL0     H 1770   3.630   4.939   6.456 -0.4830 -1.7010 -0.6268
   13MOL0     H 1771   3.730   4.795   6.492  3.6110  2.0092  1.1989
   13MOL0     H 1772   3.763   4.928   6.717  0.4269 -2.2469 -0.8609
   13MOL0     H 1773   3.719   5.075   6.633 -0.8917  0.2044  1.2573
   13MOL0     H 1774   3.163   4.289   6.199  0.3794 -0.0368 -0.9120
   13MOL0     H 1775   3.032   4.182   6.023  1.0207  0.8729 -0.0190
   13MOL0     H 1776   2.627   4.027   5.861 -0.2589  0.5205  0.2197
   13MOL0     H 1777   2.442   3.959   5.720  3.4769 -1.8575 -3.5388
   13MOL0     H 1778   0.951   4.597   5.149 -0.3073  0.3155  1.0608
   13MOL0     H 1779   0.728   4.716   5.202 -0.4189 -1.6082 -1.8646
   13MOL0     H 1780   0.332   4.669   5.382  1.4788 -0.1063  1.2879
   13MOL0     H 1781   0.105   4.762   5.354  0.2476 -1.9603  0.0935
   13MOL0     H 1782   0.110   5.175   5.301  0.9175 -0.6715  1.2671
   13MOL0     H 1783  -0.059   5.150   5.270  1.0635 -0.4303 -1.5491
   13MOL0     H 1784  -0.016   5.337   5.433  0.0354 -0.9257 -1.6283
   13MOL0     H 1785   0.058   5.223   5.551 -0.7656  0.1977  1.7555
   13MOL0     H 1786  -0.185   5.117   5.560 -2.0375  0.5475 -2.9741
   13MOL0     H 1787  -0.159   5.272   5.621  1.5446 -0.4486 -0.7636
   13MOL0     H 1788  -0.260   5.189   5.335  0.3104  3.2453 -2.7610
   13MOL0     H 1789  -0.250   5.353   5.379 -1.8305  0.9927  1.3133
   13MOL0     H 1790  -0.569   5.305   5.625  2.0538 -0.2176  2.3601
   13MOL0     H 1791   0.242   5.144   5.485  0.7181  0.5010  3.2634
   13MOL0     H 1792   0.437   5.178   5.586 -1.8042 -1.0536 -0.5042
   13MOL0     H 1793   0.546   5.056   5.636 -1.0436 -3.1436  0.6692
   13MOL0     H 1794   0.575   5.108   5.479  0.9701 -4.0560  0.3215
   14MOL0     O 1795   2.085   4.274   7.142  0.2302  0.0151  0.5880
   14MOL0     C 1796   2.045   4.163   7.101  0.3359 -0.2920 -0.8704
   14MOL0     O 1797   2.062   4.047   7.166  0.4932  0.6701  0.1850
   14MOL0     C 1798   2.132   4.054   7.281  0.1355 -0.7269  0.1552
   14MOL0     C 1799   2.261   4.000   7.288 -0.8551 -0.1822  0.4444
   14MOL0     C 1800   2.337   4.006   7.406 -0.1921  0.3412  0.0915
   14MOL0     C 1801   2.279   4.062   7.521  0.0279  0.1511  0.1825
   14MOL0     O 1802   2.340   4.076   7.643  0.1849 -0.4727 -0.0319
   14MOL0     C 1803   2.485   4.082   7.638  0.5280 -0.7723  0.2185
   14MOL0     C 1804   2.549   4.103   7.776 -0.3170 -0.0875 -0.3286
   14MOL0     C 1805   2.701   4.112   7.756  0.6018 -0.1581  0.7751
   14MOL0     C 1806   2.768   4.152   7.892 -0.5092 -0.7565  0.4988
   14MOL0     C 1807   2.910   4.223   7.880  0.3329 -1.0257  1.0415
   14MOL0     C 1808   2.955   4.298   8.004  0.3679  0.5607  0.2248
   14MOL0     C 1809   3.106   4.344   7.992 -0.4468  1.2917 -0.5708
   14MOL0     C 1810   3.157   4.422   8.118  1.1920  0.3347 -0.6581
   14MOL0     N 1811   3.298   4.376   8.157  0.3908 -0.3680 -0.3860
   14MOL0     C 1812   3.409   4.459   8.148 -0.0100  0.4351  0.7016
   14MOL0     C 1813   3.514   4.388   8.200  0.6768 -0.5010  0.2866
   14MOL0     C 1814   3.656   4.436   8.216 -0.3763 -0.3740 -0.0160
   14MOL0     C 1815   3.754   4.372   8.113 -0.0338  0.6996 -0.6970
   14MOL0     C 1816   3.786   4.475   8.000  0.7910  0.9641 -0.4444
   14MOL0     C 1817   3.877   4.411   7.898  0.1530  0.3068  0.4332
   14MOL0     O 1818   3.996   4.353   7.957 -0.0049  0.0526 -0.2497
   14MOL0     C 1819   4.099   4.434   7.994 -0.4911  0.7075  0.1045
   14MOL0     C 1820   4.098   4.573   7.989 -0.1891 -0.5423  0.6103
   14MOL0     C 1821   4.219   4.645   8.018  0.7757 -0.5266  0.0908
   14MOL0     C 1822   4.212   4.792   7.984  0.6572 -0.1745  0.3282
   14MOL0     C 1823   4.336   4.581   8.067 -0.6667 -0.2498 -0.2513
   14MOL0     C 1824   4.472   4.659   8.104  0.3875  0.2955 -0.4621
   14MOL0     O 1825   4.503   4.783   8.039  0.0806  0.0109 -0.2343
   14MOL0     C 1826   4.625   4.840   8.079  0.5115  0.6294  0.7377
   14MOL0     C 1827   4.745   4.775   8.048 -0.6763  0.6811 -0.8184
   14MOL0     C 1828   4.869   4.830   8.096 -0.0335  0.2787 -0.5456
   14MOL0     C 1829   4.875   4.953   8.160  0.3306  0.8065  0.5263
   14MOL0     O 1830   4.989   5.035   8.187 -1.0715 -0.2558 -0.2340
   14MOL0     C 1831   5.101   4.948   8.219 -0.9352  0.5205  0.7940
   14MOL0     C 1832   5.183   4.925   8.088  0.3019  0.7467  0.2706
   14MOL0     C 1833   5.221   5.044   8.000 -0.5716 -1.0027  0.1235
   14MOL0     C 1834   5.350   5.104   8.055  0.4110 -0.1872  0.1684
   14MOL0     C 1835   5.376   5.236   7.979 -0.4200  0.1109  0.8372
   14MOL0     C 1836   5.517   5.284   8.033  0.1290 -0.3610 -0.6134
   14MOL0     C 1837   5.560   5.415   7.961 -0.1226  0.4120 -0.1266
   14MOL0     C 1838   5.713   5.438   7.960 -0.1686 -0.5142  0.6104
   14MOL0    Cl 1839   5.783   5.599   7.928  0.2769  0.0714 -0.1674
   14MOL0     C 1840   4.751   5.015   8.182 -0.1576 -0.5106  0.3813
   14MOL0     C 1841   4.632   4.960   8.139  0.0387  0.3442  1.5790
   14MOL0     O 1842   4.545   4.594   8.172  0.5546  0.0820 -0.2827
   14MOL0     C 1843   4.333   4.443   8.079 -0.1842 -0.1894  0.1995
   14MOL0     C 1844   4.215   4.372   8.041  0.3699 -0.4250  0.4130
   14MOL0     N 1845   3.468   4.263   8.236  0.1880  0.3945 -0.4392
   14MOL0     N 1846   3.344   4.255   8.203 -0.7419 -0.9265  0.4706
   14MOL0     C 1847   2.150   4.118   7.517  0.1049 -0.4913 -0.2149
   14MOL0     C 1848   2.077   4.116   7.400  0.8038 -0.4708  0.5132
   14MOL0     C 1849   1.957   4.170   6.981  0.3253 -0.7534  0.6134
   14MOL0     C 1850   1.890   4.298   6.965 -0.0440 -1.0689 -0.7545
   14MOL0     C 1851   1.801   4.323   6.854 -0.1822 -0.0075 -0.8259
   14MOL0     C 1852   1.784   4.227   6.749  0.3937  0.0329 -0.6299
   14MOL0     O 1853   1.714   4.276   6.638  0.2209 -0.1000 -0.7062
   14MOL0     C 1854   1.668   4.189   6.543  0.2707  0.9041  0.8547
   14MOL0     C 1855   1.584   4.078   6.589 -0.0558 -0.0330 -0.6213
   14MOL0     C 1856   1.582   3.960   6.500 -0.1892  1.0520  0.8741
   14MOL0     C 1857   1.540   3.993   6.356 -0.5046  0.0443  0.7490
   14MOL0     C 1858   1.574   3.883   6.263 -0.1471  0.4495 -0.6407
   14MOL0     C 1859   1.610   3.742   6.139  0.9259  0.0716 -0.4439
   14MOL0     C 1860   1.851   4.106   6.760 -0.8786  0.0635 -0.6812
   14MOL0     C 1861   1.934   4.075   6.875 -0.2627 -0.0069  0.3727
   14MOL0     C 1862   2.003   3.937   6.881  0.2601 -0.6476  0.3882
   14MOL0     H 1863   2.300   3.944   7.204  0.2724 -1.6778  1.8950
   14MOL0     H 1864   2.436   3.962   7.402 -0.9477 -1.3562 -0.5438
   14MOL0     H 1865   2.518   4.157   7.565  1.4130 -1.3958 -0.0435
   14MOL0     H 1866   2.517   3.988   7.593 -0.7245 -0.7542 -0.7601
   14MOL0     H 1867   2.496   4.187   7.821 -3.7271 -0.1719 -3.6904
   14MOL0     H 1868   2.527   4.013   7.834  3.0767 -0.6925  0.2607
   14MOL0     H 1869   2.736   4.016   7.717  2.7826  1.5031 -1.6439
   14MOL0     H 1870   2.714   4.184   7.675 -5.1536  0.3602 -0.1065
   14MOL0     H 1871   2.692   4.207   7.949  0.9358  0.7046  1.1120
   14MOL0     H 1872   2.792   4.066   7.954  1.1309  1.5476  3.3271
   14MOL0     H 1873   2.909   4.304   7.806  0.1909  1.0943  3.2626
   14MOL0     H 1874   2.987   4.149   7.859  0.9507  0.2690 -1.7295
   14MOL0     H 1875   2.876   4.374   8.003 -1.1305 -0.8818  1.3825
   14MOL0     H 1876   2.939   4.232   8.089 -0.7645  0.1740 -0.2618
   14MOL0     H 1877   3.108   4.423   7.916  0.4893  2.0768  0.2524
   14MOL0     H 1878   3.176   4.263   7.966  0.7273  1.2852  2.3114
   14MOL0     H 1879   3.133   4.528   8.104 -1.2153 -0.1718 -0.7627
   14MOL0     H 1880   3.091   4.393   8.201 -0.0778 -0.3604 -1.8638
   14MOL0     H 1881   3.424   4.556   8.100  1.6000 -0.5345 -0.8748
   14MOL0     H 1882   3.679   4.400   8.316 -0.0352 -4.9065 -1.4989
   14MOL0     H 1883   3.668   4.545   8.214 -1.2853 -0.2153  1.5313
   14MOL0     H 1884   3.840   4.340   8.173 -0.8781  1.9612  1.3360
   14MOL0     H 1885   3.697   4.289   8.072  1.2230 -0.2508 -0.5591
   14MOL0     H 1886   3.690   4.509   7.959  1.0040  1.5128 -0.4936
   14MOL0     H 1887   3.831   4.570   8.032 -1.6675  2.2127 -0.4089
   14MOL0     H 1888   3.829   4.329   7.844  3.1588 -1.9433  0.9477
   14MOL0     H 1889   3.915   4.486   7.827 -2.5281  3.4096  2.0103
   14MOL0     H 1890   4.016   4.637   7.959  1.9925  3.4204  2.4045
   14MOL0     H 1891   4.107   4.822   7.989  1.3042  2.7082 -1.3455
   14MOL0     H 1892   4.254   4.807   7.884 -2.0645  0.3563 -0.8157
   14MOL0     H 1893   4.260   4.856   8.059 -0.3329 -0.7783  1.5171
   14MOL0     H 1894   4.750   4.682   7.993  0.7927  0.6647 -0.7058
   14MOL0     H 1895   4.955   4.769   8.071  1.2780  0.9023  2.0880
   14MOL0     H 1896   5.175   4.975   8.295  1.7614 -0.8267 -1.1615
   14MOL0     H 1897   5.075   4.849   8.257  3.0247 -0.4502  1.4508
   14MOL0     H 1898   5.270   4.868   8.122 -0.7504 -1.0397  0.0802
   14MOL0     H 1899   5.127   4.854   8.026 -0.6125  0.7669  1.0439
   14MOL0     H 1900   5.135   5.111   7.994 -0.2677 -0.3580  2.0163
   14MOL0     H 1901   5.234   5.020   7.895 -0.6114  3.2396 -1.0407
   14MOL0     H 1902   5.430   5.034   8.028  0.1184 -0.0397 -1.1046
   14MOL0     H 1903   5.337   5.113   8.163 -1.0077 -0.0803  0.0059
   14MOL0     H 1904   5.378   5.206   7.874 -1.0848 -0.7892  1.0668
   14MOL0     H 1905   5.289   5.300   7.995 -2.3580 -2.2849  0.4934
   14MOL0     H 1906   5.589   5.203   8.042  3.2674  2.3670  1.2110
   14MOL0     H 1907   5.499   5.311   8.137 -1.7965  2.5239 -1.5511
   14MOL0     H 1908   5.508   5.504   7.997 -2.6763 -0.6276 -1.0253
   14MOL0     H 1909   5.539   5.413   7.853 -1.0403  0.0003  0.0533
   14MOL0     H 1910   5.753   5.356   7.899  1.2179  0.7409 -0.2251
   14MOL0     H 1911   5.754   5.423   8.060  6.3020  2.9384 -0.9855
   14MOL0     H 1912   4.768   5.115   8.221  1.8146 -0.6357 -0.0372
   14MOL0     H 1913   4.554   5.034   8.154  1.4103  1.9989  0.9975
   14MOL0     H 1914   4.413   4.381   8.118 -1.7255 -2.1385  0.4692
   14MOL0     H 1915   4.226   4.264   8.039 -0.0811 -0.5453 -3.2182
   14MOL0     H 1916   2.107   4.153   7.610 -0.9247 -1.7178 -0.1930
   14MOL0     H 1917   1.977   4.157   7.388  0.5202  0.1025  3.7643
   14MOL0     H 1918   1.897   4.382   7.033  0.0087 -0.5897 -1.3396
   14MOL0     H 1919   1.748   4.417   6.839 -2.3023 -0.7822  1.1631
   14MOL0     H 1920   1.612   4.248   6.470  1.0048  0.1781 -0.3507
   14MOL0     H 1921   1.753   4.143   6.491 -1.1025 -1.6005  0.6589
   14MOL0     H 1922   1.482   4.114   6.602 -0.5364 -1.7019  0.5965
   14MOL0     H 1923   1.605   4.040   6.689 -0.5457  0.4394 -0.3336
   14MOL0     H 1924   1.681   3.913   6.494  0.2732  2.1471 -2.8678
   14MOL0     H 1925   1.520   3.876   6.531  3.0423 -1.6692  0.5326
   14MOL0     H 1926   1.587   4.088   6.326  0.9684 -0.2486  1.9760
   14MOL0     H 1927   1.432   4.004   6.345 -0.7215 -3.1046 -1.5301
   14MOL0     H 1928   1.651   3.654   6.092 -0.8086 -1.1572  0.2293
   14MOL0     H 1929   1.831   4.037   6.679 -1.7368 -2.1374  1.2807
   14MOL0     H 1930   1.940   3.861   6.926  2.0036 -2.4120 -0.0381
   14MOL0     H 1931   2.023   3.909   6.777 -2.9555 -0.9984 -0.2202
   14MOL0     H 1932   2.093   3.946   6.943 -0.3597 -1.5496  1.4309
   15MOL0     O 1933   6.241   6.465   6.891 -0.7835  0.2784 -0.2011
   15MOL0     C 1934   6.199   6.366   6.948 -0.0310  0.2566 -0.3183
   15MOL0     O 1935   6.238   6.324   7.077 -0.0075  0.2923 -0.4616
   15MOL0     C 1936   6.341   6.399   7.124  0.3835 -0.4789  0.3470
   15MOL0     C 1937   6.328   6.533   7.166  0.5464 -0.2178 -0.4804
   15MOL0     C 1938   6.431   6.611   7.225 -0.5731  0.1567  0.1123
   15MOL0     C 1939   6.558   6.546   7.244  0.4554  0.2050 -0.6743
   15MOL0     O 1940   6.653   6.628   7.303 -0.4487 -0.6519 -0.4141
   15MOL0     C 1941   6.789   6.578   7.304  0.6674  0.1614  0.0944
   15MOL0     C 1942   6.893   6.692   7.337 -0.5119 -0.3951  0.2926
   15MOL0     C 1943   6.885   6.740   7.487 -0.7628  0.6067 -0.7830
   15MOL0     C 1944   6.999   6.835   7.518  0.9152 -0.9603  0.4045
   15MOL0     C 1945   6.963   6.911   7.643  0.1225 -0.1493  0.5866
   15MOL0     C 1946   7.080   7.007   7.674  0.0690  0.2540 -0.2639
   15MOL0     C 1947   7.048   7.094   7.794  0.4261 -0.5209  0.1021
   15MOL0     C 1948   7.099   7.040   7.924 -0.7190  0.1319 -0.2566
   15MOL0     N 1949   7.240   7.089   7.932 -1.0882  0.6226 -0.9816
   15MOL0     C 1950   7.281   7.215   7.957  0.0902  0.8699  0.2287
   15MOL0     C 1951   7.414   7.224   7.918  0.3850  0.4638  0.2307
   15MOL0     C 1952   7.501   7.352   7.908  0.0671  0.5842  0.1751
   15MOL0     C 1953   7.593   7.379   8.024 -0.4582 -0.0167 -0.5039
   15MOL0     C 1954   7.521   7.472   8.123  0.3374  0.5599 -0.4187
   15MOL0     C 1955   7.588   7.480   8.257  0.3741 -0.0419 -0.0115
   15MOL0     O 1956   7.704   7.554   8.254  0.0892 -0.0586 -0.4113
   15MOL0     C 1957   7.803   7.530   8.346  0.3766  0.4109 -0.4923
   15MOL0     C 1958   7.911   7.613   8.355 -0.2031 -0.1685 -0.2026
   15MOL0     C 1959   8.013   7.600   8.446 -0.3568 -0.1386  0.5536
   15MOL0     C 1960   8.116   7.714   8.447  0.0008 -0.0045 -0.7217
   15MOL0     C 1961   8.016   7.487   8.537  0.1151 -0.0033  1.1770
   15MOL0     C 1962   8.125   7.446   8.626 -0.5618  0.3556 -0.2563
   15MOL0     O 1963   8.093   7.346   8.720 -1.1045  0.4328 -0.2782
   15MOL0     C 1964   8.177   7.297   8.817 -0.1345  1.1096 -0.0299
   15MOL0     C 1965   8.145   7.172   8.869  1.0546 -0.1399 -1.1177
   15MOL0     C 1966   8.214   7.110   8.977  0.2388 -0.1752 -0.3471
   15MOL0     C 1967   8.341   7.157   9.020  0.4460  0.6495 -0.2072
   15MOL0     O 1968   8.427   7.078   9.098  0.0480  0.1497  0.6695
   15MOL0     C 1969   8.364   6.958   9.157  0.2159 -0.8352  0.1328
   15MOL0     C 1970   8.454   6.886   9.242 -0.2107 -0.6449 -0.6720
   15MOL0     C 1971   8.414   6.744   9.269  0.3325 -0.3795 -0.0233
   15MOL0     C 1972   8.507   6.689   9.376  0.2370  0.5794 -0.4636
   15MOL0     C 1973   8.464   6.557   9.428  0.1996  0.0775 -0.1930
   15MOL0     C 1974   8.444   6.461   9.309 -0.8163  0.7767 -1.2121
   15MOL0     C 1975   8.484   6.321   9.348  0.1231  0.4402  0.1244
   15MOL0     C 1976   8.469   6.229   9.231 -0.0424  0.0615 -0.0000
   15MOL0    Cl 1977   8.301   6.178   9.217  0.3513 -0.9284 -0.3309
   15MOL0     C 1978   8.383   7.275   8.964  0.3983 -0.0777 -0.4929
   15MOL0     C 1979   8.305   7.348   8.866  0.4309  0.2464 -0.0662
   15MOL0     O 1980   8.228   7.509   8.613 -1.1431 -0.5973 -0.4484
   15MOL0     C 1981   7.898   7.408   8.534 -0.3297 -0.2370  0.6996
   15MOL0     C 1982   7.796   7.424   8.444 -0.1740 -1.1891 -0.8463
   15MOL0     N 1983   7.447   7.100   7.872 -0.0598 -0.0425  1.4426
   15MOL0     N 1984   7.348   7.029   7.882  0.4393  0.4132 -0.0443
   15MOL0     C 1985   6.578   6.411   7.204  0.1623  0.4950  0.1080
   15MOL0     C 1986   6.468   6.339   7.141 -0.7005  0.1126  0.3955
   15MOL0     C 1987   6.110   6.286   6.864 -0.5626  0.4607  0.6340
   15MOL0     C 1988   5.979   6.342   6.854  0.2109  0.5112 -0.1358
   15MOL0     C 1989   5.885   6.258   6.783 -0.1101  0.7405 -0.6205
   15MOL0     C 1990   5.914   6.139   6.724  0.1075  0.2537  1.0446
   15MOL0     O 1991   5.811   6.074   6.662  0.6277  0.6190  0.3448
   15MOL0     C 1992   5.838   5.954   6.591 -0.0791  0.4551 -0.1227
   15MOL0     C 1993   5.834   5.822   6.665  0.7945 -0.4478  0.6285
   15MOL0     C 1994   5.842   5.704   6.573 -0.2891  0.9257 -0.4179
   15MOL0     C 1995   5.698   5.652   6.543  0.1539  0.3858  0.5776
   15MOL0     C 1996   5.653   5.699   6.416  1.1617 -0.8901 -0.1972
   15MOL0     C 1997   5.599   5.726   6.314 -0.3305 -0.2022  0.0830
   15MOL0     C 1998   6.048   6.098   6.732  0.7112 -0.2873 -0.0828
   15MOL0     C 1999   6.151   6.171   6.795  0.7173 -0.7010 -0.3200
   15MOL0     C 2000   6.290   6.137   6.763 -0.0740 -0.3479  0.3372
   15MOL0     H 2001   6.230   6.580   7.162 -0.3652 -2.0824 -1.1144
   15MOL0     H 2002   6.418   6.715   7.253  4.6843  1.6780 -1.9733
   15MOL0     H 2003   6.825   6.539   7.208  1.9748 -0.0375  0.6335
   15MOL0     H 2004   6.805   6.505   7.384  0.1359  1.9123  1.8791
   15MOL0     H 2005   6.986   6.650   7.298  0.1787  0.3635  1.0971
   15MOL0     H 2006   6.884   6.782   7.276 -2.0249 -0.9777 -0.3964
   15MOL0     H 2007   6.792   6.796   7.499 -0.6366  0.8192 -0.7761
   15MOL0     H 2008   6.888   6.656   7.557 -0.6235  2.5630  1.6845
   15MOL0     H 2009   7.095   6.787   7.540  0.1067 -1.4339  3.2670
   15MOL0     H 2010   6.997   6.908   7.436  1.6685 -0.2073  1.0437
   15MOL0     H 2011   6.951   6.833   7.719 -2.0448 -1.9867 -1.4304
   15MOL0     H 2012   6.865   6.959   7.631 -0.5973 -1.4555  0.8885
   15MOL0     H 2013   7.171   6.948   7.691  0.5493  0.6335 -1.4300
   15MOL0     H 2014   7.092   7.063   7.580  0.2380 -1.2448 -1.1578
   15MOL0     H 2015   6.939   7.094   7.807  0.3569 -2.1124 -0.3222
   15MOL0     H 2016   7.074   7.200   7.788  0.5127 -0.4969  0.8362
   15MOL0     H 2017   7.036   7.089   7.998 -2.3258 -0.0573 -1.4391
   15MOL0     H 2018   7.094   6.931   7.934 -1.2882  0.1317 -0.4723
   15MOL0     H 2019   7.226   7.300   7.995  3.0235  0.9191  5.1046
   15MOL0     H 2020   7.453   7.447   7.885  4.7676  2.6948 -2.0745
   15MOL0     H 2021   7.568   7.332   7.824 -0.8677  2.4708 -1.0823
   15MOL0     H 2022   7.627   7.292   8.081 -0.5702  1.7331  2.4078
   15MOL0     H 2023   7.680   7.429   7.982 -0.0174 -3.1039 -3.7976
   15MOL0     H 2024   7.502   7.574   8.089 -0.9296 -0.0575 -1.6456
   15MOL0     H 2025   7.426   7.428   8.153  0.4462  1.9593  2.3213
   15MOL0     H 2026   7.526   7.540   8.324 -0.5295 -0.2176 -0.6798
   15MOL0     H 2027   7.600   7.373   8.280 -1.2610 -0.5995 -1.5975
   15MOL0     H 2028   7.895   7.704   8.297 -1.0277 -0.0055  0.2509
   15MOL0     H 2029   8.066   7.797   8.397 -1.7874 -1.0601 -0.7403
   15MOL0     H 2030   8.211   7.684   8.402  0.6962 -1.2306  1.4248
   15MOL0     H 2031   8.144   7.744   8.548  1.6864  0.5362 -1.3061
   15MOL0     H 2032   8.054   7.127   8.831  0.5231  1.0632 -1.3151
   15MOL0     H 2033   8.165   7.016   9.002 -2.4558  0.4163 -2.8720
   15MOL0     H 2034   8.276   6.994   9.211 -0.2125 -0.2635 -0.9201
   15MOL0     H 2035   8.321   6.892   9.081 -0.0270 -1.4909  0.8328
   15MOL0     H 2036   8.560   6.888   9.213 -0.4245  1.4931 -1.4739
   15MOL0     H 2037   8.451   6.939   9.337 -2.6502  3.1724 -2.6427
   15MOL0     H 2038   8.415   6.695   9.172 -0.1789  1.9296 -1.2687
   15MOL0     H 2039   8.317   6.740   9.318  1.4959 -1.2372  2.3983
   15MOL0     H 2040   8.515   6.760   9.459  1.3540  1.9840 -1.6853
   15MOL0     H 2041   8.607   6.671   9.335 -0.9012 -1.5410 -2.5110
   15MOL0     H 2042   8.528   6.533   9.514  0.4827 -3.1265 -1.1574
   15MOL0     H 2043   8.371   6.559   9.485 -0.5450 -1.2439 -1.3005
   15MOL0     H 2044   8.516   6.489   9.231  0.2588  1.7534  0.0766
   15MOL0     H 2045   8.339   6.457   9.280 -0.9865 -1.3387 -0.4673
   15MOL0     H 2046   8.427   6.296   9.438  0.7762 -2.6343 -0.2191
   15MOL0     H 2047   8.590   6.324   9.375  1.6020 -1.0883 -4.5795
   15MOL0     H 2048   8.521   6.133   9.243 -0.8115 -0.2361  1.1416
   15MOL0     H 2049   8.493   6.264   9.131 -2.5165 -0.9031 -1.0129
   15MOL0     H 2050   8.476   7.316   9.002  1.4156 -2.9661  0.4036
   15MOL0     H 2051   8.342   7.432   8.807 -0.7236 -0.8766 -2.5265
   15MOL0     H 2052   7.875   7.327   8.602 -1.2188 -0.1218  0.5559
   15MOL0     H 2053   7.711   7.357   8.455 -1.0247 -0.0019  0.1746
   15MOL0     H 2054   6.672   6.357   7.211  0.0173  0.4437  2.2888
   15MOL0     H 2055   6.478   6.235   7.110  0.2951 -0.1741  1.6051
   15MOL0     H 2056   5.947   6.427   6.913  0.7966 -0.5945  1.8473
   15MOL0     H 2057   5.779   6.282   6.788  0.1930  1.9079  0.9845
   15MOL0     H 2058   5.765   5.944   6.511 -0.0638 -0.8122 -0.0007
   15MOL0     H 2059   5.928   5.964   6.530 -0.0143  0.2517 -0.0620
   15MOL0     H 2060   5.745   5.819   6.728  0.0034 -0.9148 -0.4618
   15MOL0     H 2061   5.917   5.826   6.735 -0.0077  0.0965  1.5653
   15MOL0     H 2062   5.890   5.728   6.478 -0.4066  2.6890 -0.0682
   15MOL0     H 2063   5.897   5.632   6.634 -2.1277 -1.2396 -1.1868
   15MOL0     H 2064   5.628   5.677   6.623  1.4130  1.2327  1.4714
   15MOL0     H 2065   5.689   5.543   6.533  0.1169  0.4862 -0.6480
   15MOL0     H 2066   5.553   5.744   6.219 -0.0691  3.5933  0.5226
   15MOL0     H 2067   6.079   6.002   6.692 -1.9513 -1.1574 -0.2293
   15MOL0     H 2068   6.310   6.153   6.657  0.2213 -2.7540 -0.0042
   15MOL0     H 2069   6.365   6.183   6.829  0.0774  0.1001 -0.1389
   15MOL0     H 2070   6.299   6.028   6.761  0.2474 -0.3539  1.4322
   16MOL0     O 2071   8.975   9.084   5.213 -0.1347 -0.1431 -1.2552
   16MOL0     C 2072   9.068   9.162   5.181  0.3835 -0.1813 -0.7901
   16MOL0     O 2073   9.154   9.226   5.258  0.6675 -0.2352 -0.6780
   16MOL0     C 2074   9.192   9.165   5.371 -0.0416 -0.2101 -1.1534
   16MOL0     C 2075   9.251   9.253   5.459  0.5490  0.4978  0.1845
   16MOL0     C 2076   9.298   9.202   5.586  0.6344  0.2472 -0.2801
   16MOL0     C 2077   9.305   9.064   5.615  0.2205 -0.1786 -0.4357
   16MOL0     O 2078   9.355   9.029   5.743 -0.4432 -0.2797  0.1333
   16MOL0     C 2079   9.361   8.893   5.775  1.3100 -0.8208 -0.2549
   16MOL0     C 2080   9.412   8.865   5.920 -0.7257  0.1117 -0.4292
   16MOL0     C 2081   9.310   8.892   6.029  0.0905 -0.9424 -0.9639
   16MOL0     C 2082   9.387   8.869   6.164 -0.4321 -1.0843  0.5245
   16MOL0     C 2083   9.322   8.939   6.275 -0.6786 -0.0556  0.8040
   16MOL0     C 2084   9.356   9.082   6.273 -0.4197 -0.0828  0.4936
   16MOL0     C 2085   9.311   9.143   6.406 -1.0519 -0.8465  0.0761
   16MOL0     C 2086   9.166   9.133   6.423  0.7066  0.1454 -0.4599
   16MOL0     N 2087   9.126   9.199   6.550  0.1348 -0.6817 -0.3982
   16MOL0     C 2088   9.090   9.122   6.666 -0.1027 -0.2130 -0.0297
   16MOL0     C 2089   9.007   9.200   6.737  0.1217 -0.8908 -0.1399
   16MOL0     C 2090   8.955   9.168   6.881  0.2804 -0.4669  0.4837
   16MOL0     C 2091   8.862   9.284   6.933  0.0883 -0.3633 -1.3876
   16MOL0     C 2092   8.829   9.273   7.087  0.1904 -0.3321 -0.0431
   16MOL0     C 2093   8.962   9.303   7.166  0.4864  0.3693 -0.2032
   16MOL0     O 2094   8.928   9.317   7.302  0.2163  0.7365 -0.0386
   16MOL0     C 2095   9.031   9.282   7.385  0.9092  0.7639 -0.3874
   16MOL0     C 2096   8.999   9.226   7.506  0.1816 -0.2657 -0.1069
   16MOL0     C 2097   9.108   9.203   7.598  0.5058 -0.0572 -0.5038
   16MOL0     C 2098   9.070   9.139   7.732 -0.2750  0.5525 -0.5286
   16MOL0     C 2099   9.242   9.239   7.567 -0.7127 -0.0299 -0.7981
   16MOL0     C 2100   9.360   9.220   7.663 -0.4738  0.4388  0.9103
   16MOL0     O 2101   9.474   9.278   7.623 -0.5105  0.2978  0.6926
   16MOL0     C 2102   9.588   9.261   7.693  0.6043  0.1993  0.1696
   16MOL0     C 2103   9.601   9.304   7.819 -0.6546 -0.1419 -1.2600
   16MOL0     C 2104   9.736   9.297   7.872  0.3020 -1.3969  0.1171
   16MOL0     C 2105   9.843   9.261   7.795 -1.2704 -0.5381 -0.1839
   16MOL0     O 2106   9.978   9.278   7.837 -0.3917 -0.0044  0.2256
   16MOL0     C 2107  10.015   9.418   7.844  0.1847 -0.1743  0.1152
   16MOL0     C 2108  10.169   9.443   7.840  0.5382 -0.0639 -0.5664
   16MOL0     C 2109  10.232   9.367   7.960  0.0824 -0.1755 -0.2849
   16MOL0     C 2110  10.392   9.338   7.960  0.3482 -0.3878  0.0927
   16MOL0     C 2111  10.465   9.466   7.937  0.1489 -0.1423  0.7123
   16MOL0     C 2112  10.536   9.464   7.795  0.7270  1.4040  0.0564
   16MOL0     C 2113  10.615   9.591   7.768 -0.8231  0.1320  1.3582
   16MOL0     C 2114  10.609   9.621   7.618 -0.7945  0.6733  0.8553
   16MOL0    Cl 2115  10.725   9.739   7.578  0.1388  0.1394  0.0837
   16MOL0     C 2116   9.826   9.211   7.661  0.2106 -0.7861 -0.0137
   16MOL0     C 2117   9.694   9.214   7.618 -0.4942  0.4266  0.4122
   16MOL0     O 2118   9.356   9.136   7.757  0.1666 -0.6594  0.2924
   16MOL0     C 2119   9.269   9.299   7.441 -0.5416  0.5107 -0.1060
   16MOL0     C 2120   9.160   9.325   7.361 -0.2962  0.5723  0.1132
   16MOL0     N 2121   8.978   9.317   6.667  0.1712 -0.7939 -0.2604
   16MOL0     N 2122   9.059   9.314   6.565  0.2651 -0.6717 -0.0235
   16MOL0     C 2123   9.245   8.982   5.522  0.4825  1.0624 -0.1214
   16MOL0     C 2124   9.203   9.025   5.393  1.3974 -1.0121  0.1593
   16MOL0     C 2125   9.063   9.219   5.039  0.0621  1.1532  0.2191
   16MOL0     C 2126   8.950   9.199   4.962  0.5375 -0.1698 -0.3399
   16MOL0     C 2127   8.928   9.264   4.840  0.7959  0.7044 -0.4167
   16MOL0     C 2128   9.025   9.338   4.779 -0.2119 -0.7668  0.4812
   16MOL0     O 2129   9.025   9.383   4.652 -0.0601 -0.5224  0.5202
   16MOL0     C 2130   8.918   9.483   4.632  0.4253 -1.1391 -0.5219
   16MOL0     C 2131   8.950   9.608   4.709 -0.2405 -0.5897  0.4331
   16MOL0     C 2132   8.876   9.730   4.653  1.3557 -0.1653 -0.1072
   16MOL0     C 2133   8.720   9.719   4.649 -0.2111  0.2836  0.1900
   16MOL0     C 2134   8.661   9.673   4.771  0.3733  0.5281 -0.1026
   16MOL0     C 2135   8.616   9.623   4.871  0.3538  0.5730  0.9064
   16MOL0     C 2136   9.142   9.357   4.849 -1.0244  0.3421 -0.0154
   16MOL0     C 2137   9.160   9.305   4.980 -0.2532  0.9199  1.0780
   16MOL0     C 2138   9.287   9.347   5.042 -0.1432 -0.1613 -0.1167
   16MOL0     H 2139   9.243   9.360   5.441  0.7752 -0.0130 -3.6264
   16MOL0     H 2140   9.348   9.275   5.649  0.5779  0.2787 -0.2729
   16MOL0     H 2141   9.429   8.846   5.703  1.2568  0.8671 -1.4854
   16MOL0     H 2142   9.264   8.842   5.769  1.7853 -1.5918 -2.6317
   16MOL0     H 2143   9.442   8.760   5.921  0.3020  0.3991 -0.1032
   16MOL0     H 2144   9.504   8.922   5.936  1.2454 -2.5614 -1.4013
   16MOL0     H 2145   9.275   8.995   6.026  0.3340 -0.7739  0.9605
   16MOL0     H 2146   9.230   8.820   6.012 -2.0055  1.0713 -0.0679
   16MOL0     H 2147   9.412   8.763   6.170  4.4041 -0.1476  1.0919
   16MOL0     H 2148   9.488   8.910   6.155 -0.4815 -0.5961  2.0084
   16MOL0     H 2149   9.345   8.885   6.367 -1.9554 -0.6398  0.8066
   16MOL0     H 2150   9.214   8.925   6.264 -0.9729  1.4814  1.4747
   16MOL0     H 2151   9.465   9.078   6.279 -0.5239 -1.3753  4.5092
   16MOL0     H 2152   9.313   9.140   6.191  1.2201  5.1503  2.8961
   16MOL0     H 2153   9.350   9.245   6.411  2.6869 -1.9137 -2.7587
   16MOL0     H 2154   9.362   9.094   6.490 -2.8963 -1.1912  1.0328
   16MOL0     H 2155   9.100   9.187   6.354  0.7406 -0.0308 -0.6305
   16MOL0     H 2156   9.132   9.030   6.435  2.9018 -0.5360  0.2766
   16MOL0     H 2157   9.124   9.020   6.683  0.1159 -1.3332 -5.3834
   16MOL0     H 2158   9.049   9.166   6.936  2.3055  0.8391 -2.6198
   16MOL0     H 2159   8.923   9.065   6.897 -3.1523  0.4860  0.5056
   16MOL0     H 2160   8.922   9.376   6.924 -0.6647  0.5984  1.9377
   16MOL0     H 2161   8.773   9.285   6.870 -0.6908  1.0422 -0.3133
   16MOL0     H 2162   8.750   9.346   7.110  1.3180  1.2164 -0.8840
   16MOL0     H 2163   8.789   9.174   7.109 -1.2456  0.2379  0.0529
   16MOL0     H 2164   9.020   9.213   7.141  1.5336  1.7267 -3.2042
   16MOL0     H 2165   9.019   9.391   7.135  0.5787  1.0090  1.6642
   16MOL0     H 2166   8.900   9.193   7.538  0.7974 -4.0258 -1.5245
   16MOL0     H 2167   9.109   9.197   7.816 -1.2218  0.5716 -0.0909
   16MOL0     H 2168   9.106   9.036   7.736  1.4397  1.1121 -0.8560
   16MOL0     H 2169   8.961   9.148   7.745 -0.1071 -1.4150  3.5873
   16MOL0     H 2170   9.534   9.338   7.898  3.3376  1.4626  1.8176
   16MOL0     H 2171   9.748   9.306   7.979 -4.8733 -2.3438  1.0077
   16MOL0     H 2172   9.961   9.473   7.766  0.7870 -0.5803 -0.6098
   16MOL0     H 2173   9.982   9.452   7.942  1.0490 -1.0749  0.7447
   16MOL0     H 2174  10.211   9.416   7.743 -1.3888  4.0706 -2.7979
   16MOL0     H 2175  10.197   9.548   7.855  0.3153 -0.1214  0.3479
   16MOL0     H 2176  10.180   9.271   7.971  2.1746 -1.1965  1.3412
   16MOL0     H 2177  10.198   9.421   8.049 -2.8925 -4.5374  1.5618
   16MOL0     H 2178  10.424   9.263   7.886 -0.6759 -0.6564 -0.0948
   16MOL0     H 2179  10.419   9.303   8.060 -1.7178  1.1933  1.2891
   16MOL0     H 2180  10.408   9.560   7.937  2.2777  1.2468 -0.9816
   16MOL0     H 2181  10.536   9.470   8.020  1.0320  1.9000 -0.0689
   16MOL0     H 2182  10.467   9.444   7.711 -1.6597  0.5821  2.0727
   16MOL0     H 2183  10.599   9.376   7.780  0.8684  1.6341 -0.7330
   16MOL0     H 2184  10.715   9.564   7.803  0.7018 -1.6313 -3.5411
   16MOL0     H 2185  10.575   9.671   7.830  1.0038  0.0777  2.6781
   16MOL0     H 2186  10.507   9.651   7.592 -0.1337  2.0745 -0.2647
   16MOL0     H 2187  10.638   9.529   7.568 -0.0423  0.7803  1.0742
   16MOL0     H 2188   9.901   9.191   7.586 -0.9402 -2.0985 -0.8523
   16MOL0     H 2189   9.661   9.175   7.522 -1.4549  0.7845  0.5890
   16MOL0     H 2190   9.368   9.334   7.411 -0.7032 -0.8972 -2.4921
   16MOL0     H 2191   9.179   9.380   7.270 -0.5150 -0.7017 -0.7391
   16MOL0     H 2192   9.263   8.877   5.547  0.6359  1.0111 -0.4443
   16MOL0     H 2193   9.162   8.959   5.318  2.0326  0.9200 -2.0185
   16MOL0     H 2194   8.867   9.139   4.999 -1.3226  2.3627 -0.1830
   16MOL0     H 2195   8.832   9.239   4.796 -0.6548  1.5413  2.0793
   16MOL0     H 2196   8.920   9.500   4.524  0.5199 -4.3331 -1.1312
   16MOL0     H 2197   8.820   9.443   4.660 -0.3334  1.5847  1.1434
   16MOL0     H 2198   9.059   9.614   4.712 -0.1436 -2.1987  1.9022
   16MOL0     H 2199   8.913   9.597   4.811 -1.1564  0.3519  0.2187
   16MOL0     H 2200   8.912   9.817   4.706  0.7852 -0.2305  0.4013
   16MOL0     H 2201   8.912   9.751   4.552  0.8034  0.7529 -0.1267
   16MOL0     H 2202   8.689   9.646   4.574  0.6586 -2.4262  2.2951
   16MOL0     H 2203   8.673   9.813   4.619 -1.6371 -0.0889  1.1306
   16MOL0     H 2204   8.574   9.575   4.957  0.4110 -0.7171  0.2417
   16MOL0     H 2205   9.229   9.414   4.815 -1.7296  0.0221 -2.4871
   16MOL0     H 2206   9.246   9.395   5.131 -1.4207 -0.1344 -0.7023
   16MOL0     H 2207   9.345   9.260   5.073 -1.8240 -0.9312  1.0144
   16MOL0     H 2208   9.341   9.421   4.982  0.6799 -1.0015 -0.4264
   17MOL0     O 2209  10.457   2.290   9.623  0.5467  0.0851  0.1497
   17MOL0     C 2210  10.473   2.373   9.534  0.6219 -0.0079 -0.3372
   17MOL0     O 2211  10.449   2.505   9.551  0.2709 -0.4184  0.2205
   17MOL0     C 2212  10.389   2.540   9.670 -0.7390 -0.4310  0.3267
   17MOL0     C 2213  10.258   2.509   9.685  0.8253  0.0468 -0.7288
   17MOL0     C 2214  10.197   2.536   9.803 -0.2676 -0.7106 -0.6666
   17MOL0     C 2215  10.268   2.589   9.910 -0.0257 -0.2269 -0.5773
   17MOL0     O 2216  10.210   2.616  10.029  0.0292  0.9585 -0.0509
   17MOL0     C 2217  10.275   2.654  10.155 -0.7830 -0.5196 -0.6746
   17MOL0     C 2218  10.162   2.673  10.255 -0.2085  0.0902  0.1753
   17MOL0     C 2219  10.085   2.795  10.219 -0.8678 -0.8814 -0.3309
   17MOL0     C 2220   9.989   2.829  10.331  0.1423  0.9503  0.4904
   17MOL0     C 2221   9.897   2.941  10.302  0.1622 -0.1624  0.2243
   17MOL0     C 2222   9.782   2.945  10.403 -1.3638 -0.5832 -0.1200
   17MOL0     C 2223   9.679   3.062  10.366 -0.5260 -0.2310 -0.3360
   17MOL0     C 2224   9.727   3.198  10.404 -1.0220  0.2846 -0.0163
   17MOL0     N 2225   9.627   3.300  10.434 -1.0886 -0.4918  0.5801
   17MOL0     C 2226   9.522   3.303  10.522  0.2784 -0.2797 -0.5693
   17MOL0     C 2227   9.448   3.418  10.495 -0.3711  0.9679  0.8133
   17MOL0     C 2228   9.310   3.462  10.532  0.2204 -0.2997  0.8770
   17MOL0     C 2229   9.246   3.392  10.644  0.5096  0.1505  0.6747
   17MOL0     C 2230   9.099   3.433  10.656  0.3019 -0.6613  0.3243
   17MOL0     C 2231   9.002   3.404  10.533  0.3678  0.0941 -0.6286
   17MOL0     O 2232   9.020   3.269  10.480 -0.1606  0.5891  0.7847
   17MOL0     C 2233   8.981   3.225  10.353 -0.0345 -0.4098  0.0414
   17MOL0     C 2234   8.919   3.311  10.260 -0.3444  1.2670  0.6777
   17MOL0     C 2235   8.867   3.257  10.144  0.5243  0.2329  0.5987
   17MOL0     C 2236   8.801   3.352  10.048  1.0251  0.2986  0.6423
   17MOL0     C 2237   8.887   3.118  10.116  0.2605  0.1138 -0.3538
   17MOL0     C 2238   8.837   3.053   9.987 -0.3851 -0.3462 -0.7461
   17MOL0     O 2239   8.719   3.095   9.921 -0.4377  0.5008  0.0322
   17MOL0     C 2240   8.680   3.039   9.807  0.6265  0.8544 -0.3564
   17MOL0     C 2241   8.748   3.014   9.691 -0.1689  0.5466  0.6113
   17MOL0     C 2242   8.695   2.972   9.565 -0.3156  0.4445 -0.3834
   17MOL0     C 2243   8.550   2.945   9.561 -0.4728  0.2237 -0.0202
   17MOL0     O 2244   8.470   2.904   9.457  0.1402 -0.7595 -0.2169
   17MOL0     C 2245   8.527   2.915   9.328 -0.1031  0.5265  0.4219
   17MOL0     C 2246   8.421   2.909   9.215 -0.7520 -0.9636  0.3056
   17MOL0     C 2247   8.332   3.036   9.244 -0.1844  0.7189 -0.0490
   17MOL0     C 2248   8.269   3.083   9.108 -0.4298  1.0626 -0.2889
   17MOL0     C 2249   8.166   3.189   9.129 -0.1812 -0.0219  0.6422
   17MOL0     C 2250   8.068   3.198   9.016 -0.5029  0.0261 -0.4769
   17MOL0     C 2251   7.927   3.231   9.065 -0.0048  0.7034 -0.1388
   17MOL0     C 2252   7.903   3.380   9.098  0.2356 -0.0322 -0.7823
   17MOL0    Cl 2253   7.752   3.423   9.146  0.2018  0.2162  0.4280
   17MOL0     C 2254   8.482   2.968   9.686  0.1414 -0.2836 -0.2928
   17MOL0     C 2255   8.542   3.007   9.812 -0.1913  0.2371  0.4498
   17MOL0     O 2256   8.901   2.956   9.958 -0.1872  0.1173 -0.1412
   17MOL0     C 2257   8.957   3.039  10.213  0.5067 -0.2967  0.4500
   17MOL0     C 2258   9.008   3.091  10.330  0.5646  0.5305 -0.3455
   17MOL0     N 2259   9.529   3.495  10.406  0.7369  0.2442  0.2385
   17MOL0     N 2260   9.632   3.420  10.372  0.1319 -0.0052 -0.3137
   17MOL0     C 2261  10.397   2.628   9.893  0.2404 -0.4814  0.5001
   17MOL0     C 2262  10.458   2.605   9.766  0.0433  0.1594  0.4772
   17MOL0     C 2263  10.500   2.318   9.396 -0.9718  0.4577 -0.5603
   17MOL0     C 2264  10.489   2.409   9.288  0.2609 -0.0604 -0.2406
   17MOL0     C 2265  10.498   2.364   9.153 -0.6117 -0.1271  0.1054
   17MOL0     C 2266  10.527   2.226   9.122  0.8308 -0.4498 -1.2052
   17MOL0     O 2267  10.535   2.185   8.990 -0.2696  0.0307  0.0925
   17MOL0     C 2268  10.590   2.053   8.962  0.1551  0.0879  0.2636
   17MOL0     C 2269  10.586   2.046   8.810  0.2935 -1.2009  0.4955
   17MOL0     C 2270  10.441   2.067   8.748  0.1398 -0.3971  0.3382
   17MOL0     C 2271  10.324   1.973   8.786  0.3673 -0.0287  0.1208
   17MOL0     C 2272  10.272   2.001   8.920 -0.6198 -0.0412 -0.7525
   17MOL0     C 2273  10.244   2.027   9.034 -0.4121  0.3987 -0.2185
   17MOL0     C 2274  10.549   2.140   9.230  0.7323  0.5721  0.5600
   17MOL0     C 2275  10.530   2.178   9.365  0.0622  0.1747  0.3329
   17MOL0     C 2276  10.556   2.056   9.457 -0.2801  0.2772 -0.5388
   17MOL0     H 2277  10.185   2.486   9.608 -0.4914  1.5466  0.0015
   17MOL0     H 2278  10.092   2.519   9.823 -0.6854  2.0483 -0.2015
   17MOL0     H 2279  10.329   2.749  10.142 -0.8321  0.1369  2.9869
   17MOL0     H 2280  10.348   2.576  10.179 -1.3660 -1.2584 -1.2281
   17MOL0     H 2281  10.088   2.593  10.247 -1.4761  1.0704  1.4725
   17MOL0     H 2282  10.195   2.686  10.359  1.2062  2.2508 -0.4651
   17MOL0     H 2283  10.158   2.875  10.208  0.8750 -2.5656 -2.1457
   17MOL0     H 2284  10.034   2.799  10.122 -2.7463 -2.4909  0.5173
   17MOL0     H 2285   9.933   2.736  10.344  0.9044  0.0296 -2.2137
   17MOL0     H 2286  10.046   2.849  10.423  0.5445 -0.9086  0.6965
   17MOL0     H 2287   9.850   2.936  10.203  0.5753  4.4052 -0.3790
   17MOL0     H 2288   9.954   3.034  10.293 -0.1051  0.6033  4.5409
   17MOL0     H 2289   9.734   2.847  10.402 -1.2071 -0.9052  4.0821
   17MOL0     H 2290   9.816   2.958  10.507 -0.3098  0.5111 -0.5779
   17MOL0     H 2291   9.603   3.025  10.436 -0.5593  0.1431 -0.1750
   17MOL0     H 2292   9.631   3.053  10.268 -1.5418  1.1901 -0.0045
   17MOL0     H 2293   9.785   3.187  10.496 -0.0056  0.7544 -0.5875
   17MOL0     H 2294   9.809   3.218  10.335 -2.3795 -2.3314 -2.5866
   17MOL0     H 2295   9.480   3.216  10.572  1.9956 -0.8513 -0.0410
   17MOL0     H 2296   9.255   3.435  10.441  1.8972  1.5282 -0.7819
   17MOL0     H 2297   9.306   3.570  10.549 -0.9957 -0.5758  2.5823
   17MOL0     H 2298   9.254   3.285  10.623 -0.7221 -0.0422  1.1353
   17MOL0     H 2299   9.281   3.420  10.744 -1.5847 -0.9838  1.7819
   17MOL0     H 2300   9.058   3.379  10.742  0.1057 -0.8985  0.0851
   17MOL0     H 2301   9.095   3.540  10.674 -1.3638 -0.7721  0.7823
   17MOL0     H 2302   8.899   3.416  10.567  0.3488 -1.2536 -0.1382
   17MOL0     H 2303   9.020   3.474  10.452 -0.3043 -0.0512 -0.9100
   17MOL0     H 2304   8.904   3.418  10.276  2.5456  1.6202  1.6349
   17MOL0     H 2305   8.708   3.307  10.013  1.6415  0.1452 -0.8862
   17MOL0     H 2306   8.867   3.363   9.961  2.4822 -2.1470  1.3319
   17MOL0     H 2307   8.779   3.452  10.085  0.8182  1.1113 -1.5407
   17MOL0     H 2308   8.855   3.021   9.709 -0.2525  1.9575  0.6343
   17MOL0     H 2309   8.761   2.965   9.480 -2.8838 -4.1764 -2.3529
   17MOL0     H 2310   8.580   3.010   9.316 -2.6476  1.7317 -2.7567
   17MOL0     H 2311   8.599   2.833   9.321 -0.8411 -0.2785  1.7749
   17MOL0     H 2312   8.466   2.908   9.116  1.0981 -1.6819  1.0987
   17MOL0     H 2313   8.354   2.824   9.230 -1.0911 -0.8221 -0.3767
   17MOL0     H 2314   8.387   3.123   9.282  1.6397 -1.6819  3.4300
   17MOL0     H 2315   8.252   3.008   9.314  2.2694 -0.3982  2.5175
   17MOL0     H 2316   8.233   2.991   9.062 -1.8506  1.9624 -1.0610
   17MOL0     H 2317   8.342   3.120   9.035  0.6141 -1.3180 -0.5378
   17MOL0     H 2318   8.114   3.162   9.221  2.0847 -1.4165  1.5860
   17MOL0     H 2319   8.217   3.285   9.140 -0.0655  0.1199 -0.9038
   17MOL0     H 2320   8.066   3.098   8.971 -0.7485 -0.9348  1.5898
   17MOL0     H 2321   8.102   3.270   8.941  2.1965  1.3379  1.8179
   17MOL0     H 2322   7.888   3.165   9.142 -0.4999  1.0996 -0.0460
   17MOL0     H 2323   7.858   3.219   8.981 -2.2195  7.1608  0.1789
   17MOL0     H 2324   7.940   3.428   9.007  2.1546 -0.3674 -0.2323
   17MOL0     H 2325   7.977   3.404   9.175  2.5981 -0.2749 -2.8376
   17MOL0     H 2326   8.375   2.949   9.681 -0.0909  0.7816  0.4667
   17MOL0     H 2327   8.480   3.022   9.900 -1.8228 -3.2494  0.0615
   17MOL0     H 2328   8.972   2.932  10.198 -0.5480 -0.2281 -1.4716
   17MOL0     H 2329   9.055   3.022  10.400 -1.2855 -1.5641 -1.0387
   17MOL0     H 2330  10.454   2.668   9.976  1.0688  2.5787 -1.3590
   17MOL0     H 2331  10.556   2.640   9.737 -0.4562  1.2679  0.0693
   17MOL0     H 2332  10.454   2.507   9.317 -3.5896 -0.8608 -1.6471
   17MOL0     H 2333  10.474   2.441   9.080  5.3629  2.8618  0.6663
   17MOL0     H 2334  10.695   2.046   8.991  0.1420  0.9863  0.5569
   17MOL0     H 2335  10.530   1.969   8.998 -1.0223  1.7881  2.5138
   17MOL0     H 2336  10.624   1.949   8.779 -0.0863 -0.4295 -2.7452
   17MOL0     H 2337  10.654   2.127   8.782 -0.3254 -1.3775 -1.7031
   17MOL0     H 2338  10.411   2.172   8.746  3.1065  0.5474 -2.1029
   17MOL0     H 2339  10.464   2.051   8.642 -0.0855  0.8096  0.1014
   17MOL0     H 2340  10.350   1.867   8.783  2.1727  0.2862  1.8399
   17MOL0     H 2341  10.246   1.996   8.714  1.4051 -1.2655 -1.4585
   17MOL0     H 2342  10.214   2.065   9.130  2.7186  2.6068  0.0035
   17MOL0     H 2343  10.563   2.035   9.207 -0.3206  0.8947 -1.9473
   17MOL0     H 2344  10.650   2.012   9.422 -0.6117 -2.9897  2.2026
   17MOL0     H 2345  10.586   2.091   9.556 -0.8714  2.4362 -1.0823
   17MOL0     H 2346  10.472   1.985   9.465 -1.4231  1.8123  3.0239
   18MOL0     O 2347   4.171   0.734  11.253 -0.0347 -0.0327  0.2506
   18MOL0     C 2348   4.161   0.798  11.358  0.6783  0.1887  0.7965
   18MOL0     O 2349   4.256   0.878  11.410  0.2632  0.3205  0.0129
   18MOL0     C 2350   4.382   0.892  11.352  0.0963  0.0183  1.0130
   18MOL0     C 2351   4.444   1.011  11.373 -0.5789 -0.3446 -0.3351
   18MOL0     C 2352   4.575   1.031  11.335 -0.1003 -0.4910  0.4481
   18MOL0     C 2353   4.652   0.925  11.283 -0.2387 -0.1125  0.3861
   18MOL0     O 2354   4.787   0.950  11.265 -0.0021  0.8759 -0.8076
   18MOL0     C 2355   4.852   0.880  11.165  0.5227  0.4851 -0.1670
   18MOL0     C 2356   4.977   0.959  11.133 -0.4194 -0.1221 -1.0055
   18MOL0     C 2357   5.052   0.895  11.013 -0.2982 -0.7902 -0.3476
   18MOL0     C 2358   5.189   0.960  10.977  1.1050  0.1156  0.8208
   18MOL0     C 2359   5.241   0.916  10.845 -0.1078  0.0750  0.9304
   18MOL0     C 2360   5.385   0.963  10.812 -0.0605  0.6745  0.1626
   18MOL0     C 2361   5.406   0.944  10.665 -1.3115  0.5003 -0.2480
   18MOL0     C 2362   5.534   1.012  10.630  0.0299  0.1853 -0.1160
   18MOL0     N 2363   5.588   0.978  10.499  0.2156  0.1639 -0.0002
   18MOL0     C 2364   5.683   0.882  10.471  0.1743  0.0956  0.1103
   18MOL0     C 2365   5.697   0.882  10.334  0.6963  0.2177  0.6761
   18MOL0     C 2366   5.789   0.792  10.249 -0.6201  0.2659  0.2268
   18MOL0     C 2367   5.939   0.827  10.254  0.1642  0.2357  0.5369
   18MOL0     C 2368   6.012   0.757  10.137 -0.1185 -0.0749  0.7646
   18MOL0     C 2369   6.150   0.815  10.134  0.3795 -0.1384  0.2086
   18MOL0     O 2370   6.231   0.730  10.051  0.2791 -0.4884  0.4059
   18MOL0     C 2371   6.355   0.768  10.029 -0.5494  0.6345  0.3256
   18MOL0     C 2372   6.432   0.669   9.964 -0.4909  0.4426 -0.0556
   18MOL0     C 2373   6.568   0.681   9.942 -0.6516 -1.3308 -0.2656
   18MOL0     C 2374   6.630   0.559   9.880 -0.3308 -0.9225 -0.5247
   18MOL0     C 2375   6.636   0.802   9.990 -0.7450 -0.2876  0.5601
   18MOL0     C 2376   6.788   0.820   9.978  0.2704 -0.3357 -0.8710
   18MOL0     O 2377   6.839   0.934  10.045 -0.3296 -0.7428 -0.0033
   18MOL0     C 2378   6.954   0.992   9.991 -0.6642 -0.5878  0.7863
   18MOL0     C 2379   6.948   1.055   9.869  0.5533  0.6831  0.1435
   18MOL0     C 2380   7.064   1.107   9.809  0.9583 -0.2240  0.1828
   18MOL0     C 2381   7.192   1.085   9.870  0.6618 -0.4793  0.7842
   18MOL0     O 2382   7.299   1.148   9.808  1.0000 -0.2153 -0.3377
   18MOL0     C 2383   7.401   1.049   9.781 -0.0426 -0.3529  0.2829
   18MOL0     C 2384   7.457   1.095   9.639  1.4688  0.3085  0.9844
   18MOL0     C 2385   7.606   1.089   9.629  0.4340  0.0485  0.0574
   18MOL0     C 2386   7.658   1.117   9.490 -0.5289  0.5810 -0.1573
   18MOL0     C 2387   7.799   1.049   9.482 -0.1974  0.6116 -0.0024
   18MOL0     C 2388   7.849   1.062   9.342  0.4993 -0.7988 -0.7618
   18MOL0     C 2389   7.995   1.010   9.322 -0.0896  0.1929  0.4011
   18MOL0     C 2390   8.034   1.000   9.174  0.2244  0.1643  0.7201
   18MOL0    Cl 2391   8.207   0.955   9.141  0.2795  0.4710  0.1891
   18MOL0     C 2392   7.196   1.006   9.988  0.1045 -0.6760  0.1912
   18MOL0     C 2393   7.076   0.960  10.047  0.3100 -0.1167  0.1749
   18MOL0     O 2394   6.853   0.739   9.921  0.0737  0.1807  0.4764
   18MOL0     C 2395   6.565   0.902  10.047  1.0523 -0.0986 -0.7467
   18MOL0     C 2396   6.422   0.887  10.071  1.0668  0.7535  1.6553
   18MOL0     N 2397   5.615   0.981  10.290 -0.4139 -0.6591  0.4503
   18MOL0     N 2398   5.543   1.034  10.385  0.1959 -0.1968 -0.5951
   18MOL0     C 2399   4.587   0.804  11.258 -0.2157 -0.2062 -0.0045
   18MOL0     C 2400   4.455   0.789  11.305 -0.1943  0.8457  0.1545
   18MOL0     C 2401   4.033   0.782  11.429  0.4836 -0.2246  0.0010
   18MOL0     C 2402   4.038   0.815  11.566 -0.3196 -0.4207  0.0849
   18MOL0     C 2403   3.917   0.831  11.630 -0.4887  0.1919  0.3532
   18MOL0     C 2404   3.798   0.810  11.571 -0.3114  0.3397  0.1654
   18MOL0     O 2405   3.686   0.813  11.650  0.5642  0.4980  0.2631
   18MOL0     C 2406   3.561   0.755  11.600  0.6896  0.7112 -0.3149
   18MOL0     C 2407   3.478   0.843  11.502  0.6210  0.1115 -0.9266
   18MOL0     C 2408   3.409   0.958  11.582  0.0356  0.3248  0.2465
   18MOL0     C 2409   3.289   1.032  11.508 -0.8309  0.1970 -0.0470
   18MOL0     C 2410   3.165   0.955  11.495  0.0802 -0.1379  0.3241
   18MOL0     C 2411   3.060   0.893  11.485  1.1317 -0.5705  1.1738
   18MOL0     C 2412   3.799   0.765  11.430  0.9133 -0.1030 -0.3222
   18MOL0     C 2413   3.913   0.750  11.363  0.4068 -0.8397  0.7586
   18MOL0     C 2414   3.886   0.711  11.215 -0.6584 -0.3400  0.6379
   18MOL0     H 2415   4.388   1.094  11.412 -0.2714 -0.0001 -0.6147
   18MOL0     H 2416   4.629   1.125  11.335  2.7085 -1.9753 -1.6960
   18MOL0     H 2417   4.787   0.881  11.078  1.0087  1.3420 -0.5348
   18MOL0     H 2418   4.869   0.776  11.192  0.3952  0.0463 -1.6945
   18MOL0     H 2419   4.956   1.064  11.111  3.9542  0.6722 -2.6154
   18MOL0     H 2420   5.037   0.959  11.224 -0.6983  2.7566 -0.7416
   18MOL0     H 2421   5.068   0.790  11.036 -1.6704 -0.5186  2.2681
   18MOL0     H 2422   4.985   0.913  10.929 -0.8425  1.3412  0.4712
   18MOL0     H 2423   5.159   1.065  10.977  0.0685 -0.0781 -2.6933
   18MOL0     H 2424   5.268   0.938  11.050  3.6975  1.1419 -1.5172
   18MOL0     H 2425   5.177   0.949  10.763  1.7277 -4.9107 -3.0175
   18MOL0     H 2426   5.239   0.807  10.836 -0.6331  0.2561 -2.2851
   18MOL0     H 2427   5.397   1.067  10.845 -0.3393  0.2421  1.7326
   18MOL0     H 2428   5.454   0.897  10.865 -0.2672  0.5939  0.3321
   18MOL0     H 2429   5.322   0.997  10.618 -1.9921  0.2854  0.6818
   18MOL0     H 2430   5.403   0.837  10.642 -0.6328  0.9075 -2.4875
   18MOL0     H 2431   5.520   1.120  10.637  0.2376  0.2085 -0.0679
   18MOL0     H 2432   5.609   0.990  10.707  1.3824  1.4816 -1.0141
   18MOL0     H 2433   5.741   0.823  10.540  0.6643 -0.1648 -0.5101
   18MOL0     H 2434   5.754   0.804  10.146  2.1964  1.8248 -0.6620
   18MOL0     H 2435   5.765   0.687  10.268  0.6229  0.4402  3.3096
   18MOL0     H 2436   5.938   0.933  10.226 -2.5138 -0.0390 -0.8501
   18MOL0     H 2437   5.980   0.812  10.354 -1.3737 -0.4582  1.0957
   18MOL0     H 2438   6.023   0.649  10.152 -1.9297 -0.5251 -0.6903
   18MOL0     H 2439   5.965   0.781  10.041  1.8208  2.4964  0.3452
   18MOL0     H 2440   6.138   0.914  10.090 -1.4419 -0.0580  0.7921
   18MOL0     H 2441   6.193   0.829  10.233  0.3685 -2.0757  0.5341
   18MOL0     H 2442   6.380   0.576   9.944 -0.3588  0.6182 -1.2844
   18MOL0     H 2443   6.689   0.498   9.949 -0.4546  1.2043  1.6119
   18MOL0     H 2444   6.692   0.587   9.794  0.1220 -0.6799 -0.1275
   18MOL0     H 2445   6.559   0.486   9.841  1.9027 -1.6981 -3.5657
   18MOL0     H 2446   6.857   1.074   9.812  0.0414  0.3914  0.8465
   18MOL0     H 2447   7.057   1.177   9.727  1.4886  1.2179  1.3259
   18MOL0     H 2448   7.481   1.060   9.855  1.3684 -2.2998 -0.8550
   18MOL0     H 2449   7.352   0.951   9.768 -0.2509  0.0357 -2.4261
   18MOL0     H 2450   7.416   1.013   9.579  0.5129 -1.4787  3.8596
   18MOL0     H 2451   7.416   1.193   9.613 -3.0803 -1.1962  1.5583
   18MOL0     H 2452   7.638   0.991   9.663 -0.1746 -0.4263 -0.7081
   18MOL0     H 2453   7.637   1.157   9.709 -0.8861 -2.3711  2.7994
   18MOL0     H 2454   7.668   1.225   9.471 -0.1462  0.6516  0.4023
   18MOL0     H 2455   7.586   1.080   9.417 -1.2127  2.1374 -0.3101
   18MOL0     H 2456   7.864   1.108   9.546  0.4900 -1.2599  1.1117
   18MOL0     H 2457   7.805   0.949   9.526 -0.0297  0.2322 -0.8728
   18MOL0     H 2458   7.856   1.168   9.318  3.0346 -1.2520 -2.4561
   18MOL0     H 2459   7.782   1.016   9.268  0.7618 -1.4269 -0.6122
   18MOL0     H 2460   7.999   0.912   9.369 -3.7163 -0.5531 -0.5740
   18MOL0     H 2461   8.069   1.075   9.370 -0.7469  0.2075  1.4032
   18MOL0     H 2462   8.016   1.104   9.147 -0.8007  0.2087  1.5295
   18MOL0     H 2463   7.958   0.938   9.127  0.7987 -1.6256  2.0200
   18MOL0     H 2464   7.286   0.984  10.044  0.0741 -0.4914  0.3147
   18MOL0     H 2465   7.074   0.906  10.141 -0.2805 -0.0914  0.1830
   18MOL0     H 2466   6.611   0.995  10.080 -3.2787  1.4580  1.7180
   18MOL0     H 2467   6.364   0.970  10.111 -1.2339  0.8414 -1.4382
   18MOL0     H 2468   4.638   0.716  11.222 -0.7585 -0.5193 -0.0191
   18MOL0     H 2469   4.395   0.699  11.300 -1.1960  1.5535 -1.0864
   18MOL0     H 2470   4.134   0.836  11.614 -1.3274  4.0424  0.6438
   18MOL0     H 2471   3.921   0.837  11.739  1.5758 -1.6229  0.4365
   18MOL0     H 2472   3.579   0.660  11.548  2.4686  0.4969  0.6245
   18MOL0     H 2473   3.496   0.736  11.686 -1.4711 -0.1993 -2.0417
   18MOL0     H 2474   3.404   0.773  11.461 -0.2177  1.8734 -2.5917
   18MOL0     H 2475   3.531   0.883  11.415 -0.5409  2.1764 -0.7498
   18MOL0     H 2476   3.379   0.935  11.685 -0.2478  2.9723  0.8277
   18MOL0     H 2477   3.478   1.037  11.611  1.2550 -0.1400 -1.2700
   18MOL0     H 2478   3.330   1.051  11.408 -1.7492  2.8944  0.0122
   18MOL0     H 2479   3.266   1.125  11.561 -0.9884  0.6562 -0.9005
   18MOL0     H 2480   2.967   0.839  11.482  1.4396 -1.0666 -0.2731
   18MOL0     H 2481   3.708   0.745  11.374  0.6178  1.6379 -0.5503
   18MOL0     H 2482   3.903   0.798  11.151  0.8150  0.1415  1.6178
   18MOL0     H 2483   3.945   0.625  11.182  0.1242  0.4718 -0.1386
   18MOL0     H 2484   3.782   0.683  11.197 -0.2986 -1.6966  0.5282
   19MOL0     O 2485   4.202   2.585   7.743  0.0648 -0.2430 -0.4940
   19MOL0     C 2486   4.280   2.499   7.700  0.6980 -0.4413 -0.5315
   19MOL0     O 2487   4.257   2.418   7.588  0.0486 -0.8543  0.1908
   19MOL0     C 2488   4.125   2.409   7.555 -0.4600  0.1373  0.3290
   19MOL0     C 2489   4.082   2.481   7.442 -0.3913  0.3674 -0.7513
   19MOL0     C 2490   3.955   2.470   7.387  0.1192  0.4538 -0.5784
   19MOL0     C 2491   3.858   2.387   7.453 -0.3389 -0.4902  0.1471
   19MOL0     O 2492   3.731   2.360   7.406 -0.2769 -0.4985 -0.1216
   19MOL0     C 2493   3.685   2.417   7.288  0.3944 -0.9457  0.6487
   19MOL0     C 2494   3.581   2.311   7.240  0.1025 -0.6037  0.5936
   19MOL0     C 2495   3.660   2.188   7.200  0.8542 -0.3352 -0.6946
   19MOL0     C 2496   3.569   2.065   7.159 -0.1716 -0.6007 -0.8011
   19MOL0     C 2497   3.453   2.100   7.074  0.5072 -0.1200  0.3242
   19MOL0     C 2498   3.331   2.004   7.092  0.0917 -0.6135 -0.5477
   19MOL0     C 2499   3.196   2.048   7.025 -0.1884  0.0849 -0.4715
   19MOL0     C 2500   3.176   2.065   6.874  0.4511  0.0624 -0.6019
   19MOL0     N 2501   3.214   1.936   6.821  0.0856  0.2572  0.3367
   19MOL0     C 2502   3.148   1.811   6.832  0.6346  0.1857  1.3379
   19MOL0     C 2503   3.223   1.721   6.758 -0.1910  0.2774  0.0238
   19MOL0     C 2504   3.196   1.571   6.726  0.3179 -0.4603 -0.2478
   19MOL0     C 2505   3.142   1.545   6.585  0.6124 -0.2758  0.5109
   19MOL0     C 2506   3.102   1.401   6.564  0.1769  0.2562 -0.0201
   19MOL0     C 2507   2.978   1.358   6.651 -0.9891 -1.0715  0.2507
   19MOL0     O 2508   2.901   1.248   6.603  0.1497 -0.9725  0.2811
   19MOL0     C 2509   2.785   1.226   6.671 -0.0467 -0.2725 -0.1172
   19MOL0     C 2510   2.684   1.327   6.691  0.3589 -0.3546  0.0803
   19MOL0     C 2511   2.554   1.293   6.739 -0.6742 -0.1055 -0.2607
   19MOL0     C 2512   2.473   1.417   6.771 -0.3851 -0.1693  0.7705
   19MOL0     C 2513   2.524   1.157   6.770  0.2810 -0.2203 -1.1590
   19MOL0     C 2514   2.398   1.119   6.841 -0.3778  0.3954 -0.0231
   19MOL0     O 2515   2.381   0.980   6.870  0.2297 -0.6933  0.1789
   19MOL0     C 2516   2.257   0.941   6.918  0.3276 -0.9624  0.5089
   19MOL0     C 2517   2.137   0.984   6.860  0.3579 -0.7192  0.0027
   19MOL0     C 2518   2.009   0.959   6.915 -0.6743 -0.3735  0.5595
   19MOL0     C 2519   1.988   0.878   7.030  0.1329 -0.3598 -1.0774
   19MOL0     O 2520   1.866   0.833   7.070  0.1392  0.2386  0.2123
   19MOL0     C 2521   1.839   0.703   7.136 -0.8543 -0.5844  0.0058
   19MOL0     C 2522   1.697   0.660   7.104  0.3297 -0.3046  0.1314
   19MOL0     C 2523   1.671   0.511   7.111 -0.0417 -0.4105 -0.4140
   19MOL0     C 2524   1.534   0.476   7.053 -0.2453  0.2090 -1.1251
   19MOL0     C 2525   1.514   0.323   7.073 -0.8322  0.3040 -0.3714
   19MOL0     C 2526   1.367   0.282   7.037  0.2230  0.0286  0.1537
   19MOL0     C 2527   1.321   0.153   7.109  0.5644  0.0436 -0.0939
   19MOL0     C 2528   1.168   0.157   7.092 -0.2006 -0.3460  0.3428
   19MOL0    Cl 2529   1.092  -0.006   7.124  0.1752  0.0809  0.5001
   19MOL0     C 2530   2.113   0.817   7.077  0.3083 -0.2648  0.0191
   19MOL0     C 2531   2.242   0.855   7.026 -0.0688 -1.5466 -1.7924
   19MOL0     O 2532   2.318   1.215   6.858  1.1602  0.4018  0.0148
   19MOL0     C 2533   2.620   1.059   6.742  0.1258 -0.9322  0.3006
   19MOL0     C 2534   2.748   1.098   6.698  0.5047  0.6403  0.6748
   19MOL0     N 2535   3.329   1.796   6.705  0.0750  0.7393  1.0456
   19MOL0     N 2536   3.329   1.923   6.742 -0.2708  0.2115  0.7909
   19MOL0     C 2537   3.896   2.312   7.568 -0.4499  0.2258  0.9919
   19MOL0     C 2538   4.027   2.331   7.618  0.5799  0.0102 -0.7722
   19MOL0     C 2539   4.393   2.478   7.788  1.3604  0.8771  0.1157
   19MOL0     C 2540   4.450   2.593   7.855  0.5697  0.8797 -0.0022
   19MOL0     C 2541   4.564   2.580   7.930 -0.7844 -0.7679 -1.2077
   19MOL0     C 2542   4.609   2.454   7.967  0.2709 -0.5807 -0.7099
   19MOL0     O 2543   4.714   2.434   8.052  0.3666  0.1361 -0.5413
   19MOL0     C 2544   4.663   2.395   8.186  0.1826 -0.6265 -0.4906
   19MOL0     C 2545   4.787   2.352   8.266  0.1910  0.2466  0.1395
   19MOL0     C 2546   4.852   2.218   8.221  0.2908 -0.5486 -0.1788
   19MOL0     C 2547   4.753   2.092   8.245  0.1217 -0.8166  0.7386
   19MOL0     C 2548   4.687   2.078   8.374 -0.4057  0.3948 -0.5331
   19MOL0     C 2549   4.648   2.063   8.488 -0.0228 -0.5041 -0.8463
   19MOL0     C 2550   4.542   2.341   7.917 -0.0122 -0.1208  0.1725
   19MOL0     C 2551   4.439   2.347   7.823 -0.0774  0.1473 -0.6916
   19MOL0     C 2552   4.387   2.225   7.766  0.0303  0.5338 -0.1589
   19MOL0     H 2553   4.157   2.538   7.388  2.5889 -1.9813  0.6018
   19MOL0     H 2554   3.945   2.523   7.293  0.2539 -0.5015 -1.1552
   19MOL0     H 2555   3.752   2.432   7.203 -0.7966  4.1873  0.2950
   19MOL0     H 2556   3.639   2.513   7.315  0.8896 -0.6117  0.3271
   19MOL0     H 2557   3.518   2.286   7.325  1.1476 -2.8449  0.7665
   19MOL0     H 2558   3.532   2.360   7.155  4.3441  0.4587 -1.5616
   19MOL0     H 2559   3.732   2.217   7.123  1.9182 -0.1296  0.3595
   19MOL0     H 2560   3.717   2.156   7.287 -1.3155  0.0572  0.9804
   19MOL0     H 2561   3.640   1.998   7.109  2.0491  1.3938 -0.4727
   19MOL0     H 2562   3.531   2.018   7.250  0.5086  0.9098  0.3040
   19MOL0     H 2563   3.479   2.117   6.969 -1.4407 -0.4111 -0.2484
   19MOL0     H 2564   3.401   2.191   7.105  1.1501  1.0414 -1.8068
   19MOL0     H 2565   3.339   1.895   7.084 -3.6368 -0.9948 -0.8055
   19MOL0     H 2566   3.308   2.009   7.198  0.7604 -4.7680 -0.0405
   19MOL0     H 2567   3.172   2.144   7.071  1.8134  0.5771 -0.3786
   19MOL0     H 2568   3.128   1.968   7.057 -0.2593  0.5300  0.5389
   19MOL0     H 2569   3.073   2.078   6.841  1.1109 -1.2271 -3.4829
   19MOL0     H 2570   3.242   2.146   6.840  3.8457 -1.4587  1.7940
   19MOL0     H 2571   3.064   1.792   6.898  0.8344 -0.7237  1.3486
   19MOL0     H 2572   3.134   1.524   6.803 -2.0630  2.1117 -0.4427
   19MOL0     H 2573   3.295   1.525   6.733 -0.5848 -2.1932  2.4830
   19MOL0     H 2574   3.054   1.606   6.565  2.7853  2.7777 -0.3584
   19MOL0     H 2575   3.214   1.572   6.507  1.8251 -2.8183  0.6356
   19MOL0     H 2576   3.070   1.376   6.462 -1.5327 -1.2247  0.8206
   19MOL0     H 2577   3.189   1.337   6.580  0.4410  1.1588  2.6159
   19MOL0     H 2578   3.013   1.318   6.746 -0.5805 -0.2282  0.4660
   19MOL0     H 2579   2.922   1.451   6.666 -0.0962 -0.2496 -1.2834
   19MOL0     H 2580   2.706   1.423   6.644 -2.2571 -0.4223 -1.4910
   19MOL0     H 2581   2.534   1.507   6.760  0.5827 -0.6565  1.9022
   19MOL0     H 2582   2.430   1.408   6.871  1.7046 -1.0036  1.6745
   19MOL0     H 2583   2.394   1.427   6.696 -0.5701  2.0021  1.1919
   19MOL0     H 2584   2.155   1.037   6.766  0.9434 -1.3650 -0.2622
   19MOL0     H 2585   1.919   0.991   6.864 -0.7690 -1.0460  0.2979
   19MOL0     H 2586   1.911   0.626   7.106 -0.3946 -0.3888  0.5918
   19MOL0     H 2587   1.847   0.707   7.245 -0.1286  1.2693 -0.0814
   19MOL0     H 2588   1.629   0.708   7.176 -1.7603 -0.5320 -1.5829
   19MOL0     H 2589   1.670   0.693   7.003 -2.4835 -1.3053  0.4545
   19MOL0     H 2590   1.683   0.473   7.212  0.4190  0.4304 -0.1460
   19MOL0     H 2591   1.754   0.463   7.059 -0.0165 -0.2754 -0.4980
   19MOL0     H 2592   1.523   0.495   6.945 -1.7283  2.4094 -0.6641
   19MOL0     H 2593   1.458   0.535   7.104  0.4939  1.6624 -1.6386
   19MOL0     H 2594   1.589   0.259   7.023 -1.8174  2.0010 -4.4441
   19MOL0     H 2595   1.517   0.302   7.180 -0.7498 -2.3607 -0.8226
   19MOL0     H 2596   1.353   0.270   6.929 -0.8694 -0.6666  0.3487
   19MOL0     H 2597   1.305   0.364   7.073  2.6933  2.4743 -0.7922
   19MOL0     H 2598   1.348   0.154   7.215 -0.8387 -1.0241  0.3094
   19MOL0     H 2599   1.354   0.063   7.057  0.2155 -0.6266  0.8109
   19MOL0     H 2600   1.136   0.190   6.992  0.0775 -3.8971 -1.0669
   19MOL0     H 2601   1.144   0.231   7.168  3.7487  1.8896 -0.2925
   19MOL0     H 2602   2.102   0.742   7.155  0.1693 -0.7238 -0.4336
   19MOL0     H 2603   2.331   0.820   7.076  0.2217  1.7461  0.2616
   19MOL0     H 2604   2.598   0.960   6.782  4.1209 -1.0928  2.6614
   19MOL0     H 2605   2.827   1.024   6.691  0.5174  0.5125  1.9117
   19MOL0     H 2606   3.827   2.234   7.599  1.3199 -2.0315 -0.3846
   19MOL0     H 2607   4.060   2.270   7.702  1.0036  1.9386  0.5327
   19MOL0     H 2608   4.402   2.687   7.831 -1.1182  0.2070  0.5651
   19MOL0     H 2609   4.613   2.664   7.979 -0.0119 -1.2868 -1.0708
   19MOL0     H 2610   4.617   2.480   8.236  0.6030 -1.8107  2.0738
   19MOL0     H 2611   4.586   2.317   8.187  1.0585 -1.5648  1.8909
   19MOL0     H 2612   4.766   2.349   8.373 -0.5246  1.2353  0.0437
   19MOL0     H 2613   4.861   2.431   8.251  1.7255 -1.1032  0.3303
   19MOL0     H 2614   4.871   2.220   8.114 -3.3107 -3.0523 -1.0118
   19MOL0     H 2615   4.948   2.221   8.274 -0.5390  0.2659  1.3591
   19MOL0     H 2616   4.813   2.003   8.223  2.6183  0.7369  0.8030
   19MOL0     H 2617   4.670   2.101   8.175  1.0759  0.1721 -0.3149
   19MOL0     H 2618   4.615   2.064   8.590  1.6971 -1.6362 -0.2349
   19MOL0     H 2619   4.574   2.239   7.937 -0.4657 -0.3956 -0.4837
   19MOL0     H 2620   4.416   2.130   7.812  1.5576  0.8094 -0.4916
   19MOL0     H 2621   4.278   2.223   7.777  0.1388 -3.4740  2.9936
   19MOL0     H 2622   4.427   2.202   7.667 -0.3772 -1.2390  0.0502
   20MOL0     O 2623   5.732   3.688   2.479  0.2288 -0.0289  0.5779
   20MOL0     C 2624   5.628   3.750   2.468 -0.1599 -0.2446 -1.1312
   20MOL0     O 2625   5.584   3.849   2.557  0.0791 -0.5830 -1.7299
   20MOL0     C 2626   5.681   3.904   2.639  0.9138 -0.0658  0.5273
   20MOL0     C 2627   5.746   3.829   2.745  0.4096 -0.1035  0.1983
   20MOL0     C 2628   5.846   3.892   2.819  0.0803 -0.4865 -0.4064
   20MOL0     C 2629   5.886   4.031   2.800 -0.3201  0.7921 -0.1191
   20MOL0     O 2630   5.976   4.084   2.886 -0.4153 -0.5846  0.0185
   20MOL0     C 2631   5.969   4.228   2.910  0.5145  0.2482 -0.0381
   20MOL0     C 2632   6.049   4.259   3.027  0.5241 -0.2204 -0.3692
   20MOL0     C 2633   6.200   4.261   2.988  0.9657 -0.2512 -0.1879
   20MOL0     C 2634   6.283   4.329   3.089 -0.1038 -0.3471  0.2778
   20MOL0     C 2635   6.436   4.353   3.063  0.0316  0.0986  0.3321
   20MOL0     C 2636   6.475   4.438   2.932  0.1839  0.7841 -0.7608
   20MOL0     C 2637   6.470   4.358   2.801  0.0835  1.1502 -0.4134
   20MOL0     C 2638   6.593   4.281   2.769  0.4533 -0.3213 -0.0464
   20MOL0     N 2639   6.709   4.358   2.733  0.2274 -0.1843  0.9132
   20MOL0     C 2640   6.731   4.434   2.618  0.3939  0.8226 -0.6660
   20MOL0     C 2641   6.853   4.482   2.644  0.8771 -0.4894  0.1954
   20MOL0     C 2642   6.916   4.594   2.561 -0.4404  0.9384 -0.3945
   20MOL0     C 2643   6.991   4.699   2.653 -0.0178 -0.1589  0.2629
   20MOL0     C 2644   7.098   4.787   2.577  0.5323  0.1958 -0.3486
   20MOL0     C 2645   7.192   4.851   2.678  0.2651  0.3828 -0.7237
   20MOL0     O 2646   7.260   4.758   2.762  0.3128  0.4509 -0.7028
   20MOL0     C 2647   7.359   4.790   2.856 -0.3530 -0.7198 -0.5030
   20MOL0     C 2648   7.390   4.925   2.890  0.4043 -0.2801 -0.2013
   20MOL0     C 2649   7.493   4.953   2.977 -1.0193  0.7597 -0.2110
   20MOL0     C 2650   7.519   5.082   3.031  0.7273 -0.8888  0.0251
   20MOL0     C 2651   7.579   4.841   3.015  0.4056 -0.7242  0.4053
   20MOL0     C 2652   7.700   4.861   3.101  1.0681  0.3987  0.8180
   20MOL0     O 2653   7.823   4.820   3.053 -0.4557  0.0278  0.0655
   20MOL0     C 2654   7.927   4.818   3.147  0.1692 -0.2899 -0.0759
   20MOL0     C 2655   7.957   4.711   3.225 -0.4611  0.4951 -0.2363
   20MOL0     C 2656   8.057   4.738   3.315  0.2750  0.7520 -0.0448
   20MOL0     C 2657   8.124   4.854   3.329  1.5243 -0.5351  0.3665
   20MOL0     O 2658   8.232   4.872   3.413  1.1278 -0.1318  0.4539
   20MOL0     C 2659   8.326   4.759   3.452 -0.5168  1.1601 -0.6678
   20MOL0     C 2660   8.471   4.801   3.447 -0.0113 -0.5875 -0.9176
   20MOL0     C 2661   8.561   4.667   3.430  0.3226 -0.3045 -0.1707
   20MOL0     C 2662   8.710   4.702   3.409  0.1152 -0.1926  0.3941
   20MOL0     C 2663   8.796   4.572   3.393  0.6967  0.4839 -0.0457
   20MOL0     C 2664   8.942   4.617   3.400 -1.0237  0.1164 -0.4627
   20MOL0     C 2665   9.050   4.522   3.354 -0.4323 -0.0814  0.2216
   20MOL0     C 2666   9.058   4.398   3.442  0.1610 -0.3434 -0.3685
   20MOL0    Cl 2667   9.069   4.455   3.621 -0.1171 -0.3421  0.3963
   20MOL0     C 2668   8.082   4.958   3.249  0.0560  0.8827  0.6065
   20MOL0     C 2669   7.984   4.941   3.151 -0.4451  0.4353 -1.1384
   20MOL0     O 2670   7.679   4.908   3.211 -0.1944 -0.2953 -0.7218
   20MOL0     C 2671   7.559   4.714   2.962  0.2444  0.4199  0.7025
   20MOL0     C 2672   7.443   4.685   2.890  0.1819 -0.9152 -0.1929
   20MOL0     N 2673   6.888   4.442   2.772 -0.4469 -0.3439 -0.8705
   20MOL0     N 2674   6.799   4.373   2.824 -0.2374 -0.1607 -0.4672
   20MOL0     C 2675   5.806   4.106   2.706  0.9151  0.7042 -0.5603
   20MOL0     C 2676   5.719   4.036   2.624 -0.4907 -0.9115  0.0674
   20MOL0     C 2677   5.538   3.720   2.355  0.0217 -0.4838 -1.1066
   20MOL0     C 2678   5.452   3.824   2.311 -0.5384  0.5450 -0.0791
   20MOL0     C 2679   5.353   3.811   2.207 -0.1687  0.9051 -0.5048
   20MOL0     C 2680   5.357   3.696   2.127  0.2366 -0.1779 -0.1189
   20MOL0     O 2681   5.278   3.676   2.019 -0.2768  0.1505 -0.5837
   20MOL0     C 2682   5.276   3.767   1.912 -0.1569 -0.2661  0.5695
   20MOL0     C 2683   5.243   3.695   1.783 -0.4784 -0.2333 -1.1030
   20MOL0     C 2684   5.137   3.770   1.702  0.1684 -0.3729  0.3495
   20MOL0     C 2685   4.994   3.738   1.762  0.7233  0.7349  0.3641
   20MOL0     C 2686   4.887   3.790   1.666 -0.4871 -0.2427 -0.4725
   20MOL0     C 2687   4.792   3.828   1.600 -0.1214  0.9765 -0.7741
   20MOL0     C 2688   5.445   3.593   2.176 -0.6916  0.9566  1.3068
   20MOL0     C 2689   5.531   3.601   2.286 -0.5568  0.2227  0.1773
   20MOL0     C 2690   5.605   3.478   2.330  0.1638 -0.0551  0.7017
   20MOL0     H 2691   5.711   3.730   2.774  2.3641 -0.8776  0.0623
   20MOL0     H 2692   5.891   3.827   2.893 -1.3787 -0.5379  0.4819
   20MOL0     H 2693   5.864   4.245   2.933 -0.3965 -2.8587 -1.4065
   20MOL0     H 2694   5.997   4.296   2.830 -2.1425  1.6862  0.1792
   20MOL0     H 2695   6.019   4.361   3.053  0.4050 -0.9639  2.8082
   20MOL0     H 2696   6.025   4.189   3.108 -1.4287  0.5078 -0.2512
   20MOL0     H 2697   6.243   4.161   2.983  0.9377 -0.2223 -1.2801
   20MOL0     H 2698   6.212   4.316   2.893  3.1137  1.1364  0.8159
   20MOL0     H 2699   6.230   4.425   3.097 -0.3723 -0.2807 -1.7466
   20MOL0     H 2700   6.275   4.285   3.189 -0.9412  1.2054  0.9356
   20MOL0     H 2701   6.496   4.262   3.066  1.0378  0.7582  2.2083
   20MOL0     H 2702   6.457   4.398   3.161 -1.0333  0.1595  0.5389
   20MOL0     H 2703   6.411   4.526   2.935  1.8082  1.9938 -0.4140
   20MOL0     H 2704   6.577   4.470   2.955 -0.0434 -0.7746  3.3797
   20MOL0     H 2705   6.441   4.422   2.717 -3.2591  0.0374 -0.2623
   20MOL0     H 2706   6.388   4.287   2.800 -0.4744  1.5723 -4.7493
   20MOL0     H 2707   6.633   4.210   2.842  0.9063  0.9150  0.9408
   20MOL0     H 2708   6.565   4.222   2.682 -2.9680  0.6907  0.2337
   20MOL0     H 2709   6.668   4.467   2.536  0.4357  3.8642  0.3919
   20MOL0     H 2710   6.842   4.642   2.496 -1.2962 -1.6469 -1.4830
   20MOL0     H 2711   6.990   4.556   2.489 -0.4594  1.0219 -0.4595
   20MOL0     H 2712   6.925   4.766   2.709  1.6253  3.9202 -2.2474
   20MOL0     H 2713   7.050   4.636   2.721  0.7337  1.0163  0.7230
   20MOL0     H 2714   7.157   4.716   2.519 -0.1453  0.8792 -1.9127
   20MOL0     H 2715   7.047   4.856   2.509  0.5611  1.7514  1.1100
   20MOL0     H 2716   7.261   4.912   2.619 -0.6355  0.1775 -2.0334
   20MOL0     H 2717   7.124   4.913   2.738 -4.9111 -1.7449 -3.6670
   20MOL0     H 2718   7.331   5.004   2.846 -0.9321 -1.2188 -0.1711
   20MOL0     H 2719   7.494   5.086   3.137  1.0351  1.4940  0.0651
   20MOL0     H 2720   7.462   5.157   2.974  0.8470 -0.8018  0.0201
   20MOL0     H 2721   7.622   5.116   3.022  0.1631  0.5628 -1.7196
   20MOL0     H 2722   7.899   4.620   3.213  0.0773  0.1104  0.0429
   20MOL0     H 2723   8.088   4.654   3.376  0.2472  2.6857  2.8273
   20MOL0     H 2724   8.300   4.733   3.555  2.0727 -0.7110 -0.3667
   20MOL0     H 2725   8.304   4.667   3.398  1.3098  0.3823 -0.1815
   20MOL0     H 2726   8.503   4.860   3.361 -1.4068 -0.0974 -1.1160
   20MOL0     H 2727   8.504   4.852   3.537  2.2616 -0.9994 -1.4448
   20MOL0     H 2728   8.538   4.614   3.338  3.3281  2.1355 -2.5626
   20MOL0     H 2729   8.547   4.603   3.518 -4.1927 -0.3828 -0.7061
   20MOL0     H 2730   8.743   4.763   3.493  0.3522  1.2378 -0.7086
   20MOL0     H 2731   8.708   4.749   3.310  3.0695 -1.7490 -0.5169
   20MOL0     H 2732   8.790   4.500   3.475  1.4514  3.1294  2.5368
   20MOL0     H 2733   8.767   4.534   3.295 -4.4177 -0.0367  1.3940
   20MOL0     H 2734   8.962   4.656   3.500 -0.3755 -2.6336  0.5505
   20MOL0     H 2735   8.959   4.707   3.340  2.7288  0.4848  0.8925
   20MOL0     H 2736   9.148   4.570   3.363 -0.0068 -1.1788  1.9713
   20MOL0     H 2737   9.039   4.502   3.247  0.1959  2.2719 -0.3395
   20MOL0     H 2738   9.151   4.341   3.431  0.9532 -0.1769  3.7625
   20MOL0     H 2739   8.981   4.321   3.432 -0.3391  0.4352 -4.2388
   20MOL0     H 2740   8.149   5.037   3.281  3.3526 -0.5972 -1.9814
   20MOL0     H 2741   7.954   5.018   3.080  0.9715 -0.3777 -2.7046
   20MOL0     H 2742   7.627   4.637   2.996  2.1054  1.9969  0.6727
   20MOL0     H 2743   7.421   4.584   2.857  0.5518 -0.8055 -0.7805
   20MOL0     H 2744   5.805   4.214   2.704 -1.5939  0.7306 -0.7554
   20MOL0     H 2745   5.663   4.087   2.546  1.8799  1.0391 -0.5245
   20MOL0     H 2746   5.456   3.916   2.368  2.5642  0.3475  0.1531
   20MOL0     H 2747   5.291   3.896   2.181  1.7382  2.4640 -0.1596
   20MOL0     H 2748   5.210   3.851   1.936  1.5696  1.3067  0.0426
   20MOL0     H 2749   5.368   3.823   1.895 -0.7901  0.6289  0.0168
   20MOL0     H 2750   5.209   3.595   1.813 -1.4690 -0.1917 -2.0104
   20MOL0     H 2751   5.336   3.697   1.725 -0.9807 -0.3224 -1.9351
   20MOL0     H 2752   5.140   3.879   1.696  0.5145 -0.4685 -2.3666
   20MOL0     H 2753   5.135   3.736   1.598  0.1737 -1.2799  0.6289
   20MOL0     H 2754   4.976   3.791   1.856 -0.6204  2.3087 -0.7175
   20MOL0     H 2755   4.975   3.631   1.777 -1.5270  1.1544  0.8590
   20MOL0     H 2756   4.706   3.857   1.545 -0.1407 -0.3621 -1.4852
   20MOL0     H 2757   5.426   3.506   2.115  1.6656  0.6719  0.8977
   20MOL0     H 2758   5.550   3.391   2.290  2.0887 -1.1750  0.3655
   20MOL0     H 2759   5.709   3.482   2.298  0.0927 -2.0859  0.0500
   20MOL0     H 2760   5.607   3.474   2.439 -2.3764 -0.4020  0.7961
   21MOL0     O 2761   5.138  10.995  10.897  0.2242 -0.6962 -0.4433
   21MOL0     C 2762   5.252  11.033  10.938 -0.2623  0.0521 -1.2143
   21MOL0     O 2763   5.289  11.034  11.072  0.3905  0.4178  0.1420
   21MOL0     C 2764   5.194  11.012  11.169 -0.3756 -0.3966 -0.4631
   21MOL0     C 2765   5.134  10.884  11.190 -0.3964 -1.2292 -0.1221
   21MOL0     C 2766   5.047  10.864  11.293  0.0184 -0.6476 -0.1211
   21MOL0     C 2767   5.004  10.968  11.377 -0.2312  0.5454  0.6494
   21MOL0     O 2768   4.904  10.950  11.465  0.0489 -0.9955 -0.0973
   21MOL0     C 2769   4.797  11.046  11.460  0.0135  0.2433 -0.5391
   21MOL0     C 2770   4.716  11.046  11.331  0.0070  0.9886  0.0608
   21MOL0     C 2771   4.652  10.908  11.305 -0.5452 -0.2681  0.4835
   21MOL0     C 2772   4.594  10.902  11.172 -0.0855  0.2475  0.5257
   21MOL0     C 2773   4.695  10.867  11.058  0.0194 -0.0451  1.3152
   21MOL0     C 2774   4.762  10.732  11.070  0.4826  0.0271 -0.0674
   21MOL0     C 2775   4.815  10.681  10.932  0.1148 -0.2838 -0.1593
   21MOL0     C 2776   4.900  10.785  10.863 -0.2343 -0.4130  0.3340
   21MOL0     N 2777   4.844  10.839  10.739 -0.2716 -0.3332  0.3465
   21MOL0     C 2778   4.850  10.969  10.697 -0.4113 -0.1785 -0.3452
   21MOL0     C 2779   4.779  10.971  10.580 -0.4026  0.7398  0.0856
   21MOL0     C 2780   4.743  11.092  10.501  0.7645 -0.5226  0.5528
   21MOL0     C 2781   4.805  11.081  10.362  0.4648  0.0868  0.5292
   21MOL0     C 2782   4.953  11.124  10.370 -0.1931  0.1638  0.4810
   21MOL0     C 2783   5.022  11.159  10.238 -0.1029  0.0638  0.4925
   21MOL0     O 2784   5.141  11.227  10.253 -0.5448 -0.3024  0.2065
   21MOL0     C 2785   5.200  11.284  10.142  0.4540 -0.2702 -0.1825
   21MOL0     C 2786   5.314  11.362  10.163 -1.0395  0.1385 -0.5150
   21MOL0     C 2787   5.383  11.418  10.049 -0.3268 -0.0146  0.6388
   21MOL0     C 2788   5.505  11.511  10.075 -0.2566  0.6211  0.1627
   21MOL0     C 2789   5.343  11.384   9.915  0.7468  0.2530 -0.3149
   21MOL0     C 2790   5.411  11.433   9.801 -0.1806 -0.3812 -0.0655
   21MOL0     O 2791   5.421  11.572   9.808 -0.3171 -0.2967 -0.0738
   21MOL0     C 2792   5.478  11.639   9.705 -0.2487  0.3011  0.4702
   21MOL0     C 2793   5.442  11.613   9.569  0.1598 -0.2992 -1.1360
   21MOL0     C 2794   5.515  11.670   9.465 -0.1320  0.3299 -0.4029
   21MOL0     C 2795   5.612  11.761   9.492  0.1871  0.5706  0.1446
   21MOL0     O 2796   5.671  11.810   9.382 -0.4178 -0.6549 -0.9611
   21MOL0     C 2797   5.756  11.924   9.393  0.1687 -0.3564  0.1011
   21MOL0     C 2798   5.821  11.963   9.265 -0.8002  0.2001 -0.0686
   21MOL0     C 2799   5.726  12.055   9.191 -0.4986  0.4954  0.2171
   21MOL0     C 2800   5.791  12.078   9.055 -0.5372  0.2751 -0.7889
   21MOL0     C 2801   5.690  12.157   8.976 -0.2838 -0.1022 -0.1595
   21MOL0     C 2802   5.760  12.196   8.847 -0.4280 -0.1598  1.2551
   21MOL0     C 2803   5.673  12.260   8.734 -0.0232 -0.8674 -0.7500
   21MOL0     C 2804   5.588  12.369   8.792 -1.0608  0.4105  0.2322
   21MOL0    Cl 2805   5.431  12.294   8.839 -0.4021 -0.3522  0.3325
   21MOL0     C 2806   5.651  11.782   9.622 -0.0536 -0.8507 -0.3896
   21MOL0     C 2807   5.588  11.727   9.730  0.7298 -0.6826  0.0120
   21MOL0     O 2808   5.469  11.356   9.718  0.6036  0.1433  0.4017
   21MOL0     C 2809   5.230  11.299   9.905  0.4895 -0.9611 -0.9553
   21MOL0     C 2810   5.154  11.256  10.011  0.0044  0.5911  0.3585
   21MOL0     N 2811   4.742  10.844  10.546  0.0676 -0.9322 -0.4658
   21MOL0     N 2812   4.791  10.767  10.636 -1.0080  0.4808 -0.0066
   21MOL0     C 2813   5.050  11.092  11.339  0.5821 -0.1956 -0.5781
   21MOL0     C 2814   5.147  11.121  11.247  0.1782  0.6509  0.2579
   21MOL0     C 2815   5.359  11.090  10.849  1.4970  0.0281 -0.3153
   21MOL0     C 2816   5.491  11.105  10.902 -1.3822  0.3443  0.3470
   21MOL0     C 2817   5.601  11.143  10.818 -0.7633 -0.5759  0.2604
   21MOL0     C 2818   5.575  11.171  10.685  0.1558  0.3790  1.1919
   21MOL0     O 2819   5.668  11.229  10.609 -0.5753 -0.5215  0.2381
   21MOL0     C 2820   5.811  11.206  10.640 -0.0305  0.2992 -0.0000
   21MOL0     C 2821   5.892  11.219  10.502  0.1763 -0.1731  1.0571
   21MOL0     C 2822   6.040  11.218  10.533  0.4347 -0.4285 -0.7282
   21MOL0     C 2823   6.138  11.228  10.420 -0.1971 -0.1395  0.2323
   21MOL0     C 2824   6.156  11.354  10.367 -1.1187 -0.4314  0.3967
   21MOL0     C 2825   6.186  11.465  10.328  0.2117  0.2227 -0.4149
   21MOL0     C 2826   5.449  11.137  10.630  0.1058 -0.4612  0.2178
   21MOL0     C 2827   5.341  11.106  10.718 -0.6949 -0.1654  0.6431
   21MOL0     C 2828   5.207  11.107  10.654 -0.3177  1.0132 -0.3002
   21MOL0     H 2829   5.164  10.810  11.116  0.2451  0.3727 -1.5489
   21MOL0     H 2830   4.995  10.772  11.318  0.3348 -0.8439 -0.1771
   21MOL0     H 2831   4.843  11.140  11.490  1.0811 -1.0555  2.2355
   21MOL0     H 2832   4.731  11.007  11.538  1.6062 -1.2326  0.1391
   21MOL0     H 2833   4.634  11.119  11.329 -1.4176 -0.4488  2.2952
   21MOL0     H 2834   4.786  11.063  11.249 -0.8370  1.3331 -0.6034
   21MOL0     H 2835   4.718  10.822  11.316 -3.7147 -2.8683  0.7508
   21MOL0     H 2836   4.568  10.888  11.373 -1.1970 -1.4033 -0.6082
   21MOL0     H 2837   4.514  10.827  11.179  0.4086 -0.5446 -1.4473
   21MOL0     H 2838   4.544  10.993  11.136  0.6464 -0.8063 -3.7999
   21MOL0     H 2839   4.765  10.949  11.040 -0.0753 -0.1687  0.3540
   21MOL0     H 2840   4.630  10.851  10.972  0.5876  1.2738  0.6118
   21MOL0     H 2841   4.839  10.744  11.148 -0.8478 -0.5033  1.3840
   21MOL0     H 2842   4.695  10.658  11.115  0.9663 -0.0672  0.5203
   21MOL0     H 2843   4.736  10.649  10.864 -2.3795  0.7596  2.0407
   21MOL0     H 2844   4.878  10.594  10.952 -0.8284 -1.1436 -0.8539
   21MOL0     H 2845   4.923  10.865  10.935 -1.4424  0.4918 -0.2527
   21MOL0     H 2846   4.998  10.744  10.835  1.8113  2.8672  2.0591
   21MOL0     H 2847   4.912  11.049  10.737  0.8946 -1.5181  0.3676
   21MOL0     H 2848   4.775  11.182  10.555 -0.4154  0.0583  0.3274
   21MOL0     H 2849   4.634  11.097  10.494  0.6609 -1.6109  1.1798
   21MOL0     H 2850   4.799  10.977  10.330 -2.8155  0.4751 -0.4278
   21MOL0     H 2851   4.741  11.137  10.294  1.5990 -0.3890 -0.9871
   21MOL0     H 2852   4.959  11.211  10.436 -0.6031  0.4788  0.1074
   21MOL0     H 2853   5.009  11.047  10.424  1.8259 -1.2111 -3.2402
   21MOL0     H 2854   5.027  11.061  10.191  0.7743  0.0536  0.5956
   21MOL0     H 2855   4.955  11.221  10.179  1.1141  1.9207  0.9666
   21MOL0     H 2856   5.359  11.379  10.260  3.7318  2.9218 -2.8402
   21MOL0     H 2857   5.524  11.506  10.182  0.1389 -3.8811  0.0953
   21MOL0     H 2858   5.493  11.614  10.042 -1.8333  0.1667 -0.8168
   21MOL0     H 2859   5.584  11.455  10.024 -1.7030 -0.5653 -0.8734
   21MOL0     H 2860   5.376  11.528   9.562 -1.9212  0.4902  4.2805
   21MOL0     H 2861   5.498  11.646   9.361 -1.5908  1.9634 -0.6056
   21MOL0     H 2862   5.706  12.008   9.442 -2.1456 -0.9370 -1.1157
   21MOL0     H 2863   5.840  11.891   9.455  2.3850  4.4600  0.1872
   21MOL0     H 2864   5.906  12.022   9.299 -2.0342  1.4566  0.9723
   21MOL0     H 2865   5.860  11.876   9.212  0.7762  1.7431 -1.5535
   21MOL0     H 2866   5.685  12.141   9.244 -0.6027 -1.1623  3.0340
   21MOL0     H 2867   5.635  11.996   9.179  0.1179 -0.2200 -1.2847
   21MOL0     H 2868   5.800  11.984   9.000 -2.0747  1.0236 -2.3933
   21MOL0     H 2869   5.894  12.114   9.060 -0.6249  0.5376 -0.8754
   21MOL0     H 2870   5.608  12.095   8.939  0.7711  0.0172 -2.9526
   21MOL0     H 2871   5.660  12.239   9.041  1.3148  0.1923  0.2560
   21MOL0     H 2872   5.807  12.104   8.812 -1.1680 -0.2421  0.4399
   21MOL0     H 2873   5.846  12.262   8.864 -0.2390 -0.0471 -0.0560
   21MOL0     H 2874   5.610  12.179   8.698  0.3486 -1.9358  0.8882
   21MOL0     H 2875   5.742  12.298   8.658 -0.0428  2.2487  0.6472
   21MOL0     H 2876   5.576  12.438   8.708 -1.2398 -0.6608 -0.6402
   21MOL0     H 2877   5.648  12.407   8.875  2.0876 -2.9241 -0.2809
   21MOL0     H 2878   5.738  11.841   9.647 -0.6808  0.3618 -0.9841
   21MOL0     H 2879   5.631  11.729   9.830  0.3461 -3.5151  0.3344
   21MOL0     H 2880   5.211  11.254   9.808  1.8406  1.6305 -2.5208
   21MOL0     H 2881   5.070  11.193   9.983  2.6228 -3.0659 -0.0285
   21MOL0     H 2882   5.011  11.172  11.402 -3.3430 -0.6654 -2.0954
   21MOL0     H 2883   5.180  11.224  11.231  2.6593 -0.3881 -2.2638
   21MOL0     H 2884   5.513  11.078  11.005 -1.5830 -2.9082 -0.3499
   21MOL0     H 2885   5.699  11.158  10.863 -1.4532  2.0007  1.0661
   21MOL0     H 2886   5.833  11.281  10.716  1.1039 -2.2641  2.3528
   21MOL0     H 2887   5.832  11.106  10.679 -0.7636  1.3230  3.2720
   21MOL0     H 2888   5.859  11.307  10.447  1.3235  1.0601  2.2634
   21MOL0     H 2889   5.866  11.139  10.432 -0.3886  1.8287 -1.1691
   21MOL0     H 2890   6.063  11.302  10.600 -0.2975 -1.0635  0.3426
   21MOL0     H 2891   6.065  11.120  10.574  0.1390  0.1625  0.9730
   21MOL0     H 2892   6.104  11.163  10.339 -0.3052 -1.2425  1.1407
   21MOL0     H 2893   6.233  11.184  10.452  0.1841  1.4739  1.4581
   21MOL0     H 2894   6.202  11.563  10.290 -0.8026  0.4621 -0.2536
   21MOL0     H 2895   5.441  11.148  10.523 -1.2434  1.7811  0.4726
   21MOL0     H 2896   5.217  11.153  10.555 -0.9786 -1.4819 -1.6107
   21MOL0     H 2897   5.164  11.007  10.643  3.0214 -0.9997  2.8517
   21MOL0     H 2898   5.127  11.162  10.705 -0.5082  3.1936 -2.7216
   22MOL0     O 2899   9.434   7.008  10.347 -0.0188  1.2532 -0.4656
   22MOL0     C 2900   9.349   7.049  10.272 -0.1176  0.6220  0.4779
   22MOL0     O 2901   9.241   6.975  10.227 -0.2572  0.0409  0.1942
   22MOL0     C 2902   9.205   6.853  10.272  0.2262 -0.1301  0.2332
   22MOL0     C 2903   9.248   6.737  10.210 -1.5767 -0.5230  0.3372
   22MOL0     C 2904   9.211   6.611  10.257  0.5954 -0.0683 -0.2807
   22MOL0     C 2905   9.137   6.603  10.381  0.3151  0.1159 -0.1874
   22MOL0     O 2906   9.122   6.474  10.432 -0.0096 -0.1495  1.0368
   22MOL0     C 2907   9.165   6.458  10.569 -0.1762 -0.5990  0.1814
   22MOL0     C 2908   9.306   6.463  10.581 -0.2682  0.1797  0.1696
   22MOL0     C 2909   9.364   6.444  10.720  0.2564  0.1240  0.0718
   22MOL0     C 2910   9.469   6.553  10.760  0.0658 -0.0040 -0.1456
   22MOL0     C 2911   9.556   6.522  10.878  0.8444  0.0800  0.5932
   22MOL0     C 2912   9.663   6.626  10.896  0.6461 -0.4676  0.0745
   22MOL0     C 2913   9.747   6.596  11.019  0.5293 -0.0940  0.2634
   22MOL0     C 2914   9.867   6.680  11.032 -0.2922 -0.3417 -0.0408
   22MOL0     N 2915   9.991   6.594  11.001 -0.4189  0.6191 -0.6276
   22MOL0     C 2916  10.029   6.497  11.098  0.7515  0.5348 -0.2894
   22MOL0     C 2917  10.123   6.422  11.037  0.2053 -0.2402  0.7522
   22MOL0     C 2918  10.197   6.309  11.100 -0.7242  0.0841  0.2852
   22MOL0     C 2919  10.204   6.315  11.257  0.6741 -0.2709  0.7680
   22MOL0     C 2920  10.284   6.188  11.318  0.6366  0.8979  0.1030
   22MOL0     C 2921  10.430   6.172  11.266  0.4273 -0.9600 -0.0057
   22MOL0     O 2922  10.457   6.035  11.301 -0.5457 -0.6644 -0.0887
   22MOL0     C 2923  10.566   5.982  11.241  0.2924  0.1782 -0.4466
   22MOL0     C 2924  10.685   5.991  11.307  0.3698 -0.6187  0.0473
   22MOL0     C 2925  10.792   5.905  11.275  0.5733  0.4123  0.9614
   22MOL0     C 2926  10.921   5.913  11.355  0.3504  1.0078 -0.4166
   22MOL0     C 2927  10.779   5.816  11.164  0.8027 -0.0104  0.6072
   22MOL0     C 2928  10.879   5.721  11.112 -0.5038 -0.5411  0.0405
   22MOL0     O 2929  10.881   5.725  10.977 -0.0675  0.9429 -0.2967
   22MOL0     C 2930  11.004   5.717  10.923 -0.5039  0.3418 -1.0162
   22MOL0     C 2931  11.079   5.834  10.926  0.5829 -0.2950  0.2607
   22MOL0     C 2932  11.203   5.843  10.855  0.5148 -0.7165  0.1990
   22MOL0     C 2933  11.256   5.729  10.790  0.2968  0.1997 -0.9115
   22MOL0     O 2934  11.374   5.725  10.724 -1.1953 -0.9817  0.4440
   22MOL0     C 2935  11.485   5.825  10.735  0.2772 -0.0719  1.2498
   22MOL0     C 2936  11.609   5.762  10.653  0.2395  0.3236 -0.6352
   22MOL0     C 2937  11.666   5.641  10.730  0.0857 -0.1192  0.1610
   22MOL0     C 2938  11.777   5.569  10.650 -0.4156  0.5137  0.0137
   22MOL0     C 2939  11.811   5.434  10.718  0.5299 -0.5008 -0.4863
   22MOL0     C 2940  11.923   5.369  10.644 -0.8412  0.8619  0.1701
   22MOL0     C 2941  11.982   5.250  10.723  0.8998 -0.5929 -0.4668
   22MOL0     C 2942  12.082   5.179  10.635  0.2466  0.1669 -0.7233
   22MOL0    Cl 2943  12.192   5.085  10.742 -0.1112  0.6968 -0.2691
   22MOL0     C 2944  11.181   5.613  10.791 -0.0303  0.0482 -0.2569
   22MOL0     C 2945  11.050   5.607  10.856 -0.2750 -0.1947 -0.3413
   22MOL0     O 2946  10.946   5.645  11.182 -0.5387  0.0041  0.1091
   22MOL0     C 2947  10.649   5.802  11.107 -0.3437  0.0929 -0.8106
   22MOL0     C 2948  10.552   5.890  11.134 -0.0340 -0.0835  1.0049
   22MOL0     N 2949  10.141   6.475  10.907 -0.0456  0.6883 -1.2474
   22MOL0     N 2950  10.055   6.572  10.887  0.9496  0.5094  0.8191
   22MOL0     C 2951   9.097   6.717  10.449  0.1237 -0.4217  0.1586
   22MOL0     C 2952   9.123   6.842  10.388  0.1692  0.1421 -0.4755
   22MOL0     C 2953   9.371   7.183  10.224 -0.3452 -0.5335  0.1039
   22MOL0     C 2954   9.309   7.218  10.097  0.5475 -0.1490 -1.1127
   22MOL0     C 2955   9.329   7.346  10.040 -0.4536  1.3515 -0.1579
   22MOL0     C 2956   9.420   7.435  10.102  0.5615  0.4552  0.3107
   22MOL0     O 2957   9.445   7.546  10.018 -0.6507 -0.5162 -0.5748
   22MOL0     C 2958   9.540   7.644  10.055 -0.0278  0.7442  0.3500
   22MOL0     C 2959   9.460   7.745  10.128 -0.4836  0.2402 -0.9206
   22MOL0     C 2960   9.544   7.858  10.191  0.0672 -0.6605 -0.3648
   22MOL0     C 2961   9.455   7.972  10.245 -1.0513 -0.0848  0.2967
   22MOL0     C 2962   9.534   8.084  10.291  0.3423  0.6678  0.0481
   22MOL0     C 2963   9.599   8.179  10.326 -0.5135 -0.2424  0.2885
   22MOL0     C 2964   9.481   7.403  10.219  0.6109 -1.4330 -0.9654
   22MOL0     C 2965   9.461   7.281  10.283 -0.3181  0.5925  0.0132
   22MOL0     C 2966   9.532   7.252  10.414  0.1206  0.2586  0.0508
   22MOL0     H 2967   9.324   6.754  10.134  2.4164  1.2596  4.2668
   22MOL0     H 2968   9.238   6.512  10.222 -1.9178 -1.6565  1.8510
   22MOL0     H 2969   9.132   6.366  10.619  1.4867 -1.2922  0.0718
   22MOL0     H 2970   9.134   6.545  10.627 -2.0861 -1.2953  0.2747
   22MOL0     H 2971   9.354   6.398  10.507  1.2972 -1.3292  2.4206
   22MOL0     H 2972   9.329   6.561  10.539 -4.2278  2.9038  3.5465
   22MOL0     H 2973   9.292   6.452  10.802 -0.8450 -0.7027 -0.7689
   22MOL0     H 2974   9.419   6.350  10.719  3.5869  1.9202 -1.4214
   22MOL0     H 2975   9.542   6.568  10.679 -0.1335  1.5556 -0.0564
   22MOL0     H 2976   9.424   6.649  10.783  2.9217  1.4189 -0.0418
   22MOL0     H 2977   9.604   6.424  10.886  0.9610  0.2754  3.4515
   22MOL0     H 2978   9.488   6.534  10.963 -2.4631  0.2366 -1.9180
   22MOL0     H 2979   9.721   6.631  10.803 -0.0960 -1.5816 -0.4692
   22MOL0     H 2980   9.604   6.718  10.903  0.9657 -0.2542  0.0121
   22MOL0     H 2981   9.762   6.487  11.024 -4.1026 -0.9041  0.8995
   22MOL0     H 2982   9.677   6.623  11.099 -0.8106  0.9878 -1.2033
   22MOL0     H 2983   9.857   6.768  10.968  1.2300  1.0612  1.5697
   22MOL0     H 2984   9.880   6.730  11.128  2.2495  2.3191 -1.6186
   22MOL0     H 2985   9.987   6.483  11.197  1.2843 -0.7647 -0.2298
   22MOL0     H 2986  10.301   6.317  11.068 -0.5812 -0.9352  0.4722
   22MOL0     H 2987  10.145   6.217  11.073  0.3005 -0.3912 -0.0978
   22MOL0     H 2988  10.259   6.409  11.266  3.1055 -1.2138 -2.4662
   22MOL0     H 2989  10.109   6.321  11.310  1.0018 -1.4228  1.5401
   22MOL0     H 2990  10.286   6.190  11.427 -6.1891  2.0132  0.6460
   22MOL0     H 2991  10.229   6.098  11.288  1.4426  0.1335  0.8898
   22MOL0     H 2992  10.438   6.186  11.158 -2.7264 -0.5653 -0.2832
   22MOL0     H 2993  10.495   6.245  11.314  0.1872  0.0624 -1.1846
   22MOL0     H 2994  10.700   6.064  11.386  0.4687  0.7658 -1.1995
   22MOL0     H 2995  11.014   5.903  11.298  0.9213  4.2387 -0.2867
   22MOL0     H 2996  10.904   5.837  11.432 -1.3766  1.5954 -0.1787
   22MOL0     H 2997  10.931   6.003  11.417  1.2796 -0.1482  1.2111
   22MOL0     H 2998  11.052   5.926  10.978  0.7260  1.1038 -1.9986
   22MOL0     H 2999  11.250   5.941  10.846 -0.2578 -0.3614 -0.0844
   22MOL0     H 3000  11.441   5.907  10.677 -2.0312 -0.2671  2.5825
   22MOL0     H 3001  11.516   5.867  10.831  2.2759  2.1393 -0.2393
   22MOL0     H 3002  11.573   5.728  10.555  0.7012 -2.3693  0.0563
   22MOL0     H 3003  11.691   5.834  10.645  1.3032 -0.9481 -1.3961
   22MOL0     H 3004  11.581   5.576  10.750 -2.2383  2.0058 -1.9865
   22MOL0     H 3005  11.703   5.692  10.820 -2.9376  4.8908 -1.0028
   22MOL0     H 3006  11.869   5.627  10.641  1.6011 -2.5713 -0.5097
   22MOL0     H 3007  11.739   5.529  10.556 -1.7318  0.5173  0.5243
   22MOL0     H 3008  11.823   5.470  10.820 -2.1944  0.7269 -0.5136
   22MOL0     H 3009  11.731   5.360  10.726  0.4282 -0.1743  3.0429
   22MOL0     H 3010  11.996   5.443  10.610  1.3800 -1.8997 -1.5204
   22MOL0     H 3011  11.891   5.328  10.547 -0.1048  2.5578 -0.8447
   22MOL0     H 3012  11.899   5.184  10.751 -1.5502  2.6478  0.5458
   22MOL0     H 3013  12.036   5.296  10.806 -0.4422  0.5498 -0.1875
   22MOL0     H 3014  12.146   5.249  10.580 -0.2740  0.4063 -1.0326
   22MOL0     H 3015  12.025   5.132  10.555  0.6381  3.2783 -3.0024
   22MOL0     H 3016  11.203   5.519  10.742 -1.2315  0.2611 -1.2447
   22MOL0     H 3017  10.992   5.516  10.852  1.8256 -1.5651 -0.9121
   22MOL0     H 3018  10.627   5.732  11.027 -3.3113 -0.4717  0.3879
   22MOL0     H 3019  10.457   5.873  11.085 -0.8167  2.0850  1.6663
   22MOL0     H 3020   9.034   6.710  10.537 -4.4274  1.8621 -2.5942
   22MOL0     H 3021   9.088   6.931  10.439 -2.7347 -1.2449  0.1972
   22MOL0     H 3022   9.236   7.155  10.048 -1.0277 -0.1266  1.0578
   22MOL0     H 3023   9.292   7.371   9.941  2.6457 -2.1706 -2.4598
   22MOL0     H 3024   9.625   7.617  10.119 -0.1700  0.3065  0.3609
   22MOL0     H 3025   9.594   7.696   9.976  1.1207  0.5935  1.0161
   22MOL0     H 3026   9.411   7.689  10.209 -1.9263 -2.0601 -3.2022
   22MOL0     H 3027   9.381   7.782  10.062 -2.8335  3.3628  3.2030
   22MOL0     H 3028   9.604   7.818  10.273  1.3737 -0.8124 -1.3619
   22MOL0     H 3029   9.617   7.894  10.117  1.0183  2.5005  1.8875
   22MOL0     H 3030   9.384   7.941  10.322  0.3058 -0.1557  1.5858
   22MOL0     H 3031   9.393   8.011  10.164  1.7611  3.0064 -0.5979
   22MOL0     H 3032   9.665   8.262  10.343 -1.4355  0.7077 -0.5784
   22MOL0     H 3033   9.561   7.461  10.265  0.6320 -1.8765 -0.4236
   22MOL0     H 3034   9.610   7.180  10.389  0.7908  0.4276  1.5529
   22MOL0     H 3035   9.579   7.339  10.462 -1.6350  1.4973 -0.3798
   22MOL0     H 3036   9.459   7.215  10.486 -0.9594  1.9448 -0.1237
   23MOL0     O 3037   5.011   9.381  10.512 -0.8393  0.4405  0.5792
   23MOL0     C 3038   4.954   9.449  10.599 -0.2314 -0.0587  0.8239
   23MOL0     O 3039   5.009   9.497  10.708 -0.1200  0.2569  0.2178
   23MOL0     C 3040   5.145   9.459  10.731  0.0958 -1.6859 -0.1274
   23MOL0     C 3041   5.245   9.524  10.654  0.7073  1.0514  0.5918
   23MOL0     C 3042   5.379   9.479  10.677 -0.3432 -1.0031  1.0267
   23MOL0     C 3043   5.410   9.398  10.775 -0.6112  1.1252 -0.0285
   23MOL0     O 3044   5.545   9.358  10.778  0.0376  0.0467  0.3103
   23MOL0     C 3045   5.584   9.239  10.851 -0.3299 -0.0597 -1.3214
   23MOL0     C 3046   5.716   9.180  10.796  0.1438 -0.1296 -0.9427
   23MOL0     C 3047   5.718   9.146  10.646 -0.3139 -0.8546  0.0267
   23MOL0     C 3048   5.674   9.007  10.610 -0.4558  0.5448  0.0266
   23MOL0     C 3049   5.529   8.967  10.651 -0.0211  0.1311 -0.7977
   23MOL0     C 3050   5.489   8.839  10.570 -0.0712 -0.1074 -0.2640
   23MOL0     C 3051   5.353   8.774  10.603 -0.1320  0.4806 -0.1500
   23MOL0     C 3052   5.317   8.652  10.524 -0.0327  1.0230 -0.9356
   23MOL0     N 3053   5.215   8.576  10.598  0.1786 -1.1057  0.4210
   23MOL0     C 3054   5.112   8.512  10.534  0.1244 -0.0703  0.0701
   23MOL0     C 3055   5.067   8.418  10.623  0.2313  0.0838 -0.6442
   23MOL0     C 3056   4.943   8.328  10.585 -0.0046 -0.1283  0.3005
   23MOL0     C 3057   4.809   8.398  10.616 -0.4258  0.4905 -1.5404
   23MOL0     C 3058   4.785   8.543  10.570  0.0638 -0.1803  0.5666
   23MOL0     C 3059   4.641   8.574  10.543  0.2548 -0.1365 -0.4032
   23MOL0     O 3060   4.580   8.490  10.448  0.8820 -0.5205 -0.5473
   23MOL0     C 3061   4.448   8.497  10.413 -0.3989 -0.4343 -0.3872
   23MOL0     C 3062   4.377   8.407  10.342 -0.3927  0.8761  1.4945
   23MOL0     C 3063   4.240   8.419  10.318  0.4116  0.3230 -0.4580
   23MOL0     C 3064   4.170   8.315  10.222 -0.1375  1.0081 -0.5143
   23MOL0     C 3065   4.177   8.539  10.364  0.5793  0.5325  0.7025
   23MOL0     C 3066   4.036   8.579  10.321 -0.5014 -0.2488 -0.3128
   23MOL0     O 3067   3.971   8.652  10.414 -0.1699 -0.6326  0.2359
   23MOL0     C 3068   3.845   8.694  10.387 -0.0137  0.8333  0.2680
   23MOL0     C 3069   3.817   8.828  10.409 -1.0196  0.0361 -0.8133
   23MOL0     C 3070   3.689   8.885  10.394  0.3803  0.2017  0.8401
   23MOL0     C 3071   3.596   8.802  10.340 -0.1645  0.2192  1.1157
   23MOL0     O 3072   3.470   8.845  10.310 -0.2667  0.1062 -0.1230
   23MOL0     C 3073   3.369   8.799  10.406 -0.7953 -0.2192 -0.1347
   23MOL0     C 3074   3.282   8.919  10.408  0.1239 -0.6148  0.4152
   23MOL0     C 3075   3.147   8.908  10.491 -0.0754 -0.1727  0.0796
   23MOL0     C 3076   3.169   8.941  10.636  0.3909  0.2077  0.2209
   23MOL0     C 3077   3.047   8.942  10.736  0.1473  0.1711  0.2661
   23MOL0     C 3078   3.099   8.909  10.887  0.3319  0.4255  0.1464
   23MOL0     C 3079   3.148   8.760  10.901  0.1610  0.0101 -0.1947
   23MOL0     C 3080   3.038   8.661  10.849  0.2115  0.4619 -0.8065
   23MOL0    Cl 3081   3.092   8.607  10.695  0.1873  0.2497  0.1749
   23MOL0     C 3082   3.621   8.673  10.300  0.4496 -0.1549 -0.0845
   23MOL0     C 3083   3.748   8.621  10.324  0.1022 -0.2387 -0.0044
   23MOL0     O 3084   4.001   8.559  10.203 -0.1528 -0.2743  0.4490
   23MOL0     C 3085   4.245   8.635  10.440  0.0930 -0.4317 -0.3981
   23MOL0     C 3086   4.376   8.611  10.464  0.4616  0.1911 -0.8328
   23MOL0     N 3087   5.142   8.427  10.742 -0.2384 -0.0160 -0.2889
   23MOL0     N 3088   5.234   8.516  10.719  0.2445  0.3979  0.1251
   23MOL0     C 3089   5.311   9.362  10.870 -0.4368  0.2005  0.2676
   23MOL0     C 3090   5.181   9.387  10.842 -0.1865  0.0415  0.8130
   23MOL0     C 3091   4.811   9.483  10.569 -1.0606 -0.1803  0.0936
   23MOL0     C 3092   4.745   9.409  10.477 -0.4474 -0.7996  0.1365
   23MOL0     C 3093   4.625   9.449  10.422  0.3901  0.1251  0.1455
   23MOL0     C 3094   4.557   9.560  10.468  0.3158 -0.1988  0.1896
   23MOL0     O 3095   4.434   9.612  10.433  0.4780  0.3316 -0.6212
   23MOL0     C 3096   4.344   9.519  10.381 -0.1077  0.3015  0.5457
   23MOL0     C 3097   4.195   9.580  10.397 -0.2669  0.1915 -0.4237
   23MOL0     C 3098   4.149   9.565  10.542  0.1399 -0.2057 -0.3127
   23MOL0     C 3099   3.999   9.606  10.568 -0.4067 -0.6992 -0.3969
   23MOL0     C 3100   3.982   9.756  10.567 -0.5839 -0.0675  0.2325
   23MOL0     C 3101   3.970   9.875  10.558  0.3289 -0.4157 -0.2194
   23MOL0     C 3102   4.617   9.639  10.558  0.2884 -0.1414  0.1803
   23MOL0     C 3103   4.748   9.604  10.604  0.0397  0.3236  0.8424
   23MOL0     C 3104   4.813   9.701  10.696  0.0204  0.3918  0.3277
   23MOL0     H 3105   5.230   9.595  10.574 -0.0497  1.4606  1.0842
   23MOL0     H 3106   5.447   9.510  10.599 -0.8860 -2.5610 -0.1322
   23MOL0     H 3107   5.508   9.160  10.855  0.5001 -0.8240  0.5707
   23MOL0     H 3108   5.594   9.279  10.952 -4.0649 -1.7050 -0.1363
   23MOL0     H 3109   5.792   9.254  10.822  3.7823 -4.0684  0.8455
   23MOL0     H 3110   5.743   9.089  10.850 -0.7313  0.6578  0.8720
   23MOL0     H 3111   5.662   9.219  10.588  3.1303  0.6028 -1.8085
   23MOL0     H 3112   5.822   9.153  10.612 -0.4320  2.2636  0.0878
   23MOL0     H 3113   5.680   8.991  10.502  0.7942 -1.2670  0.3327
   23MOL0     H 3114   5.750   8.941  10.652  0.7410  1.2668 -0.9326
   23MOL0     H 3115   5.458   9.044  10.619  1.5870  0.6066 -3.5866
   23MOL0     H 3116   5.524   8.954  10.759 -1.3299 -1.2377 -0.9857
   23MOL0     H 3117   5.480   8.870  10.465 -3.3691  0.9204  0.2115
   23MOL0     H 3118   5.567   8.763  10.578  1.8501  1.9640  2.1839
   23MOL0     H 3119   5.265   8.836  10.583 -1.7589 -1.7729 -0.2571
   23MOL0     H 3120   5.355   8.763  10.711  0.6448  3.5430  0.2431
   23MOL0     H 3121   5.281   8.687  10.427 -1.5469 -2.6809 -1.8552
   23MOL0     H 3122   5.406   8.594  10.499  0.1221  1.7681 -2.2174
   23MOL0     H 3123   5.073   8.530  10.434 -1.2875 -1.4659  0.3212
   23MOL0     H 3124   4.946   8.229  10.631  0.4946 -0.8097 -1.1420
   23MOL0     H 3125   4.943   8.318  10.476 -0.6242  0.8584  0.1980
   23MOL0     H 3126   4.734   8.337  10.564 -1.7454  1.2995 -0.6441
   23MOL0     H 3127   4.787   8.408  10.723  1.7382  0.8628 -1.0860
   23MOL0     H 3128   4.827   8.608  10.647  1.2348 -0.1326 -0.0959
   23MOL0     H 3129   4.837   8.567  10.477  0.8780 -1.0721  0.7809
   23MOL0     H 3130   4.585   8.572  10.637 -1.5104  0.4313 -1.4051
   23MOL0     H 3131   4.631   8.680  10.519 -1.9089 -0.2460 -0.2059
   23MOL0     H 3132   4.433   8.324  10.300 -2.8288  1.4893 -3.7442
   23MOL0     H 3133   4.241   8.235  10.200  1.6127  2.6489 -1.1225
   23MOL0     H 3134   4.144   8.363  10.126 -2.0283  1.8137  0.3473
   23MOL0     H 3135   4.072   8.283  10.259  0.0586 -1.5653 -1.9458
   23MOL0     H 3136   3.901   8.886  10.446 -2.4413  2.5110 -1.2073
   23MOL0     H 3137   3.674   8.991  10.412  2.9034  0.6190  0.9483
   23MOL0     H 3138   3.322   8.704  10.378 -1.9094 -0.0278  1.0200
   23MOL0     H 3139   3.414   8.781  10.504 -0.4008 -0.2714 -0.3233
   23MOL0     H 3140   3.338   9.009  10.436 -1.9334 -0.0523  3.1298
   23MOL0     H 3141   3.250   8.923  10.304  0.7147 -2.6696  0.1097
   23MOL0     H 3142   3.110   8.807  10.474 -0.1836 -0.3126  1.0782
   23MOL0     H 3143   3.074   8.983  10.461 -0.5548 -0.7823 -0.2729
   23MOL0     H 3144   3.214   9.040  10.646  2.3665 -0.8660  3.1681
   23MOL0     H 3145   3.244   8.873  10.677  1.2837  2.2429  2.1616
   23MOL0     H 3146   2.993   9.037  10.732  0.0167  0.0520 -0.9761
   23MOL0     H 3147   2.976   8.871  10.693  0.6278  1.2012 -2.4074
   23MOL0     H 3148   3.011   8.916  10.951 -0.1404  0.5349 -0.5122
   23MOL0     H 3149   3.174   8.976  10.931 -0.5531  1.0735  0.7019
   23MOL0     H 3150   3.153   8.721  11.004  0.4740 -2.4393 -1.0763
   23MOL0     H 3151   3.252   8.744  10.870  1.3888  3.1001  1.8208
   23MOL0     H 3152   2.938   8.701  10.830  0.3040  1.4100  0.5683
   23MOL0     H 3153   3.024   8.585  10.926 -1.9815  1.6769  0.0535
   23MOL0     H 3154   3.545   8.619  10.243  1.3676 -0.8876 -0.6399
   23MOL0     H 3155   3.761   8.518  10.292  2.2470  0.6991 -2.6002
   23MOL0     H 3156   4.200   8.724  10.482  1.4436 -1.1089  2.7088
   23MOL0     H 3157   4.423   8.696  10.513 -1.2637  0.6614  0.0854
   23MOL0     H 3158   5.344   9.297  10.951 -0.8180 -0.2017  0.1072
   23MOL0     H 3159   5.104   9.361  10.914  1.0385  0.1526  2.2113
   23MOL0     H 3160   4.794   9.320  10.438 -0.4650 -0.3713 -0.8960
   23MOL0     H 3161   4.576   9.372  10.364  2.0718  0.2267 -1.4929
   23MOL0     H 3162   4.371   9.504  10.276  1.0115  0.6856  0.7603
   23MOL0     H 3163   4.352   9.423  10.433  1.4403 -0.4750 -1.0106
   23MOL0     H 3164   4.124   9.518  10.341 -1.6053 -1.3258  2.6937
   23MOL0     H 3165   4.195   9.682  10.358 -2.0633  0.2431 -0.3641
   23MOL0     H 3166   4.160   9.461  10.573 -1.6580 -0.4789 -0.4734
   23MOL0     H 3167   4.211   9.629  10.605 -1.3903  1.0673 -0.0147
   23MOL0     H 3168   3.968   9.572  10.667  0.0846 -0.3247 -0.1106
   23MOL0     H 3169   3.940   9.571  10.482 -1.5852  0.9480 -0.2805
   23MOL0     H 3170   3.955   9.981  10.558 -0.2112 -0.4824 -1.0835
   23MOL0     H 3171   4.574   9.729  10.600 -0.0940  1.9025 -4.1305
   23MOL0     H 3172   4.912   9.729  10.658 -0.4141  0.8542 -0.4827
   23MOL0     H 3173   4.765   9.799  10.711  0.2729  0.2350  2.5923
   23MOL0     H 3174   4.842   9.671  10.797  1.1283  2.6013  0.7319
   24MOL0     O 3175   7.782   0.698   7.987  0.3989 -0.3873 -0.0286
   24MOL0     C 3176   7.756   0.673   8.107  0.6044 -0.7082 -0.3574
   24MOL0     O 3177   7.846   0.611   8.183  0.2031  0.1342  0.3735
   24MOL0     C 3178   7.978   0.643   8.161  0.1774 -0.0913  0.2094
   24MOL0     C 3179   8.030   0.768   8.199 -0.8891  0.2236  0.3973
   24MOL0     C 3180   8.164   0.796   8.174 -1.1829 -0.4211 -0.2365
   24MOL0     C 3181   8.251   0.697   8.121  0.3161 -0.6490  0.5504
   24MOL0     O 3182   8.378   0.747   8.121 -0.8436  0.1934 -0.4196
   24MOL0     C 3183   8.467   0.695   8.030 -0.3348  0.5268  1.0834
   24MOL0     C 3184   8.568   0.801   7.989 -0.0327  0.0710 -0.2479
   24MOL0     C 3185   8.691   0.724   7.944 -0.3549 -0.0860 -0.3731
   24MOL0     C 3186   8.777   0.818   7.858  0.2982 -0.1466 -0.0634
   24MOL0     C 3187   8.920   0.764   7.844 -0.7998  0.1326  0.3265
   24MOL0     C 3188   9.010   0.860   7.778  0.1270 -0.5570 -1.0401
   24MOL0     C 3189   9.157   0.797   7.760 -0.3390  0.3603 -1.2126
   24MOL0     C 3190   9.272   0.900   7.783 -0.3588 -0.3967  1.1937
   24MOL0     N 3191   9.328   0.940   7.651 -0.2777 -0.4219 -0.7110
   24MOL0     C 3192   9.436   0.881   7.592  0.7657  0.1026 -0.2804
   24MOL0     C 3193   9.464   0.960   7.489  0.2339  0.5285  0.3070
   24MOL0     C 3194   9.589   0.932   7.406  0.0637 -0.3337  0.0203
   24MOL0     C 3195   9.677   1.056   7.401 -0.1063 -0.0173 -0.1137
   24MOL0     C 3196   9.803   1.022   7.314 -0.1127 -0.0993  1.0058
   24MOL0     C 3197   9.909   1.129   7.337 -0.0726 -0.1459 -1.0252
   24MOL0     O 3198   9.957   1.139   7.471 -0.2150 -0.3513  0.9184
   24MOL0     C 3199  10.027   1.256   7.503 -0.0225  0.8478  0.8049
   24MOL0     C 3200  10.127   1.251   7.603 -0.5349 -0.7063 -0.5360
   24MOL0     C 3201  10.201   1.369   7.643  1.4516 -0.9303 -0.1245
   24MOL0     C 3202  10.311   1.345   7.743 -0.5469 -0.2369  0.0973
   24MOL0     C 3203  10.170   1.489   7.580  0.2763  0.3598 -0.3533
   24MOL0     C 3204  10.239   1.621   7.606 -1.1302  0.3178  0.2747
   24MOL0     O 3205  10.182   1.732   7.534  0.3143  0.0898 -0.1355
   24MOL0     C 3206  10.230   1.846   7.577  0.9720  0.5435  0.1645
   24MOL0     C 3207  10.333   1.905   7.512 -0.1668  0.3443  0.2742
   24MOL0     C 3208  10.392   2.024   7.556 -0.0518 -0.3545  0.0564
   24MOL0     C 3209  10.346   2.073   7.675  0.9283  1.0544  0.2156
   24MOL0     O 3210  10.406   2.192   7.715 -0.1305  0.2456  0.8668
   24MOL0     C 3211  10.486   2.183   7.831  0.5191  0.6341  0.3112
   24MOL0     C 3212  10.573   2.302   7.829 -0.2880  0.7351  0.4894
   24MOL0     C 3213  10.668   2.308   7.956  0.3226  0.4960  0.4649
   24MOL0     C 3214  10.792   2.380   7.913 -0.1215 -1.3044  1.1828
   24MOL0     C 3215  10.893   2.380   8.027  0.5934  0.0395  0.9805
   24MOL0     C 3216  10.862   2.462   8.155 -0.2040  0.1337 -0.3136
   24MOL0     C 3217  10.996   2.484   8.227  0.2641  0.3240 -0.9068
   24MOL0     C 3218  11.061   2.350   8.264 -0.7061 -0.5218  1.0624
   24MOL0    Cl 3219  11.226   2.395   8.316  0.2982  0.2670 -0.0141
   24MOL0     C 3220  10.244   2.009   7.751  0.1135 -0.0703  0.2200
   24MOL0     C 3221  10.179   1.903   7.692  0.6706  0.0367  0.4367
   24MOL0     O 3222  10.341   1.624   7.674 -1.0138  0.5517  0.5245
   24MOL0     C 3223  10.060   1.502   7.487  0.4950 -0.1789 -0.5850
   24MOL0     C 3224   9.996   1.382   7.444 -0.6329 -1.2379  0.6082
   24MOL0     N 3225   9.366   1.052   7.474  0.4126  0.4339  0.4191
   24MOL0     N 3226   9.281   1.041   7.565 -0.5289  0.3078  0.2105
   24MOL0     C 3227   8.202   0.564   8.099  0.2128 -0.3878  0.5154
   24MOL0     C 3228   8.062   0.543   8.119  0.0322  0.4374 -0.6580
   24MOL0     C 3229   7.617   0.695   8.166 -0.1752  0.1731 -0.2562
   24MOL0     C 3230   7.510   0.702   8.071 -0.0185  0.0861  0.5614
   24MOL0     C 3231   7.386   0.727   8.110  1.0726 -0.2562 -1.2076
   24MOL0     C 3232   7.358   0.758   8.242  1.1614 -0.1091 -0.5774
   24MOL0     O 3233   7.224   0.785   8.256 -0.4037  0.1565  0.2944
   24MOL0     C 3234   7.171   0.771   8.388  1.3242  1.1402 -0.2263
   24MOL0     C 3235   7.173   0.629   8.446 -0.4909 -0.8062  0.3491
   24MOL0     C 3236   7.072   0.607   8.565  0.0643 -0.6759 -0.0548
   24MOL0     C 3237   6.933   0.615   8.507  1.0859 -0.4467  0.2376
   24MOL0     C 3238   6.836   0.566   8.605 -0.2146 -0.4424 -0.1124
   24MOL0     C 3239   6.761   0.523   8.690  0.4141 -0.3884 -0.1165
   24MOL0     C 3240   7.457   0.760   8.333 -0.1486 -0.1320 -0.8673
   24MOL0     C 3241   7.585   0.728   8.296  0.3842  0.0170  0.3743
   24MOL0     C 3242   7.693   0.759   8.397  0.0656  0.8873 -0.7605
   24MOL0     H 3243   7.968   0.846   8.241  2.2457  3.4969 -0.5832
   24MOL0     H 3244   8.188   0.900   8.195  2.5781 -1.2360  0.1785
   24MOL0     H 3245   8.412   0.667   7.940  0.0043 -2.5259  1.7286
   24MOL0     H 3246   8.505   0.606   8.081 -0.6641  1.5354  3.1960
   24MOL0     H 3247   8.522   0.864   7.913  0.4810  0.0144 -0.6128
   24MOL0     H 3248   8.603   0.865   8.070  0.5267 -1.3006  0.6445
   24MOL0     H 3249   8.737   0.691   8.037 -3.5076 -1.0431  0.9705
   24MOL0     H 3250   8.662   0.649   7.870  0.8988 -0.3656 -0.6122
   24MOL0     H 3251   8.721   0.846   7.768 -1.0714  2.0945  1.3759
   24MOL0     H 3252   8.784   0.910   7.918 -1.9421  0.4524 -0.6242
   24MOL0     H 3253   8.925   0.674   7.783  1.5941  0.5354 -0.1808
   24MOL0     H 3254   8.964   0.734   7.940  0.8032 -0.8614 -0.6809
   24MOL0     H 3255   8.964   0.882   7.681  0.6524  2.0483 -0.7842
   24MOL0     H 3256   9.012   0.957   7.829  4.2044  0.1778 -2.2568
   24MOL0     H 3257   9.166   0.749   7.662 -2.1609 -3.2349  0.2057
   24MOL0     H 3258   9.174   0.714   7.829 -2.1422  1.3519  0.5515
   24MOL0     H 3259   9.235   0.991   7.831  0.0245 -0.6462  1.9832
   24MOL0     H 3260   9.343   0.851   7.850  1.9011  0.4440 -0.4839
   24MOL0     H 3261   9.495   0.798   7.631  1.8039  1.1720  0.4804
   24MOL0     H 3262   9.568   0.906   7.301 -1.5006  0.1514  0.1821
   24MOL0     H 3263   9.649   0.849   7.441 -1.0560 -1.0738  0.2445
   24MOL0     H 3264   9.621   1.145   7.371 -1.4106 -0.7500  0.0658
   24MOL0     H 3265   9.712   1.071   7.504 -0.2905 -1.3388  0.1634
   24MOL0     H 3266   9.848   0.925   7.340  0.1668 -0.6633 -1.3037
   24MOL0     H 3267   9.770   1.026   7.209 -0.2056  1.0432  1.0652
   24MOL0     H 3268   9.988   1.118   7.262 -1.5751 -2.1864 -2.4605
   24MOL0     H 3269   9.852   1.218   7.309 -0.9548  0.1938  1.6444
   24MOL0     H 3270  10.167   1.161   7.648  0.2417  0.3645  1.0014
   24MOL0     H 3271  10.409   1.381   7.710 -0.1830  0.8807  2.2629
   24MOL0     H 3272  10.315   1.239   7.769 -1.0238 -0.7522 -1.7323
   24MOL0     H 3273  10.297   1.410   7.830 -2.1938  0.2285 -0.4819
   24MOL0     H 3274  10.364   1.855   7.421 -2.7587 -0.1060 -0.4474
   24MOL0     H 3275  10.465   2.087   7.506 -1.9212  2.2463  0.3888
   24MOL0     H 3276  10.425   2.188   7.922 -0.9710  1.1395 -0.6670
   24MOL0     H 3277  10.542   2.089   7.837  1.3030  1.0030 -0.8415
   24MOL0     H 3278  10.628   2.297   7.735 -1.2491  1.0428 -0.0987
   24MOL0     H 3279  10.506   2.388   7.832  0.6823  1.4695  2.4169
   24MOL0     H 3280  10.695   2.205   7.981  2.0554  0.6252 -0.7262
   24MOL0     H 3281  10.606   2.365   8.026 -0.3896  0.8093 -0.4016
   24MOL0     H 3282  10.773   2.484   7.884 -1.4535 -1.3786  1.7127
   24MOL0     H 3283  10.821   2.333   7.819 -1.0128  2.7975 -1.4209
   24MOL0     H 3284  10.908   2.276   8.057  0.5271 -0.9032 -1.9310
   24MOL0     H 3285  10.986   2.420   7.986 -1.1853  1.0478 -2.4062
   24MOL0     H 3286  10.775   2.422   8.207  0.8429 -1.3244  0.3564
   24MOL0     H 3287  10.812   2.555   8.124 -0.5400  0.1529  0.2801
   24MOL0     H 3288  10.988   2.532   8.325  0.4535 -2.2251  0.4497
   24MOL0     H 3289  11.063   2.545   8.167  0.9759  0.9150  0.4527
   24MOL0     H 3290  11.063   2.283   8.178 -3.9034 -0.2686  0.6494
   24MOL0     H 3291  11.007   2.303   8.347  0.8360  0.0115  2.4244
   24MOL0     H 3292  10.205   2.046   7.845 -0.3857  3.1574 -1.1048
   24MOL0     H 3293  10.099   1.849   7.742  0.2973  0.1269 -0.0504
   24MOL0     H 3294  10.019   1.600   7.467 -0.1428 -0.0154  1.2941
   24MOL0     H 3295   9.917   1.393   7.370  0.3572 -1.3261 -0.4990
   24MOL0     H 3296   8.262   0.483   8.058  4.5629  2.4831  0.5118
   24MOL0     H 3297   8.013   0.448   8.099 -0.9800  0.4562  1.3831
   24MOL0     H 3298   7.536   0.685   7.967 -0.0362 -0.2468  0.6106
   24MOL0     H 3299   7.312   0.729   8.030  0.1716  0.0047 -0.3869
   24MOL0     H 3300   7.218   0.843   8.454 -0.0390  0.8366  1.1338
   24MOL0     H 3301   7.069   0.811   8.389  1.5790  2.2704 -3.8487
   24MOL0     H 3302   7.272   0.617   8.491  0.4126 -2.4699 -1.9030
   24MOL0     H 3303   7.169   0.554   8.367  1.1182  0.5586 -1.1002
   24MOL0     H 3304   7.090   0.512   8.616  2.5366 -0.2018  0.0809
   24MOL0     H 3305   7.081   0.684   8.643  0.1637 -0.8450  0.0988
   24MOL0     H 3306   6.946   0.553   8.418  3.1507 -3.1962  2.2701
   24MOL0     H 3307   6.908   0.718   8.479  2.9233 -0.4909 -1.8492
   24MOL0     H 3308   6.702   0.485   8.771  0.4663  0.2648  0.2316
   24MOL0     H 3309   7.443   0.808   8.429  0.9026 -0.2042 -0.6623
   24MOL0     H 3310   7.783   0.799   8.350 -1.9331  4.1150 -2.2300
   24MOL0     H 3311   7.653   0.825   8.474 -0.0389 -1.7328  1.6103
   24MOL0     H 3312   7.720   0.668   8.451  1.3971  1.2794 -0.7382
   25MOL0     O 3313  10.242  10.615   3.827 -0.4210 -0.5891  0.7569
   25MOL0     C 3314  10.218  10.702   3.908  0.1850 -0.9451  0.3497
   25MOL0     O 3315  10.264  10.707   4.036 -0.2811 -0.1761 -0.6763
   25MOL0     C 3316  10.349  10.602   4.063  0.3714 -0.1261  0.1624
   25MOL0     C 3317  10.312  10.485   4.123 -0.0222 -0.4955 -0.6921
   25MOL0     C 3318  10.405  10.392   4.162  0.5647 -0.6275 -1.0389
   25MOL0     C 3319  10.536  10.408   4.134 -0.3672 -0.5936 -0.7710
   25MOL0     O 3320  10.625  10.307   4.163 -0.0647  0.0589 -0.1679
   25MOL0     C 3321  10.737  10.347   4.250 -0.3628  0.5620 -0.1222
   25MOL0     C 3322  10.811  10.223   4.303 -0.8081 -0.2760 -0.3770
   25MOL0     C 3323  10.909  10.153   4.207 -0.2604 -0.0219  0.2998
   25MOL0     C 3324  11.012  10.068   4.283 -0.1628 -0.0048 -0.2889
   25MOL0     C 3325  11.060   9.957   4.203 -0.0965 -0.1429 -1.0008
   25MOL0     C 3326  11.166   9.871   4.279  0.8529 -0.2767  0.0902
   25MOL0     C 3327  11.308   9.934   4.289 -0.1253  0.2219 -0.4444
   25MOL0     C 3328  11.408   9.900   4.174 -0.9437  0.2091 -0.0647
   25MOL0     N 3329  11.527   9.971   4.212 -0.0101 -0.3133  0.0001
   25MOL0     C 3330  11.638   9.929   4.277  0.2581  0.0327 -0.3390
   25MOL0     C 3331  11.710  10.038   4.304  0.2401 -0.8425  0.3307
   25MOL0     C 3332  11.840  10.031   4.380  0.4208  0.5625 -0.7754
   25MOL0     C 3333  11.919   9.898   4.353 -0.3658 -0.2587  0.7286
   25MOL0     C 3334  12.060   9.888   4.401  0.4300 -0.2573 -0.3056
   25MOL0     C 3335  12.116   9.742   4.384  0.0012 -0.0112  1.2533
   25MOL0     O 3336  12.248   9.736   4.433  0.4575 -0.7451 -0.1771
   25MOL0     C 3337  12.323   9.629   4.414 -0.7329 -0.1382 -0.6132
   25MOL0     C 3338  12.289   9.506   4.354 -0.1054  0.1422  0.6728
   25MOL0     C 3339  12.385   9.399   4.339 -0.4870  0.0981 -0.3732
   25MOL0     C 3340  12.340   9.280   4.266  0.1478 -1.6299  0.0609
   25MOL0     C 3341  12.519   9.417   4.382  0.1555  0.3614 -0.5240
   25MOL0     C 3342  12.629   9.323   4.361 -0.8138  0.1780 -0.7734
   25MOL0     O 3343  12.755   9.376   4.398  0.0325  0.7605  0.1621
   25MOL0     C 3344  12.870   9.319   4.332  0.6005  1.8206  0.6320
   25MOL0     C 3345  12.927   9.395   4.222  0.2158 -1.0280 -0.2716
   25MOL0     C 3346  13.034   9.354   4.148 -1.1387 -0.5271  0.4849
   25MOL0     C 3347  13.100   9.233   4.191  0.4731  0.1466  0.3673
   25MOL0     O 3348  13.223   9.204   4.138 -0.6357 -0.6898  0.1166
   25MOL0     C 3349  13.266   9.257   4.011 -0.8746 -0.3464 -0.4715
   25MOL0     C 3350  13.417   9.219   3.984  0.4721  0.4870  0.1578
   25MOL0     C 3351  13.514   9.269   4.096  0.8129 -0.1307 -0.5729
   25MOL0     C 3352  13.669   9.274   4.066  1.3883  0.1455 -0.2054
   25MOL0     C 3353  13.752   9.320   4.181  0.2358  1.2267  0.6395
   25MOL0     C 3354  13.771   9.227   4.304  0.1596  0.2949 -0.4619
   25MOL0     C 3355  13.800   9.076   4.279 -0.0596 -0.3432 -0.1543
   25MOL0     C 3356  13.916   9.043   4.184  1.6904  0.5215 -0.5408
   25MOL0    Cl 3357  13.957   8.880   4.228  0.2484  0.2097  0.0562
   25MOL0     C 3358  13.046   9.158   4.296 -0.5245 -1.0439  0.4927
   25MOL0     C 3359  12.926   9.193   4.359 -0.1908  0.0720 -0.4031
   25MOL0     O 3360  12.620   9.215   4.299  0.3579  0.0056  0.5181
   25MOL0     C 3361  12.544   9.537   4.460 -0.1149  0.3465  0.4533
   25MOL0     C 3362  12.450   9.635   4.481  0.0825 -0.2006 -0.1814
   25MOL0     N 3363  11.648  10.152   4.251 -0.4418 -0.0317 -0.2747
   25MOL0     N 3364  11.550  10.106   4.192  0.2788  0.2811 -0.6668
   25MOL0     C 3365  10.585  10.532   4.078  0.1969  0.1871  0.4679
   25MOL0     C 3366  10.492  10.630   4.051 -0.5859 -0.3345  0.1338
   25MOL0     C 3367  10.141  10.816   3.859 -0.0803 -0.7791  0.3764
   25MOL0     C 3368  10.024  10.785   3.779 -0.1108  0.1053 -0.3315
   25MOL0     C 3369   9.949  10.886   3.722 -0.3161  0.0053 -0.0817
   25MOL0     C 3370   9.977  11.018   3.746 -0.4443  0.2537  0.6493
   25MOL0     O 3371   9.887  11.110   3.702  0.4699 -0.6397 -0.6717
   25MOL0     C 3372   9.901  11.244   3.741 -0.8469  0.5218 -0.8134
   25MOL0     C 3373   9.764  11.309   3.747  0.2671 -0.3543 -0.6446
   25MOL0     C 3374   9.759  11.442   3.816  0.2981 -0.3074  0.1026
   25MOL0     C 3375   9.615  11.497   3.806  0.2318  0.6630 -1.5353
   25MOL0     C 3376   9.612  11.619   3.888  0.1130  0.1246  0.6371
   25MOL0     C 3377   9.606  11.712   3.975 -0.1872 -0.5261 -0.0694
   25MOL0     C 3378  10.087  11.046   3.823  0.0814 -0.6905 -0.1013
   25MOL0     C 3379  10.162  10.955   3.889 -0.2322  0.9441  0.1516
   25MOL0     C 3380  10.268  11.005   3.989 -1.4478 -0.6530  0.7028
   25MOL0     H 3381  10.208  10.457   4.135  0.6425 -2.7733  0.3976
   25MOL0     H 3382  10.390  10.294   4.206  3.0679 -0.1780  1.0594
   25MOL0     H 3383  10.698  10.402   4.336 -2.1502 -0.6991 -0.0643
   25MOL0     H 3384  10.795  10.399   4.174  0.8099  0.7567  0.8767
   25MOL0     H 3385  10.870  10.256   4.389  1.2316  0.7606 -2.0623
   25MOL0     H 3386  10.739  10.147   4.334  0.0881 -0.6343  0.9238
   25MOL0     H 3387  10.848  10.091   4.141 -3.1376  1.4864  1.3576
   25MOL0     H 3388  10.955  10.234   4.150 -1.5893  1.7919  1.6896
   25MOL0     H 3389  11.086  10.134   4.328  0.9003 -0.1096 -1.8246
   25MOL0     H 3390  10.955  10.027   4.367 -2.5976  1.6529 -1.0371
   25MOL0     H 3391  11.114  10.008   4.123  0.2458  0.2461 -0.5235
   25MOL0     H 3392  10.982   9.889   4.165  0.4526 -0.1674 -2.1180
   25MOL0     H 3393  11.118   9.834   4.370 -1.4648  3.1535  0.4316
   25MOL0     H 3394  11.187   9.779   4.222  0.6048 -0.8325  0.8872
   25MOL0     H 3395  11.351   9.903   4.385 -1.0241 -0.1707 -0.1531
   25MOL0     H 3396  11.294  10.042   4.288 -0.9629  0.1240 -0.3569
   25MOL0     H 3397  11.430   9.792   4.171  2.5436  0.7903  0.9235
   25MOL0     H 3398  11.361   9.932   4.080 -1.1918  2.6332  0.8192
   25MOL0     H 3399  11.661   9.826   4.302 -0.7719 -0.5154 -1.5219
   25MOL0     H 3400  11.824  10.042   4.488  2.5275  1.5681 -0.5058
   25MOL0     H 3401  11.897  10.120   4.352  0.5016 -0.0267 -2.6522
   25MOL0     H 3402  11.866   9.812   4.393 -0.6203 -0.9757 -1.0583
   25MOL0     H 3403  11.933   9.891   4.245  0.3513 -1.4493  0.8881
   25MOL0     H 3404  12.122   9.959   4.346 -1.8083  0.1240 -2.5013
   25MOL0     H 3405  12.062   9.902   4.510  2.3047 -1.7088 -0.0985
   25MOL0     H 3406  12.063   9.673   4.450  0.4628  0.2253  1.8834
   25MOL0     H 3407  12.121   9.705   4.281  0.1650 -1.2187  1.6849
   25MOL0     H 3408  12.185   9.498   4.326 -0.0237  4.3008 -1.7408
   25MOL0     H 3409  12.231   9.280   4.275  0.1143  2.3458  1.3372
   25MOL0     H 3410  12.382   9.196   4.323 -0.0860 -0.3354  2.2626
   25MOL0     H 3411  12.379   9.279   4.164 -1.7426 -2.8812 -0.7026
   25MOL0     H 3412  12.866   9.473   4.179 -0.1795 -1.6325 -0.8330
   25MOL0     H 3413  13.069   9.409   4.062 -2.4869 -3.6189 -2.2630
   25MOL0     H 3414  13.196   9.212   3.940 -0.6569 -3.3884  1.0462
   25MOL0     H 3415  13.255   9.365   4.006 -1.6138 -0.4507 -1.3458
   25MOL0     H 3416  13.424   9.111   3.966  0.0256  0.3641  0.6831
   25MOL0     H 3417  13.451   9.262   3.890  0.5167  0.2723  0.0745
   25MOL0     H 3418  13.507   9.197   4.179  0.3629 -0.7851 -1.1658
   25MOL0     H 3419  13.476   9.366   4.129 -0.9866 -0.6772 -0.9231
   25MOL0     H 3420  13.680   9.339   3.979 -0.9476 -0.2948 -0.9067
   25MOL0     H 3421  13.708   9.176   4.037 -0.9320 -1.0129  0.3512
   25MOL0     H 3422  13.849   9.347   4.138  1.8588  1.2620  4.0015
   25MOL0     H 3423  13.714   9.416   4.217 -4.1056 -0.4962  1.2730
   25MOL0     H 3424  13.678   9.232   4.361  1.1451 -0.5765  1.3308
   25MOL0     H 3425  13.847   9.265   4.374  0.3603 -1.5407  0.3832
   25MOL0     H 3426  13.706   9.028   4.248 -0.5473  1.5719 -1.8715
   25MOL0     H 3427  13.820   9.043   4.381 -1.3344 -0.3239  0.1250
   25MOL0     H 3428  13.991   9.122   4.194 -1.8120  4.0956  0.3513
   25MOL0     H 3429  13.870   9.043   4.085 -0.0302  1.0386  0.2240
   25MOL0     H 3430  13.096   9.071   4.335 -1.4232 -0.9575  1.8763
   25MOL0     H 3431  12.877   9.131   4.433 -2.7334  1.4910 -0.7776
   25MOL0     H 3432  12.643   9.559   4.500 -0.0703 -0.2600  0.6843
   25MOL0     H 3433  12.488   9.720   4.536  1.3766  0.2402 -1.7014
   25MOL0     H 3434  10.684  10.568   4.055 -0.0420  0.7664  0.3390
   25MOL0     H 3435  10.520  10.720   3.998 -4.0609 -0.5332 -2.4007
   25MOL0     H 3436  10.009  10.679   3.762  1.9597  0.0153 -1.8592
   25MOL0     H 3437   9.858  10.857   3.670 -0.2369 -0.1711 -0.1230
   25MOL0     H 3438   9.952  11.243   3.838  3.6069 -3.1589 -2.8114
   25MOL0     H 3439   9.970  11.301   3.679 -0.1189 -0.0948 -0.5805
   25MOL0     H 3440   9.702  11.238   3.802  0.2080  0.5969  0.5657
   25MOL0     H 3441   9.726  11.320   3.646  3.6622 -3.0618 -2.4489
   25MOL0     H 3442   9.790  11.420   3.918  1.1150 -0.5219 -0.1838
   25MOL0     H 3443   9.828  11.507   3.761 -0.5844  2.6224  2.2500
   25MOL0     H 3444   9.545  11.425   3.849  1.8806 -0.7369 -1.0713
   25MOL0     H 3445   9.590  11.520   3.702  2.6430  2.0569 -1.8934
   25MOL0     H 3446   9.588  11.780   4.056  1.0939  0.9722 -0.9950
   25MOL0     H 3447  10.121  11.146   3.846  2.2342 -1.8680  2.3639
   25MOL0     H 3448  10.362  10.982   3.938 -2.0841  0.5156 -1.1067
   25MOL0     H 3449  10.275  11.113   4.003  1.6096 -0.4740 -1.2624
   25MOL0     H 3450  10.256  10.957   4.086  0.4976 -3.7999 -0.4621
   26MOL0     O 3451   4.741   4.788   0.637 -0.1644  0.3653 -0.8528
   26MOL0     C 3452   4.711   4.717   0.736  0.3788 -1.4934  0.0878
   26MOL0     O 3453   4.783   4.704   0.854  0.6046 -0.8017  0.6157
   26MOL0     C 3454   4.892   4.777   0.872  0.6372  0.5853  0.1736
   26MOL0     C 3455   5.011   4.708   0.861 -0.3902 -0.0517 -0.6622
   26MOL0     C 3456   5.134   4.775   0.875 -0.1090  0.3635 -0.5245
   26MOL0     C 3457   5.136   4.912   0.897  0.0791 -0.1145  0.2652
   26MOL0     O 3458   5.270   4.962   0.920 -0.0469  0.4824  0.1402
   26MOL0     C 3459   5.278   5.105   0.920 -0.0315 -0.1673 -0.2774
   26MOL0     C 3460   5.419   5.152   0.898 -0.2371 -0.0360  0.1030
   26MOL0     C 3461   5.424   5.292   0.946  0.4023 -0.6402 -1.1579
   26MOL0     C 3462   5.358   5.382   0.834  0.1476 -0.0819 -0.4617
   26MOL0     C 3463   5.396   5.528   0.859  0.3854 -1.3068  0.0448
   26MOL0     C 3464   5.315   5.625   0.781  1.1140 -0.7886  0.3709
   26MOL0     C 3465   5.367   5.774   0.802  0.4632 -0.1608  1.2480
   26MOL0     C 3466   5.247   5.868   0.803  0.0148 -0.1333 -0.7598
   26MOL0     N 3467   5.170   5.882   0.682 -0.5862  0.5120  0.2032
   26MOL0     C 3468   5.217   5.926   0.561  0.1855 -0.5273 -0.0609
   26MOL0     C 3469   5.124   5.890   0.464 -1.1188  0.2565  0.0093
   26MOL0     C 3470   5.146   5.915   0.313 -0.0447  0.0361  0.4660
   26MOL0     C 3471   5.179   5.788   0.236  0.3450  0.1303 -0.7364
   26MOL0     C 3472   5.296   5.711   0.297 -0.1141 -0.6275  0.7700
   26MOL0     C 3473   5.327   5.583   0.217  0.9905  0.7987 -0.1550
   26MOL0     O 3474   5.362   5.597   0.080  0.3989 -0.1329  0.3147
   26MOL0     C 3475   5.489   5.627   0.039 -0.4392  0.0633 -0.0009
   26MOL0     C 3476   5.505   5.643  -0.097  0.0196  0.5562 -0.3108
   26MOL0     C 3477   5.630   5.657  -0.158 -0.2675 -0.2745  0.7802
   26MOL0     C 3478   5.624   5.649  -0.313  0.3288 -0.2969 -0.0940
   26MOL0     C 3479   5.742   5.671  -0.080 -0.4044 -0.0922  0.4243
   26MOL0     C 3480   5.881   5.693  -0.132 -0.3086 -0.3585 -0.2750
   26MOL0     O 3481   5.901   5.762  -0.253 -0.4447  0.0876 -0.3475
   26MOL0     C 3482   6.028   5.816  -0.256  0.1134  0.2702  0.0984
   26MOL0     C 3483   6.074   5.932  -0.186  0.5520 -0.8015  0.1133
   26MOL0     C 3484   6.205   5.982  -0.204  0.5662 -0.1677  0.9110
   26MOL0     C 3485   6.301   5.915  -0.287 -0.2439  0.3463 -0.0709
   26MOL0     O 3486   6.436   5.952  -0.297 -0.1705 -0.2634 -0.3566
   26MOL0     C 3487   6.486   6.022  -0.176  0.9865  0.4518 -0.1313
   26MOL0     C 3488   6.631   5.978  -0.150 -0.3361  0.4098  0.3741
   26MOL0     C 3489   6.700   6.090  -0.073  0.4407 -0.3784  0.1172
   26MOL0     C 3490   6.833   6.048   0.004 -0.6292 -0.5171 -0.6112
   26MOL0     C 3491   6.947   5.984  -0.075  0.5566 -0.4797 -0.7764
   26MOL0     C 3492   6.988   6.069  -0.190 -0.0086 -0.6542  0.4315
   26MOL0     C 3493   7.115   6.009  -0.247 -0.4889  1.1130 -0.4662
   26MOL0     C 3494   7.163   6.076  -0.381 -0.3759 -0.0797 -0.3637
   26MOL0    Cl 3495   7.182   6.251  -0.374  0.3730 -0.0552 -0.4115
   26MOL0     C 3496   6.248   5.813  -0.365  0.0257  1.6359  1.0906
   26MOL0     C 3497   6.117   5.765  -0.349  0.1512 -0.0536 -0.2536
   26MOL0     O 3498   5.974   5.650  -0.062  0.6349 -0.4353 -0.2175
   26MOL0     C 3499   5.733   5.665   0.060  0.1545  0.4688 -1.1069
   26MOL0     C 3500   5.607   5.640   0.120  0.1302  0.0603 -1.0443
   26MOL0     N 3501   5.018   5.835   0.536 -0.0492 -0.0253  0.2267
   26MOL0     N 3502   5.042   5.841   0.663  0.3494  0.2371  0.6546
   26MOL0     C 3503   5.019   4.988   0.898  0.9939  0.2951  0.2080
   26MOL0     C 3504   4.899   4.919   0.894 -0.2612 -0.2485 -0.1809
   26MOL0     C 3505   4.583   4.650   0.736 -0.1389 -0.0352  1.1912
   26MOL0     C 3506   4.557   4.580   0.616  0.4179 -0.0468 -0.3587
   26MOL0     C 3507   4.439   4.506   0.608 -0.2355  0.1025  0.6574
   26MOL0     C 3508   4.346   4.504   0.717 -0.0793 -0.1225  0.5933
   26MOL0     O 3509   4.238   4.415   0.724  0.4144 -0.7459 -0.3206
   26MOL0     C 3510   4.243   4.301   0.646  0.3097 -0.1943  0.4031
   26MOL0     C 3511   4.126   4.202   0.681 -0.5273 -0.6712  0.4356
   26MOL0     C 3512   3.990   4.275   0.653  0.5622 -0.2266  0.7787
   26MOL0     C 3513   3.953   4.243   0.511 -0.5282 -0.4939  1.0916
   26MOL0     C 3514   3.835   4.318   0.474 -0.2434 -0.5429  0.4033
   26MOL0     C 3515   3.743   4.369   0.420  0.1822 -0.4664  0.6356
   26MOL0     C 3516   4.378   4.573   0.835 -0.1599  0.5861  1.0937
   26MOL0     C 3517   4.487   4.654   0.836  0.0154  0.6479 -0.2650
   26MOL0     C 3518   4.509   4.746   0.953 -0.5388 -0.3795  0.8498
   26MOL0     H 3519   4.997   4.606   0.825 -2.1862  0.0269 -0.2783
   26MOL0     H 3520   5.222   4.711   0.874 -1.0163 -0.9153 -0.9363
   26MOL0     H 3521   5.236   5.147   1.012 -1.3480 -2.4147  0.2372
   26MOL0     H 3522   5.216   5.148   0.840 -1.6638 -2.9709 -0.6765
   26MOL0     H 3523   5.491   5.103   0.964 -0.8323 -1.8203 -0.4941
   26MOL0     H 3524   5.447   5.154   0.792  0.0198  0.8432  0.1822
   26MOL0     H 3525   5.374   5.305   1.042 -0.3798  1.5796 -1.8050
   26MOL0     H 3526   5.526   5.324   0.970  0.3996 -0.5579 -1.2548
   26MOL0     H 3527   5.383   5.349   0.732  3.2857 -2.8800  1.0306
   26MOL0     H 3528   5.253   5.364   0.855  0.8957 -2.7520  1.7138
   26MOL0     H 3529   5.502   5.545   0.835  0.2226 -0.4337 -0.0552
   26MOL0     H 3530   5.381   5.543   0.966 -0.4412  0.0208 -0.2392
   26MOL0     H 3531   5.308   5.592   0.677  0.3589 -0.5282  0.3362
   26MOL0     H 3532   5.218   5.615   0.830 -0.0845  0.0968 -1.7407
   26MOL0     H 3533   5.438   5.798   0.723 -0.9080 -2.9256 -1.0136
   26MOL0     H 3534   5.424   5.781   0.896  2.9878  1.1587 -0.2838
   26MOL0     H 3535   5.184   5.835   0.887  0.8767 -1.1092 -0.4662
   26MOL0     H 3536   5.280   5.969   0.826 -0.8415 -0.1636  0.8126
   26MOL0     H 3537   5.317   5.968   0.552  0.0369 -0.5013 -2.1995
   26MOL0     H 3538   5.234   5.975   0.290 -1.3141  2.2418  1.0256
   26MOL0     H 3539   5.067   5.963   0.255  1.4297 -0.1026 -1.7841
   26MOL0     H 3540   5.086   5.734   0.217 -1.2764  2.8117 -0.8888
   26MOL0     H 3541   5.222   5.827   0.143  0.8041  2.2768  0.2979
   26MOL0     H 3542   5.379   5.781   0.309  1.5821 -2.6083  1.1295
   26MOL0     H 3543   5.267   5.673   0.395 -0.3948 -2.0871  0.1578
   26MOL0     H 3544   5.399   5.520   0.269  1.6947  1.3680 -0.4266
   26MOL0     H 3545   5.229   5.535   0.212  0.6739  1.4072  0.1290
   26MOL0     H 3546   5.418   5.620  -0.158 -0.1870  0.9342 -0.1663
   26MOL0     H 3547   5.682   5.566  -0.355  1.9401  1.0555 -0.6602
   26MOL0     H 3548   5.670   5.741  -0.350  0.5395  0.7264  2.4621
   26MOL0     H 3549   5.520   5.647  -0.345  0.2092  1.1407  0.1476
   26MOL0     H 3550   6.007   5.975  -0.112  0.4550 -0.1473 -0.3428
   26MOL0     H 3551   6.222   6.077  -0.155 -0.6843 -1.0871  3.2984
   26MOL0     H 3552   6.475   6.128  -0.201 -2.0364 -0.1994 -1.9913
   26MOL0     H 3553   6.426   6.009  -0.085  1.2120 -0.3920 -0.0938
   26MOL0     H 3554   6.621   5.887  -0.091  1.1584 -1.6143 -2.2767
   26MOL0     H 3555   6.674   5.953  -0.248 -0.8279 -1.8920  0.7010
   26MOL0     H 3556   6.628   6.128   0.000  1.1610  1.9106 -0.2949
   26MOL0     H 3557   6.719   6.174  -0.140 -0.2933  0.0785  0.4779
   26MOL0     H 3558   6.797   5.984   0.085 -1.5069  1.3411  0.5436
   26MOL0     H 3559   6.876   6.137   0.051 -2.8993  0.3164  0.0267
   26MOL0     H 3560   7.032   5.962  -0.010 -0.2403 -1.2835  0.0153
   26MOL0     H 3561   6.909   5.884  -0.102 -1.8583 -0.2718  1.4511
   26MOL0     H 3562   7.001   6.177  -0.177  1.6299 -0.4138 -2.3761
   26MOL0     H 3563   6.911   6.065  -0.267  1.1297 -2.8741 -0.6707
   26MOL0     H 3564   7.093   5.903  -0.262  0.8464  0.9381 -1.2401
   26MOL0     H 3565   7.195   6.018  -0.173 -0.3346  1.4154 -0.6683
   26MOL0     H 3566   7.075   6.055  -0.443 -2.7740  1.8033  2.1538
   26MOL0     H 3567   7.251   6.021  -0.416 -0.5009  0.1803 -1.1000
   26MOL0     H 3568   6.310   5.774  -0.445  0.3929 -0.2953  2.2637
   26MOL0     H 3569   6.072   5.682  -0.403  0.4580 -0.6366  0.3714
   26MOL0     H 3570   5.816   5.675   0.129  0.0266  1.4371 -1.0850
   26MOL0     H 3571   5.577   5.630   0.224 -0.6589 -2.6125 -1.4598
   26MOL0     H 3572   5.017   5.096   0.914 -3.1385  0.3086  0.6259
   26MOL0     H 3573   4.808   4.979   0.893 -1.0877 -1.4526 -0.8157
   26MOL0     H 3574   4.623   4.576   0.529  2.0452 -1.0037  0.8745
   26MOL0     H 3575   4.423   4.456   0.513 -1.2591  0.3827  0.6694
   26MOL0     H 3576   4.251   4.322   0.539 -3.3550  0.5895  0.1362
   26MOL0     H 3577   4.337   4.256   0.679  0.3222  0.5495  1.4265
   26MOL0     H 3578   4.129   4.166   0.784 -3.7527 -0.1350  0.8336
   26MOL0     H 3579   4.141   4.112   0.620 -2.8082 -0.4439 -0.5881
   26MOL0     H 3580   3.914   4.220   0.710 -0.7301  0.2416 -0.4426
   26MOL0     H 3581   3.990   4.380   0.684 -0.8612 -0.6956  2.5403
   26MOL0     H 3582   3.933   4.138   0.491  1.4463 -0.9145  1.0805
   26MOL0     H 3583   4.031   4.271   0.439 -3.1990 -1.1322 -2.3011
   26MOL0     H 3584   3.646   4.408   0.397 -0.1169 -0.5708  1.6645
   26MOL0     H 3585   4.298   4.579   0.908 -0.4624  1.7407  0.6806
   26MOL0     H 3586   4.419   4.749   1.014  0.0444  0.5704  1.6870
   26MOL0     H 3587   4.588   4.703   1.016 -0.6691 -1.3603  0.3704
   26MOL0     H 3588   4.527   4.849   0.921  0.0710 -1.1423 -1.4644
   27MOL0     O 3589   8.398   3.589  11.283  0.1092  1.5049 -0.2295
   27MOL0     C 3590   8.384   3.624  11.166 -0.2010  0.5089 -0.0991
   27MOL0     O 3591   8.484   3.640  11.071 -0.1207 -0.1238  0.8944
   27MOL0     C 3592   8.607   3.578  11.073 -0.1897  0.4304 -0.4802
   27MOL0     C 3593   8.660   3.507  11.178 -0.0870  0.0965 -0.2495
   27MOL0     C 3594   8.774   3.429  11.174  0.0419 -0.2398  0.7921
   27MOL0     C 3595   8.856   3.425  11.057 -1.0117 -0.0606  0.4474
   27MOL0     O 3596   8.980   3.356  11.043 -0.7946 -0.7011 -0.4310
   27MOL0     C 3597   9.035   3.285  11.157  0.0502  1.1800  0.0700
   27MOL0     C 3598   9.161   3.207  11.129  0.3830 -0.1744 -0.4510
   27MOL0     C 3599   9.272   3.295  11.068  0.3704 -0.4401 -0.1916
   27MOL0     C 3600   9.401   3.221  11.091 -0.8162  0.7576  0.4483
   27MOL0     C 3601   9.519   3.288  11.010  0.3830  0.5946 -0.0324
   27MOL0     C 3602   9.650   3.230  11.052 -0.4660  0.6814 -0.5579
   27MOL0     C 3603   9.778   3.277  10.969 -0.3734 -0.7429 -0.6552
   27MOL0     C 3604   9.773   3.245  10.823  0.0739 -0.2605  0.4266
   27MOL0     N 3605   9.904   3.236  10.757 -0.7292 -0.9942 -1.4632
   27MOL0     C 3606   9.991   3.341  10.770  0.3186 -0.2141  0.0969
   27MOL0     C 3607  10.091   3.306  10.689  0.0180 -0.2180  0.6666
   27MOL0     C 3608  10.220   3.387  10.681  0.5213  0.4925  0.0582
   27MOL0     C 3609  10.340   3.289  10.671 -0.0392 -0.6427 -0.9336
   27MOL0     C 3610  10.475   3.353  10.651  0.9070 -0.1297 -0.4257
   27MOL0     C 3611  10.587   3.254  10.643  0.7326 -0.4394 -0.0351
   27MOL0     O 3612  10.715   3.321  10.624  0.2189 -0.0436 -0.0965
   27MOL0     C 3613  10.818   3.241  10.587 -0.8910 -0.6830 -0.1110
   27MOL0     C 3614  10.873   3.148  10.667  0.2386  0.3532 -0.1422
   27MOL0     C 3615  10.965   3.053  10.621  0.6039  0.3322 -0.4170
   27MOL0     C 3616  11.000   2.949  10.728  0.3320  0.1628 -0.4415
   27MOL0     C 3617  11.009   3.063  10.489 -0.0772  1.2739  0.4968
   27MOL0     C 3618  11.117   2.978  10.425  0.6695 -0.0808  0.1024
   27MOL0     O 3619  11.159   3.006  10.298 -0.3060 -0.0716  0.0805
   27MOL0     C 3620  11.253   2.921  10.243 -0.5275  0.1379 -0.4877
   27MOL0     C 3621  11.217   2.854  10.126  0.0837  0.2958 -0.3367
   27MOL0     C 3622  11.316   2.771  10.065 -0.3819 -0.5376  0.6147
   27MOL0     C 3623  11.450   2.778  10.104  0.3307  0.9626 -0.7862
   27MOL0     O 3624  11.535   2.697  10.039 -0.5013  0.0068  0.0374
   27MOL0     C 3625  11.677   2.732  10.025  0.1458  0.2793 -0.8815
   27MOL0     C 3626  11.745   2.614   9.949 -0.5521  0.0275 -0.3873
   27MOL0     C 3627  11.742   2.493  10.044 -0.2486  0.3689  0.0752
   27MOL0     C 3628  11.796   2.369   9.974 -0.1409  0.0517  0.0521
   27MOL0     C 3629  11.821   2.254  10.080  0.2998 -0.0283 -1.3738
   27MOL0     C 3630  11.826   2.110  10.025  0.0523  0.3048  0.4828
   27MOL0     C 3631  11.696   2.046   9.963  0.1147 -0.7586  0.6319
   27MOL0     C 3632  11.732   1.913   9.901  0.0588  0.4230  0.7202
   27MOL0    Cl 3633  11.595   1.831   9.833  0.0130 -0.1205  0.2613
   27MOL0     C 3634  11.482   2.856  10.221 -0.7595  0.2366  0.0230
   27MOL0     C 3635  11.386   2.934  10.287 -0.1760  0.2894 -0.0272
   27MOL0     O 3636  11.162   2.889  10.500 -0.8516 -0.2536 -0.4156
   27MOL0     C 3637  10.951   3.164  10.401  0.1414 -0.0765 -0.1214
   27MOL0     C 3638  10.863   3.256  10.455 -0.7973 -0.0333 -0.5380
   27MOL0     N 3639  10.067   3.185  10.639  0.5156  0.9167 -0.3491
   27MOL0     N 3640   9.949   3.140  10.679 -0.3303 -0.4847  0.4356
   27MOL0     C 3641   8.803   3.501  10.949  0.6832  0.5277 -0.4486
   27MOL0     C 3642   8.679   3.569  10.953 -0.9498 -0.1386  0.0197
   27MOL0     C 3643   8.246   3.643  11.103 -0.3060 -0.3711 -0.1600
   27MOL0     C 3644   8.234   3.649  10.963 -0.5407  0.7976 -0.1065
   27MOL0     C 3645   8.112   3.674  10.900 -0.5233  0.2174  0.9522
   27MOL0     C 3646   7.992   3.676  10.969 -0.5539 -0.2865  0.4250
   27MOL0     O 3647   7.872   3.706  10.899 -0.3255 -0.5092  0.2476
   27MOL0     C 3648   7.757   3.774  10.960 -0.3280 -0.8010  0.2739
   27MOL0     C 3649   7.777   3.927  10.978 -1.0835 -0.2124 -0.1222
   27MOL0     C 3650   7.658   4.019  11.016 -0.6304  0.7049  0.5869
   27MOL0     C 3651   7.709   4.167  11.026  0.8918  0.6903 -0.4603
   27MOL0     C 3652   7.803   4.200  11.139 -0.1387  0.5666 -0.7914
   27MOL0     C 3653   7.877   4.242  11.231  0.1149  0.9890 -0.5384
   27MOL0     C 3654   8.005   3.660  11.106  0.3332 -0.1922 -0.1387
   27MOL0     C 3655   8.128   3.651  11.175  0.7821 -0.0555 -0.5583
   27MOL0     C 3656   8.109   3.663  11.330  0.3328  0.1405  0.9078
   27MOL0     H 3657   8.604   3.502  11.271  0.9866 -0.7171  0.3782
   27MOL0     H 3658   8.804   3.387  11.270  1.9977  3.3713  1.9646
   27MOL0     H 3659   8.959   3.217  11.195 -0.2737  1.5296  0.0479
   27MOL0     H 3660   9.065   3.350  11.240 -0.1858  0.3983  0.7870
   27MOL0     H 3661   9.185   3.164  11.227 -1.7965 -3.3012 -1.1424
   27MOL0     H 3662   9.132   3.133  11.053  1.9805  0.5368 -1.8155
   27MOL0     H 3663   9.260   3.306  10.960  0.0788  1.0189 -0.0368
   27MOL0     H 3664   9.273   3.392  11.119 -1.3757  0.2753 -1.4392
   27MOL0     H 3665   9.436   3.203  11.193  1.0992  0.5749 -0.2012
   27MOL0     H 3666   9.387   3.121  11.050 -0.6482 -0.3062  2.8259
   27MOL0     H 3667   9.516   3.395  11.031 -1.3712  0.7839 -1.0489
   27MOL0     H 3668   9.509   3.272  10.902  0.1858  2.6351 -0.3499
   27MOL0     H 3669   9.675   3.259  11.154  0.8789  0.1409 -0.7029
   27MOL0     H 3670   9.644   3.121  11.046 -1.0072  0.7966 -2.9064
   27MOL0     H 3671   9.866   3.240  11.023 -1.9910 -0.3238  2.4775
   27MOL0     H 3672   9.794   3.384  10.984  0.4925 -0.7658 -1.3406
   27MOL0     H 3673   9.717   3.151  10.813 -1.7565  0.9135 -0.8444
   27MOL0     H 3674   9.735   3.325  10.759  0.7795  0.0267  0.3483
   27MOL0     H 3675  10.000   3.435  10.823  0.5759  0.3315 -0.8895
   27MOL0     H 3676  10.220   3.442  10.775  0.8808 -2.3922  1.8697
   27MOL0     H 3677  10.220   3.466  10.605 -0.4466 -0.0368 -0.5121
   27MOL0     H 3678  10.339   3.215  10.751 -1.3575 -0.6028 -0.8844
   27MOL0     H 3679  10.311   3.231  10.583 -5.1317 -4.3040  2.5607
   27MOL0     H 3680  10.475   3.400  10.553  1.0279  0.2275 -0.2567
   27MOL0     H 3681  10.491   3.431  10.727 -1.0310  0.0795 -0.1679
   27MOL0     H 3682  10.585   3.189  10.731 -0.9426 -1.7243 -0.9630
   27MOL0     H 3683  10.561   3.195  10.554  1.4843 -1.5479  0.4578
   27MOL0     H 3684  10.836   3.148  10.769  0.5664 -0.3473 -0.0217
   27MOL0     H 3685  11.109   2.941  10.730  0.4816  1.8981  0.2919
   27MOL0     H 3686  10.971   2.848  10.698  0.3436  0.5425 -1.7932
   27MOL0     H 3687  10.960   2.958  10.830 -1.3338 -1.7444 -0.8467
   27MOL0     H 3688  11.111   2.866  10.103 -0.2701  2.3826  1.9695
   27MOL0     H 3689  11.290   2.711   9.978  0.7980  1.1343 -0.9959
   27MOL0     H 3690  11.682   2.830   9.976  0.3324  0.6774 -0.0881
   27MOL0     H 3691  11.726   2.750  10.121  0.7355  1.2426 -1.3410
   27MOL0     H 3692  11.699   2.601   9.851 -1.7426 -0.8044  0.2645
   27MOL0     H 3693  11.853   2.628   9.937 -0.1477  0.1695  2.7481
   27MOL0     H 3694  11.643   2.475  10.088  1.4505  1.1985  4.7354
   27MOL0     H 3695  11.809   2.515  10.127  1.4402 -2.0603 -0.5401
   27MOL0     H 3696  11.885   2.392   9.915  1.2846  2.5856  2.8681
   27MOL0     H 3697  11.720   2.327   9.908  1.1734 -5.1351  1.4274
   27MOL0     H 3698  11.919   2.278  10.124 -1.6939  1.4748  2.7678
   27MOL0     H 3699  11.744   2.261  10.158 -1.5549  2.5766 -3.2766
   27MOL0     H 3700  11.873   2.047  10.102  1.3848 -0.2829 -0.7781
   27MOL0     H 3701  11.902   2.111   9.947  0.6264  1.4043  1.0341
   27MOL0     H 3702  11.661   2.106   9.878 -0.7902 -2.0418  0.0614
   27MOL0     H 3703  11.621   2.039  10.042 -2.7391 -0.2990 -1.8590
   27MOL0     H 3704  11.761   1.853   9.987  0.4278  1.2031  1.1507
   27MOL0     H 3705  11.819   1.931   9.837  1.1068  1.6501  2.3904
   27MOL0     H 3706  11.580   2.854  10.267 -0.1125  0.2807 -1.3038
   27MOL0     H 3707  11.423   3.001  10.364 -0.1755 -0.7512  0.9082
   27MOL0     H 3708  10.976   3.171  10.296  1.3674  0.2532  0.1784
   27MOL0     H 3709  10.824   3.341  10.399  0.0073  1.6666  1.3409
   27MOL0     H 3710   8.855   3.496  10.853 -1.5895  0.0172 -1.7336
   27MOL0     H 3711   8.633   3.615  10.866  1.1246 -0.4348 -1.3031
   27MOL0     H 3712   8.318   3.622  10.900 -0.0877 -1.6179  1.3943
   27MOL0     H 3713   8.107   3.693  10.794 -0.8320  1.4100  1.1713
   27MOL0     H 3714   7.671   3.773  10.893 -0.5622  1.4295  0.4677
   27MOL0     H 3715   7.733   3.728  11.056  2.3738 -1.0111  0.9361
   27MOL0     H 3716   7.808   3.961  10.878  1.5175  1.1722  1.0446
   27MOL0     H 3717   7.873   3.950  11.024 -1.2477 -1.4628  0.8982
   27MOL0     H 3718   7.584   4.011  10.935  0.5998  3.3188 -0.9278
   27MOL0     H 3719   7.612   3.996  11.112  1.3888  0.1283  1.4619
   27MOL0     H 3720   7.619   4.221  11.059  0.5189 -0.3949  0.3372
   27MOL0     H 3721   7.744   4.213  10.933 -3.5198  0.4846 -2.4992
   27MOL0     H 3722   7.934   4.286  11.310 -2.5802  0.2135  2.0074
   27MOL0     H 3723   7.912   3.652  11.161 -0.9405  0.5984 -2.0410
   27MOL0     H 3724   8.011   3.707  11.350  1.1333  2.0671  0.7687
   27MOL0     H 3725   8.109   3.556  11.356 -1.9177 -0.6775 -1.9792
   27MOL0     H 3726   8.190   3.710  11.386  1.7575 -0.2431 -0.7357
   28MOL0     O 3727   1.769   7.373   2.710  0.9100  0.3994  0.1506
   28MOL0     C 3728   1.771   7.273   2.642 -0.1636 -0.0677 -0.0544
   28MOL0     O 3729   1.668   7.190   2.619  0.6476  0.3476  0.5138
   28MOL0     C 3730   1.553   7.219   2.686  0.5819  0.9740  0.1669
   28MOL0     C 3731   1.536   7.204   2.825 -0.4693 -0.4122 -0.0296
   28MOL0     C 3732   1.408   7.226   2.883  0.3952 -0.1011 -0.1459
   28MOL0     C 3733   1.292   7.261   2.809 -0.2054 -0.5184  1.0696
   28MOL0     O 3734   1.165   7.274   2.859 -0.2101 -0.2782 -0.2309
   28MOL0     C 3735   1.131   7.231   2.996  0.6610  0.2880 -0.1585
   28MOL0     C 3736   1.024   7.334   3.040 -0.5805  0.7866 -1.3467
   28MOL0     C 3737   0.924   7.374   2.932 -0.3285 -0.0663 -0.2306
   28MOL0     C 3738   0.803   7.457   2.977  1.0095  0.0890 -0.1221
   28MOL0     C 3739   0.709   7.380   3.075  0.2098  0.0692  0.2557
   28MOL0     C 3740   0.572   7.458   3.084  0.1295  0.4085 -0.0490
   28MOL0     C 3741   0.475   7.397   3.194  0.2090  0.7000  0.3934
   28MOL0     C 3742   0.386   7.294   3.125  0.6358 -0.3950  0.8026
   28MOL0     N 3743   0.253   7.333   3.073  0.0923 -0.1049  0.5098
   28MOL0     C 3744   0.231   7.463   3.040 -0.8704 -0.0639 -0.1458
   28MOL0     C 3745   0.100   7.480   3.014 -0.8314  0.6100 -0.4189
   28MOL0     C 3746   0.031   7.614   2.996 -1.1105 -0.0669  0.2471
   28MOL0     C 3747   0.018   7.684   3.136  0.4749  0.3229 -0.5661
   28MOL0     C 3748  -0.056   7.820   3.127  0.5243  0.1421  0.0260
   28MOL0     C 3749  -0.056   7.894   3.266 -0.6061 -0.1648  0.7096
   28MOL0     O 3750  -0.145   8.005   3.259 -0.1979  0.2988  0.1537
   28MOL0     C 3751  -0.279   7.996   3.268 -0.7059  0.1956 -0.5172
   28MOL0     C 3752  -0.351   7.898   3.328 -0.3567 -0.4599  0.1413
   28MOL0     C 3753  -0.495   7.909   3.341  0.6119 -0.0328 -0.2452
   28MOL0     C 3754  -0.561   7.798   3.421 -0.1586 -0.7607  0.2397
   28MOL0     C 3755  -0.569   8.014   3.279  0.1800  0.6542 -0.3397
   28MOL0     C 3756  -0.724   8.007   3.256 -0.2886 -0.3236  0.6090
   28MOL0     O 3757  -0.780   8.112   3.179 -0.2534 -0.5496  0.1076
   28MOL0     C 3758  -0.909   8.106   3.158 -0.1048 -1.0586  0.4937
   28MOL0     C 3759  -0.959   8.108   3.027  0.0739 -0.1630  0.2075
   28MOL0     C 3760  -1.097   8.128   3.000 -0.0667  0.7219  0.1705
   28MOL0     C 3761  -1.194   8.128   3.105 -0.5074 -0.8268 -0.1094
   28MOL0     O 3762  -1.326   8.143   3.095  0.3512 -0.7561  0.6917
   28MOL0     C 3763  -1.389   8.166   2.967  0.4806 -0.3253  0.6358
   28MOL0     C 3764  -1.532   8.211   2.986  0.3316 -0.0019  0.1329
   28MOL0     C 3765  -1.605   8.270   2.863 -0.0292 -0.8870  0.0206
   28MOL0     C 3766  -1.725   8.366   2.904  1.3251  0.1279 -0.5533
   28MOL0     C 3767  -1.834   8.365   2.789 -0.4338  0.1088 -0.0049
   28MOL0     C 3768  -1.953   8.436   2.857 -0.2817 -0.0392 -0.3861
   28MOL0     C 3769  -2.072   8.452   2.762  0.3388  0.1157 -0.1114
   28MOL0     C 3770  -2.185   8.514   2.836 -0.1446 -0.5886 -0.3094
   28MOL0    Cl 3771  -2.329   8.543   2.734 -0.0833  0.4053  0.3490
   28MOL0     C 3772  -1.144   8.125   3.229  0.1386  0.8578 -0.5125
   28MOL0     C 3773  -1.007   8.116   3.257 -0.4799  0.6310  0.7846
   28MOL0     O 3774  -0.791   7.912   3.314 -0.5142 -0.2734  0.8137
   28MOL0     C 3775  -0.492   8.119   3.214 -0.3997  0.5531  0.9407
   28MOL0     C 3776  -0.352   8.104   3.220  0.4019 -0.3812 -0.5073
   28MOL0     N 3777   0.033   7.359   3.043 -0.5686  0.0948  0.3804
   28MOL0     N 3778   0.128   7.273   3.071  0.8781  0.2127 -1.4180
   28MOL0     C 3779   1.318   7.289   2.674  0.4035 -0.3089  0.3357
   28MOL0     C 3780   1.438   7.262   2.617  0.9281  0.2606  0.0281
   28MOL0     C 3781   1.904   7.217   2.580  0.9020  0.5289  0.1930
   28MOL0     C 3782   1.902   7.155   2.451 -0.3066  0.6057 -1.0980
   28MOL0     C 3783   2.017   7.105   2.395  0.4295 -0.5530 -0.6130
   28MOL0     C 3784   2.146   7.138   2.452  0.7469 -0.0268  0.1146
   28MOL0     O 3785   2.252   7.077   2.397  0.2998 -0.0905  0.1461
   28MOL0     C 3786   2.292   6.968   2.478  0.5511 -0.2971 -0.5235
   28MOL0     C 3787   2.400   6.877   2.422  0.1830  0.1164  0.8914
   28MOL0     C 3788   2.364   6.806   2.278 -1.1257 -0.1338 -0.2817
   28MOL0     C 3789   2.482   6.803   2.176  0.5703  0.3418  0.5047
   28MOL0     C 3790   2.433   6.740   2.052  0.2697 -1.5268 -0.6259
   28MOL0     C 3791   2.383   6.708   1.949 -0.4384  0.5073  0.6658
   28MOL0     C 3792   2.152   7.199   2.570  0.0435  0.0745 -0.8995
   28MOL0     C 3793   2.032   7.244   2.639  0.2140  0.4928 -0.0089
   28MOL0     C 3794   2.044   7.302   2.776 -0.1627 -0.3381  0.1080
   28MOL0     H 3795   1.611   7.166   2.892 -1.6850  0.6183  2.0274
   28MOL0     H 3796   1.397   7.216   2.990  0.2527 -1.9006 -0.2982
   28MOL0     H 3797   1.217   7.213   3.061  0.5823  0.5137  0.0123
   28MOL0     H 3798   1.086   7.132   2.983 -0.4646  0.6023  1.0511
   28MOL0     H 3799   0.976   7.290   3.128  1.7241  0.8024 -0.0094
   28MOL0     H 3800   1.081   7.420   3.076 -0.9210 -0.4938  2.7808
   28MOL0     H 3801   0.972   7.435   2.855 -2.1501  0.2352 -1.1876
   28MOL0     H 3802   0.878   7.292   2.876  0.5880  0.0564 -1.1925
   28MOL0     H 3803   0.842   7.550   3.018  3.6770 -1.0207  0.1298
   28MOL0     H 3804   0.736   7.484   2.895  1.6126  1.2145 -0.2628
   28MOL0     H 3805   0.758   7.384   3.173 -3.1477 -3.2868  2.3032
   28MOL0     H 3806   0.679   7.279   3.049 -3.2841  1.6526 -2.7932
   28MOL0     H 3807   0.584   7.566   3.094 -3.9979  1.1050 -0.5143
   28MOL0     H 3808   0.508   7.452   2.995 -0.3852  0.4349  0.3164
   28MOL0     H 3809   0.410   7.478   3.228 -0.5482  0.7907 -1.2091
   28MOL0     H 3810   0.520   7.359   3.287 -0.1545 -0.2327  0.2053
   28MOL0     H 3811   0.448   7.254   3.044 -0.6507 -2.4927  0.7624
   28MOL0     H 3812   0.363   7.220   3.202  2.1290 -3.4104 -1.4081
   28MOL0     H 3813   0.307   7.540   3.029  2.1452 -2.4973  1.7321
   28MOL0     H 3814  -0.068   7.602   2.951 -1.2870  2.2025 -0.0436
   28MOL0     H 3815   0.093   7.683   2.939 -1.5745  1.9412  2.0349
   28MOL0     H 3816  -0.042   7.618   3.198 -0.0949  0.5488 -0.8710
   28MOL0     H 3817   0.115   7.703   3.182 -0.0962  1.8938  0.0508
   28MOL0     H 3818  -0.008   7.892   3.060 -3.4167  3.0984  0.0245
   28MOL0     H 3819  -0.156   7.806   3.084  1.5204 -0.3018 -2.3013
   28MOL0     H 3820  -0.083   7.826   3.348 -1.1117  0.6274  1.2059
   28MOL0     H 3821   0.041   7.939   3.285  0.4368 -1.1974 -1.6391
   28MOL0     H 3822  -0.302   7.817   3.381  3.5687  2.8245  2.1616
   28MOL0     H 3823  -0.486   7.740   3.475  0.1461  2.2043  3.3435
   28MOL0     H 3824  -0.626   7.731   3.365  2.0706 -1.9683 -1.0495
   28MOL0     H 3825  -0.619   7.841   3.503  1.0271  2.1624 -0.2997
   28MOL0     H 3826  -0.882   8.110   2.950  1.4523  1.8560  1.5475
   28MOL0     H 3827  -1.127   8.144   2.897  4.0123  0.8086 -1.1744
   28MOL0     H 3828  -1.328   8.239   2.913  0.0803 -1.7669 -1.9348
   28MOL0     H 3829  -1.395   8.080   2.900 -2.7237  0.7330 -0.6130
   28MOL0     H 3830  -1.592   8.134   3.036 -1.0376  0.7101 -0.3516
   28MOL0     H 3831  -1.526   8.289   3.063  1.1869 -0.7637  0.8574
   28MOL0     H 3832  -1.643   8.192   2.796  1.9254  0.1167 -2.3992
   28MOL0     H 3833  -1.528   8.319   2.804  0.1907 -0.6301  0.5085
   28MOL0     H 3834  -1.694   8.468   2.931 -1.5936  1.2016 -0.8966
   28MOL0     H 3835  -1.774   8.321   2.991  0.2865 -1.4109 -1.8872
   28MOL0     H 3836  -1.793   8.423   2.705  0.2594 -0.9127 -0.3936
   28MOL0     H 3837  -1.867   8.267   2.755  0.0245 -0.4521  1.1351
   28MOL0     H 3838  -1.922   8.524   2.913 -0.6661 -0.3776  0.3762
   28MOL0     H 3839  -1.990   8.364   2.931 -0.7183 -0.9322 -1.4496
   28MOL0     H 3840  -2.112   8.360   2.717 -0.4616  1.2556 -1.8604
   28MOL0     H 3841  -2.044   8.504   2.669  1.6091  0.5386  0.4909
   28MOL0     H 3842  -2.129   8.599   2.876  1.3616 -2.3344  1.5016
   28MOL0     H 3843  -2.205   8.449   2.922 -0.6491  0.5556  0.4663
   28MOL0     H 3844  -1.205   8.141   3.318  1.5779 -0.3842  0.7456
   28MOL0     H 3845  -0.990   8.128   3.364  0.6034 -0.4370  0.7693
   28MOL0     H 3846  -0.546   8.197   3.162 -0.9315  0.1460  0.8792
   28MOL0     H 3847  -0.287   8.173   3.166  1.3182  0.2304  1.3192
   28MOL0     H 3848   1.239   7.327   2.609 -0.7304  1.7281  2.7320
   28MOL0     H 3849   1.452   7.274   2.510  0.4727 -3.3584 -0.5830
   28MOL0     H 3850   1.809   7.134   2.399 -0.8619 -1.0071  0.4491
   28MOL0     H 3851   2.008   7.063   2.295 -0.2119  2.1482 -1.7833
   28MOL0     H 3852   2.327   7.005   2.575 -0.8150 -1.5674  0.5001
   28MOL0     H 3853   2.206   6.902   2.498  1.3809 -1.0992  0.5230
   28MOL0     H 3854   2.434   6.803   2.495  0.0065  0.4589  1.3248
   28MOL0     H 3855   2.496   6.929   2.411  0.9301 -1.3595 -0.0576
   28MOL0     H 3856   2.339   6.700   2.291  2.5654 -0.9141  2.0566
   28MOL0     H 3857   2.271   6.852   2.244 -0.5802  1.7410  0.6339
   28MOL0     H 3858   2.573   6.753   2.211 -0.6365 -1.1837  1.5766
   28MOL0     H 3859   2.515   6.905   2.153  0.2651  0.5795  1.0988
   28MOL0     H 3860   2.351   6.680   1.851 -1.2381  1.0937  0.7474
   28MOL0     H 3861   2.250   7.225   2.607 -0.4440  0.7973 -0.0650
   28MOL0     H 3862   2.042   7.410   2.764 -1.3322 -0.2296  1.1230
   28MOL0     H 3863   1.969   7.260   2.844 -3.6326  1.6974 -2.1641
   28MOL0     H 3864   2.144   7.274   2.811  0.0107  1.4519  1.1309
   29MOL0     O 3865   0.707   3.009   1.744  0.4036 -0.0209  0.4859
   29MOL0     C 3866   0.624   3.002   1.658  0.4318  0.6222  0.3685
   29MOL0     O 3867   0.496   2.956   1.674  0.1691  0.1341 -0.4295
   29MOL0     C 3868   0.459   2.909   1.798  0.7627 -0.3632 -0.4901
   29MOL0     C 3869   0.368   2.806   1.795 -0.5917 -0.1323 -0.5578
   29MOL0     C 3870   0.312   2.751   1.911  0.1922  0.6867 -0.9998
   29MOL0     C 3871   0.342   2.805   2.039  0.6489 -0.6358  0.4335
   29MOL0     O 3872   0.273   2.768   2.148 -0.2875  0.0153 -0.3048
   29MOL0     C 3873   0.250   2.635   2.170  0.0617 -0.4550 -0.2525
   29MOL0     C 3874   0.193   2.613   2.313 -0.2582 -0.2554  0.6612
   29MOL0     C 3875   0.072   2.709   2.349 -0.0306  0.8164 -0.3343
   29MOL0     C 3876   0.005   2.662   2.482  0.3800  0.3439 -0.1287
   29MOL0     C 3877  -0.117   2.754   2.516  0.2384 -0.0384 -0.0851
   29MOL0     C 3878  -0.229   2.668   2.589 -0.1713  0.1301 -0.6719
   29MOL0     C 3879  -0.375   2.723   2.595  0.1476  0.5746 -0.3876
   29MOL0     C 3880  -0.438   2.736   2.452  0.6471 -0.5616  0.6956
   29MOL0     N 3881  -0.525   2.626   2.416  0.1991  0.6843  0.6658
   29MOL0     C 3882  -0.634   2.583   2.495  0.2317 -0.4102  0.2346
   29MOL0     C 3883  -0.676   2.479   2.434  0.2121 -0.6440  0.1917
   29MOL0     C 3884  -0.793   2.413   2.486  0.0863  0.0004 -0.2517
   29MOL0     C 3885  -0.793   2.406   2.642  0.2747  0.3937 -0.6974
   29MOL0     C 3886  -0.864   2.285   2.710  0.3123  0.4716  0.0443
   29MOL0     C 3887  -1.007   2.258   2.677  0.2226  0.5071  0.0816
   29MOL0     O 3888  -1.095   2.363   2.729  0.6992  0.9269 -0.5096
   29MOL0     C 3889  -1.231   2.333   2.717 -0.3391 -0.3037 -0.2874
   29MOL0     C 3890  -1.318   2.435   2.750 -0.2576  0.2110  0.2139
   29MOL0     C 3891  -1.457   2.413   2.736 -0.1336 -0.4446  0.6914
   29MOL0     C 3892  -1.542   2.525   2.780  0.7541 -0.5086 -0.3792
   29MOL0     C 3893  -1.514   2.289   2.687 -0.4023 -0.3158 -0.4746
   29MOL0     C 3894  -1.659   2.265   2.681 -0.4062 -0.3322 -0.2572
   29MOL0     O 3895  -1.732   2.376   2.652 -0.2178  0.1838  0.4854
   29MOL0     C 3896  -1.872   2.369   2.638 -0.2328  0.5249 -0.1371
   29MOL0     C 3897  -1.952   2.255   2.611 -0.5050  0.2074  0.3991
   29MOL0     C 3898  -2.091   2.262   2.585  0.5326 -0.0648 -1.0908
   29MOL0     C 3899  -2.158   2.383   2.605  1.2123 -1.0284 -1.0300
   29MOL0     O 3900  -2.294   2.402   2.571  0.7255 -0.0255  0.6788
   29MOL0     C 3901  -2.361   2.292   2.492 -0.3505 -0.4876 -0.6471
   29MOL0     C 3902  -2.470   2.371   2.423  0.8163 -0.5823  0.2329
   29MOL0     C 3903  -2.557   2.273   2.340 -0.2660  0.5453  0.1096
   29MOL0     C 3904  -2.670   2.359   2.290 -0.2787  0.7244  0.6280
   29MOL0     C 3905  -2.753   2.299   2.185  0.2375  0.2960 -0.0314
   29MOL0     C 3906  -2.818   2.163   2.230  0.0590 -0.2707 -0.0371
   29MOL0     C 3907  -2.918   2.132   2.128  0.1360  1.2588 -0.1511
   29MOL0     C 3908  -3.013   2.016   2.163 -0.8706  0.9313 -1.1191
   29MOL0    Cl 3909  -2.910   1.863   2.189  0.8387 -0.4483  0.2158
   29MOL0     C 3910  -2.084   2.495   2.645 -0.6396 -0.1072 -0.4275
   29MOL0     C 3911  -1.943   2.483   2.670  0.5317 -0.5326 -1.3231
   29MOL0     O 3912  -1.698   2.169   2.741 -0.4385 -0.4272 -0.0155
   29MOL0     C 3913  -1.422   2.186   2.661 -0.2520  0.3448 -0.5793
   29MOL0     C 3914  -1.281   2.211   2.665 -0.0169 -0.1056  0.2576
   29MOL0     N 3915  -0.607   2.458   2.319 -0.3748  0.2894 -0.0219
   29MOL0     N 3916  -0.511   2.548   2.301  0.4980  0.0906 -1.3078
   29MOL0     C 3917   0.429   2.916   2.041 -0.7615 -0.1004 -0.8503
   29MOL0     C 3918   0.495   2.958   1.925 -1.0102  0.3738 -0.3264
   29MOL0     C 3919   0.642   3.056   1.521 -0.1454  0.0494  0.3716
   29MOL0     C 3920   0.528   3.085   1.435  0.0935 -0.2963  0.0220
   29MOL0     C 3921   0.542   3.147   1.315 -0.7894  0.5595  0.5427
   29MOL0     C 3922   0.675   3.171   1.263  0.1197  0.2158 -0.3246
   29MOL0     O 3923   0.708   3.199   1.131 -0.1840 -0.1238 -0.0852
   29MOL0     C 3924   0.606   3.239   1.043  0.3590 -0.2600 -0.4289
   29MOL0     C 3925   0.550   3.105   0.980  0.1232  0.2151  0.3571
   29MOL0     C 3926   0.644   3.062   0.863  0.4811  0.0381 -0.0404
   29MOL0     C 3927   0.585   2.931   0.798 -0.1924  0.1226 -0.0585
   29MOL0     C 3928   0.689   2.868   0.712 -0.6828  0.6498  0.2462
   29MOL0     C 3929   0.771   2.825   0.624  1.0142 -1.4843 -0.0419
   29MOL0     C 3930   0.788   3.130   1.344  0.7193 -0.5216  0.5036
   29MOL0     C 3931   0.776   3.083   1.476  0.4414  0.0879  0.0695
   29MOL0     C 3932   0.907   3.068   1.549  0.1834 -0.2373 -0.6069
   29MOL0     H 3933   0.333   2.769   1.700 -0.4026  0.3334 -0.8139
   29MOL0     H 3934   0.238   2.673   1.898 -0.8099  1.4325  0.0517
   29MOL0     H 3935   0.342   2.579   2.150 -0.4313 -1.1893 -0.4983
   29MOL0     H 3936   0.181   2.592   2.097 -0.6277 -0.5963  0.4674
   29MOL0     H 3937   0.147   2.513   2.316 -0.8404  0.0274  2.3213
   29MOL0     H 3938   0.279   2.618   2.380  2.9357  1.5702 -3.1603
   29MOL0     H 3939   0.091   2.816   2.356  1.8778  0.4670  0.6206
   29MOL0     H 3940  -0.007   2.695   2.274 -0.2243 -1.8720  0.2512
   29MOL0     H 3941  -0.023   2.558   2.464 -0.0682  0.6255 -1.0997
   29MOL0     H 3942   0.080   2.673   2.561 -1.2554 -0.6049  1.6567
   29MOL0     H 3943  -0.157   2.791   2.422  0.8139 -0.1733 -0.3931
   29MOL0     H 3944  -0.091   2.843   2.574  0.5114 -0.6334  0.7301
   29MOL0     H 3945  -0.230   2.565   2.552  0.2513 -1.2216  2.7250
   29MOL0     H 3946  -0.188   2.656   2.690  1.2724 -1.8236 -1.4190
   29MOL0     H 3947  -0.370   2.824   2.637 -0.8188  0.9658 -1.1659
   29MOL0     H 3948  -0.434   2.654   2.654 -1.3781 -0.2471 -2.7474
   29MOL0     H 3949  -0.508   2.819   2.438  2.1234  0.5469 -0.4758
   29MOL0     H 3950  -0.359   2.736   2.377  0.1752  0.9218  0.1553
   29MOL0     H 3951  -0.670   2.638   2.581 -2.4860  0.6496 -1.4355
   29MOL0     H 3952  -0.792   2.309   2.450 -3.2537 -1.0316  2.1089
   29MOL0     H 3953  -0.889   2.458   2.457 -1.1322 -0.0389  3.2523
   29MOL0     H 3954  -0.690   2.413   2.677 -0.2659  0.1396  1.0795
   29MOL0     H 3955  -0.840   2.495   2.685 -0.4575  1.2141 -3.0458
   29MOL0     H 3956  -0.813   2.196   2.670  0.7722  0.9967 -0.5628
   29MOL0     H 3957  -0.845   2.275   2.817  1.5740 -2.3237 -0.3634
   29MOL0     H 3958  -1.007   2.250   2.568 -0.1840 -0.3435  0.1336
   29MOL0     H 3959  -1.034   2.159   2.715 -1.1867  0.4731 -0.9333
   29MOL0     H 3960  -1.289   2.532   2.789  0.8374 -0.4671  1.1611
   29MOL0     H 3961  -1.564   2.581   2.689  0.6108 -0.5280 -0.3562
   29MOL0     H 3962  -1.486   2.582   2.856  0.2288 -1.2077  0.5550
   29MOL0     H 3963  -1.629   2.495   2.839  0.8063 -0.1341 -0.0983
   29MOL0     H 3964  -1.898   2.166   2.580 -1.7024  0.2000 -1.9770
   29MOL0     H 3965  -2.137   2.165   2.567 -1.0482  0.4265  0.0756
   29MOL0     H 3966  -2.290   2.244   2.424 -0.5233  1.8349 -2.6048
   29MOL0     H 3967  -2.414   2.218   2.552 -0.8537  0.6489  0.3490
   29MOL0     H 3968  -2.538   2.413   2.498  0.1163 -0.6493 -0.3523
   29MOL0     H 3969  -2.439   2.455   2.361 -3.3845 -0.9751 -2.8138
   29MOL0     H 3970  -2.600   2.192   2.400  1.4844  2.2416  3.9744
   29MOL0     H 3971  -2.493   2.237   2.259 -0.1807 -0.1999  0.4959
   29MOL0     H 3972  -2.627   2.447   2.240  0.2765  0.1765  0.1281
   29MOL0     H 3973  -2.736   2.382   2.374 -0.5597  0.4064  0.4970
   29MOL0     H 3974  -2.828   2.373   2.157 -0.4242 -1.0040 -1.8686
   29MOL0     H 3975  -2.694   2.273   2.097 -0.0645  0.7513 -0.3721
   29MOL0     H 3976  -2.855   2.165   2.333 -1.6762  0.5155 -0.6474
   29MOL0     H 3977  -2.739   2.087   2.237 -0.1674 -0.6172 -1.0671
   29MOL0     H 3978  -2.869   2.108   2.033 -1.8264  0.0711 -0.9403
   29MOL0     H 3979  -2.981   2.220   2.107  0.7264  2.0104  1.0887
   29MOL0     H 3980  -3.087   2.013   2.083 -2.1964 -0.2403  0.1005
   29MOL0     H 3981  -3.076   2.054   2.244 -1.5819  2.0503 -2.1652
   29MOL0     H 3982  -2.134   2.591   2.653  2.0396  1.3318 -0.0065
   29MOL0     H 3983  -1.894   2.575   2.701 -0.9801  0.1254 -0.8290
   29MOL0     H 3984  -1.474   2.096   2.629 -1.6177  0.4342  1.2577
   29MOL0     H 3985  -1.220   2.126   2.637  1.3531  1.2954 -1.1932
   29MOL0     H 3986   0.441   2.979   2.128  1.9474 -0.8592 -0.6080
   29MOL0     H 3987   0.570   3.035   1.938  1.1782 -1.8787  1.3423
   29MOL0     H 3988   0.432   3.067   1.481  0.2635 -0.4471  0.3256
   29MOL0     H 3989   0.455   3.177   1.257  1.9095  3.6954 -2.3019
   29MOL0     H 3990   0.515   3.288   1.080  1.4812  3.8972 -2.5520
   29MOL0     H 3991   0.641   3.304   0.962  1.5852 -0.6907 -0.2611
   29MOL0     H 3992   0.450   3.123   0.940 -0.5304 -2.0855  0.8152
   29MOL0     H 3993   0.540   3.033   1.062 -4.4506 -0.5087 -0.5814
   29MOL0     H 3994   0.649   3.149   0.796  3.1912 -0.2018 -0.2578
   29MOL0     H 3995   0.746   3.036   0.891  0.4820 -2.3658 -1.9297
   29MOL0     H 3996   0.495   2.948   0.738 -0.9481 -3.0399  0.0008
   29MOL0     H 3997   0.559   2.853   0.870  1.1861 -2.9468 -2.5998
   29MOL0     H 3998   0.852   2.791   0.563  0.4375 -2.4893 -0.2810
   29MOL0     H 3999   0.882   3.129   1.290  0.8314  0.1251  0.6821
   29MOL0     H 4000   0.895   3.142   1.629 -0.4190  0.4830 -1.3429
   29MOL0     H 4001   0.929   2.976   1.603  1.0939 -0.6172 -1.5829
   29MOL0     H 4002   0.990   3.094   1.482 -0.5358  2.6966 -0.4890
   30MOL0     O 4003   6.378  11.078   0.015  1.0919 -0.2155  0.3211
   30MOL0     C 4004   6.397  11.058   0.134  0.4042 -0.6867 -0.8592
   30MOL0     O 4005   6.518  11.054   0.193  0.3307 -0.5730  0.2818
   30MOL0     C 4006   6.622  11.083   0.110  0.0645 -0.6390 -0.0098
   30MOL0     C 4007   6.701  10.985   0.052 -0.0534 -0.2820  0.4284
   30MOL0     C 4008   6.797  11.015  -0.047  0.2644  0.1004  0.5120
   30MOL0     C 4009   6.817  11.147  -0.085 -0.3089  0.0047 -1.2470
   30MOL0     O 4010   6.910  11.170  -0.184  1.0073  0.5017 -0.0919
   30MOL0     C 4011   6.993  11.273  -0.148 -0.0798 -0.1456 -0.9931
   30MOL0     C 4012   7.106  11.276  -0.234 -0.7468 -0.7882  0.2135
   30MOL0     C 4013   7.228  11.202  -0.164 -0.7056 -0.5717  0.4172
   30MOL0     C 4014   7.222  11.051  -0.172  0.4969  0.1881 -0.2358
   30MOL0     C 4015   7.331  10.983  -0.094  0.2082  0.9812  0.1166
   30MOL0     C 4016   7.326  10.828  -0.138 -0.7832 -0.1101 -0.7011
   30MOL0     C 4017   7.414  10.733  -0.039  0.1623 -0.1873 -0.0473
   30MOL0     C 4018   7.394  10.592  -0.090 -0.6704 -0.7301  0.2492
   30MOL0     N 4019   7.485  10.491  -0.019 -0.4123  0.2021  0.6771
   30MOL0     C 4020   7.474  10.446   0.111  1.0266 -0.1727 -0.9911
   30MOL0     C 4021   7.600  10.402   0.150  0.5844  0.2281 -0.5626
   30MOL0     C 4022   7.631  10.356   0.294 -0.4638  1.1483  0.1525
   30MOL0     C 4023   7.597  10.475   0.395 -0.2271  0.4659  0.0563
   30MOL0     C 4024   7.609  10.436   0.541  0.2415  0.4514 -0.1872
   30MOL0     C 4025   7.751  10.368   0.571  0.1302 -0.5837 -0.1596
   30MOL0     O 4026   7.848  10.480   0.554 -0.1193  0.0005 -0.0048
   30MOL0     C 4027   7.911  10.509   0.670 -0.5677 -0.0028  0.4454
   30MOL0     C 4028   8.047  10.503   0.692 -0.9331 -0.4272  0.3242
   30MOL0     C 4029   8.111  10.549   0.812 -0.2799  0.4657 -0.0724
   30MOL0     C 4030   8.264  10.530   0.824  0.3174 -0.3454 -0.1790
   30MOL0     C 4031   8.035  10.598   0.917  0.0008  0.0108  0.3806
   30MOL0     C 4032   8.099  10.654   1.027 -0.0839  0.4926 -0.1926
   30MOL0     O 4033   8.200  10.582   1.086 -0.3301 -0.1086  0.1180
   30MOL0     C 4034   8.277  10.639   1.191  0.2828 -0.1483 -0.0515
   30MOL0     C 4035   8.245  10.597   1.321 -1.0037  0.0986 -0.0925
   30MOL0     C 4036   8.306  10.654   1.437 -0.2874 -0.9815 -0.5082
   30MOL0     C 4037   8.410  10.748   1.419  0.2606  0.4429  0.8815
   30MOL0     O 4038   8.466  10.801   1.527 -0.4242 -0.3538 -0.7868
   30MOL0     C 4039   8.551  10.919   1.518  0.4813 -0.1401  0.2406
   30MOL0     C 4040   8.577  10.970   1.654  0.1810 -0.4937 -0.1944
   30MOL0     C 4041   8.621  11.114   1.642 -0.7760  0.6458 -0.6267
   30MOL0     C 4042   8.668  11.186   1.768  0.3068 -0.8415  0.2369
   30MOL0     C 4043   8.724  11.326   1.738  0.4101 -0.7883  0.8927
   30MOL0     C 4044   8.743  11.410   1.860 -0.0906 -0.1847  0.6168
   30MOL0     C 4045   8.846  11.360   1.957 -0.1885 -0.2659  0.1238
   30MOL0     C 4046   8.837  11.429   2.099 -0.1999  0.4422 -0.3206
   30MOL0    Cl 4047   8.935  11.355   2.225 -0.4210  0.4032  0.2000
   30MOL0     C 4048   8.449  10.774   1.279 -0.0452 -0.4432  0.5602
   30MOL0     C 4049   8.389  10.715   1.169 -0.2893 -0.5576 -1.4054
   30MOL0     O 4050   8.054  10.754   1.068 -0.0807 -0.0874  1.0261
   30MOL0     C 4051   7.901  10.628   0.889  0.5696  0.7768 -0.4326
   30MOL0     C 4052   7.844  10.585   0.765  0.0848  0.1757 -0.5434
   30MOL0     N 4053   7.679  10.426   0.045 -1.1585  0.3357 -0.3033
   30MOL0     N 4054   7.615  10.483  -0.049 -0.0445  0.2846  0.5620
   30MOL0     C 4055   6.748  11.249  -0.021 -0.2068  0.2736  0.7191
   30MOL0     C 4056   6.644  11.216   0.068 -0.9159 -0.4396  0.7292
   30MOL0     C 4057   6.280  11.038   0.226  0.6338 -0.7858 -0.0097
   30MOL0     C 4058   6.300  10.991   0.352 -0.4937 -0.4187 -0.5099
   30MOL0     C 4059   6.197  10.966   0.437  0.1601 -0.0459 -0.5760
   30MOL0     C 4060   6.065  10.970   0.396 -0.1951 -0.9404  0.4627
   30MOL0     O 4061   5.971  10.927   0.491 -0.3735 -0.0425 -0.4459
   30MOL0     C 4062   5.841  10.890   0.444  0.2351  0.4684 -0.4298
   30MOL0     C 4063   5.762  10.843   0.566 -0.0538 -0.3324 -0.7654
   30MOL0     C 4064   5.620  10.824   0.537 -0.0875  0.1096 -0.5019
   30MOL0     C 4065   5.530  10.952   0.518  0.1063  0.2566  0.4195
   30MOL0     C 4066   5.395  10.909   0.545 -0.3387  0.2558  0.0825
   30MOL0     C 4067   5.287  10.867   0.568  0.4737 -0.3037 -0.1685
   30MOL0     C 4068   6.044  10.994   0.255 -0.4847 -0.2729  0.2000
   30MOL0     C 4069   6.151  11.027   0.177  1.2111  0.6373 -0.1808
   30MOL0     C 4070   6.103  11.054   0.038  0.7908  0.4176 -0.1977
   30MOL0     H 4071   6.687  10.880   0.077 -0.9698 -0.0668  0.8628
   30MOL0     H 4072   6.850  10.935  -0.099 -0.8763  0.0556 -0.6399
   30MOL0     H 4073   7.007  11.273  -0.040 -3.8730  3.3314 -0.2296
   30MOL0     H 4074   6.948  11.369  -0.175  1.5025  0.1955 -2.6077
   30MOL0     H 4075   7.076  11.242  -0.334 -2.2185  1.7057 -0.2841
   30MOL0     H 4076   7.124  11.384  -0.243 -1.8522 -0.5464  0.7997
   30MOL0     H 4077   7.321  11.224  -0.217 -1.1834 -2.1727 -1.2057
   30MOL0     H 4078   7.240  11.245  -0.064  0.5570 -1.0420  0.4916
   30MOL0     H 4079   7.129  11.009  -0.133  2.0149 -2.0671  1.2466
   30MOL0     H 4080   7.233  11.027  -0.278  0.1244  2.7081 -0.9056
   30MOL0     H 4081   7.313  10.984   0.014  0.7620  0.0308  0.2292
   30MOL0     H 4082   7.430  11.024  -0.118 -0.1176  2.1658  0.7301
   30MOL0     H 4083   7.227  10.782  -0.128 -0.8841  0.3885  0.9904
   30MOL0     H 4084   7.358  10.812  -0.241 -0.0295 -0.8316 -0.3697
   30MOL0     H 4085   7.378  10.727   0.064 -1.3538 -0.1922 -0.5496
   30MOL0     H 4086   7.518  10.766  -0.042  0.0982 -0.0196 -0.5875
   30MOL0     H 4087   7.289  10.568  -0.073  0.0648 -2.7152  2.6938
   30MOL0     H 4088   7.408  10.598  -0.198 -0.5552  4.3269  0.3288
   30MOL0     H 4089   7.393  10.447   0.183 -0.1431 -2.6449 -2.1403
   30MOL0     H 4090   7.737  10.329   0.290 -0.6272  0.4121  0.5768
   30MOL0     H 4091   7.570  10.270   0.324 -1.3448  0.9866 -1.9583
   30MOL0     H 4092   7.666  10.556   0.368  0.4035  0.6787  2.1351
   30MOL0     H 4093   7.497  10.514   0.373 -0.2726  1.9692  2.5756
   30MOL0     H 4094   7.601  10.518   0.612 -0.5818 -1.5011  2.1283
   30MOL0     H 4095   7.526  10.372   0.571  0.4147  0.3092 -0.0060
   30MOL0     H 4096   7.755  10.320   0.669  3.4903  3.6440  2.1167
   30MOL0     H 4097   7.784  10.296   0.496 -0.9493 -1.4639  0.1734
   30MOL0     H 4098   8.112  10.461   0.615 -0.8511 -1.4110  0.9182
   30MOL0     H 4099   8.314  10.503   0.730 -2.4436 -0.9458 -1.5757
   30MOL0     H 4100   8.275  10.445   0.892 -2.0379 -0.5514  0.0370
   30MOL0     H 4101   8.307  10.621   0.865 -1.9692  0.4629  0.5832
   30MOL0     H 4102   8.176  10.515   1.339  0.0085 -0.2761  2.5389
   30MOL0     H 4103   8.272  10.628   1.536 -0.8850 -1.1453 -0.7505
   30MOL0     H 4104   8.646  10.897   1.469 -0.7601 -1.0996 -1.8540
   30MOL0     H 4105   8.497  10.997   1.464  0.6160  0.5769  1.1095
   30MOL0     H 4106   8.482  10.973   1.709 -0.2347  1.6265 -0.9504
   30MOL0     H 4107   8.659  10.913   1.698  1.0077 -0.6662 -1.8844
   30MOL0     H 4108   8.540  11.175   1.602  0.7965  5.0634  2.1397
   30MOL0     H 4109   8.701  11.118   1.568 -0.9356 -0.1084 -0.8468
   30MOL0     H 4110   8.745  11.112   1.794  0.2394 -1.1112 -0.3028
   30MOL0     H 4111   8.587  11.180   1.842  0.4364 -2.3037  0.2979
   30MOL0     H 4112   8.811  11.312   1.672 -0.6763  0.7138 -0.9640
   30MOL0     H 4113   8.653  11.375   1.671  2.2809  0.3740 -0.3523
   30MOL0     H 4114   8.648  11.427   1.912  1.3061  2.0931  2.6667
   30MOL0     H 4115   8.771  11.512   1.829 -1.1928  0.7273  2.4584
   30MOL0     H 4116   8.947  11.385   1.924 -0.8522  2.5457 -0.0183
   30MOL0     H 4117   8.844  11.252   1.977  0.5487 -0.5016 -0.9998
   30MOL0     H 4118   8.733  11.420   2.132 -0.3277 -3.4576 -1.2671
   30MOL0     H 4119   8.866  11.534   2.087  2.7069 -0.3552 -0.8370
   30MOL0     H 4120   8.541  10.830   1.262  0.3236 -1.8791 -3.0779
   30MOL0     H 4121   8.421  10.740   1.068  3.0862 -1.8015 -0.7411
   30MOL0     H 4122   7.839  10.690   0.953 -0.8623 -1.0621  0.0286
   30MOL0     H 4123   7.745  10.622   0.739  0.4600 -0.6468 -3.5179
   30MOL0     H 4124   6.770  11.352  -0.047  1.1526 -0.5301 -1.5741
   30MOL0     H 4125   6.582  11.289   0.120 -2.2520 -0.7737 -0.3438
   30MOL0     H 4126   6.399  10.993   0.397 -0.7632 -0.1027  0.0829
   30MOL0     H 4127   6.206  10.948   0.544 -0.9171 -0.6848 -0.5813
   30MOL0     H 4128   5.785  10.967   0.391  1.2234  1.5025 -0.0029
   30MOL0     H 4129   5.837  10.802   0.379 -2.3819 -0.2013  0.4841
   30MOL0     H 4130   5.753  10.916   0.648 -1.5064 -1.7850  0.4465
   30MOL0     H 4131   5.806  10.749   0.600  2.0820  0.2451 -1.7867
   30MOL0     H 4132   5.618  10.763   0.446  0.6038 -1.3241  0.4038
   30MOL0     H 4133   5.590  10.772   0.628 -1.5057  1.6855 -0.0152
   30MOL0     H 4134   5.539  10.988   0.416 -0.5691 -1.2148 -0.1856
   30MOL0     H 4135   5.555  11.024   0.597 -0.8100 -1.0408  1.9530
   30MOL0     H 4136   5.196  10.816   0.593  0.2955 -0.3988 -0.9952
   30MOL0     H 4137   5.946  10.979   0.209  0.9685 -2.4282 -2.4838
   30MOL0     H 4138   6.122  11.159   0.014  1.3971  0.5132  0.6766
   30MOL0     H 4139   6.158  10.993  -0.034 -1.0876 -1.5134 -0.1042
   30MOL0     H 4140   6.002  11.025   0.006  1.7723 -0.6723 -2.5377
   31MOL0     O 4141   2.605   6.790   4.328  0.4991  0.2066 -0.2448
   31MOL0     C 4142   2.551   6.745   4.434 -0.2079 -0.8921  0.8682
   31MOL0     O 4143   2.469   6.637   4.442 -0.1241  0.0891 -0.2016
   31MOL0     C 4144   2.450   6.570   4.323  0.2618  0.4941 -0.8315
   31MOL0     C 4145   2.534   6.470   4.290 -0.9115 -0.7669 -0.4205
   31MOL0     C 4146   2.507   6.401   4.165  0.1053 -0.3310 -0.1322
   31MOL0     C 4147   2.393   6.433   4.082 -0.2037 -0.6449  0.4104
   31MOL0     O 4148   2.380   6.375   3.954 -0.0717  0.3269  0.8869
   31MOL0     C 4149   2.271   6.400   3.866  0.6591 -0.2638 -0.0034
   31MOL0     C 4150   2.284   6.314   3.744  0.5069 -0.1655 -0.3239
   31MOL0     C 4151   2.187   6.364   3.639  1.0398  0.6679  0.2708
   31MOL0     C 4152   2.166   6.245   3.536 -0.7109 -0.9544  0.1210
   31MOL0     C 4153   2.297   6.175   3.483 -0.0329 -0.0434 -0.4342
   31MOL0     C 4154   2.267   6.083   3.367  0.2635 -0.8722  0.2206
   31MOL0     C 4155   2.392   5.998   3.329 -0.6138 -0.0400 -0.0641
   31MOL0     C 4156   2.404   5.858   3.404 -0.3676 -0.4869  0.0037
   31MOL0     N 4157   2.277   5.778   3.398 -0.4733 -0.2892 -0.0380
   31MOL0     C 4158   2.184   5.756   3.499 -0.1798  0.1230 -0.1274
   31MOL0     C 4159   2.072   5.734   3.423  0.3249 -0.4445 -0.3326
   31MOL0     C 4160   1.926   5.728   3.477  0.5613  0.1988  0.0515
   31MOL0     C 4161   1.862   5.586   3.492  0.2278 -0.7775 -0.3875
   31MOL0     C 4162   1.723   5.594   3.549 -0.1066  1.0359 -1.1089
   31MOL0     C 4163   1.668   5.461   3.568  0.4391  0.3418  0.0138
   31MOL0     O 4164   1.528   5.487   3.575 -0.0784  0.0169  0.2416
   31MOL0     C 4165   1.444   5.376   3.561  0.2838  0.1757  0.0488
   31MOL0     C 4166   1.310   5.403   3.548 -0.9410  0.4228  0.2352
   31MOL0     C 4167   1.218   5.293   3.530 -0.0791 -0.3171 -0.6380
   31MOL0     C 4168   1.074   5.322   3.490  0.5788  0.3663 -0.0172
   31MOL0     C 4169   1.260   5.155   3.557 -0.0833  0.3547  0.1306
   31MOL0     C 4170   1.169   5.043   3.544  0.5528 -0.0110  0.3908
   31MOL0     O 4171   1.031   5.064   3.573 -0.0061 -0.0644 -0.1929
   31MOL0     C 4172   0.953   4.952   3.588  0.5035  0.8319  0.7819
   31MOL0     C 4173   0.881   4.929   3.705  0.3918 -0.6015  0.9894
   31MOL0     C 4174   0.809   4.814   3.713  0.2634 -0.8931 -0.7457
   31MOL0     C 4175   0.794   4.722   3.606 -0.5253 -1.4505  0.3760
   31MOL0     O 4176   0.718   4.613   3.619  0.6651  0.3361 -0.4736
   31MOL0     C 4177   0.606   4.583   3.539 -0.5076 -0.5946  0.3575
   31MOL0     C 4178   0.626   4.444   3.481 -0.3966 -0.1101  0.3089
   31MOL0     C 4179   0.496   4.378   3.424 -0.4839  0.7156 -0.1392
   31MOL0     C 4180   0.406   4.324   3.544 -0.5676  0.2195  0.2444
   31MOL0     C 4181   0.293   4.232   3.486 -0.1695  1.2725 -0.3180
   31MOL0     C 4182   0.195   4.220   3.597 -0.1175  0.0060 -0.7621
   31MOL0     C 4183   0.066   4.154   3.540  0.9103 -0.4529 -0.7912
   31MOL0     C 4184   0.073   4.002   3.513 -0.3992 -0.0152 -0.6951
   31MOL0    Cl 4185   0.064   3.910   3.681 -0.1291 -0.5390  0.3096
   31MOL0     C 4186   0.854   4.752   3.483  0.3570 -0.3896  0.2723
   31MOL0     C 4187   0.941   4.861   3.477 -0.0218  0.0522  0.3907
   31MOL0     O 4188   1.221   4.932   3.528 -0.5305 -0.1348  0.6241
   31MOL0     C 4189   1.394   5.137   3.577  0.0093 -0.3115  0.5285
   31MOL0     C 4190   1.485   5.246   3.581  0.8089  0.0235 -0.0551
   31MOL0     N 4191   2.095   5.713   3.288 -0.5686  0.3626  0.1383
   31MOL0     N 4192   2.225   5.732   3.276 -0.5256  0.6566 -0.0832
   31MOL0     C 4193   2.301   6.528   4.138 -0.4295  1.1486 -0.0642
   31MOL0     C 4194   2.329   6.594   4.253 -0.1615 -0.3580  0.8746
   31MOL0     C 4195   2.601   6.800   4.562 -0.1515 -1.3854  1.1316
   31MOL0     C 4196   2.599   6.728   4.682  0.4982  0.0045 -0.2842
   31MOL0     C 4197   2.649   6.772   4.799 -0.4777 -0.2056 -0.4514
   31MOL0     C 4198   2.719   6.890   4.810  0.2967 -0.4779  0.5177
   31MOL0     O 4199   2.783   6.917   4.931  0.2688 -0.1673  1.1571
   31MOL0     C 4200   2.897   7.006   4.932  0.2420 -0.0848  0.7077
   31MOL0     C 4201   2.987   6.987   5.058  0.2480 -0.6020  0.3434
   31MOL0     C 4202   3.118   7.070   5.064  0.0881  0.3396  0.4103
   31MOL0     C 4203   3.230   7.013   5.152 -1.0529  0.4979  0.0279
   31MOL0     C 4204   3.277   6.875   5.123  0.2383 -1.0515 -0.1328
   31MOL0     C 4205   3.319   6.767   5.098 -0.2198 -0.4575  0.1185
   31MOL0     C 4206   2.721   6.972   4.696  0.6240  0.2366 -0.2765
   31MOL0     C 4207   2.657   6.931   4.573  0.4492  0.4893 -1.0260
   31MOL0     C 4208   2.648   7.034   4.461  0.7596 -0.6377  0.1962
   31MOL0     H 4209   2.616   6.453   4.360 -1.5165 -1.5283  0.1341
   31MOL0     H 4210   2.572   6.322   4.128  0.8101  0.5954 -0.9335
   31MOL0     H 4211   2.277   6.508   3.848  2.4335 -0.1550  1.0219
   31MOL0     H 4212   2.170   6.385   3.906 -0.0192 -0.1261 -1.5787
   31MOL0     H 4213   2.388   6.321   3.712  0.6628 -3.2131 -0.7695
   31MOL0     H 4214   2.264   6.210   3.770  0.1236 -0.2312 -0.8569
   31MOL0     H 4215   2.086   6.390   3.672  1.1694  1.3106  0.1676
   31MOL0     H 4216   2.218   6.459   3.596 -4.1465  1.6833 -1.9398
   31MOL0     H 4217   2.104   6.173   3.591  1.8222 -4.6254 -1.3942
   31MOL0     H 4218   2.117   6.280   3.445 -0.2879 -0.8535 -0.0722
   31MOL0     H 4219   2.326   6.110   3.566  0.9433  3.2086  1.9644
   31MOL0     H 4220   2.381   6.240   3.460  0.8141 -0.5912  0.9512
   31MOL0     H 4221   2.184   6.016   3.392 -2.2391  1.1957 -1.9738
   31MOL0     H 4222   2.243   6.151   3.285  0.1427  0.1700  1.0923
   31MOL0     H 4223   2.485   6.049   3.354 -0.5613 -0.1640 -0.0051
   31MOL0     H 4224   2.397   5.995   3.220  0.4421  0.9408 -0.0574
   31MOL0     H 4225   2.489   5.802   3.362  0.2870  0.1551  0.4547
   31MOL0     H 4226   2.425   5.865   3.511 -1.7605 -0.7767  0.3147
   31MOL0     H 4227   2.180   5.774   3.606  2.0451  2.6431 -0.3665
   31MOL0     H 4228   1.861   5.772   3.401  0.5451 -3.6196 -2.4067
   31MOL0     H 4229   1.925   5.784   3.571 -1.8782 -1.3204  1.0098
   31MOL0     H 4230   1.868   5.550   3.389 -2.2181  3.2861 -2.1664
   31MOL0     H 4231   1.919   5.528   3.566 -1.3149 -1.2290  0.4915
   31MOL0     H 4232   1.735   5.639   3.648  1.4239 -1.0415 -0.2743
   31MOL0     H 4233   1.647   5.649   3.494 -2.1513 -1.3600 -0.8735
   31MOL0     H 4234   1.707   5.392   3.492  1.7255  0.6474  0.3913
   31MOL0     H 4235   1.703   5.419   3.662  0.9736 -0.1486 -0.3908
   31MOL0     H 4236   1.285   5.508   3.535 -2.4239  0.0045 -0.4218
   31MOL0     H 4237   1.005   5.317   3.574  0.2201  2.3542 -0.1385
   31MOL0     H 4238   1.040   5.258   3.408 -3.8533  3.6545 -1.1581
   31MOL0     H 4239   1.060   5.425   3.455  0.0467  0.8012  1.4066
   31MOL0     H 4240   0.875   5.003   3.784 -0.7490 -1.7310  2.0066
   31MOL0     H 4241   0.767   4.788   3.810  4.7018 -2.6584  1.0015
   31MOL0     H 4242   0.516   4.585   3.602 -2.6545  0.7049 -2.4682
   31MOL0     H 4243   0.576   4.655   3.461 -1.0896 -1.2738 -0.0598
   31MOL0     H 4244   0.699   4.450   3.400 -1.3601 -0.1362 -0.5789
   31MOL0     H 4245   0.667   4.379   3.560 -0.9684 -1.4153 -0.4300
   31MOL0     H 4246   0.528   4.291   3.367 -2.4448 -0.4066  0.3731
   31MOL0     H 4247   0.441   4.432   3.346  3.5528  1.5310 -2.7268
   31MOL0     H 4248   0.365   4.413   3.592 -1.1340 -0.3519  0.8346
   31MOL0     H 4249   0.463   4.283   3.628 -0.5312  1.3728  0.8116
   31MOL0     H 4250   0.253   4.283   3.399  1.0552  0.5407 -1.3421
   31MOL0     H 4251   0.335   4.135   3.459  0.7628  0.9546  2.0143
   31MOL0     H 4252   0.172   4.320   3.634  1.3596 -1.1796  4.1147
   31MOL0     H 4253   0.246   4.167   3.678  3.4118  1.2212 -2.0216
   31MOL0     H 4254   0.033   4.205   3.449 -0.2210 -0.7336 -0.5510
   31MOL0     H 4255  -0.015   4.165   3.612 -2.8794 -4.2190 -3.9696
   31MOL0     H 4256   0.170   3.978   3.468  0.0546  1.2317 -0.4035
   31MOL0     H 4257  -0.003   3.969   3.441 -0.1447 -1.1386 -0.4603
   31MOL0     H 4258   0.846   4.681   3.401 -3.2116  1.6801 -1.4165
   31MOL0     H 4259   1.005   4.883   3.393 -0.2444 -0.5956  0.0437
   31MOL0     H 4260   1.442   5.040   3.584  3.2043  1.2377  2.4080
   31MOL0     H 4261   1.590   5.231   3.602  0.2675 -1.2669  1.9953
   31MOL0     H 4262   2.213   6.561   4.084  0.4872  1.1538 -1.6376
   31MOL0     H 4263   2.261   6.673   4.281  0.0291  0.1040  0.0613
   31MOL0     H 4264   2.564   6.625   4.684 -2.0456  0.7321  2.9638
   31MOL0     H 4265   2.656   6.708   4.887  0.8235  0.4695 -0.0433
   31MOL0     H 4266   2.960   6.984   4.845  1.1170 -0.9601  1.5302
   31MOL0     H 4267   2.856   7.107   4.929  0.0782 -0.1567  0.5031
   31MOL0     H 4268   3.000   6.879   5.060  0.3253 -0.6340 -1.1125
   31MOL0     H 4269   2.923   7.006   5.145 -0.4948  0.4337 -0.3993
   31MOL0     H 4270   3.160   7.063   4.963 -0.1759 -1.4708  0.3832
   31MOL0     H 4271   3.094   7.174   5.088 -1.2804 -0.1663  1.3812
   31MOL0     H 4272   3.201   7.024   5.257 -2.1224  0.1255 -0.2150
   31MOL0     H 4273   3.316   7.078   5.135 -0.1665 -1.3867 -3.6999
   31MOL0     H 4274   3.363   6.670   5.100  3.6944  1.1539  0.5530
   31MOL0     H 4275   2.771   7.068   4.689  0.9105  0.3569  2.2405
   31MOL0     H 4276   2.746   7.030   4.414  0.2722 -0.3708 -0.8675
   31MOL0     H 4277   2.571   7.021   4.384  1.6434  1.3990 -1.1233
   31MOL0     H 4278   2.636   7.130   4.512  3.7756 -0.9708  1.7419
   32MOL0     O 4279   3.021   1.010   3.499 -0.0557 -0.5160  0.1702
   32MOL0     C 4280   2.904   0.996   3.469 -0.2059 -0.3772  0.2874
   32MOL0     O 4281   2.848   0.894   3.401 -0.2267  0.2078  0.4372
   32MOL0     C 4282   2.928   0.810   3.333 -0.8665  0.3452  0.5702
   32MOL0     C 4283   2.987   0.866   3.223  0.8945 -0.9316  0.6474
   32MOL0     C 4284   3.065   0.794   3.138  0.2245 -0.1700  0.3571
   32MOL0     C 4285   3.104   0.662   3.181 -0.1443  0.4131 -0.7309
   32MOL0     O 4286   3.179   0.595   3.090 -0.3127 -0.0619  0.9973
   32MOL0     C 4287   3.252   0.477   3.126  0.0479  0.6315 -0.2288
   32MOL0     C 4288   3.387   0.461   3.053  1.0555  0.8029 -0.2952
   32MOL0     C 4289   3.496   0.558   3.080 -0.6221  0.2985 -0.1060
   32MOL0     C 4290   3.637   0.495   3.042  0.0071  0.3106  0.7277
   32MOL0     C 4291   3.741   0.593   3.098  0.9401  1.2328 -0.3071
   32MOL0     C 4292   3.736   0.740   3.045  0.1554  0.5058 -0.2400
   32MOL0     C 4293   3.788   0.751   2.896  0.3873  0.5249  0.3065
   32MOL0     C 4294   3.794   0.894   2.858 -0.1016  0.1539  0.1613
   32MOL0     N 4295   3.793   0.921   2.712 -0.2484  0.7219  0.2445
   32MOL0     C 4296   3.891   0.865   2.634 -0.6634 -0.3547 -0.4574
   32MOL0     C 4297   3.850   0.906   2.506 -0.8047  1.3063 -0.0401
   32MOL0     C 4298   3.921   0.862   2.372  0.1932  0.9075  0.0466
   32MOL0     C 4299   4.007   0.969   2.310 -1.0157  0.0127  0.3612
   32MOL0     C 4300   4.135   0.995   2.394  0.1451  0.0058 -1.2550
   32MOL0     C 4301   4.231   0.878   2.401  0.0899  0.1517  0.2408
   32MOL0     O 4302   4.252   0.818   2.269  0.2372 -0.0202 -0.1720
   32MOL0     C 4303   4.343   0.856   2.178 -0.2222  0.4118 -0.9514
   32MOL0     C 4304   4.414   0.983   2.181  0.2423  0.9049  0.5731
   32MOL0     C 4305   4.514   1.011   2.084  0.5380  0.5456  0.6628
   32MOL0     C 4306   4.587   1.139   2.099 -0.2139  0.2709  0.1907
   32MOL0     C 4307   4.546   0.923   1.979  1.0590  0.1471  0.1920
   32MOL0     C 4308   4.644   0.947   1.873 -1.0918 -0.0297 -0.9177
   32MOL0     O 4309   4.749   0.866   1.858  0.1714  1.0433  0.9375
   32MOL0     C 4310   4.851   0.887   1.766  0.8090 -1.2405  0.1709
   32MOL0     C 4311   4.962   0.819   1.800 -0.1612  0.4480 -0.8235
   32MOL0     C 4312   5.088   0.827   1.730  0.7119 -0.8202  0.1796
   32MOL0     C 4313   5.092   0.917   1.617  0.3037  0.3781 -0.9600
   32MOL0     O 4314   5.210   0.950   1.551  0.4167 -0.2299 -0.1172
   32MOL0     C 4315   5.292   0.839   1.502 -0.0708 -0.1859 -0.2721
   32MOL0     C 4316   5.424   0.833   1.586 -0.3340  0.2359  0.2536
   32MOL0     C 4317   5.508   0.962   1.568  0.0162 -0.9758  0.5505
   32MOL0     C 4318   5.521   1.004   1.417  0.0745  0.8202  0.1542
   32MOL0     C 4319   5.615   1.124   1.393 -0.7619  0.2099  0.5328
   32MOL0     C 4320   5.748   1.111   1.467 -0.0695 -0.5067  0.1082
   32MOL0     C 4321   5.846   0.990   1.445  0.4913 -0.4705 -0.6020
   32MOL0     C 4322   5.980   1.002   1.524 -0.4466 -0.5806  0.3864
   32MOL0    Cl 4323   6.093   0.860   1.501  0.1930  0.3302  0.1567
   32MOL0     C 4324   4.969   0.992   1.589 -0.3256 -0.3863  0.3058
   32MOL0     C 4325   4.851   0.972   1.655  0.7522 -0.0718 -0.6310
   32MOL0     O 4326   4.627   1.050   1.809 -0.5499  0.2134 -0.5262
   32MOL0     C 4327   4.477   0.802   1.972  0.0797 -0.1187 -0.5060
   32MOL0     C 4328   4.381   0.769   2.072  0.6418  0.1714 -0.0336
   32MOL0     N 4329   3.742   1.000   2.519  0.0095  0.0598  0.7051
   32MOL0     N 4330   3.720   1.016   2.647  0.1639  0.6597  0.8542
   32MOL0     C 4331   3.045   0.600   3.293 -0.1569 -0.7827  0.1399
   32MOL0     C 4332   2.951   0.677   3.375 -0.6113  0.0773 -0.1085
   32MOL0     C 4333   2.806   1.104   3.509 -0.4280 -0.6885  0.2496
   32MOL0     C 4334   2.667   1.070   3.510 -0.7353  0.3389 -0.3271
   32MOL0     C 4335   2.572   1.169   3.559 -0.2352 -0.0844  0.0489
   32MOL0     C 4336   2.620   1.286   3.614  0.1662 -0.5782 -0.0461
   32MOL0     O 4337   2.538   1.386   3.654  0.3265  0.3757  0.3655
   32MOL0     C 4338   2.388   1.379   3.635 -1.2636  0.5122  0.2869
   32MOL0     C 4339   2.327   1.519   3.623  0.1087 -0.2332 -0.5383
   32MOL0     C 4340   2.180   1.520   3.676  0.0535  0.4933 -0.6842
   32MOL0     C 4341   2.103   1.650   3.664  0.3620 -0.1110 -0.7093
   32MOL0     C 4342   2.171   1.763   3.729  1.0610  0.0742  0.2452
   32MOL0     C 4343   2.229   1.845   3.800  1.2946 -0.0723  0.4523
   32MOL0     C 4344   2.748   1.321   3.611 -0.7211  0.2908 -0.5632
   32MOL0     C 4345   2.844   1.230   3.573 -0.7595  0.6932 -0.2683
   32MOL0     C 4346   2.988   1.269   3.596 -0.0785  0.6873  0.3737
   32MOL0     H 4347   2.972   0.972   3.201 -0.0109 -0.9489  1.1621
   32MOL0     H 4348   3.117   0.832   3.051 -0.8753 -2.2135 -1.2901
   32MOL0     H 4349   3.191   0.387   3.117  1.4688 -0.3925  0.0652
   32MOL0     H 4350   3.280   0.501   3.229 -0.2244  3.6726 -0.7588
   32MOL0     H 4351   3.436   0.369   3.086  0.2147  0.5948  0.4173
   32MOL0     H 4352   3.375   0.462   2.944 -0.9837  1.8708 -0.1158
   32MOL0     H 4353   3.482   0.659   3.039 -0.5931  0.3994  0.1278
   32MOL0     H 4354   3.488   0.573   3.188 -1.9462 -1.5566  0.0853
   32MOL0     H 4355   3.640   0.390   3.071 -0.3719 -0.3219 -1.3894
   32MOL0     H 4356   3.651   0.492   2.934  2.6157  2.6403  0.8925
   32MOL0     H 4357   3.839   0.544   3.088  0.4937  0.0261  0.8541
   32MOL0     H 4358   3.734   0.607   3.207  1.0281 -1.5939  0.1268
   32MOL0     H 4359   3.637   0.786   3.048  0.0746  0.2693  0.7954
   32MOL0     H 4360   3.800   0.791   3.118  0.8863 -1.3891  0.4984
   32MOL0     H 4361   3.721   0.696   2.830  2.2299 -3.5183  1.5095
   32MOL0     H 4362   3.891   0.716   2.888 -0.0914 -1.1052  0.9241
   32MOL0     H 4363   3.708   0.958   2.879  0.6049  1.1610  0.0500
   32MOL0     H 4364   3.881   0.942   2.903  1.2192  1.4805 -3.4639
   32MOL0     H 4365   3.977   0.802   2.653 -0.8483 -0.7448 -0.9001
   32MOL0     H 4366   3.854   0.823   2.295  0.7764  1.6163 -0.8400
   32MOL0     H 4367   3.976   0.774   2.408  0.3686  0.8939 -0.2514
   32MOL0     H 4368   4.031   0.928   2.211 -1.8376 -0.9526  0.5388
   32MOL0     H 4369   3.971   1.070   2.291 -0.2727  0.2158 -0.0233
   32MOL0     H 4370   4.185   1.084   2.355 -0.9218  1.1039 -0.2528
   32MOL0     H 4371   4.105   1.021   2.497  3.2025 -1.0147 -0.0038
   32MOL0     H 4372   4.332   0.904   2.436  0.5358 -1.7482  0.4362
   32MOL0     H 4373   4.198   0.798   2.467  2.0644 -1.0670 -0.1470
   32MOL0     H 4374   4.383   1.040   2.268 -4.0627 -2.5459  1.6663
   32MOL0     H 4375   4.688   1.121   2.060 -0.1306  0.4062  0.3449
   32MOL0     H 4376   4.582   1.178   2.201  1.3721 -0.0541  0.4182
   32MOL0     H 4377   4.539   1.216   2.038 -0.4098  0.5779  0.7348
   32MOL0     H 4378   4.968   0.761   1.892  0.2844 -2.0702 -2.3465
   32MOL0     H 4379   5.177   0.774   1.762  0.4302 -1.6801 -0.4481
   32MOL0     H 4380   5.245   0.741   1.504  0.6881 -0.5534 -0.2513
   32MOL0     H 4381   5.314   0.857   1.396 -0.3161 -0.0657 -0.3038
   32MOL0     H 4382   5.406   0.821   1.693 -0.1212 -0.1815  0.2482
   32MOL0     H 4383   5.475   0.741   1.553 -1.5615  0.0023 -1.0619
   32MOL0     H 4384   5.602   0.940   1.620  1.1205  0.9450 -0.4794
   32MOL0     H 4385   5.458   1.039   1.627  0.4896 -1.4634  1.6268
   32MOL0     H 4386   5.423   1.023   1.373  0.5018 -1.8083 -2.2161
   32MOL0     H 4387   5.565   0.925   1.357 -0.0177  0.8684  0.0231
   32MOL0     H 4388   5.611   1.145   1.286  0.5916 -0.3836  0.3493
   32MOL0     H 4389   5.572   1.215   1.437 -0.9572 -0.5913  2.0493
   32MOL0     H 4390   5.731   1.130   1.574  0.3994 -2.1278  0.5034
   32MOL0     H 4391   5.811   1.195   1.436  0.3169 -1.4922 -1.9768
   32MOL0     H 4392   5.865   0.984   1.337  0.0816  0.9707 -0.7729
   32MOL0     H 4393   5.805   0.891   1.469 -2.5455  0.9111  0.4107
   32MOL0     H 4394   5.953   0.993   1.630 -0.0941 -2.5313  0.3404
   32MOL0     H 4395   6.019   1.103   1.506 -2.2094  0.3218  1.3788
   32MOL0     H 4396   4.973   1.054   1.500 -1.0705  3.1399  2.5503
   32MOL0     H 4397   4.752   1.012   1.637  0.3212  0.1508  1.8259
   32MOL0     H 4398   4.503   0.745   1.883 -3.8646 -1.1383 -1.1861
   32MOL0     H 4399   4.344   0.667   2.066  0.7943  0.1956 -2.0802
   32MOL0     H 4400   3.073   0.496   3.309 -1.4549 -0.7477  3.4037
   32MOL0     H 4401   2.899   0.623   3.453 -0.3261  1.8773  1.3918
   32MOL0     H 4402   2.634   0.976   3.467  0.9618 -1.2483  1.6373
   32MOL0     H 4403   2.467   1.143   3.561  0.4166 -3.2959  2.7167
   32MOL0     H 4404   2.373   1.324   3.542 -0.2724 -0.6774  0.8034
   32MOL0     H 4405   2.344   1.320   3.715 -0.8816 -1.3648 -0.8360
   32MOL0     H 4406   2.335   1.539   3.516  1.4211  0.9573 -0.2501
   32MOL0     H 4407   2.384   1.591   3.682  0.3724 -0.8669 -0.0009
   32MOL0     H 4408   2.111   1.443   3.639 -1.4164  0.7936  1.2464
   32MOL0     H 4409   2.186   1.510   3.785 -1.0543  3.0705 -0.3052
   32MOL0     H 4410   2.009   1.634   3.717  0.9176  1.2693  0.7925
   32MOL0     H 4411   2.094   1.688   3.561  2.1934  2.3326 -0.0565
   32MOL0     H 4412   2.278   1.918   3.862 -0.2872 -1.1858  3.2055
   32MOL0     H 4413   2.776   1.420   3.646 -0.9184 -0.1820  1.0543
   32MOL0     H 4414   3.025   1.203   3.674  0.5852  1.7187  0.9637
   32MOL0     H 4415   3.038   1.246   3.501 -0.4728 -0.6105  0.4625
   32MOL0     H 4416   3.003   1.373   3.627 -1.9538  1.9011 -2.3166
   33MOL0     O 4417   5.679   1.076   3.362 -0.2650 -0.5994  0.6650
   33MOL0     C 4418   5.617   1.070   3.468  0.0816 -0.5046  0.1894
   33MOL0     O 4419   5.488   1.033   3.480  0.4526 -0.4872 -0.5216
   33MOL0     C 4420   5.396   1.015   3.373  0.8648  0.0772 -0.5879
   33MOL0     C 4421   5.398   1.091   3.255  0.0165 -0.9178 -0.7626
   33MOL0     C 4422   5.290   1.076   3.161  0.4437  0.4483 -0.0652
   33MOL0     C 4423   5.194   0.972   3.169 -0.4192  0.3232  0.0288
   33MOL0     O 4424   5.095   0.952   3.081  0.1408  0.5436  0.1858
   33MOL0     C 4425   5.130   0.965   2.943 -0.3216  0.1437  0.2714
   33MOL0     C 4426   5.021   0.909   2.855  0.9052 -0.4824  0.7272
   33MOL0     C 4427   5.025   0.763   2.826 -0.0333 -0.1330  0.2509
   33MOL0     C 4428   5.157   0.696   2.801 -0.6398 -0.9736 -0.0349
   33MOL0     C 4429   5.145   0.558   2.737  0.1325 -0.8356  0.3181
   33MOL0     C 4430   5.117   0.574   2.584 -0.1763  0.8028 -0.6016
   33MOL0     C 4431   5.098   0.435   2.519 -0.5265 -1.4311  0.7084
   33MOL0     C 4432   5.110   0.436   2.366  0.6741  0.1478 -0.6802
   33MOL0     N 4433   5.035   0.545   2.301  0.3141 -0.2944  0.4535
   33MOL0     C 4434   5.057   0.682   2.296 -0.1897  0.5866  0.7338
   33MOL0     C 4435   4.959   0.740   2.221  0.1708  0.2217  0.2507
   33MOL0     C 4436   4.949   0.881   2.189  0.1367 -0.0385 -1.0747
   33MOL0     C 4437   5.073   0.938   2.120 -0.0418 -0.8574 -0.3842
   33MOL0     C 4438   5.038   1.080   2.067 -0.2525  0.5486  0.0314
   33MOL0     C 4439   5.156   1.163   2.008  0.6154 -0.4157  0.0686
   33MOL0     O 4440   5.220   1.237   2.111 -0.5676 -0.2624 -0.8375
   33MOL0     C 4441   5.324   1.320   2.085 -0.3794 -0.2874  0.2258
   33MOL0     C 4442   5.386   1.369   2.196 -0.0701  0.2085 -0.5650
   33MOL0     C 4443   5.498   1.453   2.190 -0.3194 -1.1759 -0.4924
   33MOL0     C 4444   5.547   1.512   2.321 -0.0787 -0.3048  0.2799
   33MOL0     C 4445   5.556   1.493   2.059 -0.1454 -0.5911 -0.9734
   33MOL0     C 4446   5.687   1.555   2.050 -0.0125  0.3016  0.7917
   33MOL0     O 4447   5.737   1.638   2.149 -0.0525 -0.1302  0.2217
   33MOL0     C 4448   5.848   1.714   2.119 -1.1279 -0.6554  1.2675
   33MOL0     C 4449   5.925   1.733   2.231 -0.6360  0.3893 -0.0010
   33MOL0     C 4450   6.046   1.813   2.227  0.7270 -0.1871 -0.2651
   33MOL0     C 4451   6.066   1.883   2.103  0.7966  0.2608 -0.6180
   33MOL0     O 4452   6.178   1.960   2.112 -0.2985  0.2617  0.3575
   33MOL0     C 4453   6.209   2.035   1.991  1.0626  0.6470 -0.2543
   33MOL0     C 4454   6.334   2.113   2.029  0.4292 -0.5935 -0.1138
   33MOL0     C 4455   6.391   2.189   1.904 -0.4979  0.2793 -0.5627
   33MOL0     C 4456   6.534   2.142   1.853 -0.7538 -0.2687  0.0480
   33MOL0     C 4457   6.527   2.008   1.775  0.7308 -0.4025 -0.1765
   33MOL0     C 4458   6.665   1.974   1.723  0.1393 -1.1404  0.2406
   33MOL0     C 4459   6.673   1.845   1.640  0.0335 -0.1930 -0.0974
   33MOL0     C 4460   6.820   1.805   1.610  0.0533  0.9789 -0.6894
   33MOL0    Cl 4461   6.889   1.914   1.491  0.2148 -0.0479  0.3338
   33MOL0     C 4462   5.987   1.855   1.989 -0.3852  0.0171 -0.0104
   33MOL0     C 4463   5.883   1.770   1.995 -0.2189  0.4115 -0.0109
   33MOL0     O 4464   5.751   1.532   1.941 -0.1430  0.0675  0.0550
   33MOL0     C 4465   5.481   1.446   1.950 -0.1223  0.1102  0.5645
   33MOL0     C 4466   5.375   1.354   1.961  0.5015  0.3767 -0.3750
   33MOL0     N 4467   4.884   0.631   2.169  0.2537 -0.0233 -0.2009
   33MOL0     N 4468   4.927   0.523   2.219 -0.8217 -0.2552  0.6613
   33MOL0     C 4469   5.199   0.897   3.283 -0.6704  0.1714  0.3943
   33MOL0     C 4470   5.291   0.926   3.381  0.0247  0.7981 -0.0579
   33MOL0     C 4471   5.699   1.091   3.592  0.3054 -0.5842  0.2776
   33MOL0     C 4472   5.837   1.053   3.585 -0.3779  0.4624 -0.4692
   33MOL0     C 4473   5.920   1.076   3.701  0.3123  0.2296  0.4778
   33MOL0     C 4474   5.870   1.133   3.818 -0.0320  0.5600  0.1054
   33MOL0     O 4475   5.944   1.118   3.934  0.5018 -0.6370 -0.1183
   33MOL0     C 4476   5.888   1.050   4.045 -0.7146 -0.2656 -0.5756
   33MOL0     C 4477   5.812   1.137   4.154  0.3558 -0.1581  0.2058
   33MOL0     C 4478   5.889   1.268   4.192  0.5464  0.0653  1.0839
   33MOL0     C 4479   5.844   1.327   4.324 -0.1385  0.0286  0.9686
   33MOL0     C 4480   5.697   1.360   4.317 -0.0295 -0.6427 -0.2874
   33MOL0     C 4481   5.578   1.392   4.309  1.1417  0.3385  0.0547
   33MOL0     C 4482   5.737   1.182   3.816 -0.2698 -0.4891  1.0397
   33MOL0     C 4483   5.650   1.152   3.706  0.0146  0.5959  0.0815
   33MOL0     C 4484   5.502   1.187   3.719 -0.7617  0.2101  0.2760
   33MOL0     H 4485   5.483   1.150   3.224  1.3338 -2.6196 -0.5188
   33MOL0     H 4486   5.279   1.135   3.071 -3.6821 -1.7310 -1.2371
   33MOL0     H 4487   5.228   0.925   2.918  0.3809  1.2949  1.1168
   33MOL0     H 4488   5.133   1.072   2.924 -2.8441  0.3251  0.5134
   33MOL0     H 4489   4.922   0.935   2.894  0.8464  1.0080 -0.3301
   33MOL0     H 4490   5.031   0.967   2.763 -4.9136  2.6489  1.5817
   33MOL0     H 4491   4.981   0.703   2.906  0.9729 -2.7775 -1.0539
   33MOL0     H 4492   4.960   0.747   2.739 -0.4349 -0.7452  0.6581
   33MOL0     H 4493   5.229   0.761   2.751 -0.9499  0.1640  0.9501
   33MOL0     H 4494   5.194   0.678   2.902 -2.0745 -2.7438  0.2332
   33MOL0     H 4495   5.063   0.512   2.794 -0.2514  2.3250  2.5849
   33MOL0     H 4496   5.238   0.505   2.757  1.6212  0.1389 -3.2013
   33MOL0     H 4497   5.023   0.627   2.568 -1.5709 -1.2118  0.5292
   33MOL0     H 4498   5.206   0.619   2.538  1.4559 -2.7946 -1.3393
   33MOL0     H 4499   5.004   0.392   2.555 -0.4748 -1.9022  0.2980
   33MOL0     H 4500   5.172   0.366   2.561  1.1559 -1.0566 -1.4700
   33MOL0     H 4501   5.215   0.435   2.335  1.4436  1.5516  1.6385
   33MOL0     H 4502   5.053   0.347   2.337 -0.3396  0.6122 -0.1721
   33MOL0     H 4503   5.142   0.737   2.335 -1.1596  2.4062  0.4499
   33MOL0     H 4504   4.927   0.945   2.276 -0.2598  1.2235 -2.0717
   33MOL0     H 4505   4.860   0.886   2.126 -1.4538 -0.5498  1.0087
   33MOL0     H 4506   5.154   0.953   2.192  0.4971 -2.6302 -0.5659
   33MOL0     H 4507   5.117   0.871   2.046 -0.6121 -2.5924  0.7701
   33MOL0     H 4508   4.970   1.054   1.985  1.8541  2.2753 -2.4314
   33MOL0     H 4509   4.991   1.146   2.141  1.8670  1.3804  0.7184
   33MOL0     H 4510   5.231   1.101   1.956  1.5024 -0.3666  1.2361
   33MOL0     H 4511   5.115   1.239   1.941 -2.6219  0.0993  2.4157
   33MOL0     H 4512   5.353   1.361   2.298 -2.8898  2.4776 -1.1706
   33MOL0     H 4513   5.478   1.493   2.404  1.1068  1.7386  1.8394
   33MOL0     H 4514   5.551   1.622   2.319  2.4179 -0.3258  1.2975
   33MOL0     H 4515   5.646   1.476   2.348  0.5057  0.0201 -1.3255
   33MOL0     H 4516   5.905   1.684   2.326  2.6262 -0.1176  0.5265
   33MOL0     H 4517   6.109   1.824   2.315  1.9063 -0.4458 -1.0553
   33MOL0     H 4518   6.234   1.965   1.910  0.0532 -0.9861  0.7858
   33MOL0     H 4519   6.119   2.094   1.974 -0.1933 -0.2753  2.6154
   33MOL0     H 4520   6.298   2.171   2.114  1.4755 -1.4982  0.9800
   33MOL0     H 4521   6.416   2.051   2.066  0.1888 -1.1601 -0.5131
   33MOL0     H 4522   6.401   2.294   1.934  1.7180  0.2240 -0.9121
   33MOL0     H 4523   6.321   2.185   1.820 -1.8385 -0.3016  0.5474
   33MOL0     H 4524   6.594   2.125   1.943 -0.0722  1.1150 -0.1116
   33MOL0     H 4525   6.580   2.228   1.804  0.2955 -0.1803  1.1476
   33MOL0     H 4526   6.478   1.929   1.833 -2.2924 -0.3544 -2.4103
   33MOL0     H 4527   6.458   2.022   1.691  1.3141  1.8078 -0.3462
   33MOL0     H 4528   6.734   1.973   1.808 -1.2820 -1.9072  1.4198
   33MOL0     H 4529   6.698   2.046   1.648  0.2638  0.0571  1.4203
   33MOL0     H 4530   6.608   1.861   1.554 -1.2317  2.2013  1.1971
   33MOL0     H 4531   6.626   1.763   1.695 -0.3207  0.8465  1.2208
   33MOL0     H 4532   6.824   1.701   1.578  3.1293 -0.3847  3.3119
   33MOL0     H 4533   6.889   1.808   1.695  0.1372  0.0362 -0.7130
   33MOL0     H 4534   6.008   1.904   1.895  1.9452  2.0717  1.4579
   33MOL0     H 4535   5.836   1.740   1.902  0.2747  0.6709 -0.3468
   33MOL0     H 4536   5.515   1.466   1.849 -2.2483 -2.7610 -0.8622
   33MOL0     H 4537   5.324   1.325   1.869  0.2854  0.2016 -0.2012
   33MOL0     H 4538   5.122   0.821   3.294 -0.2798 -0.5762 -1.6625
   33MOL0     H 4539   5.290   0.865   3.471  1.7175 -0.1095 -0.6221
   33MOL0     H 4540   5.876   0.999   3.499 -1.3449  1.1033 -1.3511
   33MOL0     H 4541   6.013   1.020   3.697 -0.6241 -1.3714  0.4154
   33MOL0     H 4542   5.818   0.973   4.011 -1.5430 -0.9497  2.4255
   33MOL0     H 4543   5.970   0.997   4.094  0.6171  1.1731 -1.1511
   33MOL0     H 4544   5.811   1.067   4.238  1.6165 -0.4355  0.0058
   33MOL0     H 4545   5.712   1.156   4.113 -0.6051 -0.3299  2.3198
   33MOL0     H 4546   5.997   1.252   4.195  0.4519 -0.6461  0.8465
   33MOL0     H 4547   5.882   1.340   4.110 -1.8337 -1.8748 -0.5420
   33MOL0     H 4548   5.909   1.414   4.334  1.9034 -1.1548 -0.9484
   33MOL0     H 4549   5.859   1.256   4.406  2.1916  0.9914  1.4251
   33MOL0     H 4550   5.477   1.425   4.302  0.6074 -1.1496  0.4247
   33MOL0     H 4551   5.693   1.230   3.903 -0.2870  0.6142  0.4466
   33MOL0     H 4552   5.501   1.254   3.805  1.9719 -0.1059  0.6479
   33MOL0     H 4553   5.459   1.245   3.637 -0.0593  0.7659  0.2890
   33MOL0     H 4554   5.439   1.100   3.743  2.7355 -2.8985 -0.8953
   34MOL0     O 4555   0.646   2.575   7.905  0.4572 -0.0333 -0.9220
   34MOL0     C 4556   0.755   2.590   7.857  0.3133 -0.6318  0.0897
   34MOL0     O 4557   0.874   2.607   7.923 -0.5259  0.3198 -0.3829
   34MOL0     C 4558   0.895   2.630   8.057  0.2091 -0.1302 -0.0732
   34MOL0     C 4559   0.802   2.612   8.162  0.0330 -0.3692  1.2578
   34MOL0     C 4560   0.839   2.622   8.297 -0.9814  0.4078 -0.0724
   34MOL0     C 4561   0.961   2.673   8.339  0.4357  0.5038 -0.1824
   34MOL0     O 4562   0.973   2.697   8.482  0.1112 -0.0834 -0.3886
   34MOL0     C 4563   1.109   2.749   8.518  0.2816  0.0794  0.8730
   34MOL0     C 4564   1.121   2.734   8.663  1.3356 -0.5254 -0.2838
   34MOL0     C 4565   1.228   2.818   8.717 -0.6486 -1.4361  0.1923
   34MOL0     C 4566   1.267   2.777   8.856  1.2093  0.7742 -0.5891
   34MOL0     C 4567   1.372   2.865   8.907 -0.6268 -0.5000 -0.7272
   34MOL0     C 4568   1.507   2.801   8.893 -1.3205  0.2943 -0.0165
   34MOL0     C 4569   1.620   2.891   8.955 -0.5059  0.9181  0.2630
   34MOL0     C 4570   1.634   3.024   8.878  0.3085  0.5174  0.9093
   34MOL0     N 4571   1.709   3.005   8.749 -0.1292  0.4150  0.2548
   34MOL0     C 4572   1.848   2.997   8.733  0.2178 -0.3201  0.4413
   34MOL0     C 4573   1.871   2.975   8.602  0.9933 -0.0276 -0.3220
   34MOL0     C 4574   2.003   2.954   8.530 -1.1628 -0.3578  0.0573
   34MOL0     C 4575   2.048   2.811   8.514  0.6986  0.0455 -0.7303
   34MOL0     C 4576   1.952   2.720   8.428 -1.0033 -0.1302 -0.4999
   34MOL0     C 4577   2.026   2.595   8.383 -0.5978  0.7435  0.0209
   34MOL0     O 4578   2.104   2.639   8.269 -0.0310  0.6737  0.2694
   34MOL0     C 4579   2.221   2.563   8.270 -0.0715 -0.4007  0.1851
   34MOL0     C 4580   2.223   2.416   8.256  0.1895 -1.1987 -0.0621
   34MOL0     C 4581   2.343   2.337   8.256 -0.5960 -0.2351 -0.8479
   34MOL0     C 4582   2.340   2.189   8.265  0.3231  0.2702  0.0136
   34MOL0     C 4583   2.465   2.413   8.267  0.5093  0.0279 -0.2254
   34MOL0     C 4584   2.599   2.347   8.287  0.5550 -0.4079  0.7567
   34MOL0     O 4585   2.680   2.415   8.362 -0.4187  0.2544 -0.2022
   34MOL0     C 4586   2.803   2.365   8.387  0.2404  0.0336  0.2413
   34MOL0     C 4587   2.829   2.287   8.494  0.5145  0.1200 -0.6396
   34MOL0     C 4588   2.950   2.236   8.521  0.7992 -0.1289  0.1841
   34MOL0     C 4589   3.067   2.262   8.442  0.5379 -0.5399  0.3929
   34MOL0     O 4590   3.190   2.216   8.474  0.5333  0.2242 -0.3661
   34MOL0     C 4591   3.212   2.089   8.409  0.0795 -0.1051 -0.7742
   34MOL0     C 4592   3.350   2.037   8.421 -0.7130  0.6847  0.5729
   34MOL0     C 4593   3.464   2.123   8.356  0.5979 -0.3943  0.7078
   34MOL0     C 4594   3.603   2.065   8.398 -0.2136  0.4605  0.7569
   34MOL0     C 4595   3.647   2.098   8.543 -0.2676 -0.0779  0.0842
   34MOL0     C 4596   3.787   2.045   8.572  0.0863 -1.0091 -0.0657
   34MOL0     C 4597   3.894   2.084   8.479 -0.7743  0.7676  0.3719
   34MOL0     C 4598   3.908   2.240   8.458  0.6693 -0.0795 -0.1461
   34MOL0    Cl 4599   3.930   2.325   8.614 -0.1935 -0.1245 -0.0518
   34MOL0     C 4600   3.041   2.345   8.324 -0.0816  0.2820 -0.2705
   34MOL0     C 4601   2.911   2.388   8.305 -0.9446  0.5699 -0.5046
   34MOL0     O 4602   2.616   2.238   8.234 -1.1594 -0.3459 -0.3987
   34MOL0     C 4603   2.471   2.556   8.269  0.3914  0.3912  0.3771
   34MOL0     C 4604   2.350   2.626   8.269  0.2018  0.2760  0.0774
   34MOL0     N 4605   1.752   2.990   8.537 -0.0279  0.8516  0.4727
   34MOL0     N 4606   1.659   3.018   8.618 -0.4311 -0.2131  0.1115
   34MOL0     C 4607   1.058   2.698   8.242  0.2678 -0.9531 -0.6155
   34MOL0     C 4608   1.026   2.681   8.104  0.4782  0.4827  0.5034
   34MOL0     C 4609   0.764   2.568   7.707 -0.5713  0.1232  0.3413
   34MOL0     C 4610   0.887   2.512   7.651  0.7946 -0.6435  0.0288
   34MOL0     C 4611   0.900   2.483   7.515 -0.3076  0.1730 -0.8268
   34MOL0     C 4612   0.796   2.525   7.438 -0.2491  0.0970 -0.5179
   34MOL0     O 4613   0.792   2.500   7.301  0.0647  0.1589  0.3116
   34MOL0     C 4614   0.736   2.369   7.261 -0.9805 -1.1302 -0.3130
   34MOL0     C 4615   0.586   2.373   7.254  0.1519  0.2114 -0.1445
   34MOL0     C 4616   0.536   2.479   7.147  0.9181  0.3836  0.3635
   34MOL0     C 4617   0.546   2.430   7.011 -0.6327  0.0566 -0.5827
   34MOL0     C 4618   0.446   2.500   6.923  0.5090  0.1545  0.0716
   34MOL0     C 4619   0.358   2.536   6.843 -0.8430 -0.5383 -0.6653
   34MOL0     C 4620   0.676   2.585   7.483 -1.1239  1.1994 -0.7520
   34MOL0     C 4621   0.658   2.606   7.615 -0.4228  0.2815  1.0170
   34MOL0     C 4622   0.532   2.660   7.662  0.3319 -0.6965  0.4906
   34MOL0     H 4623   0.701   2.584   8.133 -0.4959  1.8035  0.8287
   34MOL0     H 4624   0.764   2.600   8.373 -1.3716 -1.8828 -1.0563
   34MOL0     H 4625   1.111   2.855   8.490  0.3267 -0.4484 -1.3187
   34MOL0     H 4626   1.192   2.695   8.471  1.0897  0.5034  1.7716
   34MOL0     H 4627   1.030   2.779   8.706  2.7635  0.3605  1.9815
   34MOL0     H 4628   1.126   2.628   8.689  3.1590 -0.2391  0.6637
   34MOL0     H 4629   1.320   2.815   8.657  1.1273  0.3679  2.6182
   34MOL0     H 4630   1.179   2.915   8.728  1.3408 -0.3188 -0.3148
   34MOL0     H 4631   1.180   2.785   8.921  2.4163  0.8848  1.0897
   34MOL0     H 4632   1.291   2.671   8.846 -5.0677 -1.2305  1.1446
   34MOL0     H 4633   1.358   2.864   9.015 -1.6942  0.0672 -0.8507
   34MOL0     H 4634   1.347   2.963   8.867  1.3467  0.4776  0.2617
   34MOL0     H 4635   1.508   2.702   8.941  2.5329  0.9018  1.5361
   34MOL0     H 4636   1.535   2.783   8.789 -0.6842  0.7820  0.0671
   34MOL0     H 4637   1.711   2.830   8.961 -1.9035 -1.2139  1.2507
   34MOL0     H 4638   1.589   2.920   9.056 -2.3669  1.2820 -0.3834
   34MOL0     H 4639   1.529   3.053   8.865 -0.1753 -0.4899  2.2626
   34MOL0     H 4640   1.674   3.112   8.928  0.9522  1.2507 -0.8056
   34MOL0     H 4641   1.925   2.992   8.809  0.1374  1.7882  0.7200
   34MOL0     H 4642   2.084   3.012   8.576  0.0089 -0.7668 -1.4154
   34MOL0     H 4643   1.994   2.999   8.430  0.7567 -2.2481 -1.0444
   34MOL0     H 4644   2.148   2.805   8.470  0.2777  1.1169 -1.9118
   34MOL0     H 4645   2.055   2.770   8.615 -3.0717 -2.1456 -1.1504
   34MOL0     H 4646   1.862   2.692   8.482 -1.3587  1.2866 -0.3204
   34MOL0     H 4647   1.905   2.772   8.344 -1.6942  0.0616 -0.0054
   34MOL0     H 4648   2.078   2.544   8.465  1.3537 -0.9712 -2.1690
   34MOL0     H 4649   1.948   2.525   8.352  1.9852 -1.6732 -1.4189
   34MOL0     H 4650   2.129   2.361   8.260  0.3519 -1.4933 -0.2568
   34MOL0     H 4651   2.399   2.133   8.192  0.6336  2.1108 -1.1866
   34MOL0     H 4652   2.236   2.154   8.264 -0.3505  2.1813 -0.5959
   34MOL0     H 4653   2.382   2.165   8.363 -1.5284 -0.0496  0.7698
   34MOL0     H 4654   2.750   2.275   8.568 -1.3171  3.0922 -1.9176
   34MOL0     H 4655   2.972   2.176   8.608  4.5295 -0.9439 -1.1088
   34MOL0     H 4656   3.146   2.017   8.459 -0.0196  2.2293  2.7846
   34MOL0     H 4657   3.191   2.093   8.301 -2.0161  0.5186 -0.3838
   34MOL0     H 4658   3.370   2.035   8.529  0.1646  1.1137  0.4278
   34MOL0     H 4659   3.340   1.934   8.386 -4.9794  0.9286  0.5019
   34MOL0     H 4660   3.462   2.225   8.395 -0.1530 -1.6824  4.4965
   34MOL0     H 4661   3.454   2.123   8.247 -2.7498  1.1648  0.8647
   34MOL0     H 4662   3.672   2.100   8.321 -0.9548 -1.0346 -0.6327
   34MOL0     H 4663   3.605   1.957   8.382 -0.2144  0.9297 -3.7060
   34MOL0     H 4664   3.648   2.205   8.565  2.4383  0.3739 -1.6405
   34MOL0     H 4665   3.571   2.055   8.608  0.1565 -0.7128  0.1689
   34MOL0     H 4666   3.788   1.936   8.583  0.1792 -0.8890  1.2176
   34MOL0     H 4667   3.816   2.086   8.669  1.7948 -2.2433 -0.0147
   34MOL0     H 4668   3.880   2.024   8.388 -1.0926 -0.6432  1.3243
   34MOL0     H 4669   3.987   2.054   8.529 -2.0453 -0.5053  2.0506
   34MOL0     H 4670   3.818   2.281   8.412 -0.2085 -0.7329  0.9495
   34MOL0     H 4671   3.999   2.261   8.401 -0.4158  0.6627 -1.6769
   34MOL0     H 4672   3.113   2.375   8.249 -1.0727 -1.4397 -2.0050
   34MOL0     H 4673   2.885   2.454   8.222  1.0830  0.8773 -0.9517
   34MOL0     H 4674   2.559   2.616   8.293 -0.4126  0.9682  2.0409
   34MOL0     H 4675   2.354   2.734   8.281  0.0742  0.3076 -0.1646
   34MOL0     H 4676   1.160   2.729   8.261 -0.6557  1.2121  1.1959
   34MOL0     H 4677   1.102   2.695   8.028 -1.9461  2.5425 -1.7349
   34MOL0     H 4678   0.967   2.484   7.719  1.1654 -1.8931 -0.8894
   34MOL0     H 4679   0.982   2.421   7.478  1.6138 -0.3598  3.6980
   34MOL0     H 4680   0.775   2.352   7.160  1.1525 -0.4678  0.3482
   34MOL0     H 4681   0.765   2.291   7.331  1.2511 -0.6911 -0.6575
   34MOL0     H 4682   0.544   2.396   7.352 -0.6498 -0.3675 -0.3441
   34MOL0     H 4683   0.553   2.272   7.228  1.8453 -0.6057  0.7521
   34MOL0     H 4684   0.430   2.485   7.175  1.8371  0.5031  4.5765
   34MOL0     H 4685   0.585   2.576   7.153  0.3375  0.9378 -2.5916
   34MOL0     H 4686   0.518   2.324   7.012 -1.2202  0.2086  0.0433
   34MOL0     H 4687   0.646   2.454   6.974 -0.9438  0.3241 -1.2658
   34MOL0     H 4688   0.282   2.586   6.786 -2.5277 -1.3152  0.7830
   34MOL0     H 4689   0.600   2.608   7.409  0.5924  3.2849 -2.0020
   34MOL0     H 4690   0.473   2.698   7.578  1.5683 -1.2299 -0.6640
   34MOL0     H 4691   0.470   2.575   7.693 -1.2854  0.1628 -0.2421
   34MOL0     H 4692   0.544   2.735   7.740 -0.4340 -0.8583  0.7728
   35MOL0     O 4693   3.994   6.136   2.728 -0.4489  0.5644 -1.0280
   35MOL0     C 4694   3.880   6.114   2.712  0.6580 -0.5279 -0.0362
   35MOL0     O 4695   3.821   6.082   2.591  0.6966 -0.1856 -0.1535
   35MOL0     C 4696   3.902   6.042   2.483  0.0309 -0.0137  0.1604
   35MOL0     C 4697   3.916   5.914   2.438  0.4209  0.9074 -0.1960
   35MOL0     C 4698   3.989   5.888   2.327 -0.1861  0.0526 -0.4191
   35MOL0     C 4699   4.067   5.986   2.270  0.0980 -0.1696 -0.4587
   35MOL0     O 4700   4.142   5.971   2.147  0.8506 -0.2267 -0.0531
   35MOL0     C 4701   4.160   5.842   2.099 -0.4770  0.0695  0.4155
   35MOL0     C 4702   4.060   5.814   1.991  0.3042  0.3264  0.1225
   35MOL0     C 4703   4.036   5.662   1.959  0.6645  0.1156 -0.8996
   35MOL0     C 4704   3.914   5.636   1.867  0.1853 -0.5668  0.0958
   35MOL0     C 4705   3.903   5.487   1.824  0.3714  0.3530  0.2548
   35MOL0     C 4706   4.043   5.436   1.777 -0.0503 -0.9362 -0.0437
   35MOL0     C 4707   4.035   5.314   1.691 -0.5704  0.4373  0.0243
   35MOL0     C 4708   4.170   5.308   1.621 -0.1543 -0.3683  0.2589
   35MOL0     N 4709   4.192   5.195   1.536  0.0689 -0.2459 -0.1067
   35MOL0     C 4710   4.127   5.161   1.421 -1.2550 -0.6574  0.3677
   35MOL0     C 4711   4.166   5.037   1.396 -0.1848 -0.4500  0.2612
   35MOL0     C 4712   4.126   4.949   1.284 -0.9223  0.2348 -0.6755
   35MOL0     C 4713   4.238   4.914   1.186 -0.4600 -0.0154  0.6678
   35MOL0     C 4714   4.308   5.026   1.106  0.7116 -0.4287  0.8552
   35MOL0     C 4715   4.233   5.060   0.979 -0.3868 -0.0889 -0.2200
   35MOL0     O 4716   4.298   5.003   0.862  0.5612  0.2849 -0.8753
   35MOL0     C 4717   4.410   5.056   0.803 -0.0519 -0.5890  0.6226
   35MOL0     C 4718   4.478   5.164   0.853  0.3088 -0.6704  0.9483
   35MOL0     C 4719   4.583   5.228   0.779  0.2533  0.6666  0.5434
   35MOL0     C 4720   4.649   5.340   0.837 -0.1467  0.1141 -0.0884
   35MOL0     C 4721   4.640   5.150   0.675 -0.2094  0.4910 -0.2649
   35MOL0     C 4722   4.773   5.186   0.604  0.1039  0.3484 -0.7442
   35MOL0     O 4723   4.891   5.154   0.675  0.1025  0.7925  0.4039
   35MOL0     C 4724   5.008   5.195   0.606  0.8666  0.4481 -1.2660
   35MOL0     C 4725   5.028   5.326   0.576 -0.1087 -0.4900  0.6664
   35MOL0     C 4726   5.149   5.369   0.523  0.2231 -0.0251  0.3265
   35MOL0     C 4727   5.246   5.273   0.496 -1.1540 -0.3236  0.9403
   35MOL0     O 4728   5.361   5.312   0.422  0.8774  0.0900 -0.1024
   35MOL0     C 4729   5.472   5.229   0.413 -0.4337  0.1114  0.2208
   35MOL0     C 4730   5.596   5.296   0.360 -0.3885  0.3129 -0.2060
   35MOL0     C 4731   5.659   5.395   0.455 -0.0521 -0.9072 -0.0665
   35MOL0     C 4732   5.788   5.467   0.408  0.0398  0.2452  0.4049
   35MOL0     C 4733   5.811   5.589   0.501 -0.0288 -0.7403 -0.0351
   35MOL0     C 4734   5.953   5.647   0.484 -0.5172  0.2040 -0.2100
   35MOL0     C 4735   5.972   5.780   0.562  0.2265 -0.8830  0.1888
   35MOL0     C 4736   6.094   5.863   0.507 -0.7057 -0.0506  0.0470
   35MOL0    Cl 4737   6.085   6.040   0.546 -0.1454 -0.0249 -0.0669
   35MOL0     C 4738   5.224   5.140   0.526  0.0036 -0.2356  0.7184
   35MOL0     C 4739   5.109   5.105   0.590 -0.7803 -0.5511  0.0637
   35MOL0     O 4740   4.763   5.244   0.496 -0.3536  0.6038 -0.0058
   35MOL0     C 4741   4.562   5.042   0.622  0.1099  0.2810  0.1221
   35MOL0     C 4742   4.451   4.990   0.688 -0.3916  0.1793 -0.4881
   35MOL0     N 4743   4.256   4.999   1.493  0.1572  0.3048 -0.1268
   35MOL0     N 4744   4.266   5.088   1.581  0.2538  0.4558  0.2424
   35MOL0     C 4745   4.059   6.113   2.316 -0.0375  0.1058 -0.2909
   35MOL0     C 4746   3.975   6.150   2.425  0.0369  0.1773  0.2873
   35MOL0     C 4747   3.785   6.102   2.828 -0.1166  0.0653 -0.0873
   35MOL0     C 4748   3.652   6.062   2.797 -0.9205  0.6173  0.5087
   35MOL0     C 4749   3.559   6.037   2.896  0.3065 -0.2117 -0.4682
   35MOL0     C 4750   3.593   6.069   3.029 -0.3062  1.1619  0.2568
   35MOL0     O 4751   3.509   6.040   3.138  1.1932 -0.1867  0.2980
   35MOL0     C 4752   3.380   5.981   3.115 -0.1354  0.0251 -0.3504
   35MOL0     C 4753   3.280   6.083   3.061 -0.1165 -1.0038 -0.4221
   35MOL0     C 4754   3.128   6.049   3.084  0.3633 -0.2314  0.9697
   35MOL0     C 4755   3.040   6.159   3.047 -0.2820 -0.8041  0.2943
   35MOL0     C 4756   3.057   6.286   3.121 -0.2442 -0.4248 -0.0138
   35MOL0     C 4757   3.050   6.388   3.186 -0.1332 -0.6111  0.7425
   35MOL0     C 4758   3.714   6.131   3.056  0.6378  0.1257 -0.1247
   35MOL0     C 4759   3.815   6.143   2.964  0.0171  0.0713  0.5852
   35MOL0     C 4760   3.949   6.199   3.011  1.0742  0.1455 -0.0527
   35MOL0     H 4761   3.848   5.839   2.477 -1.3148  1.6729 -1.6460
   35MOL0     H 4762   3.988   5.784   2.295  2.2277 -0.1795  0.1039
   35MOL0     H 4763   4.150   5.766   2.177 -0.1325 -1.2284 -0.7654
   35MOL0     H 4764   4.255   5.815   2.052 -0.8151 -0.6851  0.1491
   35MOL0     H 4765   3.963   5.852   2.023  0.6912  3.3486 -1.9816
   35MOL0     H 4766   4.091   5.862   1.898  0.3715 -0.0771 -0.0655
   35MOL0     H 4767   4.128   5.612   1.927  0.5220 -2.4623  2.1258
   35MOL0     H 4768   4.007   5.616   2.054 -1.1568  1.3938 -0.7843
   35MOL0     H 4769   3.824   5.675   1.914  2.0010  1.4790  2.0908
   35MOL0     H 4770   3.928   5.705   1.783 -1.7275  2.3684  2.0041
   35MOL0     H 4771   3.831   5.485   1.741  1.3516  3.2688 -0.7826
   35MOL0     H 4772   3.872   5.420   1.906 -0.3497  1.1623  0.6574
   35MOL0     H 4773   4.087   5.518   1.720 -1.0740 -0.6147 -0.3850
   35MOL0     H 4774   4.103   5.403   1.863  0.6978 -1.7310 -0.8509
   35MOL0     H 4775   3.964   5.331   1.610  0.3788  1.0494 -0.6978
   35MOL0     H 4776   4.017   5.225   1.752  2.3468  0.7459  1.5649
   35MOL0     H 4777   4.189   5.401   1.565 -0.2428  0.9778  2.3579
   35MOL0     H 4778   4.249   5.302   1.696  1.5605 -3.8971 -1.5856
   35MOL0     H 4779   4.054   5.227   1.376 -1.0167  0.0480  0.9944
   35MOL0     H 4780   4.036   4.989   1.236 -0.1625  0.6958 -1.7459
   35MOL0     H 4781   4.096   4.851   1.324 -2.7168  1.0021 -0.0566
   35MOL0     H 4782   4.311   4.853   1.241 -0.2642 -0.5806 -0.2094
   35MOL0     H 4783   4.198   4.843   1.114  0.5284  1.8741 -1.8818
   35MOL0     H 4784   4.315   5.111   1.175 -2.1832  0.3802  0.2765
   35MOL0     H 4785   4.406   4.983   1.080  0.4030 -1.2817  1.0850
   35MOL0     H 4786   4.130   5.024   0.976 -1.3393  2.4411 -1.4756
   35MOL0     H 4787   4.225   5.169   0.981 -3.9409 -0.2311  1.3790
   35MOL0     H 4788   4.435   5.210   0.942 -2.1258  2.9332 -1.8082
   35MOL0     H 4789   4.752   5.354   0.804  0.5815 -0.8944  1.5775
   35MOL0     H 4790   4.641   5.313   0.943 -2.0239 -0.7312 -0.4060
   35MOL0     H 4791   4.579   5.420   0.811 -1.4088 -1.1966 -0.8864
   35MOL0     H 4792   4.944   5.396   0.580 -0.3160 -0.5179 -1.7182
   35MOL0     H 4793   5.154   5.473   0.493 -3.5231  1.1041  2.8246
   35MOL0     H 4794   5.506   5.190   0.510  2.2226 -1.3483 -1.1891
   35MOL0     H 4795   5.453   5.144   0.346  1.0387 -1.8117  2.0865
   35MOL0     H 4796   5.664   5.215   0.331  1.0823  1.7415 -0.9542
   35MOL0     H 4797   5.568   5.352   0.271  1.4729  2.6707  0.5877
   35MOL0     H 4798   5.670   5.346   0.552 -2.3762 -0.4062  0.5012
   35MOL0     H 4799   5.585   5.474   0.471  2.0991  1.2395 -0.0913
   35MOL0     H 4800   5.787   5.505   0.306  1.7893  0.7768  0.5622
   35MOL0     H 4801   5.868   5.394   0.422 -2.1876 -2.3382  0.4545
   35MOL0     H 4802   5.740   5.667   0.473  0.7731 -0.2923 -0.8558
   35MOL0     H 4803   5.797   5.561   0.606 -3.3883 -0.4369 -0.2922
   35MOL0     H 4804   5.969   5.671   0.379 -1.2775 -1.2552 -0.6864
   35MOL0     H 4805   6.023   5.569   0.515 -0.0257  1.8423  3.3651
   35MOL0     H 4806   5.985   5.759   0.669 -0.5820 -1.4259  0.1840
   35MOL0     H 4807   5.882   5.839   0.547  1.3679  0.6976 -0.6796
   35MOL0     H 4808   6.083   5.873   0.399  0.9911  3.3861  0.0369
   35MOL0     H 4809   6.184   5.812   0.544 -0.6566 -1.8542 -2.3521
   35MOL0     H 4810   5.294   5.065   0.490  2.5870  3.1398 -1.9695
   35MOL0     H 4811   5.096   5.000   0.615 -1.6409 -0.1028  1.5721
   35MOL0     H 4812   4.587   4.998   0.525  3.0703  0.1750  0.8397
   35MOL0     H 4813   4.384   4.909   0.663  1.4232 -1.2018 -1.1356
   35MOL0     H 4814   4.106   6.194   2.261 -1.9342  0.0276 -2.1263
   35MOL0     H 4815   3.957   6.252   2.458 -0.0088  0.3631 -0.2958
   35MOL0     H 4816   3.628   6.030   2.696  1.7475 -0.4454  0.1298
   35MOL0     H 4817   3.462   5.997   2.868  0.9358 -1.2178 -1.2968
   35MOL0     H 4818   3.389   5.891   3.054 -0.5017  1.2396 -2.2925
   35MOL0     H 4819   3.339   5.956   3.213 -1.6434  0.4930 -0.8362
   35MOL0     H 4820   3.301   6.106   2.956  2.7709  1.3310  0.5158
   35MOL0     H 4821   3.299   6.176   3.116 -1.5413 -2.2624  2.4146
   35MOL0     H 4822   3.120   5.964   3.016  2.1854  1.6469 -1.7694
   35MOL0     H 4823   3.100   6.019   3.186 -1.8590  0.0276  0.4839
   35MOL0     H 4824   2.936   6.128   3.065  0.3305 -2.6757  0.8809
   35MOL0     H 4825   3.067   6.172   2.942  0.1065 -2.2671  0.1878
   35MOL0     H 4826   3.041   6.473   3.250 -1.0357 -1.0573  1.2290
   35MOL0     H 4827   3.740   6.138   3.161  0.1883 -0.8282  0.0591
   35MOL0     H 4828   4.023   6.127   2.975  2.1213  0.2627  1.7630
   35MOL0     H 4829   3.967   6.295   2.962 -3.1115  1.0128 -0.3098
   35MOL0     H 4830   3.967   6.204   3.119  1.3670 -1.1436 -0.0198
   36MOL0     O 4831   0.627   6.460   3.425  0.7258 -0.6160  0.3292
   36MOL0     C 4832   0.726   6.442   3.357  0.6818  0.2511 -0.4682
   36MOL0     O 4833   0.854   6.467   3.403 -0.8022 -0.1871  0.3333
   36MOL0     C 4834   0.877   6.519   3.529 -0.4358  0.2258 -0.3919
   36MOL0     C 4835   0.972   6.468   3.617 -0.1466  0.3947 -0.6261
   36MOL0     C 4836   0.991   6.526   3.748  0.6700  0.8346  0.5280
   36MOL0     C 4837   0.903   6.630   3.796 -0.7108 -0.6038  0.4260
   36MOL0     O 4838   0.920   6.665   3.923  0.2960  0.5055 -0.6665
   36MOL0     C 4839   0.837   6.775   3.961  0.5454 -0.2363 -0.2823
   36MOL0     C 4840   0.817   6.779   4.117 -0.0642  0.4280 -0.5016
   36MOL0     C 4841   0.734   6.663   4.173  0.3730 -0.1430 -0.3205
   36MOL0     C 4842   0.717   6.686   4.325 -0.3626 -0.4950 -0.7814
   36MOL0     C 4843   0.655   6.568   4.407 -0.0072 -1.0833 -0.0840
   36MOL0     C 4844   0.609   6.603   4.549 -0.4408 -0.0392  0.0034
   36MOL0     C 4845   0.540   6.491   4.614  0.6726  0.0493 -0.1911
   36MOL0     C 4846   0.489   6.534   4.760 -0.0520  0.8675  0.0725
   36MOL0     N 4847   0.612   6.553   4.850  0.2910 -0.4035 -0.4099
   36MOL0     C 4848   0.715   6.466   4.878 -0.9572 -0.6476 -0.0559
   36MOL0     C 4849   0.818   6.546   4.925  0.5313 -0.4296  0.2504
   36MOL0     C 4850   0.959   6.520   4.958  0.5092  0.1154 -0.3325
   36MOL0     C 4851   0.966   6.380   5.034 -0.8552 -0.5543 -0.3987
   36MOL0     C 4852   1.109   6.373   5.107 -0.5688  0.3659 -0.7250
   36MOL0     C 4853   1.238   6.376   5.024  0.9863  0.2514  0.4305
   36MOL0     O 4854   1.225   6.271   4.919  0.2576 -0.3444  0.8222
   36MOL0     C 4855   1.330   6.188   4.890  0.1562 -0.3223  0.1351
   36MOL0     C 4856   1.314   6.060   4.839  0.9694 -0.0227  0.0992
   36MOL0     C 4857   1.411   5.976   4.792 -0.5798 -0.6760 -0.8157
   36MOL0     C 4858   1.379   5.845   4.736  0.0392 -0.7992 -0.0472
   36MOL0     C 4859   1.543   6.021   4.804 -0.0681 -0.1405  0.0291
   36MOL0     C 4860   1.670   5.953   4.778 -0.1065 -0.8437  0.6529
   36MOL0     O 4861   1.796   6.024   4.756  0.1101 -0.0055 -0.7480
   36MOL0     C 4862   1.918   5.966   4.791  0.1971  0.7770  0.6566
   36MOL0     C 4863   2.031   6.010   4.727  1.3027  0.0808 -0.2263
   36MOL0     C 4864   2.154   5.944   4.745  0.9143 -1.2267  0.2043
   36MOL0     C 4865   2.170   5.847   4.847 -1.3844  0.6064  0.8616
   36MOL0     O 4866   2.295   5.803   4.875 -0.0607  0.2329  0.3779
   36MOL0     C 4867   2.317   5.700   4.974  0.1810  1.0271 -0.1989
   36MOL0     C 4868   2.465   5.684   4.995  0.2740 -0.0727 -0.2395
   36MOL0     C 4869   2.507   5.579   5.108  0.2519 -0.0130  0.6109
   36MOL0     C 4870   2.661   5.557   5.122 -0.0555 -0.3372 -0.4415
   36MOL0     C 4871   2.728   5.515   4.996  0.0287  0.6592  0.1887
   36MOL0     C 4872   2.857   5.430   5.024  0.0495  0.5173 -0.4085
   36MOL0     C 4873   2.841   5.304   5.110  0.1360  0.1908 -0.2180
   36MOL0     C 4874   2.969   5.210   5.091  0.0744 -0.1612 -0.1640
   36MOL0    Cl 4875   2.949   5.119   4.940  0.0106  0.0312  0.2664
   36MOL0     C 4876   2.054   5.810   4.921  0.2253  0.8651 -0.1197
   36MOL0     C 4877   1.924   5.871   4.892 -0.3198 -1.0697  0.1999
   36MOL0     O 4878   1.661   5.835   4.766  0.5808  0.2313 -0.5474
   36MOL0     C 4879   1.565   6.156   4.850  0.4002 -1.5721  0.5121
   36MOL0     C 4880   1.461   6.231   4.898 -0.6545 -0.4934 -0.6146
   36MOL0     N 4881   0.768   6.676   4.927 -0.0218  0.3119 -0.4776
   36MOL0     N 4882   0.644   6.678   4.891 -0.1210  0.7687 -0.7597
   36MOL0     C 4883   0.815   6.684   3.700  0.8473 -0.2572  0.7077
   36MOL0     C 4884   0.808   6.638   3.564  0.1261 -0.0084 -0.6363
   36MOL0     C 4885   0.725   6.379   3.223 -0.3380  0.2669  0.0180
   36MOL0     C 4886   0.777   6.252   3.222  0.0984 -0.4394  0.5252
   36MOL0     C 4887   0.801   6.186   3.100 -0.2714 -0.3740  0.1086
   36MOL0     C 4888   0.747   6.240   2.980  0.6200  1.0683  0.0959
   36MOL0     O 4889   0.744   6.165   2.860  0.2808  0.0251 -0.2415
   36MOL0     C 4890   0.610   6.129   2.811 -0.8252 -0.4193  0.4361
   36MOL0     C 4891   0.547   6.012   2.888  0.3795 -0.4864 -0.1240
   36MOL0     C 4892   0.608   5.874   2.864 -0.3621 -0.0715  1.2503
   36MOL0     C 4893   0.513   5.754   2.889 -0.1474 -0.2858 -0.0478
   36MOL0     C 4894   0.465   5.734   3.025  0.4369  0.4627 -0.0750
   36MOL0     C 4895   0.439   5.697   3.140  0.2078 -0.1385  0.1847
   36MOL0     C 4896   0.689   6.365   2.978 -0.3206  0.1962 -0.7158
   36MOL0     C 4897   0.692   6.444   3.103 -0.0184  1.2454 -0.2537
   36MOL0     C 4898   0.639   6.587   3.091  0.6091 -0.7147  0.2329
   36MOL0     H 4899   1.014   6.374   3.582 -2.5675 -1.9176  2.0878
   36MOL0     H 4900   1.054   6.477   3.821 -2.1426 -1.9339  1.3210
   36MOL0     H 4901   0.732   6.776   3.931 -0.0452 -0.8992  1.5986
   36MOL0     H 4902   0.888   6.870   3.943  0.8211  0.7206  4.1820
   36MOL0     H 4903   0.911   6.762   4.170 -0.6184  1.2879  0.8178
   36MOL0     H 4904   0.766   6.872   4.142  0.5266  0.4513  0.7017
   36MOL0     H 4905   0.634   6.669   4.127 -0.5273  0.2826  1.5840
   36MOL0     H 4906   0.783   6.567   4.152  2.1996  0.4307  1.0722
   36MOL0     H 4907   0.812   6.713   4.371 -0.2200 -1.7500 -0.2821
   36MOL0     H 4908   0.654   6.775   4.329  3.5045  2.7023 -3.1953
   36MOL0     H 4909   0.722   6.482   4.407  1.1181 -0.3058 -2.2975
   36MOL0     H 4910   0.572   6.533   4.344  1.4720 -0.3170 -2.6357
   36MOL0     H 4911   0.701   6.625   4.603  1.8410 -1.5096 -2.9301
   36MOL0     H 4912   0.533   6.681   4.544  0.4156  0.8979  1.1287
   36MOL0     H 4913   0.609   6.408   4.629  1.4240  0.1601 -2.6027
   36MOL0     H 4914   0.461   6.450   4.551 -0.1993 -0.8722  1.4318
   36MOL0     H 4915   0.418   6.617   4.752 -2.4918 -1.0889 -0.0244
   36MOL0     H 4916   0.438   6.448   4.806  3.5089 -0.7390  1.3623
   36MOL0     H 4917   0.718   6.360   4.854 -1.5193 -0.9022  0.9415
   36MOL0     H 4918   1.006   6.596   5.021  3.2788 -1.1811 -0.7111
   36MOL0     H 4919   1.012   6.510   4.863  0.3270  1.8241 -0.6341
   36MOL0     H 4920   0.887   6.374   5.109 -0.3839  2.2883  0.4397
   36MOL0     H 4921   0.961   6.297   4.963  0.7790 -1.0549  0.0286
   36MOL0     H 4922   1.113   6.444   5.190  4.5280  0.6531 -0.9154
   36MOL0     H 4923   1.102   6.280   5.166  2.8972 -0.0831 -0.8309
   36MOL0     H 4924   1.248   6.471   4.970 -0.1196  0.1311 -0.0100
   36MOL0     H 4925   1.321   6.360   5.093 -0.8617 -3.3295  2.0471
   36MOL0     H 4926   1.210   6.031   4.833  0.1076  2.8921 -0.7602
   36MOL0     H 4927   1.392   5.842   4.627  3.0863  2.0641  0.0831
   36MOL0     H 4928   1.273   5.824   4.750  0.0572  0.3108  2.1429
   36MOL0     H 4929   1.434   5.758   4.774  0.4593 -2.3809 -3.8659
   36MOL0     H 4930   2.007   6.080   4.647  0.0078  0.5154  0.5167
   36MOL0     H 4931   2.240   5.976   4.688  0.6028  4.2974  2.2515
   36MOL0     H 4932   2.270   5.725   5.070 -0.0423  0.9229 -0.2828
   36MOL0     H 4933   2.264   5.611   4.939 -2.3534  2.2287  0.3329
   36MOL0     H 4934   2.511   5.657   4.900  0.0649  1.0952 -0.6947
   36MOL0     H 4935   2.503   5.781   5.029 -0.5786  0.3517 -0.4666
   36MOL0     H 4936   2.475   5.484   5.064  0.4789  0.6779 -1.1476
   36MOL0     H 4937   2.473   5.608   5.207 -1.9649 -0.4666  0.0262
   36MOL0     H 4938   2.669   5.486   5.205  2.7110  0.8553  0.4451
   36MOL0     H 4939   2.705   5.647   5.167 -2.3263  0.8933 -0.5713
   36MOL0     H 4940   2.659   5.443   4.951  1.5697  1.1201 -3.3091
   36MOL0     H 4941   2.735   5.594   4.920  1.9317 -1.0034 -1.5030
   36MOL0     H 4942   2.937   5.483   5.076 -0.7143 -0.3059  1.7247
   36MOL0     H 4943   2.880   5.400   4.921 -0.3070  0.9045 -0.6053
   36MOL0     H 4944   2.743   5.257   5.097 -1.3784  1.6931  3.9960
   36MOL0     H 4945   2.843   5.322   5.218 -0.6067 -2.0230  0.2277
   36MOL0     H 4946   2.984   5.141   5.174 -0.1416  0.0992  0.0939
   36MOL0     H 4947   3.061   5.269   5.085  1.5663 -2.4652 -1.0369
   36MOL0     H 4948   2.061   5.731   4.995  2.7903  2.9992  2.0884
   36MOL0     H 4949   1.828   5.832   4.926  0.6925 -2.1858  1.8943
   36MOL0     H 4950   1.669   6.186   4.864 -0.2007  0.6801  0.4474
   36MOL0     H 4951   1.489   6.326   4.943 -1.9385 -0.3069 -0.1636
   36MOL0     H 4952   0.740   6.761   3.719  0.1899 -1.3909  3.1906
   36MOL0     H 4953   0.742   6.698   3.501 -3.3407 -1.0570  1.7069
   36MOL0     H 4954   0.795   6.198   3.315 -4.0466 -2.2372  0.5013
   36MOL0     H 4955   0.842   6.085   3.099  0.5824 -0.1343  2.7515
   36MOL0     H 4956   0.540   6.210   2.828 -0.6998 -0.2875  0.3253
   36MOL0     H 4957   0.622   6.095   2.707 -0.2442 -0.8288  0.6290
   36MOL0     H 4958   0.441   6.003   2.860  0.3105 -0.7979  0.2337
   36MOL0     H 4959   0.548   6.033   2.996  0.1185 -3.0468  0.4224
   36MOL0     H 4960   0.634   5.862   2.758  2.0948  0.3378  1.7498
   36MOL0     H 4961   0.698   5.857   2.924 -1.2445  1.1153  2.9963
   36MOL0     H 4962   0.560   5.662   2.854 -1.1235 -0.4713 -0.9321
   36MOL0     H 4963   0.426   5.764   2.823  0.4753  3.5475 -0.5371
   36MOL0     H 4964   0.414   5.662   3.238 -0.2241 -2.3412 -0.6627
   36MOL0     H 4965   0.630   6.401   2.894  0.7228 -0.1643 -1.6226
   36MOL0     H 4966   0.680   6.650   3.012  1.1936 -0.1932  0.9426
   36MOL0     H 4967   0.530   6.588   3.080  0.7480 -1.6960 -1.5405
   36MOL0     H 4968   0.649   6.645   3.183 -1.6033  1.0863 -0.5628
   37MOL0     O 4969   9.829   9.723   7.801 -0.5537  0.1386 -0.2769
   37MOL0     C 4970   9.790   9.837   7.832  0.7287  0.8336  0.1224
   37MOL0     O 4971   9.867   9.938   7.865  0.4377 -0.4304  0.0735
   37MOL0     C 4972  10.002   9.940   7.834  0.1035  0.1835  0.0171
   37MOL0     C 4973  10.100   9.903   7.930 -0.1645 -1.1146 -0.6507
   37MOL0     C 4974  10.232   9.891   7.894 -0.6330 -0.3913 -0.5592
   37MOL0     C 4975  10.275   9.926   7.769  0.2601 -0.3109 -0.0545
   37MOL0     O 4976  10.413   9.941   7.737 -0.5885  0.2326 -0.0184
   37MOL0     C 4977  10.471  10.054   7.803  0.0971  0.1209  0.0761
   37MOL0     C 4978  10.622  10.066   7.770  0.0803  0.5972  0.3402
   37MOL0     C 4979  10.646  10.058   7.624  0.2383  0.1062 -0.0331
   37MOL0     C 4980  10.791  10.065   7.605  0.0469 -0.1297  0.0612
   37MOL0     C 4981  10.820  10.097   7.454 -1.3440 -0.0200 -0.5645
   37MOL0     C 4982  10.792  10.238   7.395  0.1867  0.0466  0.3876
   37MOL0     C 4983  10.859  10.270   7.254  0.3710  0.2820  0.1698
   37MOL0     C 4984  10.797  10.398   7.191  0.2231  1.0270  0.0266
   37MOL0     N 4985  10.873  10.438   7.074 -0.7608  0.2523  0.1975
   37MOL0     C 4986  11.001  10.501   7.079 -0.3453  0.8368 -0.3941
   37MOL0     C 4987  11.054  10.486   6.959 -1.0539 -0.2109  0.1649
   37MOL0     C 4988  11.196  10.515   6.908 -0.0127 -0.4711  0.3861
   37MOL0     C 4989  11.268  10.380   6.885  0.4258  0.1452  0.0368
   37MOL0     C 4990  11.411  10.399   6.846 -0.5956 -0.4650  0.4141
   37MOL0     C 4991  11.490  10.263   6.851 -0.3771  0.6304  0.1775
   37MOL0     O 4992  11.520  10.253   6.990  0.2510 -0.2583 -0.4366
   37MOL0     C 4993  11.634  10.313   7.041 -0.3124 -0.5096  0.3937
   37MOL0     C 4994  11.647  10.292   7.172 -1.0336  0.5014 -0.6970
   37MOL0     C 4995  11.769  10.332   7.244 -0.0837 -0.4280  0.0651
   37MOL0     C 4996  11.789  10.283   7.386  0.4051 -0.1425  0.2303
   37MOL0     C 4997  11.860  10.414   7.179 -0.7850  0.3294 -0.6024
   37MOL0     C 4998  11.982  10.482   7.248 -0.0336  0.5115  0.4638
   37MOL0     O 4999  11.967  10.514   7.380  0.3938 -0.3383 -0.1297
   37MOL0     C 5000  12.064  10.567   7.468  0.6895  0.8064  0.3054
   37MOL0     C 5001  12.202  10.591   7.434 -0.1038 -0.1235 -0.0409
   37MOL0     C 5002  12.289  10.633   7.540 -0.4101 -0.3603  0.0013
   37MOL0     C 5003  12.246  10.642   7.679 -0.0894 -0.0299 -0.1641
   37MOL0     O 5004  12.318  10.676   7.791  0.2291 -0.0784 -0.5905
   37MOL0     C 5005  12.455  10.731   7.778  0.2883 -0.8552  0.0405
   37MOL0     C 5006  12.450  10.893   7.758 -0.2089  0.2289 -0.3735
   37MOL0     C 5007  12.590  10.954   7.756 -0.3619  0.2965 -0.7442
   37MOL0     C 5008  12.691  10.902   7.865 -0.9629  0.0029 -0.4272
   37MOL0     C 5009  12.806  10.996   7.871 -0.4069  0.8900 -0.3671
   37MOL0     C 5010  12.922  10.942   7.960  0.8549  0.7733  0.0955
   37MOL0     C 5011  13.051  11.013   7.940  0.2850  0.0840 -0.1374
   37MOL0     C 5012  13.149  10.940   7.857  1.0041 -0.5154  0.5435
   37MOL0    Cl 5013  13.252  10.844   7.960 -0.2368  0.2553  0.1190
   37MOL0     C 5014  12.110  10.620   7.698  0.2693 -0.2831  0.1043
   37MOL0     C 5015  12.019  10.582   7.597 -0.3395  0.4299 -0.2676
   37MOL0     O 5016  12.082  10.517   7.183  0.6309 -0.3665  1.4948
   37MOL0     C 5017  11.849  10.442   7.047  0.3647  1.1701  0.7778
   37MOL0     C 5018  11.736  10.394   6.979  0.4406  0.2679  0.0192
   37MOL0     N 5019  10.968  10.413   6.878 -0.2875  0.2711  0.1597
   37MOL0     N 5020  10.871  10.373   6.956  0.2399 -0.1356 -0.2324
   37MOL0     C 5021  10.184   9.984   7.680 -0.3774 -0.2976  0.2165
   37MOL0     C 5022  10.052   9.982   7.705  0.1589 -0.0338  0.0891
   37MOL0     C 5023   9.641   9.860   7.860 -0.3430 -0.1283 -0.8620
   37MOL0     C 5024   9.595   9.992   7.873 -0.4026  0.2488  0.1912
   37MOL0     C 5025   9.461  10.015   7.901 -0.2727 -0.1478  1.0525
   37MOL0     C 5026   9.366   9.917   7.901 -0.7117  1.1499 -0.2547
   37MOL0     O 5027   9.240   9.957   7.933 -0.5828  0.9376 -0.2322
   37MOL0     C 5028   9.153   9.859   7.998  0.2349 -0.9277 -0.6885
   37MOL0     C 5029   9.018   9.928   8.032  1.2811  0.6783  0.8239
   37MOL0     C 5030   8.918   9.820   8.079  0.4264 -0.3182  0.1587
   37MOL0     C 5031   8.781   9.873   8.096  0.5729 -0.0800  0.5567
   37MOL0     C 5032   8.769   9.956   8.218 -0.7683  0.3957 -0.5137
   37MOL0     C 5033   8.783  10.023   8.318  0.0124 -0.6226 -0.0720
   37MOL0     C 5034   9.413   9.786   7.887 -0.3771  0.4411  0.2714
   37MOL0     C 5035   9.546   9.757   7.860  0.9734 -0.3448  0.3008
   37MOL0     C 5036   9.576   9.615   7.834  0.2019 -0.3385 -0.0922
   37MOL0     H 5037  10.059   9.889   8.029  0.6898  0.5400 -0.0347
   37MOL0     H 5038  10.302   9.849   7.966  0.9856 -1.1722 -2.5101
   37MOL0     H 5039  10.456  10.040   7.910 -3.5111  0.0135 -0.3226
   37MOL0     H 5040  10.427  10.150   7.775 -1.5667 -0.3044  1.1000
   37MOL0     H 5041  10.659  10.160   7.813  0.1823  0.5744  0.3030
   37MOL0     H 5042  10.669   9.983   7.822  0.7779  1.0619  0.4644
   37MOL0     H 5043  10.608   9.969   7.572  0.4318  1.4702 -2.6713
   37MOL0     H 5044  10.595  10.143   7.580 -0.9119  1.4143  3.5306
   37MOL0     H 5045  10.838  10.142   7.666 -1.1148 -2.2195  3.9273
   37MOL0     H 5046  10.841   9.971   7.632 -0.5607 -0.8612 -1.2550
   37MOL0     H 5047  10.762  10.018   7.406 -0.9841 -0.8111  0.2596
   37MOL0     H 5048  10.927  10.075   7.456 -1.6400 -2.1306  3.4825
   37MOL0     H 5049  10.685  10.261   7.390 -0.4019 -1.6276  2.8697
   37MOL0     H 5050  10.848  10.302   7.463  0.2727  0.9420 -0.5108
   37MOL0     H 5051  10.837  10.189   7.184 -0.1521  0.0982  0.5404
   37MOL0     H 5052  10.964  10.294   7.278  0.3106 -0.8347  1.6868
   37MOL0     H 5053  10.691  10.378   7.170 -0.6339  4.0401  1.0221
   37MOL0     H 5054  10.798  10.480   7.264  1.5511 -1.5607  3.1737
   37MOL0     H 5055  11.059  10.540   7.162 -0.6832 -1.1097  0.8127
   37MOL0     H 5056  11.251  10.575   6.982  0.1609  0.0761 -0.1853
   37MOL0     H 5057  11.189  10.572   6.815 -1.5298  0.2306  0.8971
   37MOL0     H 5058  11.268  10.323   6.978  2.0637 -2.1294 -1.2520
   37MOL0     H 5059  11.223  10.313   6.810  0.9320  0.0379 -0.1741
   37MOL0     H 5060  11.418  10.432   6.742 -4.0460 -0.5818  0.0419
   37MOL0     H 5061  11.454  10.473   6.914 -1.4928 -0.4594  0.9862
   37MOL0     H 5062  11.434  10.176   6.816 -1.9382  1.5557  0.2770
   37MOL0     H 5063  11.579  10.262   6.788 -1.1111  2.3606 -0.9617
   37MOL0     H 5064  11.564  10.243   7.221 -1.1291  0.3073 -1.0448
   37MOL0     H 5065  11.737  10.347   7.457  0.4776 -1.3167  1.3902
   37MOL0     H 5066  11.890  10.280   7.429  1.2784 -1.9300 -1.7459
   37MOL0     H 5067  11.750  10.181   7.396 -1.6419  0.3150 -2.1674
   37MOL0     H 5068  12.238  10.568   7.334 -0.5730 -0.4802 -0.1347
   37MOL0     H 5069  12.392  10.661   7.520 -0.5422 -0.6196 -1.1006
   37MOL0     H 5070  12.515  10.717   7.868  0.5420 -1.5871 -0.2340
   37MOL0     H 5071  12.502  10.684   7.691  2.6711  1.4438 -0.0540
   37MOL0     H 5072  12.393  10.916   7.667  0.3654  0.2682 -0.7363
   37MOL0     H 5073  12.393  10.935   7.841  0.0258 -0.0320 -0.0814
   37MOL0     H 5074  12.563  11.058   7.776 -1.8398 -0.2172  0.0886
   37MOL0     H 5075  12.627  10.941   7.654 -0.7702  0.3610 -0.9003
   37MOL0     H 5076  12.724  10.800   7.844 -1.3536  0.4361 -3.4952
   37MOL0     H 5077  12.641  10.891   7.962  1.7971 -2.6025  0.9062
   37MOL0     H 5078  12.853  11.003   7.773 -0.2776 -2.5339 -0.6569
   37MOL0     H 5079  12.778  11.093   7.914 -3.2431 -0.1776  0.4470
   37MOL0     H 5080  12.927  10.833   7.950  2.6593  1.0053 -2.8369
   37MOL0     H 5081  12.889  10.961   8.062  0.5289  1.6084 -0.1574
   37MOL0     H 5082  13.098  11.024   8.038 -0.2352  1.8133 -0.0472
   37MOL0     H 5083  13.035  11.112   7.898 -2.5355 -0.4494 -0.5324
   37MOL0     H 5084  13.213  11.019   7.816  0.1060  0.1937  0.4730
   37MOL0     H 5085  13.100  10.881   7.779 -0.6609 -0.9634  1.8709
   37MOL0     H 5086  12.074  10.627   7.800  0.7641  0.7675  0.2132
   37MOL0     H 5087  11.924  10.540   7.629 -1.0080  1.2552 -1.0940
   37MOL0     H 5088  11.919  10.509   6.998 -0.9243  1.7793 -0.3052
   37MOL0     H 5089  11.724  10.408   6.872 -0.7407 -0.2658  0.0627
   37MOL0     H 5090  10.222  10.028   7.589 -0.1169  1.3534  1.0840
   37MOL0     H 5091   9.976  10.017   7.636 -0.9475  0.6266  1.5863
   37MOL0     H 5092   9.654  10.083   7.860  0.3920 -0.0772  1.3760
   37MOL0     H 5093   9.429  10.118   7.915 -2.2107 -0.2633 -1.6693
   37MOL0     H 5094   9.144   9.767   7.939 -0.2642 -2.2763  1.3682
   37MOL0     H 5095   9.199   9.828   8.093 -0.2290  2.7774  0.9073
   37MOL0     H 5096   8.974   9.987   7.951 -0.2479 -1.7843 -0.2427
   37MOL0     H 5097   9.032   9.998   8.115 -0.1231  1.7022  0.2230
   37MOL0     H 5098   8.906   9.762   7.987 -2.9100 -1.6032  1.2444
   37MOL0     H 5099   8.953   9.752   8.157 -0.2739 -2.2649 -1.1417
   37MOL0     H 5100   8.713   9.787   8.092  1.7144 -0.9492 -0.6675
   37MOL0     H 5101   8.750   9.936   8.012  0.6597  1.1889  1.4565
   37MOL0     H 5102   8.794  10.077   8.409 -1.4631 -3.3039  1.8535
   37MOL0     H 5103   9.340   9.707   7.901  0.7069 -0.3599  1.6567
   37MOL0     H 5104   9.644   9.603   7.749 -1.7877 -2.6183 -1.4793
   37MOL0     H 5105   9.622   9.570   7.923  0.4333 -1.3057 -0.6837
   37MOL0     H 5106   9.494   9.555   7.796  0.0294 -0.3028  0.2191
   38MOL0     O 5107  10.110   3.843   3.132 -0.3421  0.6608 -0.1301
   38MOL0     C 5108  10.004   3.805   3.085 -0.6073  0.2463  0.8384
   38MOL0     O 5109   9.986   3.719   2.969  0.5185 -0.0717 -0.1330
   38MOL0     C 5110  10.093   3.659   2.902 -0.2889  0.1201 -0.1148
   38MOL0     C 5111  10.220   3.715   2.892 -0.2796  0.0161 -0.3863
   38MOL0     C 5112  10.332   3.660   2.819  0.8120 -1.3259 -0.0102
   38MOL0     C 5113  10.301   3.538   2.750 -0.1026 -0.2722  0.1422
   38MOL0     O 5114  10.409   3.490   2.683 -0.3116 -0.0231  0.6596
   38MOL0     C 5115  10.380   3.384   2.585 -0.8072  0.8773 -0.5290
   38MOL0     C 5116  10.514   3.333   2.527 -0.2752 -0.1118 -0.4368
   38MOL0     C 5117  10.579   3.427   2.433 -0.0886 -0.1588 -0.0846
   38MOL0     C 5118  10.547   3.401   2.285  0.1379 -1.3011 -0.7782
   38MOL0     C 5119  10.620   3.491   2.190  0.1946 -0.7170  0.6460
   38MOL0     C 5120  10.571   3.471   2.044  0.0377  0.1332 -0.4072
   38MOL0     C 5121  10.619   3.344   1.975 -0.3029 -0.1171 -0.7470
   38MOL0     C 5122  10.531   3.211   2.001 -0.1292 -0.5613 -0.1061
   38MOL0     N 5123  10.384   3.221   2.010  0.7606  0.1164 -0.1419
   38MOL0     C 5124  10.304   3.303   1.934 -0.4416 -0.5071 -0.6292
   38MOL0     C 5125  10.188   3.302   2.001  0.0852  0.0493 -0.3624
   38MOL0     C 5126  10.062   3.371   1.963 -0.9496 -0.6098 -0.1506
   38MOL0     C 5127   9.966   3.270   1.899  0.0955  0.7212 -0.1548
   38MOL0     C 5128   9.843   3.351   1.839  0.6974 -0.2787  0.9208
   38MOL0     C 5129   9.736   3.255   1.777  0.3655 -0.0833  0.4505
   38MOL0     O 5130   9.638   3.347   1.709 -0.2838  0.1054  0.7429
   38MOL0     C 5131   9.521   3.287   1.677  0.1563  0.4250  1.2100
   38MOL0     C 5132   9.442   3.233   1.775  0.3027 -0.3050  0.1878
   38MOL0     C 5133   9.325   3.166   1.745 -0.7184 -0.5555 -0.4024
   38MOL0     C 5134   9.249   3.116   1.867 -0.7443  0.6127 -0.4027
   38MOL0     C 5135   9.289   3.165   1.610  0.6710  0.0169 -0.0404
   38MOL0     C 5136   9.156   3.133   1.561 -0.4935 -0.5697 -0.5677
   38MOL0     O 5137   9.117   3.129   1.429  0.5284  0.1229 -0.2109
   38MOL0     C 5138   8.988   3.093   1.400  1.2015  0.8084 -0.8656
   38MOL0     C 5139   8.915   3.195   1.357  0.1463  0.4479  0.5284
   38MOL0     C 5140   8.795   3.176   1.296  0.1293 -0.2437  0.3990
   38MOL0     C 5141   8.744   3.045   1.285 -0.0778 -0.3093  0.2644
   38MOL0     O 5142   8.633   3.021   1.208  0.6955  0.1224  0.0416
   38MOL0     C 5143   8.557   2.892   1.209 -0.3851  0.2554 -0.9498
   38MOL0     C 5144   8.425   2.905   1.137 -0.1649 -0.3072 -0.0436
   38MOL0     C 5145   8.341   3.018   1.202 -0.4323  0.7333 -0.3260
   38MOL0     C 5146   8.212   3.032   1.115  0.3462 -0.0249  0.0686
   38MOL0     C 5147   8.096   3.100   1.193  0.2103  0.1925 -0.0354
   38MOL0     C 5148   7.969   3.144   1.107 -0.5480 -0.1018  0.1754
   38MOL0     C 5149   7.842   3.154   1.198  0.3865  0.5611 -0.6529
   38MOL0     C 5150   7.857   3.275   1.288 -0.3152  0.0696 -0.7672
   38MOL0    Cl 5151   7.740   3.276   1.435  0.2696 -0.3581  0.3059
   38MOL0     C 5152   8.814   2.932   1.343 -0.4044  0.2460 -0.0515
   38MOL0     C 5153   8.945   2.957   1.384  0.2618 -0.0753  0.3250
   38MOL0     O 5154   9.079   3.113   1.649  0.8906  0.1143  0.2222
   38MOL0     C 5155   9.372   3.215   1.515 -0.0280 -0.1228  0.3048
   38MOL0     C 5156   9.485   3.276   1.547 -0.0099 -0.6688 -0.3256
   38MOL0     N 5157  10.192   3.211   2.108  0.3008  0.3073 -0.0959
   38MOL0     N 5158  10.309   3.167   2.108  0.0583  0.4332  0.9652
   38MOL0     C 5159  10.171   3.484   2.749  1.1869  0.1340  0.5629
   38MOL0     C 5160  10.070   3.542   2.827 -1.2763  0.1753  0.0768
   38MOL0     C 5161   9.886   3.875   3.150 -0.0089 -0.2710  0.7920
   38MOL0     C 5162   9.913   3.962   3.260 -0.4002  0.3793 -0.3053
   38MOL0     C 5163   9.812   4.035   3.316  0.5088 -0.5368  1.2825
   38MOL0     C 5164   9.685   4.032   3.268 -0.9603 -0.1543  1.2698
   38MOL0     O 5165   9.585   4.111   3.315 -0.0759  0.0427  1.1074
   38MOL0     C 5166   9.610   4.206   3.423  0.6320  0.2579 -0.0464
   38MOL0     C 5167   9.504   4.327   3.435 -0.1642  0.0159  0.1722
   38MOL0     C 5168   9.476   4.396   3.302 -0.0090 -0.2562  0.0345
   38MOL0     C 5169   9.432   4.548   3.327 -0.0095  0.9954  0.4681
   38MOL0     C 5170   9.548   4.628   3.354 -0.3481 -0.1389  0.7374
   38MOL0     C 5171   9.652   4.688   3.371  0.0391  0.5689  0.2745
   38MOL0     C 5172   9.652   3.945   3.165  1.0065 -0.0126 -0.5294
   38MOL0     C 5173   9.757   3.867   3.108  0.0493  0.6935 -0.1858
   38MOL0     C 5174   9.697   3.764   3.016  0.1308  0.0888  0.8766
   38MOL0     H 5175  10.247   3.813   2.929 -0.8975 -0.8955  2.7059
   38MOL0     H 5176  10.434   3.697   2.829  0.2878 -0.0427  0.9671
   38MOL0     H 5177  10.320   3.413   2.499 -0.0441  0.9688 -1.0473
   38MOL0     H 5178  10.328   3.300   2.632  0.5773  0.5656  0.5379
   38MOL0     H 5179  10.586   3.313   2.607  0.1447 -0.4609 -0.8972
   38MOL0     H 5180  10.484   3.243   2.472 -3.5826  1.3853 -1.3229
   38MOL0     H 5181  10.560   3.533   2.453  2.1134  0.5708 -1.5210
   38MOL0     H 5182  10.686   3.410   2.442  0.2840  2.0104  0.1787
   38MOL0     H 5183  10.573   3.298   2.259 -0.1894 -1.4907 -0.3668
   38MOL0     H 5184  10.439   3.420   2.281  0.5520  2.1157  0.5620
   38MOL0     H 5185  10.728   3.488   2.202  0.5616  2.4197 -0.8520
   38MOL0     H 5186  10.586   3.592   2.215  1.1488  0.4182 -2.1955
   38MOL0     H 5187  10.463   3.487   2.040  0.3643  2.7290 -0.9049
   38MOL0     H 5188  10.621   3.553   1.991  0.7280  0.4034  0.6103
   38MOL0     H 5189  10.725   3.332   1.996 -1.0270  1.1329  5.6449
   38MOL0     H 5190  10.614   3.357   1.866  3.6056 -1.1446 -1.1806
   38MOL0     H 5191  10.567   3.142   1.924 -0.0405 -1.9582  1.1218
   38MOL0     H 5192  10.562   3.169   2.098 -3.5504 -0.3103  1.2443
   38MOL0     H 5193  10.321   3.365   1.847  1.8907  3.5280  2.3360
   38MOL0     H 5194  10.087   3.453   1.894 -0.7646  0.6095  1.3309
   38MOL0     H 5195  10.017   3.415   2.052 -0.8001 -0.9264  0.0785
   38MOL0     H 5196  10.013   3.205   1.826  2.0766  0.4728  1.2704
   38MOL0     H 5197   9.932   3.211   1.985  1.5387  0.3762  0.2007
   38MOL0     H 5198   9.790   3.412   1.912 -1.3142 -1.3775  0.4492
   38MOL0     H 5199   9.892   3.420   1.770  1.0968  0.5305  1.9735
   38MOL0     H 5200   9.776   3.188   1.701 -2.1237  0.2338 -1.2429
   38MOL0     H 5201   9.692   3.194   1.857 -3.4400  2.0682  0.2192
   38MOL0     H 5202   9.474   3.252   1.877  2.7636 -2.0052 -0.1918
   38MOL0     H 5203   9.312   3.121   1.956  1.4440 -1.9374 -1.6734
   38MOL0     H 5204   9.225   3.011   1.847  0.9995 -0.7108  3.5544
   38MOL0     H 5205   9.151   3.163   1.882 -0.7645 -0.3159  3.5061
   38MOL0     H 5206   8.966   3.291   1.361  2.6077 -0.7778  3.4658
   38MOL0     H 5207   8.733   3.261   1.269  0.1348  0.2846  1.9361
   38MOL0     H 5208   8.614   2.808   1.169 -1.0457 -0.2340 -0.8697
   38MOL0     H 5209   8.532   2.870   1.313  0.2056  3.9372  0.1387
   38MOL0     H 5210   8.464   2.913   1.035  0.3594 -1.5457  0.0385
   38MOL0     H 5211   8.364   2.814   1.139  0.5867 -0.8600 -1.3568
   38MOL0     H 5212   8.390   3.116   1.209 -0.1241  0.6545 -1.2673
   38MOL0     H 5213   8.326   2.979   1.304 -0.8906 -1.0680 -1.0520
   38MOL0     H 5214   8.178   2.931   1.088  2.0781 -0.3586 -1.0373
   38MOL0     H 5215   8.231   3.084   1.021 -0.5198 -0.4642 -0.3652
   38MOL0     H 5216   8.060   3.023   1.262  0.2908  1.3655  1.3788
   38MOL0     H 5217   8.140   3.181   1.253  2.6764 -2.1322  1.5365
   38MOL0     H 5218   7.938   3.073   1.030  1.4659 -1.3448  0.4362
   38MOL0     H 5219   7.986   3.240   1.058 -1.1980  0.8503  1.7525
   38MOL0     H 5220   7.831   3.056   1.247  3.3075 -0.3271 -1.5637
   38MOL0     H 5221   7.760   3.178   1.130 -1.2790  0.8659  1.3769
   38MOL0     H 5222   7.842   3.366   1.230  5.3292  1.6789 -0.2901
   38MOL0     H 5223   7.957   3.282   1.332 -1.1814 -3.0299  2.1414
   38MOL0     H 5224   8.780   2.829   1.349  1.7180 -0.4194  1.3368
   38MOL0     H 5225   9.020   2.882   1.408 -0.0584 -1.1414 -1.7664
   38MOL0     H 5226   9.349   3.216   1.409 -2.3062 -1.6439  0.7098
   38MOL0     H 5227   9.544   3.324   1.469 -0.1586  0.3142  0.1559
   38MOL0     H 5228  10.145   3.394   2.694  1.6794 -0.3939  1.1883
   38MOL0     H 5229   9.973   3.492   2.826 -0.9796 -0.4052 -1.4129
   38MOL0     H 5230  10.008   3.960   3.314 -0.6953 -0.4558  0.2080
   38MOL0     H 5231   9.842   4.078   3.412  0.6605 -3.1685  2.4981
   38MOL0     H 5232   9.621   4.162   3.522  1.0940  0.6953  0.0976
   38MOL0     H 5233   9.705   4.249   3.389  1.6430 -2.3837 -0.8172
   38MOL0     H 5234   9.541   4.400   3.508 -0.7903 -1.3083  1.8909
   38MOL0     H 5235   9.409   4.289   3.472 -1.0453 -0.1488 -2.1623
   38MOL0     H 5236   9.565   4.392   3.238 -0.0541 -0.7871  0.0024
   38MOL0     H 5237   9.398   4.338   3.251 -1.0609  3.1302 -2.6079
   38MOL0     H 5238   9.369   4.558   3.416  1.1225  1.7316  1.2263
   38MOL0     H 5239   9.388   4.584   3.234  0.4070  0.2002 -0.0484
   38MOL0     H 5240   9.741   4.740   3.401 -0.7938  1.3559  1.4857
   38MOL0     H 5241   9.549   3.920   3.143  0.8201 -0.2109  0.5103
   38MOL0     H 5242   9.703   3.663   3.058 -0.5001 -1.2921 -2.1188
   38MOL0     H 5243   9.591   3.773   2.993  0.4087 -0.5980 -0.7771
   38MOL0     H 5244   9.749   3.759   2.920  1.9617 -1.5379  1.8580
   39MOL0     O 5245   6.689   2.616  10.152 -0.3887  0.3701  0.9100
   39MOL0     C 5246   6.717   2.724  10.202  0.9103 -0.6947  0.4012
   39MOL0     O 5247   6.836   2.771  10.224  0.4045 -0.2684 -0.4038
   39MOL0     C 5248   6.934   2.749  10.138 -0.5674 -0.5503 -0.9864
   39MOL0     C 5249   7.015   2.637  10.157  0.3053 -0.1962 -1.0257
   39MOL0     C 5250   7.131   2.621  10.083  0.2327 -0.3171 -0.7217
   39MOL0     C 5251   7.166   2.704   9.977  0.7079 -0.4380  0.0183
   39MOL0     O 5252   7.275   2.679   9.892  0.4700 -0.5575 -0.5662
   39MOL0     C 5253   7.357   2.555   9.896  0.1318 -0.2477  0.2955
   39MOL0     C 5254   7.477   2.564   9.793 -0.6163  0.1827 -0.4513
   39MOL0     C 5255   7.598   2.643   9.850  0.4924  0.5764 -0.0750
   39MOL0     C 5256   7.672   2.725   9.746  0.5796  0.3667 -1.5377
   39MOL0     C 5257   7.825   2.745   9.789 -0.7543  0.4910 -0.0715
   39MOL0     C 5258   7.860   2.794   9.927  0.1443 -0.3748 -0.2073
   39MOL0     C 5259   8.012   2.821   9.952 -0.1580 -0.5515 -0.0693
   39MOL0     C 5260   8.079   2.701  10.022  0.1828 -1.0855 -0.3782
   39MOL0     N 5261   8.219   2.733  10.039 -0.5529 -0.3335  0.4422
   39MOL0     C 5262   8.316   2.679   9.964 -0.0566  0.7221  0.0931
   39MOL0     C 5263   8.432   2.730  10.016  0.6690  0.4567  0.2432
   39MOL0     C 5264   8.571   2.715   9.971  0.0959  0.8168  0.5148
   39MOL0     C 5265   8.636   2.590  10.044  0.6939 -0.0166  0.1641
   39MOL0     C 5266   8.789   2.606  10.052 -0.9334  0.1915  0.0038
   39MOL0     C 5267   8.863   2.486  10.112  0.3641  0.0920 -0.4322
   39MOL0     O 5268   8.859   2.384  10.015 -0.4883 -0.3514 -0.8235
   39MOL0     C 5269   8.965   2.298  10.012 -1.1793 -0.2670 -0.3627
   39MOL0     C 5270   9.046   2.258  10.116 -0.0076  1.0405 -0.3207
   39MOL0     C 5271   9.157   2.176  10.093 -0.2940  0.4013 -0.4521
   39MOL0     C 5272   9.237   2.132  10.209  0.5106 -0.8080 -0.3341
   39MOL0     C 5273   9.187   2.126   9.968 -0.6099 -0.1525  0.4598
   39MOL0     C 5274   9.308   2.035   9.942  0.2140 -0.3168  0.0339
   39MOL0     O 5275   9.334   1.935  10.030  0.4200  0.0880  0.3966
   39MOL0     C 5276   9.466   1.897  10.050  0.3898 -0.3753 -0.4992
   39MOL0     C 5277   9.478   1.767  10.101 -0.0756 -0.6611 -0.6628
   39MOL0     C 5278   9.607   1.720  10.128  0.4709 -0.5297  0.4762
   39MOL0     C 5279   9.724   1.790  10.103 -0.3763 -0.4336 -0.1447
   39MOL0     O 5280   9.847   1.738  10.134  0.1910 -0.5243 -0.1310
   39MOL0     C 5281   9.854   1.595  10.117  0.5575  0.4993 -1.0370
   39MOL0     C 5282   9.856   1.526  10.260  0.1332 -0.3832 -0.9909
   39MOL0     C 5283   9.850   1.373  10.230  1.5285  0.0615  0.4356
   39MOL0     C 5284   9.708   1.329  10.184  0.3590  0.2627 -0.0322
   39MOL0     C 5285   9.686   1.185  10.233 -0.2997  0.3804 -0.2471
   39MOL0     C 5286   9.753   1.068  10.159  1.0098 -0.7871 -0.4400
   39MOL0     C 5287   9.677   0.926  10.195 -0.3932  0.1401  0.0591
   39MOL0     C 5288   9.778   0.809  10.205 -0.6689  0.6857  0.0434
   39MOL0    Cl 5289   9.833   0.775  10.035  0.2321 -0.2604  0.4819
   39MOL0     C 5290   9.709   1.928  10.077  0.4863 -0.3294  0.2603
   39MOL0     C 5291   9.580   1.976  10.049  0.1004 -0.0371  0.1592
   39MOL0     O 5292   9.375   2.055   9.837 -0.3664  0.4815 -0.2207
   39MOL0     C 5293   9.116   2.175   9.868 -0.1338 -0.6403  0.7843
   39MOL0     C 5294   9.000   2.257   9.891 -0.0890  0.3426  0.4290
   39MOL0     N 5295   8.396   2.789  10.135  0.1767  0.2493 -0.3286
   39MOL0     N 5296   8.268   2.783  10.151 -0.2737  0.4186  0.6261
   39MOL0     C 5297   7.089   2.820   9.968  0.7072  0.7311  0.5044
   39MOL0     C 5298   6.973   2.847  10.041  0.6500  0.2009  0.4685
   39MOL0     C 5299   6.606   2.806  10.256 -0.1429  0.7887  0.5086
   39MOL0     C 5300   6.584   2.934  10.216  0.1405 -0.3384  1.6537
   39MOL0     C 5301   6.496   3.017  10.284 -0.4897 -0.2910  0.2461
   39MOL0     C 5302   6.444   2.984  10.408  0.8736 -0.6176 -0.6035
   39MOL0     O 5303   6.373   3.065  10.496  0.4872 -0.1371 -0.6038
   39MOL0     C 5304   6.349   3.194  10.451  0.3262  0.2130  0.4287
   39MOL0     C 5305   6.302   3.299  10.548 -0.6692 -0.8602 -0.0291
   39MOL0     C 5306   6.409   3.345  10.644 -0.2869  0.1098 -0.1791
   39MOL0     C 5307   6.385   3.476  10.728  0.0851  0.4581  0.5534
   39MOL0     C 5308   6.276   3.447  10.820 -0.7377  0.3607  0.3749
   39MOL0     C 5309   6.166   3.421  10.882 -0.1946  0.2701 -0.5083
   39MOL0     C 5310   6.457   2.856  10.454 -0.4596  0.9179  0.6106
   39MOL0     C 5311   6.536   2.761  10.377 -0.3804 -0.4140  0.6332
   39MOL0     C 5312   6.568   2.630  10.452  0.4174  0.4419  0.0755
   39MOL0     H 5313   6.984   2.570  10.237 -0.3858 -0.3598 -1.4191
   39MOL0     H 5314   7.194   2.535  10.103  0.9782  0.8665  2.8169
   39MOL0     H 5315   7.295   2.468   9.875 -1.1692  1.1800 -2.2126
   39MOL0     H 5316   7.402   2.554   9.996 -2.4946  2.9535  1.6922
   39MOL0     H 5317   7.513   2.462   9.775 -2.5532 -1.3672  3.4493
   39MOL0     H 5318   7.454   2.595   9.690 -1.5733 -0.2874 -0.3868
   39MOL0     H 5319   7.561   2.709   9.929 -2.8138  0.4022 -1.3206
   39MOL0     H 5320   7.669   2.574   9.895  2.1887  0.6861 -2.3964
   39MOL0     H 5321   7.655   2.691   9.644  2.4212  1.9950 -2.4473
   39MOL0     H 5322   7.628   2.825   9.752 -0.7711 -0.1619 -2.1964
   39MOL0     H 5323   7.869   2.818   9.720  1.5894  0.0229  0.8435
   39MOL0     H 5324   7.858   2.642   9.779 -2.7424 -0.0019 -2.5849
   39MOL0     H 5325   7.809   2.889   9.946 -0.1052 -0.6325  0.4285
   39MOL0     H 5326   7.821   2.720   9.997  2.9226 -0.6808  1.1535
   39MOL0     H 5327   8.026   2.905  10.021 -1.3009 -0.5332  0.1640
   39MOL0     H 5328   8.071   2.851   9.865  1.6158 -0.4951  1.1148
   39MOL0     H 5329   8.038   2.682  10.121  2.2066 -0.1457  0.6927
   39MOL0     H 5330   8.067   2.605   9.971  1.5865 -0.9194 -1.0643
   39MOL0     H 5331   8.320   2.611   9.879  0.4407  0.0058  0.6813
   39MOL0     H 5332   8.624   2.807  10.001  2.0694 -0.4096  0.9830
   39MOL0     H 5333   8.583   2.704   9.863 -0.5591 -0.0239  0.5251
   39MOL0     H 5334   8.590   2.568  10.140  0.8125 -0.7783  0.0506
   39MOL0     H 5335   8.620   2.498   9.986 -0.9548 -0.1342  0.7591
   39MOL0     H 5336   8.835   2.612   9.953 -1.3070  1.4319 -0.1063
   39MOL0     H 5337   8.808   2.692  10.116 -2.1676  1.6543 -1.5191
   39MOL0     H 5338   8.966   2.522  10.125  1.5863 -0.7434 -5.5181
   39MOL0     H 5339   8.817   2.449  10.203 -0.9111 -1.0806 -1.5196
   39MOL0     H 5340   9.015   2.286  10.216 -3.1086  0.9779 -1.1685
   39MOL0     H 5341   9.342   2.158  10.194  0.9504 -1.7161  1.0049
   39MOL0     H 5342   9.232   2.024  10.229 -0.8695 -0.6957  0.0432
   39MOL0     H 5343   9.209   2.163  10.310  3.3282 -1.5207  0.7793
   39MOL0     H 5344   9.385   1.719  10.128 -0.9225 -0.1965 -2.5706
   39MOL0     H 5345   9.625   1.623  10.173  0.8335  0.3264  2.2453
   39MOL0     H 5346   9.778   1.554  10.049 -1.0289 -2.5843  2.2828
   39MOL0     H 5347   9.949   1.567  10.070 -0.2657 -2.1931 -1.2814
   39MOL0     H 5348   9.949   1.548  10.313  0.4974 -3.1570 -0.3492
   39MOL0     H 5349   9.775   1.564  10.323  2.5973  1.1075  1.5363
   39MOL0     H 5350   9.886   1.327  10.322  0.5209  0.7825  1.2222
   39MOL0     H 5351   9.922   1.337  10.156  0.2537 -2.7101  0.4401
   39MOL0     H 5352   9.696   1.320  10.076 -0.8973 -3.0571  0.2560
   39MOL0     H 5353   9.632   1.397  10.222  2.3266  1.6189  1.7453
   39MOL0     H 5354   9.724   1.176  10.336  0.1536  2.1461 -0.2132
   39MOL0     H 5355   9.578   1.173  10.237 -0.3438  0.6962 -0.4680
   39MOL0     H 5356   9.857   1.062  10.192  0.0106  0.6398  3.7124
   39MOL0     H 5357   9.743   1.088  10.052 -0.8178 -0.1575 -0.1963
   39MOL0     H 5358   9.602   0.909  10.118 -1.1642  1.0302  0.5791
   39MOL0     H 5359   9.628   0.937  10.292 -0.8135  0.5721 -0.2024
   39MOL0     H 5360   9.747   0.712  10.246  0.6917 -2.3196 -5.1769
   39MOL0     H 5361   9.861   0.843  10.268  0.2889  0.4851 -1.0707
   39MOL0     H 5362   9.799   1.988  10.063  0.3797 -0.8984 -4.3880
   39MOL0     H 5363   9.580   2.082  10.023  2.7505  0.4934  1.9093
   39MOL0     H 5364   9.157   2.159   9.769  1.4233 -0.9316  1.4448
   39MOL0     H 5365   8.948   2.293   9.803  0.8151  2.9672  0.8777
   39MOL0     H 5366   7.131   2.888   9.894 -1.1762  2.2898  0.8026
   39MOL0     H 5367   6.906   2.930  10.018 -0.0156  0.0317  1.6810
   39MOL0     H 5368   6.642   2.973  10.133 -0.7170 -1.4534  0.4887
   39MOL0     H 5369   6.482   3.118  10.246 -1.8229  0.0068  1.4305
   39MOL0     H 5370   6.439   3.240  10.410 -0.3502  1.3409  0.1713
   39MOL0     H 5371   6.279   3.187  10.368 -0.1193 -1.9751  0.9307
   39MOL0     H 5372   6.226   3.255  10.614  0.0577 -0.8912  0.8121
   39MOL0     H 5373   6.257   3.379  10.488  2.0850 -1.1977 -2.7464
   39MOL0     H 5374   6.415   3.272  10.725 -2.9871  1.4079  1.3151
   39MOL0     H 5375   6.495   3.348  10.577 -1.8651  1.2642 -2.2662
   39MOL0     H 5376   6.363   3.558  10.658  2.4200 -0.6559 -1.6731
   39MOL0     H 5377   6.474   3.519  10.774 -1.4365  2.1602  2.0373
   39MOL0     H 5378   6.071   3.407  10.929  0.3679  1.4954  1.1046
   39MOL0     H 5379   6.411   2.832  10.549 -1.1871  0.6727  0.1973
   39MOL0     H 5380   6.481   2.605  10.513  1.1608 -1.3405  0.4647
   39MOL0     H 5381   6.581   2.539  10.391 -1.0907 -1.7884  2.8698
   39MOL0     H 5382   6.658   2.633  10.514  2.1017 -1.5217 -2.0424
   40MOL0     O 5383   1.915   0.607   5.362 -0.5500 -0.3653 -0.2288
   40MOL0     C 5384   1.911   0.482   5.366  0.3278  0.4211 -0.7063
   40MOL0     O 5385   1.798   0.405   5.402  0.1734 -0.2681  0.0332
   40MOL0     C 5386   1.689   0.476   5.442  0.2625  0.0546  0.1537
   40MOL0     C 5387   1.568   0.454   5.377 -0.1021 -0.6443  0.3138
   40MOL0     C 5388   1.450   0.509   5.434  0.0826 -0.2410 -0.2165
   40MOL0     C 5389   1.451   0.599   5.541 -0.7044  0.5212 -0.7609
   40MOL0     O 5390   1.338   0.658   5.598 -0.1389 -0.2095 -0.4002
   40MOL0     C 5391   1.344   0.758   5.699 -0.8352  0.1218 -0.1159
   40MOL0     C 5392   1.209   0.819   5.718 -0.0882  0.6843 -0.2085
   40MOL0     C 5393   1.178   0.929   5.613 -0.0314  0.4095  0.9010
   40MOL0     C 5394   1.040   1.005   5.618  0.0735  0.2111 -0.2652
   40MOL0     C 5395   1.036   1.114   5.729  0.6517 -0.2042 -0.1851
   40MOL0     C 5396   1.125   1.235   5.705  0.0610 -0.3002  0.8587
   40MOL0     C 5397   1.108   1.355   5.808  0.3445 -0.2782  0.9588
   40MOL0     C 5398   1.134   1.325   5.964  0.5234 -0.4013  0.4068
   40MOL0     N 5399   1.275   1.279   5.982  0.4917  0.5613  0.3814
   40MOL0     C 5400   1.370   1.366   6.024 -1.3626  0.4045 -0.3497
   40MOL0     C 5401   1.485   1.288   6.032 -0.3351 -0.8912 -0.0598
   40MOL0     C 5402   1.622   1.320   6.079 -0.1415  0.3218  1.1721
   40MOL0     C 5403   1.657   1.464   6.043  0.3135 -0.3505 -0.6787
   40MOL0     C 5404   1.678   1.486   5.894  0.3093  0.2063  0.3273
   40MOL0     C 5405   1.770   1.394   5.817 -0.3089 -0.4567  0.0520
   40MOL0     O 5406   1.900   1.399   5.876  0.1843 -0.2686 -0.0577
   40MOL0     C 5407   1.962   1.519   5.865 -0.5038 -0.4625 -1.3054
   40MOL0     C 5408   1.983   1.571   5.740 -0.4217 -0.0787  0.6753
   40MOL0     C 5409   2.047   1.699   5.718 -0.3824 -0.6304  0.2725
   40MOL0     C 5410   2.062   1.748   5.580  0.3597  0.0038 -0.4987
   40MOL0     C 5411   2.093   1.770   5.837  0.0153 -0.4908  0.7158
   40MOL0     C 5412   2.147   1.914   5.835 -0.3310 -0.7616 -0.4520
   40MOL0     O 5413   2.246   1.941   5.922  0.1972 -0.4702  0.0370
   40MOL0     C 5414   2.325   2.050   5.926 -0.0010  0.2653 -0.0910
   40MOL0     C 5415   2.263   2.173   5.939  0.3832 -0.4696  0.5005
   40MOL0     C 5416   2.340   2.292   5.956 -0.8403  0.2327 -0.5453
   40MOL0     C 5417   2.482   2.280   5.976  0.4102  0.2408  0.0379
   40MOL0     O 5418   2.566   2.391   5.992  0.6420 -0.0251 -0.5677
   40MOL0     C 5419   2.531   2.519   5.937  0.1023  0.3625  0.5445
   40MOL0     C 5420   2.654   2.620   5.953  0.6014  1.0039  0.0514
   40MOL0     C 5421   2.678   2.662   6.097 -0.5075  0.2113  0.2534
   40MOL0     C 5422   2.729   2.798   6.129 -0.0700 -0.8949  0.4935
   40MOL0     C 5423   2.817   2.791   6.262 -0.5107 -0.9970 -0.1726
   40MOL0     C 5424   2.829   2.934   6.299  0.4706 -0.6462 -0.1214
   40MOL0     C 5425   2.930   2.940   6.417 -0.5372 -0.5802 -0.6782
   40MOL0     C 5426   2.962   3.088   6.452  0.4409 -0.3679 -0.6467
   40MOL0    Cl 5427   2.986   3.129   6.628  0.6228 -0.1753  0.1300
   40MOL0     C 5428   2.535   2.155   5.983 -0.3964 -0.2695  0.6277
   40MOL0     C 5429   2.459   2.040   5.953 -0.1069  0.2574 -0.1937
   40MOL0     O 5430   2.096   2.000   5.762  0.0246 -0.4078  0.3279
   40MOL0     C 5431   2.080   1.707   5.958 -0.2625 -0.0758  0.4948
   40MOL0     C 5432   2.011   1.587   5.976  0.6911 -0.9297 -0.4671
   40MOL0     N 5433   1.457   1.164   5.987 -0.4312  0.7716  0.4924
   40MOL0     N 5434   1.329   1.156   5.959 -0.6589  0.2293 -0.1614
   40MOL0     C 5435   1.580   0.616   5.604 -0.4847  0.0846 -0.1291
   40MOL0     C 5436   1.691   0.547   5.560 -0.7086  0.0620 -0.2909
   40MOL0     C 5437   2.034   0.405   5.324 -1.0429  1.0509 -0.5932
   40MOL0     C 5438   2.114   0.445   5.215  0.8095  0.2462  0.7082
   40MOL0     C 5439   2.219   0.374   5.171  0.9633 -0.4438  0.5778
   40MOL0     C 5440   2.255   0.257   5.232  0.3246  0.1614 -0.0982
   40MOL0     O 5441   2.367   0.198   5.185 -0.0826 -0.6019  0.1414
   40MOL0     C 5442   2.410   0.072   5.239  0.7204  0.5706  0.2614
   40MOL0     C 5443   2.541   0.041   5.167  0.4751 -0.5024  0.2439
   40MOL0     C 5444   2.613  -0.068   5.234 -0.4192  1.0391  0.5470
   40MOL0     C 5445   2.759  -0.082   5.186 -0.4584  0.1157  0.6355
   40MOL0     C 5446   2.819  -0.193   5.261  0.0012 -0.6083  0.5443
   40MOL0     C 5447   2.876  -0.277   5.321  0.5788  0.4786  0.0048
   40MOL0     C 5448   2.188   0.217   5.343  0.1219  0.8571 -0.4952
   40MOL0     C 5449   2.071   0.273   5.388 -0.0897 -0.5804 -0.0892
   40MOL0     C 5450   2.009   0.224   5.518  0.0403 -0.2338  0.1952
   40MOL0     H 5451   1.557   0.395   5.286 -0.8644  0.5801 -0.4162
   40MOL0     H 5452   1.359   0.480   5.383 -0.3635  3.0111 -1.5509
   40MOL0     H 5453   1.421   0.833   5.676 -1.8212  1.3423  0.4555
   40MOL0     H 5454   1.366   0.716   5.798  0.1313 -0.2784 -0.4853
   40MOL0     H 5455   1.142   0.733   5.711  1.3867 -0.3718 -2.3438
   40MOL0     H 5456   1.186   0.856   5.819 -0.9506  2.0794 -0.8756
   40MOL0     H 5457   1.266   0.994   5.619 -0.0418  0.3419  1.8376
   40MOL0     H 5458   1.179   0.875   5.518 -0.8427  1.6514  0.1564
   40MOL0     H 5459   1.039   1.070   5.530 -1.2175  1.3448  0.5523
   40MOL0     H 5460   0.951   0.942   5.626 -0.4140  0.8731 -0.3480
   40MOL0     H 5461   1.061   1.069   5.826 -2.0814 -1.4935  0.0183
   40MOL0     H 5462   0.930   1.144   5.732  0.4816 -0.7505 -0.5651
   40MOL0     H 5463   1.232   1.213   5.697  0.9072  2.5254  2.6174
   40MOL0     H 5464   1.090   1.271   5.608 -1.7314  0.7978  1.8571
   40MOL0     H 5465   1.003   1.385   5.797  0.5541 -0.0614 -0.7127
   40MOL0     H 5466   1.174   1.435   5.771  2.4574 -1.7518  1.3906
   40MOL0     H 5467   1.120   1.418   6.020  2.3592  0.3966 -0.3630
   40MOL0     H 5468   1.059   1.250   5.990 -1.6454  2.0095  1.5963
   40MOL0     H 5469   1.360   1.471   6.049  0.2600  0.4270  0.3078
   40MOL0     H 5470   1.688   1.255   6.020 -0.7676  1.2094 -0.5584
   40MOL0     H 5471   1.631   1.304   6.187  0.0201  0.9123  1.2522
   40MOL0     H 5472   1.576   1.526   6.084  1.7962 -0.7800  3.2585
   40MOL0     H 5473   1.750   1.484   6.096  1.3814 -4.4650 -0.6728
   40MOL0     H 5474   1.576   1.477   5.855  1.0426 -0.5361 -1.5473
   40MOL0     H 5475   1.691   1.594   5.882 -0.7049  0.2450 -0.5705
   40MOL0     H 5476   1.733   1.292   5.808 -0.9188 -0.4308  1.8218
   40MOL0     H 5477   1.766   1.440   5.718 -2.3376 -0.3732  0.1273
   40MOL0     H 5478   1.955   1.523   5.646 -2.6604  2.0153  0.1957
   40MOL0     H 5479   2.164   1.781   5.563  1.0862 -0.3433  2.5804
   40MOL0     H 5480   1.995   1.834   5.569 -1.5087 -1.0915  1.3864
   40MOL0     H 5481   2.027   1.676   5.505  0.0848 -0.6350  0.2340
   40MOL0     H 5482   2.157   2.199   5.932  0.4717  0.4979  2.1254
   40MOL0     H 5483   2.289   2.388   5.961  0.4409  0.9667 -1.1509
   40MOL0     H 5484   2.520   2.511   5.828  2.5550 -1.0955  0.3320
   40MOL0     H 5485   2.438   2.556   5.982  0.0402  4.3528 -2.3085
   40MOL0     H 5486   2.743   2.575   5.908  1.0691  1.6817  0.2854
   40MOL0     H 5487   2.632   2.711   5.897  0.2186 -0.9698 -3.2440
   40MOL0     H 5488   2.768   2.607   6.125  0.4974  2.1044  0.9474
   40MOL0     H 5489   2.605   2.621   6.167  1.5803 -2.2224  1.1375
   40MOL0     H 5490   2.642   2.865   6.126  0.0617 -0.7209  0.5454
   40MOL0     H 5491   2.793   2.833   6.047  1.1452  1.6660  2.3907
   40MOL0     H 5492   2.778   2.726   6.342 -3.3916 -0.3051 -0.8849
   40MOL0     H 5493   2.915   2.751   6.236 -0.3205 -0.1394 -0.7833
   40MOL0     H 5494   2.735   2.976   6.336  1.4931  2.1570 -0.4381
   40MOL0     H 5495   2.865   3.000   6.219  2.1978 -0.3374  0.8430
   40MOL0     H 5496   3.013   2.875   6.389 -0.5053 -1.0384  0.4461
   40MOL0     H 5497   2.894   2.896   6.511 -2.0118 -0.0969 -0.9829
   40MOL0     H 5498   2.882   3.151   6.413 -0.4769 -1.0522  0.0965
   40MOL0     H 5499   3.053   3.123   6.403  1.2582  0.3804  1.3052
   40MOL0     H 5500   2.642   2.136   5.979 -0.8996 -3.6442 -2.6745
   40MOL0     H 5501   2.510   1.944   5.958  0.7055  0.5750 -1.7165
   40MOL0     H 5502   2.124   1.752   6.047 -1.0247 -3.6275  2.8669
   40MOL0     H 5503   2.008   1.541   6.074  1.9528 -2.2862 -1.0210
   40MOL0     H 5504   1.596   0.686   5.686 -0.8443 -0.0274  0.0407
   40MOL0     H 5505   1.786   0.578   5.603 -0.4588  0.7401 -1.3014
   40MOL0     H 5506   2.068   0.523   5.154 -3.0927 -0.9279  1.8635
   40MOL0     H 5507   2.273   0.401   5.080  0.1592 -0.3927  0.1033
   40MOL0     H 5508   2.434   0.077   5.346  2.9002  0.3904 -0.1655
   40MOL0     H 5509   2.332  -0.000   5.216  0.4489  1.7482 -3.1087
   40MOL0     H 5510   2.596   0.136   5.174 -2.0999  1.1073  0.1876
   40MOL0     H 5511   2.536   0.024   5.059  1.3685 -0.3805  0.1713
   40MOL0     H 5512   2.627  -0.048   5.341 -2.5913  2.2843  0.6503
   40MOL0     H 5513   2.571  -0.166   5.212 -1.3068  1.1515  1.6371
   40MOL0     H 5514   2.821   0.009   5.187 -0.2467 -0.0284  0.6045
   40MOL0     H 5515   2.742  -0.107   5.081 -1.6036 -0.4740  0.9492
   40MOL0     H 5516   2.936  -0.341   5.383  0.1326 -0.9760 -1.0187
   40MOL0     H 5517   2.222   0.134   5.404 -1.4710 -0.1650 -0.9223
   40MOL0     H 5518   1.996   0.303   5.592  0.5973  1.1159 -1.0767
   40MOL0     H 5519   1.920   0.163   5.506  0.9883 -1.6743  0.2109
   40MOL0     H 5520   2.085   0.156   5.557  0.1546 -0.7905 -0.9408
   41MOL0     O 5521   7.363   6.715  10.017 -0.3667 -0.6728 -0.1102
   41MOL0     C 5522   7.312   6.759   9.926 -0.5836  0.5810  0.3440
   41MOL0     O 5523   7.376   6.823   9.828 -0.1748  0.0404  1.0076
   41MOL0     C 5524   7.502   6.778   9.799  0.1677 -0.3254  0.9400
   41MOL0     C 5525   7.522   6.713   9.673 -0.3702 -0.2794 -0.6153
   41MOL0     C 5526   7.643   6.659   9.643 -0.5710  0.4352 -0.9153
   41MOL0     C 5527   7.757   6.671   9.726  0.4462 -0.1376 -0.1744
   41MOL0     O 5528   7.868   6.611   9.675  0.3184  0.0805  0.2755
   41MOL0     C 5529   7.997   6.655   9.729  0.4801  0.2851 -0.5006
   41MOL0     C 5530   8.107   6.607   9.626 -0.4845  0.2850 -0.4411
   41MOL0     C 5531   8.135   6.458   9.627  1.0381 -0.1568  0.7939
   41MOL0     C 5532   8.194   6.399   9.756  0.3690 -0.1446  0.4230
   41MOL0     C 5533   8.164   6.243   9.776 -0.0815  0.0886  0.6004
   41MOL0     C 5534   8.053   6.211   9.867  0.4133  0.3676  0.2349
   41MOL0     C 5535   7.914   6.231   9.807 -0.3868 -0.6728  0.0198
   41MOL0     C 5536   7.810   6.171   9.903  0.2342 -1.3420  0.2765
   41MOL0     N 5537   7.668   6.189   9.861 -0.6265 -0.2168 -0.0615
   41MOL0     C 5538   7.603   6.306   9.860 -0.5213 -0.3247 -0.4448
   41MOL0     C 5539   7.471   6.278   9.851  0.0001  0.1898  0.0949
   41MOL0     C 5540   7.361   6.377   9.854  1.5465  0.4224  0.8638
   41MOL0     C 5541   7.219   6.325   9.915  0.8118 -0.1308  0.4893
   41MOL0     C 5542   7.098   6.406   9.852 -0.5029  0.3121 -0.2632
   41MOL0     C 5543   6.975   6.332   9.889 -0.3529  0.7417 -0.0492
   41MOL0     O 5544   6.926   6.260   9.770 -0.5772 -0.6723 -0.4288
   41MOL0     C 5545   6.810   6.182   9.780  0.7043  0.6152  0.2492
   41MOL0     C 5546   6.723   6.168   9.890  0.6128 -1.0447 -0.2153
   41MOL0     C 5547   6.602   6.102   9.886  0.2555 -0.3781  1.6372
   41MOL0     C 5548   6.532   6.089  10.010 -0.2241  0.3204  0.5277
   41MOL0     C 5549   6.568   6.041   9.761 -0.2516 -0.0677  0.2253
   41MOL0     C 5550   6.434   5.982   9.741 -0.6526  0.7418  0.0169
   41MOL0     O 5551   6.426   5.915   9.617 -0.0965 -0.0444  0.5627
   41MOL0     C 5552   6.306   5.874   9.564  0.4222 -1.0511 -0.0506
   41MOL0     C 5553   6.324   5.771   9.476  0.2321  0.9847  0.1032
   41MOL0     C 5554   6.210   5.719   9.413 -0.4150 -0.4417  0.3342
   41MOL0     C 5555   6.082   5.781   9.409 -0.6736 -0.0396 -0.0252
   41MOL0     O 5556   6.005   5.730   9.310  0.8948 -0.1749  1.4838
   41MOL0     C 5557   5.862   5.758   9.306  0.1754 -0.4291  0.2006
   41MOL0     C 5558   5.795   5.666   9.414 -0.4546  0.8939 -0.0160
   41MOL0     C 5559   5.793   5.520   9.372  0.1636 -0.0785 -0.2042
   41MOL0     C 5560   5.644   5.490   9.341 -0.1984 -0.2572 -0.1940
   41MOL0     C 5561   5.632   5.348   9.292 -0.7269 -0.5728 -0.2866
   41MOL0     C 5562   5.498   5.285   9.278  0.6371 -0.4249 -0.1518
   41MOL0     C 5563   5.395   5.369   9.195  0.3373  0.3672  0.2859
   41MOL0     C 5564   5.297   5.294   9.107 -1.0911  0.1767  0.6629
   41MOL0    Cl 5565   5.225   5.417   9.001 -0.1753  0.4399 -0.2217
   41MOL0     C 5566   6.065   5.879   9.507  0.3994  0.3949 -0.3247
   41MOL0     C 5567   6.176   5.934   9.581  0.2295 -0.1736 -0.0067
   41MOL0     O 5568   6.341   5.988   9.826  0.5713  0.6945 -0.0985
   41MOL0     C 5569   6.665   6.045   9.657  0.4510 -0.4563  0.1396
   41MOL0     C 5570   6.778   6.115   9.661  0.4988 -0.2703 -0.0447
   41MOL0     N 5571   7.459   6.145   9.828 -0.1476  0.4283  0.0010
   41MOL0     N 5572   7.582   6.089   9.828  0.8230 -0.0596  0.5909
   41MOL0     C 5573   7.740   6.751   9.844 -0.6446 -0.2263  0.5536
   41MOL0     C 5574   7.617   6.804   9.875  0.6385 -0.0675 -0.2697
   41MOL0     C 5575   7.168   6.785   9.931  0.1366  0.3896  0.6389
   41MOL0     C 5576   7.110   6.838   9.808 -0.0309 -0.8524 -0.0186
   41MOL0     C 5577   6.973   6.845   9.788  0.1474  0.3373 -0.3982
   41MOL0     C 5578   6.888   6.814   9.892 -0.4121  0.1338  0.2263
   41MOL0     O 5579   6.754   6.823   9.862  0.0950 -0.3125 -0.1614
   41MOL0     C 5580   6.665   6.838   9.971  0.7512  0.1198  0.5980
   41MOL0     C 5581   6.522   6.874   9.925 -1.2132 -0.1642 -0.0493
   41MOL0     C 5582   6.423   6.823  10.018  0.5154  0.1689 -1.8402
   41MOL0     C 5583   6.290   6.893   9.999 -0.4638 -0.4297 -0.1944
   41MOL0     C 5584   6.237   6.873   9.864  0.0517 -0.3132  0.7989
   41MOL0     C 5585   6.203   6.843   9.749  0.3398 -0.4857 -0.7331
   41MOL0     C 5586   6.942   6.765  10.016  0.0572  0.1686 -0.4947
   41MOL0     C 5587   7.081   6.742  10.030  1.2496  0.1071  0.2977
   41MOL0     C 5588   7.122   6.679  10.158 -0.9193  0.0267  0.1647
   41MOL0     H 5589   7.442   6.708   9.600  0.4052  2.1176 -1.7537
   41MOL0     H 5590   7.643   6.608   9.547 -1.5285 -1.4532  0.0328
   41MOL0     H 5591   8.022   6.621   9.830  1.0827  0.3411 -0.6218
   41MOL0     H 5592   8.002   6.764   9.732  1.6239  0.3591 -2.7850
   41MOL0     H 5593   8.098   6.652   9.527  1.5746  2.6892  0.3558
   41MOL0     H 5594   8.203   6.649   9.657  0.9252 -3.6482  1.1822
   41MOL0     H 5595   8.054   6.398   9.585  1.6390  1.1905 -2.6215
   41MOL0     H 5596   8.218   6.445   9.557  0.6892 -1.4537  0.5978
   41MOL0     H 5597   8.299   6.431   9.753 -0.1974  1.9058  0.8532
   41MOL0     H 5598   8.153   6.454   9.842 -2.1126 -0.0829 -0.7210
   41MOL0     H 5599   8.249   6.207   9.836 -0.5845 -1.3725  0.4699
   41MOL0     H 5600   8.165   6.199   9.676 -0.9110  0.9428  0.2033
   41MOL0     H 5601   8.058   6.106   9.895 -0.7566  0.4414  0.7835
   41MOL0     H 5602   8.072   6.267   9.959 -1.3569  1.3594  0.0337
   41MOL0     H 5603   7.904   6.176   9.714  0.3439  1.4733 -1.4009
   41MOL0     H 5604   7.899   6.339   9.793  1.9107 -0.0470  1.6849
   41MOL0     H 5605   7.825   6.064   9.918 -1.8976 -1.6326  0.5353
   41MOL0     H 5606   7.835   6.202  10.005  2.4459 -5.0424  1.0537
   41MOL0     H 5607   7.647   6.400   9.890 -1.0036 -0.8903  2.3288
   41MOL0     H 5608   7.335   6.420   9.757  0.9827 -1.0353  0.3347
   41MOL0     H 5609   7.390   6.464   9.914 -2.8055  0.7393  2.9560
   41MOL0     H 5610   7.201   6.219   9.891 -0.6406  0.0355  0.7340
   41MOL0     H 5611   7.225   6.339  10.023 -0.1586 -0.8115  0.6519
   41MOL0     H 5612   7.095   6.507   9.894  0.7105  0.8958 -1.4982
   41MOL0     H 5613   7.113   6.408   9.743  0.2704 -2.5256 -0.2855
   41MOL0     H 5614   6.998   6.259   9.968 -0.9752  1.4037  0.7629
   41MOL0     H 5615   6.900   6.402   9.927  1.3430  2.0196  1.1262
   41MOL0     H 5616   6.761   6.205   9.984  1.3315 -0.5015 -0.7074
   41MOL0     H 5617   6.525   5.986  10.045 -1.9465  0.4023  0.4908
   41MOL0     H 5618   6.437   6.142  10.001  0.6527  1.6798 -1.6668
   41MOL0     H 5619   6.589   6.145  10.085 -0.0953 -0.5974  1.1384
   41MOL0     H 5620   6.423   5.728   9.474 -0.0872  0.0884  1.5527
   41MOL0     H 5621   6.213   5.632   9.349  0.9624 -1.6490  1.9283
   41MOL0     H 5622   5.849   5.863   9.335 -3.3182 -0.8654  0.6072
   41MOL0     H 5623   5.821   5.743   9.206 -0.4554 -1.8607  0.6391
   41MOL0     H 5624   5.840   5.689   9.511 -2.4207 -0.2335  1.2333
   41MOL0     H 5625   5.691   5.701   9.420 -0.9604  0.0084 -2.4891
   41MOL0     H 5626   5.847   5.457   9.444 -0.2717  2.4026  2.4912
   41MOL0     H 5627   5.856   5.508   9.283  0.9974 -0.5851  0.4315
   41MOL0     H 5628   5.603   5.559   9.268  0.4325  0.1795 -0.1440
   41MOL0     H 5629   5.581   5.498   9.430 -0.4255 -3.0233 -0.0056
   41MOL0     H 5630   5.667   5.354   9.189  1.0281  2.1071  0.3604
   41MOL0     H 5631   5.692   5.279   9.352  1.0639  3.1962  2.6697
   41MOL0     H 5632   5.450   5.263   9.374  0.5902  1.4350  0.2932
   41MOL0     H 5633   5.513   5.189   9.228 -1.7173 -2.0643  1.9978
   41MOL0     H 5634   5.451   5.423   9.118 -2.8493  0.4898 -2.1740
   41MOL0     H 5635   5.345   5.437   9.266 -1.4878 -0.2235 -0.3849
   41MOL0     H 5636   5.227   5.239   9.172 -0.6377  0.7633  1.6655
   41MOL0     H 5637   5.346   5.222   9.040  2.9170  2.7442  0.5372
   41MOL0     H 5638   5.964   5.908   9.533 -1.1941 -4.0199 -0.7056
   41MOL0     H 5639   6.163   6.013   9.654  1.5902  0.0140  0.0505
   41MOL0     H 5640   6.646   5.983   9.570 -0.1483  0.6771 -0.5555
   41MOL0     H 5641   6.843   6.113   9.574  0.8652  0.9759  0.1781
   41MOL0     H 5642   7.818   6.769   9.917 -2.7199 -1.4308  3.2359
   41MOL0     H 5643   7.597   6.867   9.961  0.2793  3.5423 -2.7768
   41MOL0     H 5644   7.164   6.848   9.714  0.3490 -0.5912  0.2250
   41MOL0     H 5645   6.925   6.867   9.693  0.7356 -0.4754 -0.8942
   41MOL0     H 5646   6.654   6.748  10.032 -0.9252 -0.9207 -1.1131
   41MOL0     H 5647   6.708   6.918  10.032 -0.6269  2.5068 -1.3849
   41MOL0     H 5648   6.513   6.818   9.832  1.2951 -0.0940 -0.4020
   41MOL0     H 5649   6.520   6.982   9.912  0.5320  0.0411  1.0386
   41MOL0     H 5650   6.420   6.716   9.998  1.6244 -0.1429 -0.5040
   41MOL0     H 5651   6.459   6.843  10.119 -2.0733 -0.4520 -0.7088
   41MOL0     H 5652   6.301   7.001  10.013 -1.0426 -0.5468  1.4213
   41MOL0     H 5653   6.219   6.859  10.075 -2.2217  0.5832 -1.3270
   41MOL0     H 5654   6.175   6.816   9.649  1.2386  3.8123 -2.3610
   41MOL0     H 5655   6.880   6.743  10.102 -1.1100  1.5160 -0.9487
   41MOL0     H 5656   7.035   6.649  10.217 -1.5668 -0.2734 -0.9164
   41MOL0     H 5657   7.171   6.586  10.128  0.5674  1.1061 -0.8977
   41MOL0     H 5658   7.202   6.733  10.210  1.5127 -3.4656  0.3671
   42MOL0     O 5659   5.804   6.197   3.809 -0.1399 -0.7675  0.3806
   42MOL0     C 5660   5.750   6.232   3.915 -0.1232 -0.1818 -0.3874
   42MOL0     O 5661   5.808   6.307   4.010  0.9849 -0.0081 -0.3222
   42MOL0     C 5662   5.932   6.366   3.978  0.3062  0.5151  0.8029
   42MOL0     C 5663   6.021   6.368   4.086  0.2487 -0.1228 -0.3480
   42MOL0     C 5664   6.143   6.441   4.075  0.2883  0.1814  0.1193
   42MOL0     C 5665   6.174   6.515   3.960 -0.2377  0.1500 -1.0103
   42MOL0     O 5666   6.292   6.590   3.959  0.0241  0.6092 -0.0648
   42MOL0     C 5667   6.332   6.662   3.844  0.1623 -0.9281 -0.6467
   42MOL0     C 5668   6.453   6.755   3.869 -0.8872  0.0001  0.2588
   42MOL0     C 5669   6.449   6.860   3.979  0.3877  0.8203  0.4160
   42MOL0     C 5670   6.352   6.972   3.949  0.3343  0.8919  0.1244
   42MOL0     C 5671   6.394   7.103   4.014 -0.5199 -0.5626  0.0400
   42MOL0     C 5672   6.282   7.205   3.983  0.8648 -0.1330  0.4131
   42MOL0     C 5673   6.305   7.350   4.043  0.0477 -0.3645 -0.3711
   42MOL0     C 5674   6.437   7.415   3.997 -0.1054 -0.9755  0.0969
   42MOL0     N 5675   6.414   7.492   3.871  0.3425  0.1245 -0.5359
   42MOL0     C 5676   6.440   7.461   3.733 -0.9474  0.9556 -0.5599
   42MOL0     C 5677   6.409   7.577   3.678 -0.2232 -0.0052  0.8627
   42MOL0     C 5678   6.410   7.605   3.533 -0.7240 -0.0477 -0.0802
   42MOL0     C 5679   6.331   7.507   3.454 -0.1207 -0.6866  0.3621
   42MOL0     C 5680   6.198   7.447   3.518  0.9061 -0.2192  0.2757
   42MOL0     C 5681   6.094   7.558   3.532  0.5019  0.4117  0.4501
   42MOL0     O 5682   6.049   7.600   3.400  0.1985 -0.3673 -0.2316
   42MOL0     C 5683   5.914   7.609   3.395 -0.1200 -0.7562  0.0277
   42MOL0     C 5684   5.841   7.532   3.310 -0.4623 -0.1987  0.7775
   42MOL0     C 5685   5.708   7.541   3.305  1.0082 -0.4925  0.2010
   42MOL0     C 5686   5.636   7.477   3.190  0.7448  0.1031 -0.3079
   42MOL0     C 5687   5.641   7.636   3.387 -0.0302  0.0139 -0.0387
   42MOL0     C 5688   5.497   7.657   3.393  0.0845 -0.6018 -0.0447
   42MOL0     O 5689   5.452   7.767   3.477  0.0949 -0.6087  0.2498
   42MOL0     C 5690   5.315   7.789   3.481 -0.2603 -0.4080 -0.6100
   42MOL0     C 5691   5.244   7.813   3.359 -0.4809 -0.4697  0.5435
   42MOL0     C 5692   5.107   7.838   3.362  0.2133  0.7388 -0.3289
   42MOL0     C 5693   5.032   7.828   3.483 -0.4012 -0.5407 -1.0018
   42MOL0     O 5694   4.897   7.838   3.499 -0.3537  0.5392 -0.0393
   42MOL0     C 5695   4.808   7.850   3.381 -1.3889 -0.9212  0.3684
   42MOL0     C 5696   4.664   7.812   3.405 -0.5436 -0.2937  0.4422
   42MOL0     C 5697   4.595   7.884   3.517  0.7317  0.2848  0.6155
   42MOL0     C 5698   4.615   7.811   3.655  0.2358  0.0726 -0.7955
   42MOL0     C 5699   4.629   7.906   3.775  0.5725 -0.7882 -0.2757
   42MOL0     C 5700   4.498   7.942   3.840 -0.6208  0.0678  0.4826
   42MOL0     C 5701   4.432   7.829   3.923  0.4251  0.7015  0.3767
   42MOL0     C 5702   4.522   7.778   4.037  0.3790  0.3796  0.6481
   42MOL0    Cl 5703   4.434   7.644   4.122  0.1200 -0.2746  0.1290
   42MOL0     C 5704   5.111   7.817   3.604  0.9688 -0.6390  0.2714
   42MOL0     C 5705   5.247   7.796   3.598  0.3204 -0.2654  0.9054
   42MOL0     O 5706   5.422   7.579   3.335  0.1042 -0.0482  0.5439
   42MOL0     C 5707   5.727   7.716   3.480  0.5921 -0.0939  0.7128
   42MOL0     C 5708   5.859   7.707   3.481  0.3602  0.1009  0.1727
   42MOL0     N 5709   6.379   7.673   3.767 -0.3804  0.5724 -0.0215
   42MOL0     N 5710   6.385   7.626   3.882  0.4550 -0.2613 -0.1382
   42MOL0     C 5711   6.079   6.517   3.858  0.4608 -0.2872  0.4884
   42MOL0     C 5712   5.957   6.445   3.862 -0.0343  1.0133  0.0058
   42MOL0     C 5713   5.619   6.182   3.943  0.2833 -0.3227 -0.5723
   42MOL0     C 5714   5.535   6.164   3.836  0.7030  0.7717 -0.1710
   42MOL0     C 5715   5.416   6.099   3.867  0.1713 -0.0413 -0.0233
   42MOL0     C 5716   5.379   6.041   3.988 -0.4695  0.0808 -0.6044
   42MOL0     O 5717   5.251   5.991   4.015  0.6756 -0.1335  0.2635
   42MOL0     C 5718   5.228   5.848   4.009 -0.3543 -0.2246  0.4169
   42MOL0     C 5719   5.308   5.765   3.896  0.2992 -0.2909  0.7346
   42MOL0     C 5720   5.235   5.637   3.840 -0.0648  0.9670  0.7230
   42MOL0     C 5721   5.160   5.561   3.957  0.7115 -0.6129  0.3546
   42MOL0     C 5722   5.245   5.511   4.060  0.4712 -1.2813 -0.0422
   42MOL0     C 5723   5.310   5.476   4.157  0.6978  0.0260 -0.4260
   42MOL0     C 5724   5.470   6.062   4.093 -0.6949  0.1778  0.0901
   42MOL0     C 5725   5.590   6.137   4.074 -0.0148 -0.1521  0.0469
   42MOL0     C 5726   5.681   6.150   4.191  1.0519 -0.8522 -0.2212
   42MOL0     H 5727   6.002   6.317   4.179  0.8717  2.8696  1.5401
   42MOL0     H 5728   6.211   6.442   4.159 -2.4649  1.2017  2.5265
   42MOL0     H 5729   6.247   6.703   3.788 -1.1321 -4.3778 -1.4323
   42MOL0     H 5730   6.377   6.593   3.772  1.2873  2.3474 -3.3451
   42MOL0     H 5731   6.548   6.702   3.882 -0.6585  0.4048  0.2625
   42MOL0     H 5732   6.464   6.810   3.775 -0.5876  0.0053  0.2948
   42MOL0     H 5733   6.428   6.823   4.079  0.0468 -2.3734 -0.7337
   42MOL0     H 5734   6.549   6.905   3.978  0.5042  0.6292  1.7388
   42MOL0     H 5735   6.334   6.987   3.842  0.3854  0.5658  0.0679
   42MOL0     H 5736   6.257   6.945   3.997 -0.2856  2.8726  0.1037
   42MOL0     H 5737   6.488   7.138   3.972 -0.5590  0.7374  0.9753
   42MOL0     H 5738   6.418   7.089   4.120  1.0736  3.1914  0.3184
   42MOL0     H 5739   6.264   7.214   3.875 -2.6875 -0.6646  0.8164
   42MOL0     H 5740   6.192   7.163   4.028  0.8097 -1.4668 -0.8436
   42MOL0     H 5741   6.316   7.336   4.151  0.6739  0.5140 -0.3133
   42MOL0     H 5742   6.212   7.407   4.029 -2.0647 -3.2705  0.7137
   42MOL0     H 5743   6.480   7.486   4.068  0.6329  1.7486 -2.8395
   42MOL0     H 5744   6.501   7.331   3.970 -1.2091 -1.7569 -0.1636
   42MOL0     H 5745   6.483   7.374   3.685  1.4900  2.1155 -0.6521
   42MOL0     H 5746   6.511   7.613   3.492  0.1079 -0.5313  1.7505
   42MOL0     H 5747   6.370   7.706   3.517  0.9503  0.5914 -0.3550
   42MOL0     H 5748   6.298   7.562   3.365 -1.7450 -1.0704  0.6971
   42MOL0     H 5749   6.393   7.421   3.427  1.7220  0.6564  0.1117
   42MOL0     H 5750   6.170   7.366   3.449 -0.4663  1.2385 -0.9559
   42MOL0     H 5751   6.217   7.399   3.614  0.2463 -0.2169  0.4140
   42MOL0     H 5752   6.006   7.525   3.586 -1.9226  3.2384 -1.4051
   42MOL0     H 5753   6.130   7.647   3.585  1.4803 -0.5523  1.4659
   42MOL0     H 5754   5.894   7.468   3.241  0.5498 -0.2603  1.5818
   42MOL0     H 5755   5.589   7.550   3.123  0.4856 -2.4254 -3.0818
   42MOL0     H 5756   5.563   7.404   3.223  1.7648 -0.3182  1.1212
   42MOL0     H 5757   5.706   7.412   3.137  0.8722 -1.8034  2.0475
   42MOL0     H 5758   5.295   7.820   3.263 -0.7558  2.5158  0.5204
   42MOL0     H 5759   5.053   7.853   3.269  2.4444  1.0482 -1.6514
   42MOL0     H 5760   4.825   7.951   3.344  0.5596 -1.4151 -0.1998
   42MOL0     H 5761   4.847   7.781   3.305  2.5942  1.5680 -0.1534
   42MOL0     H 5762   4.608   7.829   3.312 -1.0602  2.5759  1.1592
   42MOL0     H 5763   4.661   7.706   3.430  1.9754  0.2299  3.5409
   42MOL0     H 5764   4.488   7.898   3.501  0.5760  0.7744  1.9287
   42MOL0     H 5765   4.635   7.986   3.520  1.2435  0.1536 -1.1292
   42MOL0     H 5766   4.704   7.748   3.646  0.7956  0.9362 -1.4260
   42MOL0     H 5767   4.539   7.733   3.671  1.6594 -1.2085 -0.0129
   42MOL0     H 5768   4.694   7.856   3.847  0.2839  0.7128  1.0615
   42MOL0     H 5769   4.682   7.998   3.747  1.0798 -1.2672 -0.9309
   42MOL0     H 5770   4.432   7.973   3.757  0.4284 -0.5339 -0.6089
   42MOL0     H 5771   4.514   8.023   3.911 -1.3390  0.7836 -0.1474
   42MOL0     H 5772   4.408   7.736   3.869 -0.2800  1.0291  0.1189
   42MOL0     H 5773   4.338   7.861   3.970  0.6412 -0.8886  2.0003
   42MOL0     H 5774   4.541   7.861   4.106 -2.0009  2.0284 -0.5716
   42MOL0     H 5775   4.617   7.738   3.998  0.3519  0.6172  0.3301
   42MOL0     H 5776   5.051   7.827   3.693 -0.7689  1.9116 -1.0466
   42MOL0     H 5777   5.299   7.786   3.693  2.0539 -0.5740 -0.0482
   42MOL0     H 5778   5.672   7.781   3.546 -2.3898 -0.5248 -1.1962
   42MOL0     H 5779   5.921   7.766   3.547 -2.0647  2.4487  0.5284
   42MOL0     H 5780   6.106   6.566   3.765  3.0981 -0.7219  0.9571
   42MOL0     H 5781   5.880   6.445   3.786 -0.2841  0.2758  0.2415
   42MOL0     H 5782   5.553   6.198   3.735 -2.6505  0.7041 -0.9033
   42MOL0     H 5783   5.340   6.081   3.792 -0.1631  0.5656  0.1681
   42MOL0     H 5784   5.246   5.804   4.107 -1.7838 -3.2469 -0.5329
   42MOL0     H 5785   5.119   5.842   3.998 -0.5059 -1.9486  2.2746
   42MOL0     H 5786   5.399   5.730   3.945  1.1893 -2.3421 -2.0849
   42MOL0     H 5787   5.330   5.830   3.811 -0.6051 -2.3171 -1.1490
   42MOL0     H 5788   5.156   5.676   3.775  0.7929 -1.0069 -1.6316
   42MOL0     H 5789   5.305   5.572   3.787 -0.6164  0.8106  0.1658
   42MOL0     H 5790   5.100   5.486   3.903  1.3438 -1.0767  0.2818
   42MOL0     H 5791   5.080   5.617   4.006 -0.5723 -3.1148  1.3147
   42MOL0     H 5792   5.367   5.450   4.244  2.0221 -2.3751 -1.9043
   42MOL0     H 5793   5.450   6.003   4.182 -0.0435  0.8124  0.6760
   42MOL0     H 5794   5.786   6.122   4.180  0.9199 -0.9975 -1.2103
   42MOL0     H 5795   5.682   6.256   4.218 -3.3278  0.5192 -4.1358
   42MOL0     H 5796   5.651   6.094   4.280 -1.1030  1.5609  0.6825
   43MOL0     O 5797   0.238   6.024   5.030 -0.1150  0.3120 -0.3218
   43MOL0     C 5798   0.224   6.109   5.118 -0.8002  0.2819  0.0571
   43MOL0     O 5799   0.330   6.158   5.190  0.7320  0.0437 -0.1657
   43MOL0     C 5800   0.446   6.102   5.151  0.4345 -0.0736 -0.1096
   43MOL0     C 5801   0.505   5.989   5.207 -0.6260  0.5591 -0.1239
   43MOL0     C 5802   0.645   5.966   5.200  0.1262  0.8328  0.2164
   43MOL0     C 5803   0.722   6.045   5.114 -0.6246  0.1403 -0.2604
   43MOL0     O 5804   0.866   6.030   5.107 -0.3637 -0.1323  0.1211
   43MOL0     C 5805   0.913   5.899   5.151  0.5734  0.0221 -0.5573
   43MOL0     C 5806   1.063   5.888   5.115  0.8767 -0.9024  0.3758
   43MOL0     C 5807   1.133   5.751   5.145 -0.7380  0.1776  0.3439
   43MOL0     C 5808   1.136   5.714   5.299  0.0520  0.0726  1.6556
   43MOL0     C 5809   1.176   5.567   5.323 -0.8134 -0.1273  0.5166
   43MOL0     C 5810   1.315   5.525   5.268  0.4253 -0.4895 -0.1411
   43MOL0     C 5811   1.339   5.397   5.344 -0.8002  0.2887  0.1531
   43MOL0     C 5812   1.480   5.326   5.342 -0.0347  0.2452  0.0818
   43MOL0     N 5813   1.567   5.355   5.454 -0.5870  0.7632 -0.2676
   43MOL0     C 5814   1.624   5.479   5.470  0.5056 -0.4652 -0.4293
   43MOL0     C 5815   1.703   5.466   5.582  0.8804  0.2305  0.0886
   43MOL0     C 5816   1.808   5.567   5.630 -0.2255 -0.4929  0.0538
   43MOL0     C 5817   1.774   5.629   5.757 -0.5401  0.0874 -0.3369
   43MOL0     C 5818   1.648   5.718   5.756 -0.5628 -0.6819  0.8280
   43MOL0     C 5819   1.548   5.672   5.864 -0.0055  0.1618 -0.4768
   43MOL0     O 5820   1.593   5.724   5.985  0.3563 -0.7688 -0.0133
   43MOL0     C 5821   1.517   5.734   6.101 -0.0227  0.8445  0.9254
   43MOL0     C 5822   1.590   5.792   6.200  1.1158 -0.5985 -0.5328
   43MOL0     C 5823   1.549   5.781   6.326  0.5275  0.6431 -0.4682
   43MOL0     C 5824   1.630   5.854   6.433  0.5752 -0.3337 -0.2913
   43MOL0     C 5825   1.438   5.703   6.366  0.3579  0.0408 -1.0431
   43MOL0     C 5826   1.372   5.688   6.510 -0.3872  0.0142 -0.6097
   43MOL0     O 5827   1.235   5.654   6.515  0.3535  0.0340 -0.2649
   43MOL0     C 5828   1.179   5.634   6.636 -0.9835  0.5297  0.3578
   43MOL0     C 5829   1.102   5.729   6.689  0.7798 -0.7112  0.1190
   43MOL0     C 5830   1.039   5.709   6.814  0.8541  0.2843  0.2190
   43MOL0     C 5831   1.040   5.584   6.874 -0.5375 -0.6501 -0.0284
   43MOL0     O 5832   0.975   5.581   6.999  0.4827 -0.0834 -0.1921
   43MOL0     C 5833   0.981   5.461   7.072 -0.8810  0.5438  0.4761
   43MOL0     C 5834   0.930   5.489   7.219 -0.0199 -0.5313 -0.7642
   43MOL0     C 5835   1.007   5.562   7.330 -0.5581 -0.3073  0.8324
   43MOL0     C 5836   0.990   5.714   7.334 -0.0345 -0.4809 -0.0617
   43MOL0     C 5837   1.075   5.778   7.435 -0.0964 -0.1972 -0.8863
   43MOL0     C 5838   1.032   5.737   7.580 -0.2699  1.0308 -0.1143
   43MOL0     C 5839   0.879   5.755   7.613 -0.0474  0.8149  0.0438
   43MOL0     C 5840   0.850   5.706   7.746 -0.9227  0.7027  0.2923
   43MOL0    Cl 5841   0.683   5.729   7.778  0.1874  0.3101  0.0534
   43MOL0     C 5842   1.128   5.484   6.814 -0.0111 -0.3927 -0.1579
   43MOL0     C 5843   1.197   5.516   6.698 -0.6233 -0.7766 -0.4150
   43MOL0     O 5844   1.451   5.692   6.603  0.5090 -0.5795 -0.4914
   43MOL0     C 5845   1.365   5.649   6.261  0.0989  0.2111 -0.7127
   43MOL0     C 5846   1.403   5.667   6.125 -0.2378 -0.0859 -0.2964
   43MOL0     N 5847   1.700   5.336   5.624 -0.6342  0.0011  0.3270
   43MOL0     N 5848   1.616   5.270   5.559  0.2570 -0.4855 -0.8587
   43MOL0     C 5849   0.662   6.146   5.040 -0.0927  0.6486  0.4439
   43MOL0     C 5850   0.525   6.183   5.072 -0.8793 -0.0678 -0.4780
   43MOL0     C 5851   0.094   6.168   5.152  0.2234  0.5630  0.9095
   43MOL0     C 5852   0.085   6.308   5.162 -0.3474 -1.2517  0.0188
   43MOL0     C 5853  -0.040   6.373   5.160 -0.6689 -0.3096  0.5668
   43MOL0     C 5854  -0.163   6.305   5.144 -0.0337 -0.2060  0.4176
   43MOL0     O 5855  -0.271   6.389   5.135  0.4070 -0.2576 -0.7171
   43MOL0     C 5856  -0.393   6.327   5.101  1.2053 -0.5911 -0.0008
   43MOL0     C 5857  -0.396   6.324   4.946 -0.0273  1.2446 -0.4871
   43MOL0     C 5858  -0.530   6.315   4.878 -0.4992  0.8953 -0.1125
   43MOL0     C 5859  -0.521   6.377   4.738 -0.8013  0.4382  0.9221
   43MOL0     C 5860  -0.469   6.517   4.732 -0.2995  0.4736  0.4166
   43MOL0     C 5861  -0.427   6.631   4.717  0.8876  0.1472 -0.9969
   43MOL0     C 5862  -0.154   6.168   5.149 -0.3356  0.6499  0.2047
   43MOL0     C 5863  -0.031   6.095   5.161  0.6690 -0.2839  0.4398
   43MOL0     C 5864  -0.041   5.951   5.173 -0.5275 -0.2136 -0.4012
   43MOL0     H 5865   0.451   5.925   5.277 -0.1449  0.3234  0.0345
   43MOL0     H 5866   0.688   5.892   5.266 -1.3438  1.9449  2.5860
   43MOL0     H 5867   0.854   5.831   5.088 -1.8997  3.7486 -2.6056
   43MOL0     H 5868   0.895   5.868   5.254  1.8896 -1.0130 -0.6027
   43MOL0     H 5869   1.067   5.896   5.006 -0.1343  5.2396  0.4362
   43MOL0     H 5870   1.114   5.972   5.163 -1.7088  1.7806 -1.2533
   43MOL0     H 5871   1.092   5.670   5.084  1.5359 -0.0605 -0.9545
   43MOL0     H 5872   1.238   5.767   5.117 -1.0378  1.1266 -0.3065
   43MOL0     H 5873   1.210   5.778   5.347 -0.3811  2.4530 -0.6470
   43MOL0     H 5874   1.037   5.733   5.342 -1.3560 -0.7256 -0.9660
   43MOL0     H 5875   1.099   5.507   5.274 -0.7996  1.9404 -2.2701
   43MOL0     H 5876   1.179   5.553   5.431 -2.4264 -2.1804  0.3557
   43MOL0     H 5877   1.316   5.525   5.158 -1.4640  1.0048 -0.2203
   43MOL0     H 5878   1.388   5.595   5.310  0.7598 -1.8502  1.6487
   43MOL0     H 5879   1.273   5.316   5.309  1.5611 -3.0149  2.7174
   43MOL0     H 5880   1.314   5.406   5.450 -2.3611  0.7030 -0.2224
   43MOL0     H 5881   1.467   5.218   5.334  0.9529  0.1535 -0.4282
   43MOL0     H 5882   1.523   5.359   5.247  1.9253 -0.2160  0.7571
   43MOL0     H 5883   1.605   5.572   5.416 -1.7808 -0.2077  0.6981
   43MOL0     H 5884   1.824   5.636   5.546 -2.3688 -0.1476 -0.1307
   43MOL0     H 5885   1.902   5.511   5.640  1.3967  2.2248  1.0760
   43MOL0     H 5886   1.776   5.560   5.842  1.6871  0.7339  0.1897
   43MOL0     H 5887   1.860   5.690   5.787 -1.9589  0.9250  2.4235
   43MOL0     H 5888   1.684   5.820   5.775 -0.1255 -0.3087 -1.5824
   43MOL0     H 5889   1.599   5.731   5.659 -0.5704  0.0210  0.9166
   43MOL0     H 5890   1.446   5.706   5.844  0.5708  0.8609 -2.4049
   43MOL0     H 5891   1.548   5.562   5.868 -1.9703  0.0516 -1.9318
   43MOL0     H 5892   1.679   5.846   6.167  0.1672  0.2629 -1.7594
   43MOL0     H 5893   1.671   5.948   6.396  0.3159 -0.7665 -1.7487
   43MOL0     H 5894   1.711   5.790   6.472  1.7451  1.5415  0.4843
   43MOL0     H 5895   1.568   5.887   6.516  0.9501  0.8684 -0.4645
   43MOL0     H 5896   1.088   5.818   6.628 -1.9114  0.1854  1.8630
   43MOL0     H 5897   0.973   5.780   6.863  0.3387  0.0115 -0.0779
   43MOL0     H 5898   0.928   5.382   7.016  1.0465  0.4567 -1.3403
   43MOL0     H 5899   1.082   5.421   7.066 -0.6937  1.0961 -0.1199
   43MOL0     H 5900   0.828   5.530   7.209 -0.8012 -2.7091 -2.3821
   43MOL0     H 5901   0.913   5.388   7.258 -0.7122  0.3034  1.2725
   43MOL0     H 5902   1.113   5.535   7.328 -0.0464  1.5296  1.3520
   43MOL0     H 5903   0.979   5.520   7.427 -0.9904 -1.4059  0.2487
   43MOL0     H 5904   0.884   5.741   7.345  0.3831  0.8536  0.8905
   43MOL0     H 5905   1.020   5.749   7.234 -1.6010 -1.8278 -1.0559
   43MOL0     H 5906   1.178   5.744   7.419 -0.9505 -2.2183 -2.6392
   43MOL0     H 5907   1.076   5.886   7.419 -0.8812  0.2666  1.7071
   43MOL0     H 5908   1.095   5.802   7.642  0.1393  1.5009 -1.0106
   43MOL0     H 5909   1.059   5.633   7.604 -0.1338  1.2833  0.8748
   43MOL0     H 5910   0.810   5.702   7.546 -2.0244 -1.1114  3.2985
   43MOL0     H 5911   0.856   5.861   7.605 -3.0839  0.2073 -0.4445
   43MOL0     H 5912   0.908   5.762   7.821 -0.2255  1.4867 -0.8127
   43MOL0     H 5913   0.870   5.598   7.757 -0.1414  0.5344 -2.2281
   43MOL0     H 5914   1.154   5.392   6.864 -1.0385 -0.8295 -0.4148
   43MOL0     H 5915   1.265   5.439   6.662  3.1803  1.1672  1.8990
   43MOL0     H 5916   1.265   5.612   6.282 -0.1931  2.0503  1.5106
   43MOL0     H 5917   1.341   5.627   6.045 -1.2510  0.2702  0.2914
   43MOL0     H 5918   0.732   6.204   4.981 -0.8701  0.1476 -1.0264
   43MOL0     H 5919   0.483   6.273   5.027 -1.2823 -1.5142 -3.2249
   43MOL0     H 5920   0.179   6.359   5.182  0.4376 -1.6793 -2.2709
   43MOL0     H 5921  -0.036   6.481   5.161 -0.0677 -0.2824 -1.1622
   43MOL0     H 5922  -0.415   6.232   5.150  1.7224 -0.0338  1.3641
   43MOL0     H 5923  -0.473   6.387   5.145  0.8560 -0.6609 -0.5302
   43MOL0     H 5924  -0.339   6.238   4.907 -1.9866  0.3656 -1.5942
   43MOL0     H 5925  -0.341   6.411   4.910 -1.4278  0.6998 -4.5625
   43MOL0     H 5926  -0.546   6.207   4.868  3.4914  0.1192 -0.1687
   43MOL0     H 5927  -0.612   6.356   4.937 -0.2649  1.8993 -0.4754
   43MOL0     H 5928  -0.614   6.380   4.681  0.8899  1.0000 -1.9791
   43MOL0     H 5929  -0.451   6.322   4.675 -0.7026 -0.2326  1.6107
   43MOL0     H 5930  -0.404   6.734   4.704 -1.6237  0.7935 -0.9049
   43MOL0     H 5931  -0.244   6.108   5.159  1.0633 -1.3040  1.9633
   43MOL0     H 5932  -0.124   5.912   5.232  0.1763 -0.1151  0.6856
   43MOL0     H 5933  -0.053   5.918   5.069  1.4696  2.2361 -1.5077
   43MOL0     H 5934   0.049   5.920   5.226 -1.5890 -1.4212  0.7566
   44MOL0     O 5935   2.432   4.219   1.349  0.0324 -0.6275 -0.5506
   44MOL0     C 5936   2.396   4.269   1.448 -0.0875 -0.0288 -0.7603
   44MOL0     O 5937   2.475   4.276   1.560 -0.3227  0.6115 -0.0922
   44MOL0     C 5938   2.604   4.240   1.547 -0.6096  0.5394  0.1030
   44MOL0     C 5939   2.708   4.336   1.565  0.0268  0.1770  0.6421
   44MOL0     C 5940   2.843   4.300   1.552  0.1998 -0.5729 -0.1395
   44MOL0     C 5941   2.884   4.170   1.529  0.5748 -0.0253  0.1661
   44MOL0     O 5942   3.023   4.152   1.522 -0.4768  0.0495  0.0832
   44MOL0     C 5943   3.079   4.022   1.496  1.4997 -0.1246 -0.1241
   44MOL0     C 5944   3.230   4.018   1.529 -0.4643  0.1918 -0.2233
   44MOL0     C 5945   3.296   3.882   1.501  0.1069 -0.8204 -0.6543
   44MOL0     C 5946   3.316   3.845   1.349 -0.4823 -0.4363 -1.0621
   44MOL0     C 5947   3.438   3.750   1.323  1.0548 -0.0349 -0.6982
   44MOL0     C 5948   3.570   3.813   1.360  0.0204 -0.2948  0.3712
   44MOL0     C 5949   3.687   3.776   1.270 -0.5173 -1.0688 -0.5503
   44MOL0     C 5950   3.820   3.835   1.318  0.2350 -0.0859 -0.2163
   44MOL0     N 5951   3.882   3.750   1.424 -1.1493  0.8381  0.0649
   44MOL0     C 5952   4.013   3.719   1.433 -0.5734  0.3420  0.0151
   44MOL0     C 5953   4.028   3.644   1.544 -0.3880  0.7971 -0.3899
   44MOL0     C 5954   4.160   3.593   1.596 -0.5838  0.9044 -0.9667
   44MOL0     C 5955   4.161   3.440   1.648 -0.3265 -0.1089  0.5245
   44MOL0     C 5956   4.248   3.346   1.563  1.2646  0.3594 -0.5858
   44MOL0     C 5957   4.275   3.205   1.628  0.3749  0.0893  0.2654
   44MOL0     O 5958   4.299   3.205   1.761 -0.1705 -0.3684  0.5904
   44MOL0     C 5959   4.431   3.224   1.804 -0.1967 -0.9011 -0.5781
   44MOL0     C 5960   4.448   3.254   1.940 -0.4190 -0.0749  0.0184
   44MOL0     C 5961   4.573   3.266   2.006  1.0182  0.0788 -0.0898
   44MOL0     C 5962   4.567   3.290   2.160 -0.4928 -0.0388 -0.9406
   44MOL0     C 5963   4.691   3.254   1.930 -0.3882  0.0411  0.8401
   44MOL0     C 5964   4.833   3.277   1.986 -0.4220 -0.2179 -0.4840
   44MOL0     O 5965   4.947   3.237   1.915 -0.4821 -0.4894 -0.8020
   44MOL0     C 5966   5.069   3.245   1.972 -0.3540  0.4063  0.0012
   44MOL0     C 5967   5.146   3.125   1.963  0.3754  0.4942 -0.9303
   44MOL0     C 5968   5.264   3.102   2.033 -0.6862 -0.5138 -0.1998
   44MOL0     C 5969   5.316   3.204   2.113  0.1350 -0.3974  0.2785
   44MOL0     O 5970   5.444   3.199   2.165 -0.8924 -0.5501  0.7496
   44MOL0     C 5971   5.490   3.070   2.216  0.0077  0.2173 -0.0395
   44MOL0     C 5972   5.562   3.095   2.352  0.1653  0.6584 -0.6176
   44MOL0     C 5973   5.463   3.110   2.471 -0.3621 -0.1266  0.0907
   44MOL0     C 5974   5.422   2.978   2.532 -0.3866  0.3794  0.0515
   44MOL0     C 5975   5.306   2.987   2.621  0.0471 -0.3146 -0.3179
   44MOL0     C 5976   5.317   2.904   2.754 -0.0617 -0.3610  0.7139
   44MOL0     C 5977   5.190   2.925   2.839 -0.5438  0.1361 -0.4690
   44MOL0     C 5978   5.204   2.860   2.979  0.0413  0.2404  0.4794
   44MOL0    Cl 5979   5.174   2.687   2.976 -0.1820 -0.3955 -0.0224
   44MOL0     C 5980   5.236   3.323   2.121  0.1913  0.2485 -0.3210
   44MOL0     C 5981   5.118   3.342   2.051  0.7674 -1.3058  0.2094
   44MOL0     O 5982   4.831   3.333   2.098 -0.9608  0.5213  0.0484
   44MOL0     C 5983   4.672   3.226   1.792  0.2305  0.0634 -0.6574
   44MOL0     C 5984   4.550   3.211   1.733  0.1405 -0.2534 -0.3236
   44MOL0     N 5985   3.905   3.615   1.592 -0.2219  0.5105 -0.3986
   44MOL0     N 5986   3.819   3.677   1.517  0.2704  0.1963 -0.3395
   44MOL0     C 5987   2.784   4.072   1.530  0.0196 -0.2314  0.1867
   44MOL0     C 5988   2.649   4.107   1.534  0.1290  0.9115  0.4560
   44MOL0     C 5989   2.258   4.322   1.458  0.4168 -1.3289  0.3267
   44MOL0     C 5990   2.205   4.379   1.579  0.7696  1.1810  0.2121
   44MOL0     C 5991   2.072   4.418   1.583  0.0142  0.0367 -0.6216
   44MOL0     C 5992   1.997   4.428   1.471 -0.2964  0.0684 -0.2170
   44MOL0     O 5993   1.875   4.477   1.462  0.9912  0.2432  0.5737
   44MOL0     C 5994   1.819   4.545   1.573 -0.5953 -0.2798  0.3780
   44MOL0     C 5995   1.686   4.598   1.521 -0.4347  0.6572 -0.2590
   44MOL0     C 5996   1.591   4.479   1.480  0.6234  0.6029 -0.4550
   44MOL0     C 5997   1.446   4.527   1.461 -1.1179 -0.5205 -1.0597
   44MOL0     C 5998   1.359   4.412   1.438  0.3382  0.0567 -0.8502
   44MOL0     C 5999   1.287   4.317   1.394  0.0979 -0.5135 -1.1235
   44MOL0     C 6000   2.044   4.395   1.350 -0.5662  0.2863 -0.0217
   44MOL0     C 6001   2.176   4.340   1.344  1.0681  0.0314  0.5125
   44MOL0     C 6002   2.211   4.312   1.194 -0.4713 -1.3970  0.5734
   44MOL0     H 6003   2.672   4.438   1.579 -1.1853 -0.4901  2.7891
   44MOL0     H 6004   2.918   4.378   1.563 -0.4817  0.3470 -1.8023
   44MOL0     H 6005   3.076   4.013   1.387  1.8836 -2.9512  0.0260
   44MOL0     H 6006   3.014   3.944   1.537  1.0251  0.8393  1.0278
   44MOL0     H 6007   3.283   4.103   1.484 -0.1616  2.2834  3.6232
   44MOL0     H 6008   3.259   4.045   1.631  1.7794  0.3983 -0.8522
   44MOL0     H 6009   3.397   3.890   1.543  1.2799  1.7587 -3.5874
   44MOL0     H 6010   3.236   3.814   1.562 -1.3266  1.1472  0.2576
   44MOL0     H 6011   3.219   3.807   1.314 -0.7872  1.0771 -1.9245
   44MOL0     H 6012   3.324   3.937   1.291 -0.9580 -0.7308 -1.6129
   44MOL0     H 6013   3.426   3.724   1.217 -1.3061 -0.2737 -0.4405
   44MOL0     H 6014   3.423   3.664   1.389  2.0735 -2.4501 -3.4009
   44MOL0     H 6015   3.555   3.919   1.336 -2.0914 -1.1229 -2.5794
   44MOL0     H 6016   3.589   3.802   1.467  0.2754 -3.3313  0.0919
   44MOL0     H 6017   3.662   3.805   1.168 -1.7641 -0.5542 -0.1120
   44MOL0     H 6018   3.711   3.669   1.274  3.1084 -0.3806 -0.3973
   44MOL0     H 6019   3.884   3.831   1.230  0.9228  0.8318  0.2321
   44MOL0     H 6020   3.808   3.938   1.352  1.6959 -0.3477  1.2371
   44MOL0     H 6021   4.095   3.759   1.374 -1.5206 -0.2986 -1.8195
   44MOL0     H 6022   4.173   3.657   1.684 -0.7640 -0.8337  0.3672
   44MOL0     H 6023   4.246   3.614   1.532 -0.4958 -0.1368 -1.2051
   44MOL0     H 6024   4.196   3.428   1.751 -1.0231 -0.4833  0.7298
   44MOL0     H 6025   4.065   3.388   1.639 -0.1339 -0.2952 -0.6051
   44MOL0     H 6026   4.201   3.340   1.465 -3.4042  3.1491  1.1259
   44MOL0     H 6027   4.350   3.385   1.554  1.2741  1.2428  2.2342
   44MOL0     H 6028   4.176   3.157   1.630 -0.3032  1.3943 -0.3451
   44MOL0     H 6029   4.343   3.139   1.574 -0.1865 -0.5016  0.2698
   44MOL0     H 6030   4.354   3.269   1.991 -2.0501 -1.1262 -2.4762
   44MOL0     H 6031   4.574   3.395   2.188 -0.2095 -0.6943  1.7015
   44MOL0     H 6032   4.643   3.234   2.214 -1.4132 -0.9144 -0.5108
   44MOL0     H 6033   4.472   3.256   2.204  0.0762  0.3170  0.5986
   44MOL0     H 6034   5.112   3.050   1.893  1.8405  1.1999 -2.4674
   44MOL0     H 6035   5.322   3.013   2.013  0.2473  0.0486 -0.1032
   44MOL0     H 6036   5.404   3.002   2.220 -0.2934  0.6453  0.9252
   44MOL0     H 6037   5.562   3.009   2.159 -1.9976 -0.6434 -1.7728
   44MOL0     H 6038   5.638   3.021   2.379 -2.5691 -1.3199  2.5548
   44MOL0     H 6039   5.618   3.188   2.341 -0.1871  0.6685 -2.7086
   44MOL0     H 6040   5.375   3.166   2.436 -0.6195  0.3233  1.4105
   44MOL0     H 6041   5.518   3.161   2.551  1.0754 -2.0566  0.4108
   44MOL0     H 6042   5.509   2.937   2.585 -0.8852 -1.0134 -0.1568
   44MOL0     H 6043   5.405   2.896   2.462 -0.3307 -1.6432  2.2887
   44MOL0     H 6044   5.284   3.094   2.629 -3.2843 -0.7216 -1.9155
   44MOL0     H 6045   5.217   2.951   2.567  0.2606  0.5864 -1.3028
   44MOL0     H 6046   5.407   2.952   2.796 -0.4530  2.5069 -1.4449
   44MOL0     H 6047   5.330   2.798   2.728  1.7577 -0.2227  0.9167
   44MOL0     H 6048   5.102   2.884   2.788 -0.9939 -0.3702  0.6841
   44MOL0     H 6049   5.163   3.030   2.839  0.2201  0.4024  2.4029
   44MOL0     H 6050   5.147   2.915   3.054  0.2756  0.8537  0.2132
   44MOL0     H 6051   5.309   2.868   3.009 -0.5649 -1.2813  3.4688
   44MOL0     H 6052   5.279   3.412   2.167 -0.8768  0.4287  0.3459
   44MOL0     H 6053   5.065   3.437   2.053  2.8980 -0.0619  0.5078
   44MOL0     H 6054   4.761   3.219   1.730  0.3170 -1.9026 -0.3953
   44MOL0     H 6055   4.544   3.202   1.625 -3.3536  0.6612 -0.3066
   44MOL0     H 6056   2.801   3.970   1.496 -0.9404 -0.6130  0.8019
   44MOL0     H 6057   2.567   4.036   1.522 -0.0332  1.3443 -1.2351
   44MOL0     H 6058   2.271   4.374   1.665  2.3661  1.7303 -0.9363
   44MOL0     H 6059   2.029   4.446   1.678  2.8226  1.1589  0.4360
   44MOL0     H 6060   1.803   4.475   1.655  0.4645 -2.0263 -0.8365
   44MOL0     H 6061   1.885   4.629   1.599  0.4716 -0.7883 -0.5712
   44MOL0     H 6062   1.695   4.660   1.431  1.1661 -0.1222 -0.6739
   44MOL0     H 6063   1.641   4.658   1.601 -3.3803 -1.8974  0.1549
   44MOL0     H 6064   1.627   4.420   1.396 -0.3826  0.9790 -1.1622
   44MOL0     H 6065   1.579   4.404   1.559 -2.4517  0.9725 -0.4616
   44MOL0     H 6066   1.446   4.592   1.372  4.4904 -1.1655 -1.9099
   44MOL0     H 6067   1.409   4.590   1.543  0.4242  0.1319 -0.8238
   44MOL0     H 6068   1.244   4.238   1.338  0.1932 -1.6664  0.3728
   44MOL0     H 6069   1.973   4.402   1.268 -1.1985  1.1249  0.5855
   44MOL0     H 6070   2.214   4.203   1.183  1.1802 -1.3767  0.4914
   44MOL0     H 6071   2.141   4.367   1.131  0.1563  2.2185  2.7945
   44MOL0     H 6072   2.308   4.357   1.169 -0.2780 -0.3043  3.0057
   45MOL0     O 6073   2.338  10.757   4.108 -0.1486  0.7102  0.2006
   45MOL0     C 6074   2.265  10.682   4.051  0.1857  0.1464 -0.1640
   45MOL0     O 6075   2.306  10.568   3.996 -0.0131  0.2614 -0.1549
   45MOL0     C 6076   2.423  10.518   4.039 -0.5281  0.1361  0.7376
   45MOL0     C 6077   2.520  10.488   3.945 -0.6227  0.1509 -0.4197
   45MOL0     C 6078   2.656  10.462   3.992 -0.6685 -0.5132 -0.0743
   45MOL0     C 6079   2.687  10.451   4.129 -0.3882  0.4347  0.4182
   45MOL0     O 6080   2.804  10.433   4.193 -0.8039  0.1315 -0.4259
   45MOL0     C 6081   2.925  10.429   4.111 -0.8113 -0.7004 -0.6482
   45MOL0     C 6082   2.961  10.289   4.058 -0.0797 -0.6911  0.2490
   45MOL0     C 6083   3.108  10.280   4.008  0.3006  0.1906 -0.0085
   45MOL0     C 6084   3.141  10.136   3.964 -0.5324  0.5531 -0.3979
   45MOL0     C 6085   3.258  10.114   3.862  0.5223 -0.5113  0.9874
   45MOL0     C 6086   3.381  10.170   3.914 -0.5455 -0.5268  0.1301
   45MOL0     C 6087   3.501  10.156   3.823  0.5662  0.0759  0.2694
   45MOL0     C 6088   3.620  10.216   3.893 -0.5456  0.1554 -0.0318
   45MOL0     N 6089   3.664  10.135   4.007 -1.0184 -0.4305  0.0974
   45MOL0     C 6090   3.737  10.016   4.011 -1.0470 -0.0733  0.0683
   45MOL0     C 6091   3.746   9.979   4.139 -0.7185  0.5355 -0.3800
   45MOL0     C 6092   3.813   9.852   4.191  0.3633 -0.5498  0.2649
   45MOL0     C 6093   3.962   9.864   4.206  0.5408 -0.4838  0.5773
   45MOL0     C 6094   4.000   9.931   4.338  0.0171 -0.3761  0.0248
   45MOL0     C 6095   3.928   9.880   4.466  0.5869 -0.0981  0.2755
   45MOL0     O 6096   3.924   9.738   4.466 -0.0854  0.0318 -0.1964
   45MOL0     C 6097   4.045   9.670   4.460 -0.8036 -0.0086 -0.2922
   45MOL0     C 6098   4.171   9.717   4.509 -0.8308 -0.3156  0.5050
   45MOL0     C 6099   4.292   9.645   4.500  0.1778 -0.0073 -0.2963
   45MOL0     C 6100   4.413   9.714   4.565 -0.8093 -0.4704  0.8221
   45MOL0     C 6101   4.292   9.518   4.453 -0.0510  0.2254 -1.3043
   45MOL0     C 6102   4.424   9.454   4.424  0.2038 -0.2912  0.4069
   45MOL0     O 6103   4.408   9.354   4.337 -0.0763  0.4230  0.4241
   45MOL0     C 6104   4.512   9.265   4.322 -0.4463  0.4530 -0.7525
   45MOL0     C 6105   4.497   9.134   4.369 -0.4548 -0.6207  0.3193
   45MOL0     C 6106   4.593   9.029   4.340 -0.9995 -0.1425 -0.1443
   45MOL0     C 6107   4.708   9.070   4.267 -0.1899 -0.8318 -0.7521
   45MOL0     O 6108   4.808   8.978   4.236  0.2726  0.1793  0.4455
   45MOL0     C 6109   4.934   8.986   4.299  0.0013  0.4660  0.2092
   45MOL0     C 6110   5.030   9.029   4.198  0.3411  0.5784  0.0420
   45MOL0     C 6111   5.039   8.943   4.076 -0.4474  0.1322 -0.6402
   45MOL0     C 6112   5.071   8.785   4.093 -0.1656  0.8048  0.1744
   45MOL0     C 6113   5.045   8.727   3.945 -0.7580  0.1028  0.5340
   45MOL0     C 6114   5.108   8.591   3.952 -0.1980 -0.4566  0.2918
   45MOL0     C 6115   5.113   8.531   3.810 -0.0877  0.3889 -0.6324
   45MOL0     C 6116   5.192   8.394   3.804  0.1844 -0.8196 -0.0037
   45MOL0    Cl 6117   5.116   8.273   3.918 -0.3207  0.3652  0.3125
   45MOL0     C 6118   4.722   9.207   4.236 -0.9406 -0.2970 -0.9117
   45MOL0     C 6119   4.630   9.300   4.266  0.4248 -0.1799  0.6259
   45MOL0     O 6120   4.527   9.480   4.486  0.2533  0.2039  0.3829
   45MOL0     C 6121   4.169   9.460   4.416 -0.5850  0.6829 -0.4335
   45MOL0     C 6122   4.050   9.539   4.413 -0.2648  0.2189 -0.4862
   45MOL0     N 6123   3.685  10.078   4.216  0.5409 -0.0408 -0.1205
   45MOL0     N 6124   3.642  10.173   4.141  0.5774  0.5650 -0.8619
   45MOL0     C 6125   2.576  10.461   4.216  0.7611 -0.1418 -1.1188
   45MOL0     C 6126   2.446  10.486   4.174  0.6969 -0.0677 -0.1323
   45MOL0     C 6127   2.124  10.727   4.020  0.3920  1.0436  0.3146
   45MOL0     C 6128   2.092  10.848   3.952  0.6287  0.3109 -0.2405
   45MOL0     C 6129   1.952  10.888   3.950 -1.1201  0.3225 -0.2861
   45MOL0     C 6130   1.854  10.807   3.989  0.0729  0.0958  0.0970
   45MOL0     O 6131   1.730  10.862   3.991  0.3553  0.8351 -0.3294
   45MOL0     C 6132   1.646  10.798   3.889 -0.4744  0.3497 -0.3352
   45MOL0     C 6133   1.704  10.826   3.751 -0.0719  0.2541  0.5921
   45MOL0     C 6134   1.609  10.804   3.635 -0.2806 -0.1463  0.1832
   45MOL0     C 6135   1.599  10.649   3.606 -0.0082 -0.4023  0.7218
   45MOL0     C 6136   1.508  10.624   3.489  0.2074  0.6395 -1.3049
   45MOL0     C 6137   1.426  10.616   3.401 -0.5639 -0.3535 -0.1636
   45MOL0     C 6138   1.884  10.669   4.035 -0.6326 -0.1994  0.7188
   45MOL0     C 6139   2.021  10.637   4.055 -0.0947  0.1013 -1.1100
   45MOL0     C 6140   2.043  10.505   4.125  0.5986  0.6613  0.3599
   45MOL0     H 6141   2.508  10.500   3.838  2.2088 -0.3622 -0.8553
   45MOL0     H 6142   2.734  10.467   3.916 -0.5295  1.9245  0.1326
   45MOL0     H 6143   3.018  10.470   4.153 -0.1842 -1.0188 -1.6886
   45MOL0     H 6144   2.911  10.497   4.027 -0.1270 -0.2330 -0.3951
   45MOL0     H 6145   2.951  10.215   4.137 -1.7716 -0.2270  0.5155
   45MOL0     H 6146   2.886  10.259   3.984  0.3108  1.5571 -1.1639
   45MOL0     H 6147   3.121  10.337   3.915 -1.3603 -0.9243 -0.9664
   45MOL0     H 6148   3.178  10.321   4.082  0.6723  1.0050 -0.7877
   45MOL0     H 6149   3.155  10.078   4.056  0.8829  0.2478 -0.7823
   45MOL0     H 6150   3.053  10.088   3.919 -2.9798  2.5783  1.8590
   45MOL0     H 6151   3.231  10.168   3.771  3.3034  2.6635  1.8439
   45MOL0     H 6152   3.268  10.009   3.832  6.4025  0.0236 -0.1070
   45MOL0     H 6153   3.357  10.271   3.947 -1.0480 -1.2348  2.1102
   45MOL0     H 6154   3.402  10.116   4.007  1.2081 -2.2167 -1.1399
   45MOL0     H 6155   3.481  10.204   3.727 -3.0290  2.2861  1.9232
   45MOL0     H 6156   3.521  10.049   3.807 -1.4999 -0.1372 -1.2137
   45MOL0     H 6157   3.704  10.226   3.824 -0.8987 -0.5925 -0.5872
   45MOL0     H 6158   3.607  10.319   3.927  0.5388 -0.6896  3.2953
   45MOL0     H 6159   3.769   9.967   3.920  3.1288  3.3571 -0.6604
   45MOL0     H 6160   3.790   9.773   4.118 -1.5369 -0.3317  0.5660
   45MOL0     H 6161   3.765   9.819   4.284 -1.9156  0.0156 -0.6410
   45MOL0     H 6162   4.005   9.763   4.214 -2.0211 -1.5632  2.1727
   45MOL0     H 6163   4.007   9.912   4.119  2.0822 -3.0418 -0.1354
   45MOL0     H 6164   4.108   9.931   4.352 -0.0680 -0.3635  0.7291
   45MOL0     H 6165   3.979  10.038   4.330 -0.1688 -0.3294  1.0096
   45MOL0     H 6166   3.976   9.913   4.559 -2.4834  0.3144  1.8566
   45MOL0     H 6167   3.828   9.925   4.464  0.6385 -0.0135 -0.3604
   45MOL0     H 6168   4.169   9.802   4.577  3.4059 -0.7830  1.4458
   45MOL0     H 6169   4.495   9.708   4.493 -2.7850 -1.4975 -1.4749
   45MOL0     H 6170   4.426   9.657   4.657 -1.2873 -2.0617 -0.0658
   45MOL0     H 6171   4.396   9.820   4.587 -0.3876 -0.7019  2.3308
   45MOL0     H 6172   4.418   9.108   4.438 -0.4315  1.8900  1.3869
   45MOL0     H 6173   4.587   8.923   4.363 -1.0355 -0.2155 -0.4813
   45MOL0     H 6174   4.943   9.058   4.380  1.1557 -0.2844  0.7807
   45MOL0     H 6175   4.951   8.885   4.338 -2.1668  0.4739  1.2973
   45MOL0     H 6176   5.010   9.130   4.162  1.8847 -0.0499 -2.8506
   45MOL0     H 6177   5.127   9.023   4.248 -0.4398  0.8126  1.6708
   45MOL0     H 6178   5.115   8.994   4.015  0.6500 -1.8739 -1.0252
   45MOL0     H 6179   4.941   8.947   4.029 -1.2717 -0.2804  0.9522
   45MOL0     H 6180   4.996   8.737   4.157  0.0224  1.6390  1.0340
   45MOL0     H 6181   5.170   8.767   4.136 -0.2131 -1.9756 -0.7024
   45MOL0     H 6182   4.938   8.721   3.919 -0.1542 -2.5860 -1.8716
   45MOL0     H 6183   5.097   8.783   3.868 -0.6590  0.9257  1.1915
   45MOL0     H 6184   5.049   8.525   4.016  0.3831  0.3562  1.7159
   45MOL0     H 6185   5.206   8.597   4.000 -0.1054 -0.0174  0.0607
   45MOL0     H 6186   5.154   8.604   3.739  2.6318 -2.5965 -2.4237
   45MOL0     H 6187   5.010   8.507   3.784 -0.2361 -1.0926  1.1471
   45MOL0     H 6188   5.293   8.423   3.833 -0.3304 -1.5121  2.8307
   45MOL0     H 6189   5.185   8.361   3.700 -2.5637 -1.4906  0.3217
   45MOL0     H 6190   4.798   9.242   4.167  1.1190  1.4951  2.0356
   45MOL0     H 6191   4.638   9.406   4.242 -1.3304  0.3630  2.2533
   45MOL0     H 6192   4.160   9.358   4.379  0.3651 -1.2233  3.8817
   45MOL0     H 6193   3.962   9.485   4.379  1.2412 -1.9199 -1.2000
   45MOL0     H 6194   2.597  10.445   4.322 -1.4071 -0.4632 -0.6935
   45MOL0     H 6195   2.372  10.500   4.252  2.2164  2.1389  1.0344
   45MOL0     H 6196   2.162  10.927   3.928 -1.0739  1.2623 -2.5030
   45MOL0     H 6197   1.936  10.993   3.927 -0.2838  0.2921 -1.0404
   45MOL0     H 6198   1.643  10.689   3.902  2.5354  0.1847 -0.3699
   45MOL0     H 6199   1.547  10.845   3.894  0.6767  2.7511  1.3664
   45MOL0     H 6200   1.792  10.762   3.743 -0.7787 -0.8309  1.3339
   45MOL0     H 6201   1.743  10.928   3.744  2.4644 -0.7665 -3.1731
   45MOL0     H 6202   1.509  10.846   3.655  0.0126  0.4320  0.4549
   45MOL0     H 6203   1.637  10.848   3.538 -0.0152 -0.0035  0.3233
   45MOL0     H 6204   1.558  10.606   3.698 -2.5427 -2.8176 -1.3620
   45MOL0     H 6205   1.702  10.617   3.592  0.8635  1.5483  2.1264
   45MOL0     H 6206   1.358  10.613   3.318 -2.4979 -2.8992  1.3772
   45MOL0     H 6207   1.799  10.602   4.039  1.0999 -2.5982 -0.1432
   45MOL0     H 6208   2.116  10.519   4.206  1.1040  0.9189 -0.1341
   45MOL0     H 6209   1.955  10.475   4.182  1.1640  2.2931  2.1780
   45MOL0     H 6210   2.072  10.424   4.057 -3.0737 -0.6305  0.1522
   46MOL0     O 6211   8.716  10.320   9.143 -0.2163 -1.4160 -0.0394
   46MOL0     C 6212   8.735  10.404   9.054 -0.0630  0.6680 -0.1351
   46MOL0     O 6213   8.651  10.514   9.038  0.3229  0.1223  0.5995
   46MOL0     C 6214   8.521  10.517   9.092 -0.1275 -0.6944  0.0610
   46MOL0     C 6215   8.465  10.639   9.129 -0.3783 -0.1238 -0.2575
   46MOL0     C 6216   8.337  10.652   9.179  0.4184  0.1975  0.5060
   46MOL0     C 6217   8.252  10.536   9.187 -0.7091 -0.1526  0.5092
   46MOL0     O 6218   8.124  10.544   9.214  0.0440  0.1723  0.4203
   46MOL0     C 6219   8.057  10.668   9.187  0.5277 -0.7236 -1.6294
   46MOL0     C 6220   7.902  10.667   9.194 -0.0791  0.1451  0.0221
   46MOL0     C 6221   7.842  10.582   9.084  0.2505  0.7700  0.4618
   46MOL0     C 6222   7.692  10.581   9.073 -0.4436 -0.1417  0.3097
   46MOL0     C 6223   7.649  10.460   8.990 -0.1979  1.5947 -0.4115
   46MOL0     C 6224   7.497  10.450   8.986 -0.7833 -0.5429  0.6237
   46MOL0     C 6225   7.461  10.318   8.928 -0.2303 -0.3123 -0.4005
   46MOL0     C 6226   7.526  10.277   8.796  0.7250 -0.3367  0.0315
   46MOL0     N 6227   7.450  10.175   8.717  0.6447 -0.0974 -0.4122
   46MOL0     C 6228   7.411  10.057   8.768  0.7002  0.4791 -0.4477
   46MOL0     C 6229   7.340   9.998   8.666 -0.3544  1.3710 -0.7712
   46MOL0     C 6230   7.287   9.855   8.666 -0.3805 -0.2281 -0.0480
   46MOL0     C 6231   7.350   9.762   8.567 -0.6451 -0.1100  0.1646
   46MOL0     C 6232   7.269   9.634   8.532  0.1144 -0.4355 -0.6022
   46MOL0     C 6233   7.347   9.538   8.442 -0.7580 -0.0880  0.0122
   46MOL0     O 6234   7.295   9.405   8.418  0.0356  0.2266  0.5467
   46MOL0     C 6235   7.202   9.383   8.322  0.4172  0.5392  0.5033
   46MOL0     C 6236   7.169   9.481   8.216 -0.6627  1.1620 -0.7724
   46MOL0     C 6237   7.086   9.452   8.106  0.2986  0.0054 -0.5845
   46MOL0     C 6238   7.063   9.554   7.998  0.1443  0.0949  0.1600
   46MOL0     C 6239   7.025   9.321   8.097 -0.5183 -0.5535 -0.5835
   46MOL0     C 6240   6.917   9.279   8.009 -0.5713 -0.2610  0.6669
   46MOL0     O 6241   6.837   9.377   7.956 -1.1125 -0.5959 -0.3245
   46MOL0     C 6242   6.775   9.359   7.834 -0.7623 -0.1383 -0.0632
   46MOL0     C 6243   6.822   9.289   7.718  0.2009  0.3926 -0.2588
   46MOL0     C 6244   6.737   9.271   7.604 -0.2929  0.0133  0.5209
   46MOL0     C 6245   6.604   9.304   7.606  0.2647 -0.0130 -0.0264
   46MOL0     O 6246   6.530   9.260   7.508 -0.3703  0.2540 -0.3123
   46MOL0     C 6247   6.559   9.329   7.389 -0.5450 -0.2197  0.2923
   46MOL0     C 6248   6.488   9.455   7.363 -0.0051 -0.7911  0.7326
   46MOL0     C 6249   6.546   9.530   7.239  0.3552 -0.5040  0.4985
   46MOL0     C 6250   6.672   9.615   7.265 -0.7038  0.1222  0.2772
   46MOL0     C 6251   6.719   9.690   7.139  0.0311 -0.6749  0.5769
   46MOL0     C 6252   6.769   9.606   7.017  0.2442  0.1527  0.7478
   46MOL0     C 6253   6.871   9.678   6.930  0.4134  0.6664  1.0088
   46MOL0     C 6254   6.885   9.623   6.787  0.3295  0.4117 -0.2135
   46MOL0    Cl 6255   6.881   9.436   6.788 -0.3730  0.4915 -0.1133
   46MOL0     C 6256   6.561   9.374   7.715  0.4661 -0.3367  0.0163
   46MOL0     C 6257   6.644   9.398   7.829 -0.5683 -0.0789 -0.9825
   46MOL0     O 6258   6.921   9.161   7.972  0.4083  0.1961 -0.2803
   46MOL0     C 6259   7.057   9.234   8.204  0.5180  0.5923  0.1753
   46MOL0     C 6260   7.143   9.267   8.308  0.1552  0.2308  0.0260
   46MOL0     N 6261   7.334  10.089   8.562  0.3714 -0.2151  0.0816
   46MOL0     N 6262   7.385  10.203   8.603 -1.0277 -0.1787  0.5679
   46MOL0     C 6263   8.304  10.415   9.145  0.4352 -0.3224  0.3941
   46MOL0     C 6264   8.434  10.402   9.106 -0.0185 -1.2153  0.0561
   46MOL0     C 6265   8.845  10.382   8.968  0.8108 -0.8068 -1.0644
   46MOL0     C 6266   8.971  10.345   9.016 -0.1061 -0.6923  0.3722
   46MOL0     C 6267   9.075  10.316   8.931  0.1681 -0.4171  0.9729
   46MOL0     C 6268   9.060  10.313   8.791 -0.1431 -0.1900  0.2028
   46MOL0     O 6269   9.163  10.278   8.715  0.8521  0.1975 -0.1203
   46MOL0     C 6270   9.175  10.291   8.569 -0.2670 -0.1682 -0.6471
   46MOL0     C 6271   9.325  10.255   8.542  0.4196 -0.4124  0.2551
   46MOL0     C 6272   9.353  10.225   8.384  0.1500  0.2955 -0.0852
   46MOL0     C 6273   9.312  10.337   8.289 -0.7604  0.0557 -0.0215
   46MOL0     C 6274   9.177  10.319   8.234  0.1734  0.3287  1.0100
   46MOL0     C 6275   9.072  10.300   8.177  0.3703 -0.0921  0.3633
   46MOL0     C 6276   8.934  10.366   8.741  0.8755 -0.3746  0.2653
   46MOL0     C 6277   8.826  10.389   8.826 -0.1113  0.3407 -0.4814
   46MOL0     C 6278   8.708  10.446   8.759 -0.4182 -0.6404  0.6925
   46MOL0     H 6279   8.527  10.728   9.132 -1.3029  0.5202  1.6273
   46MOL0     H 6280   8.296  10.751   9.198  0.8220  0.4017  0.3380
   46MOL0     H 6281   8.087  10.715   9.093  1.0599 -0.9576 -1.5821
   46MOL0     H 6282   8.093  10.742   9.260 -0.3762  1.0700 -2.9162
   46MOL0     H 6283   7.865  10.627   9.289  1.7273 -1.3749  0.1649
   46MOL0     H 6284   7.869  10.770   9.183  0.3224  0.1511 -1.3283
   46MOL0     H 6285   7.891  10.604   8.989 -1.2449 -1.9589 -1.0562
   46MOL0     H 6286   7.867  10.480   9.114  0.1850  1.3578  2.7091
   46MOL0     H 6287   7.650  10.574   9.174  0.6757 -2.3594  0.6745
   46MOL0     H 6288   7.663  10.669   9.015 -0.2108  0.0076  0.4189
   46MOL0     H 6289   7.675  10.366   9.039 -3.7637  1.5178  1.6984
   46MOL0     H 6290   7.691  10.462   8.889 -1.0890 -0.6550 -0.8835
   46MOL0     H 6291   7.448  10.452   9.084  0.1100 -2.2750  1.1418
   46MOL0     H 6292   7.464  10.538   8.930  0.5083 -0.6990 -0.4141
   46MOL0     H 6293   7.353  10.330   8.914 -0.1213  0.5480 -0.5420
   46MOL0     H 6294   7.493  10.259   9.014  1.8778  4.1347  2.2162
   46MOL0     H 6295   7.543  10.364   8.732 -0.2698  0.4781  0.8305
   46MOL0     H 6296   7.622  10.243   8.834  1.1321  1.0247  0.2887
   46MOL0     H 6297   7.449  10.003   8.854  1.4413  0.8675 -0.5183
   46MOL0     H 6298   7.180   9.862   8.644 -0.0583  1.2658 -1.2386
   46MOL0     H 6299   7.309   9.805   8.761  0.4088  0.6747  0.2604
   46MOL0     H 6300   7.365   9.805   8.467 -0.2402  0.5984  0.5196
   46MOL0     H 6301   7.446   9.742   8.615 -1.5521 -2.0533  1.2814
   46MOL0     H 6302   7.232   9.586   8.622 -1.3956 -2.5606 -2.2569
   46MOL0     H 6303   7.175   9.661   8.484 -0.6101 -1.2800  0.3206
   46MOL0     H 6304   7.398   9.588   8.359 -2.0948  2.1203  0.4418
   46MOL0     H 6305   7.436   9.530   8.506  0.0242 -0.1945 -1.0648
   46MOL0     H 6306   7.215   9.578   8.224  1.4144  0.2331 -0.8580
   46MOL0     H 6307   7.135   9.636   8.004 -1.8110  1.9937 -1.1622
   46MOL0     H 6308   6.964   9.599   8.007 -0.5911 -1.6370  1.4224
   46MOL0     H 6309   7.084   9.509   7.901  0.0019  0.9415 -0.2689
   46MOL0     H 6310   6.922   9.247   7.721  0.6791  1.4310 -0.8760
   46MOL0     H 6311   6.781   9.215   7.522 -1.6843 -0.3326 -0.0145
   46MOL0     H 6312   6.663   9.360   7.378 -1.4422  2.1667 -2.5575
   46MOL0     H 6313   6.524   9.252   7.319  0.7922 -2.7986  2.2409
   46MOL0     H 6314   6.382   9.426   7.356  0.3659 -2.1082  0.1928
   46MOL0     H 6315   6.488   9.525   7.447  2.4722 -0.4357  0.4927
   46MOL0     H 6316   6.481   9.611   7.204  1.2381 -0.8088 -2.0699
   46MOL0     H 6317   6.560   9.470   7.149  2.8859  0.9425 -0.1717
   46MOL0     H 6318   6.753   9.550   7.300  1.4176 -0.2707 -4.4833
   46MOL0     H 6319   6.656   9.693   7.340  3.9262 -0.1411  1.8675
   46MOL0     H 6320   6.633   9.752   7.112 -1.0618 -0.3354  4.3211
   46MOL0     H 6321   6.804   9.753   7.168  0.5147 -0.6504 -0.7949
   46MOL0     H 6322   6.684   9.558   6.967  1.0092  0.7031 -1.1732
   46MOL0     H 6323   6.832   9.519   7.040  1.4114  0.2415 -1.7395
   46MOL0     H 6324   6.968   9.670   6.981  1.1931 -1.6573 -0.6831
   46MOL0     H 6325   6.848   9.784   6.929 -1.5242  0.2819 -0.5213
   46MOL0     H 6326   6.974   9.660   6.735  0.6831 -0.5752 -0.3313
   46MOL0     H 6327   6.807   9.668   6.723  0.2727  3.1851  1.6192
   46MOL0     H 6328   6.464   9.423   7.724  0.7772  0.0819  1.1861
   46MOL0     H 6329   6.613   9.452   7.918  1.4839  0.7631 -0.7270
   46MOL0     H 6330   7.011   9.136   8.204  1.5695  0.0819 -0.9572
   46MOL0     H 6331   7.153   9.185   8.379  1.3785 -0.9257 -1.3903
   46MOL0     H 6332   8.247  10.324   9.129  0.0994  0.1136 -1.0447
   46MOL0     H 6333   8.464  10.302   9.078  1.1866 -1.5542  2.2638
   46MOL0     H 6334   8.989  10.316   9.119 -1.1265 -0.5685  0.5988
   46MOL0     H 6335   9.173  10.289   8.968  0.2350 -0.1746  0.9705
   46MOL0     H 6336   9.100  10.238   8.510  2.0843 -1.2660 -2.8612
   46MOL0     H 6337   9.168  10.398   8.547 -0.4474 -0.2604 -1.0555
   46MOL0     H 6338   9.348  10.161   8.593 -3.3334 -0.6758  1.7715
   46MOL0     H 6339   9.395  10.333   8.576  1.3875  2.0467 -6.0217
   46MOL0     H 6340   9.459  10.205   8.368  0.5037  0.9013  1.3815
   46MOL0     H 6341   9.309  10.126   8.367  2.1442 -0.3236 -2.3330
   46MOL0     H 6342   9.386  10.347   8.209 -1.7054  2.5914 -0.6802
   46MOL0     H 6343   9.317  10.431   8.344 -0.2524 -0.7958  1.4326
   46MOL0     H 6344   8.990  10.273   8.114 -0.9507  1.9950  1.1062
   46MOL0     H 6345   8.932  10.365   8.633 -0.4199 -0.9023  0.2719
   46MOL0     H 6346   8.615  10.408   8.802  0.3782 -1.0885  2.0765
   46MOL0     H 6347   8.711  10.555   8.762  0.0379 -0.6251  0.0207
   46MOL0     H 6348   8.710  10.418   8.653 -1.0308 -0.6375  0.6746
   47MOL0     O 6349   3.766   6.934   7.556  0.7057  0.0156  0.1072
   47MOL0     C 6350   3.660   6.896   7.496 -0.0014 -0.3939  1.0155
   47MOL0     O 6351   3.650   6.808   7.386  0.0279  1.1973 -0.7250
   47MOL0     C 6352   3.778   6.763   7.344  0.2153  0.0800 -1.6687
   47MOL0     C 6353   3.852   6.666   7.422 -0.6758  0.6456  0.2549
   47MOL0     C 6354   3.974   6.617   7.383 -0.5595  0.9674  0.6224
   47MOL0     C 6355   4.023   6.661   7.260 -0.0779 -0.6750 -0.1359
   47MOL0     O 6356   4.142   6.612   7.218 -0.3765 -0.0837 -0.0591
   47MOL0     C 6357   4.244   6.706   7.166 -0.1472  0.1029 -0.7076
   47MOL0     C 6358   4.393   6.668   7.189  0.0231 -0.7579 -0.0773
   47MOL0     C 6359   4.458   6.650   7.043 -0.2562 -0.1861 -0.5302
   47MOL0     C 6360   4.592   6.573   7.040  0.2193  0.8544  0.1515
   47MOL0     C 6361   4.634   6.508   6.907 -0.0595 -0.0175 -0.6614
   47MOL0     C 6362   4.538   6.393   6.860 -0.0965 -0.0796 -0.0286
   47MOL0     C 6363   4.595   6.246   6.871 -0.3260 -0.0492  0.2165
   47MOL0     C 6364   4.652   6.200   6.738  1.4727  0.7158 -0.2623
   47MOL0     N 6365   4.770   6.269   6.689  0.4301  0.0988  0.3906
   47MOL0     C 6366   4.884   6.274   6.761  0.0268 -0.1986  0.0702
   47MOL0     C 6367   4.976   6.311   6.673 -0.0172  0.2253  0.6796
   47MOL0     C 6368   5.122   6.332   6.702 -0.3134 -0.0612 -0.1049
   47MOL0     C 6369   5.165   6.475   6.659 -0.0369  0.2442 -0.1105
   47MOL0     C 6370   5.315   6.471   6.647  0.6205 -0.4310  0.3711
   47MOL0     C 6371   5.371   6.585   6.562  0.0333  0.1428 -0.8177
   47MOL0     O 6372   5.337   6.569   6.426  0.1401  0.5098 -0.4977
   47MOL0     C 6373   5.388   6.658   6.335  0.0019 -0.0567 -0.7773
   47MOL0     C 6374   5.353   6.632   6.207 -0.5567 -0.3140 -0.6732
   47MOL0     C 6375   5.402   6.707   6.094 -0.3404  0.7397 -0.3780
   47MOL0     C 6376   5.370   6.654   5.960 -0.1222 -0.2985  0.8699
   47MOL0     C 6377   5.485   6.819   6.123  0.2211  0.1026 -0.2263
   47MOL0     C 6378   5.544   6.902   6.014  0.0384 -0.4632 -0.4969
   47MOL0     O 6379   5.561   7.041   6.021  0.0965  0.5668 -0.6539
   47MOL0     C 6380   5.656   7.096   5.939  0.7139 -0.0694  0.0583
   47MOL0     C 6381   5.787   7.047   5.920 -0.0956  0.2029  0.3602
   47MOL0     C 6382   5.891   7.131   5.864  0.0946 -1.0363 -0.0699
   47MOL0     C 6383   5.863   7.261   5.826 -1.0073 -0.7234 -0.3524
   47MOL0     O 6384   5.973   7.339   5.787  0.0893  0.4295 -0.5685
   47MOL0     C 6385   5.973   7.478   5.814  0.4282 -0.8233 -0.3774
   47MOL0     C 6386   6.119   7.525   5.799  0.1327 -1.1528 -0.7505
   47MOL0     C 6387   6.199   7.522   5.935 -0.3230 -0.0914  0.5602
   47MOL0     C 6388   6.356   7.522   5.918  0.4018  0.9915  0.6974
   47MOL0     C 6389   6.430   7.484   6.048  1.1290  0.0401  0.5230
   47MOL0     C 6390   6.575   7.528   6.041  0.4817  0.7413 -0.2646
   47MOL0     C 6391   6.634   7.505   6.173 -0.0416  0.8013 -0.6130
   47MOL0     C 6392   6.791   7.490   6.170 -0.4496  0.0546  0.2184
   47MOL0    Cl 6393   6.844   7.444   6.339 -0.0044  0.3226 -0.5394
   47MOL0     C 6394   5.729   7.306   5.837 -0.8463 -0.0836 -0.1235
   47MOL0     C 6395   5.629   7.222   5.896  0.3484  0.1036  0.2916
   47MOL0     O 6396   5.575   6.840   5.912  1.0989 -0.7154  0.1723
   47MOL0     C 6397   5.507   6.856   6.259 -0.2911  0.2827  0.7664
   47MOL0     C 6398   5.466   6.769   6.358  0.1541 -0.3285 -0.4992
   47MOL0     N 6399   4.919   6.341   6.557  0.1401  0.1706  0.1768
   47MOL0     N 6400   4.791   6.305   6.557  0.2867  0.1010  0.1133
   47MOL0     C 6401   3.946   6.739   7.176 -0.2541 -0.0461 -0.5937
   47MOL0     C 6402   3.827   6.805   7.222 -0.4723  0.0961 -0.0433
   47MOL0     C 6403   3.543   6.953   7.557 -0.2508 -0.7569  0.6584
   47MOL0     C 6404   3.522   7.089   7.537 -0.1503 -0.3277  0.5666
   47MOL0     C 6405   3.403   7.152   7.562  0.2060  0.0631  0.2203
   47MOL0     C 6406   3.285   7.085   7.603 -0.3183  0.5537 -0.0742
   47MOL0     O 6407   3.163   7.142   7.624 -0.3271  0.3812  0.1229
   47MOL0     C 6408   3.149   7.278   7.590  0.6144  0.3356 -0.5420
   47MOL0     C 6409   3.154   7.299   7.426 -0.3137 -0.2287 -0.3423
   47MOL0     C 6410   3.017   7.267   7.370  0.8990  0.1565 -0.0450
   47MOL0     C 6411   3.042   7.175   7.246 -0.8592 -0.2188  0.5230
   47MOL0     C 6412   3.103   7.265   7.138  0.7683  0.4678 -0.1251
   47MOL0     C 6413   3.130   7.333   7.043 -0.0376  0.6300  0.1815
   47MOL0     C 6414   3.301   6.939   7.617 -0.2483 -0.1387 -0.1995
   47MOL0     C 6415   3.432   6.875   7.597 -0.0064 -0.0398 -0.7883
   47MOL0     C 6416   3.442   6.727   7.588 -0.2271  0.2247 -0.2908
   47MOL0     H 6417   3.816   6.645   7.522 -1.1837 -0.5156 -0.1461
   47MOL0     H 6418   4.040   6.551   7.437  2.4066  1.3640 -2.1723
   47MOL0     H 6419   4.222   6.801   7.215 -1.2689 -0.4206 -0.1449
   47MOL0     H 6420   4.223   6.728   7.061  0.9583  0.1723 -0.9241
   47MOL0     H 6421   4.446   6.758   7.221 -1.7157  1.2763 -2.4778
   47MOL0     H 6422   4.403   6.578   7.249 -0.0119  0.9238  2.6292
   47MOL0     H 6423   4.389   6.602   6.973 -1.3190  1.0179 -0.3497
   47MOL0     H 6424   4.490   6.749   7.010  0.7000 -0.0876  0.6542
   47MOL0     H 6425   4.673   6.640   7.069  1.3613  0.1640 -1.3031
   47MOL0     H 6426   4.595   6.494   7.115  2.9601 -2.6809 -3.2829
   47MOL0     H 6427   4.737   6.471   6.896  0.1968  0.3115  0.4810
   47MOL0     H 6428   4.623   6.590   6.836  0.6292  0.7325  0.0716
   47MOL0     H 6429   4.447   6.389   6.921 -0.8281  2.6536 -0.8007
   47MOL0     H 6430   4.523   6.411   6.753  1.9346 -0.4293 -0.4060
   47MOL0     H 6431   4.516   6.177   6.901  1.9520 -2.0057  2.1983
   47MOL0     H 6432   4.669   6.233   6.951  0.1533  0.0409 -0.2024
   47MOL0     H 6433   4.662   6.092   6.730 -4.1580 -0.0802 -0.3373
   47MOL0     H 6434   4.573   6.215   6.663  0.5087 -2.4488 -0.0155
   47MOL0     H 6435   4.895   6.252   6.867 -2.4193  2.2623  0.9800
   47MOL0     H 6436   5.179   6.252   6.654  1.1133  0.3047  0.9126
   47MOL0     H 6437   5.136   6.327   6.810 -0.6594  0.3927 -0.0378
   47MOL0     H 6438   5.121   6.499   6.562  1.1493 -2.2927 -1.3895
   47MOL0     H 6439   5.131   6.551   6.730  1.5445  1.5306 -0.6549
   47MOL0     H 6440   5.353   6.490   6.748  0.1715 -1.2410  0.6975
   47MOL0     H 6441   5.358   6.381   6.604  0.7127  0.0901 -0.6522
   47MOL0     H 6442   5.329   6.682   6.593  2.2616  1.0218 -0.2927
   47MOL0     H 6443   5.479   6.591   6.583 -0.1456 -0.9388  0.5379
   47MOL0     H 6444   5.281   6.552   6.198 -1.3978  0.3455  0.0002
   47MOL0     H 6445   5.271   6.609   5.955 -0.7610  1.2324 -2.2144
   47MOL0     H 6446   5.438   6.576   5.925 -1.5989 -0.5976 -1.5275
   47MOL0     H 6447   5.377   6.732   5.884  3.5944 -0.4441  0.8543
   47MOL0     H 6448   5.801   6.958   5.980  4.6518  0.3082 -0.2627
   47MOL0     H 6449   5.996   7.100   5.862  0.8787  1.4438 -0.5653
   47MOL0     H 6450   5.899   7.530   5.753 -0.7614 -0.3631  1.3879
   47MOL0     H 6451   5.946   7.501   5.917  0.7484  2.2248 -0.8832
   47MOL0     H 6452   6.174   7.463   5.727 -0.4040 -0.0547 -2.1663
   47MOL0     H 6453   6.123   7.628   5.761 -0.0063 -0.5207  0.8879
   47MOL0     H 6454   6.164   7.435   5.992  0.5910 -1.4715 -0.8823
   47MOL0     H 6455   6.167   7.606   5.997  0.5935 -1.6289  3.2911
   47MOL0     H 6456   6.392   7.618   5.879 -2.5962  1.9474  0.0828
   47MOL0     H 6457   6.378   7.443   5.846 -0.2871  0.5997  0.9059
   47MOL0     H 6458   6.389   7.545   6.129  2.1279  3.0799 -1.1054
   47MOL0     H 6459   6.427   7.374   6.054  0.7540 -0.0377 -0.8178
   47MOL0     H 6460   6.573   7.633   6.009 -4.3780  1.1658  0.5595
   47MOL0     H 6461   6.627   7.465   5.968  1.1219  0.5927  0.3117
   47MOL0     H 6462   6.600   7.407   6.209 -1.3377  1.8819  1.3136
   47MOL0     H 6463   6.591   7.576   6.245 -1.3574  0.5330 -1.0928
   47MOL0     H 6464   6.831   7.586   6.138 -0.5113  0.5585  1.5879
   47MOL0     H 6465   6.822   7.407   6.106  2.3143  1.8565 -0.9599
   47MOL0     H 6466   5.708   7.408   5.806 -1.3452 -0.3536 -0.7008
   47MOL0     H 6467   5.526   7.251   5.912  0.6104  0.5521  1.2362
   47MOL0     H 6468   5.566   6.944   6.282 -0.4277  0.6703 -0.3391
   47MOL0     H 6469   5.499   6.803   6.456 -1.3442  2.0524 -0.7404
   47MOL0     H 6470   3.979   6.760   7.075  1.1160  2.2665  0.2616
   47MOL0     H 6471   3.769   6.858   7.148  3.0147  1.0960 -2.3056
   47MOL0     H 6472   3.595   7.148   7.482 -1.4467  0.1978 -0.6506
   47MOL0     H 6473   3.411   7.260   7.560  1.2928  0.0320  1.4995
   47MOL0     H 6474   3.050   7.316   7.619  0.1315 -0.6478 -0.8630
   47MOL0     H 6475   3.224   7.333   7.646 -1.2207  0.1455  2.3111
   47MOL0     H 6476   3.243   7.250   7.386  0.2460  0.8949 -0.5343
   47MOL0     H 6477   3.168   7.407   7.411 -1.4445 -0.0582 -0.2221
   47MOL0     H 6478   2.949   7.209   7.433 -0.3980 -0.4585 -1.8900
   47MOL0     H 6479   2.961   7.359   7.354  2.5423  1.4789  1.3981
   47MOL0     H 6480   2.946   7.134   7.214 -1.4800  2.0796 -0.8327
   47MOL0     H 6481   3.095   7.085   7.278 -2.6947 -1.5588 -0.0661
   47MOL0     H 6482   3.168   7.399   6.968 -1.6807 -0.5019 -1.7339
   47MOL0     H 6483   3.213   6.877   7.634  0.8906 -2.5095 -2.2619
   47MOL0     H 6484   3.349   6.679   7.619 -1.0043  2.1304  0.4953
   47MOL0     H 6485   3.458   6.696   7.484  0.0047 -0.6280 -0.0043
   47MOL0     H 6486   3.524   6.689   7.650  0.4855  1.3206 -0.5259
   48MOL0     O 6487   4.695   9.735   1.943 -0.3307 -0.4056  0.1235
   48MOL0     C 6488   4.673   9.776   1.830 -0.8137 -0.2956  0.7675
   48MOL0     O 6489   4.776   9.794   1.741  0.2132  0.4677 -0.0232
   48MOL0     C 6490   4.907   9.805   1.789 -0.1491  0.3392  0.0486
   48MOL0     C 6491   5.008   9.713   1.762  0.2865 -0.2483  0.2459
   48MOL0     C 6492   5.139   9.734   1.792  0.4780  0.8235 -0.5128
   48MOL0     C 6493   5.169   9.827   1.889 -0.2783 -0.0772 -0.8147
   48MOL0     O 6494   5.297   9.857   1.942  0.9938 -0.9072 -0.2006
   48MOL0     C 6495   5.389   9.749   1.939 -0.3850 -0.5491 -0.1651
   48MOL0     C 6496   5.528   9.816   1.950  0.3465 -0.9103  0.4323
   48MOL0     C 6497   5.622   9.697   1.934 -0.0450 -0.4804 -0.3209
   48MOL0     C 6498   5.760   9.737   1.988 -0.3746 -0.9474  0.3154
   48MOL0     C 6499   5.876   9.645   1.936 -0.4513  0.1692 -0.8265
   48MOL0     C 6500   5.855   9.500   1.986 -0.0846 -0.6743 -0.0824
   48MOL0     C 6501   5.982   9.407   1.969  0.1119  0.3573  0.4371
   48MOL0     C 6502   6.103   9.434   2.066 -0.3532  0.2830  1.3869
   48MOL0     N 6503   6.225   9.364   2.013 -0.5154 -0.6680 -0.3354
   48MOL0     C 6504   6.298   9.410   1.905  0.6606 -0.2181 -0.0982
   48MOL0     C 6505   6.372   9.301   1.885 -0.6777 -0.3967  0.2565
   48MOL0     C 6506   6.479   9.284   1.770  0.6370 -0.0227 -0.3656
   48MOL0     C 6507   6.587   9.384   1.811  0.4429 -0.4581 -0.3554
   48MOL0     C 6508   6.693   9.378   1.707  0.4086 -0.4834  0.4220
   48MOL0     C 6509   6.808   9.471   1.731 -0.1344  1.0535  0.3193
   48MOL0     O 6510   6.773   9.609   1.723  0.1682 -0.1092  0.1181
   48MOL0     C 6511   6.822   9.686   1.619 -0.1609  0.2098 -0.9361
   48MOL0     C 6512   6.771   9.675   1.486  0.3610  0.9450 -0.8121
   48MOL0     C 6513   6.823   9.753   1.381  0.1971  0.3649  0.1009
   48MOL0     C 6514   6.773   9.723   1.239 -0.0691 -0.2604  0.4287
   48MOL0     C 6515   6.909   9.867   1.409 -0.1108 -0.5275  0.5248
   48MOL0     C 6516   6.945   9.972   1.304 -1.1083  0.2464 -0.3006
   48MOL0     O 6517   6.949   9.936   1.173 -0.4954 -0.1416  0.2523
   48MOL0     C 6518   6.964  10.042   1.089  0.8973 -0.5514  0.7144
   48MOL0     C 6519   7.064  10.032   0.996 -0.4835  0.0173 -0.7331
   48MOL0     C 6520   7.091  10.135   0.908  0.1769  0.2430 -0.2900
   48MOL0     C 6521   7.013  10.251   0.917  0.0681 -0.2109  0.3443
   48MOL0     O 6522   7.042  10.349   0.825  0.1923  0.0461 -0.6367
   48MOL0     C 6523   7.050  10.479   0.890 -0.0943 -0.0521 -0.2294
   48MOL0     C 6524   7.116  10.570   0.795 -0.1744  0.1362 -0.1876
   48MOL0     C 6525   7.047  10.595   0.663  0.7897 -0.1248  0.7618
   48MOL0     C 6526   7.153  10.628   0.553  0.2205 -0.2934 -0.7157
   48MOL0     C 6527   7.081  10.700   0.440 -0.3355  0.0928 -0.6462
   48MOL0     C 6528   7.169  10.740   0.324 -0.7353  0.3295  0.0202
   48MOL0     C 6529   7.092  10.788   0.191 -0.3070 -0.2038 -0.2987
   48MOL0     C 6530   7.028  10.672   0.108 -0.5462 -0.2575 -0.3200
   48MOL0    Cl 6531   6.850  10.658   0.137 -0.3846 -0.8154 -0.2360
   48MOL0     C 6532   6.911  10.264   1.006  0.1384  0.1475  0.7431
   48MOL0     C 6533   6.875  10.155   1.078  1.1187 -0.5467 -0.1500
   48MOL0     O 6534   7.003  10.077   1.357 -0.4065  0.5168 -0.1613
   48MOL0     C 6535   6.956   9.873   1.541 -0.3095  0.3977 -0.5262
   48MOL0     C 6536   6.908   9.789   1.644 -0.5635 -0.0609  0.1154
   48MOL0     N 6537   6.357   9.203   1.979  0.7180  0.6614 -0.9334
   48MOL0     N 6538   6.267   9.243   2.062  0.5763 -0.4471 -0.1153
   48MOL0     C 6539   5.066   9.920   1.928 -0.1404  0.6116  0.2954
   48MOL0     C 6540   4.930   9.909   1.881  0.0600 -0.2831 -0.4221
   48MOL0     C 6541   4.541   9.809   1.778 -0.5802  0.4375 -0.0851
   48MOL0     C 6542   4.509   9.799   1.648  0.1881  0.2733  0.2188
   48MOL0     C 6543   4.374   9.810   1.603  0.1286 -0.2911  0.3079
   48MOL0     C 6544   4.283   9.844   1.689  0.4380  0.3022  0.7157
   48MOL0     O 6545   4.156   9.850   1.644  0.2243  0.5664  0.0523
   48MOL0     C 6546   4.073   9.968   1.683  1.4441  0.0218 -0.4370
   48MOL0     C 6547   3.938   9.947   1.612 -0.2292  0.0384 -0.2806
   48MOL0     C 6548   3.812  10.013   1.673 -0.4786  0.5196 -0.1592
   48MOL0     C 6549   3.826  10.158   1.701  0.1051  0.1491 -0.2330
   48MOL0     C 6550   3.850  10.242   1.581 -0.2396 -0.0541  0.2094
   48MOL0     C 6551   3.863  10.322   1.490  0.1760 -0.5372  0.0807
   48MOL0     C 6552   4.319   9.876   1.818  1.2918  0.1429 -0.4342
   48MOL0     C 6553   4.444   9.857   1.866  0.1701 -0.1840  0.1560
   48MOL0     C 6554   4.461   9.872   2.012 -0.0852  0.0158 -0.7004
   48MOL0     H 6555   4.992   9.631   1.692 -0.0181  1.8922 -2.3639
   48MOL0     H 6556   5.214   9.668   1.749  0.6440  0.6866 -0.0191
   48MOL0     H 6557   5.393   9.705   1.839  0.4865 -1.0412  0.0818
   48MOL0     H 6558   5.374   9.659   1.999 -0.2993 -1.9910 -2.1821
   48MOL0     H 6559   5.534   9.889   1.869 -0.5426  0.8042  1.8454
   48MOL0     H 6560   5.555   9.866   2.043  2.1644  0.6964 -0.8736
   48MOL0     H 6561   5.591   9.608   1.991 -0.7742  0.7947  1.3428
   48MOL0     H 6562   5.635   9.681   1.827  0.2665  1.8883 -0.6929
   48MOL0     H 6563   5.781   9.839   1.955 -1.3649 -1.1088 -0.9073
   48MOL0     H 6564   5.756   9.749   2.097 -2.6751  1.4987  0.0563
   48MOL0     H 6565   5.973   9.686   1.965  0.9024 -0.9453 -3.4072
   48MOL0     H 6566   5.869   9.632   1.827 -1.0776  0.6844 -0.8548
   48MOL0     H 6567   5.831   9.489   2.092  1.1334 -2.6277  0.0405
   48MOL0     H 6568   5.768   9.463   1.930 -1.3413  1.6706  0.2167
   48MOL0     H 6569   6.026   9.404   1.869  0.4463 -0.7294  0.6027
   48MOL0     H 6570   5.953   9.306   1.997 -0.0225  0.2566 -0.0612
   48MOL0     H 6571   6.114   9.543   2.074 -1.0453  0.4114  0.6595
   48MOL0     H 6572   6.081   9.388   2.163 -4.4130 -1.4480 -0.1823
   48MOL0     H 6573   6.287   9.512   1.868  0.6875  0.7895  2.4423
   48MOL0     H 6574   6.423   9.310   1.680  2.2378 -1.9711 -2.0504
   48MOL0     H 6575   6.516   9.181   1.763  1.2271 -0.0098  1.8062
   48MOL0     H 6576   6.553   9.487   1.824  0.2526 -0.7159  1.2821
   48MOL0     H 6577   6.624   9.346   1.906  0.0580 -1.5841 -0.6382
   48MOL0     H 6578   6.731   9.277   1.719  1.5597 -0.0663  0.4557
   48MOL0     H 6579   6.639   9.394   1.614  2.0220  2.0441 -0.1962
   48MOL0     H 6580   6.867   9.443   1.819  0.9860  0.0004 -0.7341
   48MOL0     H 6581   6.878   9.459   1.648 -2.4853 -2.1959 -1.3912
   48MOL0     H 6582   6.697   9.596   1.475  0.4812  0.7741 -0.4195
   48MOL0     H 6583   6.695   9.647   1.246  1.5438 -1.9276  1.5420
   48MOL0     H 6584   6.851   9.681   1.174 -1.1970  0.6784 -1.6334
   48MOL0     H 6585   6.741   9.817   1.194  2.5211 -0.0621 -1.2038
   48MOL0     H 6586   7.141   9.956   1.007 -0.5289  0.0955  0.1357
   48MOL0     H 6587   7.178  10.139   0.842 -0.0293 -2.0123 -0.8025
   48MOL0     H 6588   6.950  10.510   0.921  0.2516 -0.8287  1.8457
   48MOL0     H 6589   7.115  10.474   0.978  0.2364  0.0683 -0.4657
   48MOL0     H 6590   7.131  10.670   0.836  1.5436  1.6215 -3.9834
   48MOL0     H 6591   7.218  10.532   0.778  0.1657  1.6136 -1.6610
   48MOL0     H 6592   6.973  10.675   0.673 -0.4683 -1.1097 -0.2506
   48MOL0     H 6593   7.001  10.501   0.632  1.9662 -0.1037 -1.2700
   48MOL0     H 6594   7.205  10.538   0.517 -1.7806 -1.8209  0.0022
   48MOL0     H 6595   7.213  10.706   0.599  0.0324 -0.7069  0.2651
   48MOL0     H 6596   7.000  10.642   0.395 -0.2107  0.8708 -1.9153
   48MOL0     H 6597   7.041  10.794   0.477  1.1708  0.5055  0.0211
   48MOL0     H 6598   7.236  10.654   0.308  0.7054  0.8304  2.7221
   48MOL0     H 6599   7.233  10.822   0.358  1.0132 -0.7811 -0.4522
   48MOL0     H 6600   7.163  10.852   0.138  1.0857  1.0139  2.7488
   48MOL0     H 6601   7.007  10.847   0.228 -0.0939 -0.5432  0.7691
   48MOL0     H 6602   7.076  10.579   0.140  0.3142  0.2131 -0.2052
   48MOL0     H 6603   7.056  10.694   0.005  0.4579  0.7494  0.1425
   48MOL0     H 6604   6.850  10.354   1.010  0.7950  0.9503 -3.4970
   48MOL0     H 6605   6.798  10.165   1.153  1.6332 -0.1960  0.3428
   48MOL0     H 6606   7.020   9.953   1.579 -2.1783  1.9059 -0.4258
   48MOL0     H 6607   6.948   9.807   1.743 -0.1990 -0.8862  0.1231
   48MOL0     H 6608   5.101  10.001   1.992 -0.5382  1.6169 -0.7197
   48MOL0     H 6609   4.861   9.981   1.923  2.8110  1.5039  1.3785
   48MOL0     H 6610   4.575   9.754   1.575 -0.2925  1.7088 -1.1468
   48MOL0     H 6611   4.340   9.789   1.502  0.1335  0.5125  0.1343
   48MOL0     H 6612   4.057   9.962   1.791 -2.4345  0.2259 -0.8601
   48MOL0     H 6613   4.126  10.061   1.657  0.0324  1.5470  1.7270
   48MOL0     H 6614   3.918   9.840   1.614 -2.2078  0.3201 -1.4886
   48MOL0     H 6615   3.951   9.974   1.507 -0.0448  0.5345 -0.1343
   48MOL0     H 6616   3.723   9.991   1.613 -0.2854 -2.0180  0.3727
   48MOL0     H 6617   3.809   9.956   1.766  2.4693  0.3014 -0.1069
   48MOL0     H 6618   3.894  10.174   1.786 -1.4994 -1.3613  1.4326
   48MOL0     H 6619   3.730  10.199   1.735  0.2902  0.0964  0.3695
   48MOL0     H 6620   3.881  10.392   1.411 -5.3510  0.5993 -0.5915
   48MOL0     H 6621   4.242   9.926   1.875  0.1916 -0.0681 -1.6822
   48MOL0     H 6622   4.488   9.775   2.054  1.5441  0.9417  0.5076
   48MOL0     H 6623   4.540   9.947   2.024  0.5091 -0.6416 -0.4084
   48MOL0     H 6624   4.376   9.904   2.073 -0.2194 -0.3933 -0.6716
   49MOL0     O 6625   3.848   3.538   6.462  0.4157  0.4121  0.2474
   49MOL0     C 6626   3.764   3.578   6.543 -0.6371 -0.1819  0.0699
   49MOL0     O 6627   3.785   3.677   6.637 -0.1153 -0.0326  0.5884
   49MOL0     C 6628   3.883   3.767   6.619  0.3246  0.9526  0.3849
   49MOL0     C 6629   3.852   3.893   6.567  0.3983 -0.4883  0.3877
   49MOL0     C 6630   3.961   3.983   6.536  0.1176 -0.6293 -0.2996
   49MOL0     C 6631   4.086   3.964   6.590  0.2260 -0.3644 -0.2595
   49MOL0     O 6632   4.190   4.050   6.579 -0.2902 -0.1634  0.0184
   49MOL0     C 6633   4.193   4.157   6.485  0.5829 -0.7997 -0.6383
   49MOL0     C 6634   4.307   4.248   6.498  0.1543 -0.7328  0.7566
   49MOL0     C 6635   4.440   4.181   6.460 -0.3176 -0.7545  0.1493
   49MOL0     C 6636   4.551   4.278   6.478  0.2628 -0.5098 -0.1741
   49MOL0     C 6637   4.679   4.211   6.427  0.0802 -0.2939 -1.1730
   49MOL0     C 6638   4.809   4.265   6.503  0.1977 -0.3359  0.7455
   49MOL0     C 6639   4.833   4.415   6.484  0.7172 -1.2298 -0.1049
   49MOL0     C 6640   4.982   4.455   6.506  0.4701 -0.8025  0.7114
   49MOL0     N 6641   5.007   4.467   6.649 -0.3107 -0.8957 -0.4585
   49MOL0     C 6642   5.052   4.372   6.733  0.2643 -0.3087 -0.2435
   49MOL0     C 6643   5.093   4.437   6.846 -0.3325 -0.4205  0.1734
   49MOL0     C 6644   5.172   4.383   6.966  0.3288 -0.6326  0.1664
   49MOL0     C 6645   5.314   4.433   6.972 -0.0366  0.1322  0.0192
   49MOL0     C 6646   5.399   4.339   7.071  1.3443  1.1818  0.4640
   49MOL0     C 6647   5.352   4.368   7.211 -0.4639  0.1386  0.1604
   49MOL0     O 6648   5.426   4.303   7.308  0.7373 -0.2144 -0.3850
   49MOL0     C 6649   5.541   4.358   7.346 -0.3830 -0.5587  0.6956
   49MOL0     C 6650   5.659   4.290   7.334  1.0211  0.1510  0.5628
   49MOL0     C 6651   5.784   4.349   7.360 -0.4974 -0.6573 -0.5727
   49MOL0     C 6652   5.903   4.269   7.304 -1.0101 -0.2123  0.5312
   49MOL0     C 6653   5.784   4.483   7.410 -0.2225 -0.7447 -0.3087
   49MOL0     C 6654   5.910   4.549   7.454 -0.4814  0.3902 -0.2731
   49MOL0     O 6655   6.009   4.465   7.500  0.3522  0.0669  0.0905
   49MOL0     C 6656   6.132   4.524   7.513  0.3840  0.2455 -0.0369
   49MOL0     C 6657   6.186   4.525   7.640 -0.5452  0.4354  0.4644
   49MOL0     C 6658   6.314   4.590   7.659 -0.6835  0.4557  0.0684
   49MOL0     C 6659   6.383   4.658   7.557 -0.5321  1.7360 -0.4444
   49MOL0     O 6660   6.505   4.714   7.568  0.8226 -0.3432 -0.3435
   49MOL0     C 6661   6.581   4.676   7.683 -0.9079 -0.0488  0.2281
   49MOL0     C 6662   6.714   4.746   7.685 -0.1495  0.0490 -1.0560
   49MOL0     C 6663   6.801   4.717   7.567 -0.2348 -0.7068  0.5212
   49MOL0     C 6664   6.799   4.809   7.449 -0.3612 -0.4262 -0.6484
   49MOL0     C 6665   6.950   4.820   7.409  0.4628  0.4887  1.1241
   49MOL0     C 6666   6.944   4.864   7.259 -0.3597 -0.1303 -0.2166
   49MOL0     C 6667   7.084   4.904   7.203  0.2324  0.1034 -0.2867
   49MOL0     C 6668   7.049   4.963   7.057 -0.6166  0.7925 -0.6258
   49MOL0    Cl 6669   7.198   5.013   6.983 -0.0337  0.1906 -0.2209
   49MOL0     C 6670   6.317   4.655   7.433  0.1738  0.1498  0.3236
   49MOL0     C 6671   6.201   4.585   7.408 -0.0627 -0.5336  0.3215
   49MOL0     O 6672   5.918   4.669   7.454  0.1339 -0.7980  0.0317
   49MOL0     C 6673   5.665   4.554   7.427 -0.4904 -0.0808  0.8990
   49MOL0     C 6674   5.539   4.495   7.396  0.2824  0.3102 -0.8118
   49MOL0     N 6675   5.084   4.578   6.828  0.0304  0.3413  0.8802
   49MOL0     N 6676   5.028   4.587   6.720 -0.5848  0.1035  0.9857
   49MOL0     C 6677   4.102   3.852   6.669 -0.6450  0.2921 -0.9983
   49MOL0     C 6678   4.010   3.751   6.678 -0.0471 -0.0204 -0.0833
   49MOL0     C 6679   3.645   3.480   6.559 -0.5649 -0.7829 -0.0357
   49MOL0     C 6680   3.670   3.336   6.565 -0.5207 -0.6798  0.2043
   49MOL0     C 6681   3.568   3.255   6.600  0.4111  0.2572 -0.5104
   49MOL0     C 6682   3.441   3.301   6.634 -0.8385  0.4829 -0.4741
   49MOL0     O 6683   3.337   3.216   6.656  0.7715 -0.1247  0.6552
   49MOL0     C 6684   3.358   3.100   6.734  1.2691 -0.4285  0.0730
   49MOL0     C 6685   3.356   3.145   6.890  0.9590 -0.5193 -0.1993
   49MOL0     C 6686   3.329   3.027   6.985 -0.2674  0.1261  0.5641
   49MOL0     C 6687   3.324   3.076   7.128 -0.5499 -0.6470  0.1649
   49MOL0     C 6688   3.449   3.129   7.176  0.4841  0.4172  0.3476
   49MOL0     C 6689   3.555   3.179   7.203  0.3326  0.6365  0.1794
   49MOL0     C 6690   3.415   3.436   6.636 -0.7167 -0.0022 -0.2414
   49MOL0     C 6691   3.512   3.531   6.601  0.2022  0.6645  0.1496
   49MOL0     C 6692   3.484   3.672   6.638 -0.2096  0.4762 -0.4046
   49MOL0     H 6693   3.751   3.906   6.529  0.4795 -3.1251 -0.9245
   49MOL0     H 6694   3.930   4.068   6.475 -1.8293  0.3875  1.9377
   49MOL0     H 6695   4.098   4.210   6.493  0.2422 -1.0638 -2.3905
   49MOL0     H 6696   4.187   4.116   6.384 -1.5160 -0.1530 -0.8294
   49MOL0     H 6697   4.291   4.325   6.421  1.2558  0.2466  1.4730
   49MOL0     H 6698   4.309   4.291   6.598 -2.4122  2.3311 -0.3128
   49MOL0     H 6699   4.453   4.104   6.536  4.0957 -0.3276  0.1293
   49MOL0     H 6700   4.444   4.125   6.366 -1.6586 -2.2825  0.9600
   49MOL0     H 6701   4.532   4.367   6.418 -2.4424  0.0533  1.3801
   49MOL0     H 6702   4.563   4.305   6.584 -3.1747 -0.7163  0.3842
   49MOL0     H 6703   4.694   4.225   6.319  4.4373  2.0108 -0.5211
   49MOL0     H 6704   4.678   4.105   6.454 -0.1504  0.7923  4.0300
   49MOL0     H 6705   4.787   4.239   6.607  1.3485 -4.3245  0.1600
   49MOL0     H 6706   4.899   4.208   6.478  1.9391  2.6448 -0.2726
   49MOL0     H 6707   4.758   4.472   6.540 -0.0036  0.6630 -2.8083
   49MOL0     H 6708   4.800   4.442   6.383 -0.7361  1.3699  0.9794
   49MOL0     H 6709   5.053   4.382   6.466  0.6331  0.1401 -0.8051
   49MOL0     H 6710   4.995   4.555   6.462 -0.1556 -1.6640 -1.6038
   49MOL0     H 6711   5.070   4.266   6.713  0.8423 -0.6760  1.9508
   49MOL0     H 6712   5.166   4.273   6.969 -1.7374 -0.5404  1.4498
   49MOL0     H 6713   5.121   4.417   7.056 -3.3565 -0.8521 -1.6254
   49MOL0     H 6714   5.363   4.433   6.874 -1.1741 -2.0762 -0.6227
   49MOL0     H 6715   5.328   4.532   7.015  3.0499 -0.3175  0.2771
   49MOL0     H 6716   5.403   4.232   7.051  4.2694  1.5337 -1.4753
   49MOL0     H 6717   5.505   4.364   7.056  1.2618  0.4043 -1.7692
   49MOL0     H 6718   5.349   4.477   7.221 -1.0648  0.2280 -0.8389
   49MOL0     H 6719   5.257   4.320   7.236  0.8222 -1.1414  3.1083
   49MOL0     H 6720   5.664   4.189   7.296  2.7062 -1.2978  4.1436
   49MOL0     H 6721   5.898   4.163   7.333  1.8462 -0.6299 -0.1689
   49MOL0     H 6722   5.995   4.317   7.337  1.7951 -2.8790 -2.6341
   49MOL0     H 6723   5.914   4.274   7.195  2.3995  0.1363  0.7871
   49MOL0     H 6724   6.138   4.480   7.727  0.0844  4.4875  3.1941
   49MOL0     H 6725   6.360   4.577   7.756 -1.7750  0.3382  0.5863
   49MOL0     H 6726   6.523   4.707   7.771  0.1596  2.4317  0.1327
   49MOL0     H 6727   6.594   4.568   7.690  2.7738  0.3630  2.4177
   49MOL0     H 6728   6.706   4.854   7.705  1.8807  0.0548 -0.0724
   49MOL0     H 6729   6.770   4.706   7.769 -1.4263  0.3815 -0.0129
   49MOL0     H 6730   6.782   4.617   7.526 -1.2192 -0.3240 -0.0032
   49MOL0     H 6731   6.903   4.714   7.604  0.1074 -0.4652 -0.3854
   49MOL0     H 6732   6.761   4.909   7.471  2.2261  0.5601 -0.3049
   49MOL0     H 6733   6.734   4.762   7.375 -0.5992 -1.0492 -0.0581
   49MOL0     H 6734   7.002   4.898   7.465  0.5912 -1.0259  3.2366
   49MOL0     H 6735   7.005   4.726   7.421 -2.8437 -1.7037  0.2850
   49MOL0     H 6736   6.877   4.949   7.243 -2.0689 -1.0628  1.4706
   49MOL0     H 6737   6.903   4.772   7.217  0.4867  0.6288 -2.8453
   49MOL0     H 6738   7.148   4.815   7.202  0.1361  0.0160  0.4896
   49MOL0     H 6739   7.120   4.976   7.278 -1.3977 -1.1576  1.8357
   49MOL0     H 6740   6.991   5.052   7.081  0.4916  0.9683  1.6832
   49MOL0     H 6741   6.989   4.888   7.005  1.0870 -0.6927 -0.5508
   49MOL0     H 6742   6.373   4.698   7.350 -0.3509 -0.1909 -0.2046
   49MOL0     H 6743   6.165   4.590   7.306  2.2498  1.2144 -0.4974
   49MOL0     H 6744   5.669   4.652   7.474  0.2427  1.0658 -1.3696
   49MOL0     H 6745   5.442   4.540   7.417  0.8239  1.5423 -0.8168
   49MOL0     H 6746   4.191   3.837   6.729  0.3881  3.9718 -1.3670
   49MOL0     H 6747   4.033   3.667   6.743 -0.0124  0.3600  0.3956
   49MOL0     H 6748   3.765   3.296   6.529 -1.2799  0.2301 -3.1902
   49MOL0     H 6749   3.588   3.148   6.607  1.9129  0.5738  0.5705
   49MOL0     H 6750   3.276   3.027   6.723 -0.3162  1.1542  0.8754
   49MOL0     H 6751   3.448   3.048   6.701  1.4484 -0.3577  0.4395
   49MOL0     H 6752   3.277   3.220   6.898  1.4816 -0.1592  2.3752
   49MOL0     H 6753   3.446   3.198   6.922  0.2397  0.9916 -0.5998
   49MOL0     H 6754   3.239   2.976   6.948  1.3372 -0.3355 -3.2040
   49MOL0     H 6755   3.409   2.957   6.957  0.0006  0.5943  0.1258
   49MOL0     H 6756   3.301   2.987   7.186 -3.7932  0.4400  0.7367
   49MOL0     H 6757   3.243   3.148   7.148  0.0478 -0.3189  1.5574
   49MOL0     H 6758   3.650   3.222   7.227  0.3295  0.6338  0.1969
   49MOL0     H 6759   3.311   3.459   6.654 -0.3039 -0.2957  2.9851
   49MOL0     H 6760   3.551   3.740   6.586  1.0665  0.6961  1.4170
   49MOL0     H 6761   3.384   3.706   6.610  0.3387  2.1232 -0.4531
   49MOL0     H 6762   3.496   3.680   6.747 -1.2228  0.8464 -0.3036
   50MOL0     O 6763   1.580  11.459   2.808 -0.0109  0.0489  0.6902
   50MOL0     C 6764   1.515  11.530   2.736  0.1001  0.3166  0.3719
   50MOL0     O 6765   1.565  11.611   2.639 -0.3839 -0.0699 -0.8254
   50MOL0     C 6766   1.705  11.638   2.634  0.1322  0.4733 -0.2384
   50MOL0     C 6767   1.750  11.692   2.519  0.0311  0.1271  1.1318
   50MOL0     C 6768   1.880  11.742   2.498 -0.0159 -0.5270 -0.8936
   50MOL0     C 6769   1.972  11.740   2.598 -0.4957 -0.4448 -0.4211
   50MOL0     O 6770   2.101  11.786   2.587 -0.2847  0.1853 -0.2262
   50MOL0     C 6771   2.144  11.878   2.686  0.6106 -0.2505 -0.1012
   50MOL0     C 6772   2.267  11.958   2.638  0.1901 -0.2916  0.5768
   50MOL0     C 6773   2.393  11.896   2.664  0.0110 -0.2207  0.5289
   50MOL0     C 6774   2.510  11.980   2.638 -0.0867 -0.7365  0.8658
   50MOL0     C 6775   2.646  11.915   2.644 -0.1272  0.2523 -0.1315
   50MOL0     C 6776   2.708  11.914   2.780 -1.0199  0.4196 -0.0461
   50MOL0     C 6777   2.865  11.916   2.761 -0.6113 -0.3837 -1.3431
   50MOL0     C 6778   2.947  11.923   2.902 -0.2511 -0.3423 -0.3711
   50MOL0     N 6779   2.894  11.824   2.997 -0.8852 -0.3465 -0.3051
   50MOL0     C 6780   2.827  11.861   3.114 -0.0450  0.5403  0.2454
   50MOL0     C 6781   2.797  11.743   3.174  0.0865 -0.4701  0.7050
   50MOL0     C 6782   2.697  11.733   3.292  0.3406  0.3643  0.1426
   50MOL0     C 6783   2.765  11.748   3.424 -0.2503  0.0490 -0.0392
   50MOL0     C 6784   2.685  11.830   3.526 -0.3344  0.1783 -0.0289
   50MOL0     C 6785   2.755  11.830   3.659 -0.1827 -0.8300 -0.1387
   50MOL0     O 6786   2.846  11.933   3.676 -0.2967  0.0318  0.6345
   50MOL0     C 6787   2.943  11.925   3.773 -1.0677  0.1200  0.3849
   50MOL0     C 6788   2.974  11.810   3.844 -0.6607  0.9379 -0.4304
   50MOL0     C 6789   3.073  11.808   3.943 -0.3761  0.7037  0.4070
   50MOL0     C 6790   3.088  11.693   4.036 -0.6966  0.3445  0.1649
   50MOL0     C 6791   3.148  11.931   3.958 -1.1461 -0.0127 -0.9023
   50MOL0     C 6792   3.243  11.957   4.071  0.4009  0.9188 -0.3897
   50MOL0     O 6793   3.255  12.090   4.103 -0.7653 -1.0402  0.3644
   50MOL0     C 6794   3.316  12.142   4.208 -0.8353  0.0725  0.0295
   50MOL0     C 6795   3.374  12.273   4.198 -0.3207  0.1886  0.6112
   50MOL0     C 6796   3.431  12.339   4.310  0.4423 -0.6756  0.0137
   50MOL0     C 6797   3.437  12.274   4.434 -0.3720  0.4712  0.6277
   50MOL0     O 6798   3.484  12.332   4.551 -0.6127 -0.1471 -0.0425
   50MOL0     C 6799   3.541  12.469   4.540 -0.0891 -0.8169 -0.1501
   50MOL0     C 6800   3.563  12.536   4.680  0.6711 -0.0676  0.5069
   50MOL0     C 6801   3.685  12.462   4.747 -0.0330  0.2611  0.1491
   50MOL0     C 6802   3.706  12.512   4.895 -0.0956  0.1617  0.3369
   50MOL0     C 6803   3.850  12.505   4.931 -0.4307 -0.4834 -0.5181
   50MOL0     C 6804   3.871  12.552   5.079 -0.0342 -0.2609 -0.6323
   50MOL0     C 6805   4.020  12.579   5.114 -0.0006  0.1924 -0.1309
   50MOL0     C 6806   4.122  12.473   5.078  0.2236 -0.3298  0.7882
   50MOL0    Cl 6807   4.287  12.528   5.103 -0.0730 -0.0584  0.1231
   50MOL0     C 6808   3.385  12.148   4.438  0.3382  0.2477 -0.2185
   50MOL0     C 6809   3.330  12.080   4.335  0.2301  0.2820 -0.0688
   50MOL0     O 6810   3.298  11.870   4.135 -0.3242  0.0452  0.3151
   50MOL0     C 6811   3.125  12.040   3.875  0.3386 -0.1453  0.4005
   50MOL0     C 6812   3.014  12.045   3.788 -0.0316  0.5174  0.2849
   50MOL0     N 6813   2.860  11.641   3.115 -0.9083 -0.2633 -0.6065
   50MOL0     N 6814   2.915  11.690   3.000  0.1235 -0.5204 -0.1777
   50MOL0     C 6815   1.933  11.688   2.722  0.0119  0.1928  0.7346
   50MOL0     C 6816   1.806  11.622   2.734  0.3530  0.3226  0.0984
   50MOL0     C 6817   1.369  11.516   2.755  0.2140  0.0054  0.2288
   50MOL0     C 6818   1.298  11.631   2.731 -0.6774 -0.0025  0.2043
   50MOL0     C 6819   1.160  11.648   2.745 -0.7942 -0.3855 -0.1700
   50MOL0     C 6820   1.084  11.541   2.778  0.3177  0.7928  0.6644
   50MOL0     O 6821   0.950  11.551   2.770 -0.5130 -0.4586 -0.8772
   50MOL0     C 6822   0.869  11.437   2.814 -0.1969 -0.8538 -0.0102
   50MOL0     C 6823   0.716  11.488   2.826  0.1846  0.6874 -0.2858
   50MOL0     C 6824   0.693  11.578   2.954 -0.2244 -0.2030  0.1544
   50MOL0     C 6825   0.593  11.698   2.929  0.3696  0.5023  0.3973
   50MOL0     C 6826   0.456  11.654   2.878 -0.5148 -0.1579  0.9974
   50MOL0     C 6827   0.345  11.634   2.835 -0.7248 -0.6369 -0.5504
   50MOL0     C 6828   1.157  11.422   2.806 -0.0727  0.1749  0.7205
   50MOL0     C 6829   1.293  11.409   2.802  0.4002  0.1195 -0.4693
   50MOL0     C 6830   1.360  11.275   2.833  0.4106 -0.6065  0.9119
   50MOL0     H 6831   1.683  11.692   2.433  0.6249 -0.3431  0.6615
   50MOL0     H 6832   1.905  11.786   2.402 -0.5228  0.1841 -0.7091
   50MOL0     H 6833   2.164  11.818   2.775 -2.2221 -1.4790 -0.2005
   50MOL0     H 6834   2.063  11.949   2.706  0.8968  0.3804 -1.0836
   50MOL0     H 6835   2.253  11.983   2.532 -4.7076  3.1397  1.6933
   50MOL0     H 6836   2.264  12.053   2.692 -1.9546  0.4237 -0.6374
   50MOL0     H 6837   2.397  11.861   2.768 -0.4790  0.2325  0.7090
   50MOL0     H 6838   2.403  11.817   2.590  4.2051  0.9664 -0.4146
   50MOL0     H 6839   2.498  12.029   2.541 -1.5711 -1.3439  0.7280
   50MOL0     H 6840   2.519  12.071   2.698  0.5706  0.4507 -0.9402
   50MOL0     H 6841   2.711  11.982   2.587  0.7840 -0.8138 -0.3736
   50MOL0     H 6842   2.656  11.815   2.600 -2.4480 -0.3229  0.5365
   50MOL0     H 6843   2.688  12.008   2.831 -0.9917  0.0066  0.7316
   50MOL0     H 6844   2.663  11.837   2.843 -1.3347 -0.5457 -1.4119
   50MOL0     H 6845   2.903  12.005   2.711  0.8569  0.5994  1.3247
   50MOL0     H 6846   2.905  11.830   2.705  1.7870 -0.7568  0.7657
   50MOL0     H 6847   3.052  11.913   2.875 -0.0591 -0.8869  0.5681
   50MOL0     H 6848   2.934  12.027   2.935  3.4354  0.9533 -2.3961
   50MOL0     H 6849   2.789  11.956   3.150  3.2264  2.3375 -0.6515
   50MOL0     H 6850   2.646  11.637   3.281 -1.2677  1.1869  0.1427
   50MOL0     H 6851   2.621  11.811   3.280  0.1807 -0.1425 -3.1434
   50MOL0     H 6852   2.782  11.649   3.467  3.8462  0.7401  0.3035
   50MOL0     H 6853   2.856  11.808   3.410  0.1274 -0.5826 -0.3557
   50MOL0     H 6854   2.670  11.932   3.491  1.6112  0.4464 -0.2114
   50MOL0     H 6855   2.588  11.781   3.541  0.0663 -0.3803  0.8855
   50MOL0     H 6856   2.685  11.823   3.743 -0.2718 -0.5708 -0.1916
   50MOL0     H 6857   2.803  11.731   3.663  1.0091 -0.2431  0.6317
   50MOL0     H 6858   2.918  11.718   3.854  2.8185 -1.1447  2.6160
   50MOL0     H 6859   3.060  11.601   3.983 -1.5136  0.5118  0.2934
   50MOL0     H 6860   3.023  11.709   4.121  1.8507 -1.1638  2.5678
   50MOL0     H 6861   3.190  11.674   4.071  0.2776  1.7767 -1.6588
   50MOL0     H 6862   3.370  12.322   4.101  2.0388 -3.7076 -1.7089
   50MOL0     H 6863   3.461  12.443   4.304 -1.4661 -0.0981 -0.2618
   50MOL0     H 6864   3.633  12.470   4.481 -1.1583  0.4029 -1.9323
   50MOL0     H 6865   3.462  12.527   4.490  0.2518 -1.7495 -1.8627
   50MOL0     H 6866   3.590  12.642   4.671 -0.7997  0.2451 -0.7930
   50MOL0     H 6867   3.476  12.514   4.742 -0.6968  0.1857 -1.2315
   50MOL0     H 6868   3.774  12.496   4.694  2.0891 -2.3990  1.7253
   50MOL0     H 6869   3.686  12.353   4.737  4.1597  0.2649 -1.5136
   50MOL0     H 6870   3.647  12.449   4.963 -1.0596 -0.6231 -1.1642
   50MOL0     H 6871   3.654  12.609   4.894  2.4143  1.5946  0.5700
   50MOL0     H 6872   3.897  12.408   4.912 -2.2091 -1.3708 -0.6361
   50MOL0     H 6873   3.907  12.574   4.868  1.7286 -1.2469  0.5209
   50MOL0     H 6874   3.842  12.481   5.157  1.3663 -1.1049 -0.8439
   50MOL0     H 6875   3.813  12.643   5.097 -1.2293 -1.4697  2.4082
   50MOL0     H 6876   4.031  12.603   5.220 -0.7908  2.1378 -0.4405
   50MOL0     H 6877   4.048  12.670   5.060 -0.2854  0.0669 -0.4995
   50MOL0     H 6878   4.112  12.452   4.971 -1.5023  0.2074  0.8109
   50MOL0     H 6879   4.097  12.379   5.128 -1.0886 -0.6858 -0.4809
   50MOL0     H 6880   3.388  12.093   4.532  1.2749 -0.9400 -0.9019
   50MOL0     H 6881   3.301  11.977   4.353  1.5406 -0.8537 -3.6050
   50MOL0     H 6882   3.188  12.127   3.866 -2.3432  1.9520  0.6723
   50MOL0     H 6883   3.010  12.128   3.718  0.2202  0.0364 -0.3140
   50MOL0     H 6884   1.992  11.685   2.813 -2.9486  1.0520  2.8675
   50MOL0     H 6885   1.786  11.571   2.827 -2.7283 -2.1636 -1.7161
   50MOL0     H 6886   1.361  11.705   2.682  0.9335 -0.7471  1.0693
   50MOL0     H 6887   1.105  11.739   2.723 -1.9925 -0.8277  0.8810
   50MOL0     H 6888   0.872  11.360   2.735  2.3189 -0.8146 -0.0348
   50MOL0     H 6889   0.905  11.411   2.914 -0.0708  1.3498  0.5525
   50MOL0     H 6890   0.655  11.398   2.839  1.6241 -0.0256  2.2682
   50MOL0     H 6891   0.690  11.540   2.734  1.5842 -1.4280 -1.9700
   50MOL0     H 6892   0.668  11.523   3.045 -0.9259 -0.9801 -0.4857
   50MOL0     H 6893   0.792  11.621   2.971  0.3379 -0.8726 -1.2383
   50MOL0     H 6894   0.641  11.760   2.853 -2.6181  0.9386 -1.2801
   50MOL0     H 6895   0.575  11.755   3.021  2.6799  0.8928  0.6741
   50MOL0     H 6896   0.249  11.605   2.797 -0.7920 -2.8012  1.1001
   50MOL0     H 6897   1.090  11.340   2.829 -1.1934  0.1461 -2.2194
   50MOL0     H 6898   1.277  11.213   2.869 -0.5861  1.9134  3.3490
   50MOL0     H 6899   1.418  11.234   2.750 -1.5095 -0.5156 -0.5576
   50MOL0     H 6900   1.417  11.291   2.925  3.3343 -2.3912 -0.4611
   51MOL0     O 6901   6.316   0.907   3.006  0.1428 -0.0939 -0.2235
   51MOL0     C 6902   6.415   0.837   2.970  0.1002  0.3101 -0.3183
   51MOL0     O 6903   6.412   0.750   2.865  0.4005 -0.1052 -0.5073
   51MOL0     C 6904   6.296   0.734   2.796 -0.2738 -0.6684 -0.4714
   51MOL0     C 6905   6.230   0.844   2.738  0.4653 -0.6434  0.3411
   51MOL0     C 6906   6.104   0.829   2.666  0.0281 -0.6929  0.3442
   51MOL0     C 6907   6.050   0.701   2.656 -0.3482 -0.7923 -1.0572
   51MOL0     O 6908   5.939   0.670   2.583 -0.4532  0.5247 -0.9299
   51MOL0     C 6909   5.843   0.768   2.541 -0.8537 -0.8854 -0.3148
   51MOL0     C 6910   5.720   0.697   2.489  0.5623 -0.2970 -0.7558
   51MOL0     C 6911   5.622   0.676   2.610  0.4319 -0.3722 -0.0707
   51MOL0     C 6912   5.485   0.623   2.581  0.8255  0.6698 -0.3810
   51MOL0     C 6913   5.483   0.506   2.479 -0.5758  0.6730 -0.3143
   51MOL0     C 6914   5.571   0.387   2.526  0.8044 -0.9161 -0.5856
   51MOL0     C 6915   5.582   0.276   2.432  0.2522  0.3804  0.0563
   51MOL0     C 6916   5.662   0.320   2.311  0.1292 -0.3677 -0.5001
   51MOL0     N 6917   5.704   0.197   2.227  0.8310  0.1651 -0.6638
   51MOL0     C 6918   5.660   0.071   2.240  1.0759 -0.4471  0.1882
   51MOL0     C 6919   5.674   0.020   2.116  0.5238 -0.0996  0.5390
   51MOL0     C 6920   5.617  -0.120   2.092 -0.3965 -1.5191  0.5864
   51MOL0     C 6921   5.735  -0.214   2.091 -0.2619 -0.1658  0.7876
   51MOL0     C 6922   5.777  -0.261   2.231  0.1031  0.4020  0.0332
   51MOL0     C 6923   5.699  -0.378   2.283 -0.6206 -0.0077 -0.1048
   51MOL0     O 6924   5.752  -0.429   2.409 -0.1286 -0.1589  0.6008
   51MOL0     C 6925   5.749  -0.337   2.510  0.0385  0.7501 -0.4895
   51MOL0     C 6926   5.631  -0.301   2.578 -0.2244  0.2599  0.2460
   51MOL0     C 6927   5.631  -0.189   2.669  0.2738 -0.0502 -0.1204
   51MOL0     C 6928   5.497  -0.158   2.738 -0.0247 -0.5077  0.3441
   51MOL0     C 6929   5.757  -0.120   2.704 -0.3597  0.1194  0.9002
   51MOL0     C 6930   5.771  -0.008   2.789  0.5675  0.3645 -1.0674
   51MOL0     O 6931   5.664   0.083   2.770 -0.0458  0.2434  0.3664
   51MOL0     C 6932   5.674   0.214   2.819  0.9258  0.0368 -0.2092
   51MOL0     C 6933   5.559   0.269   2.878 -0.1250  0.3144 -0.2578
   51MOL0     C 6934   5.548   0.400   2.925 -0.2586 -0.2384  0.6303
   51MOL0     C 6935   5.667   0.479   2.941 -1.0307  0.3105  1.0810
   51MOL0     O 6936   5.647   0.593   3.010 -0.1685 -0.0527  0.5021
   51MOL0     C 6937   5.726   0.710   2.989  0.1476  0.2832  0.0470
   51MOL0     C 6938   5.672   0.826   3.071 -0.2266  0.3116  0.9494
   51MOL0     C 6939   5.723   0.963   3.012  0.3105  1.0121  0.5604
   51MOL0     C 6940   5.880   0.954   3.014  0.3267 -0.2741 -0.5195
   51MOL0     C 6941   5.936   1.094   2.995 -0.2061  0.3751  0.4625
   51MOL0     C 6942   5.918   1.198   3.104 -0.4161 -0.5210 -1.0200
   51MOL0     C 6943   5.979   1.157   3.231  0.1042 -0.2031 -0.7826
   51MOL0     C 6944   5.942   1.271   3.326  0.2804 -0.1772 -0.2901
   51MOL0    Cl 6945   6.017   1.430   3.286  0.3475 -0.0269  0.2133
   51MOL0     C 6946   5.789   0.426   2.890  0.2023 -1.7006 -0.3295
   51MOL0     C 6947   5.785   0.305   2.823 -0.1053 -0.8427 -0.5297
   51MOL0     O 6948   5.868   0.000   2.868 -0.7363 -0.0045  0.1705
   51MOL0     C 6949   5.878  -0.169   2.636  0.8058 -0.6087  0.2356
   51MOL0     C 6950   5.869  -0.275   2.536 -0.9757 -1.0565  0.0953
   51MOL0     N 6951   5.730   0.116   2.034 -1.1143  0.1483  0.6819
   51MOL0     N 6952   5.753   0.219   2.107 -0.5953  0.3444  0.1801
   51MOL0     C 6953   6.124   0.594   2.709 -0.2166 -0.1438 -0.7533
   51MOL0     C 6954   6.239   0.614   2.784 -0.9472 -0.3346  0.1319
   51MOL0     C 6955   6.548   0.879   3.021 -0.3983 -0.1872  0.4869
   51MOL0     C 6956   6.660   0.858   2.935 -0.0939 -0.0107 -0.4600
   51MOL0     C 6957   6.790   0.898   2.979 -0.6509  0.7605 -0.2049
   51MOL0     C 6958   6.810   0.959   3.102  0.0708  0.1698 -0.7353
   51MOL0     O 6959   6.936   0.977   3.147 -0.1336  0.4898  0.5576
   51MOL0     C 6960   6.968   1.088   3.237  0.0482  0.4550  0.3824
   51MOL0     C 6961   6.953   1.227   3.176  0.3960 -0.2150 -0.4465
   51MOL0     C 6962   6.982   1.327   3.295  0.1938 -1.1185 -0.2509
   51MOL0     C 6963   6.980   1.466   3.229  0.3917  0.6384 -0.0690
   51MOL0     C 6964   7.010   1.560   3.335 -0.9828  0.4618  0.0601
   51MOL0     C 6965   7.024   1.649   3.419 -0.1342  0.4699  0.2512
   51MOL0     C 6966   6.700   0.960   3.189  0.1297  0.4523  0.0260
   51MOL0     C 6967   6.566   0.928   3.151 -0.1598 -0.3150  0.2039
   51MOL0     C 6968   6.462   0.940   3.261 -0.0347  0.5688  0.1139
   51MOL0     H 6969   6.265   0.946   2.733 -1.0401 -0.0715  0.8746
   51MOL0     H 6970   6.057   0.912   2.614 -1.3029 -1.6921 -0.0922
   51MOL0     H 6971   5.890   0.823   2.460 -3.9844  2.3475 -0.1869
   51MOL0     H 6972   5.822   0.821   2.634  1.5218 -2.0936  1.0256
   51MOL0     H 6973   5.670   0.762   2.417 -0.2344 -2.4727 -2.2920
   51MOL0     H 6974   5.754   0.615   2.425 -1.2273 -1.3337 -0.4268
   51MOL0     H 6975   5.676   0.611   2.680 -2.2167 -1.6666  0.9060
   51MOL0     H 6976   5.609   0.772   2.661 -3.5945 -0.2858 -0.9389
   51MOL0     H 6977   5.445   0.598   2.679 -1.6952  0.0493 -1.4929
   51MOL0     H 6978   5.422   0.704   2.545 -1.8285 -1.0679  0.0478
   51MOL0     H 6979   5.522   0.550   2.387  2.7245  3.0048  1.9666
   51MOL0     H 6980   5.381   0.468   2.469  0.9242 -4.6821  1.5297
   51MOL0     H 6981   5.668   0.425   2.560 -1.3179  2.9964  1.8546
   51MOL0     H 6982   5.519   0.350   2.615 -4.0095  0.4429 -2.4975
   51MOL0     H 6983   5.483   0.242   2.399 -0.6803  0.3376  2.6537
   51MOL0     H 6984   5.644   0.197   2.476  1.9194 -1.3321 -4.6950
   51MOL0     H 6985   5.610   0.398   2.254  3.7940  4.5667  2.1200
   51MOL0     H 6986   5.757   0.368   2.339  0.9449 -2.6682  0.9778
   51MOL0     H 6987   5.614   0.025   2.326  0.6832 -1.8044 -0.7084
   51MOL0     H 6988   5.573  -0.113   1.991  0.5552 -0.2573  0.2268
   51MOL0     H 6989   5.526  -0.150   2.144 -1.0450 -2.6877 -1.1311
   51MOL0     H 6990   5.714  -0.299   2.026 -0.3778 -1.5284  2.5382
   51MOL0     H 6991   5.818  -0.169   2.036  0.7578 -2.6050  0.1897
   51MOL0     H 6992   5.882  -0.293   2.223 -0.1314 -0.1341 -1.1252
   51MOL0     H 6993   5.766  -0.178   2.301  0.1081 -1.6817  2.6983
   51MOL0     H 6994   5.594  -0.347   2.280 -0.5616  0.4529 -5.0308
   51MOL0     H 6995   5.710  -0.456   2.208 -1.1880 -0.6603  0.4743
   51MOL0     H 6996   5.543  -0.342   2.531  1.1989 -0.3279 -2.0928
   51MOL0     H 6997   5.498  -0.154   2.847 -0.1576  0.9371  0.3063
   51MOL0     H 6998   5.423  -0.234   2.710  1.0909 -1.1322 -1.0671
   51MOL0     H 6999   5.463  -0.057   2.717  1.1791  0.0210  0.8543
   51MOL0     H 7000   5.469   0.209   2.891  0.5802 -0.4472  1.4682
   51MOL0     H 7001   5.452   0.431   2.963  0.6684  3.9223  0.0570
   51MOL0     H 7002   5.832   0.695   3.012  0.6299  2.2730 -0.6414
   51MOL0     H 7003   5.717   0.726   2.881  1.0901  0.3431 -0.0328
   51MOL0     H 7004   5.563   0.826   3.067 -0.2429 -1.5920  0.3720
   51MOL0     H 7005   5.697   0.814   3.177  0.1755 -0.1217  0.8082
   51MOL0     H 7006   5.683   1.043   3.076 -1.5095  0.4041  0.2471
   51MOL0     H 7007   5.689   0.975   2.909  0.8100 -1.5986  0.0266
   51MOL0     H 7008   5.919   0.883   2.941  0.0097  0.8140 -1.8006
   51MOL0     H 7009   5.901   0.908   3.111  0.2048  0.1151 -0.3017
   51MOL0     H 7010   6.044   1.077   2.985 -0.4809 -1.0933 -0.2043
   51MOL0     H 7011   5.891   1.140   2.906  3.6144  0.7708 -1.4683
   51MOL0     H 7012   5.812   1.223   3.114 -0.3863  0.4025 -2.7760
   51MOL0     H 7013   5.972   1.289   3.076 -2.3657  1.4969  1.2102
   51MOL0     H 7014   6.087   1.157   3.218  0.4131 -1.4890  1.4333
   51MOL0     H 7015   5.940   1.069   3.283  0.8901 -0.2421 -0.2489
   51MOL0     H 7016   5.977   1.242   3.425 -0.8225 -0.7209 -0.0322
   51MOL0     H 7017   5.834   1.292   3.324 -0.1988 -1.6085  3.2746
   51MOL0     H 7018   5.879   0.486   2.895 -1.1165  0.3667 -0.1706
   51MOL0     H 7019   5.877   0.267   2.779  1.1752  0.1323  1.1873
   51MOL0     H 7020   5.973  -0.117   2.643  0.2180  0.7953 -1.5857
   51MOL0     H 7021   5.958  -0.301   2.479 -1.0643 -0.7747 -0.1755
   51MOL0     H 7022   6.098   0.490   2.696 -0.0705 -0.4397  1.0638
   51MOL0     H 7023   6.267   0.522   2.834 -2.4464  0.8147  3.3505
   51MOL0     H 7024   6.648   0.811   2.838 -0.4526  3.1667 -2.1233
   51MOL0     H 7025   6.862   0.889   2.899 -0.2207 -1.1537  0.3435
   51MOL0     H 7026   6.899   1.075   3.321  0.0241  1.1292  0.4728
   51MOL0     H 7027   7.071   1.062   3.265  0.6847 -0.1459 -2.2574
   51MOL0     H 7028   6.854   1.243   3.134  1.6356 -0.2646 -3.6477
   51MOL0     H 7029   7.019   1.242   3.090  0.3360 -2.9312 -1.0487
   51MOL0     H 7030   6.908   1.322   3.375 -1.0604 -1.4245 -1.3901
   51MOL0     H 7031   7.078   1.309   3.345 -0.2863 -1.0078  0.7288
   51MOL0     H 7032   6.886   1.481   3.174  0.6559  0.7184 -0.5071
   51MOL0     H 7033   7.060   1.467   3.154 -0.6850  0.5702 -1.2667
   51MOL0     H 7034   7.055   1.716   3.497  0.4171  0.2552  0.2261
   51MOL0     H 7035   6.707   0.999   3.290  1.0121 -1.4952  0.7577
   51MOL0     H 7036   6.506   0.987   3.349  0.3185 -0.0346  0.2666
   51MOL0     H 7037   6.366   0.988   3.241 -1.0653 -0.7819  1.5036
   51MOL0     H 7038   6.438   0.834   3.280  0.6710 -0.5215 -4.1713
   52MOL0     O 7039   7.760   4.010   3.685 -0.3237 -0.1914 -0.1605
   52MOL0     C 7040   7.661   3.943   3.692 -0.3299 -0.4744  0.9779
   52MOL0     O 7041   7.614   3.895   3.807  0.2366  0.0192  0.0390
   52MOL0     C 7042   7.690   3.900   3.922  0.2785  0.3683  0.6423
   52MOL0     C 7043   7.775   3.798   3.967 -0.2455  0.0938  0.8803
   52MOL0     C 7044   7.859   3.806   4.080  0.9258  0.4407 -0.5860
   52MOL0     C 7045   7.846   3.912   4.167  0.9220  0.5403 -0.7198
   52MOL0     O 7046   7.913   3.902   4.289 -0.1574 -0.0386  0.5783
   52MOL0     C 7047   7.856   3.970   4.400  0.8793  0.9993  0.5013
   52MOL0     C 7048   7.929   3.913   4.527 -0.9826 -0.0397  0.7688
   52MOL0     C 7049   8.059   3.984   4.535 -0.3378 -0.5936 -0.2130
   52MOL0     C 7050   8.130   3.960   4.675 -0.5186  0.7837 -0.0308
   52MOL0     C 7051   8.270   4.028   4.664  0.4919  0.4161 -0.5861
   52MOL0     C 7052   8.340   4.060   4.802  0.4565  0.0133  0.6584
   52MOL0     C 7053   8.450   4.166   4.799  0.1609  0.0160  0.4030
   52MOL0     C 7054   8.575   4.117   4.739  0.1099 -0.3114  0.1859
   52MOL0     N 7055   8.685   4.214   4.716  1.4012 -0.4059  0.0451
   52MOL0     C 7056   8.788   4.197   4.635 -0.5834  0.2463 -0.1249
   52MOL0     C 7057   8.835   4.322   4.617  1.2219 -0.0194  0.3088
   52MOL0     C 7058   8.952   4.352   4.528  0.4207 -0.3763 -0.1085
   52MOL0     C 7059   9.079   4.277   4.575 -0.6142 -0.4210  0.7036
   52MOL0     C 7060   9.107   4.258   4.722 -0.5289  0.0722 -0.7523
   52MOL0     C 7061   9.102   4.401   4.794  0.6245  0.1580  0.7074
   52MOL0     O 7062   9.185   4.501   4.741 -0.3443 -0.4103 -0.3768
   52MOL0     C 7063   9.320   4.499   4.773 -0.8309 -0.1213 -0.1435
   52MOL0     C 7064   9.386   4.408   4.853  0.2304  0.3276 -1.0983
   52MOL0     C 7065   9.522   4.414   4.877 -0.6872  0.0704 -1.3186
   52MOL0     C 7066   9.571   4.303   4.970  0.0320  0.0906 -0.2851
   52MOL0     C 7067   9.603   4.520   4.816  0.9512  0.6691 -0.0575
   52MOL0     C 7068   9.754   4.528   4.833  0.2337 -0.2623  0.2258
   52MOL0     O 7069   9.819   4.606   4.739 -0.8936  0.5936 -0.1241
   52MOL0     C 7070   9.961   4.584   4.735 -0.6533  0.4599 -0.2929
   52MOL0     C 7071  10.043   4.639   4.831  0.4679  0.0305 -0.6950
   52MOL0     C 7072  10.185   4.627   4.825  0.9968  0.1788  1.0941
   52MOL0     C 7073  10.241   4.549   4.720 -0.3167 -0.7723 -0.0970
   52MOL0     O 7074  10.379   4.523   4.711  0.3599  0.2629  1.0023
   52MOL0     C 7075  10.444   4.626   4.628  0.0060 -0.6523 -0.4648
   52MOL0     C 7076  10.545   4.563   4.545 -0.9700 -0.8916  0.0896
   52MOL0     C 7077  10.669   4.524   4.626 -0.3468 -0.5148  0.1545
   52MOL0     C 7078  10.765   4.443   4.539  0.3433  0.0300 -0.1523
   52MOL0     C 7079  10.892   4.411   4.603 -0.0917 -0.4020 -0.4396
   52MOL0     C 7080  10.980   4.534   4.642  0.1826 -0.6498 -0.4708
   52MOL0     C 7081  11.107   4.485   4.694 -0.5108  0.4298 -0.3932
   52MOL0     C 7082  11.173   4.565   4.807  0.9166  0.4255 -0.6873
   52MOL0    Cl 7083  11.257   4.706   4.756 -0.3326 -0.3188  0.4889
   52MOL0     C 7084  10.152   4.494   4.620  0.2353 -0.7081 -0.4997
   52MOL0     C 7085  10.014   4.513   4.630  0.1117  0.3151 -0.0916
   52MOL0     O 7086   9.804   4.476   4.935  0.7178 -0.0707  1.1432
   52MOL0     C 7087   9.539   4.589   4.717 -0.4732 -0.4894 -0.0405
   52MOL0     C 7088   9.400   4.590   4.695 -0.1432  0.6182 -0.1864
   52MOL0     N 7089   8.775   4.410   4.703 -0.5701 -0.4589  0.4968
   52MOL0     N 7090   8.680   4.343   4.759  0.4550 -0.0206 -0.7512
   52MOL0     C 7091   7.759   4.016   4.131 -0.5543  0.4876  1.1692
   52MOL0     C 7092   7.678   4.006   4.010 -0.1131 -0.1417 -0.2224
   52MOL0     C 7093   7.590   3.912   3.564 -0.3903 -0.0114  0.9852
   52MOL0     C 7094   7.571   4.018   3.472  0.1892 -0.0942 -0.1911
   52MOL0     C 7095   7.503   3.989   3.351  0.0751 -0.7526  0.6722
   52MOL0     C 7096   7.442   3.861   3.323 -0.4067 -0.4852  0.6682
   52MOL0     O 7097   7.356   3.860   3.214 -0.3630  0.1942  0.2238
   52MOL0     C 7098   7.300   3.732   3.176  0.4400  0.0754 -0.5716
   52MOL0     C 7099   7.208   3.770   3.061  0.4517 -0.0895 -0.1945
   52MOL0     C 7100   7.291   3.789   2.932  0.4161  0.5608 -0.1824
   52MOL0     C 7101   7.207   3.787   2.803 -0.3212  0.0616  0.0089
   52MOL0     C 7102   7.114   3.900   2.804  0.4292 -0.3759 -0.3655
   52MOL0     C 7103   7.043   3.995   2.793  0.9623 -0.0219  0.3687
   52MOL0     C 7104   7.469   3.752   3.408  0.3438 -0.0982 -0.5421
   52MOL0     C 7105   7.537   3.781   3.533 -0.1918  0.4438  0.5277
   52MOL0     C 7106   7.564   3.659   3.618 -0.1429 -0.7435 -0.2385
   52MOL0     H 7107   7.769   3.713   3.899  2.1797  1.8334 -1.7730
   52MOL0     H 7108   7.916   3.719   4.109 -0.3015 -0.5455 -1.0731
   52MOL0     H 7109   7.751   3.937   4.403  0.8011  1.2441  0.4553
   52MOL0     H 7110   7.864   4.079   4.396  3.8718  0.8743  1.1264
   52MOL0     H 7111   7.872   3.946   4.615  1.0331  3.1392  1.0167
   52MOL0     H 7112   7.932   3.804   4.521  1.0702  0.0522 -2.8054
   52MOL0     H 7113   8.121   3.955   4.450 -2.1483 -1.8621 -1.1627
   52MOL0     H 7114   8.038   4.091   4.541  1.4451 -0.2738  1.7870
   52MOL0     H 7115   8.071   3.994   4.760  0.1610 -1.0285  1.2217
   52MOL0     H 7116   8.142   3.853   4.692 -2.6426  0.3175 -1.1398
   52MOL0     H 7117   8.259   4.116   4.600 -0.0136  0.7915  0.0054
   52MOL0     H 7118   8.343   3.969   4.608 -0.6202 -0.4355 -1.1821
   52MOL0     H 7119   8.264   4.101   4.870  0.5210  0.0854  0.6873
   52MOL0     H 7120   8.382   3.974   4.855 -1.1951 -0.0345  2.0034
   52MOL0     H 7121   8.474   4.203   4.899  2.6061 -0.0847 -0.0763
   52MOL0     H 7122   8.415   4.255   4.747  0.2850  0.1614  0.5662
   52MOL0     H 7123   8.612   4.040   4.807  1.4701 -1.3993 -1.6604
   52MOL0     H 7124   8.563   4.074   4.639  1.3992  3.4055 -1.7868
   52MOL0     H 7125   8.823   4.102   4.596 -0.6996 -0.5225  1.5719
   52MOL0     H 7126   8.967   4.459   4.541  0.4693 -0.5544  1.5308
   52MOL0     H 7127   8.938   4.331   4.422  1.7129  2.9788 -1.0764
   52MOL0     H 7128   9.069   4.177   4.531 -0.6037  0.6121 -1.7791
   52MOL0     H 7129   9.163   4.332   4.532  0.1643 -1.1117  1.2877
   52MOL0     H 7130   9.039   4.185   4.767  0.1792 -0.8263 -1.1129
   52MOL0     H 7131   9.206   4.215   4.737 -0.0980  1.9654  2.9362
   52MOL0     H 7132   9.002   4.444   4.800  1.3114  1.5652  3.4790
   52MOL0     H 7133   9.123   4.392   4.901 -0.1918 -1.1946  0.7760
   52MOL0     H 7134   9.331   4.335   4.910  2.9643  2.9171  5.9870
   52MOL0     H 7135   9.576   4.345   5.070 -0.0081  2.7765 -1.3213
   52MOL0     H 7136   9.672   4.268   4.945  0.3543 -1.6630  2.9841
   52MOL0     H 7137   9.509   4.213   4.973 -0.6674  0.5839  2.2977
   52MOL0     H 7138   9.996   4.699   4.908  0.1097 -0.2647 -0.6796
   52MOL0     H 7139  10.235   4.669   4.912  2.4260  0.4478  0.1626
   52MOL0     H 7140  10.374   4.678   4.562  0.0340 -0.9838 -0.7575
   52MOL0     H 7141  10.487   4.704   4.692  0.1133 -0.3348 -0.9158
   52MOL0     H 7142  10.511   4.467   4.505  2.6642 -1.8867 -0.9529
   52MOL0     H 7143  10.576   4.623   4.459  0.9544 -1.3067  0.4374
   52MOL0     H 7144  10.638   4.455   4.705 -2.5208 -1.9799 -1.8128
   52MOL0     H 7145  10.728   4.606   4.665  1.2193 -1.3647 -0.3379
   52MOL0     H 7146  10.785   4.480   4.438  1.3235  0.9669  0.3599
   52MOL0     H 7147  10.727   4.341   4.531  1.3144 -0.5727  2.1464
   52MOL0     H 7148  10.872   4.344   4.687 -1.7421 -2.6483 -2.5140
   52MOL0     H 7149  10.950   4.359   4.527 -1.2033 -0.3695 -1.3290
   52MOL0     H 7150  10.919   4.582   4.719 -1.2011 -1.0072 -1.2865
   52MOL0     H 7151  10.990   4.606   4.560 -1.0408  1.9197  1.4880
   52MOL0     H 7152  11.178   4.472   4.611 -3.7040  0.8127 -3.4319
   52MOL0     H 7153  11.094   4.380   4.718  1.0541 -1.1465 -5.2452
   52MOL0     H 7154  11.255   4.500   4.839  1.1936  1.1802  0.1670
   52MOL0     H 7155  11.104   4.584   4.889  0.5202  2.3692 -1.4381
   52MOL0     H 7156  10.203   4.433   4.547  1.5028  0.0408 -0.2669
   52MOL0     H 7157   9.939   4.479   4.560 -0.8562 -0.5500  1.2968
   52MOL0     H 7158   9.604   4.645   4.651 -0.7341 -1.7661 -1.4143
   52MOL0     H 7159   9.347   4.652   4.624 -0.9704 -1.5761 -1.6072
   52MOL0     H 7160   7.725   4.102   4.188  1.1616  1.9616  0.0602
   52MOL0     H 7161   7.604   4.079   3.978 -0.0808 -1.2255 -3.0013
   52MOL0     H 7162   7.616   4.115   3.488 -1.2169  0.2065  2.4666
   52MOL0     H 7163   7.485   4.063   3.274 -0.7369 -1.7665 -0.1487
   52MOL0     H 7164   7.375   3.654   3.162  0.0177 -0.4565  0.0933
   52MOL0     H 7165   7.228   3.694   3.248  1.0346 -3.4528 -1.6728
   52MOL0     H 7166   7.157   3.864   3.086 -0.1975 -0.7213  0.9170
   52MOL0     H 7167   7.134   3.693   3.040 -1.5498  2.4285 -3.5281
   52MOL0     H 7168   7.349   3.879   2.954  0.1620  0.1422  2.4104
   52MOL0     H 7169   7.368   3.712   2.921 -1.1508 -0.7651 -3.2233
   52MOL0     H 7170   7.150   3.694   2.796  0.2240 -0.1545 -3.4044
   52MOL0     H 7171   7.267   3.775   2.712 -3.2551 -1.6851 -1.8462
   52MOL0     H 7172   6.961   4.064   2.794 -0.8984 -2.1140  0.6968
   52MOL0     H 7173   7.425   3.654   3.389 -0.4117  0.1269 -0.0158
   52MOL0     H 7174   7.663   3.648   3.662  0.8424 -0.7072 -2.3158
   52MOL0     H 7175   7.493   3.663   3.701 -0.5829  1.4590 -0.6431
   52MOL0     H 7176   7.533   3.568   3.564 -0.1740 -0.4583 -0.7093
   53MOL0     O 7177   5.242   1.356   8.846 -0.2822  0.2660 -0.4572
   53MOL0     C 7178   5.340   1.353   8.928 -0.0302  0.0560 -0.4694
   53MOL0     O 7179   5.331   1.387   9.063 -0.8779  0.1861  0.0022
   53MOL0     C 7180   5.207   1.395   9.133  0.2256  0.5193  0.4035
   53MOL0     C 7181   5.084   1.334   9.100 -0.5889  0.3015  0.4435
   53MOL0     C 7182   4.961   1.352   9.160  0.6621  0.6744 -0.0674
   53MOL0     C 7183   4.961   1.428   9.274 -0.5083 -0.9009 -0.4601
   53MOL0     O 7184   4.858   1.455   9.364 -0.2078  0.0493 -0.5453
   53MOL0     C 7185   4.728   1.415   9.324 -0.4258 -0.3356 -0.1622
   53MOL0     C 7186   4.616   1.462   9.423 -0.2643  0.6033 -0.1493
   53MOL0     C 7187   4.582   1.613   9.423 -0.6504 -0.1716  0.0606
   53MOL0     C 7188   4.466   1.637   9.520 -0.6466 -0.0684  0.3531
   53MOL0     C 7189   4.333   1.617   9.458  0.0076  0.2924 -0.3171
   53MOL0     C 7190   4.216   1.675   9.555 -0.3873 -0.4146  0.2033
   53MOL0     C 7191   4.090   1.664   9.465 -0.1990 -0.3509 -0.4773
   53MOL0     C 7192   3.981   1.738   9.532 -0.2396 -0.5242  0.0311
   53MOL0     N 7193   3.860   1.736   9.448 -0.8608  0.5402  0.1325
   53MOL0     C 7194   3.755   1.820   9.468 -0.0652  0.5257  0.2172
   53MOL0     C 7195   3.662   1.782   9.375 -0.2309  1.2578  0.3160
   53MOL0     C 7196   3.522   1.823   9.363 -0.0926 -0.9548 -0.4064
   53MOL0     C 7197   3.437   1.794   9.494 -0.8328 -0.4695 -0.1660
   53MOL0     C 7198   3.380   1.653   9.495  0.3911 -0.1246  0.4942
   53MOL0     C 7199   3.489   1.547   9.484  0.4879  0.6044 -0.6600
   53MOL0     O 7200   3.572   1.559   9.602  0.3481 -0.7416 -0.4179
   53MOL0     C 7201   3.701   1.498   9.614 -0.5631  0.4455 -1.3184
   53MOL0     C 7202   3.747   1.398   9.522  0.2387 -0.0760 -0.6229
   53MOL0     C 7203   3.877   1.338   9.539  0.2672  0.3270  0.6200
   53MOL0     C 7204   3.930   1.255   9.422  0.5366 -0.0550 -0.1345
   53MOL0     C 7205   3.956   1.372   9.659  0.2453  0.1753 -0.7745
   53MOL0     C 7206   4.086   1.294   9.686  0.6363 -0.1659  0.3631
   53MOL0     O 7207   4.175   1.352   9.769  0.2075  0.3515  0.6651
   53MOL0     C 7208   4.304   1.303   9.761  0.0845  0.0921  0.2173
   53MOL0     C 7209   4.375   1.252   9.644  1.2890 -0.0682  0.3414
   53MOL0     C 7210   4.501   1.207   9.669 -0.0318  0.4970  0.3317
   53MOL0     C 7211   4.568   1.210   9.794  0.3321  0.8137 -0.0353
   53MOL0     O 7212   4.701   1.168   9.811  0.1449  0.0070 -0.0789
   53MOL0     C 7213   4.772   1.133   9.697  0.4405 -0.0542 -0.3803
   53MOL0     C 7214   4.920   1.104   9.727  0.5635 -0.0905  0.3470
   53MOL0     C 7215   4.929   1.020   9.856  0.0918  0.5070  0.4951
   53MOL0     C 7216   4.965   1.097   9.984 -0.6402 -0.2206 -0.0212
   53MOL0     C 7217   4.964   1.019  10.111 -0.6572 -0.3951 -0.1120
   53MOL0     C 7218   5.056   0.900  10.115 -0.0677 -0.1095  0.3954
   53MOL0     C 7219   5.202   0.943  10.130 -0.7431  0.7738 -0.1887
   53MOL0     C 7220   5.294   0.828  10.075  0.4275 -0.1314 -0.2872
   53MOL0    Cl 7221   5.338   0.858   9.912 -0.1111 -0.1381 -0.3521
   53MOL0     C 7222   4.501   1.273   9.899 -0.2114 -0.2043  0.5648
   53MOL0     C 7223   4.367   1.314   9.882  0.3694  1.3147  0.4716
   53MOL0     O 7224   4.102   1.183   9.633  0.2698  0.3026 -0.4709
   53MOL0     C 7225   3.900   1.457   9.752 -0.5775  0.8448 -0.0694
   53MOL0     C 7226   3.778   1.523   9.726 -0.2613 -0.0734 -0.1833
   53MOL0     N 7227   3.714   1.683   9.291  0.8096 -0.6403 -0.7370
   53MOL0     N 7228   3.829   1.653   9.342  0.1724 -0.4152  0.5572
   53MOL0     C 7229   5.087   1.480   9.318 -0.5688 -0.1896 -0.4174
   53MOL0     C 7230   5.205   1.470   9.245 -0.9760  0.3558 -0.3871
   53MOL0     C 7231   5.467   1.319   8.862  0.6267  0.4167  0.0587
   53MOL0     C 7232   5.476   1.328   8.724  0.3060 -0.0182  0.6300
   53MOL0     C 7233   5.597   1.292   8.651 -0.0737  0.1513 -0.6174
   53MOL0     C 7234   5.706   1.261   8.732  0.4114  0.5688  0.7216
   53MOL0     O 7235   5.822   1.232   8.659 -0.2596 -0.3846 -0.3461
   53MOL0     C 7236   5.948   1.212   8.722  0.2945  0.9950  0.1494
   53MOL0     C 7237   6.052   1.183   8.613 -0.3184  0.4937  0.6143
   53MOL0     C 7238   6.044   1.043   8.544 -0.0107  0.0900  0.8949
   53MOL0     C 7239   5.904   0.993   8.487 -0.2445  0.0044  0.9810
   53MOL0     C 7240   5.902   0.850   8.449  0.2467  0.2326 -0.6051
   53MOL0     C 7241   5.909   0.736   8.416  1.3712  1.4997 -0.2481
   53MOL0     C 7242   5.696   1.240   8.867  0.0358 -0.5355 -0.2034
   53MOL0     C 7243   5.577   1.272   8.934 -0.4683 -0.1302  0.3910
   53MOL0     C 7244   5.571   1.253   9.082 -0.1919 -0.4837  0.7280
   53MOL0     H 7245   5.070   1.295   8.999  2.1262  0.0772  0.0855
   53MOL0     H 7246   4.868   1.301   9.136 -1.2431  2.8908  2.1216
   53MOL0     H 7247   4.717   1.310   9.295 -3.5377 -1.1311  3.1646
   53MOL0     H 7248   4.695   1.468   9.234 -0.8587 -0.7028 -0.2246
   53MOL0     H 7249   4.529   1.401   9.394 -2.3332  3.7441 -1.0679
   53MOL0     H 7250   4.642   1.435   9.526 -1.9620  1.7183  0.6180
   53MOL0     H 7251   4.666   1.664   9.471  0.7580 -0.9086 -1.4973
   53MOL0     H 7252   4.560   1.660   9.326 -2.0317  2.3458  1.4948
   53MOL0     H 7253   4.484   1.586   9.616  2.3737  0.4636  0.1854
   53MOL0     H 7254   4.488   1.741   9.548 -1.5478  0.2246  0.0056
   53MOL0     H 7255   4.325   1.508   9.452 -1.0100  0.2474  1.2773
   53MOL0     H 7256   4.327   1.660   9.358 -1.0621  1.4513  0.2216
   53MOL0     H 7257   4.223   1.620   9.650  0.0320  0.9239  0.9771
   53MOL0     H 7258   4.225   1.782   9.576 -2.2294 -0.1366 -0.2505
   53MOL0     H 7259   4.058   1.559   9.473  0.6889 -0.4665  3.3364
   53MOL0     H 7260   4.100   1.709   9.366 -1.6402  2.9475  0.7220
   53MOL0     H 7261   3.961   1.699   9.632  0.9690  1.0356  0.9258
   53MOL0     H 7262   4.007   1.844   9.538 -3.9659  0.6281 -1.2739
   53MOL0     H 7263   3.741   1.880   9.557  1.0935 -3.0686  3.0257
   53MOL0     H 7264   3.474   1.782   9.274  2.6621 -3.1078 -1.0465
   53MOL0     H 7265   3.516   1.930   9.343 -0.9000 -0.8319  0.3957
   53MOL0     H 7266   3.493   1.824   9.584 -2.9550  3.1782  0.1220
   53MOL0     H 7267   3.350   1.860   9.493 -1.5017 -1.3224 -1.5236
   53MOL0     H 7268   3.334   1.635   9.593 -1.4567  2.4791  0.2257
   53MOL0     H 7269   3.298   1.635   9.425 -0.0310  1.9965  0.3768
   53MOL0     H 7270   3.441   1.450   9.496  2.2445 -0.4070 -1.4320
   53MOL0     H 7271   3.548   1.545   9.392 -0.8502  1.5223 -1.5861
   53MOL0     H 7272   3.686   1.378   9.434 -0.0308 -0.2012 -0.4125
   53MOL0     H 7273   4.035   1.280   9.403  1.0733 -1.1216  1.2030
   53MOL0     H 7274   3.872   1.265   9.330 -1.3744  2.5332  1.2237
   53MOL0     H 7275   3.929   1.148   9.445  1.8139  0.0403  0.4924
   53MOL0     H 7276   4.319   1.236   9.553  0.1850  1.5079  0.6904
   53MOL0     H 7277   4.560   1.173   9.584 -2.1123 -0.4672 -0.7975
   53MOL0     H 7278   4.731   1.038   9.662 -1.5597  0.3449  0.7143
   53MOL0     H 7279   4.773   1.214   9.623  1.7580  0.4897  0.2034
   53MOL0     H 7280   4.953   1.048   9.639 -2.7638  1.0372 -1.8138
   53MOL0     H 7281   4.976   1.198   9.739  1.5087 -0.0494 -3.1894
   53MOL0     H 7282   5.002   0.940   9.843  0.2340  0.2304  2.5877
   53MOL0     H 7283   4.833   0.972   9.879 -1.4679  3.1581  0.0268
   53MOL0     H 7284   4.902   1.186   9.997 -0.3862 -0.0114 -0.2103
   53MOL0     H 7285   5.061   1.146   9.965 -1.8778  2.2143 -0.3571
   53MOL0     H 7286   4.998   1.089  10.188  1.5299 -1.9364  0.4307
   53MOL0     H 7287   4.865   0.976  10.124 -3.0140  4.2513 -0.8139
   53MOL0     H 7288   5.036   0.817  10.046 -0.5534 -0.2630  0.7085
   53MOL0     H 7289   5.018   0.852  10.206 -5.9961  1.4813 -0.8412
   53MOL0     H 7290   5.227   0.960  10.235  0.9974  1.9700 -0.7454
   53MOL0     H 7291   5.221   1.041  10.085  0.5613  1.8556  2.4751
   53MOL0     H 7292   5.257   0.728  10.097 -1.1640  0.3330 -0.7274
   53MOL0     H 7293   5.389   0.835  10.130 -1.0593  1.9229  2.2308
   53MOL0     H 7294   4.555   1.270   9.993 -1.6089  2.0026  1.4987
   53MOL0     H 7295   4.320   1.360   9.968 -1.1253 -1.0110  0.9785
   53MOL0     H 7296   3.955   1.496   9.837 -0.5039  0.7867 -0.0916
   53MOL0     H 7297   3.734   1.589   9.800 -2.0778 -0.7694 -0.6030
   53MOL0     H 7298   5.096   1.524   9.417 -0.7113 -1.1750  0.0496
   53MOL0     H 7299   5.292   1.528   9.274  0.3363 -0.2702 -2.7704
   53MOL0     H 7300   5.385   1.349   8.668  0.0826 -0.8058  0.6947
   53MOL0     H 7301   5.603   1.294   8.543  0.9299 -1.5717 -0.6266
   53MOL0     H 7302   5.986   1.283   8.796  1.5930 -1.5830  2.1475
   53MOL0     H 7303   5.938   1.114   8.770 -2.2562  2.3713  2.6930
   53MOL0     H 7304   6.149   1.181   8.663 -0.1826 -1.9218  0.3767
   53MOL0     H 7305   6.061   1.270   8.547  0.6066  1.0131  1.4014
   53MOL0     H 7306   6.123   1.033   8.470  0.7328  2.6247  1.2418
   53MOL0     H 7307   6.053   0.972   8.627  2.3800  0.7817  1.3125
   53MOL0     H 7308   5.886   1.056   8.400  0.4699 -1.4914 -0.2967
   53MOL0     H 7309   5.820   1.013   8.553 -0.0122 -2.7549  2.2551
   53MOL0     H 7310   5.907   0.632   8.390 -0.5346  0.6372  2.7497
   53MOL0     H 7311   5.787   1.209   8.918  0.1954 -2.3591 -1.5102
   53MOL0     H 7312   5.488   1.186   9.106  0.7586 -1.6622  0.8178
   53MOL0     H 7313   5.668   1.219   9.119 -1.3996 -2.6817  2.1353
   53MOL0     H 7314   5.561   1.349   9.134  0.3830 -1.1184  2.0799
   54MOL0     O 7315   6.151   3.156   0.716 -0.3435 -0.1712  0.3809
   54MOL0     C 7316   6.193   3.100   0.616  0.6550  0.6234  0.6127
   54MOL0     O 7317   6.313   3.050   0.593 -0.1518  0.1011 -0.2334
   54MOL0     C 7318   6.404   3.073   0.692  0.3681 -0.1052  0.5799
   54MOL0     C 7319   6.412   2.993   0.802 -0.2117  0.0175 -0.4584
   54MOL0     C 7320   6.522   3.011   0.892  0.2571 -0.1864  0.5633
   54MOL0     C 7321   6.614   3.119   0.878  0.8309 -0.0657 -0.0078
   54MOL0     O 7322   6.704   3.153   0.978  0.0934  0.0921 -0.5573
   54MOL0     C 7323   6.828   3.208   0.949  0.0359 -0.2209  0.6139
   54MOL0     C 7324   6.910   3.109   0.871  0.8739  1.0395  0.1284
   54MOL0     C 7325   6.947   2.976   0.942 -0.2807  0.2163  0.3951
   54MOL0     C 7326   7.040   3.003   1.060  0.3450  0.1480  0.0590
   54MOL0     C 7327   7.073   2.859   1.106  0.4415  0.7008 -0.3074
   54MOL0     C 7328   7.183   2.870   1.207  0.1840  0.6178  0.3964
   54MOL0     C 7329   7.209   2.730   1.274  0.8014 -0.9099  0.3492
   54MOL0     C 7330   7.230   2.767   1.426 -0.4660  0.3202 -0.0835
   54MOL0     N 7331   7.262   2.641   1.490 -0.9275  0.6259  0.8078
   54MOL0     C 7332   7.387   2.597   1.517  0.1772  0.2256  0.5274
   54MOL0     C 7333   7.382   2.464   1.558 -0.1671 -1.2149  0.5757
   54MOL0     C 7334   7.496   2.377   1.566  0.1992  0.5562 -0.1243
   54MOL0     C 7335   7.573   2.413   1.699 -0.3604 -0.2748  0.8396
   54MOL0     C 7336   7.644   2.543   1.683  0.2456  0.3484  0.3742
   54MOL0     C 7337   7.731   2.557   1.805 -0.2175  0.1365  0.4781
   54MOL0     O 7338   7.874   2.560   1.772  0.0525  0.1332 -0.0471
   54MOL0     C 7339   7.934   2.678   1.743  0.4233  0.7086 -1.1901
   54MOL0     C 7340   7.875   2.784   1.663 -0.7648 -0.4254  0.3311
   54MOL0     C 7341   7.958   2.901   1.640  0.2822  0.3953  0.4185
   54MOL0     C 7342   7.894   3.005   1.550  0.1940  0.6824 -0.4534
   54MOL0     C 7343   8.092   2.913   1.695  1.1939 -1.1115  0.5885
   54MOL0     C 7344   8.197   3.018   1.660  0.0864 -0.4053  0.0233
   54MOL0     O 7345   8.163   3.123   1.587  0.1953 -0.1048 -0.1718
   54MOL0     C 7346   8.249   3.229   1.555  0.1667 -0.4198  0.6941
   54MOL0     C 7347   8.386   3.209   1.525  0.4994  0.1754 -1.3653
   54MOL0     C 7348   8.464   3.309   1.481  1.1362 -0.4957  0.6889
   54MOL0     C 7349   8.417   3.442   1.486 -0.0337  0.3907  0.1097
   54MOL0     O 7350   8.505   3.543   1.455 -1.1763  1.1583 -1.0174
   54MOL0     C 7351   8.521   3.593   1.323  0.6111  0.5353  0.4465
   54MOL0     C 7352   8.629   3.704   1.337 -0.2054  0.2470 -0.8967
   54MOL0     C 7353   8.615   3.788   1.211  0.0447  0.4602  0.2392
   54MOL0     C 7354   8.692   3.924   1.229  0.2261  0.3596 -0.3775
   54MOL0     C 7355   8.612   4.029   1.313  0.2972 -0.2490  0.5208
   54MOL0     C 7356   8.697   4.161   1.307 -1.1713  0.2681 -0.1964
   54MOL0     C 7357   8.687   4.236   1.166 -0.6208  0.2496 -0.0779
   54MOL0     C 7358   8.750   4.370   1.176  0.3084 -0.5983  0.7249
   54MOL0    Cl 7359   8.924   4.325   1.199 -0.4695 -0.0506  0.0715
   54MOL0     C 7360   8.286   3.465   1.516 -0.3277 -0.7833 -0.2367
   54MOL0     C 7361   8.206   3.361   1.551  1.0565  1.6690  0.4257
   54MOL0     O 7362   8.303   3.002   1.725  0.0925 -0.0096 -0.2529
   54MOL0     C 7363   8.128   2.805   1.783 -0.3073  0.4999 -0.3226
   54MOL0     C 7364   8.055   2.695   1.809  1.0184  0.5164  0.2742
   54MOL0     N 7365   7.254   2.438   1.562  0.8695  0.4945 -0.3622
   54MOL0     N 7366   7.180   2.535   1.521 -1.0145 -0.1655 -0.2029
   54MOL0     C 7367   6.604   3.194   0.762 -0.0046  0.3970  0.3992
   54MOL0     C 7368   6.508   3.171   0.663 -0.3439 -0.9929 -0.3678
   54MOL0     C 7369   6.106   3.061   0.500 -0.0139 -0.0037  0.1452
   54MOL0     C 7370   6.171   3.016   0.378  0.4695 -0.4817 -0.8600
   54MOL0     C 7371   6.106   2.986   0.254 -0.9987 -0.3258 -0.1636
   54MOL0     C 7372   5.967   2.996   0.253 -0.5742 -0.2466  0.2365
   54MOL0     O 7373   5.915   2.979   0.122  0.3063 -0.2415  0.2606
   54MOL0     C 7374   5.775   2.982   0.099  0.0991 -0.0066 -0.0310
   54MOL0     C 7375   5.702   2.866   0.151 -0.5713  0.8488 -0.2457
   54MOL0     C 7376   5.580   2.842   0.064 -1.0107  0.0456 -1.3877
   54MOL0     C 7377   5.482   2.745   0.138 -0.5885 -0.4061  0.1065
   54MOL0     C 7378   5.370   2.696   0.053 -0.5167  0.2374  0.4354
   54MOL0     C 7379   5.282   2.662  -0.022 -0.1324 -0.7982  0.2032
   54MOL0     C 7380   5.899   3.032   0.369  0.8826  0.1219 -0.8016
   54MOL0     C 7381   5.959   3.068   0.498 -0.2500  0.1273 -0.1626
   54MOL0     C 7382   5.872   3.110   0.612  0.7571 -0.9222  0.2653
   54MOL0     H 7383   6.330   2.928   0.832  0.2139 -2.0584 -3.4281
   54MOL0     H 7384   6.524   2.957   0.987 -1.9609 -0.6799  0.3936
   54MOL0     H 7385   6.880   3.222   1.045  0.5058  1.3940  0.1583
   54MOL0     H 7386   6.829   3.305   0.899 -2.7697 -0.1891  0.5048
   54MOL0     H 7387   6.861   3.080   0.778  0.4747 -1.2421  0.9889
   54MOL0     H 7388   7.003   3.161   0.846  0.7706  0.9239 -0.4946
   54MOL0     H 7389   6.853   2.933   0.977 -0.4952  0.5326  0.2099
   54MOL0     H 7390   6.982   2.902   0.869  2.5200  0.4404  1.3842
   54MOL0     H 7391   7.135   3.052   1.037  0.4728 -0.2226 -0.2036
   54MOL0     H 7392   6.998   3.067   1.138  1.3408 -0.3996  1.0661
   54MOL0     H 7393   7.111   2.787   1.034 -0.3519 -0.5926  0.5296
   54MOL0     H 7394   6.990   2.803   1.151 -1.0549  1.0062 -2.5147
   54MOL0     H 7395   7.274   2.892   1.151 -1.2963  1.5679 -1.7476
   54MOL0     H 7396   7.164   2.952   1.277  1.0563 -0.0078  1.4069
   54MOL0     H 7397   7.307   2.694   1.239  2.9562  2.4754  2.3533
   54MOL0     H 7398   7.131   2.657   1.253  1.7884 -1.7313 -0.5891
   54MOL0     H 7399   7.310   2.839   1.446 -0.1818 -0.0905  0.2699
   54MOL0     H 7400   7.138   2.806   1.470 -1.3198  0.1557 -1.6692
   54MOL0     H 7401   7.476   2.655   1.496  0.9221 -0.2954  2.0616
   54MOL0     H 7402   7.563   2.377   1.480  1.2853 -0.6393  0.6809
   54MOL0     H 7403   7.455   2.276   1.575 -1.3172  1.1928  0.5012
   54MOL0     H 7404   7.505   2.416   1.785 -1.0884 -1.7832  0.3458
   54MOL0     H 7405   7.637   2.330   1.729 -0.3406  0.4946  3.1357
   54MOL0     H 7406   7.698   2.552   1.589  1.0773  0.8309  0.8878
   54MOL0     H 7407   7.577   2.629   1.671  1.7031  1.4397 -0.2607
   54MOL0     H 7408   7.688   2.640   1.862 -3.7938 -1.6214  0.6394
   54MOL0     H 7409   7.726   2.473   1.875  0.1720  1.0143  1.6079
   54MOL0     H 7410   7.782   2.766   1.611 -0.3713 -1.7566  0.0502
   54MOL0     H 7411   7.787   3.005   1.573  0.2295 -0.7018 -0.2405
   54MOL0     H 7412   7.914   2.985   1.445  3.6241  3.5608 -0.5446
   54MOL0     H 7413   7.926   3.105   1.580  0.2808 -0.4307  3.7620
   54MOL0     H 7414   8.428   3.109   1.532 -0.5062 -0.3298 -2.2529
   54MOL0     H 7415   8.570   3.301   1.457  0.8349 -0.0497 -0.8864
   54MOL0     H 7416   8.555   3.515   1.255  2.5281 -0.3602  2.2846
   54MOL0     H 7417   8.430   3.641   1.286  3.1815  3.9040 -2.2144
   54MOL0     H 7418   8.606   3.763   1.426 -2.9274 -2.7026  0.5194
   54MOL0     H 7419   8.732   3.665   1.340 -0.8838 -1.6052  2.2113
   54MOL0     H 7420   8.512   3.816   1.186  0.4252 -0.9096 -3.4814
   54MOL0     H 7421   8.662   3.741   1.124  1.0560  0.3249  0.8474
   54MOL0     H 7422   8.721   3.961   1.131  1.6693 -0.1400 -0.1642
   54MOL0     H 7423   8.784   3.906   1.287  0.5954 -0.0138 -1.0661
   54MOL0     H 7424   8.518   4.052   1.262  0.4333 -0.2414  0.2734
   54MOL0     H 7425   8.589   3.979   1.407 -3.1239 -0.8888 -0.5133
   54MOL0     H 7426   8.802   4.133   1.312 -1.5740 -1.6297 -1.1838
   54MOL0     H 7427   8.674   4.226   1.392  2.9951  0.2649  1.1289
   54MOL0     H 7428   8.582   4.253   1.142 -1.3009 -0.5751  2.0471
   54MOL0     H 7429   8.723   4.173   1.084  0.3756 -0.1603  0.6565
   54MOL0     H 7430   8.713   4.436   1.255  0.6615  1.1238 -0.4911
   54MOL0     H 7431   8.726   4.428   1.087 -0.5915 -4.0026 -1.4285
   54MOL0     H 7432   8.242   3.563   1.520  2.0584  0.3862 -0.6412
   54MOL0     H 7433   8.104   3.378   1.585 -0.0822 -1.3304 -1.0941
   54MOL0     H 7434   8.222   2.797   1.836 -0.5375 -2.4204 -0.1480
   54MOL0     H 7435   8.098   2.621   1.876 -0.2838 -0.2126  0.3430
   54MOL0     H 7436   6.671   3.280   0.757 -1.4099  1.5298  0.6555
   54MOL0     H 7437   6.516   3.231   0.573  0.8572  0.5203  0.6904
   54MOL0     H 7438   6.280   3.017   0.381  0.5531 -2.8258  2.4942
   54MOL0     H 7439   6.161   2.950   0.167 -1.3322  1.0555 -0.9787
   54MOL0     H 7440   5.746   3.072   0.152 -2.6165 -0.7851 -0.0720
   54MOL0     H 7441   5.764   2.996  -0.009  0.4032  2.0923  0.1828
   54MOL0     H 7442   5.682   2.866   0.259 -0.2487  4.7236 -0.0496
   54MOL0     H 7443   5.767   2.778   0.145 -2.0141 -0.2624 -0.2001
   54MOL0     H 7444   5.539   2.943   0.059  0.9016  0.9914  0.4278
   54MOL0     H 7445   5.622   2.802  -0.029  1.5138 -1.5283  0.3120
   54MOL0     H 7446   5.437   2.795   0.224  0.2603 -0.5959  0.6691
   54MOL0     H 7447   5.528   2.657   0.183 -1.6275 -0.3736  1.2973
   54MOL0     H 7448   5.194   2.641  -0.079 -0.8236  2.2028  0.0038
   54MOL0     H 7449   5.791   3.020   0.374  1.1633 -2.7224 -0.2250
   54MOL0     H 7450   5.768   3.106   0.579  1.5112 -4.4809 -2.1580
   54MOL0     H 7451   5.885   3.044   0.698 -2.6693  0.7680  2.2831
   54MOL0     H 7452   5.885   3.212   0.650  1.4462 -1.6220  2.0179
   55MOL0     O 7453  10.730   1.523   1.652 -0.2585  0.0522 -0.4072
   55MOL0     C 7454  10.659   1.615   1.688  0.4258 -0.7090  0.8375
   55MOL0     O 7455  10.701   1.723   1.761 -0.3887  0.6384 -0.0053
   55MOL0     C 7456  10.829   1.725   1.818 -0.3195 -0.0796 -0.6579
   55MOL0     C 7457  10.843   1.787   1.941  0.4031  0.3678 -0.2654
   55MOL0     C 7458  10.965   1.812   2.001 -0.2191  0.4523 -0.3037
   55MOL0     C 7459  11.081   1.753   1.950 -0.7085  0.0614  0.3053
   55MOL0     O 7460  11.195   1.752   2.034 -0.4343 -0.0513  0.5106
   55MOL0     C 7461  11.316   1.800   1.974  0.0227  0.0066  0.4025
   55MOL0     C 7462  11.411   1.683   1.959 -0.2439  0.5783 -0.4763
   55MOL0     C 7463  11.462   1.641   2.098  0.1926 -0.3777 -0.0069
   55MOL0     C 7464  11.540   1.760   2.178  0.6893 -0.2145  1.2787
   55MOL0     C 7465  11.685   1.773   2.136 -0.3865  0.9442  0.1301
   55MOL0     C 7466  11.782   1.853   2.219  0.2159 -0.0749 -0.1351
   55MOL0     C 7467  11.837   1.780   2.351  0.6523  0.1036 -0.8178
   55MOL0     C 7468  11.941   1.863   2.429 -0.3672  0.7248 -0.0571
   55MOL0     N 7469  11.882   1.889   2.559  0.4700  0.3895  0.3479
   55MOL0     C 7470  11.768   1.972   2.578 -0.1728  1.3060 -0.4789
   55MOL0     C 7471  11.742   1.941   2.708 -0.0825 -0.8617 -0.1796
   55MOL0     C 7472  11.620   1.993   2.783  0.1694  0.4494  0.3766
   55MOL0     C 7473  11.486   1.954   2.732 -0.4145 -0.2518 -0.6077
   55MOL0     C 7474  11.371   1.974   2.829  0.0876  0.4742  0.1011
   55MOL0     C 7475  11.342   2.120   2.868 -1.2693 -0.2862 -0.1986
   55MOL0     O 7476  11.259   2.140   2.984  0.2076  1.2758  0.0088
   55MOL0     C 7477  11.129   2.113   2.985 -0.1958 -0.1260 -0.3964
   55MOL0     C 7478  11.057   2.069   2.872 -0.2907  0.8903  0.4712
   55MOL0     C 7479  10.929   2.020   2.884  0.7719  0.0666  0.7540
   55MOL0     C 7480  10.880   1.935   2.759  0.3980  1.0967 -1.0041
   55MOL0     C 7481  10.861   2.026   3.009 -0.5880 -1.2354 -0.5770
   55MOL0     C 7482  10.722   1.986   3.027  0.3438  0.0985  0.1215
   55MOL0     O 7483  10.641   2.038   2.932 -0.4271  0.1801 -0.2511
   55MOL0     C 7484  10.503   2.033   2.942  0.1354  0.3842  0.3679
   55MOL0     C 7485  10.431   1.917   2.887 -0.2054 -0.7745  0.2481
   55MOL0     C 7486  10.290   1.914   2.911 -0.8812  0.6862  0.5907
   55MOL0     C 7487  10.231   2.007   3.002  0.3328  0.0668  0.7082
   55MOL0     O 7488  10.096   1.984   3.027 -0.1454  0.1105  0.0316
   55MOL0     C 7489  10.023   2.086   3.083  0.5720 -0.1502 -0.2405
   55MOL0     C 7490   9.899   2.024   3.157 -0.0161 -0.0198 -0.1178
   55MOL0     C 7491   9.792   2.122   3.210 -0.7230  0.4477  0.4107
   55MOL0     C 7492   9.743   2.206   3.094  0.8097 -0.1968 -0.4485
   55MOL0     C 7493   9.644   2.311   3.150  0.4904 -0.1637 -0.2038
   55MOL0     C 7494   9.573   2.398   3.040 -0.5717  0.4015 -0.2102
   55MOL0     C 7495   9.452   2.465   3.094 -1.0998  0.1318  0.7086
   55MOL0     C 7496   9.373   2.553   2.994 -0.5328  0.4832 -0.0825
   55MOL0    Cl 7497   9.225   2.619   3.076  0.1820 -0.2814 -0.1902
   55MOL0     C 7498  10.311   2.117   3.049  0.7833  0.7043 -0.5038
   55MOL0     C 7499  10.443   2.126   3.019 -0.4093 -0.2306 -0.5838
   55MOL0     O 7500  10.687   1.927   3.125 -0.0170  0.1276 -0.2649
   55MOL0     C 7501  10.928   2.095   3.118  0.3457  0.6519  0.7103
   55MOL0     C 7502  11.055   2.137   3.099  0.3295 -0.5674 -0.2771
   55MOL0     N 7503  11.826   1.847   2.761  0.1773 -0.0074  0.5398
   55MOL0     N 7504  11.899   1.806   2.668  0.2582 -0.5679 -0.9444
   55MOL0     C 7505  11.078   1.699   1.819  0.1502  0.6829 -0.2790
   55MOL0     C 7506  10.951   1.683   1.754 -0.5502  0.5007  0.1182
   55MOL0     C 7507  10.515   1.604   1.658  0.7074 -0.1041  0.1348
   55MOL0     C 7508  10.433   1.712   1.707  0.2274  0.2866  0.5926
   55MOL0     C 7509  10.295   1.711   1.675  0.4585 -0.0928 -0.7324
   55MOL0     C 7510  10.243   1.612   1.587 -0.1396  0.1632  0.1441
   55MOL0     O 7511  10.117   1.629   1.540 -0.4218 -0.3426  0.5679
   55MOL0     C 7512  10.019   1.656   1.644 -0.4004  0.2596  0.2948
   55MOL0     C 7513   9.883   1.607   1.603  0.9941 -0.2313 -0.0539
   55MOL0     C 7514   9.836   1.489   1.697  0.2078 -0.9347  0.1789
   55MOL0     C 7515   9.718   1.406   1.655 -0.0338  0.2425  0.0983
   55MOL0     C 7516   9.615   1.481   1.585  0.6118 -0.6618  0.4681
   55MOL0     C 7517   9.539   1.540   1.512 -0.5340  0.4042 -0.3064
   55MOL0     C 7518  10.322   1.519   1.526 -0.9055 -0.2062 -1.4643
   55MOL0     C 7519  10.462   1.519   1.561  0.8476  0.8764  0.6314
   55MOL0     C 7520  10.546   1.407   1.489  0.1900 -0.4440 -0.6984
   55MOL0     H 7521  10.766   1.842   1.993  1.7412 -0.2632  2.5959
   55MOL0     H 7522  10.982   1.873   2.089 -1.1877 -0.1084  0.2758
   55MOL0     H 7523  11.357   1.880   2.037 -2.0657  2.4840 -1.1488
   55MOL0     H 7524  11.302   1.850   1.877 -3.7114 -0.8322  0.3392
   55MOL0     H 7525  11.375   1.594   1.906  1.6612  1.1410 -2.8665
   55MOL0     H 7526  11.501   1.705   1.902  0.5272 -3.1430 -0.9131
   55MOL0     H 7527  11.389   1.599   2.168  1.2431 -0.9272  0.7921
   55MOL0     H 7528  11.527   1.555   2.079  0.8160 -0.7295  3.1555
   55MOL0     H 7529  11.493   1.858   2.180 -0.4076 -0.7325  1.3033
   55MOL0     H 7530  11.541   1.724   2.282  3.6367 -4.3551  0.1103
   55MOL0     H 7531  11.684   1.802   2.031  1.3512 -3.8529 -1.4387
   55MOL0     H 7532  11.720   1.670   2.138 -1.4047  0.1596 -5.7030
   55MOL0     H 7533  11.863   1.894   2.158 -0.9420  0.8868 -1.0690
   55MOL0     H 7534  11.725   1.942   2.246 -0.5540 -0.5221 -0.2654
   55MOL0     H 7535  11.892   1.692   2.315 -1.0149 -1.0782 -0.6212
   55MOL0     H 7536  11.755   1.740   2.411  0.5062 -1.2510 -1.8741
   55MOL0     H 7537  12.036   1.812   2.444 -0.6004  0.3658  0.2062
   55MOL0     H 7538  11.965   1.958   2.381 -2.5157  1.6152  0.5079
   55MOL0     H 7539  11.717   2.036   2.507 -1.1184  1.4927  0.3471
   55MOL0     H 7540  11.631   2.102   2.777  1.2021  0.2973 -2.7116
   55MOL0     H 7541  11.633   1.947   2.881 -0.2070  1.2634  0.8205
   55MOL0     H 7542  11.466   2.004   2.636 -0.2830  0.6446 -0.1825
   55MOL0     H 7543  11.488   1.849   2.702 -0.7323 -0.4139 -0.0632
   55MOL0     H 7544  11.279   1.921   2.802 -1.1632  2.5765  0.0049
   55MOL0     H 7545  11.407   1.919   2.917  0.2887 -3.7807 -2.3924
   55MOL0     H 7546  11.445   2.152   2.889 -1.1121 -0.6368 -0.4217
   55MOL0     H 7547  11.299   2.181   2.788 -0.1694  0.9216  0.1036
   55MOL0     H 7548  11.106   2.058   2.775 -0.1563  1.0325  0.5228
   55MOL0     H 7549  10.958   1.885   2.700  0.5431 -1.9454  1.5466
   55MOL0     H 7550  10.833   1.999   2.683 -1.3329  0.2936 -0.6546
   55MOL0     H 7551  10.806   1.858   2.781  2.9041 -1.1340  0.2168
   55MOL0     H 7552  10.477   1.843   2.822  0.0120  1.9730 -2.9491
   55MOL0     H 7553  10.232   1.833   2.868  2.6820 -1.4351 -0.5889
   55MOL0     H 7554  10.075   2.143   3.161 -1.1076 -1.1674  1.7418
   55MOL0     H 7555   9.991   2.159   3.009 -0.5719 -1.1093 -0.7269
   55MOL0     H 7556   9.850   1.961   3.083 -1.3277  0.3691  0.3896
   55MOL0     H 7557   9.940   1.968   3.241  2.5247  2.0317  0.1385
   55MOL0     H 7558   9.834   2.170   3.299  0.0545 -0.0056  0.3058
   55MOL0     H 7559   9.709   2.066   3.255 -1.2649  1.5047  0.7373
   55MOL0     H 7560   9.696   2.144   3.017 -0.4683  0.6341 -0.3569
   55MOL0     H 7561   9.833   2.251   3.053  3.2654 -2.7559  1.6976
   55MOL0     H 7562   9.566   2.265   3.212 -0.1425  0.7515 -0.3166
   55MOL0     H 7563   9.698   2.373   3.222 -0.7468 -0.3655  0.9289
   55MOL0     H 7564   9.562   2.330   2.955 -0.9225 -1.5060  1.2950
   55MOL0     H 7565   9.648   2.472   3.011  2.5259 -2.2773  0.3798
   55MOL0     H 7566   9.473   2.519   3.186 -2.3876 -2.9244  2.9564
   55MOL0     H 7567   9.380   2.390   3.127 -0.4328 -0.3808  1.0241
   55MOL0     H 7568   9.345   2.497   2.904 -1.3032 -1.2239  1.1561
   55MOL0     H 7569   9.442   2.635   2.970  1.7314 -0.4465  2.6647
   55MOL0     H 7570  10.271   2.190   3.119  0.4446 -0.9676  1.0975
   55MOL0     H 7571  10.494   2.215   3.056  0.1771 -0.9238  0.3283
   55MOL0     H 7572  10.878   2.105   3.214 -0.6180 -1.4267  0.4814
   55MOL0     H 7573  11.100   2.183   3.187  3.0037  0.0550 -1.8871
   55MOL0     H 7574  11.167   1.661   1.771  2.2109  0.6337  3.2691
   55MOL0     H 7575  10.963   1.647   1.652  1.5949  0.6704  0.2486
   55MOL0     H 7576  10.471   1.787   1.776 -0.5686 -0.5797  2.0379
   55MOL0     H 7577  10.231   1.792   1.708 -1.1616 -1.6615  0.1236
   55MOL0     H 7578  10.058   1.601   1.731 -0.5368  1.1819  0.9553
   55MOL0     H 7579  10.024   1.763   1.663 -1.3814  0.4736 -0.6051
   55MOL0     H 7580   9.894   1.567   1.502 -0.9506 -1.5032  0.1891
   55MOL0     H 7581   9.807   1.684   1.588  0.3336 -0.4772  1.8685
   55MOL0     H 7582   9.923   1.426   1.717  2.1883  1.2539 -1.0493
   55MOL0     H 7583   9.812   1.534   1.794 -1.6432  1.3395 -1.2209
   55MOL0     H 7584   9.678   1.363   1.747  0.2211  0.1333  0.1589
   55MOL0     H 7585   9.735   1.324   1.585 -1.5827  1.9791 -2.5073
   55MOL0     H 7586   9.467   1.598   1.457 -1.0012  2.1614  2.0077
   55MOL0     H 7587  10.288   1.450   1.450 -3.9154  0.9182 -1.2515
   55MOL0     H 7588  10.635   1.451   1.443 -0.8189  0.8552 -1.4935
   55MOL0     H 7589  10.571   1.333   1.565  0.3426  2.9980  2.9198
   55MOL0     H 7590  10.481   1.376   1.407  0.3203  2.6568 -2.1466
   56MOL0     O 7591   6.535  10.899   9.096 -0.3982  0.0425  0.3857
   56MOL0     C 7592   6.490  10.866   9.200 -0.2852  0.3013 -0.0092
   56MOL0     O 7593   6.564  10.829   9.317 -0.9668 -0.7798  0.0939
   56MOL0     C 7594   6.705  10.848   9.324  0.1012 -0.6279  0.9319
   56MOL0     C 7595   6.779  10.960   9.267 -0.2141  0.8642  0.1261
   56MOL0     C 7596   6.917  10.979   9.302  0.8831 -0.0571  0.1257
   56MOL0     C 7597   6.978  10.882   9.377  0.6591 -0.2523 -0.2128
   56MOL0     O 7598   7.107  10.882   9.417  0.4519 -1.1178  0.2686
   56MOL0     C 7599   7.160  11.004   9.475 -0.4736 -0.3896  0.0802
   56MOL0     C 7600   7.203  11.001   9.630 -0.1232 -0.3275 -1.0930
   56MOL0     C 7601   7.276  11.126   9.675  0.5482  0.4365  0.1139
   56MOL0     C 7602   7.268  11.146   9.831 -0.5691 -0.1761 -0.4636
   56MOL0     C 7603   7.361  11.256   9.878 -1.1086 -0.2939 -0.5284
   56MOL0     C 7604   7.345  11.293  10.026 -0.4189  0.9611  0.7507
   56MOL0     C 7605   7.441  11.410  10.067 -0.7507 -0.0260 -0.1354
   56MOL0     C 7606   7.395  11.485  10.192 -0.1891  0.4980 -0.9329
   56MOL0     N 7607   7.410  11.394  10.304  0.1495  0.3853  0.1199
   56MOL0     C 7608   7.528  11.379  10.379  0.8852 -0.5216  0.1038
   56MOL0     C 7609   7.490  11.300  10.480  0.2696  0.3473 -0.8809
   56MOL0     C 7610   7.576  11.228  10.592  0.1746 -0.7593 -0.0951
   56MOL0     C 7611   7.726  11.239  10.583 -0.2017  0.1446  0.0183
   56MOL0     C 7612   7.786  11.173  10.708 -0.7330  0.3605  0.3282
   56MOL0     C 7613   7.935  11.158  10.691  0.1779  0.4482  0.0228
   56MOL0     O 7614   7.988  11.080  10.798 -0.4997 -0.0245 -0.5293
   56MOL0     C 7615   8.122  11.083  10.801 -0.3010  0.2412  0.7261
   56MOL0     C 7616   8.210  11.145  10.707 -0.4382 -0.1560 -0.3331
   56MOL0     C 7617   8.353  11.149  10.729 -0.2060 -0.5098  0.0079
   56MOL0     C 7618   8.437  11.240  10.633  0.3289  0.4516 -0.0426
   56MOL0     C 7619   8.406  11.079  10.840 -0.3716  0.1030  0.5523
   56MOL0     C 7620   8.560  11.082  10.871  1.5244 -0.0439  0.4516
   56MOL0     O 7621   8.594  11.058  11.001  1.0020  0.4763 -0.6207
   56MOL0     C 7622   8.724  11.034  11.039 -0.1824  0.3851 -0.3674
   56MOL0     C 7623   8.820  10.958  10.964 -0.3518 -0.6951  0.3060
   56MOL0     C 7624   8.950  10.932  11.014  0.1890  0.0168  0.1186
   56MOL0     C 7625   8.982  10.967  11.143 -0.0801  0.2537 -0.2524
   56MOL0     O 7626   9.112  10.932  11.181  0.9890  0.5331 -0.4498
   56MOL0     C 7627   9.193  11.045  11.183 -0.4681 -0.5447 -0.2495
   56MOL0     C 7628   9.329  11.010  11.251 -0.8757 -1.1186 -0.5005
   56MOL0     C 7629   9.318  10.936  11.380  0.2598 -0.4211 -0.6156
   56MOL0     C 7630   9.351  10.786  11.362  0.0739 -0.1067  0.0063
   56MOL0     C 7631   9.385  10.717  11.495  0.5282  0.2035 -0.0821
   56MOL0     C 7632   9.404  10.561  11.485 -1.3403  0.0540  0.8827
   56MOL0     C 7633   9.401  10.487  11.620 -0.0035 -0.0042 -0.5240
   56MOL0     C 7634   9.322  10.361  11.609 -0.3240 -0.7627 -0.2793
   56MOL0    Cl 7635   9.270  10.339  11.784  0.1218 -0.0499 -0.1940
   56MOL0     C 7636   8.893  11.032  11.224  1.0073 -0.0154 -0.2676
   56MOL0     C 7637   8.770  11.057  11.175  0.5937  0.4951 -0.2784
   56MOL0     O 7638   8.637  11.093  10.776 -0.8566 -0.4098 -0.0741
   56MOL0     C 7639   8.322  11.023  10.933 -0.2853 -0.1718 -0.3970
   56MOL0     C 7640   8.182  11.021  10.915  0.1353  0.0102 -0.9709
   56MOL0     N 7641   7.344  11.276  10.480 -0.2686 -0.3973 -0.0667
   56MOL0     N 7642   7.309  11.328  10.369  0.7944 -0.8686 -0.6690
   56MOL0     C 7643   6.909  10.761   9.410  0.2496  0.0188 -0.1296
   56MOL0     C 7644   6.772  10.747   9.387 -0.0831  0.7308 -0.6234
   56MOL0     C 7645   6.343  10.839   9.205  0.1528 -1.5666 -0.2395
   56MOL0     C 7646   6.285  10.865   9.331  0.0485 -0.0604  0.9755
   56MOL0     C 7647   6.142  10.842   9.347 -0.0906 -0.7300  0.4175
   56MOL0     C 7648   6.067  10.780   9.247 -0.1528  0.3530 -0.1469
   56MOL0     O 7649   5.938  10.745   9.280  0.3248 -0.6220 -0.1383
   56MOL0     C 7650   5.837  10.764   9.180  0.8060  0.4187 -1.0149
   56MOL0     C 7651   5.754  10.889   9.224  0.1283  0.2858 -0.5673
   56MOL0     C 7652   5.643  10.928   9.116 -0.3042 -0.5091 -0.6375
   56MOL0     C 7653   5.565  11.057   9.166 -1.3429  0.1970  0.7511
   56MOL0     C 7654   5.617  11.178   9.088 -0.0186 -0.7473  0.0461
   56MOL0     C 7655   5.661  11.271   9.025 -0.2791 -0.6885 -0.0996
   56MOL0     C 7656   6.134  10.734   9.136 -0.3229 -0.8103  0.8381
   56MOL0     C 7657   6.263  10.770   9.104 -0.7251 -1.3400  1.1961
   56MOL0     C 7658   6.324  10.721   8.975  0.4604 -0.3959 -0.3775
   56MOL0     H 7659   6.722  11.030   9.207 -1.5505  1.0077  1.4976
   56MOL0     H 7660   6.969  11.070   9.273 -0.2854  0.0246 -1.9188
   56MOL0     H 7661   7.093  11.088   9.455  0.4284  0.2721 -0.2389
   56MOL0     H 7662   7.248  11.029   9.414 -1.3255 -0.9249 -1.4044
   56MOL0     H 7663   7.114  10.988   9.691  0.4104  2.5198  0.4640
   56MOL0     H 7664   7.268  10.914   9.642 -1.3884 -1.0347  1.1266
   56MOL0     H 7665   7.379  11.121   9.640  1.4398 -1.8710  2.7178
   56MOL0     H 7666   7.229  11.211   9.623 -1.5339 -1.3356 -1.0652
   56MOL0     H 7667   7.166  11.177   9.855 -0.3079  0.2685  0.1063
   56MOL0     H 7668   7.290  11.059   9.894  1.1466  0.1403 -0.5698
   56MOL0     H 7669   7.357  11.345   9.814  2.1754 -0.6545 -1.4253
   56MOL0     H 7670   7.463  11.218   9.869 -0.6680  0.7294 -0.0247
   56MOL0     H 7671   7.241  11.326  10.030 -0.6814  0.0397  2.0078
   56MOL0     H 7672   7.358  11.209  10.094 -1.7476  0.8313  0.8563
   56MOL0     H 7673   7.439  11.483   9.985 -1.3827 -0.6383 -0.6887
   56MOL0     H 7674   7.537  11.359  10.073 -0.3121  0.1692 -3.5427
   56MOL0     H 7675   7.443  11.582  10.211  0.5812  0.5273 -2.8305
   56MOL0     H 7676   7.292  11.514  10.168 -1.0682 -1.7824 -0.0960
   56MOL0     H 7677   7.629  11.402  10.345  2.5634 -3.3818  2.6907
   56MOL0     H 7678   7.543  11.123  10.593  0.5213 -0.9259  2.7675
   56MOL0     H 7679   7.545  11.272  10.688 -0.7361  0.5527 -0.9683
   56MOL0     H 7680   7.749  11.190  10.488 -0.7723 -1.8138  0.8426
   56MOL0     H 7681   7.758  11.342  10.567  1.6503 -0.8379 -3.6044
   56MOL0     H 7682   7.774  11.242  10.792  0.1888  1.2478 -0.2430
   56MOL0     H 7683   7.740  11.075  10.721 -0.8915 -0.2219 -3.3672
   56MOL0     H 7684   7.950  11.085  10.612 -0.3808 -1.4769  1.6075
   56MOL0     H 7685   7.979  11.258  10.683  0.9911  0.0864 -0.1101
   56MOL0     H 7686   8.173  11.190  10.615  2.0500 -0.1165 -1.4094
   56MOL0     H 7687   8.532  11.278  10.672  0.5950  1.3332 -1.4767
   56MOL0     H 7688   8.370  11.318  10.595 -0.5405 -1.4228 -2.6563
   56MOL0     H 7689   8.456  11.179  10.545 -2.4183  0.3521 -0.6710
   56MOL0     H 7690   8.783  10.914  10.872  0.6138  0.3081 -0.5825
   56MOL0     H 7691   9.025  10.884  10.951  0.4620 -1.9794  1.8674
   56MOL0     H 7692   9.207  11.076  11.079 -0.4231 -1.2483 -0.4541
   56MOL0     H 7693   9.138  11.125  11.234 -4.0513 -1.6069 -2.1138
   56MOL0     H 7694   9.397  10.957  11.182  2.0151  1.4920  0.1202
   56MOL0     H 7695   9.378  11.104  11.277 -1.7651 -1.1598  1.4637
   56MOL0     H 7696   9.220  10.946  11.429  0.4920 -4.8316  1.1712
   56MOL0     H 7697   9.385  10.979  11.455  0.3602 -0.5546 -0.6300
   56MOL0     H 7698   9.434  10.789  11.292  0.4818  3.9241  0.3854
   56MOL0     H 7699   9.263  10.736  11.320 -1.8405  1.9852  1.2664
   56MOL0     H 7700   9.478  10.762  11.530  1.2275 -1.2759  0.0110
   56MOL0     H 7701   9.306  10.742  11.567 -0.3527 -1.7454 -0.3116
   56MOL0     H 7702   9.504  10.546  11.443 -2.1411 -0.7791 -0.8143
   56MOL0     H 7703   9.346  10.518  11.403  3.0838  1.3061 -3.3505
   56MOL0     H 7704   9.367  10.558  11.695  1.2058  0.5158 -0.4368
   56MOL0     H 7705   9.504  10.457  11.644  1.0933  2.3875 -1.8566
   56MOL0     H 7706   9.363  10.267  11.573 -0.0113 -1.0617  0.8376
   56MOL0     H 7707   9.226  10.375  11.558 -1.7158 -3.3598  1.3727
   56MOL0     H 7708   8.921  11.035  11.328 -0.3254 -0.4784  0.1194
   56MOL0     H 7709   8.701  11.105  11.244 -0.4492  0.7293 -1.4425
   56MOL0     H 7710   8.362  10.976  11.022  0.2807  0.1177 -0.4942
   56MOL0     H 7711   8.124  10.978  10.996  0.9056  2.3010  0.9189
   56MOL0     H 7712   6.953  10.681   9.469  0.1486 -1.3618 -1.8471
   56MOL0     H 7713   6.711  10.665   9.423  1.0949  0.7727  1.6122
   56MOL0     H 7714   6.346  10.884   9.418  1.0804  0.6976  0.1249
   56MOL0     H 7715   6.099  10.879   9.440  1.5547 -0.1061  0.9614
   56MOL0     H 7716   5.881  10.797   9.086  0.0942  0.2019 -1.4290
   56MOL0     H 7717   5.774  10.677   9.162  0.4285  1.1041 -3.3407
   56MOL0     H 7718   5.835  10.960   9.245  1.4724 -1.3798  0.0765
   56MOL0     H 7719   5.698  10.862   9.314  0.0403 -0.5509 -0.8641
   56MOL0     H 7720   5.697  10.951   9.023  0.0904 -2.2349 -0.8698
   56MOL0     H 7721   5.587  10.841   9.083  0.7334 -1.1736 -0.6964
   56MOL0     H 7722   5.589  11.058   9.273  0.3878 -2.3377  0.4884
   56MOL0     H 7723   5.457  11.052   9.150 -1.3214  0.2363  0.5969
   56MOL0     H 7724   5.701  11.352   8.967  1.3658 -2.0631 -0.9755
   56MOL0     H 7725   6.090  10.673   9.059  0.1529  0.2342 -0.2995
   56MOL0     H 7726   6.352  10.805   8.910  1.2533  0.3206  0.8375
   56MOL0     H 7727   6.407  10.651   8.990  0.6853 -0.2628 -0.9377
   56MOL0     H 7728   6.246  10.656   8.935 -0.9086  1.1045 -0.2185
   57MOL0     O 7729   1.779   5.723   9.020  0.3201 -0.3907  0.1336
   57MOL0     C 7730   1.774   5.601   9.012 -0.3505 -0.4032 -1.2361
   57MOL0     O 7731   1.723   5.535   8.901  0.3567  0.0519 -0.8925
   57MOL0     C 7732   1.661   5.613   8.806  1.2153 -0.5615 -0.6380
   57MOL0     C 7733   1.528   5.661   8.830  0.1032 -0.3814 -0.1294
   57MOL0     C 7734   1.456   5.741   8.732 -0.0687  0.8529  0.1118
   57MOL0     C 7735   1.525   5.791   8.628 -0.6009  0.0896  0.8126
   57MOL0     O 7736   1.457   5.884   8.552 -0.2556 -0.4362  0.4993
   57MOL0     C 7737   1.528   5.930   8.436 -0.2256 -0.1641  0.0570
   57MOL0     C 7738   1.428   6.015   8.356 -0.3256  0.5751 -0.7924
   57MOL0     C 7739   1.485   6.127   8.265 -0.6532 -0.5203 -0.2556
   57MOL0     C 7740   1.374   6.175   8.167  0.0745 -0.1831  0.5896
   57MOL0     C 7741   1.402   6.304   8.082  0.3965  0.0625 -0.0666
   57MOL0     C 7742   1.526   6.307   8.008  0.5160  1.1796 -0.6745
   57MOL0     C 7743   1.512   6.397   7.890 -1.0464  0.0653 -0.4925
   57MOL0     C 7744   1.644   6.408   7.805 -0.5057 -0.0241  0.1997
   57MOL0     N 7745   1.753   6.482   7.880  0.1138 -0.2673 -0.4424
   57MOL0     C 7746   1.788   6.606   7.859  0.9657  0.6861 -0.4609
   57MOL0     C 7747   1.916   6.614   7.910  1.2242 -0.2533 -0.1419
   57MOL0     C 7748   1.995   6.738   7.918  0.6940  0.3331 -0.3702
   57MOL0     C 7749   1.957   6.814   8.047  0.0533  0.0254 -0.3227
   57MOL0     C 7750   1.829   6.895   8.024  0.2231 -0.3168  1.4294
   57MOL0     C 7751   1.816   7.014   8.116 -0.3736  1.0959 -0.6700
   57MOL0     O 7752   1.936   7.092   8.114  0.2390 -0.3334  0.3306
   57MOL0     C 7753   1.954   7.187   8.207  0.4890 -0.0756  0.1765
   57MOL0     C 7754   1.855   7.244   8.297  0.4268  0.3700 -0.3493
   57MOL0     C 7755   1.894   7.348   8.388 -0.4988  0.5101 -0.4834
   57MOL0     C 7756   1.780   7.397   8.476  0.2338 -0.2665  0.5166
   57MOL0     C 7757   2.032   7.393   8.393 -0.5538  0.1941 -0.2292
   57MOL0     C 7758   2.075   7.504   8.482 -0.0005  0.1095 -1.0105
   57MOL0     O 7759   2.181   7.481   8.556 -0.4494  0.2838  0.4346
   57MOL0     C 7760   2.233   7.579   8.626 -1.3981  0.0665  0.3923
   57MOL0     C 7761   2.311   7.689   8.573 -0.0035  0.5284 -0.3946
   57MOL0     C 7762   2.351   7.797   8.651 -0.5057  0.1785  0.1739
   57MOL0     C 7763   2.330   7.787   8.791  1.1168  0.2077 -0.6425
   57MOL0     O 7764   2.378   7.882   8.879 -0.5945 -0.0750  0.2480
   57MOL0     C 7765   2.515   7.855   8.914  0.1775  1.3396 -0.1588
   57MOL0     C 7766   2.619   7.900   8.815 -0.8809  0.6564  0.5153
   57MOL0     C 7767   2.756   7.873   8.876 -0.7823 -0.4692  0.5290
   57MOL0     C 7768   2.867   7.936   8.780  0.3138 -0.1887 -0.6229
   57MOL0     C 7769   3.008   7.901   8.829  0.1037  0.3048  0.4753
   57MOL0     C 7770   3.115   7.952   8.741  0.5185 -0.5918  0.3120
   57MOL0     C 7771   3.116   7.896   8.602  0.5149  0.2158 -0.3514
   57MOL0     C 7772   3.263   7.890   8.552  0.2253 -0.3912  0.7437
   57MOL0    Cl 7773   3.383   7.808   8.660  0.2664 -0.1270 -0.0879
   57MOL0     C 7774   2.259   7.683   8.849  0.4962  0.5272  0.5211
   57MOL0     C 7775   2.215   7.585   8.764  0.3956 -0.1441 -0.3331
   57MOL0     O 7776   2.006   7.605   8.488  0.1080  0.0101 -0.5785
   57MOL0     C 7777   2.121   7.330   8.304  0.1420  0.1115  0.3038
   57MOL0     C 7778   2.084   7.233   8.218 -0.4073  0.1388 -0.4717
   57MOL0     N 7779   1.957   6.491   7.971  0.2532 -0.4497 -0.0189
   57MOL0     N 7780   1.862   6.415   7.941  0.4971  0.6825  0.3021
   57MOL0     C 7781   1.658   5.747   8.602  0.7126  0.2599 -0.3457
   57MOL0     C 7782   1.721   5.649   8.682 -0.4082 -0.6705  0.3063
   57MOL0     C 7783   1.829   5.510   9.123 -0.6073 -0.2943 -0.1689
   57MOL0     C 7784   1.748   5.394   9.131 -0.2448 -0.3521 -0.1054
   57MOL0     C 7785   1.775   5.305   9.240 -0.2152  0.2180  0.3775
   57MOL0     C 7786   1.877   5.335   9.333  0.5657  0.8322  0.0767
   57MOL0     O 7787   1.893   5.234   9.421 -0.7840 -0.2130 -0.1958
   57MOL0     C 7788   1.886   5.286   9.557  0.6394  0.0148 -0.3782
   57MOL0     C 7789   1.848   5.191   9.675  0.3299 -0.6080  0.0643
   57MOL0     C 7790   1.722   5.116   9.622  0.2245 -0.2395 -0.0021
   57MOL0     C 7791   1.631   5.076   9.744  0.8942  0.2066 -0.1389
   57MOL0     C 7792   1.702   4.983   9.830  0.2939 -0.2060 -0.2217
   57MOL0     C 7793   1.761   4.906   9.902 -0.3410 -0.0541  0.2559
   57MOL0     C 7794   1.957   5.447   9.316 -0.4733  0.4664 -0.0550
   57MOL0     C 7795   1.930   5.536   9.214 -0.2651  0.1894 -0.7379
   57MOL0     C 7796   2.023   5.652   9.195 -0.2518  0.4615 -0.3749
   57MOL0     H 7797   1.471   5.630   8.916 -1.1251  0.7493 -0.4974
   57MOL0     H 7798   1.353   5.755   8.763 -0.8655 -2.6009 -0.5221
   57MOL0     H 7799   1.568   5.850   8.374  1.8924  1.8237 -1.2846
   57MOL0     H 7800   1.614   5.993   8.459  0.6501 -0.8761 -1.1711
   57MOL0     H 7801   1.362   5.942   8.308 -1.3651 -0.0062  1.3509
   57MOL0     H 7802   1.361   6.055   8.433  0.2936 -0.1599  0.1631
   57MOL0     H 7803   1.518   6.208   8.330  1.4605 -1.2237 -0.3569
   57MOL0     H 7804   1.561   6.078   8.203 -1.5012 -5.0244  1.7994
   57MOL0     H 7805   1.352   6.086   8.107  0.1162  0.2390 -0.0598
   57MOL0     H 7806   1.286   6.187   8.230 -2.4842 -2.5388 -2.2370
   57MOL0     H 7807   1.414   6.390   8.149  0.7330 -0.3822  0.4443
   57MOL0     H 7808   1.321   6.329   8.013  1.0307  2.0008 -0.1822
   57MOL0     H 7809   1.608   6.344   8.070  0.7321  2.1067 -1.4904
   57MOL0     H 7810   1.548   6.205   7.976  1.8431  0.6701  1.7028
   57MOL0     H 7811   1.479   6.497   7.919  0.4768  0.7214 -0.9017
   57MOL0     H 7812   1.444   6.362   7.812  1.5678 -2.5122 -1.8310
   57MOL0     H 7813   1.678   6.308   7.774  0.3130  0.8662 -1.9077
   57MOL0     H 7814   1.622   6.460   7.712 -0.2844  0.8610  0.6331
   57MOL0     H 7815   1.721   6.676   7.809  0.4410  0.5464  0.0407
   57MOL0     H 7816   1.984   6.805   7.833  1.6460  2.2161  0.9071
   57MOL0     H 7817   2.104   6.723   7.921  1.0047  2.3638 -0.3071
   57MOL0     H 7818   1.952   6.762   8.143  2.6803 -0.7151 -0.5088
   57MOL0     H 7819   2.043   6.877   8.073  1.2992 -1.0316 -1.6976
   57MOL0     H 7820   1.825   6.918   7.917  0.9043 -2.0117  1.0036
   57MOL0     H 7821   1.741   6.831   8.037 -0.9463  1.5363  3.2984
   57MOL0     H 7822   1.733   7.080   8.088  1.4052  3.9968  0.4072
   57MOL0     H 7823   1.799   6.975   8.217 -1.1340 -0.7751 -1.4913
   57MOL0     H 7824   1.753   7.209   8.304 -0.1264  1.7879 -0.9592
   57MOL0     H 7825   1.712   7.311   8.487 -1.9756  1.3276 -0.1024
   57MOL0     H 7826   1.743   7.490   8.433 -0.2997  0.1842  1.9198
   57MOL0     H 7827   1.816   7.427   8.574 -2.0208  4.3051  0.1833
   57MOL0     H 7828   2.329   7.700   8.467  2.8997  1.1445  0.0750
   57MOL0     H 7829   2.409   7.874   8.601 -0.2170 -0.7694 -1.0273
   57MOL0     H 7830   2.539   7.913   9.004  0.1756  0.3041  0.5211
   57MOL0     H 7831   2.530   7.749   8.933  3.0641  1.6136 -0.5263
   57MOL0     H 7832   2.617   7.837   8.725  0.6372  0.9852  0.2346
   57MOL0     H 7833   2.611   8.008   8.798  1.1714  1.1589  2.3863
   57MOL0     H 7834   2.782   7.767   8.877  0.2805 -0.2554 -1.3931
   57MOL0     H 7835   2.771   7.910   8.978 -2.5424  1.6025  0.1128
   57MOL0     H 7836   2.858   8.045   8.779  1.1248 -0.1221 -1.3873
   57MOL0     H 7837   2.858   7.897   8.678  0.3709 -0.7847 -0.4066
   57MOL0     H 7838   3.028   7.939   8.929  1.0671  0.7635  0.1173
   57MOL0     H 7839   3.003   7.792   8.826 -0.0674  0.3224 -1.0668
   57MOL0     H 7840   3.213   7.929   8.786  0.6751  0.7415  0.6894
   57MOL0     H 7841   3.103   8.060   8.733  1.3705 -0.4701  0.4896
   57MOL0     H 7842   3.065   7.966   8.536  0.2767 -0.3456 -0.7757
   57MOL0     H 7843   3.065   7.800   8.591 -2.6636  1.9591 -2.3694
   57MOL0     H 7844   3.302   7.991   8.546  1.5596 -0.8694  1.0296
   57MOL0     H 7845   3.257   7.838   8.455 -2.1142  0.6645  0.2369
   57MOL0     H 7846   2.249   7.681   8.957  1.3820 -1.8299  0.6224
   57MOL0     H 7847   2.152   7.507   8.806 -0.2869  0.5265 -0.0820
   57MOL0     H 7848   2.226   7.355   8.312  0.1491  0.9314 -1.8617
   57MOL0     H 7849   2.155   7.176   8.159  1.2399  0.5294  1.0460
   57MOL0     H 7850   1.703   5.771   8.506 -2.1164 -1.1111 -2.1512
   57MOL0     H 7851   1.826   5.633   8.664  0.6544  2.0338  3.1039
   57MOL0     H 7852   1.673   5.370   9.057 -1.4645  2.5767  0.0444
   57MOL0     H 7853   1.705   5.223   9.254 -0.0295  0.1244  0.7596
   57MOL0     H 7854   1.983   5.321   9.594  1.1255 -2.2831  0.6630
   57MOL0     H 7855   1.809   5.363   9.561 -0.1514 -0.7969  0.2807
   57MOL0     H 7856   1.842   5.244   9.770  1.2372  0.4621 -0.4616
   57MOL0     H 7857   1.923   5.113   9.693 -1.9140 -3.0865 -0.6858
   57MOL0     H 7858   1.657   5.179   9.562 -1.2195 -2.0074 -0.3857
   57MOL0     H 7859   1.740   5.026   9.563  0.8085  0.4795 -0.9442
   57MOL0     H 7860   1.537   5.026   9.721  0.1290  0.7345  1.6443
   57MOL0     H 7861   1.606   5.162   9.808  0.5879  1.7988 -2.2720
   57MOL0     H 7862   1.833   4.841   9.947 -1.0266 -1.3925 -0.5143
   57MOL0     H 7863   2.039   5.455   9.386 -0.0873  0.7942 -0.5350
   57MOL0     H 7864   1.993   5.741   9.251  0.1092 -0.1495  0.8383
   57MOL0     H 7865   2.120   5.623   9.237 -0.0304  2.6503  0.7429
   57MOL0     H 7866   2.041   5.677   9.091  0.2139 -1.0444 -0.6818
   58MOL0     O 7867  10.131   9.960   9.694  0.4662  0.5293  0.5203
   58MOL0     C 7868  10.096   9.938   9.809  0.7400 -0.0449 -0.3610
   58MOL0     O 7869  10.124  10.013   9.917 -0.4150  0.2493  0.0118
   58MOL0     C 7870  10.234  10.086   9.891 -0.1286  0.4981 -0.3155
   58MOL0     C 7871  10.352  10.042   9.944 -0.7788 -0.2424 -0.1330
   58MOL0     C 7872  10.474  10.116   9.919  0.5279  0.2536 -0.6651
   58MOL0     C 7873  10.473  10.244   9.855  0.3820  0.6468 -0.6111
   58MOL0     O 7874  10.576  10.334   9.826  0.5014  0.0000  0.1786
   58MOL0     C 7875  10.684  10.330   9.915  0.2791 -0.3695  0.6341
   58MOL0     C 7876  10.770  10.449   9.889  0.3601  0.1922 -0.4064
   58MOL0     C 7877  10.908  10.436   9.961  0.3066 -0.6056  0.5205
   58MOL0     C 7878  10.995  10.558   9.939 -0.1984 -0.0839 -0.5568
   58MOL0     C 7879  11.138  10.546   9.998  0.1405  0.6827  0.6249
   58MOL0     C 7880  11.140  10.504  10.145  0.9250  0.1530 -0.0802
   58MOL0     C 7881  11.266  10.526  10.223 -0.8018  1.2976 -1.0363
   58MOL0     C 7882  11.379  10.454  10.164 -0.3324  1.1161  0.0731
   58MOL0     N 7883  11.511  10.490  10.226  0.4703  0.2339  0.2217
   58MOL0     C 7884  11.566  10.614  10.235 -0.6300 -1.1935  0.3747
   58MOL0     C 7885  11.676  10.603  10.308 -0.1880 -0.6072  0.7982
   58MOL0     C 7886  11.766  10.706  10.362  0.1416 -0.5648 -0.6828
   58MOL0     C 7887  11.757  10.721  10.515 -1.2795  0.0765  0.5348
   58MOL0     C 7888  11.815  10.855  10.566  0.1519  0.3938 -0.8655
   58MOL0     C 7889  11.848  10.858  10.712 -0.6325 -0.4937  0.4985
   58MOL0     O 7890  11.963  10.942  10.738 -0.4225  0.1310  0.3635
   58MOL0     C 7891  12.017  10.943  10.862 -0.1027  0.1217 -0.2136
   58MOL0     C 7892  11.975  10.890  10.981 -0.0941  0.8046  0.6477
   58MOL0     C 7893  12.042  10.906  11.104  0.0512 -0.7195 -0.5706
   58MOL0     C 7894  11.993  10.827  11.224 -0.0709 -0.1410 -0.3371
   58MOL0     C 7895  12.153  10.990  11.113  0.6925 -0.2918  0.5845
   58MOL0     C 7896  12.221  11.030  11.240 -0.1457  0.2673 -1.2795
   58MOL0     O 7897  12.357  11.014  11.238  0.1516  0.8357  0.4714
   58MOL0     C 7898  12.429  11.052  11.345 -0.6736  0.5652 -0.2645
   58MOL0     C 7899  12.470  11.187  11.341  0.0688 -0.1579  0.3573
   58MOL0     C 7900  12.551  11.242  11.438  0.2620 -0.1814 -0.6546
   58MOL0     C 7901  12.588  11.167  11.545  0.0179  0.5145 -0.4128
   58MOL0     O 7902  12.661  11.240  11.644  0.9053  0.5732 -0.0181
   58MOL0     C 7903  12.707  11.171  11.761  0.3748  0.4872 -0.3516
   58MOL0     C 7904  12.773  11.281  11.849  0.1309 -1.2681 -0.1883
   58MOL0     C 7905  12.825  11.229  11.983  0.3357 -0.7442 -0.4970
   58MOL0     C 7906  12.722  11.225  12.095  0.2833 -0.3341  0.6755
   58MOL0     C 7907  12.776  11.197  12.235  0.4492  0.7405 -0.3297
   58MOL0     C 7908  12.664  11.175  12.334  0.0799 -0.2027 -0.4410
   58MOL0     C 7909  12.698  11.177  12.485 -0.2186 -0.6222  1.0494
   58MOL0     C 7910  12.579  11.136  12.570 -0.5609  0.0714 -0.2784
   58MOL0    Cl 7911  12.453  11.256  12.584 -0.1073 -0.2532 -0.3750
   58MOL0     C 7912  12.542  11.029  11.552  0.3383  0.1859 -0.6520
   58MOL0     C 7913  12.472  10.971  11.447 -0.3623  0.1209 -0.2124
   58MOL0     O 7914  12.155  11.061  11.340  0.6607  0.4957 -0.9119
   58MOL0     C 7915  12.192  11.063  10.993  0.2559 -0.7000 -0.6831
   58MOL0     C 7916  12.123  11.035  10.869  0.7096 -1.5624 -0.7023
   58MOL0     N 7917  11.694  10.472  10.348 -0.1795  0.9212 -0.2680
   58MOL0     N 7918  11.593  10.406  10.289 -0.0767 -0.9011  0.0063
   58MOL0     C 7919  10.344  10.286   9.802  0.3921 -0.2201 -1.2390
   58MOL0     C 7920  10.230  10.211   9.825 -0.0767  0.3167  0.2749
   58MOL0     C 7921   9.997   9.831   9.823  0.5061 -0.1423 -0.1936
   58MOL0     C 7922   9.920   9.825   9.942 -0.0413 -0.1284  0.5837
   58MOL0     C 7923   9.832   9.709   9.963  0.4669  0.3042 -0.7320
   58MOL0     C 7924   9.787   9.638   9.854  0.5840 -0.1340  0.7671
   58MOL0     O 7925   9.691   9.536   9.853 -0.0237  0.1395  0.5996
   58MOL0     C 7926   9.601   9.514   9.965  0.2492  0.3926 -0.5012
   58MOL0     C 7927   9.481   9.610   9.975 -0.0944 -0.1017  0.0662
   58MOL0     C 7928   9.378   9.577  10.075 -0.5599  0.3913 -0.9132
   58MOL0     C 7929   9.247   9.648  10.055  0.4279 -0.4672 -0.3432
   58MOL0     C 7930   9.153   9.608  10.172 -0.9356 -0.0562  0.0431
   58MOL0     C 7931   9.097   9.572  10.278 -0.5564 -0.6680 -0.0497
   58MOL0     C 7932   9.837   9.662   9.725 -1.1209 -0.3525 -0.0482
   58MOL0     C 7933   9.948   9.753   9.711  0.4642 -0.0302  0.4144
   58MOL0     C 7934   9.999   9.748   9.558  0.1119 -0.1870 -0.7820
   58MOL0     H 7935  10.359   9.946   9.995  3.9027 -0.3492 -0.5662
   58MOL0     H 7936  10.574  10.075   9.925  0.1085 -1.2497 -2.7296
   58MOL0     H 7937  10.740  10.238   9.896 -2.0318 -1.7393  0.1802
   58MOL0     H 7938  10.659  10.315  10.020 -1.2697  2.3005  0.7449
   58MOL0     H 7939  10.780  10.447   9.780  3.6989 -1.2034 -0.1828
   58MOL0     H 7940  10.711  10.531   9.932  1.7506  0.8573  0.2683
   58MOL0     H 7941  10.889  10.423  10.068 -5.0336  0.9292  0.0578
   58MOL0     H 7942  10.949  10.341   9.925  1.5502 -0.4894  1.5632
   58MOL0     H 7943  10.999  10.577   9.831  2.4009 -1.4274 -0.7699
   58MOL0     H 7944  10.949  10.639   9.997 -0.8746 -0.7702 -0.1133
   58MOL0     H 7945  11.192  10.640   9.986  0.5279  0.2032 -2.1797
   58MOL0     H 7946  11.188  10.464   9.945 -1.7580  0.5256 -1.0426
   58MOL0     H 7947  11.054  10.548  10.196  0.9994  1.7870 -1.3209
   58MOL0     H 7948  11.120  10.396  10.145  0.7176  0.0981  3.0599
   58MOL0     H 7949  11.243  10.487  10.322  2.8097  2.1041  0.3028
   58MOL0     H 7950  11.286  10.634  10.229  0.9039  0.9375  1.0625
   58MOL0     H 7951  11.347  10.349  10.165 -1.2569  1.3070 -2.1463
   58MOL0     H 7952  11.415  10.464  10.061  1.7755  0.8322  0.7299
   58MOL0     H 7953  11.523  10.699  10.182  0.4514  0.5713  2.1729
   58MOL0     H 7954  11.755  10.806  10.318  0.0241 -0.1644  0.2300
   58MOL0     H 7955  11.870  10.678  10.341  1.5088  2.1903  1.6643
   58MOL0     H 7956  11.650  10.707  10.534 -1.1120  0.6545  2.0401
   58MOL0     H 7957  11.816  10.640  10.559 -2.3959 -0.6748  0.6750
   58MOL0     H 7958  11.913  10.860  10.517 -0.2476 -1.4136 -1.9322
   58MOL0     H 7959  11.756  10.941  10.534 -0.2029  0.0941 -1.0171
   58MOL0     H 7960  11.769  10.897  10.777 -0.7733 -2.3400  1.5018
   58MOL0     H 7961  11.883  10.760  10.745  2.1168  0.1324 -0.3193
   58MOL0     H 7962  11.896  10.815  10.978 -0.3347  1.1047 -0.9841
   58MOL0     H 7963  12.023  10.724  11.204  1.9603  0.2910  0.2089
   58MOL0     H 7964  11.888  10.839  11.253 -0.3240  0.2115 -1.3537
   58MOL0     H 7965  12.054  10.845  11.313 -0.3558  0.3997 -0.2443
   58MOL0     H 7966  12.439  11.257  11.264 -1.8622 -1.0151  0.3038
   58MOL0     H 7967  12.577  11.347  11.438  0.9838 -0.3357  0.6750
   58MOL0     H 7968  12.628  11.122  11.819 -0.5110  1.2909 -0.8509
   58MOL0     H 7969  12.786  11.100  11.733  1.0940  0.6850  1.1070
   58MOL0     H 7970  12.845  11.329  11.782  1.8619 -3.5411 -0.0936
   58MOL0     H 7971  12.692  11.353  11.863  1.2037 -0.0317 -0.0824
   58MOL0     H 7972  12.902  11.300  12.016 -0.3235  0.2973 -1.1454
   58MOL0     H 7973  12.856  11.125  11.970 -1.3197 -1.1864 -1.0870
   58MOL0     H 7974  12.653  11.145  12.066  0.4411 -0.3006  0.1990
   58MOL0     H 7975  12.673  11.322  12.085  1.0742 -0.2063 -3.7083
   58MOL0     H 7976  12.819  11.098  12.215 -0.7671 -0.1918  1.3714
   58MOL0     H 7977  12.839  11.275  12.280 -2.9758  1.9404  2.8682
   58MOL0     H 7978  12.627  11.073  12.319  1.8856 -1.1380  1.0522
   58MOL0     H 7979  12.594  11.256  12.311  1.1231  0.8783  0.1036
   58MOL0     H 7980  12.718  11.280  12.516 -4.5966  0.6832  0.2200
   58MOL0     H 7981  12.789  11.119  12.503  0.4513 -0.3527 -1.1172
   58MOL0     H 7982  12.605  11.123  12.676 -0.5384  0.4621 -0.2351
   58MOL0     H 7983  12.548  11.034  12.548  1.5044 -0.7103  0.1201
   58MOL0     H 7984  12.579  10.967  11.633  0.6105  0.1430 -0.8094
   58MOL0     H 7985  12.433  10.870  11.439 -0.4403  0.0897  0.4829
   58MOL0     H 7986  12.277  11.130  10.990  0.8933 -1.3892 -4.6481
   58MOL0     H 7987  12.161  11.088  10.783 -0.4416  2.2148  0.8988
   58MOL0     H 7988  10.333  10.373   9.738 -1.6749 -1.8828 -3.3194
   58MOL0     H 7989  10.133  10.239   9.786 -1.7035 -1.1616  2.9814
   58MOL0     H 7990   9.941   9.894  10.023 -1.1856  1.3798 -0.3506
   58MOL0     H 7991   9.782   9.698  10.059 -0.6525  0.2970 -1.2973
   58MOL0     H 7992   9.570   9.409   9.962  3.3294 -0.9199  3.6448
   58MOL0     H 7993   9.665   9.516  10.054 -0.2939 -1.0887 -0.0351
   58MOL0     H 7994   9.430   9.618   9.878 -0.2316  1.1606  0.2239
   58MOL0     H 7995   9.525   9.707  10.000 -0.9640  0.6397 -1.1553
   58MOL0     H 7996   9.360   9.470  10.065  3.8630 -0.8682  1.6425
   58MOL0     H 7997   9.420   9.595  10.175  0.6397  0.4962 -1.4182
   58MOL0     H 7998   9.204   9.624   9.957 -0.3668  0.0470 -0.1314
   58MOL0     H 7999   9.270   9.754  10.060 -0.8861 -0.1937  0.4938
   58MOL0     H 8000   9.056   9.539  10.371 -1.3538  2.2368  0.7204
   58MOL0     H 8001   9.784   9.623   9.639  1.0749  1.1445 -2.2019
   58MOL0     H 8002   9.949   9.824   9.498  0.1629  1.1486  0.7794
   58MOL0     H 8003  10.107   9.757   9.545 -0.0833  1.1745 -1.7064
   58MOL0     H 8004   9.975   9.650   9.515  1.8085  0.0826 -2.4460
   59MOL0     O 8005   6.351   2.917   3.431 -0.4338  0.4241  0.4467
   59MOL0     C 8006   6.334   3.011   3.359  0.1312  1.0734  0.1532
   59MOL0     O 8007   6.409   3.124   3.370  0.3372 -0.0089  0.1032
   59MOL0     C 8008   6.502   3.149   3.462  0.5999 -0.3771 -0.6398
   59MOL0     C 8009   6.472   3.132   3.602  0.8826 -0.1201 -1.0130
   59MOL0     C 8010   6.568   3.173   3.694  0.1817  0.6539  0.2163
   59MOL0     C 8011   6.694   3.215   3.655 -0.4022  0.0335 -0.1849
   59MOL0     O 8012   6.785   3.243   3.757  0.2001  0.7519  0.0929
   59MOL0     C 8013   6.894   3.341   3.747 -0.2130  0.6264 -0.2278
   59MOL0     C 8014   6.948   3.382   3.883 -0.4614 -0.0066 -0.9969
   59MOL0     C 8015   7.058   3.286   3.948 -0.0093 -0.3738  0.0870
   59MOL0     C 8016   7.201   3.317   3.903 -0.0314 -0.2006 -0.1108
   59MOL0     C 8017   7.255   3.447   3.953  0.4871 -0.2605  0.3997
   59MOL0     C 8018   7.403   3.458   3.898 -0.8402 -0.1523  1.0921
   59MOL0     C 8019   7.488   3.363   3.987 -0.1194 -0.5664 -0.4264
   59MOL0     C 8020   7.635   3.404   4.015 -0.4156 -0.7640 -0.7507
   59MOL0     N 8021   7.706   3.318   4.117  0.2756  0.0427  0.1134
   59MOL0     C 8022   7.759   3.355   4.242 -0.0515 -0.5400  0.5723
   59MOL0     C 8023   7.814   3.243   4.287 -0.6596  0.5010 -0.5616
   59MOL0     C 8024   7.883   3.232   4.422  0.5650 -0.2379  0.3913
   59MOL0     C 8025   8.016   3.316   4.416  0.0074  0.1742 -0.2472
   59MOL0     C 8026   8.088   3.321   4.550 -0.0232  0.4886 -0.0802
   59MOL0     C 8027   8.228   3.370   4.536 -0.3015 -0.8596  0.1980
   59MOL0     O 8028   8.289   3.384   4.665  0.3977  0.5429  0.3651
   59MOL0     C 8029   8.392   3.476   4.684  0.0597 -0.0145 -0.8390
   59MOL0     C 8030   8.479   3.523   4.584  0.1281 -0.0052  0.4468
   59MOL0     C 8031   8.592   3.608   4.610 -0.1122 -0.7121 -0.8198
   59MOL0     C 8032   8.686   3.633   4.503 -0.4508 -0.4363 -0.2250
   59MOL0     C 8033   8.615   3.651   4.744  0.5628 -0.7949  0.3621
   59MOL0     C 8034   8.729   3.742   4.791  0.0030  0.8732 -0.8559
   59MOL0     O 8035   8.740   3.745   4.928  0.5278 -0.2295 -0.3185
   59MOL0     C 8036   8.821   3.849   4.981 -0.4704 -0.2212  0.3706
   59MOL0     C 8037   8.762   3.968   5.014  0.6796  0.0167 -0.5595
   59MOL0     C 8038   8.830   4.078   5.061 -0.1927 -0.9112 -0.2875
   59MOL0     C 8039   8.972   4.066   5.074  0.4994 -0.3883  0.5000
   59MOL0     O 8040   9.043   4.182   5.095 -0.5758  0.2826 -0.0578
   59MOL0     C 8041   9.089   4.196   5.234  0.7344 -0.1522  0.4014
   59MOL0     C 8042   9.243   4.222   5.235  0.3311  0.0681 -0.5680
   59MOL0     C 8043   9.304   4.222   5.366  0.0745  0.0557 -0.2470
   59MOL0     C 8044   9.388   4.086   5.395 -0.2955 -0.2901 -0.0721
   59MOL0     C 8045   9.471   4.105   5.521  0.1277  0.5853 -0.4995
   59MOL0     C 8046   9.376   4.115   5.641 -0.2459 -0.8832 -0.2827
   59MOL0     C 8047   9.455   4.129   5.774 -1.1029  0.3705  0.7351
   59MOL0     C 8048   9.366   4.059   5.887 -0.0127 -0.5658  0.3540
   59MOL0    Cl 8049   9.193   4.122   5.890  0.1368 -0.0302 -0.2403
   59MOL0     C 8050   9.037   3.946   5.046 -0.5308  1.1639 -0.0419
   59MOL0     C 8051   8.963   3.828   5.002 -0.3370 -0.9138 -1.0184
   59MOL0     O 8052   8.774   3.820   4.713 -0.2557 -0.0140 -0.9703
   59MOL0     C 8053   8.533   3.602   4.841  0.2670  0.2176 -0.1106
   59MOL0     C 8054   8.427   3.515   4.811  1.1026  0.5794  0.4864
   59MOL0     N 8055   7.805   3.140   4.199 -0.6304  0.3034  0.3374
   59MOL0     N 8056   7.739   3.179   4.101 -0.0841 -0.4942  0.3956
   59MOL0     C 8057   6.732   3.210   3.522 -0.1170 -0.1438 -0.4849
   59MOL0     C 8058   6.630   3.190   3.420  0.1608 -1.0665  0.0603
   59MOL0     C 8059   6.229   3.008   3.249 -0.0145 -1.1066 -0.9895
   59MOL0     C 8060   6.202   3.125   3.176  0.4404 -0.6657  0.4122
   59MOL0     C 8061   6.113   3.138   3.069 -0.0260 -0.8888  0.3236
   59MOL0     C 8062   6.029   3.032   3.043 -0.0664 -0.1261  0.6326
   59MOL0     O 8063   5.943   3.039   2.947  0.0058 -0.2249  0.4191
   59MOL0     C 8064   5.936   2.926   2.857 -0.4444 -0.0061 -0.3911
   59MOL0     C 8065   5.834   2.939   2.745  0.7727 -0.7366  0.1224
   59MOL0     C 8066   5.813   2.811   2.660 -0.8774 -0.2332  0.1081
   59MOL0     C 8067   5.932   2.765   2.574  0.1801  1.3530  0.2732
   59MOL0     C 8068   5.961   2.854   2.460  0.4900  0.2967 -0.6366
   59MOL0     C 8069   5.995   2.909   2.356 -0.2552  0.1206  0.7763
   59MOL0     C 8070   6.041   2.915   3.126 -0.8447 -0.1446 -0.5482
   59MOL0     C 8071   6.138   2.903   3.225 -0.2322  0.1110  0.2136
   59MOL0     C 8072   6.136   2.763   3.299  0.9793 -0.0998 -0.5870
   59MOL0     H 8073   6.380   3.080   3.625  0.9700 -1.0107 -2.5643
   59MOL0     H 8074   6.562   3.171   3.803  0.1404  0.2442  0.2069
   59MOL0     H 8075   6.867   3.432   3.691  3.6606  1.4898 -0.9824
   59MOL0     H 8076   6.975   3.289   3.696  0.9079  1.4444  0.6803
   59MOL0     H 8077   7.003   3.475   3.871  2.2432 -1.2161  1.0392
   59MOL0     H 8078   6.870   3.402   3.957  0.2761  0.6102 -0.3814
   59MOL0     H 8079   7.053   3.304   4.056 -2.5475  1.2525 -0.2186
   59MOL0     H 8080   7.035   3.180   3.931 -0.3828 -0.3966  0.7043
   59MOL0     H 8081   7.264   3.234   3.935  1.6492  2.0328  2.7951
   59MOL0     H 8082   7.206   3.313   3.794  2.0941  0.4556 -0.0729
   59MOL0     H 8083   7.246   3.456   4.062 -1.4824  3.1623  0.0948
   59MOL0     H 8084   7.198   3.528   3.908  0.1382 -0.3909  0.5983
   59MOL0     H 8085   7.416   3.424   3.794 -2.5698 -3.5128  1.8365
   59MOL0     H 8086   7.438   3.561   3.912  2.0470 -1.2388  2.4852
   59MOL0     H 8087   7.490   3.261   3.950 -1.8072 -1.3156  1.3602
   59MOL0     H 8088   7.446   3.361   4.089 -0.8676  0.2733 -0.7028
   59MOL0     H 8089   7.697   3.401   3.925 -1.1269  0.0146 -1.2797
   59MOL0     H 8090   7.637   3.506   4.054  2.4554 -0.8570 -0.4668
   59MOL0     H 8091   7.753   3.451   4.293 -0.4687 -0.0309 -0.4062
   59MOL0     H 8092   7.906   3.127   4.441 -2.3997 -0.8495  1.1397
   59MOL0     H 8093   7.818   3.268   4.503 -2.3151 -0.8915 -1.4761
   59MOL0     H 8094   8.078   3.274   4.337 -1.9884  0.2566 -1.9276
   59MOL0     H 8095   7.997   3.420   4.388  1.3654  0.1008 -1.5064
   59MOL0     H 8096   8.041   3.392   4.619 -1.3336 -0.2471 -0.1977
   59MOL0     H 8097   8.077   3.228   4.607 -1.5616  1.5637  1.5003
   59MOL0     H 8098   8.286   3.295   4.481  2.4236  0.9314  0.4757
   59MOL0     H 8099   8.234   3.468   4.487 -3.1399 -1.1659 -0.9734
   59MOL0     H 8100   8.463   3.497   4.480 -0.3909 -0.4306  0.6247
   59MOL0     H 8101   8.787   3.637   4.544  0.5263 -4.7692 -1.6835
   59MOL0     H 8102   8.671   3.733   4.461  0.7596  1.7582  4.0490
   59MOL0     H 8103   8.691   3.553   4.428 -0.9109 -1.8381  1.1945
   59MOL0     H 8104   8.654   3.964   5.008  0.1838  1.7800  3.8464
   59MOL0     H 8105   8.776   4.169   5.085  0.9491  0.3750 -2.3654
   59MOL0     H 8106   9.029   4.277   5.277 -2.0060 -1.0391 -1.4503
   59MOL0     H 8107   9.061   4.114   5.300 -1.7725  1.7669  1.9121
   59MOL0     H 8108   9.287   4.158   5.158 -0.5754  1.0917 -2.0000
   59MOL0     H 8109   9.252   4.323   5.193 -0.8587  0.2119 -0.5381
   59MOL0     H 8110   9.234   4.240   5.448  2.1725  3.2683  1.0517
   59MOL0     H 8111   9.379   4.301   5.364  0.7962 -0.5869 -3.1314
   59MOL0     H 8112   9.449   4.062   5.307 -0.5804 -0.7073 -0.1614
   59MOL0     H 8113   9.313   4.007   5.407 -1.2346  0.8315  1.9471
   59MOL0     H 8114   9.529   4.012   5.529 -1.7644 -0.7208 -1.2395
   59MOL0     H 8115   9.536   4.192   5.505  0.3477  0.0776 -2.7877
   59MOL0     H 8116   9.302   4.034   5.643 -0.1383 -0.9959 -0.7534
   59MOL0     H 8117   9.320   4.208   5.632  0.1546 -0.8472 -3.3601
   59MOL0     H 8118   9.483   4.232   5.799 -3.7007  1.9167 -2.0526
   59MOL0     H 8119   9.550   4.079   5.754 -1.0960  1.3823 -2.2812
   59MOL0     H 8120   9.415   4.090   5.980 -0.4462 -1.1604  0.7911
   59MOL0     H 8121   9.365   3.950   5.890 -1.3350 -0.5888  3.2208
   59MOL0     H 8122   9.145   3.940   5.056 -0.5292 -1.0671 -0.8763
   59MOL0     H 8123   9.020   3.738   4.984 -0.3445 -1.7070  2.2793
   59MOL0     H 8124   8.543   3.627   4.946 -0.4925 -0.8031  0.2224
   59MOL0     H 8125   8.366   3.470   4.889 -2.6461  0.9633 -1.9801
   59MOL0     H 8126   6.834   3.209   3.485 -0.9984 -1.4619 -3.1980
   59MOL0     H 8127   6.659   3.207   3.317  3.4346  1.1635  1.1919
   59MOL0     H 8128   6.257   3.213   3.206  0.5627 -0.6876  0.2570
   59MOL0     H 8129   6.101   3.231   3.015 -0.4825 -0.8686  0.4547
   59MOL0     H 8130   6.035   2.905   2.815 -0.1507 -0.2976  0.4257
   59MOL0     H 8131   5.917   2.835   2.914  1.7495  0.3611  1.0011
   59MOL0     H 8132   5.855   3.027   2.683 -0.4405 -0.1233  0.5511
   59MOL0     H 8133   5.739   2.952   2.798 -0.0661 -1.9241 -1.0500
   59MOL0     H 8134   5.785   2.727   2.724  0.3137 -0.6544  0.1096
   59MOL0     H 8135   5.731   2.832   2.591  0.1358  0.1487 -1.0225
   59MOL0     H 8136   5.887   2.673   2.538 -0.9038  2.3586 -1.0436
   59MOL0     H 8137   6.026   2.751   2.629 -0.9504  0.1081  1.9777
   59MOL0     H 8138   6.022   2.961   2.266  2.4114 -0.9129  0.8653
   59MOL0     H 8139   5.968   2.834   3.121 -1.1368  0.1977 -3.3158
   59MOL0     H 8140   6.231   2.709   3.311  0.3252 -1.1047  0.2626
   59MOL0     H 8141   6.100   2.780   3.401  0.1321 -1.9666 -0.5374
   59MOL0     H 8142   6.067   2.697   3.247 -1.5630  1.0669  1.0962
   60MOL0     O 8143   4.282   9.417   2.682  0.1496 -0.1145 -0.9743
   60MOL0     C 8144   4.255   9.498   2.773 -0.1430  0.2769 -0.0863
   60MOL0     O 8145   4.320   9.509   2.895 -0.2665 -1.6004  0.0246
   60MOL0     C 8146   4.438   9.454   2.925  0.1383 -0.3811  0.0570
   60MOL0     C 8147   4.554   9.444   2.837 -0.4911  0.7773 -0.2740
   60MOL0     C 8148   4.670   9.385   2.883 -0.2036 -0.8300 -0.5702
   60MOL0     C 8149   4.689   9.352   3.015 -0.0568 -0.9526 -0.3405
   60MOL0     O 8150   4.809   9.297   3.047  0.3382 -0.9241 -0.1003
   60MOL0     C 8151   4.798   9.193   3.136 -0.0445 -0.0444  0.3082
   60MOL0     C 8152   4.929   9.106   3.122  1.0459 -0.6806 -0.6874
   60MOL0     C 8153   4.922   9.002   3.013 -0.7036  0.4063  0.2766
   60MOL0     C 8154   4.848   9.032   2.883  0.5562 -0.0392  0.4250
   60MOL0     C 8155   4.924   9.121   2.786 -0.0488 -0.0320  0.2925
   60MOL0     C 8156   5.058   9.053   2.733  0.5233 -0.5679  0.3159
   60MOL0     C 8157   5.108   9.105   2.597 -0.3534 -0.1668  0.4468
   60MOL0     C 8158   5.249   9.171   2.613 -0.6555 -1.6112 -0.7995
   60MOL0     N 8159   5.355   9.068   2.627  0.1967  0.3736  0.5797
   60MOL0     C 8160   5.488   9.092   2.609 -0.1143  0.6031  0.2776
   60MOL0     C 8161   5.543   8.971   2.605  0.0450 -0.3973  0.3959
   60MOL0     C 8162   5.685   8.939   2.571  0.0305 -0.1525  0.1049
   60MOL0     C 8163   5.748   8.880   2.700  0.2462 -0.1795  0.3873
   60MOL0     C 8164   5.746   8.985   2.815 -0.2982 -0.0788 -0.4091
   60MOL0     C 8165   5.841   8.941   2.925 -0.3904  0.0877 -0.4507
   60MOL0     O 8166   5.974   8.966   2.869  0.6606  0.0109 -0.2206
   60MOL0     C 8167   6.068   8.932   2.966 -0.4508 -0.8310  0.6080
   60MOL0     C 8168   6.128   8.807   2.961 -0.2991 -0.5592  1.0479
   60MOL0     C 8169   6.235   8.781   3.048 -0.6560 -0.1512  0.5842
   60MOL0     C 8170   6.298   8.639   3.035 -0.2550 -0.6364  0.4428
   60MOL0     C 8171   6.281   8.878   3.142 -0.2721  0.5483  0.6372
   60MOL0     C 8172   6.410   8.866   3.220  0.2394  0.1618  0.0361
   60MOL0     O 8173   6.446   8.740   3.274 -0.1539 -0.4499  0.8968
   60MOL0     C 8174   6.548   8.730   3.362 -0.4331  0.9045 -0.2512
   60MOL0     C 8175   6.540   8.775   3.496 -0.7053  0.3328  0.5602
   60MOL0     C 8176   6.643   8.741   3.587 -0.4207 -0.1084 -0.7215
   60MOL0     C 8177   6.747   8.653   3.548  0.1509  0.0115 -0.6889
   60MOL0     O 8178   6.846   8.626   3.645  0.4490  0.1219  0.1574
   60MOL0     C 8179   6.945   8.532   3.615 -0.0185 -0.4459 -0.4640
   60MOL0     C 8180   6.903   8.383   3.601 -0.2938  0.2158  0.6471
   60MOL0     C 8181   6.822   8.326   3.717  1.3512  0.1594  0.0452
   60MOL0     C 8182   6.807   8.172   3.711 -0.8182  0.6530  0.1058
   60MOL0     C 8183   6.701   8.106   3.802 -0.6847  0.0500  0.4750
   60MOL0     C 8184   6.718   7.951   3.807 -0.3942 -0.7671  0.0569
   60MOL0     C 8185   6.625   7.886   3.911  1.4777 -0.2560 -0.6865
   60MOL0     C 8186   6.681   7.745   3.958  0.5649 -1.4861 -0.1795
   60MOL0    Cl 8187   6.845   7.774   4.034  0.0885  0.5849  0.1526
   60MOL0     C 8188   6.763   8.611   3.415  0.2420  0.1398 -0.4810
   60MOL0     C 8189   6.660   8.649   3.324 -0.5121 -1.3272  0.4324
   60MOL0     O 8190   6.467   8.964   3.243 -0.5344 -0.4323 -0.1265
   60MOL0     C 8191   6.216   9.000   3.147  0.3480 -1.4206 -0.4165
   60MOL0     C 8192   6.112   9.030   3.056  0.3177  0.5016 -0.0741
   60MOL0     N 8193   5.457   8.874   2.659  0.4677 -0.5108 -0.3930
   60MOL0     N 8194   5.340   8.936   2.665  0.6819 -0.3989  0.2707
   60MOL0     C 8195   4.578   9.371   3.103  0.6780  0.6976  0.6101
   60MOL0     C 8196   4.456   9.421   3.061 -0.1207  0.8975  0.1186
   60MOL0     C 8197   4.124   9.575   2.769 -0.6532  0.5003  0.0076
   60MOL0     C 8198   4.107   9.666   2.873 -0.0025  0.1827  0.0038
   60MOL0     C 8199   3.990   9.743   2.890 -0.0821  0.6236 -0.1208
   60MOL0     C 8200   3.887   9.724   2.795 -0.7130  0.1360  0.5972
   60MOL0     O 8201   3.760   9.777   2.815  0.5921  0.6202 -0.4434
   60MOL0     C 8202   3.749   9.884   2.903  1.2570  0.4488  0.1522
   60MOL0     C 8203   3.606   9.915   2.891  0.4094 -0.2822 -1.2394
   60MOL0     C 8204   3.569   9.968   3.017  0.6490  0.5829  0.1191
   60MOL0     C 8205   3.428  10.023   3.019  1.2026 -0.1175 -0.5811
   60MOL0     C 8206   3.318   9.930   2.987  1.0540  0.3321  0.6778
   60MOL0     C 8207   3.222   9.860   2.961  0.2500 -0.0268  0.8305
   60MOL0     C 8208   3.910   9.655   2.679 -0.2715  0.4689 -0.3228
   60MOL0     C 8209   4.026   9.574   2.667 -1.1464 -0.6659  0.3316
   60MOL0     C 8210   4.062   9.524   2.536  0.7983 -0.3559  1.3487
   60MOL0     H 8211   4.551   9.481   2.735  0.7150  1.6175 -0.0242
   60MOL0     H 8212   4.753   9.371   2.813  2.0985  1.6077  1.4286
   60MOL0     H 8213   4.717   9.124   3.110 -0.7670  0.9671 -0.2254
   60MOL0     H 8214   4.783   9.226   3.239  1.8735  1.0191  0.2916
   60MOL0     H 8215   5.014   9.175   3.123  0.5794 -0.0343 -2.4281
   60MOL0     H 8216   4.938   9.046   3.213 -0.3611 -2.0523 -1.4074
   60MOL0     H 8217   5.027   8.978   2.999 -0.5661  0.8170  0.5749
   60MOL0     H 8218   4.872   8.916   3.059 -1.9288  0.2288 -1.2929
   60MOL0     H 8219   4.818   8.937   2.838  1.1478 -0.0116 -0.0567
   60MOL0     H 8220   4.756   9.082   2.912  0.6518  0.4247 -0.0563
   60MOL0     H 8221   4.940   9.214   2.840 -0.5402 -0.4706  1.2330
   60MOL0     H 8222   4.853   9.144   2.706  0.3567  0.9166  0.1934
   60MOL0     H 8223   5.140   9.053   2.805  1.2202  0.3979 -0.4513
   60MOL0     H 8224   5.036   8.946   2.720 -0.9185 -0.0797 -1.7311
   60MOL0     H 8225   5.034   9.171   2.551  0.3344  0.0778 -0.3247
   60MOL0     H 8226   5.107   9.015   2.534 -4.3329  0.8170 -1.2150
   60MOL0     H 8227   5.279   9.224   2.523  0.8427 -2.2962 -0.7479
   60MOL0     H 8228   5.240   9.250   2.688 -0.3219  0.4178 -2.7896
   60MOL0     H 8229   5.540   9.185   2.587 -1.7410  1.3794 -0.4501
   60MOL0     H 8230   5.737   9.026   2.531 -1.4095  0.6282 -0.1348
   60MOL0     H 8231   5.678   8.862   2.493  1.4330 -0.6041  0.3965
   60MOL0     H 8232   5.686   8.802   2.745  0.0146  1.1518  2.5097
   60MOL0     H 8233   5.852   8.851   2.684  0.6989  1.0838  0.8672
   60MOL0     H 8234   5.776   9.083   2.775 -0.7712  0.2688  0.0671
   60MOL0     H 8235   5.646   8.998   2.857 -0.2027 -1.1977  0.1997
   60MOL0     H 8236   5.820   9.010   3.007  2.4200  1.0510 -0.4497
   60MOL0     H 8237   5.826   8.841   2.965  0.8445  1.2022  3.1373
   60MOL0     H 8238   6.099   8.736   2.884  0.5915  0.0575  0.1112
   60MOL0     H 8239   6.406   8.653   3.021 -0.4311 -0.8936 -1.4516
   60MOL0     H 8240   6.265   8.585   2.946 -0.1810 -1.0519  0.6608
   60MOL0     H 8241   6.291   8.569   3.120 -0.9709 -1.2621 -0.1191
   60MOL0     H 8242   6.481   8.863   3.517  1.5707  2.3307 -0.9247
   60MOL0     H 8243   6.645   8.788   3.685 -3.2283 -2.6265  0.7293
   60MOL0     H 8244   7.009   8.570   3.535 -0.0530  1.2102  0.2589
   60MOL0     H 8245   7.009   8.525   3.703  1.6322 -0.4583 -1.6188
   60MOL0     H 8246   6.853   8.372   3.505  3.1098  0.5825 -1.3167
   60MOL0     H 8247   6.999   8.330   3.605 -0.5307 -0.2892 -0.1984
   60MOL0     H 8248   6.734   8.390   3.730 -1.3446 -2.9447 -1.5093
   60MOL0     H 8249   6.878   8.348   3.808  1.1352 -2.2935  0.8574
   60MOL0     H 8250   6.910   8.144   3.736 -0.8129  1.1332  0.6382
   60MOL0     H 8251   6.791   8.140   3.608 -0.7042  1.6993 -0.2487
   60MOL0     H 8252   6.704   8.179   3.884 -4.1139  1.7258 -0.6933
   60MOL0     H 8253   6.606   8.120   3.751 -0.1577  1.0753 -0.2580
   60MOL0     H 8254   6.824   7.931   3.825 -0.0813  0.8056  0.1418
   60MOL0     H 8255   6.701   7.912   3.707  1.4212 -3.0112  0.5480
   60MOL0     H 8256   6.529   7.870   3.862  1.7698 -1.0674 -1.0247
   60MOL0     H 8257   6.601   7.954   3.993  3.7412  0.4697 -0.5404
   60MOL0     H 8258   6.695   7.685   3.868  3.1379 -2.0573  0.5443
   60MOL0     H 8259   6.606   7.704   4.026  1.3681 -1.4567  0.7352
   60MOL0     H 8260   6.842   8.550   3.373  0.4822 -0.0941  0.2961
   60MOL0     H 8261   6.663   8.627   3.218 -3.0315  0.0047  0.0156
   60MOL0     H 8262   6.251   9.070   3.222 -1.2390 -0.8036 -0.2263
   60MOL0     H 8263   6.051   9.118   3.071 -0.1217 -0.0773  1.8296
   60MOL0     H 8264   4.587   9.333   3.204 -2.9454 -0.3868  0.6553
   60MOL0     H 8265   4.371   9.435   3.128 -0.5614  2.1129 -0.6531
   60MOL0     H 8266   4.180   9.693   2.949  0.6822 -1.6894  0.0419
   60MOL0     H 8267   3.981   9.804   2.979  1.8934 -1.3770  1.5896
   60MOL0     H 8268   3.767   9.852   3.007 -5.7209 -0.0726  1.6971
   60MOL0     H 8269   3.810   9.968   2.869  0.6022  0.1288 -1.9532
   60MOL0     H 8270   3.552   9.820   2.885  1.6057 -1.0560 -0.1353
   60MOL0     H 8271   3.600   9.981   2.804  5.1070 -0.8681 -2.2638
   60MOL0     H 8272   3.585   9.885   3.086  2.7586  0.9843  0.1775
   60MOL0     H 8273   3.641  10.045   3.043  0.5391 -0.4608  4.1122
   60MOL0     H 8274   3.425  10.109   2.951  0.0405 -2.9012 -4.4061
   60MOL0     H 8275   3.412  10.055   3.122  0.3546 -1.5894 -0.2342
   60MOL0     H 8276   3.138   9.797   2.942 -2.1110  3.2210 -0.4098
   60MOL0     H 8277   3.840   9.652   2.596 -1.0708 -0.8932  0.3640
   60MOL0     H 8278   4.158   9.561   2.499 -0.7505  1.9966 -0.6690
   60MOL0     H 8279   4.061   9.415   2.527  1.8977 -0.3825  1.4006
   60MOL0     H 8280   3.985   9.557   2.465 -3.5183 -3.3776  4.1316
   61MOL0     O 8281  10.901  10.857   8.790 -0.3097 -0.0381 -0.4042
   61MOL0     C 8282  10.815  10.914   8.859 -0.4339 -0.2970  1.1754
   61MOL0     O 8283  10.807  11.045   8.879  0.4597  0.3680 -0.7921
   61MOL0     C 8284  10.919  11.127   8.860  0.2417 -0.7263  0.6590
   61MOL0     C 8285  10.904  11.251   8.792 -0.8558  0.4490  0.2218
   61MOL0     C 8286  11.027  11.313   8.753  0.2614 -0.5571  0.2087
   61MOL0     C 8287  11.152  11.277   8.812  0.5623 -0.1370 -0.1761
   61MOL0     O 8288  11.274  11.339   8.793  0.2725 -0.8045 -0.4226
   61MOL0     C 8289  11.273  11.448   8.700  0.6551  0.2886  1.2338
   61MOL0     C 8290  11.398  11.538   8.720  0.7419  0.4672 -0.6578
   61MOL0     C 8291  11.528  11.460   8.726  0.3712  0.0914 -0.5127
   61MOL0     C 8292  11.650  11.554   8.736  0.4067  0.0300  0.4562
   61MOL0     C 8293  11.782  11.459   8.711 -0.4386 -0.2071 -0.2157
   61MOL0     C 8294  11.919  11.530   8.740 -0.5884  0.3064 -0.1259
   61MOL0     C 8295  12.031  11.448   8.685 -0.9915  0.4473  0.4363
   61MOL0     C 8296  12.177  11.501   8.723  0.3651  0.2724 -0.5607
   61MOL0     N 8297  12.206  11.640   8.668  0.3903  0.2626 -0.0743
   61MOL0     C 8298  12.182  11.763   8.720  0.2835 -0.4129 -0.4414
   61MOL0     C 8299  12.222  11.853   8.629  0.1609 -0.5725  0.4732
   61MOL0     C 8300  12.189  12.004   8.660 -0.0428  0.1730 -0.1672
   61MOL0     C 8301  12.300  12.097   8.607  1.1358 -1.2902 -0.5605
   61MOL0     C 8302  12.275  12.239   8.657 -0.3793 -0.1818  0.3476
   61MOL0     C 8303  12.377  12.338   8.593  0.1070 -0.5043  0.6151
   61MOL0     O 8304  12.344  12.476   8.614  0.8679  0.2410  0.8563
   61MOL0     C 8305  12.442  12.558   8.669  0.1927  1.2391  0.3627
   61MOL0     C 8306  12.388  12.675   8.724  0.0753 -0.4150  0.2847
   61MOL0     C 8307  12.480  12.775   8.764  0.0499 -0.0834 -0.3123
   61MOL0     C 8308  12.420  12.902   8.805 -0.5350 -0.4939 -0.3195
   61MOL0     C 8309  12.620  12.753   8.765 -0.4881  1.2689  0.1813
   61MOL0     C 8310  12.721  12.847   8.812 -0.3136  0.1383 -0.9083
   61MOL0     O 8311  12.843  12.781   8.839 -0.3954 -0.3909 -0.4228
   61MOL0     C 8312  12.962  12.839   8.874 -0.1942 -0.0888  0.1376
   61MOL0     C 8313  13.054  12.757   8.932 -0.2220  0.7135  0.6738
   61MOL0     C 8314  13.183  12.801   8.974  0.1951 -0.1714  0.3037
   61MOL0     C 8315  13.207  12.943   8.958 -0.9650  0.3521 -0.7931
   61MOL0     O 8316  13.324  13.004   9.006 -0.3478  0.9051 -0.5342
   61MOL0     C 8317  13.325  13.036   9.148 -0.6395 -0.1499 -0.4867
   61MOL0     C 8318  13.428  13.146   9.182  0.5497  0.3211 -0.1420
   61MOL0     C 8319  13.570  13.087   9.212 -0.0226  1.0780 -0.7226
   61MOL0     C 8320  13.644  13.013   9.096  0.5572 -0.8375 -0.1928
   61MOL0     C 8321  13.775  12.953   9.130  0.5575 -0.1180  0.2790
   61MOL0     C 8322  13.856  13.028   9.233 -0.4511 -0.1885 -0.0359
   61MOL0     C 8323  14.000  12.977   9.225 -0.1232 -0.3594  0.3206
   61MOL0     C 8324  14.005  12.818   9.252  0.1625  0.5274  0.0350
   61MOL0    Cl 8325  14.170  12.762   9.294  0.0935 -0.5261 -0.0629
   61MOL0     C 8326  13.123  13.022   8.890 -0.8104 -1.0320  0.5020
   61MOL0     C 8327  12.997  12.971   8.850  0.1495 -0.1985  0.4329
   61MOL0     O 8328  12.705  12.969   8.824  0.7267  0.0214  0.0726
   61MOL0     C 8329  12.665  12.622   8.729 -0.6626  0.1856  0.2051
   61MOL0     C 8330  12.575  12.522   8.681 -0.7183 -0.4995 -0.1451
   61MOL0     N 8331  12.268  11.784   8.519 -0.1368 -0.5960 -0.7942
   61MOL0     N 8332  12.274  11.657   8.550 -0.4286 -0.4725 -0.3068
   61MOL0     C 8333  11.164  11.159   8.891  0.1219 -0.5837  0.0053
   61MOL0     C 8334  11.045  11.088   8.908  0.5805  0.2302 -0.1667
   61MOL0     C 8335  10.708  10.834   8.917 -0.5840  0.4670  0.3329
   61MOL0     C 8336  10.583  10.824   8.859  0.1348 -0.9018 -0.6820
   61MOL0     C 8337  10.482  10.748   8.928  0.6934  1.2219 -0.2982
   61MOL0     C 8338  10.514  10.673   9.046 -0.0251 -0.0880  0.4630
   61MOL0     O 8339  10.431  10.586   9.109 -0.2119  1.0843 -0.3184
   61MOL0     C 8340  10.291  10.583   9.073 -0.3061 -0.3602  0.2827
   61MOL0     C 8341  10.253  10.503   8.942 -0.6727  0.1695 -0.2440
   61MOL0     C 8342  10.097  10.512   8.942 -0.5225 -0.5591  0.8666
   61MOL0     C 8343  10.033  10.417   8.844 -0.2886 -0.1463  0.1123
   61MOL0     C 8344   9.908  10.462   8.780 -0.0384 -0.6600 -0.5501
   61MOL0     C 8345   9.801  10.496   8.725  0.4419 -0.1517 -0.1796
   61MOL0     C 8346  10.641  10.686   9.092 -0.5171  0.2057 -0.2223
   61MOL0     C 8347  10.741  10.762   9.032  0.4547  0.2386 -0.5453
   61MOL0     C 8348  10.879  10.753   9.087  0.9067  0.5500  1.1067
   61MOL0     H 8349  10.807  11.287   8.758 -0.0991  1.4252 -1.0384
   61MOL0     H 8350  11.019  11.396   8.683  3.0061 -1.3479 -1.1845
   61MOL0     H 8351  11.186  11.513   8.713  0.9494  0.4423  2.5504
   61MOL0     H 8352  11.267  11.413   8.597  0.7337  0.6270  1.1116
   61MOL0     H 8353  11.399  11.614   8.641 -2.6443  2.9484  1.4040
   61MOL0     H 8354  11.393  11.600   8.810  0.5278  1.2750 -1.2076
   61MOL0     H 8355  11.528  11.407   8.821 -0.7013 -0.3304 -0.7381
   61MOL0     H 8356  11.531  11.389   8.643 -0.7664 -0.7836  0.1745
   61MOL0     H 8357  11.635  11.620   8.650 -1.4364 -1.7344 -0.6456
   61MOL0     H 8358  11.656  11.609   8.831  2.7014 -2.2704  1.7683
   61MOL0     H 8359  11.792  11.431   8.605  0.6276 -1.0127  0.0885
   61MOL0     H 8360  11.771  11.372   8.776  2.6186 -1.1764 -0.8323
   61MOL0     H 8361  11.915  11.628   8.691 -0.2929  2.2635  3.4477
   61MOL0     H 8362  11.954  11.551   8.841  4.4361  1.7604 -1.8777
   61MOL0     H 8363  12.026  11.436   8.577  0.4071 -1.9116  0.5594
   61MOL0     H 8364  12.017  11.352   8.734 -0.8730 -0.2077 -0.7860
   61MOL0     H 8365  12.189  11.508   8.831  0.7488  4.5618 -0.6791
   61MOL0     H 8366  12.251  11.430   8.684 -1.0947  0.1506 -3.3520
   61MOL0     H 8367  12.140  11.764   8.820 -0.3404 -2.9662 -0.6023
   61MOL0     H 8368  12.193  12.019   8.768  3.3279 -2.9459  0.3369
   61MOL0     H 8369  12.090  12.037   8.628 -0.4655  1.5138  2.2590
   61MOL0     H 8370  12.402  12.074   8.638  0.7405 -0.7252  1.3355
   61MOL0     H 8371  12.273  12.100   8.501 -1.5438  4.5348 -0.1059
   61MOL0     H 8372  12.178  12.271   8.618 -0.5019 -2.0060 -1.0170
   61MOL0     H 8373  12.286  12.238   8.765 -4.4861  1.5974  0.9361
   61MOL0     H 8374  12.469  12.302   8.639  2.0849  2.6760 -0.5399
   61MOL0     H 8375  12.376  12.322   8.485  1.3669 -1.1678  0.6730
   61MOL0     H 8376  12.282  12.696   8.726  0.3986  2.8420 -3.7043
   61MOL0     H 8377  12.460  12.940   8.900 -0.5118 -0.8241 -0.1954
   61MOL0     H 8378  12.314  12.880   8.821 -0.7170 -1.2265 -2.2895
   61MOL0     H 8379  12.438  12.982   8.732 -0.1331  0.6954  1.0263
   61MOL0     H 8380  13.025  12.655   8.954 -0.9451  0.9399  0.7718
   61MOL0     H 8381  13.254  12.736   9.024  0.3082  0.5785  1.1539
   61MOL0     H 8382  13.233  13.089   9.175  0.0813  1.0630 -0.2905
   61MOL0     H 8383  13.337  12.956   9.221 -0.8297 -1.3246 -1.7188
   61MOL0     H 8384  13.443  13.209   9.094  1.6370  2.8847  1.7821
   61MOL0     H 8385  13.389  13.204   9.266  1.0803  0.4725  0.0039
   61MOL0     H 8386  13.560  13.010   9.289  1.0309  2.5873  1.0323
   61MOL0     H 8387  13.634  13.167   9.251 -1.4652  2.0889 -0.3345
   61MOL0     H 8388  13.667  13.093   9.026  3.6524 -0.4274  1.1494
   61MOL0     H 8389  13.584  12.933   9.052  2.3657 -3.3736  1.7012
   61MOL0     H 8390  13.736  12.856   9.162 -1.7051  0.9464  0.9539
   61MOL0     H 8391  13.835  12.937   9.040  0.5240  0.6867  0.1061
   61MOL0     H 8392  13.829  13.022   9.339  0.1441  0.1397  0.1358
   61MOL0     H 8393  13.866  13.134   9.210  1.3913 -0.2124  0.5412
   61MOL0     H 8394  14.056  13.034   9.299  0.9509 -0.6313 -0.2626
   61MOL0     H 8395  14.044  12.990   9.126 -2.2437 -2.9658 -1.1112
   61MOL0     H 8396  13.961  12.765   9.167  0.3026  0.1617  0.1879
   61MOL0     H 8397  13.951  12.801   9.346  1.5317 -1.0360  0.5947
   61MOL0     H 8398  13.149  13.127   8.882 -1.1470 -0.9343  0.6763
   61MOL0     H 8399  12.928  13.043   8.806  1.0808  1.0354  0.9106
   61MOL0     H 8400  12.766  12.584   8.739  0.1144  2.1427  0.1608
   61MOL0     H 8401  12.632  12.432   8.656 -0.6660 -0.6977  0.6612
   61MOL0     H 8402  11.256  11.130   8.939  0.1819  3.1930  2.6387
   61MOL0     H 8403  11.067  10.994   8.959  1.1894 -1.9053 -3.9699
   61MOL0     H 8404  10.559  10.894   8.780  0.0671  0.9507  0.8919
   61MOL0     H 8405  10.381  10.750   8.890  0.4349  0.6337  0.3334
   61MOL0     H 8406  10.236  10.542   9.158  0.8981  2.9276  2.8751
   61MOL0     H 8407  10.250  10.684   9.058 -1.8306 -1.1142 -0.8684
   61MOL0     H 8408  10.290  10.400   8.941 -2.2770 -0.4488  0.5490
   61MOL0     H 8409  10.295  10.548   8.852  1.1655 -3.0361 -1.1524
   61MOL0     H 8410  10.049  10.481   9.036 -2.5487 -0.4661 -0.0901
   61MOL0     H 8411  10.064  10.616   8.930  0.3189 -0.5397 -1.8504
   61MOL0     H 8412  10.016  10.327   8.904  0.7022 -0.5529 -0.1899
   61MOL0     H 8413  10.112  10.387   8.775  3.3308  3.6179  2.1245
   61MOL0     H 8414   9.712  10.542   8.687  1.3312  0.1428 -1.9934
   61MOL0     H 8415  10.651  10.630   9.185 -0.4716  3.9128  2.2405
   61MOL0     H 8416  10.947  10.725   9.006  0.4818 -1.6593  1.4373
   61MOL0     H 8417  10.918  10.848   9.125 -1.9250  1.7263  1.2822
   61MOL0     H 8418  10.891  10.669   9.157  0.7966 -0.1111  0.3478
   62MOL0     O 8419  10.221   6.577   7.824  0.0884  0.4193  0.2725
   62MOL0     C 8420  10.328   6.588   7.872 -0.6973  0.1212 -0.1165
   62MOL0     O 8421  10.443   6.651   7.802 -0.1472 -0.1923 -0.2068
   62MOL0     C 8422  10.434   6.731   7.695  0.4535  0.8615  0.3326
   62MOL0     C 8423  10.320   6.808   7.667  0.3124 -0.1845 -0.4367
   62MOL0     C 8424  10.320   6.906   7.567  0.3061 -0.2100 -0.9435
   62MOL0     C 8425  10.428   6.921   7.473 -1.0371 -0.9557 -0.0025
   62MOL0     O 8426  10.437   7.011   7.367 -0.4148  0.9580  1.0703
   62MOL0     C 8427  10.360   7.120   7.363 -0.4317  0.3264 -0.1766
   62MOL0     C 8428  10.453   7.224   7.289 -0.0316 -0.2462  0.6288
   62MOL0     C 8429  10.483   7.178   7.146 -0.3499  0.5229 -0.0794
   62MOL0     C 8430  10.577   7.275   7.063  0.1232 -0.1546 -0.5620
   62MOL0     C 8431  10.556   7.224   6.915  0.4410  0.5204  1.1399
   62MOL0     C 8432  10.599   7.076   6.885  0.0077 -0.5728 -0.5343
   62MOL0     C 8433  10.744   7.039   6.914 -0.4224  0.2166 -0.3163
   62MOL0     C 8434  10.786   6.906   6.843  0.3717 -0.4303  1.0491
   62MOL0     N 8435  10.803   6.914   6.693 -0.5492  0.6606 -0.3272
   62MOL0     C 8436  10.711   6.915   6.593  0.4065  0.7142 -0.1735
   62MOL0     C 8437  10.776   6.944   6.480  0.2658 -0.4935 -0.2979
   62MOL0     C 8438  10.710   6.967   6.348  0.5332  0.4570  0.9377
   62MOL0     C 8439  10.712   7.111   6.299  0.4532 -0.5104 -0.0344
   62MOL0     C 8440  10.675   7.125   6.151 -0.7879  0.3234  0.1628
   62MOL0     C 8441  10.781   7.048   6.059  1.2044  0.1874  0.7471
   62MOL0     O 8442  10.747   7.079   5.929  0.5027 -0.1346 -0.0867
   62MOL0     C 8443  10.815   7.026   5.822  0.5468  0.3886 -0.5859
   62MOL0     C 8444  10.952   7.009   5.821  0.1276 -0.7999 -0.8524
   62MOL0     C 8445  11.022   6.959   5.712 -0.0685  0.0933  0.3339
   62MOL0     C 8446  11.171   6.917   5.731  0.6074 -0.1556  0.2146
   62MOL0     C 8447  10.954   6.944   5.588 -0.6781  0.7580 -0.0212
   62MOL0     C 8448  11.019   6.883   5.466 -0.3169  0.1159  0.7448
   62MOL0     O 8449  10.961   6.913   5.341 -0.0435  0.2440 -0.4046
   62MOL0     C 8450  11.024   6.879   5.226 -0.1246  0.2330  0.0528
   62MOL0     C 8451  11.049   6.745   5.178 -0.6137  0.3494 -1.0425
   62MOL0     C 8452  11.126   6.725   5.062  0.3973 -0.9347  0.2010
   62MOL0     C 8453  11.182   6.836   4.993 -0.4433  0.0821  0.2634
   62MOL0     O 8454  11.267   6.823   4.883  1.0272  0.8027 -0.5651
   62MOL0     C 8455  11.405   6.794   4.913 -0.1380  0.5541  0.1715
   62MOL0     C 8456  11.484   6.828   4.788 -0.3601 -0.7708  0.0755
   62MOL0     C 8457  11.457   6.736   4.674  0.3908  0.3717 -0.0210
   62MOL0     C 8458  11.562   6.726   4.566 -0.6331  0.1710 -0.8766
   62MOL0     C 8459  11.538   6.843   4.470 -0.0490 -0.7263 -0.1079
   62MOL0     C 8460  11.633   6.827   4.352 -0.3451 -0.0530  0.3265
   62MOL0     C 8461  11.606   6.927   4.228 -0.1433  0.5913 -0.0633
   62MOL0     C 8462  11.497   6.891   4.141 -0.1498  0.5385  0.3997
   62MOL0    Cl 8463  11.452   7.031   4.039  0.2143 -0.0551 -0.1439
   62MOL0     C 8464  11.145   6.967   5.035 -0.9972  0.6683 -0.2945
   62MOL0     C 8465  11.069   6.982   5.148  0.3166 -0.2258 -0.4923
   62MOL0     O 8466  11.116   6.812   5.477 -0.9383  0.0542 -0.3033
   62MOL0     C 8467  10.811   6.966   5.588 -0.1225  0.1946 -0.3389
   62MOL0     C 8468  10.745   7.009   5.702  0.4123 -0.1692  0.6110
   62MOL0     N 8469  10.911   6.942   6.499 -0.0201 -1.1146  0.0506
   62MOL0     N 8470  10.926   6.922   6.625  0.0538  0.2100  0.1962
   62MOL0     C 8471  10.529   6.833   7.491 -0.7509 -0.0179  0.8676
   62MOL0     C 8472  10.537   6.746   7.603  0.0522  0.2670 -0.5359
   62MOL0     C 8473  10.358   6.514   7.999 -0.2181  0.9341  0.8109
   62MOL0     C 8474  10.494   6.487   8.039 -0.4841 -0.5826  0.6298
   62MOL0     C 8475  10.513   6.399   8.149 -0.3595  0.5685  0.1037
   62MOL0     C 8476  10.409   6.361   8.228  0.4139 -0.6305 -0.5564
   62MOL0     O 8477  10.422   6.283   8.348 -0.4488 -0.5127 -0.5489
   62MOL0     C 8478  10.412   6.144   8.332 -0.0886  0.1299 -0.1350
   62MOL0     C 8479  10.495   6.085   8.218 -0.5234  0.6658  0.9651
   62MOL0     C 8480  10.644   6.089   8.242 -0.2638 -0.0872  0.3366
   62MOL0     C 8481  10.710   6.111   8.106 -0.3321 -0.1487 -0.1467
   62MOL0     C 8482  10.852   6.129   8.133  0.6266  0.5854  0.5193
   62MOL0     C 8483  10.971   6.136   8.159  0.0467  0.4484  1.1129
   62MOL0     C 8484  10.280   6.394   8.189 -0.2109 -0.3176 -0.8564
   62MOL0     C 8485  10.246   6.468   8.076  0.2412 -0.0415 -0.0288
   62MOL0     C 8486  10.098   6.494   8.056 -0.8513 -0.2048 -0.3797
   62MOL0     H 8487  10.230   6.796   7.727 -0.1277 -4.0916 -1.5884
   62MOL0     H 8488  10.228   6.961   7.553 -1.0266 -2.0120  0.3434
   62MOL0     H 8489  10.331   7.151   7.464 -1.6110 -2.0864  0.2953
   62MOL0     H 8490  10.272   7.101   7.301 -0.5338  0.0077  0.0621
   62MOL0     H 8491  10.401   7.320   7.281 -0.3468 -0.2115  2.4894
   62MOL0     H 8492  10.542   7.248   7.348 -0.0155  3.4806 -0.6640
   62MOL0     H 8493  10.544   7.087   7.151  0.1869  0.6646 -2.6334
   62MOL0     H 8494  10.393   7.149   7.090 -1.5917  1.5719  1.2720
   62MOL0     H 8495  10.537   7.376   7.077  0.7909 -0.1497  1.6875
   62MOL0     H 8496  10.674   7.271   7.113 -0.4665  1.2619  0.7963
   62MOL0     H 8497  10.614   7.283   6.843 -2.6783  1.8844 -0.4514
   62MOL0     H 8498  10.449   7.223   6.893  0.6514 -0.5697  0.0667
   62MOL0     H 8499  10.534   7.007   6.939 -0.2577 -0.4693 -0.7228
   62MOL0     H 8500  10.595   7.057   6.777  0.6807 -2.9680 -0.2056
   62MOL0     H 8501  10.749   7.020   7.022  0.5356 -2.3629 -0.7457
   62MOL0     H 8502  10.806   7.122   6.882 -4.4038  4.1927  1.2117
   62MOL0     H 8503  10.874   6.878   6.900  1.6783  1.6189  0.1594
   62MOL0     H 8504  10.710   6.829   6.857  0.6894 -0.7052  1.2561
   62MOL0     H 8505  10.603   6.903   6.600  0.2808  2.4878  1.7899
   62MOL0     H 8506  10.603   6.945   6.356  0.4607 -1.7722 -3.4094
   62MOL0     H 8507  10.747   6.900   6.270 -3.0837  0.1815 -0.7462
   62MOL0     H 8508  10.628   7.163   6.348  1.6653 -0.5800  2.2620
   62MOL0     H 8509  10.807   7.157   6.328  0.6341 -0.6403 -0.4201
   62MOL0     H 8510  10.582   7.069   6.138 -0.7432  0.4794 -0.9743
   62MOL0     H 8511  10.661   7.229   6.118  3.3307  0.6052 -1.2076
   62MOL0     H 8512  10.887   7.070   6.076  1.3735  0.1122 -0.1177
   62MOL0     H 8513  10.774   6.941   6.079 -3.2396 -0.0248 -0.9109
   62MOL0     H 8514  10.998   7.038   5.915  0.2546 -2.5743 -0.3354
   62MOL0     H 8515  11.190   6.811   5.752  0.1005  0.2313  3.2031
   62MOL0     H 8516  11.205   6.964   5.824 -0.1205  0.1013  0.3604
   62MOL0     H 8517  11.238   6.945   5.650 -0.9826  0.8759 -0.8130
   62MOL0     H 8518  11.019   6.656   5.232  0.5127  1.0210  0.7931
   62MOL0     H 8519  11.143   6.621   5.036  0.8245 -1.1057  1.1188
   62MOL0     H 8520  11.437   6.860   4.994  0.2272  0.3530  0.1907
   62MOL0     H 8521  11.412   6.687   4.937  1.5819  0.7294  0.5548
   62MOL0     H 8522  11.449   6.928   4.760  1.2517 -0.1871  0.0085
   62MOL0     H 8523  11.591   6.840   4.809 -0.8600 -0.2006  2.6392
   62MOL0     H 8524  11.356   6.753   4.634 -0.6330 -2.0730  1.3109
   62MOL0     H 8525  11.448   6.637   4.720 -0.7244  0.0428 -0.9046
   62MOL0     H 8526  11.540   6.635   4.510  0.3687 -0.8544  0.3474
   62MOL0     H 8527  11.664   6.736   4.603  0.0639 -1.1347 -2.3159
   62MOL0     H 8528  11.437   6.835   4.428 -1.3863  0.7798  2.5614
   62MOL0     H 8529  11.550   6.941   4.518 -0.1433 -1.8223  2.3242
   62MOL0     H 8530  11.623   6.725   4.315  0.2572  0.2237 -0.6597
   62MOL0     H 8531  11.737   6.838   4.381  0.9094 -3.7579 -2.0879
   62MOL0     H 8532  11.705   6.931   4.183  1.4503  1.3607  3.2402
   62MOL0     H 8533  11.575   7.024   4.270  0.4175  0.7782 -0.0804
   62MOL0     H 8534  11.406   6.878   4.201 -1.6284  1.1812 -1.5891
   62MOL0     H 8535  11.516   6.796   4.089 -0.2322 -0.7184  2.5614
   62MOL0     H 8536  11.183   7.053   4.981  0.7016 -0.0769 -0.3648
   62MOL0     H 8537  11.055   7.085   5.179  3.0143  0.1638 -0.2752
   62MOL0     H 8538  10.765   6.958   5.490  3.5111  1.9094 -2.4006
   62MOL0     H 8539  10.637   7.020   5.691  0.4491  0.3078  0.7043
   62MOL0     H 8540  10.617   6.857   7.431 -0.6877  1.7555  1.6178
   62MOL0     H 8541  10.630   6.696   7.629 -0.4250  0.5560  1.9812
   62MOL0     H 8542  10.578   6.523   7.982 -1.9358  0.8188 -0.7538
   62MOL0     H 8543  10.616   6.378   8.175 -0.5905 -0.1922  0.4223
   62MOL0     H 8544  10.428   6.087   8.424  1.4572 -3.2747 -2.3267
   62MOL0     H 8545  10.306   6.129   8.307 -1.0171  0.3826  3.1592
   62MOL0     H 8546  10.462   6.129   8.124 -1.3273 -2.5976 -0.4018
   62MOL0     H 8547  10.471   5.979   8.214 -1.0959  0.8156 -2.5091
   62MOL0     H 8548  10.670   6.179   8.299 -0.2550  0.6181 -0.7676
   62MOL0     H 8549  10.692   6.000   8.284 -1.9852 -0.9909  0.4737
   62MOL0     H 8550  10.667   6.201   8.060 -2.0820  0.7537  3.0039
   62MOL0     H 8551  10.696   6.014   8.058 -4.6554 -0.0337  0.4257
   62MOL0     H 8552  11.073   6.111   8.179 -0.1269 -0.6746  0.6810
   62MOL0     H 8553  10.209   6.351   8.258  1.0774 -2.9122 -1.0298
   62MOL0     H 8554  10.053   6.441   8.141 -0.7400 -0.0303 -0.2106
   62MOL0     H 8555  10.076   6.599   8.078 -1.2863 -0.6386  1.4537
   62MOL0     H 8556  10.054   6.470   7.959  0.3735  0.9756 -1.2570
   63MOL0     O 8557   1.551  10.450   3.904  0.0572  0.2195 -0.0247
   63MOL0     C 8558   1.454  10.384   3.946  1.0086  0.3569  1.0551
   63MOL0     O 8559   1.325  10.428   3.941  0.2282 -0.8502 -0.7332
   63MOL0     C 8560   1.304  10.561   3.915 -0.1717 -0.3837  0.7417
   63MOL0     C 8561   1.278  10.600   3.784 -0.4380  0.6784 -0.0852
   63MOL0     C 8562   1.250  10.731   3.754 -0.7198 -0.3662  0.6498
   63MOL0     C 8563   1.253  10.830   3.850  0.4396  0.1032  0.2917
   63MOL0     O 8564   1.249  10.962   3.814  0.0807  0.0703  0.2037
   63MOL0     C 8565   1.181  11.006   3.696 -0.5446  0.0582  0.5942
   63MOL0     C 8566   1.036  11.049   3.730 -0.3364 -0.2261 -1.1201
   63MOL0     C 8567   0.965  11.101   3.603  0.0423 -0.1060 -0.2689
   63MOL0     C 8568   0.823  11.143   3.641  0.4343  0.3588 -0.4400
   63MOL0     C 8569   0.803  11.289   3.680 -0.2176 -0.2286 -0.2866
   63MOL0     C 8570   0.802  11.381   3.559  0.0080  0.2868 -0.0841
   63MOL0     C 8571   0.772  11.528   3.592  0.3122  0.5986  0.0555
   63MOL0     C 8572   0.736  11.605   3.459  0.5098  0.0887 -0.1079
   63MOL0     N 8573   0.848  11.636   3.369 -0.6772  0.2004 -0.0193
   63MOL0     C 8574   0.889  11.754   3.317  0.5341  0.4081  0.0318
   63MOL0     C 8575   0.964  11.707   3.207  0.4808  0.0400 -0.2259
   63MOL0     C 8576   1.031  11.804   3.111  0.3809 -0.1657 -0.4059
   63MOL0     C 8577   1.167  11.849   3.164 -0.2789  0.7106  0.5653
   63MOL0     C 8578   1.225  11.962   3.084 -0.5274 -0.0954  0.7264
   63MOL0     C 8579   1.373  11.948   3.056 -0.5847 -0.0862 -0.4261
   63MOL0     O 8580   1.446  11.935   3.174  0.1175  0.0483 -0.3024
   63MOL0     C 8581   1.583  11.900   3.172  0.4155 -0.9764  0.2557
   63MOL0     C 8582   1.654  11.912   3.298  0.4852 -0.0773  0.7463
   63MOL0     C 8583   1.792  11.889   3.311  0.7544  0.3234  0.2818
   63MOL0     C 8584   1.834  11.911   3.450 -0.7996  0.1070 -1.1673
   63MOL0     C 8585   1.872  11.877   3.193  0.6016 -0.0233 -0.4535
   63MOL0     C 8586   2.021  11.877   3.177  0.1674 -0.1771 -1.0655
   63MOL0     O 8587   2.067  11.890   3.050  0.4388 -0.0626 -0.1180
   63MOL0     C 8588   2.174  11.972   3.024  0.4915 -0.1844 -0.4279
   63MOL0     C 8589   2.160  12.104   2.973 -0.1764  0.0658 -0.8075
   63MOL0     C 8590   2.280  12.184   2.943  0.4437  0.9375 -0.2873
   63MOL0     C 8591   2.403  12.133   2.986  0.5102 -1.0350  0.2690
   63MOL0     O 8592   2.496  12.232   2.998 -0.5877 -0.5869 -0.1085
   63MOL0     C 8593   2.627  12.204   3.040 -0.3759 -0.0637 -0.4616
   63MOL0     C 8594   2.709  12.324   3.001  0.2695  0.0910 -0.2894
   63MOL0     C 8595   2.737  12.323   2.850 -1.0646  0.4020 -0.1759
   63MOL0     C 8596   2.824  12.441   2.814 -0.3283  0.1117  0.6145
   63MOL0     C 8597   2.846  12.467   2.666  0.0510  0.1778 -0.4229
   63MOL0     C 8598   2.909  12.347   2.592  0.0556  0.3446  0.8501
   63MOL0     C 8599   2.949  12.369   2.444  0.4469 -0.0463  0.7522
   63MOL0     C 8600   2.835  12.434   2.367  0.5321  0.6942  0.4345
   63MOL0    Cl 8601   2.864  12.425   2.183 -0.5680 -0.0954 -0.3791
   63MOL0     C 8602   2.411  11.997   3.034 -0.0842  0.3274 -0.0919
   63MOL0     C 8603   2.299  11.918   3.051 -0.4869  0.2771  0.6540
   63MOL0     O 8604   2.096  11.880   3.277  0.3474  0.4191  0.5026
   63MOL0     C 8605   1.798  11.839   3.078 -0.3300 -0.8223 -0.2798
   63MOL0     C 8606   1.662  11.852   3.071 -0.8735  0.6573 -0.2740
   63MOL0     N 8607   0.970  11.572   3.204 -0.1866  0.0740 -0.0341
   63MOL0     N 8608   0.898  11.532   3.301 -0.8927 -0.2932 -0.8803
   63MOL0     C 8609   1.264  10.789   3.985 -0.2930 -0.0757 -0.3611
   63MOL0     C 8610   1.298  10.655   4.020  0.5973  0.3987 -0.4301
   63MOL0     C 8611   1.464  10.246   3.997 -0.0415 -0.3277 -0.4988
   63MOL0     C 8612   1.344  10.173   4.026  0.5725  0.0636 -0.3472
   63MOL0     C 8613   1.356  10.046   4.083  0.2666  0.2444  0.0220
   63MOL0     C 8614   1.474   9.982   4.108  0.5293 -0.5105 -0.0051
   63MOL0     O 8615   1.478   9.858   4.158  0.0928 -0.9401  0.0078
   63MOL0     C 8616   1.568   9.769   4.098 -0.4572 -0.6977  0.1045
   63MOL0     C 8617   1.652   9.696   4.202 -0.1615 -0.2043 -0.5279
   63MOL0     C 8618   1.771   9.799   4.245  1.3220  0.6224 -0.4675
   63MOL0     C 8619   1.848   9.759   4.364 -0.2705 -1.0224 -0.2453
   63MOL0     C 8620   1.902   9.627   4.359 -0.3330  0.1203 -0.5532
   63MOL0     C 8621   1.938   9.516   4.366  0.0788  0.5282  0.0102
   63MOL0     C 8622   1.591  10.053   4.070 -0.1809 -0.0978  0.2660
   63MOL0     C 8623   1.593  10.183   4.011  0.0527  0.2720  0.4109
   63MOL0     C 8624   1.724  10.243   3.974 -0.2268  0.3043 -0.2618
   63MOL0     H 8625   1.285  10.532   3.700  0.9133  0.7994 -0.0958
   63MOL0     H 8626   1.243  10.756   3.648 -0.5694 -1.9865  0.2333
   63MOL0     H 8627   1.189  10.930   3.618  0.7481  0.7862 -0.0071
   63MOL0     H 8628   1.244  11.089   3.663  0.1584 -0.4882  0.5348
   63MOL0     H 8629   0.981  10.963   3.768  0.9874 -0.6871 -0.1742
   63MOL0     H 8630   1.040  11.124   3.810  1.8495 -0.9521 -0.4799
   63MOL0     H 8631   1.022  11.187   3.567 -2.1265  0.9666 -1.2928
   63MOL0     H 8632   0.962  11.031   3.518 -0.5102  1.0057 -1.1878
   63MOL0     H 8633   0.773  11.117   3.547 -1.1644 -0.8082  0.6916
   63MOL0     H 8634   0.782  11.073   3.714  2.7440 -0.9801 -0.3003
   63MOL0     H 8635   0.885  11.315   3.749  0.3489  1.5702 -1.5877
   63MOL0     H 8636   0.709  11.301   3.734  1.3248  1.2208  2.3498
   63MOL0     H 8637   0.899  11.386   3.511 -0.0732 -1.5374 -0.5361
   63MOL0     H 8638   0.727  11.347   3.486  0.0299  0.8833 -0.3869
   63MOL0     H 8639   0.864  11.566   3.637 -0.7209  0.1441  2.7204
   63MOL0     H 8640   0.699  11.545   3.671 -0.5566 -1.5592 -0.2114
   63MOL0     H 8641   0.652  11.551   3.416  0.4265  0.7665 -0.8233
   63MOL0     H 8642   0.687  11.691   3.505 -0.3547 -2.5635  4.6489
   63MOL0     H 8643   0.876  11.856   3.353  1.8163  1.1472 -1.4874
   63MOL0     H 8644   0.963  11.884   3.081  1.0800  0.0893 -1.3431
   63MOL0     H 8645   1.062  11.756   3.018 -1.2392  2.4801 -2.4225
   63MOL0     H 8646   1.166  11.888   3.266  1.6511 -0.9451  1.2828
   63MOL0     H 8647   1.228  11.759   3.169 -1.5995 -0.1153  3.5982
   63MOL0     H 8648   1.180  11.970   2.984 -2.0362  0.4825  1.4279
   63MOL0     H 8649   1.199  12.057   3.132 -1.4244  0.6518 -1.1307
   63MOL0     H 8650   1.387  11.868   2.982 -0.6360 -0.5739  0.0872
   63MOL0     H 8651   1.408  12.039   3.007 -0.0743 -0.0378  0.0178
   63MOL0     H 8652   1.592  11.953   3.377 -2.5774  1.2290 -2.0736
   63MOL0     H 8653   1.885  12.008   3.447  1.5977 -0.8167  2.6048
   63MOL0     H 8654   1.903  11.831   3.479 -1.2604  0.5429  1.3967
   63MOL0     H 8655   1.764  11.904   3.534  0.9295  0.5399  0.3962
   63MOL0     H 8656   2.063  12.123   2.929 -0.2115 -1.8130 -1.6421
   63MOL0     H 8657   2.267  12.282   2.897 -1.6392  1.0853  0.4927
   63MOL0     H 8658   2.641  12.191   3.148  0.3202  2.4992 -0.1730
   63MOL0     H 8659   2.666  12.115   2.991  2.3748 -0.1975  1.7266
   63MOL0     H 8660   2.657  12.415   3.031  1.6907  1.6892 -2.3123
   63MOL0     H 8661   2.803  12.309   3.055 -0.3208  0.2293  0.7897
   63MOL0     H 8662   2.644  12.320   2.793 -0.7105  3.0250 -1.0339
   63MOL0     H 8663   2.802  12.237   2.830  3.2386  2.7569  2.1772
   63MOL0     H 8664   2.917  12.412   2.863  1.5270 -0.4219 -2.8933
   63MOL0     H 8665   2.777  12.535   2.847  1.0377  0.9226  0.3212
   63MOL0     H 8666   2.754  12.491   2.612 -1.5669 -0.0044  2.0486
   63MOL0     H 8667   2.911  12.555   2.671  1.7035 -0.9639 -0.8617
   63MOL0     H 8668   2.834  12.267   2.587 -0.6235  1.0295 -0.3736
   63MOL0     H 8669   2.980  12.300   2.660  2.0988  2.6765  0.4306
   63MOL0     H 8670   2.979  12.276   2.394  1.1838  0.4430  0.2631
   63MOL0     H 8671   3.039  12.430   2.449  1.2666 -1.2148  0.6107
   63MOL0     H 8672   2.806  12.534   2.402 -0.9166  0.1013  0.9997
   63MOL0     H 8673   2.749  12.370   2.387 -1.1822  2.7741  0.0880
   63MOL0     H 8674   2.505  11.958   3.070 -0.0663  0.3297 -0.1369
   63MOL0     H 8675   2.305  11.817   3.090 -2.7408 -0.6022 -1.0492
   63MOL0     H 8676   1.853  11.815   2.988  1.1712  1.9971 -0.2301
   63MOL0     H 8677   1.631  11.822   2.971 -1.2670  2.9931 -0.9113
   63MOL0     H 8678   1.283  10.866   4.059  0.1973  0.5433 -1.1141
   63MOL0     H 8679   1.321  10.633   4.124  0.5852  0.2156 -0.4665
   63MOL0     H 8680   1.251  10.229   4.025  0.3279 -0.3406 -0.5978
   63MOL0     H 8681   1.263   9.999   4.115  1.7499 -3.7912 -0.9878
   63MOL0     H 8682   1.497   9.691   4.070 -2.7803 -1.5859  6.7060
   63MOL0     H 8683   1.617   9.807   4.008  0.0062 -1.7952 -0.1291
   63MOL0     H 8684   1.711   9.617   4.153  0.7775  0.2577 -0.1652
   63MOL0     H 8685   1.597   9.652   4.286  0.0716 -0.0054 -0.2706
   63MOL0     H 8686   1.826   9.799   4.150  4.6809  1.7767  1.3134
   63MOL0     H 8687   1.729   9.896   4.273 -1.1741 -0.6130  0.3584
   63MOL0     H 8688   1.780   9.767   4.450  0.6622  0.1794  0.4073
   63MOL0     H 8689   1.933   9.826   4.380 -0.6368 -0.7067  0.4398
   63MOL0     H 8690   1.938   9.410   4.353  0.0187  0.7211 -1.8805
   63MOL0     H 8691   1.687  10.003   4.076  1.0328  2.0712  0.2846
   63MOL0     H 8692   1.747  10.330   4.036 -0.7280  1.8258 -2.1188
   63MOL0     H 8693   1.799  10.164   3.986 -2.2484 -1.6022  0.5653
   63MOL0     H 8694   1.717  10.287   3.874 -1.9177  0.6416 -0.0255
   64MOL0     O 8695   9.069   8.298   9.100 -0.2302 -0.1824  0.8267
   64MOL0     C 8696   9.148   8.308   9.192  0.2298 -0.0233  0.1302
   64MOL0     O 8697   9.187   8.205   9.275 -0.1070  0.5335  0.2270
   64MOL0     C 8698   9.114   8.092   9.306  0.2014 -0.3835  0.2815
   64MOL0     C 8699   9.181   7.980   9.354  0.5568 -0.4269  0.3512
   64MOL0     C 8700   9.103   7.877   9.380  0.7483  0.2907 -0.1650
   64MOL0     C 8701   8.965   7.870   9.372 -0.0603 -0.7637 -0.1861
   64MOL0     O 8702   8.887   7.765   9.401  0.2251  0.5831  0.2240
   64MOL0     C 8703   8.936   7.636   9.348  0.2248 -0.2523 -0.2078
   64MOL0     C 8704   8.820   7.540   9.353  0.7347  0.0032  0.0078
   64MOL0     C 8705   8.686   7.609   9.298  0.1458  0.2731 -0.8099
   64MOL0     C 8706   8.587   7.504   9.244  0.0342 -0.0166  0.1986
   64MOL0     C 8707   8.461   7.582   9.199 -0.0870  0.5233 -0.6046
   64MOL0     C 8708   8.474   7.646   9.055  0.0160  0.1144  0.2935
   64MOL0     C 8709   8.338   7.696   9.000 -0.7576 -0.2478 -0.1471
   64MOL0     C 8710   8.323   7.733   8.847  0.5049  0.6318  0.2294
   64MOL0     N 8711   8.383   7.869   8.820  0.5066  0.9473  0.0548
   64MOL0     C 8712   8.515   7.893   8.797  0.0719 -0.3076 -0.5307
   64MOL0     C 8713   8.514   8.033   8.774  0.1620  0.7838  0.5833
   64MOL0     C 8714   8.632   8.129   8.748  0.5206 -0.1883 -0.3314
   64MOL0     C 8715   8.668   8.205   8.885 -0.7636 -0.4761  0.2761
   64MOL0     C 8716   8.732   8.120   9.000  0.6043 -0.9878 -0.6984
   64MOL0     C 8717   8.879   8.058   8.968 -0.4538 -0.5409 -0.1803
   64MOL0     O 8718   8.870   7.968   8.853 -0.0819  0.4523  1.2951
   64MOL0     C 8719   8.873   7.834   8.862 -0.1391 -0.3191 -0.4423
   64MOL0     C 8720   8.880   7.764   8.743 -0.7606 -0.7276 -0.1560
   64MOL0     C 8721   8.881   7.618   8.741  0.0825  0.3383  0.0290
   64MOL0     C 8722   8.871   7.553   8.606  0.3748  0.2734 -0.4463
   64MOL0     C 8723   8.866   7.546   8.863 -0.4288  0.7318  0.3671
   64MOL0     C 8724   8.853   7.399   8.871  0.2307  0.0955 -0.5178
   64MOL0     O 8725   8.903   7.343   8.988  0.2378  0.1755  0.6532
   64MOL0     C 8726   8.888   7.204   9.002  0.6957 -0.6139 -0.0223
   64MOL0     C 8727   9.002   7.127   9.029  0.2375 -0.4751 -0.8079
   64MOL0     C 8728   9.003   6.992   9.043  0.6197 -0.2005 -0.8554
   64MOL0     C 8729   8.882   6.925   9.032 -0.6038 -0.6918  0.0308
   64MOL0     O 8730   8.885   6.790   9.026  0.4704 -0.4216 -0.4060
   64MOL0     C 8731   8.766   6.730   9.071 -0.1688 -0.1014 -0.3567
   64MOL0     C 8732   8.793   6.584   9.118 -0.0278  0.0680  0.1396
   64MOL0     C 8733   8.796   6.496   8.991 -0.6183  0.9901 -0.3651
   64MOL0     C 8734   8.804   6.352   9.028 -0.7696 -0.2984 -0.4074
   64MOL0     C 8735   8.756   6.275   8.906 -0.4511  0.3173 -0.2864
   64MOL0     C 8736   8.761   6.119   8.907  0.6861  0.3694 -0.1520
   64MOL0     C 8737   8.667   6.063   9.015 -0.7262 -1.0237 -0.4063
   64MOL0     C 8738   8.667   5.910   9.020 -0.3233  0.0038 -0.3275
   64MOL0    Cl 8739   8.565   5.853   8.877 -0.0370 -0.0449  0.1349
   64MOL0     C 8740   8.755   7.001   9.010 -0.8253 -0.9133  0.4199
   64MOL0     C 8741   8.759   7.140   8.999  0.1369  0.4590  0.1363
   64MOL0     O 8742   8.792   7.337   8.786 -0.1074 -0.7754 -1.5330
   64MOL0     C 8743   8.863   7.620   8.981  0.1378 -0.2273  0.7735
   64MOL0     C 8744   8.856   7.759   8.985 -0.3561  0.0928 -0.2594
   64MOL0     N 8745   8.385   8.078   8.797 -0.5191  0.3890  0.3097
   64MOL0     N 8746   8.311   7.975   8.818 -0.1980 -1.5702 -0.3849
   64MOL0     C 8747   8.901   7.988   9.331 -0.0569  1.0812 -0.5388
   64MOL0     C 8748   8.974   8.093   9.292  0.6552 -0.0900  0.4774
   64MOL0     C 8749   9.202   8.437   9.201 -0.2785 -0.6775 -0.2805
   64MOL0     C 8750   9.182   8.504   9.325  0.6877  0.6820  0.1201
   64MOL0     C 8751   9.222   8.634   9.336 -0.5240 -0.5387 -0.0632
   64MOL0     C 8752   9.301   8.699   9.240  0.3619  0.2554 -0.4041
   64MOL0     O 8753   9.352   8.825   9.251 -0.1522  0.2539 -0.3653
   64MOL0     C 8754   9.367   8.872   9.381 -0.2641  0.4061  0.0253
   64MOL0     C 8755   9.453   8.999   9.400 -0.7731 -0.0141 -0.4807
   64MOL0     C 8756   9.603   8.973   9.404  0.0931  0.3327  0.8965
   64MOL0     C 8757   9.654   8.863   9.308 -0.8025 -0.4800  0.3010
   64MOL0     C 8758   9.664   8.911   9.167 -0.0945  0.0465 -0.8143
   64MOL0     C 8759   9.659   8.937   9.050 -0.2267 -1.0836 -0.4885
   64MOL0     C 8760   9.316   8.630   9.123 -0.2147 -0.2578  0.2236
   64MOL0     C 8761   9.268   8.503   9.094 -0.2050 -1.1223 -1.0766
   64MOL0     C 8762   9.301   8.445   8.960 -0.0748  0.8197  0.5533
   64MOL0     H 8763   9.289   7.970   9.367  0.5116  0.0360  1.1470
   64MOL0     H 8764   9.165   7.795   9.413  0.9093  0.0876 -0.9560
   64MOL0     H 8765   9.020   7.597   9.407  0.1596 -2.8683 -1.6827
   64MOL0     H 8766   8.948   7.635   9.239  1.7751  0.5415 -0.0716
   64MOL0     H 8767   8.835   7.455   9.286 -1.2579 -0.7286  0.4242
   64MOL0     H 8768   8.804   7.508   9.456 -1.6030  2.8889  0.7119
   64MOL0     H 8769   8.633   7.663   9.377 -0.6630 -1.7593  0.1092
   64MOL0     H 8770   8.702   7.679   9.216 -0.2484 -0.1260 -1.2359
   64MOL0     H 8771   8.637   7.458   9.158 -0.2746 -2.1978  1.1224
   64MOL0     H 8772   8.552   7.421   9.306 -0.0970 -1.4562 -1.7133
   64MOL0     H 8773   8.427   7.670   9.255  0.0822  2.0495 -2.7744
   64MOL0     H 8774   8.385   7.503   9.196  2.8026 -2.6625  1.7939
   64MOL0     H 8775   8.549   7.726   9.045 -0.7846  0.7044 -1.7251
   64MOL0     H 8776   8.514   7.565   8.993 -0.0622 -0.0538  0.4628
   64MOL0     H 8777   8.319   7.785   9.060  0.4029  1.3897 -2.1012
   64MOL0     H 8778   8.265   7.616   9.018 -0.5937 -0.7379 -1.5712
   64MOL0     H 8779   8.356   7.649   8.785 -3.1009 -0.7457 -0.1062
   64MOL0     H 8780   8.217   7.754   8.828  1.2481  2.2888 -2.6418
   64MOL0     H 8781   8.587   7.812   8.789 -0.5106 -0.7723 -1.1897
   64MOL0     H 8782   8.605   8.203   8.672 -1.9198 -1.2049 -0.5470
   64MOL0     H 8783   8.725   8.091   8.705 -0.2618  1.0053 -3.2959
   64MOL0     H 8784   8.727   8.295   8.872 -1.0509 -0.4230 -0.7488
   64MOL0     H 8785   8.572   8.242   8.923 -0.4292  2.8022 -1.7245
   64MOL0     H 8786   8.732   8.187   9.086 -2.2088 -0.9430 -0.6497
   64MOL0     H 8787   8.655   8.043   9.010  0.1162 -0.6200 -1.5042
   64MOL0     H 8788   8.942   8.147   8.956 -1.5944  1.5787  5.8272
   64MOL0     H 8789   8.916   8.000   9.053 -0.2812  0.6267  0.5702
   64MOL0     H 8790   8.889   7.820   8.651  2.7466 -2.1345 -0.8304
   64MOL0     H 8791   8.762   7.553   8.596 -0.2048  1.3382  4.0415
   64MOL0     H 8792   8.910   7.450   8.607  1.7270  0.7649 -0.0752
   64MOL0     H 8793   8.922   7.611   8.528 -0.9070 -0.0959 -1.6047
   64MOL0     H 8794   9.094   7.179   9.057 -0.0829 -0.2155 -0.2281
   64MOL0     H 8795   9.087   6.926   9.065  0.7072  0.6843  1.8182
   64MOL0     H 8796   8.727   6.783   9.159 -2.6970 -2.1991 -0.0903
   64MOL0     H 8797   8.701   6.729   8.983  0.9965  0.6550 -1.2685
   64MOL0     H 8798   8.895   6.593   9.156  0.5350 -2.4331 -0.6245
   64MOL0     H 8799   8.717   6.554   9.191 -1.2725 -0.3470 -1.2632
   64MOL0     H 8800   8.869   6.526   8.915  1.5007  2.6518  2.1067
   64MOL0     H 8801   8.700   6.516   8.944 -1.5624  2.2059  1.8932
   64MOL0     H 8802   8.739   6.336   9.115  0.0753  2.5449  0.8830
   64MOL0     H 8803   8.904   6.312   9.046 -0.5118 -0.3129 -1.7739
   64MOL0     H 8804   8.653   6.298   8.878 -0.7338 -0.4174  0.1077
   64MOL0     H 8805   8.826   6.297   8.825  1.5635 -1.9615  0.7104
   64MOL0     H 8806   8.863   6.106   8.943 -0.0964  0.4486  2.2292
   64MOL0     H 8807   8.742   6.054   8.820  1.4369 -1.0966  0.7405
   64MOL0     H 8808   8.575   6.112   8.983  2.0016  4.0474 -1.5843
   64MOL0     H 8809   8.707   6.111   9.105  0.4505  0.1732 -1.5135
   64MOL0     H 8810   8.632   5.871   9.116  0.8419  0.6696  0.3832
   64MOL0     H 8811   8.768   5.879   8.993 -0.7881 -0.3135 -1.7713
   64MOL0     H 8812   8.657   6.960   8.989 -1.7116  1.8355 -1.3985
   64MOL0     H 8813   8.672   7.199   8.972  0.1358  0.0827 -0.7104
   64MOL0     H 8814   8.865   7.555   9.068 -0.5864 -1.5403 -0.1507
   64MOL0     H 8815   8.855   7.793   9.088 -0.7943  0.0169 -0.2365
   64MOL0     H 8816   8.794   7.978   9.315 -0.0144 -1.1470  0.2281
   64MOL0     H 8817   8.915   8.179   9.261  0.3085 -0.8353 -1.0296
   64MOL0     H 8818   9.114   8.457   9.395 -0.2781 -0.9320 -1.8179
   64MOL0     H 8819   9.202   8.679   9.432  0.0203  1.7724 -0.9592
   64MOL0     H 8820   9.263   8.895   9.405 -0.9618 -1.3676 -1.1659
   64MOL0     H 8821   9.403   8.799   9.454 -0.0956 -1.1152 -1.5330
   64MOL0     H 8822   9.422   9.047   9.493  0.3055 -2.5089  1.2780
   64MOL0     H 8823   9.424   9.064   9.317 -3.8734  1.9399  1.8828
   64MOL0     H 8824   9.655   9.069   9.395  1.0422 -0.1735  0.7448
   64MOL0     H 8825   9.627   8.946   9.507 -0.9876 -1.0561  0.8039
   64MOL0     H 8826   9.606   8.765   9.309 -1.0582 -0.4498 -1.9379
   64MOL0     H 8827   9.758   8.849   9.337  0.1628  1.1322 -2.0883
   64MOL0     H 8828   9.635   8.957   8.947 -1.9327 -2.2284 -0.3543
   64MOL0     H 8829   9.369   8.681   9.044 -1.9298 -0.3034 -1.0109
   64MOL0     H 8830   9.375   8.367   8.979 -0.1159  0.5856 -0.2087
   64MOL0     H 8831   9.216   8.400   8.907 -0.3240  1.2813  0.5550
   64MOL0     H 8832   9.329   8.525   8.890 -3.8001  0.9763 -1.0414
   65MOL0     O 8833   9.372   3.339   5.851 -0.5953  0.5052 -0.3612
   65MOL0     C 8834   9.343   3.263   5.761 -0.5177  0.5527 -0.2182
   65MOL0     O 8835   9.429   3.163   5.717  0.3975 -0.0447  0.1314
   65MOL0     C 8836   9.554   3.151   5.776  0.1487  0.4521  0.2115
   65MOL0     C 8837   9.671   3.166   5.701  0.3544  0.0535 -0.0036
   65MOL0     C 8838   9.794   3.160   5.763 -0.4572  0.3391  0.3594
   65MOL0     C 8839   9.804   3.122   5.896 -0.3012 -0.3375 -0.5827
   65MOL0     O 8840   9.929   3.109   5.943 -0.1500 -0.1889 -0.0787
   65MOL0     C 8841   9.937   3.080   6.079 -0.0416 -0.3415 -0.5303
   65MOL0     C 8842  10.084   3.076   6.122  0.1995  0.2094 -0.3441
   65MOL0     C 8843  10.170   3.195   6.077  0.5567  0.2469 -0.1627
   65MOL0     C 8844  10.302   3.188   6.149 -1.1720  0.3259 -0.6533
   65MOL0     C 8845  10.419   3.281   6.107 -0.2530 -0.6668  0.8153
   65MOL0     C 8846  10.457   3.304   5.960  0.5400 -1.2049 -0.5858
   65MOL0     C 8847  10.531   3.182   5.911 -0.4970  0.2415  0.0576
   65MOL0     C 8848  10.598   3.219   5.775 -0.1895 -0.1385  0.2702
   65MOL0     N 8849  10.716   3.301   5.785 -0.9585 -0.7261  0.0519
   65MOL0     C 8850  10.801   3.308   5.890 -0.2442 -0.0597  0.4379
   65MOL0     C 8851  10.894   3.398   5.854 -0.3103 -0.0877  0.2042
   65MOL0     C 8852  11.007   3.443   5.939  0.2792  0.3673  0.7768
   65MOL0     C 8853  10.961   3.574   5.996  0.2506  0.3963 -0.7889
   65MOL0     C 8854  11.069   3.633   6.092  0.7971 -0.0481  0.6030
   65MOL0     C 8855  11.194   3.688   6.018 -0.2615  0.3137  0.2262
   65MOL0     O 8856  11.269   3.762   6.114 -0.2125  0.3700  0.4691
   65MOL0     C 8857  11.409   3.769   6.095  1.0789  0.1927  0.5970
   65MOL0     C 8858  11.502   3.761   6.203 -0.0382 -0.3262  0.0311
   65MOL0     C 8859  11.643   3.757   6.188 -0.5546 -0.3376 -0.7332
   65MOL0     C 8860  11.715   3.756   6.314  0.2456 -0.3046  0.3173
   65MOL0     C 8861  11.697   3.769   6.066 -0.7896  0.2613 -0.1316
   65MOL0     C 8862  11.843   3.770   6.026 -0.5825  0.0938 -0.2498
   65MOL0     O 8863  11.871   3.803   5.894 -0.4690 -0.3984  0.5498
   65MOL0     C 8864  11.994   3.877   5.884  0.1395  0.0152  0.5912
   65MOL0     C 8865  12.115   3.810   5.884  0.6512 -0.5520 -0.2533
   65MOL0     C 8866  12.236   3.878   5.859 -0.3495 -0.1429 -0.0225
   65MOL0     C 8867  12.230   4.013   5.826 -0.5045 -0.2850 -0.2071
   65MOL0     O 8868  12.339   4.087   5.788 -0.2928  0.1578 -0.2043
   65MOL0     C 8869  12.470   4.036   5.838  0.4477  0.7919 -0.3730
   65MOL0     C 8870  12.563   4.152   5.827 -0.4842  0.0004 -0.2165
   65MOL0     C 8871  12.705   4.104   5.850 -0.7052 -0.0163  0.1096
   65MOL0     C 8872  12.806   4.143   5.743 -0.7365 -0.0266 -0.3686
   65MOL0     C 8873  12.823   4.296   5.759 -0.5003  0.6505  0.8613
   65MOL0     C 8874  12.955   4.348   5.701  0.3625  0.0469  0.1460
   65MOL0     C 8875  12.958   4.502   5.672 -0.4577  0.1036  0.5821
   65MOL0     C 8876  13.059   4.535   5.571 -0.1361 -1.1062 -0.3054
   65MOL0    Cl 8877  13.008   4.497   5.400  0.1023  0.3303  0.3065
   65MOL0     C 8878  12.112   4.078   5.832 -0.4126  0.9172 -0.5099
   65MOL0     C 8879  11.992   4.010   5.851  0.3844  0.0767 -0.2537
   65MOL0     O 8880  11.927   3.739   6.110 -0.1232 -0.4207  0.3030
   65MOL0     C 8881  11.606   3.789   5.959  0.5771  0.9705 -0.5945
   65MOL0     C 8882  11.467   3.783   5.970 -0.0806  0.5768  0.3867
   65MOL0     N 8883  10.860   3.445   5.728 -0.5806  0.3235 -0.1443
   65MOL0     N 8884  10.754   3.383   5.680 -0.5703 -0.7917 -0.4532
   65MOL0     C 8885   9.689   3.104   5.978  0.7727 -0.0663  0.8875
   65MOL0     C 8886   9.563   3.124   5.918 -0.7149 -0.1082  0.3034
   65MOL0     C 8887   9.213   3.292   5.683 -0.3004 -0.7271  0.9584
   65MOL0     C 8888   9.199   3.222   5.558 -0.2238  0.3299 -0.7265
   65MOL0     C 8889   9.088   3.243   5.481  0.1067 -0.0050 -0.6156
   65MOL0     C 8890   8.990   3.333   5.519 -0.5367 -0.0539 -0.1998
   65MOL0     O 8891   8.883   3.353   5.446  1.0891 -0.0265  0.2321
   65MOL0     C 8892   8.865   3.312   5.309  0.6567  0.1354  0.4483
   65MOL0     C 8893   8.776   3.414   5.237 -0.1499  0.4378 -0.8298
   65MOL0     C 8894   8.711   3.380   5.102  0.5047  0.6426  0.4922
   65MOL0     C 8895   8.822   3.353   5.007 -0.1330 -0.2995  0.2393
   65MOL0     C 8896   8.789   3.316   4.870 -0.5636 -0.2799  0.1274
   65MOL0     C 8897   8.764   3.290   4.756  0.0940 -0.6103  0.0058
   65MOL0     C 8898   9.001   3.397   5.640 -0.3584  0.8338  0.3028
   65MOL0     C 8899   9.109   3.381   5.724  0.4170  0.0014  0.4418
   65MOL0     C 8900   9.107   3.448   5.862  0.3548  1.0205  0.4152
   65MOL0     H 8901   9.663   3.190   5.596 -0.7383 -1.0809 -0.1902
   65MOL0     H 8902   9.882   3.175   5.702 -0.9233 -0.5699 -0.5632
   65MOL0     H 8903   9.890   2.988   6.115 -0.6048  0.2890  0.3970
   65MOL0     H 8904   9.887   3.163   6.128  0.8233  1.3596 -2.3796
   65MOL0     H 8905  10.099   3.054   6.228 -1.3445 -1.3523 -0.3992
   65MOL0     H 8906  10.123   2.985   6.075  1.8175  0.3876  0.5867
   65MOL0     H 8907  10.173   3.177   5.970 -1.4142 -0.0082 -0.2247
   65MOL0     H 8908  10.113   3.288   6.085  1.5679  0.8174  0.6656
   65MOL0     H 8909  10.286   3.213   6.254  0.4219 -2.4332  0.3487
   65MOL0     H 8910  10.338   3.085   6.149  1.6598  1.2448 -0.9614
   65MOL0     H 8911  10.508   3.252   6.164  0.3610 -0.6530 -0.1111
   65MOL0     H 8912  10.400   3.385   6.137 -1.2639  1.1316 -4.8625
   65MOL0     H 8913  10.377   3.335   5.892  0.5311 -0.9193 -0.4462
   65MOL0     H 8914  10.535   3.382   5.962 -0.2619 -0.3546 -1.4046
   65MOL0     H 8915  10.451   3.108   5.897  0.6977 -0.7189 -2.5004
   65MOL0     H 8916  10.599   3.139   5.985  0.0217 -0.5981 -0.8659
   65MOL0     H 8917  10.615   3.124   5.723 -2.7998 -0.2233 -0.5566
   65MOL0     H 8918  10.522   3.280   5.725 -1.1458 -1.2868  0.2708
   65MOL0     H 8919  10.800   3.247   5.979 -1.9666  1.4480  1.5016
   65MOL0     H 8920  11.104   3.450   5.888  0.7406  1.0506  1.7135
   65MOL0     H 8921  11.015   3.371   6.021 -3.0130  1.2328  1.9994
   65MOL0     H 8922  10.934   3.645   5.917 -0.5424  0.2869 -0.6232
   65MOL0     H 8923  10.875   3.552   6.060  1.1871 -0.4999  0.1967
   65MOL0     H 8924  11.008   3.706   6.146  0.6725  0.5256 -0.2965
   65MOL0     H 8925  11.094   3.560   6.169 -2.5088 -2.5954 -0.5092
   65MOL0     H 8926  11.261   3.613   5.975  1.2890  1.7672  0.0235
   65MOL0     H 8927  11.162   3.752   5.936 -1.1507 -0.4654 -0.0509
   65MOL0     H 8928  11.467   3.739   6.304  0.8995 -1.5183  0.1222
   65MOL0     H 8929  11.652   3.748   6.403  0.6109 -0.0267  0.6027
   65MOL0     H 8930  11.761   3.855   6.324  1.7866 -1.1391  2.2139
   65MOL0     H 8931  11.799   3.686   6.320  0.1449 -0.4801 -0.3069
   65MOL0     H 8932  12.123   3.705   5.908  0.8830 -0.3454  0.6119
   65MOL0     H 8933  12.331   3.829   5.843  0.8522  1.8707  0.4874
   65MOL0     H 8934  12.470   3.994   5.939  0.2784  3.0528  0.6334
   65MOL0     H 8935  12.510   3.953   5.779  3.5983 -0.0575  2.6449
   65MOL0     H 8936  12.548   4.204   5.732  2.1109  2.8398  0.7701
   65MOL0     H 8937  12.532   4.220   5.907  0.8162  0.5202 -0.1450
   65MOL0     H 8938  12.712   3.995   5.845 -0.9058  0.0032 -0.7753
   65MOL0     H 8939  12.725   4.141   5.951 -4.1166  1.7352  0.2946
   65MOL0     H 8940  12.757   4.125   5.646  0.3079 -1.1195 -0.7048
   65MOL0     H 8941  12.898   4.085   5.745  0.4720  1.7341 -1.7040
   65MOL0     H 8942  12.745   4.357   5.714  1.3117  0.6165 -2.7141
   65MOL0     H 8943  12.829   4.314   5.867 -0.8774 -1.9994  1.4087
   65MOL0     H 8944  12.988   4.290   5.614  0.3095  0.0999  0.0904
   65MOL0     H 8945  13.029   4.336   5.780  2.1387  2.3820 -1.0473
   65MOL0     H 8946  12.984   4.542   5.770 -0.0023  0.7516  0.2014
   65MOL0     H 8947  12.855   4.527   5.643 -1.7674 -2.6449  2.3219
   65MOL0     H 8948  13.152   4.479   5.580 -0.2224 -1.3501 -0.9045
   65MOL0     H 8949  13.078   4.643   5.576  0.1907 -1.0639 -2.0076
   65MOL0     H 8950  12.109   4.187   5.829  0.9925  1.1138  2.3008
   65MOL0     H 8951  11.903   4.072   5.846  0.4526  0.1975  0.0232
   65MOL0     H 8952  11.652   3.810   5.862  1.4242  1.8311 -0.0259
   65MOL0     H 8953  11.422   3.791   5.872  0.2560 -1.7349 -0.0305
   65MOL0     H 8954   9.684   3.079   6.083 -2.2994  0.9265  1.0659
   65MOL0     H 8955   9.465   3.110   5.963 -0.3417 -0.8900  0.8837
   65MOL0     H 8956   9.270   3.145   5.529 -1.3930 -1.1113  0.1338
   65MOL0     H 8957   9.088   3.199   5.381 -0.2315  0.3439 -0.7693
   65MOL0     H 8958   8.965   3.315   5.265  0.6517  2.6940  0.4253
   65MOL0     H 8959   8.822   3.213   5.293 -1.7539  1.4674 -2.2508
   65MOL0     H 8960   8.845   3.497   5.218  2.3921 -1.0945  1.0669
   65MOL0     H 8961   8.695   3.442   5.305 -2.5722  0.2573 -3.4391
   65MOL0     H 8962   8.647   3.292   5.099  0.2694  0.7747  1.2602
   65MOL0     H 8963   8.649   3.463   5.067 -3.3101 -1.5115  1.5532
   65MOL0     H 8964   8.874   3.263   5.043 -1.5592 -1.6829 -1.0192
   65MOL0     H 8965   8.888   3.441   5.010  2.7747 -2.2819 -0.7635
   65MOL0     H 8966   8.735   3.272   4.655  1.3173  0.3377 -0.5432
   65MOL0     H 8967   8.919   3.462   5.670 -0.2330  0.7040  0.9386
   65MOL0     H 8968   9.026   3.522   5.868 -1.1143 -0.5177  0.5433
   65MOL0     H 8969   9.082   3.376   5.941 -0.4402  1.8292  0.9158
   65MOL0     H 8970   9.200   3.500   5.884  1.9963 -1.7652  0.4934
   66MOL0     O 8971   5.372  10.552   5.125 -0.2299  0.2885 -0.0952
   66MOL0     C 8972   5.327  10.586   5.236  0.7583  0.0413 -0.2913
   66MOL0     O 8973   5.387  10.563   5.359 -0.7285 -0.7069 -0.3367
   66MOL0     C 8974   5.505  10.504   5.364 -0.0340 -0.2970  0.5351
   66MOL0     C 8975   5.524  10.371   5.327  0.8391 -0.5939 -0.5919
   66MOL0     C 8976   5.653  10.320   5.327 -0.1050 -0.4724 -0.6622
   66MOL0     C 8977   5.754  10.386   5.382 -0.5360 -0.7644 -0.1375
   66MOL0     O 8978   5.879  10.323   5.377  0.3485  0.3317 -0.2326
   66MOL0     C 8979   5.972  10.383   5.287  0.6485 -0.1235 -0.0110
   66MOL0     C 8980   6.101  10.307   5.277  0.0575 -0.2151 -1.0082
   66MOL0     C 8981   6.200  10.345   5.167 -0.5180  1.3624  0.1571
   66MOL0     C 8982   6.238  10.492   5.166  0.5381 -0.1095 -0.5453
   66MOL0     C 8983   6.345  10.523   5.062  0.3595  0.4523 -0.6436
   66MOL0     C 8984   6.491  10.529   5.119 -0.7425 -0.2917  0.3238
   66MOL0     C 8985   6.590  10.571   5.010 -0.4296 -0.3446  1.0546
   66MOL0     C 8986   6.584  10.718   4.954  0.5869  0.4641  0.4657
   66MOL0     N 8987   6.469  10.737   4.860 -1.1331 -0.0263  0.2368
   66MOL0     C 8988   6.444  10.649   4.760  0.4017 -0.2704  0.1210
   66MOL0     C 8989   6.326  10.699   4.717 -0.1352  0.0189 -0.3864
   66MOL0     C 8990   6.237  10.637   4.606  1.0577 -0.7359  0.1007
   66MOL0     C 8991   6.125  10.551   4.671 -0.0427  0.8915  0.8194
   66MOL0     C 8992   6.025  10.504   4.570  0.4578  0.2856  0.7669
   66MOL0     C 8993   6.086  10.420   4.459  0.3608 -0.2000  0.7752
   66MOL0     O 8994   6.060  10.484   4.324  0.6701 -0.2799  0.3732
   66MOL0     C 8995   5.930  10.485   4.279  0.4492 -0.1310  0.3861
   66MOL0     C 8996   5.899  10.565   4.171  0.0376 -1.1364 -0.6093
   66MOL0     C 8997   5.767  10.596   4.127 -0.4346 -0.0549  0.5995
   66MOL0     C 8998   5.752  10.689   4.002  0.1323 -0.8829 -0.1498
   66MOL0     C 8999   5.657  10.542   4.203 -0.1584  1.0678  0.6762
   66MOL0     C 9000   5.513  10.566   4.170 -0.4904 -0.3980 -1.1549
   66MOL0     O 9001   5.426  10.490   4.240 -0.3189  0.8498  0.4767
   66MOL0     C 9002   5.291  10.518   4.235  0.8925 -0.1374 -0.0626
   66MOL0     C 9003   5.242  10.649   4.264 -0.0404  0.8178 -0.0650
   66MOL0     C 9004   5.105  10.672   4.255 -0.1514 -0.2350 -0.4784
   66MOL0     C 9005   5.017  10.565   4.216  0.3293 -0.0336  0.2825
   66MOL0     O 9006   4.886  10.605   4.217 -0.1209  1.0824 -0.1022
   66MOL0     C 9007   4.787  10.517   4.147 -1.4013  0.5762 -0.1724
   66MOL0     C 9008   4.647  10.554   4.141  0.4615 -0.3306  0.2081
   66MOL0     C 9009   4.562  10.537   4.263  0.0629 -0.0738  0.5940
   66MOL0     C 9010   4.498  10.668   4.311 -0.4339  0.0048 -0.0007
   66MOL0     C 9011   4.422  10.643   4.451 -0.0648 -0.9409 -0.1335
   66MOL0     C 9012   4.377  10.774   4.522  0.2439 -0.5890  0.0990
   66MOL0     C 9013   4.307  10.877   4.437  0.0631  0.4181 -0.1675
   66MOL0     C 9014   4.234  10.987   4.518  0.5610  0.8142  0.2317
   66MOL0    Cl 9015   4.338  11.079   4.621 -0.3133  0.5023 -0.1807
   66MOL0     C 9016   5.065  10.439   4.179  0.0569 -0.4344 -0.9798
   66MOL0     C 9017   5.198  10.419   4.193  0.1020  0.4318 -0.4364
   66MOL0     O 9018   5.485  10.670   4.107  0.0569  0.0667 -0.3196
   66MOL0     C 9019   5.677  10.459   4.316 -0.0550 -0.2212  0.1076
   66MOL0     C 9020   5.813  10.437   4.356 -0.2201  0.4171 -0.1934
   66MOL0     N 9021   6.296  10.819   4.775 -0.6336 -0.1360  0.0021
   66MOL0     N 9022   6.385  10.841   4.866 -0.3441 -1.2905 -0.0610
   66MOL0     C 9023   5.731  10.522   5.422  0.1661  0.1031  0.1194
   66MOL0     C 9024   5.607  10.575   5.428  0.9462 -0.6015 -0.5171
   66MOL0     C 9025   5.195  10.651   5.242  1.3803 -0.1853 -0.0572
   66MOL0     C 9026   5.127  10.659   5.368  0.2299  0.6011  0.0022
   66MOL0     C 9027   4.992  10.704   5.379  0.4926  0.7725 -0.8109
   66MOL0     C 9028   4.914  10.752   5.270 -0.6483  0.4648 -0.6799
   66MOL0     O 9029   4.784  10.792   5.296 -0.4841 -0.7360  0.2023
   66MOL0     C 9030   4.715  10.865   5.193  0.2689 -0.0776  0.0230
   66MOL0     C 9031   4.585  10.923   5.252 -0.2856  0.6627 -0.5642
   66MOL0     C 9032   4.470  10.832   5.246 -0.4008  0.1725  0.5649
   66MOL0     C 9033   4.334  10.903   5.286  0.6936 -0.5664  0.7138
   66MOL0     C 9034   4.238  10.790   5.283 -0.4937  0.1013 -0.3990
   66MOL0     C 9035   4.152  10.705   5.271  1.1392  0.2923  1.0840
   66MOL0     C 9036   4.976  10.743   5.143  0.9364  0.2647  1.5548
   66MOL0     C 9037   5.111  10.693   5.128 -0.3462 -0.3066  0.4503
   66MOL0     C 9038   5.178  10.689   4.990 -0.1078  0.0601  0.0933
   66MOL0     H 9039   5.431  10.325   5.297 -0.3819 -0.8969  3.1605
   66MOL0     H 9040   5.672  10.218   5.293  0.6720 -0.3719 -0.5496
   66MOL0     H 9041   5.986  10.490   5.303 -1.1161  0.4203 -1.7158
   66MOL0     H 9042   5.927  10.381   5.187 -1.7469  0.5470  0.9705
   66MOL0     H 9043   6.155  10.301   5.372 -2.9240 -5.3408  0.7635
   66MOL0     H 9044   6.083  10.201   5.262  1.5851 -0.2006 -3.5436
   66MOL0     H 9045   6.288  10.288   5.197 -0.8000  1.6562  1.6206
   66MOL0     H 9046   6.177  10.308   5.067  0.3374  0.8261  0.1484
   66MOL0     H 9047   6.157  10.561   5.140  2.8691  2.8147 -0.4532
   66MOL0     H 9048   6.274  10.518   5.266  1.0555 -3.3760  0.2471
   66MOL0     H 9049   6.330  10.628   5.039  2.0173  1.1069  0.9820
   66MOL0     H 9050   6.336  10.474   4.964 -0.9270  0.8327 -0.7270
   66MOL0     H 9051   6.511  10.594   5.205 -1.2957  1.2899 -0.7020
   66MOL0     H 9052   6.509  10.429   5.160 -1.2482  0.0793  1.4980
   66MOL0     H 9053   6.576  10.504   4.925  1.8846  2.1763 -1.5238
   66MOL0     H 9054   6.689  10.552   5.051 -0.0338  1.9516  1.2774
   66MOL0     H 9055   6.571  10.789   5.036  6.1353  2.4099  0.0502
   66MOL0     H 9056   6.682  10.737   4.910 -0.3377  0.9285 -1.5178
   66MOL0     H 9057   6.496  10.556   4.739 -0.7797 -1.1792  1.0257
   66MOL0     H 9058   6.297  10.577   4.538 -0.1026 -1.2757 -0.4766
   66MOL0     H 9059   6.187  10.719   4.554 -0.4797 -1.9628 -0.4288
   66MOL0     H 9060   6.159  10.457   4.716  1.1776  0.0509 -1.6480
   66MOL0     H 9061   6.057  10.600   4.740 -3.0827 -0.3260 -1.1348
   66MOL0     H 9062   5.951  10.438   4.615  1.1774 -0.4131  0.9585
   66MOL0     H 9063   5.980  10.595   4.530  2.0211  0.9590  0.4287
   66MOL0     H 9064   6.194  10.404   4.464  0.5549 -0.2992 -1.8922
   66MOL0     H 9065   6.052  10.317   4.446  0.1074 -0.0065 -0.2354
   66MOL0     H 9066   5.984  10.609   4.121 -0.8252  3.2194  1.2928
   66MOL0     H 9067   5.851  10.732   3.987  0.0793 -1.4644 -2.4222
   66MOL0     H 9068   5.687  10.776   4.014 -3.4036 -3.6286  3.2009
   66MOL0     H 9069   5.721  10.640   3.909  1.1887 -0.5002 -0.7149
   66MOL0     H 9070   5.315  10.724   4.293 -1.5465  1.5763  2.0078
   66MOL0     H 9071   5.070  10.770   4.285 -0.8475  0.5081 -3.3413
   66MOL0     H 9072   4.815  10.517   4.041  0.5679 -1.1274  0.2871
   66MOL0     H 9073   4.799  10.414   4.183 -0.5508  0.2435 -1.3437
   66MOL0     H 9074   4.648  10.661   4.122  2.4295  0.4997  4.1024
   66MOL0     H 9075   4.606  10.494   4.058  0.4668 -2.1852  1.4795
   66MOL0     H 9076   4.631  10.496   4.338  0.1898  0.3218  0.6994
   66MOL0     H 9077   4.488  10.459   4.244  1.9637 -1.1030 -3.8329
   66MOL0     H 9078   4.428  10.695   4.231 -0.5169 -0.9592 -0.2623
   66MOL0     H 9079   4.572  10.748   4.321 -0.6075  0.0309  1.3028
   66MOL0     H 9080   4.335  10.579   4.432 -2.8601  2.3041  0.5755
   66MOL0     H 9081   4.490  10.582   4.511 -0.5330 -1.5643 -0.2275
   66MOL0     H 9082   4.464  10.834   4.552 -0.1142 -0.3738  0.7251
   66MOL0     H 9083   4.331  10.749   4.618  0.8022  1.9688  1.1171
   66MOL0     H 9084   4.241  10.825   4.367  3.5061 -2.4844 -1.5848
   66MOL0     H 9085   4.387  10.918   4.373 -0.1558 -0.5752 -1.1044
   66MOL0     H 9086   4.156  10.932   4.571  1.2800  0.3253  0.8007
   66MOL0     H 9087   4.195  11.063   4.450  1.6908 -0.2855 -1.7530
   66MOL0     H 9088   5.005  10.356   4.143 -1.4156  0.0754  0.2380
   66MOL0     H 9089   5.235  10.329   4.145  1.4196  0.9586 -0.4598
   66MOL0     H 9090   5.617  10.411   4.393  0.5208  0.0885  0.7551
   66MOL0     H 9091   5.833  10.364   4.434  0.2030  1.7840  1.0146
   66MOL0     H 9092   5.816  10.581   5.455  2.2870 -2.1698 -0.8847
   66MOL0     H 9093   5.589  10.674   5.469 -1.7433 -1.4232  0.5207
   66MOL0     H 9094   5.177  10.625   5.458  0.3366 -1.1260 -0.6695
   66MOL0     H 9095   4.950  10.696   5.479  3.1818  0.1746  0.3364
   66MOL0     H 9096   4.789  10.944   5.177  0.4319 -0.2734 -0.1943
   66MOL0     H 9097   4.700  10.812   5.099  1.6804  0.1790 -0.3789
   66MOL0     H 9098   4.552  11.014   5.202 -1.4924  0.3696 -0.3306
   66MOL0     H 9099   4.617  10.937   5.356  3.7095  1.3986 -1.7269
   66MOL0     H 9100   4.468  10.791   5.145 -3.4602  0.7442  0.3072
   66MOL0     H 9101   4.488  10.736   5.296  0.8119  0.1245  0.0695
   66MOL0     H 9102   4.309  10.984   5.217 -0.2430 -0.3454  1.3035
   66MOL0     H 9103   4.342  10.949   5.385 -1.6468 -0.3090  0.8170
   66MOL0     H 9104   4.075  10.639   5.238  2.9909 -1.5509  0.1949
   66MOL0     H 9105   4.920  10.781   5.058 -0.2815 -0.0659  2.1843
   66MOL0     H 9106   5.265  10.755   4.993  0.7002 -0.7853 -2.2218
   66MOL0     H 9107   5.196  10.586   4.956 -0.1370 -0.3213  1.1746
   66MOL0     H 9108   5.122  10.735   4.908 -2.0280  0.9207  1.7792
   67MOL0     O 9109   6.096   6.321   6.036 -0.1072 -0.6165 -0.2162
   67MOL0     C 9110   6.122   6.284   6.144 -1.0365  0.1896 -0.0435
   67MOL0     O 9111   6.106   6.149   6.191  0.2271  0.0761 -0.0923
   67MOL0     C 9112   6.017   6.072   6.116 -0.8463  0.1791 -0.3622
   67MOL0     C 9113   5.897   6.042   6.171 -0.3375  0.1131  0.7752
   67MOL0     C 9114   5.806   5.957   6.103 -0.0582  0.0128 -0.2691
   67MOL0     C 9115   5.845   5.899   5.985  0.5452  0.2543  0.1710
   67MOL0     O 9116   5.754   5.816   5.931  0.5215 -0.5007  0.0060
   67MOL0     C 9117   5.676   5.879   5.833  0.7382  0.0629 -0.3725
   67MOL0     C 9118   5.553   5.789   5.791  0.1646 -0.1686 -0.1985
   67MOL0     C 9119   5.444   5.798   5.904  1.1080  0.2738 -0.1943
   67MOL0     C 9120   5.313   5.735   5.864  0.3227  0.1790  0.3206
   67MOL0     C 9121   5.203   5.759   5.969 -0.5019 -0.0546 -0.1926
   67MOL0     C 9122   5.185   5.638   6.064 -0.7078 -0.7231  0.3347
   67MOL0     C 9123   5.077   5.679   6.172 -1.2890 -0.5177 -0.6794
   67MOL0     C 9124   5.043   5.557   6.261 -0.2946  0.4778  0.8520
   67MOL0     N 9125   5.151   5.508   6.346  0.1926 -0.4079 -0.5878
   67MOL0     C 9126   5.208   5.385   6.337  0.8309 -1.2454  0.1998
   67MOL0     C 9127   5.316   5.392   6.418 -1.0093 -0.2409  0.0836
   67MOL0     C 9128   5.425   5.286   6.430 -0.4032 -0.6586  0.1579
   67MOL0     C 9129   5.523   5.288   6.315  0.1716  0.1883 -0.3883
   67MOL0     C 9130   5.596   5.155   6.298 -0.1349 -0.2989 -1.5353
   67MOL0     C 9131   5.652   5.096   6.424  0.0968  1.1963  0.0935
   67MOL0     O 9132   5.701   4.972   6.378  0.9237  0.6010  0.3858
   67MOL0     C 9133   5.831   4.969   6.323 -0.1363  0.0775  0.5516
   67MOL0     C 9134   5.951   4.986   6.388 -0.0021 -0.0127 -0.1871
   67MOL0     C 9135   6.077   4.963   6.342  0.2312  0.5857 -0.4116
   67MOL0     C 9136   6.206   4.972   6.430  0.6112 -0.3725  0.6956
   67MOL0     C 9137   6.085   4.907   6.209 -0.7247  0.0193  0.0680
   67MOL0     C 9138   6.211   4.888   6.144  1.5056  0.0452  0.5761
   67MOL0     O 9139   6.241   4.956   6.026  0.1732  0.1071  0.4377
   67MOL0     C 9140   6.365   5.010   6.012 -1.0253 -0.8354 -0.2217
   67MOL0     C 9141   6.417   5.019   5.870  0.2529 -0.4753 -0.2286
   67MOL0     C 9142   6.538   5.082   5.849  0.4181 -1.3751 -0.0881
   67MOL0     C 9143   6.621   5.120   5.954  0.1269 -0.7756 -0.6678
   67MOL0     O 9144   6.752   5.162   5.940  0.0109 -0.3300  0.3361
   67MOL0     C 9145   6.794   5.206   5.812 -0.3297 -1.1298  0.3283
   67MOL0     C 9146   6.757   5.356   5.781  0.3497  0.6626  0.4154
   67MOL0     C 9147   6.802   5.456   5.887  0.1922 -0.5590 -0.2805
   67MOL0     C 9148   6.812   5.599   5.825 -0.1297 -0.1628 -0.2232
   67MOL0     C 9149   6.678   5.678   5.839  0.4923  1.0464  0.4768
   67MOL0     C 9150   6.697   5.814   5.771 -0.0811 -0.1570  0.0257
   67MOL0     C 9151   6.596   5.923   5.814  0.5932 -0.0843 -0.3485
   67MOL0     C 9152   6.613   5.983   5.958  0.5908 -0.2832 -0.1190
   67MOL0    Cl 9153   6.486   6.090   5.995  0.0123  0.0512 -0.2167
   67MOL0     C 9154   6.573   5.102   6.084 -0.9155 -1.0234  0.3554
   67MOL0     C 9155   6.448   5.055   6.113 -0.3620  0.1215  1.0799
   67MOL0     O 9156   6.274   4.805   6.202  0.0818 -0.0910  0.7469
   67MOL0     C 9157   5.967   4.894   6.138  0.7074  0.6239  0.0739
   67MOL0     C 9158   5.838   4.926   6.191  0.1190  0.7878 -0.3628
   67MOL0     N 9159   5.309   5.508   6.491 -0.5463 -0.5458  0.8252
   67MOL0     N 9160   5.207   5.571   6.451  0.0733 -0.6387  0.1042
   67MOL0     C 9161   5.968   5.923   5.925 -0.7723  0.8634 -0.5278
   67MOL0     C 9162   6.055   6.003   5.992 -0.6001 -0.8576 -0.9974
   67MOL0     C 9163   6.210   6.370   6.232  0.9325 -0.5560 -0.1274
   67MOL0     C 9164   6.325   6.435   6.187 -1.0948  0.0702 -0.1117
   67MOL0     C 9165   6.405   6.516   6.272  0.5645  0.8062 -0.4683
   67MOL0     C 9166   6.370   6.527   6.410 -0.7436 -0.6737  0.1692
   67MOL0     O 9167   6.451   6.598   6.498 -0.3837  0.0796 -0.1102
   67MOL0     C 9168   6.444   6.554   6.639  0.2909  0.3729 -0.3949
   67MOL0     C 9169   6.576   6.605   6.700  0.2795  0.0053  0.0962
   67MOL0     C 9170   6.564   6.629   6.844  0.1938  0.1418 -0.9761
   67MOL0     C 9171   6.640   6.743   6.904 -0.4602 -0.8066  0.3219
   67MOL0     C 9172   6.783   6.730   6.878  0.3673 -0.0679 -0.7792
   67MOL0     C 9173   6.902   6.728   6.872  0.0085  0.5618 -0.5134
   67MOL0     C 9174   6.254   6.472   6.450  0.1224  0.4018  0.5170
   67MOL0     C 9175   6.176   6.389   6.372  1.4224 -0.4257 -0.4402
   67MOL0     C 9176   6.055   6.317   6.433 -0.2534  0.2333 -0.6966
   67MOL0     H 9177   5.864   6.080   6.267 -0.1923  0.5987  0.6331
   67MOL0     H 9178   5.709   5.940   6.148 -0.8046 -1.7926 -2.3233
   67MOL0     H 9179   5.734   5.894   5.741 -2.9487  1.7220 -2.6448
   67MOL0     H 9180   5.638   5.977   5.862 -0.6340 -0.2709 -0.9807
   67MOL0     H 9181   5.506   5.829   5.701  1.1224  2.0262  0.2107
   67MOL0     H 9182   5.588   5.688   5.766  0.4270  0.3545 -2.0138
   67MOL0     H 9183   5.473   5.737   5.991 -1.2953 -0.3744  0.2091
   67MOL0     H 9184   5.431   5.902   5.935 -3.2185  0.5348 -2.2920
   67MOL0     H 9185   5.285   5.772   5.765  2.6937 -0.3934 -0.6271
   67MOL0     H 9186   5.321   5.628   5.843 -6.2673 -0.1670 -3.2151
   67MOL0     H 9187   5.107   5.780   5.921 -1.7247 -2.3958  1.0408
   67MOL0     H 9188   5.224   5.846   6.031  1.5170 -0.9526  0.4797
   67MOL0     H 9189   5.149   5.550   6.009 -1.7380 -0.9039  1.2547
   67MOL0     H 9190   5.284   5.618   6.106 -0.9513  1.7038  2.2938
   67MOL0     H 9191   4.997   5.727   6.115  0.3586  1.4301 -1.4795
   67MOL0     H 9192   5.125   5.755   6.235 -0.8350 -0.4069 -1.1549
   67MOL0     H 9193   4.953   5.579   6.318 -2.0985 -2.6973 -0.5475
   67MOL0     H 9194   5.023   5.471   6.198  0.5467 -0.7725  2.2240
   67MOL0     H 9195   5.186   5.306   6.266  1.2207 -2.7611  1.7089
   67MOL0     H 9196   5.379   5.187   6.421 -1.6754 -0.1303  0.5291
   67MOL0     H 9197   5.463   5.298   6.532 -1.6812  2.1775  0.3963
   67MOL0     H 9198   5.471   5.319   6.224 -1.0710 -1.0656 -0.1374
   67MOL0     H 9199   5.595   5.370   6.327 -0.9303  1.3525 -1.4073
   67MOL0     H 9200   5.523   5.083   6.259 -1.2847 -2.6184  3.9398
   67MOL0     H 9201   5.677   5.170   6.226  0.0419 -0.3186 -1.3417
   67MOL0     H 9202   5.713   5.171   6.477  0.0693  0.5635  1.0487
   67MOL0     H 9203   5.572   5.073   6.496  1.8367  0.1921  1.8321
   67MOL0     H 9204   5.948   4.994   6.496  0.2819 -0.6642 -0.1208
   67MOL0     H 9205   6.284   5.008   6.362  0.9517  2.0553  2.2394
   67MOL0     H 9206   6.229   4.871   6.465  1.1067 -1.1615 -1.6831
   67MOL0     H 9207   6.192   5.050   6.506  0.6305  1.4699 -1.1115
   67MOL0     H 9208   6.344   4.993   5.794 -1.7052  0.2312  1.3137
   67MOL0     H 9209   6.564   5.098   5.744  0.1796 -1.8468 -0.2222
   67MOL0     H 9210   6.902   5.191   5.810 -0.2002 -0.6655  2.0551
   67MOL0     H 9211   6.756   5.155   5.723  1.6105 -1.2418 -0.4850
   67MOL0     H 9212   6.808   5.366   5.685 -0.6476 -0.1385 -0.2238
   67MOL0     H 9213   6.648   5.368   5.769 -0.2695 -3.6529  0.3124
   67MOL0     H 9214   6.908   5.441   5.911  2.1392  3.3702 -4.8186
   67MOL0     H 9215   6.735   5.450   5.973 -1.9755  2.0132 -1.6552
   67MOL0     H 9216   6.833   5.594   5.718 -1.0731 -2.9364 -0.3567
   67MOL0     H 9217   6.889   5.645   5.888 -0.3852 -0.5161  0.3597
   67MOL0     H 9218   6.587   5.635   5.797  0.2709  1.4338  0.5544
   67MOL0     H 9219   6.665   5.700   5.946 -0.6772 -1.3039  0.8869
   67MOL0     H 9220   6.673   5.794   5.666  0.0991  1.6765 -0.3988
   67MOL0     H 9221   6.797   5.856   5.784  0.0352 -1.1438  3.1097
   67MOL0     H 9222   6.500   5.872   5.812  0.6252 -0.1617  0.0530
   67MOL0     H 9223   6.599   6.010   5.747 -1.4852 -0.9934 -1.7186
   67MOL0     H 9224   6.709   6.027   5.988  0.2380  0.0589  0.5482
   67MOL0     H 9225   6.605   5.896   6.024  4.1449 -3.1294 -3.0283
   67MOL0     H 9226   6.651   5.119   6.158 -0.0655 -0.7830 -0.5704
   67MOL0     H 9227   6.434   5.037   6.219  1.3903 -0.7588  1.1938
   67MOL0     H 9228   5.969   4.843   6.042 -0.1874  0.9857 -0.1447
   67MOL0     H 9229   5.750   4.898   6.134 -0.2298  2.1451 -0.5311
   67MOL0     H 9230   6.009   5.860   5.846  0.4657 -1.0534  1.5253
   67MOL0     H 9231   6.160   6.008   5.966 -0.0396 -0.7104  1.1305
   67MOL0     H 9232   6.352   6.402   6.087 -1.0435  0.9963 -0.4057
   67MOL0     H 9233   6.502   6.553   6.241  1.3734  1.2388  2.2856
   67MOL0     H 9234   6.360   6.605   6.688 -0.2212  0.4150 -1.3048
   67MOL0     H 9235   6.436   6.446   6.652 -2.6304  0.8044  2.8447
   67MOL0     H 9236   6.591   6.704   6.656 -3.7683 -0.8198 -3.8478
   67MOL0     H 9237   6.666   6.548   6.677  1.6722  1.8786  0.7069
   67MOL0     H 9238   6.459   6.645   6.871  0.5001  0.7397 -0.0697
   67MOL0     H 9239   6.604   6.541   6.894  1.9589  0.8422 -1.0647
   67MOL0     H 9240   6.627   6.735   7.012  1.6728  1.8091  0.8725
   67MOL0     H 9241   6.599   6.840   6.875 -1.3981 -1.3334 -0.1755
   67MOL0     H 9242   7.007   6.748   6.877 -0.2967  2.0931  1.9408
   67MOL0     H 9243   6.222   6.473   6.554  0.2842 -2.5025  0.6766
   67MOL0     H 9244   6.021   6.363   6.526 -0.5845 -2.3375  0.5600
   67MOL0     H 9245   5.965   6.300   6.372 -3.1593 -0.7569  3.4148
   67MOL0     H 9246   6.077   6.219   6.477  2.6777  0.1945 -2.0248
   68MOL0     O 9247   3.806   4.096   1.881  0.2066 -0.1398  0.2655
   68MOL0     C 9248   3.916   4.095   1.944 -0.1191  0.1228  0.7335
   68MOL0     O 9249   3.981   4.201   1.996  0.1074 -0.8005  0.1551
   68MOL0     C 9250   3.955   4.325   1.933 -0.4648  0.9961 -0.2028
   68MOL0     C 9251   3.837   4.389   1.932 -0.0731  0.2699 -0.4010
   68MOL0     C 9252   3.822   4.507   1.857  0.2448 -0.8514 -0.0794
   68MOL0     C 9253   3.930   4.568   1.796  0.4247  0.0261 -0.3468
   68MOL0     O 9254   3.905   4.677   1.716 -0.5675  0.5358  0.1981
   68MOL0     C 9255   4.005   4.784   1.712  0.0979 -0.2158 -0.2212
   68MOL0     C 9256   3.945   4.908   1.655  0.2124  0.7094 -0.1067
   68MOL0     C 9257   3.842   4.973   1.746  0.6694 -1.5388 -0.6609
   68MOL0     C 9258   3.769   5.082   1.661 -0.6383 -0.4010 -0.2303
   68MOL0     C 9259   3.673   5.164   1.751 -0.3176 -0.3115  0.4539
   68MOL0     C 9260   3.567   5.257   1.686  1.1381  0.0280 -0.0788
   68MOL0     C 9261   3.451   5.180   1.612  0.3299 -0.5089 -0.7854
   68MOL0     C 9262   3.334   5.287   1.587  0.4036 -0.4191  0.2875
   68MOL0     N 9263   3.230   5.214   1.509  0.8653 -0.4690  0.9834
   68MOL0     C 9264   3.117   5.143   1.549  0.2383  0.0621  0.1816
   68MOL0     C 9265   3.058   5.097   1.433 -0.5074 -0.4193 -0.5440
   68MOL0     C 9266   2.932   5.014   1.423 -0.6614  0.7708  0.6035
   68MOL0     C 9267   2.820   5.049   1.319 -0.2458  0.4746  0.1947
   68MOL0     C 9268   2.806   4.966   1.193 -0.7880  0.4922  0.6060
   68MOL0     C 9269   2.936   4.982   1.117  0.3438  0.2239 -0.1137
   68MOL0     O 9270   2.931   4.896   1.001 -0.0574  0.0665  0.2205
   68MOL0     C 9271   3.041   4.879   0.920  0.5842  0.2059 -0.2300
   68MOL0     C 9272   3.159   4.947   0.925 -0.0835  0.2982 -0.8697
   68MOL0     C 9273   3.274   4.907   0.856 -0.1257 -1.1384  0.4801
   68MOL0     C 9274   3.398   4.994   0.895  0.3803  0.7131  0.2434
   68MOL0     C 9275   3.256   4.816   0.748 -1.0081  0.0181 -0.1323
   68MOL0     C 9276   3.368   4.774   0.652  0.3192 -0.2878 -0.0772
   68MOL0     O 9277   3.498   4.789   0.683  0.4979  0.4271 -1.0232
   68MOL0     C 9278   3.604   4.766   0.595  0.1586 -0.1130  0.2551
   68MOL0     C 9279   3.732   4.753   0.660  0.0247 -0.9467 -0.2897
   68MOL0     C 9280   3.848   4.758   0.592 -0.3371 -0.4578  0.1852
   68MOL0     C 9281   3.856   4.748   0.459 -0.0622  0.9885 -0.1956
   68MOL0     O 9282   3.959   4.739   0.383  0.2225 -0.0941  0.0331
   68MOL0     C 9283   4.086   4.699   0.438  0.1609  0.3531 -0.4469
   68MOL0     C 9284   4.200   4.673   0.334 -0.6811 -0.5304  0.0874
   68MOL0     C 9285   4.185   4.540   0.266  0.1070 -0.0982 -0.1293
   68MOL0     C 9286   4.083   4.554   0.148 -0.5568 -0.0684 -0.4134
   68MOL0     C 9287   4.043   4.409   0.117  0.8830  1.5839  0.5623
   68MOL0     C 9288   3.930   4.398   0.015 -0.5678  0.0511 -0.2711
   68MOL0     C 9289   3.839   4.520   0.003  0.1831 -0.1889  0.5892
   68MOL0     C 9290   3.691   4.489  -0.045  0.1343 -0.3416  0.0321
   68MOL0    Cl 9291   3.679   4.478  -0.222 -0.1374 -0.2646 -0.1774
   68MOL0     C 9292   3.732   4.736   0.380 -0.4168  0.5540 -0.5905
   68MOL0     C 9293   3.611   4.751   0.459  0.4818  0.5779 -0.0675
   68MOL0     O 9294   3.326   4.749   0.533  0.0537 -0.0019 -0.1513
   68MOL0     C 9295   3.137   4.744   0.735 -0.7279 -0.0969 -0.1369
   68MOL0     C 9296   3.028   4.787   0.811 -0.1247  0.7088 -0.5723
   68MOL0     N 9297   3.114   5.170   1.332 -0.8552  0.2651 -0.1096
   68MOL0     N 9298   3.204   5.247   1.379  0.3649  0.5404 -0.5984
   68MOL0     C 9299   4.058   4.510   1.810 -0.2769  0.3195 -0.9474
   68MOL0     C 9300   4.066   4.382   1.872 -0.1663  0.0033  0.3109
   68MOL0     C 9301   3.985   3.961   1.958  0.4626  0.6810 -0.3617
   68MOL0     C 9302   4.115   3.967   2.006  0.1379 -0.1722 -0.2495
   68MOL0     C 9303   4.186   3.853   2.027  0.3857  0.2742  0.0646
   68MOL0     C 9304   4.132   3.726   2.010  0.5951 -0.1428 -0.1655
   68MOL0     O 9305   4.195   3.606   2.038  0.1037  0.2535 -0.1505
   68MOL0     C 9306   4.310   3.605   2.122 -0.2745  0.9371 -0.3796
   68MOL0     C 9307   4.271   3.606   2.275  0.1467 -0.2647 -0.4373
   68MOL0     C 9308   4.393   3.617   2.374  0.1369  0.5089 -0.3186
   68MOL0     C 9309   4.461   3.755   2.398 -0.0736 -0.0489 -0.0633
   68MOL0     C 9310   4.569   3.721   2.491  0.1863  0.6747 -0.3189
   68MOL0     C 9311   4.667   3.702   2.563 -0.8468 -0.7187 -0.6833
   68MOL0     C 9312   4.000   3.719   1.965  0.1586 -0.0871  0.0461
   68MOL0     C 9313   3.927   3.837   1.942  0.6644 -0.3222  0.6222
   68MOL0     C 9314   3.783   3.819   1.895  0.3918  0.4823  1.3666
   68MOL0     H 9315   3.759   4.336   1.987 -1.2276  3.6695  1.5246
   68MOL0     H 9316   3.718   4.532   1.841 -0.8740 -3.3073  2.6446
   68MOL0     H 9317   4.089   4.764   1.645  1.9858  3.6367  0.7396
   68MOL0     H 9318   4.045   4.809   1.811 -0.1195  2.8675 -0.8227
   68MOL0     H 9319   4.015   4.987   1.626 -0.0690  2.1811  2.8136
   68MOL0     H 9320   3.890   4.881   1.564 -1.8744  0.9239  1.0368
   68MOL0     H 9321   3.773   4.890   1.762 -2.4874  0.9103 -0.5097
   68MOL0     H 9322   3.886   5.014   1.838  0.8154 -1.6994 -0.6591
   68MOL0     H 9323   3.832   5.151   1.603 -0.2911 -0.3164  0.2380
   68MOL0     H 9324   3.719   5.028   1.581  1.6516 -0.6137 -1.6175
   68MOL0     H 9325   3.728   5.211   1.833 -1.3332  0.4257  0.7352
   68MOL0     H 9326   3.609   5.088   1.798  0.3067  0.0537  1.9268
   68MOL0     H 9327   3.516   5.298   1.774  0.7652  1.0629 -0.7667
   68MOL0     H 9328   3.613   5.334   1.623 -2.7588  2.6816 -0.0245
   68MOL0     H 9329   3.417   5.099   1.677 -0.5869 -0.5293 -1.2707
   68MOL0     H 9330   3.471   5.144   1.511 -2.7961 -2.7536 -0.7536
   68MOL0     H 9331   3.288   5.323   1.680  2.6217  0.4292  1.1325
   68MOL0     H 9332   3.367   5.375   1.532  0.0210 -0.2726  0.2862
   68MOL0     H 9333   3.098   5.121   1.653 -2.0407  1.7696  0.1914
   68MOL0     H 9334   2.892   5.013   1.525  0.9793 -0.0449  1.2735
   68MOL0     H 9335   2.973   4.915   1.403  3.3763  2.2627  0.5330
   68MOL0     H 9336   2.730   5.059   1.381  1.2130  1.5642  2.2208
   68MOL0     H 9337   2.835   5.153   1.288 -1.5216  1.3426  2.2582
   68MOL0     H 9338   2.791   4.860   1.215 -0.5867 -0.2703 -2.4519
   68MOL0     H 9339   2.720   4.991   1.130 -0.8988 -0.4150  0.3829
   68MOL0     H 9340   2.940   5.086   1.082 -3.2979  0.0185 -1.6095
   68MOL0     H 9341   3.019   4.961   1.184  0.9043  2.7406  0.0885
   68MOL0     H 9342   3.163   5.023   1.002 -3.1213 -0.7142  0.4598
   68MOL0     H 9343   3.368   5.079   0.958 -1.6795  1.3942 -1.5291
   68MOL0     H 9344   3.446   5.032   0.804  0.8227 -1.2132 -0.3707
   68MOL0     H 9345   3.481   4.944   0.946  0.4048  1.2605  0.7470
   68MOL0     H 9346   3.734   4.759   0.769  1.8381 -0.3867 -0.3341
   68MOL0     H 9347   3.939   4.781   0.647 -0.9188  0.1337  0.9205
   68MOL0     H 9348   4.111   4.779   0.509 -0.5129 -0.7534  1.0853
   68MOL0     H 9349   4.080   4.604   0.492  0.7016  0.5276 -0.0713
   68MOL0     H 9350   4.197   4.747   0.253 -3.2227 -0.6563 -0.0081
   68MOL0     H 9351   4.294   4.677   0.390 -0.6243  1.2303 -0.0923
   68MOL0     H 9352   4.146   4.475   0.345  0.7443  0.0170  0.2878
   68MOL0     H 9353   4.276   4.492   0.229 -0.7687 -0.8408 -1.3739
   68MOL0     H 9354   4.136   4.601   0.065 -1.2853  0.5152 -0.5567
   68MOL0     H 9355   4.007   4.629   0.170 -1.6598 -0.0491 -3.7522
   68MOL0     H 9356   4.128   4.352   0.079  0.0904  0.6320  0.1494
   68MOL0     H 9357   4.005   4.360   0.208 -0.7897 -1.3978 -1.5464
   68MOL0     H 9358   3.872   4.309   0.038 -0.4411  0.0035 -0.1291
   68MOL0     H 9359   3.999   4.386  -0.069  1.0969  3.8801  0.2955
   68MOL0     H 9360   3.891   4.588  -0.065 -1.5426 -0.2973 -0.9160
   68MOL0     H 9361   3.837   4.569   0.101  6.2087 -1.4839  1.7660
   68MOL0     H 9362   3.613   4.557  -0.011 -0.1135  0.4247 -1.9613
   68MOL0     H 9363   3.669   4.397   0.009  1.0064 -0.4133  0.2927
   68MOL0     H 9364   3.738   4.726   0.272 -0.6282  2.1604 -0.7757
   68MOL0     H 9365   3.517   4.752   0.404  0.3751  3.9771 -0.0138
   68MOL0     H 9366   3.117   4.658   0.673 -1.1526 -2.3610  2.8812
   68MOL0     H 9367   2.934   4.733   0.797  0.5919  0.1221 -3.9705
   68MOL0     H 9368   4.139   4.551   1.751  1.0444  1.0424  1.2321
   68MOL0     H 9369   4.163   4.336   1.882 -0.1588  0.0924  0.6387
   68MOL0     H 9370   4.168   4.060   2.023 -0.6619  0.3271 -0.4163
   68MOL0     H 9371   4.287   3.859   2.066  0.3234 -0.4395  0.3657
   68MOL0     H 9372   4.379   3.524   2.098  1.4342  1.1086  3.2558
   68MOL0     H 9373   4.378   3.684   2.090  0.3696  0.6729  0.3071
   68MOL0     H 9374   4.214   3.516   2.300  1.3699 -1.2962 -1.2518
   68MOL0     H 9375   4.205   3.691   2.296  0.6216 -0.5406  2.6358
   68MOL0     H 9376   4.352   3.575   2.467 -2.9942 -0.5730 -2.0512
   68MOL0     H 9377   4.464   3.538   2.348 -0.2605 -0.5887  1.7019
   68MOL0     H 9378   4.401   3.837   2.438 -1.0607  0.4591 -2.3945
   68MOL0     H 9379   4.508   3.789   2.306 -2.7050 -1.7932 -2.2347
   68MOL0     H 9380   4.757   3.694   2.621 -1.9006  2.1514  1.6315
   68MOL0     H 9381   3.949   3.627   1.942 -0.1953  0.4205 -1.2799
   68MOL0     H 9382   3.769   3.838   1.788  0.6005  0.9245  1.4156
   68MOL0     H 9383   3.763   3.711   1.898  0.0690  0.1980 -3.2281
   68MOL0     H 9384   3.712   3.881   1.950 -0.8943  0.4991 -0.2303
   69MOL0     O 9385  10.850   3.855   4.563 -0.7506 -0.2274  0.5388
   69MOL0     C 9386  10.800   3.959   4.598  0.0891 -0.1163 -1.2253
   69MOL0     O 9387  10.848   4.087   4.570 -0.0951  0.1574 -0.5036
   69MOL0     C 9388  10.975   4.087   4.516 -0.3277 -0.1131 -0.0948
   69MOL0     C 9389  10.998   4.113   4.381  0.3079 -0.4528  0.1576
   69MOL0     C 9390  11.126   4.141   4.325  0.9038 -1.2841  0.0187
   69MOL0     C 9391  11.224   4.139   4.417 -0.3252 -0.5487 -0.3273
   69MOL0     O 9392  11.346   4.176   4.356 -0.1853 -0.0721  0.1878
   69MOL0     C 9393  11.463   4.230   4.429  0.1831 -0.2873 -0.6838
   69MOL0     C 9394  11.436   4.380   4.443  0.0952 -0.0306 -0.8872
   69MOL0     C 9395  11.544   4.454   4.516  0.4260 -0.3074  0.9007
   69MOL0     C 9396  11.541   4.607   4.485 -0.3087  0.6140 -0.3354
   69MOL0     C 9397  11.662   4.669   4.545 -0.0787 -0.5530 -0.2346
   69MOL0     C 9398  11.647   4.821   4.529 -0.4441  0.0353 -0.1369
   69MOL0     C 9399  11.736   4.905   4.631  0.0001  0.1479  0.8081
   69MOL0     C 9400  11.788   5.032   4.570  0.0628  0.0611  0.0136
   69MOL0     N 9401  11.674   5.124   4.525 -0.0537  0.1331  0.4807
   69MOL0     C 9402  11.627   5.136   4.401  0.1932 -1.0467  0.8230
   69MOL0     C 9403  11.528   5.225   4.409  0.2084  0.1946  0.5284
   69MOL0     C 9404  11.439   5.277   4.304  0.8256  0.1001 -0.8577
   69MOL0     C 9405  11.298   5.203   4.306 -0.3632  0.0797 -0.4525
   69MOL0     C 9406  11.197   5.262   4.205  0.0080  0.9805 -0.4883
   69MOL0     C 9407  11.053   5.209   4.232 -0.3932 -0.4246  0.1347
   69MOL0     O 9408  10.957   5.285   4.168 -0.5900 -0.9042 -0.9123
   69MOL0     C 9409  10.827   5.245   4.167  0.1141 -0.0611 -0.3648
   69MOL0     C 9410  10.737   5.307   4.080 -0.0472  0.6386 -0.3739
   69MOL0     C 9411  10.607   5.255   4.059  0.1676  0.1707 -0.1134
   69MOL0     C 9412  10.516   5.317   3.946  0.4232 -0.0133  0.2448
   69MOL0     C 9413  10.558   5.150   4.150 -0.2006 -0.0854 -0.8283
   69MOL0     C 9414  10.414   5.108   4.143 -0.8273  0.4173 -0.4926
   69MOL0     O 9415  10.319   5.196   4.134  0.3052  0.2477  0.6610
   69MOL0     C 9416  10.182   5.164   4.120 -1.0979  0.2235  0.8257
   69MOL0     C 9417  10.101   5.253   4.189 -0.0257 -0.5914 -0.2517
   69MOL0     C 9418   9.961   5.240   4.196  0.0758  0.3949 -0.5640
   69MOL0     C 9419   9.906   5.121   4.144 -0.8052  0.2977 -0.4329
   69MOL0     O 9420   9.773   5.105   4.172  0.5060  0.0692  0.0778
   69MOL0     C 9421   9.680   5.188   4.093 -0.4059  0.0362  0.2781
   69MOL0     C 9422   9.539   5.119   4.096 -0.1953  0.3916 -1.1595
   69MOL0     C 9423   9.439   5.167   3.994  0.1364  0.2498 -0.4816
   69MOL0     C 9424   9.300   5.103   4.018  0.5259  0.5021  0.2724
   69MOL0     C 9425   9.217   5.101   3.889 -0.6040 -0.0210  0.2544
   69MOL0     C 9426   9.142   4.965   3.889  1.2582 -1.3641  0.1611
   69MOL0     C 9427   9.050   4.952   3.763  0.6433 -0.0297 -0.6166
   69MOL0     C 9428   8.993   4.810   3.769 -0.2079  0.1123  0.5952
   69MOL0    Cl 9429   8.898   4.767   3.907  0.0322  0.4955  0.0349
   69MOL0     C 9430   9.990   5.028   4.077  0.3494 -0.5907 -0.7508
   69MOL0     C 9431  10.131   5.055   4.056 -0.1108 -0.5192  0.4483
   69MOL0     O 9432  10.395   4.988   4.164 -0.3439 -0.1997 -0.3835
   69MOL0     C 9433  10.648   5.089   4.244  0.5326  0.1005 -0.3915
   69MOL0     C 9434  10.782   5.131   4.242  0.1954  0.6132 -0.3567
   69MOL0     N 9435  11.514   5.271   4.535  0.0402  0.1370  0.4430
   69MOL0     N 9436  11.598   5.203   4.604 -0.2553  1.1748 -0.9765
   69MOL0     C 9437  11.208   4.094   4.553 -0.5485  0.0850  0.0917
   69MOL0     C 9438  11.080   4.069   4.610 -1.0422 -0.3555  0.0193
   69MOL0     C 9439  10.691   3.972   4.695 -0.2320 -0.0534  0.1535
   69MOL0     C 9440  10.636   4.102   4.716 -0.4474 -0.0987 -1.1261
   69MOL0     C 9441  10.535   4.134   4.803  0.2134  0.3319  0.4876
   69MOL0     C 9442  10.460   4.030   4.860 -0.4332  0.6256  0.5434
   69MOL0     O 9443  10.341   4.052   4.934 -0.7708  0.7563  0.8733
   69MOL0     C 9444  10.301   4.185   4.939  0.1040  0.6946 -1.2719
   69MOL0     C 9445  10.179   4.196   5.018  0.6020  0.4366 -0.7680
   69MOL0     C 9446  10.057   4.161   4.934  0.2839 -0.0640  0.2053
   69MOL0     C 9447   9.930   4.139   5.039  0.6820 -0.7834 -0.5238
   69MOL0     C 9448   9.832   4.057   4.961  0.4889  0.8905  0.1820
   69MOL0     C 9449   9.736   3.989   4.919  0.9642 -0.2245  0.0348
   69MOL0     C 9450  10.504   3.900   4.846 -0.3295  0.7735 -0.2675
   69MOL0     C 9451  10.613   3.864   4.760 -0.0475 -0.3021  0.7441
   69MOL0     C 9452  10.646   3.721   4.735 -0.2862 -0.2287 -0.4245
   69MOL0     H 9453  10.907   4.102   4.323 -0.2930 -0.3047  1.0516
   69MOL0     H 9454  11.146   4.166   4.222 -1.3129 -0.5164 -0.2920
   69MOL0     H 9455  11.550   4.223   4.362  2.3039  2.1260  1.6019
   69MOL0     H 9456  11.482   4.174   4.521  0.8206 -2.1763 -1.8999
   69MOL0     H 9457  11.430   4.429   4.346  1.7297 -1.0405 -1.5496
   69MOL0     H 9458  11.343   4.402   4.496  0.9243  2.4264 -0.3233
   69MOL0     H 9459  11.527   4.447   4.624 -0.7240  1.9007  0.9024
   69MOL0     H 9460  11.646   4.422   4.490  0.2289 -1.0633  1.0346
   69MOL0     H 9461  11.527   4.614   4.377 -1.9377  2.5945 -0.0536
   69MOL0     H 9462  11.448   4.652   4.521 -1.0510 -1.3729  0.3795
   69MOL0     H 9463  11.752   4.650   4.486  0.0509  1.1267 -0.6288
   69MOL0     H 9464  11.684   4.638   4.648  0.0007  1.0018  0.2596
   69MOL0     H 9465  11.681   4.847   4.428  0.2822 -0.1029  0.0667
   69MOL0     H 9466  11.544   4.847   4.557  0.3410  1.6633  1.4165
   69MOL0     H 9467  11.822   4.843   4.656 -0.7948 -3.7293 -4.3292
   69MOL0     H 9468  11.678   4.928   4.721  0.0719 -0.8709  1.1369
   69MOL0     H 9469  11.846   5.078   4.650  1.3186 -2.3094  0.5665
   69MOL0     H 9470  11.861   5.014   4.492  0.0885 -0.8610  0.2399
   69MOL0     H 9471  11.673   5.080   4.320  1.2361 -0.7176  1.1633
   69MOL0     H 9472  11.484   5.268   4.205 -1.8294 -1.1970 -2.0466
   69MOL0     H 9473  11.427   5.383   4.329  2.1471  0.6913 -2.5167
   69MOL0     H 9474  11.313   5.098   4.278 -2.3202  0.0624 -1.6164
   69MOL0     H 9475  11.263   5.207   4.409  2.5146  0.4333  0.6022
   69MOL0     H 9476  11.194   5.371   4.205 -1.9243  1.0412 -3.4572
   69MOL0     H 9477  11.222   5.237   4.102 -3.0656 -1.3706 -0.8221
   69MOL0     H 9478  11.062   5.105   4.199 -0.0451 -0.2305 -0.3938
   69MOL0     H 9479  11.029   5.211   4.339  2.0911 -0.3094  0.7711
   69MOL0     H 9480  10.775   5.399   4.035 -0.6526  0.1273 -1.9790
   69MOL0     H 9481  10.572   5.351   3.859  1.0143 -0.2134  0.5379
   69MOL0     H 9482  10.464   5.406   3.983 -1.8955 -0.3790 -1.8707
   69MOL0     H 9483  10.435   5.254   3.909  0.5114  0.7753 -1.3402
   69MOL0     H 9484  10.146   5.340   4.236  0.9443 -1.2178  0.0212
   69MOL0     H 9485   9.906   5.321   4.243 -0.9763 -1.2052  1.0838
   69MOL0     H 9486   9.684   5.292   4.127  1.6307  0.1644 -0.1947
   69MOL0     H 9487   9.729   5.185   3.995  1.3854 -0.6797  1.1528
   69MOL0     H 9488   9.552   5.015   4.063  0.1513  0.8890 -2.7012
   69MOL0     H 9489   9.495   5.110   4.195  0.9520 -1.1637 -0.7557
   69MOL0     H 9490   9.488   5.153   3.897 -1.4316 -0.0772 -1.2614
   69MOL0     H 9491   9.430   5.275   4.012 -1.7286 -0.2253  1.8890
   69MOL0     H 9492   9.244   5.157   4.094  1.9704 -0.1782  1.8891
   69MOL0     H 9493   9.315   5.004   4.062 -0.6749  0.3985  0.4835
   69MOL0     H 9494   9.140   5.179   3.889  0.7702  1.3879  0.2975
   69MOL0     H 9495   9.279   5.128   3.804 -2.3641  0.1176 -1.0502
   69MOL0     H 9496   9.087   4.949   3.982  0.6259  0.8196  0.2198
   69MOL0     H 9497   9.218   4.886   3.895  1.3915 -1.2353  0.2006
   69MOL0     H 9498   9.111   4.967   3.673  3.7736 -2.2327  0.9532
   69MOL0     H 9499   8.970   5.024   3.781  0.5290 -0.8145  2.4359
   69MOL0     H 9500   9.071   4.733   3.773 -0.4603 -0.1506  0.4532
   69MOL0     H 9501   8.930   4.787   3.683  0.1866  0.2346  0.2739
   69MOL0     H 9502   9.946   4.940   4.030 -1.3608 -1.2506  1.8784
   69MOL0     H 9503  10.190   4.980   4.004  0.9951  0.2478  0.5561
   69MOL0     H 9504  10.611   5.010   4.308  1.4536 -0.5958 -0.6991
   69MOL0     H 9505  10.855   5.079   4.302  1.4207  1.3122 -1.1905
   69MOL0     H 9506  11.295   4.082   4.617 -1.4620  0.4911  1.4379
   69MOL0     H 9507  11.056   4.044   4.713 -0.2995 -1.7683 -0.1302
   69MOL0     H 9508  10.671   4.194   4.672 -2.1232  0.9257 -0.3877
   69MOL0     H 9509  10.508   4.239   4.808  0.9129  0.5173  0.5776
   69MOL0     H 9510  10.382   4.249   4.976  0.1699  1.3823 -2.5425
   69MOL0     H 9511  10.292   4.228   4.839  3.7314  0.2813 -1.9354
   69MOL0     H 9512  10.168   4.301   5.046 -0.1421 -0.0092  0.7819
   69MOL0     H 9513  10.174   4.146   5.116  0.3994 -1.2567 -1.5998
   69MOL0     H 9514  10.042   4.246   4.867  1.4657  1.6129  1.9572
   69MOL0     H 9515  10.080   4.076   4.870  3.9566  0.7085  0.2854
   69MOL0     H 9516   9.873   4.229   5.062 -0.0880 -0.7964 -2.1932
   69MOL0     H 9517   9.958   4.077   5.125 -1.8543 -1.3804 -0.0379
   69MOL0     H 9518   9.668   3.916   4.879  1.8984 -0.0683 -1.9700
   69MOL0     H 9519  10.445   3.819   4.888 -0.6503  0.0812 -1.9587
   69MOL0     H 9520  10.627   3.695   4.631  1.7791  0.6650 -1.0704
   69MOL0     H 9521  10.750   3.701   4.761 -0.7452 -2.1840  0.1351
   69MOL0     H 9522  10.593   3.650   4.800  1.2371 -1.5690 -0.5752
   70MOL0     O 9523   3.105   8.675   3.592 -0.3379  0.1743  0.2576
   70MOL0     C 9524   3.112   8.628   3.476  0.0704  0.3680 -0.4003
   70MOL0     O 9525   3.033   8.668   3.371 -0.2129  0.4181 -0.2125
   70MOL0     C 9526   2.931   8.754   3.387 -0.1738 -0.4297  0.2200
   70MOL0     C 9527   2.808   8.712   3.437 -1.0323  0.5143  0.2588
   70MOL0     C 9528   2.702   8.802   3.440  0.6121 -0.4102  0.4408
   70MOL0     C 9529   2.715   8.931   3.390  0.3135 -1.1180 -0.4726
   70MOL0     O 9530   2.622   9.037   3.391 -0.0520 -0.1760 -0.2494
   70MOL0     C 9531   2.487   9.009   3.435 -0.3115 -0.9672 -0.2919
   70MOL0     C 9532   2.398   9.133   3.397 -0.7360 -0.2732  0.5195
   70MOL0     C 9533   2.263   9.121   3.470 -1.1353  0.1734  0.5915
   70MOL0     C 9534   2.187   9.256   3.464 -0.6430  0.1390 -0.1135
   70MOL0     C 9535   2.038   9.240   3.486  0.2765  0.2353 -0.3416
   70MOL0     C 9536   1.955   9.362   3.515 -0.0468  0.2422  0.3667
   70MOL0     C 9537   1.813   9.336   3.564 -0.5914 -0.3751 -0.5783
   70MOL0     C 9538   1.740   9.476   3.581 -0.4376 -1.0795  1.1699
   70MOL0     N 9539   1.786   9.559   3.693 -0.2400 -0.1497 -0.2469
   70MOL0     C 9540   1.852   9.682   3.678 -0.2701  1.1688 -0.4656
   70MOL0     C 9541   1.866   9.727   3.802  0.3519  0.7281 -0.3766
   70MOL0     C 9542   1.921   9.855   3.835 -0.1365 -0.4902  0.3283
   70MOL0     C 9543   2.057   9.850   3.918 -0.7306 -0.1392 -1.0758
   70MOL0     C 9544   2.109   9.996   3.950 -0.3348  0.7037  0.0676
   70MOL0     C 9545   2.221  10.045   3.854  0.3777 -0.1306 -0.3797
   70MOL0     O 9546   2.152  10.068   3.726 -0.2908  0.0476  0.5873
   70MOL0     C 9547   2.162  10.200   3.688  0.1956 -0.2899 -0.2261
   70MOL0     C 9548   2.057  10.288   3.708  0.6619  0.1966  0.1114
   70MOL0     C 9549   2.058  10.427   3.672 -0.1350  0.6582  0.8096
   70MOL0     C 9550   1.945  10.520   3.693 -0.8668  0.6978 -0.0471
   70MOL0     C 9551   2.193  10.472   3.627  0.8545  0.1777  0.8799
   70MOL0     C 9552   2.231  10.621   3.616  0.3220 -0.2856 -0.4979
   70MOL0     O 9553   2.355  10.641   3.565 -0.7055  0.5267  0.5428
   70MOL0     C 9554   2.424  10.764   3.583 -0.3457 -0.9846 -0.5292
   70MOL0     C 9555   2.519  10.793   3.483  0.5954 -0.1000  0.0734
   70MOL0     C 9556   2.594  10.908   3.495  0.0129  0.3048 -0.2468
   70MOL0     C 9557   2.586  10.990   3.605  0.1370 -0.2730  0.5537
   70MOL0     O 9558   2.644  11.114   3.624 -0.0795  0.1974 -1.3333
   70MOL0     C 9559   2.785  11.116   3.568  0.6337 -1.0788 -0.2316
   70MOL0     C 9560   2.868  11.229   3.635 -0.3480 -0.0187 -0.0909
   70MOL0     C 9561   3.021  11.214   3.603  0.7793 -0.2241 -0.4885
   70MOL0     C 9562   3.080  11.077   3.648 -0.3968  0.1756  0.5045
   70MOL0     C 9563   3.235  11.074   3.607  0.1136 -0.5903 -0.1367
   70MOL0     C 9564   3.244  11.038   3.458 -0.3199 -0.0114 -0.3581
   70MOL0     C 9565   3.389  11.038   3.417  0.0396  0.1403 -0.7082
   70MOL0     C 9566   3.416  10.988   3.276 -0.1197 -0.2560  0.7085
   70MOL0    Cl 9567   3.599  10.968   3.237  0.0353  0.0311 -0.5788
   70MOL0     C 9568   2.501  10.952   3.711 -0.0941  0.7442 -0.2261
   70MOL0     C 9569   2.422  10.843   3.701  1.6371  0.0144  0.5259
   70MOL0     O 9570   2.154  10.709   3.670  0.1920  0.0662  0.1039
   70MOL0     C 9571   2.294  10.379   3.589  0.5568  0.5441  0.0559
   70MOL0     C 9572   2.275  10.245   3.624  0.6139 -0.3019  0.4055
   70MOL0     N 9573   1.802   9.633   3.882 -1.1645  0.1613  0.2912
   70MOL0     N 9574   1.762   9.529   3.823 -0.5159 -0.3296 -1.2218
   70MOL0     C 9575   2.837   8.971   3.351  0.1684 -0.6320  0.6670
   70MOL0     C 9576   2.948   8.882   3.352  0.4344 -0.7014 -0.1932
   70MOL0     C 9577   3.228   8.533   3.450  1.0222  0.4151 -0.2241
   70MOL0     C 9578   3.284   8.460   3.556  0.6433  0.6765 -0.2186
   70MOL0     C 9579   3.397   8.385   3.541 -0.8418  0.3646  0.4171
   70MOL0     C 9580   3.463   8.375   3.415  0.1408  0.7147 -0.0678
   70MOL0     O 9581   3.556   8.274   3.420 -0.3167  0.2711  0.5017
   70MOL0     C 9582   3.610   8.245   3.287 -0.1113  1.1089 -0.0483
   70MOL0     C 9583   3.736   8.157   3.310  0.9265 -0.4017  0.1297
   70MOL0     C 9584   3.861   8.250   3.341  0.1370  0.4189  0.2811
   70MOL0     C 9585   3.905   8.350   3.237  0.3661 -0.9465  0.2019
   70MOL0     C 9586   4.018   8.440   3.277  1.1980  0.0196  0.2395
   70MOL0     C 9587   4.102   8.512   3.335  0.0794  0.9133  0.5170
   70MOL0     C 9588   3.413   8.455   3.305 -1.2099  0.0863  0.0080
   70MOL0     C 9589   3.304   8.536   3.329 -0.4973 -0.0418  0.4803
   70MOL0     C 9590   3.263   8.626   3.216  0.2559 -1.1458  0.4883
   70MOL0     H 9591   2.792   8.610   3.469  0.2912 -0.2693 -1.4251
   70MOL0     H 9592   2.602   8.771   3.467 -0.5438  1.4310 -1.4656
   70MOL0     H 9593   2.495   8.985   3.541 -1.2126 -1.6738 -0.3690
   70MOL0     H 9594   2.433   8.929   3.383 -2.9757  1.2329 -1.1376
   70MOL0     H 9595   2.445   9.220   3.443 -1.4056  0.7169 -0.6171
   70MOL0     H 9596   2.367   9.137   3.292 -2.7508  1.6723  1.1308
   70MOL0     H 9597   2.204   9.043   3.422  2.4094 -3.1451  1.0892
   70MOL0     H 9598   2.293   9.103   3.573 -0.1656 -1.1076  0.1162
   70MOL0     H 9599   2.228   9.321   3.542  0.3025  0.5491 -0.9321
   70MOL0     H 9600   2.204   9.301   3.366  4.6186 -0.5832  0.1963
   70MOL0     H 9601   2.017   9.168   3.566 -2.1602 -1.3320 -2.2392
   70MOL0     H 9602   2.001   9.205   3.389  2.2800  0.0264 -1.0812
   70MOL0     H 9603   2.011   9.404   3.599  0.2332 -2.2492  1.5129
   70MOL0     H 9604   1.950   9.429   3.429 -1.0702  3.9747  3.0719
   70MOL0     H 9605   1.823   9.282   3.659  0.0517  1.9917  0.7787
   70MOL0     H 9606   1.748   9.273   3.503 -1.9248 -1.6678  1.9927
   70MOL0     H 9607   1.757   9.529   3.486 -0.3750 -2.2098  0.5231
   70MOL0     H 9608   1.632   9.460   3.583 -1.4946  4.0052 -0.4335
   70MOL0     H 9609   1.890   9.728   3.588 -1.9166  3.0109 -0.2727
   70MOL0     H 9610   1.846   9.899   3.902  1.0459  0.0581  1.3143
   70MOL0     H 9611   1.920   9.925   3.750 -1.2091 -1.0360 -0.1361
   70MOL0     H 9612   2.034   9.800   4.013  0.9177  0.4925 -0.3107
   70MOL0     H 9613   2.134   9.780   3.885  0.3293 -0.4468  1.7239
   70MOL0     H 9614   2.024  10.064   3.959 -1.2403 -0.2613 -0.8568
   70MOL0     H 9615   2.160   9.986   4.045  0.4298  0.7956 -0.3273
   70MOL0     H 9616   2.275  10.125   3.905 -1.9204 -0.0393  2.1357
   70MOL0     H 9617   2.289   9.962   3.836 -0.3835 -0.2682 -3.0361
   70MOL0     H 9618   1.973  10.242   3.759 -0.2765  2.3762  0.6764
   70MOL0     H 9619   1.962  10.581   3.782  2.1621  1.1652 -0.8378
   70MOL0     H 9620   1.857  10.456   3.705 -1.0241  0.3919 -2.3020
   70MOL0     H 9621   1.939  10.583   3.604 -1.1841 -1.2442 -1.4956
   70MOL0     H 9622   2.518  10.734   3.392  0.5028  0.3074 -0.1931
   70MOL0     H 9623   2.663  10.941   3.418  3.4160  2.5174  3.3125
   70MOL0     H 9624   2.834  11.019   3.582  1.7199 -0.6116 -0.6329
   70MOL0     H 9625   2.787  11.131   3.460 -3.5585 -1.1103 -0.4471
   70MOL0     H 9626   2.842  11.328   3.596  6.1943  2.1482 -0.1118
   70MOL0     H 9627   2.852  11.238   3.743  2.4335 -0.5387  0.4314
   70MOL0     H 9628   3.079  11.287   3.660  0.2653 -1.1334  1.2509
   70MOL0     H 9629   3.030  11.237   3.496 -1.4729  2.2567 -0.2547
   70MOL0     H 9630   3.033  10.982   3.618 -1.8454  0.8797  0.4714
   70MOL0     H 9631   3.070  11.086   3.756 -0.7880 -0.7956  0.5602
   70MOL0     H 9632   3.288  11.169   3.616 -0.1579 -0.5821  1.8044
   70MOL0     H 9633   3.282  11.000   3.672 -2.2002 -0.8599  1.3405
   70MOL0     H 9634   3.206  11.119   3.395 -0.6388  1.0983  1.2008
   70MOL0     H 9635   3.196  10.943   3.433  1.9684 -2.1940  2.7590
   70MOL0     H 9636   3.443  10.968   3.482  0.1966 -1.3064 -2.3272
   70MOL0     H 9637   3.441  11.134   3.425  3.5277 -1.6087 -0.0919
   70MOL0     H 9638   3.372  11.050   3.197  0.5189 -0.6594  0.0247
   70MOL0     H 9639   3.360  10.894   3.278 -0.5586 -0.0065  0.5192
   70MOL0     H 9640   2.507  11.001   3.807  2.1383  0.7370 -0.2912
   70MOL0     H 9641   2.353  10.813   3.780  0.8622 -2.5965 -1.0346
   70MOL0     H 9642   2.392  10.414   3.562 -0.0575  1.3493 -1.2198
   70MOL0     H 9643   2.356  10.177   3.598 -0.1435 -1.1776  0.2725
   70MOL0     H 9644   2.837   9.074   3.318 -3.7686 -0.5928  0.3761
   70MOL0     H 9645   3.042   8.926   3.319  0.4383  0.8766  1.6860
   70MOL0     H 9646   3.245   8.486   3.654  0.2851 -1.2359  0.1873
   70MOL0     H 9647   3.435   8.318   3.618 -0.4863  0.2060  0.1063
   70MOL0     H 9648   3.540   8.195   3.219 -4.1685  3.7291  1.8032
   70MOL0     H 9649   3.639   8.338   3.238 -1.3115  0.8065 -1.4145
   70MOL0     H 9650   3.740   8.109   3.211 -4.2357  0.8587 -1.0046
   70MOL0     H 9651   3.716   8.075   3.378  3.4955 -0.6669  0.6473
   70MOL0     H 9652   3.827   8.302   3.431 -0.5504 -1.4755  1.1506
   70MOL0     H 9653   3.938   8.177   3.366  0.0515  0.2816  0.1419
   70MOL0     H 9654   3.826   8.421   3.209  1.2438 -0.7019 -1.8343
   70MOL0     H 9655   3.920   8.303   3.140 -1.8269 -2.1356  0.3689
   70MOL0     H 9656   4.184   8.565   3.378  1.1368  0.0720 -0.3866
   70MOL0     H 9657   3.468   8.470   3.213 -1.1592 -0.4111 -0.0425
   70MOL0     H 9658   3.162   8.606   3.181  0.1911  2.3606 -1.8489
   70MOL0     H 9659   3.270   8.728   3.257  1.0726 -2.0757  2.8507
   70MOL0     H 9660   3.320   8.612   3.124 -0.7617 -0.7898 -0.2077
   71MOL0     O 9661  10.549   0.171  10.505  0.7400  0.3330 -0.2989
   71MOL0     C 9662  10.540   0.171  10.631 -0.2689 -0.6679  0.8372
   71MOL0     O 9663  10.650   0.179  10.713  0.2831  0.3472 -0.2229
   71MOL0     C 9664  10.777   0.217  10.682 -0.4698  0.1320  0.0708
   71MOL0     C 9665  10.857   0.164  10.582  0.4333 -0.3587  0.2633
   71MOL0     C 9666  10.995   0.189  10.574  0.0931 -0.3941  0.4070
   71MOL0     C 9667  11.055   0.285  10.654 -0.0429 -1.0202  0.1612
   71MOL0     O 9668  11.192   0.304  10.650  0.5607  0.9188 -0.0791
   71MOL0     C 9669  11.252   0.408  10.726 -0.7546 -0.6504 -0.6201
   71MOL0     C 9670  11.400   0.400  10.692 -0.9925  0.2095  0.6235
   71MOL0     C 9671  11.427   0.431  10.546  0.1434  0.2141  0.4898
   71MOL0     C 9672  11.414   0.579  10.514 -0.7004 -0.9176 -0.2366
   71MOL0     C 9673  11.523   0.663  10.566 -0.1773 -0.5752  0.0519
   71MOL0     C 9674  11.503   0.815  10.525  0.0574  0.4417 -0.5664
   71MOL0     C 9675  11.587   0.905  10.625  0.0440 -0.5657 -0.1125
   71MOL0     C 9676  11.543   0.923  10.770  0.4069  0.7076  0.5425
   71MOL0     N 9677  11.629   1.010  10.849  0.3147  0.1269  0.3416
   71MOL0     C 9678  11.761   0.980  10.882  0.4014  0.1592 -0.2269
   71MOL0     C 9679  11.795   1.089  10.952  0.1384 -1.1314 -0.3036
   71MOL0     C 9680  11.934   1.126  11.006  0.6932  1.2420 -0.5397
   71MOL0     C 9681  12.012   1.231  10.926  0.4281 -0.4157  0.4717
   71MOL0     C 9682  12.022   1.207  10.777 -0.4089 -0.0048  0.4377
   71MOL0     C 9683  12.109   1.078  10.738 -0.1953 -0.4779 -1.0441
   71MOL0     O 9684  12.024   0.963  10.721 -0.3812 -0.2578 -0.8517
   71MOL0     C 9685  12.086   0.836  10.715  0.0427  0.3670 -0.8890
   71MOL0     C 9686  12.024   0.743  10.626 -0.4370 -0.4658  0.2071
   71MOL0     C 9687  12.086   0.614  10.603  0.0502  0.2945 -0.4773
   71MOL0     C 9688  12.021   0.507  10.513  0.5154 -0.7177  0.7724
   71MOL0     C 9689  12.186   0.566  10.686 -0.2264  0.2794  0.2385
   71MOL0     C 9690  12.234   0.424  10.679  0.0612  0.0626 -0.4660
   71MOL0     O 9691  12.187   0.344  10.783  0.2069  0.2530  0.5549
   71MOL0     C 9692  12.242   0.220  10.797 -0.6560 -1.0705  0.2657
   71MOL0     C 9693  12.169   0.103  10.776 -0.2175  0.1803  0.4995
   71MOL0     C 9694  12.228  -0.026  10.793 -0.1969  0.9702 -0.7581
   71MOL0     C 9695  12.354  -0.035  10.856  0.0334  0.2166  0.2061
   71MOL0     O 9696  12.410  -0.156  10.874 -0.3773 -0.2934  0.0740
   71MOL0     C 9697  12.535  -0.177  10.802 -0.2139  0.2617 -0.2697
   71MOL0     C 9698  12.611  -0.291  10.874  0.5793  0.5248  0.3437
   71MOL0     C 9699  12.741  -0.331  10.794 -0.5541  0.6336 -0.8763
   71MOL0     C 9700  12.866  -0.323  10.875 -0.1586 -0.4372 -0.4171
   71MOL0     C 9701  12.925  -0.180  10.891  1.5968  0.6100 -0.5808
   71MOL0     C 9702  13.038  -0.168  11.002 -0.5665  0.0560  0.3171
   71MOL0     C 9703  13.160  -0.248  10.981 -0.1369 -0.3212  0.7497
   71MOL0     C 9704  13.159  -0.375  11.057 -0.5565 -0.9579 -0.7265
   71MOL0    Cl 9705  13.324  -0.448  11.055 -0.4080 -0.1657 -0.1067
   71MOL0     C 9706  12.415   0.079  10.900  0.2814 -0.6654 -0.7562
   71MOL0     C 9707  12.372   0.207  10.858  0.3318  0.7013 -1.0818
   71MOL0     O 9708  12.308   0.390  10.593 -0.4599  0.1377  0.2513
   71MOL0     C 9709  12.234   0.657  10.782  0.1026  0.0675 -0.0656
   71MOL0     C 9710  12.189   0.787  10.789  0.2050 -0.0708 -0.4977
   71MOL0     N 9711  11.697   1.172  10.972  0.4120 -0.1136 -0.1934
   71MOL0     N 9712  11.593   1.125  10.910 -0.3183 -0.6168  0.2356
   71MOL0     C 9713  10.973   0.337  10.752  0.1726 -0.3333  0.0307
   71MOL0     C 9714  10.839   0.306  10.771  0.5069  0.6642  0.4642
   71MOL0     C 9715  10.416   0.140  10.692  0.2476  0.4822  0.7142
   71MOL0     C 9716  10.333   0.039  10.631 -0.3816 -0.4777  0.5138
   71MOL0     C 9717  10.203   0.030  10.672  0.1928 -0.4738  0.0942
   71MOL0     C 9718  10.147   0.114  10.774  0.4755 -0.5920 -0.6970
   71MOL0     O 9719  10.017   0.103  10.806  0.1938 -0.2805 -0.2808
   71MOL0     C 9720   9.948   0.208  10.877 -0.3529  0.5747 -0.1631
   71MOL0     C 9721   9.942   0.341  10.809 -0.4173 -0.2101  0.0934
   71MOL0     C 9722   9.851   0.326  10.685 -0.2310 -0.4277  0.5478
   71MOL0     C 9723   9.926   0.370  10.568  0.1431 -0.0926  0.7451
   71MOL0     C 9724   9.828   0.380  10.455  1.2861 -0.8291 -0.4421
   71MOL0     C 9725   9.745   0.389  10.372 -0.5891 -0.4279 -0.5356
   71MOL0     C 9726  10.231   0.194  10.851  0.2828 -0.2733  0.0408
   71MOL0     C 9727  10.368   0.206  10.808 -0.0457  0.1865 -0.7692
   71MOL0     C 9728  10.460   0.297  10.890  0.2502 -0.0326  0.3934
   71MOL0     H 9729  10.816   0.084  10.522  2.4666  1.0450 -3.2839
   71MOL0     H 9730  11.056   0.137  10.501  1.2410  3.9194 -2.0805
   71MOL0     H 9731  11.243   0.391  10.834  0.2654 -0.0697 -0.4287
   71MOL0     H 9732  11.212   0.508  10.711 -0.4791 -0.4976 -0.3474
   71MOL0     H 9733  11.458   0.473  10.749  1.3309 -0.0217 -1.3157
   71MOL0     H 9734  11.436   0.301  10.722 -0.1812  1.0697  2.7807
   71MOL0     H 9735  11.529   0.398  10.522 -0.6894 -0.5912 -2.2920
   71MOL0     H 9736  11.364   0.380  10.473 -0.0076  1.3693 -0.1975
   71MOL0     H 9737  11.391   0.590  10.407 -1.3888  0.9333  0.0791
   71MOL0     H 9738  11.322   0.616  10.560 -1.6499 -0.2280 -2.5524
   71MOL0     H 9739  11.618   0.628  10.523  0.1656  1.3762 -0.8991
   71MOL0     H 9740  11.526   0.647  10.674  0.1687  1.6964  0.4229
   71MOL0     H 9741  11.527   0.843  10.422 -1.2082  5.2381  0.2106
   71MOL0     H 9742  11.396   0.829  10.538  0.7360  5.0774  2.8911
   71MOL0     H 9743  11.581   1.006  10.581 -0.0924 -0.2467  0.6294
   71MOL0     H 9744  11.690   0.870  10.621  1.1212  2.3385 -3.3565
   71MOL0     H 9745  11.438   0.951  10.772 -0.3714 -1.7999 -0.7179
   71MOL0     H 9746  11.539   0.824  10.817 -2.1147  1.0516  1.1654
   71MOL0     H 9747  11.830   0.902  10.852  0.9884  0.2379  0.8926
   71MOL0     H 9748  11.989   1.033  11.022 -0.8036  0.7102  2.4036
   71MOL0     H 9749  11.913   1.180  11.099  1.5867  1.4719 -0.4632
   71MOL0     H 9750  11.957   1.324  10.943 -2.0369 -1.4627 -1.0933
   71MOL0     H 9751  12.114   1.253  10.958  0.2293  2.0373 -0.3924
   71MOL0     H 9752  11.921   1.197  10.735  0.9541 -0.8296 -2.9665
   71MOL0     H 9753  12.061   1.300  10.736  0.2554 -0.0934  0.8576
   71MOL0     H 9754  12.162   1.105  10.646 -0.1980  1.8008 -0.4255
   71MOL0     H 9755  12.173   1.059  10.824 -4.0702 -0.7755  2.0555
   71MOL0     H 9756  11.943   0.767  10.558 -1.6254 -4.1600  0.0795
   71MOL0     H 9757  11.988   0.419  10.569 -2.7805  0.1385  0.3625
   71MOL0     H 9758  12.085   0.471  10.431 -0.1092  0.8821 -0.4748
   71MOL0     H 9759  11.936   0.544  10.455  0.9723 -0.4647  0.2457
   71MOL0     H 9760  12.065   0.106  10.747  0.0428  0.7527 -0.4332
   71MOL0     H 9761  12.168  -0.112  10.765 -1.7639  1.4926  0.8324
   71MOL0     H 9762  12.511  -0.200  10.698  2.0414  0.6821 -0.9343
   71MOL0     H 9763  12.593  -0.084  10.802 -0.1356  0.2150  0.1972
   71MOL0     H 9764  12.631  -0.251  10.973 -1.1740 -0.2644  1.0542
   71MOL0     H 9765  12.556  -0.386  10.880  1.1026  0.0970 -1.0702
   71MOL0     H 9766  12.746  -0.271  10.703 -1.5608  0.0809 -1.3148
   71MOL0     H 9767  12.736  -0.437  10.766 -0.2523  0.9306 -2.1177
   71MOL0     H 9768  12.950  -0.369  10.822  1.1052  0.8362  0.4039
   71MOL0     H 9769  12.844  -0.362  10.974 -0.5787 -2.3721 -1.2344
   71MOL0     H 9770  12.967  -0.137  10.800 -0.4612 -0.5032 -2.1137
   71MOL0     H 9771  12.837  -0.122  10.921  0.6720 -1.7451  1.6653
   71MOL0     H 9772  13.006  -0.171  11.106 -1.2908  0.2572  0.1055
   71MOL0     H 9773  13.072  -0.064  10.993  0.5374 -0.2851  0.4275
   71MOL0     H 9774  13.245  -0.183  11.002 -1.0378 -0.0613  4.1114
   71MOL0     H 9775  13.166  -0.268  10.873 -1.1813 -2.4643  1.0411
   71MOL0     H 9776  13.082  -0.440  11.014  0.3645 -1.3604 -1.8334
   71MOL0     H 9777  13.129  -0.344  11.157 -1.4312  2.5067 -1.9320
   71MOL0     H 9778  12.522   0.071  10.921  0.3441 -0.0190 -0.8135
   71MOL0     H 9779  12.434   0.291  10.887  1.1654  0.2673 -1.5560
   71MOL0     H 9780  12.311   0.616  10.847 -1.1430 -1.6914  0.4119
   71MOL0     H 9781  12.232   0.845  10.870  1.8433 -1.8886  0.0016
   71MOL0     H 9782  11.018   0.403  10.825 -1.5284  2.0420 -0.9611
   71MOL0     H 9783  10.783   0.347  10.854 -1.0760  2.6629 -1.4357
   71MOL0     H 9784  10.379  -0.010  10.546 -0.1562 -2.7651  1.8580
   71MOL0     H 9785  10.132  -0.031  10.617 -0.7742  1.2139 -0.6103
   71MOL0     H 9786   9.847   0.171  10.899  0.1478 -0.0038  1.2433
   71MOL0     H 9787   9.993   0.225  10.975 -0.6870 -0.0751  0.1111
   71MOL0     H 9788  10.041   0.377  10.778 -0.5623 -0.3700 -0.5767
   71MOL0     H 9789   9.904   0.411  10.883  0.4975 -1.6750  2.0445
   71MOL0     H 9790   9.821   0.222  10.666  0.8688 -0.7290  0.3808
   71MOL0     H 9791   9.758   0.382  10.698  0.1374 -0.2246  2.5828
   71MOL0     H 9792  10.008   0.308  10.531  1.1127  2.7246 -2.4206
   71MOL0     H 9793   9.973   0.467  10.587  1.5307 -0.6420  0.2281
   71MOL0     H 9794   9.664   0.383  10.302  0.2936 -2.6856 -1.4795
   71MOL0     H 9795  10.196   0.248  10.938  2.0455  0.9275  0.0400
   71MOL0     H 9796  10.513   0.363  10.820 -0.3915  0.7896  0.6690
   71MOL0     H 9797  10.396   0.363  10.949 -2.4647 -1.2910 -0.9431
   71MOL0     H 9798  10.530   0.235  10.946 -0.9994 -1.3982  0.4984
   72MOL0     O 9799   3.542   6.652   3.637  0.1118 -0.2596 -0.5880
   72MOL0     C 9800   3.514   6.753   3.694  0.1912 -0.8511  0.9451
   72MOL0     O 9801   3.403   6.781   3.771 -0.1620 -0.9332 -0.2295
   72MOL0     C 9802   3.316   6.681   3.798 -0.2572  0.4096  0.4928
   72MOL0     C 9803   3.202   6.658   3.715 -0.6277  0.1436 -0.1832
   72MOL0     C 9804   3.117   6.549   3.751 -0.9195  0.7703 -0.2431
   72MOL0     C 9805   3.145   6.454   3.846  0.7209  0.9675  0.3398
   72MOL0     O 9806   3.060   6.353   3.884  0.8188  0.1598 -0.2176
   72MOL0     C 9807   2.943   6.318   3.808  0.9175  0.0209 -0.6926
   72MOL0     C 9808   2.871   6.205   3.881  0.2553  0.3253 -1.5487
   72MOL0     C 9809   2.753   6.155   3.800 -0.4928  0.9347 -0.5434
   72MOL0     C 9810   2.688   6.029   3.861 -0.7878  0.9018 -0.5120
   72MOL0     C 9811   2.568   5.997   3.773  0.4953 -0.0461  0.2719
   72MOL0     C 9812   2.456   5.899   3.826  0.1434 -0.1685 -0.3369
   72MOL0     C 9813   2.356   5.956   3.932 -0.1847 -0.1926  0.4009
   72MOL0     C 9814   2.238   5.872   3.964  0.0568 -1.2546 -0.6561
   72MOL0     N 9815   2.145   5.962   4.043  0.0753  0.6921 -0.1518
   72MOL0     C 9816   2.176   6.071   4.123 -0.1682  0.1352  0.9171
   72MOL0     C 9817   2.059   6.110   4.179 -0.3952  0.5258 -0.8278
   72MOL0     C 9818   2.042   6.229   4.272  0.5114  0.0323  0.7645
   72MOL0     C 9819   2.120   6.202   4.397 -0.0275 -0.0963 -0.5801
   72MOL0     C 9820   2.274   6.207   4.384 -0.4371 -0.3884  0.3748
   72MOL0     C 9821   2.352   6.217   4.518 -0.0014  1.3260  1.0847
   72MOL0     O 9822   2.306   6.319   4.599 -0.3479  0.2753  0.1747
   72MOL0     C 9823   2.377   6.347   4.717 -0.1761 -0.5138  0.0317
   72MOL0     C 9824   2.314   6.404   4.822  0.1331  0.3815 -0.0238
   72MOL0     C 9825   2.368   6.436   4.948 -0.2511 -0.3212  0.0415
   72MOL0     C 9826   2.274   6.507   5.046  0.2878 -0.3584  0.6690
   72MOL0     C 9827   2.512   6.422   4.951  0.5664 -0.0087 -0.0963
   72MOL0     C 9828   2.586   6.456   5.075  0.1141  0.2323  0.9461
   72MOL0     O 9829   2.706   6.395   5.092  0.0153  0.3996  0.1852
   72MOL0     C 9830   2.797   6.437   5.180 -0.8063  0.1595  0.0040
   72MOL0     C 9831   2.879   6.334   5.234  0.0691  0.8808 -0.3867
   72MOL0     C 9832   3.002   6.353   5.303 -0.7494  0.0958  0.1709
   72MOL0     C 9833   3.051   6.488   5.312 -0.2813 -0.0659 -0.3567
   72MOL0     O 9834   3.166   6.530   5.380  0.1068 -0.9936 -0.5469
   72MOL0     C 9835   3.233   6.432   5.464  0.5083  0.4271 -1.3890
   72MOL0     C 9836   3.343   6.343   5.394 -0.1114 -0.6609  0.2015
   72MOL0     C 9837   3.411   6.424   5.274  0.4009  0.3580  0.3976
   72MOL0     C 9838   3.557   6.370   5.257 -0.8124  0.7513  0.1789
   72MOL0     C 9839   3.626   6.436   5.140  0.0924  0.0525  0.2154
   72MOL0     C 9840   3.594   6.379   4.995 -0.0098  0.4008 -0.1041
   72MOL0     C 9841   3.676   6.442   4.881 -0.2460  0.1094 -0.9528
   72MOL0     C 9842   3.657   6.592   4.862 -0.1666 -0.3926  0.3329
   72MOL0    Cl 9843   3.750   6.690   4.964 -0.3783 -0.1030  0.0237
   72MOL0     C 9844   2.975   6.596   5.251  0.7619 -0.8426  0.2618
   72MOL0     C 9845   2.847   6.568   5.191 -0.2380 -0.2620  0.1051
   72MOL0     O 9846   2.544   6.553   5.140  0.7411  0.1405  0.3459
   72MOL0     C 9847   2.585   6.355   4.843 -0.2417 -0.0029 -0.3087
   72MOL0     C 9848   2.519   6.327   4.727  0.1446  0.2091  0.2117
   72MOL0     N 9849   1.969   6.004   4.159 -0.4441  0.0394  0.3239
   72MOL0     N 9850   2.019   5.924   4.072 -0.5858  0.0192 -0.9536
   72MOL0     C 9851   3.274   6.467   3.922  0.3925 -0.0262 -0.0843
   72MOL0     C 9852   3.345   6.589   3.899 -0.9664 -0.4847  0.3509
   72MOL0     C 9853   3.601   6.872   3.679 -0.1249 -0.2444  0.6609
   72MOL0     C 9854   3.648   6.931   3.803 -0.0790 -0.2069  0.5715
   72MOL0     C 9855   3.748   7.034   3.804  0.4694  0.1683  0.9802
   72MOL0     C 9856   3.792   7.084   3.680  0.2378 -0.3398 -0.0611
   72MOL0     O 9857   3.883   7.191   3.664  1.2985 -0.0541  0.4547
   72MOL0     C 9858   4.018   7.168   3.708 -0.5297  0.0309  0.2121
   72MOL0     C 9859   4.094   7.298   3.745  0.4976 -0.0061  0.3699
   72MOL0     C 9860   4.065   7.410   3.647 -0.2944 -0.6346 -0.0808
   72MOL0     C 9861   4.161   7.536   3.658 -0.1792 -0.0092 -0.4952
   72MOL0     C 9862   4.125   7.610   3.782  1.0810  0.5433 -0.4187
   72MOL0     C 9863   4.092   7.663   3.887  0.2060  0.7079  0.1733
   72MOL0     C 9864   3.734   7.037   3.561  0.3386  0.0770  0.0969
   72MOL0     C 9865   3.646   6.927   3.555  1.1674  0.7017  0.4128
   72MOL0     C 9866   3.603   6.868   3.427 -0.5445 -0.2715 -0.3141
   72MOL0     H 9867   3.175   6.724   3.633 -0.8343 -0.1719 -0.3721
   72MOL0     H 9868   3.035   6.534   3.681 -2.8792  4.1564  1.1075
   72MOL0     H 9869   2.975   6.303   3.704  3.7239  0.1354  0.0689
   72MOL0     H 9870   2.872   6.402   3.805  0.7028  0.1080  2.9491
   72MOL0     H 9871   2.943   6.122   3.882 -0.0405 -0.0040  1.6396
   72MOL0     H 9872   2.847   6.229   3.985  2.2074  0.2991 -1.0515
   72MOL0     H 9873   2.681   6.237   3.795  0.4267  1.7628 -0.5778
   72MOL0     H 9874   2.783   6.129   3.698 -0.5147 -3.4902  0.3621
   72MOL0     H 9875   2.748   5.938   3.873 -2.0014  0.0055 -1.0376
   72MOL0     H 9876   2.650   6.047   3.962  1.6998 -0.0259  0.6868
   72MOL0     H 9877   2.618   5.948   3.688  0.3121 -1.9276  1.2001
   72MOL0     H 9878   2.524   6.084   3.723  1.9647 -0.6204 -2.2225
   72MOL0     H 9879   2.394   5.875   3.739  0.3301 -2.4117  0.1125
   72MOL0     H 9880   2.510   5.809   3.856  0.5886 -0.2384 -1.3054
   72MOL0     H 9881   2.322   6.055   3.897  1.0494  0.5931  1.3423
   72MOL0     H 9882   2.416   5.970   4.022  1.3436  0.4493 -0.6635
   72MOL0     H 9883   2.191   5.851   3.868  3.5239  0.5868 -3.0000
   72MOL0     H 9884   2.271   5.784   4.020  0.7327 -0.0509  0.9424
   72MOL0     H 9885   2.276   6.113   4.128  0.7848 -1.7580 -0.8014
   72MOL0     H 9886   1.938   6.236   4.304 -0.0291  0.5420 -0.9622
   72MOL0     H 9887   2.077   6.324   4.231  2.0366 -0.0671  1.7739
   72MOL0     H 9888   2.097   6.283   4.467 -0.3776 -0.7625  0.0913
   72MOL0     H 9889   2.090   6.108   4.446 -0.7365  1.3304  1.8841
   72MOL0     H 9890   2.319   6.117   4.339 -1.5357 -0.2160 -1.1235
   72MOL0     H 9891   2.297   6.296   4.325 -0.8054 -0.9712 -0.6701
   72MOL0     H 9892   2.348   6.125   4.578 -2.4973  0.8170  0.2782
   72MOL0     H 9893   2.457   6.232   4.492 -0.1200  0.7307  0.2404
   72MOL0     H 9894   2.208   6.411   4.799  0.0230 -3.1077 -1.0568
   72MOL0     H 9895   2.298   6.613   5.060  1.3302 -0.2545 -1.5044
   72MOL0     H 9896   2.267   6.454   5.141  0.7654  1.3304  1.6990
   72MOL0     H 9897   2.173   6.518   5.006  0.3363  0.3780  0.7351
   72MOL0     H 9898   2.841   6.233   5.227  0.5973  0.4664  2.0156
   72MOL0     H 9899   3.056   6.271   5.349  2.5435  2.5608  1.0307
   72MOL0     H 9900   3.290   6.495   5.533  0.2750  1.0871 -1.7996
   72MOL0     H 9901   3.162   6.376   5.526 -0.8614  1.8625 -1.6142
   72MOL0     H 9902   3.404   6.276   5.455 -0.2238 -3.1243 -2.2049
   72MOL0     H 9903   3.289   6.266   5.338 -3.1755 -0.7071  2.8813
   72MOL0     H 9904   3.414   6.530   5.303 -3.2803  0.6981  0.0001
   72MOL0     H 9905   3.348   6.409   5.186  0.7282 -3.3150  0.6406
   72MOL0     H 9906   3.551   6.261   5.250 -1.2610  0.8646 -1.4298
   72MOL0     H 9907   3.611   6.404   5.346  1.8166 -0.7848 -0.7135
   72MOL0     H 9908   3.580   6.535   5.133 -1.0102 -0.4169 -7.1890
   72MOL0     H 9909   3.734   6.446   5.149  0.2595 -2.4704  2.0567
   72MOL0     H 9910   3.494   6.416   4.969 -0.4062 -0.2171  0.5160
   72MOL0     H 9911   3.600   6.271   5.006  0.0571  0.1882 -1.9013
   72MOL0     H 9912   3.655   6.389   4.787  1.2124 -1.2795 -0.5315
   72MOL0     H 9913   3.783   6.431   4.901 -0.6508 -1.4670  0.5611
   72MOL0     H 9914   3.551   6.617   4.869  0.3193  1.3833  2.2485
   72MOL0     H 9915   3.689   6.627   4.763 -4.2624  3.3955  0.0321
   72MOL0     H 9916   3.006   6.698   5.268  1.4375 -1.3984  2.7521
   72MOL0     H 9917   2.792   6.645   5.138  1.3877  0.3952 -0.6832
   72MOL0     H 9918   2.688   6.324   4.852 -0.4581 -0.2483  2.0989
   72MOL0     H 9919   2.579   6.283   4.648 -1.5389 -0.5438 -0.6936
   72MOL0     H 9920   3.305   6.391   3.993 -0.3856 -1.3720 -1.1337
   72MOL0     H 9921   3.431   6.611   3.962 -0.7566  0.1617 -0.1483
   72MOL0     H 9922   3.617   6.878   3.893 -0.1148 -2.3213 -0.6136
   72MOL0     H 9923   3.792   7.078   3.893  0.1828  2.0780  0.2126
   72MOL0     H 9924   4.015   7.108   3.799  0.9516 -0.7898 -0.2507
   72MOL0     H 9925   4.067   7.099   3.639 -2.5409 -0.4510 -0.8015
   72MOL0     H 9926   4.200   7.280   3.724  0.1476  0.1494 -1.8566
   72MOL0     H 9927   4.075   7.335   3.846  0.6031  2.2689 -0.3731
   72MOL0     H 9928   4.090   7.360   3.554 -1.0975 -1.3355  0.0611
   72MOL0     H 9929   3.958   7.436   3.650 -0.2944 -0.7044  0.9741
   72MOL0     H 9930   4.156   7.592   3.564  2.7164  0.4361 -0.4601
   72MOL0     H 9931   4.262   7.496   3.668 -0.5311 -0.3456  2.8884
   72MOL0     H 9932   4.052   7.726   3.964 -0.8905  0.1777  0.0657
   72MOL0     H 9933   3.769   7.071   3.464 -0.4592 -1.0084 -0.5985
   72MOL0     H 9934   3.631   6.762   3.431  0.9482  0.0000 -1.9551
   72MOL0     H 9935   3.494   6.876   3.425 -0.6776 -1.8163 -0.4556
   72MOL0     H 9936   3.664   6.916   3.350  0.9422  0.2345  1.1421
   73MOL0     O 9937  10.665   4.970   9.788 -0.6709 -0.7601 -0.5194
   73MOL0     C 9938  10.683   4.869   9.856 -0.0934 -0.7587 -0.6161
   73MOL0     O 9939  10.742   4.751   9.818 -0.2423  0.3552 -0.0825
   73MOL0     C 9940  10.795   4.737   9.694 -0.2494 -0.3482  0.1098
   73MOL0     C 9941  10.876   4.835   9.633 -0.3860 -0.1971 -0.2179
   73MOL0     C 9942  10.940   4.804   9.510 -0.0906  0.1295  0.1231
   73MOL0     C 9943  10.932   4.675   9.447 -0.3482 -0.2057  0.1801
   73MOL0     O 9944  10.989   4.631   9.333 -0.0770  0.2903 -0.3505
   73MOL0     C 9945  11.066   4.719   9.250 -0.0237 -0.1356  0.0601
   73MOL0     C 9946  11.097   4.637   9.125  0.3052 -0.1150  0.9091
   73MOL0     C 9947  10.981   4.579   9.057 -0.0969 -0.3034  0.8675
   73MOL0     C 9948  10.893   4.689   8.992  0.3190 -0.3000 -0.4397
   73MOL0     C 9949  10.793   4.641   8.887 -0.3050 -0.9548  0.1539
   73MOL0     C 9950  10.709   4.758   8.838 -0.3068  0.0010 -0.2571
   73MOL0     C 9951  10.774   4.865   8.741 -0.0380 -0.5124 -0.1805
   73MOL0     C 9952  10.895   4.823   8.653 -0.6151 -0.1159  0.5094
   73MOL0     N 9953  10.970   4.945   8.605  0.3095  0.5275 -0.3356
   73MOL0     C 9954  11.065   5.004   8.678  0.0742 -0.0599  0.2862
   73MOL0     C 9955  11.111   5.102   8.599 -0.3734 -0.2957 -0.3556
   73MOL0     C 9956  11.231   5.190   8.617  0.5260  0.2436  0.0201
   73MOL0     C 9957  11.181   5.323   8.685  0.1170 -0.2949 -0.0194
   73MOL0     C 9958  11.281   5.438   8.704 -0.3538 -0.3135  0.7782
   73MOL0     C 9959  11.224   5.566   8.769  1.2600 -0.1659  0.3389
   73MOL0     O 9960  11.110   5.541   8.851 -0.1963 -0.1104 -0.3295
   73MOL0     C 9961  11.063   5.638   8.941  0.5263 -0.4912  0.4292
   73MOL0     C 9962  10.979   5.603   9.044 -0.6178  0.1553 -0.9281
   73MOL0     C 9963  10.932   5.697   9.139 -0.7559  0.1928 -0.4884
   73MOL0     C 9964  10.845   5.662   9.255 -0.2880 -0.3416 -0.1815
   73MOL0     C 9965  10.967   5.832   9.123  0.2014 -0.7840 -0.3675
   73MOL0     C 9966  10.918   5.954   9.199 -0.3547 -0.2746 -0.9745
   73MOL0     O 9967  10.795   5.934   9.257  0.8076 -0.7518 -0.1573
   73MOL0     C 9968  10.769   5.954   9.391  0.2502  0.4474  0.8633
   73MOL0     C 9969  10.863   5.967   9.493  0.2672  0.7857  0.6479
   73MOL0     C 9970  10.820   5.980   9.625  0.2023  0.1388 -0.1839
   73MOL0     C 9971  10.688   5.964   9.662  0.4379 -0.3050  0.1727
   73MOL0     O 9972  10.666   5.967   9.795 -0.2529 -0.0084 -0.0499
   73MOL0     C 9973  10.531   5.957   9.833  0.2708  0.5882 -0.3053
   73MOL0     C 9974  10.523   5.984   9.990  0.2800  0.1265  0.4452
   73MOL0     C 9975  10.632   5.901  10.061 -0.2069 -0.2487 -0.6481
   73MOL0     C 9976  10.640   5.957  10.208  0.1317  0.2016 -0.2817
   73MOL0     C 9977  10.754   5.896  10.291  0.2069  0.4021 -0.1505
   73MOL0     C 9978  10.888   5.929  10.235 -1.1733 -0.6632 -0.0764
   73MOL0     C 9979  11.000   5.874  10.321  0.5749  0.2435 -0.1059
   73MOL0     C 9980  11.134   5.939  10.296 -0.0500  0.4490  0.1213
   73MOL0    Cl 9981  11.176   5.906  10.131 -0.4202 -0.1010 -0.1477
   73MOL0     C 9982  10.594   5.960   9.560  0.2118 -0.4985 -0.8285
   73MOL0     C 9983  10.636   5.949   9.431 -0.2505 -0.6858  0.5621
   73MOL0     O 9984  10.978   6.060   9.198 -0.2059 -0.2267  0.2701
   73MOL0     C 9985  11.055   5.867   9.017 -1.1218 -0.8355  0.4103
   73MOL0     C 9986  11.101   5.768   8.927  0.3797 -0.6448 -0.1721
   73MOL0     N 9987  11.032   5.109   8.490  0.2637 -0.2751 -0.5376
   73MOL0     N 9988  10.945   5.016   8.492  0.6915  0.2626  0.8401
   73MOL0     C 9989  10.837   4.597   9.499  0.7395  1.0750 -0.7894
   73MOL0     C 9990  10.771   4.620   9.621  0.3493 -0.4068  0.3614
   73MOL0     C 9991  10.641   4.874   9.990  0.0158  0.1011 -0.2598
   73MOL0     C 9992  10.637   4.748  10.058 -0.5143 -0.4125  0.5682
   73MOL0     C 9993  10.608   4.752  10.192 -0.5914 -0.2530 -1.4848
   73MOL0     C 9994  10.576   4.866  10.263 -0.2881 -0.1563 -0.0007
   73MOL0     O 9995  10.546   4.847  10.391  0.4753 -0.9473  0.4859
   73MOL0     C 9996  10.668   4.819  10.462 -1.3121  0.3561  0.4089
   73MOL0     C 9997  10.636   4.821  10.606 -0.3131  0.2862  0.0165
   73MOL0     C 9998  10.612   4.954  10.676 -0.4772  0.2523 -0.3010
   73MOL0     C 9999  10.489   5.037  10.625  0.5267 -0.2573  0.5256
   73MOL0     C10000  10.480   5.157  10.712  0.1797 -1.0487  0.9896
   73MOL0     C10001  10.459   5.262  10.770 -0.0866 -0.1033 -0.3297
   73MOL0     C10002  10.596   4.989  10.202  0.1588 -0.4393 -0.2759
   73MOL0     C10003  10.626   4.995  10.069  0.6793  0.5352 -1.0344
   73MOL0     C10004  10.677   5.129  10.018  0.9857 -0.6030  0.6055
   73MOL0     H10005  10.882   4.934   9.677 -0.5075  1.2170 -3.1402
   73MOL0     H10006  11.017   4.874   9.476 -0.0066  0.6807  1.3813
   73MOL0     H10007  11.162   4.740   9.296  0.6769 -1.4500 -0.7509
   73MOL0     H10008  11.018   4.815   9.226  0.7258  1.1750  3.3548
   73MOL0     H10009  11.155   4.699   9.056  0.0619 -1.3731 -0.4774
   73MOL0     H10010  11.159   4.551   9.154  3.2633  2.1925  1.9504
   73MOL0     H10011  11.002   4.510   8.975 -2.8773 -2.4342  1.7889
   73MOL0     H10012  10.914   4.523   9.124 -4.2685  2.1634 -0.8281
   73MOL0     H10013  10.845   4.751   9.069  1.0130  0.2881 -0.4752
   73MOL0     H10014  10.958   4.747   8.926  0.6674 -1.6491 -1.3301
   73MOL0     H10015  10.726   4.576   8.945 -3.5769  0.7899 -1.4182
   73MOL0     H10016  10.841   4.590   8.803 -1.5402 -1.9011 -0.0107
   73MOL0     H10017  10.622   4.714   8.789 -2.1765 -0.8902  3.4542
   73MOL0     H10018  10.671   4.807   8.928  0.5202 -0.0301  0.1103
   73MOL0     H10019  10.816   4.939   8.809  2.6461 -2.4989  0.4637
   73MOL0     H10020  10.696   4.917   8.684 -1.4915  0.2957  2.3823
   73MOL0     H10021  10.968   4.766   8.710  1.9432 -0.8790 -3.1689
   73MOL0     H10022  10.863   4.758   8.571 -0.7969  0.9791 -0.3170
   73MOL0     H10023  11.103   4.977   8.776  0.3271  0.7131  0.4070
   73MOL0     H10024  11.262   5.219   8.516  2.0444  0.7764  0.6165
   73MOL0     H10025  11.316   5.142   8.666  0.0749  1.4165  2.0468
   73MOL0     H10026  11.103   5.369   8.624  1.2293  3.6011  1.1733
   73MOL0     H10027  11.139   5.293   8.781 -0.8873  0.6672 -0.1371
   73MOL0     H10028  11.382   5.420   8.743  0.8187  1.5816 -1.1471
   73MOL0     H10029  11.307   5.466   8.601  1.2017  0.6568  1.3878
   73MOL0     H10030  11.302   5.617   8.826 -0.7310  1.0761  2.1053
   73MOL0     H10031  11.175   5.630   8.695 -1.2437  0.3973  2.3473
   73MOL0     H10032  10.967   5.496   9.042  2.7325 -0.3381  0.3977
   73MOL0     H10033  10.747   5.707   9.240  0.2905  1.2209  0.4598
   73MOL0     H10034  10.896   5.702   9.343  4.1561  1.7982 -3.3007
   73MOL0     H10035  10.845   5.555   9.277  1.7844 -0.5783 -1.0337
   73MOL0     H10036  10.969   5.970   9.470  0.2908  0.7346  0.7500
   73MOL0     H10037  10.891   5.985   9.707 -0.3975  2.3014  0.2818
   73MOL0     H10038  10.475   6.035   9.782  2.0527  0.6575 -2.3374
   73MOL0     H10039  10.490   5.856   9.820  1.3425 -0.3879  2.8810
   73MOL0     H10040  10.545   6.089  10.015  2.0204 -0.1103  0.0390
   73MOL0     H10041  10.424   5.960  10.030  0.5646  0.6282  1.4847
   73MOL0     H10042  10.731   5.911  10.016 -1.0082  0.5635 -2.3353
   73MOL0     H10043  10.603   5.796  10.063  0.4266 -0.5414 -3.0950
   73MOL0     H10044  10.551   5.940  10.270 -0.1187 -2.0858 -1.1826
   73MOL0     H10045  10.651   6.066  10.201  1.7013  0.3031  2.3069
   73MOL0     H10046  10.744   5.932  10.394  4.2992  1.1273  0.1641
   73MOL0     H10047  10.752   5.788  10.304 -1.8984  0.6696  2.6919
   73MOL0     H10048  10.892   6.038  10.229 -0.8447 -0.7100 -0.7236
   73MOL0     H10049  10.898   5.889  10.134  2.2680  2.2325 -1.0625
   73MOL0     H10050  11.016   5.770  10.291  0.2078  0.8515 -2.5985
   73MOL0     H10051  10.978   5.885  10.427 -0.0647 -3.6174  0.3217
   73MOL0     H10052  11.203   5.899  10.371 -1.1759 -0.3830  0.7492
   73MOL0     H10053  11.127   6.048  10.307  1.5216  0.7217 -1.2602
   73MOL0     H10054  10.488   5.966   9.585  0.1833 -3.7776  0.2999
   73MOL0     H10055  10.556   5.939   9.359  0.8843  0.7041 -0.9495
   73MOL0     H10056  11.078   5.970   8.994  0.8478 -1.1371  0.8479
   73MOL0     H10057  11.159   5.802   8.842 -1.8733  0.4791 -1.3489
   73MOL0     H10058  10.801   4.505   9.454 -1.3384  3.1302 -3.7329
   73MOL0     H10059  10.696   4.553   9.661 -2.4865  2.7127  0.6718
   73MOL0     H10060  10.661   4.654  10.011  1.2666  1.3985 -2.4601
   73MOL0     H10061  10.598   4.662  10.253  0.0239 -0.3684 -1.5524
   73MOL0     H10062  10.709   4.719  10.443 -0.0312  0.9644 -0.1440
   73MOL0     H10063  10.745   4.893  10.441  0.6091 -1.7701 -0.5011
   73MOL0     H10064  10.715   4.773  10.663  1.8599  2.7398 -0.7700
   73MOL0     H10065  10.546   4.759  10.613 -0.0086 -0.0963  0.5280
   73MOL0     H10066  10.595   4.914  10.776 -1.4334 -2.1939 -1.3713
   73MOL0     H10067  10.697   5.023  10.668  0.0722 -0.5957 -2.3832
   73MOL0     H10068  10.404   4.971  10.643  0.0809 -0.1146 -0.9568
   73MOL0     H10069  10.495   5.064  10.519  0.3437  1.1444  0.8618
   73MOL0     H10070  10.443   5.347  10.832  1.5009 -0.8357  1.1484
   73MOL0     H10071  10.579   5.081  10.258  1.3833  1.6870 -3.1232
   73MOL0     H10072  10.602   5.186   9.962 -0.4808 -0.4470  2.5847
   73MOL0     H10073  10.688   5.195  10.105  0.6945  1.1589 -0.6308
   73MOL0     H10074  10.773   5.114   9.968  1.2621  0.0615  0.9108
   74MOL0     O10075   4.720  11.370   5.160  0.4504 -0.0981  0.5171
   74MOL0     C10076   4.623  11.375   5.083  0.3907  0.4030  0.4926
   74MOL0     O10077   4.613  11.315   4.962 -0.0966 -0.5739  0.5851
   74MOL0     C10078   4.680  11.193   4.940  0.8765 -0.4439  0.4579
   74MOL0     C10079   4.604  11.092   4.880 -0.0512  0.1349 -0.8176
   74MOL0     C10080   4.665  10.973   4.843  0.2645 -0.5956  0.6091
   74MOL0     C10081   4.800  10.957   4.864 -0.3289  0.1580 -0.2261
   74MOL0     O10082   4.873  10.844   4.816 -0.5189  0.3717 -0.5604
   74MOL0     C10083   4.869  10.813   4.673  0.1805 -0.2177  0.3262
   74MOL0     C10084   4.954  10.697   4.621 -0.1840  0.4120 -0.3547
   74MOL0     C10085   5.099  10.721   4.610 -0.6519 -0.3430  0.0748
   74MOL0     C10086   5.146  10.866   4.590 -0.0246  0.4591  0.6752
   74MOL0     C10087   5.297  10.861   4.594  0.2632  0.3881  0.0462
   74MOL0     C10088   5.356  11.006   4.609 -0.6143 -0.0610 -0.0540
   74MOL0     C10089   5.507  10.993   4.630  0.4751 -0.4106 -0.8201
   74MOL0     C10090   5.574  10.964   4.502 -0.5991 -1.1260  0.6156
   74MOL0     N10091   5.714  10.961   4.514  0.0852  0.7864  0.5372
   74MOL0     C10092   5.798  11.059   4.482 -0.3961 -0.0603  0.2934
   74MOL0     C10093   5.916  11.004   4.491 -0.0709  0.0549  0.1726
   74MOL0     C10094   6.043  11.083   4.487  0.0974  0.5258  0.7640
   74MOL0     C10095   6.090  11.138   4.625  0.8160  0.2035 -0.2016
   74MOL0     C10096   6.238  11.180   4.634 -0.0881 -0.2921  0.3592
   74MOL0     C10097   6.277  11.298   4.541  0.3845  0.1749 -0.1750
   74MOL0     O10098   6.386  11.259   4.449 -0.2400 -0.0647 -0.4841
   74MOL0     C10099   6.510  11.309   4.463  1.0010  0.6599  0.1217
   74MOL0     C10100   6.592  11.303   4.350  0.0955 -0.9519  0.2009
   74MOL0     C10101   6.724  11.340   4.355 -0.1213 -0.2903 -0.2766
   74MOL0     C10102   6.800  11.316   4.225 -0.2577  0.2415  0.4092
   74MOL0     C10103   6.777  11.384   4.477  0.6616  0.2199 -0.6717
   74MOL0     C10104   6.922  11.421   4.490  1.1848  0.0253 -0.0963
   74MOL0     O10105   6.988  11.367   4.590 -0.4321  0.3683  0.2907
   74MOL0     C10106   7.111  11.419   4.628 -0.5165  0.1387 -0.0507
   74MOL0     C10107   7.213  11.327   4.669 -0.0062 -0.4032  0.1378
   74MOL0     C10108   7.336  11.393   4.710  0.6554  0.2872  0.4956
   74MOL0     C10109   7.349  11.535   4.719 -0.0064 -0.0767  0.8154
   74MOL0     O10110   7.463  11.594   4.767 -0.6249 -0.6090  0.5031
   74MOL0     C10111   7.571  11.583   4.678  0.0901  0.3987 -0.0041
   74MOL0     C10112   7.689  11.679   4.697  0.9458  0.1735  0.0673
   74MOL0     C10113   7.803  11.656   4.599  0.0772 -0.2630  0.2025
   74MOL0     C10114   7.919  11.760   4.624 -0.3539 -0.6259 -0.5645
   74MOL0     C10115   8.048  11.727   4.548  0.0511 -0.0575 -0.1944
   74MOL0     C10116   8.162  11.818   4.587 -0.3266  0.1525  0.1595
   74MOL0     C10117   8.215  11.797   4.733 -0.2576  0.2293  0.3065
   74MOL0     C10118   8.365  11.794   4.749 -0.2079 -0.9767  0.1492
   74MOL0    Cl10119   8.436  11.669   4.644  0.0479 -0.4475 -0.1662
   74MOL0     C10120   7.247  11.616   4.674 -0.3086  0.2312 -0.2147
   74MOL0     C10121   7.126  11.560   4.644  1.3587  0.5565 -0.1337
   74MOL0     O10122   6.961  11.515   4.418  0.0572  0.4056  0.0674
   74MOL0     C10123   6.691  11.394   4.592  0.4250 -0.6246 -0.3415
   74MOL0     C10124   6.558  11.358   4.586  0.7093 -0.2048  0.2923
   74MOL0     N10125   5.904  10.866   4.511 -1.0595 -0.1606 -0.4826
   74MOL0     N10126   5.781  10.845   4.531 -0.3264 -1.1083  0.1909
   74MOL0     C10127   4.877  11.056   4.922  0.2473 -0.9982 -0.6821
   74MOL0     C10128   4.816  11.178   4.955 -0.5794  0.6070  0.0741
   74MOL0     C10129   4.494  11.442   5.122 -0.1751 -0.0960  0.5759
   74MOL0     C10130   4.369  11.373   5.099  1.0746 -0.4909  0.4600
   74MOL0     C10131   4.248  11.432   5.141  0.1889 -0.6078  0.3136
   74MOL0     C10132   4.250  11.558   5.200 -0.0832 -0.2420 -0.3440
   74MOL0     O10133   4.133  11.620   5.228 -0.1543 -0.2224  0.3228
   74MOL0     C10134   4.063  11.571   5.338  1.1944  0.3711 -0.7480
   74MOL0     C10135   3.931  11.656   5.342  0.3362 -0.2806 -0.0715
   74MOL0     C10136   3.829  11.591   5.427  0.1401 -0.1890 -0.6721
   74MOL0     C10137   3.702  11.670   5.460  0.7392 -0.1621 -0.2668
   74MOL0     C10138   3.588  11.580   5.498 -0.5626  0.0303 -0.0957
   74MOL0     C10139   3.480  11.513   5.511  0.0371  0.3009 -0.6299
   74MOL0     C10140   4.373  11.633   5.206  0.4234  0.5331 -0.4334
   74MOL0     C10141   4.491  11.570   5.180  0.0995  0.5360  0.2301
   74MOL0     C10142   4.618  11.646   5.191  0.3073 -0.4130  0.1416
   74MOL0     H10143   4.496  11.098   4.868 -0.3409 -0.5422  1.1383
   74MOL0     H10144   4.613  10.888   4.800  2.6071 -1.0566 -1.5740
   74MOL0     H10145   4.898  10.905   4.623  3.5010 -0.7525  1.0621
   74MOL0     H10146   4.765  10.782   4.657  0.5551 -0.7861 -1.2469
   74MOL0     H10147   4.928  10.614   4.687  0.3536  0.0854 -0.5473
   74MOL0     H10148   4.913  10.678   4.522  3.3325 -0.8779 -1.7370
   74MOL0     H10149   5.154  10.683   4.697  1.7139 -0.3845 -1.3505
   74MOL0     H10150   5.129  10.655   4.528  0.0604 -1.1241  0.9295
   74MOL0     H10151   5.100  10.913   4.502  0.4385  2.1438  1.2828
   74MOL0     H10152   5.112  10.922   4.678  0.1536 -1.8984  2.3436
   74MOL0     H10153   5.335  10.823   4.499  0.5984  0.9414 -0.0443
   74MOL0     H10154   5.335  10.800   4.676 -0.6256  1.5664  1.3740
   74MOL0     H10155   5.336  11.059   4.515  0.8168 -2.7445 -1.9998
   74MOL0     H10156   5.316  11.065   4.693  0.4371 -1.5876  1.5957
   74MOL0     H10157   5.520  10.919   4.709 -2.9307  2.2568  2.6003
   74MOL0     H10158   5.548  11.089   4.665 -0.7205  1.8157 -4.8363
   74MOL0     H10159   5.533  10.876   4.453  0.3733 -0.8411 -0.7984
   74MOL0     H10160   5.554  11.058   4.449  2.4141  1.3064  3.3302
   74MOL0     H10161   5.761  11.160   4.470 -1.2201 -0.2792  0.8828
   74MOL0     H10162   6.033  11.164   4.413 -0.0487 -0.9816 -0.9275
   74MOL0     H10163   6.126  11.024   4.448 -0.6095 -0.9744  1.4627
   74MOL0     H10164   6.018  11.213   4.656  0.1867  0.7140 -2.7281
   74MOL0     H10165   6.082  11.048   4.687 -2.2680 -1.6723 -3.0024
   74MOL0     H10166   6.256  11.192   4.741  0.5323 -0.7469  0.3128
   74MOL0     H10167   6.311  11.106   4.599 -2.7146 -2.9772  0.1973
   74MOL0     H10168   6.185  11.302   4.482 -0.5704 -2.3705  1.0445
   74MOL0     H10169   6.286  11.384   4.608  0.2690  1.0643 -1.2571
   74MOL0     H10170   6.554  11.258   4.259  1.8375 -0.4759 -0.8192
   74MOL0     H10171   6.726  11.308   4.145 -0.8568 -3.6259  1.1889
   74MOL0     H10172   6.863  11.227   4.223 -0.3182  0.2038  0.0939
   74MOL0     H10173   6.863  11.403   4.200 -0.9430  0.6756  0.1491
   74MOL0     H10174   7.207  11.220   4.652  2.9320 -0.6615  0.1759
   74MOL0     H10175   7.425  11.333   4.719  0.0137 -1.0891 -1.5628
   74MOL0     H10176   7.616  11.484   4.689 -1.2976 -0.4217 -1.3235
   74MOL0     H10177   7.535  11.591   4.575  1.0928 -1.1841 -0.5070
   74MOL0     H10178   7.635  11.767   4.663 -3.4753 -2.1155  0.4097
   74MOL0     H10179   7.728  11.669   4.799 -2.1943  0.8214  1.4388
   74MOL0     H10180   7.764  11.675   4.498 -1.3774 -0.2867  0.7409
   74MOL0     H10181   7.852  11.559   4.610  2.1277  0.6514 -0.4210
   74MOL0     H10182   7.939  11.770   4.731 -0.3074 -3.0012 -0.2927
   74MOL0     H10183   7.878  11.855   4.587 -1.1008 -0.9705 -0.6482
   74MOL0     H10184   8.073  11.621   4.557  0.9482  0.2375  0.9413
   74MOL0     H10185   8.031  11.750   4.442  1.4977  2.0410 -0.0317
   74MOL0     H10186   8.143  11.923   4.561 -1.8136 -0.1621 -0.1294
   74MOL0     H10187   8.246  11.787   4.525 -1.1412 -4.2583  0.8880
   74MOL0     H10188   8.192  11.693   4.759  2.5027 -0.6376 -0.4167
   74MOL0     H10189   8.160  11.867   4.797 -0.9666 -0.4346  0.4330
   74MOL0     H10190   8.371  11.789   4.859 -1.1736  3.1398  0.5368
   74MOL0     H10191   8.406  11.891   4.721 -3.1656 -0.5730 -3.4911
   74MOL0     H10192   7.249  11.725   4.680 -2.0683  0.2439  0.7660
   74MOL0     H10193   7.047  11.633   4.629 -0.8357 -1.9207 -1.3232
   74MOL0     H10194   6.722  11.438   4.686 -1.8454 -1.0138  0.6556
   74MOL0     H10195   6.502  11.375   4.677  0.9496  0.6942  0.2827
   74MOL0     H10196   4.979  11.032   4.950 -0.2435 -1.3714  0.9013
   74MOL0     H10197   4.868  11.261   5.003  0.1537  1.6457 -2.3942
   74MOL0     H10198   4.354  11.280   5.045 -0.2547  0.0594 -0.1755
   74MOL0     H10199   4.160  11.371   5.123  0.0150  0.4040 -2.9228
   74MOL0     H10200   4.039  11.464   5.333 -0.3076  0.5147  1.6989
   74MOL0     H10201   4.104  11.584   5.438  0.2456  1.7378 -0.5035
   74MOL0     H10202   3.891  11.671   5.241 -2.3446  3.0529  1.2688
   74MOL0     H10203   3.957  11.755   5.381  2.8678 -0.9707  0.1735
   74MOL0     H10204   3.795  11.495   5.387  0.6906 -0.9268  0.5556
   74MOL0     H10205   3.883  11.578   5.522  2.3021  0.2790 -1.7762
   74MOL0     H10206   3.648  11.719   5.378 -1.6896  0.7385  1.7781
   74MOL0     H10207   3.730  11.739   5.540 -1.2513 -0.6188  0.8807
   74MOL0     H10208   3.390  11.456   5.505 -0.3300  0.8375 -0.3053
   74MOL0     H10209   4.366  11.728   5.257 -0.3581  0.4806 -0.4354
   74MOL0     H10210   4.691  11.584   5.244 -0.4591 -0.5369  1.0758
   74MOL0     H10211   4.653  11.676   5.092 -0.3420 -0.0031  0.0355
   74MOL0     H10212   4.603  11.737   5.250 -1.2352  2.1638 -3.8769
   75MOL0     O10213   6.186   0.280   7.345 -0.5553  0.5577 -0.5120
   75MOL0     C10214   6.221   0.204   7.256  0.2508 -0.8334 -0.6670
   75MOL0     O10215   6.318   0.235   7.168 -0.0920  0.3988  0.1096
   75MOL0     C10216   6.401   0.341   7.181 -0.0505 -0.2247 -0.3286
   75MOL0     C10217   6.445   0.429   7.289  1.0485  0.2284  0.4975
   75MOL0     C10218   6.536   0.529   7.262  0.4034  0.2722  0.3755
   75MOL0     C10219   6.609   0.552   7.138  0.0348  0.1675 -0.5603
   75MOL0     O10220   6.694   0.653   7.129  0.2444  0.5227 -0.0539
   75MOL0     C10221   6.762   0.676   6.999 -0.1021  0.3906 -0.7780
   75MOL0     C10222   6.889   0.756   7.026  1.0781  0.0632  0.3279
   75MOL0     C10223   6.873   0.865   7.131 -0.5470 -0.1266 -0.2497
   75MOL0     C10224   7.000   0.942   7.158  0.4187 -0.5315  0.3376
   75MOL0     C10225   7.033   0.970   7.301 -0.4329 -0.2389  0.9122
   75MOL0     C10226   7.146   1.080   7.315 -0.4197 -0.6320 -0.7785
   75MOL0     C10227   7.279   1.024   7.267 -0.2311  0.4403 -1.1042
   75MOL0     C10228   7.406   1.098   7.302  0.0652  0.1098 -0.1504
   75MOL0     N10229   7.528   1.026   7.263 -0.0101  0.3929 -0.1143
   75MOL0     C10230   7.596   1.057   7.152  0.1156 -0.4135  0.0768
   75MOL0     C10231   7.719   1.006   7.161  0.3835  0.3057 -0.2749
   75MOL0     C10232   7.835   1.012   7.070  0.5312  0.4050  0.8569
   75MOL0     C10233   7.974   1.041   7.139  0.3000  0.1205 -0.4470
   75MOL0     C10234   8.087   1.045   7.046 -0.1932 -0.7614  1.0120
   75MOL0     C10235   8.157   0.908   7.028 -0.5976  0.6422 -0.0432
   75MOL0     O10236   8.288   0.920   6.959 -0.3182 -0.6086  0.2349
   75MOL0     C10237   8.341   0.818   6.892 -0.0146 -0.2875 -0.2331
   75MOL0     C10238   8.282   0.761   6.785  0.3670 -0.6204 -0.2222
   75MOL0     C10239   8.339   0.662   6.710 -0.8504  0.5001  0.8174
   75MOL0     C10240   8.257   0.602   6.599  0.0529  0.1508  0.3046
   75MOL0     C10241   8.465   0.610   6.750  0.1427 -0.2288  0.2068
   75MOL0     C10242   8.530   0.493   6.690 -0.4333 -0.3674  0.0065
   75MOL0     O10243   8.667   0.488   6.698 -0.8628  0.6246  0.1678
   75MOL0     C10244   8.729   0.422   6.603 -0.8860  0.4464  0.5341
   75MOL0     C10245   8.806   0.475   6.497  0.5172 -0.2849 -0.5158
   75MOL0     C10246   8.865   0.407   6.389  0.5483 -0.0826 -0.6488
   75MOL0     C10247   8.861   0.268   6.396 -0.6008  0.1926 -0.6105
   75MOL0     O10248   8.918   0.190   6.296 -0.3821  0.6394  0.1382
   75MOL0     C10249   9.043   0.135   6.331  0.0864  0.4441 -0.2646
   75MOL0     C10250   9.110   0.036   6.237 -1.0099  0.3174  0.0610
   75MOL0     C10251   9.045  -0.104   6.222  0.2874  0.6268 -1.0950
   75MOL0     C10252   9.016  -0.180   6.359 -0.7808  0.3453 -0.6159
   75MOL0     C10253   8.955  -0.317   6.355 -0.2657  0.4571  0.2398
   75MOL0     C10254   9.064  -0.414   6.317  0.1256 -0.6998  0.6929
   75MOL0     C10255   9.040  -0.565   6.336 -0.1221 -0.1635  0.0661
   75MOL0     C10256   9.001  -0.607   6.471  0.5681 -0.7617 -0.7946
   75MOL0    Cl10257   9.124  -0.561   6.587  0.3746 -0.3750 -0.1372
   75MOL0     C10258   8.792   0.210   6.503 -0.3685  0.2707 -0.2385
   75MOL0     C10259   8.729   0.283   6.601 -1.1316 -0.6090  0.4334
   75MOL0     O10260   8.459   0.401   6.656 -0.7499  0.5154  0.8984
   75MOL0     C10261   8.535   0.677   6.857  0.4710  0.0532  0.7892
   75MOL0     C10262   8.468   0.781   6.925 -0.4730  0.6732  0.6850
   75MOL0     N10263   7.725   0.944   7.284  0.3236  0.5325 -0.1799
   75MOL0     N10264   7.610   0.960   7.341  0.1548 -0.1748  0.2209
   75MOL0     C10265   6.568   0.466   7.034  0.3470 -1.1284  0.8019
   75MOL0     C10266   6.470   0.367   7.059  0.4666 -0.0996  0.1079
   75MOL0     C10267   6.163   0.075   7.249  0.5673  0.2942 -0.7831
   75MOL0     C10268   6.119   0.017   7.372 -0.5618 -0.4779 -0.0986
   75MOL0     C10269   6.059  -0.104   7.378 -0.1680 -0.2885 -0.5442
   75MOL0     C10270   6.018  -0.172   7.258 -0.2392  0.3477 -0.3085
   75MOL0     O10271   5.937  -0.281   7.268  0.1507 -0.1904  0.1569
   75MOL0     C10272   5.843  -0.305   7.158 -0.5480  0.6762 -0.2253
   75MOL0     C10273   5.913  -0.397   7.055  0.0419 -0.0479 -0.1515
   75MOL0     C10274   5.950  -0.535   7.106 -0.3287  0.4598 -0.8045
   75MOL0     C10275   6.084  -0.596   7.067 -0.2725 -0.1206 -0.6013
   75MOL0     C10276   6.090  -0.633   6.927 -0.2171 -0.4924 -0.1449
   75MOL0     C10277   6.132  -0.664   6.816  0.3723 -1.0166 -0.6232
   75MOL0     C10278   6.058  -0.109   7.140  0.8947 -0.4444 -0.2087
   75MOL0     C10279   6.126   0.010   7.130 -0.1125  0.4316  0.6009
   75MOL0     C10280   6.157   0.071   7.002 -0.1860 -1.1369  0.6122
   75MOL0     H10281   6.394   0.424   7.385 -0.2841  1.8242 -0.0785
   75MOL0     H10282   6.575   0.595   7.339  2.1344 -0.3106  0.0491
   75MOL0     H10283   6.698   0.730   6.929  0.8062  1.1968 -1.0023
   75MOL0     H10284   6.791   0.579   6.957 -0.9487  0.0500 -0.6048
   75MOL0     H10285   6.967   0.682   7.045 -0.8437 -2.9344 -2.2311
   75MOL0     H10286   6.930   0.803   6.936  2.4870 -2.6963 -0.6121
   75MOL0     H10287   6.805   0.946   7.102  2.3247  4.3422  3.8725
   75MOL0     H10288   6.846   0.829   7.230  2.2612  4.1005  2.3636
   75MOL0     H10289   7.079   0.889   7.104  0.3431  0.6409 -0.9760
   75MOL0     H10290   6.992   1.043   7.118  2.0180 -0.6111 -0.2421
   75MOL0     H10291   7.060   0.874   7.346 -2.3606 -0.4178  1.8282
   75MOL0     H10292   6.939   1.001   7.348 -2.8438 -2.4671 -2.0642
   75MOL0     H10293   7.128   1.173   7.259 -0.1025  2.4503  3.7296
   75MOL0     H10294   7.152   1.103   7.421  2.0357  2.0732 -1.3844
   75MOL0     H10295   7.258   0.996   7.163  1.2929  1.0483 -1.5983
   75MOL0     H10296   7.285   0.923   7.309  0.2571  1.4665  1.4763
   75MOL0     H10297   7.404   1.200   7.265 -0.9897  0.6023  1.1800
   75MOL0     H10298   7.409   1.094   7.411 -1.0768 -2.4993 -0.1454
   75MOL0     H10299   7.561   1.116   7.068  1.5788 -0.5225 -0.6501
   75MOL0     H10300   7.826   1.094   6.998  1.6685 -0.6476 -0.5493
   75MOL0     H10301   7.850   0.915   7.021 -3.8369 -1.1424  2.1644
   75MOL0     H10302   7.971   1.147   7.167  0.9058 -0.2222  0.9977
   75MOL0     H10303   7.993   0.977   7.225 -1.1086 -0.5127 -0.5724
   75MOL0     H10304   8.053   1.070   6.945  1.1237 -2.2339  0.1468
   75MOL0     H10305   8.158   1.119   7.085  0.0333 -0.7237  0.5369
   75MOL0     H10306   8.179   0.868   7.127  1.8453  3.6656  0.7898
   75MOL0     H10307   8.089   0.849   6.966 -1.0097  1.0350  0.0209
   75MOL0     H10308   8.187   0.803   6.755 -0.2199 -1.6292  0.1844
   75MOL0     H10309   8.326   0.610   6.515  2.4863 -2.8747  1.8277
   75MOL0     H10310   8.166   0.662   6.588 -0.5342 -1.1710 -2.8581
   75MOL0     H10311   8.225   0.501   6.626  0.5143  0.6870  3.2221
   75MOL0     H10312   8.810   0.584   6.492  1.4980 -0.1916  1.4651
   75MOL0     H10313   8.913   0.455   6.304  2.2938 -0.8930 -0.1682
   75MOL0     H10314   9.111   0.218   6.353  0.0135 -0.0014  1.8651
   75MOL0     H10315   9.025   0.085   6.426 -0.5586  1.2037  0.0221
   75MOL0     H10316   9.122   0.069   6.133  1.2047  0.0616  0.2037
   75MOL0     H10317   9.214   0.023   6.265 -0.0144 -2.7413 -4.0350
   75MOL0     H10318   9.108  -0.164   6.157  0.6037 -1.2285  0.8265
   75MOL0     H10319   8.957  -0.103   6.157 -0.6831  2.3876  0.1441
   75MOL0     H10320   8.952  -0.116   6.420 -0.9184  1.6901 -2.1012
   75MOL0     H10321   9.113  -0.191   6.408 -1.2471  0.3908  0.3438
   75MOL0     H10322   8.905  -0.340   6.449  0.1255 -2.3691 -0.1536
   75MOL0     H10323   8.874  -0.311   6.282  1.8141  1.5349 -2.1496
   75MOL0     H10324   9.153  -0.388   6.376  0.9439  2.5651 -1.6850
   75MOL0     H10325   9.105  -0.390   6.218 -0.8519  0.4229  0.5252
   75MOL0     H10326   9.131  -0.620   6.311 -1.4653 -2.2529 -0.4895
   75MOL0     H10327   8.961  -0.600   6.269  1.8852 -1.6446 -1.6485
   75MOL0     H10328   9.000  -0.716   6.460 -0.0234 -0.7270 -1.1274
   75MOL0     H10329   8.900  -0.571   6.493  0.3283 -1.2220 -1.1242
   75MOL0     H10330   8.774   0.103   6.500 -2.9889  0.5888  1.2123
   75MOL0     H10331   8.665   0.235   6.674  0.1565  0.8938  2.6536
   75MOL0     H10332   8.632   0.638   6.886  0.3522  0.5746  1.9402
   75MOL0     H10333   8.511   0.820   7.017  1.2668 -1.7741  1.0272
   75MOL0     H10334   6.613   0.482   6.937 -0.1837 -1.2160  0.5382
   75MOL0     H10335   6.449   0.302   6.975  0.5301  1.0237 -0.8142
   75MOL0     H10336   6.126   0.069   7.467 -2.7343  1.3647 -0.8712
   75MOL0     H10337   6.027  -0.144   7.474  0.7699 -0.9781 -0.4953
   75MOL0     H10338   5.756  -0.353   7.203  0.0074  1.5517  1.9205
   75MOL0     H10339   5.817  -0.207   7.116 -1.5883  1.0334  1.1886
   75MOL0     H10340   5.994  -0.338   7.012 -1.9909  2.5622 -0.6078
   75MOL0     H10341   5.839  -0.420   6.978  0.3775 -1.7540 -0.0190
   75MOL0     H10342   5.956  -0.524   7.214 -0.0687 -0.1767 -0.7528
   75MOL0     H10343   5.871  -0.606   7.081  0.0261 -0.8741  1.6030
   75MOL0     H10344   6.105  -0.688   7.123  0.3448  0.4750  0.1721
   75MOL0     H10345   6.168  -0.529   7.088 -1.4876  0.9600  1.0547
   75MOL0     H10346   6.177  -0.673   6.720  3.3832 -0.0371  0.5889
   75MOL0     H10347   6.037  -0.152   7.042 -1.1862 -0.2861  0.1223
   75MOL0     H10348   6.108   0.028   6.914  0.9652  1.3050 -1.3341
   75MOL0     H10349   6.130   0.177   6.993 -0.5309 -1.3627 -1.7511
   75MOL0     H10350   6.265   0.065   6.990 -0.4786 -3.4336 -1.6517
   76MOL0     O10351   1.740   8.357   2.441  0.1138  0.2664 -0.8329
   76MOL0     C10352   1.768   8.351   2.323 -0.3942  1.1593 -0.1685
   76MOL0     O10353   1.694   8.401   2.223 -0.0434  0.1724 -0.9180
   76MOL0     C10354   1.585   8.484   2.252 -1.0777  0.7637 -1.0626
   76MOL0     C10355   1.450   8.445   2.272 -0.3599 -0.1718 -0.0729
   76MOL0     C10356   1.359   8.541   2.296 -0.1824 -0.5934  0.2819
   76MOL0     C10357   1.386   8.674   2.286  0.2191  0.5605 -0.4098
   76MOL0     O10358   1.297   8.782   2.280  0.0145  0.5302  0.6426
   76MOL0     C10359   1.160   8.764   2.291 -0.7015  0.3902 -0.0828
   76MOL0     C10360   1.126   8.739   2.439 -0.1232  0.4225 -0.8237
   76MOL0     C10361   1.108   8.877   2.503  0.4291  0.8806  0.5200
   76MOL0     C10362   1.081   8.856   2.656  0.0303  0.1045 -0.6601
   76MOL0     C10363   1.026   8.983   2.718 -0.6290  0.4381 -0.0811
   76MOL0     C10364   0.984   8.970   2.868 -0.6778 -0.1841 -0.6055
   76MOL0     C10365   1.120   8.945   2.945  0.0748 -1.4034 -0.4295
   76MOL0     C10366   1.091   8.936   3.092 -0.3173 -0.4164  0.0140
   76MOL0     N10367   1.077   9.068   3.159  0.7060  0.5842  0.3037
   76MOL0     C10368   0.963   9.148   3.185 -0.3835 -0.0760  0.5663
   76MOL0     C10369   1.009   9.243   3.266  0.2556  0.2728 -0.9928
   76MOL0     C10370   0.931   9.359   3.316 -0.4142  0.4498 -0.0220
   76MOL0     C10371   0.801   9.323   3.387  0.3824  0.2416 -0.4654
   76MOL0     C10372   0.800   9.383   3.528 -0.5072 -0.0715  0.0399
   76MOL0     C10373   0.656   9.363   3.580  0.6347  1.2781  0.3925
   76MOL0     O10374   0.648   9.387   3.719 -0.5592  1.1024  0.3534
   76MOL0     C10375   0.538   9.426   3.785 -0.1069  0.3457  0.0811
   76MOL0     C10376   0.557   9.440   3.924  0.3338 -0.0095 -0.1963
   76MOL0     C10377   0.452   9.470   4.009 -0.6589  0.7191 -0.5453
   76MOL0     C10378   0.484   9.502   4.158 -0.0785  0.1028  0.6149
   76MOL0     C10379   0.321   9.482   3.962 -0.0961  0.1229 -0.2838
   76MOL0     C10380   0.202   9.512   4.045 -0.2513  0.3154  0.7596
   76MOL0     O10381   0.086   9.452   4.004 -0.4744 -0.0078  0.0394
   76MOL0     C10382  -0.031   9.468   4.076 -0.3265 -0.1256 -0.3413
   76MOL0     C10383  -0.032   9.489   4.216  0.7667  1.1501  0.4341
   76MOL0     C10384  -0.148   9.508   4.295 -0.0207 -0.4887  1.0135
   76MOL0     C10385  -0.272   9.508   4.232  0.2218 -0.2037  1.3330
   76MOL0     O10386  -0.377   9.542   4.313  0.2561 -0.2093 -0.2300
   76MOL0     C10387  -0.510   9.554   4.259 -0.6764 -1.0350 -0.5279
   76MOL0     C10388  -0.608   9.573   4.381  0.0392 -0.7754 -0.3849
   76MOL0     C10389  -0.593   9.711   4.446  0.7184 -0.8461  0.0042
   76MOL0     C10390  -0.693   9.753   4.563 -0.3070 -0.2571  0.4365
   76MOL0     C10391  -0.654   9.698   4.692 -0.4996 -0.5321  0.1933
   76MOL0     C10392  -0.765   9.706   4.795  0.3616  0.3946  0.1906
   76MOL0     C10393  -0.772   9.852   4.847  0.7492 -0.5289 -0.8132
   76MOL0     C10394  -0.878   9.858   4.963  0.3247 -0.0580  0.6266
   76MOL0    Cl10395  -1.042   9.833   4.880  0.6599  0.4185 -0.3223
   76MOL0     C10396  -0.273   9.484   4.093  0.9207 -0.3558  0.3425
   76MOL0     C10397  -0.157   9.456   4.019  0.6843  0.0105 -0.5216
   76MOL0     O10398   0.205   9.607   4.124  0.4434 -0.6307 -0.0470
   76MOL0     C10399   0.308   9.471   3.817 -0.1081  0.0080 -0.2131
   76MOL0     C10400   0.414   9.437   3.728  0.0417  0.3714 -0.2615
   76MOL0     N10401   1.147   9.234   3.288  0.1125  0.3462 -0.4567
   76MOL0     N10402   1.181   9.126   3.232 -0.4511  0.1427  0.3126
   76MOL0     C10403   1.517   8.713   2.279 -0.1476  0.7011 -0.1941
   76MOL0     C10404   1.619   8.618   2.268  0.5099  0.2151  0.0835
   76MOL0     C10405   1.878   8.264   2.277  0.3416  0.2497 -0.4851
   76MOL0     C10406   1.903   8.255   2.139 -0.1498 -0.7168 -0.9252
   76MOL0     C10407   1.999   8.171   2.083 -0.7083 -0.7587 -0.4057
   76MOL0     C10408   2.083   8.096   2.176  0.2699 -0.0193 -0.0531
   76MOL0     O10409   2.176   8.003   2.142 -0.3455  0.4380  0.7390
   76MOL0     C10410   2.185   7.967   2.010  0.9298  0.7980  0.5002
   76MOL0     C10411   2.284   8.051   1.940  0.1433 -0.1289 -0.4680
   76MOL0     C10412   2.429   8.026   1.986 -0.2078 -0.3952  0.7204
   76MOL0     C10413   2.525   8.115   1.895  0.0452 -0.1410 -0.3568
   76MOL0     C10414   2.515   8.259   1.893 -0.0425 -0.5987  0.2506
   76MOL0     C10415   2.532   8.380   1.886  0.2112  0.1010  1.2194
   76MOL0     C10416   2.059   8.107   2.312 -0.2007  0.5917  0.6761
   76MOL0     C10417   1.962   8.194   2.358  0.9225 -0.3481 -0.1931
   76MOL0     C10418   1.963   8.224   2.507 -0.1202 -0.4858 -0.9106
   76MOL0     H10419   1.416   8.346   2.245  2.8354 -1.9547  1.8528
   76MOL0     H10420   1.254   8.513   2.299  0.3559 -2.9756 -0.9337
   76MOL0     H10421   1.128   8.685   2.222 -0.7111 -0.6089  1.0328
   76MOL0     H10422   1.117   8.856   2.252 -1.6551  0.8902  2.0286
   76MOL0     H10423   1.037   8.679   2.458  1.2048 -2.0552 -1.8886
   76MOL0     H10424   1.202   8.679   2.490 -3.3888 -2.5838  0.9651
   76MOL0     H10425   1.200   8.932   2.482  0.0687  0.8963 -1.1735
   76MOL0     H10426   1.025   8.929   2.454  0.6773 -0.4741 -1.4419
   76MOL0     H10427   1.013   8.771   2.668  0.9015 -0.7908 -1.7626
   76MOL0     H10428   1.181   8.834   2.697  0.5051 -0.0232 -1.8328
   76MOL0     H10429   0.934   9.011   2.666 -0.2830  2.9890  0.5447
   76MOL0     H10430   1.098   9.065   2.709  0.3182 -0.3319  0.3155
   76MOL0     H10431   0.937   9.058   2.913 -0.6209  0.3416 -1.5441
   76MOL0     H10432   0.934   8.874   2.885 -1.5591  0.6052  1.7016
   76MOL0     H10433   1.178   9.034   2.921 -2.4048 -0.1471 -2.2824
   76MOL0     H10434   1.171   8.856   2.905  0.0031 -1.2257 -0.9256
   76MOL0     H10435   0.999   8.878   3.102 -0.5794 -0.5921 -2.7835
   76MOL0     H10436   1.171   8.884   3.145  2.3476  2.4890 -0.9192
   76MOL0     H10437   0.866   9.137   3.138  1.7400 -2.1444 -4.0142
   76MOL0     H10438   0.902   9.429   3.237  0.0726 -1.4675 -1.9943
   76MOL0     H10439   0.991   9.419   3.385  1.3258 -0.0459 -1.0526
   76MOL0     H10440   0.715   9.360   3.331  1.2686 -1.1549 -2.8736
   76MOL0     H10441   0.785   9.216   3.401 -2.3951  0.6206 -0.2764
   76MOL0     H10442   0.863   9.317   3.587 -3.3739 -2.4151  0.7458
   76MOL0     H10443   0.831   9.487   3.538 -0.9976  0.6396 -3.9807
   76MOL0     H10444   0.595   9.429   3.518 -1.1514  1.7151  2.4935
   76MOL0     H10445   0.613   9.264   3.564  0.0644  1.8089 -1.6201
   76MOL0     H10446   0.660   9.439   3.959 -0.6274  0.8005  2.9137
   76MOL0     H10447   0.415   9.438   4.214  1.1037 -2.9957 -1.2039
   76MOL0     H10448   0.472   9.608   4.184  3.6462  0.8754 -0.2321
   76MOL0     H10449   0.586   9.478   4.188  0.3720  3.1041  1.8274
   76MOL0     H10450   0.057   9.486   4.278  2.0107  2.3981 -1.2058
   76MOL0     H10451  -0.156   9.531   4.400 -0.8578 -1.0933  1.0978
   76MOL0     H10452  -0.509   9.634   4.184 -0.6504 -1.7915 -1.3538
   76MOL0     H10453  -0.537   9.459   4.213 -0.0902 -0.7938 -1.4034
   76MOL0     H10454  -0.711   9.560   4.345 -0.4899  4.7142 -1.7494
   76MOL0     H10455  -0.595   9.493   4.453 -0.2696 -0.1425  0.3934
   76MOL0     H10456  -0.625   9.779   4.366  2.9368  0.3479  0.0667
   76MOL0     H10457  -0.490   9.735   4.474 -0.1454  1.2603  1.6817
   76MOL0     H10458  -0.794   9.713   4.551 -0.4148  0.4376 -1.3343
   76MOL0     H10459  -0.691   9.862   4.570  2.8925 -0.1851 -0.2381
   76MOL0     H10460  -0.625   9.593   4.680  2.6909 -0.0988  2.6669
   76MOL0     H10461  -0.565   9.751   4.730 -0.4301 -0.6157  0.1470
   76MOL0     H10462  -0.750   9.637   4.879  5.2786 -2.4619 -2.5451
   76MOL0     H10463  -0.860   9.679   4.748  0.9324 -0.7480 -0.3339
   76MOL0     H10464  -0.819   9.917   4.773  1.0421  2.1154  1.1691
   76MOL0     H10465  -0.679   9.897   4.883  0.9123 -0.6576 -1.0720
   76MOL0     H10466  -0.890   9.961   4.996  2.7716 -0.6215  3.7617
   76MOL0     H10467  -0.864   9.794   5.050  0.8622 -0.0663  0.5363
   76MOL0     H10468  -0.359   9.495   4.029 -0.1665 -0.7147  1.7086
   76MOL0     H10469  -0.153   9.444   3.911 -0.8523  2.5570 -0.9317
   76MOL0     H10470   0.211   9.471   3.770  0.9898 -0.1808 -2.6582
   76MOL0     H10471   0.397   9.405   3.626 -0.0218 -1.4532  0.2717
   76MOL0     H10472   1.541   8.818   2.282  3.6067 -0.0631  0.9788
   76MOL0     H10473   1.723   8.649   2.269  0.0759  1.7945 -0.8004
   76MOL0     H10474   1.852   8.321   2.069  0.2904 -0.7153 -1.2493
   76MOL0     H10475   2.021   8.165   1.977 -0.2613 -3.6206 -0.2448
   76MOL0     H10476   2.217   7.863   2.007 -0.5292  0.3218  0.6638
   76MOL0     H10477   2.090   7.963   1.956  1.3256 -2.9160 -0.1830
   76MOL0     H10478   2.258   8.156   1.958 -1.6360 -1.0775  3.4378
   76MOL0     H10479   2.281   8.026   1.833  0.2380 -1.4778 -0.1781
   76MOL0     H10480   2.447   8.037   2.093 -0.0975 -2.2290  0.9158
   76MOL0     H10481   2.447   7.921   1.963  0.3484  0.1172 -1.3227
   76MOL0     H10482   2.525   8.075   1.794 -0.0028 -2.0418  0.3616
   76MOL0     H10483   2.625   8.095   1.935 -0.6989  0.5945  2.0412
   76MOL0     H10484   2.546   8.484   1.865 -0.1217  0.0164  0.5599
   76MOL0     H10485   2.124   8.043   2.371  0.3320 -1.0752 -1.5647
   76MOL0     H10486   2.054   8.183   2.551  1.4378  1.2696 -2.3143
   76MOL0     H10487   1.964   8.331   2.527 -0.7110 -0.7289  0.5373
   76MOL0     H10488   1.878   8.182   2.562  0.0806 -1.2214 -1.1400
   77MOL0     O10489   7.037   1.393  10.718  0.7910  0.0628  0.3945
   77MOL0     C10490   7.036   1.513  10.685 -0.7385  0.0618 -0.4995
   77MOL0     O10491   7.151   1.582  10.677  0.1949 -0.2881 -0.0435
   77MOL0     C10492   7.276   1.535  10.689  0.4811  0.3861 -0.4139
   77MOL0     C10493   7.312   1.406  10.736  0.4621  0.2935 -0.2542
   77MOL0     C10494   7.445   1.364  10.750 -0.0348 -0.0908  0.1493
   77MOL0     C10495   7.550   1.456  10.712  0.5563  0.3296 -0.0254
   77MOL0     O10496   7.679   1.406  10.721 -0.0857 -0.2332 -0.0939
   77MOL0     C10497   7.792   1.488  10.711 -0.5670 -0.0336 -0.3727
   77MOL0     C10498   7.847   1.511  10.853  0.5168  0.1586  0.3032
   77MOL0     C10499   7.755   1.598  10.949  0.1621  0.8746  0.3190
   77MOL0     C10500   7.831   1.649  11.073  0.3749 -0.0261 -0.2727
   77MOL0     C10501   7.789   1.585  11.198 -0.2699  0.4859  0.0439
   77MOL0     C10502   7.894   1.581  11.311  0.8311 -0.3606 -0.2070
   77MOL0     C10503   7.991   1.462  11.306  0.3556  1.0963 -0.3735
   77MOL0     C10504   8.045   1.440  11.447  0.0034  0.3465  1.3708
   77MOL0     N10505   8.141   1.333  11.456 -0.1658  0.3169  0.4102
   77MOL0     C10506   8.262   1.322  11.383  0.0643 -0.2733 -0.7206
   77MOL0     C10507   8.307   1.199  11.415 -0.4898  0.6070 -0.6511
   77MOL0     C10508   8.434   1.131  11.365 -0.7820 -0.5232 -0.4071
   77MOL0     C10509   8.540   1.237  11.394 -0.5668  0.7047  0.9882
   77MOL0     C10510   8.685   1.184  11.374  0.2058 -0.5067 -0.3239
   77MOL0     C10511   8.793   1.271  11.449 -0.6172  0.1274  0.0408
   77MOL0     O10512   8.929   1.219  11.421 -0.5218  0.2035 -0.7324
   77MOL0     C10513   9.038   1.291  11.450 -0.3247  0.4562 -0.2958
   77MOL0     C10514   9.035   1.392  11.548  0.0832 -0.6488  1.0881
   77MOL0     C10515   9.147   1.471  11.568  0.6756  0.9127 -0.7424
   77MOL0     C10516   9.126   1.587  11.659  0.1108 -0.9795  0.1969
   77MOL0     C10517   9.271   1.440  11.506  0.9037 -0.2407  0.3501
   77MOL0     C10518   9.401   1.510  11.526  0.3601 -0.5026  0.2032
   77MOL0     O10519   9.523   1.452  11.498  0.3137  0.0505  0.7195
   77MOL0     C10520   9.638   1.509  11.538 -0.0487  0.3118  0.1567
   77MOL0     C10521   9.743   1.528  11.450 -0.5877 -0.3084 -0.5873
   77MOL0     C10522   9.870   1.582  11.493  0.1861  0.4874 -0.3788
   77MOL0     C10523   9.881   1.618  11.626 -0.5010  0.5609  0.1032
   77MOL0     O10524  10.000   1.686  11.651  0.1022  0.1642  0.2541
   77MOL0     C10525  10.015   1.770  11.773 -0.9372 -0.0354  0.0749
   77MOL0     C10526  10.160   1.806  11.793  1.0656  0.3719  0.5191
   77MOL0     C10527  10.253   1.687  11.817  0.4650 -0.1308  0.0152
   77MOL0     C10528  10.400   1.734  11.836  0.2751  0.8104  0.4650
   77MOL0     C10529  10.501   1.617  11.829 -0.4703  0.0258  0.1463
   77MOL0     C10530  10.647   1.659  11.844 -0.0394  0.1569  0.0041
   77MOL0     C10531  10.728   1.530  11.842  0.0832  0.0351  0.3155
   77MOL0     C10532  10.882   1.545  11.859 -0.0994  0.1497  0.0383
   77MOL0    Cl10533  10.942   1.666  11.749  0.2074 -0.2576 -0.4456
   77MOL0     C10534   9.772   1.610  11.718 -0.5022  0.2953 -0.7859
   77MOL0     C10535   9.653   1.558  11.673 -0.3705  0.1552 -0.0604
   77MOL0     O10536   9.383   1.624  11.570 -1.1080 -0.0289  0.3707
   77MOL0     C10537   9.273   1.332  11.416  0.4015  0.1448  0.1028
   77MOL0     C10538   9.162   1.259  11.388  0.6111  0.1500 -0.6842
   77MOL0     N10539   8.210   1.139  11.495 -0.4915  0.4252 -0.2582
   77MOL0     N10540   8.116   1.215  11.515  0.5212  0.2422 -0.6352
   77MOL0     C10541   7.515   1.587  10.674 -0.3484 -0.3134 -0.6621
   77MOL0     C10542   7.382   1.625  10.657  0.5216  0.8811 -0.8650
   77MOL0     C10543   6.910   1.573  10.638 -0.4091  0.9623 -0.0521
   77MOL0     C10544   6.783   1.535  10.691 -0.2659  0.0775 -0.2337
   77MOL0     C10545   6.671   1.606  10.649  0.2427  0.5903 -0.6855
   77MOL0     C10546   6.671   1.699  10.547  0.4873 -0.3570 -0.5963
   77MOL0     O10547   6.562   1.771  10.512 -0.1134 -0.5434  0.0647
   77MOL0     C10548   6.439   1.698  10.517 -0.3428 -0.5607 -1.0888
   77MOL0     C10549   6.329   1.781  10.448  0.1861  0.2317  0.4436
   77MOL0     C10550   6.359   1.829  10.312 -0.2757  0.3215 -0.0037
   77MOL0     C10551   6.402   1.974  10.320  0.3198  0.1057  0.1616
   77MOL0     C10552   6.459   2.017  10.195  1.0054  0.6355  0.5218
   77MOL0     C10553   6.489   2.027  10.081 -0.3996 -0.3562 -0.0941
   77MOL0     C10554   6.790   1.741  10.495 -0.3980  0.2564  0.0799
   77MOL0     C10555   6.912   1.679  10.536  0.1456 -0.2957 -0.9896
   77MOL0     C10556   7.039   1.739  10.467 -0.3934  0.2041 -0.3885
   77MOL0     H10557   7.246   1.337  10.788 -0.1772  0.4742 -0.8166
   77MOL0     H10558   7.482   1.276  10.801  3.2381  1.1282  0.1496
   77MOL0     H10559   7.782   1.582  10.657  0.8879  1.2429  1.4576
   77MOL0     H10560   7.874   1.432  10.666 -0.1814 -1.9071  2.4105
   77MOL0     H10561   7.864   1.411  10.894 -0.2848 -0.6224 -1.1619
   77MOL0     H10562   7.947   1.555  10.846  2.3655 -3.3336  1.7496
   77MOL0     H10563   7.721   1.686  10.894 -1.7619  0.5043  0.8240
   77MOL0     H10564   7.662   1.551  10.983 -0.4126  2.7367  1.5269
   77MOL0     H10565   7.936   1.621  11.063  0.5569  0.4847  0.1337
   77MOL0     H10566   7.823   1.757  11.089  0.7310 -0.2614  1.7597
   77MOL0     H10567   7.753   1.483  11.180 -2.6662  1.4851 -1.2753
   77MOL0     H10568   7.695   1.635  11.224 -1.0872 -1.5581  1.2960
   77MOL0     H10569   7.954   1.673  11.317  1.8728 -0.8087 -2.5392
   77MOL0     H10570   7.845   1.580  11.409  2.0504  3.4481  0.6552
   77MOL0     H10571   8.070   1.471  11.231  1.0840  0.8635  0.3513
   77MOL0     H10572   7.937   1.371  11.279  0.7111  0.5280  0.7783
   77MOL0     H10573   8.092   1.537  11.463 -3.8774  2.4103  1.3688
   77MOL0     H10574   7.964   1.437  11.520  0.3813  1.1560  1.8307
   77MOL0     H10575   8.311   1.387  11.312  1.6432 -1.8381 -1.1493
   77MOL0     H10576   8.429   1.108  11.258 -1.8676 -2.0086 -0.0613
   77MOL0     H10577   8.460   1.042  11.424 -1.6970 -0.3630  0.2544
   77MOL0     H10578   8.531   1.324  11.329 -0.5466 -2.1669 -3.2468
   77MOL0     H10579   8.528   1.264  11.500 -1.1967 -3.3171  2.1337
   77MOL0     H10580   8.684   1.086  11.423  3.3329 -0.3455  0.2620
   77MOL0     H10581   8.708   1.174  11.268  0.5415  0.6264 -0.3703
   77MOL0     H10582   8.785   1.376  11.418  1.8933  0.7690  1.3645
   77MOL0     H10583   8.780   1.266  11.558  3.4858  1.4065  0.7525
   77MOL0     H10584   8.942   1.422  11.596 -0.5602  3.7988 -2.2460
   77MOL0     H10585   9.188   1.583  11.750  1.5969  2.1626 -0.5378
   77MOL0     H10586   9.018   1.596  11.672 -0.0626 -0.4697 -1.4092
   77MOL0     H10587   9.161   1.684  11.622  0.1257  0.2679  3.1871
   77MOL0     H10588   9.731   1.496  11.347 -1.2519 -2.5488  0.1213
   77MOL0     H10589   9.955   1.587  11.427 -0.4715 -1.7979 -1.5030
   77MOL0     H10590   9.959   1.864  11.767 -1.8302 -0.5371  0.5037
   77MOL0     H10591   9.983   1.703  11.852 -0.1695  0.0251  0.4527
   77MOL0     H10592  10.197   1.866  11.710  2.0038 -1.8757 -0.7621
   77MOL0     H10593  10.148   1.873  11.879 -3.5881  0.6025 -0.0439
   77MOL0     H10594  10.259   1.620  11.731  3.5601 -0.2021  0.1693
   77MOL0     H10595  10.220   1.621  11.898  1.9240 -2.5912 -1.2934
   77MOL0     H10596  10.416   1.764  11.940 -1.0963 -1.0440  1.2667
   77MOL0     H10597  10.415   1.804  11.754  1.1146  0.9166  0.6966
   77MOL0     H10598  10.478   1.536  11.899  0.4139  0.0894  0.5189
   77MOL0     H10599  10.481   1.575  11.730 -0.8087 -2.8881  1.3520
   77MOL0     H10600  10.661   1.720  11.934  0.0553  2.4448 -1.4958
   77MOL0     H10601  10.680   1.712  11.755  1.1426 -2.1246 -1.0109
   77MOL0     H10602  10.708   1.493  11.741 -0.6572  0.7290  0.1981
   77MOL0     H10603  10.694   1.466  11.924 -0.6727  0.9342  0.7196
   77MOL0     H10604  10.933   1.451  11.837 -0.8025  0.2110 -2.0463
   77MOL0     H10605  10.909   1.574  11.961  1.2994  0.3701 -0.3756
   77MOL0     H10606   9.776   1.662  11.813 -0.1260 -0.9023 -0.1283
   77MOL0     H10607   9.571   1.547  11.744  0.4660  0.5723  0.9876
   77MOL0     H10608   9.365   1.301  11.369  0.3932 -0.2606  0.3523
   77MOL0     H10609   9.163   1.174  11.322 -0.0695  0.7569 -1.4938
   77MOL0     H10610   7.588   1.667  10.670  0.5764 -1.0222  1.0181
   77MOL0     H10611   7.364   1.729  10.632 -0.1782  0.5255 -1.9263
   77MOL0     H10612   6.772   1.465  10.773  1.9967 -1.0757 -0.8490
   77MOL0     H10613   6.579   1.580  10.700 -1.0975 -0.4195 -3.4020
   77MOL0     H10614   6.441   1.600  10.469 -5.4844 -2.8461  2.4509
   77MOL0     H10615   6.419   1.681  10.623  1.2852 -2.3740 -1.0228
   77MOL0     H10616   6.302   1.866  10.512 -1.6374  0.5774 -0.7088
   77MOL0     H10617   6.244   1.712  10.437 -0.0878  0.7317 -0.6741
   77MOL0     H10618   6.440   1.767  10.270 -0.1315  0.7767 -0.4006
   77MOL0     H10619   6.272   1.825  10.246 -1.2903  0.1982  1.3009
   77MOL0     H10620   6.477   1.978  10.400  1.1955  0.9545 -0.6626
   77MOL0     H10621   6.319   2.039  10.350  1.9825  2.9708 -0.9758
   77MOL0     H10622   6.522   2.045   9.980 -0.7466  1.7084  0.1077
   77MOL0     H10623   6.792   1.820  10.420  0.2123 -1.3949 -1.7314
   77MOL0     H10624   7.113   1.661  10.450  0.4389  0.1156  2.9465
   77MOL0     H10625   7.010   1.784  10.372  0.9633 -2.8241 -2.3896
   77MOL0     H10626   7.074   1.820  10.531 -0.1716 -0.2697  0.0985
   78MOL0     O10627   3.162   3.857   3.347 -0.3975  0.2807 -0.7921
   78MOL0     C10628   3.043   3.872   3.334  0.9503 -0.6060  0.8239
   78MOL0     O10629   2.966   3.957   3.404 -0.6287  0.2176 -0.5338
   78MOL0     C10630   3.027   4.025   3.512  0.5810 -0.2511 -1.0359
   78MOL0     C10631   3.026   4.159   3.490 -0.2888  0.5034 -0.4543
   78MOL0     C10632   3.093   4.244   3.581  0.5921  0.0222 -0.0679
   78MOL0     C10633   3.156   4.194   3.698 -0.1151  0.1508  0.4886
   78MOL0     O10634   3.214   4.277   3.783 -0.5412 -0.5947 -0.0502
   78MOL0     C10635   3.287   4.387   3.739  0.2097  0.4139 -0.0532
   78MOL0     C10636   3.352   4.452   3.854 -0.2632 -1.2246 -0.3226
   78MOL0     C10637   3.487   4.395   3.916  0.5825  0.1444 -0.4450
   78MOL0     C10638   3.610   4.430   3.830  0.1817 -0.4894  0.6325
   78MOL0     C10639   3.679   4.572   3.850  0.0374 -0.0645 -0.8900
   78MOL0     C10640   3.634   4.674   3.746 -0.3926 -0.3282 -0.4615
   78MOL0     C10641   3.667   4.822   3.797  0.3584 -0.2291  0.3989
   78MOL0     C10642   3.817   4.847   3.798 -0.7479  0.4030 -1.1555
   78MOL0     N10643   3.851   4.983   3.839  1.2077 -0.7049  0.3657
   78MOL0     C10644   3.779   5.101   3.802 -0.9532 -0.1678  0.0156
   78MOL0     C10645   3.842   5.198   3.882  0.1518 -0.5528 -0.1515
   78MOL0     C10646   3.803   5.345   3.873 -0.0039 -0.3675 -0.3669
   78MOL0     C10647   3.864   5.419   3.747  0.2729  0.3221 -0.1814
   78MOL0     C10648   3.852   5.571   3.754 -1.2162  0.3314  0.5669
   78MOL0     C10649   3.977   5.634   3.830 -0.0693 -0.7559 -0.1586
   78MOL0     O10650   3.967   5.782   3.834  0.5875 -0.0510 -0.3435
   78MOL0     C10651   4.085   5.851   3.842  0.4526 -0.8692 -0.1489
   78MOL0     C10652   4.214   5.803   3.872  0.1328  0.2365 -0.5588
   78MOL0     C10653   4.320   5.892   3.884  0.2262  0.8528 -0.4838
   78MOL0     C10654   4.459   5.834   3.922 -0.2738 -0.6649 -0.1447
   78MOL0     C10655   4.299   6.027   3.873  0.5653 -0.5475 -0.1950
   78MOL0     C10656   4.399   6.137   3.897 -0.7395  0.4731  0.3948
   78MOL0     O10657   4.363   6.262   3.859  0.4794  0.0647  0.4894
   78MOL0     C10658   4.452   6.364   3.890  0.0726 -0.0009 -0.5779
   78MOL0     C10659   4.501   6.394   4.021  0.3942  0.5834 -0.2311
   78MOL0     C10660   4.580   6.506   4.052 -0.3828  0.3074 -0.2121
   78MOL0     C10661   4.632   6.584   3.951  0.2706  0.1744  0.6952
   78MOL0     O10662   4.724   6.684   3.974 -0.0774 -0.0118 -0.4171
   78MOL0     C10663   4.807   6.745   3.876  0.0439 -0.3079 -0.2651
   78MOL0     C10664   4.898   6.857   3.923  0.5698 -0.5083 -0.3666
   78MOL0     C10665   4.951   6.950   3.810 -0.2329 -0.1615  0.2851
   78MOL0     C10666   5.037   6.878   3.714 -0.5335 -0.0684 -0.4033
   78MOL0     C10667   5.081   6.951   3.586 -0.1885 -0.0780  0.0692
   78MOL0     C10668   5.160   7.086   3.595  0.4376 -0.0071 -0.0076
   78MOL0     C10669   5.199   7.142   3.461  0.6734  0.1836 -1.2886
   78MOL0     C10670   5.312   7.242   3.463 -0.0718 -0.9923 -0.1255
   78MOL0    Cl10671   5.428   7.203   3.325  0.1721 -0.0678  0.1759
   78MOL0     C10672   4.591   6.549   3.818 -0.5333 -0.7789 -0.8305
   78MOL0     C10673   4.508   6.441   3.783 -0.4164 -0.7537  0.0443
   78MOL0     O10674   4.509   6.100   3.936 -0.4268 -0.9377 -0.0816
   78MOL0     C10675   4.174   6.067   3.827 -0.3552 -0.5599 -1.4154
   78MOL0     C10676   4.062   5.982   3.822 -0.2071 -0.4469 -0.6170
   78MOL0     N10677   3.942   5.141   3.971 -1.5997 -0.6239 -0.7893
   78MOL0     N10678   3.947   5.015   3.938  0.1697 -0.5832  0.2800
   78MOL0     C10679   3.154   4.062   3.720 -0.2104  0.5667 -0.8739
   78MOL0     C10680   3.082   3.979   3.633  0.4335  0.3428  0.7587
   78MOL0     C10681   2.973   3.810   3.218 -0.3053  0.4100  1.3645
   78MOL0     C10682   2.846   3.855   3.174  0.4476 -0.0890 -0.0167
   78MOL0     C10683   2.770   3.801   3.068 -0.2146 -0.6276 -0.0070
   78MOL0     C10684   2.823   3.702   2.994  0.6314 -0.0382  0.5377
   78MOL0     O10685   2.765   3.651   2.875 -0.0571  0.1119 -0.0019
   78MOL0     C10686   2.656   3.719   2.811  0.8409 -0.1558  0.5214
   78MOL0     C10687   2.679   3.873   2.767 -0.7846  0.0947  0.2853
   78MOL0     C10688   2.539   3.938   2.749 -0.0902 -0.9287 -0.1005
   78MOL0     C10689   2.546   4.091   2.735  0.7594  0.1150 -0.9111
   78MOL0     C10690   2.421   4.142   2.669 -0.8360 -0.1118 -0.0808
   78MOL0     C10691   2.320   4.187   2.616  0.2929 -0.6479  0.2544
   78MOL0     C10692   2.946   3.653   3.032 -0.2195  0.1089 -1.0450
   78MOL0     C10693   3.026   3.710   3.136  0.4409  0.2304 -0.6017
   78MOL0     C10694   3.165   3.638   3.168  0.5489  0.8634  0.7856
   78MOL0     H10695   2.984   4.206   3.402  0.9724 -0.4543 -1.6108
   78MOL0     H10696   3.098   4.351   3.566 -0.4296  0.6250  3.1359
   78MOL0     H10697   3.211   4.455   3.700 -2.3293 -1.1395  1.7886
   78MOL0     H10698   3.359   4.360   3.662 -0.6974 -2.2202 -0.0720
   78MOL0     H10699   3.368   4.560   3.848  1.5090 -1.4346  0.0479
   78MOL0     H10700   3.275   4.444   3.931  1.5169  2.9628  2.2007
   78MOL0     H10701   3.499   4.429   4.019  2.3146 -1.4258 -0.0659
   78MOL0     H10702   3.466   4.288   3.919 -1.8634  0.5880  1.9727
   78MOL0     H10703   3.681   4.348   3.845  0.2154 -0.7677 -0.8701
   78MOL0     H10704   3.583   4.414   3.725  0.4507  0.7005  0.3681
   78MOL0     H10705   3.787   4.571   3.831  0.5862 -1.3295  1.7292
   78MOL0     H10706   3.670   4.614   3.951 -4.6000 -3.7622  0.5911
   78MOL0     H10707   3.684   4.651   3.652  0.0916  1.9692 -0.8341
   78MOL0     H10708   3.528   4.651   3.733 -0.3834 -0.3001 -0.5831
   78MOL0     H10709   3.619   4.842   3.893 -0.4833 -1.1031  0.1832
   78MOL0     H10710   3.620   4.883   3.718  0.0006 -2.1063 -0.9082
   78MOL0     H10711   3.866   4.783   3.872  0.9183  1.6977 -1.0686
   78MOL0     H10712   3.850   4.834   3.695 -1.4931 -1.1143 -1.2266
   78MOL0     H10713   3.705   5.104   3.723 -0.3404 -0.1735 -0.5736
   78MOL0     H10714   3.840   5.403   3.958  1.6645  1.5459 -2.2500
   78MOL0     H10715   3.695   5.356   3.859 -0.4244  0.8615  3.0012
   78MOL0     H10716   3.970   5.390   3.745  0.7077  1.6464 -4.0425
   78MOL0     H10717   3.812   5.382   3.659 -1.8743  0.0815  1.1346
   78MOL0     H10718   3.854   5.601   3.649 -2.5001  2.9277  1.2239
   78MOL0     H10719   3.757   5.606   3.796 -1.9977  0.0624 -0.8908
   78MOL0     H10720   3.982   5.605   3.935  1.2510  1.3762  0.4251
   78MOL0     H10721   4.072   5.606   3.784  0.0427 -0.4590 -0.1104
   78MOL0     H10722   4.231   5.703   3.910 -0.3748 -0.3830 -1.9128
   78MOL0     H10723   4.529   5.846   3.839  1.5310 -3.0362  0.9318
   78MOL0     H10724   4.466   5.733   3.963  1.2424  0.5043  2.7067
   78MOL0     H10725   4.500   5.865   4.018  0.4573 -2.6782  0.2369
   78MOL0     H10726   4.454   6.339   4.102  1.5068 -0.0623 -0.0102
   78MOL0     H10727   4.622   6.515   4.151  1.0420  0.0020 -0.7526
   78MOL0     H10728   4.869   6.669   3.827 -4.3882 -0.9221 -5.8913
   78MOL0     H10729   4.744   6.777   3.792  0.9401 -2.9606 -2.0752
   78MOL0     H10730   4.853   6.923   3.997  2.3206  1.3127 -0.8347
   78MOL0     H10731   4.987   6.815   3.970  1.5791  2.2577  0.4226
   78MOL0     H10732   4.995   7.037   3.859  0.5762  1.1692 -2.5759
   78MOL0     H10733   4.872   6.995   3.750 -0.2658 -0.3049  0.2195
   78MOL0     H10734   4.986   6.789   3.677 -0.1492 -0.2203 -0.5715
   78MOL0     H10735   5.124   6.836   3.764 -1.6219 -0.8317  0.9004
   78MOL0     H10736   5.137   6.887   3.516 -1.8235  1.0679 -2.4025
   78MOL0     H10737   4.987   6.980   3.540  0.8375  1.0515 -1.4172
   78MOL0     H10738   5.246   7.076   3.662 -0.4266 -1.4404  0.9255
   78MOL0     H10739   5.097   7.166   3.635  0.8566  0.3214 -0.0004
   78MOL0     H10740   5.117   7.192   3.409  1.0871  1.3119 -0.8975
   78MOL0     H10741   5.223   7.057   3.397 -1.3905  1.3026 -3.7118
   78MOL0     H10742   5.358   7.224   3.561  0.2501  3.3106  0.7137
   78MOL0     H10743   5.278   7.345   3.447  0.2928 -0.9620 -0.7277
   78MOL0     H10744   4.639   6.604   3.737 -0.7371  1.0402  0.2474
   78MOL0     H10745   4.490   6.419   3.679 -0.0501 -5.3351  0.7421
   78MOL0     H10746   4.150   6.173   3.823  2.2223  0.5655  4.0623
   78MOL0     H10747   3.965   6.017   3.788 -0.0040 -1.7813 -2.7184
   78MOL0     H10748   3.197   4.026   3.813  0.6683  2.2588 -0.5843
   78MOL0     H10749   3.051   3.875   3.643  1.5675  0.0133  1.0176
   78MOL0     H10750   2.807   3.941   3.229  1.7665  0.3458  0.2647
   78MOL0     H10751   2.667   3.831   3.052 -0.0859 -0.7522 -1.0906
   78MOL0     H10752   2.632   3.670   2.716 -0.8409 -0.8778  1.2808
   78MOL0     H10753   2.568   3.722   2.876  0.6798 -1.3818  0.3802
   78MOL0     H10754   2.726   3.877   2.669 -1.2169  1.3243  0.1105
   78MOL0     H10755   2.742   3.935   2.831  1.0821 -0.1941 -1.1883
   78MOL0     H10756   2.487   3.885   2.669  1.3525 -1.3867 -0.7628
   78MOL0     H10757   2.471   3.928   2.834  0.6641 -1.2327  0.4762
   78MOL0     H10758   2.620   4.126   2.662 -0.1385  1.0032 -1.4119
   78MOL0     H10759   2.562   4.137   2.833 -0.2100  3.1465 -2.0676
   78MOL0     H10760   2.223   4.214   2.578  0.3506  2.0141  1.7208
   78MOL0     H10761   2.996   3.568   2.987 -0.8814 -1.9125  1.7039
   78MOL0     H10762   3.245   3.703   3.130 -0.8429  2.1142 -0.1622
   78MOL0     H10763   3.168   3.621   3.276  0.6741  1.1597  0.8296
   78MOL0     H10764   3.166   3.540   3.120 -2.5402 -0.3719  2.9203
   79MOL0     O10765   3.564   8.793   1.176 -0.0103  0.6750  0.9916
   79MOL0     C10766   3.450   8.783   1.224 -0.8673  0.1754 -0.0866
   79MOL0     O10767   3.347   8.882   1.231  0.6371  0.1780 -0.1167
   79MOL0     C10768   3.365   9.014   1.178 -0.2665  0.2499  0.0849
   79MOL0     C10769   3.429   9.030   1.055 -0.9181 -0.5314  1.1224
   79MOL0     C10770   3.445   9.162   1.008  0.2374  0.7649 -0.4069
   79MOL0     C10771   3.389   9.269   1.082  0.3713 -0.1807  0.2103
   79MOL0     O10772   3.396   9.387   1.022 -0.4723  0.0582 -0.2944
   79MOL0     C10773   3.461   9.491   1.092  0.5063  0.2813 -0.1108
   79MOL0     C10774   3.477   9.614   1.004  0.1603  0.2239 -0.6182
   79MOL0     C10775   3.575   9.586   0.892 -0.3396  0.4870  0.0139
   79MOL0     C10776   3.554   9.687   0.779 -0.3772 -0.2917 -0.0498
   79MOL0     C10777   3.656   9.679   0.666  0.1193  0.8686  0.3954
   79MOL0     C10778   3.803   9.693   0.720 -0.2497  0.4705  0.7775
   79MOL0     C10779   3.910   9.681   0.612 -0.4258 -0.2691  0.4708
   79MOL0     C10780   4.058   9.705   0.653 -0.6227  0.1695  0.0441
   79MOL0     N10781   4.109   9.823   0.588 -0.4559 -0.6325  0.1921
   79MOL0     C10782   4.152   9.824   0.460 -1.0765 -0.2112  0.9557
   79MOL0     C10783   4.196   9.954   0.442  0.7477 -0.1065 -0.7794
   79MOL0     C10784   4.274  10.032   0.337  0.4303  0.5836  0.4563
   79MOL0     C10785   4.426  10.040   0.364  0.1206 -0.5864 -0.4583
   79MOL0     C10786   4.501  10.054   0.231 -0.7964  0.6691  0.6486
   79MOL0     C10787   4.652  10.063   0.255  0.4679 -0.7690 -0.2333
   79MOL0     O10788   4.684  10.163   0.355 -0.3549 -0.8744  0.0552
   79MOL0     C10789   4.811  10.213   0.348 -0.2763  0.2851  0.7630
   79MOL0     C10790   4.838  10.337   0.418  0.0472 -0.2986  0.6900
   79MOL0     C10791   4.959  10.402   0.424  0.8778 -0.0686  0.2081
   79MOL0     C10792   4.956  10.519   0.516 -0.8287  0.1221 -0.1712
   79MOL0     C10793   5.069  10.360   0.357  0.1815 -0.1726 -0.3845
   79MOL0     C10794   5.201  10.429   0.364  0.1108  0.2909 -0.2165
   79MOL0     O10795   5.303  10.354   0.317 -0.4722  0.3673  0.7674
   79MOL0     C10796   5.433  10.383   0.364  0.0150 -0.4292  0.5460
   79MOL0     C10797   5.474  10.364   0.496  0.4953  0.7187 -0.9911
   79MOL0     C10798   5.611  10.384   0.531  0.4040  0.1055 -0.2003
   79MOL0     C10799   5.709  10.411   0.429 -1.0921 -0.2490 -1.1775
   79MOL0     O10800   5.844  10.440   0.467  0.2897  0.5983 -0.7658
   79MOL0     C10801   5.937  10.503   0.375 -0.2510 -0.4949  0.0526
   79MOL0     C10802   6.069  10.545   0.450  0.3245 -0.3082 -0.4043
   79MOL0     C10803   6.185  10.570   0.348  0.3631  1.1163 -0.2656
   79MOL0     C10804   6.318  10.586   0.420  1.1391 -0.5365 -0.7805
   79MOL0     C10805   6.418  10.597   0.309 -0.1878  0.0796  0.4890
   79MOL0     C10806   6.570  10.629   0.361 -0.9188  0.0252 -0.6620
   79MOL0     C10807   6.597  10.778   0.396  1.1373 -0.5925  0.3095
   79MOL0     C10808   6.729  10.803   0.475 -0.3761 -0.2570  0.4372
   79MOL0    Cl10809   6.680  10.878   0.628  0.0117 -0.1588  0.5563
   79MOL0     C10810   5.662  10.421   0.298  0.8441  0.1467  0.0286
   79MOL0     C10811   5.527  10.420   0.270 -0.7809  0.1533  0.1723
   79MOL0     O10812   5.214  10.551   0.407 -0.2190  0.2765 -0.3961
   79MOL0     C10813   5.052  10.233   0.286  0.1438  0.3091  0.0625
   79MOL0     C10814   4.927  10.160   0.287 -0.4695 -0.5272 -0.1316
   79MOL0     N10815   4.168  10.025   0.557 -0.7440 -0.7196  0.1669
   79MOL0     N10816   4.106   9.945   0.641  0.1500 -0.6188  0.2763
   79MOL0     C10817   3.318   9.246   1.197  0.7151  0.2101 -0.9194
   79MOL0     C10818   3.307   9.120   1.253  0.8567  0.5283 -0.0916
   79MOL0     C10819   3.432   8.644   1.272 -0.8157 -0.4714  0.4151
   79MOL0     C10820   3.454   8.543   1.179  0.0960  0.5759 -0.3232
   79MOL0     C10821   3.406   8.416   1.210  0.3645  0.4523 -0.7396
   79MOL0     C10822   3.324   8.390   1.322 -0.2930  0.0615 -0.7901
   79MOL0     O10823   3.256   8.271   1.324 -0.3865  0.6875  0.0801
   79MOL0     C10824   3.228   8.213   1.459 -1.1709 -0.1040  1.1040
   79MOL0     C10825   3.357   8.187   1.541  0.2418  0.4316 -0.1784
   79MOL0     C10826   3.448   8.078   1.486 -0.7702  0.1170  0.6972
   79MOL0     C10827   3.507   8.104   1.349 -0.0523 -0.4238 -0.8367
   79MOL0     C10828   3.596   8.002   1.298  0.9126  0.2113  0.4490
   79MOL0     C10829   3.663   7.913   1.247  0.1388  0.5014 -0.1208
   79MOL0     C10830   3.328   8.490   1.426 -0.6095 -0.1414 -0.3787
   79MOL0     C10831   3.376   8.623   1.398  0.0522 -0.6645 -0.1956
   79MOL0     C10832   3.350   8.727   1.507 -0.4507  0.1028 -0.0159
   79MOL0     H10833   3.479   8.956   0.993 -0.2688  1.3366 -0.6898
   79MOL0     H10834   3.489   9.177   0.910  2.6941 -0.4151  0.4380
   79MOL0     H10835   3.558   9.463   1.133  0.5920  1.3261  0.4336
   79MOL0     H10836   3.406   9.523   1.181  0.9734 -2.4517  1.2907
   79MOL0     H10837   3.378   9.637   0.965 -0.5061 -2.6196 -0.8345
   79MOL0     H10838   3.513   9.702   1.058 -3.5512  2.2972 -1.2161
   79MOL0     H10839   3.673   9.609   0.934 -0.4303 -0.8097  1.0003
   79MOL0     H10840   3.556   9.488   0.848  3.6903 -1.4874  2.0961
   79MOL0     H10841   3.450   9.677   0.745 -1.6960  1.4775  3.0807
   79MOL0     H10842   3.558   9.790   0.816 -0.1137  0.3280 -1.7315
   79MOL0     H10843   3.646   9.746   0.580 -1.8107 -0.8576 -0.8185
   79MOL0     H10844   3.638   9.576   0.634 -0.5496  0.9162  0.5978
   79MOL0     H10845   3.805   9.794   0.761 -0.0506 -0.3067  2.7697
   79MOL0     H10846   3.841   9.619   0.791  2.7209  0.0596 -1.0730
   79MOL0     H10847   3.876   9.760   0.545  3.7285  0.1567 -1.4528
   79MOL0     H10848   3.903   9.580   0.570 -0.1308 -0.6730  1.3680
   79MOL0     H10849   4.058   9.729   0.760 -1.6418  1.6442 -0.2537
   79MOL0     H10850   4.121   9.617   0.636  0.2198  0.3692  1.8725
   79MOL0     H10851   4.170   9.740   0.393 -0.8241 -0.9038  1.8677
   79MOL0     H10852   4.240  10.135   0.320  2.9809  1.1314 -2.1564
   79MOL0     H10853   4.265   9.984   0.239 -0.2559  1.2989  0.1594
   79MOL0     H10854   4.443  10.132   0.420  3.1937 -1.1081 -0.3596
   79MOL0     H10855   4.464   9.959   0.429  1.8966  2.2037  2.2605
   79MOL0     H10856   4.492   9.965   0.168  1.9510  0.6200  0.2307
   79MOL0     H10857   4.454  10.136   0.175 -1.5358  1.6707  2.6153
   79MOL0     H10858   4.682   9.968   0.299 -0.2562 -0.8018  0.1995
   79MOL0     H10859   4.704  10.074   0.159  0.3634 -2.2765 -0.4894
   79MOL0     H10860   4.755  10.373   0.477  0.8980  2.9469  0.0689
   79MOL0     H10861   5.043  10.507   0.582  0.2891  0.9453 -1.4348
   79MOL0     H10862   4.877  10.518   0.591  0.3572  0.3507  1.1315
   79MOL0     H10863   4.974  10.619   0.475 -1.5032  0.7377  1.0034
   79MOL0     H10864   5.392  10.342   0.564  0.4140  1.4426 -0.8444
   79MOL0     H10865   5.653  10.385   0.631  4.2024 -2.4284 -1.5607
   79MOL0     H10866   5.962  10.426   0.301 -2.7475 -0.7968 -0.5540
   79MOL0     H10867   5.888  10.588   0.326 -3.9551 -1.1509  2.2419
   79MOL0     H10868   6.056  10.634   0.513 -0.5205 -2.2413  2.3251
   79MOL0     H10869   6.093  10.457   0.510  1.0736 -0.8935 -1.5214
   79MOL0     H10870   6.144  10.660   0.300 -1.8886  0.1522 -0.2681
   79MOL0     H10871   6.196  10.490   0.275  0.3863  0.1464  0.7668
   79MOL0     H10872   6.344  10.508   0.493 -0.5391 -0.3590  0.0413
   79MOL0     H10873   6.308  10.681   0.473 -3.0942  0.6158 -3.2053
   79MOL0     H10874   6.418  10.504   0.251  0.2105  0.0653  0.5127
   79MOL0     H10875   6.392  10.676   0.236  1.8150 -0.9914 -1.4937
   79MOL0     H10876   6.640  10.606   0.280  0.3746  0.3402  0.3471
   79MOL0     H10877   6.599  10.570   0.448  1.5994  0.5071 -1.0936
   79MOL0     H10878   6.516  10.820   0.456 -0.3592 -0.1812 -1.8504
   79MOL0     H10879   6.605  10.833   0.301  1.5710 -2.4491 -0.7862
   79MOL0     H10880   6.797  10.855   0.407 -0.0995 -1.5151 -0.2615
   79MOL0     H10881   6.766  10.703   0.498 -3.8239 -2.1690 -1.5337
   79MOL0     H10882   5.742  10.434   0.225  1.9393  2.0245  1.4684
   79MOL0     H10883   5.484  10.452   0.176 -1.5079  0.3602  0.5634
   79MOL0     H10884   5.132  10.202   0.220  1.0093  0.5756  0.9503
   79MOL0     H10885   4.922  10.068   0.231 -2.7064 -1.0652  0.8454
   79MOL0     H10886   3.265   9.335   1.230  2.3186  0.6674  0.5782
   79MOL0     H10887   3.251   9.105   1.345  2.0654  0.5697  0.6698
   79MOL0     H10888   3.504   8.571   1.087 -0.7531 -0.8526 -1.2537
   79MOL0     H10889   3.407   8.340   1.133  2.2896  1.2584 -1.5850
   79MOL0     H10890   3.164   8.278   1.519 -0.5032  1.7771 -0.1357
   79MOL0     H10891   3.191   8.111   1.446  1.5728 -0.9489 -1.0336
   79MOL0     H10892   3.331   8.160   1.644 -0.3848 -1.3299 -0.7525
   79MOL0     H10893   3.426   8.272   1.540  1.9469 -0.8981 -0.2754
   79MOL0     H10894   3.537   8.061   1.547  0.5734  0.3869 -1.0976
   79MOL0     H10895   3.389   7.986   1.493  0.4959 -0.9324 -1.4840
   79MOL0     H10896   3.556   8.202   1.343  0.5335 -0.6467  0.0733
   79MOL0     H10897   3.435   8.118   1.268  0.3653 -0.8510 -1.2873
   79MOL0     H10898   3.724   7.828   1.228  0.2239  0.1503  1.5561
   79MOL0     H10899   3.270   8.478   1.517 -2.0390  0.4094 -1.1749
   79MOL0     H10900   3.442   8.779   1.533 -0.0898 -0.0353 -0.9940
   79MOL0     H10901   3.272   8.796   1.472 -0.9847 -0.7557 -0.5598
   79MOL0     H10902   3.319   8.668   1.594  3.5099 -2.9302 -0.4025
   80MOL0     O10903   8.010   4.196   8.805 -0.3843  0.7057  0.1578
   80MOL0     C10904   7.962   4.306   8.773  1.0684  0.3058 -0.8636
   80MOL0     O10905   8.028   4.402   8.698 -0.2260  0.1294  0.5206
   80MOL0     C10906   8.162   4.386   8.659 -0.3398 -0.2231 -0.1537
   80MOL0     C10907   8.202   4.283   8.580 -0.2361  0.9238 -0.0718
   80MOL0     C10908   8.340   4.278   8.541  0.4211  0.1013 -0.7996
   80MOL0     C10909   8.425   4.389   8.579  0.5912  0.6797  0.1982
   80MOL0     O10910   8.544   4.404   8.525  0.7938  0.0707 -0.0265
   80MOL0     C10911   8.637   4.308   8.592 -0.3316 -0.0993 -0.4889
   80MOL0     C10912   8.695   4.381   8.709  0.7058  0.9106 -0.3615
   80MOL0     C10913   8.767   4.514   8.680 -0.9793  1.2452  0.7704
   80MOL0     C10914   8.904   4.472   8.610  1.7815 -0.3394  0.1209
   80MOL0     C10915   8.965   4.592   8.532 -0.9550  0.0815 -0.1010
   80MOL0     C10916   9.113   4.553   8.494 -0.1477 -0.0921  0.6136
   80MOL0     C10917   9.190   4.670   8.430  0.3772 -0.2173 -0.1145
   80MOL0     C10918   9.186   4.678   8.275  0.3739  0.4455 -0.0948
   80MOL0     N10919   9.054   4.711   8.225  0.3713 -0.0308 -0.6269
   80MOL0     C10920   8.955   4.622   8.210  1.0684  0.5605  0.0342
   80MOL0     C10921   8.845   4.689   8.160 -0.7880 -0.9102 -0.0246
   80MOL0     C10922   8.719   4.619   8.105 -0.8510 -0.6882  0.7502
   80MOL0     C10923   8.617   4.583   8.211  0.9824 -0.5307  0.5354
   80MOL0     C10924   8.514   4.694   8.232  0.3294  0.6391 -0.6930
   80MOL0     C10925   8.380   4.640   8.291  0.1438  0.0624  0.0988
   80MOL0     O10926   8.296   4.750   8.334 -0.3649  0.1723  0.5105
   80MOL0     C10927   8.166   4.739   8.362  0.3409  0.2589  0.6956
   80MOL0     C10928   8.100   4.618   8.365 -0.1357  0.6326 -0.3659
   80MOL0     C10929   7.969   4.597   8.410  0.4691 -0.0547  0.4427
   80MOL0     C10930   7.901   4.465   8.416  0.0432  0.2243  0.9628
   80MOL0     C10931   7.901   4.715   8.456  0.3651 -0.4510 -1.1780
   80MOL0     C10932   7.765   4.725   8.514  0.7790 -0.4525 -0.5469
   80MOL0     O10933   7.748   4.802   8.619 -0.3829  0.3265 -0.6906
   80MOL0     C10934   7.624   4.838   8.670 -0.1974  0.2225  0.4133
   80MOL0     C10935   7.508   4.839   8.588  0.2228  0.1204  0.2031
   80MOL0     C10936   7.387   4.884   8.631  0.1770  0.2576 -0.7134
   80MOL0     C10937   7.367   4.913   8.770  0.5331  0.6019  0.4976
   80MOL0     O10938   7.246   4.954   8.822 -0.0609 -0.3159  0.1581
   80MOL0     C10939   7.130   4.976   8.740 -1.9299 -0.3240  0.7287
   80MOL0     C10940   7.021   4.942   8.836  0.3028 -0.5192 -0.1218
   80MOL0     C10941   6.894   4.907   8.757  0.0295 -0.3536 -0.7186
   80MOL0     C10942   6.766   4.910   8.834 -0.0512 -0.3075 -0.5545
   80MOL0     C10943   6.758   4.822   8.961  0.2779 -0.3781  0.4555
   80MOL0     C10944   6.624   4.850   9.033  1.0351 -0.5935  0.1619
   80MOL0     C10945   6.580   4.752   9.143  0.1716  0.0233  0.9158
   80MOL0     C10946   6.457   4.802   9.231 -0.0503  0.5439  0.1767
   80MOL0    Cl10947   6.320   4.727   9.143  0.1180  0.3041 -0.1058
   80MOL0     C10948   7.480   4.906   8.857  0.7006 -0.2251  0.4667
   80MOL0     C10949   7.597   4.868   8.804 -0.5003  1.0118 -0.4799
   80MOL0     O10950   7.683   4.654   8.468 -0.2829 -0.1713 -0.8606
   80MOL0     C10951   7.976   4.836   8.457  0.4862 -0.1954 -0.6861
   80MOL0     C10952   8.101   4.849   8.406  0.1528  0.0142 -0.1215
   80MOL0     N10953   8.898   4.815   8.127  0.7910  0.4325  0.0945
   80MOL0     N10954   9.011   4.828   8.181  0.1707  0.5386  0.4025
   80MOL0     C10955   8.385   4.496   8.652  0.0935 -0.7255 -0.4326
   80MOL0     C10956   8.256   4.494   8.694  0.2006 -0.0697  0.1812
   80MOL0     C10957   7.821   4.330   8.807 -0.2673  0.5049 -1.0854
   80MOL0     C10958   7.751   4.443   8.762 -0.7336 -0.2986 -0.5969
   80MOL0     C10959   7.615   4.471   8.785  0.3932 -0.4407 -0.6460
   80MOL0     C10960   7.532   4.389   8.856  0.1021 -0.1212 -0.3991
   80MOL0     O10961   7.395   4.399   8.875  1.1708  0.3495  0.1655
   80MOL0     C10962   7.335   4.506   8.809  0.9268 -0.5927 -0.2895
   80MOL0     C10963   7.188   4.504   8.824 -0.0410  0.7094 -0.7102
   80MOL0     C10964   7.139   4.479   8.963 -0.2290 -0.3343  0.3068
   80MOL0     C10965   6.988   4.486   8.964  0.8983  0.2625  0.0713
   80MOL0     C10966   6.950   4.467   9.103  0.0199 -0.2341  0.1711
   80MOL0     C10967   6.901   4.462   9.216 -0.3268 -0.4612 -0.0684
   80MOL0     C10968   7.596   4.281   8.913 -0.2339  0.9821 -0.1948
   80MOL0     C10969   7.735   4.246   8.888  0.6835 -0.3613 -0.5154
   80MOL0     C10970   7.769   4.115   8.931 -0.5261  0.7549 -0.5188
   80MOL0     H10971   8.137   4.199   8.559  1.1525  0.2184 -1.7861
   80MOL0     H10972   8.373   4.198   8.475  1.8006  1.1218 -1.4069
   80MOL0     H10973   8.707   4.272   8.516 -1.6465 -0.9090 -1.3491
   80MOL0     H10974   8.590   4.226   8.646 -0.6903 -0.2379 -1.0064
   80MOL0     H10975   8.623   4.395   8.791  1.3046  1.6049  0.0585
   80MOL0     H10976   8.764   4.316   8.764  1.1101  0.9184 -0.8576
   80MOL0     H10977   8.709   4.580   8.615 -1.5107 -1.4157 -1.5907
   80MOL0     H10978   8.794   4.573   8.769  0.8887  1.3882  0.1625
   80MOL0     H10979   8.971   4.436   8.688  0.5707  0.2136  1.4678
   80MOL0     H10980   8.882   4.395   8.535  0.2752  1.4827 -1.3975
   80MOL0     H10981   8.991   4.676   8.597 -0.0002  1.0284 -1.6410
   80MOL0     H10982   8.897   4.630   8.455 -0.0716  0.2015 -0.8444
   80MOL0     H10983   9.168   4.529   8.586  4.3673  0.6629 -1.5948
   80MOL0     H10984   9.123   4.469   8.424  3.6579  2.5454 -2.4319
   80MOL0     H10985   9.296   4.652   8.450  0.2089 -0.4798  0.5524
   80MOL0     H10986   9.163   4.760   8.484  3.3502  1.6811 -1.5271
   80MOL0     H10987   9.253   4.755   8.235  0.6336  2.0097  3.0582
   80MOL0     H10988   9.213   4.581   8.233 -1.2717  0.9941 -2.6072
   80MOL0     H10989   8.956   4.517   8.236 -0.4274  0.0944 -1.6308
   80MOL0     H10990   8.753   4.526   8.060 -2.1559 -0.2802 -1.2318
   80MOL0     H10991   8.677   4.685   8.028  1.4206 -0.1535 -0.1099
   80MOL0     H10992   8.568   4.492   8.176 -0.1825 -0.6503  2.3363
   80MOL0     H10993   8.673   4.562   8.302 -0.1760 -1.0885  1.1428
   80MOL0     H10994   8.563   4.764   8.299  3.2930  1.1520 -3.1509
   80MOL0     H10995   8.494   4.755   8.143 -4.3168  0.7834  0.1917
   80MOL0     H10996   8.331   4.590   8.207  0.2210  3.2384 -2.0119
   80MOL0     H10997   8.391   4.566   8.371  0.6115  1.6825  1.6003
   80MOL0     H10998   8.148   4.524   8.340 -1.7487 -0.2232 -0.3844
   80MOL0     H10999   7.966   4.379   8.398 -0.9104  0.0280 -2.1233
   80MOL0     H11000   7.828   4.464   8.335  0.4969  1.6065  0.5022
   80MOL0     H11001   7.844   4.448   8.508 -1.2076 -0.0772  0.1595
   80MOL0     H11002   7.516   4.821   8.481  1.6929  0.0605  0.3030
   80MOL0     H11003   7.320   4.918   8.552 -0.5835  1.4204  0.4066
   80MOL0     H11004   7.129   5.080   8.706  0.0087 -0.4437  0.2051
   80MOL0     H11005   7.142   4.907   8.656  2.2149 -0.2534  1.0907
   80MOL0     H11006   7.041   4.856   8.902 -3.6906 -1.3940  0.2186
   80MOL0     H11007   6.991   5.026   8.899  3.5843  1.9295 -1.5572
   80MOL0     H11008   6.909   4.808   8.713  0.9990 -0.9818  0.9064
   80MOL0     H11009   6.879   4.986   8.684  1.7355  1.6568  0.9530
   80MOL0     H11010   6.683   4.894   8.765  0.4164 -0.6953 -1.0362
   80MOL0     H11011   6.749   5.013   8.865  0.7696 -0.7045  1.3620
   80MOL0     H11012   6.758   4.716   8.935  0.2538 -0.1671 -0.4639
   80MOL0     H11013   6.848   4.841   9.020  0.8963 -2.0074  0.1022
   80MOL0     H11014   6.557   4.833   8.948  1.7502  0.7825 -0.7052
   80MOL0     H11015   6.598   4.952   9.059 -0.1723 -1.1580  1.2758
   80MOL0     H11016   6.666   4.745   9.210 -0.5854 -0.3898  1.8743
   80MOL0     H11017   6.564   4.652   9.101  3.4953 -0.3883  0.3609
   80MOL0     H11018   6.441   4.910   9.235  0.0433  0.6980 -2.1213
   80MOL0     H11019   6.465   4.743   9.323 -2.0533 -0.0548  0.0168
   80MOL0     H11020   7.466   4.938   8.960 -1.1562 -1.0012  0.4992
   80MOL0     H11021   7.672   4.849   8.879 -1.5467  0.5022  0.4569
   80MOL0     H11022   7.924   4.922   8.497  0.9824  0.3162 -1.1103
   80MOL0     H11023   8.145   4.948   8.399 -0.3817  0.2039 -0.8783
   80MOL0     H11024   8.443   4.586   8.672 -0.8133 -0.2347  0.0516
   80MOL0     H11025   8.208   4.576   8.747  0.4711 -0.0551  0.4028
   80MOL0     H11026   7.806   4.518   8.706  0.2123 -0.1662  0.4738
   80MOL0     H11027   7.584   4.566   8.741  1.6462 -0.3495 -1.4040
   80MOL0     H11028   7.375   4.600   8.847  1.9897 -0.9751 -0.4271
   80MOL0     H11029   7.354   4.510   8.701  0.8210  1.6672 -0.2595
   80MOL0     H11030   7.159   4.427   8.752  4.1748 -0.7531 -1.1425
   80MOL0     H11031   7.151   4.605   8.801  1.0662  1.0718 -0.9603
   80MOL0     H11032   7.164   4.378   8.999  2.7304  0.2749  0.2351
   80MOL0     H11033   7.181   4.561   9.022 -1.0666  2.0363 -2.1550
   80MOL0     H11034   6.928   4.420   8.901 -0.9815 -1.5538  3.4642
   80MOL0     H11035   6.966   4.588   8.931 -0.6290 -0.1243 -0.2174
   80MOL0     H11036   6.865   4.432   9.313 -2.2717 -4.3004 -1.7368
   80MOL0     H11037   7.531   4.213   8.968  2.3710 -0.6390  1.0561
   80MOL0     H11038   7.789   4.045   8.849 -0.7760 -2.7232  2.1378
   80MOL0     H11039   7.860   4.112   8.992 -0.4500  0.0082 -0.6606
   80MOL0     H11040   7.689   4.074   8.992 -0.0308  3.1201  1.8931
   81MOL0     O11041   9.353   9.546   2.150 -0.1502  1.2473  0.1996
   81MOL0     C11042   9.264   9.478   2.203 -1.2633 -0.2705  0.1250
   81MOL0     O11043   9.280   9.348   2.221 -0.4485  1.1477 -0.2765
   81MOL0     C11044   9.390   9.293   2.158 -0.1996 -0.0014 -0.7527
   81MOL0     C11045   9.366   9.200   2.057 -0.7523  0.5611 -0.1684
   81MOL0     C11046   9.475   9.138   1.991  0.2120 -1.1121 -0.0962
   81MOL0     C11047   9.607   9.166   2.017  0.5830  0.5222  0.1301
   81MOL0     O11048   9.712   9.095   1.959  0.9518 -0.2953  0.5039
   81MOL0     C11049   9.700   9.033   1.831 -0.8570 -0.0877  0.5560
   81MOL0     C11050   9.852   9.026   1.773  0.0182 -0.3956  0.5121
   81MOL0     C11051   9.890   9.171   1.756 -0.6951  0.8761 -0.6218
   81MOL0     C11052  10.023   9.195   1.689 -0.1672  0.1995 -1.2078
   81MOL0     C11053  10.148   9.173   1.778 -0.2569 -0.4103  0.6746
   81MOL0     C11054  10.171   9.279   1.887 -0.1275  0.4028 -0.5106
   81MOL0     C11055  10.210   9.222   2.031 -0.2746 -0.3444 -0.5364
   81MOL0     C11056  10.096   9.148   2.087  0.6899 -0.3860 -0.3599
   81MOL0     N11057  10.136   9.128   2.225 -0.3669 -0.3458  0.4943
   81MOL0     C11058  10.231   9.040   2.268 -0.3678 -0.4521  0.2579
   81MOL0     C11059  10.243   9.051   2.401  0.3285 -0.2105  0.1507
   81MOL0     C11060  10.339   8.976   2.481  0.8753 -0.1813 -0.7108
   81MOL0     C11061  10.418   9.071   2.566  0.4604  0.2132 -0.6970
   81MOL0     C11062  10.512   8.984   2.653  0.3686  0.9434 -0.1478
   81MOL0     C11063  10.647   8.936   2.615 -0.1880  0.6468 -0.0953
   81MOL0     O11064  10.638   8.865   2.494 -0.2536  0.3266  0.3660
   81MOL0     C11065  10.760   8.830   2.441 -0.0130  0.0683  0.5860
   81MOL0     C11066  10.758   8.794   2.309  0.5711  0.0155  0.5689
   81MOL0     C11067  10.877   8.750   2.249 -0.8672 -0.3529 -0.4224
   81MOL0     C11068  10.854   8.711   2.103 -0.0545  0.2140 -0.0968
   81MOL0     C11069  11.000   8.732   2.328  0.2855  0.5661  0.7866
   81MOL0     C11070  11.126   8.679   2.274  0.0988 -0.3925 -0.5500
   81MOL0     O11071  11.230   8.664   2.362  0.3676 -0.0753  0.4319
   81MOL0     C11072  11.336   8.596   2.311 -0.3780  0.8683  0.1390
   81MOL0     C11073  11.447   8.675   2.274 -0.9386  0.5558  0.4797
   81MOL0     C11074  11.554   8.608   2.220  0.3324 -0.0902 -0.0963
   81MOL0     C11075  11.566   8.471   2.200 -0.6912  0.0200  0.0191
   81MOL0     O11076  11.686   8.414   2.177  0.5839 -0.1885  0.2610
   81MOL0     C11077  11.692   8.270   2.149  0.4824 -0.4942 -0.2536
   81MOL0     C11078  11.826   8.228   2.103 -0.2328 -0.5113  1.0410
   81MOL0     C11079  11.840   8.079   2.101  0.1061 -0.1421 -0.1053
   81MOL0     C11080  11.992   8.050   2.111  0.3268  1.1042  0.7889
   81MOL0     C11081  12.033   7.902   2.095 -0.2274 -0.3712  0.7342
   81MOL0     C11082  12.182   7.880   2.118 -0.1904  0.6629 -0.9661
   81MOL0     C11083  12.270   7.931   1.999  0.0544 -0.1567  0.4426
   81MOL0     C11084  12.393   7.988   2.056  0.3828  0.2300  0.1834
   81MOL0    Cl11085  12.522   8.051   1.938 -0.7172 -0.0731  0.0147
   81MOL0     C11086  11.453   8.398   2.245 -0.2861  0.3476  0.1591
   81MOL0     C11087  11.343   8.454   2.294  0.4276  0.3924  0.2281
   81MOL0     O11088  11.125   8.659   2.152 -0.0797 -0.4062 -0.4164
   81MOL0     C11089  10.995   8.775   2.463  0.1448 -0.2480  0.0914
   81MOL0     C11090  10.880   8.822   2.518 -0.3359  0.1037  0.5316
   81MOL0     N11091  10.144   9.137   2.433 -0.2014 -0.0194 -0.1362
   81MOL0     N11092  10.084   9.186   2.334  0.6562 -0.7198  0.1278
   81MOL0     C11093   9.634   9.256   2.126  0.9375 -0.0391 -0.5135
   81MOL0     C11094   9.523   9.324   2.192 -0.9376 -0.0766  0.7457
   81MOL0     C11095   9.146   9.541   2.270  0.4176  0.5481  0.5836
   81MOL0     C11096   9.137   9.676   2.246  1.1087 -0.2150  0.2539
   81MOL0     C11097   9.038   9.755   2.307 -0.1257 -0.0535 -0.1813
   81MOL0     C11098   8.940   9.698   2.390  0.3226 -0.5123 -0.3971
   81MOL0     O11099   8.839   9.773   2.443  0.1778  0.8025  0.0066
   81MOL0     C11100   8.732   9.715   2.517  0.3475  1.0419 -0.4736
   81MOL0     C11101   8.630   9.665   2.411  0.3783  0.1878  0.2099
   81MOL0     C11102   8.492   9.624   2.483  0.2179  0.1279  0.4213
   81MOL0     C11103   8.448   9.488   2.428  0.4709  0.2322 -0.3772
   81MOL0     C11104   8.391   9.507   2.290  0.1541  0.4213  0.4563
   81MOL0     C11105   8.337   9.537   2.186  0.2537 -0.2152 -1.3226
   81MOL0     C11106   8.944   9.559   2.409  0.6064 -0.4570 -0.5686
   81MOL0     C11107   9.048   9.480   2.350  0.0770 -0.7914  0.0485
   81MOL0     C11108   9.044   9.332   2.387 -0.8748  0.3043  0.2853
   81MOL0     H11109   9.264   9.172   2.031 -1.7899  2.5825  1.5151
   81MOL0     H11110   9.451   9.076   1.906  1.1117  0.9542 -1.9617
   81MOL0     H11111   9.632   9.083   1.761 -0.3409 -1.7873 -1.2388
   81MOL0     H11112   9.668   8.929   1.838 -1.3854 -0.0305 -0.7369
   81MOL0     H11113   9.921   8.967   1.833  0.8220 -3.8760 -3.3599
   81MOL0     H11114   9.849   8.971   1.679 -2.0109 -1.7738  1.3140
   81MOL0     H11115   9.815   9.218   1.692 -0.6440  2.2046  0.2469
   81MOL0     H11116   9.883   9.219   1.854 -2.7298  0.6315 -0.6040
   81MOL0     H11117  10.026   9.122   1.608 -1.4462  0.0509 -1.1470
   81MOL0     H11118  10.035   9.297   1.650  0.8874 -0.4976 -2.7924
   81MOL0     H11119  10.236   9.176   1.714 -0.2415 -2.8550  0.4994
   81MOL0     H11120  10.142   9.069   1.813 -2.3675 -0.6179 -0.1790
   81MOL0     H11121  10.252   9.347   1.859  1.9171 -0.1033  3.4325
   81MOL0     H11122  10.081   9.340   1.896 -1.3407 -1.3488 -0.3356
   81MOL0     H11123  10.234   9.311   2.090 -0.0236  2.0348 -3.9381
   81MOL0     H11124  10.298   9.158   2.045  0.4059  1.0088  2.1716
   81MOL0     H11125  10.004   9.207   2.082  1.4324  0.7209 -1.5089
   81MOL0     H11126  10.087   9.046   2.047 -1.8856 -0.6739  0.7609
   81MOL0     H11127  10.290   8.983   2.198  0.2246  1.9571 -1.3501
   81MOL0     H11128  10.405   8.916   2.418 -1.9648 -1.8604 -2.2818
   81MOL0     H11129  10.285   8.914   2.553  1.6211 -0.3958 -0.3366
   81MOL0     H11130  10.480   9.139   2.507 -1.5429  2.6201 -0.2340
   81MOL0     H11131  10.357   9.131   2.634 -1.5823 -0.8644 -1.4620
   81MOL0     H11132  10.542   9.054   2.732 -1.7415 -0.9189  2.4485
   81MOL0     H11133  10.448   8.908   2.697 -1.6484  2.0760 -0.9840
   81MOL0     H11134  10.722   9.015   2.604  1.3378 -0.8595 -0.9876
   81MOL0     H11135  10.675   8.869   2.696  0.0794  0.0207 -0.7038
   81MOL0     H11136  10.668   8.788   2.250  1.1285  0.1516 -0.3158
   81MOL0     H11137  10.754   8.734   2.066 -0.7795 -1.9996  0.3046
   81MOL0     H11138  10.873   8.604   2.091 -1.6592 -0.2061  0.8366
   81MOL0     H11139  10.928   8.753   2.034  0.7490 -0.3300  0.4047
   81MOL0     H11140  11.445   8.783   2.287  1.1451  0.6382  0.5362
   81MOL0     H11141  11.641   8.669   2.194  0.4421 -0.5058 -0.7248
   81MOL0     H11142  11.675   8.215   2.243  0.6293 -0.7384 -0.3695
   81MOL0     H11143  11.616   8.244   2.074 -0.0894  2.3725 -0.7724
   81MOL0     H11144  11.846   8.264   2.002  1.1150 -2.2864  0.6247
   81MOL0     H11145  11.901   8.277   2.165  1.8919 -0.3569 -1.4719
   81MOL0     H11146  11.813   8.029   2.008 -1.8199 -1.3081  1.0131
   81MOL0     H11147  11.802   8.032   2.192 -1.9526  1.3675 -0.1106
   81MOL0     H11148  12.012   8.066   2.217 -1.3818 -1.2580  1.5386
   81MOL0     H11149  12.057   8.112   2.047 -1.6537  1.8458 -0.6355
   81MOL0     H11150  11.977   7.827   2.151 -0.9017  1.0156  1.9860
   81MOL0     H11151  12.009   7.870   1.993 -0.5435  0.9981  0.3610
   81MOL0     H11152  12.213   7.776   2.136 -0.0112  0.5527 -1.8881
   81MOL0     H11153  12.207   7.933   2.211 -0.3591  1.0676 -1.1496
   81MOL0     H11154  12.219   8.008   1.940  0.1497 -0.8849 -0.6129
   81MOL0     H11155  12.292   7.850   1.929 -1.1797  1.2935 -1.7308
   81MOL0     H11156  12.439   7.915   2.124 -3.4572  0.3045  3.1770
   81MOL0     H11157  12.354   8.062   2.126  1.6834 -0.3214  1.5402
   81MOL0     H11158  11.461   8.290   2.238  0.2395  0.3713  0.3733
   81MOL0     H11159  11.255   8.392   2.308  0.8353 -0.6188 -1.3487
   81MOL0     H11160  11.083   8.764   2.527  0.6764 -0.4024 -0.6550
   81MOL0     H11161  10.885   8.845   2.624  1.0425  3.2275 -0.0999
   81MOL0     H11162   9.730   9.293   2.160 -0.4334  1.5623  1.8550
   81MOL0     H11163   9.545   9.386   2.278  1.4797  0.7035 -0.3463
   81MOL0     H11164   9.208   9.728   2.182 -0.5599  0.3611 -1.2087
   81MOL0     H11165   9.036   9.864   2.304  0.0215  0.0499  1.9913
   81MOL0     H11166   8.773   9.645   2.591  2.0421  2.3192 -0.1432
   81MOL0     H11167   8.686   9.800   2.570  2.5435  0.6917  2.2361
   81MOL0     H11168   8.671   9.576   2.362 -0.6799  0.6576 -1.6237
   81MOL0     H11169   8.614   9.742   2.336 -2.8348 -1.7081 -1.2680
   81MOL0     H11170   8.506   9.623   2.591 -1.6476 -0.2388  0.6907
   81MOL0     H11171   8.412   9.694   2.458 -3.0833 -4.4928 -3.9578
   81MOL0     H11172   8.375   9.443   2.495  1.1539  0.9129  0.8691
   81MOL0     H11173   8.525   9.411   2.417 -0.1847 -0.5644  0.4912
   81MOL0     H11174   8.281   9.570   2.101 -0.9996 -1.0612 -0.8527
   81MOL0     H11175   8.882   9.504   2.478  1.1340 -0.8209 -0.3775
   81MOL0     H11176   9.137   9.298   2.433 -1.9829 -3.9484 -0.2536
   81MOL0     H11177   8.975   9.313   2.469  1.6069  1.2562  2.7583
   81MOL0     H11178   9.016   9.272   2.300  2.3236  0.9662 -1.3407
   82MOL0     O11179   6.749   9.855   5.960 -0.0142  1.0820  0.7123
   82MOL0     C11180   6.662   9.935   5.995 -0.5952 -0.8820  0.3079
   82MOL0     O11181   6.687  10.062   6.018 -0.6080 -0.0759  0.8087
   82MOL0     C11182   6.782  10.136   5.947  1.1455  0.2785 -1.4906
   82MOL0     C11183   6.799  10.115   5.811 -0.2546  0.8487 -0.3181
   82MOL0     C11184   6.894  10.193   5.742  0.4281  0.1581  0.3632
   82MOL0     C11185   6.961  10.294   5.811 -1.1077  0.3932 -0.2388
   82MOL0     O11186   7.069  10.367   5.761  0.1724 -0.1319 -0.4906
   82MOL0     C11187   7.155  10.282   5.686  0.1298  0.6723 -0.4247
   82MOL0     C11188   7.299  10.336   5.711 -0.5001  0.2956  0.9110
   82MOL0     C11189   7.419  10.244   5.668  0.1311 -0.8523 -1.3196
   82MOL0     C11190   7.433  10.245   5.521  0.8170  0.0839 -0.1768
   82MOL0     C11191   7.550  10.168   5.475 -0.0366 -0.0584 -0.3486
   82MOL0     C11192   7.685  10.196   5.544  0.2181  0.3032  0.2002
   82MOL0     C11193   7.805  10.171   5.453 -0.2608 -0.1963  0.7448
   82MOL0     C11194   7.932  10.182   5.538 -0.4545 -0.7405  0.3532
   82MOL0     N11195   8.045  10.136   5.460 -0.0220 -0.5233  0.5942
   82MOL0     C11196   8.094  10.200   5.349 -0.0405  0.4044 -0.0728
   82MOL0     C11197   8.171  10.098   5.291  0.2126 -0.0906  0.5520
   82MOL0     C11198   8.235  10.123   5.158  0.4311  0.9743 -0.4037
   82MOL0     C11199   8.382  10.150   5.185 -0.1845  1.0459  1.4317
   82MOL0     C11200   8.418  10.295   5.231  0.0363 -0.1500  0.1312
   82MOL0     C11201   8.387  10.410   5.125  1.5174  0.3112 -0.6005
   82MOL0     O11202   8.450  10.530   5.166  0.3214  0.5354 -0.4214
   82MOL0     C11203   8.446  10.634   5.073  0.8109  0.0376 -0.2911
   82MOL0     C11204   8.322  10.667   5.008 -0.6074  0.3167 -0.0925
   82MOL0     C11205   8.316  10.772   4.908  0.2130 -0.1540 -0.7470
   82MOL0     C11206   8.187  10.791   4.829  0.8344  0.1729 -0.7327
   82MOL0     C11207   8.426  10.858   4.892  0.2268 -0.9917 -1.3411
   82MOL0     C11208   8.430  10.971   4.793  0.2642  0.3847 -0.1017
   82MOL0     O11209   8.548  11.036   4.787 -0.5739  0.5740  0.9478
   82MOL0     C11210   8.591  11.123   4.696 -0.5099 -0.4867  0.4174
   82MOL0     C11211   8.714  11.121   4.667  0.2502  0.1311 -0.0043
   82MOL0     C11212   8.773  11.213   4.571 -0.0134  0.0440  0.0379
   82MOL0     C11213   8.690  11.309   4.509  0.1884 -0.3091 -0.0544
   82MOL0     O11214   8.737  11.414   4.437  0.0304 -0.5597  0.5566
   82MOL0     C11215   8.855  11.483   4.481  1.1629 -0.0618  0.2543
   82MOL0     C11216   8.865  11.625   4.418  0.4061  0.0224  0.5026
   82MOL0     C11217   8.735  11.703   4.419  0.4550 -0.0340 -0.5563
   82MOL0     C11218   8.635  11.650   4.311 -0.1565  0.0354  0.0172
   82MOL0     C11219   8.526  11.747   4.271  0.3464  0.1085  0.6275
   82MOL0     C11220   8.429  11.677   4.168 -1.4732  0.2160 -0.3376
   82MOL0     C11221   8.310  11.759   4.122  0.1020 -0.7649  0.5322
   82MOL0     C11222   8.212  11.674   4.029  0.3005  0.4300 -0.8382
   82MOL0    Cl11223   8.300  11.583   3.901 -0.0774  0.0375  0.2992
   82MOL0     C11224   8.550  11.308   4.536  0.5173  0.0830  0.1740
   82MOL0     C11225   8.504  11.211   4.622 -0.2658 -0.0067 -1.1448
   82MOL0     O11226   8.334  10.983   4.710 -0.0932 -0.5928  0.7179
   82MOL0     C11227   8.544  10.839   4.970 -0.4623  0.2927 -0.5642
   82MOL0     C11228   8.544  10.732   5.064 -0.1296  0.1736  0.3855
   82MOL0     N11229   8.177   9.984   5.366  1.6567 -0.1513 -0.5250
   82MOL0     N11230   8.101  10.009   5.466 -0.4970 -0.0436  0.2826
   82MOL0     C11231   6.921  10.328   5.942 -1.1454 -0.0398 -0.8023
   82MOL0     C11232   6.843  10.242   6.015 -0.1552  0.3603 -1.6272
   82MOL0     C11233   6.524   9.892   6.020  0.9338  0.3637  1.3110
   82MOL0     C11234   6.425   9.991   6.045  0.7708 -0.3154 -0.3208
   82MOL0     C11235   6.305   9.944   6.080 -0.8315 -1.2240 -0.4279
   82MOL0     C11236   6.277   9.811   6.114  0.1320  0.3591 -1.2215
   82MOL0     O11237   6.152   9.778   6.154 -0.3038  0.2369 -0.3030
   82MOL0     C11238   6.060   9.880   6.203  0.2779  0.3641  0.3036
   82MOL0     C11239   5.978   9.951   6.090 -0.0436 -0.1066 -0.4069
   82MOL0     C11240   5.901  10.066   6.158  0.5278 -0.2314  0.0451
   82MOL0     C11241   5.972  10.190   6.210 -0.3175  0.4594 -0.8849
   82MOL0     C11242   5.888  10.302   6.193  0.4480 -1.2900 -0.2835
   82MOL0     C11243   5.816  10.401   6.183  0.5806  0.7059  1.1214
   82MOL0     C11244   6.370   9.718   6.078  0.6040 -0.6030  0.2937
   82MOL0     C11245   6.484   9.753   6.034 -0.5589 -0.6250  0.6593
   82MOL0     C11246   6.572   9.635   5.996 -0.1719 -1.3234 -0.2794
   82MOL0     H11247   6.752  10.033   5.757  0.7205  0.7679 -1.0794
   82MOL0     H11248   6.917  10.175   5.637 -2.5007  0.8226 -0.4887
   82MOL0     H11249   7.116  10.276   5.584 -0.9844 -1.8114  0.0715
   82MOL0     H11250   7.144  10.180   5.722 -1.7203  0.9333 -0.1506
   82MOL0     H11251   7.320  10.433   5.666 -1.5489  1.2880  2.4265
   82MOL0     H11252   7.324  10.350   5.817  1.3177 -0.4755  0.6179
   82MOL0     H11253   7.508  10.287   5.717 -1.8625 -1.6506  3.5976
   82MOL0     H11254   7.403  10.151   5.723  0.1380 -0.2109 -0.1963
   82MOL0     H11255   7.343  10.207   5.473  0.9191 -0.0724 -0.2440
   82MOL0     H11256   7.442  10.346   5.480 -3.6946  0.3115 -1.0553
   82MOL0     H11257   7.566  10.192   5.369  3.6376 -0.4815 -0.0061
   82MOL0     H11258   7.537  10.060   5.466  0.3582  0.0322 -2.7782
   82MOL0     H11259   7.674  10.301   5.571 -0.6325  0.4463 -0.6662
   82MOL0     H11260   7.690  10.148   5.643 -0.7917 -2.3355 -0.9146
   82MOL0     H11261   7.805  10.254   5.381 -1.1491 -0.1653  0.7640
   82MOL0     H11262   7.794  10.078   5.395  1.1362 -0.3459  0.6899
   82MOL0     H11263   7.939  10.285   5.574 -1.7956 -0.0798 -1.1301
   82MOL0     H11264   7.925  10.115   5.624  1.5777  1.0600  2.0405
   82MOL0     H11265   8.068  10.299   5.313  0.1125  1.0703  1.5716
   82MOL0     H11266   8.188  10.203   5.101 -0.9182 -1.6227 -3.2212
   82MOL0     H11267   8.225  10.034   5.095 -3.9518 -1.5909  3.2603
   82MOL0     H11268   8.429  10.080   5.255  0.7209 -0.1388 -0.2823
   82MOL0     H11269   8.442  10.142   5.094  0.0375  1.6930  1.5123
   82MOL0     H11270   8.375  10.318   5.329  0.4566 -1.7036  0.7055
   82MOL0     H11271   8.527  10.295   5.243  0.6517  1.6765 -3.6720
   82MOL0     H11272   8.417  10.388   5.023 -0.6188  0.2102 -1.2670
   82MOL0     H11273   8.280  10.436   5.118  1.6890  1.7585  1.3188
   82MOL0     H11274   8.229  10.616   5.027 -0.5917 -0.2162 -1.4063
   82MOL0     H11275   8.211  10.774   4.723 -1.2354 -0.3839 -1.1782
   82MOL0     H11276   8.147  10.892   4.839  1.1392  0.0779  1.9916
   82MOL0     H11277   8.105  10.730   4.869  0.0240  0.6927 -1.5541
   82MOL0     H11278   8.778  11.052   4.722  0.4705 -1.3338 -2.0166
   82MOL0     H11279   8.879  11.207   4.552 -0.0691 -0.0369 -0.2688
   82MOL0     H11280   8.833  11.499   4.587 -0.1752 -0.4627  0.0662
   82MOL0     H11281   8.938  11.415   4.463 -0.5853 -1.7995 -1.8375
   82MOL0     H11282   8.949  11.671   4.470  1.3637 -1.1948  0.0692
   82MOL0     H11283   8.895  11.607   4.314 -0.0794  1.3802  0.0992
   82MOL0     H11284   8.770  11.804   4.397 -0.2915  0.2725 -0.3850
   82MOL0     H11285   8.697  11.696   4.521  0.3512 -1.4798 -0.6730
   82MOL0     H11286   8.588  11.564   4.361  2.6707 -2.6233 -1.5257
   82MOL0     H11287   8.684  11.619   4.219 -1.1328  1.6557 -1.0911
   82MOL0     H11288   8.458  11.786   4.348 -2.8101 -2.4760 -0.6054
   82MOL0     H11289   8.563  11.829   4.209 -1.9294  0.3520 -0.5131
   82MOL0     H11290   8.393  11.584   4.214  0.1184  0.4655  1.5312
   82MOL0     H11291   8.496  11.668   4.082  4.3125  2.7279  3.2799
   82MOL0     H11292   8.345  11.837   4.055 -0.2075 -1.7568 -0.8315
   82MOL0     H11293   8.257  11.818   4.197 -0.5239 -1.3052  0.5339
   82MOL0     H11294   8.137  11.742   3.987 -1.3097 -0.8310 -0.1333
   82MOL0     H11295   8.148  11.605   4.086 -1.8338  1.2468 -2.1171
   82MOL0     H11296   8.491  11.391   4.501  1.7061 -0.0405 -2.3965
   82MOL0     H11297   8.398  11.222   4.644  0.2586  1.6093  0.9542
   82MOL0     H11298   8.631  10.903   4.963  0.6959 -1.3256 -1.6794
   82MOL0     H11299   8.627  10.733   5.134  0.7320  4.0110 -0.4788
   82MOL0     H11300   6.959  10.412   5.998 -1.5757 -0.7696  0.6392
   82MOL0     H11301   6.815  10.246   6.120  0.9266  1.7992 -1.3735
   82MOL0     H11302   6.439  10.098   6.036 -1.2105  0.0865  0.8195
   82MOL0     H11303   6.237  10.027   6.091  1.0336  0.5786 -1.7588
   82MOL0     H11304   5.989   9.829   6.269  0.3204 -3.1306 -2.0848
   82MOL0     H11305   6.105   9.958   6.265  0.0879  0.3726  0.4327
   82MOL0     H11306   5.902   9.882   6.052  0.9338 -0.3355 -2.0361
   82MOL0     H11307   6.027   9.976   5.996 -2.4150 -0.7256 -1.9141
   82MOL0     H11308   5.820  10.091   6.089  0.0803  0.8796  0.9386
   82MOL0     H11309   5.838  10.019   6.234  1.5982 -0.0370  1.0936
   82MOL0     H11310   6.070  10.205   6.164  0.3524  0.9378  0.6223
   82MOL0     H11311   5.997  10.161   6.312  1.0178 -3.2289 -2.0855
   82MOL0     H11312   5.743  10.479   6.181  2.0833  2.1697  0.9187
   82MOL0     H11313   6.342   9.616   6.101  0.0998 -0.3747  0.7173
   82MOL0     H11314   6.516   9.541   5.994 -1.2281 -0.7435  0.8344
   82MOL0     H11315   6.603   9.649   5.892 -1.5907  2.8655 -0.2864
   82MOL0     H11316   6.660   9.621   6.060  1.2822 -1.8538 -2.2700
   83MOL0     O11317  10.450   3.970   9.646 -0.5679  0.1070  0.2645
   83MOL0     C11318  10.456   4.055   9.554  0.8201  0.8697  0.2841
   83MOL0     O11319  10.422   4.187   9.568 -0.3354 -0.1529 -0.1289
   83MOL0     C11320  10.418   4.252   9.687 -0.3124 -0.2815  0.9318
   83MOL0     C11321  10.495   4.367   9.706 -0.2183 -0.0336 -0.5950
   83MOL0     C11322  10.478   4.446   9.822 -0.0632 -0.8704  0.1311
   83MOL0     C11323  10.401   4.400   9.929  0.7804  0.4787 -0.0065
   83MOL0     O11324  10.406   4.462  10.051 -0.7492 -0.5099  0.1524
   83MOL0     C11325  10.286   4.517  10.114 -0.2399  0.8759 -0.1288
   83MOL0     C11326  10.254   4.659  10.079 -0.2332 -0.2230  0.4122
   83MOL0     C11327  10.120   4.714  10.122 -0.1459 -0.0994 -0.4704
   83MOL0     C11328  10.109   4.707  10.272 -0.3062 -0.0275 -0.1775
   83MOL0     C11329   9.994   4.801  10.312 -0.1274 -1.1142  0.1537
   83MOL0     C11330   9.967   4.820  10.455 -0.2633 -0.2774 -0.0284
   83MOL0     C11331  10.090   4.879  10.524  0.0866  0.1347  0.0290
   83MOL0     C11332  10.052   4.936  10.660 -0.3840 -0.4045 -0.1436
   83MOL0     N11333   9.999   5.077  10.648 -0.4628 -0.2820 -0.1931
   83MOL0     C11334  10.064   5.196  10.670  0.0032  1.3996 -0.2972
   83MOL0     C11335   9.979   5.292  10.667 -0.3779 -0.7428  0.6074
   83MOL0     C11336  10.010   5.435  10.702 -0.3230 -0.4816  0.3441
   83MOL0     C11337   9.923   5.496  10.818  0.6621 -0.9075 -0.2023
   83MOL0     C11338   9.940   5.644  10.824 -0.2769  0.1817 -1.1008
   83MOL0     C11339  10.086   5.692  10.848  0.7981 -0.2209  0.8098
   83MOL0     O11340  10.086   5.833  10.823  0.2327  0.0832 -0.5109
   83MOL0     C11341  10.209   5.900  10.817 -0.2628  0.1608  0.0286
   83MOL0     C11342  10.209   6.038  10.796  0.1784 -0.6439  0.1314
   83MOL0     C11343  10.322   6.112  10.762  0.4516  0.9267  0.0968
   83MOL0     C11344  10.301   6.259  10.727 -0.2458  0.3377  0.0344
   83MOL0     C11345  10.443   6.044  10.769 -0.5442 -0.8234 -0.0035
   83MOL0     C11346  10.572   6.112  10.745 -0.8577 -0.1996  0.3951
   83MOL0     O11347  10.665   6.025  10.684 -0.0091  0.5351 -0.0093
   83MOL0     C11348  10.768   6.089  10.624 -1.2637  0.1156 -0.9518
   83MOL0     C11349  10.888   6.025  10.648  0.6925  0.2530  0.3896
   83MOL0     C11350  11.013   6.068  10.603 -0.6777  0.2411 -0.1344
   83MOL0     C11351  11.009   6.185  10.520  0.5783  0.4529 -0.7556
   83MOL0     O11352  11.131   6.240  10.486 -0.3307 -0.2074 -0.5174
   83MOL0     C11353  11.146   6.378  10.453 -0.6126  0.0460 -0.5324
   83MOL0     C11354  11.284   6.423  10.463 -0.1575  0.3727 -0.0976
   83MOL0     C11355  11.367   6.394  10.337 -0.7347 -0.3386 -0.3625
   83MOL0     C11356  11.509   6.441  10.345 -0.0936 -0.6086  0.1413
   83MOL0     C11357  11.610   6.434  10.231 -0.1250 -0.2755  0.3058
   83MOL0     C11358  11.565   6.500  10.108 -1.0130 -0.8318 -0.4304
   83MOL0     C11359  11.512   6.387  10.022 -0.3049 -0.8237 -0.5214
   83MOL0     C11360  11.453   6.435   9.893  0.1378 -1.0058  0.0684
   83MOL0    Cl11361  11.275   6.465   9.919  0.2815 -0.0990  0.0812
   83MOL0     C11362  10.885   6.237  10.479 -0.0523 -0.4066  1.3943
   83MOL0     C11363  10.766   6.184  10.527 -0.2901 -0.7843  0.4128
   83MOL0     O11364  10.596   6.227  10.779  0.6063  0.6244  0.0372
   83MOL0     C11365  10.441   5.902  10.789 -0.2875 -0.3909  0.5524
   83MOL0     C11366  10.326   5.829  10.815 -0.5761 -0.6253  0.4746
   83MOL0     N11367   9.858   5.240  10.644  0.4695  0.0247  0.5093
   83MOL0     N11368   9.868   5.109  10.642  0.2104 -0.6927 -0.6331
   83MOL0     C11369  10.335   4.277   9.910 -0.4338  0.2348 -0.4889
   83MOL0     C11370  10.347   4.200   9.795  0.3657 -0.3225 -0.4660
   83MOL0     C11371  10.499   4.020   9.416  0.6850 -0.2418  0.1873
   83MOL0     C11372  10.555   4.116   9.334 -0.9472  0.4010  0.1905
   83MOL0     C11373  10.591   4.096   9.199 -0.0460 -0.1297  1.5832
   83MOL0     C11374  10.588   3.960   9.151  0.1108  0.1273  0.6579
   83MOL0     O11375  10.609   3.918   9.023 -0.1004 -0.1943 -0.4561
   83MOL0     C11376  10.704   3.983   8.938 -0.1180 -0.0920  0.7249
   83MOL0     C11377  10.612   4.049   8.831  0.2512  0.4691  0.5658
   83MOL0     C11378  10.685   4.125   8.730  1.4795  0.0644 -0.9443
   83MOL0     C11379  10.594   4.229   8.666 -0.4393 -0.9924  0.4897
   83MOL0     C11380  10.670   4.347   8.620 -0.4422 -0.4901  0.0727
   83MOL0     C11381  10.727   4.438   8.562 -0.2690 -0.3001 -0.7371
   83MOL0     C11382  10.536   3.859   9.230 -0.2899  0.0420 -0.8622
   83MOL0     C11383  10.487   3.891   9.362  0.7680  0.2341 -0.2980
   83MOL0     C11384  10.424   3.782   9.438 -0.0779  0.4008 -0.1429
   83MOL0     H11385  10.568   4.401   9.633  2.5432 -2.6256  0.7454
   83MOL0     H11386  10.537   4.537   9.834  1.7606 -2.1703  1.7192
   83MOL0     H11387  10.309   4.510  10.221 -0.2090  3.1952  0.0486
   83MOL0     H11388  10.200   4.453  10.091 -0.5857  1.1894  0.2853
   83MOL0     H11389  10.330   4.723  10.124  0.4707 -0.5464 -0.3055
   83MOL0     H11390  10.262   4.673   9.971 -2.5387  0.1605  0.2276
   83MOL0     H11391  10.099   4.816  10.087 -0.2937 -0.1316 -0.4793
   83MOL0     H11392  10.041   4.653  10.078 -1.7940 -0.0934  2.2625
   83MOL0     H11393  10.101   4.602  10.304 -0.7401  0.0102 -0.1562
   83MOL0     H11394  10.203   4.748  10.310 -0.0152  1.6220 -2.4995
   83MOL0     H11395   9.904   4.774  10.255  0.3363 -0.3945 -0.9443
   83MOL0     H11396  10.015   4.904  10.283 -1.2473 -0.6905  0.7694
   83MOL0     H11397   9.884   4.891  10.468 -0.6137 -0.4909 -1.0178
   83MOL0     H11398   9.933   4.728  10.503 -1.6241  0.1466 -0.1440
   83MOL0     H11399  10.153   4.941  10.460  1.2192 -0.8737  0.1248
   83MOL0     H11400  10.153   4.793  10.549 -0.7702 -0.5142  0.0074
   83MOL0     H11401   9.988   4.874  10.723 -0.6904  1.4308  1.4353
   83MOL0     H11402  10.147   4.944  10.714  0.7912  0.3428 -2.1635
   83MOL0     H11403  10.168   5.203  10.701 -1.0200  2.6136  3.3508
   83MOL0     H11404   9.995   5.488  10.607 -0.7738 -0.9771  0.1395
   83MOL0     H11405  10.116   5.445  10.730 -0.0491  2.1993 -1.2154
   83MOL0     H11406   9.818   5.476  10.797  0.3567 -0.0163  0.4384
   83MOL0     H11407   9.944   5.449  10.914 -0.0104 -1.7997 -0.4814
   83MOL0     H11408   9.911   5.702  10.736  3.3355  2.9581 -0.7203
   83MOL0     H11409   9.878   5.680  10.906  1.6582  1.4524 -0.0990
   83MOL0     H11410  10.114   5.686  10.954 -2.8578 -1.0773  1.8733
   83MOL0     H11411  10.150   5.636  10.780  0.2221  2.5538 -2.2229
   83MOL0     H11412  10.111   6.083  10.784  0.1013 -0.8427  0.0153
   83MOL0     H11413  10.324   6.312  10.820  1.0023 -2.2477  1.3002
   83MOL0     H11414  10.201   6.294  10.701 -0.4874  1.4740  2.2441
   83MOL0     H11415  10.374   6.288  10.650 -0.3810 -0.7446 -0.5273
   83MOL0     H11416  10.884   5.946  10.722 -1.9418  0.4455  0.5327
   83MOL0     H11417  11.109   6.027  10.634 -1.3508 -0.6263  0.9027
   83MOL0     H11418  11.095   6.391  10.358  1.5504 -3.7945 -2.4797
   83MOL0     H11419  11.082   6.427  10.526  0.0990 -1.8531  1.5031
   83MOL0     H11420  11.279   6.531  10.484  0.6369  0.2228  0.9298
   83MOL0     H11421  11.336   6.379  10.549  2.7804  0.1637 -1.8420
   83MOL0     H11422  11.314   6.442  10.254 -1.0158 -1.1863 -0.6862
   83MOL0     H11423  11.373   6.286  10.320  0.6235 -0.4131  0.4619
   83MOL0     H11424  11.553   6.403  10.438  3.5259  1.7437 -0.4002
   83MOL0     H11425  11.504   6.546  10.375  1.9036 -0.9920  2.1139
   83MOL0     H11426  11.691   6.499  10.266 -0.0527  1.5276 -2.8770
   83MOL0     H11427  11.650   6.335  10.209 -4.7467 -2.3024 -0.1328
   83MOL0     H11428  11.649   6.550  10.057  0.6179 -2.9066  0.0925
   83MOL0     H11429  11.500   6.582  10.140  1.5107  1.4760 -0.8410
   83MOL0     H11430  11.439   6.328  10.079 -1.3269 -0.4584 -1.4061
   83MOL0     H11431  11.591   6.318   9.992 -0.3092 -1.3692  0.6548
   83MOL0     H11432  11.466   6.354   9.820  2.9940 -2.5535  2.0667
   83MOL0     H11433  11.492   6.531   9.859  0.8094 -1.1682  0.3550
   83MOL0     H11434  10.887   6.310  10.399 -2.4404 -1.5669  0.1546
   83MOL0     H11435  10.670   6.220  10.490  1.1956  2.4455 -0.6985
   83MOL0     H11436  10.535   5.848  10.793 -0.6041 -0.9505  0.5676
   83MOL0     H11437  10.337   5.722  10.829  0.3840 -0.5414  0.4093
   83MOL0     H11438  10.285   4.253  10.004  0.6112  0.1599  0.0556
   83MOL0     H11439  10.295   4.105   9.794  0.8930 -0.6132 -0.5937
   83MOL0     H11440  10.564   4.221   9.362 -2.8939  0.6206  0.1365
   83MOL0     H11441  10.637   4.177   9.143  0.3741 -1.3059  0.1578
   83MOL0     H11442  10.754   4.062   8.995  0.8698  0.0530 -0.2892
   83MOL0     H11443  10.780   3.918   8.892  0.3920  1.3155 -0.5180
   83MOL0     H11444  10.526   4.096   8.880 -1.2967 -1.7677  0.1385
   83MOL0     H11445  10.558   3.971   8.776 -1.7112  1.3248  1.1724
   83MOL0     H11446  10.772   4.175   8.773  0.5917 -1.0095  2.3954
   83MOL0     H11447  10.715   4.058   8.648 -2.0485  0.7239 -2.9823
   83MOL0     H11448  10.521   4.259   8.741  1.1655 -0.1960  1.8028
   83MOL0     H11449  10.531   4.177   8.594 -0.5676 -0.0915 -0.0646
   83MOL0     H11450  10.781   4.515   8.511  0.7617 -0.3597  0.2234
   83MOL0     H11451  10.505   3.762   9.195 -2.2050 -0.2488  1.3370
   83MOL0     H11452  10.339   3.828   9.490  0.2187  1.5478 -0.6210
   83MOL0     H11453  10.402   3.706   9.364  0.1965  1.0274 -0.8820
   83MOL0     H11454  10.503   3.747   9.505  0.2867  0.4505 -0.5505
   84MOL0     O11455   6.891   3.817   2.349  0.1509 -0.0740  0.1694
   84MOL0     C11456   6.985   3.744   2.388  0.7942  0.5210  0.4593
   84MOL0     O11457   6.965   3.617   2.428 -0.0695  0.9154 -0.4559
   84MOL0     C11458   6.848   3.559   2.409  0.3851 -0.7267  0.1759
   84MOL0     C11459   6.731   3.596   2.474 -0.3701  0.3684 -0.3564
   84MOL0     C11460   6.616   3.516   2.481  0.2398 -0.2136 -0.2732
   84MOL0     C11461   6.614   3.403   2.401 -0.5087  1.0479 -0.0268
   84MOL0     O11462   6.503   3.326   2.399  0.5056 -0.2100 -0.4751
   84MOL0     C11463   6.480   3.225   2.307 -0.8262  0.5765 -0.2524
   84MOL0     C11464   6.336   3.191   2.308  1.3391  0.0711 -0.0904
   84MOL0     C11465   6.257   3.296   2.244  0.2095  0.1848 -0.0567
   84MOL0     C11466   6.110   3.258   2.242 -0.4384 -0.0783 -0.5143
   84MOL0     C11467   6.021   3.269   2.375  1.0406 -0.0794  0.4533
   84MOL0     C11468   6.033   3.406   2.451 -0.2193  0.8060  0.2974
   84MOL0     C11469   5.941   3.408   2.581  0.5544 -0.1530  0.6425
   84MOL0     C11470   5.980   3.315   2.696 -0.2776 -0.4632  0.5253
   84MOL0     N11471   6.112   3.348   2.742 -0.5229  0.1191  0.8350
   84MOL0     C11472   6.223   3.253   2.725 -0.5911  0.2431 -1.3313
   84MOL0     C11473   6.314   3.302   2.813  0.5038 -0.2498  0.2443
   84MOL0     C11474   6.448   3.261   2.851  0.2762  0.1398 -0.4246
   84MOL0     C11475   6.532   3.231   2.722  0.7951 -1.0266  0.1210
   84MOL0     C11476   6.672   3.170   2.753 -0.1942  0.5688  0.9405
   84MOL0     C11477   6.759   3.120   2.632  0.3186 -0.1717  0.0381
   84MOL0     O11478   6.878   3.043   2.683  0.3013 -0.3098 -0.3772
   84MOL0     C11479   6.990   3.121   2.705 -0.9278  0.2228  0.1908
   84MOL0     C11480   7.048   3.199   2.601 -0.3431 -0.0697  0.0003
   84MOL0     C11481   7.160   3.275   2.620 -0.1290 -0.3320 -0.4637
   84MOL0     C11482   7.201   3.365   2.503  0.8156 -0.1212  0.4996
   84MOL0     C11483   7.235   3.269   2.741  0.3370 -0.1171 -0.1498
   84MOL0     C11484   7.355   3.335   2.777 -0.3712 -0.4462  0.5638
   84MOL0     O11485   7.387   3.360   2.906  0.4980 -0.0514  0.2536
   84MOL0     C11486   7.508   3.422   2.952  0.6356  0.6349  0.4142
   84MOL0     C11487   7.538   3.397   3.085 -0.1946 -0.1488  0.9203
   84MOL0     C11488   7.639   3.467   3.153  0.1901  0.4802  0.3883
   84MOL0     C11489   7.733   3.554   3.088  0.4466  0.0858  0.3614
   84MOL0     O11490   7.836   3.615   3.160 -0.9955 -0.0484 -0.1278
   84MOL0     C11491   7.805   3.659   3.296  0.9178 -0.0071  0.0703
   84MOL0     C11492   7.877   3.580   3.403 -0.1860  0.2826  0.5419
   84MOL0     C11493   7.927   3.650   3.523  1.2722 -0.6972  0.2033
   84MOL0     C11494   7.955   3.551   3.640  0.3794 -0.4645 -0.0691
   84MOL0     C11495   8.021   3.615   3.761  0.3389 -0.0759 -0.1127
   84MOL0     C11496   8.050   3.511   3.876  0.7645  0.6097  0.4629
   84MOL0     C11497   8.186   3.441   3.836  0.1696  0.8463 -0.6866
   84MOL0     C11498   8.283   3.444   3.956 -0.2053  0.2755  0.7632
   84MOL0    Cl11499   8.216   3.342   4.087 -0.1612 -0.0454  0.3765
   84MOL0     C11500   7.709   3.575   2.946 -0.0225  0.5950 -0.2382
   84MOL0     C11501   7.601   3.511   2.880 -0.6481 -0.0931 -0.2647
   84MOL0     O11502   7.434   3.368   2.687 -0.5581  0.1334  0.1482
   84MOL0     C11503   7.177   3.199   2.841  0.4930 -0.6463 -0.7342
   84MOL0     C11504   7.055   3.122   2.832  0.6657 -0.3573  0.5992
   84MOL0     N11505   6.265   3.429   2.863  0.4057  0.2972  0.0432
   84MOL0     N11506   6.142   3.445   2.821  0.5564  0.1784 -0.2684
   84MOL0     C11507   6.735   3.357   2.343  0.7965  0.1557  0.4087
   84MOL0     C11508   6.848   3.430   2.348 -0.2017 -0.3589  0.1019
   84MOL0     C11509   7.113   3.802   2.430  0.5937  0.6028  0.4912
   84MOL0     C11510   7.222   3.711   2.422 -0.4321  0.3893  0.0474
   84MOL0     C11511   7.353   3.768   2.440  0.7163  0.0797  0.2891
   84MOL0     C11512   7.365   3.903   2.473 -0.9440  0.2276 -0.8666
   84MOL0     O11513   7.499   3.941   2.471  0.5056 -0.6130  0.2692
   84MOL0     C11514   7.540   4.068   2.536 -1.1354  0.8876 -0.1829
   84MOL0     C11515   7.689   4.091   2.525  0.0952 -0.3286 -0.5331
   84MOL0     C11516   7.793   3.987   2.485  0.0611 -0.3564  0.1109
   84MOL0     C11517   7.928   4.051   2.460  0.0260 -0.0065  0.1364
   84MOL0     C11518   7.940   4.139   2.347 -0.2363  0.1954  0.5960
   84MOL0     C11519   7.938   4.210   2.253 -1.4346 -0.8415  0.9099
   84MOL0     C11520   7.256   3.985   2.487 -0.7218 -0.5902 -0.6192
   84MOL0     C11521   7.133   3.932   2.455  0.6386 -0.5298  0.7794
   84MOL0     C11522   7.013   4.035   2.442 -0.1494  0.1991  0.9907
   84MOL0     H11523   6.738   3.685   2.535  2.2303  1.0908 -1.5764
   84MOL0     H11524   6.528   3.548   2.535  1.1438  0.3783  0.9059
   84MOL0     H11525   6.544   3.139   2.332 -0.1804  1.4150  1.0680
   84MOL0     H11526   6.510   3.265   2.211  0.9531 -4.1898 -2.0076
   84MOL0     H11527   6.316   3.100   2.250 -0.9850 -3.1924  5.1404
   84MOL0     H11528   6.305   3.176   2.412  3.2228  1.2657  0.6884
   84MOL0     H11529   6.270   3.397   2.285  1.6641 -0.7408  1.8962
   84MOL0     H11530   6.275   3.301   2.136 -2.1490  1.0533 -0.4627
   84MOL0     H11531   6.054   3.317   2.169  0.5408 -3.7415 -4.7094
   84MOL0     H11532   6.112   3.153   2.210 -1.3711 -0.1065 -0.5263
   84MOL0     H11533   6.049   3.195   2.451 -2.7145  0.5115  2.6679
   84MOL0     H11534   5.918   3.248   2.346  0.0914  1.1835  2.6657
   84MOL0     H11535   6.137   3.412   2.482  0.2299 -1.5440 -0.5601
   84MOL0     H11536   6.006   3.485   2.381  0.1760 -0.9759 -2.0158
   84MOL0     H11537   5.840   3.378   2.550  1.0071 -0.9865 -0.0836
   84MOL0     H11538   5.930   3.512   2.613  0.9428  0.0577  0.1121
   84MOL0     H11539   5.906   3.323   2.777 -0.6541  1.3184  0.0454
   84MOL0     H11540   5.987   3.209   2.671  4.3831 -1.1634  3.5784
   84MOL0     H11541   6.242   3.168   2.660  1.5653 -0.9602  0.7244
   84MOL0     H11542   6.444   3.170   2.912  0.2513  0.0303 -0.5909
   84MOL0     H11543   6.496   3.341   2.910 -1.3833  0.4392  0.5809
   84MOL0     H11544   6.480   3.159   2.658 -2.1972  1.1153 -0.0907
   84MOL0     H11545   6.540   3.330   2.675  1.7208 -1.9070 -1.7039
   84MOL0     H11546   6.728   3.241   2.813  1.1842  0.1895  0.1524
   84MOL0     H11547   6.666   3.078   2.812  2.7444  0.1693  0.7758
   84MOL0     H11548   6.701   3.065   2.557  0.1403  1.2778 -0.9240
   84MOL0     H11549   6.806   3.206   2.583  3.2386 -1.3880  0.5104
   84MOL0     H11550   7.006   3.189   2.502 -0.8954  2.4225 -0.0957
   84MOL0     H11551   7.211   3.459   2.558  1.7647  0.4502 -0.6291
   84MOL0     H11552   7.127   3.378   2.424  3.1157  2.7453 -1.3580
   84MOL0     H11553   7.294   3.330   2.459 -0.1419 -1.9466 -0.2036
   84MOL0     H11554   7.478   3.336   3.152  1.1825  0.9194  3.2793
   84MOL0     H11555   7.667   3.426   3.249  1.9828  3.1895  1.1052
   84MOL0     H11556   7.849   3.758   3.307 -0.2066  0.3099  2.1861
   84MOL0     H11557   7.697   3.670   3.307  0.9357 -0.1453  0.3693
   84MOL0     H11558   7.811   3.498   3.432 -1.4303  1.1954  0.3487
   84MOL0     H11559   7.970   3.540   3.361  1.5371  1.6467  2.8063
   84MOL0     H11560   7.865   3.735   3.554  0.9723 -0.5483 -0.7811
   84MOL0     H11561   8.025   3.690   3.497  1.5612 -0.8398  1.0316
   84MOL0     H11562   8.013   3.464   3.611 -0.5157 -1.1559  0.1593
   84MOL0     H11563   7.860   3.510   3.675 -1.0187  2.9870  0.6512
   84MOL0     H11564   8.107   3.674   3.728 -2.9930  4.2205 -2.1059
   84MOL0     H11565   7.957   3.690   3.808  0.8278  1.7806 -2.2648
   84MOL0     H11566   7.966   3.442   3.884 -0.7508  2.4236  0.8232
   84MOL0     H11567   8.053   3.560   3.973 -3.0600  3.9991 -0.8378
   84MOL0     H11568   8.236   3.495   3.755  3.7098  2.6036  2.3743
   84MOL0     H11569   8.160   3.340   3.803 -1.8790  1.1233 -0.0729
   84MOL0     H11570   8.294   3.547   3.991 -1.2057  0.7809 -0.3447
   84MOL0     H11571   8.376   3.403   3.917 -1.7439 -2.9626  0.1356
   84MOL0     H11572   7.780   3.639   2.896  0.9062  0.1886  0.5330
   84MOL0     H11573   7.600   3.531   2.774 -2.8133 -0.1614 -0.3003
   84MOL0     H11574   7.214   3.204   2.942 -1.8960  3.6435  0.1667
   84MOL0     H11575   7.011   3.072   2.917 -0.3925 -0.0723  0.2265
   84MOL0     H11576   6.739   3.264   2.288  1.0817  0.5636 -0.2761
   84MOL0     H11577   6.936   3.389   2.299 -0.4009  0.3091 -0.8517
   84MOL0     H11578   7.226   3.605   2.400 -1.8766  0.6230 -1.5508
   84MOL0     H11579   7.442   3.706   2.430  0.1316 -1.0464  1.6403
   84MOL0     H11580   7.478   4.151   2.504 -0.6318  0.2696 -2.9803
   84MOL0     H11581   7.509   4.046   2.639  0.3747  1.8295  0.5184
   84MOL0     H11582   7.713   4.149   2.615 -3.1105  2.7466 -1.4124
   84MOL0     H11583   7.698   4.171   2.450 -0.2710  0.3714  0.1511
   84MOL0     H11584   7.805   3.916   2.567  2.0174  0.0758  0.2649
   84MOL0     H11585   7.754   3.935   2.397 -2.3707 -1.0875  1.5386
   84MOL0     H11586   8.011   3.983   2.440  1.6352  2.1127 -0.7191
   84MOL0     H11587   7.953   4.109   2.549  0.9582 -1.6916  1.0216
   84MOL0     H11588   7.956   4.270   2.166  3.0435 -2.3331  0.5512
   84MOL0     H11589   7.265   4.093   2.485  0.9654 -0.7128 -2.4759
   84MOL0     H11590   6.992   4.065   2.339  0.1238  2.4474  1.5446
   84MOL0     H11591   6.917   4.006   2.486 -0.1323 -1.6529 -0.0971
   84MOL0     H11592   7.038   4.125   2.499  1.5584 -1.4032  2.9234
   85MOL0     O11593   6.202   1.854   4.674 -0.5950 -0.1054  0.9625
   85MOL0     C11594   6.231   1.927   4.766  0.0130  0.3271 -0.7115
   85MOL0     O11595   6.191   2.055   4.793 -0.5247  0.1254  0.4123
   85MOL0     C11596   6.093   2.115   4.729 -0.3712 -0.7111 -0.3904
   85MOL0     C11597   6.078   2.251   4.763 -0.8236  0.0323  0.4430
   85MOL0     C11598   5.982   2.331   4.701  0.2848  0.6748 -0.3810
   85MOL0     C11599   5.885   2.271   4.613 -0.2451 -0.3543  0.1544
   85MOL0     O11600   5.793   2.357   4.563  0.6974 -0.4024 -0.7381
   85MOL0     C11601   5.673   2.302   4.517  0.0446 -0.1985 -0.0285
   85MOL0     C11602   5.599   2.425   4.446 -0.3419  0.3398 -1.0441
   85MOL0     C11603   5.445   2.427   4.491 -0.5280 -0.3853  0.0359
   85MOL0     C11604   5.355   2.501   4.389 -0.5045 -0.2227  0.6611
   85MOL0     C11605   5.203   2.510   4.421  0.1167  0.0257 -0.1445
   85MOL0     C11606   5.126   2.571   4.306 -0.0777 -0.1920  0.0757
   85MOL0     C11607   4.970   2.561   4.324  0.5871  0.1452  0.1115
   85MOL0     C11608   4.897   2.678   4.269 -0.1513 -0.5884  0.2584
   85MOL0     N11609   4.910   2.794   4.358 -0.3720 -0.1455 -0.2276
   85MOL0     C11610   4.852   2.800   4.483  0.5027  0.0280  0.3805
   85MOL0     C11611   4.919   2.901   4.547  0.2838  0.3917 -0.4965
   85MOL0     C11612   4.887   2.936   4.689 -0.2634 -0.2629 -1.4812
   85MOL0     C11613   4.776   3.039   4.710  0.2690  0.3772  0.5562
   85MOL0     C11614   4.791   3.174   4.636 -0.0864  0.5913  0.0383
   85MOL0     C11615   4.922   3.254   4.676  0.0266  0.1874  0.6162
   85MOL0     O11616   4.956   3.342   4.563  0.8674  0.0153 -0.1797
   85MOL0     C11617   5.089   3.364   4.539 -0.3472  0.5299  0.8726
   85MOL0     C11618   5.159   3.300   4.441 -0.3425  0.5718 -0.7675
   85MOL0     C11619   5.294   3.327   4.426 -0.0595 -0.8373 -0.2624
   85MOL0     C11620   5.349   3.228   4.320 -0.2593  0.0773  0.3681
   85MOL0     C11621   5.366   3.424   4.507 -0.9354  0.6809 -0.1375
   85MOL0     C11622   5.510   3.455   4.493  0.0644 -0.6910 -0.1296
   85MOL0     O11623   5.572   3.434   4.377 -0.1740 -0.4228  0.2930
   85MOL0     C11624   5.705   3.465   4.371 -0.0070 -0.7659 -0.1248
   85MOL0     C11625   5.742   3.548   4.262  0.2269  0.4659  0.6229
   85MOL0     C11626   5.874   3.589   4.240  0.1538  0.0019  0.4515
   85MOL0     C11627   5.979   3.539   4.314  0.1809  0.5309 -0.8015
   85MOL0     O11628   6.111   3.548   4.263 -0.0856  0.2474 -0.6012
   85MOL0     C11629   6.229   3.514   4.338  0.2008 -0.2653 -0.0668
   85MOL0     C11630   6.257   3.365   4.355 -1.0669  0.0407  0.1197
   85MOL0     C11631   6.394   3.349   4.415 -0.3312 -0.7834 -0.1718
   85MOL0     C11632   6.517   3.371   4.326 -0.5401  0.6506 -0.6829
   85MOL0     C11633   6.648   3.348   4.389 -0.2130  0.7684  0.2818
   85MOL0     C11634   6.689   3.436   4.496 -0.4323 -0.0567  0.8874
   85MOL0     C11635   6.816   3.391   4.566  1.2866 -0.4391 -0.9609
   85MOL0     C11636   6.877   3.502   4.645  0.4530 -0.3072 -0.1275
   85MOL0    Cl11637   7.049   3.470   4.669  0.1351 -0.4202 -0.2364
   85MOL0     C11638   5.946   3.466   4.436 -0.5451  0.0411  0.1438
   85MOL0     C11639   5.807   3.434   4.457 -1.0766  0.3601 -0.1828
   85MOL0     O11640   5.560   3.499   4.593  0.1081 -0.7564 -0.7674
   85MOL0     C11641   5.290   3.493   4.608  0.4338  0.3481  0.4603
   85MOL0     C11642   5.150   3.461   4.618  0.9627  0.5825 -0.1850
   85MOL0     N11643   5.017   2.955   4.465  0.1214 -0.1376  0.8039
   85MOL0     N11644   5.005   2.892   4.349  0.0304  0.0486 -0.4757
   85MOL0     C11645   5.906   2.135   4.575  0.6763  0.8415 -0.0698
   85MOL0     C11646   6.012   2.060   4.630  0.4769 -0.4478 -0.3421
   85MOL0     C11647   6.340   1.880   4.855 -0.3921 -0.1460  0.1436
   85MOL0     C11648   6.437   1.977   4.887 -0.9182 -0.0326 -1.0107
   85MOL0     C11649   6.545   1.935   4.973  0.7712 -0.3018 -0.1072
   85MOL0     C11650   6.561   1.808   5.015  0.2371 -0.3232  0.7126
   85MOL0     O11651   6.677   1.777   5.093  0.0756 -0.2351 -0.4700
   85MOL0     C11652   6.669   1.663   5.189  0.0369  0.7647  0.6711
   85MOL0     C11653   6.549   1.661   5.288  0.4414  0.3580 -0.2793
   85MOL0     C11654   6.550   1.516   5.357  0.3790 -1.1566  0.1836
   85MOL0     C11655   6.412   1.467   5.397  0.1250  0.5371 -0.6159
   85MOL0     C11656   6.342   1.447   5.275 -0.2820  0.6346 -1.0168
   85MOL0     C11657   6.283   1.401   5.175 -0.3201 -0.3518  0.4547
   85MOL0     C11658   6.463   1.715   4.981  0.0042 -0.6021 -0.3790
   85MOL0     C11659   6.347   1.748   4.903 -0.5424  0.8273 -0.8073
   85MOL0     C11660   6.245   1.642   4.871 -0.3282  0.5333  0.9226
   85MOL0     H11661   6.148   2.300   4.830 -0.5702  2.3029 -1.3593
   85MOL0     H11662   5.971   2.439   4.709 -3.4795  0.3253  1.1154
   85MOL0     H11663   5.613   2.267   4.600 -1.2030 -3.5293 -2.1126
   85MOL0     H11664   5.690   2.215   4.453  2.5154 -0.7181  1.2091
   85MOL0     H11665   5.662   2.509   4.477  2.2683 -2.7828  3.3656
   85MOL0     H11666   5.619   2.403   4.341  3.5132  0.0773 -0.4018
   85MOL0     H11667   5.417   2.323   4.513  0.2172 -0.2127  1.9990
   85MOL0     H11668   5.433   2.475   4.588  0.8850  1.3789 -0.6221
   85MOL0     H11669   5.403   2.598   4.370 -0.4832 -0.5468 -1.1498
   85MOL0     H11670   5.359   2.445   4.295 -1.1566  2.4235 -1.0789
   85MOL0     H11671   5.181   2.548   4.521 -0.6671 -5.4387  2.1518
   85MOL0     H11672   5.166   2.408   4.438 -2.9031  0.9304 -0.7745
   85MOL0     H11673   5.137   2.680   4.312  0.3065 -0.2323  0.1199
   85MOL0     H11674   5.161   2.534   4.209  2.9480  2.3749  0.0227
   85MOL0     H11675   4.950   2.569   4.431  4.0457  1.7337  0.7823
   85MOL0     H11676   4.935   2.462   4.294 -3.2553  1.6946 -1.1707
   85MOL0     H11677   4.927   2.705   4.167 -0.1631 -2.6611 -0.3412
   85MOL0     H11678   4.790   2.656   4.262 -0.5672  0.5262  2.3754
   85MOL0     H11679   4.775   2.736   4.523  0.7999 -1.3347 -1.1253
   85MOL0     H11680   4.982   2.970   4.730 -0.0169 -0.5659 -1.7987
   85MOL0     H11681   4.858   2.839   4.730 -0.6815  1.2668  2.2209
   85MOL0     H11682   4.683   2.991   4.680  1.1967 -0.9485 -0.3279
   85MOL0     H11683   4.772   3.061   4.817 -0.6772  0.2948  0.5394
   85MOL0     H11684   4.795   3.150   4.530  0.3472 -1.5695  0.4901
   85MOL0     H11685   4.707   3.239   4.663 -0.4793 -0.4122  1.3826
   85MOL0     H11686   4.911   3.316   4.766  1.8856  1.6418 -0.0978
   85MOL0     H11687   5.004   3.185   4.692  0.8802  1.4014  1.6744
   85MOL0     H11688   5.103   3.226   4.384 -2.9977 -0.4149  2.7371
   85MOL0     H11689   5.435   3.171   4.358 -0.2565  0.3881  0.8404
   85MOL0     H11690   5.373   3.283   4.229  0.2580  0.9615  1.0302
   85MOL0     H11691   5.278   3.151   4.289  0.9122 -0.2744 -1.5603
   85MOL0     H11692   5.669   3.581   4.189  0.6437 -2.3509 -1.2227
   85MOL0     H11693   5.900   3.646   4.152 -1.0321  2.6108  1.6889
   85MOL0     H11694   6.306   3.571   4.284  1.1579 -0.7372  0.7792
   85MOL0     H11695   6.223   3.561   4.436 -0.2021  0.9511 -0.6461
   85MOL0     H11696   6.185   3.312   4.418 -1.1275 -1.8220 -1.4177
   85MOL0     H11697   6.251   3.316   4.257 -0.9874  0.7411 -0.2421
   85MOL0     H11698   6.400   3.247   4.453  0.6088 -0.5650  0.3115
   85MOL0     H11699   6.405   3.417   4.501  2.8671 -0.3246 -0.7956
   85MOL0     H11700   6.503   3.476   4.298 -3.6622  1.0732  1.8760
   85MOL0     H11701   6.514   3.310   4.236  0.7069 -0.9494  0.3037
   85MOL0     H11702   6.637   3.248   4.432 -1.6293  0.7492 -0.0672
   85MOL0     H11703   6.728   3.340   4.315 -1.4049  0.3424 -0.9986
   85MOL0     H11704   6.609   3.448   4.570 -2.0365  0.3178 -0.8394
   85MOL0     H11705   6.705   3.532   4.445 -0.9291 -0.2350  0.3904
   85MOL0     H11706   6.886   3.377   4.484  0.5828 -3.2771 -1.1841
   85MOL0     H11707   6.805   3.308   4.637 -2.8669  2.2296  1.9867
   85MOL0     H11708   6.832   3.491   4.744  1.0402 -2.3975 -0.0523
   85MOL0     H11709   6.867   3.603   4.603  0.5019 -0.7877 -1.3277
   85MOL0     H11710   6.021   3.433   4.507  0.5862  2.3603  0.1354
   85MOL0     H11711   5.784   3.371   4.543 -2.1231 -1.2767 -1.5956
   85MOL0     H11712   5.329   3.577   4.665  0.7027  1.2982 -1.0706
   85MOL0     H11713   5.086   3.526   4.677  0.9531  2.0209 -1.6991
   85MOL0     H11714   5.855   2.085   4.494  1.8573 -1.1150  0.3121
   85MOL0     H11715   6.015   1.959   4.590 -2.6246 -0.4157 -0.8797
   85MOL0     H11716   6.449   2.079   4.851  2.3182 -0.3711 -1.2501
   85MOL0     H11717   6.627   2.001   5.000 -0.0167  0.2158  1.1561
   85MOL0     H11718   6.660   1.573   5.127 -1.3844 -0.4779  2.5461
   85MOL0     H11719   6.760   1.649   5.248 -0.9283 -2.3388  1.5976
   85MOL0     H11720   6.455   1.682   5.237  0.7136 -1.3700 -1.5773
   85MOL0     H11721   6.566   1.735   5.367 -1.3644 -0.2921  0.7776
   85MOL0     H11722   6.600   1.452   5.282 -0.3690 -0.6843 -0.7396
   85MOL0     H11723   6.610   1.523   5.448 -0.1611 -1.8251  0.5997
   85MOL0     H11724   6.348   1.534   5.455 -1.9564 -1.7360 -0.1219
   85MOL0     H11725   6.420   1.376   5.457 -0.0062  0.7775 -0.2272
   85MOL0     H11726   6.229   1.358   5.093  1.6015  1.3387 -1.8284
   85MOL0     H11727   6.480   1.617   5.024 -1.3577 -0.4746  0.5409
   85MOL0     H11728   6.295   1.582   4.794  1.7718  2.6554  0.4891
   85MOL0     H11729   6.227   1.571   4.952  0.3746 -1.2044 -0.3674
   85MOL0     H11730   6.149   1.685   4.843 -0.1028 -0.0166 -0.8373
   86MOL0     O11731   5.841   4.408  10.340  0.2453  0.6145 -0.1185
   86MOL0     C11732   5.872   4.391  10.229 -0.2400 -0.0122  1.4817
   86MOL0     O11733   5.844   4.481  10.133  0.0022  0.5364  0.1858
   86MOL0     C11734   5.760   4.594  10.151 -0.0257  0.2691  0.3885
   86MOL0     C11735   5.810   4.710  10.095 -0.5982  0.9589 -0.5157
   86MOL0     C11736   5.740   4.832  10.103 -1.0037 -0.0178 -0.2169
   86MOL0     C11737   5.615   4.841  10.167 -0.2440 -0.7392 -0.5350
   86MOL0     O11738   5.548   4.960  10.165  0.3469 -0.1980  0.0208
   86MOL0     C11739   5.413   4.977  10.230  0.4008 -0.0329 -0.8795
   86MOL0     C11740   5.379   5.128  10.239 -0.1419 -0.0391  0.5517
   86MOL0     C11741   5.498   5.209  10.308 -0.3136  0.8749 -0.4335
   86MOL0     C11742   5.460   5.349  10.328 -0.4119 -0.1585  1.0293
   86MOL0     C11743   5.561   5.422  10.406  0.3668  0.2653 -0.5979
   86MOL0     C11744   5.694   5.439  10.331  0.2796 -0.9058 -0.0010
   86MOL0     C11745   5.781   5.540  10.416 -0.1378  0.3464  0.3570
   86MOL0     C11746   5.726   5.684  10.407 -0.2804 -0.0665  0.0157
   86MOL0     N11747   5.781   5.764  10.294  0.1277 -0.1486  0.3752
   86MOL0     C11748   5.729   5.772  10.167  0.1255  0.0833  0.3281
   86MOL0     C11749   5.834   5.824  10.098 -0.3419  0.2380 -0.3403
   86MOL0     C11750   5.835   5.823   9.944 -0.6167  0.0847 -0.4963
   86MOL0     C11751   5.970   5.815   9.878 -0.5416  1.0580 -0.7617
   86MOL0     C11752   6.042   5.687   9.913 -0.5006  0.0911 -0.6274
   86MOL0     C11753   6.189   5.666   9.863 -0.3689  0.4457  0.5779
   86MOL0     O11754   6.244   5.536   9.887 -0.0020  0.4228 -0.8262
   86MOL0     C11755   6.367   5.498   9.835  0.5933 -0.6980  0.2249
   86MOL0     C11756   6.452   5.578   9.747 -0.1189 -0.7332 -0.7765
   86MOL0     C11757   6.559   5.519   9.682  0.2397 -0.6263  0.2801
   86MOL0     C11758   6.633   5.599   9.572 -0.7478 -0.4984  0.4339
   86MOL0     C11759   6.602   5.384   9.717  0.5626 -1.0681  0.4823
   86MOL0     C11760   6.734   5.332   9.670  0.1823 -0.0661 -0.4643
   86MOL0     O11761   6.834   5.298   9.766  0.1736  0.2432 -0.5163
   86MOL0     C11762   6.961   5.270   9.722 -0.1292  0.0602  0.2807
   86MOL0     C11763   6.993   5.157   9.633  0.4643  0.1498  0.3930
   86MOL0     C11764   7.114   5.142   9.569  0.3809  1.2637  0.2707
   86MOL0     C11765   7.221   5.239   9.592  0.6565  1.0729  0.3854
   86MOL0     O11766   7.340   5.235   9.536  0.0902  0.1749  0.8503
   86MOL0     C11767   7.357   5.127   9.441  0.5152 -0.1271  0.4417
   86MOL0     C11768   7.505   5.123   9.383 -0.4581  0.0359 -0.2347
   86MOL0     C11769   7.526   5.248   9.281  0.7881 -1.0933  0.4754
   86MOL0     C11770   7.497   5.193   9.142  0.2036 -0.8074 -0.9405
   86MOL0     C11771   7.493   5.301   9.046  0.1692 -0.7150 -0.6484
   86MOL0     C11772   7.469   5.245   8.899 -1.1116 -0.0476 -0.1384
   86MOL0     C11773   7.456   5.351   8.788  0.1416  0.1431  0.2616
   86MOL0     C11774   7.435   5.283   8.650 -0.1160 -0.9617  0.5935
   86MOL0    Cl11775   7.310   5.368   8.560 -0.3225  0.1942 -0.5358
   86MOL0     C11776   7.187   5.345   9.676  0.0236  0.2334  0.2141
   86MOL0     C11777   7.060   5.368   9.735 -0.2710 -0.9250  0.6508
   86MOL0     O11778   6.738   5.312   9.551 -0.2245  1.1822  0.6818
   86MOL0     C11779   6.523   5.313   9.800 -0.7670 -0.0803  0.3383
   86MOL0     C11780   6.406   5.370   9.854 -0.1094 -0.9319 -0.5742
   86MOL0     N11781   5.941   5.860  10.179 -0.4835 -0.3895  0.2749
   86MOL0     N11782   5.906   5.813  10.301  0.0049 -0.4914 -0.0827
   86MOL0     C11783   5.569   4.728  10.242 -0.0126 -0.3459 -0.8061
   86MOL0     C11784   5.640   4.605  10.229  0.1100  0.1134  0.5437
   86MOL0     C11785   5.973   4.285  10.193 -0.0766  0.5856  0.2820
   86MOL0     C11786   6.054   4.295  10.082  0.3083 -0.7789 -0.3069
   86MOL0     C11787   6.155   4.200  10.058 -0.1904 -0.0040 -0.3539
   86MOL0     C11788   6.178   4.092  10.144  0.0858 -0.2080  1.0136
   86MOL0     O11789   6.288   4.011  10.118  0.6739  0.4617 -0.1191
   86MOL0     C11790   6.387   4.014  10.218  0.6701  0.3028 -0.4993
   86MOL0     C11791   6.385   3.888  10.305 -0.1007  0.2446  0.8373
   86MOL0     C11792   6.422   3.763  10.225  0.5169  1.0004 -0.3620
   86MOL0     C11793   6.432   3.633  10.312  0.9131 -0.8642 -1.1333
   86MOL0     C11794   6.466   3.512  10.246  0.7522  0.2802 -0.3226
   86MOL0     C11795   6.465   3.419  10.174 -1.1048  0.3943  0.1430
   86MOL0     C11796   6.086   4.066  10.237 -0.0368 -0.3395 -0.0418
   86MOL0     C11797   5.986   4.167  10.267  0.2891  0.1036 -0.8003
   86MOL0     C11798   5.898   4.145  10.393 -0.4519 -0.3552  0.5666
   86MOL0     H11799   5.905   4.701  10.043 -1.2588 -1.6100 -1.4268
   86MOL0     H11800   5.769   4.921  10.048  0.4750 -0.9964 -1.0720
   86MOL0     H11801   5.442   4.952  10.333  0.2849  1.5993 -0.4317
   86MOL0     H11802   5.331   4.921  10.184  0.8003  0.2804 -1.9885
   86MOL0     H11803   5.358   5.174  10.142 -1.8345 -0.5669  0.6309
   86MOL0     H11804   5.284   5.151  10.288 -1.5121 -0.6601 -1.6543
   86MOL0     H11805   5.523   5.155  10.400 -0.6798 -2.5423 -2.1731
   86MOL0     H11806   5.581   5.194  10.239 -2.8261 -2.4329 -3.0904
   86MOL0     H11807   5.428   5.393  10.233 -0.3727 -2.3240 -0.0513
   86MOL0     H11808   5.374   5.361  10.393  0.9305  1.4770  2.5914
   86MOL0     H11809   5.581   5.374  10.502 -1.0102  1.3798  0.2693
   86MOL0     H11810   5.513   5.518  10.423  0.0182  0.9624 -4.4846
   86MOL0     H11811   5.743   5.341  10.323  0.0687 -0.9481 -0.9054
   86MOL0     H11812   5.667   5.480  10.233 -0.5798 -0.7231  0.3060
   86MOL0     H11813   5.881   5.538  10.372 -0.6719 -0.5160 -0.8811
   86MOL0     H11814   5.783   5.503  10.519 -0.9204  1.1834  0.6849
   86MOL0     H11815   5.618   5.695  10.394 -0.0830  0.2847 -1.5385
   86MOL0     H11816   5.750   5.738  10.499  0.8034  2.9162 -1.8561
   86MOL0     H11817   5.640   5.728  10.123  1.3276  1.9750 -4.6049
   86MOL0     H11818   5.783   5.913   9.910 -0.6412  0.4064  0.3604
   86MOL0     H11819   5.779   5.736   9.910 -1.3537 -0.5074  2.0320
   86MOL0     H11820   5.960   5.824   9.769  1.6493  0.5191 -1.0486
   86MOL0     H11821   6.025   5.908   9.896  0.1034  0.4340  0.6294
   86MOL0     H11822   6.048   5.678  10.022 -0.3501  3.1118 -0.2898
   86MOL0     H11823   5.990   5.598   9.878 -0.8389 -0.4823  1.2376
   86MOL0     H11824   6.199   5.679   9.755  3.0496  0.7063  0.8295
   86MOL0     H11825   6.252   5.746   9.903  2.3776  0.7245 -3.7478
   86MOL0     H11826   6.418   5.677   9.720  2.1595  0.6043  0.9119
   86MOL0     H11827   6.590   5.599   9.472 -0.8536  2.3475  0.3864
   86MOL0     H11828   6.738   5.571   9.561 -0.0623  0.8219  2.8372
   86MOL0     H11829   6.626   5.705   9.600  0.9105 -0.4532  0.7459
   86MOL0     H11830   6.920   5.078   9.622  0.9165 -0.6440  2.6151
   86MOL0     H11831   7.126   5.047   9.517 -0.1403  0.9347  0.7445
   86MOL0     H11832   7.337   5.030   9.488 -1.3458 -2.3274 -4.3021
   86MOL0     H11833   7.288   5.141   9.358  0.3374 -0.4845  0.5303
   86MOL0     H11834   7.567   5.137   9.471  2.6267 -1.3895 -2.0371
   86MOL0     H11835   7.533   5.026   9.342  0.2210 -1.0300  2.5902
   86MOL0     H11836   7.626   5.290   9.292 -0.9612  3.7064  0.2685
   86MOL0     H11837   7.463   5.335   9.304 -0.0526 -0.1242 -4.3662
   86MOL0     H11838   7.398   5.148   9.145 -1.8549  3.2659  0.1188
   86MOL0     H11839   7.577   5.124   9.114  0.4859 -0.1422 -1.8545
   86MOL0     H11840   7.408   5.364   9.072 -1.2630 -2.5020 -0.8227
   86MOL0     H11841   7.583   5.363   9.043 -1.0305  1.1082 -0.3050
   86MOL0     H11842   7.387   5.173   8.904 -0.4581 -1.0466 -2.5753
   86MOL0     H11843   7.560   5.188   8.880 -2.0012 -2.5182  2.2960
   86MOL0     H11844   7.533   5.428   8.788  0.4008 -0.1065  1.0201
   86MOL0     H11845   7.361   5.397   8.817  1.3346  1.8759  1.5974
   86MOL0     H11846   7.410   5.178   8.663  1.2227 -1.2613  0.8735
   86MOL0     H11847   7.522   5.305   8.587 -2.2373  0.4983 -2.0211
   86MOL0     H11848   7.260   5.424   9.689 -0.8879  1.2642 -0.6470
   86MOL0     H11849   7.038   5.463   9.783  0.3404 -1.1939  1.4919
   86MOL0     H11850   6.537   5.207   9.816  0.1761  0.3332  2.6533
   86MOL0     H11851   6.347   5.297   9.908 -1.0126 -0.8632 -1.4290
   86MOL0     H11852   5.475   4.736  10.295  0.1117  1.2401 -0.7883
   86MOL0     H11853   5.602   4.519  10.284 -0.7179 -0.8078 -1.3770
   86MOL0     H11854   6.038   4.381  10.017  0.5709  1.3006  2.2290
   86MOL0     H11855   6.224   4.219   9.976  0.3300  1.9712  0.4867
   86MOL0     H11856   6.484   4.026  10.169 -0.5943  0.1673 -3.2282
   86MOL0     H11857   6.367   4.098  10.284  0.7596  0.7749 -1.0589
   86MOL0     H11858   6.285   3.877  10.345 -0.5655  1.0481 -0.0526
   86MOL0     H11859   6.449   3.899  10.393  2.6141  1.4040 -1.1237
   86MOL0     H11860   6.343   3.747  10.152  1.7930 -3.8298 -1.0356
   86MOL0     H11861   6.519   3.771  10.175  1.0064  2.1448  0.7007
   86MOL0     H11862   6.335   3.619  10.360  0.9374  2.4755  0.1551
   86MOL0     H11863   6.501   3.639  10.396 -2.5487  0.7943  1.8527
   86MOL0     H11864   6.481   3.330  10.116 -1.9597 -0.8848  1.7867
   86MOL0     H11865   6.093   3.981  10.304 -0.0555 -1.6189 -1.6154
   86MOL0     H11866   5.911   4.220  10.470  2.0191 -1.5109  1.3634
   86MOL0     H11867   5.791   4.132  10.372 -0.0376 -1.7342 -0.8954
   86MOL0     H11868   5.932   4.049  10.433 -0.8326 -0.5701  0.3938
   87MOL0     O11869  10.072   6.067   7.807  0.1936 -0.2229 -0.9116
   87MOL0     C11870  10.170   5.996   7.827 -0.2434  0.3515 -0.0649
   87MOL0     O11871  10.173   5.866   7.881 -0.0976  0.1269  0.3951
   87MOL0     C11872  10.066   5.814   7.949 -0.4725  0.3004 -0.3799
   87MOL0     C11873   9.996   5.706   7.891  0.4778 -0.0042 -0.0608
   87MOL0     C11874   9.891   5.641   7.952 -0.3746 -0.3242 -0.1679
   87MOL0     C11875   9.856   5.697   8.074  0.1228 -0.0554  0.2216
   87MOL0     O11876   9.781   5.631   8.170  0.0149 -0.0650  0.0705
   87MOL0     C11877   9.672   5.547   8.123 -0.4589 -0.1639  0.1976
   87MOL0     C11878   9.662   5.404   8.175  0.0456 -0.5686 -0.5763
   87MOL0     C11879   9.672   5.397   8.330  0.2909  0.5128 -0.1970
   87MOL0     C11880   9.653   5.251   8.364  0.4606 -0.0140  0.8695
   87MOL0     C11881   9.503   5.202   8.340  0.1183 -0.2373 -0.0308
   87MOL0     C11882   9.493   5.062   8.412  0.0334 -0.5663  0.0325
   87MOL0     C11883   9.350   4.998   8.437  0.9191  0.5941  0.8078
   87MOL0     C11884   9.242   5.104   8.468 -0.3965 -0.5730 -0.7369
   87MOL0     N11885   9.139   5.028   8.532  0.4637  0.6154 -0.4484
   87MOL0     C11886   9.004   5.049   8.500  0.1634 -1.1241 -0.2679
   87MOL0     C11887   8.937   4.986   8.597 -0.0377  0.1189 -0.9025
   87MOL0     C11888   8.788   4.951   8.608 -0.1378  0.4926 -0.2780
   87MOL0     C11889   8.696   5.000   8.496  0.4616  0.2419 -0.5520
   87MOL0     C11890   8.550   4.966   8.512 -0.3442  0.8124  0.0818
   87MOL0     C11891   8.475   5.024   8.631  0.0603  0.3318  0.6632
   87MOL0     O11892   8.526   4.979   8.760 -0.0844  0.5572 -0.3871
   87MOL0     C11893   8.512   5.078   8.854 -1.2267 -0.2448 -0.0376
   87MOL0     C11894   8.596   5.185   8.870  0.2166 -0.8004 -0.5070
   87MOL0     C11895   8.576   5.282   8.976 -0.5821  0.1480  0.3181
   87MOL0     C11896   8.674   5.397   8.982 -0.2519 -0.0172 -0.0606
   87MOL0     C11897   8.471   5.264   9.071 -0.2284 -0.3137  0.1889
   87MOL0     C11898   8.438   5.357   9.181  1.0503 -0.9314  0.3373
   87MOL0     O11899   8.387   5.478   9.147 -0.0385 -0.0991 -0.4449
   87MOL0     C11900   8.346   5.569   9.243 -0.5016  0.1074 -0.4062
   87MOL0     C11901   8.305   5.539   9.376 -0.6250 -0.2685  0.9258
   87MOL0     C11902   8.244   5.638   9.452  0.1619  0.0772 -0.5520
   87MOL0     C11903   8.226   5.758   9.405  0.8064  0.1679 -0.3302
   87MOL0     O11904   8.166   5.836   9.504 -0.2110 -0.3445 -0.0737
   87MOL0     C11905   8.068   5.931   9.465  0.2543  0.3552  0.3146
   87MOL0     C11906   7.965   5.938   9.576 -0.1466  0.6888  0.1057
   87MOL0     C11907   7.879   5.799   9.575  0.0962 -0.4990 -1.2812
   87MOL0     C11908   7.732   5.823   9.612  0.2731  0.0966 -0.1620
   87MOL0     C11909   7.647   5.699   9.618  0.8595 -0.2265  0.7393
   87MOL0     C11910   7.650   5.615   9.478 -0.2015  0.2061  0.6896
   87MOL0     C11911   7.593   5.690   9.366 -0.3948 -1.0611 -0.1828
   87MOL0     C11912   7.590   5.607   9.242 -0.0063 -0.1577  0.7395
   87MOL0    Cl11913   7.672   5.693   9.118 -0.2711 -0.0652  0.3752
   87MOL0     C11914   8.260   5.795   9.281 -0.2374  0.2941 -0.3239
   87MOL0     C11915   8.328   5.704   9.194 -0.2801  0.1609 -0.0404
   87MOL0     O11916   8.439   5.303   9.284  0.2739 -0.7543  0.6278
   87MOL0     C11917   8.383   5.157   9.057 -0.8178  0.0161 -0.4013
   87MOL0     C11918   8.407   5.060   8.950  0.2362  0.4048 -0.6964
   87MOL0     N11919   9.031   4.925   8.687  1.0016 -0.6937 -0.0910
   87MOL0     N11920   9.149   4.968   8.660 -0.0669 -0.5929  0.4665
   87MOL0     C11921   9.916   5.813   8.118  0.7994  0.1496 -0.7075
   87MOL0     C11922  10.023   5.870   8.063  0.0629 -0.2408 -0.3375
   87MOL0     C11923  10.309   6.061   7.794  0.2753 -0.3194  0.4073
   87MOL0     C11924  10.310   6.186   7.726 -0.6731 -0.0558 -0.1166
   87MOL0     C11925  10.421   6.263   7.699 -0.1129 -0.1065 -0.2686
   87MOL0     C11926  10.547   6.206   7.731  0.3304  0.8679  0.7346
   87MOL0     O11927  10.663   6.266   7.684  0.0194  0.7266 -0.1942
   87MOL0     C11928  10.656   6.409   7.653 -0.0724 -0.4148  0.6664
   87MOL0     C11929  10.797   6.457   7.608  0.7109  0.3200 -0.3389
   87MOL0     C11930  10.912   6.403   7.702 -0.9738  0.1807  0.6065
   87MOL0     C11931  10.894   6.419   7.860  1.0339 -0.6426  0.3804
   87MOL0     C11932  10.867   6.561   7.887  0.4057  0.5382  0.1581
   87MOL0     C11933  10.834   6.678   7.900  0.0760 -0.5410  0.3680
   87MOL0     C11934  10.552   6.086   7.792  0.2977  0.1963 -1.0800
   87MOL0     C11935  10.441   6.008   7.816  0.7399 -0.2127 -0.4801
   87MOL0     C11936  10.461   5.878   7.882 -0.6253  0.7562 -0.8838
   87MOL0     H11937  10.036   5.654   7.804  0.1475 -1.8245  0.8270
   87MOL0     H11938   9.851   5.550   7.908 -1.0712 -0.9467  1.6853
   87MOL0     H11939   9.674   5.543   8.013  0.5779  0.6142  0.1726
   87MOL0     H11940   9.574   5.590   8.141 -1.2158  1.2247 -5.3152
   87MOL0     H11941   9.565   5.365   8.146 -0.0660  0.3056 -1.4278
   87MOL0     H11942   9.742   5.351   8.123  0.5203  1.7402 -2.3903
   87MOL0     H11943   9.772   5.428   8.361  0.3317 -0.4369  0.6572
   87MOL0     H11944   9.595   5.459   8.376  0.3118 -1.0499  2.0788
   87MOL0     H11945   9.717   5.184   8.306 -2.5186 -1.1609 -1.3201
   87MOL0     H11946   9.675   5.237   8.470  1.4448 -0.5187  0.6150
   87MOL0     H11947   9.469   5.199   8.236 -0.9345  2.9920  0.1086
   87MOL0     H11948   9.439   5.272   8.393 -0.9819 -0.0583 -1.5381
   87MOL0     H11949   9.561   4.991   8.364  0.3024 -1.2667  1.4029
   87MOL0     H11950   9.531   5.066   8.515  2.7839 -3.4721 -0.6779
   87MOL0     H11951   9.368   4.922   8.514  0.2997  0.9647  1.3200
   87MOL0     H11952   9.304   4.952   8.349 -2.2455 -0.3175  2.7652
   87MOL0     H11953   9.284   5.177   8.538  0.5789 -1.2738 -0.5767
   87MOL0     H11954   9.212   5.156   8.377  2.5986  3.4081  0.2698
   87MOL0     H11955   8.964   5.104   8.416 -0.7676  0.0167  0.8921
   87MOL0     H11956   8.761   4.987   8.707  3.2988 -1.3582  1.5222
   87MOL0     H11957   8.787   4.842   8.605  4.3624  0.2091  0.4180
   87MOL0     H11958   8.706   5.107   8.478 -3.2601  0.4150 -2.6272
   87MOL0     H11959   8.729   4.955   8.401  2.3329  0.1163  0.1147
   87MOL0     H11960   8.493   4.991   8.422 -1.4633  0.6597  0.7368
   87MOL0     H11961   8.545   4.857   8.528 -0.6192  0.1803 -3.5211
   87MOL0     H11962   8.471   5.133   8.629  2.2225  0.7665  5.6688
   87MOL0     H11963   8.370   4.996   8.615 -0.1596  1.0101  0.8987
   87MOL0     H11964   8.677   5.198   8.800  0.9563 -0.1061  0.4366
   87MOL0     H11965   8.728   5.408   8.888  1.2213  0.0023  0.7693
   87MOL0     H11966   8.751   5.381   9.057  0.2679  1.7907 -0.1768
   87MOL0     H11967   8.619   5.487   9.011 -1.8285  0.4285 -3.8399
   87MOL0     H11968   8.322   5.440   9.416  5.4316 -0.7494 -1.7489
   87MOL0     H11969   8.216   5.626   9.556 -0.7593 -1.3252 -0.9288
   87MOL0     H11970   8.108   6.030   9.445 -0.5185  0.7508  0.6787
   87MOL0     H11971   8.011   5.906   9.374  1.4707 -4.0608  0.5221
   87MOL0     H11972   8.021   5.960   9.667  1.7048  0.3299 -0.8776
   87MOL0     H11973   7.890   6.013   9.553 -0.7862 -0.0058 -0.1247
   87MOL0     H11974   7.930   5.720   9.630 -1.1034  0.3370  1.1750
   87MOL0     H11975   7.870   5.761   9.473  0.1569 -0.1633 -1.4132
   87MOL0     H11976   7.679   5.893   9.548  1.4211  0.2209 -1.0039
   87MOL0     H11977   7.728   5.860   9.715  2.6287 -0.5108  0.2289
   87MOL0     H11978   7.694   5.632   9.691  1.0745  0.4532  1.2250
   87MOL0     H11979   7.541   5.712   9.641  0.1136  0.7419 -2.6612
   87MOL0     H11980   7.597   5.520   9.487 -0.5294  0.3560  0.3614
   87MOL0     H11981   7.750   5.588   9.442 -0.2920 -0.2161  0.7523
   87MOL0     H11982   7.641   5.787   9.351  0.2036 -1.1333  1.1215
   87MOL0     H11983   7.489   5.702   9.397  0.3431 -2.8926  3.6445
   87MOL0     H11984   7.489   5.586   9.207 -0.4361  3.0813 -0.2716
   87MOL0     H11985   7.633   5.508   9.258 -1.4724 -0.7329  1.3461
   87MOL0     H11986   8.253   5.898   9.249 -1.6032 -0.3902 -2.4306
   87MOL0     H11987   8.342   5.735   9.091 -0.4348  0.1703 -0.0576
   87MOL0     H11988   8.303   5.146   9.130  1.4858  0.6786  2.4091
   87MOL0     H11989   8.339   4.976   8.952 -0.1291  0.6718 -1.4455
   87MOL0     H11990   9.892   5.853   8.216 -0.1499 -0.1729 -0.7963
   87MOL0     H11991  10.075   5.955   8.106 -0.7179  0.0365  0.0666
   87MOL0     H11992  10.214   6.231   7.703 -2.2433 -3.7173 -1.4338
   87MOL0     H11993  10.408   6.357   7.647 -2.5720  0.7438  1.6853
   87MOL0     H11994  10.582   6.427   7.574 -1.7571  0.1201  2.2945
   87MOL0     H11995  10.616   6.467   7.736  0.3540  0.5125  0.2301
   87MOL0     H11996  10.795   6.566   7.611  0.8710  0.3156 -0.0039
   87MOL0     H11997  10.813   6.429   7.504 -0.8263  1.0672 -0.7966
   87MOL0     H11998  10.943   6.303   7.671 -1.5483  0.6256 -1.6289
   87MOL0     H11999  10.998   6.470   7.688  0.2282 -1.3548  0.3756
   87MOL0     H12000  10.983   6.387   7.915  1.0129 -1.4031 -0.0212
   87MOL0     H12001  10.807   6.357   7.885  0.4780 -0.5959 -1.3144
   87MOL0     H12002  10.824   6.782   7.925  0.4198 -0.5162  0.4030
   87MOL0     H12003  10.654   6.050   7.788  1.0413  2.0155 -6.9782
   87MOL0     H12004  10.429   5.893   7.985 -0.0076 -0.0347 -0.5628
   87MOL0     H12005  10.407   5.790   7.847  1.6944 -1.2036  0.1808
   87MOL0     H12006  10.568   5.856   7.889 -0.1708  1.8195 -3.2464
   88MOL0     O12007   9.329  11.043   7.138  0.0071 -0.0214 -0.0385
   88MOL0     C12008   9.238  11.116   7.187  1.0628 -0.2972 -0.2915
   88MOL0     O12009   9.255  11.237   7.252 -0.4637  0.5506 -0.6540
   88MOL0     C12010   9.380  11.284   7.308  0.4311 -0.0099  0.6151
   88MOL0     C12011   9.399  11.419   7.299 -0.0645  0.0568  0.7364
   88MOL0     C12012   9.517  11.471   7.354  0.5546  0.7870 -0.3579
   88MOL0     C12013   9.625  11.400   7.418  0.2834  0.0661 -0.1246
   88MOL0     O12014   9.731  11.456   7.473 -0.6913 -0.0801  0.4755
   88MOL0     C12015   9.732  11.594   7.495 -1.3847 -0.2872 -0.1339
   88MOL0     C12016   9.863  11.640   7.569  0.1015  0.0171  0.7790
   88MOL0     C12017   9.989  11.596   7.493 -0.2472 -0.2352 -0.1448
   88MOL0     C12018  10.115  11.626   7.569 -0.6455 -0.9205 -0.0946
   88MOL0     C12019  10.207  11.730   7.502  0.5150 -1.0571  1.1273
   88MOL0     C12020  10.316  11.767   7.602 -0.4383 -0.9420 -0.3673
   88MOL0     C12021  10.406  11.871   7.534 -0.2970  0.5403  0.1144
   88MOL0     C12022  10.511  11.920   7.630  0.8148  0.0984 -0.0314
   88MOL0     N12023  10.610  12.006   7.554 -0.8446  0.3849 -0.4539
   88MOL0     C12024  10.742  12.029   7.598 -0.4354 -0.0283  0.5290
   88MOL0     C12025  10.779  12.134   7.530 -0.9090 -0.4694 -0.2039
   88MOL0     C12026  10.912  12.198   7.536 -0.4610 -0.4164  0.5696
   88MOL0     C12027  11.002  12.114   7.437  0.2470 -0.0890 -0.8311
   88MOL0     C12028  11.101  12.210   7.368 -0.9368  1.0708  0.2563
   88MOL0     C12029  11.187  12.168   7.242 -0.3918 -0.4032  0.2731
   88MOL0     O12030  11.273  12.057   7.260 -0.1916 -0.1899 -0.2839
   88MOL0     C12031  11.407  12.080   7.241  0.3006 -0.0939 -0.4546
   88MOL0     C12032  11.473  12.178   7.315 -0.1796  0.5719 -1.0641
   88MOL0     C12033  11.618  12.196   7.301 -0.4703 -0.7722  0.5439
   88MOL0     C12034  11.669  12.310   7.385  1.0820  0.0880 -0.3683
   88MOL0     C12035  11.688  12.118   7.204 -0.4618  1.0723 -0.5296
   88MOL0     C12036  11.839  12.130   7.172  0.5132 -0.3459  0.5488
   88MOL0     O12037  11.910  12.227   7.241 -0.4002  0.4675 -0.0415
   88MOL0     C12038  12.051  12.235   7.225 -0.4873  0.5162  0.5703
   88MOL0     C12039  12.109  12.347   7.166 -0.0489  0.8445 -0.2374
   88MOL0     C12040  12.254  12.362   7.164  0.5632  0.6633  0.2151
   88MOL0     C12041  12.332  12.269   7.231 -0.5639 -0.2383  1.3206
   88MOL0     O12042  12.467  12.302   7.240  0.3988 -0.4598  0.2527
   88MOL0     C12043  12.555  12.196   7.283  0.2799 -0.1596  0.3091
   88MOL0     C12044  12.703  12.234   7.316 -0.2788 -0.7307  1.2211
   88MOL0     C12045  12.779  12.129   7.396 -0.3952 -0.7466 -0.4542
   88MOL0     C12046  12.904  12.200   7.441 -0.0518 -0.5586 -0.4715
   88MOL0     C12047  12.977  12.108   7.538  0.7966  0.2021 -0.2400
   88MOL0     C12048  13.094  12.175   7.615 -0.6137 -0.1164  1.1830
   88MOL0     C12049  13.211  12.208   7.516 -0.7666 -0.1971 -0.1599
   88MOL0     C12050  13.340  12.268   7.590  0.9270 -0.4760 -0.7141
   88MOL0    Cl12051  13.308  12.424   7.667 -0.2181 -0.4398 -0.0522
   88MOL0     C12052  12.270  12.160   7.299 -0.4851 -1.2460 -0.8872
   88MOL0     C12053  12.127  12.147   7.299 -0.2060 -0.5432 -0.0343
   88MOL0     O12054  11.880  12.052   7.089  0.4977  0.0382 -0.5154
   88MOL0     C12055  11.610  12.026   7.130 -0.5722  0.2065  0.0779
   88MOL0     C12056  11.478  12.003   7.149  0.3018 -1.0782 -0.8726
   88MOL0     N12057  10.676  12.176   7.448 -0.4495  0.3626 -0.5422
   88MOL0     N12058  10.574  12.100   7.464  0.5171 -0.2561  0.6071
   88MOL0     C12059   9.593  11.264   7.432 -0.1358  0.1113  1.1426
   88MOL0     C12060   9.476  11.205   7.381  0.3527  0.0087 -0.0385
   88MOL0     C12061   9.105  11.067   7.167  0.1461 -0.3039  0.3164
   88MOL0     C12062   9.010  11.073   7.278  0.5783  0.4987 -0.7841
   88MOL0     C12063   8.887  11.015   7.275  0.7814 -0.6264  0.6205
   88MOL0     C12064   8.858  10.938   7.158  0.6553 -0.0017 -0.2286
   88MOL0     O12065   8.748  10.864   7.138 -0.5947  0.6987 -0.0771
   88MOL0     C12066   8.642  10.836   7.226 -0.3912 -0.6309  0.2079
   88MOL0     C12067   8.518  10.836   7.129 -0.7913 -0.4530  0.1468
   88MOL0     C12068   8.384  10.818   7.204  0.3937  0.3864  0.2168
   88MOL0     C12069   8.321  10.956   7.244 -0.0881 -1.1481  0.7071
   88MOL0     C12070   8.249  11.022   7.130 -1.3884  0.2330  0.0107
   88MOL0     C12071   8.185  11.091   7.055 -0.5566  0.3023  0.8552
   88MOL0     C12072   8.951  10.931   7.047 -0.4447  0.2322 -0.1562
   88MOL0     C12073   9.068  11.002   7.049 -0.2323  0.1752  0.4049
   88MOL0     C12074   9.148  11.003   6.925 -0.4076  0.0594  0.0297
   88MOL0     H12075   9.324  11.470   7.238 -0.0926 -0.4379  0.3455
   88MOL0     H12076   9.509  11.579   7.350 -1.5940  0.6362 -1.8162
   88MOL0     H12077   9.657  11.608   7.573 -1.5837 -1.2767 -0.1304
   88MOL0     H12078   9.718  11.653   7.404 -1.1091  0.7981  0.5192
   88MOL0     H12079   9.856  11.749   7.567  0.3666  0.0796  2.2459
   88MOL0     H12080   9.859  11.603   7.672 -1.4862  2.6722  1.7675
   88MOL0     H12081   9.989  11.489   7.470 -0.7441 -0.9891  2.9327
   88MOL0     H12082   9.990  11.644   7.394 -1.2628 -0.1308 -0.1099
   88MOL0     H12083  10.089  11.672   7.665 -3.1156 -0.1332 -1.0612
   88MOL0     H12084  10.150  11.524   7.587  1.1348 -0.5701 -1.3165
   88MOL0     H12085  10.149  11.816   7.469  0.3084 -1.8100 -0.5483
   88MOL0     H12086  10.241  11.686   7.408  1.1704  2.5917 -0.4907
   88MOL0     H12087  10.273  11.806   7.695  0.6443  1.8610 -0.9267
   88MOL0     H12088  10.375  11.678   7.622  0.0445 -0.7637 -0.9842
   88MOL0     H12089  10.351  11.952   7.487  1.9308  1.5223 -0.9518
   88MOL0     H12090  10.461  11.828   7.450 -2.0620  1.0852 -1.3780
   88MOL0     H12091  10.456  11.974   7.708 -2.0119  1.2820 -2.6641
   88MOL0     H12092  10.565  11.837   7.677  2.9586  2.0239  1.1123
   88MOL0     H12093  10.809  11.974   7.663  1.5256  2.3354  0.6153
   88MOL0     H12094  10.939  12.218   7.640 -1.8444  1.7212  0.5816
   88MOL0     H12095  10.900  12.302   7.503 -2.3171 -0.5384  0.7432
   88MOL0     H12096  11.064  12.043   7.492 -1.0975  0.7400  1.9150
   88MOL0     H12097  10.944  12.052   7.367  1.0832  0.0701 -1.6782
   88MOL0     H12098  11.042  12.296   7.335 -1.3705  0.1889 -1.3749
   88MOL0     H12099  11.174  12.227   7.447  0.9070 -1.0993 -0.8645
   88MOL0     H12100  11.113  12.156   7.163 -1.9899 -0.0116  1.6613
   88MOL0     H12101  11.240  12.258   7.209  1.4770 -1.5895 -0.1335
   88MOL0     H12102  11.427  12.247   7.385  1.1424 -1.5683  2.1490
   88MOL0     H12103  11.707  12.376   7.307 -1.9126  0.1729 -1.9179
   88MOL0     H12104  11.744  12.282   7.460  2.7303  2.7722 -0.8866
   88MOL0     H12105  11.590  12.362   7.440  0.9048 -0.5352 -0.0167
   88MOL0     H12106  12.044  12.417   7.116 -0.4385  0.8541  0.2716
   88MOL0     H12107  12.296  12.451   7.117 -0.6032  0.1302 -1.9771
   88MOL0     H12108  12.524  12.159   7.381 -0.3913 -0.5243 -0.0352
   88MOL0     H12109  12.554  12.120   7.205 -2.4524 -0.1498  0.2273
   88MOL0     H12110  12.760  12.240   7.223 -1.3451  0.5371  0.6053
   88MOL0     H12111  12.701  12.331   7.366  1.0902 -0.6996  1.2337
   88MOL0     H12112  12.817  12.041   7.343  1.5156  0.1477 -0.6745
   88MOL0     H12113  12.723  12.109   7.488 -0.4433 -0.1780 -0.3583
   88MOL0     H12114  12.885  12.296   7.489 -0.4314 -0.5069 -0.7166
   88MOL0     H12115  12.961  12.223   7.351 -0.2408 -0.0069 -0.4524
   88MOL0     H12116  12.917  12.082   7.626 -0.4886  4.5559  0.4261
   88MOL0     H12117  13.000  12.009   7.498  0.5112  1.4472 -3.8036
   88MOL0     H12118  13.124  12.118   7.704 -0.9556 -1.7688  0.2788
   88MOL0     H12119  13.067  12.272   7.658 -0.8844  0.1308  0.4638
   88MOL0     H12120  13.188  12.270   7.429  0.2797  1.6800  0.8258
   88MOL0     H12121  13.239  12.110   7.478 -0.5562  0.2098 -1.0663
   88MOL0     H12122  13.421  12.277   7.517  2.2482  2.5236  0.9383
   88MOL0     H12123  13.366  12.205   7.675  0.1784  0.6770  0.4286
   88MOL0     H12124  12.316  12.090   7.368 -2.6395 -1.3191  0.5724
   88MOL0     H12125  12.074  12.066   7.347  0.7673 -1.3973 -0.3706
   88MOL0     H12126  11.659  11.959   7.060 -0.0168  0.6696  0.0145
   88MOL0     H12127  11.431  11.934   7.081  0.8335 -3.2461  0.8355
   88MOL0     H12128   9.662  11.200   7.487  1.8258  1.6873  0.6206
   88MOL0     H12129   9.470  11.098   7.399  0.3717 -0.3439 -1.9282
   88MOL0     H12130   9.039  11.116   7.373  1.2333  0.6494 -1.0446
   88MOL0     H12131   8.818  11.015   7.359 -2.3981 -1.3643 -1.8193
   88MOL0     H12132   8.644  10.736   7.269 -2.1399 -1.7047 -2.0128
   88MOL0     H12133   8.634  10.910   7.306  0.2725 -0.3049 -0.0225
   88MOL0     H12134   8.522  10.753   7.057 -2.0059  0.2369 -0.7803
   88MOL0     H12135   8.517  10.927   7.068 -0.3525 -0.8122 -0.4109
   88MOL0     H12136   8.309  10.766   7.144 -0.1496 -0.0685  1.2705
   88MOL0     H12137   8.403  10.758   7.294 -0.5190 -0.5332 -0.1820
   88MOL0     H12138   8.392  11.026   7.288  0.4032 -1.2193  0.0596
   88MOL0     H12139   8.254  10.943   7.328  0.2089  0.5141  1.2249
   88MOL0     H12140   8.131  11.148   6.982  1.2056 -0.0555 -0.8406
   88MOL0     H12141   8.935  10.859   6.967  1.0701  3.0830 -3.2440
   88MOL0     H12142   9.200  10.908   6.934  0.2382  0.6100  3.0449
   88MOL0     H12143   9.083  11.007   6.836 -1.2599  0.5593  0.6585
   88MOL0     H12144   9.209  11.094   6.918 -0.0865 -0.2083 -0.8135
   89MOL0     O12145  11.049  10.905   6.200 -0.4292 -0.3631  0.0510
   89MOL0     C12146  10.969  10.832   6.256 -0.1114 -0.8433 -0.4213
   89MOL0     O12147  10.993  10.746   6.363  0.6815 -0.2635  0.1605
   89MOL0     C12148  11.118  10.742   6.423  0.1792  0.3853  0.0899
   89MOL0     C12149  11.194  10.855   6.446 -0.0276  0.1532  0.1177
   89MOL0     C12150  11.325  10.852   6.497  0.7611  0.2620  0.9247
   89MOL0     C12151  11.379  10.719   6.522  1.0149 -0.2592 -0.3938
   89MOL0     O12152  11.490  10.692   6.581 -0.1728  0.4638 -0.1865
   89MOL0     C12153  11.557  10.791   6.661  0.2313  0.3988 -0.5169
   89MOL0     C12154  11.678  10.739   6.711  0.0059  0.5080 -0.5870
   89MOL0     C12155  11.743  10.838   6.805 -0.3098 -0.3194 -0.5204
   89MOL0     C12156  11.889  10.805   6.826  0.2070  0.0662  0.3791
   89MOL0     C12157  11.943  10.874   6.949  0.9117  1.0970 -0.2617
   89MOL0     C12158  12.067  10.813   6.999 -0.2490 -0.3974 -0.3735
   89MOL0     C12159  12.170  10.903   7.074 -0.3019  1.0619 -0.2491
   89MOL0     C12160  12.245  10.818   7.178  0.3235  0.3459 -0.2192
   89MOL0     N12161  12.353  10.889   7.234  0.2130 -0.4390 -0.5476
   89MOL0     C12162  12.367  11.030   7.255 -1.0746  0.9285 -0.4585
   89MOL0     C12163  12.470  11.044   7.340  0.3457  0.1442 -0.3025
   89MOL0     C12164  12.521  11.177   7.403 -0.0241  0.0618  0.3111
   89MOL0     C12165  12.652  11.221   7.348  0.1243 -0.4437  0.2363
   89MOL0     C12166  12.769  11.131   7.387  0.1782  0.3886 -0.1534
   89MOL0     C12167  12.898  11.207   7.367  0.0615 -0.4884  0.2093
   89MOL0     O12168  12.902  11.326   7.448 -0.6368 -0.2612 -0.6761
   89MOL0     C12169  13.015  11.411   7.436 -0.3999  0.7618 -0.0216
   89MOL0     C12170  13.121  11.398   7.344 -0.2042 -0.6873  0.0709
   89MOL0     C12171  13.218  11.492   7.329 -0.1540 -0.7303  0.6162
   89MOL0     C12172  13.316  11.453   7.220  0.0668  0.1764  0.5411
   89MOL0     C12173  13.214  11.605   7.415 -0.0457  0.2031 -0.3272
   89MOL0     C12174  13.307  11.717   7.404 -0.2495  0.5465 -0.0057
   89MOL0     O12175  13.401  11.701   7.313 -0.5011 -0.0766  0.2283
   89MOL0     C12176  13.489  11.807   7.305 -0.2994 -0.8302 -0.0995
   89MOL0     C12177  13.522  11.858   7.183  0.0607  0.1251 -0.7908
   89MOL0     C12178  13.623  11.951   7.160  0.5168 -0.9170 -0.0552
   89MOL0     C12179  13.692  11.990   7.275 -0.6293 -0.1922 -0.0319
   89MOL0     O12180  13.803  12.071   7.253  0.1370  0.3964 -0.6582
   89MOL0     C12181  13.832  12.175   7.343 -0.2421  0.6640 -0.5094
   89MOL0     C12182  13.975  12.224   7.329 -0.3887  0.3455 -0.6958
   89MOL0     C12183  14.072  12.121   7.405  0.0185  0.4116 -0.5140
   89MOL0     C12184  14.225  12.169   7.412 -1.1808 -0.5545  0.8448
   89MOL0     C12185  14.306  12.097   7.518 -0.3028 -0.4827  0.0471
   89MOL0     C12186  14.451  12.154   7.504  0.0406  0.0804 -0.3635
   89MOL0     C12187  14.554  12.065   7.581  0.1462  0.1090  0.5920
   89MOL0     C12188  14.707  12.099   7.579 -0.2127 -0.4859  0.5085
   89MOL0    Cl12189  14.782  12.020   7.439 -0.4541 -0.0211 -0.0720
   89MOL0     C12190  13.666  11.946   7.402 -0.2724  0.8976 -0.5281
   89MOL0     C12191  13.567  11.850   7.414  0.3738 -0.5635  0.7531
   89MOL0     O12192  13.295  11.815   7.481  0.3004 -0.4147 -0.0608
   89MOL0     C12193  13.115  11.617   7.515  1.1012 -0.3030  0.5782
   89MOL0     C12194  13.019  11.516   7.530  0.4991  0.2051 -0.0993
   89MOL0     N12195  12.523  10.920   7.351  0.1575  0.3374 -0.3926
   89MOL0     N12196  12.455  10.829   7.293 -0.2652  0.4369 -0.4697
   89MOL0     C12197  11.303  10.609   6.490  0.3078  0.5496 -0.1710
   89MOL0     C12198  11.174  10.614   6.447  0.2927  0.0528 -0.1772
   89MOL0     C12199  10.823  10.834   6.215 -0.6769  0.2226  1.0449
   89MOL0     C12200  10.731  10.778   6.308  0.0766  0.8290 -0.0297
   89MOL0     C12201  10.587  10.783   6.294 -0.0897  0.5471 -0.5557
   89MOL0     C12202  10.529  10.850   6.187 -0.1397  0.3649 -1.0127
   89MOL0     O12203  10.400  10.861   6.155  0.4522 -0.4671  0.0856
   89MOL0     C12204  10.293  10.839   6.252  0.7970  0.5726 -0.7684
   89MOL0     C12205  10.176  10.936   6.258  0.3820  0.5746 -0.0823
   89MOL0     C12206  10.135  10.989   6.116 -0.1812  0.3837 -1.2768
   89MOL0     C12207  10.050  10.882   6.051 -0.4223  0.2307 -0.2554
   89MOL0     C12208   9.959  10.940   5.947 -0.0400 -0.5261  0.6465
   89MOL0     C12209   9.890  10.974   5.850 -0.0507  1.0193 -0.7497
   89MOL0     C12210  10.619  10.904   6.104  0.1775 -0.7052  0.3468
   89MOL0     C12211  10.764  10.897   6.099 -1.0976 -0.1105 -0.3375
   89MOL0     C12212  10.848  10.973   6.002 -0.4056 -0.6065  0.1828
   89MOL0     H12213  11.156  10.955   6.425 -2.6205 -0.4322  1.6502
   89MOL0     H12214  11.368  10.949   6.522 -0.9842  0.6397  2.6854
   89MOL0     H12215  11.488  10.814   6.743 -0.8274  3.4621 -2.1063
   89MOL0     H12216  11.571  10.883   6.603 -1.5537 -0.9532 -3.3245
   89MOL0     H12217  11.657  10.642   6.757  0.8780 -0.2767 -1.7929
   89MOL0     H12218  11.736  10.734   6.618  0.9253 -0.1131  0.0062
   89MOL0     H12219  11.740  10.941   6.769  0.8200 -0.0158  0.2155
   89MOL0     H12220  11.682  10.841   6.896 -0.7089 -0.4932 -0.7765
   89MOL0     H12221  11.887  10.696   6.816 -2.4444  0.1963 -1.7709
   89MOL0     H12222  11.937  10.845   6.737  0.1463  0.6112  0.5893
   89MOL0     H12223  11.872  10.876   7.033  0.6375  2.2263 -0.4991
   89MOL0     H12224  11.955  10.979   6.919 -1.3111  0.9488 -1.9115
   89MOL0     H12225  12.035  10.743   7.077  3.2632 -1.4900  0.2323
   89MOL0     H12226  12.120  10.757   6.922  0.3325 -1.5292  0.8159
   89MOL0     H12227  12.114  10.977   7.132 -2.6947  0.2589 -1.4148
   89MOL0     H12228  12.241  10.946   7.003 -0.9682  2.3249 -0.1846
   89MOL0     H12229  12.173  10.787   7.254 -1.8980  0.1681 -2.2775
   89MOL0     H12230  12.280  10.721   7.141 -1.7648 -0.8656  0.8126
   89MOL0     H12231  12.313  11.118   7.223  1.5455  1.6986 -3.2148
   89MOL0     H12232  12.521  11.173   7.513  0.1330  0.2099  0.3179
   89MOL0     H12233  12.443  11.250   7.382  1.2502  1.7687  1.2661
   89MOL0     H12234  12.646  11.235   7.239  0.3734  3.8702  0.5746
   89MOL0     H12235  12.666  11.329   7.363  0.1267 -0.7131  2.4857
   89MOL0     H12236  12.764  11.090   7.488  0.5697 -1.0539 -0.7023
   89MOL0     H12237  12.773  11.045   7.320  4.1861 -0.4812  0.8946
   89MOL0     H12238  12.971  11.130   7.393 -1.9238 -2.2455  0.8524
   89MOL0     H12239  12.911  11.227   7.260 -0.0739 -1.0367  0.0877
   89MOL0     H12240  13.130  11.306   7.286  5.0425  0.0742 -0.7550
   89MOL0     H12241  13.323  11.347   7.194 -0.3526 -0.3124  2.3029
   89MOL0     H12242  13.422  11.468   7.239  0.6839  0.0168 -2.4020
   89MOL0     H12243  13.284  11.510   7.132  0.7768  2.6541  1.7986
   89MOL0     H12244  13.468  11.831   7.092  1.7193  0.7968 -2.0439
   89MOL0     H12245  13.643  11.988   7.060  2.5773  1.2819  1.0606
   89MOL0     H12246  13.774  12.256   7.298  1.2481  2.4765  0.7242
   89MOL0     H12247  13.801  12.161   7.447  0.8702 -0.7633 -0.3415
   89MOL0     H12248  13.994  12.248   7.224 -1.8019  2.1970 -0.5808
   89MOL0     H12249  13.980  12.321   7.378 -1.8771  0.1901 -0.1638
   89MOL0     H12250  14.073  12.021   7.361  2.2383 -0.3595  1.1079
   89MOL0     H12251  14.032  12.110   7.507  0.7614 -0.4077 -0.3021
   89MOL0     H12252  14.236  12.277   7.425 -3.0222 -0.2102 -0.1158
   89MOL0     H12253  14.269  12.146   7.314 -0.5038  2.0112  0.4893
   89MOL0     H12254  14.277  12.126   7.619  0.7272  3.2772 -0.5686
   89MOL0     H12255  14.298  11.992   7.488 -0.5996  0.1186 -2.1217
   89MOL0     H12256  14.457  12.255   7.546 -0.6996  0.2592 -0.6811
   89MOL0     H12257  14.492  12.162   7.402 -0.2947  0.9855 -0.4376
   89MOL0     H12258  14.548  11.959   7.552 -0.2752  0.6966 -1.6452
   89MOL0     H12259  14.528  12.055   7.687  1.0744 -0.1568  0.8007
   89MOL0     H12260  14.762  12.073   7.670  0.2716 -0.3246  0.2671
   89MOL0     H12261  14.716  12.207   7.567 -3.1990 -0.3061 -1.0005
   89MOL0     H12262  13.719  11.969   7.494 -0.5128 -0.2683 -0.0828
   89MOL0     H12263  13.544  11.811   7.513 -3.9574  1.5320  0.8119
   89MOL0     H12264  13.117  11.702   7.582 -0.0466 -1.8873  2.7421
   89MOL0     H12265  12.931  11.525   7.594  0.2217 -1.2798 -0.2193
   89MOL0     H12266  11.353  10.516   6.516 -2.9481 -1.0912  0.6938
   89MOL0     H12267  11.112  10.529   6.422 -1.7619  1.0754  1.1618
   89MOL0     H12268  10.773  10.727   6.394  0.8696  2.6258  0.7056
   89MOL0     H12269  10.539  10.724   6.372  1.6279  0.5912  0.5932
   89MOL0     H12270  10.249  10.747   6.213 -3.8661  0.9682  2.8149
   89MOL0     H12271  10.337  10.831   6.352 -0.1878  1.8422 -0.2130
   89MOL0     H12272  10.207  11.028   6.309  2.2419  0.4765 -0.9379
   89MOL0     H12273  10.094  10.894   6.317  2.0440 -2.1902  0.4239
   89MOL0     H12274  10.072  11.074   6.145 -2.7055 -2.0645  1.0109
   89MOL0     H12275  10.223  11.026   6.063  2.2468  0.5156  2.4513
   89MOL0     H12276   9.988  10.826   6.122  0.3410  2.4146  2.2723
   89MOL0     H12277  10.109  10.805   6.000 -1.4404 -1.3812  0.9274
   89MOL0     H12278   9.823  11.014   5.777 -0.2110  0.6294 -0.8149
   89MOL0     H12279  10.576  10.958   6.020  0.8619  1.6126  1.4160
   89MOL0     H12280  10.771  11.021   5.942  0.3287 -0.0189 -0.3064
   89MOL0     H12281  10.918  11.041   6.052  1.0733 -2.3643  0.6487
   89MOL0     H12282  10.912  10.916   5.934  1.9165  2.3300 -0.3193
   90MOL0     O12283   9.980   2.552   5.656  0.3612  0.7417  0.8127
   90MOL0     C12284  10.057   2.558   5.558 -0.2994  0.3220 -0.3518
   90MOL0     O12285  10.067   2.460   5.459  0.0235  0.6731  0.1626
   90MOL0     C12286   9.984   2.349   5.458 -0.3246 -0.0008 -0.3004
   90MOL0     C12287   9.945   2.298   5.338  0.2654  0.2589 -0.7219
   90MOL0     C12288   9.854   2.198   5.328  0.3100 -0.1418  0.4549
   90MOL0     C12289   9.811   2.127   5.435  0.1762  0.5181  0.2626
   90MOL0     O12290   9.731   2.010   5.424  0.2842 -0.1378  0.1169
   90MOL0     C12291   9.772   1.904   5.333  0.0964 -0.3249  0.4926
   90MOL0     C12292   9.700   1.765   5.345 -0.1913 -0.6994 -0.6975
   90MOL0     C12293   9.556   1.782   5.389 -0.8383  0.1738 -0.5797
   90MOL0     C12294   9.495   1.648   5.423  0.4201 -0.3686 -0.7794
   90MOL0     C12295   9.352   1.661   5.484 -0.1704 -0.1829  0.2762
   90MOL0     C12296   9.293   1.534   5.545  0.8444 -0.4259 -0.5752
   90MOL0     C12297   9.147   1.555   5.607  0.8721  0.1703  0.5890
   90MOL0     C12298   9.168   1.616   5.749  0.2436  0.3715 -0.0041
   90MOL0     N12299   9.167   1.517   5.857  0.5609 -0.4550 -0.7072
   90MOL0     C12300   9.071   1.525   5.960  0.2633 -0.5777  0.0374
   90MOL0     C12301   9.097   1.409   6.038  0.4353 -0.4181 -0.0374
   90MOL0     C12302   9.000   1.337   6.130 -0.4486 -1.6315 -0.3958
   90MOL0     C12303   8.857   1.326   6.078 -0.5791  0.0622  1.3210
   90MOL0     C12304   8.836   1.250   5.944 -0.1056 -0.5196 -0.0464
   90MOL0     C12305   8.872   1.098   5.950  0.4876  0.4307  0.5503
   90MOL0     O12306   8.860   1.024   5.828 -0.2204 -0.9008 -0.4596
   90MOL0     C12307   8.941   1.062   5.724  0.1025 -0.6825 -0.5011
   90MOL0     C12308   8.907   1.029   5.596 -0.1263 -0.0805 -0.2451
   90MOL0     C12309   8.963   1.072   5.480 -0.5438 -0.5429 -1.0928
   90MOL0     C12310   8.895   1.023   5.352  0.4646  0.2305 -0.1687
   90MOL0     C12311   9.074   1.147   5.490  0.3214  0.0659  0.6834
   90MOL0     C12312   9.165   1.168   5.373  0.1285  0.3539  0.4246
   90MOL0     O12313   9.299   1.160   5.412 -0.2752  0.4805 -0.1092
   90MOL0     C12314   9.393   1.159   5.317  0.9365 -0.2693  0.0610
   90MOL0     C12315   9.486   1.267   5.324 -0.0672  0.0110 -0.4835
   90MOL0     C12316   9.601   1.258   5.236 -0.7047  0.1790 -0.0486
   90MOL0     C12317   9.627   1.150   5.153 -0.0414  0.3337 -0.0350
   90MOL0     O12318   9.743   1.124   5.090 -0.2562  0.0754 -0.7760
   90MOL0     C12319   9.857   1.183   5.155  0.1017  0.1862  0.4806
   90MOL0     C12320   9.976   1.123   5.090 -0.2545 -0.0048 -0.1262
   90MOL0     C12321  10.007   0.976   5.132  0.3106  0.7093 -0.0027
   90MOL0     C12322  10.130   0.930   5.050  0.0878  0.1676  0.1911
   90MOL0     C12323  10.159   0.790   5.110 -0.8656 -0.7999  0.3270
   90MOL0     C12324  10.265   0.704   5.041 -0.3347  1.1206 -0.5457
   90MOL0     C12325  10.406   0.753   5.061  0.3865 -0.2872 -0.7688
   90MOL0     C12326  10.524   0.671   4.999 -0.5757 -0.3586 -0.0778
   90MOL0    Cl12327  10.539   0.712   4.820  0.3676 -0.3317 -0.3753
   90MOL0     C12328   9.534   1.047   5.154  0.0531 -0.0431 -0.3216
   90MOL0     C12329   9.414   1.048   5.229 -0.2958  0.1348  0.0413
   90MOL0     O12330   9.121   1.205   5.264 -0.1570  0.0032 -0.3962
   90MOL0     C12331   9.124   1.177   5.618  0.0356  0.1438 -0.5848
   90MOL0     C12332   9.055   1.139   5.739  0.4649  0.9977  0.1849
   90MOL0     N12333   9.199   1.342   5.983 -0.3486  0.5586  0.1018
   90MOL0     N12334   9.243   1.401   5.871  0.4209  0.0500 -0.2602
   90MOL0     C12335   9.840   2.184   5.560 -0.3708 -0.4178 -0.0919
   90MOL0     C12336   9.924   2.296   5.578  0.4586 -0.0867  0.1206
   90MOL0     C12337  10.163   2.663   5.544 -0.8140  0.5589 -0.2829
   90MOL0     C12338  10.257   2.647   5.441 -0.5947 -0.4271  0.1288
   90MOL0     C12339  10.370   2.728   5.429 -0.2896 -0.4348  0.0115
   90MOL0     C12340  10.366   2.853   5.499 -0.2000  0.2955  0.0251
   90MOL0     O12341  10.482   2.937   5.475 -0.0955  0.1936  0.0322
   90MOL0     C12342  10.443   3.056   5.403  0.1482  1.0957  0.5093
   90MOL0     C12343  10.432   3.036   5.246 -0.1594 -0.8318  0.2944
   90MOL0     C12344  10.423   3.184   5.184 -1.0409 -0.3965 -0.1416
   90MOL0     C12345  10.427   3.193   5.027  0.1847  0.5147 -0.0959
   90MOL0     C12346  10.389   3.327   4.993 -0.5911 -0.2946  0.2365
   90MOL0     C12347  10.389   3.441   4.952  0.8997 -0.0592  0.6221
   90MOL0     C12348  10.258   2.885   5.579  0.1434 -0.3665 -0.6273
   90MOL0     C12349  10.165   2.786   5.614  1.2951  0.4441  0.6842
   90MOL0     C12350  10.054   2.838   5.707  0.2738  0.8949  0.1151
   90MOL0     H12351   9.986   2.337   5.246 -0.8100 -1.1429 -1.8367
   90MOL0     H12352   9.844   2.157   5.228  0.6516 -1.4150  0.9213
   90MOL0     H12353   9.878   1.883   5.353  0.0001 -0.6296  0.6889
   90MOL0     H12354   9.757   1.935   5.229  1.3993 -0.4932  0.2378
   90MOL0     H12355   9.710   1.720   5.246 -0.1974 -0.0427 -0.9975
   90MOL0     H12356   9.743   1.704   5.426 -3.0969 -0.3256  1.2704
   90MOL0     H12357   9.541   1.858   5.467 -0.9142  1.1394 -1.5067
   90MOL0     H12358   9.503   1.825   5.303 -0.2595 -0.9946 -1.5544
   90MOL0     H12359   9.486   1.583   5.335 -4.2384 -1.6257  0.3350
   90MOL0     H12360   9.555   1.585   5.490  0.4011 -1.0709 -1.4041
   90MOL0     H12361   9.292   1.692   5.398 -0.9407  1.0043  1.2169
   90MOL0     H12362   9.348   1.743   5.555  1.4051 -0.2649  0.5064
   90MOL0     H12363   9.274   1.475   5.454  1.4573 -0.4087 -0.7165
   90MOL0     H12364   9.357   1.480   5.615 -1.0605  1.7609  3.1475
   90MOL0     H12365   9.097   1.458   5.603  1.0285  0.1010 -2.3233
   90MOL0     H12366   9.083   1.613   5.540 -0.0056 -0.7848  0.5782
   90MOL0     H12367   9.269   1.658   5.749 -0.1109  1.2643  0.7912
   90MOL0     H12368   9.096   1.698   5.757 -1.9904 -1.0388 -3.2570
   90MOL0     H12369   8.995   1.600   5.981  0.6848 -0.6448  1.9845
   90MOL0     H12370   9.000   1.395   6.222  0.4928  0.8239 -1.8469
   90MOL0     H12371   9.028   1.231   6.140 -1.2832 -2.0303 -1.9362
   90MOL0     H12372   8.798   1.274   6.155 -0.2373 -2.6557 -0.1563
   90MOL0     H12373   8.823   1.430   6.075  2.4232  1.1421  0.9546
   90MOL0     H12374   8.731   1.258   5.918  0.8847  0.1832 -4.7530
   90MOL0     H12375   8.894   1.306   5.870 -0.6020  1.8800  1.2896
   90MOL0     H12376   8.966   1.069   5.998 -0.2215 -4.4555 -0.4050
   90MOL0     H12377   8.812   1.042   6.023  2.6124 -0.9231  1.3721
   90MOL0     H12378   8.828   0.958   5.576 -0.3955  0.4466 -1.1237
   90MOL0     H12379   8.857   1.112   5.303 -1.1860 -0.0131  0.6115
   90MOL0     H12380   8.805   0.970   5.385 -1.6104  3.6876  0.1584
   90MOL0     H12381   8.956   0.961   5.285 -0.3839 -0.7348 -0.0677
   90MOL0     H12382   9.475   1.340   5.404  0.5581 -0.4813  0.0612
   90MOL0     H12383   9.674   1.338   5.238  0.6479 -1.0038 -0.2788
   90MOL0     H12384   9.840   1.289   5.136 -0.9033 -0.1421 -0.5737
   90MOL0     H12385   9.858   1.174   5.264 -2.4943  1.2982  0.6465
   90MOL0     H12386   9.955   1.119   4.983 -2.6531  0.8999  0.2531
   90MOL0     H12387  10.062   1.185   5.117 -0.3393 -0.6446  1.7178
   90MOL0     H12388   9.922   0.915   5.100  0.9039 -0.1753  0.0855
   90MOL0     H12389  10.039   0.960   5.235  1.9765  1.3571 -0.3928
   90MOL0     H12390  10.214   1.000   5.055  1.1198 -0.9886 -0.2106
   90MOL0     H12391  10.107   0.919   4.943 -2.9096 -1.5040  0.8997
   90MOL0     H12392  10.187   0.806   5.214  1.2620  1.6174 -0.5169
   90MOL0     H12393  10.064   0.737   5.098 -0.8733 -0.4040 -1.7401
   90MOL0     H12394  10.236   0.693   4.936 -1.3978 -0.6191 -0.1125
   90MOL0     H12395  10.264   0.606   5.090  0.8234  1.0230 -0.6976
   90MOL0     H12396  10.429   0.760   5.168  0.4691 -0.8599 -0.7494
   90MOL0     H12397  10.410   0.851   5.012 -1.5639  0.7606  0.9735
   90MOL0     H12398  10.506   0.564   5.011 -2.5334 -0.2423 -1.3486
   90MOL0     H12399  10.615   0.698   5.052 -1.4579  3.1740 -0.0778
   90MOL0     H12400   9.548   0.959   5.093  1.5607 -0.6194  0.7973
   90MOL0     H12401   9.348   0.962   5.220 -0.1768  0.2663 -4.4596
   90MOL0     H12402   9.217   1.232   5.628  0.6186 -1.0445  1.1159
   90MOL0     H12403   9.101   1.171   5.832  3.3215  1.0600 -1.1244
   90MOL0     H12404   9.799   2.128   5.643  0.9824 -1.2898  0.0155
   90MOL0     H12405   9.933   2.328   5.681  0.9419  4.7078 -1.2066
   90MOL0     H12406  10.247   2.565   5.370 -0.0964 -1.6396  1.4012
   90MOL0     H12407  10.445   2.715   5.352  0.2802  3.1690 -0.2086
   90MOL0     H12408  10.343   3.091   5.430 -0.5373  0.0956 -0.6199
   90MOL0     H12409  10.509   3.135   5.438  0.5176  0.7930  0.5025
   90MOL0     H12410  10.341   2.986   5.212  0.4311 -0.9969 -1.1228
   90MOL0     H12411  10.524   2.985   5.215 -0.4073 -1.1294  0.0499
   90MOL0     H12412  10.334   3.235   5.221  0.4963  2.2858  0.0870
   90MOL0     H12413  10.513   3.242   5.205  0.4227 -2.4787 -0.3208
   90MOL0     H12414  10.358   3.125   4.977 -2.9825  2.4603  1.2957
   90MOL0     H12415  10.528   3.176   4.989  0.2634  1.9447 -0.5902
   90MOL0     H12416  10.369   3.541   4.918 -3.1245 -1.2003 -0.9680
   90MOL0     H12417  10.258   2.980   5.630 -0.1227 -1.1831  0.9553
   90MOL0     H12418  10.085   2.939   5.735  0.2200  0.2573  2.6826
   90MOL0     H12419   9.957   2.831   5.656 -0.1419 -1.9304  1.1319
   90MOL0     H12420  10.043   2.792   5.805  1.7378  2.3129  0.9824
   91MOL0     O12421   7.174   9.522   1.670 -0.0767 -0.1381  0.1023
   91MOL0     C12422   7.294   9.545   1.652 -0.2684  0.3730 -0.2783
   91MOL0     O12423   7.399   9.455   1.685  0.1457  0.0813 -0.0892
   91MOL0     C12424   7.377   9.343   1.762  0.1467  0.4777 -0.1242
   91MOL0     C12425   7.284   9.335   1.877  0.4631  0.8760 -0.1885
   91MOL0     C12426   7.270   9.226   1.955  0.6871  0.0602  0.5147
   91MOL0     C12427   7.331   9.111   1.918 -0.4381  0.5099 -0.3982
   91MOL0     O12428   7.317   8.997   1.983 -0.5701  0.8057  0.0826
   91MOL0     C12429   7.211   8.978   2.072 -0.4931 -0.2625 -0.1211
   91MOL0     C12430   7.072   8.968   2.010 -0.2845 -0.8231  0.4150
   91MOL0     C12431   7.046   8.829   1.949 -0.0386  0.1556  0.1329
   91MOL0     C12432   6.951   8.749   2.031 -0.1590  0.6642  0.2114
   91MOL0     C12433   6.940   8.604   1.978  0.9742  0.1718 -0.1949
   91MOL0     C12434   6.851   8.501   2.058  0.4727  0.4571  0.8458
   91MOL0     C12435   6.702   8.557   2.047 -0.0579 -0.2555 -0.5609
   91MOL0     C12436   6.601   8.450   2.084  0.2913 -0.2357  0.0951
   91MOL0     N12437   6.594   8.427   2.227 -0.3258 -0.1540  0.1350
   91MOL0     C12438   6.588   8.528   2.329  0.1779 -0.3843  0.1221
   91MOL0     C12439   6.575   8.453   2.439 -0.0293  0.6046 -1.1028
   91MOL0     C12440   6.574   8.493   2.582  0.5629  0.2556  0.2597
   91MOL0     C12441   6.645   8.630   2.608  0.7946 -0.2385 -0.2615
   91MOL0     C12442   6.633   8.682   2.756  0.7161 -0.5707 -0.0220
   91MOL0     C12443   6.683   8.599   2.865  0.1928  0.0036  0.6495
   91MOL0     O12444   6.815   8.558   2.815 -0.4371 -0.3080 -0.1965
   91MOL0     C12445   6.926   8.595   2.895  0.5997  0.3873 -0.5283
   91MOL0     C12446   7.037   8.520   2.861 -0.8725  0.6879  0.5232
   91MOL0     C12447   7.167   8.546   2.914  0.6658 -0.2953  0.1073
   91MOL0     C12448   7.273   8.460   2.855 -0.3141 -0.2693 -0.4345
   91MOL0     C12449   7.175   8.660   3.005 -0.2274  0.4291 -0.2334
   91MOL0     C12450   7.305   8.707   3.059  0.4697 -0.0396 -0.0720
   91MOL0     O12451   7.295   8.789   3.168 -0.3877  0.4025 -0.4584
   91MOL0     C12452   7.411   8.800   3.244  0.6789 -1.2564 -0.4544
   91MOL0     C12453   7.448   8.933   3.284 -1.1702 -0.6281  0.2151
   91MOL0     C12454   7.556   8.952   3.370  0.1882 -0.5255  0.2469
   91MOL0     C12455   7.617   8.841   3.429 -0.3004  0.2914  0.5299
   91MOL0     O12456   7.707   8.864   3.530  0.5886 -0.0546 -0.2885
   91MOL0     C12457   7.727   8.764   3.638  0.6455 -0.8925  0.5738
   91MOL0     C12458   7.821   8.809   3.750 -0.5111 -1.1144 -0.7462
   91MOL0     C12459   7.885   8.705   3.838 -0.0621  0.2988  0.1625
   91MOL0     C12460   7.989   8.774   3.926  0.4788 -0.1233  0.0452
   91MOL0     C12461   8.056   8.662   3.997 -0.1327 -0.3519 -0.8871
   91MOL0     C12462   8.139   8.696   4.126  0.1250 -0.5112  0.8048
   91MOL0     C12463   8.072   8.762   4.244 -0.3712 -0.0695 -0.5732
   91MOL0     C12464   8.016   8.657   4.340 -0.1548 -0.2414  0.9155
   91MOL0    Cl12465   7.898   8.733   4.449  0.7397  0.0083 -0.1011
   91MOL0     C12466   7.586   8.709   3.389 -0.5493 -0.7735  0.0471
   91MOL0     C12467   7.483   8.692   3.295 -0.3233  0.0723 -0.4959
   91MOL0     O12468   7.407   8.674   3.005  0.7171  0.6960  0.6768
   91MOL0     C12469   7.055   8.728   3.046  0.1558  0.6026  0.3922
   91MOL0     C12470   6.929   8.699   2.991 -0.0726 -0.7680 -0.2906
   91MOL0     N12471   6.586   8.316   2.411 -0.0101 -0.1521  0.6919
   91MOL0     N12472   6.587   8.306   2.288 -0.5618  0.9382  0.2090
   91MOL0     C12473   7.421   9.111   1.814 -0.7198  0.7196  0.9517
   91MOL0     C12474   7.446   9.223   1.741  0.7646  0.1415  0.5216
   91MOL0     C12475   7.339   9.671   1.577  1.0373  0.3552  0.8440
   91MOL0     C12476   7.249   9.730   1.491  0.7356 -0.3010  0.0823
   91MOL0     C12477   7.292   9.829   1.400 -0.3676  0.3976 -0.2005
   91MOL0     C12478   7.421   9.876   1.397 -0.3241  0.5448  0.0090
   91MOL0     O12479   7.469   9.981   1.317 -0.5901 -0.7089 -0.0672
   91MOL0     C12480   7.375  10.077   1.270  0.2104 -0.5827  0.8769
   91MOL0     C12481   7.445  10.185   1.197  0.5368 -0.0517 -0.6358
   91MOL0     C12482   7.334  10.285   1.155 -0.3546 -0.4762 -0.6015
   91MOL0     C12483   7.388  10.404   1.079  0.6036 -0.5342  0.1274
   91MOL0     C12484   7.408  10.366   0.934  0.2074  0.2328 -0.4623
   91MOL0     C12485   7.413  10.316   0.825 -0.8274  0.8841 -0.1076
   91MOL0     C12486   7.509   9.814   1.485 -0.2251 -0.2844  0.1878
   91MOL0     C12487   7.477   9.713   1.567  0.1129  0.0475 -1.4629
   91MOL0     C12488   7.585   9.659   1.651 -0.5015 -0.8652  0.7435
   91MOL0     H12489   7.228   9.421   1.912 -0.1537 -1.0171  4.2217
   91MOL0     H12490   7.205   9.233   2.042 -1.1164 -1.6489 -0.6031
   91MOL0     H12491   7.218   9.053   2.151  1.1757 -0.0063 -0.4611
   91MOL0     H12492   7.236   8.888   2.129  1.6777  0.3740  0.0407
   91MOL0     H12493   7.000   8.991   2.089 -0.9303 -1.1038 -0.0814
   91MOL0     H12494   7.056   9.041   1.930  1.9176 -0.9860 -0.2452
   91MOL0     H12495   7.006   8.851   1.850  0.2513  1.5160  0.2974
   91MOL0     H12496   7.142   8.778   1.949  0.6754  1.4646 -0.0287
   91MOL0     H12497   6.992   8.724   2.130  1.8526  0.7004 -0.5534
   91MOL0     H12498   6.854   8.798   2.038 -0.8494 -0.5857 -0.2997
   91MOL0     H12499   7.041   8.563   1.971  0.7995 -0.0917 -1.2966
   91MOL0     H12500   6.894   8.602   1.879 -3.2426 -1.8027  1.5589
   91MOL0     H12501   6.847   8.407   2.002  0.1181  1.6627 -1.2606
   91MOL0     H12502   6.893   8.487   2.158 -1.2266 -1.4115  1.3556
   91MOL0     H12503   6.683   8.586   1.943  0.8637  1.2666 -0.3336
   91MOL0     H12504   6.685   8.639   2.118 -1.6843 -1.4938  0.5656
   91MOL0     H12505   6.498   8.482   2.069  0.1700 -0.6335  0.0911
   91MOL0     H12506   6.625   8.366   2.019 -0.7207  0.5587 -1.3737
   91MOL0     H12507   6.586   8.635   2.308  2.0641 -0.2199  0.6083
   91MOL0     H12508   6.615   8.416   2.648 -1.7336 -2.3454 -1.1223
   91MOL0     H12509   6.471   8.512   2.614  1.8366  4.2537  2.6759
   91MOL0     H12510   6.747   8.626   2.569  0.2797 -1.3949 -1.5889
   91MOL0     H12511   6.616   8.712   2.541  3.2862 -1.5907 -3.2718
   91MOL0     H12512   6.676   8.781   2.772 -2.1990  0.8191 -0.1107
   91MOL0     H12513   6.530   8.703   2.785  1.3857  0.1649  1.9893
   91MOL0     H12514   6.682   8.661   2.955 -0.7376  0.9457  0.0075
   91MOL0     H12515   6.625   8.508   2.885  0.4666 -0.6332 -1.2112
   91MOL0     H12516   7.033   8.436   2.793  1.7193  0.0613  1.0506
   91MOL0     H12517   7.327   8.399   2.928 -0.5722  1.6688  1.4677
   91MOL0     H12518   7.352   8.520   2.810 -0.0882 -0.4957 -0.3405
   91MOL0     H12519   7.230   8.404   2.771 -0.0629  0.5112 -1.1036
   91MOL0     H12520   7.403   9.019   3.236  3.2716  0.3709 -2.7687
   91MOL0     H12521   7.601   9.048   3.393  1.7598 -1.3637  0.8368
   91MOL0     H12522   7.632   8.741   3.686  0.8784  2.7259  3.1170
   91MOL0     H12523   7.766   8.668   3.602 -0.3970 -1.7940  1.7407
   91MOL0     H12524   7.896   8.875   3.705 -2.6558  2.9206  1.1121
   91MOL0     H12525   7.761   8.873   3.815  1.3277  2.2619 -2.1376
   91MOL0     H12526   7.923   8.623   3.777  0.4884 -0.1598  1.0990
   91MOL0     H12527   7.808   8.660   3.902  1.9229  0.7345  2.9985
   91MOL0     H12528   7.935   8.840   3.994 -1.9195 -3.5830  1.8003
   91MOL0     H12529   8.060   8.826   3.861 -0.5077  0.2393 -0.7682
   91MOL0     H12530   7.984   8.586   4.030 -0.8427  1.3402  1.7382
   91MOL0     H12531   8.129   8.627   3.924 -0.7325 -1.4955 -0.9668
   91MOL0     H12532   8.206   8.769   4.078 -1.9014  0.1847 -1.1735
   91MOL0     H12533   8.192   8.609   4.164 -1.9906 -3.2917 -2.0640
   91MOL0     H12534   7.990   8.828   4.217 -2.1142 -1.1130  1.8420
   91MOL0     H12535   8.133   8.834   4.298 -1.2811  0.1171  0.2282
   91MOL0     H12536   8.102   8.624   4.399  0.0641 -1.5857 -0.1221
   91MOL0     H12537   7.971   8.574   4.286  2.8421 -2.4619  1.6049
   91MOL0     H12538   7.629   8.622   3.436 -1.9475 -0.9902  0.9777
   91MOL0     H12539   7.441   8.592   3.286  1.8525 -0.8849 -0.5171
   91MOL0     H12540   7.063   8.808   3.119  3.2055 -0.0290  0.8840
   91MOL0     H12541   6.847   8.761   3.025  2.2486  1.8634  0.9412
   91MOL0     H12542   7.470   9.018   1.788  0.2023  1.4905 -0.1678
   91MOL0     H12543   7.515   9.219   1.657 -0.8387  2.2235 -1.0000
   91MOL0     H12544   7.146   9.697   1.492  0.9320 -1.0714  2.6625
   91MOL0     H12545   7.213   9.864   1.335 -0.9834  1.8736  1.2912
   91MOL0     H12546   7.305  10.034   1.198 -2.3190  3.1215  0.8534
   91MOL0     H12547   7.319  10.132   1.346 -0.1921 -0.6694  0.6445
   91MOL0     H12548   7.483  10.155   1.099 -2.0481  0.3688 -1.8618
   91MOL0     H12549   7.517  10.232   1.264 -1.1631  1.9404 -0.0817
   91MOL0     H12550   7.257  10.230   1.099 -1.2543 -0.7993  0.8949
   91MOL0     H12551   7.288  10.322   1.247  2.9791 -1.4659  1.6370
   91MOL0     H12552   7.484  10.437   1.120  0.0813  2.5629 -0.8752
   91MOL0     H12553   7.313  10.483   1.092  0.4897 -0.7662  0.9309
   91MOL0     H12554   7.418  10.267   0.730  0.8623 -1.5995  1.1570
   91MOL0     H12555   7.614   9.840   1.476 -0.9395  2.8189 -0.1264
   91MOL0     H12556   7.621   9.560   1.622  1.1745  0.9600 -4.7279
   91MOL0     H12557   7.671   9.725   1.638  0.5089 -2.3542 -0.4281
   91MOL0     H12558   7.560   9.663   1.758  2.5693 -2.1416  1.6414
   92MOL0     O12559   2.421  10.774   5.526  0.0643  0.4162 -0.3619
   92MOL0     C12560   2.525  10.743   5.581 -0.7016 -0.4561  0.4737
   92MOL0     O12561   2.537  10.663   5.689  0.3374 -0.8710 -0.4317
   92MOL0     C12562   2.428  10.628   5.764 -0.1613  0.6429  0.0692
   92MOL0     C12563   2.394  10.490   5.762 -0.6586 -0.3657 -0.2195
   92MOL0     C12564   2.300  10.444   5.850  0.8723  1.1045 -0.0191
   92MOL0     C12565   2.235  10.527   5.942  0.6953  0.0964 -0.2390
   92MOL0     O12566   2.133  10.471   6.016 -0.2953  0.6304  1.4131
   92MOL0     C12567   2.076  10.535   6.133  0.3980 -0.0673 -0.4299
   92MOL0     C12568   1.995  10.436   6.222  0.2010 -0.0095  0.9648
   92MOL0     C12569   1.857  10.493   6.263  0.9639  0.5380  0.0818
   92MOL0     C12570   1.852  10.540   6.413  0.2547 -0.5982 -0.3545
   92MOL0     C12571   1.724  10.620   6.451 -0.1352  0.0056  0.4105
   92MOL0     C12572   1.600  10.526   6.463 -0.0240  0.3899 -0.3629
   92MOL0     C12573   1.616  10.424   6.581 -0.0032 -0.0588  0.7098
   92MOL0     C12574   1.625  10.491   6.722 -0.5382  0.8282  0.2621
   92MOL0     N12575   1.514  10.579   6.753  0.4904 -0.1780 -0.8421
   92MOL0     C12576   1.384  10.541   6.791 -0.3891 -0.5168 -0.2561
   92MOL0     C12577   1.323  10.661   6.801 -0.0413  0.3698 -0.4996
   92MOL0     C12578   1.177  10.672   6.852  0.0722 -0.2082  0.0266
   92MOL0     C12579   1.100  10.785   6.786  0.7360 -0.0510 -1.6097
   92MOL0     C12580   0.949  10.775   6.827 -0.2254 -0.1101  0.0828
   92MOL0     C12581   0.859  10.689   6.736 -0.2760  0.4754  0.3765
   92MOL0     O12582   0.802  10.773   6.636  0.1526 -0.2579  0.8492
   92MOL0     C12583   0.725  10.713   6.535 -0.7304 -1.3089 -0.5285
   92MOL0     C12584   0.750  10.736   6.402  0.6208 -0.5278  1.0071
   92MOL0     C12585   0.687  10.676   6.297 -0.0197 -0.4249 -0.5210
   92MOL0     C12586   0.737  10.709   6.161  0.8685 -0.7713  0.3138
   92MOL0     C12587   0.566  10.608   6.322  0.1367 -0.1910 -0.2239
   92MOL0     C12588   0.471  10.567   6.211 -0.0215  0.7428 -0.5117
   92MOL0     O12589   0.484  10.624   6.090 -0.0579 -0.4372  0.0477
   92MOL0     C12590   0.419  10.562   5.987 -0.5406 -0.6757 -0.5060
   92MOL0     C12591   0.500  10.523   5.885  0.4491 -0.5681 -0.1004
   92MOL0     C12592   0.445  10.467   5.767 -0.7801  0.1749  0.6711
   92MOL0     C12593   0.302  10.465   5.746  0.3185 -0.1931  0.5873
   92MOL0     O12594   0.237  10.414   5.632  0.1782  0.1301 -0.0923
   92MOL0     C12595   0.322  10.409   5.518  0.1593 -0.0317 -0.3983
   92MOL0     C12596   0.232  10.407   5.398  0.2008  0.1321  1.2865
   92MOL0     C12597   0.197  10.260   5.368  0.0300 -0.4163 -0.3729
   92MOL0     C12598   0.320  10.192   5.296 -0.4278 -0.1259  0.3506
   92MOL0     C12599   0.290  10.035   5.308 -0.2350  0.5203 -0.1564
   92MOL0     C12600   0.381   9.971   5.416  0.3808 -0.9813 -0.3551
   92MOL0     C12601   0.374   9.830   5.421 -0.1371 -0.4489  0.2396
   92MOL0     C12602   0.492   9.775   5.511 -0.2169  0.4159  0.6688
   92MOL0    Cl12603   0.494   9.588   5.505  0.7322  0.1241  0.3285
   92MOL0     C12604   0.221  10.511   5.853 -0.3634 -0.9375 -0.4563
   92MOL0     C12605   0.279  10.557   5.973 -1.0466 -0.6630  0.6618
   92MOL0     O12606   0.381  10.492   6.249  0.1005 -0.0119  0.2341
   92MOL0     C12607   0.535  10.583   6.466  0.6051 -0.8990  0.8745
   92MOL0     C12608   0.622  10.631   6.567  0.4325 -0.4178  0.1955
   92MOL0     N12609   1.414  10.771   6.770  0.6581  0.4732 -0.2544
   92MOL0     N12610   1.525  10.711   6.739  1.0862 -0.6619  0.4912
   92MOL0     C12611   2.266  10.666   5.941 -0.1972  0.2745 -0.4418
   92MOL0     C12612   2.361  10.719   5.851  0.2598  0.0702 -0.2417
   92MOL0     C12613   2.638  10.763   5.491 -0.2751 -1.0524 -0.2727
   92MOL0     C12614   2.753  10.677   5.500  0.5244  0.3686 -0.1094
   92MOL0     C12615   2.861  10.678   5.412  0.4134  0.4958  0.0821
   92MOL0     C12616   2.861  10.775   5.319  0.0005  0.0055  1.3582
   92MOL0     O12617   2.971  10.768   5.235  0.5327  0.1655 -0.5746
   92MOL0     C12618   2.928  10.738   5.104 -0.5117  0.1819  0.6021
   92MOL0     C12619   3.035  10.801   5.012 -0.6630 -0.0821  0.2824
   92MOL0     C12620   3.173  10.730   4.997 -0.6420  0.6597 -0.2521
   92MOL0     C12621   3.266  10.799   4.885 -1.0062  0.2536  0.4637
   92MOL0     C12622   3.394  10.728   4.876  0.9931 -0.8245 -0.2583
   92MOL0     C12623   3.490  10.655   4.863  0.2409 -0.2439  0.7105
   92MOL0     C12624   2.758  10.866   5.306 -0.4651 -0.2522 -0.0618
   92MOL0     C12625   2.646  10.869   5.397 -0.4782 -0.1172  0.2863
   92MOL0     C12626   2.555  10.990   5.387 -0.8096  0.3999  0.6053
   92MOL0     H12627   2.461  10.429   5.703  1.1653  3.5988 -2.6865
   92MOL0     H12628   2.263  10.342   5.848 -0.6562  1.6443 -2.2566
   92MOL0     H12629   2.010  10.616   6.100 -0.8923 -1.4564 -1.3987
   92MOL0     H12630   2.152  10.582   6.195 -1.7329  1.4816  1.1861
   92MOL0     H12631   1.977  10.351   6.155  0.7008  0.9728 -0.4802
   92MOL0     H12632   2.055  10.398   6.305  1.9876 -2.5393 -1.3002
   92MOL0     H12633   1.819  10.573   6.199  2.2001  1.9876  1.0815
   92MOL0     H12634   1.786  10.414   6.240 -1.9319  2.7373  0.8145
   92MOL0     H12635   1.869  10.450   6.473  0.3807 -1.5282 -1.7396
   92MOL0     H12636   1.945  10.598   6.423  0.5739 -0.7515 -2.1175
   92MOL0     H12637   1.686  10.699   6.386  3.3729  0.9359 -0.7119
   92MOL0     H12638   1.741  10.670   6.547 -1.4534  0.0742  0.6241
   92MOL0     H12639   1.507  10.581   6.480  0.3042  1.1068 -0.8718
   92MOL0     H12640   1.581  10.469   6.371 -1.5372  1.0982 -0.5197
   92MOL0     H12641   1.702  10.359   6.561  0.0367  0.6876 -1.8920
   92MOL0     H12642   1.531  10.356   6.565  0.0942  0.4379 -2.6325
   92MOL0     H12643   1.618  10.400   6.783  2.7902 -0.4484 -1.0303
   92MOL0     H12644   1.720  10.539   6.745 -0.2372  1.0985 -1.4074
   92MOL0     H12645   1.333  10.447   6.808 -4.9264  1.3297 -1.8300
   92MOL0     H12646   1.177  10.684   6.961  0.7089 -0.3154  0.0386
   92MOL0     H12647   1.119  10.582   6.832 -1.5872  0.2732  2.2422
   92MOL0     H12648   1.137  10.885   6.809  0.5732 -0.4683  0.6505
   92MOL0     H12649   1.102  10.793   6.677 -1.6519 -0.0762 -1.7102
   92MOL0     H12650   0.956  10.721   6.922  1.3944 -2.7784 -1.4322
   92MOL0     H12651   0.912  10.877   6.843  2.6089  1.1671 -0.8530
   92MOL0     H12652   0.915  10.602   6.699  0.9735  0.5482  1.9940
   92MOL0     H12653   0.780  10.646   6.798  1.4622 -1.6354  1.2807
   92MOL0     H12654   0.822  10.815   6.383  1.6363 -1.5780  0.3407
   92MOL0     H12655   0.684  10.801   6.134  0.5363 -0.3777  2.1730
   92MOL0     H12656   0.726  10.624   6.093 -3.3581 -0.8587  0.8376
   92MOL0     H12657   0.841  10.741   6.150  0.6739 -0.7036 -1.6725
   92MOL0     H12658   0.608  10.537   5.890  0.4111  1.2469 -2.6229
   92MOL0     H12659   0.504  10.416   5.692 -2.9035 -1.1580 -0.1953
   92MOL0     H12660   0.383  10.499   5.512  2.1626 -0.8058  4.2402
   92MOL0     H12661   0.390  10.323   5.514 -1.6288 -1.5483  0.6321
   92MOL0     H12662   0.138  10.463   5.403  1.1023  1.6691  1.8870
   92MOL0     H12663   0.279  10.442   5.306 -2.0339  0.5988  0.2540
   92MOL0     H12664   0.108  10.245   5.307 -0.2639  0.0084 -0.0539
   92MOL0     H12665   0.177  10.206   5.461  1.6554 -0.4464 -0.0152
   92MOL0     H12666   0.418  10.218   5.337 -0.5453 -1.8314  1.7924
   92MOL0     H12667   0.330  10.225   5.192  0.0332  2.0938  1.0400
   92MOL0     H12668   0.184  10.023   5.332 -0.0708 -0.4104  0.1616
   92MOL0     H12669   0.302   9.991   5.208  1.2804 -2.4171  1.1961
   92MOL0     H12670   0.357  10.016   5.513  1.7230 -2.6468  0.8160
   92MOL0     H12671   0.480   9.999   5.380  0.5724 -2.3723 -0.9553
   92MOL0     H12672   0.377   9.794   5.318 -0.5926  1.5528 -0.5269
   92MOL0     H12673   0.280   9.802   5.469  1.8364 -2.7286  3.1581
   92MOL0     H12674   0.482   9.811   5.614  1.4703  1.7617  0.4045
   92MOL0     H12675   0.583   9.820   5.469 -0.1479  0.4897  0.8932
   92MOL0     H12676   0.117  10.532   5.828 -0.8362 -1.6994  0.7482
   92MOL0     H12677   0.226  10.608   6.054  0.3171  0.6017  0.7935
   92MOL0     H12678   0.455  10.519   6.502  0.0980 -1.4226 -1.0441
   92MOL0     H12679   0.598  10.601   6.668  1.2531 -0.4137  0.4037
   92MOL0     H12680   2.228  10.734   6.015 -0.0316 -1.1075  0.9622
   92MOL0     H12681   2.396  10.821   5.862 -1.5637  0.5209  2.3209
   92MOL0     H12682   2.757  10.600   5.577 -0.9518 -0.0299 -0.4190
   92MOL0     H12683   2.939  10.602   5.412  1.6037  1.6363  1.8495
   92MOL0     H12684   2.905  10.631   5.100  2.4806 -0.5390  0.3982
   92MOL0     H12685   2.828  10.770   5.072 -0.6311 -0.5969  0.1657
   92MOL0     H12686   3.064  10.903   5.038  0.2672 -0.1661 -0.4029
   92MOL0     H12687   2.990  10.815   4.913  0.2896 -1.1648 -0.3305
   92MOL0     H12688   3.230  10.733   5.091 -1.9076  0.4277  0.5556
   92MOL0     H12689   3.178  10.623   4.976 -1.4528  0.6002 -0.1752
   92MOL0     H12690   3.286  10.905   4.901  0.1148 -0.2983  3.2713
   92MOL0     H12691   3.219  10.779   4.788  0.1416  1.4751 -0.3725
   92MOL0     H12692   3.578  10.593   4.862 -1.2255 -2.4715 -0.6037
   92MOL0     H12693   2.765  10.954   5.244  1.6934  1.6174  2.5768
   92MOL0     H12694   2.501  11.004   5.481 -0.6286 -0.7516  0.8826
   92MOL0     H12695   2.612  11.083   5.373  0.3094 -0.2945  0.4672
   92MOL0     H12696   2.485  10.983   5.303 -0.6897  1.1994  0.4291
   93MOL0     O12697  10.798   0.113   9.589  0.6988  0.4336 -0.2724
   93MOL0     C12698  10.824   0.229   9.626  0.0436  0.4977  0.3706
   93MOL0     O12699  10.936   0.302   9.580 -0.9159 -0.5557  0.5758
   93MOL0     C12700  11.017   0.226   9.491  0.4571 -0.5711  0.0288
   93MOL0     C12701  11.140   0.186   9.545  1.0329  1.6839 -0.2262
   93MOL0     C12702  11.232   0.098   9.480  0.4314  0.3201 -0.0284
   93MOL0     C12703  11.204   0.066   9.342 -0.0776 -0.6697  0.9580
   93MOL0     O12704  11.300  -0.017   9.285  0.2782  0.4388 -0.1531
   93MOL0     C12705  11.313  -0.014   9.143  0.1898 -0.7210  0.3137
   93MOL0     C12706  11.420  -0.117   9.103 -0.1704  0.4997 -0.1543
   93MOL0     C12707  11.557  -0.081   9.163 -0.5376  0.5318  0.7211
   93MOL0     C12708  11.671  -0.166   9.121  0.7335  0.5618  0.3553
   93MOL0     C12709  11.794  -0.134   9.200 -0.2657  0.1531  0.8150
   93MOL0     C12710  11.900  -0.236   9.160  0.4225 -0.3058  0.3242
   93MOL0     C12711  12.039  -0.202   9.203 -0.3591 -0.4492 -0.2487
   93MOL0     C12712  12.130  -0.324   9.190 -0.1717  0.4512  0.2553
   93MOL0     N12713  12.175  -0.331   9.052  0.0570 -0.0796 -1.1837
   93MOL0     C12714  12.184  -0.453   8.974 -0.8791 -0.8653  0.4925
   93MOL0     C12715  12.268  -0.418   8.872 -0.0385  0.7500 -0.0420
   93MOL0     C12716  12.309  -0.504   8.755 -0.1928 -0.2303 -1.1160
   93MOL0     C12717  12.209  -0.605   8.707  0.5175 -0.3256  0.5403
   93MOL0     C12718  12.218  -0.730   8.797  1.4505  0.8155  0.2671
   93MOL0     C12719  12.194  -0.854   8.708 -0.4139 -0.0602  0.4522
   93MOL0     O12720  12.128  -0.965   8.780  0.8110  0.0657 -0.1783
   93MOL0     C12721  12.204  -1.051   8.848 -0.2533 -0.9100 -1.5735
   93MOL0     C12722  12.142  -1.161   8.903  0.3556 -0.0493 -0.0266
   93MOL0     C12723  12.218  -1.266   8.966  0.1104 -0.3534 -0.4088
   93MOL0     C12724  12.136  -1.375   9.033  0.1540  0.1988 -0.3024
   93MOL0     C12725  12.356  -1.264   8.971 -0.3545 -0.4706 -0.9306
   93MOL0     C12726  12.447  -1.364   9.030  0.3167 -0.7829 -0.2663
   93MOL0     O12727  12.391  -1.468   9.096 -0.0375  0.7756  0.9891
   93MOL0     C12728  12.473  -1.562   9.159 -0.3418  0.3835  0.0117
   93MOL0     C12729  12.415  -1.687   9.185  0.0695  1.1489  0.0538
   93MOL0     C12730  12.479  -1.795   9.250 -0.2418 -0.4144 -0.1028
   93MOL0     C12731  12.613  -1.777   9.296 -0.4235 -0.3534 -0.4033
   93MOL0     O12732  12.679  -1.886   9.346  0.3424  0.2914  0.6554
   93MOL0     C12733  12.651  -1.925   9.479  0.2583  0.1282 -0.9760
   93MOL0     C12734  12.686  -1.823   9.591  0.3206  0.0539  0.1705
   93MOL0     C12735  12.686  -1.883   9.731 -0.1098 -0.1198  0.1236
   93MOL0     C12736  12.755  -1.782   9.834  0.0109  0.3402 -0.0462
   93MOL0     C12737  12.749  -1.836   9.980 -0.0387  0.1120  0.5079
   93MOL0     C12738  12.856  -1.954   9.987 -0.0516 -0.6475 -0.0208
   93MOL0     C12739  12.866  -1.997  10.135  0.1315  0.5834  0.2013
   93MOL0     C12740  12.962  -2.118  10.150 -0.0798  0.4198 -0.3791
   93MOL0    Cl12741  12.887  -2.255  10.223  0.1131  0.0426 -0.3538
   93MOL0     C12742  12.673  -1.660   9.273 -0.4595 -0.7785  0.0915
   93MOL0     C12743  12.606  -1.552   9.214  0.2716  0.7150  0.1201
   93MOL0     O12744  12.565  -1.348   9.009  0.4833  0.7036  0.0602
   93MOL0     C12745  12.413  -1.142   8.927 -0.0697  0.2035  0.6850
   93MOL0     C12746  12.340  -1.043   8.862  0.6755 -0.2845 -0.6864
   93MOL0     N12747  12.296  -0.280   8.878 -0.5466  0.5340 -0.6216
   93MOL0     N12748  12.243  -0.234   8.989 -0.4695 -0.2549 -1.1533
   93MOL0     C12749  11.088   0.120   9.283 -0.2465  0.5280 -0.2957
   93MOL0     C12750  10.991   0.184   9.363  0.3483 -1.4867  0.3045
   93MOL0     C12751  10.721   0.296   9.711  0.7374  0.9609 -0.6762
   93MOL0     C12752  10.705   0.227   9.829  0.3909  0.2133 -0.6464
   93MOL0     C12753  10.604   0.272   9.927  0.5359 -0.6283  0.1343
   93MOL0     C12754  10.534   0.392   9.900 -0.0072  0.9925  0.8591
   93MOL0     O12755  10.442   0.434   9.987  0.2003 -1.0191 -0.3045
   93MOL0     C12756  10.390   0.571   9.972 -0.1848  0.0421 -0.1168
   93MOL0     C12757  10.301   0.609  10.090  0.2377  0.9202 -0.1261
   93MOL0     C12758  10.183   0.509  10.099 -0.8386 -0.2451  1.1312
   93MOL0     C12759  10.119   0.518  10.238 -0.0331  0.9023  0.4207
   93MOL0     C12760  10.204   0.435  10.334  0.9149 -0.6916  0.3281
   93MOL0     C12761  10.273   0.365  10.406 -0.3091  0.0131 -0.2508
   93MOL0     C12762  10.558   0.462   9.782  1.3093 -0.2701  0.4188
   93MOL0     C12763  10.647   0.412   9.686 -0.0696  0.5656  0.0349
   93MOL0     C12764  10.676   0.496   9.571  0.4253  0.5175  0.4490
   93MOL0     H12765  11.165   0.218   9.645  0.0783  3.1791 -0.4330
   93MOL0     H12766  11.322   0.054   9.523  0.4631  0.3998 -0.0122
   93MOL0     H12767  11.345   0.083   9.102 -1.9326 -0.2773 -0.4383
   93MOL0     H12768  11.219  -0.041   9.095  0.2578  0.1308 -0.3411
   93MOL0     H12769  11.390  -0.217   9.136  0.2027  0.7781  1.0500
   93MOL0     H12770  11.434  -0.128   8.995  3.6544 -2.5029  0.4014
   93MOL0     H12771  11.577   0.023   9.135 -0.5622  0.0129 -1.3602
   93MOL0     H12772  11.548  -0.077   9.272 -1.4323  1.1085  0.6422
   93MOL0     H12773  11.644  -0.270   9.140  2.3585 -0.9267 -4.1842
   93MOL0     H12774  11.679  -0.146   9.014 -3.1906  2.3287  0.2031
   93MOL0     H12775  11.769  -0.130   9.307  1.7977 -4.3740  1.7305
   93MOL0     H12776  11.826  -0.032   9.180 -2.0138  1.1523  2.8038
   93MOL0     H12777  11.882  -0.337   9.197  0.8162  0.7950  3.9805
   93MOL0     H12778  11.899  -0.223   9.051 -0.5144  1.0123  0.4606
   93MOL0     H12779  12.040  -0.176   9.309 -0.2254  0.4330 -0.4555
   93MOL0     H12780  12.072  -0.113   9.150 -1.3122 -0.3351 -0.6670
   93MOL0     H12781  12.216  -0.286   9.247 -1.3665  2.2993  0.9279
   93MOL0     H12782  12.093  -0.417   9.234  2.7841 -0.3321  1.3534
   93MOL0     H12783  12.138  -0.547   9.000 -3.6718  1.0798  3.3986
   93MOL0     H12784  12.392  -0.572   8.776  0.4858  0.0486 -2.7294
   93MOL0     H12785  12.325  -0.430   8.676  1.3904  1.5949  0.7827
   93MOL0     H12786  12.109  -0.568   8.727  1.7541  2.7695  1.6320
   93MOL0     H12787  12.247  -0.632   8.608  0.8148  0.9601  0.2854
   93MOL0     H12788  12.312  -0.752   8.849  2.1215 -1.5301 -1.7519
   93MOL0     H12789  12.130  -0.728   8.862  0.2975 -2.5579 -0.9933
   93MOL0     H12790  12.134  -0.808   8.629  1.0445  0.2935 -0.4974
   93MOL0     H12791  12.276  -0.896   8.649 -1.9092 -1.0630 -1.0247
   93MOL0     H12792  12.039  -1.173   8.869  1.2078  0.6306 -3.2375
   93MOL0     H12793  12.148  -1.386   9.141  0.7577  1.5068 -0.2159
   93MOL0     H12794  12.150  -1.468   8.977  1.1226  0.4504 -0.4880
   93MOL0     H12795  12.029  -1.356   9.021  0.0019 -1.0456 -1.1771
   93MOL0     H12796  12.320  -1.710   9.138  1.8800  1.7855 -4.3213
   93MOL0     H12797  12.439  -1.896   9.245  0.0590 -0.4737 -1.9504
   93MOL0     H12798  12.552  -1.970   9.485  0.3503 -0.1741 -1.6383
   93MOL0     H12799  12.714  -2.013   9.497  1.9506  1.0756 -1.9826
   93MOL0     H12800  12.782  -1.772   9.580 -0.6292  2.2365  1.4598
   93MOL0     H12801  12.606  -1.748   9.588  1.0858  0.8540 -0.5824
   93MOL0     H12802  12.750  -1.971   9.718  1.1143  0.9126 -1.1155
   93MOL0     H12803  12.592  -1.928   9.765  1.2237 -2.1692  1.2882
   93MOL0     H12804  12.701  -1.687   9.830 -2.5918 -0.9721  1.1718
   93MOL0     H12805  12.856  -1.762   9.798 -0.8117  4.1501 -0.5714
   93MOL0     H12806  12.777  -1.763  10.056  2.0777 -0.9019  0.7781
   93MOL0     H12807  12.651  -1.870  10.014 -0.1258 -0.0058  0.1462
   93MOL0     H12808  12.953  -1.920   9.951 -0.9979  3.6189  0.9941
   93MOL0     H12809  12.819  -2.035   9.923  0.0807 -0.3321 -0.4960
   93MOL0     H12810  12.779  -2.018  10.197  1.8638 -1.6028  2.0975
   93MOL0     H12811  12.897  -1.911  10.195  0.1491 -0.6435  2.0182
   93MOL0     H12812  13.052  -2.087  10.205 -1.0013  1.3440  0.6674
   93MOL0     H12813  12.991  -2.157  10.053  2.2312  0.0695  0.3839
   93MOL0     H12814  12.775  -1.647   9.309 -0.1604 -0.4370 -0.8480
   93MOL0     H12815  12.653  -1.454   9.219 -0.9419  1.2890  1.0852
   93MOL0     H12816  12.521  -1.126   8.927 -0.2331  1.4937 -0.4055
   93MOL0     H12817  12.400  -0.966   8.815  0.7987  0.5997  0.8353
   93MOL0     H12818  11.063   0.096   9.180 -1.9500 -0.4902  0.3010
   93MOL0     H12819  10.899   0.221   9.319  2.5553  2.2726 -1.7068
   93MOL0     H12820  10.749   0.132   9.858 -1.9669 -0.4422  1.0413
   93MOL0     H12821  10.569   0.228  10.020 -2.0909 -0.9888 -0.9506
   93MOL0     H12822  10.470   0.645   9.975 -2.3607  2.6462 -1.5866
   93MOL0     H12823  10.339   0.563   9.875  0.5475 -2.0069 -0.3914
   93MOL0     H12824  10.256   0.706  10.072  0.9996  1.9729  2.9845
   93MOL0     H12825  10.361   0.613  10.182  1.1267  2.1988 -0.7261
   93MOL0     H12826  10.114   0.531  10.017 -0.5157  1.1782  1.2190
   93MOL0     H12827  10.216   0.408  10.075 -3.3878 -1.2718  1.6436
   93MOL0     H12828  10.018   0.476  10.244 -0.1148  0.9799 -0.3484
   93MOL0     H12829  10.116   0.626  10.258 -4.3690  1.0646 -0.0794
   93MOL0     H12830  10.343   0.310  10.465 -0.2560  0.0079 -0.3194
   93MOL0     H12831  10.521   0.563   9.769  2.0352 -0.2159 -1.6453
   93MOL0     H12832  10.589   0.510   9.507  1.2805  2.3440 -0.3715
   93MOL0     H12833  10.688   0.599   9.604 -0.0957  1.3965 -1.9561
   93MOL0     H12834  10.757   0.456   9.509 -1.9471 -2.5219 -0.9903
   94MOL0     O12835   9.583   1.417   6.469 -0.1047 -0.6351 -0.3009
   94MOL0     C12836   9.665   1.499   6.506  0.2431 -0.4239 -0.7081
   94MOL0     O12837   9.654   1.579   6.622  0.1553  1.1025  0.5340
   94MOL0     C12838   9.542   1.579   6.696  0.3131 -0.1401  0.0824
   94MOL0     C12839   9.571   1.587   6.830 -0.0378  0.4278  0.7679
   94MOL0     C12840   9.473   1.600   6.923  0.2613  1.2231  0.0273
   94MOL0     C12841   9.332   1.596   6.891  0.5897 -0.0858 -0.4460
   94MOL0     O12842   9.220   1.610   6.983  0.0215  0.0888 -0.7174
   94MOL0     C12843   9.255   1.558   7.113 -0.9227 -0.8418  0.6008
   94MOL0     C12844   9.133   1.532   7.187  0.1520 -0.0333 -0.0795
   94MOL0     C12845   9.089   1.651   7.275  0.6083  0.3221  0.4099
   94MOL0     C12846   9.184   1.674   7.388  0.0128  0.0173 -0.5610
   94MOL0     C12847   9.138   1.781   7.485 -0.1532 -0.5248  1.2698
   94MOL0     C12848   9.243   1.808   7.599 -0.2795  0.2499 -0.5429
   94MOL0     C12849   9.199   1.915   7.700 -0.6642  0.5578 -0.0980
   94MOL0     C12850   9.326   1.965   7.768 -0.1592 -0.2597 -0.0526
   94MOL0     N12851   9.288   2.076   7.864  1.0155  0.8168 -0.7141
   94MOL0     C12852   9.265   2.202   7.823  0.9307 -0.3080  0.0207
   94MOL0     C12853   9.257   2.273   7.938 -0.0834  0.5680 -0.1240
   94MOL0     C12854   9.255   2.419   7.955 -0.8352 -0.0183  0.1657
   94MOL0     C12855   9.369   2.480   8.045  0.6247  0.8319  0.0785
   94MOL0     C12856   9.506   2.461   8.002 -0.0846  0.7055 -0.4957
   94MOL0     C12857   9.561   2.557   7.885 -0.1360  0.2027 -0.6415
   94MOL0     O12858   9.562   2.690   7.930  0.2806 -0.4895 -0.0594
   94MOL0     C12859   9.684   2.750   7.947 -0.7669 -0.1505 -0.4404
   94MOL0     C12860   9.759   2.788   7.834 -0.4050  0.6333  0.5512
   94MOL0     C12861   9.879   2.863   7.845  0.0451 -1.4031  0.8731
   94MOL0     C12862   9.940   2.906   7.705 -0.3298 -0.1752  0.7159
   94MOL0     C12863   9.929   2.915   7.965 -0.4197 -0.0244 -0.1149
   94MOL0     C12864  10.044   2.999   7.989  0.3054  0.4503  0.5855
   94MOL0     O12865  10.081   3.019   8.122 -0.7027  0.4921 -0.3114
   94MOL0     C12866  10.183   3.108   8.150 -0.2227  0.1641 -0.2755
   94MOL0     C12867  10.322   3.078   8.140 -0.3628  0.3801  0.0410
   94MOL0     C12868  10.413   3.177   8.166 -0.6613 -0.1069 -0.0913
   94MOL0     C12869  10.370   3.311   8.180 -0.8019 -0.0822  0.2619
   94MOL0     O12870  10.458   3.417   8.192  0.3395 -0.3627 -0.1181
   94MOL0     C12871  10.601   3.407   8.196 -0.2253  0.5036  0.2465
   94MOL0     C12872  10.645   3.554   8.232  0.2149  0.8154  0.0232
   94MOL0     C12873  10.653   3.638   8.115  1.0249 -0.0789  0.6186
   94MOL0     C12874  10.679   3.784   8.161 -0.7975  0.8473  0.0148
   94MOL0     C12875  10.678   3.890   8.051  1.3771  0.7584  0.0899
   94MOL0     C12876  10.736   4.025   8.105  0.4007 -0.5029 -0.1847
   94MOL0     C12877  10.664   4.094   8.220 -0.4886  0.1229 -0.0751
   94MOL0     C12878  10.768   4.193   8.298 -0.0690  0.4483 -0.3926
   94MOL0    Cl12879  10.880   4.094   8.393 -0.5771  0.2239  0.1765
   94MOL0     C12880  10.235   3.337   8.188 -0.0411 -0.7543 -1.0135
   94MOL0     C12881  10.139   3.240   8.165  0.2115 -0.0896 -0.4434
   94MOL0     O12882  10.100   3.044   7.888 -0.3964 -0.8360 -0.6316
   94MOL0     C12883   9.850   2.873   8.078  0.3945 -0.6345  0.0606
   94MOL0     C12884   9.738   2.792   8.074 -0.0817 -0.8205  1.1865
   94MOL0     N12885   9.266   2.196   8.050 -0.3095  0.9537  0.1275
   94MOL0     N12886   9.300   2.080   8.002  0.1756 -0.5318 -0.4020
   94MOL0     C12887   9.302   1.582   6.756 -0.6869  0.0289 -0.2958
   94MOL0     C12888   9.406   1.579   6.655  0.0382 -0.4462  0.2147
   94MOL0     C12889   9.777   1.544   6.416 -0.3655 -0.4468 -0.0860
   94MOL0     C12890   9.790   1.679   6.387 -0.1276 -0.5079  1.6427
   94MOL0     C12891   9.889   1.722   6.301  0.9906 -0.0580  1.1807
   94MOL0     C12892   9.992   1.632   6.265 -0.5701  0.1910 -0.7847
   94MOL0     O12893  10.107   1.664   6.194  0.2590 -0.7063 -0.3313
   94MOL0     C12894  10.120   1.796   6.138 -0.1975  0.1112  0.4138
   94MOL0     C12895  10.042   1.820   6.012 -0.0219 -0.3980  0.2644
   94MOL0     C12896  10.088   1.954   5.941  0.1043 -0.6297 -0.2397
   94MOL0     C12897   9.987   2.020   5.846 -1.2226 -0.7205  0.6422
   94MOL0     C12898   9.941   2.147   5.900  0.2719 -0.1005  0.7043
   94MOL0     C12899   9.904   2.258   5.930 -0.6161 -0.6751 -1.3823
   94MOL0     C12900   9.979   1.496   6.299 -0.3926 -0.4854 -0.7584
   94MOL0     C12901   9.870   1.450   6.372 -0.5444 -0.5908 -0.3366
   94MOL0     C12902   9.865   1.296   6.400 -1.6673  0.3006 -0.5223
   94MOL0     H12903   9.674   1.586   6.863 -0.0295  1.3870  0.7881
   94MOL0     H12904   9.494   1.600   7.029 -1.6098 -0.4610  0.4561
   94MOL0     H12905   9.320   1.628   7.167  0.2692 -1.2790 -0.2147
   94MOL0     H12906   9.305   1.462   7.097  1.4030  0.3122  0.5927
   94MOL0     H12907   9.050   1.498   7.125 -0.9636 -0.9476  1.8057
   94MOL0     H12908   9.145   1.448   7.256  0.7561 -1.0965 -1.4395
   94MOL0     H12909   9.073   1.731   7.201 -0.7201  0.5016  0.8671
   94MOL0     H12910   8.986   1.637   7.309  1.1098 -1.8352  1.1644
   94MOL0     H12911   9.198   1.582   7.445 -3.6042  0.0120  0.5557
   94MOL0     H12912   9.278   1.717   7.351 -1.3900  3.1862 -0.7684
   94MOL0     H12913   9.037   1.757   7.520 -2.2366 -0.0950 -3.6462
   94MOL0     H12914   9.123   1.879   7.440  1.0298 -1.0251 -0.2983
   94MOL0     H12915   9.272   1.720   7.658  2.1822  2.2918  1.5648
   94MOL0     H12916   9.347   1.822   7.569  0.4993 -1.2274  1.2213
   94MOL0     H12917   9.121   1.877   7.767 -4.0478  1.3304 -3.3029
   94MOL0     H12918   9.154   1.991   7.636 -0.7318 -2.0448 -3.3979
   94MOL0     H12919   9.369   1.880   7.822  0.3483  0.0907  0.1068
   94MOL0     H12920   9.402   2.000   7.697  2.0932 -2.4561  1.1417
   94MOL0     H12921   9.262   2.249   7.725  0.1846 -2.0886 -0.8501
   94MOL0     H12922   9.156   2.451   7.989 -0.7619 -1.6368  2.0375
   94MOL0     H12923   9.269   2.451   7.851  2.6910  0.1654  0.5610
   94MOL0     H12924   9.344   2.584   8.070  0.1126  0.6314  0.4123
   94MOL0     H12925   9.362   2.429   8.142  0.2631 -0.1400 -0.4507
   94MOL0     H12926   9.570   2.471   8.090 -0.4441 -0.6408 -0.0575
   94MOL0     H12927   9.516   2.353   7.986 -0.5158  0.4092  1.0480
   94MOL0     H12928   9.662   2.535   7.851  0.5632  2.1421  0.0913
   94MOL0     H12929   9.505   2.544   7.792 -1.3286  2.4765 -0.3098
   94MOL0     H12930   9.720   2.753   7.738 -0.7848 -1.1276  1.3002
   94MOL0     H12931   9.945   3.016   7.703  1.2486 -0.2377 -0.4483
   94MOL0     H12932   9.894   2.873   7.612  0.8201  1.3472 -0.4453
   94MOL0     H12933  10.044   2.872   7.700 -0.5055 -0.8351  1.4078
   94MOL0     H12934  10.348   2.978   8.106 -1.9678 -0.6815  1.7677
   94MOL0     H12935  10.517   3.146   8.166 -0.5185  0.0450 -3.1726
   94MOL0     H12936  10.637   3.331   8.267  1.3930 -0.6303 -1.6677
   94MOL0     H12937  10.643   3.374   8.100  3.6698  0.2258  1.8571
   94MOL0     H12938  10.580   3.598   8.308 -0.0817  1.6181 -0.6907
   94MOL0     H12939  10.745   3.539   8.274 -0.3930 -3.3250  0.4513
   94MOL0     H12940  10.562   3.632   8.055  0.7534  2.3642  0.7172
   94MOL0     H12941  10.739   3.607   8.054  0.8420  1.4989 -0.4980
   94MOL0     H12942  10.767   3.789   8.225 -0.8025  1.3952 -0.0201
   94MOL0     H12943  10.589   3.798   8.223 -1.3654 -0.3394 -0.4895
   94MOL0     H12944  10.733   3.857   7.963  1.0883 -1.6069  0.7328
   94MOL0     H12945  10.579   3.906   8.008  0.0347 -0.9584  2.2942
   94MOL0     H12946  10.736   4.087   8.015 -0.8051  0.9823  0.7993
   94MOL0     H12947  10.840   4.008   8.133  1.5120  4.5928 -0.3302
   94MOL0     H12948  10.628   4.015   8.287  0.0306 -1.6963 -1.8316
   94MOL0     H12949  10.577   4.144   8.176 -3.6309 -2.8267  2.2779
   94MOL0     H12950  10.726   4.270   8.363  2.7727 -1.1571  3.8275
   94MOL0     H12951  10.838   4.232   8.224  0.1016 -2.4819 -1.9102
   94MOL0     H12952  10.204   3.440   8.197 -3.6413 -1.7256 -0.5269
   94MOL0     H12953  10.045   3.280   8.129  0.8289  2.6026  0.6525
   94MOL0     H12954   9.880   2.902   8.178 -1.7671  2.1596  0.0223
   94MOL0     H12955   9.679   2.760   8.159 -0.6818 -0.1485  1.0276
   94MOL0     H12956   9.201   1.570   6.721 -0.5405 -0.1225 -0.6677
   94MOL0     H12957   9.383   1.582   6.549 -1.9473  0.3273  0.6163
   94MOL0     H12958   9.716   1.754   6.414  0.1405 -1.1825  4.5935
   94MOL0     H12959   9.879   1.822   6.260 -3.4901 -0.1708  1.5048
   94MOL0     H12960  10.078   1.875   6.200  0.1394  1.1919 -0.6949
   94MOL0     H12961  10.226   1.818   6.124  0.1171 -0.4626  1.7085
   94MOL0     H12962   9.936   1.837   6.033 -0.2854  0.7684 -1.7093
   94MOL0     H12963  10.058   1.740   5.940  0.1722 -0.4924  0.4140
   94MOL0     H12964  10.113   2.023   6.023 -0.6287 -0.1145 -0.4420
   94MOL0     H12965  10.184   1.951   5.887  0.7699 -2.1158  0.9635
   94MOL0     H12966   9.905   1.950   5.831  0.2059 -2.7632  1.8567
   94MOL0     H12967  10.033   2.050   5.751 -0.5285  1.5447  1.6180
   94MOL0     H12968   9.875   2.361   5.943 -0.5406 -0.7173 -0.8618
   94MOL0     H12969  10.054   1.430   6.259 -1.6274 -1.9679 -0.7189
   94MOL0     H12970   9.856   1.293   6.509  2.3769  0.1597 -0.0349
   94MOL0     H12971   9.779   1.249   6.353  0.5609 -3.7747 -0.9946
   94MOL0     H12972   9.959   1.246   6.374  0.0816  1.0080  3.5319
   95MOL0     O12973   3.952  10.935   3.515  1.1711 -0.0086  0.2297
   95MOL0     C12974   3.914  11.034   3.442 -0.4395  0.2038 -0.3560
   95MOL0     O12975   3.980  11.065   3.326 -0.4345 -0.1239 -0.2986
   95MOL0     C12976   4.072  10.988   3.258  0.0206 -0.0514 -0.0224
   95MOL0     C12977   4.131  11.053   3.146 -0.1235  0.2134  1.3108
   95MOL0     C12978   4.232  10.992   3.069 -0.2396 -0.2022  0.0162
   95MOL0     C12979   4.256  10.854   3.102 -0.2077  0.1520  0.0026
   95MOL0     O12980   4.338  10.776   3.026  0.2785 -0.4419 -0.2284
   95MOL0     C12981   4.438  10.845   2.955 -0.0177  0.7721 -0.0030
   95MOL0     C12982   4.527  10.735   2.876  0.1414 -0.3295  0.5652
   95MOL0     C12983   4.598  10.632   2.965  0.4460  0.6689  0.4549
   95MOL0     C12984   4.706  10.574   2.887 -0.1265 -0.2445  0.4928
   95MOL0     C12985   4.769  10.450   2.953 -0.2690 -0.7130  0.2990
   95MOL0     C12986   4.880  10.400   2.859  1.2525 -0.1535  0.9589
   95MOL0     C12987   4.926  10.270   2.913  0.6915  0.6186  0.4577
   95MOL0     C12988   5.048  10.214   2.834 -0.0859 -0.1288 -0.0817
   95MOL0     N12989   5.108  10.094   2.899 -0.4875 -0.2713  0.5158
   95MOL0     C12990   5.182  10.100   3.021  0.0116  1.1941 -0.2551
   95MOL0     C12991   5.273  10.001   3.000  0.3981  0.5234 -0.0650
   95MOL0     C12992   5.382   9.970   3.095 -0.2213  0.3304 -0.3911
   95MOL0     C12993   5.490   9.900   3.020 -0.0988  0.3518 -0.0438
   95MOL0     C12994   5.622   9.859   3.102 -0.3200 -0.0335  0.8604
   95MOL0     C12995   5.709   9.766   3.013  0.0631 -0.0656  0.3266
   95MOL0     O12996   5.803   9.708   3.101 -0.4449 -1.0714  0.4389
   95MOL0     C12997   5.924   9.761   3.115  0.1294  1.1687 -0.4023
   95MOL0     C12998   5.995   9.750   3.236 -0.2381  0.9236 -0.3431
   95MOL0     C12999   6.129   9.795   3.244 -0.4334  0.8460 -0.1450
   95MOL0     C13000   6.185   9.765   3.378 -0.6315  0.1107  0.0833
   95MOL0     C13001   6.203   9.841   3.128  0.9190  0.4619 -0.3615
   95MOL0     C13002   6.347   9.883   3.136 -0.7440  0.2944  0.4042
   95MOL0     O13003   6.405   9.931   3.025  0.9372 -0.1183  0.2656
   95MOL0     C13004   6.539   9.945   3.026  0.7781  0.4792  0.8837
   95MOL0     C13005   6.594  10.074   3.023 -0.5034 -0.0371  0.7913
   95MOL0     C13006   6.724  10.101   2.999 -0.6189  0.4982 -0.1378
   95MOL0     C13007   6.814   9.991   2.988 -0.2436 -0.3850 -0.3722
   95MOL0     O13008   6.944  10.019   2.955 -0.3593 -0.3087  0.3646
   95MOL0     C13009   7.050   9.920   2.973 -0.0361  0.8551 -0.0909
   95MOL0     C13010   7.187   9.971   2.953  0.3024 -0.0160  0.1019
   95MOL0     C13011   7.231  10.060   3.069  0.6396  0.9346 -0.0596
   95MOL0     C13012   7.372  10.109   3.024  0.7381 -0.2339  0.2804
   95MOL0     C13013   7.412  10.249   3.078 -0.3540 -0.2214  0.1619
   95MOL0     C13014   7.358  10.356   2.988 -0.1389 -0.2152  0.3785
   95MOL0     C13015   7.443  10.484   2.998 -0.0684 -0.4449  0.0441
   95MOL0     C13016   7.387  10.593   2.897 -1.0753 -0.4701  0.5146
   95MOL0    Cl13017   7.487  10.734   2.890  0.0549 -0.0297 -0.2339
   95MOL0     C13018   6.764   9.859   3.001  1.2584  0.0137 -0.3847
   95MOL0     C13019   6.627   9.839   3.018 -0.0587  0.0970  0.1136
   95MOL0     O13020   6.396   9.883   3.243  0.2736 -0.3211 -0.6933
   95MOL0     C13021   6.127   9.843   3.010 -0.6745 -0.3323  0.2475
   95MOL0     C13022   5.992   9.808   3.005  0.1165  0.1898  0.0654
   95MOL0     N13023   5.259   9.951   2.870 -0.5453 -0.0172  0.1876
   95MOL0     N13024   5.158   9.994   2.810  0.0646 -0.0488 -0.0300
   95MOL0     C13025   4.185  10.795   3.202 -0.8027  0.2913  0.2175
   95MOL0     C13026   4.098  10.859   3.282  0.5658  0.1144  1.6469
   95MOL0     C13027   3.823  11.131   3.499  0.7183 -1.5436  0.6327
   95MOL0     C13028   3.824  11.262   3.453 -0.4466  0.3814  0.1003
   95MOL0     C13029   3.758  11.368   3.518  0.0004  0.0446  0.1988
   95MOL0     C13030   3.678  11.339   3.633  0.1293  0.2266 -0.1419
   95MOL0     O13031   3.620  11.449   3.692 -0.3881 -0.4281 -0.3280
   95MOL0     C13032   3.504  11.436   3.776 -0.4486 -0.0507 -0.0003
   95MOL0     C13033   3.442  11.556   3.831  0.3847  0.3720  1.0362
   95MOL0     C13034   3.490  11.676   3.753 -0.0055  0.4146  0.2261
   95MOL0     C13035   3.400  11.796   3.746  0.0764  0.2754 -0.0753
   95MOL0     C13036   3.414  11.877   3.621 -0.3651  0.1588  0.4894
   95MOL0     C13037   3.437  11.952   3.528  0.6058  0.8069  0.6336
   95MOL0     C13038   3.678  11.210   3.677 -0.5152 -0.0250  0.6180
   95MOL0     C13039   3.742  11.106   3.607  0.4619 -1.1121 -0.4117
   95MOL0     C13040   3.708  10.963   3.656 -0.4414 -0.0050  0.7322
   95MOL0     H13041   4.105  11.156   3.124  0.5996  0.1605  0.1056
   95MOL0     H13042   4.273  11.047   2.985  2.4337 -0.8912  0.7779
   95MOL0     H13043   4.494  10.908   3.024  0.6137  0.7246 -0.4651
   95MOL0     H13044   4.392  10.904   2.875 -0.2901  0.6285  0.0475
   95MOL0     H13045   4.458  10.678   2.813 -1.8994  0.3962  2.0179
   95MOL0     H13046   4.596  10.770   2.799  0.0296  0.3035  0.7391
   95MOL0     H13047   4.640  10.668   3.060  4.3881  1.0040 -1.2169
   95MOL0     H13048   4.518  10.558   2.969  0.4958  0.3061 -2.8117
   95MOL0     H13049   4.668  10.540   2.791 -0.0385 -1.4510  0.8646
   95MOL0     H13050   4.782  10.653   2.882 -1.8912  1.6510  1.8911
   95MOL0     H13051   4.699  10.368   2.971 -0.1999 -0.9776 -0.5866
   95MOL0     H13052   4.814  10.487   3.046 -0.3547  3.2719 -1.0606
   95MOL0     H13053   4.841  10.384   2.758  3.3945 -1.0723  0.2289
   95MOL0     H13054   4.960  10.475   2.851  1.2112 -0.1689  0.3647
   95MOL0     H13055   4.848  10.193   2.905  0.0022  1.4137 -1.1015
   95MOL0     H13056   4.955  10.288   3.017  3.0879 -0.0693 -0.0349
   95MOL0     H13057   5.022  10.187   2.732  1.7849  0.2441 -0.6946
   95MOL0     H13058   5.130  10.285   2.831  1.9727 -2.3257  0.8128
   95MOL0     H13059   5.176  10.164   3.109 -0.9682  3.3064 -1.7853
   95MOL0     H13060   5.335   9.893   3.157  0.4891 -1.1234 -1.6061
   95MOL0     H13061   5.423  10.059   3.143 -1.5376  0.5059  0.4898
   95MOL0     H13062   5.457   9.808   2.971  2.3235 -2.4280  3.1295
   95MOL0     H13063   5.520   9.970   2.942 -2.7973  0.4441 -1.1153
   95MOL0     H13064   5.674   9.944   3.146  0.5324 -0.8004  1.3583
   95MOL0     H13065   5.585   9.797   3.183 -3.1648 -0.1636 -0.4070
   95MOL0     H13066   5.643   9.689   2.972 -0.0524  0.8207 -1.2312
   95MOL0     H13067   5.739   9.826   2.927 -3.2656  1.4433  0.0734
   95MOL0     H13068   5.946   9.696   3.316  4.1298 -2.0502  0.6890
   95MOL0     H13069   6.126   9.707   3.450  1.6714  0.8729  2.7919
   95MOL0     H13070   6.218   9.855   3.430  1.2950  0.0713 -0.9709
   95MOL0     H13071   6.274   9.703   3.367 -1.7360 -1.5060 -0.1718
   95MOL0     H13072   6.524  10.156   3.038 -2.2468 -0.6478 -2.8738
   95MOL0     H13073   6.771  10.199   3.000 -0.4858  0.4398  1.3733
   95MOL0     H13074   7.042   9.876   3.073  0.6626 -0.6297 -0.6658
   95MOL0     H13075   7.027   9.846   2.896 -0.4468  2.3427 -1.4478
   95MOL0     H13076   7.259   9.889   2.943 -1.1008 -1.3444  0.4857
   95MOL0     H13077   7.190  10.031   2.862 -0.1519  2.1098  1.4189
   95MOL0     H13078   7.242  10.007   3.164 -2.1804 -2.1285 -1.2723
   95MOL0     H13079   7.169  10.149   3.080 -0.6949 -0.2526  3.7904
   95MOL0     H13080   7.379  10.108   2.914  1.2957 -0.5694  0.3172
   95MOL0     H13081   7.451  10.036   3.044  0.1871 -0.6457  0.9587
   95MOL0     H13082   7.384  10.276   3.180  0.6907  1.2773  0.0874
   95MOL0     H13083   7.521  10.248   3.067 -0.4209 -0.5759 -0.5705
   95MOL0     H13084   7.256  10.374   3.023 -0.3729  0.7926 -0.7564
   95MOL0     H13085   7.327  10.326   2.888  0.4990  2.3120 -0.6560
   95MOL0     H13086   7.544  10.459   2.964 -0.7819 -0.6513 -2.0683
   95MOL0     H13087   7.442  10.514   3.103 -1.6802 -0.8035  0.1607
   95MOL0     H13088   7.286  10.617   2.933 -0.6154  0.1787  1.4258
   95MOL0     H13089   7.378  10.551   2.797 -1.8492 -2.3066  1.3099
   95MOL0     H13090   6.819   9.769   2.975  0.9881 -0.9030  2.0244
   95MOL0     H13091   6.583   9.740   3.018 -0.2938  0.1392 -2.4596
   95MOL0     H13092   6.162   9.887   2.917  2.5792  0.7250  1.8078
   95MOL0     H13093   5.944   9.808   2.908  0.3844 -1.3443 -0.0849
   95MOL0     H13094   4.198  10.688   3.212 -0.0587  0.1182 -2.1075
   95MOL0     H13095   4.046  10.806   3.362 -2.0308 -0.4486 -0.2646
   95MOL0     H13096   3.878  11.297   3.365 -0.2958  0.4437  0.2171
   95MOL0     H13097   3.764  11.462   3.464  1.6780 -0.2314 -0.1552
   95MOL0     H13098   3.423  11.393   3.716 -0.9857  1.4570 -0.3884
   95MOL0     H13099   3.526  11.361   3.854  3.3092 -1.5978 -2.2342
   95MOL0     H13100   3.474  11.580   3.933 -2.5021  1.6236  1.7603
   95MOL0     H13101   3.333  11.549   3.821  0.7009 -2.1525 -2.1667
   95MOL0     H13102   3.589  11.695   3.797  1.2431 -2.0982 -1.2860
   95MOL0     H13103   3.506  11.650   3.648 -0.9665 -1.4679  0.4874
   95MOL0     H13104   3.423  11.862   3.830 -1.5629 -1.8317  2.1610
   95MOL0     H13105   3.295  11.767   3.756  0.3337 -0.7868 -0.3814
   95MOL0     H13106   3.467  12.017   3.448 -0.7367  0.2824 -0.3336
   95MOL0     H13107   3.628  11.177   3.768  2.6533  0.3500  2.6572
   95MOL0     H13108   3.614  10.955   3.712 -0.7932  2.9755  0.7517
   95MOL0     H13109   3.703  10.891   3.574 -0.1062 -3.6486  3.6218
   95MOL0     H13110   3.786  10.935   3.728 -1.6464 -0.4786  1.9095
   96MOL0     O13111   2.906  11.052  11.053 -0.5263 -0.6996 -0.2613
   96MOL0     C13112   2.857  10.946  11.024  0.1873  0.2903  0.5774
   96MOL0     O13113   2.933  10.839  10.972  0.3903  0.5817  0.3172
   96MOL0     C13114   3.072  10.837  10.964  0.6710 -0.1201  0.2934
   96MOL0     C13115   3.161  10.873  11.061  0.0655 -0.2672  0.9083
   96MOL0     C13116   3.294  10.828  11.046 -0.2449  0.4394  0.1488
   96MOL0     C13117   3.337  10.746  10.942  0.0133 -0.1839 -0.5817
   96MOL0     O13118   3.478  10.701  10.948 -0.1285  0.6804  0.7692
   96MOL0     C13119   3.569  10.764  11.035  0.1663  0.1179  0.0599
   96MOL0     C13120   3.704  10.710  11.010 -0.4378  0.2923 -0.6384
   96MOL0     C13121   3.808  10.751  11.113 -0.1272 -0.5528  1.0229
   96MOL0     C13122   3.931  10.669  11.102 -0.8794  0.7294  0.4232
   96MOL0     C13123   4.035  10.673  11.215 -0.6926  0.6021  0.0179
   96MOL0     C13124   4.153  10.577  11.205  1.1267  0.1924 -0.3872
   96MOL0     C13125   4.259  10.646  11.131 -0.5448  0.3568 -0.5133
   96MOL0     C13126   4.363  10.546  11.088 -0.0817  0.5324  0.2619
   96MOL0     N13127   4.436  10.475  11.190  0.3574  0.2476  0.4195
   96MOL0     C13128   4.501  10.535  11.302  0.2815 -0.3012  0.4390
   96MOL0     C13129   4.563  10.429  11.359 -0.4030 -0.0123 -1.0838
   96MOL0     C13130   4.649  10.428  11.482  0.8698  0.5275 -0.1941
   96MOL0     C13131   4.759  10.532  11.482  0.0939 -0.9153  0.5047
   96MOL0     C13132   4.854  10.507  11.362 -0.3891  0.3392 -0.2698
   96MOL0     C13133   4.922  10.379  11.333  0.3107  1.2646 -0.1226
   96MOL0     O13134   5.008  10.382  11.217 -0.0284 -0.1721  0.1104
   96MOL0     C13135   5.138  10.434  11.219  0.4318 -0.6077  1.8479
   96MOL0     C13136   5.217  10.407  11.104 -0.0163  0.2773  0.1061
   96MOL0     C13137   5.353  10.437  11.094  0.0672  0.1228  0.3187
   96MOL0     C13138   5.434  10.401  10.966 -0.5049 -0.5714 -0.7691
   96MOL0     C13139   5.412  10.506  11.202  0.1753  0.5950 -0.7151
   96MOL0     C13140   5.553  10.559  11.206 -0.8068 -0.1789  0.6656
   96MOL0     O13141   5.615  10.594  11.323  0.2580  0.3526 -0.0347
   96MOL0     C13142   5.758  10.596  11.346 -0.8025  0.9757  0.1439
   96MOL0     C13143   5.796  10.650  11.468 -0.8455  0.4488  0.1715
   96MOL0     C13144   5.924  10.680  11.497 -0.4519 -0.3898 -0.2765
   96MOL0     C13145   6.035  10.652  11.399  0.4037 -0.6935  0.2315
   96MOL0     O13146   6.166  10.692  11.432 -0.2087  0.2367 -0.7564
   96MOL0     C13147   6.271  10.666  11.339  0.9965  0.5995  0.1640
   96MOL0     C13148   6.331  10.530  11.366  0.2382 -0.9835  0.3984
   96MOL0     C13149   6.423  10.497  11.253  0.2664 -0.2887  0.2733
   96MOL0     C13150   6.565  10.564  11.282 -0.2813  1.3603  0.0636
   96MOL0     C13151   6.680  10.534  11.187  0.3114 -0.4618  0.1251
   96MOL0     C13152   6.796  10.627  11.217 -0.5937  0.5047  0.4560
   96MOL0     C13153   6.908  10.608  11.113 -0.1397 -0.8822 -0.9256
   96MOL0     C13154   7.015  10.703  11.153  0.6762  0.6088 -0.5238
   96MOL0    Cl13155   7.156  10.685  11.055 -0.2403 -0.1048  0.0319
   96MOL0     C13156   5.994  10.584  11.282  0.3205 -0.0008 -0.3357
   96MOL0     C13157   5.860  10.555  11.257 -0.2725 -0.4926  0.1749
   96MOL0     O13158   5.608  10.580  11.099 -1.0316 -0.5395  0.4336
   96MOL0     C13159   5.324  10.552  11.301 -0.3834  0.2982 -0.3121
   96MOL0     C13160   5.195  10.520  11.309  0.9597 -0.3654 -0.0053
   96MOL0     N13161   4.538  10.314  11.288  0.2435 -0.2409 -0.7466
   96MOL0     N13162   4.454  10.342  11.194  1.0496 -0.1540 -0.1398
   96MOL0     C13163   3.242  10.713  10.844 -0.6677  0.2504 -0.0560
   96MOL0     C13164   3.110  10.751  10.863 -0.0000  0.8228  0.1475
   96MOL0     C13165   2.718  10.916  11.059 -0.2838 -0.7316  0.1875
   96MOL0     C13166   2.642  10.833  10.975  0.1906 -0.6985 -0.1688
   96MOL0     C13167   2.507  10.808  10.999  0.5803 -0.3412 -0.5429
   96MOL0     C13168   2.441  10.881  11.101 -0.3967 -0.2587  0.5022
   96MOL0     O13169   2.307  10.866  11.124  0.4999  0.2752  0.4033
   96MOL0     C13170   2.278  10.728  11.169 -0.3948 -0.2921  0.8896
   96MOL0     C13171   2.125  10.709  11.184 -0.7264 -0.2792  0.1557
   96MOL0     C13172   2.070  10.813  11.287 -0.2049  0.3837 -0.5985
   96MOL0     C13173   1.924  10.779  11.326 -0.6655  0.3774  0.7611
   96MOL0     C13174   1.881  10.641  11.321  0.3366 -0.0446  0.0347
   96MOL0     C13175   1.838  10.526  11.332  0.1744 -0.0741  0.0092
   96MOL0     C13176   2.516  10.972  11.185 -0.2999 -0.7604 -0.5861
   96MOL0     C13177   2.650  10.994  11.166  0.3706 -0.2258  0.7634
   96MOL0     C13178   2.718  11.074  11.266 -0.9381  0.3857  0.2543
   96MOL0     H13179   3.136  10.937  11.146 -2.9569 -1.2742  0.9103
   96MOL0     H13180   3.367  10.866  11.116  1.0032 -0.3010 -0.7026
   96MOL0     H13181   3.549  10.727  11.136 -2.6313  0.3595 -0.3372
   96MOL0     H13182   3.565  10.873  11.032  2.3114  0.3905  2.9347
   96MOL0     H13183   3.689  10.602  11.008 -0.4217  0.2792 -0.1216
   96MOL0     H13184   3.734  10.732  10.907  0.7111  0.4239 -0.2856
   96MOL0     H13185   3.836  10.856  11.114  0.2248 -0.6165 -0.3668
   96MOL0     H13186   3.764  10.742  11.213 -1.5254  0.7271  0.5477
   96MOL0     H13187   3.896  10.565  11.109 -1.4070  0.9802  2.1922
   96MOL0     H13188   3.989  10.693  11.013 -0.5590 -1.1670  0.0867
   96MOL0     H13189   3.999  10.654  11.317  1.3779  1.6370  1.0063
   96MOL0     H13190   4.062  10.779  11.221 -2.1185  1.0682 -1.2204
   96MOL0     H13191   4.194  10.551  11.303  1.1647 -0.4720 -0.5704
   96MOL0     H13192   4.128  10.478  11.165  1.3915 -1.6206  3.5046
   96MOL0     H13193   4.306  10.714  11.202 -1.1394  0.9393 -0.6692
   96MOL0     H13194   4.226  10.694  11.038  0.6911 -0.3245 -1.3335
   96MOL0     H13195   4.319  10.467  11.027  2.2093 -1.7127  1.3033
   96MOL0     H13196   4.440  10.600  11.031 -1.5481  0.0380 -2.3118
   96MOL0     H13197   4.497  10.640  11.328 -0.5040  0.2480 -1.6463
   96MOL0     H13198   4.684  10.327  11.504 -2.1212 -1.1594 -2.6014
   96MOL0     H13199   4.581  10.463  11.560 -0.9498  2.4327 -2.4831
   96MOL0     H13200   4.713  10.631  11.475 -2.1864 -1.9617 -0.5152
   96MOL0     H13201   4.816  10.528  11.575  1.0117 -0.8204 -0.0419
   96MOL0     H13202   4.804  10.540  11.270 -1.8210 -1.2409 -0.1016
   96MOL0     H13203   4.933  10.578  11.389  2.3758 -2.0234 -1.6323
   96MOL0     H13204   4.983  10.359  11.421 -1.6586  4.1967  2.0899
   96MOL0     H13205   4.853  10.294  11.328  0.2213  1.3204  0.1765
   96MOL0     H13206   5.189  10.355  11.013  2.7201  0.5585 -1.0031
   96MOL0     H13207   5.391  10.315  10.914  0.2979 -0.3734 -1.7948
   96MOL0     H13208   5.536  10.382  11.001 -0.5271 -0.0814 -0.4191
   96MOL0     H13209   5.441  10.483  10.893  2.1376  1.6207  1.7084
   96MOL0     H13210   5.713  10.679  11.532 -1.8545  2.2004 -1.7919
   96MOL0     H13211   5.935  10.737  11.589 -0.3109  0.8883 -1.0600
   96MOL0     H13212   6.240  10.670  11.235 -1.9688  0.5534  0.9616
   96MOL0     H13213   6.342  10.746  11.362 -0.1072  1.0713  2.1293
   96MOL0     H13214   6.397  10.529  11.454  3.3130 -0.1638 -1.7448
   96MOL0     H13215   6.248  10.459  11.379 -1.1670  0.6698  0.7629
   96MOL0     H13216   6.385  10.528  11.156 -0.9142 -0.0183  0.8038
   96MOL0     H13217   6.432  10.388  11.249  0.0178 -0.2682 -2.6517
   96MOL0     H13218   6.604  10.535  11.380 -3.0437 -1.3440  0.5031
   96MOL0     H13219   6.552  10.672  11.280  0.0055  1.3912 -1.1148
   96MOL0     H13220   6.721  10.434  11.203  1.3498  0.0866  1.0477
   96MOL0     H13221   6.658  10.538  11.080  2.3135 -1.5963 -0.3847
   96MOL0     H13222   6.835  10.591  11.312 -2.9062 -0.1887  1.2063
   96MOL0     H13223   6.754  10.728  11.227 -4.7000 -0.8493 -0.9571
   96MOL0     H13224   6.869  10.626  11.013 -1.3033  0.4105 -0.2778
   96MOL0     H13225   6.954  10.508  11.116  1.4581 -0.2055 -1.5796
   96MOL0     H13226   7.047  10.676  11.254  2.3032  0.3034 -1.0844
   96MOL0     H13227   6.984  10.808  11.151 -3.6065 -0.2575  3.2828
   96MOL0     H13228   6.069  10.544  11.215 -0.0852 -1.2711 -0.0548
   96MOL0     H13229   5.833  10.492  11.172 -0.1332  0.4994 -0.6218
   96MOL0     H13230   5.368  10.605  11.385  0.7377 -1.8204  0.4965
   96MOL0     H13231   5.138  10.555  11.394 -2.9397  0.7358 -2.7872
   96MOL0     H13232   3.271  10.654  10.758 -2.0731  0.2194 -0.5404
   96MOL0     H13233   3.025  10.723  10.800 -1.9030 -0.0923  2.9081
   96MOL0     H13234   2.693  10.780  10.895 -1.8520 -0.9760 -1.3362
   96MOL0     H13235   2.457  10.739  10.931 -1.8709  1.1496 -0.3777
   96MOL0     H13236   2.323  10.660  11.096 -1.8819 -1.6464  1.1785
   96MOL0     H13237   2.330  10.704  11.262  2.0229  0.4034 -0.2038
   96MOL0     H13238   2.108  10.603  11.206 -0.9616  0.1223  2.1912
   96MOL0     H13239   2.059  10.737  11.101 -0.2000  1.4648  0.2961
   96MOL0     H13240   2.128  10.832  11.378 -1.8667  1.6521  0.2565
   96MOL0     H13241   2.062  10.911  11.240  0.4171  1.9710  2.3618
   96MOL0     H13242   1.853  10.845  11.276 -2.2369 -0.4856  1.7574
   96MOL0     H13243   1.913  10.811  11.431 -0.8657  0.0298  0.8460
   96MOL0     H13244   1.794  10.432  11.359  0.5337  0.0512  1.0718
   96MOL0     H13245   2.452  11.017  11.260 -3.5653 -2.8555 -1.8582
   96MOL0     H13246   2.801  11.012  11.302  0.0778  1.6589  0.1603
   96MOL0     H13247   2.760  11.163  11.219  1.2642 -0.0089  1.3126
   96MOL0     H13248   2.651  11.105  11.347 -1.0837 -0.0636  0.3098
   97MOL0     O13249   6.940   7.184   2.716  0.0013  0.3432  0.3377
   97MOL0     C13250   6.849   7.105   2.701  0.2860  0.4721 -0.2304
   97MOL0     O13251   6.828   6.986   2.777  0.0570 -0.6683 -0.4147
   97MOL0     C13252   6.917   6.940   2.868 -0.7452  0.2805  0.8020
   97MOL0     C13253   6.879   6.847   2.966 -0.7828 -0.1047  0.4349
   97MOL0     C13254   6.965   6.808   3.070  0.0109  0.2367  0.0686
   97MOL0     C13255   7.100   6.850   3.072  0.7012 -0.0667  0.4142
   97MOL0     O13256   7.184   6.794   3.166  0.1578  0.4011  0.1480
   97MOL0     C13257   7.260   6.889   3.243 -0.4839  0.1325 -0.5861
   97MOL0     C13258   7.393   6.817   3.266 -0.7729  0.1426  0.4150
   97MOL0     C13259   7.495   6.913   3.328 -0.3846 -0.4300 -0.2495
   97MOL0     C13260   7.446   6.979   3.464  0.4987 -0.1991  0.7069
   97MOL0     C13261   7.565   7.025   3.552  0.6022 -0.0085 -0.2048
   97MOL0     C13262   7.630   7.149   3.487 -0.1632 -0.8257 -0.0607
   97MOL0     C13263   7.742   7.196   3.577  0.4372  0.1190  0.1282
   97MOL0     C13264   7.782   7.345   3.563 -0.4445 -1.6552  0.2424
   97MOL0     N13265   7.882   7.378   3.663 -0.5526  0.1050 -0.7212
   97MOL0     C13266   8.011   7.336   3.672  0.9790  1.1711 -0.2676
   97MOL0     C13267   8.062   7.397   3.768 -1.4001 -0.0218 -1.3973
   97MOL0     C13268   8.211   7.377   3.808 -0.2938  0.2548 -0.4502
   97MOL0     C13269   8.293   7.426   3.693  0.6457  1.1711 -0.0267
   97MOL0     C13270   8.268   7.570   3.654 -0.3262 -0.6156  0.2053
   97MOL0     C13271   8.305   7.673   3.758 -0.6177 -0.3050 -0.5901
   97MOL0     O13272   8.409   7.628   3.849  0.0377 -0.0848  0.4815
   97MOL0     C13273   8.411   7.659   3.983 -0.3335 -0.6374 -0.6400
   97MOL0     C13274   8.321   7.744   4.052  0.4038 -0.5612 -0.0583
   97MOL0     C13275   8.318   7.768   4.192 -0.2414 -0.1440 -0.5147
   97MOL0     C13276   8.217   7.869   4.242  0.1163 -0.2388  0.2748
   97MOL0     C13277   8.424   7.704   4.271  0.3082 -0.3003  1.0933
   97MOL0     C13278   8.447   7.733   4.424  0.8149  0.1472 -0.6474
   97MOL0     O13279   8.565   7.709   4.483 -0.3222 -0.4965 -0.1896
   97MOL0     C13280   8.601   7.761   4.603  0.1546  0.5972  0.3556
   97MOL0     C13281   8.692   7.873   4.603  0.1473 -0.0420  0.5607
   97MOL0     C13282   8.713   7.937   4.728 -0.2021  0.4572 -0.0007
   97MOL0     C13283   8.673   7.881   4.852  0.4824  0.2100  0.5672
   97MOL0     O13284   8.719   7.935   4.966  0.3907  0.1549 -0.2298
   97MOL0     C13285   8.641   7.926   5.087 -0.2152 -0.1504 -0.1644
   97MOL0     C13286   8.658   8.059   5.154  0.3186  0.7521  0.5250
   97MOL0     C13287   8.651   8.183   5.058  0.0721  0.5198  0.6400
   97MOL0     C13288   8.672   8.312   5.140  1.1134 -0.8096  0.5746
   97MOL0     C13289   8.756   8.412   5.060 -1.2368  0.6187  0.7763
   97MOL0     C13290   8.809   8.518   5.157 -0.0802  0.6884 -0.5203
   97MOL0     C13291   8.879   8.635   5.087 -0.3965 -0.1720  0.1840
   97MOL0     C13292   8.880   8.771   5.156  0.2014 -0.5166  0.3169
   97MOL0    Cl13293   8.910   8.764   5.322  0.2203 -0.0758 -0.0657
   97MOL0     C13294   8.592   7.765   4.855  0.4707  0.0986 -0.0705
   97MOL0     C13295   8.561   7.708   4.730  0.5924 -0.5071 -0.2371
   97MOL0     O13296   8.352   7.780   4.485  0.8151  0.8879 -0.4621
   97MOL0     C13297   8.522   7.626   4.196 -0.7570  0.1465  0.1658
   97MOL0     C13298   8.508   7.598   4.062  0.8399  0.4976  0.2873
   97MOL0     N13299   7.979   7.491   3.811 -0.4759  1.0586 -1.1295
   97MOL0     N13300   7.865   7.475   3.749 -0.6737  0.5230  0.1027
   97MOL0     C13301   7.142   6.934   2.971 -0.0428  0.4634 -0.4532
   97MOL0     C13302   7.055   6.978   2.869 -0.3129  0.0939 -0.1881
   97MOL0     C13303   6.743   7.122   2.600  0.1708 -0.0544  0.4015
   97MOL0     C13304   6.698   7.004   2.542  0.2974  0.5139 -0.7166
   97MOL0     C13305   6.602   7.010   2.448 -0.5907 -0.5698  0.8745
   97MOL0     C13306   6.537   7.128   2.414  0.4896 -0.1060  0.5170
   97MOL0     O13307   6.433   7.143   2.329  0.6373 -0.0772  0.1386
   97MOL0     C13308   6.436   7.076   2.195 -0.0963  0.0702 -0.6690
   97MOL0     C13309   6.577   7.092   2.137 -0.2351 -0.9005 -0.2134
   97MOL0     C13310   6.580   7.076   1.986  0.3288 -0.8505  1.2513
   97MOL0     C13311   6.653   7.186   1.915  0.7846  0.2297 -0.3610
   97MOL0     C13312   6.797   7.181   1.940  0.5025 -0.2716  0.7166
   97MOL0     C13313   6.911   7.178   1.967  0.1434  1.1334 -0.5236
   97MOL0     C13314   6.579   7.243   2.485 -0.1006  0.0004  0.2479
   97MOL0     C13315   6.681   7.248   2.578  0.3303  0.9484 -0.2460
   97MOL0     C13316   6.699   7.355   2.667 -0.7307  0.7920  1.1952
   97MOL0     H13317   6.779   6.805   2.970 -0.1834 -2.2562 -2.9754
   97MOL0     H13318   6.930   6.743   3.149 -2.0687 -1.3819 -2.0323
   97MOL0     H13319   7.209   6.912   3.337  2.8826  0.8911  1.2405
   97MOL0     H13320   7.265   6.979   3.182  2.1005 -0.7571 -1.8644
   97MOL0     H13321   7.368   6.740   3.340 -1.3105 -0.1300 -0.0390
   97MOL0     H13322   7.438   6.770   3.178  0.7557  2.9921 -0.4614
   97MOL0     H13323   7.598   6.878   3.343  0.4024  1.2582 -1.3192
   97MOL0     H13324   7.494   6.994   3.254 -1.2930 -0.1274  0.0784
   97MOL0     H13325   7.386   7.064   3.431  0.1990  0.4936  2.8596
   97MOL0     H13326   7.385   6.913   3.527  1.2347 -0.4092  1.2170
   97MOL0     H13327   7.638   6.946   3.569  2.6795  2.0729  1.1063
   97MOL0     H13328   7.519   7.052   3.647 -0.4701  0.0988 -0.7367
   97MOL0     H13329   7.671   7.131   3.387 -2.0410 -1.4173 -0.7646
   97MOL0     H13330   7.549   7.223   3.485 -0.9661 -1.5024  2.7292
   97MOL0     H13331   7.823   7.130   3.544 -0.4227  0.0769 -2.0442
   97MOL0     H13332   7.712   7.183   3.682  2.5276  0.7252  0.8569
   97MOL0     H13333   7.828   7.365   3.466  0.1476 -0.2109  0.7753
   97MOL0     H13334   7.699   7.416   3.553 -0.3279 -1.7534 -1.7564
   97MOL0     H13335   8.068   7.265   3.613  0.9843  2.6944 -2.1931
   97MOL0     H13336   8.232   7.271   3.826 -0.7975 -0.3303 -2.9151
   97MOL0     H13337   8.236   7.429   3.901  0.2098  0.7439 -0.8510
   97MOL0     H13338   8.398   7.410   3.719 -0.0115  0.9295  2.7310
   97MOL0     H13339   8.273   7.359   3.608 -1.5572  0.2126  1.1554
   97MOL0     H13340   8.328   7.589   3.565 -2.4765  0.8341 -1.0228
   97MOL0     H13341   8.165   7.584   3.621  0.2188  1.7755 -0.6654
   97MOL0     H13342   8.315   7.774   3.718  1.9103 -0.6995 -1.1521
   97MOL0     H13343   8.218   7.682   3.824  1.5522  2.5549  2.2165
   97MOL0     H13344   8.258   7.794   3.979 -1.1714  0.4790  1.9252
   97MOL0     H13345   8.262   7.947   4.304  0.0260 -0.1837  0.2712
   97MOL0     H13346   8.143   7.823   4.308  1.2445  0.4938  2.1228
   97MOL0     H13347   8.174   7.919   4.155  3.8327  2.3659 -0.3282
   97MOL0     H13348   8.728   7.912   4.508  2.6922 -0.5432  1.2568
   97MOL0     H13349   8.773   8.028   4.730  0.0547  0.2928 -0.1206
   97MOL0     H13350   8.536   7.921   5.055 -0.3213  2.2393 -0.3396
   97MOL0     H13351   8.664   7.838   5.149  1.9532  0.6080  0.1702
   97MOL0     H13352   8.583   8.064   5.234 -1.0324 -0.6882 -0.5884
   97MOL0     H13353   8.756   8.070   5.200  0.3528 -0.0403  0.6442
   97MOL0     H13354   8.558   8.194   5.003  0.3831  0.3855  0.0767
   97MOL0     H13355   8.720   8.168   4.975 -0.8427 -1.8377  0.2311
   97MOL0     H13356   8.721   8.282   5.232  0.3184 -2.4708  0.4958
   97MOL0     H13357   8.579   8.366   5.159  0.6748  0.0903 -3.2228
   97MOL0     H13358   8.842   8.355   5.024 -0.6530  0.0967  2.8569
   97MOL0     H13359   8.692   8.454   4.982 -0.6755 -0.8769 -0.5390
   97MOL0     H13360   8.872   8.478   5.237  1.9802  1.1181 -1.8475
   97MOL0     H13361   8.724   8.561   5.210  0.0372 -1.2197  1.3242
   97MOL0     H13362   8.824   8.646   4.993  0.3011 -0.2557 -0.2421
   97MOL0     H13363   8.978   8.591   5.074 -0.7484 -0.8234 -0.3874
   97MOL0     H13364   8.778   8.805   5.136  0.1101 -1.1698 -0.3446
   97MOL0     H13365   8.943   8.846   5.106 -1.1689  0.2069 -0.3962
   97MOL0     H13366   8.557   7.718   4.946 -0.9019  0.8216 -0.2066
   97MOL0     H13367   8.494   7.622   4.728 -0.1538  0.0064  1.1744
   97MOL0     H13368   8.600   7.572   4.249  0.1700  1.3925  0.1242
   97MOL0     H13369   8.569   7.522   4.012  0.6449  1.8586 -2.1599
   97MOL0     H13370   7.243   6.972   2.965 -0.4166  1.2645 -2.8100
   97MOL0     H13371   7.111   7.031   2.793 -0.3533 -1.0596 -1.0680
   97MOL0     H13372   6.727   6.908   2.581  1.7914  1.2928  0.1622
   97MOL0     H13373   6.573   6.912   2.410  1.4005 -0.9624  0.2650
   97MOL0     H13374   6.402   6.973   2.205 -3.3642  1.2241  1.3725
   97MOL0     H13375   6.361   7.121   2.130 -2.0116 -1.6763  0.2358
   97MOL0     H13376   6.637   7.010   2.177  0.2387 -1.5428 -2.1532
   97MOL0     H13377   6.611   7.190   2.171  0.8293 -2.5359  4.1166
   97MOL0     H13378   6.618   6.975   1.968  1.7475 -0.3992  1.6250
   97MOL0     H13379   6.479   7.106   1.956  0.8326  0.3895  0.7275
   97MOL0     H13380   6.616   7.281   1.956 -1.6169 -0.9587  0.3782
   97MOL0     H13381   6.631   7.189   1.808  2.1090 -1.9203 -0.7612
   97MOL0     H13382   7.010   7.190   2.006  1.2612 -0.6532 -2.5854
   97MOL0     H13383   6.520   7.328   2.454 -0.6924 -0.0932  1.0838
   97MOL0     H13384   6.630   7.433   2.632 -1.0634  0.0740  0.1861
   97MOL0     H13385   6.689   7.326   2.772 -2.2636  1.0704  1.1584
   97MOL0     H13386   6.796   7.392   2.634 -1.2034 -0.1866 -1.5811
   98MOL0     O13387   7.844  10.613   7.609 -1.0566 -0.2722  0.3183
   98MOL0     C13388   7.847  10.735   7.585  0.1626  0.2725 -0.5511
   98MOL0     O13389   7.895  10.799   7.480 -0.3687 -0.6235  0.2212
   98MOL0     C13390   7.946  10.738   7.370  0.3044  0.1720  0.3634
   98MOL0     C13391   7.948  10.808   7.249 -0.3186 -0.7289 -1.1092
   98MOL0     C13392   7.998  10.753   7.132  0.1534 -0.3473  0.0496
   98MOL0     C13393   8.074  10.634   7.147  0.2071 -0.0644  0.7646
   98MOL0     O13394   8.145  10.600   7.038 -0.5533  0.1077  0.2252
   98MOL0     C13395   8.223  10.478   7.042 -0.0157 -0.6001  0.0004
   98MOL0     C13396   8.280  10.442   6.905  0.7522 -0.8066 -0.2483
   98MOL0     C13397   8.170  10.416   6.803  0.1228  0.4000  0.0670
   98MOL0     C13398   8.225  10.342   6.676  0.5402  0.6130  0.2876
   98MOL0     C13399   8.304  10.428   6.585 -0.4680 -0.5096  0.4637
   98MOL0     C13400   8.346  10.364   6.442 -0.0237 -0.0456 -0.0956
   98MOL0     C13401   8.457  10.446   6.370 -0.1850 -0.4862 -0.1841
   98MOL0     C13402   8.495  10.362   6.241  0.6761 -0.1450 -0.2536
   98MOL0     N13403   8.384  10.362   6.145  0.2439 -0.0549  0.3419
   98MOL0     C13404   8.325  10.477   6.100  0.1141 -0.7608  0.6590
   98MOL0     C13405   8.233  10.439   6.008  0.1479  0.8965 -0.2564
   98MOL0     C13406   8.172  10.514   5.889  0.4934  0.6986 -0.3111
   98MOL0     C13407   8.243  10.475   5.757  0.2325  0.8274  0.0877
   98MOL0     C13408   8.188  10.537   5.623  0.1116  0.1023  0.4077
   98MOL0     C13409   8.100  10.668   5.644 -0.0799 -0.5240 -1.1083
   98MOL0     O13410   8.068  10.725   5.518  0.3696 -0.1589 -0.8508
   98MOL0     C13411   8.163  10.814   5.463  0.7152  0.4484  0.1993
   98MOL0     C13412   8.124  10.873   5.346  0.8987  0.2601 -0.7002
   98MOL0     C13413   8.202  10.969   5.272  0.0316  0.7078  0.7626
   98MOL0     C13414   8.128  11.050   5.164 -1.0715 -0.0903  0.0576
   98MOL0     C13415   8.339  10.983   5.312 -0.0656  0.2394  0.5811
   98MOL0     C13416   8.432  11.053   5.232  0.4136 -0.7207  0.0695
   98MOL0     O13417   8.555  11.065   5.292 -0.2646 -0.3500 -0.5554
   98MOL0     C13418   8.667  11.102   5.222  0.4752 -0.0163 -0.3041
   98MOL0     C13419   8.680  11.233   5.184 -0.4975 -0.1724 -0.2878
   98MOL0     C13420   8.801  11.280   5.145 -0.4968  0.1159  0.4345
   98MOL0     C13421   8.911  11.195   5.135  0.0717  0.2142 -0.2313
   98MOL0     O13422   9.037  11.250   5.104  0.5407 -0.7802  0.4558
   98MOL0     C13423   9.128  11.166   5.032 -0.0472  0.7709  0.4239
   98MOL0     C13424   9.068  11.124   4.896 -0.1197  0.2599  0.6010
   98MOL0     C13425   9.157  11.010   4.829  0.1488  0.0183 -0.7327
   98MOL0     C13426   9.132  11.013   4.683 -0.9112  0.8741  0.3577
   98MOL0     C13427   9.242  10.956   4.594 -0.1675 -0.1171  0.2386
   98MOL0     C13428   9.239  11.023   4.456  0.1720  0.3495 -0.2076
   98MOL0     C13429   9.376  11.000   4.384 -0.3918 -0.4862 -0.2581
   98MOL0     C13430   9.351  11.016   4.235  0.4770 -0.9356  0.2893
   98MOL0    Cl13431   9.517  11.025   4.159  0.5331  0.1969  0.0729
   98MOL0     C13432   8.900  11.058   5.179 -0.0211 -1.1347 -0.0082
   98MOL0     C13433   8.780  11.019   5.227 -0.3463 -0.0451 -0.3516
   98MOL0     O13434   8.402  11.103   5.126  0.0910  0.4122 -0.1672
   98MOL0     C13435   8.385  10.920   5.433  0.1404 -0.3355  0.8918
   98MOL0     C13436   8.297  10.834   5.501 -0.7352  0.0676 -0.1445
   98MOL0     N13437   8.222  10.296   6.013  0.7414  0.9269  0.4195
   98MOL0     N13438   8.313  10.256   6.088  0.2737 -0.8507  0.5364
   98MOL0     C13439   8.083  10.564   7.264 -0.6142 -0.6012 -0.4821
   98MOL0     C13440   8.015  10.617   7.373 -0.4023 -0.0491  0.5058
   98MOL0     C13441   7.816  10.831   7.698  0.2782  1.1102  0.3861
   98MOL0     C13442   7.854  10.964   7.694 -0.0514 -0.2332  0.2826
   98MOL0     C13443   7.816  11.052   7.788  0.4426  0.3622  0.3413
   98MOL0     C13444   7.717  11.015   7.888  0.4103  0.3904  0.7773
   98MOL0     O13445   7.670  11.089   7.988  0.3500  0.7425 -0.2430
   98MOL0     C13446   7.698  11.235   7.996 -0.0704  0.8402 -0.1419
   98MOL0     C13447   7.582  11.303   8.078 -0.7457 -0.1279  0.2190
   98MOL0     C13448   7.476  11.372   7.988 -0.2275 -1.3595  0.1989
   98MOL0     C13449   7.454  11.282   7.867 -0.5155  0.2055 -0.2406
   98MOL0     C13450   7.334  11.332   7.800 -0.3470  0.2191 -0.3468
   98MOL0     C13451   7.240  11.380   7.740  0.9475  0.1038  0.2704
   98MOL0     C13452   7.675  10.879   7.899  1.1078  0.1296  0.7639
   98MOL0     C13453   7.726  10.790   7.805 -0.0913  0.5304  0.0240
   98MOL0     C13454   7.683  10.645   7.820  0.2260  0.9462  0.2859
   98MOL0     H13455   7.900  10.904   7.228 -1.0381 -1.2057 -1.7136
   98MOL0     H13456   7.998  10.804   7.035  3.2261  0.8860  0.5611
   98MOL0     H13457   8.154  10.397   7.067  0.1977 -0.3104  1.6572
   98MOL0     H13458   8.306  10.475   7.113  1.2617  0.7891 -1.3522
   98MOL0     H13459   8.335  10.532   6.877 -0.0352  0.4639  2.0282
   98MOL0     H13460   8.342  10.353   6.916  0.1635 -1.2703 -0.6317
   98MOL0     H13461   8.097  10.341   6.837  0.5570  0.1519  0.4605
   98MOL0     H13462   8.132  10.516   6.778 -0.0897  0.6174  1.2146
   98MOL0     H13463   8.286  10.260   6.714  1.5463 -0.3699 -3.1147
   98MOL0     H13464   8.141  10.305   6.616  0.5402  2.6179 -1.0833
   98MOL0     H13465   8.400  10.457   6.629  0.9018 -1.6969 -1.5865
   98MOL0     H13466   8.248  10.518   6.558  2.0596  0.7916 -0.7754
   98MOL0     H13467   8.376  10.260   6.459  0.3708 -0.1591 -1.3955
   98MOL0     H13468   8.257  10.363   6.379  0.7384  0.6342 -1.2285
   98MOL0     H13469   8.546  10.447   6.432 -2.0056  2.2823  2.6892
   98MOL0     H13470   8.432  10.550   6.345 -1.2652 -0.7541 -0.2944
   98MOL0     H13471   8.586  10.405   6.198  1.1282 -1.2824 -0.4505
   98MOL0     H13472   8.512  10.258   6.269 -1.2575 -1.4492 -3.3581
   98MOL0     H13473   8.369  10.574   6.120  3.3354 -2.5749  3.3058
   98MOL0     H13474   8.170  10.623   5.902  2.4859  0.6362  1.1366
   98MOL0     H13475   8.067  10.484   5.883  0.1448  2.1529 -2.3870
   98MOL0     H13476   8.343  10.517   5.767  0.2455  1.4917 -2.1411
   98MOL0     H13477   8.267  10.369   5.745  0.8880  1.1795 -2.2531
   98MOL0     H13478   8.275  10.554   5.559 -1.2542  0.5591 -1.4179
   98MOL0     H13479   8.122  10.464   5.576 -0.1329  0.3075  0.4281
   98MOL0     H13480   8.007  10.647   5.697 -0.4832 -0.1700 -1.6489
   98MOL0     H13481   8.158  10.738   5.704 -2.1029  1.4416 -1.2521
   98MOL0     H13482   8.020  10.861   5.318  0.8730 -2.1989  0.1667
   98MOL0     H13483   8.164  11.009   5.070 -0.7659  2.2751 -0.9083
   98MOL0     H13484   8.150  11.157   5.165 -1.3389 -0.0347 -0.2899
   98MOL0     H13485   8.020  11.038   5.172 -0.8611 -0.8526  2.8735
   98MOL0     H13486   8.590  11.294   5.186 -2.5059 -2.8816 -1.2535
   98MOL0     H13487   8.819  11.382   5.114 -1.4604 -0.2756 -1.5856
   98MOL0     H13488   9.222  11.218   5.012  1.7014 -1.8760  1.2527
   98MOL0     H13489   9.157  11.082   5.096  4.5151  2.2276  0.6186
   98MOL0     H13490   8.962  11.098   4.910 -0.3278 -0.0726 -1.2488
   98MOL0     H13491   9.069  11.217   4.838 -1.8210  0.7740  1.3224
   98MOL0     H13492   9.123  10.914   4.868 -0.5557  0.0703 -1.2175
   98MOL0     H13493   9.263  11.027   4.852  0.1139 -1.2813  0.5086
   98MOL0     H13494   9.115  11.119   4.660 -0.5794  0.7366 -0.5953
   98MOL0     H13495   9.034  10.968   4.665 -0.6692 -0.1770  1.5721
   98MOL0     H13496   9.337  10.985   4.640 -0.8955 -0.5047  2.0430
   98MOL0     H13497   9.231  10.847   4.591 -1.8359  0.0014  1.1094
   98MOL0     H13498   9.224  11.131   4.457  1.3650  0.5848 -2.1546
   98MOL0     H13499   9.168  10.966   4.396  0.8684  1.0981 -1.7965
   98MOL0     H13500   9.420  10.901   4.398 -0.5472 -0.6032 -0.5925
   98MOL0     H13501   9.446  11.074   4.421 -1.5933  1.6448 -1.9987
   98MOL0     H13502   9.290  11.103   4.211  3.5083  0.4566 -3.4360
   98MOL0     H13503   9.294  10.936   4.187 -2.9366  2.1389 -1.2672
   98MOL0     H13504   8.981  10.988   5.165  1.2016  0.5333 -1.8487
   98MOL0     H13505   8.755  10.917   5.255 -2.6860  0.1876 -1.3884
   98MOL0     H13506   8.487  10.934   5.467  0.5031 -0.6140 -0.0420
   98MOL0     H13507   8.332  10.790   5.594  4.1091  2.1304 -0.7181
   98MOL0     H13508   8.145  10.475   7.276  0.6927  0.3455  0.0437
   98MOL0     H13509   8.027  10.561   7.465  0.9340 -0.3465  0.1652
   98MOL0     H13510   7.912  10.993   7.607 -2.7401 -1.8702 -2.2545
   98MOL0     H13511   7.849  11.156   7.782  1.6121  0.0066  0.3492
   98MOL0     H13512   7.795  11.241   8.047  0.6272  0.8894 -1.4256
   98MOL0     H13513   7.715  11.279   7.897 -0.4379 -0.4880 -0.8203
   98MOL0     H13514   7.609  11.391   8.138 -3.6617  0.7688  0.3447
   98MOL0     H13515   7.548  11.229   8.151 -0.0867 -0.4514  0.2062
   98MOL0     H13516   7.384  11.391   8.044 -0.0085  1.2744 -0.1969
   98MOL0     H13517   7.499  11.475   7.958 -1.6781 -1.1299 -0.2309
   98MOL0     H13518   7.434  11.177   7.891  2.1177 -1.1481 -3.2428
   98MOL0     H13519   7.537  11.285   7.796  1.0364 -0.2431  1.4801
   98MOL0     H13520   7.154  11.421   7.691 -0.7801 -1.0017  2.2155
   98MOL0     H13521   7.595  10.842   7.963  0.4803 -1.9649 -1.0873
   98MOL0     H13522   7.753  10.569   7.856 -0.7349 -1.3336 -2.2781
   98MOL0     H13523   7.596  10.641   7.886 -0.7289  0.7593 -0.9315
   98MOL0     H13524   7.649  10.606   7.723  1.6322 -1.7477  0.7731
   99MOL0     O13525   2.038   1.245   4.528 -0.1916 -0.2544  0.2627
   99MOL0     C13526   1.951   1.181   4.585  0.2791 -0.9394 -1.3398
   99MOL0     O13527   1.980   1.104   4.693  0.0817  0.5257 -0.1200
   99MOL0     C13528   2.105   1.111   4.751  0.3336  0.5885 -0.3043
   99MOL0     C13529   2.116   1.217   4.844  0.8870 -0.3103 -0.2567
   99MOL0     C13530   2.247   1.233   4.902 -0.4208  0.8635 -0.5795
   99MOL0     C13531   2.351   1.141   4.877 -0.3633 -0.5978 -0.2323
   99MOL0     O13532   2.464   1.162   4.952  0.3665  0.1723  0.3656
   99MOL0     C13533   2.594   1.124   4.894  0.1630 -0.3875  0.0340
   99MOL0     C13534   2.620   0.985   4.969 -0.8670  0.1678  0.1874
   99MOL0     C13535   2.700   1.008   5.098 -0.0381 -0.9511 -1.0690
   99MOL0     C13536   2.850   1.047   5.076 -0.4695  0.2212 -1.0252
   99MOL0     C13537   2.933   1.001   5.200 -0.6327  0.6588 -0.1952
   99MOL0     C13538   3.081   0.997   5.164  0.0765 -0.0201  0.3361
   99MOL0     C13539   3.155   0.935   5.282 -0.2094 -1.4171 -0.7636
   99MOL0     C13540   3.185   1.037   5.386 -0.8387 -0.7662 -0.5676
   99MOL0     N13541   3.250   0.985   5.510  0.3706 -0.6135 -0.5250
   99MOL0     C13542   3.367   1.040   5.570  0.0843  0.0862  0.1019
   99MOL0     C13543   3.369   0.981   5.693 -0.8976  0.5601 -0.0079
   99MOL0     C13544   3.461   1.025   5.807 -0.0133 -0.0757  0.3906
   99MOL0     C13545   3.496   0.915   5.906  0.5111  0.3624  0.1621
   99MOL0     C13546   3.607   0.820   5.847 -0.1819 -0.0744  0.6445
   99MOL0     C13547   3.676   0.700   5.933 -0.9867 -0.0598 -0.5631
   99MOL0     O13548   3.682   0.751   6.068  0.0435 -0.0481 -0.5916
   99MOL0     C13549   3.804   0.802   6.119 -0.6594  0.8233  1.0168
   99MOL0     C13550   3.922   0.791   6.049 -0.3991 -1.2713  0.8697
   99MOL0     C13551   4.043   0.837   6.097  0.2846  0.2340 -0.4933
   99MOL0     C13552   4.164   0.849   6.006 -1.2454  0.6734  0.3738
   99MOL0     C13553   4.046   0.878   6.236  0.7134  0.1763  0.5840
   99MOL0     C13554   4.166   0.916   6.308  0.2086  0.0640 -0.4934
   99MOL0     O13555   4.293   0.886   6.253 -0.6062 -0.1461  0.5748
   99MOL0     C13556   4.406   0.909   6.323  0.9482 -0.9766 -0.3643
   99MOL0     C13557   4.411   0.891   6.462 -0.8704 -0.1355  0.0196
   99MOL0     C13558   4.538   0.904   6.530 -0.1555  0.4358  0.4024
   99MOL0     C13559   4.650   0.948   6.461  0.6272 -0.1463 -0.2806
   99MOL0     O13560   4.769   0.950   6.530  0.1671  0.3108  0.3172
   99MOL0     C13561   4.888   0.903   6.472  1.0179  0.4478 -1.2296
   99MOL0     C13562   4.888   0.749   6.466  1.0113  0.0107 -0.1992
   99MOL0     C13563   5.025   0.691   6.466 -0.4178  0.4657  0.1180
   99MOL0     C13564   5.110   0.726   6.334  0.2126 -0.1994 -0.1051
   99MOL0     C13565   5.234   0.637   6.317 -0.4701  0.1537  0.5429
   99MOL0     C13566   5.299   0.671   6.185 -0.2415 -0.7082 -0.2167
   99MOL0     C13567   5.429   0.591   6.165  0.5830 -0.4224 -0.3999
   99MOL0     C13568   5.489   0.628   6.034 -0.2830  0.6424  0.7201
   99MOL0    Cl13569   5.515   0.807   6.030  0.0802 -0.4516 -0.7619
   99MOL0     C13570   4.633   0.973   6.323 -0.1431 -0.2912 -1.4579
   99MOL0     C13571   4.516   0.945   6.253  0.1434 -0.2171 -1.1845
   99MOL0     O13572   4.143   0.960   6.423  0.1863  0.7914 -0.2908
   99MOL0     C13573   3.919   0.899   6.303 -0.5667  1.2250  1.1600
   99MOL0     C13574   3.802   0.861   6.239 -0.7584 -0.0087 -0.0890
   99MOL0     N13575   3.269   0.883   5.698 -0.9557 -0.5280 -0.3248
   99MOL0     N13576   3.196   0.897   5.594  0.1551  0.2799 -0.3642
   99MOL0     C13577   2.327   1.023   4.805 -0.4726  1.0821  0.7148
   99MOL0     C13578   2.207   1.017   4.730  0.4016  0.2242 -0.6453
   99MOL0     C13579   1.816   1.194   4.530  1.1895 -0.5506 -0.4349
   99MOL0     C13580   1.710   1.155   4.610 -0.6408 -0.6167  0.5787
   99MOL0     C13581   1.577   1.164   4.552 -0.3545  0.6829 -0.3790
   99MOL0     C13582   1.545   1.228   4.438 -0.0552  0.9906  0.7178
   99MOL0     O13583   1.425   1.241   4.385  0.7673 -0.1144 -0.5349
   99MOL0     C13584   1.301   1.196   4.451 -0.0425  0.3343  1.1121
   99MOL0     C13585   1.260   1.049   4.412 -0.4227 -0.6784  0.0744
   99MOL0     C13586   1.331   0.940   4.493 -0.6573 -0.3613 -0.9033
   99MOL0     C13587   1.291   0.801   4.452  0.3681  1.3440  0.2217
   99MOL0     C13588   1.346   0.704   4.544 -0.6459  0.6286 -0.5336
   99MOL0     C13589   1.371   0.615   4.621 -0.7277  0.7225 -0.1387
   99MOL0     C13590   1.656   1.273   4.357 -0.4883  0.6991 -0.1585
   99MOL0     C13591   1.792   1.253   4.395 -0.9065  0.8884 -0.1297
   99MOL0     C13592   1.911   1.291   4.297  1.4970 -1.2661 -0.8000
   99MOL0     H13593   2.033   1.285   4.860  1.0480 -0.1233 -0.2211
   99MOL0     H13594   2.256   1.313   4.975 -0.0240 -0.2824  0.6639
   99MOL0     H13595   2.670   1.199   4.916 -1.9237  1.4572  1.3740
   99MOL0     H13596   2.584   1.118   4.785 -1.7966 -0.2777  0.1727
   99MOL0     H13597   2.531   0.925   4.988 -1.0977  0.5880  0.4389
   99MOL0     H13598   2.687   0.930   4.902 -0.8170  3.2825 -2.6484
   99MOL0     H13599   2.649   1.086   5.154  1.2140 -0.1550 -1.0087
   99MOL0     H13600   2.697   0.910   5.147 -1.3187 -1.8478 -2.8256
   99MOL0     H13601   2.875   0.992   4.985 -1.4580  0.2362 -1.3103
   99MOL0     H13602   2.860   1.155   5.062  2.7806  0.4746  1.7141
   99MOL0     H13603   2.906   0.899   5.229 -0.0471  0.8004  0.8722
   99MOL0     H13604   2.925   1.075   5.280  1.6066  0.7050  0.0424
   99MOL0     H13605   3.098   0.927   5.082  0.4222  3.1562 -2.5170
   99MOL0     H13606   3.099   1.096   5.123  0.0679 -0.1931 -0.0917
   99MOL0     H13607   3.258   0.909   5.255  1.4073  2.5581  0.8480
   99MOL0     H13608   3.103   0.847   5.321  2.2288 -2.4231  0.4805
   99MOL0     H13609   3.252   1.114   5.346 -0.4827  0.6578  2.4969
   99MOL0     H13610   3.096   1.091   5.420 -1.6761 -2.1355 -0.5518
   99MOL0     H13611   3.423   1.128   5.538 -2.5529  1.2359 -1.7620
   99MOL0     H13612   3.409   1.107   5.857  1.3089  0.8826  0.2467
   99MOL0     H13613   3.553   1.061   5.761 -1.7392  3.2276 -0.8033
   99MOL0     H13614   3.533   0.964   5.997  0.0913 -0.3125  0.7092
   99MOL0     H13615   3.415   0.854   5.945  1.8783 -0.7429  1.4076
   99MOL0     H13616   3.572   0.767   5.758 -0.5714  0.8323  0.2489
   99MOL0     H13617   3.689   0.882   5.810  0.1244  0.3303  1.9551
   99MOL0     H13618   3.606   0.615   5.933 -0.1836 -1.2155  5.6862
   99MOL0     H13619   3.767   0.658   5.889  0.4784  1.5423  0.7965
   99MOL0     H13620   3.941   0.765   5.946 -0.2099  1.8424 -0.0010
   99MOL0     H13621   4.230   0.769   6.040  0.7779  1.6581 -1.0006
   99MOL0     H13622   4.209   0.946   6.030 -2.8150  1.4882  0.1668
   99MOL0     H13623   4.145   0.849   5.898  3.8919  0.3135 -0.7884
   99MOL0     H13624   4.327   0.858   6.521  0.2719 -1.4248  1.0090
   99MOL0     H13625   4.537   0.883   6.637  1.0950 -0.5263  0.2488
   99MOL0     H13626   4.909   0.964   6.383  1.7277  3.8874  1.0861
   99MOL0     H13627   4.970   0.927   6.540  0.9403 -2.1131 -0.1394
   99MOL0     H13628   4.835   0.712   6.554 -1.3950 -2.1532 -2.3910
   99MOL0     H13629   4.834   0.694   6.389  2.2795 -2.6669  0.6846
   99MOL0     H13630   5.025   0.582   6.476 -0.0260  0.3595 -0.8901
   99MOL0     H13631   5.084   0.722   6.553  0.3204 -0.0604 -0.1869
   99MOL0     H13632   5.141   0.832   6.330  1.0186 -0.4516 -1.0572
   99MOL0     H13633   5.051   0.698   6.246  0.0534  2.3190 -0.8835
   99MOL0     H13634   5.309   0.631   6.397  1.9589 -1.1550 -1.6588
   99MOL0     H13635   5.195   0.536   6.302 -1.8235  0.9624 -1.9143
   99MOL0     H13636   5.321   0.778   6.189  2.0329 -1.1306  0.3758
   99MOL0     H13637   5.234   0.655   6.099  2.1032  0.1265 -2.2697
   99MOL0     H13638   5.413   0.482   6.168 -0.5037 -0.2534  0.8583
   99MOL0     H13639   5.504   0.610   6.243  0.6999  2.3011 -1.0797
   99MOL0     H13640   5.422   0.598   5.953  1.1838 -3.7780  0.8973
   99MOL0     H13641   5.582   0.573   6.019 -0.9340 -0.0780 -0.8254
   99MOL0     H13642   4.719   0.985   6.258 -0.4378 -3.0616 -2.5219
   99MOL0     H13643   4.513   0.956   6.145 -2.0875 -1.0529 -1.2594
   99MOL0     H13644   3.893   0.951   6.394 -1.2420 -0.8405  2.2182
   99MOL0     H13645   3.713   0.876   6.300  0.6626 -2.0060  2.6564
   99MOL0     H13646   2.402   0.947   4.784 -3.2736 -1.8721  0.7259
   99MOL0     H13647   2.201   0.943   4.652 -0.6897 -0.4291  0.0296
   99MOL0     H13648   1.731   1.110   4.707  1.1300 -1.7841 -0.3023
   99MOL0     H13649   1.499   1.114   4.609 -1.2653  1.5293 -0.8473
   99MOL0     H13650   1.307   1.209   4.559 -0.9762 -0.1694  1.2409
   99MOL0     H13651   1.219   1.264   4.425 -0.3397  0.6934  2.8494
   99MOL0     H13652   1.278   1.044   4.305 -1.4121 -3.7138 -0.0421
   99MOL0     H13653   1.153   1.048   4.434 -1.0604 -1.9971 -2.7248
   99MOL0     H13654   1.439   0.937   4.478 -0.8310 -2.2580 -2.1772
   99MOL0     H13655   1.320   0.949   4.601  2.6692  0.0943 -0.5125
   99MOL0     H13656   1.333   0.788   4.352  1.7036  2.3862  0.6090
   99MOL0     H13657   1.183   0.791   4.446  0.5594 -2.5591  0.7144
   99MOL0     H13658   1.372   0.532   4.690 -0.8096  1.5792  0.9294
   99MOL0     H13659   1.638   1.324   4.263  4.3284  2.3072 -0.5035
   99MOL0     H13660   1.942   1.390   4.332 -0.9604  0.0392 -2.0530
   99MOL0     H13661   1.989   1.215   4.292  3.1445  0.3876 -1.3406
   99MOL0     H13662   1.867   1.302   4.197 -1.8341  0.3909  0.7002
  100MOL0     O13663   2.745   3.236   8.759  0.2372  0.1583 -0.2832
  100MOL0     C13664   2.733   3.114   8.730  0.1854 -0.0554 -0.4934
  100MOL0     O13665   2.809   3.008   8.778  0.3060 -0.4931  0.3302
  100MOL0     C13666   2.881   3.024   8.887 -0.4619  0.1533  0.4791
  100MOL0     C13667   3.014   3.054   8.876 -0.0237 -0.7726 -0.7230
  100MOL0     C13668   3.092   3.080   8.981  0.0790  0.1554 -0.5714
  100MOL0     C13669   3.037   3.079   9.105  0.2428  0.7058  0.1014
  100MOL0     O13670   3.128   3.110   9.207 -0.0586 -0.4293 -0.1667
  100MOL0     C13671   3.095   3.080   9.346 -0.6226 -0.3285  0.7821
  100MOL0     C13672   3.233   3.103   9.421  0.1275 -0.1962  0.1184
  100MOL0     C13673   3.296   3.240   9.383 -0.2677 -0.2625  0.3563
  100MOL0     C13674   3.379   3.295   9.502  0.0962  0.1626  0.1193
  100MOL0     C13675   3.473   3.410   9.461 -0.0971 -0.1805 -0.5936
  100MOL0     C13676   3.403   3.539   9.416 -0.1036 -0.6835 -0.1779
  100MOL0     C13677   3.509   3.629   9.335  0.7614 -0.0560 -0.0559
  100MOL0     C13678   3.632   3.670   9.419 -0.6835  0.3845 -0.1866
  100MOL0     N13679   3.678   3.805   9.385  0.7061  0.7961  0.4706
  100MOL0     C13680   3.723   3.842   9.261 -0.8449  0.6151  0.3472
  100MOL0     C13681   3.722   3.979   9.264  0.4050 -0.0627  0.2497
  100MOL0     C13682   3.742   4.072   9.147 -0.0503  0.6447  0.0922
  100MOL0     C13683   3.823   4.193   9.195 -0.0358  0.2412 -0.3612
  100MOL0     C13684   3.918   4.228   9.081  0.2811 -0.3647 -0.3350
  100MOL0     C13685   4.033   4.315   9.141 -0.2277  0.0809  0.4183
  100MOL0     O13686   4.099   4.358   9.019 -0.2578 -0.1613 -0.0604
  100MOL0     C13687   4.196   4.464   9.013 -0.0972  0.1238 -0.1924
  100MOL0     C13688   4.298   4.488   9.109  0.8785 -1.3410  0.0223
  100MOL0     C13689   4.393   4.594   9.083  0.0379  0.2955 -0.4295
  100MOL0     C13690   4.510   4.595   9.178 -0.2601  0.4952  0.3029
  100MOL0     C13691   4.377   4.683   8.979 -0.9146 -0.0523 -0.7592
  100MOL0     C13692   4.465   4.792   8.945  0.8255  0.1645  0.2838
  100MOL0     O13693   4.600   4.768   8.961 -0.1915  0.4122 -0.2160
  100MOL0     C13694   4.693   4.873   8.947 -0.0808  0.0761 -0.1721
  100MOL0     C13695   4.798   4.848   8.863 -0.1340 -0.4791 -0.1762
  100MOL0     C13696   4.893   4.946   8.839  0.5473  0.7610 -0.2142
  100MOL0     C13697   4.883   5.071   8.898  0.2984 -0.3203 -0.2507
  100MOL0     O13698   4.968   5.182   8.894  0.6299  0.1241  0.2498
  100MOL0     C13699   5.065   5.189   8.786  0.4610  0.7519 -0.3151
  100MOL0     C13700   5.045   5.324   8.709 -0.4641 -0.1793  0.5210
  100MOL0     C13701   5.142   5.325   8.589  0.2020 -0.0251 -0.6511
  100MOL0     C13702   5.095   5.428   8.485 -0.2689 -0.6532 -0.3489
  100MOL0     C13703   5.195   5.461   8.370  0.4101  0.0210 -0.5902
  100MOL0     C13704   5.117   5.565   8.287  0.1326  0.1690  0.4320
  100MOL0     C13705   5.196   5.599   8.157  0.1974 -0.0829 -0.4315
  100MOL0     C13706   5.105   5.700   8.087  0.1578  0.5986 -0.7873
  100MOL0    Cl13707   5.197   5.801   7.968 -0.2281 -0.4152 -0.0753
  100MOL0     C13708   4.775   5.084   8.977 -0.0435  0.2825 -0.0186
  100MOL0     C13709   4.674   4.993   9.002 -0.6552  0.0966 -0.2460
  100MOL0     O13710   4.419   4.898   8.897 -0.1535 -0.5167 -0.6705
  100MOL0     C13711   4.269   4.662   8.893  0.3694  0.4164  0.5633
  100MOL0     C13712   4.182   4.549   8.904  0.2838  0.4461  0.9734
  100MOL0     N13713   3.671   4.022   9.379  0.5569 -0.5969 -0.1678
  100MOL0     N13714   3.647   3.918   9.451 -0.1154 -0.3519 -0.4724
  100MOL0     C13715   2.912   3.030   9.129  0.0550  0.6123  0.4345
  100MOL0     C13716   2.830   3.003   9.019  0.0462  0.4778 -0.0141
  100MOL0     C13717   2.627   3.086   8.626  0.3542  0.1179  0.3265
  100MOL0     C13718   2.643   2.976   8.538  0.3442 -1.0505 -0.1105
  100MOL0     C13719   2.536   2.945   8.457 -0.1447  0.3886  0.2434
  100MOL0     C13720   2.424   3.022   8.444  0.5496 -0.5428  0.1187
  100MOL0     O13721   2.337   3.001   8.347 -0.1905  0.2061  0.4006
  100MOL0     C13722   2.359   3.065   8.221 -0.5220 -0.4340 -0.6292
  100MOL0     C13723   2.261   3.013   8.109 -1.2713  0.0953 -0.6965
  100MOL0     C13724   2.121   3.016   8.154 -0.5164 -0.4773  0.4721
  100MOL0     C13725   2.036   2.920   8.067 -0.0176 -0.2290  0.1525
  100MOL0     C13726   1.900   2.962   8.067  0.2582 -1.0524  0.6125
  100MOL0     C13727   1.784   2.991   8.081 -0.3969  0.0264 -0.0894
  100MOL0     C13728   2.412   3.132   8.527  0.0127 -0.3020 -0.5523
  100MOL0     C13729   2.505   3.158   8.626  0.4455 -0.5924 -0.0242
  100MOL0     C13730   2.458   3.268   8.724  0.2023 -0.0785  0.6708
  100MOL0     H13731   3.048   3.086   8.778  3.6527  2.3578  1.3117
  100MOL0     H13732   3.188   3.128   8.964  0.3242  1.0354  2.6395
  100MOL0     H13733   3.056   2.978   9.359 -1.3402 -0.0852  0.6041
  100MOL0     H13734   3.020   3.147   9.388 -0.2273 -0.1008  1.1252
  100MOL0     H13735   3.202   3.100   9.526  0.9968  1.0498  0.4356
  100MOL0     H13736   3.313   3.031   9.401  0.7531  1.3778 -4.1711
  100MOL0     H13737   3.367   3.211   9.305 -0.7422  2.4157 -1.1806
  100MOL0     H13738   3.220   3.301   9.332 -1.3864 -0.8057  1.3188
  100MOL0     H13739   3.310   3.317   9.584  1.6419 -1.7088  2.0527
  100MOL0     H13740   3.441   3.212   9.539 -1.0193  0.4544  2.8859
  100MOL0     H13741   3.539   3.374   9.382  0.4886 -3.2078  1.1390
  100MOL0     H13742   3.529   3.432   9.552 -1.6705  2.0791 -0.0708
  100MOL0     H13743   3.309   3.524   9.364 -1.6348  1.2854  1.7880
  100MOL0     H13744   3.369   3.593   9.505  2.1495  0.9849 -0.2106
  100MOL0     H13745   3.460   3.722   9.307  1.1582  0.7067  1.6644
  100MOL0     H13746   3.539   3.567   9.250  1.3775  0.5126 -0.2562
  100MOL0     H13747   3.601   3.661   9.524 -1.5457 -4.0424 -0.5972
  100MOL0     H13748   3.712   3.599   9.398  1.9356  2.8658  0.8395
  100MOL0     H13749   3.773   3.785   9.183 -3.0283 -2.2032  0.8045
  100MOL0     H13750   3.641   4.104   9.121 -0.6694 -2.1583 -1.3019
  100MOL0     H13751   3.790   4.028   9.059 -1.4927 -0.0417 -0.3844
  100MOL0     H13752   3.762   4.279   9.222 -0.1206  1.1211 -3.0554
  100MOL0     H13753   3.899   4.168   9.269  0.4467 -2.7877 -1.7235
  100MOL0     H13754   3.968   4.139   9.042 -1.2596 -1.2736 -0.3059
  100MOL0     H13755   3.862   4.287   9.008  3.0454  1.2511 -1.3304
  100MOL0     H13756   4.000   4.394   9.208  1.0060  0.9194  0.0628
  100MOL0     H13757   4.096   4.250   9.203 -0.8936 -0.8531  0.1476
  100MOL0     H13758   4.307   4.425   9.197 -0.1570  2.0868  2.8172
  100MOL0     H13759   4.605   4.574   9.128 -1.5053 -1.9264 -1.2745
  100MOL0     H13760   4.505   4.515   9.253  3.6106  0.8944  1.2250
  100MOL0     H13761   4.521   4.694   9.225 -0.6357  1.6707 -1.9676
  100MOL0     H13762   4.813   4.744   8.836 -0.1819 -0.8761  1.2545
  100MOL0     H13763   4.984   4.921   8.785  2.7162  4.7059  1.2017
  100MOL0     H13764   5.170   5.184   8.816  0.4101  0.0598 -0.2499
  100MOL0     H13765   5.047   5.111   8.711 -1.2142  1.9016 -1.1788
  100MOL0     H13766   4.943   5.340   8.672 -0.3090  1.3198  0.6497
  100MOL0     H13767   5.072   5.413   8.768 -2.7239  1.5191 -0.8233
  100MOL0     H13768   5.152   5.228   8.539 -3.2875 -0.5671 -0.5728
  100MOL0     H13769   5.238   5.338   8.640  0.5180 -0.1731 -1.2081
  100MOL0     H13770   5.074   5.519   8.541 -2.3188 -0.7451 -0.8833
  100MOL0     H13771   4.999   5.399   8.442 -1.6867 -0.4957  2.5034
  100MOL0     H13772   5.279   5.508   8.422 -0.8770  1.9588 -0.1586
  100MOL0     H13773   5.232   5.382   8.304  0.0245  0.4952 -1.3844
  100MOL0     H13774   5.086   5.643   8.357  0.3620 -1.6896  2.7357
  100MOL0     H13775   5.023   5.528   8.244 -0.5561  1.4021  0.8383
  100MOL0     H13776   5.202   5.513   8.091  0.8070 -1.2301  1.0500
  100MOL0     H13777   5.292   5.647   8.182  0.5083 -1.4966  1.3430
  100MOL0     H13778   5.061   5.767   8.161  3.0400 -0.6612  2.3336
  100MOL0     H13779   5.019   5.645   8.047  1.2652 -1.5407 -0.3682
  100MOL0     H13780   4.773   5.175   9.036  1.6601 -1.1975  2.4928
  100MOL0     H13781   4.591   5.010   9.069 -0.8201  2.1873 -0.9014
  100MOL0     H13782   4.254   4.729   8.809 -2.3533 -1.5756 -0.6784
  100MOL0     H13783   4.109   4.545   8.823  2.8811 -1.7696 -1.4311
  100MOL0     H13784   2.865   3.022   9.226  0.2231  0.8544  0.5371
  100MOL0     H13785   2.728   2.968   9.025 -0.4108  1.4177 -1.5044
  100MOL0     H13786   2.730   2.912   8.547  2.1022  0.7163 -2.9688
  100MOL0     H13787   2.537   2.852   8.402 -0.9170 -0.7360  2.0733
  100MOL0     H13788   2.337   3.171   8.235 -2.1996 -0.8584  0.2179
  100MOL0     H13789   2.459   3.053   8.180 -0.9272 -0.7643 -1.5483
  100MOL0     H13790   2.287   2.909   8.084 -0.4015 -0.1418  1.0206
  100MOL0     H13791   2.275   3.072   8.018 -0.2080 -3.0763 -2.7694
  100MOL0     H13792   2.110   2.981   8.257 -3.6010 -0.4285  0.2309
  100MOL0     H13793   2.076   3.115   8.145  1.2273  0.4503  1.4679
  100MOL0     H13794   2.041   2.818   8.104 -1.1866 -1.3928 -2.5943
  100MOL0     H13795   2.079   2.903   7.968  1.3372 -0.9301  0.8355
  100MOL0     H13796   1.680   3.014   8.091  0.0465  1.9271  0.4769
  100MOL0     H13797   2.319   3.186   8.515  0.8920  1.0585 -1.5241
  100MOL0     H13798   2.511   3.275   8.819  1.6178  0.7865 -0.1424
  100MOL0     H13799   2.477   3.369   8.685 -1.5963  0.2823  0.6147
  100MOL0     H13800   2.352   3.263   8.751  0.4128  3.0230  2.6597
  101MOL0     O13801   6.530   5.966   8.005  0.3453  0.0926 -0.3746
  101MOL0     C13802   6.537   5.886   8.098 -0.0334 -0.2889 -0.0906
  101MOL0     O13803   6.654   5.831   8.153 -0.2399 -1.1369  0.2288
  101MOL0     C13804   6.747   5.814   8.056  0.3440  0.1770 -0.7927
  101MOL0     C13805   6.774   5.679   8.016 -0.4381 -0.3159  0.0987
  101MOL0     C13806   6.878   5.649   7.927 -0.4907 -0.4663 -0.8753
  101MOL0     C13807   6.971   5.745   7.897 -0.3956 -0.1904  0.5772
  101MOL0     O13808   7.067   5.700   7.818 -0.3398 -0.0185  0.0883
  101MOL0     C13809   7.200   5.745   7.812 -0.7261  0.0291  0.5429
  101MOL0     C13810   7.272   5.718   7.946 -0.8168  1.4577  0.0951
  101MOL0     C13811   7.361   5.840   7.982  0.3392 -0.4071  0.8888
  101MOL0     C13812   7.450   5.829   8.105  0.0186 -0.1234  0.7738
  101MOL0     C13813   7.576   5.911   8.091  0.9243  0.4024 -0.6173
  101MOL0     C13814   7.681   5.851   7.989  0.9841  0.1752  0.5128
  101MOL0     C13815   7.783   5.968   7.961  0.6873  0.0084  0.9258
  101MOL0     C13816   7.870   5.920   7.844  0.1756 -0.2202  0.7267
  101MOL0     N13817   7.945   6.036   7.787  0.3817  0.4000 -1.0605
  101MOL0     C13818   8.020   6.014   7.675 -0.0540  0.5287  1.1233
  101MOL0     C13819   8.087   6.127   7.658 -0.3010 -0.4431  0.6885
  101MOL0     C13820   8.206   6.148   7.564 -0.6797 -0.8161  0.4468
  101MOL0     C13821   8.342   6.129   7.633 -0.6333  0.8254 -0.5144
  101MOL0     C13822   8.467   6.099   7.534  0.2033 -0.3507 -0.7057
  101MOL0     C13823   8.596   6.159   7.580  0.6706 -0.2038  0.1146
  101MOL0     O13824   8.719   6.121   7.515 -0.2907  0.2871 -0.1840
  101MOL0     C13825   8.769   6.185   7.405  0.5615 -0.2926 -0.4455
  101MOL0     C13826   8.717   6.296   7.344  0.5093  0.4148  0.0520
  101MOL0     C13827   8.761   6.335   7.216  0.3703 -0.1101 -0.3587
  101MOL0     C13828   8.685   6.450   7.143 -0.5556 -0.3575  0.3094
  101MOL0     C13829   8.876   6.269   7.159  0.2408  0.5696 -1.8908
  101MOL0     C13830   8.939   6.300   7.027  0.4302  0.2399 -0.6691
  101MOL0     O13831   9.068   6.251   7.012 -0.2583  0.3330 -0.1718
  101MOL0     C13832   9.147   6.331   6.932 -0.7771 -0.3895 -0.6555
  101MOL0     C13833   9.134   6.457   6.867  0.0846 -0.0375 -0.4223
  101MOL0     C13834   9.233   6.526   6.803 -0.9384  0.0575  0.2209
  101MOL0     C13835   9.363   6.469   6.788 -0.2016 -0.0469 -0.3847
  101MOL0     O13836   9.465   6.522   6.714 -0.2239 -0.3764 -0.4405
  101MOL0     C13837   9.423   6.624   6.626 -0.8662 -0.7900  0.0960
  101MOL0     C13838   9.543   6.656   6.538 -0.1883  0.6987 -0.6172
  101MOL0     C13839   9.560   6.526   6.447  0.7485  0.0872  0.4789
  101MOL0     C13840   9.650   6.556   6.327  0.2612  0.4120  0.0004
  101MOL0     C13841   9.675   6.430   6.232  0.5632 -0.7964  0.0571
  101MOL0     C13842   9.772   6.442   6.113  0.9160  0.2382 -0.5488
  101MOL0     C13843   9.693   6.418   5.982  0.5988 -0.8128 -0.4587
  101MOL0     C13844   9.777   6.439   5.857  0.4570 -0.4896 -0.1214
  101MOL0    Cl13845   9.656   6.421   5.721 -0.1150 -0.2797  0.3062
  101MOL0     C13846   9.381   6.351   6.852 -0.7434  0.4117  0.8803
  101MOL0     C13847   9.283   6.289   6.927  0.8630 -0.1297  0.0610
  101MOL0     O13848   8.874   6.358   6.944  0.0431 -0.3983  0.1623
  101MOL0     C13849   8.932   6.163   7.234 -0.1993  1.0451  0.5950
  101MOL0     C13850   8.885   6.118   7.355 -0.2838 -0.4426  0.6665
  101MOL0     N13851   8.034   6.225   7.741 -0.5879 -0.6160  1.0642
  101MOL0     N13852   7.933   6.168   7.802 -0.8070 -0.1269 -0.0505
  101MOL0     C13853   6.954   5.880   7.937 -0.2815 -0.0107 -0.5416
  101MOL0     C13854   6.844   5.906   8.022 -1.0743 -1.1038  0.1190
  101MOL0     C13855   6.400   5.854   8.157 -0.0415 -0.0737  0.3181
  101MOL0     C13856   6.295   5.948   8.142  0.0335  0.7631 -0.0689
  101MOL0     C13857   6.163   5.895   8.173 -0.4353 -0.4659  0.7936
  101MOL0     C13858   6.133   5.769   8.216  0.5156  1.1653 -0.5428
  101MOL0     O13859   6.006   5.730   8.254 -0.4927  1.2871 -0.0499
  101MOL0     C13860   5.888   5.801   8.217  0.5398  0.0609  0.0101
  101MOL0     C13861   5.764   5.724   8.250  0.2118  0.2353  0.6612
  101MOL0     C13862   5.755   5.702   8.400  0.2802 -0.8945 -0.3853
  101MOL0     C13863   5.791   5.563   8.450  0.0389  0.7987 -0.6541
  101MOL0     C13864   5.681   5.475   8.402 -0.6949 -0.1838 -0.1118
  101MOL0     C13865   5.590   5.408   8.369  0.4090 -0.4272  0.1940
  101MOL0     C13866   6.239   5.682   8.234  1.1253 -0.5807 -0.4650
  101MOL0     C13867   6.370   5.724   8.202 -1.4864  1.0808 -0.3377
  101MOL0     C13868   6.481   5.626   8.242  0.6199 -0.0027  0.3797
  101MOL0     H13869   6.719   5.595   8.057 -1.0235  1.4102  3.1029
  101MOL0     H13870   6.887   5.548   7.888  0.7479  0.0088 -1.8971
  101MOL0     H13871   7.194   5.850   7.784  0.9884 -0.1148 -0.4869
  101MOL0     H13872   7.253   5.696   7.730  0.8713 -0.6260  1.9057
  101MOL0     H13873   7.200   5.705   8.028  1.3380 -4.0863  1.5502
  101MOL0     H13874   7.319   5.620   7.944 -1.4241  1.1632 -2.6006
  101MOL0     H13875   7.408   5.855   7.884 -1.3504 -2.1713 -0.2576
  101MOL0     H13876   7.306   5.933   7.999  2.0764  0.8941 -0.2390
  101MOL0     H13877   7.393   5.878   8.184 -2.2439 -0.3678 -0.6076
  101MOL0     H13878   7.470   5.726   8.136  2.0507  0.0082  0.0341
  101MOL0     H13879   7.621   5.902   8.190 -0.2468 -1.5255 -0.2221
  101MOL0     H13880   7.554   6.017   8.076 -1.8810 -0.1046 -0.5508
  101MOL0     H13881   7.738   5.774   8.041  1.8830  0.5824  0.1551
  101MOL0     H13882   7.633   5.807   7.901 -2.0803  2.0917  1.0860
  101MOL0     H13883   7.845   5.998   8.046  1.7153 -2.6903  1.2293
  101MOL0     H13884   7.730   6.058   7.927  1.4087 -0.4944 -1.7777
  101MOL0     H13885   7.935   5.846   7.891 -0.3449 -1.5464 -0.5823
  101MOL0     H13886   7.817   5.872   7.762  2.4480  1.2107 -1.7356
  101MOL0     H13887   8.036   5.919   7.626 -0.3177  0.2188  1.6243
  101MOL0     H13888   8.196   6.249   7.524 -3.8837 -0.9672  0.5487
  101MOL0     H13889   8.207   6.082   7.477  1.0639  1.4125 -1.3298
  101MOL0     H13890   8.372   6.222   7.682 -0.2910 -0.2413  1.3864
  101MOL0     H13891   8.341   6.057   7.715 -1.1895  1.0288 -0.3323
  101MOL0     H13892   8.484   5.991   7.534  0.1710 -0.3553 -0.8445
  101MOL0     H13893   8.441   6.136   7.434  3.3264  0.7767 -1.1914
  101MOL0     H13894   8.590   6.269   7.582  1.0427 -0.1827  0.1303
  101MOL0     H13895   8.613   6.134   7.685  1.1698 -0.2135  0.0316
  101MOL0     H13896   8.634   6.348   7.391 -2.6088 -1.3018 -3.0186
  101MOL0     H13897   8.768   6.518   7.126 -0.3027 -1.4914 -4.7969
  101MOL0     H13898   8.614   6.501   7.208 -0.8623 -0.5706  0.1499
  101MOL0     H13899   8.639   6.433   7.045 -0.0726  1.8399 -0.3588
  101MOL0     H13900   9.038   6.506   6.882 -1.2056 -2.6591  0.4341
  101MOL0     H13901   9.206   6.628   6.777 -0.2731  0.1872  0.0115
  101MOL0     H13902   9.339   6.591   6.565  0.2747 -1.3629 -1.2332
  101MOL0     H13903   9.399   6.709   6.690  0.2402 -1.0235  0.8463
  101MOL0     H13904   9.533   6.746   6.479 -2.2689  1.1714  0.3741
  101MOL0     H13905   9.625   6.664   6.610 -0.8719 -2.8731  0.8119
  101MOL0     H13906   9.462   6.497   6.408  0.1691 -0.0094  1.9484
  101MOL0     H13907   9.601   6.440   6.499  0.4629 -1.3132 -1.4962
  101MOL0     H13908   9.744   6.586   6.374 -0.0381  0.0300  0.8542
  101MOL0     H13909   9.614   6.639   6.265  4.2666  1.1993 -1.5749
  101MOL0     H13910   9.702   6.345   6.296  0.9404 -0.4353  0.3867
  101MOL0     H13911   9.577   6.396   6.198  0.7052 -0.2011 -0.9831
  101MOL0     H13912   9.860   6.377   6.117  0.2172 -0.7146 -0.2783
  101MOL0     H13913   9.807   6.546   6.115  2.0897 -0.1344  2.7982
  101MOL0     H13914   9.610   6.489   5.971 -0.5655 -1.3481  3.4770
  101MOL0     H13915   9.664   6.313   5.975 -0.1803 -0.6776  0.5344
  101MOL0     H13916   9.862   6.372   5.842  0.5574 -0.2073 -0.8729
  101MOL0     H13917   9.818   6.541   5.850  1.6527 -1.0010 -0.9558
  101MOL0     H13918   9.480   6.309   6.867  0.3381  2.9442  1.3116
  101MOL0     H13919   9.306   6.194   6.974 -1.3830 -0.0272  1.5426
  101MOL0     H13920   9.013   6.105   7.192 -2.6258 -1.8032 -0.5078
  101MOL0     H13921   8.927   6.032   7.407 -1.2274 -1.8272 -0.7547
  101MOL0     H13922   7.029   5.956   7.918 -0.1864 -0.1414 -0.6967
  101MOL0     H13923   6.844   6.008   8.059  2.6038 -1.2528  0.8992
  101MOL0     H13924   6.303   6.039   8.083 -0.6789  1.8639  1.4698
  101MOL0     H13925   6.080   5.964   8.158 -0.4951 -0.2465  2.0811
  101MOL0     H13926   5.890   5.897   8.270  0.6806  0.5722 -0.9102
  101MOL0     H13927   5.879   5.817   8.109  2.8058 -0.1312 -0.2481
  101MOL0     H13928   5.753   5.630   8.195 -2.1800  1.3708 -0.9700
  101MOL0     H13929   5.679   5.779   8.209 -0.1429 -2.8152 -3.3329
  101MOL0     H13930   5.807   5.786   8.448 -0.4341 -0.3176 -0.6121
  101MOL0     H13931   5.654   5.721   8.435  0.8299 -0.6104  1.1456
  101MOL0     H13932   5.791   5.559   8.559 -0.2381  1.9616 -0.6068
  101MOL0     H13933   5.886   5.529   8.406  0.1508  0.2970 -0.0355
  101MOL0     H13934   5.508   5.343   8.344  0.9678 -1.9157  2.0180
  101MOL0     H13935   6.223   5.578   8.263 -2.8554 -0.2537 -0.9746
  101MOL0     H13936   6.545   5.651   8.328  1.9345 -2.7492  0.2957
  101MOL0     H13937   6.438   5.533   8.278 -0.8007  0.8528  0.9841
  101MOL0     H13938   6.551   5.604   8.162  1.1834 -0.4243  0.9744
  102MOL0     O13939  10.419   1.270   6.135  0.3715 -0.4537  0.0161
  102MOL0     C13940  10.387   1.164   6.081 -0.3237 -0.4663 -0.3982
  102MOL0     O13941  10.458   1.049   6.084 -0.5390 -0.4971  0.2224
  102MOL0     C13942  10.591   1.043   6.070 -0.6522 -0.4446 -0.4280
  102MOL0     C13943  10.674   1.148   6.021  1.0043 -0.5536  0.8167
  102MOL0     C13944  10.807   1.126   6.000 -0.0016  0.3585  0.2130
  102MOL0     C13945  10.870   1.003   6.032 -0.0224  0.3084 -0.7009
  102MOL0     O13946  11.002   0.977   6.038  0.0773  0.4369  0.6234
  102MOL0     C13947  11.091   1.084   6.020  0.2205 -0.3582  0.5059
  102MOL0     C13948  11.114   1.176   6.144 -0.5228 -0.9752 -0.8471
  102MOL0     C13949  11.200   1.298   6.123 -0.7370 -0.7358  0.3485
  102MOL0     C13950  11.204   1.379   6.257 -0.7608  0.8013  0.7395
  102MOL0     C13951  11.303   1.316   6.365 -0.3238 -0.3259  0.5303
  102MOL0     C13952  11.321   1.414   6.475  0.1206 -0.6821 -0.7602
  102MOL0     C13953  11.402   1.356   6.588  0.8056 -0.3795 -0.5177
  102MOL0     C13954  11.554   1.355   6.555  0.7731 -0.4073 -0.5182
  102MOL0     N13955  11.613   1.479   6.612 -0.5949 -0.0719 -0.0171
  102MOL0     C13956  11.685   1.491   6.727 -0.0038  1.0145  0.1885
  102MOL0     C13957  11.712   1.625   6.736  0.8576  0.5364 -0.4469
  102MOL0     C13958  11.785   1.678   6.856 -0.6547  0.2285 -0.2336
  102MOL0     C13959  11.930   1.617   6.857  0.5776 -1.0413  0.5449
  102MOL0     C13960  11.972   1.530   6.976 -0.6289 -1.2028 -0.4080
  102MOL0     C13961  12.111   1.481   6.961 -0.3857  0.0509  0.6623
  102MOL0     O13962  12.212   1.582   6.975  0.1253  0.5025 -0.6051
  102MOL0     C13963  12.245   1.628   7.100  0.0145  0.8173  0.2971
  102MOL0     C13964  12.194   1.572   7.218 -0.8351  0.3474  0.3285
  102MOL0     C13965  12.228   1.626   7.345 -0.2188 -0.8742  0.0606
  102MOL0     C13966  12.176   1.561   7.473 -0.2657  0.1212  0.2375
  102MOL0     C13967  12.314   1.738   7.356 -0.4079  0.0233  0.8732
  102MOL0     C13968  12.361   1.789   7.488 -1.0457  0.4674 -0.1282
  102MOL0     O13969  12.500   1.811   7.493  0.3849  0.2635 -0.6473
  102MOL0     C13970  12.537   1.932   7.544 -0.2000 -0.0169 -0.1551
  102MOL0     C13971  12.666   1.934   7.600 -0.2311 -1.1104  0.3835
  102MOL0     C13972  12.713   2.050   7.662  0.6161 -0.1421  0.2187
  102MOL0     C13973  12.632   2.171   7.673  0.5142  0.0903 -0.3903
  102MOL0     O13974  12.682   2.280   7.741  0.1496 -0.5178  0.2743
  102MOL0     C13975  12.807   2.282   7.819  0.2846 -0.4878  0.6316
  102MOL0     C13976  12.828   2.425   7.871  0.3984  1.0174 -0.2938
  102MOL0     C13977  12.946   2.434   7.978  0.3568 -0.6118 -0.2146
  102MOL0     C13978  12.945   2.579   8.030 -1.4654 -0.5130  0.1065
  102MOL0     C13979  13.085   2.629   8.036 -0.8187 -0.7867 -0.0502
  102MOL0     C13980  13.163   2.632   7.902  0.2083 -0.5276 -0.1898
  102MOL0     C13981  13.102   2.710   7.792  0.1425 -0.6162  0.4033
  102MOL0     C13982  13.134   2.851   7.793 -0.2734 -0.4592  1.1309
  102MOL0    Cl13983  13.072   2.905   7.633 -0.1309  0.2960 -0.0807
  102MOL0     C13984  12.500   2.159   7.621 -0.1392  0.0497  0.6332
  102MOL0     C13985  12.458   2.042   7.554  0.0434 -0.0627  0.4484
  102MOL0     O13986  12.285   1.807   7.581  0.8696 -1.0978  0.3773
  102MOL0     C13987  12.354   1.792   7.235 -1.3075 -0.4009 -0.3453
  102MOL0     C13988  12.320   1.743   7.107  0.0377  0.3829 -0.5864
  102MOL0     N13989  11.656   1.698   6.635  0.3260 -0.2186  0.2875
  102MOL0     N13990  11.587   1.607   6.566 -0.4265  0.1557  0.5193
  102MOL0     C13991  10.785   0.899   6.078  0.0021 -0.5579 -0.0852
  102MOL0     C13992  10.646   0.917   6.085  1.1971  0.3036 -0.7493
  102MOL0     C13993  10.242   1.150   6.060  0.0947 -0.3554 -0.6522
  102MOL0     C13994  10.172   1.026   6.096  1.2588  1.1201 -1.0166
  102MOL0     C13995  10.039   1.015   6.068 -0.5151 -0.3334 -0.3577
  102MOL0     C13996   9.962   1.124   6.025 -0.0065 -0.2813 -0.3687
  102MOL0     O13997   9.828   1.116   5.988 -0.0340 -0.7196 -0.2137
  102MOL0     C13998   9.744   1.005   6.011  1.3582  0.3528  0.0521
  102MOL0     C13999   9.586   1.031   5.976  0.2353  0.1223  0.3833
  102MOL0     C14000   9.521   0.892   5.958  0.1456  0.1950  0.1013
  102MOL0     C14001   9.367   0.897   5.941  1.1756 -0.6590  0.0725
  102MOL0     C14002   9.327   0.906   5.798 -0.0169 -0.5039 -0.0482
  102MOL0     C14003   9.288   0.902   5.687  0.8177  0.4520  0.1114
  102MOL0     C14004  10.025   1.243   5.981 -0.3687 -0.1129  0.3484
  102MOL0     C14005  10.170   1.259   6.002  0.8463 -0.0104 -0.2575
  102MOL0     C14006  10.222   1.388   5.959 -0.5669 -0.4593  0.7397
  102MOL0     H14007  10.630   1.246   6.006  0.7147 -0.8537 -0.4034
  102MOL0     H14008  10.868   1.209   5.964 -0.4167  0.3869 -0.4531
  102MOL0     H14009  11.068   1.139   5.928  1.1133  0.2170  0.6086
  102MOL0     H14010  11.188   1.040   5.995  1.8592  2.1784  1.9137
  102MOL0     H14011  11.022   1.207   6.194  0.2355  1.7494 -1.0188
  102MOL0     H14012  11.162   1.113   6.220  2.1938  0.8686 -0.9127
  102MOL0     H14013  11.296   1.271   6.079 -1.6145  0.1819 -2.2975
  102MOL0     H14014  11.157   1.373   6.056  0.5047 -0.7850 -0.5343
  102MOL0     H14015  11.268   1.464   6.235  0.2717 -0.2128 -0.3130
  102MOL0     H14016  11.104   1.406   6.292 -1.7283 -0.2823 -1.0632
  102MOL0     H14017  11.396   1.272   6.329 -2.2766 -2.5106 -2.2745
  102MOL0     H14018  11.255   1.226   6.404 -1.1327  0.2400  0.8655
  102MOL0     H14019  11.365   1.508   6.439  0.8089 -1.1990 -1.2854
  102MOL0     H14020  11.220   1.443   6.507  0.4028  0.3347 -0.7371
  102MOL0     H14021  11.368   1.253   6.603  1.9337 -0.7575 -0.5238
  102MOL0     H14022  11.396   1.411   6.682  2.6364 -0.5020 -0.3045
  102MOL0     H14023  11.594   1.260   6.592  1.7551  0.4017  0.5709
  102MOL0     H14024  11.574   1.353   6.447 -0.0700  2.5215 -0.8074
  102MOL0     H14025  11.707   1.409   6.795 -0.0665  1.7788  1.1536
  102MOL0     H14026  11.733   1.640   6.944  4.9471  0.2578  3.5668
  102MOL0     H14027  11.793   1.786   6.867  0.8532 -0.0327  1.9714
  102MOL0     H14028  11.940   1.559   6.765 -0.2804 -0.8104  0.2890
  102MOL0     H14029  12.004   1.695   6.838  1.0630 -1.3510  1.1333
  102MOL0     H14030  11.965   1.582   7.072  1.5285 -1.1771 -0.2249
  102MOL0     H14031  11.908   1.442   6.973 -1.8519 -0.3353 -1.0855
  102MOL0     H14032  12.139   1.391   7.016 -0.8141 -3.1642 -3.8115
  102MOL0     H14033  12.136   1.439   6.863 -0.8740 -2.0229  1.3912
  102MOL0     H14034  12.130   1.485   7.216  1.2826 -1.3052 -1.8925
  102MOL0     H14035  12.125   1.467   7.454 -2.3533  0.8955  1.6743
  102MOL0     H14036  12.094   1.617   7.519  0.3525  0.7033  0.6470
  102MOL0     H14037  12.258   1.549   7.544  0.4332 -0.1958 -0.6072
  102MOL0     H14038  12.726   1.844   7.599  3.0167  0.8823 -0.8560
  102MOL0     H14039  12.813   2.050   7.703 -0.2336 -0.6346  2.4375
  102MOL0     H14040  12.817   2.211   7.902  1.9238  1.4344  2.2057
  102MOL0     H14041  12.890   2.255   7.753 -0.0195 -1.2832  0.5680
  102MOL0     H14042  12.853   2.486   7.784 -2.7132  3.2707  0.2295
  102MOL0     H14043  12.743   2.475   7.918  0.0979  1.2139 -1.0381
  102MOL0     H14044  13.028   2.401   7.913  0.2830 -2.5755  0.5969
  102MOL0     H14045  12.936   2.365   8.063 -0.7042 -1.4942 -1.0294
  102MOL0     H14046  12.885   2.578   8.122 -1.4643 -1.4268  0.1120
  102MOL0     H14047  12.895   2.648   7.961  0.3231  0.2747 -0.4442
  102MOL0     H14048  13.082   2.729   8.081 -0.7801 -0.7612 -0.1035
  102MOL0     H14049  13.153   2.572   8.100  1.4001  2.0344  0.3100
  102MOL0     H14050  13.185   2.529   7.871 -0.9214  0.0537 -3.2457
  102MOL0     H14051  13.263   2.671   7.926 -0.4739  0.5346  1.0321
  102MOL0     H14052  12.994   2.696   7.776  0.3100  0.9657 -3.1665
  102MOL0     H14053  13.149   2.672   7.701  1.9800 -0.6976  1.3425
  102MOL0     H14054  13.241   2.874   7.799 -0.5940  1.7656 -0.3243
  102MOL0     H14055  13.085   2.908   7.873  0.7278  0.9240  0.8007
  102MOL0     H14056  12.431   2.242   7.632  1.7249  1.7326  0.3880
  102MOL0     H14057  12.365   2.034   7.500  1.2694 -2.2447 -1.5004
  102MOL0     H14058  12.423   1.876   7.239 -1.9634  0.1504 -0.2472
  102MOL0     H14059  12.357   1.768   7.009 -1.8356 -0.4964 -1.5714
  102MOL0     H14060  10.828   0.806   6.113 -0.2122  0.0309  1.8491
  102MOL0     H14061  10.573   0.844   6.117 -0.6495  2.1541 -0.5120
  102MOL0     H14062  10.224   0.939   6.136 -1.1539  0.6731  1.3944
  102MOL0     H14063   9.993   0.917   6.061  0.5195 -0.7119 -2.5320
  102MOL0     H14064   9.775   0.921   5.949  0.6028  0.9937 -1.2274
  102MOL0     H14065   9.758   0.987   6.118  2.9264 -1.4021 -0.4032
  102MOL0     H14066   9.594   1.082   5.880  2.3367  1.7159  1.3001
  102MOL0     H14067   9.541   1.088   6.057 -0.5738  1.4903 -0.9871
  102MOL0     H14068   9.562   0.837   5.872 -0.4757 -0.2581  0.0856
  102MOL0     H14069   9.545   0.836   6.049  0.2341 -2.0479 -1.2003
  102MOL0     H14070   9.327   0.986   5.990  1.0651  0.1893 -1.5133
  102MOL0     H14071   9.323   0.805   5.982  2.2996 -1.4820 -0.4998
  102MOL0     H14072   9.272   0.917   5.582  1.4419  1.7917  0.1782
  102MOL0     H14073   9.963   1.322   5.941  0.1687  1.5967  2.6622
  102MOL0     H14074  10.182   1.404   5.858 -0.1723 -3.2559  0.0810
  102MOL0     H14075  10.189   1.472   6.022  1.8511  1.3734 -0.2514
  102MOL0     H14076  10.331   1.396   5.961 -0.4691 -1.7963  1.5290
  103MOL0     O14077   0.634   8.344   5.810 -0.3739 -0.0300  0.0114
  103MOL0     C14078   0.618   8.274   5.718  0.4918  0.5956  0.6991
  103MOL0     O14079   0.506   8.208   5.689 -0.1400 -0.2827  0.1746
  103MOL0     C14080   0.389   8.225   5.760  0.5757 -0.3498  0.0572
  103MOL0     C14081   0.262   8.243   5.694  0.3786  0.3608 -0.2732
  103MOL0     C14082   0.143   8.236   5.760  0.0715  0.5258  0.6508
  103MOL0     C14083   0.139   8.218   5.901 -0.3488 -0.2460 -0.1843
  103MOL0     O14084   0.020   8.217   5.970 -0.3139  0.4460 -0.3900
  103MOL0     C14085  -0.109   8.238   5.899 -0.3934  0.4657 -0.0912
  103MOL0     C14086  -0.227   8.228   5.997  0.3888  0.0907  0.1039
  103MOL0     C14087  -0.239   8.077   6.045  0.2580 -0.0307  1.0122
  103MOL0     C14088  -0.356   8.057   6.139  0.1246  0.0707  0.8288
  103MOL0     C14089  -0.381   7.914   6.178 -0.2434  0.2457  0.2632
  103MOL0     C14090  -0.419   7.830   6.055  0.1874 -0.2958 -0.3411
  103MOL0     C14091  -0.444   7.683   6.087  0.1147 -0.6008 -0.4782
  103MOL0     C14092  -0.332   7.599   6.135  0.1003  0.2384  0.1588
  103MOL0     N14093  -0.204   7.648   6.082 -0.5944  0.3624  0.3394
  103MOL0     C14094  -0.146   7.610   5.960 -0.1920  0.4019 -1.0257
  103MOL0     C14095  -0.015   7.629   5.982  0.1888  0.7836  0.1861
  103MOL0     C14096   0.101   7.620   5.883  0.0259 -0.0193  0.0770
  103MOL0     C14097   0.187   7.496   5.912 -0.2655 -0.4219 -0.1433
  103MOL0     C14098   0.305   7.500   5.812  0.3945 -0.8330 -0.0707
  103MOL0     C14099   0.414   7.604   5.850  0.4284  0.6334  1.0180
  103MOL0     O14100   0.536   7.576   5.773  0.1431  0.0968 -1.0235
  103MOL0     C14101   0.643   7.665   5.779 -0.6283 -0.0107  1.1648
  103MOL0     C14102   0.652   7.778   5.862 -0.0148 -0.0434 -0.6474
  103MOL0     C14103   0.758   7.877   5.846  0.8578 -0.4790 -0.0605
  103MOL0     C14104   0.744   8.020   5.910  0.2170 -0.0817  0.0983
  103MOL0     C14105   0.858   7.845   5.744 -0.1493 -0.5697 -0.4922
  103MOL0     C14106   0.979   7.928   5.730 -0.0555  0.5192  0.2664
  103MOL0     O14107   1.014   8.013   5.827 -0.2885 -0.0363 -1.1762
  103MOL0     C14108   1.125   8.100   5.818 -0.2024 -0.0624 -0.2809
  103MOL0     C14109   1.114   8.233   5.869 -0.1855 -0.3964 -0.0101
  103MOL0     C14110   1.232   8.311   5.885 -0.1074 -0.2856 -0.0482
  103MOL0     C14111   1.351   8.275   5.833  0.1967  0.3328  0.5347
  103MOL0     O14112   1.462   8.348   5.862  0.0493  0.2758 -0.1351
  103MOL0     C14113   1.586   8.299   5.881 -0.4126 -0.5656  0.4938
  103MOL0     C14114   1.679   8.402   5.954 -0.3604 -0.5129 -0.4397
  103MOL0     C14115   1.812   8.329   5.991  0.6779 -0.1858  0.1033
  103MOL0     C14116   1.886   8.431   6.074 -1.0006  0.0379  0.9647
  103MOL0     C14117   2.015   8.359   6.124  0.7659 -0.4883  0.1026
  103MOL0     C14118   2.094   8.467   6.203 -0.5575  0.1950 -1.3574
  103MOL0     C14119   2.224   8.394   6.233 -0.5132 -0.6231  0.0595
  103MOL0     C14120   2.324   8.468   6.320 -0.7261 -0.3069 -0.1926
  103MOL0    Cl14121   2.344   8.640   6.293  0.3642 -0.0093 -0.0458
  103MOL0     C14122   1.358   8.142   5.777  0.0058 -0.7216  0.0963
  103MOL0     C14123   1.249   8.056   5.779  0.0337  0.3423  0.1285
  103MOL0     O14124   1.051   7.905   5.636 -0.0266  0.2484 -0.5715
  103MOL0     C14125   0.858   7.722   5.674 -0.5173 -0.5025  0.5334
  103MOL0     C14126   0.747   7.639   5.692 -0.2071 -0.4462 -0.0788
  103MOL0     N14127  -0.001   7.666   6.107 -0.8595 -0.6352 -0.5500
  103MOL0     N14128  -0.110   7.680   6.166  0.0284  0.0973 -0.3824
  103MOL0     C14129   0.260   8.212   5.969 -0.2148  0.0170 -0.0282
  103MOL0     C14130   0.383   8.210   5.902 -0.0776 -0.0832  0.7590
  103MOL0     C14131   0.725   8.257   5.624 -0.6616  0.0180  0.3311
  103MOL0     C14132   0.734   8.151   5.536  1.5367 -0.4147  0.0586
  103MOL0     C14133   0.842   8.129   5.445  0.0372 -0.1430 -0.0715
  103MOL0     C14134   0.942   8.222   5.431  0.2131  0.2501  0.0367
  103MOL0     O14135   1.059   8.219   5.358  0.0210  0.8235  1.2036
  103MOL0     C14136   1.131   8.090   5.389  0.6690  0.4694 -0.7067
  103MOL0     C14137   1.271   8.092   5.330 -0.7525 -0.1046 -0.0299
  103MOL0     C14138   1.308   7.940   5.322 -0.0642 -0.0152 -0.5857
  103MOL0     C14139   1.444   7.913   5.266  0.0336 -0.4598  0.1817
  103MOL0     C14140   1.492   7.780   5.300  0.7316  0.3428  0.2055
  103MOL0     C14141   1.538   7.664   5.317 -0.2782 -0.2813 -0.1235
  103MOL0     C14142   0.941   8.333   5.514 -0.0559 -0.2597 -0.3450
  103MOL0     C14143   0.849   8.343   5.623  0.1040  0.9053 -0.1130
  103MOL0     C14144   0.886   8.454   5.726 -0.6233 -0.6067 -0.3474
  103MOL0     H14145   0.264   8.239   5.585  1.0477 -4.9047 -0.2914
  103MOL0     H14146   0.048   8.244   5.710 -1.6154 -1.7903  3.2091
  103MOL0     H14147  -0.106   8.168   5.814  0.8807  1.5576 -0.9886
  103MOL0     H14148  -0.104   8.338   5.854  1.8513 -0.4736 -2.2147
  103MOL0     H14149  -0.220   8.295   6.083  1.7021  2.4212 -1.6942
  103MOL0     H14150  -0.317   8.273   5.953  1.1831 -0.4797 -2.2890
  103MOL0     H14151  -0.256   8.012   5.958  2.6341 -0.5784  0.9005
  103MOL0     H14152  -0.146   8.049   6.095 -0.0540 -3.7385 -0.1178
  103MOL0     H14153  -0.346   8.123   6.225  1.0355  1.3404 -0.2089
  103MOL0     H14154  -0.447   8.094   6.090 -0.7146 -2.3701  0.4175
  103MOL0     H14155  -0.452   7.910   6.260  0.7512 -2.6273  1.1068
  103MOL0     H14156  -0.286   7.876   6.218 -0.9372 -1.8641  0.0225
  103MOL0     H14157  -0.508   7.879   6.014 -2.5900 -2.7631  2.1896
  103MOL0     H14158  -0.337   7.842   5.984  2.3911 -0.7828  1.9803
  103MOL0     H14159  -0.467   7.633   5.992 -0.3005 -0.6050 -0.3790
  103MOL0     H14160  -0.533   7.681   6.151  0.9080 -1.1074  0.6399
  103MOL0     H14161  -0.329   7.611   6.243  3.2024  1.7665  0.0062
  103MOL0     H14162  -0.347   7.494   6.109  0.2488 -0.0281  1.1432
  103MOL0     H14163  -0.198   7.575   5.872  1.3819 -1.3640 -1.3189
  103MOL0     H14164   0.156   7.713   5.898  0.6568 -0.2477 -0.7266
  103MOL0     H14165   0.062   7.620   5.780  0.4504 -1.2742 -0.0979
  103MOL0     H14166   0.226   7.484   6.013  2.5613  1.7969 -0.8530
  103MOL0     H14167   0.125   7.407   5.896 -2.5147  0.8352  1.0583
  103MOL0     H14168   0.347   7.400   5.797  2.9370 -0.3205  2.8400
  103MOL0     H14169   0.287   7.527   5.707  2.7997  0.2849 -0.2517
  103MOL0     H14170   0.367   7.698   5.822 -0.0176 -0.0747 -0.7154
  103MOL0     H14171   0.436   7.600   5.957  2.8536 -0.1717  0.5475
  103MOL0     H14172   0.587   7.792   5.948 -0.4701 -1.8187 -0.6698
  103MOL0     H14173   0.785   8.021   6.011  0.2388 -0.7775  0.1025
  103MOL0     H14174   0.637   8.040   5.917  0.6138  2.7811 -0.7603
  103MOL0     H14175   0.785   8.101   5.849 -2.3617  0.3785 -1.1754
  103MOL0     H14176   1.019   8.262   5.913 -0.6342 -0.0470 -1.1782
  103MOL0     H14177   1.214   8.403   5.940 -1.1702 -0.4096 -0.1726
  103MOL0     H14178   1.573   8.222   5.958  0.2137  0.4246  1.6278
  103MOL0     H14179   1.643   8.282   5.790  2.1728  1.7324  1.5690
  103MOL0     H14180   1.692   8.485   5.884 -1.1842 -0.1721 -0.2023
  103MOL0     H14181   1.624   8.434   6.043  3.5891  0.5580  1.8638
  103MOL0     H14182   1.871   8.307   5.902 -0.6984  5.0120 -2.4791
  103MOL0     H14183   1.784   8.243   6.052 -1.9027 -1.1282 -2.1990
  103MOL0     H14184   1.837   8.494   6.149  1.2040  0.9213  1.7529
  103MOL0     H14185   1.920   8.497   5.994  1.4946  0.4712  2.2804
  103MOL0     H14186   1.982   8.276   6.187  0.3405  0.0755  0.6311
  103MOL0     H14187   2.072   8.326   6.036  1.0808 -0.9137  0.4638
  103MOL0     H14188   2.045   8.503   6.294  2.2469 -1.4726  0.9926
  103MOL0     H14189   2.127   8.553   6.143  1.0234  0.5322 -0.0745
  103MOL0     H14190   2.274   8.378   6.138 -0.2271  1.5770 -0.2024
  103MOL0     H14191   2.207   8.300   6.287 -1.8916 -0.1637  0.4578
  103MOL0     H14192   2.424   8.425   6.315  0.7364  2.9318 -2.0753
  103MOL0     H14193   2.290   8.449   6.422 -0.5385 -2.3409 -0.4678
  103MOL0     H14194   1.460   8.113   5.751  0.0731  0.1167 -0.6350
  103MOL0     H14195   1.263   7.950   5.762 -2.1621 -0.6474  3.5024
  103MOL0     H14196   0.928   7.700   5.595 -2.7194 -1.1541 -1.3374
  103MOL0     H14197   0.749   7.549   5.631 -0.7367 -0.9533  0.6432
  103MOL0     H14198   0.255   8.226   6.076  1.9520  0.0027  0.1226
  103MOL0     H14199   0.475   8.197   5.958  0.1740 -1.6072  0.0473
  103MOL0     H14200   0.651   8.081   5.532  0.6241  0.6434  0.0495
  103MOL0     H14201   0.827   8.041   5.383  2.2370  0.5728 -1.7576
  103MOL0     H14202   1.143   8.085   5.497 -0.1418  0.1633 -0.6300
  103MOL0     H14203   1.063   8.011   5.356  1.2623  0.0215 -0.8834
  103MOL0     H14204   1.343   8.140   5.398  0.1216 -0.7107 -0.5137
  103MOL0     H14205   1.286   8.137   5.232  3.7657 -2.0816 -0.4743
  103MOL0     H14206   1.305   7.897   5.423  1.8027 -2.8960 -1.6282
  103MOL0     H14207   1.234   7.888   5.261  0.8628 -1.3947 -0.5771
  103MOL0     H14208   1.502   7.991   5.317 -0.8916 -1.0011  2.1943
  103MOL0     H14209   1.443   7.932   5.159 -0.6090  2.1766  0.5954
  103MOL0     H14210   1.581   7.567   5.325  0.9605  0.3669  1.7074
  103MOL0     H14211   1.021   8.406   5.507 -1.8685  1.9006  0.2897
  103MOL0     H14212   0.830   8.546   5.709  2.0355  1.1853 -0.0639
  103MOL0     H14213   0.861   8.426   5.828  1.6812 -1.8500 -0.0606
  103MOL0     H14214   0.993   8.478   5.727 -0.2240 -2.2611  0.5345
  104MOL0     O14215   3.557   1.353   6.928  0.5011  0.5126  0.4023
  104MOL0     C14216   3.479   1.326   7.019 -0.0806  0.0864  1.3696
  104MOL0     O14217   3.505   1.360   7.146  0.2693  0.1966 -0.1632
  104MOL0     C14218   3.575   1.481   7.167  0.1433  0.3451 -0.2802
  104MOL0     C14219   3.650   1.490   7.292  0.9325  0.8667 -0.3067
  104MOL0     C14220   3.725   1.611   7.316 -0.8994  0.5331 -0.8007
  104MOL0     C14221   3.726   1.714   7.226  0.6975 -0.3943  0.7675
  104MOL0     O14222   3.791   1.833   7.239  0.0876  0.0894 -0.6082
  104MOL0     C14223   3.893   1.833   7.346 -0.4252 -0.7603  0.0290
  104MOL0     C14224   3.967   1.976   7.337  0.2768 -0.6924 -0.1222
  104MOL0     C14225   4.098   1.974   7.411 -0.5523 -0.1775  0.3574
  104MOL0     C14226   4.176   2.099   7.371  0.3051 -0.4192 -0.2068
  104MOL0     C14227   4.245   2.083   7.240 -0.7782  0.3632 -0.6010
  104MOL0     C14228   4.314   2.211   7.199  0.4202 -0.5673 -0.0034
  104MOL0     C14229   4.452   2.219   7.255  0.0599  0.5045 -0.4057
  104MOL0     C14230   4.548   2.124   7.177  0.5693 -0.6402 -0.2940
  104MOL0     N14231   4.683   2.150   7.213 -0.4030  0.3070  0.2539
  104MOL0     C14232   4.765   2.240   7.153  0.1985 -0.3270  0.3946
  104MOL0     C14233   4.863   2.271   7.245  0.6634 -0.9199 -0.2053
  104MOL0     C14234   4.974   2.367   7.230  0.1778 -0.2104 -0.2407
  104MOL0     C14235   5.061   2.305   7.119 -0.5114 -1.5796  0.4900
  104MOL0     C14236   5.189   2.384   7.079  0.0851 -0.8907 -0.2149
  104MOL0     C14237   5.170   2.501   6.979 -0.2054 -0.3755 -0.1278
  104MOL0     O14238   5.144   2.448   6.851 -0.7249  0.1539 -0.3145
  104MOL0     C14239   5.153   2.538   6.746 -0.4076  0.3841 -0.3075
  104MOL0     C14240   5.085   2.501   6.635  0.0648 -0.8261 -0.7405
  104MOL0     C14241   5.093   2.564   6.509 -0.6465 -0.2768  1.0932
  104MOL0     C14242   5.017   2.509   6.394 -0.0681  0.2294 -0.1828
  104MOL0     C14243   5.173   2.677   6.496 -0.6891  0.2276  0.5920
  104MOL0     C14244   5.188   2.763   6.372 -0.0047  0.4669  0.3126
  104MOL0     O14245   5.230   2.889   6.404  0.0730 -0.5025 -0.7633
  104MOL0     C14246   5.247   2.985   6.311 -0.3661  0.0908  0.3993
  104MOL0     C14247   5.164   3.091   6.279  0.6145  0.2058 -1.0170
  104MOL0     C14248   5.188   3.183   6.185 -0.8352 -0.2530  0.1851
  104MOL0     C14249   5.314   3.171   6.109 -0.1840  0.1820 -0.3556
  104MOL0     O14250   5.345   3.262   6.011  0.3039 -0.1839  0.5918
  104MOL0     C14251   5.292   3.388   5.989  0.6104 -0.1350 -0.4257
  104MOL0     C14252   5.381   3.474   5.901 -0.0370  0.1290  0.1601
  104MOL0     C14253   5.324   3.612   5.892  0.5369 -0.7457  0.0680
  104MOL0     C14254   5.430   3.704   5.823  0.4069  0.0183 -0.0692
  104MOL0     C14255   5.428   3.694   5.666  0.0466 -0.3792 -0.3517
  104MOL0     C14256   5.515   3.800   5.585  0.5070  0.0326 -0.1806
  104MOL0     C14257   5.591   3.738   5.460  0.5021  0.3388 -0.2754
  104MOL0     C14258   5.488   3.670   5.372  0.1501  0.0029 -0.8179
  104MOL0    Cl14259   5.345   3.771   5.325  0.2719 -0.2413 -0.1008
  104MOL0     C14260   5.402   3.070   6.155  0.3673 -1.4611 -0.0770
  104MOL0     C14261   5.370   2.981   6.251  0.8878 -0.3469 -0.1014
  104MOL0     O14262   5.173   2.722   6.258  0.2647  0.1932  0.2498
  104MOL0     C14263   5.251   2.717   6.606  0.4274 -0.5654 -0.2783
  104MOL0     C14264   5.243   2.646   6.729 -0.5925  0.6363 -0.3270
  104MOL0     N14265   4.848   2.188   7.358 -0.2340  0.3506  0.7974
  104MOL0     N14266   4.727   2.132   7.342 -0.4643  0.1537  0.5517
  104MOL0     C14267   3.645   1.707   7.111 -0.6341  0.6459 -0.5714
  104MOL0     C14268   3.566   1.594   7.089 -0.4061  0.0104  0.8730
  104MOL0     C14269   3.358   1.240   6.984  0.5363  0.1570 -0.5577
  104MOL0     C14270   3.268   1.221   7.095  0.2558  0.5234 -0.1698
  104MOL0     C14271   3.150   1.158   7.080  0.0559 -0.6220  0.4973
  104MOL0     C14272   3.106   1.109   6.955 -0.1967 -0.1073  0.2722
  104MOL0     O14273   2.980   1.069   6.925  0.3519 -1.0658  0.4053
  104MOL0     C14274   2.961   0.928   6.956 -0.6026 -0.1539  0.4548
  104MOL0     C14275   2.915   0.910   7.097  0.2879 -0.0030 -0.1065
  104MOL0     C14276   2.767   0.946   7.124  0.1529  0.0020  0.4144
  104MOL0     C14277   2.728   1.097   7.113  0.1112 -0.6145 -0.0127
  104MOL0     C14278   2.584   1.091   7.132 -0.2136 -0.6343  0.5889
  104MOL0     C14279   2.461   1.097   7.142  0.8010 -0.1173 -0.0226
  104MOL0     C14280   3.197   1.123   6.852  0.1597 -0.1606  0.0940
  104MOL0     C14281   3.320   1.190   6.864 -0.1130 -0.3465  0.2267
  104MOL0     C14282   3.399   1.206   6.737 -0.7416  1.1345 -0.4546
  104MOL0     H14283   3.655   1.413   7.369  0.8794  3.5853  2.6529
  104MOL0     H14284   3.773   1.611   7.413  1.4340  1.4899 -1.8832
  104MOL0     H14285   3.954   1.745   7.326 -1.3840 -2.0480  2.3343
  104MOL0     H14286   3.844   1.823   7.443 -1.7452  1.8654 -0.2949
  104MOL0     H14287   3.984   2.007   7.234 -0.8612 -1.0875 -0.4424
  104MOL0     H14288   3.892   2.039   7.386  2.0275  0.7116  0.8985
  104MOL0     H14289   4.085   1.974   7.520 -0.4778 -0.9529  0.3729
  104MOL0     H14290   4.168   1.897   7.377 -2.3120 -1.7838  0.1855
  104MOL0     H14291   4.105   2.179   7.348  3.0650  2.8291  1.6512
  104MOL0     H14292   4.230   2.135   7.460 -1.3943 -1.5043  1.3532
  104MOL0     H14293   4.173   2.064   7.159 -1.3110  3.5230 -1.0133
  104MOL0     H14294   4.311   1.998   7.258 -1.2701 -0.4050 -2.2089
  104MOL0     H14295   4.299   2.227   7.092  1.6995 -0.3311 -0.1629
  104MOL0     H14296   4.266   2.301   7.238 -1.1444  0.1032 -3.1686
  104MOL0     H14297   4.450   2.198   7.362 -0.6222 -1.8804 -0.8369
  104MOL0     H14298   4.498   2.318   7.243  0.5575  0.2802 -0.3561
  104MOL0     H14299   4.528   2.020   7.203 -1.8015 -0.5515 -1.5606
  104MOL0     H14300   4.529   2.139   7.070 -0.8698  2.5512  0.2919
  104MOL0     H14301   4.761   2.287   7.056 -0.9041 -0.4538  0.3681
  104MOL0     H14302   5.020   2.382   7.328  0.8351  0.1207 -0.5966
  104MOL0     H14303   4.940   2.466   7.200  3.0563  0.5021 -1.4996
  104MOL0     H14304   5.104   2.208   7.148 -1.9123 -1.8201  1.8825
  104MOL0     H14305   5.004   2.293   7.026  0.7393 -1.0333 -0.3815
  104MOL0     H14306   5.236   2.426   7.168  2.6383  1.8815 -2.6313
  104MOL0     H14307   5.270   2.329   7.029  0.0608 -0.5250 -0.6610
  104MOL0     H14308   5.086   2.564   7.008 -0.4377  0.0860 -1.7043
  104MOL0     H14309   5.269   2.547   6.989  0.2710 -1.1008 -1.2420
  104MOL0     H14310   5.020   2.414   6.643 -1.1152  0.0834 -0.1562
  104MOL0     H14311   5.098   2.466   6.334 -1.1703 -2.1870 -0.0696
  104MOL0     H14312   4.968   2.580   6.326  2.2089  1.9493 -0.1244
  104MOL0     H14313   4.946   2.431   6.424  0.5586 -0.1376  0.3564
  104MOL0     H14314   5.069   3.099   6.331  0.6920 -0.0585 -0.8317
  104MOL0     H14315   5.122   3.269   6.179  0.0802  0.5245  1.0684
  104MOL0     H14316   5.197   3.373   5.936  1.7569  0.1943 -2.7126
  104MOL0     H14317   5.268   3.431   6.087  3.0490 -0.8550  0.5574
  104MOL0     H14318   5.481   3.467   5.944  0.8609  0.8033 -1.7070
  104MOL0     H14319   5.399   3.436   5.801  0.4220 -2.3739  1.1346
  104MOL0     H14320   5.307   3.651   5.993  1.4038  0.0638 -0.0782
  104MOL0     H14321   5.229   3.623   5.839 -0.0546  2.1421  1.5083
  104MOL0     H14322   5.530   3.683   5.864  0.3870  0.0892  0.0159
  104MOL0     H14323   5.409   3.808   5.849 -0.2540 -0.4264  1.2872
  104MOL0     H14324   5.461   3.590   5.652 -0.7201 -1.7895  5.4818
  104MOL0     H14325   5.322   3.704   5.644  0.4890  0.0881 -2.4889
  104MOL0     H14326   5.596   3.823   5.655  1.1098 -3.1872  0.3034
  104MOL0     H14327   5.449   3.883   5.558 -0.7901  0.1915  3.0096
  104MOL0     H14328   5.669   3.669   5.494  0.8733  0.9893  0.2335
  104MOL0     H14329   5.642   3.818   5.406  2.2143  0.1116  0.9082
  104MOL0     H14330   5.446   3.577   5.411  2.1160 -1.8134 -2.7157
  104MOL0     H14331   5.540   3.643   5.280 -1.9051 -1.0778 -1.7507
  104MOL0     H14332   5.500   3.070   6.109  0.3592 -0.4618 -0.1104
  104MOL0     H14333   5.440   2.904   6.280  0.2595 -0.4869  1.1248
  104MOL0     H14334   5.299   2.814   6.610  2.1368 -1.4099  0.4605
  104MOL0     H14335   5.305   2.681   6.810 -0.9545 -0.0133  0.2438
  104MOL0     H14336   3.637   1.799   7.054  0.1947  1.9840  1.3880
  104MOL0     H14337   3.490   1.594   7.012  0.6066 -0.6991 -0.1657
  104MOL0     H14338   3.289   1.250   7.197 -0.7423  0.9272 -0.0648
  104MOL0     H14339   3.077   1.149   7.160 -0.4756  1.3399  0.2843
  104MOL0     H14340   2.880   0.905   6.887 -0.0237  2.7725 -1.3881
  104MOL0     H14341   3.058   0.882   6.936  0.2402  2.2280 -1.4251
  104MOL0     H14342   2.975   0.964   7.172  0.3970 -0.4030  0.0983
  104MOL0     H14343   2.936   0.804   7.113  1.4190  0.2922  0.4569
  104MOL0     H14344   2.707   0.881   7.060  2.1817  0.7283 -2.4292
  104MOL0     H14345   2.757   0.910   7.227  1.0992 -1.0453  0.1623
  104MOL0     H14346   2.739   1.134   7.011 -1.7016 -2.1548 -0.8345
  104MOL0     H14347   2.766   1.169   7.186  0.8937 -1.2884  0.2586
  104MOL0     H14348   2.356   1.116   7.154  0.2009 -1.9086 -1.8311
  104MOL0     H14349   3.166   1.084   6.756 -1.8487  0.9835  0.2076
  104MOL0     H14350   3.502   1.171   6.741  0.4134  4.3148  0.8010
  104MOL0     H14351   3.364   1.140   6.656  0.5869 -1.1820  0.7634
  104MOL0     H14352   3.393   1.314   6.719 -1.6443  1.3778  1.1636
  105MOL0     O14353   9.994   6.642   1.422 -0.0573 -0.2423 -0.1323
  105MOL0     C14354   9.992   6.541   1.357 -0.7338  0.2333  0.6238
  105MOL0     O14355  10.102   6.465   1.326 -0.5264 -0.2367  0.4127
  105MOL0     C14356  10.220   6.497   1.382 -0.6728  0.2892  0.8409
  105MOL0     C14357  10.332   6.539   1.298 -0.0613 -0.3832  0.1419
  105MOL0     C14358  10.457   6.546   1.360  0.1190 -0.3677 -0.0530
  105MOL0     C14359  10.483   6.529   1.497 -0.3844 -0.7924 -0.2436
  105MOL0     O14360  10.594   6.534   1.556 -0.1855  0.6838  0.8667
  105MOL0     C14361  10.695   6.633   1.525 -0.0556 -0.0284 -0.6034
  105MOL0     C14362  10.761   6.681   1.658  0.3453  0.2037  0.7965
  105MOL0     C14363  10.844   6.802   1.643 -0.3123 -0.0709  0.4165
  105MOL0     C14364  10.904   6.842   1.781  0.3160 -0.2838  0.3541
  105MOL0     C14365  10.980   6.977   1.768  0.3541  0.0863  0.0125
  105MOL0     C14366  11.026   7.040   1.903  0.1918  0.0736  0.5855
  105MOL0     C14367  11.114   6.942   1.977  0.6511 -0.4685 -1.0557
  105MOL0     C14368  11.161   7.007   2.117 -0.0014 -0.4401  0.9063
  105MOL0     N14369  11.237   7.135   2.089 -0.4681  0.0432 -0.0495
  105MOL0     C14370  11.349   7.160   2.021  0.1319  0.5765  0.4463
  105MOL0     C14371  11.366   7.290   2.014  0.0080 -1.4002 -0.1533
  105MOL0     C14372  11.481   7.350   1.939 -0.7367  0.2683 -0.7702
  105MOL0     C14373  11.601   7.368   2.027  0.1333 -0.2809  0.1773
  105MOL0     C14374  11.657   7.250   2.112  0.1093 -0.5549 -0.4015
  105MOL0     C14375  11.719   7.140   2.031  0.1398 -0.7143  0.2329
  105MOL0     O14376  11.827   7.080   2.108 -0.2257  0.6760  0.2918
  105MOL0     C14377  11.795   6.983   2.203  0.0252  0.0215 -0.8655
  105MOL0     C14378  11.664   6.948   2.242 -0.7707  0.8917 -0.4588
  105MOL0     C14379  11.638   6.857   2.342  0.4091 -0.3714 -0.7845
  105MOL0     C14380  11.491   6.824   2.372 -0.3698  0.0559  0.0252
  105MOL0     C14381  11.743   6.800   2.416 -0.5930 -0.3033 -0.5843
  105MOL0     C14382  11.720   6.703   2.533 -0.6138  0.2920 -0.0613
  105MOL0     O14383  11.802   6.606   2.550 -0.3668  0.3835  0.1591
  105MOL0     C14384  11.783   6.509   2.644 -0.0930 -0.4193 -0.3548
  105MOL0     C14385  11.758   6.550   2.779 -0.8130  0.8270  0.6733
  105MOL0     C14386  11.747   6.440   2.875  0.0695  0.6111  0.1217
  105MOL0     C14387  11.740   6.308   2.840  0.0009 -0.3563  0.2807
  105MOL0     O14388  11.698   6.206   2.923 -0.4202 -0.1423 -0.4175
  105MOL0     C14389  11.710   6.211   3.062 -0.3066  0.7374 -0.3720
  105MOL0     C14390  11.683   6.069   3.132 -1.0752 -0.3654  0.5100
  105MOL0     C14391  11.691   6.083   3.282 -0.4910  0.1080 -0.6029
  105MOL0     C14392  11.742   5.954   3.349  0.1032 -0.9056  0.2480
  105MOL0     C14393  11.717   5.958   3.501 -1.1724 -0.2163  0.5053
  105MOL0     C14394  11.722   5.819   3.554 -0.0015  0.7497 -0.6367
  105MOL0     C14395  11.718   5.826   3.707 -0.0509  0.3193  0.2895
  105MOL0     C14396  11.712   5.686   3.771 -0.3410  0.0677  0.9453
  105MOL0    Cl14397  11.722   5.690   3.955  0.1356  0.1814  0.2997
  105MOL0     C14398  11.762   6.276   2.706 -0.5076  0.4443 -0.8472
  105MOL0     C14399  11.788   6.375   2.610  0.1345  0.4358 -0.4963
  105MOL0     O14400  11.614   6.707   2.592  0.7794  0.7290 -0.1658
  105MOL0     C14401  11.874   6.839   2.380  0.2731 -1.4583 -0.5711
  105MOL0     C14402  11.899   6.925   2.269  0.0490 -0.3667 -0.3851
  105MOL0     N14403  11.264   7.354   2.076  0.0219 -0.4273 -0.0532
  105MOL0     N14404  11.182   7.254   2.120 -0.8090 -0.0107  0.0129
  105MOL0     C14405  10.374   6.489   1.569 -0.4853  0.1806  0.2973
  105MOL0     C14406  10.244   6.473   1.519  0.0536 -0.1050 -0.2045
  105MOL0     C14407   9.859   6.491   1.317 -0.7615  0.0983  1.0044
  105MOL0     C14408   9.868   6.352   1.290 -0.3670  0.0538 -0.0624
  105MOL0     C14409   9.751   6.282   1.262  0.5312  0.8288  0.0339
  105MOL0     C14410   9.626   6.344   1.250  0.4926 -0.1375 -0.3163
  105MOL0     O14411   9.519   6.266   1.215 -0.4007  0.2500 -0.1572
  105MOL0     C14412   9.487   6.178   1.323 -0.4724 -0.2824  0.2186
  105MOL0     C14413   9.343   6.188   1.361 -1.0646  0.0982 -0.6246
  105MOL0     C14414   9.310   6.119   1.497 -0.4203 -0.0679  0.1521
  105MOL0     C14415   9.274   5.973   1.466  0.7805  0.1123  0.1265
  105MOL0     C14416   9.274   5.884   1.586 -0.4337  1.1984 -0.4629
  105MOL0     C14417   9.289   5.821   1.689 -0.1812 -1.1833  0.0919
  105MOL0     C14418   9.618   6.484   1.275 -0.4774  0.2925  0.2286
  105MOL0     C14419   9.732   6.555   1.314 -0.2195  0.1891  0.5148
  105MOL0     C14420   9.710   6.690   1.367 -0.3460 -0.3038 -0.4307
  105MOL0     H14421  10.313   6.555   1.193 -1.2766 -1.5339  0.1586
  105MOL0     H14422  10.538   6.586   1.300  0.2614  2.0042  1.5731
  105MOL0     H14423  10.640   6.711   1.473 -0.5890  0.4028  0.5654
  105MOL0     H14424  10.768   6.593   1.454 -1.7956 -0.7326 -2.0872
  105MOL0     H14425  10.680   6.702   1.728 -1.3531  0.5902 -1.1580
  105MOL0     H14426  10.828   6.601   1.691  0.9845 -0.9218 -2.7369
  105MOL0     H14427  10.922   6.795   1.567 -1.7510  1.1898 -1.2560
  105MOL0     H14428  10.778   6.882   1.608 -3.7668 -1.5328  3.0703
  105MOL0     H14429  10.826   6.848   1.858  0.6066 -2.4589  0.8705
  105MOL0     H14430  10.964   6.760   1.821 -0.8873 -1.2496  0.2374
  105MOL0     H14431  10.918   7.051   1.717  0.1099  1.0730  1.6589
  105MOL0     H14432  11.069   6.963   1.706  0.3326  1.9364 -0.5049
  105MOL0     H14433  11.072   7.137   1.883  1.8083 -1.0336 -1.5475
  105MOL0     H14434  10.933   7.064   1.954 -0.0431  2.1759 -0.7353
  105MOL0     H14435  11.200   6.912   1.916 -0.4206 -1.1148 -2.3042
  105MOL0     H14436  11.044   6.860   1.998 -2.5160  2.2105 -0.2388
  105MOL0     H14437  11.085   7.018   2.194 -2.4474  0.5798 -1.5053
  105MOL0     H14438  11.238   6.945   2.165 -0.8249 -1.1828  1.2912
  105MOL0     H14439  11.411   7.087   1.969  0.3209  1.7749 -1.0911
  105MOL0     H14440  11.463   7.444   1.887  1.7552 -0.8802 -4.1144
  105MOL0     H14441  11.500   7.271   1.865 -0.5340 -2.8778  2.3518
  105MOL0     H14442  11.681   7.399   1.960 -1.9382  3.8638 -0.7311
  105MOL0     H14443  11.588   7.451   2.098 -0.5544 -2.4115  2.7237
  105MOL0     H14444  11.738   7.294   2.171 -0.3560 -1.1938  0.7488
  105MOL0     H14445  11.582   7.207   2.179 -2.1569 -3.7525 -4.5271
  105MOL0     H14446  11.636   7.080   1.991 -0.4554  0.7112 -0.7837
  105MOL0     H14447  11.768   7.182   1.943 -0.3054 -1.5302 -0.4171
  105MOL0     H14448  11.583   6.986   2.180  1.2710 -2.2167 -5.7605
  105MOL0     H14449  11.424   6.857   2.292 -1.7778  3.7973  2.5136
  105MOL0     H14450  11.462   6.879   2.462 -4.5807 -2.5377  0.5501
  105MOL0     H14451  11.483   6.714   2.373 -0.0212  0.0054  2.1388
  105MOL0     H14452  11.763   6.654   2.810  5.2078  0.7580  1.2381
  105MOL0     H14453  11.720   6.468   2.976 -1.6288 -1.7612  0.3908
  105MOL0     H14454  11.804   6.262   3.089  1.8207 -1.9084 -2.2295
  105MOL0     H14455  11.631   6.267   3.112  0.5894  3.1468 -1.4949
  105MOL0     H14456  11.587   6.027   3.101 -0.9139 -0.0590 -0.4356
  105MOL0     H14457  11.765   6.012   3.086  0.9426  1.0690  2.1339
  105MOL0     H14458  11.586   6.104   3.303 -1.1566  0.4166 -3.7504
  105MOL0     H14459  11.758   6.168   3.299 -0.2479  0.1874 -1.8374
  105MOL0     H14460  11.848   5.936   3.331  0.3660  0.5809  0.2309
  105MOL0     H14461  11.680   5.875   3.305  0.7930 -0.0685 -2.3738
  105MOL0     H14462  11.792   6.021   3.550  0.8062 -0.8218 -1.5902
  105MOL0     H14463  11.620   6.003   3.526 -1.8915 -0.6729 -1.2906
  105MOL0     H14464  11.810   5.761   3.523 -0.4307  0.1602 -0.7651
  105MOL0     H14465  11.630   5.771   3.521 -0.4447  0.0474  1.4726
  105MOL0     H14466  11.622   5.866   3.741 -1.1098 -3.4765  2.3525
  105MOL0     H14467  11.801   5.880   3.753 -0.5178  1.6559 -0.4119
  105MOL0     H14468  11.791   5.618   3.738  0.0565  0.5028  0.9921
  105MOL0     H14469  11.614   5.640   3.753 -1.0427  1.8711  0.0111
  105MOL0     H14470  11.774   6.171   2.681 -0.1723 -1.1337  4.6429
  105MOL0     H14471  11.814   6.341   2.510  0.5105 -4.3417  0.9679
  105MOL0     H14472  11.958   6.809   2.441  0.0886  1.8153  1.4997
  105MOL0     H14473  11.998   6.958   2.238  0.5135 -1.0184  0.3630
  105MOL0     H14474  10.384   6.474   1.676 -1.6531  2.2342  0.7429
  105MOL0     H14475  10.160   6.450   1.583  1.5495 -1.6954  1.2753
  105MOL0     H14476   9.960   6.295   1.299  1.2377  2.6910  1.5299
  105MOL0     H14477   9.752   6.174   1.270  1.4705  0.6968 -1.5176
  105MOL0     H14478   9.504   6.075   1.293  0.1353 -0.1113 -0.0418
  105MOL0     H14479   9.543   6.193   1.416 -1.7446  1.6855  0.7420
  105MOL0     H14480   9.291   6.137   1.280 -1.2292  0.7302 -0.9216
  105MOL0     H14481   9.318   6.294   1.375  0.3629  0.2254  1.4260
  105MOL0     H14482   9.383   6.137   1.576 -0.5829 -3.2641  1.1724
  105MOL0     H14483   9.215   6.162   1.530 -1.0302 -0.8969 -0.4721
  105MOL0     H14484   9.344   5.938   1.390 -1.2586  0.8700 -2.2566
  105MOL0     H14485   9.171   5.969   1.431  0.2133 -1.7056  1.8196
  105MOL0     H14486   9.315   5.757   1.772  0.6370 -0.4482  0.4232
  105MOL0     H14487   9.521   6.532   1.267  0.7810  3.0413  0.0653
  105MOL0     H14488   9.765   6.762   1.306 -1.5253 -1.0976 -2.5435
  105MOL0     H14489   9.604   6.716   1.367 -0.3190 -0.1122 -2.3010
  105MOL0     H14490   9.744   6.681   1.471  1.6390  1.7892 -0.8074
  106MOL0     O14491   8.297   7.652  10.389 -0.4004  0.5195  0.0176
  106MOL0     C14492   8.205   7.715  10.435 -0.4809  0.0624 -0.1426
  106MOL0     O14493   8.216   7.795  10.546  0.2930  0.2386 -0.0896
  106MOL0     C14494   8.340   7.834  10.595  0.2808 -0.2166  0.7510
  106MOL0     C14495   8.466   7.822  10.534 -0.0815  0.2046  0.7033
  106MOL0     C14496   8.582   7.880  10.589 -0.5707  0.6421 -1.0705
  106MOL0     C14497   8.574   7.933  10.720  0.1210 -0.3838  0.3338
  106MOL0     O14498   8.700   7.954  10.769 -0.2765 -0.4003  0.6440
  106MOL0     C14499   8.706   8.044  10.878  0.1312 -1.1651 -0.7646
  106MOL0     C14500   8.848   8.095  10.912  0.0820  0.2361 -0.4896
  106MOL0     C14501   8.938   7.971  10.929  0.2924 -0.3462  0.3605
  106MOL0     C14502   9.092   8.000  10.956 -0.4850  0.0867  0.0044
  106MOL0     C14503   9.107   8.090  11.081  0.0947  0.8339 -0.2581
  106MOL0     C14504   9.228   8.192  11.083 -0.7380  0.5864  0.6400
  106MOL0     C14505   9.365   8.129  11.079 -0.0451  0.4252 -0.3796
  106MOL0     C14506   9.469   8.225  11.134  0.3613  0.5809  0.3656
  106MOL0     N14507   9.597   8.170  11.105  0.3717 -0.3788 -0.1147
  106MOL0     C14508   9.689   8.204  11.009  0.2222  0.3054 -0.1541
  106MOL0     C14509   9.796   8.124  11.028  0.6993 -0.5796  0.8413
  106MOL0     C14510   9.918   8.112  10.939  0.1133  0.3665  0.1092
  106MOL0     C14511  10.027   8.216  10.974  1.0334  0.4192  0.5937
  106MOL0     C14512  10.124   8.221  10.855  0.8770 -0.4462  0.4754
  106MOL0     C14513  10.260   8.286  10.901  1.3539 -0.9428 -1.1839
  106MOL0     O14514  10.370   8.253  10.814 -0.2389  0.2077  0.5868
  106MOL0     C14515  10.478   8.342  10.818  0.6069 -0.3055 -0.2525
  106MOL0     C14516  10.607   8.292  10.769  0.7182  0.5522  0.6046
  106MOL0     C14517  10.711   8.380  10.757  0.4263  0.2996  0.6293
  106MOL0     C14518  10.825   8.308  10.679  0.5909 -1.5480 -0.1599
  106MOL0     C14519  10.704   8.516  10.800 -0.0439 -0.3246  0.3461
  106MOL0     C14520  10.814   8.606  10.785 -0.0201 -0.2597  0.5323
  106MOL0     O14521  10.771   8.741  10.777 -0.1951 -0.8583  0.5861
  106MOL0     C14522  10.862   8.843  10.800 -0.0059 -0.1047  0.1561
  106MOL0     C14523  10.953   8.836  10.908  1.1841  0.0582 -0.4289
  106MOL0     C14524  11.040   8.939  10.946 -0.2395 -0.9683  0.1946
  106MOL0     C14525  11.050   9.049  10.864  0.7125 -0.0257 -0.8483
  106MOL0     O14526  11.138   9.149  10.904  0.3775  0.0292  0.3552
  106MOL0     C14527  11.233   9.166  10.802 -0.5022 -0.3393 -0.5159
  106MOL0     C14528  11.343   9.251  10.865 -0.4375 -1.5316  0.0618
  106MOL0     C14529  11.464   9.278  10.762  0.9157  1.3142  0.2459
  106MOL0     C14530  11.557   9.370  10.812 -0.7028  0.3664 -0.4581
  106MOL0     C14531  11.683   9.304  10.880  0.3509 -1.2411  0.1324
  106MOL0     C14532  11.790   9.419  10.901 -0.4376  0.4309  0.0510
  106MOL0     C14533  11.910   9.388  10.988 -0.2018  0.1786  0.1256
  106MOL0     C14534  12.010   9.503  10.986 -0.2332  0.2550  0.3833
  106MOL0    Cl14535  11.967   9.641  11.092  0.1894 -0.2301  0.8498
  106MOL0     C14536  10.950   9.073  10.765  0.1003 -0.4755 -0.4660
  106MOL0     C14537  10.860   8.971  10.731  0.0162 -1.2423  0.2339
  106MOL0     O14538  10.932   8.573  10.786 -0.6715  1.3723 -0.4092
  106MOL0     C14539  10.584   8.549  10.866 -0.4075 -0.3799  0.7230
  106MOL0     C14540  10.473   8.472  10.878 -0.5244 -0.0700 -0.8305
  106MOL0     N14541   9.772   8.032  11.132 -0.4286 -0.8029 -0.5007
  106MOL0     N14542   9.651   8.066  11.175 -0.7394 -0.5104 -0.3848
  106MOL0     C14543   8.444   7.950  10.782  0.0125  0.0521 -0.2989
  106MOL0     C14544   8.332   7.894  10.720 -0.9580 -0.1657 -0.3308
  106MOL0     C14545   8.064   7.676  10.400  0.9812  0.2191  0.8585
  106MOL0     C14546   7.946   7.715  10.474  0.0165  0.6699  0.2987
  106MOL0     C14547   7.817   7.694  10.423 -0.5557  1.1249 -0.3455
  106MOL0     C14548   7.795   7.620  10.308 -0.8228  0.9876  0.5060
  106MOL0     O14549   7.680   7.593  10.245  0.0062  0.1569 -0.7823
  106MOL0     C14550   7.572   7.684  10.267 -0.2889  0.0387  0.7100
  106MOL0     C14551   7.469   7.669  10.160 -0.1278  0.0861  0.2378
  106MOL0     C14552   7.534   7.725  10.029 -0.1018 -0.0230  1.3772
  106MOL0     C14553   7.432   7.753   9.923  1.0701  0.0085  0.4952
  106MOL0     C14554   7.468   7.716   9.790  0.0477 -0.1692 -0.2025
  106MOL0     C14555   7.507   7.723   9.677  0.2091 -0.1291  0.2184
  106MOL0     C14556   7.908   7.577  10.229  1.0740  0.5567 -0.2533
  106MOL0     C14557   8.034   7.611  10.270  0.3649  0.3161 -1.1228
  106MOL0     C14558   8.139   7.567  10.171  0.4007 -0.3001  0.4716
  106MOL0     H14559   8.479   7.782  10.433  0.2480 -1.3391  1.3267
  106MOL0     H14560   8.679   7.888  10.540  2.2068 -1.5337  3.3711
  106MOL0     H14561   8.661   7.996  10.965 -0.3031 -1.3614 -1.0962
  106MOL0     H14562   8.658   8.141  10.859  3.7186  1.2011  1.1284
  106MOL0     H14563   8.889   8.137  10.819 -0.6283  0.5783 -0.6548
  106MOL0     H14564   8.856   8.170  10.991  1.1554 -0.2790 -0.0956
  106MOL0     H14565   8.906   7.904  11.009 -4.0357 -1.1102 -1.6904
  106MOL0     H14566   8.925   7.914  10.836 -1.7954  0.5719  0.0288
  106MOL0     H14567   9.159   7.914  10.964  0.0996  0.5907  0.5798
  106MOL0     H14568   9.125   8.054  10.866  2.0178 -1.7367 -0.2571
  106MOL0     H14569   9.121   8.028  11.171  0.4383 -1.8134 -2.0330
  106MOL0     H14570   9.018   8.148  11.104 -0.0065 -0.0700  1.9099
  106MOL0     H14571   9.217   8.262  10.999  2.2469 -0.2798 -0.6014
  106MOL0     H14572   9.231   8.240  11.181  2.8877  0.2534  0.8164
  106MOL0     H14573   9.384   8.108  10.973 -1.8978 -0.0338 -0.6505
  106MOL0     H14574   9.364   8.039  11.141 -3.7428  1.3591  1.1521
  106MOL0     H14575   9.455   8.326  11.094 -1.3924 -0.1223 -0.9392
  106MOL0     H14576   9.455   8.224  11.243 -2.2934 -0.5640  0.0967
  106MOL0     H14577   9.681   8.284  10.936  1.9479  0.1203 -0.5828
  106MOL0     H14578   9.887   8.115  10.834 -1.7929  2.2209  0.6560
  106MOL0     H14579   9.961   8.014  10.958 -0.0830  0.3990  0.7444
  106MOL0     H14580   9.979   8.313  10.986 -1.2013 -0.6084  0.6169
  106MOL0     H14581  10.089   8.184  11.058  3.9143 -2.1869 -2.2167
  106MOL0     H14582  10.135   8.125  10.803 -0.2993 -0.8544  0.9704
  106MOL0     H14583  10.075   8.278  10.775 -1.6264 -2.9132  0.1307
  106MOL0     H14584  10.243   8.394  10.903  0.0411 -1.1286 -1.4819
  106MOL0     H14585  10.286   8.249  11.001  0.2693 -0.1134 -0.5645
  106MOL0     H14586  10.601   8.186  10.748  1.4313  0.6510 -0.1385
  106MOL0     H14587  10.792   8.260  10.587  0.4667  2.4534 -2.4082
  106MOL0     H14588  10.871   8.235  10.747  2.0578 -1.3954 -0.9486
  106MOL0     H14589  10.894   8.387  10.649  0.8908 -0.0985  3.7283
  106MOL0     H14590  10.940   8.743  10.962 -0.1773 -0.1350 -1.0395
  106MOL0     H14591  11.102   8.920  11.033 -0.7654 -3.1322  0.1530
  106MOL0     H14592  11.274   9.066  10.786 -0.4550 -0.4960  0.4815
  106MOL0     H14593  11.194   9.222  10.717 -0.0341  1.6022  0.4864
  106MOL0     H14594  11.300   9.351  10.875  0.9578 -0.8849 -0.1768
  106MOL0     H14595  11.376   9.206  10.959  2.2857 -1.5245 -0.7934
  106MOL0     H14596  11.422   9.317  10.669 -1.6228 -1.6861 -0.0458
  106MOL0     H14597  11.509   9.182  10.736  0.4315  0.9908  0.5931
  106MOL0     H14598  11.507   9.442  10.879  1.6727  0.7145  1.0937
  106MOL0     H14599  11.604   9.431  10.735 -1.6635 -0.6075 -1.8473
  106MOL0     H14600  11.640   9.266  10.973 -0.5056 -2.9575 -0.9065
  106MOL0     H14601  11.728   9.229  10.814  1.1244  1.3058 -2.4516
  106MOL0     H14602  11.740   9.506  10.945  1.1979  0.4745  1.9695
  106MOL0     H14603  11.811   9.450  10.798  0.3149  0.0429  0.0738
  106MOL0     H14604  11.954   9.293  10.956 -0.8358  0.1929 -0.8583
  106MOL0     H14605  11.884   9.366  11.092  0.1822  0.5640  0.3046
  106MOL0     H14606  12.031   9.533  10.883  1.9096 -2.4634 -0.1023
  106MOL0     H14607  12.105   9.472  11.031 -0.4772 -1.0634  0.0329
  106MOL0     H14608  10.951   9.170  10.715 -1.9581 -1.0804 -1.8074
  106MOL0     H14609  10.789   8.978  10.649  1.1461 -3.3082 -0.9976
  106MOL0     H14610  10.587   8.650  10.907 -0.6779 -0.1745  0.2402
  106MOL0     H14611  10.390   8.534  10.909  1.5307  1.8023  1.2574
  106MOL0     H14612   8.445   7.985  10.885 -1.6349  0.3359 -0.3586
  106MOL0     H14613   8.239   7.900  10.776  1.6085  1.2186  4.3114
  106MOL0     H14614   7.967   7.769  10.566  0.3274 -1.6572  1.6722
  106MOL0     H14615   7.736   7.729  10.487 -0.4084  2.9945 -1.1271
  106MOL0     H14616   7.529   7.651  10.361  0.4347 -2.0731  0.3399
  106MOL0     H14617   7.597   7.790  10.280 -0.5012  0.2790 -0.6392
  106MOL0     H14618   7.378   7.717  10.198 -1.9143 -2.5484 -0.4747
  106MOL0     H14619   7.438   7.564  10.154 -0.3819  0.2473 -3.5253
  106MOL0     H14620   7.601   7.811  10.044 -1.7904  1.5848  0.1723
  106MOL0     H14621   7.608   7.651   9.997  1.5976  2.2525 -0.2883
  106MOL0     H14622   7.419   7.861   9.936  2.7348  0.1363  1.5132
  106MOL0     H14623   7.342   7.695   9.941  0.5066  0.0837 -1.8476
  106MOL0     H14624   7.540   7.725   9.575  1.4324  0.2855  0.6000
  106MOL0     H14625   7.885   7.514  10.144 -0.6372  1.7929 -0.7876
  106MOL0     H14626   8.182   7.469  10.196 -1.1671 -1.5350 -1.3747
  106MOL0     H14627   8.094   7.552  10.073  0.8984  0.1871  0.1664
  106MOL0     H14628   8.220   7.639  10.162  0.8524 -0.7356  0.9905
  107MOL0     O14629   4.933   2.735   6.968  0.2800 -1.2449  0.2471
  107MOL0     C14630   4.887   2.801   6.875 -0.3533 -0.0360 -0.1638
  107MOL0     O14631   4.766   2.776   6.812 -0.5353 -0.2491  0.3710
  107MOL0     C14632   4.697   2.653   6.836  0.0014 -0.1648  0.2030
  107MOL0     C14633   4.768   2.531   6.837  0.5967 -0.2181  0.3519
  107MOL0     C14634   4.692   2.411   6.847  0.2440  0.4272 -0.5077
  107MOL0     C14635   4.555   2.410   6.840 -0.6281  0.2627 -0.0778
  107MOL0     O14636   4.497   2.280   6.830 -0.2100 -0.7108  0.6927
  107MOL0     C14637   4.390   2.265   6.750  0.4055  0.4382  0.4891
  107MOL0     C14638   4.378   2.109   6.744 -0.2487  0.6969  0.5125
  107MOL0     C14639   4.296   2.048   6.855  0.1480 -0.4320  0.7189
  107MOL0     C14640   4.251   1.898   6.827 -0.6805 -0.0104 -0.0962
  107MOL0     C14641   4.363   1.794   6.808 -0.4457 -0.2639  1.5401
  107MOL0     C14642   4.298   1.646   6.801  0.7965 -0.3757  0.0160
  107MOL0     C14643   4.228   1.612   6.672  1.0094  0.5581 -0.0461
  107MOL0     C14644   4.144   1.481   6.674 -0.2477 -0.1765 -0.1713
  107MOL0     N14645   4.076   1.463   6.549  0.4305  0.1758  0.6819
  107MOL0     C14646   3.971   1.558   6.504 -0.2253 -0.4428 -0.2043
  107MOL0     C14647   3.946   1.514   6.377 -0.3282  0.7427 -0.2050
  107MOL0     C14648   3.862   1.592   6.282  0.3822 -0.1260  0.4863
  107MOL0     C14649   3.957   1.670   6.184  0.0600 -0.2005 -0.2803
  107MOL0     C14650   4.057   1.773   6.236  0.6119  0.2037  0.0437
  107MOL0     C14651   3.990   1.895   6.306 -1.1237 -0.4923 -0.4865
  107MOL0     O14652   4.100   1.958   6.377  0.3238 -0.9982 -0.0985
  107MOL0     C14653   4.111   2.096   6.373 -0.4192  0.1860 -0.8185
  107MOL0     C14654   4.009   2.189   6.333  0.2108 -0.4716 -0.1217
  107MOL0     C14655   4.031   2.328   6.321  0.7050 -1.0216 -0.1987
  107MOL0     C14656   3.909   2.399   6.259 -0.1430  0.0598  0.6031
  107MOL0     C14657   4.148   2.389   6.351  0.6119  0.6299 -0.6569
  107MOL0     C14658   4.181   2.530   6.360 -0.6982 -0.8684 -0.0987
  107MOL0     O14659   4.259   2.569   6.468  0.0222 -0.3891  0.2483
  107MOL0     C14660   4.302   2.698   6.491  0.2707 -0.2418 -0.4578
  107MOL0     C14661   4.438   2.715   6.518  0.1562  0.6333 -0.7198
  107MOL0     C14662   4.498   2.845   6.533 -0.2645  0.3514 -0.2441
  107MOL0     C14663   4.414   2.957   6.519 -0.3678 -0.2766 -0.5958
  107MOL0     O14664   4.461   3.086   6.533 -0.9370  0.1837 -0.8185
  107MOL0     C14665   4.606   3.106   6.541  0.5617 -0.2715 -0.2518
  107MOL0     C14666   4.646   3.254   6.558  0.4351  0.2427  0.0717
  107MOL0     C14667   4.643   3.303   6.706  0.4736  0.7504 -0.3108
  107MOL0     C14668   4.694   3.440   6.718  0.1878  0.3515 -0.8818
  107MOL0     C14669   4.683   3.514   6.851  0.1271 -0.0200  0.4292
  107MOL0     C14670   4.756   3.444   6.968  0.2504 -0.6298 -0.2436
  107MOL0     C14671   4.905   3.441   6.958 -1.2000  0.5439  0.0996
  107MOL0     C14672   4.968   3.369   7.069 -0.9635 -0.5203  0.1454
  107MOL0    Cl14673   4.910   3.439   7.219  0.1180 -0.7459  0.5213
  107MOL0     C14674   4.277   2.941   6.500  0.3432  0.0047  0.3481
  107MOL0     C14675   4.220   2.808   6.478 -0.4943 -0.9497 -0.0024
  107MOL0     O14676   4.134   2.610   6.278 -0.3498 -0.6188  0.5596
  107MOL0     C14677   4.250   2.298   6.394  1.2077  1.0407  0.9786
  107MOL0     C14678   4.227   2.161   6.406 -1.3109 -0.5929  0.4906
  107MOL0     N14679   4.019   1.397   6.360  0.0729  0.7464  0.1052
  107MOL0     N14680   4.093   1.361   6.458 -0.8850  0.2850  0.0598
  107MOL0     C14681   4.490   2.531   6.824  0.3864 -0.0661  0.2900
  107MOL0     C14682   4.553   2.651   6.838 -0.8034 -0.1284 -0.0569
  107MOL0     C14683   4.970   2.928   6.845 -0.0973  0.7875 -1.0337
  107MOL0     C14684   5.046   2.979   6.954 -0.8981 -0.8901 -0.3121
  107MOL0     C14685   5.148   3.083   6.928 -0.1543  0.1106  0.2398
  107MOL0     C14686   5.168   3.130   6.791 -0.1316 -0.5136 -0.1318
  107MOL0     O14687   5.257   3.236   6.787  0.5562  0.7628  0.1487
  107MOL0     C14688   5.257   3.307   6.666 -0.4920 -0.6875 -0.6517
  107MOL0     C14689   5.353   3.249   6.561  0.6799  0.4869  0.1036
  107MOL0     C14690   5.503   3.281   6.581 -0.4341  0.2239 -0.0583
  107MOL0     C14691   5.594   3.231   6.463  1.2495  0.0202  0.5079
  107MOL0     C14692   5.738   3.258   6.488 -0.3289  0.5920 -0.3257
  107MOL0     C14693   5.853   3.282   6.496 -0.4143  0.4087  0.8957
  107MOL0     C14694   5.092   3.080   6.691  0.3209  0.5009  0.3484
  107MOL0     C14695   5.003   2.976   6.714  0.5685 -0.4461  0.4436
  107MOL0     C14696   4.932   2.939   6.593 -0.0618  0.1117 -0.9479
  107MOL0     H14697   4.874   2.511   6.824  0.6541 -0.4147  1.0745
  107MOL0     H14698   4.747   2.318   6.853  1.2578  0.9014 -1.9689
  107MOL0     H14699   4.404   2.304   6.649  0.3398  2.7804  1.3080
  107MOL0     H14700   4.299   2.309   6.793  0.4442  0.7902  0.2128
  107MOL0     H14701   4.329   2.105   6.647  0.3282  0.2324  0.2331
  107MOL0     H14702   4.470   2.053   6.728 -0.4061  0.7821 -0.7912
  107MOL0     H14703   4.352   2.047   6.949  0.4053 -0.2872  0.5694
  107MOL0     H14704   4.209   2.114   6.869 -1.1193 -1.3274 -2.2132
  107MOL0     H14705   4.202   1.863   6.919  4.2924 -2.4922  2.0277
  107MOL0     H14706   4.178   1.900   6.746 -2.0916  1.1438  1.1294
  107MOL0     H14707   4.430   1.803   6.894  4.8143 -0.9073 -1.9956
  107MOL0     H14708   4.421   1.815   6.717 -0.8823 -1.0411  1.0756
  107MOL0     H14709   4.371   1.565   6.813  0.3848 -0.4066  3.5552
  107MOL0     H14710   4.224   1.629   6.880  0.0797  3.0241  0.2394
  107MOL0     H14711   4.297   1.596   6.589 -1.1638  0.0201 -1.8296
  107MOL0     H14712   4.170   1.699   6.638 -0.5063 -1.2336 -2.3258
  107MOL0     H14713   4.217   1.402   6.695 -0.0548  0.3157  1.0609
  107MOL0     H14714   4.074   1.479   6.758 -1.1743  3.0355 -0.7036
  107MOL0     H14715   3.944   1.653   6.548 -0.5570 -1.8199  2.8473
  107MOL0     H14716   3.812   1.677   6.329  1.1112  1.1199 -0.8677
  107MOL0     H14717   3.790   1.533   6.225  2.4113  0.1566 -2.6342
  107MOL0     H14718   4.011   1.596   6.125 -0.5246 -1.7160  1.0023
  107MOL0     H14719   3.891   1.717   6.111 -2.3289 -1.3940  0.9917
  107MOL0     H14720   4.124   1.716   6.302  2.1103 -0.1640 -1.7165
  107MOL0     H14721   4.108   1.812   6.147 -0.2598 -3.7634 -2.4429
  107MOL0     H14722   3.948   1.958   6.227 -0.4650  0.6648  0.0566
  107MOL0     H14723   3.910   1.864   6.375 -0.8077 -0.5180 -0.1254
  107MOL0     H14724   3.916   2.148   6.297  1.3187 -1.7328 -1.6863
  107MOL0     H14725   3.902   2.506   6.282  0.7549  0.3450 -0.3835
  107MOL0     H14726   3.816   2.352   6.291 -0.1594  1.9959  3.9088
  107MOL0     H14727   3.918   2.391   6.150 -4.1491  1.6204 -0.0260
  107MOL0     H14728   4.502   2.627   6.514 -0.9168 -0.1337 -1.5249
  107MOL0     H14729   4.604   2.836   6.554 -0.8454 -3.4888  2.1087
  107MOL0     H14730   4.650   3.047   6.621  0.8617 -0.7691 -0.7760
  107MOL0     H14731   4.646   3.078   6.443  1.4761 -3.0514  0.8082
  107MOL0     H14732   4.754   3.252   6.538  0.5563 -2.2154  0.5755
  107MOL0     H14733   4.607   3.318   6.479  0.6951  0.6905  0.3051
  107MOL0     H14734   4.709   3.232   6.758 -0.3912  0.4095  0.3514
  107MOL0     H14735   4.542   3.298   6.748  1.1255  1.0485  1.3860
  107MOL0     H14736   4.627   3.496   6.652  1.4418  0.1338 -2.3859
  107MOL0     H14737   4.796   3.436   6.680 -0.3170 -0.3097 -2.1905
  107MOL0     H14738   4.717   3.614   6.823 -0.5781 -0.0893 -0.7010
  107MOL0     H14739   4.576   3.523   6.872  0.4872  1.4687  1.8402
  107MOL0     H14740   4.725   3.340   6.978  3.1032 -1.3384  4.3096
  107MOL0     H14741   4.723   3.492   7.061 -2.3653 -0.6954 -1.0627
  107MOL0     H14742   4.943   3.544   6.961  0.1630  0.0789 -0.5035
  107MOL0     H14743   4.948   3.391   6.872  0.1490 -0.3779  1.2662
  107MOL0     H14744   5.077   3.374   7.066 -0.8257 -2.7609 -0.6953
  107MOL0     H14745   4.950   3.261   7.073  0.5211 -0.7601  2.2747
  107MOL0     H14746   4.212   3.028   6.498  1.2703  0.7523  1.5725
  107MOL0     H14747   4.114   2.794   6.465 -0.3855 -2.2426  0.3828
  107MOL0     H14748   4.347   2.333   6.427  1.8408 -1.2347  1.7025
  107MOL0     H14749   4.315   2.100   6.425 -1.5615 -0.9670  0.4617
  107MOL0     H14750   4.382   2.534   6.837  0.3953 -1.5527  0.8432
  107MOL0     H14751   4.492   2.740   6.829  0.6843  0.8014 -1.3763
  107MOL0     H14752   5.037   2.947   7.058 -3.9849 -0.5858 -0.4105
  107MOL0     H14753   5.202   3.137   7.006 -3.2038  0.6366  2.1244
  107MOL0     H14754   5.156   3.311   6.625 -0.3963 -2.0927 -1.0757
  107MOL0     H14755   5.282   3.412   6.682  1.8903 -1.3314  0.4065
  107MOL0     H14756   5.321   3.286   6.463 -3.6125 -1.4509  0.5245
  107MOL0     H14757   5.347   3.140   6.555  1.5781  0.4853 -1.1128
  107MOL0     H14758   5.511   3.389   6.595  0.0708  0.0147  1.5353
  107MOL0     H14759   5.527   3.221   6.670  0.6588 -1.8192 -1.6477
  107MOL0     H14760   5.573   3.287   6.371 -1.6798  0.9072  1.6051
  107MOL0     H14761   5.584   3.125   6.437  0.5343  0.4202 -0.9878
  107MOL0     H14762   5.955   3.314   6.500  0.2917 -1.2841 -1.1175
  107MOL0     H14763   5.107   3.112   6.589 -1.9318 -1.8951 -0.8363
  107MOL0     H14764   4.904   2.833   6.591 -0.3165  0.1796 -1.9507
  107MOL0     H14765   4.838   2.995   6.586 -0.2302 -0.3489 -3.3574
  107MOL0     H14766   4.989   2.959   6.502  1.9927 -0.9073  0.0589
  108MOL0     O14767  10.413   7.417   5.827  0.5210  0.1815  0.8528
  108MOL0     C14768  10.392   7.296   5.813  0.1219 -0.1155 -0.0796
  108MOL0     O14769  10.344   7.211   5.905 -0.0238 -0.1844 -0.0710
  108MOL0     C14770  10.294   7.267   6.020  0.5538 -0.0419  0.5302
  108MOL0     C14771  10.156   7.238   6.042  0.5337 -0.1331  0.1071
  108MOL0     C14772  10.092   7.289   6.151  0.7787  0.0810 -0.0107
  108MOL0     C14773  10.158   7.374   6.235 -0.6828  0.0430 -0.2117
  108MOL0     O14774  10.095   7.432   6.340 -1.0471 -0.5143 -0.2189
  108MOL0     C14775  10.048   7.563   6.306 -0.1715  0.2450 -0.0030
  108MOL0     C14776  10.046   7.644   6.441 -0.0573  0.2631 -0.1592
  108MOL0     C14777  10.179   7.632   6.506 -0.2360  0.2087  0.0668
  108MOL0     C14778  10.185   7.714   6.636  0.2184  0.6427  0.4703
  108MOL0     C14779  10.307   7.680   6.715  0.7861 -0.2674 -0.2849
  108MOL0     C14780  10.312   7.749   6.855  0.0505 -0.3324  0.6265
  108MOL0     C14781  10.446   7.703   6.922 -0.0439 -0.2583 -0.3618
  108MOL0     C14782  10.502   7.824   6.992 -0.3541 -0.7058  0.8716
  108MOL0     N14783  10.555   7.926   6.898 -0.2361 -0.3485  0.0665
  108MOL0     C14784  10.648   7.914   6.804  0.6128  0.0015  0.6730
  108MOL0     C14785  10.637   8.033   6.725 -0.3649  0.4295 -0.8004
  108MOL0     C14786  10.726   8.064   6.611 -0.3789 -0.0020 -0.3950
  108MOL0     C14787  10.835   8.151   6.661 -0.0570  0.2271 -0.0720
  108MOL0     C14788  10.929   8.184   6.549 -0.1723  0.0607 -0.1728
  108MOL0     C14789  11.047   8.269   6.601 -0.7664 -1.4629  0.4287
  108MOL0     O14790  11.141   8.288   6.489 -0.1950 -0.4116 -0.0309
  108MOL0     C14791  11.264   8.339   6.514 -0.2082  0.2429 -1.0287
  108MOL0     C14792  11.285   8.447   6.605 -0.2682 -0.4761 -0.2782
  108MOL0     C14793  11.414   8.498   6.614  0.4586  0.8722  0.0168
  108MOL0     C14794  11.431   8.618   6.703 -0.1159 -0.9915 -0.1719
  108MOL0     C14795  11.515   8.451   6.539 -0.6584  1.1003  0.0663
  108MOL0     C14796  11.660   8.507   6.528 -0.1642  0.1400  0.0191
  108MOL0     O14797  11.679   8.629   6.554 -0.7673  0.0599 -0.1496
  108MOL0     C14798  11.776   8.726   6.524  0.5502 -0.3840  0.1609
  108MOL0     C14799  11.888   8.700   6.440  0.1682 -0.3846 -0.4994
  108MOL0     C14800  11.987   8.802   6.405  0.9059  0.2518  1.2757
  108MOL0     C14801  11.964   8.936   6.455 -0.0575 -0.2022  0.7869
  108MOL0     O14802  12.036   9.049   6.414  0.7393  0.3740 -0.2593
  108MOL0     C14803  12.151   9.042   6.327 -0.1864  0.4950  0.2458
  108MOL0     C14804  12.189   9.183   6.301 -0.3767 -0.1316 -0.1979
  108MOL0     C14805  12.217   9.264   6.419  0.5123  0.0170 -0.5196
  108MOL0     C14806  12.327   9.206   6.508  1.1887 -0.0367 -0.4051
  108MOL0     C14807  12.325   9.282   6.644 -0.4205 -0.5180  0.3757
  108MOL0     C14808  12.410   9.415   6.627 -0.2319 -0.1253 -0.2166
  108MOL0     C14809  12.441   9.465   6.768 -0.6341  0.3537  0.0583
  108MOL0     C14810  12.480   9.614   6.761  0.1899  0.3841 -0.2350
  108MOL0    Cl14811  12.633   9.640   6.674  0.4756  0.0705 -0.2157
  108MOL0     C14812  11.856   8.961   6.537 -0.0625  0.1246 -0.1852
  108MOL0     C14813  11.763   8.863   6.572 -0.3713  0.1852  0.3814
  108MOL0     O14814  11.756   8.431   6.513  0.1455 -0.1705 -0.0923
  108MOL0     C14815  11.489   8.346   6.453  0.0290  0.1340 -0.4997
  108MOL0     C14816  11.365   8.292   6.435  0.3802  0.1023 -0.2040
  108MOL0     N14817  10.533   8.099   6.772  0.3217  0.0672 -0.5036
  108MOL0     N14818  10.483   8.042   6.882 -0.6735 -0.1171  1.0487
  108MOL0     C14819  10.298   7.402   6.210  0.5645 -0.5048  0.5529
  108MOL0     C14820  10.365   7.344   6.109  0.6341  1.2254  1.0378
  108MOL0     C14821  10.432   7.235   5.677 -1.0682  0.7953  0.3185
  108MOL0     C14822  10.522   7.313   5.595 -1.0334 -0.0115 -0.3940
  108MOL0     C14823  10.586   7.260   5.488  0.0438 -0.2313  1.3794
  108MOL0     C14824  10.553   7.130   5.436  0.5431 -0.3955  0.3988
  108MOL0     O14825  10.588   7.074   5.317 -0.2467 -0.9661  0.7270
  108MOL0     C14826  10.723   7.119   5.274  0.0271  0.2228  0.1204
  108MOL0     C14827  10.711   7.231   5.168  0.6534  0.3562  0.5174
  108MOL0     C14828  10.655   7.175   5.031 -0.0437 -0.6815  0.2298
  108MOL0     C14829  10.767   7.146   4.924 -0.7582 -0.0163 -0.1006
  108MOL0     C14830  10.863   7.248   4.900  0.5863 -0.3088 -0.6377
  108MOL0     C14831  10.956   7.328   4.899  0.2509 -0.2222 -0.3074
  108MOL0     C14832  10.456   7.057   5.506 -0.2341  0.7094  1.0791
  108MOL0     C14833  10.390   7.104   5.626 -0.5344 -0.7133 -0.2000
  108MOL0     C14834  10.272   7.012   5.682 -0.6443 -0.5283 -0.6753
  108MOL0     H14835  10.109   7.170   5.972 -0.3180  0.5835 -0.0321
  108MOL0     H14836   9.987   7.267   6.167  1.5208 -1.5312  3.7580
  108MOL0     H14837   9.944   7.557   6.273 -0.6757 -1.2762  1.6858
  108MOL0     H14838  10.119   7.612   6.239  0.4034  2.2623  1.9626
  108MOL0     H14839  10.037   7.751   6.420  0.3708 -0.1424 -2.6577
  108MOL0     H14840   9.962   7.607   6.501  0.3112 -2.3165 -1.1054
  108MOL0     H14841  10.188   7.527   6.534 -3.1990 -0.0525  0.3365
  108MOL0     H14842  10.254   7.661   6.432 -0.9342  0.8795 -0.3932
  108MOL0     H14843  10.180   7.822   6.618 -0.3572  1.0483  2.7542
  108MOL0     H14844  10.097   7.695   6.699  0.0155  0.4632  0.1349
  108MOL0     H14845  10.393   7.713   6.655  0.8380 -1.1033 -0.6815
  108MOL0     H14846  10.326   7.574   6.731  0.7728 -0.1660  0.4250
  108MOL0     H14847  10.306   7.857   6.835  0.4007 -0.3491  0.4137
  108MOL0     H14848  10.226   7.734   6.920 -0.0968  1.0873  0.7983
  108MOL0     H14849  10.521   7.668   6.850 -1.4560 -3.5625 -0.3945
  108MOL0     H14850  10.420   7.621   6.990  1.7626 -0.3783  0.2220
  108MOL0     H14851  10.427   7.864   7.060 -0.2830  2.0797 -0.5703
  108MOL0     H14852  10.585   7.800   7.060  1.6261 -0.0890 -1.1890
  108MOL0     H14853  10.706   7.823   6.804 -0.1819 -0.5108  0.6263
  108MOL0     H14854  10.669   8.126   6.540  0.5264  1.1348 -0.1584
  108MOL0     H14855  10.757   7.966   6.574  0.2565 -1.4140  3.5069
  108MOL0     H14856  10.805   8.241   6.717 -0.7671  0.5325 -0.9280
  108MOL0     H14857  10.891   8.089   6.731 -0.3610  0.0326  0.0012
  108MOL0     H14858  10.966   8.088   6.510 -1.2279 -0.1077 -0.8004
  108MOL0     H14859  10.876   8.240   6.472 -1.2289 -0.6213  0.0366
  108MOL0     H14860  11.019   8.368   6.638 -1.7410 -1.2652 -0.7679
  108MOL0     H14861  11.113   8.216   6.670  0.2605 -1.5720 -0.6055
  108MOL0     H14862  11.214   8.495   6.670  0.5628  0.8424 -0.3101
  108MOL0     H14863  11.421   8.698   6.629 -0.0584 -0.5132  0.3337
  108MOL0     H14864  11.527   8.639   6.751 -0.8921  2.0040  0.2648
  108MOL0     H14865  11.349   8.629   6.774 -0.5474  0.0709 -0.8182
  108MOL0     H14866  11.906   8.600   6.402 -1.1085 -1.2192  0.9567
  108MOL0     H14867  12.072   8.773   6.344  0.2784 -1.9395  1.3442
  108MOL0     H14868  12.235   8.995   6.380 -1.6888 -0.8730  1.5136
  108MOL0     H14869  12.126   9.003   6.228 -0.5380  1.0870  0.1020
  108MOL0     H14870  12.278   9.187   6.238  1.1932  3.2868  1.9198
  108MOL0     H14871  12.112   9.233   6.241 -2.1758 -0.0026  2.0631
  108MOL0     H14872  12.125   9.288   6.472  2.4270 -0.9491  3.7635
  108MOL0     H14873  12.259   9.361   6.392  0.6178  0.2747  0.5191
  108MOL0     H14874  12.424   9.219   6.460  1.8296 -0.2589  0.7971
  108MOL0     H14875  12.310   9.101   6.536  0.1835  0.8188  2.6561
  108MOL0     H14876  12.221   9.294   6.677 -1.0825 -0.5687 -1.5028
  108MOL0     H14877  12.377   9.225   6.721  0.4396 -1.8294 -1.1084
  108MOL0     H14878  12.360   9.490   6.565  1.2077  1.8169  0.8508
  108MOL0     H14879  12.505   9.396   6.577  0.3812 -0.8170  1.1624
  108MOL0     H14880  12.523   9.405   6.809 -0.6889 -0.0812 -0.4548
  108MOL0     H14881  12.353   9.452   6.831 -0.6928 -1.4243 -0.3256
  108MOL0     H14882  12.494   9.656   6.861  2.2562  2.3433 -1.2756
  108MOL0     H14883  12.408   9.681   6.712  0.3594 -0.2740 -1.4196
  108MOL0     H14884  11.842   9.064   6.569 -0.6977 -0.7200  2.5011
  108MOL0     H14885  11.677   8.883   6.635 -0.9186 -1.0260  0.0653
  108MOL0     H14886  11.564   8.320   6.379  0.0638  3.1185 -1.6359
  108MOL0     H14887  11.342   8.219   6.358  0.7122  0.4614 -0.6456
  108MOL0     H14888  10.350   7.477   6.267  0.8459  0.7939 -1.3242
  108MOL0     H14889  10.472   7.357   6.098  0.9484 -1.8151 -0.7710
  108MOL0     H14890  10.560   7.410   5.626  3.8912 -1.1864 -1.8845
  108MOL0     H14891  10.660   7.319   5.436 -1.0232 -1.1216 -1.3407
  108MOL0     H14892  10.799   7.125   5.353  0.7525  0.4281 -0.5795
  108MOL0     H14893  10.776   7.044   5.216  0.7300  0.9452 -0.1915
  108MOL0     H14894  10.807   7.285   5.162  0.6990  0.1296 -0.9890
  108MOL0     H14895  10.635   7.302   5.202  2.4454  2.5115  0.2519
  108MOL0     H14896  10.593   7.088   5.049  0.8089 -0.9265  2.2007
  108MOL0     H14897  10.603   7.264   4.994  0.4399 -0.0107  1.1361
  108MOL0     H14898  10.710   7.124   4.833 -2.2482  1.6169  0.3984
  108MOL0     H14899  10.816   7.053   4.954  1.0959  0.5250 -1.2760
  108MOL0     H14900  11.042   7.393   4.897 -0.0680  0.1927 -1.2442
  108MOL0     H14901  10.425   6.965   5.457 -0.9524  0.6357  1.6498
  108MOL0     H14902  10.219   7.067   5.759 -1.4225 -0.4353 -1.2701
  108MOL0     H14903  10.212   6.967   5.603 -1.5102  0.0222 -0.3412
  108MOL0     H14904  10.319   6.931   5.740  0.5938  2.4721  2.9074
  109MOL0     O14905   2.062   4.533   4.460  0.2040  0.0898 -0.1339
  109MOL0     C14906   2.046   4.486   4.570  1.4765  0.1757  0.4359
  109MOL0     O14907   2.018   4.350   4.598 -0.3529  0.5204  0.5082
  109MOL0     C14908   2.006   4.270   4.491  0.7251  0.7901 -0.3953
  109MOL0     C14909   1.887   4.190   4.461  0.1036  0.1663 -0.5612
  109MOL0     C14910   1.884   4.091   4.365  0.4683 -0.6829  0.3858
  109MOL0     C14911   2.002   4.070   4.286  0.6209  0.6956  0.3660
  109MOL0     O14912   1.994   3.966   4.196 -0.1013  0.5688 -0.1396
  109MOL0     C14913   2.116   3.911   4.146  0.5031 -0.4193 -0.9393
  109MOL0     C14914   2.166   3.814   4.257 -0.0986  0.5806 -0.2310
  109MOL0     C14915   2.266   3.715   4.206 -0.3737  0.6918  0.1054
  109MOL0     C14916   2.335   3.648   4.325  0.1870  0.2200 -0.0796
  109MOL0     C14917   2.467   3.715   4.374  0.0976  0.3042 -0.7025
  109MOL0     C14918   2.564   3.624   4.458  0.3470  0.9906 -0.8630
  109MOL0     C14919   2.692   3.696   4.513  0.5862 -0.4572 -0.4508
  109MOL0     C14920   2.771   3.592   4.588  1.3980  0.1060 -0.3475
  109MOL0     N14921   2.903   3.632   4.629  0.2334 -0.1183 -0.2945
  109MOL0     C14922   2.926   3.752   4.684  0.2569  0.1502 -0.4370
  109MOL0     C14923   3.059   3.761   4.698  0.0032  0.6522  0.5519
  109MOL0     C14924   3.119   3.888   4.746 -0.5766 -0.2519  0.2721
  109MOL0     C14925   3.253   3.871   4.814 -0.7662  0.0515  0.2112
  109MOL0     C14926   3.369   3.840   4.721  0.1493 -0.7450  0.1610
  109MOL0     C14927   3.401   3.942   4.609  0.4231 -0.4085  0.5463
  109MOL0     O14928   3.405   4.072   4.672 -0.1273  0.3793 -0.4432
  109MOL0     C14929   3.527   4.106   4.730 -0.0868 -1.0865 -0.2864
  109MOL0     C14930   3.522   4.209   4.822  0.7697 -0.6634  0.8024
  109MOL0     C14931   3.629   4.253   4.897  0.5695  0.1304 -0.3373
  109MOL0     C14932   3.601   4.381   4.978 -0.2916 -0.0357  0.2499
  109MOL0     C14933   3.757   4.187   4.894 -0.0358  0.5082  0.4422
  109MOL0     C14934   3.870   4.206   4.981 -1.3377  0.3813 -0.4251
  109MOL0     O14935   3.995   4.144   4.948 -0.7642 -0.3291 -0.3055
  109MOL0     C14936   4.099   4.177   5.029  0.3138  0.1912 -0.2438
  109MOL0     C14937   4.185   4.278   4.985  0.9261 -1.1194 -0.0944
  109MOL0     C14938   4.293   4.312   5.073 -0.2539  0.0076  0.2356
  109MOL0     C14939   4.303   4.250   5.195  0.3589  0.3413  0.2107
  109MOL0     O14940   4.402   4.274   5.291 -0.2213 -0.0671  0.9631
  109MOL0     C14941   4.539   4.280   5.243  0.7097  0.2052 -0.9240
  109MOL0     C14942   4.580   4.131   5.228 -0.3655 -0.2487 -0.2101
  109MOL0     C14943   4.727   4.092   5.260  0.7427  0.5166  0.7056
  109MOL0     C14944   4.818   4.136   5.152 -0.2355  0.0054 -0.5442
  109MOL0     C14945   4.871   4.282   5.176 -0.4929 -0.1764  1.0333
  109MOL0     C14946   4.975   4.320   5.070  0.6760  0.4264 -0.0537
  109MOL0     C14947   4.918   4.327   4.932  0.3262 -0.2571  0.2598
  109MOL0     C14948   4.995   4.415   4.841 -0.5314  0.2032  0.2292
  109MOL0    Cl14949   5.171   4.422   4.877 -0.5252  0.3567  0.0508
  109MOL0     C14950   4.224   4.147   5.229 -0.1971 -0.5840 -0.3617
  109MOL0     C14951   4.122   4.105   5.146  0.1310  0.6501  0.9121
  109MOL0     O14952   3.845   4.264   5.089  0.1636 -0.3646 -0.0209
  109MOL0     C14953   3.766   4.081   4.792 -1.2275  0.2137 -1.0572
  109MOL0     C14954   3.653   4.038   4.714 -0.6166  0.4657 -0.4921
  109MOL0     N14955   3.119   3.655   4.635 -0.3039  0.9513  0.1642
  109MOL0     N14956   3.021   3.576   4.597 -0.4285 -0.0334  0.1699
  109MOL0     C14957   2.112   4.156   4.302 -0.2719  0.4411  0.7042
  109MOL0     C14958   2.114   4.248   4.408  0.1862  0.5735 -0.1462
  109MOL0     C14959   2.039   4.569   4.687 -0.8624 -0.2580 -1.2621
  109MOL0     C14960   2.011   4.517   4.814  0.0752 -0.9563  0.6267
  109MOL0     C14961   2.013   4.591   4.932 -0.3861 -0.5715  0.0409
  109MOL0     C14962   2.052   4.723   4.932  0.2628  0.3935  0.1923
  109MOL0     O14963   2.067   4.796   5.051  0.3221 -0.7356 -0.2620
  109MOL0     C14964   1.966   4.791   5.165 -0.5789 -0.3496  0.5865
  109MOL0     C14965   1.823   4.802   5.123  0.6035 -0.5354 -0.6409
  109MOL0     C14966   1.714   4.829   5.236 -0.4064  0.5356 -0.1600
  109MOL0     C14967   1.741   4.935   5.344  0.0208  0.1614  0.2556
  109MOL0     C14968   1.771   5.063   5.279 -0.2777 -0.1024  0.4440
  109MOL0     C14969   1.790   5.177   5.240  0.1736  0.3796 -0.2375
  109MOL0     C14970   2.090   4.781   4.809  0.9913 -0.3764 -1.3011
  109MOL0     C14971   2.073   4.707   4.691 -0.1531  0.9937 -0.4262
  109MOL0     C14972   2.111   4.790   4.565 -0.6371  0.2216  0.6088
  109MOL0     H14973   1.799   4.197   4.524  0.9788 -0.8858  0.8486
  109MOL0     H14974   1.803   4.019   4.356  1.9922 -2.4927  0.5064
  109MOL0     H14975   2.187   3.989   4.116  0.3257 -0.1677 -0.7092
  109MOL0     H14976   2.102   3.865   4.048  1.2106  2.6262 -2.5919
  109MOL0     H14977   2.202   3.863   4.348 -0.7071 -0.7357  0.7588
  109MOL0     H14978   2.079   3.755   4.289  1.1073 -0.8871  0.4890
  109MOL0     H14979   2.212   3.646   4.141  1.8443 -1.8457  0.7594
  109MOL0     H14980   2.333   3.751   4.127 -1.7705  1.1497 -0.8971
  109MOL0     H14981   2.277   3.645   4.418  1.4664 -0.4481  0.7232
  109MOL0     H14982   2.351   3.543   4.298 -0.2185 -0.5304  2.3359
  109MOL0     H14983   2.442   3.797   4.443  3.9358 -0.7091  2.1939
  109MOL0     H14984   2.528   3.750   4.290  2.4933 -1.7400  0.0798
  109MOL0     H14985   2.518   3.589   4.551  1.2129  1.5941 -0.1895
  109MOL0     H14986   2.597   3.531   4.410 -3.1180 -0.7612 -0.1909
  109MOL0     H14987   2.671   3.769   4.591  2.1249 -2.0111  1.5326
  109MOL0     H14988   2.754   3.755   4.445 -0.2026  0.2703 -0.5453
  109MOL0     H14989   2.710   3.552   4.669  0.9031  1.6721  0.0838
  109MOL0     H14990   2.769   3.504   4.524  0.7308 -1.0448  1.2073
  109MOL0     H14991   2.863   3.821   4.740 -1.5401 -1.8138  0.0860
  109MOL0     H14992   3.055   3.943   4.814  0.3322  3.1971 -1.4363
  109MOL0     H14993   3.125   3.958   4.663  3.2835 -0.1382  0.4787
  109MOL0     H14994   3.283   3.963   4.866  2.5356 -0.4656 -0.5348
  109MOL0     H14995   3.251   3.799   4.895  2.7943  0.2469  0.6552
  109MOL0     H14996   3.463   3.824   4.774  0.7696  2.1920  0.0842
  109MOL0     H14997   3.358   3.745   4.667  1.4358 -0.1746 -1.1575
  109MOL0     H14998   3.487   3.915   4.546 -0.0368 -3.3985  1.0694
  109MOL0     H14999   3.311   3.951   4.547 -0.1651  1.7082  1.5997
  109MOL0     H15000   3.428   4.264   4.821  0.1436 -1.6701 -1.2663
  109MOL0     H15001   3.674   4.458   4.948  0.5567 -0.0931  2.0341
  109MOL0     H15002   3.616   4.370   5.086  0.3124  1.5891  0.3714
  109MOL0     H15003   3.498   4.418   4.971 -0.5705 -0.7442  0.5051
  109MOL0     H15004   4.167   4.325   4.889  0.8246  0.8804  0.8520
  109MOL0     H15005   4.360   4.391   5.041 -1.0938  1.1041  1.0906
  109MOL0     H15006   4.569   4.319   5.145  2.7049 -2.5134 -1.4961
  109MOL0     H15007   4.595   4.332   5.321 -0.3288  3.6136 -2.2416
  109MOL0     H15008   4.513   4.085   5.301  1.8724 -2.0991  0.8039
  109MOL0     H15009   4.557   4.097   5.126  1.2649 -2.1814 -0.0057
  109MOL0     H15010   4.746   3.985   5.275  2.1680  0.4178 -1.3834
  109MOL0     H15011   4.758   4.137   5.355 -0.4888 -1.4246  2.0918
  109MOL0     H15012   4.768   4.119   5.056  0.8247  0.4564 -1.1979
  109MOL0     H15013   4.902   4.067   5.153 -1.6454 -1.7850 -0.7695
  109MOL0     H15014   4.784   4.347   5.162 -0.2224 -0.0903 -0.4117
  109MOL0     H15015   4.915   4.289   5.276 -0.5012  0.6778  0.9793
  109MOL0     H15016   5.059   4.250   5.071 -1.2434 -2.5439 -5.5190
  109MOL0     H15017   5.009   4.416   5.110  0.9920  0.5666 -0.6528
  109MOL0     H15018   4.813   4.357   4.934  0.4418  0.1202  0.9445
  109MOL0     H15019   4.907   4.227   4.890 -1.6235  0.2603 -0.5721
  109MOL0     H15020   4.965   4.519   4.858 -0.8131  0.8779 -3.4757
  109MOL0     H15021   4.971   4.395   4.736 -0.7067  2.4277 -0.2100
  109MOL0     H15022   4.252   4.090   5.317  2.0024 -0.9700 -1.2481
  109MOL0     H15023   4.065   4.016   5.170  0.1271  0.4685  0.2421
  109MOL0     H15024   3.858   4.025   4.782 -0.9894  0.3208  0.3447
  109MOL0     H15025   3.663   3.964   4.635 -1.7601 -0.2855  0.0380
  109MOL0     H15026   2.197   4.137   4.238 -2.9217 -3.5716 -2.1729
  109MOL0     H15027   2.208   4.301   4.419  0.9194  0.1322 -3.2848
  109MOL0     H15028   1.970   4.417   4.818 -0.0007 -0.9883 -0.5721
  109MOL0     H15029   1.985   4.536   5.022  0.3583  0.1907  0.7486
  109MOL0     H15030   1.984   4.696   5.217  0.5172 -1.1092 -1.0860
  109MOL0     H15031   1.989   4.878   5.228 -1.6878  0.6808 -0.3814
  109MOL0     H15032   1.800   4.720   5.054 -0.0929 -2.1977  1.4648
  109MOL0     H15033   1.823   4.895   5.066 -0.6330 -0.6065 -0.7863
  109MOL0     H15034   1.619   4.860   5.191 -0.0822  1.5855 -0.1576
  109MOL0     H15035   1.699   4.735   5.289  1.0724 -0.2858 -1.1275
  109MOL0     H15036   1.828   4.906   5.404 -1.2404 -2.1839  1.0607
  109MOL0     H15037   1.664   4.945   5.421 -1.3690  0.1354 -1.0936
  109MOL0     H15038   1.794   5.279   5.206 -0.4462  0.2105 -0.8485
  109MOL0     H15039   2.123   4.884   4.818  1.6705 -0.4099 -3.0282
  109MOL0     H15040   2.204   4.758   4.518 -0.5270 -0.7328  1.4474
  109MOL0     H15041   2.034   4.774   4.489  0.5363  2.2013 -1.1261
  109MOL0     H15042   2.102   4.898   4.581  1.6703  0.3204  1.6275
  110MOL0     O15043   3.647   4.742   3.166  0.2270 -0.5596  0.4821
  110MOL0     C15044   3.565   4.762   3.254  0.2328  0.3295  0.3910
  110MOL0     O15045   3.584   4.821   3.372 -0.9339 -0.5589 -0.4627
  110MOL0     C15046   3.712   4.866   3.410  0.3154  0.9188  0.1568
  110MOL0     C15047   3.833   4.801   3.389  0.3056  0.7590  0.0368
  110MOL0     C15048   3.951   4.866   3.429 -0.7370  0.1595  0.4342
  110MOL0     C15049   3.960   5.007   3.464 -0.0387  0.0752 -0.2883
  110MOL0     O15050   4.067   5.075   3.495  0.1917 -0.1581 -0.4651
  110MOL0     C15051   4.126   5.024   3.612 -0.9903  0.7421 -0.4174
  110MOL0     C15052   4.236   5.108   3.681  0.1018  0.6450 -0.6720
  110MOL0     C15053   4.375   5.106   3.600  0.0193  0.7618  0.0448
  110MOL0     C15054   4.478   5.186   3.683 -0.8612 -0.2933  0.2792
  110MOL0     C15055   4.623   5.182   3.630  0.1110  0.0183 -0.0650
  110MOL0     C15056   4.727   5.235   3.735  1.0623  0.0499  0.6011
  110MOL0     C15057   4.722   5.384   3.738  0.1667 -0.1648 -0.3084
  110MOL0     C15058   4.812   5.434   3.854 -0.3363 -0.6482  0.4612
  110MOL0     N15059   4.815   5.580   3.858 -0.3994 -0.1681  0.8108
  110MOL0     C15060   4.898   5.667   3.781 -0.1799  0.2249  0.1393
  110MOL0     C15061   4.860   5.791   3.824  0.4141 -0.3560 -0.3975
  110MOL0     C15062   4.917   5.916   3.786 -0.2772 -0.5706  0.2992
  110MOL0     C15063   4.822   6.009   3.719 -0.3869 -0.2196  0.1432
  110MOL0     C15064   4.840   6.154   3.739  0.1024 -0.0964 -0.8440
  110MOL0     C15065   4.978   6.201   3.734  0.3063 -0.5918 -0.0758
  110MOL0     O15066   4.990   6.348   3.756 -0.1540  0.9767 -0.1543
  110MOL0     C15067   5.057   6.365   3.876  0.2858 -0.2637  0.3772
  110MOL0     C15068   4.987   6.412   3.983  0.3711 -0.6337 -0.1636
  110MOL0     C15069   5.054   6.447   4.096 -0.2110 -0.1608 -0.1129
  110MOL0     C15070   4.959   6.512   4.195 -0.0346  0.0898 -0.5140
  110MOL0     C15071   5.195   6.436   4.104  0.7295 -0.2830 -0.3890
  110MOL0     C15072   5.280   6.478   4.219 -0.0770 -0.6813  0.4788
  110MOL0     O15073   5.417   6.489   4.193 -0.7229 -0.2464 -0.2716
  110MOL0     C15074   5.518   6.541   4.280  0.0317  0.3572 -0.2243
  110MOL0     C15075   5.516   6.529   4.424 -1.0828 -0.2039  0.4506
  110MOL0     C15076   5.629   6.557   4.495  1.0503  0.5228  0.4164
  110MOL0     C15077   5.737   6.623   4.432  0.5052 -0.1602  0.0099
  110MOL0     O15078   5.846   6.662   4.506  0.1566  0.0649  0.0267
  110MOL0     C15079   5.829   6.697   4.647 -0.4595 -0.0696  0.4119
  110MOL0     C15080   5.922   6.801   4.686 -0.0835 -0.9230  0.8302
  110MOL0     C15081   5.918   6.832   4.835 -0.6705 -0.2268  0.4620
  110MOL0     C15082   5.779   6.874   4.888 -1.3005  0.9991 -0.2238
  110MOL0     C15083   5.783   6.880   5.041 -0.3414  0.9117 -0.0417
  110MOL0     C15084   5.654   6.928   5.097  0.5219  0.4956 -0.0408
  110MOL0     C15085   5.539   6.828   5.105  0.2880 -0.0329  0.1164
  110MOL0     C15086   5.416   6.849   5.010  0.0070  0.9042  0.0498
  110MOL0    Cl15087   5.339   6.991   5.054  0.5950 -0.1085  0.1995
  110MOL0     C15088   5.734   6.639   4.289 -0.5527 -0.8825 -0.1312
  110MOL0     C15089   5.628   6.596   4.217  0.3511  0.1707  0.8017
  110MOL0     O15090   5.226   6.510   4.320 -0.4059  0.0356 -0.1032
  110MOL0     C15091   5.265   6.389   3.991  0.4337  0.5471 -0.3345
  110MOL0     C15092   5.196   6.348   3.879  0.6759 -0.8948 -0.5245
  110MOL0     N15093   4.767   5.775   3.927  0.1502  0.2470  0.3229
  110MOL0     N15094   4.744   5.653   3.947  0.1256 -0.3684 -0.0261
  110MOL0     C15095   3.833   5.065   3.479 -0.4186 -0.1644 -0.2700
  110MOL0     C15096   3.714   5.000   3.458  0.8734 -1.0135 -0.1823
  110MOL0     C15097   3.421   4.739   3.220 -0.1402 -0.3190  0.0278
  110MOL0     C15098   3.364   4.819   3.115  0.3069 -0.0739 -0.3227
  110MOL0     C15099   3.230   4.798   3.078  1.1915 -0.2889  0.1097
  110MOL0     C15100   3.159   4.693   3.131  0.7926 -0.3198 -0.3687
  110MOL0     O15101   3.034   4.661   3.086  0.3692  0.5254  0.9825
  110MOL0     C15102   2.981   4.726   2.974  0.1015  0.2193 -0.1894
  110MOL0     C15103   2.834   4.678   2.953 -0.0773  1.4755  0.1271
  110MOL0     C15104   2.777   4.721   2.815 -0.3249 -0.2682  0.2216
  110MOL0     C15105   2.737   4.602   2.716  0.1421  0.2933  0.6144
  110MOL0     C15106   2.623   4.529   2.776  0.2542 -0.0472  0.3381
  110MOL0     C15107   2.519   4.471   2.798  0.4415  0.6597 -0.7417
  110MOL0     C15108   3.211   4.614   3.228 -0.7526  0.4338 -0.2044
  110MOL0     C15109   3.342   4.644   3.281  0.9613  1.0789  0.4909
  110MOL0     C15110   3.389   4.563   3.400 -0.0349 -0.8125  0.1579
  110MOL0     H15111   3.829   4.704   3.340 -0.9712  1.5704 -1.5792
  110MOL0     H15112   4.048   4.818   3.425 -1.1257 -0.7636  1.4514
  110MOL0     H15113   4.169   4.927   3.585 -1.2427 -0.2704  2.3876
  110MOL0     H15114   4.057   4.992   3.691  1.0727  0.4759  1.3807
  110MOL0     H15115   4.216   5.212   3.708  2.2558  1.1938 -1.0496
  110MOL0     H15116   4.239   5.056   3.778 -4.0143 -1.4355 -1.4164
  110MOL0     H15117   4.406   5.004   3.578 -1.1776  0.1205  1.1855
  110MOL0     H15118   4.365   5.161   3.506 -0.6780  5.2895  2.4741
  110MOL0     H15119   4.455   5.291   3.700 -3.4028 -0.1100 -3.1977
  110MOL0     H15120   4.482   5.146   3.785  2.3026 -1.6628 -0.2523
  110MOL0     H15121   4.645   5.243   3.541  2.9534  0.7360  0.9963
  110MOL0     H15122   4.653   5.079   3.613  0.9317  0.2459 -0.0513
  110MOL0     H15123   4.690   5.201   3.832  1.8455 -1.1961  0.4808
  110MOL0     H15124   4.826   5.192   3.721  0.2454 -0.8955 -3.3463
  110MOL0     H15125   4.625   5.426   3.763  1.3666  0.4343  4.1504
  110MOL0     H15126   4.767   5.420   3.645  3.3150 -2.6289  0.0804
  110MOL0     H15127   4.759   5.399   3.943 -1.2589 -1.6586 -0.4584
  110MOL0     H15128   4.916   5.401   3.842 -0.8684 -1.9884 -0.7005
  110MOL0     H15129   4.968   5.633   3.705  0.5529  1.0514  0.4149
  110MOL0     H15130   5.007   5.904   3.726 -0.4786  1.3250 -0.4433
  110MOL0     H15131   4.947   5.962   3.881 -0.0391 -0.9072  0.3869
  110MOL0     H15132   4.835   5.989   3.612 -2.1138 -2.2235  0.2434
  110MOL0     H15133   4.718   5.982   3.736  0.1542 -2.4268  0.3298
  110MOL0     H15134   4.784   6.209   3.662  0.6194  2.7323  0.6421
  110MOL0     H15135   4.799   6.177   3.838 -0.5906  1.3358 -1.4279
  110MOL0     H15136   5.038   6.146   3.807  1.8173  1.8993  0.6861
  110MOL0     H15137   5.023   6.176   3.638 -0.7151  1.6839 -1.2251
  110MOL0     H15138   4.880   6.428   3.973  0.3126 -0.1497  1.1396
  110MOL0     H15139   4.856   6.529   4.163 -0.9403 -1.1260  1.5619
  110MOL0     H15140   5.011   6.602   4.229 -0.7253  0.2144  0.2498
  110MOL0     H15141   4.952   6.438   4.275  0.2864 -1.2796 -1.6977
  110MOL0     H15142   5.427   6.496   4.477 -0.8006  2.1813  2.5723
  110MOL0     H15143   5.640   6.539   4.601  1.3145  2.5964  0.7791
  110MOL0     H15144   5.727   6.732   4.665 -0.1181  1.2773 -0.1422
  110MOL0     H15145   5.855   6.601   4.694  0.6787 -1.7136 -3.1544
  110MOL0     H15146   6.022   6.791   4.644  0.0143 -0.0615  0.8308
  110MOL0     H15147   5.886   6.895   4.643  4.3649  0.7101  0.0955
  110MOL0     H15148   5.992   6.912   4.848 -0.6296 -0.1002 -0.5378
  110MOL0     H15149   5.952   6.741   4.885  0.4384  1.0638  2.2151
  110MOL0     H15150   5.714   6.789   4.867  0.8999 -0.7219 -0.4459
  110MOL0     H15151   5.759   6.970   4.841 -0.8667  2.1798  1.8474
  110MOL0     H15152   5.808   6.781   5.079  1.8700  0.0681 -3.2747
  110MOL0     H15153   5.873   6.934   5.071  0.1825 -0.1024  0.2365
  110MOL0     H15154   5.620   7.007   5.030  1.0302 -0.6151 -1.6854
  110MOL0     H15155   5.664   6.972   5.197  0.2462  1.4619 -0.4320
  110MOL0     H15156   5.498   6.830   5.206 -0.9398  0.6815 -0.3683
  110MOL0     H15157   5.579   6.729   5.086  0.3163 -0.0464  0.2488
  110MOL0     H15158   5.346   6.767   5.023 -0.9714  2.0501  2.6633
  110MOL0     H15159   5.457   6.848   4.908  3.2170 -2.1065  1.2011
  110MOL0     H15160   5.821   6.677   4.238 -1.5599  0.8193 -0.6642
  110MOL0     H15161   5.613   6.594   4.109 -2.8800  3.0401  1.0268
  110MOL0     H15162   5.369   6.364   3.975 -0.5316 -3.8017 -0.9737
  110MOL0     H15163   5.251   6.308   3.794  0.3948  1.9964 -2.2011
  110MOL0     H15164   3.824   5.168   3.513 -2.4333 -0.0387 -1.0622
  110MOL0     H15165   3.622   5.057   3.460  2.7191  2.1563  1.7634
  110MOL0     H15166   3.411   4.903   3.065 -0.2356  0.8642  0.6833
  110MOL0     H15167   3.190   4.866   3.003 -1.4779  1.1553  2.6691
  110MOL0     H15168   2.980   4.836   2.981  1.1097  0.3359 -1.4476
  110MOL0     H15169   3.033   4.696   2.882 -2.7118  1.2978 -2.3016
  110MOL0     H15170   2.772   4.728   3.028 -1.3741  2.5552 -1.5814
  110MOL0     H15171   2.819   4.572   2.973 -0.1925  1.8626  2.2411
  110MOL0     H15172   2.685   4.777   2.833  0.7631  1.9580 -0.7472
  110MOL0     H15173   2.854   4.780   2.765  0.8187 -2.1715 -0.3504
  110MOL0     H15174   2.827   4.544   2.696  0.8869  1.4748  0.4732
  110MOL0     H15175   2.702   4.642   2.620  1.4115 -1.3299 -0.5679
  110MOL0     H15176   2.428   4.426   2.833  2.7275 -1.7699  2.8831
  110MOL0     H15177   3.155   4.523   3.249 -0.1560 -0.2146 -1.3650
  110MOL0     H15178   3.448   4.479   3.364  0.1883 -0.6184  0.0713
  110MOL0     H15179   3.443   4.624   3.473  0.2747 -1.3008  0.3374
  110MOL0     H15180   3.299   4.526   3.450  0.7249  0.1657  2.3775
  111MOL0     O15181   8.093   4.616  10.257  0.2228 -0.8495  0.3419
  111MOL0     C15182   8.198   4.585  10.204  0.0301  0.2152  0.1708
  111MOL0     O15183   8.215   4.478  10.120 -0.6138  0.5803  0.3805
  111MOL0     C15184   8.113   4.392  10.082  1.9609  0.0337  0.4602
  111MOL0     C15185   8.011   4.350  10.178  0.5848  0.2835 -0.0866
  111MOL0     C15186   7.924   4.252  10.134  0.0435  0.3233  0.1562
  111MOL0     C15187   7.936   4.189  10.013 -0.8085 -0.3935 -0.2247
  111MOL0     O15188   7.847   4.084   9.990 -0.4312 -0.2995 -0.5172
  111MOL0     C15189   7.823   4.034   9.858 -0.3150 -0.7648  0.3340
  111MOL0     C15190   7.712   4.113   9.781  0.7703  0.5233 -0.4140
  111MOL0     C15191   7.674   4.058   9.639 -0.0337 -0.0578  1.0513
  111MOL0     C15192   7.730   4.122   9.516  0.5016 -0.7319 -1.1020
  111MOL0     C15193   7.883   4.118   9.527  0.2096  0.7458  0.1976
  111MOL0     C15194   7.929   4.150   9.383 -1.0237 -1.1757  0.1203
  111MOL0     C15195   8.081   4.179   9.404  0.2628 -0.2927 -0.1981
  111MOL0     C15196   8.126   4.229   9.266 -0.2401  0.2959  0.5708
  111MOL0     N15197   8.275   4.234   9.270  0.1056 -0.8936  0.0329
  111MOL0     C15198   8.365   4.312   9.344  0.0564  0.7634  1.0035
  111MOL0     C15199   8.489   4.262   9.314 -0.7421  0.0959 -0.5985
  111MOL0     C15200   8.620   4.302   9.375 -0.5520  0.4887  0.5465
  111MOL0     C15201   8.728   4.310   9.271 -0.5715  0.0742  0.1723
  111MOL0     C15202   8.692   4.399   9.154  0.1091 -0.7502 -0.0500
  111MOL0     C15203   8.809   4.436   9.073  0.5284 -0.4629  0.1804
  111MOL0     O15204   8.913   4.516   9.142 -0.4630  0.0146 -0.1357
  111MOL0     C15205   9.031   4.537   9.071 -0.4124  0.2239 -0.3125
  111MOL0     C15206   9.145   4.468   9.099  0.0213  0.3844 -0.0597
  111MOL0     C15207   9.264   4.491   9.036 -0.4326  0.1902 -0.0326
  111MOL0     C15208   9.386   4.430   9.117 -0.0395  0.1035  0.0557
  111MOL0     C15209   9.279   4.579   8.924  0.3668 -0.3915 -0.3727
  111MOL0     C15210   9.413   4.614   8.853  0.4950  0.4019  0.6242
  111MOL0     O15211   9.404   4.725   8.778 -0.4727 -1.1718 -0.2877
  111MOL0     C15212   9.523   4.775   8.719  0.6979 -0.3508 -0.5142
  111MOL0     C15213   9.592   4.689   8.630 -1.2735  0.1053 -1.2053
  111MOL0     C15214   9.706   4.733   8.564  0.4047  0.1423  1.2310
  111MOL0     C15215   9.756   4.863   8.589  0.2372 -0.4943 -0.0015
  111MOL0     O15216   9.861   4.907   8.511  0.0093  0.5443  0.0269
  111MOL0     C15217   9.923   5.036   8.535  0.2036 -0.3300  0.1586
  111MOL0     C15218  10.004   5.075   8.413 -0.2134 -0.5742  0.4748
  111MOL0     C15219  10.063   5.221   8.438 -0.3921  0.6849  0.2547
  111MOL0     C15220  10.146   5.268   8.313 -0.0412  0.0107 -0.1313
  111MOL0     C15221  10.199   5.405   8.343  0.2911  0.0128  0.9474
  111MOL0     C15222  10.317   5.439   8.250  0.6590  0.3433 -0.8676
  111MOL0     C15223  10.280   5.444   8.099 -0.0344  0.1819  0.6202
  111MOL0     C15224  10.351   5.555   8.022  0.2358  0.5698  0.3763
  111MOL0    Cl15225  10.525   5.571   8.033  0.3375 -0.0780  0.0617
  111MOL0     C15226   9.696   4.935   8.692 -0.4581 -0.5290 -0.7590
  111MOL0     C15227   9.579   4.896   8.755  0.4152 -0.6123 -0.4091
  111MOL0     O15228   9.496   4.525   8.837 -0.2708  0.8206 -0.7224
  111MOL0     C15229   9.160   4.641   8.886  0.3712  0.2579  0.0419
  111MOL0     C15230   9.036   4.626   8.960 -0.0924 -0.1523  1.0467
  111MOL0     N15231   8.485   4.164   9.222  0.9131 -0.3822  0.5956
  111MOL0     N15232   8.356   4.148   9.195 -0.2986  0.0135 -0.2077
  111MOL0     C15233   8.023   4.235   9.918 -0.1460  0.4663  0.0062
  111MOL0     C15234   8.120   4.320   9.960 -0.4860 -0.3889  0.6525
  111MOL0     C15235   8.314   4.681  10.233 -0.2915  0.5481 -0.3975
  111MOL0     C15236   8.287   4.792  10.321 -0.5355  0.6014  0.4413
  111MOL0     C15237   8.389   4.884  10.338  0.5526  0.5910  0.3044
  111MOL0     C15238   8.515   4.858  10.291 -0.0571 -0.2297  0.3214
  111MOL0     O15239   8.603   4.952  10.333  0.3886  0.4385 -0.5477
  111MOL0     C15240   8.742   4.922  10.321  1.4383  0.0434 -0.7329
  111MOL0     C15241   8.813   5.032  10.404  0.6299  0.1606  0.4479
  111MOL0     C15242   8.962   5.040  10.384  0.5446 -0.6833 -0.0942
  111MOL0     C15243   9.036   4.908  10.349 -0.2804 -0.2823 -0.0641
  111MOL0     C15244   9.058   4.894  10.202  0.6682 -0.2485 -0.0961
  111MOL0     C15245   9.080   4.902  10.080  0.4231  0.8287 -1.1202
  111MOL0     C15246   8.547   4.755  10.207 -0.9507  0.4120 -0.2782
  111MOL0     C15247   8.444   4.666  10.188  0.2833  0.5256  0.8828
  111MOL0     C15248   8.471   4.557  10.082  0.0187 -0.1491 -0.5817
  111MOL0     H15249   8.010   4.384  10.281  1.7770  1.5912 -0.4709
  111MOL0     H15250   7.844   4.214  10.197  1.1498 -0.4918  1.1105
  111MOL0     H15251   7.776   3.936   9.870  0.7434 -1.2019  1.0916
  111MOL0     H15252   7.915   4.024   9.800  1.1507 -1.9106  2.6915
  111MOL0     H15253   7.624   4.098   9.844 -0.6207 -1.9836 -2.7580
  111MOL0     H15254   7.726   4.221   9.767 -5.2268  1.4603 -1.5900
  111MOL0     H15255   7.694   3.950   9.631 -0.4885 -0.0288 -1.0309
  111MOL0     H15256   7.567   4.071   9.623  0.2371  1.3000  0.2176
  111MOL0     H15257   7.702   4.067   9.426  0.0056 -1.6092 -0.4242
  111MOL0     H15258   7.695   4.224   9.501 -3.2585 -1.0294  3.4152
  111MOL0     H15259   7.927   4.021   9.552  0.9001  1.2616  1.0252
  111MOL0     H15260   7.919   4.204   9.584  0.2011 -0.0056  1.3670
  111MOL0     H15261   7.911   4.066   9.315 -1.4442 -1.4153  0.5151
  111MOL0     H15262   7.886   4.242   9.344  2.8523  1.3639  1.2871
  111MOL0     H15263   8.140   4.089   9.424 -0.4312 -0.6931  0.0858
  111MOL0     H15264   8.091   4.251   9.485 -0.9951 -0.5288  0.1980
  111MOL0     H15265   8.085   4.161   9.191 -1.9165  1.0770  0.7304
  111MOL0     H15266   8.073   4.324   9.252 -1.5776 -0.5692 -0.4752
  111MOL0     H15267   8.333   4.388   9.415 -0.8794 -1.0170  2.5653
  111MOL0     H15268   8.640   4.226   9.451 -1.4575  0.0862  0.4080
  111MOL0     H15269   8.606   4.399   9.423  2.3641  3.1320 -3.3616
  111MOL0     H15270   8.819   4.332   9.329 -0.9080 -1.1199  1.1952
  111MOL0     H15271   8.744   4.211   9.229  1.0607  1.2073 -2.0372
  111MOL0     H15272   8.613   4.357   9.092 -2.1563  0.9705  1.5018
  111MOL0     H15273   8.642   4.491   9.186  0.7427 -1.2910  2.8386
  111MOL0     H15274   8.839   4.340   9.029 -0.5023 -0.4012 -0.7200
  111MOL0     H15275   8.759   4.489   8.991  2.0904 -1.8440 -1.7924
  111MOL0     H15276   9.131   4.409   9.189  1.2179 -1.0718 -0.7974
  111MOL0     H15277   9.351   4.346   9.177 -4.6751  0.2102 -2.1110
  111MOL0     H15278   9.421   4.513   9.179  2.2203  2.1346 -3.5592
  111MOL0     H15279   9.465   4.382   9.058 -1.4056 -2.9555  0.5255
  111MOL0     H15280   9.566   4.587   8.606  0.2545 -0.3494 -1.0201
  111MOL0     H15281   9.753   4.676   8.484  1.9920  1.5967  1.0449
  111MOL0     H15282   9.849   5.109   8.569  0.6684 -0.1200  0.7312
  111MOL0     H15283  10.004   5.023   8.607  1.0711 -0.3567 -0.8058
  111MOL0     H15284  10.082   5.001   8.396 -0.1487 -0.5751  0.7779
  111MOL0     H15285   9.948   5.063   8.320  0.1706 -2.1311  0.4262
  111MOL0     H15286  10.118   5.234   8.531  3.2281 -1.0649 -1.4523
  111MOL0     H15287   9.978   5.289   8.450  0.0198  0.8494  2.7841
  111MOL0     H15288  10.082   5.263   8.224 -0.3116  0.9981 -0.0042
  111MOL0     H15289  10.235   5.206   8.303 -0.3877 -0.7261  1.1195
  111MOL0     H15290  10.117   5.477   8.350 -2.2422 -2.3851 -1.1382
  111MOL0     H15291  10.251   5.409   8.438  2.0342  0.0894  0.0241
  111MOL0     H15292  10.402   5.373   8.271 -1.3623 -1.4639  2.5553
  111MOL0     H15293  10.354   5.536   8.285 -0.7818  0.2126  1.1807
  111MOL0     H15294  10.174   5.463   8.081 -0.4893 -0.0528  2.8368
  111MOL0     H15295  10.294   5.348   8.048 -0.5285 -0.5277  1.7742
  111MOL0     H15296  10.316   5.654   8.055 -0.1413  1.3875 -2.2586
  111MOL0     H15297  10.321   5.548   7.917 -0.3084  0.2014  0.5498
  111MOL0     H15298   9.728   5.033   8.724 -2.1009  0.4230 -1.8736
  111MOL0     H15299   9.536   4.950   8.839 -1.0194 -1.4823 -0.5429
  111MOL0     H15300   9.146   4.708   8.802 -0.2602 -0.8002 -0.7130
  111MOL0     H15301   8.944   4.678   8.935  0.5318  0.3902 -0.1861
  111MOL0     H15302   8.032   4.192   9.819 -2.1020  0.6582 -0.2924
  111MOL0     H15303   8.201   4.356   9.897 -1.6461 -2.4551 -2.2882
  111MOL0     H15304   8.195   4.824  10.368 -0.2024  1.1652  0.7202
  111MOL0     H15305   8.368   4.973  10.397  1.8121  1.7286 -0.8719
  111MOL0     H15306   8.767   4.828  10.370 -0.6034  0.6142  1.5718
  111MOL0     H15307   8.778   4.916  10.218  1.4400 -0.1463 -0.7212
  111MOL0     H15308   8.790   5.016  10.510 -1.4081 -0.6307 -0.0773
  111MOL0     H15309   8.778   5.132  10.379  0.1992 -0.3672 -1.1777
  111MOL0     H15310   8.984   5.117  10.309  4.7967 -1.6338 -0.0780
  111MOL0     H15311   9.009   5.080  10.474  2.3384 -2.3836 -0.2328
  111MOL0     H15312   8.986   4.820  10.391  2.5755 -2.6768 -1.3198
  111MOL0     H15313   9.137   4.905  10.390 -0.0444 -0.9710 -0.6774
  111MOL0     H15314   9.097   4.903   9.974 -1.9698 -0.3741 -1.5994
  111MOL0     H15315   8.650   4.743  10.173 -0.2293  3.8048  0.3388
  111MOL0     H15316   8.394   4.555  10.005 -2.5931 -2.2900  1.8892
  111MOL0     H15317   8.567   4.583  10.037 -0.0410 -1.6580 -1.6541
  111MOL0     H15318   8.484   4.463  10.137  1.1852  1.4383  2.0959
  112MOL0     O15319   9.956   9.995  11.230 -0.5182 -0.3136 -0.4620
  112MOL0     C15320   9.899   9.983  11.337 -0.3769 -0.1648  0.6286
  112MOL0     O15321   9.782   9.916  11.349 -0.1053  0.1342 -0.2623
  112MOL0     C15322   9.701   9.875  11.246 -0.0181 -1.4500 -0.2119
  112MOL0     C15323   9.578   9.836  11.298 -0.6775  1.0316 -0.2673
  112MOL0     C15324   9.485   9.773  11.216  0.4646  0.2893 -0.0612
  112MOL0     C15325   9.499   9.757  11.074 -0.4786  1.1723  0.3329
  112MOL0     O15326   9.425   9.694  10.977 -0.0652 -0.2069  0.1151
  112MOL0     C15327   9.287   9.687  10.996  0.0763 -0.0088  0.4909
  112MOL0     C15328   9.251   9.542  11.054 -0.5693 -0.3462 -0.2708
  112MOL0     C15329   9.094   9.532  11.082 -0.0233  0.2457  0.2261
  112MOL0     C15330   9.058   9.437  11.199  0.5031  0.5690 -0.3233
  112MOL0     C15331   8.914   9.456  11.246  0.3813 -0.3021 -0.8376
  112MOL0     C15332   8.903   9.579  11.336 -0.3084  0.2121 -0.7809
  112MOL0     C15333   8.760   9.577  11.412 -0.6633 -0.0809  0.1450
  112MOL0     C15334   8.641   9.570  11.318  0.1408  0.0503 -0.5787
  112MOL0     N15335   8.615   9.702  11.255  0.4669 -0.4383 -0.1285
  112MOL0     C15336   8.510   9.727  11.167  0.6214  0.2554 -0.2591
  112MOL0     C15337   8.544   9.848  11.104 -0.5012 -0.4105 -0.1731
  112MOL0     C15338   8.475   9.921  10.990 -0.3789 -0.0602 -0.5116
  112MOL0     C15339   8.573   9.940  10.872 -0.0469 -0.6093  0.0240
  112MOL0     C15340   8.488   9.939  10.742 -0.3047 -0.2245  0.8204
  112MOL0     C15341   8.472   9.793  10.699 -0.5285  0.1646 -0.4054
  112MOL0     O15342   8.369   9.784  10.586  0.2083  0.0981  0.0788
  112MOL0     C15343   8.329   9.661  10.536  0.0390  0.2718  0.0573
  112MOL0     C15344   8.396   9.544  10.563 -0.3328  0.0928  1.0282
  112MOL0     C15345   8.351   9.429  10.502  0.3401  0.2654  0.4929
  112MOL0     C15346   8.453   9.314  10.497  0.4795 -0.3341 -0.3438
  112MOL0     C15347   8.219   9.418  10.442 -0.6166  0.7388  0.0528
  112MOL0     C15348   8.140   9.292  10.406 -1.5018  0.0922  0.3515
  112MOL0     O15349   8.003   9.310  10.392 -0.3229  0.3519 -0.3819
  112MOL0     C15350   7.911   9.205  10.362 -0.2860 -0.1358  1.0832
  112MOL0     C15351   7.921   9.066  10.400 -0.3495 -0.4900  0.1866
  112MOL0     C15352   7.806   8.983  10.387 -0.3716 -0.7718  0.5288
  112MOL0     C15353   7.688   9.027  10.317 -0.2149 -0.2938 -0.5871
  112MOL0     O15354   7.588   8.932  10.300 -0.8108  0.5009  0.3474
  112MOL0     C15355   7.472   8.959  10.218  0.4857  0.0664  0.0769
  112MOL0     C15356   7.373   8.844  10.249 -0.6780 -0.0351  0.3986
  112MOL0     C15357   7.227   8.895  10.274 -0.1354  0.6114  0.5927
  112MOL0     C15358   7.127   8.783  10.299 -0.6473  0.3765 -0.3348
  112MOL0     C15359   6.977   8.829  10.329 -0.0317  0.2615 -0.4254
  112MOL0     C15360   6.876   8.714  10.340 -1.0832 -0.2480 -0.1810
  112MOL0     C15361   6.732   8.766  10.353 -0.1626 -0.5120  0.8841
  112MOL0     C15362   6.612   8.673  10.341 -1.1918 -0.0372  0.7200
  112MOL0    Cl15363   6.636   8.549  10.462  0.3671  0.1030 -0.1909
  112MOL0     C15364   7.686   9.156  10.264 -0.1379 -0.5324 -0.5013
  112MOL0     C15365   7.791   9.246  10.299 -0.0654  0.2063 -0.3622
  112MOL0     O15366   8.202   9.186  10.374  0.1409 -0.5000 -0.0043
  112MOL0     C15367   8.146   9.536  10.428  0.4387  0.1379 -0.5280
  112MOL0     C15368   8.210   9.651  10.470  0.9928  0.3406 -0.3820
  112MOL0     N15369   8.650   9.894  11.178 -0.7376 -0.3449 -0.5627
  112MOL0     N15370   8.694   9.812  11.270 -0.2130  0.9276  0.2050
  112MOL0     C15371   9.625   9.792  11.027  0.3849 -0.6190  0.2387
  112MOL0     C15372   9.721   9.863  11.105  0.4003  0.0543  0.9785
  112MOL0     C15373   9.966  10.023  11.466 -0.0976 -0.8870  0.2543
  112MOL0     C15374   9.898  10.003  11.598 -0.8561  0.8295  0.7810
  112MOL0     C15375   9.943  10.047  11.721  1.0370 -0.3674 -0.1550
  112MOL0     C15376  10.063  10.117  11.727 -0.3430 -0.3296 -1.1007
  112MOL0     O15377  10.120  10.155  11.842 -0.1943  0.0867  0.2284
  112MOL0     C15378  10.058  10.120  11.972  0.0685  0.5380  0.0501
  112MOL0     C15379  10.136  10.189  12.087 -0.3172 -0.0417 -0.3442
  112MOL0     C15380  10.274  10.125  12.085  0.0583 -0.7653  0.6037
  112MOL0     C15381  10.363  10.182  12.193 -0.3569  0.5240 -0.0476
  112MOL0     C15382  10.505  10.124  12.197  0.5553 -0.2861 -0.4045
  112MOL0     C15383  10.616  10.078  12.208 -0.2643  1.1039 -0.0814
  112MOL0     C15384  10.134  10.146  11.611 -0.2897  0.3315  0.3511
  112MOL0     C15385  10.092  10.096  11.479  0.4989 -0.1439  0.1225
  112MOL0     C15386  10.184  10.115  11.360 -0.9891  0.0512 -0.7375
  112MOL0     H15387   9.568   9.864  11.402 -2.5678  2.9798 -0.8904
  112MOL0     H15388   9.397   9.740  11.269 -0.0852  0.1543 -1.0224
  112MOL0     H15389   9.244   9.708  10.897  1.0800 -0.4964 -0.0688
  112MOL0     H15390   9.259   9.763  11.068  0.8945  0.0413  0.7688
  112MOL0     H15391   9.268   9.469  10.974  0.5197  0.0872 -0.4533
  112MOL0     H15392   9.306   9.512  11.143 -1.4618 -1.4436 -0.0614
  112MOL0     H15393   9.063   9.634  11.110 -3.5633 -0.1012 -1.8819
  112MOL0     H15394   9.039   9.524  10.988  1.1747  2.7477 -0.7950
  112MOL0     H15395   9.088   9.338  11.165 -1.6590  0.3883 -1.9271
  112MOL0     H15396   9.124   9.439  11.286  0.8098  0.3801 -0.5436
  112MOL0     H15397   8.892   9.370  11.310  3.4381 -0.8464 -0.3862
  112MOL0     H15398   8.849   9.465  11.158  1.3706 -2.0348 -1.8022
  112MOL0     H15399   8.984   9.574  11.409 -0.2514  0.6146 -0.8133
  112MOL0     H15400   8.925   9.673  11.285  1.7170  1.3288  1.8658
  112MOL0     H15401   8.750   9.670  11.468  2.1081  0.3136  0.1131
  112MOL0     H15402   8.765   9.490  11.479  1.2061 -1.0790 -1.1785
  112MOL0     H15403   8.650   9.495  11.239  1.9651 -0.8212  0.3806
  112MOL0     H15404   8.553   9.553  11.379 -1.3175  2.0980 -1.9912
  112MOL0     H15405   8.434   9.658  11.131  0.4773  0.8212 -1.0775
  112MOL0     H15406   8.444  10.017  11.032 -0.8381 -0.8278  0.9718
  112MOL0     H15407   8.390   9.856  10.965  1.7926 -3.8463  1.0072
  112MOL0     H15408   8.628  10.035  10.866  0.2837 -0.7795  0.3480
  112MOL0     H15409   8.643   9.857  10.861  0.5244  0.1015 -2.2460
  112MOL0     H15410   8.394   9.993  10.759 -1.1142 -1.1911 -0.4322
  112MOL0     H15411   8.544   9.993  10.665  0.2498 -2.3761 -0.3739
  112MOL0     H15412   8.564   9.755  10.652 -1.6124 -2.5392 -0.4896
  112MOL0     H15413   8.452   9.729  10.785  0.6553  1.4687  0.8890
  112MOL0     H15414   8.488   9.547  10.620 -1.1250 -0.8142  2.4297
  112MOL0     H15415   8.543   9.347  10.549 -0.1052  2.0802 -0.7377
  112MOL0     H15416   8.479   9.294  10.392 -0.4761 -0.1359 -0.6261
  112MOL0     H15417   8.417   9.226  10.550  0.1235 -1.8530 -2.9036
  112MOL0     H15418   8.003   9.027  10.459 -0.5627 -3.1030 -1.1403
  112MOL0     H15419   7.810   8.879  10.419  1.0191 -1.4592 -1.6741
  112MOL0     H15420   7.420   9.050  10.249  0.8219  0.5551 -0.7972
  112MOL0     H15421   7.498   8.974  10.113  0.5170  3.4617  0.4752
  112MOL0     H15422   7.370   8.777  10.163 -1.1025 -1.3325  1.3906
  112MOL0     H15423   7.409   8.786  10.334  2.2279  1.3743  0.2461
  112MOL0     H15424   7.197   8.951  10.185 -0.2594  0.4642  0.5424
  112MOL0     H15425   7.227   8.972  10.352  3.0778  4.5497 -2.7688
  112MOL0     H15426   7.161   8.731  10.389  0.7244  1.4346 -0.2129
  112MOL0     H15427   7.131   8.716  10.213  0.1041 -0.8981  0.6509
  112MOL0     H15428   6.969   8.896  10.415 -1.0543  0.6914 -0.8424
  112MOL0     H15429   6.937   8.895  10.251 -0.8915 -0.5265 -0.6639
  112MOL0     H15430   6.888   8.642  10.420 -0.0403  1.5138  1.3231
  112MOL0     H15431   6.886   8.651  10.251  3.4138  1.6731 -1.3145
  112MOL0     H15432   6.713   8.846  10.282 -1.3292 -1.4476  0.1174
  112MOL0     H15433   6.720   8.814  10.451 -3.3404  2.4085 -0.7604
  112MOL0     H15434   6.616   8.625  10.243  1.5219  1.4534  0.0210
  112MOL0     H15435   6.515   8.723  10.349 -2.0653 -1.3114 -1.1705
  112MOL0     H15436   7.589   9.191  10.230 -0.8246 -1.3934  0.5193
  112MOL0     H15437   7.771   9.350  10.277 -1.5031 -0.0896 -0.5455
  112MOL0     H15438   8.041   9.548  10.403 -0.3569 -1.6441  1.6367
  112MOL0     H15439   8.164   9.748  10.451  0.1845 -0.0471 -0.4557
  112MOL0     H15440   9.648   9.753  10.928  1.2593 -0.6653  0.4576
  112MOL0     H15441   9.817   9.900  11.070 -0.5650  3.1555  1.2731
  112MOL0     H15442   9.805   9.947  11.589 -0.3768  0.3003 -1.4322
  112MOL0     H15443   9.877  10.020  11.802  0.4562  1.2509 -0.0669
  112MOL0     H15444   9.953  10.151  11.978 -1.1803 -3.0880 -0.6379
  112MOL0     H15445  10.069  10.012  11.986 -1.5690  0.3363 -0.0076
  112MOL0     H15446  10.096  10.161  12.184  0.5176  1.4133  0.4603
  112MOL0     H15447  10.142  10.297  12.069  4.3989 -0.4123 -2.8366
  112MOL0     H15448  10.261  10.019  12.106  3.0294 -1.7842 -2.0585
  112MOL0     H15449  10.320  10.143  11.988 -1.5628  0.8854  0.0594
  112MOL0     H15450  10.316  10.152  12.287 -1.3198 -0.3326 -0.7796
  112MOL0     H15451  10.362  10.291  12.187  0.5862  0.5207 -0.4597
  112MOL0     H15452  10.708  10.025  12.213 -0.3849  0.9938  1.2056
  112MOL0     H15453  10.233  10.188  11.605  0.4584 -1.5118 -1.8147
  112MOL0     H15454  10.145  10.152  11.265  0.5669 -0.5714 -1.6627
  112MOL0     H15455  10.261  10.186  11.389 -2.2265  1.2712 -0.3503
  112MOL0     H15456  10.233  10.023  11.326 -0.1967  0.8368 -1.7713
  113MOL0     O15457   8.868  10.277   2.477 -0.1963  0.0192 -0.0846
  113MOL0     C15458   8.792  10.356   2.426 -0.5257 -0.3641  0.7054
  113MOL0     O15459   8.825  10.464   2.360 -0.3526 -0.4870 -0.2105
  113MOL0     C15460   8.956  10.500   2.355 -0.6278 -0.0612 -0.2576
  113MOL0     C15461   9.034  10.535   2.239 -0.1235  0.4425  0.7230
  113MOL0     C15462   9.171  10.571   2.257  0.2708 -0.2930 -0.2671
  113MOL0     C15463   9.227  10.591   2.379 -0.4225 -1.0192 -0.0841
  113MOL0     O15464   9.360  10.620   2.377  0.1590  0.6214 -0.4577
  113MOL0     C15465   9.442  10.619   2.496  0.0261  0.7422 -0.6275
  113MOL0     C15466   9.595  10.621   2.441  0.6839 -0.2736 -0.1960
  113MOL0     C15467   9.716  10.604   2.544  0.4555 -0.0597  0.5109
  113MOL0     C15468   9.716  10.474   2.630  0.0999 -0.8145  0.0608
  113MOL0     C15469   9.841  10.468   2.722 -0.5252  0.7661 -0.7264
  113MOL0     C15470   9.971  10.444   2.641 -0.5744  0.0466  0.0676
  113MOL0     C15471  10.097  10.410   2.728 -0.3347 -0.2289  0.0090
  113MOL0     C15472  10.066  10.312   2.846  0.1705 -0.6221  0.4701
  113MOL0     N15473  10.185  10.267   2.910 -0.5425  0.3813  0.1836
  113MOL0     C15474  10.272  10.318   3.001 -1.0202 -0.4270 -1.1470
  113MOL0     C15475  10.369  10.229   3.024  0.3218  0.0720  0.3975
  113MOL0     C15476  10.472  10.228   3.128 -0.5940  0.2847  0.4697
  113MOL0     C15477  10.619  10.217   3.080  0.5159  0.2408 -0.0256
  113MOL0     C15478  10.704  10.240   3.211 -0.0446  0.4149  0.3921
  113MOL0     C15479  10.847  10.240   3.171  0.5823  0.7520  0.1950
  113MOL0     O15480  10.932  10.223   3.290 -0.2157 -0.7988 -0.4731
  113MOL0     C15481  11.046  10.146   3.288  0.8744  0.0597 -0.1101
  113MOL0     C15482  11.043  10.010   3.234  0.6973  0.2471 -0.4095
  113MOL0     C15483  11.163   9.937   3.247  0.0668  0.4064 -0.9058
  113MOL0     C15484  11.146   9.799   3.196  0.6861  0.6713 -0.4620
  113MOL0     C15485  11.284   9.988   3.302  0.0176  0.2998  0.0311
  113MOL0     C15486  11.412   9.909   3.297 -0.3056  0.7413  0.2400
  113MOL0     O15487  11.491   9.926   3.408  0.9325 -0.3260  0.7324
  113MOL0     C15488  11.623   9.891   3.418 -0.1736  0.0095 -0.5478
  113MOL0     C15489  11.653   9.769   3.476  0.7711  0.3977  0.1022
  113MOL0     C15490  11.783   9.729   3.490  0.1996  0.0425 -0.5403
  113MOL0     C15491  11.884   9.803   3.433 -0.0371  0.6078 -0.1833
  113MOL0     O15492  12.014   9.760   3.434 -0.4962 -0.4633  0.0852
  113MOL0     C15493  12.122   9.849   3.470 -0.5422 -0.5755  0.5877
  113MOL0     C15494  12.238   9.761   3.491  0.0337 -0.2941  0.6772
  113MOL0     C15495  12.358   9.843   3.543  0.8010 -0.2395  0.8755
  113MOL0     C15496  12.488   9.757   3.545 -0.1251  0.1877 -0.3266
  113MOL0     C15497  12.607   9.849   3.574  1.4082 -0.1257  0.5550
  113MOL0     C15498  12.728   9.776   3.583  0.7968  0.3836 -0.9495
  113MOL0     C15499  12.834   9.863   3.663  1.2293 -0.3078 -0.5470
  113MOL0     C15500  12.974   9.814   3.679 -0.6416  0.3110  0.1013
  113MOL0    Cl15501  13.039   9.756   3.513  0.2088 -0.1469 -0.5630
  113MOL0     C15502  11.860   9.933   3.382  0.3595 -0.2159  0.0214
  113MOL0     C15503  11.728   9.978   3.382  0.1922  0.0688  0.5250
  113MOL0     O15504  11.452   9.856   3.188  0.3417 -0.3362 -0.2810
  113MOL0     C15505  11.273  10.115   3.365  0.1276 -0.0277  0.0051
  113MOL0     C15506  11.156  10.187   3.358 -0.4299  0.3588  0.7327
  113MOL0     N15507  10.343  10.121   2.946 -0.3412 -0.5632  0.0519
  113MOL0     N15508  10.231  10.142   2.878 -0.0304  0.3941 -0.1308
  113MOL0     C15509   9.148  10.579   2.497 -0.0745 -0.1894  0.3420
  113MOL0     C15510   9.023  10.532   2.480  0.6444  0.5546  0.7526
  113MOL0     C15511   8.649  10.339   2.463 -0.2552  0.5697 -0.2336
  113MOL0     C15512   8.575  10.458   2.470  0.1032  0.1638  0.2678
  113MOL0     C15513   8.437  10.457   2.506 -0.6591 -0.7221 -0.6175
  113MOL0     C15514   8.376  10.343   2.552 -0.5562  0.3636 -0.2668
  113MOL0     O15515   8.254  10.323   2.616 -0.1060 -0.2422  0.5206
  113MOL0     C15516   8.163  10.437   2.614  0.9205 -0.5200  0.9288
  113MOL0     C15517   8.035  10.401   2.696  1.0926 -0.0328 -0.3300
  113MOL0     C15518   7.933  10.526   2.702  0.0054  0.5142 -0.1778
  113MOL0     C15519   7.792  10.492   2.746  0.4418  0.6351 -0.1212
  113MOL0     C15520   7.707  10.408   2.652 -0.4920 -0.7221  0.0393
  113MOL0     C15521   7.662  10.335   2.563 -0.5136  0.7573  0.1093
  113MOL0     C15522   8.446  10.223   2.553 -0.3904  0.2017 -0.4710
  113MOL0     C15523   8.583  10.223   2.505  0.0782 -0.3107  0.4875
  113MOL0     C15524   8.648  10.091   2.483  0.3460  0.9090  0.5926
  113MOL0     H15525   8.997  10.520   2.138 -0.4259 -1.8808  1.1360
  113MOL0     H15526   9.231  10.588   2.168 -1.3447  0.1055 -1.3415
  113MOL0     H15527   9.419  10.531   2.557  2.9784 -0.7105 -1.4473
  113MOL0     H15528   9.423  10.705   2.561  1.2322 -0.1163  0.9632
  113MOL0     H15529   9.606  10.547   2.362 -4.7626 -1.6402 -0.0788
  113MOL0     H15530   9.600  10.718   2.390  1.6010 -0.3444 -0.2517
  113MOL0     H15531   9.810  10.613   2.488  0.9793 -1.6287  1.0870
  113MOL0     H15532   9.710  10.685   2.616  1.2589 -0.1020  0.6316
  113MOL0     H15533   9.620  10.458   2.681  1.7760  1.7310  4.7199
  113MOL0     H15534   9.724  10.392   2.559  1.9775 -2.4991  2.0519
  113MOL0     H15535   9.827  10.376   2.779 -1.0023  1.3602  0.1438
  113MOL0     H15536   9.862  10.546   2.797  0.3711  2.1254 -2.3151
  113MOL0     H15537   9.952  10.357   2.579  0.3912 -0.8805  1.0233
  113MOL0     H15538   9.992  10.534   2.582 -1.1797  0.2824  0.2006
  113MOL0     H15539  10.152  10.496   2.767 -0.8702  0.4944 -0.7714
  113MOL0     H15540  10.165  10.358   2.660  0.7498 -0.2712  1.0960
  113MOL0     H15541  10.004  10.362   2.921  0.2216  0.1992 -0.0173
  113MOL0     H15542  10.002  10.229   2.817 -0.4635  0.9882 -3.4143
  113MOL0     H15543  10.274  10.417   3.046 -1.4274 -0.9286  0.0110
  113MOL0     H15544  10.446  10.147   3.197 -0.2230  0.0981  0.3904
  113MOL0     H15545  10.467  10.323   3.182  1.6972 -0.7957  2.7911
  113MOL0     H15546  10.638  10.116   3.042  1.9814 -0.1254  1.5627
  113MOL0     H15547  10.628  10.292   3.001 -0.9872  0.4568 -0.0204
  113MOL0     H15548  10.672  10.327   3.269 -4.2803 -0.9857  0.5610
  113MOL0     H15549  10.696  10.143   3.263  0.7230  0.6835  1.0336
  113MOL0     H15550  10.871  10.155   3.107  0.5582  0.9640 -0.1008
  113MOL0     H15551  10.882  10.328   3.115  0.1390  1.3372  0.8180
  113MOL0     H15552  10.950   9.977   3.190  0.2160  0.5544  0.3584
  113MOL0     H15553  11.187   9.784   3.095  1.5939 -0.8659  0.1012
  113MOL0     H15554  11.042   9.764   3.201  0.6244  0.9089 -0.0284
  113MOL0     H15555  11.203   9.741   3.269 -0.8537  0.2196  0.4362
  113MOL0     H15556  11.566   9.710   3.504  1.2890 -0.0563  0.7864
  113MOL0     H15557  11.806   9.635   3.540 -0.4329  0.0148 -0.2903
  113MOL0     H15558  12.146   9.902   3.378  3.1430 -3.1289 -0.1672
  113MOL0     H15559  12.105   9.923   3.548  3.4424 -1.1215  2.1899
  113MOL0     H15560  12.214   9.691   3.572 -0.3484 -0.0496  0.7779
  113MOL0     H15561  12.256   9.697   3.404 -1.3587 -0.4875  0.5012
  113MOL0     H15562  12.329   9.876   3.644 -1.8648  0.7918 -0.1443
  113MOL0     H15563  12.358   9.930   3.477 -0.0416  0.6156  1.9683
  113MOL0     H15564  12.496   9.693   3.457 -1.6888  0.4400 -0.6723
  113MOL0     H15565  12.465   9.692   3.630 -1.6718 -1.9709 -2.2645
  113MOL0     H15566  12.616   9.924   3.494 -1.6959  0.9187  1.0173
  113MOL0     H15567  12.589   9.902   3.668  0.4341  3.1281 -1.3126
  113MOL0     H15568  12.779   9.758   3.488  2.8183 -0.4436  0.2100
  113MOL0     H15569  12.714   9.678   3.630  0.9401  1.1342  0.7206
  113MOL0     H15570  12.792   9.878   3.763  2.3935 -2.3010  0.3169
  113MOL0     H15571  12.833   9.961   3.615  0.0621  0.6517  1.3253
  113MOL0     H15572  12.997   9.741   3.757  0.7842  1.0874  0.4344
  113MOL0     H15573  13.042   9.895   3.707  1.1247 -1.1112  0.1370
  113MOL0     H15574  11.944   9.996   3.355  0.0012  1.5713  2.6545
  113MOL0     H15575  11.706  10.071   3.332 -1.7274  0.4083  1.8455
  113MOL0     H15576  11.354  10.156   3.424  0.7482 -0.0059 -0.8549
  113MOL0     H15577  11.146  10.279   3.415 -0.4502 -1.4841  3.9306
  113MOL0     H15578   9.186  10.600   2.596  1.0885 -1.3721  0.1675
  113MOL0     H15579   8.963  10.516   2.570 -0.0924 -0.7190  0.0637
  113MOL0     H15580   8.617  10.557   2.463 -2.0861  1.1345  0.0737
  113MOL0     H15581   8.381  10.550   2.509  1.3715  0.5338  0.6648
  113MOL0     H15582   8.204  10.524   2.667 -0.0117  0.8060 -0.4148
  113MOL0     H15583   8.150  10.467   2.510  4.3158  3.2548  1.3302
  113MOL0     H15584   8.068  10.373   2.796  0.6530  0.4472 -0.0494
  113MOL0     H15585   7.998  10.315   2.639  0.8480  0.5095 -1.0079
  113MOL0     H15586   7.957  10.603   2.776 -0.2773  0.8828 -0.4656
  113MOL0     H15587   7.930  10.568   2.601 -0.5025  0.1375 -0.3236
  113MOL0     H15588   7.737  10.585   2.757  0.3548  0.2631  4.8429
  113MOL0     H15589   7.795  10.456   2.849 -0.5355 -1.2139 -0.6940
  113MOL0     H15590   7.628  10.273   2.482  2.2134 -1.0086  0.1894
  113MOL0     H15591   8.391  10.141   2.597 -0.2114  0.1026 -0.4302
  113MOL0     H15592   8.702  10.095   2.388  1.1217  6.6857  0.8820
  113MOL0     H15593   8.722  10.064   2.559 -0.3347 -0.9922  0.6304
  113MOL0     H15594   8.571  10.014   2.478  3.1746 -2.2610  1.6949
  114MOL0     O15595   0.370   9.324   3.397  0.6970 -0.1798 -0.4337
  114MOL0     C15596   0.291   9.400   3.340  0.0016  0.5030 -0.5738
  114MOL0     O15597   0.332   9.490   3.243  0.2384 -0.4335 -0.4149
  114MOL0     C15598   0.453   9.485   3.183 -0.5760 -0.5695  0.3653
  114MOL0     C15599   0.507   9.614   3.148  0.2934  0.1394 -0.4996
  114MOL0     C15600   0.631   9.622   3.072 -0.6588 -0.1752 -0.2692
  114MOL0     C15601   0.690   9.500   3.029  0.3291  0.9441 -0.4784
  114MOL0     O15602   0.806   9.518   2.956  0.4235 -0.2860 -0.1861
  114MOL0     C15603   0.904   9.412   2.932  0.3619 -0.5509 -0.0619
  114MOL0     C15604   0.986   9.447   2.805 -0.2172 -0.0106  1.2182
  114MOL0     C15605   1.025   9.589   2.789 -0.4065 -0.6135 -0.3020
  114MOL0     C15606   1.090   9.615   2.654 -0.1262  0.9354  0.4298
  114MOL0     C15607   1.066   9.750   2.601  0.1012  0.0350 -0.4012
  114MOL0     C15608   1.110   9.859   2.698 -0.1099 -0.3445  0.5313
  114MOL0     C15609   1.263   9.855   2.707 -0.2006  0.2287 -0.1698
  114MOL0     C15610   1.326   9.976   2.788 -0.2070 -0.1690 -1.0481
  114MOL0     N15611   1.470   9.963   2.768 -0.1540  0.0266  0.0570
  114MOL0     C15612   1.564   9.917   2.864  1.2080  0.2084  0.3604
  114MOL0     C15613   1.686   9.919   2.808 -0.3859 -0.0661 -0.3318
  114MOL0     C15614   1.821   9.876   2.871 -0.2910  1.0685  0.1100
  114MOL0     C15615   1.923   9.990   2.858 -0.5850  0.8166 -0.4692
  114MOL0     C15616   2.037   9.985   2.957 -0.5210  0.0140 -0.5496
  114MOL0     C15617   2.153  10.075   2.907 -0.2503  0.0799  0.5941
  114MOL0     O15618   2.203  10.011   2.797  0.5396 -0.0670  0.2225
  114MOL0     C15619   2.343  10.012   2.784  1.3400  0.1871  0.8163
  114MOL0     C15620   2.413   9.904   2.844 -1.0523 -0.0577 -1.0885
  114MOL0     C15621   2.553   9.896   2.836 -0.8724  0.3067  0.1355
  114MOL0     C15622   2.615   9.776   2.906 -0.3133 -0.4316 -0.0720
  114MOL0     C15623   2.618   9.994   2.758 -0.4302 -0.9202 -0.5948
  114MOL0     C15624   2.764   9.985   2.726 -0.9920  0.0012  0.4712
  114MOL0     O15625   2.833   9.864   2.733 -0.5314  0.5308 -0.3098
  114MOL0     C15626   2.953   9.848   2.665 -0.6950  0.2511 -0.2754
  114MOL0     C15627   2.969   9.732   2.585  0.3766  0.0317 -0.5333
  114MOL0     C15628   3.094   9.709   2.525 -0.3044  0.6575 -0.0623
  114MOL0     C15629   3.208   9.784   2.551 -0.6073  0.4505  0.5090
  114MOL0     O15630   3.323   9.744   2.490 -0.4466 -0.5267  0.7629
  114MOL0     C15631   3.422   9.712   2.587 -0.0628  0.7684  0.0706
  114MOL0     C15632   3.557   9.651   2.532  0.6826 -0.1333  0.2125
  114MOL0     C15633   3.645   9.735   2.438  0.0825 -0.1446 -0.1989
  114MOL0     C15634   3.680   9.872   2.486 -0.6198 -0.2403 -0.4007
  114MOL0     C15635   3.766   9.951   2.388 -0.5378  0.5349 -1.2597
  114MOL0     C15636   3.770  10.106   2.414 -0.2688  0.6594 -0.3409
  114MOL0     C15637   3.891  10.174   2.348 -0.3285 -0.1331 -0.3746
  114MOL0     C15638   3.905  10.314   2.395 -0.9575  0.3076 -0.8573
  114MOL0    Cl15639   4.034  10.410   2.321 -0.2204 -0.0256 -0.0676
  114MOL0     C15640   3.193   9.898   2.635  0.3595 -0.2884  0.1553
  114MOL0     C15641   3.065   9.934   2.691  0.6381  0.8600  0.3826
  114MOL0     O15642   2.811  10.095   2.695 -0.6343  0.3466 -0.0715
  114MOL0     C15643   2.546  10.104   2.710  0.6285 -0.2731 -0.1799
  114MOL0     C15644   2.414  10.110   2.718 -0.3648 -0.1488 -0.4494
  114MOL0     N15645   1.666   9.974   2.679 -0.6800 -0.1979  0.3146
  114MOL0     N15646   1.541  10.002   2.658  0.5359  0.8234  0.0238
  114MOL0     C15647   0.634   9.375   3.065  0.4698 -0.0826 -0.0888
  114MOL0     C15648   0.509   9.369   3.134  1.2122 -0.8595 -0.1842
  114MOL0     C15649   0.154   9.416   3.392 -0.2468  0.9450 -0.0425
  114MOL0     C15650   0.123   9.350   3.508 -0.3431  0.2855  0.0490
  114MOL0     C15651  -0.000   9.363   3.582  0.2472  0.8513 -1.1035
  114MOL0     C15652  -0.097   9.450   3.533 -0.7251  0.2676  0.5157
  114MOL0     O15653  -0.209   9.458   3.606 -0.4090  0.0221 -0.6979
  114MOL0     C15654  -0.333   9.466   3.546 -0.4787 -0.1946  0.8998
  114MOL0     C15655  -0.439   9.475   3.655  0.2168 -0.3242 -0.3990
  114MOL0     C15656  -0.455   9.347   3.738  0.4986  0.7457  0.5008
  114MOL0     C15657  -0.579   9.332   3.824  0.0240  0.2326 -0.0522
  114MOL0     C15658  -0.699   9.279   3.748 -0.3277  0.2423  0.7810
  114MOL0     C15659  -0.799   9.246   3.693  0.3252  0.2126  0.6621
  114MOL0     C15660  -0.079   9.503   3.406 -0.6088 -0.4374 -0.6912
  114MOL0     C15661   0.047   9.485   3.337  0.3907 -0.8438  0.2758
  114MOL0     C15662   0.039   9.542   3.204 -0.9641  0.0395  0.5222
  114MOL0     H15663   0.460   9.703   3.191  0.9764 -0.3920  1.4310
  114MOL0     H15664   0.666   9.721   3.047 -0.0800 -1.0147 -3.1188
  114MOL0     H15665   0.846   9.320   2.916 -0.1248  0.3525 -5.2448
  114MOL0     H15666   0.978   9.409   3.012  2.4120  0.8694 -1.8052
  114MOL0     H15667   1.073   9.381   2.799  0.7192  1.2113  1.0595
  114MOL0     H15668   0.911   9.421   2.729  1.7229  0.8296 -1.1212
  114MOL0     H15669   0.931   9.644   2.784 -0.7074 -1.1286 -0.4266
  114MOL0     H15670   1.075   9.636   2.875 -0.5582 -0.9413 -0.0296
  114MOL0     H15671   1.195   9.595   2.676 -0.2811  1.4570  1.7124
  114MOL0     H15672   1.070   9.527   2.591 -1.6876  0.2794  1.7502
  114MOL0     H15673   0.961   9.764   2.575  0.0721  0.7885  0.0920
  114MOL0     H15674   1.125   9.752   2.509 -0.4180 -2.5167 -0.8594
  114MOL0     H15675   1.090   9.957   2.652 -0.5209  0.6125  2.6216
  114MOL0     H15676   1.062   9.865   2.796  0.8680 -4.1713  1.4123
  114MOL0     H15677   1.303   9.857   2.606  3.3139 -0.7089  1.0675
  114MOL0     H15678   1.295   9.761   2.753 -0.8919  0.1516  0.1725
  114MOL0     H15679   1.284  10.071   2.755 -0.7333  0.0713  0.2616
  114MOL0     H15680   1.304   9.963   2.894  0.5623 -3.1433 -1.1588
  114MOL0     H15681   1.536   9.868   2.956 -2.9701  1.3043 -0.1267
  114MOL0     H15682   1.863   9.793   2.813  0.1103  0.6549  0.9751
  114MOL0     H15683   1.794   9.834   2.968 -1.1807  0.6091 -0.3260
  114MOL0     H15684   1.962   9.989   2.755  1.0642  0.1893  0.1312
  114MOL0     H15685   1.883  10.092   2.858  0.9544  1.4874 -2.2162
  114MOL0     H15686   1.989  10.013   3.051 -1.5182 -1.6005 -0.5500
  114MOL0     H15687   2.082   9.886   2.974  1.0866  0.7058 -0.5215
  114MOL0     H15688   2.114  10.175   2.884 -2.5399 -0.8986 -0.0202
  114MOL0     H15689   2.226  10.093   2.987  0.0160  0.8530  0.1949
  114MOL0     H15690   2.361   9.830   2.903  0.4738  1.6962  2.8152
  114MOL0     H15691   2.709   9.808   2.951 -0.9262  0.2085  0.7628
  114MOL0     H15692   2.636   9.691   2.840 -2.9536 -1.3744  0.1769
  114MOL0     H15693   2.553   9.739   2.988 -2.8221 -0.9934 -2.0697
  114MOL0     H15694   2.879   9.671   2.587  0.0483  0.5084  1.7381
  114MOL0     H15695   3.117   9.628   2.457  3.7618  0.0757  1.7563
  114MOL0     H15696   3.461   9.800   2.639  2.1258  1.6059 -2.7097
  114MOL0     H15697   3.389   9.636   2.658  0.1782  0.6046  0.0106
  114MOL0     H15698   3.620   9.616   2.614  0.2189 -0.2741  0.5105
  114MOL0     H15699   3.519   9.572   2.467 -0.1421 -0.1155  0.6574
  114MOL0     H15700   3.584   9.748   2.349 -0.2503 -0.6479 -0.0533
  114MOL0     H15701   3.732   9.675   2.410 -0.6598 -0.0764 -2.9133
  114MOL0     H15702   3.730   9.863   2.583  3.5539  0.5538 -2.2573
  114MOL0     H15703   3.588   9.929   2.504  0.7845  1.6672  1.1355
  114MOL0     H15704   3.869   9.921   2.407 -0.4189  1.4841 -0.2683
  114MOL0     H15705   3.735   9.923   2.287 -1.1641  2.3378 -1.6042
  114MOL0     H15706   3.762  10.114   2.523 -2.6454  0.0829 -0.4107
  114MOL0     H15707   3.682  10.153   2.369  1.9958  2.8266 -2.8460
  114MOL0     H15708   3.872  10.171   2.241 -0.9959  0.3370 -0.2782
  114MOL0     H15709   3.982  10.122   2.379 -0.9496 -0.0188  1.8293
  114MOL0     H15710   3.920  10.308   2.503 -0.3857  1.2384 -0.8720
  114MOL0     H15711   3.806  10.361   2.387 -2.3927 -2.1122  1.0847
  114MOL0     H15712   3.277   9.963   2.657  2.0027 -2.4998  0.8547
  114MOL0     H15713   3.055  10.026   2.747 -1.5150  1.4180 -0.7934
  114MOL0     H15714   2.597  10.183   2.655  0.4181 -0.9713 -1.4103
  114MOL0     H15715   2.360  10.194   2.675  0.8125  1.3569  0.9049
  114MOL0     H15716   0.689   9.284   3.041  0.4160 -0.1762  0.1382
  114MOL0     H15717   0.464   9.277   3.169  0.3211 -1.4258 -2.6407
  114MOL0     H15718   0.198   9.280   3.542  1.8458  1.3714 -2.2249
  114MOL0     H15719  -0.012   9.319   3.681  0.3857  0.4963 -1.2410
  114MOL0     H15720  -0.347   9.561   3.493  0.9858 -1.2714 -1.5976
  114MOL0     H15721  -0.343   9.393   3.465  1.6706 -0.0017  0.4076
  114MOL0     H15722  -0.536   9.504   3.612  0.4445  2.5781  0.7879
  114MOL0     H15723  -0.409   9.553   3.726 -1.1629 -0.6074  0.5292
  114MOL0     H15724  -0.457   9.267   3.662 -2.1076  0.6898  0.5213
  114MOL0     H15725  -0.370   9.339   3.806  0.6103  1.5002  0.4556
  114MOL0     H15726  -0.616   9.419   3.878 -1.5383  0.1727 -0.9859
  114MOL0     H15727  -0.562   9.248   3.892  0.4076 -0.6166 -1.1696
  114MOL0     H15728  -0.891   9.225   3.641  0.1678  0.8659  0.6687
  114MOL0     H15729  -0.162   9.551   3.356  0.5229  2.6989  0.2022
  114MOL0     H15730   0.124   9.608   3.186  0.2213 -1.2134  1.3501
  114MOL0     H15731   0.041   9.459   3.133  1.7467  0.1870  0.3459
  114MOL0     H15732  -0.059   9.587   3.186 -0.2519  1.4035 -0.0627
  115MOL0     O15733   6.405   7.332   1.266 -0.3144 -1.0340  0.5634
  115MOL0     C15734   6.373   7.265   1.171  0.5462  0.6734 -0.2514
  115MOL0     O15735   6.464   7.187   1.100  0.0314  0.1385 -0.4831
  115MOL0     C15736   6.603   7.173   1.134  0.0824 -1.2365  0.6644
  115MOL0     C15737   6.651   7.178   1.261 -0.2978 -0.0734 -0.5173
  115MOL0     C15738   6.781   7.144   1.292  0.2876  0.1252 -0.1141
  115MOL0     C15739   6.871   7.124   1.189  0.0194 -0.1640  0.0532
  115MOL0     O15740   7.000   7.101   1.233 -0.2297  0.1835 -0.6322
  115MOL0     C15741   7.112   7.106   1.145 -0.2596 -0.3054 -0.0129
  115MOL0     C15742   7.130   7.249   1.086  0.6830  0.1014  0.2492
  115MOL0     C15743   7.089   7.370   1.171 -0.3226  0.7408 -0.9098
  115MOL0     C15744   7.008   7.480   1.097  0.3616 -0.3751  0.1908
  115MOL0     C15745   6.945   7.586   1.185 -0.6767  0.1578 -0.4703
  115MOL0     C15746   6.823   7.518   1.258 -0.5551 -0.4465 -0.3652
  115MOL0     C15747   6.773   7.618   1.352  0.4907 -0.2419 -0.1862
  115MOL0     C15748   6.658   7.556   1.435  0.3974 -0.6359  1.1724
  115MOL0     N15749   6.711   7.487   1.550 -0.8401  0.2015  0.3811
  115MOL0     C15750   6.733   7.556   1.668 -0.1775  0.0795  0.1532
  115MOL0     C15751   6.823   7.482   1.728 -0.2258 -0.1864 -0.0614
  115MOL0     C15752   6.885   7.515   1.863  0.1058  0.4983 -0.1238
  115MOL0     C15753   7.034   7.530   1.865  0.4555  0.1493 -0.4110
  115MOL0     C15754   7.089   7.491   2.007  0.3745  0.4306 -0.6190
  115MOL0     C15755   7.233   7.440   1.996 -0.0735 -1.2280 -0.2335
  115MOL0     O15756   7.322   7.527   1.917 -0.7471  0.9271 -0.7089
  115MOL0     C15757   7.383   7.638   1.974 -0.6581  0.2572 -0.5817
  115MOL0     C15758   7.352   7.688   2.106 -0.6652 -0.1703  0.3833
  115MOL0     C15759   7.428   7.783   2.165 -1.0752  0.7667  0.6375
  115MOL0     C15760   7.389   7.828   2.306  0.8030  0.7776 -0.8576
  115MOL0     C15761   7.542   7.836   2.102  0.6365 -0.7511  0.4750
  115MOL0     C15762   7.637   7.922   2.171  0.5420 -0.0461 -0.2265
  115MOL0     O15763   7.688   8.017   2.098  0.1643 -0.0205  0.5443
  115MOL0     C15764   7.816   8.063   2.131  0.5187  0.0120  0.7931
  115MOL0     C15765   7.939   8.002   2.096  0.8802 -0.0694 -0.5716
  115MOL0     C15766   8.054   8.057   2.137 -0.8507  0.4764  0.3387
  115MOL0     C15767   8.067   8.185   2.204  0.9439  0.3152  0.1409
  115MOL0     O15768   8.181   8.256   2.230 -0.4678 -0.1347 -0.5306
  115MOL0     C15769   8.299   8.178   2.238 -0.9184 -0.4622 -0.2027
  115MOL0     C15770   8.430   8.268   2.274 -0.5638  0.0773  0.0660
  115MOL0     C15771   8.563   8.182   2.252 -0.0028 -0.4998 -0.1054
  115MOL0     C15772   8.680   8.278   2.277 -0.2876  0.1297  0.7302
  115MOL0     C15773   8.813   8.209   2.273  0.6471 -0.0694  0.2963
  115MOL0     C15774   8.921   8.297   2.341  0.0234 -0.3685  0.0049
  115MOL0     C15775   9.058   8.236   2.309 -0.7956  0.6373  0.2522
  115MOL0     C15776   9.162   8.286   2.409 -0.0857  0.7195 -0.3816
  115MOL0    Cl15777   9.310   8.177   2.412 -0.0130 -0.2441  0.1614
  115MOL0     C15778   7.944   8.249   2.233 -0.6917  0.1039  0.6510
  115MOL0     C15779   7.826   8.192   2.183  0.3233 -0.5321 -0.1050
  115MOL0     O15780   7.672   7.898   2.289 -0.0330 -0.4464 -0.3275
  115MOL0     C15781   7.557   7.804   1.959  0.7731 -0.4135 -0.7544
  115MOL0     C15782   7.474   7.711   1.900 -0.6074  0.3729  0.2837
  115MOL0     N15783   6.858   7.373   1.649  0.6573  0.9285 -0.6499
  115MOL0     N15784   6.784   7.378   1.542  0.0929  0.3943 -0.3956
  115MOL0     C15785   6.825   7.105   1.058  0.3549 -0.9240 -0.2402
  115MOL0     C15786   6.691   7.132   1.033 -1.4277 -0.2650 -0.5480
  115MOL0     C15787   6.228   7.260   1.129  0.3828  0.4729  0.6460
  115MOL0     C15788   6.192   7.258   0.992  0.2663 -0.0869 -0.6042
  115MOL0     C15789   6.065   7.277   0.954  0.1472  0.0962 -0.3953
  115MOL0     C15790   5.952   7.274   1.047 -0.6745 -0.3468 -0.5531
  115MOL0     O15791   5.821   7.279   1.020  0.3586  0.0845 -0.1245
  115MOL0     C15792   5.773   7.315   0.893 -0.4617 -1.0825  0.7790
  115MOL0     C15793   5.767   7.189   0.814 -0.3501  0.3316 -0.8293
  115MOL0     C15794   5.746   7.234   0.667 -0.6216 -0.2322 -0.2334
  115MOL0     C15795   5.597   7.275   0.636 -1.5160 -0.1882  0.6463
  115MOL0     C15796   5.496   7.184   0.682  1.1491  0.0469 -1.2707
  115MOL0     C15797   5.404   7.123   0.722 -0.3004  0.1061 -0.1024
  115MOL0     C15798   5.992   7.268   1.179  0.4313  0.2302  0.4660
  115MOL0     C15799   6.124   7.259   1.226 -1.1428 -0.2857 -0.1596
  115MOL0     C15800   6.146   7.245   1.376  0.0559  0.1836 -0.5113
  115MOL0     H15801   6.589   7.197   1.348 -0.8436  2.8714 -1.4289
  115MOL0     H15802   6.818   7.136   1.394 -2.2735  2.6123  1.1823
  115MOL0     H15803   7.100   7.026   1.072 -3.8493 -2.3115  2.5123
  115MOL0     H15804   7.207   7.080   1.193 -0.6503 -0.8057  0.4914
  115MOL0     H15805   7.238   7.267   1.075  0.7229 -0.7440 -0.9926
  115MOL0     H15806   7.080   7.249   0.989  0.9010 -1.8694  0.0879
  115MOL0     H15807   7.028   7.329   1.253 -0.2380  2.1138 -0.1311
  115MOL0     H15808   7.177   7.421   1.212  0.9080  0.1818 -2.7482
  115MOL0     H15809   7.073   7.530   1.025  0.5867  1.2818  1.4729
  115MOL0     H15810   6.927   7.433   1.041 -0.2835  1.2077 -0.2396
  115MOL0     H15811   6.912   7.674   1.128 -0.3315  1.0669  0.6888
  115MOL0     H15812   7.023   7.616   1.255 -1.2121 -1.0830  0.7140
  115MOL0     H15813   6.744   7.496   1.185 -1.2850 -2.1628  0.8690
  115MOL0     H15814   6.856   7.422   1.297  0.0587  0.1152  0.5280
  115MOL0     H15815   6.732   7.700   1.294 -0.8701 -0.2099  0.7592
  115MOL0     H15816   6.858   7.648   1.414  0.8325 -1.6379  0.0683
  115MOL0     H15817   6.586   7.635   1.462 -1.3269 -1.5339 -0.5601
  115MOL0     H15818   6.589   7.484   1.389 -0.5038  0.9639 -0.1155
  115MOL0     H15819   6.684   7.642   1.712 -1.2429  0.4136 -1.5825
  115MOL0     H15820   6.842   7.440   1.931 -0.4569  0.5004 -0.4809
  115MOL0     H15821   6.843   7.605   1.908  2.4934  0.4335  2.5942
  115MOL0     H15822   7.074   7.459   1.792  2.8015  0.5308  0.4216
  115MOL0     H15823   7.056   7.634   1.841 -0.6248  0.3462 -0.5812
  115MOL0     H15824   7.078   7.576   2.075  1.2904 -0.0737  0.1949
  115MOL0     H15825   7.024   7.413   2.046  0.3426 -0.0956 -1.6851
  115MOL0     H15826   7.275   7.423   2.096 -1.1756 -1.7220  0.1630
  115MOL0     H15827   7.220   7.345   1.944 -1.4225 -0.2371 -1.8197
  115MOL0     H15828   7.276   7.642   2.169 -1.3028  0.6091  0.2039
  115MOL0     H15829   7.281   7.835   2.320  0.4287 -4.6013  1.8185
  115MOL0     H15830   7.422   7.931   2.319 -2.2777  1.7539  0.1792
  115MOL0     H15831   7.427   7.752   2.375 -1.7555  0.8217  0.7490
  115MOL0     H15832   7.943   7.909   2.040  0.6685 -0.0448 -0.6283
  115MOL0     H15833   8.142   7.999   2.110 -1.5895 -0.3360 -0.4144
  115MOL0     H15834   8.290   8.106   2.319  0.1041 -3.1196 -2.2795
  115MOL0     H15835   8.317   8.116   2.149 -1.1134 -0.8396  0.0203
  115MOL0     H15836   8.445   8.346   2.199  0.9659 -2.1747 -2.1206
  115MOL0     H15837   8.428   8.303   2.378  0.1634  0.8999 -0.1925
  115MOL0     H15838   8.582   8.152   2.148 -0.3183 -0.5353 -0.1528
  115MOL0     H15839   8.570   8.096   2.319 -1.3444  0.3018  1.1216
  115MOL0     H15840   8.665   8.314   2.379  2.2983 -1.4776  1.7892
  115MOL0     H15841   8.675   8.363   2.208 -2.7121  0.1452  0.8433
  115MOL0     H15842   8.805   8.113   2.325 -3.5493  0.5317  1.1182
  115MOL0     H15843   8.833   8.187   2.167  2.2564  1.0804  0.3169
  115MOL0     H15844   8.894   8.318   2.445  1.9192 -0.9640  0.6688
  115MOL0     H15845   8.928   8.399   2.301  1.3415 -0.7720 -0.8594
  115MOL0     H15846   9.086   8.267   2.208 -1.4698 -0.0331 -0.1487
  115MOL0     H15847   9.051   8.127   2.320 -2.1559  0.8248  1.5834
  115MOL0     H15848   9.116   8.283   2.508  2.2190 -5.3944  1.0011
  115MOL0     H15849   9.198   8.387   2.386  0.4887  0.9507  1.3995
  115MOL0     H15850   7.942   8.346   2.282 -0.7238  1.0264 -1.1080
  115MOL0     H15851   7.732   8.243   2.204 -1.4246 -3.2035 -0.8702
  115MOL0     H15852   7.617   7.861   1.889  0.5250  0.3980 -0.3252
  115MOL0     H15853   7.483   7.694   1.793  1.6823 -1.1119  0.6349
  115MOL0     H15854   6.889   7.066   0.979  1.0034 -2.5794  1.0302
  115MOL0     H15855   6.665   7.120   0.929  2.2492 -0.0603 -1.6317
  115MOL0     H15856   6.266   7.252   0.913  2.3029 -0.8261  1.2592
  115MOL0     H15857   6.039   7.294   0.850 -1.4790  1.1104  0.1431
  115MOL0     H15858   5.678   7.367   0.905  1.2179  1.8896  2.4740
  115MOL0     H15859   5.840   7.387   0.845  0.3561 -2.3938 -0.0960
  115MOL0     H15860   5.687   7.124   0.852  0.3176  0.3207  0.6204
  115MOL0     H15861   5.857   7.127   0.821 -0.2106  0.4860 -1.2212
  115MOL0     H15862   5.807   7.323   0.647 -0.0171 -0.2005  1.5905
  115MOL0     H15863   5.766   7.156   0.594  2.5288 -0.1453  0.4048
  115MOL0     H15864   5.590   7.290   0.527  1.5090 -2.9684 -0.1039
  115MOL0     H15865   5.573   7.374   0.675 -1.0447 -0.7815  2.5551
  115MOL0     H15866   5.312   7.080   0.757 -0.7217  0.6207 -0.5564
  115MOL0     H15867   5.899   7.258   1.235  0.7255  0.0871  0.9350
  115MOL0     H15868   6.249   7.219   1.403 -0.1922 -2.0622 -1.5296
  115MOL0     H15869   6.115   7.328   1.440 -0.4490 -1.6770  1.8025
  115MOL0     H15870   6.087   7.159   1.409  2.1902 -1.0743  0.3066
  116MOL0     O15871   3.860   9.000   1.795 -0.2538  0.6106  0.5387
  116MOL0     C15872   3.893   8.976   1.907 -1.0548 -0.3386 -0.7294
  116MOL0     O15873   3.815   9.001   2.015 -0.5515 -0.6110 -0.4362
  116MOL0     C15874   3.689   9.052   2.013  0.6237 -0.2322  0.8980
  116MOL0     C15875   3.632   9.129   1.918 -0.7925 -0.2768  0.6474
  116MOL0     C15876   3.499   9.168   1.911  0.9552  0.4466  0.0250
  116MOL0     C15877   3.412   9.148   2.018 -0.4586 -0.8193 -0.3475
  116MOL0     O15878   3.285   9.195   2.007 -0.2568  0.4870 -0.3838
  116MOL0     C15879   3.218   9.195   2.123  0.0152  0.1366 -0.0279
  116MOL0     C15880   3.078   9.244   2.082 -0.8614 -0.0509 -0.5212
  116MOL0     C15881   2.977   9.270   2.194 -0.2165  0.5778 -1.3469
  116MOL0     C15882   2.844   9.318   2.142 -0.2992  0.0106  0.7912
  116MOL0     C15883   2.744   9.336   2.259  0.7346  0.1815  0.8032
  116MOL0     C15884   2.605   9.347   2.203 -0.1082 -0.9727 -0.3997
  116MOL0     C15885   2.527   9.449   2.296  0.3654  0.3599  0.0930
  116MOL0     C15886   2.474   9.382   2.430  0.8590  0.2898  0.0645
  116MOL0     N15887   2.583   9.349   2.521 -0.2639  0.5486  0.8334
  116MOL0     C15888   2.668   9.434   2.595 -0.5668 -0.6099 -0.1026
  116MOL0     C15889   2.732   9.362   2.684  0.2088  0.6772  0.6753
  116MOL0     C15890   2.844   9.401   2.779  0.0194 -0.3965 -0.5955
  116MOL0     C15891   2.995   9.387   2.735  0.0636 -0.2770  0.3864
  116MOL0     C15892   3.016   9.245   2.667 -0.8176 -0.3039 -1.5893
  116MOL0     C15893   3.168   9.209   2.659 -0.1121  0.3664  0.4112
  116MOL0     O15894   3.235   9.290   2.566 -0.2697 -0.8131 -0.0323
  116MOL0     C15895   3.359   9.262   2.518  0.1466  0.2943  0.4595
  116MOL0     C15896   3.406   9.344   2.417 -0.5584  0.0225  0.3692
  116MOL0     C15897   3.538   9.329   2.366 -0.5669  0.0221 -0.1937
  116MOL0     C15898   3.569   9.410   2.237  0.6797  0.8003 -0.2478
  116MOL0     C15899   3.635   9.243   2.427  0.6295  0.2626  0.8226
  116MOL0     C15900   3.782   9.226   2.388 -0.5118  0.4518  0.2738
  116MOL0     O15901   3.851   9.115   2.435 -0.0965 -0.2091 -0.0043
  116MOL0     C15902   3.978   9.105   2.392  0.0380 -0.7685 -0.2224
  116MOL0     C15903   4.078   9.091   2.495  0.2307 -0.3984  0.4229
  116MOL0     C15904   4.212   9.074   2.452  0.4428 -0.3869 -0.2011
  116MOL0     C15905   4.241   9.082   2.313  0.7822  0.6151 -0.8599
  116MOL0     O15906   4.371   9.051   2.283 -1.0170 -0.3563 -0.9916
  116MOL0     C15907   4.423   9.061   2.151  0.4240 -0.3611  1.7906
  116MOL0     C15908   4.576   9.045   2.151  0.0285  0.5223 -0.4284
  116MOL0     C15909   4.626   9.088   2.014  0.6454 -0.5921  0.1653
  116MOL0     C15910   4.777   9.056   2.007 -0.4083 -0.3704  0.4856
  116MOL0     C15911   4.818   9.016   1.860 -0.4162  0.0663 -0.1743
  116MOL0     C15912   4.976   9.018   1.860  0.0831 -0.7185  0.4430
  116MOL0     C15913   5.034   8.885   1.904 -0.0945  0.4175  0.0031
  116MOL0     C15914   5.177   8.879   1.867  0.2743  0.1047  0.2699
  116MOL0    Cl15915   5.280   8.979   1.970 -0.0456 -0.7409  0.3357
  116MOL0     C15916   4.142   9.093   2.212 -0.0200  0.2000 -0.5830
  116MOL0     C15917   4.018   9.108   2.254  0.6123  0.2864  0.6001
  116MOL0     O15918   3.829   9.321   2.328  0.1341 -0.6152  0.7515
  116MOL0     C15919   3.583   9.166   2.532 -0.3799  0.0485 -0.4340
  116MOL0     C15920   3.454   9.177   2.584  0.2987 -0.4953  0.4694
  116MOL0     N15921   2.684   9.234   2.661  0.2367 -0.0551  0.0035
  116MOL0     N15922   2.588   9.229   2.574  0.1317  1.1392 -0.3663
  116MOL0     C15923   3.466   9.068   2.119 -0.7337 -0.8018  0.0745
  116MOL0     C15924   3.603   9.024   2.113  0.8571  0.3545 -0.3691
  116MOL0     C15925   4.024   8.905   1.913 -0.4069 -0.1571 -0.6539
  116MOL0     C15926   4.117   8.951   1.817 -1.2522  0.4355  0.7188
  116MOL0     C15927   4.244   8.895   1.812 -0.9664 -0.2788  0.0343
  116MOL0     C15928   4.286   8.800   1.906  0.1623  0.2422 -0.2483
  116MOL0     O15929   4.407   8.741   1.895  0.9772  0.0184 -1.0343
  116MOL0     C15930   4.452   8.710   1.764  0.1564  0.0499 -0.2620
  116MOL0     C15931   4.547   8.581   1.760  0.3196 -1.3646 -1.2147
  116MOL0     C15932   4.678   8.609   1.828  0.1965 -0.0113 -0.0734
  116MOL0     C15933   4.770   8.491   1.861 -0.1569  0.2268 -0.2018
  116MOL0     C15934   4.907   8.513   1.815  0.0335  0.1853 -0.2206
  116MOL0     C15935   5.022   8.530   1.772  0.3627 -0.5530  0.2924
  116MOL0     C15936   4.190   8.761   2.003 -1.1323 -0.1141  0.2236
  116MOL0     C15937   4.059   8.808   2.007  0.8974  0.2292  0.9852
  116MOL0     C15938   3.964   8.742   2.103 -0.1762 -0.7530  1.0397
  116MOL0     H15939   3.692   9.138   1.828  2.1143 -0.4582  2.4223
  116MOL0     H15940   3.454   9.218   1.826 -1.4241 -0.4868  0.6749
  116MOL0     H15941   3.254   9.271   2.193 -1.4633  1.3934 -0.5911
  116MOL0     H15942   3.223   9.095   2.167 -0.1338  0.2269  0.1902
  116MOL0     H15943   3.087   9.338   2.026  0.1658 -0.5968 -1.3308
  116MOL0     H15944   3.033   9.175   2.010 -1.9564 -0.5007  0.5712
  116MOL0     H15945   2.963   9.181   2.255  0.0879  2.4252  1.6089
  116MOL0     H15946   3.015   9.348   2.260 -1.3626 -0.3124  0.4491
  116MOL0     H15947   2.855   9.406   2.078 -1.0017 -0.2809  0.2560
  116MOL0     H15948   2.802   9.244   2.074  0.4844 -0.6760  1.0344
  116MOL0     H15949   2.775   9.430   2.307 -0.7267  0.6062  0.9491
  116MOL0     H15950   2.759   9.257   2.333  0.1187  0.3499  1.1151
  116MOL0     H15951   2.599   9.398   2.106 -5.6300  1.2534  0.7400
  116MOL0     H15952   2.560   9.247   2.199  0.8878 -1.3851 -1.9479
  116MOL0     H15953   2.438   9.492   2.248  0.4500 -0.3543 -0.7457
  116MOL0     H15954   2.592   9.534   2.312  1.1969  0.1185 -1.7014
  116MOL0     H15955   2.408   9.452   2.481 -2.4610 -2.5448 -0.0170
  116MOL0     H15956   2.412   9.294   2.415 -0.3782  0.9717  1.0177
  116MOL0     H15957   2.669   9.541   2.573  0.8203 -1.0009 -2.2940
  116MOL0     H15958   2.819   9.356   2.876 -1.4860  2.3652  0.4088
  116MOL0     H15959   2.835   9.505   2.814 -0.7743  0.3475 -2.8424
  116MOL0     H15960   3.030   9.466   2.669  1.3049 -0.6261  0.5940
  116MOL0     H15961   3.037   9.397   2.836  1.4748  2.2660 -0.3687
  116MOL0     H15962   2.981   9.171   2.740 -2.1703 -0.8293 -2.7239
  116MOL0     H15963   2.962   9.233   2.573 -3.3852 -0.2762 -0.1937
  116MOL0     H15964   3.218   9.222   2.755 -0.1821  3.6123  0.1310
  116MOL0     H15965   3.192   9.104   2.639  3.5406  1.0575  0.5319
  116MOL0     H15966   3.321   9.405   2.385 -0.4168  0.0111 -0.0355
  116MOL0     H15967   3.633   9.351   2.171  1.6710 -0.7304  1.9713
  116MOL0     H15968   3.619   9.504   2.262  0.5321  0.2850  2.2264
  116MOL0     H15969   3.469   9.435   2.199 -1.6962 -3.3880  2.4372
  116MOL0     H15970   4.057   9.082   2.601  1.8513 -0.1388  0.7953
  116MOL0     H15971   4.296   9.065   2.521 -1.6552  0.3975  2.6215
  116MOL0     H15972   4.382   8.988   2.081  0.2872  1.6236 -0.3550
  116MOL0     H15973   4.404   9.161   2.110 -0.3143 -0.8567  0.9084
  116MOL0     H15974   4.621   9.102   2.232 -0.6626 -1.4349  1.4278
  116MOL0     H15975   4.600   8.940   2.169 -1.3824  0.3961  0.8658
  116MOL0     H15976   4.605   9.195   2.011 -1.6244 -0.9892 -0.4403
  116MOL0     H15977   4.572   9.033   1.936  0.2133 -0.0791  0.0923
  116MOL0     H15978   4.806   8.972   2.071  0.2846  0.5298  1.3659
  116MOL0     H15979   4.831   9.147   2.033  0.5401 -0.6506 -0.4202
  116MOL0     H15980   4.777   8.916   1.845 -1.7417  0.5715 -0.1154
  116MOL0     H15981   4.782   9.085   1.783  1.7639  2.0062  0.4433
  116MOL0     H15982   5.019   9.104   1.910  3.9243 -0.6820 -2.4713
  116MOL0     H15983   5.005   9.031   1.755 -0.3421 -2.0876  0.1258
  116MOL0     H15984   4.981   8.807   1.849 -0.7947  0.4840  0.5621
  116MOL0     H15985   5.009   8.865   2.009  0.5079  3.7306  0.8990
  116MOL0     H15986   5.198   8.908   1.764  2.2521 -2.3233 -0.1065
  116MOL0     H15987   5.216   8.777   1.869 -1.8702 -0.7550  1.3762
  116MOL0     H15988   4.162   9.082   2.106 -1.9560 -3.7813 -0.7173
  116MOL0     H15989   3.938   9.115   2.180  1.5010 -0.0158 -0.4084
  116MOL0     H15990   3.647   9.095   2.585 -2.6196  0.2233  2.8235
  116MOL0     H15991   3.420   9.104   2.658  0.5277  0.0622  1.1315
  116MOL0     H15992   3.407   9.041   2.206  0.0362 -0.8985  0.5835
  116MOL0     H15993   3.641   8.956   2.190 -1.4842 -0.9281 -0.2406
  116MOL0     H15994   4.107   9.027   1.740  0.4972 -0.9567 -0.9611
  116MOL0     H15995   4.304   8.903   1.722  1.9458 -1.4044  1.7354
  116MOL0     H15996   4.365   8.681   1.705 -0.3435  0.8832  0.0462
  116MOL0     H15997   4.506   8.797   1.727  0.6107 -0.1647 -0.1066
  116MOL0     H15998   4.562   8.543   1.659  1.1690 -3.6192 -0.3044
  116MOL0     H15999   4.495   8.501   1.815  2.1095 -2.0332 -0.4214
  116MOL0     H16000   4.739   8.679   1.771  1.2825  1.6011  2.8379
  116MOL0     H16001   4.655   8.644   1.929 -1.1921 -0.9698 -0.0263
  116MOL0     H16002   4.729   8.396   1.826  1.7060 -0.9884  0.7763
  116MOL0     H16003   4.787   8.492   1.969  2.4817  0.8175 -0.5563
  116MOL0     H16004   5.120   8.551   1.733  1.8791 -0.9908  3.5187
  116MOL0     H16005   4.231   8.698   2.081  1.9591 -0.2110 -1.3171
  116MOL0     H16006   3.919   8.815   2.171 -4.2303 -0.5395 -1.5222
  116MOL0     H16007   3.887   8.686   2.049  1.5858  0.8039 -3.6244
  116MOL0     H16008   4.021   8.680   2.172  3.4015  1.5178  0.3657
  117MOL0     O16009   6.308   0.208   9.378 -0.0120 -0.0671 -0.2705
  117MOL0     C16010   6.192   0.236   9.412  0.0750  0.1069  0.6431
  117MOL0     O16011   6.119   0.341   9.362 -0.2225  0.2869  0.4985
  117MOL0     C16012   6.180   0.420   9.271  1.3142  0.3061 -0.4212
  117MOL0     C16013   6.256   0.530   9.307 -0.5693 -0.0461  0.3855
  117MOL0     C16014   6.287   0.623   9.207 -0.0507  0.3872  0.0398
  117MOL0     C16015   6.249   0.608   9.074  0.5812  0.0056 -0.0786
  117MOL0     O16016   6.284   0.707   8.980  1.0413  0.6471 -0.2571
  117MOL0     C16017   6.362   0.655   8.870 -1.0812 -0.2593  0.8738
  117MOL0     C16018   6.270   0.639   8.742 -0.4596  0.2262  0.7046
  117MOL0     C16019   6.348   0.642   8.607  0.3145 -0.2956  0.1389
  117MOL0     C16020   6.264   0.634   8.483  0.3439  0.1818  0.3569
  117MOL0     C16021   6.364   0.642   8.367  0.2718 -0.9313  0.2679
  117MOL0     C16022   6.286   0.615   8.240  1.4580 -0.5993 -0.6050
  117MOL0     C16023   6.373   0.613   8.119 -0.3784 -0.3684 -0.2871
  117MOL0     C16024   6.424   0.751   8.077 -0.1101 -0.0645  0.2883
  117MOL0     N16025   6.474   0.725   7.939 -0.1570 -0.0349  0.8484
  117MOL0     C16026   6.606   0.760   7.892  0.3474  0.0281  0.2017
  117MOL0     C16027   6.597   0.741   7.758  0.2053 -0.9923  0.6191
  117MOL0     C16028   6.714   0.766   7.666  0.2703  0.4181 -0.7236
  117MOL0     C16029   6.768   0.635   7.598  0.0161  0.1698 -0.5374
  117MOL0     C16030   6.881   0.666   7.495  0.5871  0.2026 -0.2308
  117MOL0     C16031   6.878   0.540   7.405 -0.0870  0.1062  0.5446
  117MOL0     O16032   7.007   0.526   7.333 -0.5940  0.8149 -0.5731
  117MOL0     C16033   7.029   0.414   7.255 -0.3587  0.1827 -0.2006
  117MOL0     C16034   7.157   0.437   7.198 -0.1558  0.3229 -1.5431
  117MOL0     C16035   7.215   0.340   7.112  0.5380  0.6009  1.3012
  117MOL0     C16036   7.350   0.373   7.049  0.9539  0.1568  0.0506
  117MOL0     C16037   7.133   0.213   7.078 -0.3013 -0.4281 -0.0868
  117MOL0     C16038   7.174   0.104   6.976 -0.1983  0.7749  0.1749
  117MOL0     O16039   7.080   0.011   6.934 -0.1060 -0.0229  0.3960
  117MOL0     C16040   7.120  -0.120   6.900 -0.0858  0.2425 -0.0313
  117MOL0     C16041   7.016  -0.203   6.853 -1.0881 -0.7235 -0.3179
  117MOL0     C16042   7.050  -0.322   6.779  0.9965 -0.2373 -1.3986
  117MOL0     C16043   7.178  -0.374   6.784 -0.2772 -0.5672  0.0846
  117MOL0     O16044   7.192  -0.490   6.712 -1.1420 -0.6828  0.5233
  117MOL0     C16045   7.322  -0.514   6.649 -0.5032  0.3863 -0.3422
  117MOL0     C16046   7.307  -0.613   6.530  0.4879  0.2774 -0.3945
  117MOL0     C16047   7.439  -0.658   6.461  0.8900  0.4564  0.0690
  117MOL0     C16048   7.471  -0.566   6.346 -0.9792  0.2652 -0.2301
  117MOL0     C16049   7.581  -0.608   6.245 -0.0533 -0.6712  0.7072
  117MOL0     C16050   7.712  -0.612   6.312 -0.3457 -0.2845 -0.3355
  117MOL0     C16051   7.823  -0.623   6.206  1.1457  0.2267 -0.6144
  117MOL0     C16052   7.962  -0.654   6.272 -0.4569  0.1909 -0.4404
  117MOL0    Cl16053   8.066  -0.751   6.167 -0.3743 -0.1190 -0.1477
  117MOL0     C16054   7.283  -0.309   6.860  0.1298 -0.6803  0.2865
  117MOL0     C16055   7.255  -0.175   6.904  0.7481  0.0114 -0.2360
  117MOL0     O16056   7.290   0.099   6.954 -0.2922 -0.0198  0.0561
  117MOL0     C16057   7.007   0.198   7.140 -0.7684 -0.9477  0.0569
  117MOL0     C16058   6.955   0.296   7.226 -0.3362 -0.0299  0.2514
  117MOL0     N16059   6.465   0.702   7.726  0.0370 -0.5487  0.6836
  117MOL0     N16060   6.392   0.686   7.830 -0.1092  1.5259 -0.6488
  117MOL0     C16061   6.160   0.499   9.044 -0.6186 -1.0811 -0.0635
  117MOL0     C16062   6.136   0.405   9.141  0.4323  0.4686  0.3777
  117MOL0     C16063   6.134   0.164   9.525 -0.7162 -0.0558 -0.1923
  117MOL0     C16064   5.998   0.168   9.551 -0.2430  0.6317 -0.0208
  117MOL0     C16065   5.936   0.098   9.655 -1.0118 -0.3520  0.6056
  117MOL0     C16066   6.012   0.018   9.740 -0.1665  0.2167 -0.1037
  117MOL0     O16067   5.943  -0.056   9.830 -0.2266  0.2246  0.1844
  117MOL0     C16068   5.993  -0.032   9.966  0.0309  0.4122  0.2643
  117MOL0     C16069   5.899  -0.125  10.044 -0.6489 -0.0888 -0.0930
  117MOL0     C16070   5.919  -0.277  10.019  0.1882  0.5720  0.0626
  117MOL0     C16071   5.805  -0.359  10.079  0.7259 -0.0746  0.9163
  117MOL0     C16072   5.686  -0.357   9.993  0.0828  0.2071  0.0338
  117MOL0     C16073   5.596  -0.346   9.915  0.1453  0.4186 -0.0740
  117MOL0     C16074   6.152   0.029   9.732 -0.3602  0.3491  0.6768
  117MOL0     C16075   6.215   0.105   9.622  0.7142  0.2359 -0.6399
  117MOL0     C16076   6.376   0.096   9.617  0.1334 -0.0422  0.1001
  117MOL0     H16077   6.295   0.544   9.407  0.5033 -1.8239  0.2582
  117MOL0     H16078   6.341   0.716   9.221  0.5142 -0.1409  1.6046
  117MOL0     H16079   6.394   0.554   8.897 -3.8797 -1.8199 -1.0315
  117MOL0     H16080   6.453   0.709   8.842 -0.7215 -0.2327  2.0360
  117MOL0     H16081   6.214   0.548   8.764 -1.0280  1.0842  3.1281
  117MOL0     H16082   6.204   0.726   8.745 -1.1890 -0.1926 -1.5375
  117MOL0     H16083   6.379   0.747   8.596 -0.7234 -0.0342 -0.4449
  117MOL0     H16084   6.430   0.569   8.608 -0.1701 -0.8617 -0.5875
  117MOL0     H16085   6.197   0.549   8.466 -1.1575  1.7171 -2.1656
  117MOL0     H16086   6.189   0.714   8.479 -1.6392 -1.5345  1.0681
  117MOL0     H16087   6.440   0.563   8.377  1.5002  0.3404  1.4353
  117MOL0     H16088   6.404   0.743   8.358  0.6685 -1.2885 -3.1200
  117MOL0     H16089   6.227   0.523   8.245 -0.5962  0.6353 -0.7623
  117MOL0     H16090   6.211   0.695   8.237  1.0981 -0.9520 -1.6211
  117MOL0     H16091   6.315   0.566   8.039 -2.5976  0.8421  0.5260
  117MOL0     H16092   6.459   0.550   8.142 -0.5808 -0.0277  1.5847
  117MOL0     H16093   6.344   0.825   8.067 -1.2117 -1.5109 -3.1861
  117MOL0     H16094   6.508   0.776   8.143 -0.4405  2.9821 -0.3108
  117MOL0     H16095   6.694   0.780   7.952 -0.0759 -1.1896  1.2973
  117MOL0     H16096   6.795   0.817   7.720 -0.8679 -0.0057  1.4982
  117MOL0     H16097   6.670   0.841   7.599 -2.5132 -0.8881 -0.5082
  117MOL0     H16098   6.807   0.570   7.677 -0.6327 -0.3488 -0.6360
  117MOL0     H16099   6.686   0.583   7.548  0.4680  0.1330 -1.2536
  117MOL0     H16100   6.856   0.759   7.443  0.5035  1.0898  1.3170
  117MOL0     H16101   6.982   0.670   7.537  0.2403 -1.2107  0.8401
  117MOL0     H16102   6.885   0.458   7.478  2.5441  0.7234  1.0917
  117MOL0     H16103   6.790   0.533   7.340 -1.4981 -1.6071  2.4825
  117MOL0     H16104   7.215   0.527   7.217  2.0410 -1.0483 -1.4263
  117MOL0     H16105   7.389   0.475   7.047  4.4785 -1.0349  0.8254
  117MOL0     H16106   7.351   0.343   6.944  0.3629  4.0989 -1.2403
  117MOL0     H16107   7.430   0.317   7.098  1.5484  0.0098 -1.0543
  117MOL0     H16108   6.914  -0.167   6.856 -0.6398  0.5060  0.5972
  117MOL0     H16109   6.974  -0.375   6.724 -2.7314  3.4250 -0.2513
  117MOL0     H16110   7.371  -0.422   6.614  1.6003 -0.4373  0.2493
  117MOL0     H16111   7.388  -0.552   6.728  0.1481 -0.9799 -1.4962
  117MOL0     H16112   7.263  -0.703   6.574 -1.2192 -0.9001 -4.1113
  117MOL0     H16113   7.240  -0.567   6.457 -3.7079 -2.6921  1.1758
  117MOL0     H16114   7.432  -0.754   6.410  0.3244  0.7326 -0.3767
  117MOL0     H16115   7.517  -0.671   6.537 -0.0587 -0.1956  0.9530
  117MOL0     H16116   7.472  -0.462   6.381 -0.9967  0.2735 -0.2528
  117MOL0     H16117   7.377  -0.570   6.289 -2.1583  0.4220  1.5956
  117MOL0     H16118   7.565  -0.713   6.218  0.6540 -0.6840  0.3245
  117MOL0     H16119   7.597  -0.543   6.159  2.9111 -3.2809 -0.9226
  117MOL0     H16120   7.709  -0.697   6.380  1.0761 -0.1584 -0.0743
  117MOL0     H16121   7.720  -0.519   6.370 -1.7234 -2.1134  3.0204
  117MOL0     H16122   7.822  -0.525   6.158 -0.0452  0.2360 -0.6044
  117MOL0     H16123   7.788  -0.705   6.142 -0.9181 -1.8215  2.8434
  117MOL0     H16124   7.950  -0.704   6.368  1.2569  0.1583 -0.2171
  117MOL0     H16125   8.008  -0.555   6.280 -2.0260  1.3296 -3.6959
  117MOL0     H16126   7.387  -0.341   6.863  0.3645  0.1198  0.9480
  117MOL0     H16127   7.344  -0.130   6.947 -0.1988  0.7348  1.0309
  117MOL0     H16128   6.962   0.101   7.121 -0.9229 -0.5630 -1.7244
  117MOL0     H16129   6.871   0.257   7.284  0.2554 -0.0578  1.1154
  117MOL0     H16130   6.125   0.501   8.942  1.7224 -0.9314 -0.9411
  117MOL0     H16131   6.073   0.319   9.123  0.5797 -0.2696  2.9598
  117MOL0     H16132   5.925   0.212   9.483 -1.0651  1.1014  1.1296
  117MOL0     H16133   5.828   0.092   9.668 -1.2260  0.7586 -0.5158
  117MOL0     H16134   6.097  -0.053   9.992 -0.3316  0.3201  1.7254
  117MOL0     H16135   5.978   0.073   9.993  1.0373  1.2772 -2.2554
  117MOL0     H16136   5.802  -0.088  10.010 -0.3767  0.4178 -0.3199
  117MOL0     H16137   5.906  -0.101  10.151 -0.8785  2.3012 -0.5701
  117MOL0     H16138   5.944  -0.305   9.916 -3.2807  1.3270 -1.1229
  117MOL0     H16139   6.005  -0.312  10.076 -0.1285 -2.1269 -0.9579
  117MOL0     H16140   5.771  -0.322  10.176  0.3583 -1.3645  1.3042
  117MOL0     H16141   5.840  -0.459  10.107  0.4961 -1.1534 -2.2107
  117MOL0     H16142   5.509  -0.346   9.853  1.5227  2.1069 -2.1741
  117MOL0     H16143   6.208  -0.030   9.805 -0.7926  1.1738  1.6898
  117MOL0     H16144   6.405   0.046   9.710  1.0236 -3.9335 -2.0668
  117MOL0     H16145   6.402   0.039   9.528  1.5802  0.4050  0.2086
  117MOL0     H16146   6.422   0.194   9.600 -0.2290 -0.1809 -1.8498
  118MOL0     O16147   0.050   4.204  11.311  0.3118  0.5704  0.2039
  118MOL0     C16148   0.174   4.208  11.329  0.0292  0.1211  0.3216
  118MOL0     O16149   0.267   4.268  11.253  0.3101 -0.4924  0.8583
  118MOL0     C16150   0.224   4.326  11.134  0.5644  0.1117 -0.5042
  118MOL0     C16151   0.301   4.308  11.017  0.3571  0.5547 -1.0554
  118MOL0     C16152   0.271   4.375  10.903  0.2332  0.6206 -1.2037
  118MOL0     C16153   0.160   4.468  10.889 -0.8188 -0.5508  0.1535
  118MOL0     O16154   0.129   4.551  10.782 -0.4250  0.3113  0.9200
  118MOL0     C16155   0.164   4.503  10.654 -0.0095  0.2475  0.0987
  118MOL0     C16156   0.222   4.599  10.554 -0.2348 -0.3075  0.0694
  118MOL0     C16157   0.145   4.730  10.536 -0.0054  0.1335 -0.3777
  118MOL0     C16158   0.210   4.820  10.431 -0.5019  0.3362 -0.0056
  118MOL0     C16159   0.157   4.966  10.443 -0.6311  0.0218  0.6273
  118MOL0     C16160   0.248   5.064  10.380 -1.0020 -0.5146 -0.4480
  118MOL0     C16161   0.268   5.045  10.226 -0.0360  0.3119 -0.3537
  118MOL0     C16162   0.370   5.139  10.151 -0.3633  0.3805  0.3424
  118MOL0     N16163   0.501   5.147  10.209  0.1488 -0.3306 -0.2645
  118MOL0     C16164   0.620   5.081  10.169 -0.6477 -1.1559 -0.2420
  118MOL0     C16165   0.728   5.142  10.222  0.1450  0.8352  0.0057
  118MOL0     C16166   0.875   5.116  10.213  0.2987  0.0440 -0.2459
  118MOL0     C16167   0.938   5.078  10.350  0.5798  0.1821 -0.2191
  118MOL0     C16168   0.893   4.945  10.417  0.0564  1.1655 -0.3933
  118MOL0     C16169   0.988   4.929  10.536  0.8240 -0.6215  0.5911
  118MOL0     O16170   0.987   4.793  10.589 -0.2322 -0.4154  0.3962
  118MOL0     C16171   1.071   4.771  10.705 -0.8906 -0.1578  0.7101
  118MOL0     C16172   1.208   4.764  10.675 -0.8354  0.1674 -0.4217
  118MOL0     C16173   1.306   4.736  10.775 -0.3067  0.7211 -1.1082
  118MOL0     C16174   1.451   4.735  10.736 -1.0859  0.0671 -0.2559
  118MOL0     C16175   1.262   4.721  10.908 -0.1835 -0.0230 -0.4072
  118MOL0     C16176   1.356   4.700  11.023  1.1394 -0.0702  0.2952
  118MOL0     O16177   1.447   4.591  11.010  0.3665  0.4470 -0.5648
  118MOL0     C16178   1.559   4.585  11.091 -1.3428 -0.1194  0.5484
  118MOL0     C16179   1.622   4.463  11.119  1.0338 -0.6694 -0.4466
  118MOL0     C16180   1.737   4.443  11.178 -0.1954  0.8496  0.1405
  118MOL0     C16181   1.812   4.550  11.232 -0.3772 -0.6988 -0.1256
  118MOL0     O16182   1.932   4.530  11.296 -0.4420  0.0699  0.4163
  118MOL0     C16183   1.955   4.426  11.383 -0.3957 -0.0840 -0.4438
  118MOL0     C16184   2.084   4.444  11.479 -0.3334 -0.1124  0.3465
  118MOL0     C16185   2.213   4.432  11.403  0.0120  0.6281 -0.0929
  118MOL0     C16186   2.324   4.362  11.484 -0.5144 -0.2872  0.0384
  118MOL0     C16187   2.456   4.337  11.401 -0.0650 -0.3157  0.4048
  118MOL0     C16188   2.587   4.357  11.482 -0.0148  0.0776 -1.4741
  118MOL0     C16189   2.714   4.359  11.394  0.2456 -0.1693 -0.4898
  118MOL0     C16190   2.722   4.473  11.299  0.4323  0.1077 -0.5767
  118MOL0    Cl16191   2.695   4.628  11.380 -0.4694  0.0175 -0.4623
  118MOL0     C16192   1.759   4.679  11.198 -0.3407  0.5410  0.7928
  118MOL0     C16193   1.634   4.695  11.131  0.1098 -0.1738  0.3533
  118MOL0     O16194   1.335   4.758  11.131  0.3231  0.6308  0.1710
  118MOL0     C16195   1.122   4.736  10.938  0.2119 -0.8880  0.7060
  118MOL0     C16196   1.029   4.764  10.837 -0.0413 -0.3808 -0.1893
  118MOL0     N16197   0.674   5.231  10.308  0.2444 -1.1489  0.6228
  118MOL0     N16198   0.548   5.244  10.291  0.0121  0.1632 -0.3674
  118MOL0     C16199   0.072   4.473  11.001  0.3138  0.2196  0.6178
  118MOL0     C16200   0.109   4.408  11.121 -0.5098 -1.0432  0.0763
  118MOL0     C16201   0.225   4.148  11.454 -0.3059  0.0947 -0.5870
  118MOL0     C16202   0.363   4.136  11.471 -0.3684  0.2901  0.2689
  118MOL0     C16203   0.420   4.094  11.592 -0.1814 -0.7087  0.0977
  118MOL0     C16204   0.343   4.047  11.702 -0.0230 -0.6398 -0.3342
  118MOL0     O16205   0.382   3.996  11.826 -0.3474 -0.4888 -0.6056
  118MOL0     C16206   0.524   3.968  11.839 -0.1475 -0.4407 -0.3099
  118MOL0     C16207   0.610   4.076  11.916 -0.6555 -0.0752  0.1147
  118MOL0     C16208   0.541   4.099  12.058  0.4674  0.3005  0.2638
  118MOL0     C16209   0.612   4.208  12.141  0.2954  0.2613  0.0123
  118MOL0     C16210   0.547   4.215  12.273  0.8851  0.4874 -0.2019
  118MOL0     C16211   0.485   4.222  12.382 -0.4219  0.7348  0.1461
  118MOL0     C16212   0.209   4.080  11.699 -0.4165  0.0401 -0.3895
  118MOL0     C16213   0.151   4.121  11.579  0.0407 -1.3803 -0.3472
  118MOL0     C16214  -0.004   4.126  11.579 -0.5467 -0.0704  1.1796
  118MOL0     H16215   0.389   4.246  11.008  0.3924  0.5874 -0.9447
  118MOL0     H16216   0.333   4.368  10.814 -0.2107 -1.3589 -1.3896
  118MOL0     H16217   0.069   4.466  10.615  1.0287 -0.4354 -1.9481
  118MOL0     H16218   0.230   4.416  10.648 -2.1810 -1.4945  0.0361
  118MOL0     H16219   0.322   4.619  10.592  0.4478 -4.5721  0.9699
  118MOL0     H16220   0.214   4.558  10.453 -4.1118  0.9540 -0.3148
  118MOL0     H16221   0.041   4.714  10.505  0.4650 -1.3639 -1.2332
  118MOL0     H16222   0.143   4.788  10.629 -0.9852  2.5931 -1.8236
  118MOL0     H16223   0.320   4.816  10.436  0.0154  3.3211 -4.2286
  118MOL0     H16224   0.176   4.781  10.335  0.8731 -1.3217  0.1290
  118MOL0     H16225   0.153   4.988  10.550 -0.4039 -2.1430  1.1348
  118MOL0     H16226   0.058   4.965  10.398 -0.7446 -0.4905  0.8823
  118MOL0     H16227   0.203   5.163  10.389 -0.3845 -0.3014  0.3993
  118MOL0     H16228   0.343   5.057  10.435 -0.3650  1.6078 -1.1495
  118MOL0     H16229   0.177   5.050  10.166 -0.9934 -0.6182  0.9572
  118MOL0     H16230   0.311   4.946  10.211  2.4872  1.2179  0.3905
  118MOL0     H16231   0.375   5.108  10.046 -0.1188 -0.9054  0.7129
  118MOL0     H16232   0.331   5.241  10.150  1.3243  1.1160  2.4623
  118MOL0     H16233   0.620   5.002  10.094 -0.0699  1.2044 -2.9246
  118MOL0     H16234   0.931   5.206  10.183 -0.0801  1.2912  2.4585
  118MOL0     H16235   0.891   5.036  10.141 -0.0308  1.4419 -1.9358
  118MOL0     H16236   1.047   5.077  10.346  0.5672 -1.1030 -0.8085
  118MOL0     H16237   0.922   5.154  10.427 -1.8548 -1.2281  0.7844
  118MOL0     H16238   0.791   4.944  10.455  0.5312  0.5794  0.9222
  118MOL0     H16239   0.918   4.864  10.347  3.6975  2.1453 -0.4174
  118MOL0     H16240   1.089   4.958  10.507  1.0177 -1.4469  0.4313
  118MOL0     H16241   0.965   5.002  10.615  0.8017  1.2391 -1.0571
  118MOL0     H16242   1.233   4.774  10.570 -0.2121 -0.7704 -0.3720
  118MOL0     H16243   1.485   4.640  10.692  1.2831  0.8727 -0.3155
  118MOL0     H16244   1.528   4.758  10.811  0.1668  0.1411 -1.5147
  118MOL0     H16245   1.471   4.809  10.658  2.1576  2.0623  2.1801
  118MOL0     H16246   1.559   4.382  11.083 -0.1126 -0.1174  0.2459
  118MOL0     H16247   1.784   4.346  11.190 -2.1808 -0.1068  0.5968
  118MOL0     H16248   1.866   4.415  11.445 -0.0795 -1.4471 -0.2100
  118MOL0     H16249   1.959   4.328  11.334  1.2003  0.0244 -0.5749
  118MOL0     H16250   2.086   4.539  11.532 -2.3387  0.8246 -1.1592
  118MOL0     H16251   2.075   4.361  11.551 -0.9103 -0.4338 -0.0914
  118MOL0     H16252   2.240   4.534  11.372  1.5627  0.0158 -0.8735
  118MOL0     H16253   2.201   4.381  11.307  1.4741 -2.1637  1.1145
  118MOL0     H16254   2.290   4.263  11.514 -0.5442  0.3787  2.4315
  118MOL0     H16255   2.348   4.426  11.570 -1.3501 -2.3430  1.9068
  118MOL0     H16256   2.455   4.241  11.350 -2.3991 -0.8157  1.2558
  118MOL0     H16257   2.458   4.411  11.320 -0.5220 -0.3825  0.3329
  118MOL0     H16258   2.585   4.277  11.556  3.6328  0.3769 -0.8665
  118MOL0     H16259   2.581   4.455  11.531 -3.5376 -0.3092 -0.8688
  118MOL0     H16260   2.712   4.262  11.343  1.5304 -0.9363  0.8100
  118MOL0     H16261   2.808   4.355  11.450 -0.6992 -1.4472  1.0898
  118MOL0     H16262   2.636   4.465  11.232 -1.7081  0.6966  1.9739
  118MOL0     H16263   2.813   4.460  11.240 -0.9889 -0.8541 -2.6546
  118MOL0     H16264   1.827   4.760  11.224  0.2558  0.0679  0.7474
  118MOL0     H16265   1.598   4.796  11.111  0.0992 -0.4977 -1.4218
  118MOL0     H16266   1.071   4.733  11.033 -1.0937  2.7291  0.2877
  118MOL0     H16267   0.923   4.771  10.860  0.5286  1.1639  2.3801
  118MOL0     H16268  -0.024   4.524  10.995 -0.8821 -1.9835 -0.4784
  118MOL0     H16269   0.035   4.413  11.200  2.0904  2.6722  2.6411
  118MOL0     H16270   0.436   4.147  11.391 -1.2692 -1.0284 -0.7852
  118MOL0     H16271   0.526   4.088  11.613 -0.5037 -1.2978  1.6636
  118MOL0     H16272   0.529   3.874  11.895 -1.4443 -2.3239 -3.1104
  118MOL0     H16273   0.571   3.948  11.742 -1.5925  1.2756 -1.4528
  118MOL0     H16274   0.614   4.176  11.873 -2.1174 -0.4050 -0.8353
  118MOL0     H16275   0.710   4.035  11.935 -1.2812 -1.2779  0.9933
  118MOL0     H16276   0.438   4.132  12.041  1.3157  3.2560  0.1749
  118MOL0     H16277   0.541   4.002  12.108 -1.1865 -1.6491 -3.1456
  118MOL0     H16278   0.582   4.304  12.097 -0.4976 -0.8832 -2.0679
  118MOL0     H16279   0.718   4.189  12.158  0.1167 -2.2018 -1.3518
  118MOL0     H16280   0.423   4.246  12.465  0.0459 -0.6802  0.9347
  118MOL0     H16281   0.155   4.058  11.790  1.4601 -3.3466  0.0571
  118MOL0     H16282  -0.040   4.104  11.479 -3.2982  0.6368  1.9412
  118MOL0     H16283  -0.049   4.068  11.660 -0.9115 -1.4835  0.0052
  118MOL0     H16284  -0.026   4.229  11.607 -0.7158  0.2713 -0.1701
  119MOL0     O16285   0.259   8.558   4.660 -0.5006 -1.0673 -0.1455
  119MOL0     C16286   0.207   8.541   4.769 -0.1327  0.1637  0.1637
  119MOL0     O16287   0.227   8.433   4.848  0.2205  0.3033  0.3632
  119MOL0     C16288   0.310   8.327   4.812  0.6691 -1.0764 -1.2403
  119MOL0     C16289   0.426   8.320   4.725  0.7471 -0.7245  0.4724
  119MOL0     C16290   0.505   8.208   4.720 -0.7877 -0.8225 -0.7902
  119MOL0     C16291   0.461   8.092   4.788 -0.2984  0.8310  0.2611
  119MOL0     O16292   0.539   7.976   4.768  0.8229 -1.0292 -0.0611
  119MOL0     C16293   0.457   7.862   4.729 -0.4568  0.0222 -0.1291
  119MOL0     C16294   0.532   7.732   4.734 -0.0465  0.2396  0.3884
  119MOL0     C16295   0.671   7.745   4.674 -0.7519  0.2493  0.8295
  119MOL0     C16296   0.750   7.617   4.734  0.0155 -0.6714  0.1912
  119MOL0     C16297   0.858   7.569   4.635  0.0425 -0.0769 -0.3225
  119MOL0     C16298   0.788   7.503   4.509 -0.9446  0.0736 -0.0127
  119MOL0     C16299   0.878   7.459   4.388 -0.6396 -0.1168  0.5624
  119MOL0     C16300   0.992   7.360   4.422 -0.3033  1.1374 -0.4737
  119MOL0     N16301   0.931   7.234   4.476 -0.0782 -0.5197 -0.5415
  119MOL0     C16302   0.936   7.186   4.602  0.4318 -0.0917 -1.3056
  119MOL0     C16303   0.856   7.088   4.613 -0.0579  0.3423  0.4900
  119MOL0     C16304   0.829   7.004   4.735  0.4115  0.1617  0.0997
  119MOL0     C16305   0.736   7.073   4.834  0.7671  0.0295 -0.6250
  119MOL0     C16306   0.591   7.067   4.781 -0.7130 -0.2899 -0.6402
  119MOL0     C16307   0.480   7.039   4.887 -0.0506  0.0693 -0.2728
  119MOL0     O16308   0.472   7.145   4.981  0.1247 -0.1743  0.1316
  119MOL0     C16309   0.410   7.263   4.948 -0.1471  0.5240 -0.3788
  119MOL0     C16310   0.365   7.293   4.823 -0.9517 -0.6519 -0.0427
  119MOL0     C16311   0.293   7.410   4.789 -0.0919 -0.3008  0.7047
  119MOL0     C16312   0.254   7.432   4.644 -0.4323 -0.1271 -0.6492
  119MOL0     C16313   0.280   7.507   4.898  0.4859 -0.8391 -0.2328
  119MOL0     C16314   0.210   7.643   4.884  1.1212 -0.6968 -0.2424
  119MOL0     O16315   0.180   7.706   5.001 -0.1974 -0.7059  0.3878
  119MOL0     C16316   0.109   7.828   5.002 -0.1100  0.9200 -0.1851
  119MOL0     C16317   0.146   7.907   5.112  0.6892  0.6336 -0.2223
  119MOL0     C16318   0.083   8.037   5.135  0.7993 -0.5074  0.7336
  119MOL0     C16319  -0.005   8.082   5.036 -0.8220  0.7545 -0.4597
  119MOL0     O16320  -0.070   8.194   5.061  0.3559  0.2058 -0.1709
  119MOL0     C16321  -0.085   8.304   4.979 -0.6860 -0.4357  0.2534
  119MOL0     C16322  -0.222   8.378   4.998 -0.4820  1.1055 -0.8572
  119MOL0     C16323  -0.235   8.446   5.136  0.5912  0.3345  0.1681
  119MOL0     C16324  -0.363   8.539   5.129  0.0905 -0.4565  0.3618
  119MOL0     C16325  -0.427   8.583   5.263 -0.0317 -0.1928  0.1988
  119MOL0     C16326  -0.579   8.636   5.254  0.3843 -0.5333 -0.6484
  119MOL0     C16327  -0.681   8.541   5.201  0.7439 -0.5901  0.0029
  119MOL0     C16328  -0.823   8.603   5.223 -0.0171 -1.3486  0.3669
  119MOL0    Cl16329  -0.954   8.525   5.131  0.1190 -0.0035  0.1589
  119MOL0     C16330  -0.047   7.995   4.933  0.2903 -0.3901  0.2075
  119MOL0     C16331   0.004   7.873   4.915  0.2042 -0.0863  0.6510
  119MOL0     O16332   0.179   7.686   4.777  0.6328  1.0603  0.0832
  119MOL0     C16333   0.326   7.481   5.027  0.0740  0.1350  0.4618
  119MOL0     C16334   0.383   7.363   5.049 -0.2431  0.5002  0.5979
  119MOL0     N16335   0.793   7.067   4.496 -0.8176 -0.1751  0.3067
  119MOL0     N16336   0.840   7.158   4.410  0.4972  0.0894 -0.1722
  119MOL0     C16337   0.366   8.089   4.886 -0.2142 -0.9744 -0.2056
  119MOL0     C16338   0.291   8.211   4.891 -0.8698 -0.5037 -0.6738
  119MOL0     C16339   0.109   8.633   4.832  1.1776  0.2759 -0.1002
  119MOL0     C16340   0.120   8.658   4.972 -0.8901  0.2470  0.2516
  119MOL0     C16341   0.028   8.744   5.040 -0.6403 -0.6130  0.4983
  119MOL0     C16342  -0.074   8.812   4.973  0.1981 -0.1319 -0.2015
  119MOL0     O16343  -0.155   8.894   5.047  0.4521  0.2982 -0.0329
  119MOL0     C16344  -0.241   8.976   4.956  0.0158  0.6527 -0.6618
  119MOL0     C16345  -0.310   9.085   5.049  0.1892  0.0669  0.4737
  119MOL0     C16346  -0.424   9.030   5.142 -1.0740 -0.0664 -0.5443
  119MOL0     C16347  -0.367   9.007   5.280  1.3395 -0.1290 -0.1578
  119MOL0     C16348  -0.474   8.969   5.375  0.4973 -0.8138 -0.3220
  119MOL0     C16349  -0.545   8.910   5.464 -0.3869  0.5951 -0.2539
  119MOL0     C16350  -0.082   8.783   4.834  0.4477 -0.4858 -0.0124
  119MOL0     C16351   0.008   8.693   4.761  0.1662 -0.4842  1.0038
  119MOL0     C16352  -0.018   8.677   4.615 -0.7998  0.1491  0.2842
  119MOL0     H16353   0.441   8.404   4.658  2.0119 -0.6452  0.8288
  119MOL0     H16354   0.601   8.195   4.673  0.2976  1.4311  0.6018
  119MOL0     H16355   0.420   7.863   4.626 -1.8424  2.4523  0.3110
  119MOL0     H16356   0.384   7.846   4.809 -1.3885 -1.8807 -1.2704
  119MOL0     H16357   0.537   7.700   4.839 -2.0270 -1.4472  0.0377
  119MOL0     H16358   0.470   7.653   4.690 -1.0122  0.4688  1.3037
  119MOL0     H16359   0.660   7.740   4.565  1.0209 -0.3338  0.6373
  119MOL0     H16360   0.728   7.835   4.700  1.4451 -0.8235 -0.0273
  119MOL0     H16361   0.798   7.636   4.830 -0.5359  2.1140 -0.0035
  119MOL0     H16362   0.672   7.542   4.753 -1.6495  0.8501 -0.3296
  119MOL0     H16363   0.920   7.489   4.677 -0.6377 -0.5286 -0.1501
  119MOL0     H16364   0.923   7.655   4.616 -0.8101  0.5917 -0.2774
  119MOL0     H16365   0.722   7.421   4.539  1.9583 -1.1782  3.8367
  119MOL0     H16366   0.719   7.573   4.461 -1.2700 -0.7799 -0.8156
  119MOL0     H16367   0.916   7.543   4.329 -1.2922 -0.7893 -0.8573
  119MOL0     H16368   0.804   7.415   4.320  0.2532  1.4653 -1.5458
  119MOL0     H16369   1.050   7.336   4.333 -0.6437  2.0317 -0.9493
  119MOL0     H16370   1.059   7.412   4.491 -1.5593  2.3310 -0.1054
  119MOL0     H16371   1.008   7.218   4.677  1.7534  0.7795 -2.8922
  119MOL0     H16372   0.927   6.984   4.779  0.4949  1.4689  0.5450
  119MOL0     H16373   0.795   6.905   4.702  0.9058  0.5224 -1.6125
  119MOL0     H16374   0.759   7.015   4.923 -1.0718  1.7377  1.0458
  119MOL0     H16375   0.770   7.174   4.858  0.9963 -0.4398  1.1698
  119MOL0     H16376   0.574   7.158   4.723  1.3280 -0.8511 -2.2288
  119MOL0     H16377   0.588   6.987   4.707 -0.4966 -1.9664  1.1014
  119MOL0     H16378   0.386   7.022   4.832  0.8639 -0.9563 -1.5817
  119MOL0     H16379   0.497   6.947   4.943  1.7741  1.7271  2.1207
  119MOL0     H16380   0.385   7.228   4.738  1.2733  1.7987 -1.5698
  119MOL0     H16381   0.248   7.332   4.602 -3.3976 -0.1360 -0.4346
  119MOL0     H16382   0.329   7.492   4.591 -0.6048  1.0078  0.3405
  119MOL0     H16383   0.154   7.475   4.655  0.0756  1.4632 -1.8135
  119MOL0     H16384   0.209   7.859   5.185  1.3633  3.3629  1.1430
  119MOL0     H16385   0.113   8.101   5.217  0.3819  1.7544 -0.7769
  119MOL0     H16386   0.004   8.369   4.984 -0.0541 -0.9838 -2.5765
  119MOL0     H16387  -0.093   8.276   4.874 -0.3085 -0.5681  0.2567
  119MOL0     H16388  -0.224   8.458   4.923 -2.1572  1.5067 -0.4218
  119MOL0     H16389  -0.300   8.306   4.975  0.2804  0.3742 -1.1997
  119MOL0     H16390  -0.143   8.505   5.149  2.2385 -2.3745  1.7144
  119MOL0     H16391  -0.239   8.369   5.213  2.4011  1.1790  1.1878
  119MOL0     H16392  -0.442   8.498   5.067 -2.3277  1.4178  1.9871
  119MOL0     H16393  -0.331   8.623   5.066  0.0642 -1.9308 -1.6816
  119MOL0     H16394  -0.428   8.496   5.330  0.7187 -0.6079 -0.3209
  119MOL0     H16395  -0.365   8.662   5.306 -1.4659  1.3887 -0.5000
  119MOL0     H16396  -0.570   8.723   5.189 -0.1324 -1.7192 -2.3825
  119MOL0     H16397  -0.605   8.664   5.356  0.6157 -0.9032 -0.4841
  119MOL0     H16398  -0.672   8.442   5.247 -2.1472  0.1320  2.3699
  119MOL0     H16399  -0.679   8.521   5.093 -3.7820 -0.8392 -0.2124
  119MOL0     H16400  -0.832   8.707   5.189 -1.2462 -1.8475 -0.9056
  119MOL0     H16401  -0.838   8.603   5.332  1.5863  0.8535  0.6715
  119MOL0     H16402  -0.125   8.043   4.876 -1.0638 -1.3176  1.2104
  119MOL0     H16403  -0.019   7.801   4.837 -0.0874 -0.7625  1.3527
  119MOL0     H16404   0.316   7.557   5.105  0.8339  2.3269 -1.4456
  119MOL0     H16405   0.432   7.326   5.139  1.1044 -0.1103 -0.3454
  119MOL0     H16406   0.337   8.003   4.946 -1.0055 -0.1149  0.6768
  119MOL0     H16407   0.209   8.211   4.963 -0.0763 -1.6953  0.2770
  119MOL0     H16408   0.195   8.597   5.023 -0.4893 -0.7462 -1.4558
  119MOL0     H16409   0.030   8.757   5.147  1.7025 -2.4488  0.7681
  119MOL0     H16410  -0.181   9.020   4.875 -0.5410 -1.2162 -2.1449
  119MOL0     H16411  -0.324   8.915   4.921  0.7531 -0.2738 -0.8416
  119MOL0     H16412  -0.358   9.152   4.977 -0.4536 -2.5785 -1.7179
  119MOL0     H16413  -0.230   9.133   5.106 -1.0588 -0.2942  2.6699
  119MOL0     H16414  -0.510   9.097   5.135 -2.6606 -1.9745 -0.1849
  119MOL0     H16415  -0.462   8.939   5.094 -0.3239  0.6488 -2.6184
  119MOL0     H16416  -0.319   9.096   5.321  0.0695  0.3824  0.2464
  119MOL0     H16417  -0.285   8.934   5.279  0.6230 -1.1271 -3.8976
  119MOL0     H16418  -0.608   8.874   5.543 -2.2050  2.9377 -0.5242
  119MOL0     H16419  -0.159   8.829   4.773  1.2725  1.4303  0.3301
  119MOL0     H16420   0.009   8.576   4.580 -2.0773 -0.0453 -0.1694
  119MOL0     H16421  -0.118   8.704   4.583 -1.0905  0.7586  1.6154
  119MOL0     H16422   0.055   8.749   4.575 -0.9234 -0.4955 -1.1703
  120MOL0     O16423   3.303   9.976   8.647 -0.3322 -0.2900  0.4931
  120MOL0     C16424   3.279  10.079   8.703  0.9528  0.4633  0.0666
  120MOL0     O16425   3.356  10.192   8.706 -0.0143 -0.4671  0.5046
  120MOL0     C16426   3.491  10.167   8.671  0.0361 -0.4488 -0.6092
  120MOL0     C16427   3.596  10.222   8.750  0.0080  0.1524 -0.6238
  120MOL0     C16428   3.722  10.231   8.691  0.0594 -0.5358 -0.0728
  120MOL0     C16429   3.745  10.199   8.560  0.6882 -0.3527  0.6559
  120MOL0     O16430   3.856  10.228   8.484  0.4544 -0.6153  0.4198
  120MOL0     C16431   3.962  10.138   8.498  0.1521 -0.1222 -0.4159
  120MOL0     C16432   4.071  10.165   8.394 -0.1969 -0.4586 -0.8997
  120MOL0     C16433   4.148  10.302   8.412  0.3895  0.3071 -0.0450
  120MOL0     C16434   4.240  10.312   8.295  0.3421 -0.5604  0.4711
  120MOL0     C16435   4.300  10.447   8.251 -0.4238  0.7092  0.0298
  120MOL0     C16436   4.205  10.552   8.204 -0.3796 -0.2770 -0.6337
  120MOL0     C16437   4.266  10.644   8.095  0.1264  0.2193 -0.4851
  120MOL0     C16438   4.374  10.744   8.140  0.2829 -0.0072  0.3814
  120MOL0     N16439   4.312  10.828   8.244  0.1479 -0.3950 -0.6086
  120MOL0     C16440   4.205  10.917   8.239  0.0662 -0.6146  0.6016
  120MOL0     C16441   4.205  10.974   8.358 -0.0636  0.4220  0.7903
  120MOL0     C16442   4.095  11.075   8.402 -0.0561  0.5143 -0.2796
  120MOL0     C16443   3.953  11.025   8.374  0.1440  0.1750 -0.6369
  120MOL0     C16444   3.894  10.946   8.492 -0.7432  1.0362  0.2776
  120MOL0     C16445   3.779  10.873   8.428  0.4011 -0.0823 -0.2216
  120MOL0     O16446   3.688  10.975   8.390  0.2413 -0.4609 -0.8515
  120MOL0     C16447   3.551  10.950   8.359 -0.0011 -0.3168 -0.4797
  120MOL0     C16448   3.514  10.855   8.263  0.1900 -0.0317  0.6923
  120MOL0     C16449   3.374  10.832   8.231 -0.2543  0.2074 -1.2900
  120MOL0     C16450   3.356  10.719   8.133  0.2796  0.1764 -0.5325
  120MOL0     C16451   3.272  10.926   8.283  0.5255 -0.7313  0.1296
  120MOL0     C16452   3.133  10.923   8.256  0.1314 -0.4174  0.8829
  120MOL0     O16453   3.048  11.023   8.294 -0.0088 -0.7976 -1.1142
  120MOL0     C16454   2.918  11.024   8.254  0.6749  0.3365  0.2187
  120MOL0     C16455   2.824  11.059   8.354 -0.0019 -0.5227  0.0092
  120MOL0     C16456   2.697  11.094   8.311 -0.8075  0.9549 -0.5850
  120MOL0     C16457   2.658  11.080   8.180  0.0341  0.1532  1.4790
  120MOL0     O16458   2.525  11.103   8.146  0.2097 -0.0191  1.1329
  120MOL0     C16459   2.449  10.984   8.098  0.1277 -0.2150 -0.7022
  120MOL0     C16460   2.449  10.882   8.214  0.6054 -0.0730 -0.1429
  120MOL0     C16461   2.340  10.918   8.322  0.3628  0.0015 -0.9478
  120MOL0     C16462   2.396  10.982   8.442  0.6747  0.3721  0.6494
  120MOL0     C16463   2.296  10.981   8.563  1.0681  0.3032 -0.3791
  120MOL0     C16464   2.150  11.035   8.519 -0.3853 -0.3844  0.5592
  120MOL0     C16465   2.144  11.179   8.473  0.0840 -0.3423  0.1279
  120MOL0     C16466   2.204  11.279   8.571  0.3359  0.8525 -0.1960
  120MOL0    Cl16467   2.199  11.445   8.514  0.2237  0.1619  0.0809
  120MOL0     C16468   2.746  11.030   8.087 -0.0932  0.3115 -0.1714
  120MOL0     C16469   2.875  11.011   8.116 -0.5361 -0.4733 -0.2339
  120MOL0     O16470   3.102  10.822   8.198 -0.2544  0.3064  0.0867
  120MOL0     C16471   3.318  11.015   8.373  0.2126  0.4343 -0.0943
  120MOL0     C16472   3.453  11.028   8.412  0.7092  0.9062 -0.2267
  120MOL0     N16473   4.323  10.933   8.428 -0.2106 -0.3242  0.6262
  120MOL0     N16474   4.383  10.846   8.356  0.7830 -0.4421  0.4541
  120MOL0     C16475   3.646  10.146   8.483 -0.0863 -1.4604 -0.6177
  120MOL0     C16476   3.519  10.133   8.537 -1.1779  0.0304 -0.6042
  120MOL0     C16477   3.152  10.078   8.784 -0.2176  0.4524  0.3802
  120MOL0     C16478   3.118  10.193   8.861 -0.2738 -0.8668 -0.4932
  120MOL0     C16479   2.995  10.209   8.919  0.8917 -0.4170 -0.4424
  120MOL0     C16480   2.900  10.110   8.920  0.2704  1.0433  0.6285
  120MOL0     O16481   2.771  10.141   8.951  0.6388 -0.4399  0.7198
  120MOL0     C16482   2.675  10.155   8.846 -0.1718  0.1280 -0.5154
  120MOL0     C16483   2.677  10.289   8.781 -0.7944 -1.1898 -0.7289
  120MOL0     C16484   2.657  10.407   8.870 -0.2708 -1.3034 -0.7217
  120MOL0     C16485   2.507  10.421   8.910 -0.0622 -0.2920  0.3772
  120MOL0     C16486   2.436  10.494   8.807 -0.2093  0.3653  0.5466
  120MOL0     C16487   2.388  10.570   8.720  0.3360 -0.2106  0.2539
  120MOL0     C16488   2.926   9.993   8.846 -0.2120  0.0485 -1.1506
  120MOL0     C16489   3.054   9.966   8.782  0.9201 -0.2808 -0.1224
  120MOL0     C16490   3.077   9.830   8.721  0.3435 -0.5339  0.1256
  120MOL0     H16491   3.576  10.256   8.851  0.0805  2.2140 -1.2587
  120MOL0     H16492   3.800  10.277   8.751 -0.9280  3.0497 -1.2939
  120MOL0     H16493   3.927  10.036   8.480 -0.6757  0.2384 -0.8785
  120MOL0     H16494   3.996  10.130   8.602 -1.1167 -0.0013  0.0176
  120MOL0     H16495   4.137  10.077   8.383  0.6372  0.3579 -2.9358
  120MOL0     H16496   4.018  10.173   8.299 -0.6856  0.1655 -0.5764
  120MOL0     H16497   4.075  10.383   8.405  1.1667  0.9262 -1.4809
  120MOL0     H16498   4.198  10.308   8.509 -1.2944 -0.8846  0.9520
  120MOL0     H16499   4.328  10.252   8.322 -0.0162 -1.5522 -0.5399
  120MOL0     H16500   4.188  10.269   8.209  2.4251 -3.8809  0.6960
  120MOL0     H16501   4.373  10.426   8.173  1.6499 -1.1663  2.3141
  120MOL0     H16502   4.365  10.483   8.332  1.9157 -1.5130 -0.7459
  120MOL0     H16503   4.119  10.504   8.156 -0.3673 -1.3591  0.3784
  120MOL0     H16504   4.166  10.599   8.295  0.7619  2.1589 -1.3151
  120MOL0     H16505   4.172  10.688   8.059  0.1643 -0.8528 -1.9635
  120MOL0     H16506   4.313  10.582   8.019 -0.0679 -2.3385  1.3605
  120MOL0     H16507   4.468  10.692   8.162  0.9809  0.9291 -0.3207
  120MOL0     H16508   4.398  10.809   8.055 -1.5524 -0.1566 -0.2919
  120MOL0     H16509   4.123  10.918   8.168  0.7264  0.3576 -0.1676
  120MOL0     H16510   4.115  11.157   8.332 -1.7794  1.5613  0.3855
  120MOL0     H16511   4.114  11.112   8.503 -0.1733 -1.8310  0.6493
  120MOL0     H16512   3.896  11.116   8.353  0.4310  0.4728 -0.1364
  120MOL0     H16513   3.947  10.962   8.284 -2.2561 -1.2580  0.4207
  120MOL0     H16514   3.962  10.881   8.547 -1.6571  0.7288  1.0644
  120MOL0     H16515   3.863  11.015   8.571 -1.4429  1.4306 -0.3310
  120MOL0     H16516   3.813  10.810   8.345 -0.9088 -2.5265  0.9921
  120MOL0     H16517   3.726  10.820   8.507  1.7962  2.9604  2.9809
  120MOL0     H16518   3.605  10.814   8.222  0.3702 -2.2822  3.0679
  120MOL0     H16519   3.430  10.644   8.161  3.4656  3.2107 -0.1187
  120MOL0     H16520   3.364  10.733   8.025 -2.8332  0.0622 -0.8677
  120MOL0     H16521   3.259  10.670   8.135 -0.4592  1.5843  0.0227
  120MOL0     H16522   2.869  11.065   8.453 -3.3323  0.4217  1.6407
  120MOL0     H16523   2.610  11.119   8.370  0.1333  5.9574 -0.9401
  120MOL0     H16524   2.345  11.008   8.076  0.0956  0.1255 -0.2006
  120MOL0     H16525   2.499  10.937   8.012 -0.1562  2.4220 -2.4304
  120MOL0     H16526   2.414  10.786   8.177 -0.6741 -0.6245  2.2781
  120MOL0     H16527   2.547  10.854   8.256  0.7122 -0.4954 -0.6699
  120MOL0     H16528   2.296  10.825   8.358  1.2469  0.8789  2.8289
  120MOL0     H16529   2.258  10.976   8.281  0.5807  0.9644 -0.0490
  120MOL0     H16530   2.419  11.082   8.402 -0.7354 -0.5114 -2.7636
  120MOL0     H16531   2.487  10.929   8.472  0.8718  1.2185  1.6162
  120MOL0     H16532   2.263  10.879   8.587  0.9690  0.2424 -0.7791
  120MOL0     H16533   2.344  11.028   8.649  5.0318 -2.2599 -0.9368
  120MOL0     H16534   2.084  11.031   8.605 -0.3498 -2.9117  0.5404
  120MOL0     H16535   2.099  10.977   8.442  1.2725 -1.7127  0.3933
  120MOL0     H16536   2.038  11.197   8.455 -0.0013 -2.4670 -1.9673
  120MOL0     H16537   2.192  11.180   8.375 -0.4734  0.5230 -0.1443
  120MOL0     H16538   2.304  11.241   8.594 -0.3199  0.7286  2.8013
  120MOL0     H16539   2.145  11.267   8.662 -0.7055  0.1366 -0.9343
  120MOL0     H16540   2.711  11.020   7.985  0.9537  1.1289 -0.6249
  120MOL0     H16541   2.936  10.991   8.029  0.8407 -1.7574  0.9671
  120MOL0     H16542   3.254  11.093   8.415 -1.2572 -0.5208 -0.4923
  120MOL0     H16543   3.487  11.098   8.487  2.8271  1.1937 -1.3800
  120MOL0     H16544   3.671  10.125   8.380 -1.9722 -4.0609 -0.6450
  120MOL0     H16545   3.439  10.104   8.470 -1.4086 -0.1138 -0.2723
  120MOL0     H16546   3.188  10.275   8.869 -3.0874  1.7058 -0.3060
  120MOL0     H16547   2.975  10.303   8.969 -0.1368  0.2912 -2.1027
  120MOL0     H16548   2.686  10.071   8.777 -0.3933 -0.8061  0.5588
  120MOL0     H16549   2.578  10.148   8.896 -1.4043 -0.2051 -2.8275
  120MOL0     H16550   2.597  10.283   8.707 -0.8007  2.3647 -1.2022
  120MOL0     H16551   2.772  10.310   8.732  0.4560 -2.8117  0.8406
  120MOL0     H16552   2.722  10.404   8.958 -1.2036  1.1779  0.1142
  120MOL0     H16553   2.694  10.497   8.822 -2.9348  0.6258  0.5582
  120MOL0     H16554   2.511  10.491   8.994 -0.4583  0.2429 -0.0415
  120MOL0     H16555   2.460  10.328   8.944  1.4708 -0.7335  1.3853
  120MOL0     H16556   2.357  10.625   8.633  1.2748 -2.4815 -1.6213
  120MOL0     H16557   2.843   9.922   8.848 -1.7058  1.7406  0.2289
  120MOL0     H16558   3.112   9.841   8.618 -2.6094 -1.1528 -1.0290
  120MOL0     H16559   3.159   9.782   8.776  0.3993 -0.4063  0.1537
  120MOL0     H16560   2.990   9.764   8.717 -0.6912  0.7012  1.3747
  121MOL0     O16561   3.038   1.339   4.100 -0.2659  0.5859  0.1343
  121MOL0     C16562   3.060   1.265   4.009 -1.5559  0.3794  0.7504
  121MOL0     O16563   3.164   1.262   3.926 -0.1071  0.0501 -1.0604
  121MOL0     C16564   3.270   1.353   3.950  0.2274  0.2984 -0.5501
  121MOL0     C16565   3.315   1.424   4.064 -0.3841 -0.7745 -0.2309
  121MOL0     C16566   3.434   1.501   4.067  0.4933 -0.2145 -0.6411
  121MOL0     C16567   3.496   1.527   3.943  0.0197 -0.6086  0.4750
  121MOL0     O16568   3.601   1.622   3.938 -0.1070 -1.0749  0.6786
  121MOL0     C16569   3.663   1.655   3.812 -0.0572  0.0850  0.3528
  121MOL0     C16570   3.779   1.753   3.802 -0.1833  0.0103 -0.1717
  121MOL0     C16571   3.827   1.784   3.667  0.3345 -0.1365 -0.3654
  121MOL0     C16572   3.843   1.662   3.573 -0.8604 -0.0034 -0.8171
  121MOL0     C16573   3.926   1.667   3.442 -0.1748  0.2516  0.5333
  121MOL0     C16574   3.987   1.536   3.390 -0.8285 -0.5833 -0.1861
  121MOL0     C16575   4.010   1.546   3.243 -0.1903 -0.6804  0.3254
  121MOL0     C16576   4.088   1.675   3.208 -0.4902  0.1539 -0.0699
  121MOL0     N16577   4.165   1.660   3.088 -0.0772  0.6192 -0.2572
  121MOL0     C16578   4.277   1.585   3.081  0.1881 -0.0201  0.1057
  121MOL0     C16579   4.325   1.591   2.956  0.4275  0.5961 -0.0242
  121MOL0     C16580   4.439   1.522   2.893  0.1028 -0.3500  0.0455
  121MOL0     C16581   4.530   1.632   2.821 -0.3819 -0.1830  0.1220
  121MOL0     C16582   4.608   1.721   2.916 -0.2225 -0.0096 -0.4680
  121MOL0     C16583   4.644   1.852   2.853 -0.1323 -0.7091  0.2799
  121MOL0     O16584   4.729   1.832   2.738  0.1227  0.8678 -0.1892
  121MOL0     C16585   4.778   1.938   2.673  0.1707  0.3606  0.6606
  121MOL0     C16586   4.871   1.920   2.571 -0.2652 -0.0224  0.0354
  121MOL0     C16587   4.936   2.029   2.508  1.6118 -0.1268 -0.1169
  121MOL0     C16588   5.054   2.001   2.417  0.5058 -0.0124  0.9432
  121MOL0     C16589   4.892   2.164   2.543 -0.3059  0.1929  0.8605
  121MOL0     C16590   4.961   2.283   2.480 -0.6284 -0.5264 -0.1145
  121MOL0     O16591   4.973   2.387   2.572  0.2261  0.1822 -0.4231
  121MOL0     C16592   5.001   2.505   2.519  0.0646 -0.1944 -0.7043
  121MOL0     C16593   5.132   2.534   2.486 -0.1823 -0.2494  0.1454
  121MOL0     C16594   5.153   2.654   2.414  0.1853 -0.5840  0.1189
  121MOL0     C16595   5.054   2.744   2.378  0.2497  0.1872  0.4930
  121MOL0     O16596   5.103   2.865   2.342  0.0648 -0.7198  0.8296
  121MOL0     C16597   5.010   2.944   2.264 -0.6721  0.2786  0.0888
  121MOL0     C16598   4.940   3.054   2.344 -0.0536 -0.2489 -0.0488
  121MOL0     C16599   5.038   3.167   2.391 -0.4500 -0.3318 -0.2119
  121MOL0     C16600   4.977   3.261   2.496  0.2620  0.7326  0.0596
  121MOL0     C16601   4.925   3.191   2.626  0.1581  0.3288  0.7081
  121MOL0     C16602   4.866   3.288   2.732 -0.8880  0.4602  0.0322
  121MOL0     C16603   4.719   3.345   2.717 -0.7046  0.3021 -0.9060
  121MOL0     C16604   4.634   3.262   2.805 -0.2580  0.7232  0.3447
  121MOL0    Cl16605   4.607   3.089   2.759  0.2152 -0.2164  0.2125
  121MOL0     C16606   4.926   2.717   2.428  0.4273  0.2564  0.6649
  121MOL0     C16607   4.895   2.593   2.490 -0.2249 -0.3289 -0.1512
  121MOL0     O16608   4.969   2.294   2.360 -0.7078  0.7753 -0.3852
  121MOL0     C16609   4.796   2.174   2.636  0.1288 -0.4519 -0.4010
  121MOL0     C16610   4.751   2.069   2.710  0.8858  0.6411  1.1220
  121MOL0     N16611   4.239   1.670   2.883  0.0055 -0.3473 -0.6205
  121MOL0     N16612   4.139   1.709   2.966 -0.7302  0.5512 -0.3821
  121MOL0     C16613   3.443   1.469   3.825 -0.2952 -0.3340 -0.4836
  121MOL0     C16614   3.340   1.376   3.829  0.5476  0.6199 -0.2315
  121MOL0     C16615   2.960   1.160   3.982 -0.1700 -0.5609  0.9147
  121MOL0     C16616   2.833   1.202   3.946 -0.6823 -0.4877 -0.8299
  121MOL0     C16617   2.733   1.111   3.905 -1.1318  0.9490 -0.8509
  121MOL0     C16618   2.765   0.975   3.895  0.0396 -0.2400 -0.2169
  121MOL0     O16619   2.664   0.892   3.853  0.4793  0.2200  0.6496
  121MOL0     C16620   2.671   0.751   3.852  0.6932  1.2296 -0.4734
  121MOL0     C16621   2.583   0.695   3.735  0.9048  0.3855 -0.0330
  121MOL0     C16622   2.438   0.753   3.738  0.7774  0.1222  0.5229
  121MOL0     C16623   2.339   0.691   3.629 -0.2556 -0.3690  0.0984
  121MOL0     C16624   2.348   0.542   3.615  0.2374 -0.7519  0.4371
  121MOL0     C16625   2.355   0.424   3.604  0.0327  0.7084  0.6696
  121MOL0     C16626   2.889   0.938   3.924 -0.5595 -0.4662 -0.4433
  121MOL0     C16627   2.989   1.027   3.971 -0.1701 -0.6300 -0.3604
  121MOL0     C16628   3.121   0.968   4.019  0.4777 -0.0857  1.1870
  121MOL0     H16629   3.253   1.418   4.153 -1.5446 -1.5164 -1.0645
  121MOL0     H16630   3.471   1.549   4.157 -0.3100  1.0030 -0.9396
  121MOL0     H16631   3.593   1.712   3.750  0.9987  1.2894  0.2234
  121MOL0     H16632   3.691   1.559   3.768 -0.0350 -0.8959  2.3864
  121MOL0     H16633   3.751   1.843   3.857 -1.6133 -1.3501  1.4797
  121MOL0     H16634   3.854   1.696   3.857 -1.1381 -0.5243  0.6010
  121MOL0     H16635   3.747   1.847   3.629  2.8223  2.6090 -1.4341
  121MOL0     H16636   3.914   1.850   3.678  0.3505 -0.3033  0.7078
  121MOL0     H16637   3.883   1.577   3.630  0.5352  0.5322 -0.9548
  121MOL0     H16638   3.739   1.636   3.552 -1.9072  1.9893  1.4655
  121MOL0     H16639   4.010   1.736   3.449 -0.7075  0.8151  1.5503
  121MOL0     H16640   3.857   1.708   3.366  0.5581 -2.8851 -2.0304
  121MOL0     H16641   4.080   1.505   3.438 -1.9032 -1.5045  1.3823
  121MOL0     H16642   3.907   1.468   3.420 -4.1051  3.5003  1.4481
  121MOL0     H16643   3.916   1.555   3.188 -0.4919 -1.4691  0.7084
  121MOL0     H16644   4.050   1.452   3.203 -1.2333 -0.8049 -0.4428
  121MOL0     H16645   4.008   1.745   3.185 -0.5821 -0.8095 -3.1599
  121MOL0     H16646   4.159   1.703   3.287  1.2425 -0.9658 -1.1490
  121MOL0     H16647   4.318   1.523   3.160  2.3821 -2.3856 -2.6382
  121MOL0     H16648   4.386   1.451   2.828  1.3720 -0.2761 -1.1073
  121MOL0     H16649   4.494   1.466   2.969 -1.4997 -0.1016  1.4521
  121MOL0     H16650   4.607   1.587   2.757  0.3208  2.3755 -0.9577
  121MOL0     H16651   4.462   1.690   2.759 -0.4336  0.3307  0.6479
  121MOL0     H16652   4.550   1.738   3.007  1.3162 -0.1890  0.5762
  121MOL0     H16653   4.702   1.677   2.950  0.7649  0.7234 -2.1278
  121MOL0     H16654   4.554   1.901   2.815 -0.7233 -2.6601 -0.9474
  121MOL0     H16655   4.679   1.915   2.936 -1.5387  0.8504 -0.2603
  121MOL0     H16656   4.911   1.820   2.554 -0.1446 -0.5247  2.7714
  121MOL0     H16657   5.117   1.928   2.469  0.6163 -0.4090  0.2625
  121MOL0     H16658   5.121   2.085   2.397  2.0213 -1.7269 -1.6996
  121MOL0     H16659   5.029   1.946   2.326  1.6231 -1.3704  1.4149
  121MOL0     H16660   5.221   2.481   2.519  0.0523 -0.3488 -0.6374
  121MOL0     H16661   5.252   2.679   2.376  0.7875 -0.9929  1.3387
  121MOL0     H16662   5.080   3.003   2.204  0.6358  1.5156  2.6568
  121MOL0     H16663   4.939   2.890   2.201 -0.6359 -1.5560  1.5367
  121MOL0     H16664   4.872   3.108   2.277 -0.6373  1.5160  1.8605
  121MOL0     H16665   4.870   3.016   2.418 -1.1623  0.0645 -0.9108
  121MOL0     H16666   5.067   3.229   2.306  3.1069  0.3974  1.3554
  121MOL0     H16667   5.126   3.120   2.436 -0.4345  1.6978  2.0512
  121MOL0     H16668   4.889   3.306   2.449  0.5370 -0.0223 -1.2462
  121MOL0     H16669   5.051   3.334   2.531  0.7576 -0.9731  2.9003
  121MOL0     H16670   4.852   3.112   2.607 -1.6427  1.7539  1.3894
  121MOL0     H16671   5.013   3.142   2.668  1.4600  0.3550 -1.8047
  121MOL0     H16672   4.937   3.370   2.749 -0.3240  0.0997 -0.5243
  121MOL0     H16673   4.862   3.229   2.824 -2.6417 -1.9761 -1.4896
  121MOL0     H16674   4.679   3.340   2.616  0.6583 -1.8615 -1.3947
  121MOL0     H16675   4.722   3.452   2.740 -0.1253  0.1012  0.0426
  121MOL0     H16676   4.533   3.303   2.812 -0.3732  0.4998  0.0338
  121MOL0     H16677   4.664   3.264   2.910  1.0379 -1.4753  0.0827
  121MOL0     H16678   4.847   2.788   2.403 -0.9304 -1.2267  0.5644
  121MOL0     H16679   4.794   2.568   2.521 -0.1823 -0.1283  0.1498
  121MOL0     H16680   4.771   2.268   2.684 -2.8970 -2.7313  2.9905
  121MOL0     H16681   4.674   2.099   2.779 -2.1248  1.4187 -2.2829
  121MOL0     H16682   3.487   1.490   3.728 -2.3331 -2.1183 -1.8965
  121MOL0     H16683   3.317   1.326   3.735 -0.6317 -0.0110  0.3684
  121MOL0     H16684   2.812   1.309   3.943 -0.1627 -0.3505  0.1895
  121MOL0     H16685   2.635   1.150   3.878 -2.0013  0.6418  1.6098
  121MOL0     H16686   2.773   0.718   3.831  0.4457  0.6447 -0.7616
  121MOL0     H16687   2.652   0.714   3.954  2.0689  0.7544 -0.3619
  121MOL0     H16688   2.583   0.586   3.748  0.1345  0.5357  1.4250
  121MOL0     H16689   2.629   0.732   3.642  0.8427 -1.4830 -0.8596
  121MOL0     H16690   2.387   0.730   3.832  0.2946  0.2403  0.2897
  121MOL0     H16691   2.435   0.861   3.725  1.9175  0.2066  0.8219
  121MOL0     H16692   2.359   0.726   3.527 -0.3862  0.3290  0.3078
  121MOL0     H16693   2.236   0.710   3.659  0.4334 -0.8705  3.0705
  121MOL0     H16694   2.356   0.318   3.584  0.2503  0.7607  0.3999
  121MOL0     H16695   2.899   0.830   3.932  1.2335 -0.1921  2.2493
  121MOL0     H16696   3.147   1.024   4.109  3.1544 -1.5547  1.4478
  121MOL0     H16697   3.111   0.861   4.042  1.1243 -0.4763 -0.2024
  121MOL0     H16698   3.185   0.979   3.931 -0.7737  0.8371  0.3595
  122MOL0     O16699   2.400   2.174   0.098  0.5067 -0.2416 -0.1337
  122MOL0     C16700   2.428   2.054   0.091  0.8150 -1.0866  1.0651
  122MOL0     O16701   2.536   2.001   0.139  0.0416  0.2307 -0.1392
  122MOL0     C16702   2.647   2.077   0.154  0.0515 -0.7772  0.4360
  122MOL0     C16703   2.678   2.202   0.089 -0.2874  0.1244 -0.4093
  122MOL0     C16704   2.818   2.249   0.074  0.9544  0.0861  0.1830
  122MOL0     C16705   2.923   2.178   0.133 -0.1307  1.0320 -0.1598
  122MOL0     O16706   3.045   2.238   0.123 -0.2162 -0.2637  0.4328
  122MOL0     C16707   3.161   2.205   0.196  0.6888  0.3378  0.2293
  122MOL0     C16708   3.288   2.247   0.126 -0.7191 -0.6790  0.0338
  122MOL0     C16709   3.396   2.133   0.132 -0.2078  0.4588 -0.2072
  122MOL0     C16710   3.527   2.192   0.079 -0.3681 -0.2931  0.5550
  122MOL0     C16711   3.641   2.089   0.076 -0.6343  0.0915 -0.8661
  122MOL0     C16712   3.748   2.150  -0.015  0.3462 -0.6715 -0.0766
  122MOL0     C16713   3.859   2.051  -0.034 -0.0320 -0.1716 -0.3081
  122MOL0     C16714   3.948   2.034   0.094  0.3225  0.3531  0.1247
  122MOL0     N16715   4.023   2.155   0.117  0.9249 -0.7942  0.0315
  122MOL0     C16716   4.009   2.230   0.232  0.8253 -0.5027  0.2202
  122MOL0     C16717   4.113   2.310   0.229  1.3189 -0.5439  0.3221
  122MOL0     C16718   4.135   2.426   0.329 -0.1097 -0.3154  0.2558
  122MOL0     C16719   4.262   2.512   0.314 -0.3719  0.0239  0.0733
  122MOL0     C16720   4.384   2.440   0.365  0.2889  0.0725 -0.1201
  122MOL0     C16721   4.529   2.502   0.327  0.0895  0.6349 -0.0202
  122MOL0     O16722   4.542   2.641   0.355  0.5839  0.9122  0.4682
  122MOL0     C16723   4.666   2.695   0.342  0.6798  0.0326  0.2643
  122MOL0     C16724   4.779   2.645   0.285 -0.0254 -0.2741 -0.7781
  122MOL0     C16725   4.903   2.719   0.283  0.0489 -0.5747  0.2993
  122MOL0     C16726   5.018   2.677   0.199 -0.6265 -0.1403 -0.3346
  122MOL0     C16727   4.912   2.841   0.362  0.4717 -0.1988 -0.0954
  122MOL0     C16728   5.026   2.932   0.372  0.0778 -0.2313  0.2066
  122MOL0     O16729   5.149   2.875   0.349 -0.8373  0.1943 -0.1292
  122MOL0     C16730   5.253   2.970   0.346 -0.3945 -0.2182  0.4005
  122MOL0     C16731   5.341   2.973   0.459  0.8341 -0.5486  1.1580
  122MOL0     C16732   5.451   3.065   0.460  0.4176  0.0298 -0.9867
  122MOL0     C16733   5.483   3.136   0.353  0.3014  0.0850 -0.2921
  122MOL0     O16734   5.590   3.226   0.370  0.1036 -0.1636 -0.5443
  122MOL0     C16735   5.603   3.323   0.261 -0.3315 -0.0902  0.0602
  122MOL0     C16736   5.686   3.440   0.314 -0.2112  0.6803  0.4783
  122MOL0     C16737   5.833   3.391   0.331 -0.3148 -0.7243 -0.9699
  122MOL0     C16738   5.931   3.500   0.378 -0.4041 -0.6071  0.4912
  122MOL0     C16739   6.066   3.434   0.420  0.3395 -0.3477  1.0388
  122MOL0     C16740   6.181   3.538   0.418 -0.4062 -0.7922  0.3744
  122MOL0     C16741   6.308   3.489   0.484  0.1728  0.1073  0.3137
  122MOL0     C16742   6.415   3.595   0.516 -0.3014 -0.0602 -0.4133
  122MOL0    Cl16743   6.574   3.520   0.555 -0.0389  0.2217  0.0008
  122MOL0     C16744   5.410   3.114   0.232 -0.1409  0.0131  1.0953
  122MOL0     C16745   5.301   3.034   0.230 -0.5017 -0.7886 -0.1939
  122MOL0     O16746   5.010   3.056   0.382 -0.2582 -0.0127  0.0732
  122MOL0     C16747   4.794   2.895   0.423  0.4487 -0.1088  0.8625
  122MOL0     C16748   4.677   2.818   0.405  0.5619  0.7289  0.1917
  122MOL0     N16749   4.189   2.280   0.118 -0.6713 -0.1122 -0.2685
  122MOL0     N16750   4.138   2.188   0.045 -0.2839 -0.6506  0.2325
  122MOL0     C16751   2.883   2.079   0.222  0.2855  0.3878  0.3028
  122MOL0     C16752   2.750   2.024   0.225 -0.8543  0.9495 -0.3758
  122MOL0     C16753   2.322   1.967   0.042 -0.2371 -1.4651 -0.3075
  122MOL0     C16754   2.303   1.842   0.105  0.7890 -0.3188 -0.0441
  122MOL0     C16755   2.211   1.751   0.050  0.1176 -0.4328  0.2117
  122MOL0     C16756   2.136   1.779  -0.068 -0.7359  1.1009 -0.0358
  122MOL0     O16757   2.062   1.689  -0.149 -0.5553  0.4474 -0.0110
  122MOL0     C16758   2.034   1.557  -0.092  0.1385 -0.2346  0.1251
  122MOL0     C16759   1.968   1.475  -0.200  0.4054 -0.9481  0.5546
  122MOL0     C16760   1.870   1.368  -0.158  0.2620 -0.5285 -0.0762
  122MOL0     C16761   1.940   1.255  -0.085  0.0936  0.4071  0.3264
  122MOL0     C16762   2.054   1.198  -0.150 -0.2949 -0.3700 -0.0145
  122MOL0     C16763   2.166   1.174  -0.187  0.2617  0.0872 -0.6387
  122MOL0     C16764   2.150   1.903  -0.122  0.0779 -0.5928  0.2090
  122MOL0     C16765   2.240   2.004  -0.066  0.5515  0.0107  0.1680
  122MOL0     C16766   2.252   2.141  -0.126  0.3736  0.6448  0.2412
  122MOL0     H16767   2.596   2.250   0.037 -0.2333  0.2786 -0.3538
  122MOL0     H16768   2.838   2.337   0.014  1.9193  2.3096  3.4720
  122MOL0     H16769   3.160   2.096   0.197 -0.2896  0.3127  1.9997
  122MOL0     H16770   3.159   2.239   0.300  1.2227  0.6329  0.1457
  122MOL0     H16771   3.273   2.257   0.018  2.3441 -2.4565 -0.6730
  122MOL0     H16772   3.318   2.343   0.168 -1.1361  0.3406 -1.8790
  122MOL0     H16773   3.411   2.096   0.234 -0.5886  0.3674 -0.1823
  122MOL0     H16774   3.368   2.043   0.077  0.5139  1.3434 -2.1099
  122MOL0     H16775   3.497   2.223  -0.021 -0.1574  2.1437  1.1857
  122MOL0     H16776   3.559   2.279   0.137  0.7022 -0.8051  0.7583
  122MOL0     H16777   3.606   1.995   0.033  1.6325 -1.4231  0.4550
  122MOL0     H16778   3.672   2.068   0.179 -1.9837  1.6131 -0.0858
  122MOL0     H16779   3.699   2.165  -0.111  0.5432  0.3812 -0.0228
  122MOL0     H16780   3.785   2.244   0.027  2.4174 -0.6509 -1.7853
  122MOL0     H16781   3.912   2.089  -0.121 -1.0817  1.0691 -0.4441
  122MOL0     H16782   3.817   1.954  -0.061  1.6161 -1.1207  0.4558
  122MOL0     H16783   3.883   2.014   0.179 -0.0593  3.6021  0.7073
  122MOL0     H16784   4.022   1.955   0.076 -1.4958 -1.4048 -0.0345
  122MOL0     H16785   3.920   2.230   0.295 -0.2900  2.8745 -1.1289
  122MOL0     H16786   4.134   2.392   0.433 -2.2741  0.6272  0.5858
  122MOL0     H16787   4.049   2.492   0.327  0.3507  0.5866  3.6331
  122MOL0     H16788   4.274   2.528   0.206 -0.1773 -3.0300 -0.4496
  122MOL0     H16789   4.251   2.600   0.376 -2.6992 -0.6701  0.7395
  122MOL0     H16790   4.374   2.418   0.472  0.2986 -1.2882 -0.3783
  122MOL0     H16791   4.374   2.347   0.308 -0.5229 -0.2432  0.5242
  122MOL0     H16792   4.600   2.437   0.377 -0.2446 -2.8912 -3.6238
  122MOL0     H16793   4.546   2.499   0.219  1.3911 -1.1946  0.2100
  122MOL0     H16794   4.774   2.552   0.229  0.1392 -1.0172  0.3945
  122MOL0     H16795   4.986   2.606   0.122 -0.4035 -0.9940  0.3361
  122MOL0     H16796   5.096   2.631   0.261 -0.1985 -1.4015 -1.7270
  122MOL0     H16797   5.057   2.768   0.152 -2.0335  0.4862 -0.3387
  122MOL0     H16798   5.319   2.919   0.550  1.0260  0.0133  1.5395
  122MOL0     H16799   5.503   3.078   0.555 -0.0017  0.5966 -0.8313
  122MOL0     H16800   5.655   3.277   0.177 -1.1106 -1.7480  0.4426
  122MOL0     H16801   5.506   3.368   0.238 -0.5050 -0.6559 -0.3171
  122MOL0     H16802   5.676   3.531   0.255 -0.1645  0.9755  0.9230
  122MOL0     H16803   5.655   3.478   0.412  0.3106  2.5324 -0.0331
  122MOL0     H16804   5.868   3.354   0.234 -0.9578 -1.5452 -0.8962
  122MOL0     H16805   5.846   3.306   0.398 -1.4257 -1.2727 -1.4274
  122MOL0     H16806   5.883   3.551   0.462 -1.6095  1.0106 -1.1005
  122MOL0     H16807   5.949   3.569   0.294 -0.0354 -1.6149 -0.2803
  122MOL0     H16808   6.058   3.390   0.520  1.4022 -0.3458  1.1406
  122MOL0     H16809   6.092   3.359   0.345 -1.0091  0.9567 -0.8239
  122MOL0     H16810   6.151   3.630   0.468 -1.5431 -1.8675  1.7539
  122MOL0     H16811   6.182   3.559   0.310 -2.5185  2.0531  0.8021
  122MOL0     H16812   6.349   3.412   0.419 -2.4356 -0.7070 -0.5025
  122MOL0     H16813   6.286   3.439   0.579  0.6818  0.5795  0.6853
  122MOL0     H16814   6.377   3.641   0.607 -1.2598 -1.5424 -0.0190
  122MOL0     H16815   6.430   3.676   0.445  1.8584  0.9384  1.0454
  122MOL0     H16816   5.444   3.158   0.139  1.3245 -1.1715  1.0374
  122MOL0     H16817   5.257   3.018   0.132  1.2818  0.9540 -1.3592
  122MOL0     H16818   4.790   2.991   0.473 -2.8624 -1.0861  2.7427
  122MOL0     H16819   4.584   2.846   0.453  2.1598  0.0560  3.9761
  122MOL0     H16820   2.964   2.029   0.275  0.7333  0.5101 -0.2509
  122MOL0     H16821   2.728   1.924   0.262 -2.7801  1.2332 -0.6568
  122MOL0     H16822   2.349   1.824   0.201 -3.0501  3.1730  2.7715
  122MOL0     H16823   2.189   1.656   0.098 -2.0238 -0.0533  0.1009
  122MOL0     H16824   2.129   1.505  -0.075  0.1533 -0.2913 -0.1398
  122MOL0     H16825   1.972   1.550  -0.002 -0.4831 -4.0522 -0.4555
  122MOL0     H16826   2.037   1.434  -0.275  0.0072  0.3937 -0.5870
  122MOL0     H16827   1.906   1.548  -0.251  0.0786 -2.5015 -1.3714
  122MOL0     H16828   1.790   1.409  -0.096  0.9332  0.0299  0.4434
  122MOL0     H16829   1.832   1.317  -0.246  4.1357 -4.5816  0.2457
  122MOL0     H16830   1.874   1.170  -0.066  1.5651 -1.1844 -1.4267
  122MOL0     H16831   1.979   1.287   0.012 -1.7045  2.0499  0.5801
  122MOL0     H16832   2.258   1.152  -0.237 -1.2153  1.8871 -4.5290
  122MOL0     H16833   2.086   1.919  -0.208 -2.8813 -3.1130  1.7484
  122MOL0     H16834   2.169   2.153  -0.197  1.1358 -0.2218 -0.8481
  122MOL0     H16835   2.243   2.222  -0.053  0.6976 -0.9760  2.1564
  122MOL0     H16836   2.338   2.153  -0.193  0.2981 -1.4123 -0.2713
  123MOL0     O16837   7.642  10.265   4.183  0.3587 -0.1060 -0.4955
  123MOL0     C16838   7.536  10.333   4.209 -0.4622  0.8268  0.1156
  123MOL0     O16839   7.500  10.454   4.154  0.2767 -0.0299 -0.3040
  123MOL0     C16840   7.603  10.520   4.093  0.5606 -0.5796  0.0444
  123MOL0     C16841   7.707  10.565   4.177  0.5750 -0.6740  0.0355
  123MOL0     C16842   7.818  10.634   4.137 -0.7990  0.5394 -0.1553
  123MOL0     C16843   7.829  10.660   3.998 -0.4059 -0.4743  0.9374
  123MOL0     O16844   7.926  10.719   3.932 -0.3281 -0.6753  0.5848
  123MOL0     C16845   7.998  10.828   3.999  0.2899  0.7219  0.5996
  123MOL0     C16846   8.151  10.815   3.964  0.0132  0.0988 -0.5875
  123MOL0     C16847   8.207  10.688   4.033  0.3523 -0.4485  0.1347
  123MOL0     C16848   8.357  10.686   4.038 -0.2040  0.2558 -0.5418
  123MOL0     C16849   8.411  10.644   3.905 -0.2091  0.1708 -0.3056
  123MOL0     C16850   8.530  10.548   3.918  0.3928  0.5122  0.3255
  123MOL0     C16851   8.616  10.533   3.780 -0.1682 -0.3010  0.6983
  123MOL0     C16852   8.713  10.421   3.811  0.0873 -0.1013 -0.1167
  123MOL0     N16853   8.806  10.427   3.703  0.2878 -0.7239  0.3197
  123MOL0     C16854   8.937  10.482   3.706 -0.6112  0.5920 -0.4430
  123MOL0     C16855   8.971  10.480   3.577  0.9542 -0.6245 -0.4488
  123MOL0     C16856   9.097  10.544   3.510  0.4941 -0.1527  0.6423
  123MOL0     C16857   9.108  10.513   3.365 -0.4682  0.3302 -0.0794
  123MOL0     C16858   9.176  10.373   3.357  0.4828  0.4746  0.2321
  123MOL0     C16859   9.138  10.299   3.223  0.1689  0.1922 -0.6960
  123MOL0     O16860   9.177  10.161   3.246  0.1140  0.2076 -0.2298
  123MOL0     C16861   9.303  10.130   3.185  0.3146  0.0695  0.1269
  123MOL0     C16862   9.408  10.125   3.269 -0.2631  0.1764 -0.1461
  123MOL0     C16863   9.537  10.084   3.219  0.5382  0.1515  0.2130
  123MOL0     C16864   9.648  10.065   3.312  0.3955  0.0586 -0.1677
  123MOL0     C16865   9.540  10.046   3.083 -0.0005 -0.5017  1.0784
  123MOL0     C16866   9.662  10.005   3.003  0.3266 -0.2253 -0.1560
  123MOL0     O16867   9.643  10.000   2.872  0.1192  0.0047 -0.3465
  123MOL0     C16868   9.760   9.951   2.811  0.4289 -0.4060 -0.5722
  123MOL0     C16869   9.840  10.040   2.730  0.0769  0.9549 -0.1927
  123MOL0     C16870   9.958   9.991   2.673  0.1281  0.6490 -0.0901
  123MOL0     C16871   9.991   9.860   2.665  0.5284 -0.0586  0.9488
  123MOL0     O16872  10.103   9.832   2.585  0.5931  0.7675 -0.3333
  123MOL0     C16873  10.226   9.790   2.648  0.4285 -0.1609 -0.5753
  123MOL0     C16874  10.342   9.877   2.603 -0.8931 -0.3617 -0.0565
  123MOL0     C16875  10.454   9.881   2.700  0.2545 -0.1213 -1.4462
  123MOL0     C16876  10.570   9.981   2.666  0.5880 -0.0508 -0.0372
  123MOL0     C16877  10.703   9.958   2.744 -0.6612 -0.2741  0.7670
  123MOL0     C16878  10.812  10.068   2.711  0.1731  0.9348 -0.6576
  123MOL0     C16879  10.934  10.042   2.805 -0.3481  0.7310 -0.3832
  123MOL0     C16880  11.059  10.130   2.781 -0.1895  0.0611 -0.2861
  123MOL0    Cl16881  11.031  10.291   2.859 -0.3175  0.4957 -0.5183
  123MOL0     C16882   9.928   9.777   2.747 -0.1658 -0.6205 -0.5907
  123MOL0     C16883   9.806   9.822   2.816 -0.7266 -0.0852  0.6695
  123MOL0     O16884   9.766   9.990   3.069 -0.0106 -0.3507 -0.5684
  123MOL0     C16885   9.422  10.052   3.003  0.1179  0.4888 -0.1678
  123MOL0     C16886   9.305  10.097   3.056  0.4879  0.3155  1.0904
  123MOL0     N16887   8.865  10.446   3.498  0.0334 -0.5653 -0.3344
  123MOL0     N16888   8.777  10.397   3.573 -0.4492 -0.0130  0.2495
  123MOL0     C16889   7.728  10.618   3.913 -0.1848  0.2545 -0.0179
  123MOL0     C16890   7.618  10.542   3.960 -0.2333  0.0835 -0.0993
  123MOL0     C16891   7.440  10.274   4.305  0.1616 -1.1114 -0.4203
  123MOL0     C16892   7.310  10.310   4.286 -0.6715 -0.5172 -0.4394
  123MOL0     C16893   7.202  10.264   4.354  1.3063 -0.4388 -0.2771
  123MOL0     C16894   7.227  10.172   4.456  0.5817  0.2642  1.0910
  123MOL0     O16895   7.126  10.102   4.521 -0.7530 -0.5921  0.3343
  123MOL0     C16896   6.991  10.154   4.520 -0.5668  0.6051  0.4169
  123MOL0     C16897   6.905  10.067   4.412 -0.5192 -0.5021  0.5688
  123MOL0     C16898   6.759  10.112   4.387 -0.6352  0.3991  1.1048
  123MOL0     C16899   6.762  10.233   4.293 -0.1711  0.1354 -0.0247
  123MOL0     C16900   6.630  10.299   4.282 -0.6537 -0.6400  0.5178
  123MOL0     C16901   6.535  10.373   4.273 -0.1161  0.1941 -0.4511
  123MOL0     C16902   7.358  10.141   4.482 -0.6047  0.0063 -0.2695
  123MOL0     C16903   7.469  10.191   4.408  0.2439  0.5649 -0.7366
  123MOL0     C16904   7.611  10.177   4.465  0.0142 -0.4164  0.9610
  123MOL0     H16905   7.695  10.533   4.280 -1.9763  1.9881  0.7327
  123MOL0     H16906   7.901  10.669   4.198  0.6579 -1.4029 -0.9081
  123MOL0     H16907   7.979  10.824   4.107 -2.6550  1.3465  0.1995
  123MOL0     H16908   7.971  10.931   3.973  2.3455  1.0425 -0.4117
  123MOL0     H16909   8.179  10.815   3.858 -0.1136 -1.1020 -0.6404
  123MOL0     H16910   8.203  10.901   4.007  0.1063  1.2974 -2.9114
  123MOL0     H16911   8.180  10.694   4.138  0.8095  1.3381  0.1864
  123MOL0     H16912   8.173  10.593   3.991  3.0305 -2.2328  1.7080
  123MOL0     H16913   8.394  10.786   4.061  2.5294 -0.8985  0.5097
  123MOL0     H16914   8.381  10.621   4.123 -1.6593 -0.2299 -0.4640
  123MOL0     H16915   8.441  10.727   3.841  1.0036  1.5924  1.9737
  123MOL0     H16916   8.333  10.586   3.854 -0.3136 -3.0297  3.0289
  123MOL0     H16917   8.596  10.583   3.997  2.6206  0.0404 -1.2206
  123MOL0     H16918   8.489  10.450   3.945 -0.8035  1.2240  1.1677
  123MOL0     H16919   8.667  10.627   3.758 -2.5551  0.4987 -2.1467
  123MOL0     H16920   8.559  10.509   3.690  2.5406  5.2612 -3.0530
  123MOL0     H16921   8.752  10.431   3.912  1.4886  2.0970 -0.8209
  123MOL0     H16922   8.659  10.325   3.805 -1.1150  0.6462 -2.4749
  123MOL0     H16923   8.995  10.537   3.780  2.1887  2.3839 -3.7126
  123MOL0     H16924   9.191  10.520   3.561  0.5765 -0.7136  0.2283
  123MOL0     H16925   9.070  10.650   3.513  1.0251  0.2382 -3.2675
  123MOL0     H16926   9.004  10.513   3.332 -1.3155 -1.0635  2.2938
  123MOL0     H16927   9.173  10.581   3.309  0.4444 -1.4591 -1.2890
  123MOL0     H16928   9.282  10.390   3.377  0.8945 -0.2622 -1.1693
  123MOL0     H16929   9.140  10.303   3.433 -0.3887 -0.0819 -0.6681
  123MOL0     H16930   9.029  10.302   3.212  0.1172  0.3687 -0.1360
  123MOL0     H16931   9.186  10.342   3.135  0.2420 -0.1482 -0.8213
  123MOL0     H16932   9.401  10.135   3.377  0.8898 -0.7107  0.0214
  123MOL0     H16933   9.737  10.119   3.279 -0.8228  1.0523 -1.9627
  123MOL0     H16934   9.689   9.965   3.300  0.6675  0.1636 -0.1403
  123MOL0     H16935   9.613  10.078   3.415  0.6998  0.7525 -0.1406
  123MOL0     H16936   9.820  10.146   2.722  0.4334  1.1872  1.5617
  123MOL0     H16937  10.032  10.053   2.623  0.6075 -0.1604 -0.4114
  123MOL0     H16938  10.223   9.810   2.755  0.4532 -0.5542 -0.4991
  123MOL0     H16939  10.242   9.682   2.639 -0.5656 -0.2573 -1.3987
  123MOL0     H16940  10.372   9.844   2.503 -1.6201 -0.5680 -0.2085
  123MOL0     H16941  10.316   9.983   2.592  0.3819  0.2119  1.9314
  123MOL0     H16942  10.489   9.779   2.720  3.4816  1.1558  0.0107
  123MOL0     H16943  10.416   9.923   2.794  3.4445  0.7371 -0.4460
  123MOL0     H16944  10.528  10.082   2.669 -1.3301 -0.7947  0.1787
  123MOL0     H16945  10.600   9.956   2.564  0.0352  2.0099 -0.7590
  123MOL0     H16946  10.690   9.969   2.852  0.0003  0.2108  0.8018
  123MOL0     H16947  10.742   9.860   2.714 -1.5791 -0.8126  1.2791
  123MOL0     H16948  10.761  10.160   2.740  2.9094  1.6987  2.2928
  123MOL0     H16949  10.837  10.041   2.608  0.6859 -0.9109 -0.0717
  123MOL0     H16950  10.958   9.935   2.805 -3.1776  0.0069  0.4809
  123MOL0     H16951  10.907  10.067   2.908 -2.3862  1.4738 -1.0478
  123MOL0     H16952  11.079  10.142   2.674  0.9689  2.0534  0.1030
  123MOL0     H16953  11.142  10.072   2.822  2.8260  0.1851 -5.3529
  123MOL0     H16954   9.966   9.675   2.754  2.2520  0.0714 -2.3750
  123MOL0     H16955   9.764   9.751   2.887  0.5082 -0.4969  1.0172
  123MOL0     H16956   9.406  10.021   2.900  0.7546 -0.8923  0.1366
  123MOL0     H16957   9.217  10.106   2.993 -0.5333  0.8980  2.5437
  123MOL0     H16958   7.737  10.650   3.809  1.8069  3.3564  0.9493
  123MOL0     H16959   7.535  10.514   3.895 -1.4405  2.3904  0.3426
  123MOL0     H16960   7.290  10.382   4.208 -5.4265 -1.2304 -0.1677
  123MOL0     H16961   7.103  10.303   4.335  2.0765  1.3807 -0.8112
  123MOL0     H16962   6.944  10.132   4.616 -0.8468 -3.0460 -0.4219
  123MOL0     H16963   6.989  10.263   4.509  2.2548  0.7588  0.8249
  123MOL0     H16964   6.904   9.962   4.442 -0.0585 -0.4456  0.7891
  123MOL0     H16965   6.955  10.058   4.315  1.0198 -1.5772  1.4269
  123MOL0     H16966   6.705  10.037   4.329 -1.7153  2.8865 -1.3544
  123MOL0     H16967   6.691  10.132   4.470 -0.9999 -1.6576  1.3526
  123MOL0     H16968   6.801  10.193   4.200  1.9287 -2.4862  1.8178
  123MOL0     H16969   6.840  10.302   4.326  1.1585 -0.7613 -1.1926
  123MOL0     H16970   6.450  10.438   4.264 -1.3463 -1.1960  0.6966
  123MOL0     H16971   7.381  10.085   4.572  0.2461  1.2916  0.3451
  123MOL0     H16972   7.676  10.129   4.392  0.7448 -0.4071  1.5884
  123MOL0     H16973   7.646  10.279   4.487 -1.2099  0.3362 -0.4030
  123MOL0     H16974   7.603  10.124   4.560 -0.9330  2.9561  2.9613
  124MOL0     O16975   3.143   1.514   9.834  0.9518  0.5363 -0.1657
  124MOL0     C16976   3.145   1.506   9.956  0.3137  0.2384  0.3471
  124MOL0     O16977   3.133   1.615  10.049 -0.9310  0.3812  0.0585
  124MOL0     C16978   3.136   1.739   9.994  0.1341  0.2694 -0.3055
  124MOL0     C16979   3.033   1.836  10.018  0.1273  0.4096  0.3680
  124MOL0     C16980   3.034   1.965   9.972  0.0604 -0.2575 -0.8361
  124MOL0     C16981   3.136   2.005   9.887  0.6239  0.0111 -0.1584
  124MOL0     O16982   3.151   2.131   9.834  0.4968  0.0693 -0.1922
  124MOL0     C16983   3.038   2.211   9.809  0.5904 -0.2550 -0.7306
  124MOL0     C16984   3.087   2.364   9.805  0.6433 -0.2488  0.0644
  124MOL0     C16985   3.137   2.419   9.936  0.3888  0.0437  0.3274
  124MOL0     C16986   3.189   2.560   9.912  0.1257  0.1040  0.2802
  124MOL0     C16987   3.225   2.641  10.040  0.0503 -1.1221  0.5283
  124MOL0     C16988   3.253   2.791  10.006  0.6353 -1.3236 -0.8849
  124MOL0     C16989   3.257   2.881  10.135 -0.7879 -0.3472  0.1015
  124MOL0     C16990   3.320   3.011  10.104  1.2455 -0.8189  0.2278
  124MOL0     N16991   3.464   3.008  10.061  1.2150  0.1945  0.4681
  124MOL0     C16992   3.554   2.930  10.113  0.1368 -0.3075  0.3047
  124MOL0     C16993   3.676   2.957  10.054  0.5990  0.2209  0.0388
  124MOL0     C16994   3.805   2.904  10.079  0.1120 -0.0206  0.2035
  124MOL0     C16995   3.801   2.759  10.119  0.2295  0.4745 -0.1053
  124MOL0     C16996   3.747   2.666  10.008 -0.5614  0.5101 -0.2508
  124MOL0     C16997   3.826   2.685   9.878  0.2337 -0.6430  0.8777
  124MOL0     O16998   3.770   2.604   9.768 -0.7043 -0.6778 -0.5918
  124MOL0     C16999   3.639   2.629   9.717  0.3384 -0.1328  0.1377
  124MOL0     C17000   3.568   2.752   9.718 -0.4021 -0.1376 -0.3657
  124MOL0     C17001   3.438   2.764   9.667 -0.4651  0.3888  0.3425
  124MOL0     C17002   3.373   2.892   9.680  0.1716  0.0034  0.5179
  124MOL0     C17003   3.377   2.659   9.600  0.3884 -0.0577 -0.4279
  124MOL0     C17004   3.238   2.652   9.548 -0.0365 -0.6637  0.9424
  124MOL0     O17005   3.204   2.535   9.494  0.5085  0.5965  0.7089
  124MOL0     C17006   3.089   2.540   9.408 -0.1978  0.3908 -1.1368
  124MOL0     C17007   2.981   2.460   9.440  1.0480 -0.0687 -0.4062
  124MOL0     C17008   2.868   2.451   9.355  0.2069  0.4554  0.0396
  124MOL0     C17009   2.866   2.519   9.227 -0.4519  0.4350 -0.7043
  124MOL0     O17010   2.760   2.516   9.135 -0.2748  0.7231 -0.2965
  124MOL0     C17011   2.690   2.390   9.110  0.3331 -0.3511 -0.0619
  124MOL0     C17012   2.581   2.388   9.000 -0.1808 -0.9389 -0.3498
  124MOL0     C17013   2.630   2.426   8.860  0.8782 -0.6046  0.4489
  124MOL0     C17014   2.520   2.441   8.751 -0.5185 -0.0335  0.2750
  124MOL0     C17015   2.391   2.357   8.768 -1.3786  0.2250  0.3703
  124MOL0     C17016   2.298   2.388   8.648  0.2075  0.1987 -0.3863
  124MOL0     C17017   2.166   2.304   8.663  0.1806 -0.3329  0.2507
  124MOL0     C17018   2.184   2.157   8.629 -0.4042 -0.4924 -0.1182
  124MOL0    Cl17019   2.019   2.072   8.594  0.5164  0.4223  0.1668
  124MOL0     C17020   2.981   2.594   9.198 -0.1740 -0.0255  0.3874
  124MOL0     C17021   3.095   2.604   9.287 -0.3340  0.4833 -0.3299
  124MOL0     O17022   3.167   2.753   9.562  0.5056  0.0554  0.4759
  124MOL0     C17023   3.457   2.544   9.580 -0.1309 -0.1973  0.7761
  124MOL0     C17024   3.579   2.531   9.636  0.4163  1.2092  0.4471
  124MOL0     N17025   3.648   3.054   9.961  0.3110 -0.2018 -0.0999
  124MOL0     N17026   3.522   3.093   9.970  0.8933  0.0382 -0.7456
  124MOL0     C17027   3.231   1.910   9.854  0.2782  0.6179  0.1044
  124MOL0     C17028   3.234   1.774   9.903 -0.5697 -0.5602 -0.0576
  124MOL0     C17029   3.177   1.378  10.018 -0.2331  0.5902  1.1955
  124MOL0     C17030   3.130   1.356  10.150 -0.4726  0.2616 -0.7412
  124MOL0     C17031   3.156   1.237  10.214 -0.3224 -0.3032  0.6999
  124MOL0     C17032   3.231   1.139  10.147  1.4620  0.1141  0.3117
  124MOL0     O17033   3.261   1.013  10.196  0.0481 -0.1931  0.4527
  124MOL0     C17034   3.261   1.007  10.336  0.4204  0.1716  0.3093
  124MOL0     C17035   3.318   0.868  10.394  0.3761 -0.7327 -0.1796
  124MOL0     C17036   3.458   0.826  10.327  0.4512 -0.3027 -0.2479
  124MOL0     C17037   3.554   0.937  10.321 -0.4045 -0.0591  0.4242
  124MOL0     C17038   3.587   0.992  10.453  0.0423  0.9612  0.3799
  124MOL0     C17039   3.605   1.043  10.565  0.6590  0.0010  0.4635
  124MOL0     C17040   3.266   1.157  10.017 -0.9563 -0.1227 -0.1574
  124MOL0     C17041   3.244   1.276   9.946 -0.0078 -0.2018  0.9930
  124MOL0     C17042   3.296   1.279   9.802  0.2682  0.4648  0.5602
  124MOL0     H17043   2.957   1.799  10.085 -0.1947 -0.5231 -0.4829
  124MOL0     H17044   2.956   2.039   9.985  1.9648  1.4370  2.4111
  124MOL0     H17045   2.959   2.212   9.884  0.2374  3.3326 -0.9522
  124MOL0     H17046   2.994   2.179   9.714  0.9635 -1.3288 -0.5485
  124MOL0     H17047   3.169   2.367   9.734  1.2192 -0.7313  0.6954
  124MOL0     H17048   2.997   2.415   9.770  0.4950  0.5810  1.5711
  124MOL0     H17049   3.054   2.418  10.007  1.0763  1.0210  1.1793
  124MOL0     H17050   3.217   2.354   9.973  1.1923  1.5779  1.4264
  124MOL0     H17051   3.276   2.548   9.847  0.1199  1.2687  0.0418
  124MOL0     H17052   3.108   2.618   9.867  0.8373  2.3589  1.7155
  124MOL0     H17053   3.315   2.598  10.086  0.1733 -0.0061  1.3912
  124MOL0     H17054   3.142   2.633  10.112  1.0495  0.1657  1.8822
  124MOL0     H17055   3.348   2.788   9.952  0.6403 -0.2501 -0.9620
  124MOL0     H17056   3.168   2.828   9.949  0.3015 -1.1093 -0.2484
  124MOL0     H17057   3.319   2.832  10.211  1.3489  0.3968 -1.0656
  124MOL0     H17058   3.154   2.901  10.166 -0.9356 -0.1028 -0.5467
  124MOL0     H17059   3.261   3.075  10.038  1.0918  1.4309  2.3681
  124MOL0     H17060   3.319   3.055  10.205  0.5503 -0.1905 -0.0443
  124MOL0     H17061   3.534   2.847  10.180 -0.0734 -1.7676 -1.4990
  124MOL0     H17062   3.853   2.961  10.159  0.8310  0.8528 -0.8210
  124MOL0     H17063   3.859   2.926   9.987 -0.5644  0.7009 -0.0400
  124MOL0     H17064   3.904   2.741  10.151  0.0662 -0.5511 -0.1134
  124MOL0     H17065   3.737   2.750  10.207  0.1945  3.7158  0.3230
  124MOL0     H17066   3.766   2.562  10.036  2.7014 -0.3908 -4.6551
  124MOL0     H17067   3.641   2.680   9.985 -1.1038 -2.3051  0.2163
  124MOL0     H17068   3.815   2.787   9.838  0.4268 -1.2303 -0.7460
  124MOL0     H17069   3.934   2.671   9.886  1.2129  4.1217 -0.3576
  124MOL0     H17070   3.616   2.835   9.769  0.1391 -1.2134  0.9441
  124MOL0     H17071   3.351   2.935   9.582  2.4243  0.4434  0.1520
  124MOL0     H17072   3.439   2.961   9.734 -0.7785  0.0081  1.7230
  124MOL0     H17073   3.278   2.888   9.734  0.7946  3.9235  2.2702
  124MOL0     H17074   2.972   2.416   9.539 -1.1044  4.5074  1.7315
  124MOL0     H17075   2.781   2.398   9.394  0.6447 -0.0803  0.3140
  124MOL0     H17076   2.770   2.329   9.066 -1.0016 -1.4811 -1.0374
  124MOL0     H17077   2.664   2.345   9.206  3.0257 -1.0598  0.4209
  124MOL0     H17078   2.552   2.283   9.002 -0.2108 -1.0041  3.2026
  124MOL0     H17079   2.497   2.453   9.028  0.0068 -0.4490 -0.9088
  124MOL0     H17080   2.692   2.345   8.823 -0.2343 -1.3455  0.1384
  124MOL0     H17081   2.685   2.520   8.873  0.3791 -0.4336  1.4070
  124MOL0     H17082   2.565   2.428   8.652  0.1877 -0.8462  0.6937
  124MOL0     H17083   2.482   2.543   8.754 -2.6834 -0.7287 -1.2091
  124MOL0     H17084   2.429   2.255   8.757 -2.2764  0.0681 -1.6020
  124MOL0     H17085   2.341   2.366   8.865  0.0254  1.2792  1.0370
  124MOL0     H17086   2.339   2.374   8.548 -1.0333  3.6755 -1.5454
  124MOL0     H17087   2.276   2.495   8.656  0.4684  0.1769  0.8020
  124MOL0     H17088   2.094   2.354   8.597 -0.5986 -2.2214 -0.4084
  124MOL0     H17089   2.125   2.313   8.764  0.1988  1.8545  0.1120
  124MOL0     H17090   2.233   2.107   8.714  0.3767  1.2053  0.4832
  124MOL0     H17091   2.251   2.138   8.545 -0.2059 -0.8112  0.1126
  124MOL0     H17092   2.980   2.654   9.107 -0.8930  0.4497  0.7006
  124MOL0     H17093   3.177   2.674   9.273 -1.5638  2.1580  0.4618
  124MOL0     H17094   3.424   2.469   9.509  0.1463  2.6237 -2.6212
  124MOL0     H17095   3.623   2.435   9.614 -1.8337  0.4505 -1.1570
  124MOL0     H17096   3.318   1.931   9.793  0.4255 -1.5518 -0.5215
  124MOL0     H17097   3.309   1.703   9.867 -0.3577 -0.8532  0.9137
  124MOL0     H17098   3.083   1.442  10.196  2.1994  0.7679  1.3409
  124MOL0     H17099   3.120   1.224  10.316  2.4115  1.7585  2.0592
  124MOL0     H17100   3.317   1.093  10.376 -0.3674  0.9325 -0.1893
  124MOL0     H17101   3.155   1.016  10.360 -0.3092 -0.1085 -2.4420
  124MOL0     H17102   3.247   0.786  10.376  0.1763 -0.8724  1.1721
  124MOL0     H17103   3.337   0.876  10.501  1.7529 -1.6474 -0.3254
  124MOL0     H17104   3.504   0.748  10.389 -1.9126  0.4655  2.7115
  124MOL0     H17105   3.443   0.785  10.227  0.4185  1.9952 -1.2290
  124MOL0     H17106   3.512   1.018  10.260 -0.8034  0.8475  1.8326
  124MOL0     H17107   3.650   0.903  10.283 -0.3683 -0.4605  0.8669
  124MOL0     H17108   3.632   1.092  10.656  1.3683  3.2190 -1.3176
  124MOL0     H17109   3.327   1.082   9.967  2.9424  3.4292 -1.3524
  124MOL0     H17110   3.366   1.200   9.776  2.3587  3.0234 -2.2501
  124MOL0     H17111   3.218   1.293   9.726  0.4535 -1.7512 -0.0794
  124MOL0     H17112   3.350   1.374   9.788  0.7671 -0.3094 -4.7371
  125MOL0     O17113   1.694   3.143   0.407  0.5022  0.6855 -1.2721
  125MOL0     C17114   1.606   3.062   0.420  0.5194 -0.6411 -0.1630
  125MOL0     O17115   1.479   3.094   0.470 -0.3887  0.5829 -0.2836
  125MOL0     C17116   1.449   3.217   0.514  0.0664  0.7956 -1.3112
  125MOL0     C17117   1.444   3.319   0.417 -0.5479  0.0332 -0.4674
  125MOL0     C17118   1.409   3.453   0.452 -0.3857 -0.1696  0.2822
  125MOL0     C17119   1.379   3.482   0.585 -0.9430  0.1418 -0.2975
  125MOL0     O17120   1.349   3.610   0.623  0.2649  0.3139 -0.0183
  125MOL0     C17121   1.396   3.720   0.557 -0.0005  0.0565 -0.1445
  125MOL0     C17122   1.281   3.797   0.502  0.2649  0.0612 -0.6198
  125MOL0     C17123   1.317   3.935   0.456  0.0491  0.5265 -0.4403
  125MOL0     C17124   1.222   3.979   0.351  0.4879  0.0583 -0.1442
  125MOL0     C17125   1.197   4.137   0.350  0.4758 -0.1705  0.4149
  125MOL0     C17126   1.081   4.181   0.447  0.3124 -0.5567 -0.0200
  125MOL0     C17127   1.040   4.330   0.431 -0.5501 -0.6313 -0.3893
  125MOL0     C17128   1.004   4.377   0.289  0.4005  0.3986 -1.1165
  125MOL0     N17129   0.864   4.369   0.246 -0.7323  0.2413 -1.0185
  125MOL0     C17130   0.773   4.457   0.283 -1.1901 -0.0605 -0.9478
  125MOL0     C17131   0.652   4.410   0.252  0.3555 -0.3361  0.1976
  125MOL0     C17132   0.517   4.477   0.268  0.0669  0.0635 -0.2837
  125MOL0     C17133   0.498   4.572   0.147 -0.3704  0.3290 -0.0777
  125MOL0     C17134   0.420   4.524   0.022  0.2708 -0.1296  0.3379
  125MOL0     C17135   0.456   4.597  -0.109  0.3219  0.4697 -0.4234
  125MOL0     O17136   0.425   4.734  -0.102 -0.0297 -0.5026  0.2652
  125MOL0     C17137   0.294   4.771  -0.125  0.6080 -0.0829 -0.7673
  125MOL0     C17138   0.263   4.905  -0.110 -0.3000 -0.2418 -0.2903
  125MOL0     C17139   0.137   4.965  -0.126  0.0750  0.1135  0.1967
  125MOL0     C17140   0.118   5.114  -0.102  0.5227 -0.1751 -0.0999
  125MOL0     C17141   0.028   4.883  -0.144 -0.0998  0.2030 -0.3854
  125MOL0     C17142  -0.113   4.928  -0.144 -0.5865 -0.6845  0.0991
  125MOL0     O17143  -0.198   4.833  -0.102  0.7518  0.3029  0.0989
  125MOL0     C17144  -0.327   4.870  -0.093 -0.2633 -0.1001 -0.6489
  125MOL0     C17145  -0.393   4.921  -0.201  0.0769 -0.1198 -0.2115
  125MOL0     C17146  -0.521   4.979  -0.183  0.2971  0.0910  0.0927
  125MOL0     C17147  -0.581   4.985  -0.048 -0.9917  0.3294  0.1415
  125MOL0     O17148  -0.689   5.051  -0.021  0.4759  0.1451  0.7772
  125MOL0     C17149  -0.745   5.149  -0.111  0.5402 -0.1499 -0.2709
  125MOL0     C17150  -0.887   5.184  -0.065 -1.2035 -0.1647  0.3227
  125MOL0     C17151  -0.897   5.228   0.081 -0.6247 -0.3697 -0.3032
  125MOL0     C17152  -1.032   5.293   0.088  0.2272  0.4037  0.1438
  125MOL0     C17153  -1.074   5.345   0.224 -0.9317  0.4095  0.5375
  125MOL0     C17154  -1.194   5.448   0.233  0.6504 -0.5819  0.3439
  125MOL0     C17155  -1.309   5.421   0.141  0.2797  0.5898  0.1122
  125MOL0     C17156  -1.430   5.503   0.182  0.6247 -0.7167 -0.6745
  125MOL0    Cl17157  -1.391   5.679   0.167  0.2502  0.0251 -0.0908
  125MOL0     C17158  -0.516   4.916   0.054  0.0961 -0.0133 -0.1886
  125MOL0     C17159  -0.387   4.862   0.035 -0.6484  0.0114  0.4451
  125MOL0     O17160  -0.139   5.046  -0.179  0.4718  0.0713  0.2383
  125MOL0     C17161   0.052   4.746  -0.170 -0.1154 -0.4859 -0.3252
  125MOL0     C17162   0.180   4.688  -0.163  0.6956 -0.3216 -1.0532
  125MOL0     N17163   0.671   4.286   0.193  0.3182 -0.2828 -0.0187
  125MOL0     N17164   0.797   4.266   0.198 -0.9293  0.0107  0.4290
  125MOL0     C17165   1.384   3.381   0.685 -0.1943 -0.7804 -0.3651
  125MOL0     C17166   1.422   3.249   0.650  0.6320  0.9809  0.0295
  125MOL0     C17167   1.632   2.918   0.379  0.5542 -0.0753  0.6025
  125MOL0     C17168   1.559   2.853   0.281  0.0440 -0.8662 -0.1774
  125MOL0     C17169   1.571   2.716   0.249 -0.4340  0.2145 -0.0790
  125MOL0     C17170   1.677   2.641   0.296  0.1780  0.0503 -1.0721
  125MOL0     O17171   1.690   2.513   0.261 -0.3832  0.5395  1.2525
  125MOL0     C17172   1.794   2.432   0.304  0.4493  0.4176  0.8121
  125MOL0     C17173   1.805   2.304   0.221  0.2873  0.1953 -0.2039
  125MOL0     C17174   1.851   2.343   0.082  0.4643 -0.1000 -0.1978
  125MOL0     C17175   1.846   2.228  -0.022 -0.0374 -1.6036  0.5460
  125MOL0     C17176   1.907   2.295  -0.140 -0.4688  0.4003  0.2772
  125MOL0     C17177   1.969   2.352  -0.233 -0.9748  0.6803  0.2050
  125MOL0     C17178   1.767   2.705   0.376  0.2910 -0.2617 -0.6217
  125MOL0     C17179   1.743   2.838   0.424 -0.6273  0.5368 -0.1267
  125MOL0     C17180   1.830   2.896   0.533 -0.3593  0.3413 -0.0367
  125MOL0     H17181   1.448   3.289   0.312  0.7792 -2.8305  0.3046
  125MOL0     H17182   1.395   3.524   0.372 -2.3415 -0.4828  0.3148
  125MOL0     H17183   1.471   3.699   0.480  0.7622 -0.3229  0.6686
  125MOL0     H17184   1.441   3.788   0.630  0.5722 -1.5226  1.0382
  125MOL0     H17185   1.244   3.736   0.419  1.5720 -2.7341  0.7176
  125MOL0     H17186   1.201   3.805   0.576  0.9931  3.6078 -0.0668
  125MOL0     H17187   1.317   4.016   0.529  0.3871  2.4316 -2.4402
  125MOL0     H17188   1.418   3.940   0.415  1.1251  2.9172  2.1966
  125MOL0     H17189   1.250   3.940   0.253 -1.8856 -1.0029 -0.4913
  125MOL0     H17190   1.124   3.935   0.372  0.6909  0.4012  1.6206
  125MOL0     H17191   1.169   4.156   0.246 -1.5296 -2.4643  0.4433
  125MOL0     H17192   1.290   4.186   0.379  0.7838  1.9259 -3.4759
  125MOL0     H17193   0.993   4.116   0.436 -0.1811 -0.7823  3.8887
  125MOL0     H17194   1.115   4.157   0.548 -0.8092  0.2027  0.5641
  125MOL0     H17195   1.133   4.380   0.459  0.9517 -2.0726 -2.4269
  125MOL0     H17196   0.956   4.351   0.497 -0.1658 -0.9294  0.2039
  125MOL0     H17197   1.046   4.478   0.283  0.6182  0.6963  2.6834
  125MOL0     H17198   1.062   4.322   0.214 -0.9569  0.0421 -1.9287
  125MOL0     H17199   0.800   4.545   0.341 -0.1437  0.7859 -2.6126
  125MOL0     H17200   0.514   4.534   0.360  0.6888 -0.5890  0.1493
  125MOL0     H17201   0.433   4.407   0.278 -0.0688  0.1435 -0.8024
  125MOL0     H17202   0.431   4.652   0.178 -2.0483 -0.5424 -1.2889
  125MOL0     H17203   0.589   4.628   0.122 -0.4531  0.2137 -0.6502
  125MOL0     H17204   0.430   4.419  -0.006  0.9961  0.7140 -2.9347
  125MOL0     H17205   0.314   4.527   0.048  0.5047 -2.1234  1.7560
  125MOL0     H17206   0.558   4.589  -0.147 -0.2402  0.4138 -1.9712
  125MOL0     H17207   0.409   4.544  -0.192 -0.6287 -0.8755  0.9322
  125MOL0     H17208   0.342   4.978  -0.096 -1.2822  0.6228  0.9673
  125MOL0     H17209   0.214   5.166  -0.103 -0.7847  2.5243  1.8575
  125MOL0     H17210   0.069   5.121  -0.005 -1.4191  0.5329 -1.0662
  125MOL0     H17211   0.066   5.176  -0.176  3.6699  0.4793 -1.9494
  125MOL0     H17212  -0.343   4.920  -0.298  2.5590 -0.4560  1.0025
  125MOL0     H17213  -0.562   5.021  -0.274 -1.4989 -3.8793 -1.1703
  125MOL0     H17214  -0.687   5.241  -0.104  1.1675 -0.6375  1.6533
  125MOL0     H17215  -0.748   5.114  -0.215  1.0366 -3.9984  0.8290
  125MOL0     H17216  -0.930   5.264  -0.125  1.4339  0.9260 -0.2188
  125MOL0     H17217  -0.953   5.097  -0.071 -1.2874 -0.1934  1.3625
  125MOL0     H17218  -0.822   5.303   0.106 -2.1954  1.4683 -0.9386
  125MOL0     H17219  -0.880   5.140   0.144  1.3006 -1.2927 -1.9484
  125MOL0     H17220  -1.108   5.218   0.065 -1.0550  1.9048 -0.7104
  125MOL0     H17221  -1.042   5.378   0.019  0.0748 -0.7837 -1.3635
  125MOL0     H17222  -1.101   5.264   0.292  0.0056 -0.1136  0.3013
  125MOL0     H17223  -0.988   5.396   0.268  0.9681 -0.5247 -1.8477
  125MOL0     H17224  -1.160   5.544   0.193  2.9721 -1.4566  0.0664
  125MOL0     H17225  -1.228   5.467   0.335  0.0757  2.4976 -0.3143
  125MOL0     H17226  -1.338   5.316   0.141  1.1874  0.3228  1.2947
  125MOL0     H17227  -1.297   5.439   0.033  0.5953 -0.5628 -0.0510
  125MOL0     H17228  -1.454   5.485   0.288  2.0858 -3.0318 -0.6697
  125MOL0     H17229  -1.520   5.491   0.122  0.0312  0.8013 -0.1460
  125MOL0     H17230  -0.569   4.915   0.149 -3.3824  1.5952 -1.9342
  125MOL0     H17231  -0.344   4.811   0.121 -2.0546 -0.4789  0.8772
  125MOL0     H17232  -0.026   4.672  -0.188 -0.1081 -0.4813 -0.3766
  125MOL0     H17233   0.186   4.583  -0.192 -0.7973 -0.6608 -0.2883
  125MOL0     H17234   1.365   3.405   0.789 -1.4170 -0.8084 -0.5743
  125MOL0     H17235   1.431   3.178   0.731 -0.4479  3.9399  3.0049
  125MOL0     H17236   1.479   2.912   0.237 -0.4029 -0.9005  0.5715
  125MOL0     H17237   1.494   2.681   0.180  0.8882  0.8834 -1.9930
  125MOL0     H17238   1.893   2.478   0.303  2.2255 -3.1202  1.4015
  125MOL0     H17239   1.789   2.403   0.409 -0.2842  2.4785  1.4110
  125MOL0     H17240   1.714   2.245   0.236  0.6582 -0.8152 -1.7227
  125MOL0     H17241   1.878   2.232   0.259  1.3089  0.0453 -2.3314
  125MOL0     H17242   1.798   2.432   0.050  1.0330 -0.8914 -3.6686
  125MOL0     H17243   1.955   2.375   0.092  0.1998  0.7286  0.0022
  125MOL0     H17244   1.743   2.204  -0.047  0.5163 -1.7734 -1.7772
  125MOL0     H17245   1.910   2.144   0.008 -0.7441 -2.1565  0.5272
  125MOL0     H17246   2.013   2.408  -0.313 -1.5527 -1.8523 -2.0410
  125MOL0     H17247   1.855   2.653   0.413  0.1536  0.2977  0.5531
  125MOL0     H17248   1.888   2.813   0.574 -1.3359  0.0788  0.8576
  125MOL0     H17249   1.898   2.973   0.494  1.2586  0.0556  2.0081
  125MOL0     H17250   1.778   2.937   0.620  0.1556 -1.5007  1.2074
  126MOL0     O17251   0.541   8.857   8.157 -0.0213 -0.4627 -0.6275
  126MOL0     C17252   0.581   8.867   8.045  0.5020 -0.3529  0.5796
  126MOL0     O17253   0.714   8.872   8.006  0.1774 -0.1663  0.6256
  126MOL0     C17254   0.811   8.872   8.105  0.3445 -0.6064  0.0536
  126MOL0     C17255   0.869   8.986   8.162  0.0356 -0.5234 -0.3537
  126MOL0     C17256   0.969   8.969   8.257  0.4738  0.2429 -0.0094
  126MOL0     C17257   1.019   8.842   8.293  0.4218  0.3486 -0.2863
  126MOL0     O17258   1.139   8.841   8.368 -0.8794  0.0187 -0.3320
  126MOL0     C17259   1.152   8.734   8.458 -0.0318 -0.0067  0.4816
  126MOL0     C17260   1.264   8.786   8.544  0.3915 -0.1660 -0.4191
  126MOL0     C17261   1.301   8.691   8.658 -0.1670  1.3178  0.9818
  126MOL0     C17262   1.426   8.746   8.724  0.6608 -0.1109 -0.1520
  126MOL0     C17263   1.443   8.707   8.877  0.4447 -0.2831  0.0158
  126MOL0     C17264   1.536   8.796   8.942  0.4426 -0.0424 -0.4172
  126MOL0     C17265   1.600   8.729   9.058  0.3358  0.5009 -0.2390
  126MOL0     C17266   1.673   8.834   9.153  0.3435  0.1778 -1.0494
  126MOL0     N17267   1.815   8.846   9.152 -0.5711  0.3620 -0.8685
  126MOL0     C17268   1.879   8.943   9.076 -0.2227 -0.4307 -0.5082
  126MOL0     C17269   2.002   8.954   9.137  1.0941 -0.7057  0.2723
  126MOL0     C17270   2.107   9.050   9.094  0.8960 -0.1646  0.7842
  126MOL0     C17271   2.182   8.990   8.979 -0.3066  0.3318  0.4474
  126MOL0     C17272   2.257   8.856   9.014 -0.8079 -0.6055  0.1196
  126MOL0     C17273   2.326   8.851   9.154  0.1096 -0.2450 -0.0432
  126MOL0     O17274   2.410   8.972   9.177  0.6803 -0.2681 -0.3693
  126MOL0     C17275   2.535   8.987   9.114  1.1221  0.2034 -0.1194
  126MOL0     C17276   2.577   9.118   9.090 -0.1029  0.0985 -0.6079
  126MOL0     C17277   2.693   9.144   9.014  0.2093 -0.0648  0.1650
  126MOL0     C17278   2.719   9.290   8.984 -0.0812 -0.3733  0.0485
  126MOL0     C17279   2.762   9.031   8.951 -0.5144  0.2786 -1.0721
  126MOL0     C17280   2.868   9.051   8.858 -0.6276  0.6391 -0.4854
  126MOL0     O17281   2.875   8.958   8.760 -0.2653  0.3979  0.4209
  126MOL0     C17282   2.980   8.971   8.671  0.8403  0.5732  0.0154
  126MOL0     C17283   3.003   9.073   8.582 -0.8037 -0.2530 -0.7439
  126MOL0     C17284   3.127   9.082   8.514 -0.1213  0.0151  0.6996
  126MOL0     C17285   3.202   8.962   8.508 -0.7132  0.4324  0.0313
  126MOL0     O17286   3.305   8.936   8.413 -0.1289  0.1266 -0.2806
  126MOL0     C17287   3.303   9.009   8.294 -0.5218  0.0019  0.0620
  126MOL0     C17288   3.386   8.941   8.186 -0.4808 -0.1675  0.1339
  126MOL0     C17289   3.321   8.951   8.053  0.4352  0.3621 -0.4466
  126MOL0     C17290   3.410   8.911   7.933 -0.3804  0.3869 -0.3746
  126MOL0     C17291   3.503   9.010   7.893 -0.6980 -0.4835 -0.0943
  126MOL0     C17292   3.613   8.948   7.800 -1.4328  0.5315  1.2027
  126MOL0     C17293   3.697   9.069   7.743  0.1889 -0.8288 -0.5292
  126MOL0     C17294   3.798   9.023   7.647 -0.6107  0.4719 -0.9044
  126MOL0    Cl17295   3.921   8.926   7.722  0.6004 -0.3033  0.1750
  126MOL0     C17296   3.169   8.852   8.587  0.1255  0.6561 -0.1935
  126MOL0     C17297   3.062   8.859   8.677 -0.6936  0.7512 -0.4633
  126MOL0     O17298   2.947   9.139   8.879 -0.0330  0.2118 -0.3216
  126MOL0     C17299   2.718   8.904   8.976 -0.1585 -0.2848 -0.3316
  126MOL0     C17300   2.608   8.883   9.060  0.1173 -0.3440  0.1893
  126MOL0     N17301   2.002   8.857   9.231 -0.7638 -0.5859  0.1270
  126MOL0     N17302   1.902   8.792   9.242  0.6698  0.2942 -0.0370
  126MOL0     C17303   0.971   8.730   8.232 -0.8279  0.1882  0.5576
  126MOL0     C17304   0.866   8.746   8.144 -0.1103  0.5233 -0.0754
  126MOL0     C17305   0.479   8.859   7.937 -0.3876 -0.6827  0.4521
  126MOL0     C17306   0.528   8.902   7.811  0.5469  0.3257 -0.0201
  126MOL0     C17307   0.432   8.908   7.705 -0.1798 -0.4444 -0.2312
  126MOL0     C17308   0.298   8.871   7.717  0.6103 -0.5318 -0.4893
  126MOL0     O17309   0.217   8.895   7.609  0.2575  0.0344 -0.7853
  126MOL0     C17310   0.216   8.799   7.504 -0.2309 -0.0702  0.8982
  126MOL0     C17311   0.126   8.677   7.540 -1.4398  0.3468  0.1417
  126MOL0     C17312  -0.008   8.721   7.591 -0.3263  0.0823 -0.0257
  126MOL0     C17313  -0.110   8.605   7.573  0.3937  0.0469 -0.0940
  126MOL0     C17314  -0.065   8.505   7.672 -0.1154  0.2119  0.2485
  126MOL0     C17315  -0.039   8.415   7.747 -0.0071  0.3831 -1.0602
  126MOL0     C17316   0.261   8.809   7.838  0.5375  0.3667 -0.4434
  126MOL0     C17317   0.351   8.797   7.948  0.3963  1.2706 -0.4827
  126MOL0     C17318   0.305   8.725   8.074 -0.6070  0.4125  0.4422
  126MOL0     H17319   0.828   9.081   8.129 -2.0645 -1.8231 -1.7378
  126MOL0     H17320   1.023   9.054   8.296  0.8223  1.0138 -2.0196
  126MOL0     H17321   1.161   8.635   8.414 -3.1389  0.2588 -1.0638
  126MOL0     H17322   1.062   8.723   8.520  0.1362 -1.9303  0.4291
  126MOL0     H17323   1.350   8.811   8.482  2.0956 -1.1322  1.4643
  126MOL0     H17324   1.232   8.879   8.594  0.6762 -0.6240  0.6547
  126MOL0     H17325   1.218   8.681   8.728 -0.0548 -0.2034  0.9227
  126MOL0     H17326   1.339   8.595   8.622  1.1409  2.6554 -1.4492
  126MOL0     H17327   1.505   8.706   8.659 -1.2913 -3.7398 -0.5745
  126MOL0     H17328   1.420   8.855   8.714 -0.6396 -0.2197 -0.6842
  126MOL0     H17329   1.466   8.600   8.878  0.1598 -0.3894 -1.7225
  126MOL0     H17330   1.350   8.728   8.932 -0.0414 -1.0401 -0.4899
  126MOL0     H17331   1.616   8.823   8.873 -0.6282  1.8095 -1.0035
  126MOL0     H17332   1.494   8.889   8.981  0.8763 -0.8072  2.0836
  126MOL0     H17333   1.662   8.644   9.027  0.4567  0.4925  0.0216
  126MOL0     H17334   1.530   8.680   9.127  3.0128 -1.3330  1.3708
  126MOL0     H17335   1.626   8.931   9.138 -1.4848 -0.7282 -1.4426
  126MOL0     H17336   1.651   8.798   9.254 -3.0120 -2.8365 -2.6226
  126MOL0     H17337   1.850   8.989   8.981  0.1612  2.0713  0.5061
  126MOL0     H17338   2.181   9.077   9.171  1.9680  1.6339 -0.7952
  126MOL0     H17339   2.066   9.146   9.063  0.0332 -0.0380  2.1896
  126MOL0     H17340   2.111   8.973   8.898 -1.8287  0.1092  1.7857
  126MOL0     H17341   2.249   9.069   8.943 -0.4118  1.7187  2.9878
  126MOL0     H17342   2.181   8.779   9.000 -0.8642 -0.9417  2.0280
  126MOL0     H17343   2.332   8.831   8.937 -1.1635 -2.2474  0.2714
  126MOL0     H17344   2.264   8.830   9.241 -1.5320 -0.6691 -1.2695
  126MOL0     H17345   2.395   8.766   9.152  2.1492  1.3272 -1.0011
  126MOL0     H17346   2.526   9.204   9.133 -1.2127 -0.3481 -0.9965
  126MOL0     H17347   2.768   9.345   9.065 -2.9335  2.4238  0.0800
  126MOL0     H17348   2.622   9.341   8.983  0.4661  0.7631 -2.8027
  126MOL0     H17349   2.772   9.319   8.893  0.5063 -0.2345  0.4297
  126MOL0     H17350   2.935   9.155   8.603  0.0379  0.3079 -0.1728
  126MOL0     H17351   3.151   9.166   8.450 -1.1687 -1.5448 -1.8645
  126MOL0     H17352   3.204   9.037   8.257 -1.4598 -2.4984  0.5051
  126MOL0     H17353   3.332   9.113   8.312  2.9644 -0.7433 -0.4692
  126MOL0     H17354   3.483   8.992   8.185 -1.1916  1.2173 -0.3496
  126MOL0     H17355   3.390   8.834   8.210 -0.6959  0.0217  1.0181
  126MOL0     H17356   3.276   9.050   8.045  0.6522  0.5549  0.5802
  126MOL0     H17357   3.241   8.876   8.061  0.6026  0.1530 -0.7161
  126MOL0     H17358   3.346   8.887   7.847  0.0806  0.6876 -0.8050
  126MOL0     H17359   3.463   8.821   7.967 -1.2632 -0.1715 -0.4427
  126MOL0     H17360   3.445   9.076   7.829  1.6178 -0.2383 -2.0986
  126MOL0     H17361   3.551   9.060   7.977  0.1059 -1.4122  0.0216
  126MOL0     H17362   3.563   8.893   7.719  4.4299 -1.6192 -1.4927
  126MOL0     H17363   3.672   8.870   7.849 -0.1315  0.4735 -0.3687
  126MOL0     H17364   3.745   9.130   7.820  0.5187 -0.0523 -1.3281
  126MOL0     H17365   3.623   9.127   7.687 -1.2102 -0.2389  1.7808
  126MOL0     H17366   3.860   9.108   7.618  1.7820 -0.7096  0.4537
  126MOL0     H17367   3.748   8.975   7.562  2.0630 -3.5568 -0.4885
  126MOL0     H17368   3.238   8.769   8.572 -1.0913  0.1636 -4.4936
  126MOL0     H17369   3.039   8.783   8.751  1.0167  0.3310 -0.3177
  126MOL0     H17370   2.757   8.820   8.920 -1.9744  0.0700 -2.2408
  126MOL0     H17371   2.584   8.779   9.079  1.5892 -1.1257 -1.8518
  126MOL0     H17372   1.016   8.634   8.256 -0.0029  0.8867  1.9402
  126MOL0     H17373   0.825   8.666   8.083  2.1020  1.3685 -2.8994
  126MOL0     H17374   0.632   8.920   7.787  0.3428 -1.9763 -3.3004
  126MOL0     H17375   0.479   8.938   7.612  2.8284 -4.2793 -0.2129
  126MOL0     H17376   0.171   8.827   7.409  3.2721 -0.7834 -1.1308
  126MOL0     H17377   0.317   8.781   7.467 -0.6325  0.4570 -0.5287
  126MOL0     H17378   0.180   8.616   7.613 -2.1091  0.8756  1.1103
  126MOL0     H17379   0.109   8.612   7.454  2.7745 -1.6118  0.5715
  126MOL0     H17380  -0.006   8.765   7.691 -0.0548  1.2215 -0.5084
  126MOL0     H17381  -0.046   8.801   7.526  0.8483  0.7450  0.0623
  126MOL0     H17382  -0.108   8.562   7.472 -0.3385  0.3770 -0.2517
  126MOL0     H17383  -0.213   8.637   7.591 -0.8704 -3.3271 -0.5578
  126MOL0     H17384  -0.017   8.330   7.809  3.1080  1.3986 -0.5786
  126MOL0     H17385   0.156   8.782   7.843  0.8362 -0.6961  0.3092
  126MOL0     H17386   0.212   8.667   8.066  0.4365 -1.3693  0.5425
  126MOL0     H17387   0.383   8.651   8.093 -2.8692 -2.0694  0.7541
  126MOL0     H17388   0.283   8.796   8.154 -2.3330  0.0320  0.3477
  127MOL0     O17389   0.344   7.683   2.840 -0.6087  0.0057  0.2755
  127MOL0     C17390   0.365   7.718   2.722 -0.9565 -0.1798 -0.4314
  127MOL0     O17391   0.287   7.816   2.656 -0.1058  0.7130  0.1876
  127MOL0     C17392   0.171   7.843   2.724 -0.2553 -0.9706  0.9211
  127MOL0     C17393   0.053   7.774   2.696 -0.7812 -0.0642 -0.3618
  127MOL0     C17394  -0.063   7.827   2.753 -0.1540  0.1044  0.6794
  127MOL0     C17395  -0.060   7.958   2.809 -0.2421 -0.0257 -0.3581
  127MOL0     O17396  -0.159   8.016   2.880 -0.2054  0.0900  0.4072
  127MOL0     C17397  -0.293   7.986   2.838  0.1560  1.4204 -0.4928
  127MOL0     C17398  -0.360   7.882   2.930  0.6353 -0.9858  0.6045
  127MOL0     C17399  -0.510   7.876   2.906  0.4181  0.1543  0.1492
  127MOL0     C17400  -0.567   7.756   2.992 -0.2862  0.2493  0.3185
  127MOL0     C17401  -0.721   7.750   2.981 -0.2734  0.2389  0.3266
  127MOL0     C17402  -0.795   7.653   3.072 -0.3149  0.1621  0.0912
  127MOL0     C17403  -0.943   7.670   3.061  0.0200  0.5768 -0.4018
  127MOL0     C17404  -1.032   7.562   3.124  0.1246  0.7772  0.4166
  127MOL0     N17405  -0.999   7.539   3.266 -0.5937 -0.2923 -0.2652
  127MOL0     C17406  -1.000   7.631   3.371  0.2284 -0.3002  1.1187
  127MOL0     C17407  -0.984   7.562   3.486 -0.2495 -0.2954  0.9081
  127MOL0     C17408  -0.945   7.617   3.626  0.9798  0.5604 -0.6529
  127MOL0     C17409  -0.937   7.513   3.748 -0.1181 -1.1362  0.1550
  127MOL0     C17410  -0.812   7.426   3.741 -0.6792  1.0044  0.9137
  127MOL0     C17411  -0.679   7.500   3.786  0.7238 -0.1144 -0.3416
  127MOL0     O17412  -0.573   7.403   3.785  0.2899  0.5586 -0.0036
  127MOL0     C17413  -0.444   7.450   3.770  0.3885  0.3661 -0.7765
  127MOL0     C17414  -0.346   7.370   3.720  0.9358  0.1721  0.3102
  127MOL0     C17415  -0.215   7.406   3.687 -0.3562  0.2797  0.3630
  127MOL0     C17416  -0.124   7.295   3.626 -0.6236 -0.6982 -0.5697
  127MOL0     C17417  -0.188   7.548   3.684 -0.1894 -0.0226  0.3799
  127MOL0     C17418  -0.054   7.599   3.631 -1.0154 -0.0464  0.0830
  127MOL0     O17419   0.046   7.509   3.625 -0.4771 -0.2396 -0.3061
  127MOL0     C17420   0.166   7.559   3.595  0.1311  0.3165 -0.9347
  127MOL0     C17421   0.275   7.517   3.662  0.6387  0.2012 -0.6166
  127MOL0     C17422   0.410   7.542   3.627 -0.2145  0.3647 -0.5266
  127MOL0     C17423   0.434   7.600   3.498 -0.4465 -0.9790  0.2027
  127MOL0     O17424   0.567   7.610   3.458  0.1141  0.1387 -0.3251
  127MOL0     C17425   0.599   7.702   3.364 -0.7567  0.3348  0.5022
  127MOL0     C17426   0.738   7.651   3.311 -0.3505  0.0320  0.4074
  127MOL0     C17427   0.841   7.727   3.408  0.4076 -0.1783 -0.0828
  127MOL0     C17428   0.985   7.710   3.374 -0.5296  0.2230 -0.9947
  127MOL0     C17429   1.066   7.791   3.480  0.1595  0.2892  0.8607
  127MOL0     C17430   1.211   7.798   3.454 -0.6638  0.2039 -0.5190
  127MOL0     C17431   1.281   7.672   3.493  0.4909  0.6349  0.3369
  127MOL0     C17432   1.428   7.710   3.476  1.0411 -0.0217 -0.0277
  127MOL0    Cl17433   1.538   7.566   3.494 -0.4043 -0.4413 -0.0166
  127MOL0     C17434   0.325   7.640   3.421  0.3129  0.6294 -0.2542
  127MOL0     C17435   0.193   7.623   3.469  0.4958 -0.3842 -0.5510
  127MOL0     O17436  -0.050   7.710   3.587 -0.0887 -0.5420 -0.0251
  127MOL0     C17437  -0.283   7.637   3.742 -0.6854  0.1514  0.1198
  127MOL0     C17438  -0.410   7.590   3.781 -0.4887  0.6118 -0.4958
  127MOL0     N17439  -0.987   7.425   3.455 -0.5307 -0.0295  0.4536
  127MOL0     N17440  -0.992   7.417   3.326 -0.8700  0.1407 -0.1879
  127MOL0     C17441   0.066   8.027   2.821  0.5159 -1.1840 -1.4482
  127MOL0     C17442   0.180   7.969   2.775  0.1228 -1.1952 -0.1475
  127MOL0     C17443   0.484   7.660   2.646 -0.5095 -0.2111  0.2695
  127MOL0     C17444   0.537   7.535   2.685 -0.2839  0.2450 -0.5650
  127MOL0     C17445   0.642   7.473   2.616  0.1605  0.0625 -0.1211
  127MOL0     C17446   0.699   7.541   2.507  0.1341  0.2152 -0.3370
  127MOL0     O17447   0.814   7.494   2.438  0.1870  0.1609 -0.2104
  127MOL0     C17448   0.925   7.476   2.529  1.0756  0.5843 -0.3072
  127MOL0     C17449   1.063   7.480   2.457 -0.2727  0.0397  0.3519
  127MOL0     C17450   1.087   7.593   2.355  0.3060 -0.4833  0.0785
  127MOL0     C17451   1.229   7.596   2.289  0.0581  0.6544  0.4086
  127MOL0     C17452   1.339   7.576   2.385  0.7170  0.4449  0.4112
  127MOL0     C17453   1.425   7.554   2.466 -0.5462 -0.0541  0.0882
  127MOL0     C17454   0.652   7.674   2.474  0.1331  0.5495 -1.4876
  127MOL0     C17455   0.542   7.739   2.540 -0.8326 -0.1919 -0.3175
  127MOL0     C17456   0.522   7.887   2.510  0.3824 -0.8576  0.2596
  127MOL0     H17457   0.052   7.671   2.660 -1.5484 -0.8546  1.7456
  127MOL0     H17458  -0.150   7.762   2.749  0.6693 -0.9797 -0.1366
  127MOL0     H17459  -0.295   7.959   2.732 -0.2068 -1.5042  0.1803
  127MOL0     H17460  -0.353   8.073   2.865 -0.5833  0.4788  1.0594
  127MOL0     H17461  -0.308   7.789   2.906 -1.6911 -2.2321  0.1448
  127MOL0     H17462  -0.337   7.886   3.037 -0.9128 -2.4647  1.0265
  127MOL0     H17463  -0.569   7.963   2.935 -2.0246 -1.4494  0.2877
  127MOL0     H17464  -0.542   7.867   2.801 -6.7128  1.0278  1.7021
  127MOL0     H17465  -0.532   7.662   2.949 -2.3839  0.4048 -2.0105
  127MOL0     H17466  -0.556   7.767   3.100  2.5988 -0.1087  0.1255
  127MOL0     H17467  -0.743   7.723   2.877 -0.1102 -0.8160  0.5545
  127MOL0     H17468  -0.764   7.851   2.989  0.3532  0.8705 -3.0128
  127MOL0     H17469  -0.778   7.548   3.045 -1.9846  0.1162 -0.8790
  127MOL0     H17470  -0.756   7.664   3.174 -0.5433 -0.1973  0.2208
  127MOL0     H17471  -0.952   7.675   2.952 -1.5918  2.3353 -0.2368
  127MOL0     H17472  -0.973   7.771   3.091 -0.9456  1.7562 -4.6384
  127MOL0     H17473  -1.137   7.592   3.117 -0.3218 -0.8570 -0.5050
  127MOL0     H17474  -1.026   7.469   3.066  0.6885  0.4122  1.0473
  127MOL0     H17475  -0.997   7.739   3.362 -0.8254 -0.4445 -3.3267
  127MOL0     H17476  -1.019   7.688   3.665  1.6516  1.0686 -0.2722
  127MOL0     H17477  -0.851   7.673   3.623  2.1067 -0.9822  1.9641
  127MOL0     H17478  -0.951   7.573   3.838 -1.6237 -1.1974 -0.0057
  127MOL0     H17479  -1.017   7.439   3.736 -2.2460  0.9732  0.5661
  127MOL0     H17480  -0.805   7.334   3.800  1.8636  0.0154 -0.7459
  127MOL0     H17481  -0.800   7.377   3.644  0.9643  1.0636  1.0648
  127MOL0     H17482  -0.644   7.581   3.721  1.6578  1.6215  2.1904
  127MOL0     H17483  -0.685   7.532   3.890  0.3338 -0.4894 -0.2450
  127MOL0     H17484  -0.372   7.267   3.701 -1.7778  0.5826  1.3099
  127MOL0     H17485  -0.047   7.278   3.702 -1.9637 -1.3735  0.6842
  127MOL0     H17486  -0.084   7.327   3.530  2.0321 -1.6833  0.1009
  127MOL0     H17487  -0.164   7.193   3.626 -0.0017 -0.9809  1.2985
  127MOL0     H17488   0.260   7.453   3.749  2.8163 -2.3170 -1.9453
  127MOL0     H17489   0.489   7.492   3.683 -0.2451 -1.7848 -2.2683
  127MOL0     H17490   0.528   7.698   3.281 -2.2465  1.2638  1.6769
  127MOL0     H17491   0.599   7.801   3.411  1.3699  0.7995 -0.3224
  127MOL0     H17492   0.738   7.545   3.341  1.7449 -0.2368 -0.3716
  127MOL0     H17493   0.763   7.661   3.205  2.7583  0.5090  1.0970
  127MOL0     H17494   0.833   7.704   3.514  1.9352 -3.4438 -0.5671
  127MOL0     H17495   0.819   7.834   3.404  4.4741  0.9262  1.8974
  127MOL0     H17496   1.012   7.759   3.281  1.4954  1.4703  0.1879
  127MOL0     H17497   1.005   7.603   3.378 -0.3767  0.2787  0.3015
  127MOL0     H17498   1.036   7.896   3.469 -0.3491  0.4540  3.2381
  127MOL0     H17499   1.048   7.767   3.585  1.4383 -1.3084  0.7425
  127MOL0     H17500   1.263   7.882   3.501  0.7341  0.0030 -1.6303
  127MOL0     H17501   1.223   7.802   3.345  3.3930 -2.7390 -0.4010
  127MOL0     H17502   1.256   7.600   3.415  0.4866  1.5138 -0.4964
  127MOL0     H17503   1.256   7.631   3.591 -1.5246  2.0290  0.4665
  127MOL0     H17504   1.454   7.780   3.556  2.3044 -1.0980  0.5353
  127MOL0     H17505   1.448   7.771   3.387 -0.6578 -1.7807 -1.7021
  127MOL0     H17506   0.329   7.692   3.325 -1.0606  1.1309 -0.0605
  127MOL0     H17507   0.114   7.642   3.398 -1.1591  1.0480  1.5467
  127MOL0     H17508  -0.257   7.742   3.736 -1.1126  0.2715  0.3444
  127MOL0     H17509  -0.479   7.668   3.812 -0.3293  0.2705  0.7436
  127MOL0     H17510   0.053   8.122   2.873 -1.5948 -1.4455 -1.3893
  127MOL0     H17511   0.277   8.016   2.773 -0.5634  0.3136  0.0590
  127MOL0     H17512   0.494   7.480   2.768  0.7365 -1.4899 -1.1157
  127MOL0     H17513   0.664   7.370   2.643 -2.5323 -0.2621  1.1084
  127MOL0     H17514   0.918   7.553   2.606 -0.4319 -0.8858  1.1111
  127MOL0     H17515   0.913   7.374   2.568 -1.2859  2.5461  4.9356
  127MOL0     H17516   1.084   7.387   2.403 -0.2968  0.9284 -1.2408
  127MOL0     H17517   1.136   7.496   2.537  1.3182  4.5594 -1.7144
  127MOL0     H17518   1.026   7.588   2.264  1.6294 -2.1479 -0.8030
  127MOL0     H17519   1.067   7.689   2.402 -1.6585 -2.0034  2.5770
  127MOL0     H17520   1.240   7.688   2.231 -3.1238  1.4228  0.8885
  127MOL0     H17521   1.233   7.514   2.217 -1.7697  1.4763 -0.6996
  127MOL0     H17522   1.498   7.527   2.540 -0.0303  0.6064 -0.1712
  127MOL0     H17523   0.690   7.729   2.389 -0.1003  1.9057 -0.7267
  127MOL0     H17524   0.615   7.935   2.479 -2.0439  1.9743 -3.5286
  127MOL0     H17525   0.450   7.893   2.428  1.0466 -2.0107 -0.4462
  127MOL0     H17526   0.471   7.936   2.593 -3.1655  0.5102 -2.4518
  128MOL0     O17527   8.246   1.493   1.458  0.5667 -0.6073 -0.4649
  128MOL0     C17528   8.236   1.381   1.510  0.4407 -0.4890 -0.4524
  128MOL0     O17529   8.329   1.286   1.491 -0.0176 -0.0362  0.4495
  128MOL0     C17530   8.440   1.298   1.408  0.9748 -0.8654  0.1341
  128MOL0     C17531   8.538   1.397   1.432  0.1127  0.1156 -0.7019
  128MOL0     C17532   8.647   1.420   1.346 -0.0897  0.1500  0.3109
  128MOL0     C17533   8.666   1.341   1.227 -0.0765  1.3527  0.3114
  128MOL0     O17534   8.769   1.375   1.145 -0.0495  0.3200  0.0808
  128MOL0     C17535   8.770   1.299   1.022 -0.0366  0.0119 -0.2480
  128MOL0     C17536   8.885   1.358   0.930 -0.2722 -0.1215  0.5996
  128MOL0     C17537   9.023   1.354   0.981  0.5188  0.4903 -0.7767
  128MOL0     C17538   9.120   1.440   0.899 -0.1276  0.6434 -0.0063
  128MOL0     C17539   9.244   1.471   0.993  0.9508 -0.3668 -0.2219
  128MOL0     C17540   9.368   1.516   0.917 -0.7037  0.4280 -0.3080
  128MOL0     C17541   9.488   1.567   0.994 -0.0732  0.1239  0.3571
  128MOL0     C17542   9.453   1.701   1.056 -0.4517 -0.4301 -0.1300
  128MOL0     N17543   9.566   1.777   1.090  0.1692  0.3815  0.1562
  128MOL0     C17544   9.635   1.766   1.208 -1.1866 -0.2333 -0.2816
  128MOL0     C17545   9.731   1.863   1.193  0.0683 -0.6351 -0.0953
  128MOL0     C17546   9.840   1.893   1.295  0.6074  0.6117  0.0675
  128MOL0     C17547   9.975   1.830   1.256  0.3071  0.2220 -0.8790
  128MOL0     C17548   9.975   1.682   1.208  0.2176 -0.2429  0.5296
  128MOL0     C17549  10.108   1.607   1.201  0.2586  0.6404 -0.5347
  128MOL0     O17550  10.170   1.647   1.082 -0.1448 -0.0182  0.4871
  128MOL0     C17551  10.289   1.582   1.053 -0.3810 -0.0566  0.2276
  128MOL0     C17552  10.352   1.615   0.929 -0.6218 -0.5277  0.3781
  128MOL0     C17553  10.480   1.552   0.896  0.1411  0.3265 -0.1576
  128MOL0     C17554  10.525   1.584   0.761  0.7169 -0.1262 -0.9082
  128MOL0     C17555  10.549   1.471   0.994  0.8950  0.7619 -0.0934
  128MOL0     C17556  10.679   1.399   0.975 -0.3860  0.5077  0.6893
  128MOL0     O17557  10.742   1.330   1.073  0.6547  0.1771 -0.1683
  128MOL0     C17558  10.856   1.259   1.048 -0.0151 -0.3510 -0.2531
  128MOL0     C17559  10.849   1.124   1.006  1.3620 -0.7606 -0.8255
  128MOL0     C17560  10.965   1.055   0.983  0.4376 -0.6675 -0.4570
  128MOL0     C17561  11.089   1.111   0.989 -0.9252  0.4257 -0.0008
  128MOL0     O17562  11.206   1.040   0.963 -0.2467  0.1829 -0.2578
  128MOL0     C17563  11.202   0.905   0.912  0.1993  0.1430 -0.3749
  128MOL0     C17564  11.342   0.864   0.889  0.0669 -0.1459  0.6429
  128MOL0     C17565  11.342   0.714   0.866 -0.5974 -1.2845  0.6081
  128MOL0     C17566  11.478   0.662   0.820  0.5801  0.5674  0.2818
  128MOL0     C17567  11.487   0.506   0.842  0.4435 -0.6427 -0.2643
  128MOL0     C17568  11.619   0.445   0.779  0.5160  0.0028 -0.5267
  128MOL0     C17569  11.603   0.408   0.621  0.2833 -0.9256 -0.1123
  128MOL0     C17570  11.675   0.278   0.592  0.3009 -0.4918 -0.2428
  128MOL0    Cl17571  11.596   0.133   0.682 -0.2823 -0.2428 -0.1091
  128MOL0     C17572  11.095   1.245   1.021  0.1286  0.0807 -0.2838
  128MOL0     C17573  10.981   1.319   1.053  0.0230  0.5246 -1.5376
  128MOL0     O17574  10.721   1.411   0.859  1.0056  0.4012  0.3779
  128MOL0     C17575  10.491   1.461   1.123  0.0113 -0.7358  1.1721
  128MOL0     C17576  10.367   1.514   1.148  0.8518 -0.0822  0.8464
  128MOL0     N17577   9.710   1.925   1.074 -0.3205 -0.1771  0.9833
  128MOL0     N17578   9.609   1.883   1.019  0.2783  0.4349  0.2823
  128MOL0     C17579   8.578   1.234   1.218 -0.0395  0.4815  0.1636
  128MOL0     C17580   8.462   1.216   1.300 -0.0408  0.1730  0.0755
  128MOL0     C17581   8.123   1.356   1.610  0.1424 -0.4906  0.3868
  128MOL0     C17582   8.150   1.266   1.719  0.2791 -0.2421  0.1087
  128MOL0     C17583   8.054   1.239   1.812 -0.6639  0.5782 -0.3551
  128MOL0     C17584   7.926   1.304   1.826 -0.2889  0.1570  0.3723
  128MOL0     O17585   7.847   1.289   1.935 -0.2934 -0.4528  0.6482
  128MOL0     C17586   7.912   1.297   2.061 -0.2563 -0.5504 -0.0074
  128MOL0     C17587   7.914   1.451   2.095 -0.7204  0.1456  0.2821
  128MOL0     C17588   7.952   1.478   2.245  0.2140 -0.0587 -0.1672
  128MOL0     C17589   7.997   1.623   2.273  0.3150 -0.1048  0.4666
  128MOL0     C17590   8.118   1.667   2.203 -0.0034  1.1591  0.4866
  128MOL0     C17591   8.228   1.702   2.165  0.5976 -0.9868 -0.8978
  128MOL0     C17592   7.905   1.382   1.720  0.6049  0.2918  1.0466
  128MOL0     C17593   7.988   1.408   1.604 -0.9951  0.0997  0.1072
  128MOL0     C17594   7.940   1.521   1.510 -0.0406  0.7727  0.5712
  128MOL0     H17595   8.530   1.463   1.518  0.5559 -1.6885  0.7942
  128MOL0     H17596   8.727   1.491   1.365  0.6025 -0.4889 -0.1588
  128MOL0     H17597   8.675   1.298   0.968 -0.1865  0.2204  0.0120
  128MOL0     H17598   8.795   1.193   1.036  2.3416  0.4019 -1.1126
  128MOL0     H17599   8.882   1.302   0.836 -2.3532 -1.1404  1.2101
  128MOL0     H17600   8.860   1.462   0.907  1.9936  0.5907  1.0843
  128MOL0     H17601   9.032   1.365   1.089 -0.5417 -1.5211 -0.4364
  128MOL0     H17602   9.042   1.247   0.966 -1.7490 -0.3477  1.6670
  128MOL0     H17603   9.148   1.382   0.811 -1.2944  2.3807 -1.5959
  128MOL0     H17604   9.080   1.533   0.857  1.2670  0.9248 -0.8126
  128MOL0     H17605   9.269   1.384   1.054  0.3888 -0.6966 -0.4622
  128MOL0     H17606   9.207   1.546   1.064 -2.1887 -2.7877  0.9405
  128MOL0     H17607   9.401   1.432   0.855  1.0843 -0.4021  1.6504
  128MOL0     H17608   9.334   1.598   0.853  0.4627 -0.4947 -2.1920
  128MOL0     H17609   9.563   1.581   0.916 -0.8803 -1.4030 -0.7275
  128MOL0     H17610   9.515   1.491   1.068 -3.6776 -0.8252  0.8777
  128MOL0     H17611   9.389   1.758   0.988  0.7572  2.6752  1.1258
  128MOL0     H17612   9.394   1.688   1.148 -0.2157 -1.5652 -0.1308
  128MOL0     H17613   9.621   1.702   1.294  0.7570  0.4377  0.5998
  128MOL0     H17614   9.809   1.850   1.390  1.8772 -3.5291 -1.1773
  128MOL0     H17615   9.853   2.001   1.301  1.5478  0.4211  2.6103
  128MOL0     H17616  10.028   1.890   1.181 -0.2746  0.8743 -0.7746
  128MOL0     H17617  10.027   1.832   1.352 -1.8279 -1.6155  0.4234
  128MOL0     H17618   9.909   1.628   1.278 -2.2394  1.8953  0.0239
  128MOL0     H17619   9.938   1.660   1.107 -0.8452 -1.1268  1.0858
  128MOL0     H17620  10.165   1.631   1.291  0.2019 -1.2525  0.0489
  128MOL0     H17621  10.092   1.499   1.197 -2.6193  1.0243 -1.3233
  128MOL0     H17622  10.306   1.671   0.848  1.8753 -0.1284 -0.8626
  128MOL0     H17623  10.535   1.503   0.688 -2.0113  1.0224 -2.7063
  128MOL0     H17624  10.628   1.621   0.770  1.3918 -1.7331 -1.6305
  128MOL0     H17625  10.465   1.664   0.717  0.1086  0.2996  0.6176
  128MOL0     H17626  10.751   1.076   1.011  0.2396  1.5363  1.4814
  128MOL0     H17627  10.950   0.949   0.963  1.1258 -1.3339  2.1216
  128MOL0     H17628  11.157   0.844   0.991  3.4286 -0.2887  1.3009
  128MOL0     H17629  11.148   0.894   0.818 -0.5475 -0.0508  0.0669
  128MOL0     H17630  11.387   0.901   0.797  0.0600 -0.0538  0.6757
  128MOL0     H17631  11.419   0.889   0.963  0.5012  0.8569 -0.1306
  128MOL0     H17632  11.257   0.675   0.808 -2.2606  1.7046  0.8550
  128MOL0     H17633  11.330   0.665   0.963  1.7280 -1.1557  1.0143
  128MOL0     H17634  11.559   0.712   0.874  2.0516 -1.1159 -0.2670
  128MOL0     H17635  11.497   0.692   0.716  2.9873  3.8673  1.4942
  128MOL0     H17636  11.492   0.490   0.950 -0.4204  1.6186  0.1581
  128MOL0     H17637  11.401   0.451   0.804 -0.8118 -0.0692  1.6164
  128MOL0     H17638  11.643   0.351   0.829 -1.3828  0.0374  0.5687
  128MOL0     H17639  11.703   0.513   0.798 -1.0361  2.7405 -2.6398
  128MOL0     H17640  11.645   0.478   0.548  1.2728 -1.4680 -0.0714
  128MOL0     H17641  11.497   0.389   0.599  0.1371  1.0024 -1.4313
  128MOL0     H17642  11.781   0.283   0.619 -0.0977 -0.2884  1.4141
  128MOL0     H17643  11.687   0.273   0.483 -1.7958  3.0070 -0.7663
  128MOL0     H17644  11.196   1.286   1.030  0.0442 -0.0967  1.8281
  128MOL0     H17645  10.996   1.421   1.086  0.3117  0.8640 -2.6531
  128MOL0     H17646  10.546   1.414   1.204  0.2746 -1.6354  0.4838
  128MOL0     H17647  10.333   1.505   1.251  1.7981 -3.5737  1.0030
  128MOL0     H17648   8.587   1.167   1.133  0.2621  0.3243  0.3173
  128MOL0     H17649   8.400   1.128   1.285 -0.0887  0.2659 -0.2941
  128MOL0     H17650   8.247   1.221   1.732  0.2591 -1.7490 -3.6663
  128MOL0     H17651   8.080   1.166   1.889  1.1124 -2.3316 -3.4296
  128MOL0     H17652   7.857   1.248   2.142  0.1100  1.9807  1.8732
  128MOL0     H17653   8.013   1.255   2.064 -0.0421 -0.0982 -0.7133
  128MOL0     H17654   7.818   1.495   2.067 -0.1920 -0.3767 -2.6077
  128MOL0     H17655   7.982   1.501   2.025 -0.5007 -2.4624 -1.5176
  128MOL0     H17656   7.869   1.447   2.308  0.1599  0.4717  0.0282
  128MOL0     H17657   8.040   1.420   2.276 -1.6997 -2.2089  1.5788
  128MOL0     H17658   8.029   1.631   2.377  0.2328  0.4676  0.4484
  128MOL0     H17659   7.916   1.693   2.251  0.2485 -0.1804  0.4729
  128MOL0     H17660   8.312   1.754   2.125 -0.5531  1.0697 -0.7775
  128MOL0     H17661   7.811   1.436   1.731 -0.5119 -1.3525  0.0622
  128MOL0     H17662   7.968   1.612   1.564 -0.2506  0.0244  1.9984
  128MOL0     H17663   7.991   1.514   1.414  1.7492 -2.2390  1.5971
  128MOL0     H17664   7.832   1.525   1.498 -0.2874 -0.4208  2.0437
  129MOL0     O17665  10.585  10.997  11.018 -0.1034 -1.1862 -0.1144
  129MOL0     C17666  10.492  11.075  10.992  0.3143 -0.6608  0.0524
  129MOL0     O17667  10.508  11.204  10.968 -0.0629  0.5182 -0.3231
  129MOL0     C17668  10.600  11.284  11.035  0.1103 -0.8936  0.0980
  129MOL0     C17669  10.634  11.403  10.967 -0.4332 -0.0028  0.0677
  129MOL0     C17670  10.727  11.490  11.019 -0.1519 -0.2792 -0.7222
  129MOL0     C17671  10.788  11.462  11.140 -1.2171 -0.0128  0.3615
  129MOL0     O17672  10.899  11.527  11.188  0.0781  0.9690  0.0516
  129MOL0     C17673  10.947  11.647  11.130 -0.3651  0.3246 -0.6000
  129MOL0     C17674  11.060  11.710  11.213 -0.7439  0.6982  1.1611
  129MOL0     C17675  11.190  11.624  11.217 -0.8029  0.2266 -0.1179
  129MOL0     C17676  11.297  11.688  11.306  0.9512  0.1399  0.4586
  129MOL0     C17677  11.405  11.583  11.345 -0.2168 -0.0585 -0.2157
  129MOL0     C17678  11.546  11.635  11.391 -0.4015  0.4673  1.3111
  129MOL0     C17679  11.539  11.712  11.529 -0.5759 -0.3109 -0.4029
  129MOL0     C17680  11.677  11.759  11.574  0.1520  0.3107  0.3773
  129MOL0     N17681  11.714  11.899  11.531 -0.6609  0.4708  0.1846
  129MOL0     C17682  11.639  12.018  11.516 -0.3305  0.4686 -0.6185
  129MOL0     C17683  11.725  12.110  11.478 -0.2455 -0.0276  0.0130
  129MOL0     C17684  11.709  12.260  11.460 -0.0710 -0.3481 -0.1805
  129MOL0     C17685  11.726  12.347  11.586 -0.5779  0.6693  0.4463
  129MOL0     C17686  11.633  12.302  11.705  0.1164  0.6330  0.1238
  129MOL0     C17687  11.673  12.381  11.829  0.0554  0.2277 -0.0309
  129MOL0     O17688  11.616  12.329  11.950 -1.1042 -0.4092 -0.3843
  129MOL0     C17689  11.545  12.432  12.008  1.0360 -0.0165 -0.1716
  129MOL0     C17690  11.582  12.497  12.124 -1.1635 -0.4446  0.4090
  129MOL0     C17691  11.512  12.605  12.187  0.7962  0.2063 -0.2111
  129MOL0     C17692  11.577  12.661  12.306  0.5395 -0.2609 -0.1946
  129MOL0     C17693  11.394  12.667  12.120 -0.2812  1.2818  0.5998
  129MOL0     C17694  11.329  12.794  12.160 -0.0640  0.6822 -0.0981
  129MOL0     O17695  11.228  12.837  12.080 -0.6718 -0.0328  0.4397
  129MOL0     C17696  11.164  12.959  12.110  0.8400  0.3148  0.4371
  129MOL0     C17697  11.211  13.075  12.037  0.1977 -0.5440  0.0637
  129MOL0     C17698  11.137  13.191  12.054  0.4984 -0.4959 -0.3406
  129MOL0     C17699  11.036  13.200  12.153 -0.2396 -0.6298 -0.0138
  129MOL0     O17700  10.980  13.326  12.181 -0.6401  0.0063 -1.0912
  129MOL0     C17701  10.925  13.405  12.075 -0.7389  0.6478  0.1228
  129MOL0     C17702  10.826  13.495  12.131  0.0596  0.7820  0.4840
  129MOL0     C17703  10.694  13.425  12.177  0.4530  0.5503 -1.0525
  129MOL0     C17704  10.626  13.498  12.287 -0.4370 -0.4078  0.2873
  129MOL0     C17705  10.511  13.417  12.347  0.0412 -0.3104 -0.1942
  129MOL0     C17706  10.448  13.485  12.467 -0.0457  0.1185 -0.2491
  129MOL0     C17707  10.522  13.467  12.605  1.0246 -0.3568 -0.6721
  129MOL0     C17708  10.504  13.325  12.662  1.2312  0.2239 -0.0945
  129MOL0    Cl17709  10.572  13.326  12.821 -0.0236  0.2747  0.1073
  129MOL0     C17710  11.011  13.095  12.232  0.4470  0.0228 -0.1554
  129MOL0     C17711  11.065  12.970  12.210  0.6357 -0.1284  0.8847
  129MOL0     O17712  11.368  12.853  12.255 -0.7922 -0.1185 -0.3774
  129MOL0     C17713  11.361  12.597  11.998  0.0647 -0.8539 -0.3846
  129MOL0     C17714  11.433  12.487  11.946  0.5189 -0.0918  0.1435
  129MOL0     N17715  11.848  12.049  11.462 -0.4620 -1.2980 -0.8787
  129MOL0     N17716  11.844  11.926  11.490  0.1267 -0.0272 -0.2008
  129MOL0     C17717  10.757  11.349  11.213  0.3494 -0.3495 -0.5029
  129MOL0     C17718  10.671  11.252  11.158  0.6635 -0.4599 -1.2834
  129MOL0     C17719  10.358  11.024  10.967  0.5998 -0.3351 -0.8875
  129MOL0     C17720  10.326  10.900  11.034 -0.6090 -0.3126  0.4008
  129MOL0     C17721  10.204  10.842  11.022  0.7770  0.2263 -0.3226
  129MOL0     C17722  10.100  10.910  10.956  0.3420  0.0624 -0.1151
  129MOL0     O17723   9.965  10.879  10.974 -0.0745 -0.1483  0.2961
  129MOL0     C17724   9.923  10.741  10.952 -0.1268  0.2618  0.7876
  129MOL0     C17725   9.920  10.666  11.089  0.6902  0.2456  0.0724
  129MOL0     C17726   9.782  10.659  11.153  0.2672  0.3472  0.5555
  129MOL0     C17727   9.797  10.586  11.284 -0.8675  0.6227  0.1151
  129MOL0     C17728   9.774  10.443  11.274 -0.2479 -0.3327 -0.0011
  129MOL0     C17729   9.775  10.324  11.272 -0.3705 -0.8149 -0.2757
  129MOL0     C17730  10.126  11.028  10.887  0.0180 -0.0987 -0.0539
  129MOL0     C17731  10.253  11.083  10.886 -1.3110 -0.5225  0.6152
  129MOL0     C17732  10.267  11.209  10.803  0.0806 -0.1387 -0.5990
  129MOL0     H17733  10.572  11.437  10.885 -2.9010 -0.5915  1.5700
  129MOL0     H17734  10.751  11.569  10.948 -1.8682  1.3000  0.3589
  129MOL0     H17735  10.865  11.719  11.123 -0.9996 -0.1865  0.9638
  129MOL0     H17736  10.989  11.640  11.030  0.6706 -1.2524 -0.0939
  129MOL0     H17737  11.081  11.803  11.161  0.1051 -0.4386 -0.6114
  129MOL0     H17738  11.031  11.731  11.317  1.6743 -2.2738  2.6139
  129MOL0     H17739  11.174  11.520  11.249 -1.3875  0.8461  1.6792
  129MOL0     H17740  11.231  11.627  11.115  1.7854 -0.3980  0.8069
  129MOL0     H17741  11.349  11.779  11.275  0.8258 -0.5499 -2.0277
  129MOL0     H17742  11.251  11.718  11.400 -0.5136 -1.0449  0.1628
  129MOL0     H17743  11.434  11.524  11.258 -0.7068 -1.7208  0.7077
  129MOL0     H17744  11.379  11.506  11.418  1.1249 -0.7033 -0.3839
  129MOL0     H17745  11.605  11.543  11.402 -4.5620 -2.6896  0.0111
  129MOL0     H17746  11.586  11.701  11.313  2.2977 -2.3581  0.0399
  129MOL0     H17747  11.500  11.637  11.599  1.6759 -1.5769 -0.3857
  129MOL0     H17748  11.472  11.798  11.525  0.9481  0.9748  0.5450
  129MOL0     H17749  11.677  11.758  11.683 -3.1295 -0.2075  0.4598
  129MOL0     H17750  11.754  11.685  11.545 -0.7543 -0.4430 -0.1619
  129MOL0     H17751  11.539  12.036  11.555 -0.2809  0.0357 -0.2850
  129MOL0     H17752  11.603  12.267  11.430 -0.7995  3.2176  2.5880
  129MOL0     H17753  11.773  12.296  11.379 -0.9332 -1.0047 -1.1882
  129MOL0     H17754  11.833  12.340  11.605 -0.4538  2.6247  0.5913
  129MOL0     H17755  11.718  12.453  11.562  1.0798  0.3624 -1.7329
  129MOL0     H17756  11.533  12.336  11.677 -0.7059 -1.5613  0.2382
  129MOL0     H17757  11.644  12.196  11.729 -0.2267  1.1264  2.7569
  129MOL0     H17758  11.779  12.378  11.854  0.7264 -1.1679 -2.6908
  129MOL0     H17759  11.678  12.488  11.807  2.3664  0.0174 -0.7369
  129MOL0     H17760  11.667  12.450  12.173 -0.2519  0.3275 -0.3888
  129MOL0     H17761  11.587  12.769  12.289 -2.6572  0.0420 -0.7186
  129MOL0     H17762  11.670  12.610  12.334  0.9804 -0.2485 -1.5850
  129MOL0     H17763  11.511  12.656  12.393 -0.2889 -1.8083 -0.8921
  129MOL0     H17764  11.287  13.060  11.961  0.3240 -1.6200  0.3817
  129MOL0     H17765  11.163  13.288  12.014 -0.1390  1.4720  3.5148
  129MOL0     H17766  11.016  13.459  12.044  0.5360 -1.3583  0.1719
  129MOL0     H17767  10.886  13.345  11.993  2.7298  1.7719 -2.6514
  129MOL0     H17768  10.881  13.552  12.208  1.4030  0.4461 -0.1904
  129MOL0     H17769  10.804  13.570  12.054 -0.7998  1.7232  1.6098
  129MOL0     H17770  10.730  13.333  12.224  6.0616  2.5585 -0.5877
  129MOL0     H17771  10.623  13.416  12.094 -0.8161  1.1149 -0.0607
  129MOL0     H17772  10.570  13.579  12.240  1.3263 -0.2430 -1.6858
  129MOL0     H17773  10.696  13.525  12.367 -2.4912  0.9931  1.6926
  129MOL0     H17774  10.433  13.406  12.271  0.5908  0.5297 -0.8945
  129MOL0     H17775  10.550  13.316  12.361  2.2172  0.0902 -2.6998
  129MOL0     H17776  10.347  13.449  12.484  0.2484  0.0370  1.4431
  129MOL0     H17777  10.432  13.592  12.450 -3.2704 -0.6944 -3.6422
  129MOL0     H17778  10.477  13.539  12.674 -3.9092 -2.3665 -1.3767
  129MOL0     H17779  10.628  13.496  12.596  0.7450  1.3205  0.8210
  129MOL0     H17780  10.546  13.252  12.592 -1.5837 -1.6533 -0.0046
  129MOL0     H17781  10.401  13.291  12.672  1.4709 -0.4765  0.0612
  129MOL0     H17782  10.951  13.115  12.320 -1.6239 -0.3117 -1.4095
  129MOL0     H17783  11.038  12.888  12.275  1.3705 -0.0316  1.3255
  129MOL0     H17784  11.281  12.637  11.935 -0.0536  0.2328  0.4310
  129MOL0     H17785  11.402  12.444  11.851  1.0664  0.9141 -0.5181
  129MOL0     H17786  10.816  11.321  11.300  4.2885  2.6220 -1.8670
  129MOL0     H17787  10.648  11.155  11.202  1.5351 -1.4905 -2.9605
  129MOL0     H17788  10.398  10.838  11.086 -1.8507 -0.6803  1.7537
  129MOL0     H17789  10.179  10.742  11.056 -2.4028  1.3994  1.1590
  129MOL0     H17790   9.822  10.740  10.910  0.3196  0.6459 -0.3504
  129MOL0     H17791   9.984  10.680  10.886 -0.2038  0.1755  0.7970
  129MOL0     H17792   9.977  10.724  11.162 -1.6887  1.7472  0.8746
  129MOL0     H17793   9.958  10.564  11.080  2.0167  0.4508  2.4439
  129MOL0     H17794   9.761  10.765  11.164  3.6675  1.0298  1.8806
  129MOL0     H17795   9.711  10.612  11.085 -2.0026  0.6237  2.5943
  129MOL0     H17796   9.720  10.633  11.346 -1.1009  0.8432 -0.3471
  129MOL0     H17797   9.893  10.610  11.332  0.3508 -3.2066 -0.0264
  129MOL0     H17798   9.795  10.219  11.255 -0.3408 -1.0059  0.9004
  129MOL0     H17799  10.040  11.068  10.834  0.3924 -0.0237 -0.6065
  129MOL0     H17800  10.338  11.191  10.721  1.3485  0.4566  0.3203
  129MOL0     H17801  10.172  11.237  10.757 -2.0080 -0.7029  3.0259
  129MOL0     H17802  10.310  11.294  10.856 -0.3403  1.6037 -2.8918
  130MOL0     O17803   8.982   8.588   7.952 -0.4698 -1.3246 -0.0656
  130MOL0     C17804   9.068   8.674   7.926  1.5942  0.0400  0.2862
  130MOL0     O17805   9.058   8.759   7.814 -0.2415  0.5740 -0.4630
  130MOL0     C17806   8.952   8.728   7.725 -1.6023  0.3909 -0.6798
  130MOL0     C17807   8.857   8.828   7.694  0.3641  0.1358 -0.3370
  130MOL0     C17808   8.750   8.792   7.613  0.4471  0.4988  0.2898
  130MOL0     C17809   8.734   8.666   7.550 -0.6460  0.2678  0.6643
  130MOL0     O17810   8.635   8.624   7.475 -0.3021 -0.5774  0.0190
  130MOL0     C17811   8.536   8.719   7.437 -0.2548  0.1990 -0.5001
  130MOL0     C17812   8.430   8.657   7.354 -0.8788 -0.8451  0.3291
  130MOL0     C17813   8.307   8.746   7.344 -1.1871 -0.1827  0.4051
  130MOL0     C17814   8.244   8.811   7.466  0.2872  0.1127  0.2275
  130MOL0     C17815   8.114   8.862   7.434 -0.2922  0.3717  0.0049
  130MOL0     C17816   8.036   8.882   7.565  0.7845 -0.7534 -0.3923
  130MOL0     C17817   7.908   8.961   7.542 -0.8367 -0.2978 -0.4469
  130MOL0     C17818   7.840   8.998   7.676  0.1895  0.3314  0.4486
  130MOL0     N17819   7.919   9.077   7.775 -0.3757  0.0899  0.4821
  130MOL0     C17820   7.936   9.211   7.769  0.4411 -0.4237  0.6034
  130MOL0     C17821   8.022   9.235   7.866  0.2359  1.2314 -0.3448
  130MOL0     C17822   8.081   9.363   7.884  0.2545  0.3032  1.1287
  130MOL0     C17823   8.231   9.346   7.839 -0.1847 -0.3452 -0.5034
  130MOL0     C17824   8.313   9.456   7.908 -0.1943 -0.1495  0.5761
  130MOL0     C17825   8.463   9.426   7.913  0.3140 -0.5167 -0.4512
  130MOL0     O17826   8.525   9.504   8.021  0.0232 -0.3825 -0.6731
  130MOL0     C17827   8.664   9.496   8.023 -0.4180  0.0163 -0.4238
  130MOL0     C17828   8.751   9.500   7.910 -0.1405 -0.0984  0.0705
  130MOL0     C17829   8.896   9.487   7.916  0.2654  0.3718 -0.4869
  130MOL0     C17830   8.971   9.496   7.785 -0.5000  0.8217  0.5370
  130MOL0     C17831   8.958   9.489   8.048  0.0154  0.7426  0.5667
  130MOL0     C17832   9.106   9.492   8.074 -0.5459  0.3720  0.0734
  130MOL0     O17833   9.155   9.474   8.203 -0.5621  0.2954 -0.0119
  130MOL0     C17834   9.285   9.425   8.216 -0.2999 -0.8630  0.5174
  130MOL0     C17835   9.355   9.493   8.315 -0.3639  0.0358  0.6043
  130MOL0     C17836   9.491   9.452   8.329  0.7573 -1.0048 -0.4102
  130MOL0     C17837   9.551   9.348   8.263 -1.0625 -0.3289 -0.2109
  130MOL0     O17838   9.680   9.307   8.271  0.3181 -0.0797 -0.3218
  130MOL0     C17839   9.749   9.312   8.396 -0.2845  0.0978 -0.5393
  130MOL0     C17840   9.705   9.188   8.475 -0.3585  0.3226 -0.9301
  130MOL0     C17841   9.815   9.154   8.571 -0.2067  1.0047 -0.4972
  130MOL0     C17842   9.779   9.035   8.668  0.4128  0.5012  0.0032
  130MOL0     C17843   9.882   9.008   8.777 -1.0533  0.1344  0.0449
  130MOL0     C17844   9.887   9.133   8.877 -0.7728  0.1388 -0.1949
  130MOL0     C17845   9.978   9.107   8.989  0.1693  0.6820 -0.7900
  130MOL0     C17846  10.019   9.231   9.062  0.2929  0.1410 -1.2081
  130MOL0    Cl17847  10.153   9.310   8.981  0.0037  0.2678  0.2454
  130MOL0     C17848   9.476   9.282   8.173  0.0524  1.3686  0.2725
  130MOL0     C17849   9.341   9.316   8.144  0.9452  0.0013 -0.5019
  130MOL0     O17850   9.175   9.500   7.978  0.1321  0.0366 -0.0736
  130MOL0     C17851   8.866   9.490   8.156 -0.2732 -0.4207 -0.0823
  130MOL0     C17852   8.728   9.490   8.149 -0.3105  0.1590  0.9182
  130MOL0     N17853   8.054   9.120   7.939 -0.2216 -0.3229 -0.4185
  130MOL0     N17854   8.005   9.026   7.864 -0.2203 -0.4305  0.0033
  130MOL0     C17855   8.831   8.561   7.585 -0.1439 -0.0945  0.2340
  130MOL0     C17856   8.937   8.597   7.674  0.1827 -0.5977 -0.0122
  130MOL0     C17857   9.190   8.684   8.007 -0.5877  0.2142 -0.7241
  130MOL0     C17858   9.273   8.797   7.993  0.4449 -0.8392 -0.3139
  130MOL0     C17859   9.391   8.819   8.075  0.3312  0.7155  0.2103
  130MOL0     C17860   9.437   8.713   8.157 -0.2814  0.1491  0.1236
  130MOL0     O17861   9.564   8.741   8.216  0.5245  0.4031 -0.0743
  130MOL0     C17862   9.646   8.636   8.269  0.4192  0.2409 -0.5094
  130MOL0     C17863   9.793   8.677   8.255 -0.9159 -0.6587 -0.5662
  130MOL0     C17864   9.834   8.782   8.363 -0.5159 -0.4224  0.2187
  130MOL0     C17865   9.972   8.846   8.323  1.0548  0.1120 -0.7302
  130MOL0     C17866   9.968   8.985   8.273 -0.4095 -0.2195  0.3773
  130MOL0     C17867   9.952   9.091   8.220 -0.6752  0.3432  0.1126
  130MOL0     C17868   9.345   8.611   8.188  0.1244 -0.2618  0.9939
  130MOL0     C17869   9.219   8.600   8.118 -0.6934  0.3251  0.1147
  130MOL0     C17870   9.125   8.487   8.165 -0.2248 -0.8322 -0.2641
  130MOL0     H17871   8.866   8.925   7.742 -0.4485 -0.9130  2.1130
  130MOL0     H17872   8.685   8.878   7.608  0.5564  0.5153 -1.0899
  130MOL0     H17873   8.587   8.796   7.377  0.9365  0.2461  0.5301
  130MOL0     H17874   8.491   8.761   7.527 -0.7788  0.6069 -0.9448
  130MOL0     H17875   8.478   8.653   7.255  1.9287  1.3355  1.4623
  130MOL0     H17876   8.409   8.556   7.389  1.7701 -2.8884 -3.3401
  130MOL0     H17877   8.337   8.819   7.268  1.2293 -0.0816  1.3554
  130MOL0     H17878   8.234   8.677   7.300 -0.0878 -1.1663  0.0588
  130MOL0     H17879   8.242   8.734   7.544  3.5623 -0.8078 -0.4496
  130MOL0     H17880   8.308   8.892   7.502 -0.9198  1.6787 -0.9674
  130MOL0     H17881   8.069   8.799   7.356  0.5624  0.6305 -0.7206
  130MOL0     H17882   8.125   8.965   7.399  0.1702  1.0753  2.0683
  130MOL0     H17883   8.005   8.786   7.608  1.3509 -0.8258 -0.1381
  130MOL0     H17884   8.100   8.929   7.641 -0.6101 -3.5311  2.7559
  130MOL0     H17885   7.846   8.895   7.481 -1.3649 -0.4928  0.2818
  130MOL0     H17886   7.925   9.056   7.492  2.1816 -0.8227 -0.5964
  130MOL0     H17887   7.748   9.051   7.653  1.1722  2.5394  1.2986
  130MOL0     H17888   7.808   8.907   7.729 -0.1758  1.6251  2.5930
  130MOL0     H17889   7.896   9.286   7.700  0.6343 -0.8981 -0.0379
  130MOL0     H17890   8.069   9.398   7.987  1.0098  0.3503  1.2065
  130MOL0     H17891   8.031   9.428   7.811  2.7492 -0.1636 -1.1423
  130MOL0     H17892   8.273   9.250   7.871  0.0730  0.0860  0.5201
  130MOL0     H17893   8.253   9.346   7.732  1.3762  1.8254 -0.2399
  130MOL0     H17894   8.299   9.549   7.851  1.8665 -0.7238 -0.9933
  130MOL0     H17895   8.268   9.485   8.003  0.5026  1.6037  0.4086
  130MOL0     H17896   8.484   9.324   7.948 -1.3893 -0.0338  2.2996
  130MOL0     H17897   8.495   9.449   7.811 -0.1329  1.7242 -0.1394
  130MOL0     H17898   8.706   9.503   7.811 -0.5011 -0.0617  0.2314
  130MOL0     H17899   9.045   9.416   7.780 -1.0847  0.3420 -0.9907
  130MOL0     H17900   9.019   9.595   7.784  0.4660  0.6388  5.4131
  130MOL0     H17901   8.906   9.485   7.698 -0.1422 -0.9000  0.4577
  130MOL0     H17902   9.309   9.578   8.366 -0.9745 -0.5677  1.0740
  130MOL0     H17903   9.546   9.507   8.405 -0.7141  1.4144 -1.0107
  130MOL0     H17904   9.855   9.301   8.372 -0.2150 -2.0120  0.4755
  130MOL0     H17905   9.732   9.405   8.450 -0.8574  0.7501 -1.7910
  130MOL0     H17906   9.608   9.204   8.523  0.8412  2.5779  0.9814
  130MOL0     H17907   9.704   9.102   8.408  4.0015 -0.3968 -0.3540
  130MOL0     H17908   9.815   9.240   8.639 -2.6113  0.5499  0.1645
  130MOL0     H17909   9.914   9.137   8.528 -0.0100 -0.4162  0.4173
  130MOL0     H17910   9.770   8.936   8.624  2.2420 -0.0269  0.7043
  130MOL0     H17911   9.683   9.057   8.716 -0.2760  1.2304 -1.6295
  130MOL0     H17912   9.849   8.917   8.828 -0.1030  0.7212  1.7831
  130MOL0     H17913   9.980   8.981   8.738 -1.6046 -2.4079  0.2421
  130MOL0     H17914   9.791   9.165   8.918  0.4005  0.3073  2.6012
  130MOL0     H17915   9.919   9.223   8.823 -0.1406  1.0389  1.6246
  130MOL0     H17916  10.068   9.059   8.949  0.1997  0.0941 -0.0377
  130MOL0     H17917   9.929   9.046   9.065  1.0574 -0.5836 -1.1819
  130MOL0     H17918  10.057   9.189   9.156 -0.6787  0.2125 -0.7767
  130MOL0     H17919   9.936   9.298   9.088  0.7026 -0.3075  1.5849
  130MOL0     H17920   9.526   9.215   8.104 -1.4421 -0.5848  0.9666
  130MOL0     H17921   9.283   9.271   8.064 -0.4785 -0.1753  0.5994
  130MOL0     H17922   8.900   9.480   8.259 -0.0818 -4.3601 -0.3476
  130MOL0     H17923   8.671   9.496   8.241  0.1595 -1.3105  1.3260
  130MOL0     H17924   8.818   8.458   7.553 -3.4297 -0.2021  1.4867
  130MOL0     H17925   9.014   8.522   7.686 -1.3641 -2.2028  0.3956
  130MOL0     H17926   9.230   8.866   7.921 -2.7583  0.3072  2.4555
  130MOL0     H17927   9.451   8.910   8.074  0.8793  0.3849  1.3590
  130MOL0     H17928   9.627   8.627   8.376 -0.1308  0.3271 -0.5953
  130MOL0     H17929   9.637   8.540   8.216  0.3829 -0.4038  0.6218
  130MOL0     H17930   9.801   8.711   8.152 -2.3096  0.0204 -0.4705
  130MOL0     H17931   9.855   8.588   8.272  0.2351 -0.2462 -2.3695
  130MOL0     H17932   9.760   8.862   8.350  0.5704  0.7784  1.0794
  130MOL0     H17933   9.844   8.746   8.466  0.2501  2.6945  1.3616
  130MOL0     H17934  10.029   8.777   8.259  3.1975  1.0901  0.0115
  130MOL0     H17935  10.035   8.845   8.413 -1.5619  1.1399  1.2378
  130MOL0     H17936   9.930   9.184   8.171 -3.6366  0.7635  1.9292
  130MOL0     H17937   9.381   8.530   8.251 -0.2968 -2.1470 -1.0416
  130MOL0     H17938   9.025   8.521   8.193 -0.5108 -0.4263 -1.7009
  130MOL0     H17939   9.117   8.418   8.081  1.0493 -0.4471 -0.7240
  130MOL0     H17940   9.162   8.427   8.249 -2.1460 -1.1902  0.3846
  131MOL0     O17941   8.770   4.014   6.253 -0.6218 -0.7547 -0.1987
  131MOL0     C17942   8.776   4.136   6.259  0.3277 -0.3618 -0.1145
  131MOL0     O17943   8.891   4.196   6.303  0.4868 -0.2509  0.3072
  131MOL0     C17944   9.006   4.133   6.344 -0.8152 -0.7937  0.5027
  131MOL0     C17945   9.096   4.217   6.408 -0.2648 -0.5106 -0.3758
  131MOL0     C17946   9.219   4.175   6.457 -0.0529  0.7089  0.3080
  131MOL0     C17947   9.243   4.034   6.462 -0.5553 -0.9853 -0.6718
  131MOL0     O17948   9.365   3.991   6.511  0.5401 -0.0153 -1.0863
  131MOL0     C17949   9.474   4.032   6.435  0.0820 -0.0136  0.6564
  131MOL0     C17950   9.610   3.981   6.489 -0.0063  0.0982  0.2888
  131MOL0     C17951   9.722   4.005   6.392  0.4594  0.6046 -0.6472
  131MOL0     C17952   9.846   3.964   6.467 -0.0271 -0.1367 -0.7272
  131MOL0     C17953   9.971   3.985   6.382  0.3559  0.5289  0.2356
  131MOL0     C17954   9.998   4.128   6.340 -0.0084  0.5887 -0.8193
  131MOL0     C17955  10.135   4.116   6.272 -0.0218 -0.1302 -0.2629
  131MOL0     C17956  10.216   4.247   6.246 -0.8565  0.4743 -0.2853
  131MOL0     N17957  10.144   4.367   6.187 -0.5768  0.0916  0.2290
  131MOL0     C17958  10.089   4.368   6.060  0.6750 -0.3085 -0.4957
  131MOL0     C17959  10.031   4.494   6.046 -0.4544 -1.3755  0.2442
  131MOL0     C17960   9.973   4.561   5.933 -0.5394  0.4408 -0.6066
  131MOL0     C17961  10.065   4.547   5.806  0.7216 -0.1046  0.2837
  131MOL0     C17962  10.192   4.631   5.813 -0.8681 -0.4602  0.5496
  131MOL0     C17963  10.320   4.554   5.828 -0.0175 -0.0286 -0.1257
  131MOL0     O17964  10.346   4.451   5.722  0.5248  0.3164 -1.1872
  131MOL0     C17965  10.391   4.485   5.598  0.3604 -0.5410  0.4412
  131MOL0     C17966  10.393   4.386   5.501  0.9850 -0.9513  0.9529
  131MOL0     C17967  10.421   4.414   5.367 -0.6163  0.2007 -0.4271
  131MOL0     C17968  10.392   4.288   5.285  0.3638 -0.0080 -1.0562
  131MOL0     C17969  10.465   4.543   5.327  0.2359 -0.1017  0.8618
  131MOL0     C17970  10.518   4.578   5.187 -0.2723 -0.5393 -0.7337
  131MOL0     O17971  10.615   4.671   5.172  0.0599 -0.6569 -0.1257
  131MOL0     C17972  10.668   4.708   5.050  0.6337 -0.0275 -0.4665
  131MOL0     C17973  10.807   4.714   5.039  0.4401 -0.6077 -0.1275
  131MOL0     C17974  10.863   4.771   4.917 -0.5587 -0.0898  0.4880
  131MOL0     C17975  10.788   4.831   4.814  0.4105 -0.8059 -0.4244
  131MOL0     O17976  10.852   4.890   4.702  0.3904  0.7976 -0.2206
  131MOL0     C17977  10.779   4.972   4.610  0.1056 -0.3740 -0.0081
  131MOL0     C17978  10.796   5.119   4.619 -0.3689  0.1302 -0.2556
  131MOL0     C17979  10.748   5.173   4.753 -0.8840  0.3500 -0.1112
  131MOL0     C17980  10.766   5.329   4.758 -0.2510 -0.1387  0.2521
  131MOL0     C17981  10.746   5.401   4.888  0.0147  0.0101  0.1134
  131MOL0     C17982  10.757   5.552   4.854 -0.5343  0.1983 -0.7051
  131MOL0     C17983  10.698   5.643   4.957 -0.0564 -0.9464  0.6018
  131MOL0     C17984  10.550   5.679   4.932  0.1645 -0.2187 -0.1523
  131MOL0    Cl17985  10.517   5.814   4.814  0.1800  0.0712 -0.1372
  131MOL0     C17986  10.651   4.825   4.839  0.3759  0.2274 -0.4279
  131MOL0     C17987  10.590   4.766   4.947  0.4670 -0.2109  0.5642
  131MOL0     O17988  10.465   4.523   5.096 -0.3761 -0.3250  0.2177
  131MOL0     C17989  10.487   4.641   5.427 -0.5666  0.1160  0.2343
  131MOL0     C17990  10.446   4.616   5.558 -0.6084  1.1405 -0.6864
  131MOL0     N17991  10.056   4.572   6.163  1.2846 -0.0205  0.7882
  131MOL0     N17992  10.120   4.487   6.244  0.0737  0.0182  0.4328
  131MOL0     C17993   9.151   3.947   6.398  0.6119 -0.5436  0.1582
  131MOL0     C17994   9.039   4.001   6.334 -0.3834 -0.2460 -0.7434
  131MOL0     C17995   8.667   4.213   6.193  1.3079 -0.7136  0.8140
  131MOL0     C17996   8.678   4.354   6.201 -0.4112 -0.0805  0.0071
  131MOL0     C17997   8.576   4.430   6.155  0.9509 -0.4825  0.1338
  131MOL0     C17998   8.452   4.379   6.108 -0.4444 -0.6336 -0.3762
  131MOL0     O17999   8.358   4.474   6.074  0.0596  0.0315 -0.0399
  131MOL0     C18000   8.222   4.445   6.059  0.0096  0.7534 -0.0943
  131MOL0     C18001   8.182   4.406   5.917 -0.0180 -0.0103 -0.4939
  131MOL0     C18002   8.034   4.368   5.902 -0.9808  0.4266 -0.2915
  131MOL0     C18003   7.942   4.500   5.917 -0.0572  0.8449 -0.6027
  131MOL0     C18004   7.895   4.505   6.062 -0.9883 -0.0850  0.3471
  131MOL0     C18005   7.871   4.487   6.177  0.3501  0.2379 -0.0266
  131MOL0     C18006   8.445   4.250   6.091  0.3960 -0.4068 -0.1087
  131MOL0     C18007   8.547   4.164   6.138  0.5155  0.3764 -0.7905
  131MOL0     C18008   8.507   4.022   6.126  0.5158  0.5105  0.3812
  131MOL0     H18009   9.076   4.323   6.397  0.6235 -0.4438 -1.5603
  131MOL0     H18010   9.290   4.243   6.502  0.4050 -0.0826  0.8071
  131MOL0     H18011   9.472   4.140   6.416 -0.5316 -0.1901 -0.3416
  131MOL0     H18012   9.448   3.987   6.339 -2.2617 -0.5041  1.4570
  131MOL0     H18013   9.628   4.022   6.589 -0.5720 -1.2099  0.9563
  131MOL0     H18014   9.597   3.873   6.503 -0.3678 -0.2314 -2.1612
  131MOL0     H18015   9.714   3.963   6.292  3.8771 -0.0522 -0.7478
  131MOL0     H18016   9.721   4.112   6.367 -1.2374  0.6629 -0.4834
  131MOL0     H18017   9.860   4.021   6.559 -2.0495 -1.0570  0.2042
  131MOL0     H18018   9.829   3.859   6.495 -0.9984  0.6910  2.1345
  131MOL0     H18019   9.963   3.927   6.290 -2.7384  2.9208 -1.2196
  131MOL0     H18020  10.055   3.964   6.448  2.7738 -0.0198 -2.8046
  131MOL0     H18021   9.926   4.163   6.266 -1.1122 -0.1224 -0.1038
  131MOL0     H18022   9.992   4.187   6.432 -3.0667 -2.1794  0.9565
  131MOL0     H18023  10.113   4.071   6.175  5.2995 -1.9833 -0.9354
  131MOL0     H18024  10.198   4.042   6.322  1.2496 -0.2444 -1.9549
  131MOL0     H18025  10.266   4.285   6.336 -2.0519 -0.2909  0.7324
  131MOL0     H18026  10.298   4.215   6.180 -2.5601 -1.9017 -1.3783
  131MOL0     H18027  10.100   4.297   5.978 -0.3994 -0.7338 -0.2981
  131MOL0     H18028   9.947   4.663   5.963 -1.4029  0.5046 -1.5005
  131MOL0     H18029   9.875   4.521   5.904  0.4217 -0.2474 -3.2124
  131MOL0     H18030  10.080   4.440   5.791  0.9076  0.0744 -0.8901
  131MOL0     H18031  10.004   4.580   5.722 -1.6751  0.8530  2.2545
  131MOL0     H18032  10.190   4.702   5.730 -2.1010 -1.7146 -0.5450
  131MOL0     H18033  10.193   4.688   5.906  0.3782 -0.7198  0.7194
  131MOL0     H18034  10.402   4.625   5.827 -0.7693  0.8617 -1.1595
  131MOL0     H18035  10.313   4.511   5.928 -2.1576  2.5779  0.9568
  131MOL0     H18036  10.343   4.295   5.532  0.5777 -2.1009 -2.6247
  131MOL0     H18037  10.334   4.217   5.345  2.1471 -0.4750  0.1883
  131MOL0     H18038  10.491   4.248   5.266  0.9301  0.4871  0.6137
  131MOL0     H18039  10.337   4.319   5.196 -2.0634 -0.9168  0.0128
  131MOL0     H18040  10.862   4.668   5.121  1.4630  1.7690  0.5930
  131MOL0     H18041  10.969   4.789   4.911 -0.4204 -0.9546  0.2029
  131MOL0     H18042  10.823   4.943   4.514 -0.8804  0.6504 -0.7924
  131MOL0     H18043  10.673   4.945   4.606 -0.0572  0.2853 -0.3778
  131MOL0     H18044  10.903   5.145   4.616  0.2150 -2.1094 -0.8963
  131MOL0     H18045  10.719   5.165   4.556 -3.1524 -4.6212 -0.7180
  131MOL0     H18046  10.819   5.141   4.829 -0.3901  0.9158 -0.3286
  131MOL0     H18047  10.649   5.135   4.782  0.7927 -2.0814  2.9670
  131MOL0     H18048  10.695   5.370   4.686 -1.8688  2.3168  3.0325
  131MOL0     H18049  10.869   5.347   4.726 -0.9140  1.5183 -1.1640
  131MOL0     H18050  10.646   5.376   4.924 -0.3343 -2.7207 -2.4166
  131MOL0     H18051  10.815   5.370   4.967 -0.5054 -0.6327  0.3190
  131MOL0     H18052  10.725   5.587   4.755 -1.7200  2.4060  0.3851
  131MOL0     H18053  10.864   5.574   4.855 -0.5747  0.4003 -0.7843
  131MOL0     H18054  10.755   5.735   4.973  2.0326 -2.3469  1.7780
  131MOL0     H18055  10.704   5.586   5.050  1.6685 -4.4847 -1.4592
  131MOL0     H18056  10.503   5.705   5.028  0.6478  1.7950 -0.4036
  131MOL0     H18057  10.497   5.600   4.878  0.7319  1.8132 -4.0219
  131MOL0     H18058  10.590   4.878   4.767  0.9238 -2.1997 -2.8642
  131MOL0     H18059  10.482   4.771   4.955  0.1574 -0.6334 -2.1795
  131MOL0     H18060  10.542   4.732   5.402 -0.9886  0.0257 -1.1243
  131MOL0     H18061  10.463   4.695   5.630 -2.8956  0.7956  0.3086
  131MOL0     H18062   9.180   3.842   6.390 -1.4648 -1.2720  1.5016
  131MOL0     H18063   8.988   3.923   6.280  0.1839 -0.6829 -0.6489
  131MOL0     H18064   8.768   4.403   6.239 -0.6114  1.0003 -0.8578
  131MOL0     H18065   8.590   4.535   6.180  1.9160 -0.6332  0.2683
  131MOL0     H18066   8.194   4.362   6.125 -1.5004  0.5995 -0.8843
  131MOL0     H18067   8.168   4.532   6.096 -0.4809  0.5438 -0.3059
  131MOL0     H18068   8.248   4.326   5.885 -1.1400 -1.3486  0.4106
  131MOL0     H18069   8.203   4.491   5.851 -0.9461  2.2653  1.9303
  131MOL0     H18070   8.012   4.337   5.799 -0.1938  1.1342 -0.6836
  131MOL0     H18071   8.007   4.287   5.972  2.0333  1.7223  2.6053
  131MOL0     H18072   7.855   4.491   5.851 -0.3733  1.1637 -0.2381
  131MOL0     H18073   8.004   4.589   5.901 -2.2954  2.8374  1.1363
  131MOL0     H18074   7.834   4.494   6.277 -0.7290  2.3569 -0.5015
  131MOL0     H18075   8.365   4.211   6.029 -0.5303  1.2072  0.0052
  131MOL0     H18076   8.505   3.964   6.219 -1.9133 -0.8148 -0.4107
  131MOL0     H18077   8.414   4.008   6.071  0.2029  1.7136  0.5866
  131MOL0     H18078   8.578   3.972   6.059 -2.4968 -0.0234 -2.6508
  132MOL0     O18079   3.346   1.144   0.393  0.1027 -0.3756  0.2636
  132MOL0     C18080   3.342   1.244   0.460 -0.4478 -0.5594  0.1835
  132MOL0     O18081   3.443   1.325   0.495  0.5099  0.0927  0.4523
  132MOL0     C18082   3.562   1.293   0.441  0.1935 -1.0431  0.3611
  132MOL0     C18083   3.669   1.241   0.513  0.0124 -0.2892 -0.7283
  132MOL0     C18084   3.792   1.209   0.453  0.1883 -0.3409  0.4175
  132MOL0     C18085   3.812   1.217   0.317 -0.0254 -0.0867  0.4711
  132MOL0     O18086   3.932   1.176   0.268  0.9490 -0.0647  0.3442
  132MOL0     C18087   3.954   1.220   0.132  0.0347  0.1218  0.4668
  132MOL0     C18088   4.105   1.237   0.125 -0.4496  0.2825 -0.0267
  132MOL0     C18089   4.159   1.312  -0.001  0.3298 -0.3810 -0.8732
  132MOL0     C18090   4.149   1.229  -0.127 -0.7972  0.2807  0.3974
  132MOL0     C18091   4.223   1.288  -0.244  0.4196 -0.1198  0.9767
  132MOL0     C18092   4.216   1.442  -0.264  0.1147 -0.1240  0.7510
  132MOL0     C18093   4.269   1.478  -0.408 -0.0180 -0.5107  1.0801
  132MOL0     C18094   4.369   1.593  -0.403  0.1122 -0.0549  0.2583
  132MOL0     N18095   4.516   1.565  -0.381  0.6968  0.4595 -0.1441
  132MOL0     C18096   4.601   1.480  -0.449 -0.1860  0.8893 -0.0357
  132MOL0     C18097   4.710   1.468  -0.365  0.5229  0.3331 -0.4125
  132MOL0     C18098   4.834   1.398  -0.391 -0.0424 -0.2612 -0.2064
  132MOL0     C18099   4.941   1.482  -0.462  0.3821 -0.6661 -0.3014
  132MOL0     C18100   5.079   1.430  -0.433 -0.3188  1.2115 -0.0485
  132MOL0     C18101   5.181   1.500  -0.520  0.5039 -0.0055 -0.2878
  132MOL0     O18102   5.289   1.408  -0.549  0.7290 -0.2296  0.3966
  132MOL0     C18103   5.383   1.456  -0.636 -0.5649 -0.1684  0.3102
  132MOL0     C18104   5.488   1.376  -0.673  0.4437  0.7828  0.4016
  132MOL0     C18105   5.600   1.421  -0.744 -0.4119 -0.6079 -0.1905
  132MOL0     C18106   5.708   1.320  -0.767 -0.0595 -0.6657 -0.6726
  132MOL0     C18107   5.607   1.562  -0.780  0.8775  0.2701 -0.8372
  132MOL0     C18108   5.708   1.616  -0.868  0.5277  0.8352  0.5437
  132MOL0     O18109   5.683   1.738  -0.916  0.1253 -0.5529  0.3321
  132MOL0     C18110   5.769   1.810  -0.997 -0.2836  0.1704  0.9974
  132MOL0     C18111   5.841   1.761  -1.098  0.3803  0.5761  0.5854
  132MOL0     C18112   5.936   1.834  -1.166  0.2720  0.1987  0.1220
  132MOL0     C18113   5.943   1.965  -1.145 -0.3695  0.3425  0.5168
  132MOL0     O18114   6.033   2.043  -1.228  0.9938 -0.2914  0.5982
  132MOL0     C18115   5.991   2.180  -1.253  0.0522 -0.0396  0.3233
  132MOL0     C18116   6.086   2.252  -1.347  0.0534 -0.2272 -0.1974
  132MOL0     C18117   6.041   2.252  -1.497  0.1745 -0.6156 -0.4038
  132MOL0     C18118   6.098   2.131  -1.575 -0.1268  0.2103 -0.7766
  132MOL0     C18119   6.039   2.116  -1.712  0.1925  0.0494  0.3576
  132MOL0     C18120   5.906   2.042  -1.719  0.0930 -0.2274  0.6191
  132MOL0     C18121   5.856   2.048  -1.862 -0.4316  0.0337 -1.0515
  132MOL0     C18122   5.722   1.972  -1.866  0.3968  0.5649  0.0702
  132MOL0    Cl18123   5.638   1.981  -2.022  0.4241 -0.1523 -0.0020
  132MOL0     C18124   5.874   2.020  -1.039 -0.1774 -0.4413  0.0596
  132MOL0     C18125   5.787   1.947  -0.959  0.5078  0.1040  0.3678
  132MOL0     O18126   5.804   1.554  -0.904 -0.6651  0.2263  0.2331
  132MOL0     C18127   5.504   1.646  -0.733 -0.0810  0.6644  0.2029
  132MOL0     C18128   5.394   1.594  -0.668 -0.1453 -0.1389  1.2512
  132MOL0     N18129   4.695   1.543  -0.254 -0.2819  0.3653  0.4147
  132MOL0     N18130   4.575   1.596  -0.263  0.5004  0.2464  0.2889
  132MOL0     C18131   3.699   1.266   0.236 -0.8416  0.5422  0.3626
  132MOL0     C18132   3.585   1.301   0.296 -0.7380  1.3278 -0.8812
  132MOL0     C18133   3.211   1.285   0.507 -0.3644 -0.3341 -0.5511
  132MOL0     C18134   3.190   1.414   0.543 -0.9737 -0.0515 -0.2510
  132MOL0     C18135   3.063   1.465   0.575 -0.8897 -0.1313  0.0455
  132MOL0     C18136   2.954   1.377   0.574  0.5039 -0.5237 -0.1027
  132MOL0     O18137   2.818   1.414   0.584  0.4687 -0.3180 -0.0442
  132MOL0     C18138   2.787   1.550   0.581 -0.2173  0.1590 -0.0765
  132MOL0     C18139   2.632   1.567   0.561 -0.9638  0.1480  0.3156
  132MOL0     C18140   2.588   1.714   0.554 -0.6098  1.1148  0.7958
  132MOL0     C18141   2.466   1.728   0.459 -0.3290 -0.1928 -0.1274
  132MOL0     C18142   2.366   1.628   0.499  0.4191  0.1995 -0.2004
  132MOL0     C18143   2.281   1.553   0.533  0.7099  0.1576 -0.5420
  132MOL0     C18144   2.980   1.241   0.562  0.7578 -0.4992  1.1547
  132MOL0     C18145   3.101   1.196   0.520  0.5001  0.3933 -0.5158
  132MOL0     C18146   3.109   1.041   0.502  0.7049  0.3487 -0.3607
  132MOL0     H18147   3.666   1.236   0.621 -0.0481  0.7523 -0.6721
  132MOL0     H18148   3.864   1.165   0.521 -1.8818 -4.2000  0.3571
  132MOL0     H18149   3.915   1.317   0.103  0.5766 -0.4236 -2.4149
  132MOL0     H18150   3.927   1.144   0.058  0.1169  1.5992 -1.1491
  132MOL0     H18151   4.134   1.286   0.218 -2.8004 -0.1497  1.0092
  132MOL0     H18152   4.160   1.143   0.127  0.7792  0.9857  0.4574
  132MOL0     H18153   4.108   1.408  -0.013 -0.5801 -0.5500  1.2085
  132MOL0     H18154   4.267   1.331   0.009  1.1663 -3.6260 -2.3107
  132MOL0     H18155   4.179   1.124  -0.116 -0.5503  0.5242  2.5931
  132MOL0     H18156   4.045   1.211  -0.153 -0.4041  1.2407 -2.0645
  132MOL0     H18157   4.194   1.235  -0.335 -1.7118  2.8078 -0.2270
  132MOL0     H18158   4.328   1.272  -0.221  0.4391 -3.4516 -0.8016
  132MOL0     H18159   4.114   1.477  -0.250 -0.6260 -1.3383 -1.1279
  132MOL0     H18160   4.272   1.494  -0.186  0.2072 -3.2927  2.9820
  132MOL0     H18161   4.190   1.514  -0.474  0.5325  2.7169  2.0212
  132MOL0     H18162   4.316   1.397  -0.464  0.7927  0.3335  0.5113
  132MOL0     H18163   4.369   1.652  -0.495  0.7905  1.3715  1.1398
  132MOL0     H18164   4.340   1.660  -0.322 -0.7937  1.3307 -1.1547
  132MOL0     H18165   4.581   1.426  -0.541  0.3882  1.4598 -0.5117
  132MOL0     H18166   4.813   1.322  -0.467  3.3637 -0.2175 -1.3800
  132MOL0     H18167   4.868   1.342  -0.304  0.7564 -1.9907 -1.5705
  132MOL0     H18168   4.924   1.474  -0.570  1.9249  1.0307 -0.7146
  132MOL0     H18169   4.924   1.583  -0.425 -0.7639 -0.7516 -0.5551
  132MOL0     H18170   5.115   1.424  -0.330 -2.5015  0.5391  0.7190
  132MOL0     H18171   5.086   1.325  -0.464  0.0894  1.9060 -2.5278
  132MOL0     H18172   5.135   1.518  -0.617 -1.0914 -3.0701 -0.2367
  132MOL0     H18173   5.213   1.595  -0.476 -1.3223  0.8228 -0.6727
  132MOL0     H18174   5.471   1.272  -0.649 -0.4395  1.1947  1.6637
  132MOL0     H18175   5.702   1.282  -0.869  1.0363 -1.5403 -0.4250
  132MOL0     H18176   5.684   1.233  -0.705  3.1072 -0.6549  0.7752
  132MOL0     H18177   5.807   1.360  -0.741  0.2643 -2.1872  0.6323
  132MOL0     H18178   5.843   1.655  -1.122 -2.9850 -0.0054  2.3184
  132MOL0     H18179   5.985   1.788  -1.251  0.0301 -0.8507  0.5437
  132MOL0     H18180   5.892   2.173  -1.301  0.3599  0.6943 -0.4642
  132MOL0     H18181   5.988   2.235  -1.159  0.2010 -1.8717  1.4354
  132MOL0     H18182   6.091   2.354  -1.308  0.5820  0.1469 -1.1922
  132MOL0     H18183   6.188   2.212  -1.345  0.9475  1.9373  0.1208
  132MOL0     H18184   6.076   2.347  -1.539  0.8552 -0.7263 -0.0971
  132MOL0     H18185   5.932   2.254  -1.495  0.1251  2.6137 -0.2733
  132MOL0     H18186   6.094   2.035  -1.523  1.6994 -0.4161 -1.6632
  132MOL0     H18187   6.203   2.147  -1.602  0.1546 -3.3478 -2.4660
  132MOL0     H18188   6.026   2.210  -1.767  2.7625  0.8247  0.9445
  132MOL0     H18189   6.096   2.043  -1.770 -2.5984 -3.6948  1.9444
  132MOL0     H18190   5.833   2.063  -1.641  2.2706  2.2907  2.1278
  132MOL0     H18191   5.930   1.938  -1.694 -1.7193 -1.6739 -2.9358
  132MOL0     H18192   5.925   1.999  -1.932  1.7141 -0.3390  1.1967
  132MOL0     H18193   5.829   2.148  -1.897 -1.4070  1.0100  2.2190
  132MOL0     H18194   5.654   2.022  -1.796  0.2072 -3.1691  2.8915
  132MOL0     H18195   5.737   1.868  -1.836  1.0979  0.9277  1.0636
  132MOL0     H18196   5.882   2.122  -1.002  0.6831 -1.2895  2.4631
  132MOL0     H18197   5.741   1.990  -0.870  1.0940 -0.8930  1.1777
  132MOL0     H18198   5.500   1.752  -0.758 -2.1532 -0.1574 -3.8132
  132MOL0     H18199   5.313   1.664  -0.649  1.2642  1.4987  1.4061
  132MOL0     H18200   3.697   1.250   0.129  2.8894 -1.5297  0.4182
  132MOL0     H18201   3.488   1.304   0.248 -1.4691 -0.2105  0.4095
  132MOL0     H18202   3.276   1.481   0.546  0.8605 -2.2980  0.9677
  132MOL0     H18203   3.050   1.569   0.600 -2.4461  0.1934 -1.8828
  132MOL0     H18204   2.828   1.587   0.675  2.2401  0.8401 -1.3275
  132MOL0     H18205   2.827   1.613   0.501 -0.7267  2.1968  1.1830
  132MOL0     H18206   2.571   1.518   0.638 -0.2660 -0.9473  0.1994
  132MOL0     H18207   2.617   1.515   0.466  1.4967 -0.4361  0.1690
  132MOL0     H18208   2.555   1.739   0.655 -2.1639  1.1111  0.3163
  132MOL0     H18209   2.665   1.786   0.525 -0.9692  2.1987  2.3928
  132MOL0     H18210   2.507   1.699   0.361  0.0578  1.1850 -0.3928
  132MOL0     H18211   2.429   1.830   0.453 -0.6926 -0.1582  1.9841
  132MOL0     H18212   2.197   1.488   0.546 -0.2812  1.0666 -2.1145
  132MOL0     H18213   2.901   1.167   0.564 -0.0529  0.2633 -0.5345
  132MOL0     H18214   3.030   0.998   0.565 -0.4845 -0.4328 -2.2995
  132MOL0     H18215   3.081   1.015   0.399 -4.7833 -2.7622  1.4628
  132MOL0     H18216   3.207   1.005   0.533  0.3737  1.0875  1.6769
  133MOL0     O18217   4.440   3.263   9.065 -0.7349 -0.0501 -0.2306
  133MOL0     C18218   4.391   3.332   9.154 -0.2542  0.2453 -0.1797
  133MOL0     O18219   4.457   3.427   9.230  0.2347 -0.4705  0.7465
  133MOL0     C18220   4.599   3.446   9.207  1.8171 -0.7234 -0.3342
  133MOL0     C18221   4.695   3.355   9.170  0.4125  0.4426 -0.6600
  133MOL0     C18222   4.827   3.392   9.154 -0.0795 -0.3556 -0.3837
  133MOL0     C18223   4.861   3.519   9.178 -0.1424  0.6765  0.6431
  133MOL0     O18224   4.993   3.546   9.155  0.3744 -0.6537  0.7162
  133MOL0     C18225   5.053   3.670   9.203  0.3991 -0.0282 -0.5602
  133MOL0     C18226   5.204   3.670   9.212  0.3727 -0.3099  0.0436
  133MOL0     C18227   5.264   3.805   9.258 -0.3317  1.0692 -0.0986
  133MOL0     C18228   5.403   3.788   9.328  0.1154 -0.8270  0.0624
  133MOL0     C18229   5.483   3.916   9.343 -0.3212  0.5070  0.5822
  133MOL0     C18230   5.577   3.937   9.225 -0.4064 -0.0805  1.5743
  133MOL0     C18231   5.669   4.058   9.276  0.1816 -0.5604  0.8853
  133MOL0     C18232   5.777   4.090   9.175 -0.0747 -0.1608 -0.0487
  133MOL0     N18233   5.864   4.200   9.230  0.2996 -0.0766  0.3526
  133MOL0     C18234   5.967   4.173   9.316  0.3449  0.5845 -0.2651
  133MOL0     C18235   6.046   4.281   9.319  0.4537  0.0331  0.1962
  133MOL0     C18236   6.163   4.293   9.413  0.5764  0.1971 -0.1324
  133MOL0     C18237   6.299   4.296   9.344 -0.3364 -0.0057  0.7805
  133MOL0     C18238   6.354   4.154   9.333  0.2205 -0.0223 -1.1149
  133MOL0     C18239   6.463   4.114   9.242 -0.3386 -0.3403 -0.2087
  133MOL0     O18240   6.571   4.209   9.254  0.5445  0.4586  0.4052
  133MOL0     C18241   6.672   4.175   9.172 -0.4520 -0.2659 -0.0376
  133MOL0     C18242   6.659   4.181   9.039 -0.3605 -0.3162 -0.6486
  133MOL0     C18243   6.766   4.130   8.957 -0.5604 -0.5477  0.3043
  133MOL0     C18244   6.756   4.128   8.803  0.5593  0.7239 -0.1768
  133MOL0     C18245   6.889   4.075   9.017 -0.7117 -0.8041  0.4865
  133MOL0     C18246   7.009   4.022   8.943 -0.8828 -0.4317  0.3552
  133MOL0     O18247   7.064   4.098   8.843  0.1309 -0.1578  0.0696
  133MOL0     C18248   7.156   4.031   8.761  0.7292 -0.4677 -0.8273
  133MOL0     C18249   7.287   4.080   8.751 -0.2191  0.3330 -0.6931
  133MOL0     C18250   7.385   4.024   8.675 -0.5803  0.3658  0.3599
  133MOL0     C18251   7.350   3.912   8.593 -0.3451 -0.6737 -0.2869
  133MOL0     O18252   7.447   3.837   8.530 -0.5762  0.0263  0.9394
  133MOL0     C18253   7.427   3.803   8.395  0.7317  1.5842  0.5913
  133MOL0     C18254   7.503   3.684   8.337 -0.6821 -1.1573  0.1281
  133MOL0     C18255   7.659   3.695   8.322 -0.4537  0.7256 -0.0985
  133MOL0     C18256   7.735   3.556   8.294  0.6457  0.9570 -0.2730
  133MOL0     C18257   7.681   3.494   8.152  0.3991 -0.4356 -0.1928
  133MOL0     C18258   7.766   3.370   8.123  0.4623  0.5175 -0.1808
  133MOL0     C18259   7.729   3.285   7.998  0.0988  0.6447 -0.3179
  133MOL0     C18260   7.816   3.161   7.986  0.3463  0.0157 -0.8873
  133MOL0    Cl18261   7.745   3.043   7.880  0.3547  0.0094  0.5110
  133MOL0     C18262   7.218   3.864   8.593 -0.4712  0.3756 -0.2570
  133MOL0     C18263   7.126   3.923   8.685 -0.2769 -0.1764 -0.1099
  133MOL0     O18264   7.057   3.918   8.989  0.2877 -0.1732  0.3558
  133MOL0     C18265   6.890   4.074   9.159 -0.2045 -0.4045 -1.4094
  133MOL0     C18266   6.788   4.133   9.233  0.9698  0.4933 -0.3437
  133MOL0     N18267   5.985   4.372   9.240 -0.3515 -0.3222  0.3644
  133MOL0     N18268   5.884   4.328   9.180 -0.4507 -0.2129  0.3417
  133MOL0     C18269   4.771   3.612   9.223  0.7390 -0.7367  0.2648
  133MOL0     C18270   4.638   3.578   9.236  0.8696  0.5279  0.7718
  133MOL0     C18271   4.248   3.301   9.199 -0.1036  0.2142  0.3614
  133MOL0     C18272   4.212   3.336   9.330  0.5401  0.2707  0.1005
  133MOL0     C18273   4.085   3.308   9.387  0.4206  0.0194  0.1526
  133MOL0     C18274   4.001   3.235   9.311  0.8911 -0.3224 -0.9576
  133MOL0     O18275   3.888   3.195   9.378  0.3465 -0.0700 -0.8582
  133MOL0     C18276   3.765   3.182   9.309 -0.1186 -0.4754  0.7373
  133MOL0     C18277   3.742   3.034   9.274 -0.2906 -0.8245  0.0510
  133MOL0     C18278   3.734   2.939   9.396 -0.3610  0.0696 -0.3454
  133MOL0     C18279   3.693   2.796   9.375  0.1292  0.4199  1.1869
  133MOL0     C18280   3.565   2.785   9.296 -0.0399 -0.2665 -0.0256
  133MOL0     C18281   3.448   2.778   9.251 -1.0927 -0.2172 -0.4377
  133MOL0     C18282   4.021   3.214   9.174 -1.2480  0.3463  0.3379
  133MOL0     C18283   4.146   3.251   9.118 -0.1109 -0.1241 -0.3304
  133MOL0     C18284   4.163   3.206   8.974 -0.3225 -0.5787  0.6455
  133MOL0     H18285   4.671   3.250   9.162  1.1893  0.2525 -0.5369
  133MOL0     H18286   4.900   3.316   9.129  0.4480 -0.7526  2.0336
  133MOL0     H18287   5.008   3.699   9.299  0.3117 -1.7273 -0.0521
  133MOL0     H18288   5.020   3.747   9.132  1.0774  0.8876  0.0826
  133MOL0     H18289   5.237   3.585   9.272 -1.2505 -1.8667 -1.1388
  133MOL0     H18290   5.246   3.645   9.114 -4.3726 -0.6102 -2.2011
  133MOL0     H18291   5.280   3.870   9.172  2.0866  1.3023  0.4492
  133MOL0     H18292   5.195   3.861   9.321  0.1507 -1.4333  2.8790
  133MOL0     H18293   5.389   3.748   9.429  4.3747 -1.1532  0.6847
  133MOL0     H18294   5.462   3.717   9.269  0.7594  0.6335 -1.1490
  133MOL0     H18295   5.544   3.906   9.434 -0.4116  2.6930  0.9330
  133MOL0     H18296   5.424   4.007   9.351 -0.4935  0.4747 -0.1804
  133MOL0     H18297   5.629   3.843   9.205 -0.0483 -0.2235  3.0686
  133MOL0     H18298   5.519   3.962   9.135 -1.5791  0.2109  2.3912
  133MOL0     H18299   5.724   4.025   9.365  1.9043  0.5226  0.2686
  133MOL0     H18300   5.610   4.148   9.298 -1.4424 -1.8456  2.0535
  133MOL0     H18301   5.835   4.000   9.150  0.2095 -0.0885  0.3427
  133MOL0     H18302   5.733   4.120   9.079  0.1389 -2.0872 -0.7949
  133MOL0     H18303   5.984   4.079   9.367 -1.1817  1.1942  1.4602
  133MOL0     H18304   6.168   4.230   9.502  0.3743  0.4290  0.0451
  133MOL0     H18305   6.134   4.389   9.458 -1.3802 -0.9079  1.0895
  133MOL0     H18306   6.295   4.335   9.242  1.0633 -2.7966 -0.4405
  133MOL0     H18307   6.361   4.355   9.412 -1.0772  0.7816  0.8092
  133MOL0     H18308   6.394   4.135   9.433 -2.7568 -0.2304  0.1555
  133MOL0     H18309   6.273   4.081   9.327  0.2722 -0.0361 -1.6881
  133MOL0     H18310   6.486   4.007   9.247  1.2590 -0.0386 -0.6519
  133MOL0     H18311   6.433   4.108   9.137  0.4047  1.1699 -0.5232
  133MOL0     H18312   6.574   4.225   8.987  0.4318  0.7118 -1.1266
  133MOL0     H18313   6.816   4.212   8.767  3.4235  0.1523  2.8100
  133MOL0     H18314   6.651   4.142   8.776  0.7420  2.1504 -0.2471
  133MOL0     H18315   6.784   4.035   8.753  2.2344  1.2115 -0.2289
  133MOL0     H18316   7.317   4.151   8.826  0.6457  1.0340 -1.6844
  133MOL0     H18317   7.487   4.063   8.671 -0.2030 -0.6547 -0.5478
  133MOL0     H18318   7.323   3.772   8.381  0.8906  0.8725  0.8893
  133MOL0     H18319   7.451   3.891   8.335 -0.7084  3.0260  1.9999
  133MOL0     H18320   7.499   3.595   8.400 -3.4326  0.5307  2.6508
  133MOL0     H18321   7.457   3.646   8.246  3.0890 -1.7358 -1.6993
  133MOL0     H18322   7.702   3.739   8.412 -2.1389 -1.7399  2.0254
  133MOL0     H18323   7.670   3.760   8.234  0.1360  2.3146  1.1075
  133MOL0     H18324   7.717   3.484   8.374 -0.9219  1.3637 -0.2416
  133MOL0     H18325   7.842   3.579   8.288  0.4031  1.8205 -2.4449
  133MOL0     H18326   7.578   3.458   8.147 -0.1910  1.2830 -1.8190
  133MOL0     H18327   7.699   3.567   8.073 -4.9187 -0.2912 -1.6558
  133MOL0     H18328   7.775   3.310   8.214  2.9444 -4.0167 -3.0083
  133MOL0     H18329   7.870   3.402   8.109  0.7831 -0.5355 -0.2802
  133MOL0     H18330   7.731   3.346   7.907 -1.9277  0.2600 -0.6604
  133MOL0     H18331   7.626   3.251   8.011  0.8678 -1.3947  0.9383
  133MOL0     H18332   7.829   3.112   8.083  0.1442  2.5555  0.5035
  133MOL0     H18333   7.918   3.187   7.955  1.6387 -1.8472  1.4272
  133MOL0     H18334   7.180   3.770   8.553 -0.1780 -0.5918  1.6386
  133MOL0     H18335   7.025   3.884   8.692 -0.7242  0.8701 -0.5697
  133MOL0     H18336   6.978   4.046   9.216 -0.6600 -0.1391 -0.5613
  133MOL0     H18337   6.785   4.129   9.341 -2.5185 -1.1786 -0.3635
  133MOL0     H18338   4.792   3.715   9.248 -3.6603  0.5854 -0.5706
  133MOL0     H18339   4.569   3.649   9.279 -0.3105  0.9522 -1.6452
  133MOL0     H18340   4.276   3.393   9.397  1.2013 -0.9847  0.5661
  133MOL0     H18341   4.064   3.330   9.491 -0.0299  2.5305 -0.4147
  133MOL0     H18342   3.683   3.201   9.379 -0.8249 -1.4200  0.1986
  133MOL0     H18343   3.771   3.250   9.224  2.1872  0.5631  1.6428
  133MOL0     H18344   3.829   2.998   9.218  1.2283  0.8624  1.2191
  133MOL0     H18345   3.658   3.024   9.205  0.2862 -1.7911 -0.5360
  133MOL0     H18346   3.836   2.921   9.431 -0.8784  0.9216  1.7321
  133MOL0     H18347   3.669   2.984   9.471  0.1898  0.2028  0.0483
  133MOL0     H18348   3.691   2.750   9.474 -0.0098  1.0703  1.4906
  133MOL0     H18349   3.769   2.740   9.321 -1.5418 -0.5278 -0.2863
  133MOL0     H18350   3.353   2.775   9.201 -0.9285  4.7083 -1.6068
  133MOL0     H18351   3.962   3.170   9.094  1.5544 -2.4517 -0.3704
  133MOL0     H18352   4.066   3.207   8.923  0.2712  0.1133 -0.5093
  133MOL0     H18353   4.235   3.268   8.920 -2.7323  1.8201  0.0179
  133MOL0     H18354   4.193   3.101   8.965  2.7435  0.3996 -3.3896
  134MOL0     O18355   5.783   0.400   3.470  0.8765 -0.5600 -0.3335
  134MOL0     C18356   5.712   0.470   3.407 -0.1585 -0.2793  0.1037
  134MOL0     O18357   5.756   0.539   3.296  0.4472  0.2638  0.1397
  134MOL0     C18358   5.892   0.544   3.278 -0.5973  0.8324 -0.7434
  134MOL0     C18359   5.951   0.432   3.219 -0.7589  0.6285 -0.0177
  134MOL0     C18360   6.089   0.433   3.183 -0.5518 -0.6487  0.0876
  134MOL0     C18361   6.165   0.548   3.204 -1.0106  0.5432  1.5095
  134MOL0     O18362   6.294   0.569   3.154 -0.2410  0.3185 -0.1836
  134MOL0     C18363   6.369   0.446   3.135  0.5451  0.1211  0.0069
  134MOL0     C18364   6.515   0.469   3.114  0.1139 -0.5433 -0.7094
  134MOL0     C18365   6.579   0.535   3.234 -0.3736  0.5312  0.3840
  134MOL0     C18366   6.711   0.612   3.215 -0.0066 -0.2597  0.3024
  134MOL0     C18367   6.830   0.504   3.231  0.0729  0.4004  0.5018
  134MOL0     C18368   6.972   0.566   3.240  0.4269 -0.4207 -1.0423
  134MOL0     C18369   7.030   0.632   3.115 -0.0912  1.1458  0.0186
  134MOL0     C18370   7.178   0.657   3.121 -0.2971  0.4408 -0.2951
  134MOL0     N18371   7.210   0.732   3.002 -0.0009 -0.0932  0.0431
  134MOL0     C18372   7.252   0.867   2.986  0.5060  0.7819  1.0467
  134MOL0     C18373   7.299   0.871   2.857  1.0805  0.3978 -0.1860
  134MOL0     C18374   7.349   0.990   2.778  0.5470  1.3297  0.4885
  134MOL0     C18375   7.466   0.946   2.691 -0.1328  0.2361  0.2995
  134MOL0     C18376   7.425   0.893   2.553 -0.4771  0.9684  0.6425
  134MOL0     C18377   7.547   0.885   2.454 -0.9031  0.1306 -1.1293
  134MOL0     O18378   7.632   0.767   2.484  0.0541  0.0179  0.6830
  134MOL0     C18379   7.737   0.735   2.399  0.5463  0.2136 -0.3131
  134MOL0     C18380   7.804   0.617   2.403 -0.1072  0.9524 -0.7096
  134MOL0     C18381   7.906   0.574   2.320  0.6492  0.2008 -0.3181
  134MOL0     C18382   7.981   0.448   2.364 -0.0814  0.0132  0.3774
  134MOL0     C18383   7.949   0.664   2.213 -0.1755  0.7747 -0.3502
  134MOL0     C18384   8.071   0.634   2.131 -0.7467  0.4761 -0.3886
  134MOL0     O18385   8.084   0.714   2.018  0.3024 -1.1162 -0.3294
  134MOL0     C18386   8.195   0.745   1.948 -0.6010 -0.1879  0.4698
  134MOL0     C18387   8.178   0.853   1.860 -0.1312  0.2190  0.7762
  134MOL0     C18388   8.283   0.903   1.776 -1.2053 -0.2970 -0.0297
  134MOL0     C18389   8.413   0.832   1.784  0.4518 -0.1014  0.2154
  134MOL0     O18390   8.512   0.866   1.694 -0.3322 -0.2782  0.3881
  134MOL0     C18391   8.460   0.894   1.560 -0.8933  0.4513  0.2026
  134MOL0     C18392   8.567   0.881   1.446 -0.7306  0.1769 -0.0927
  134MOL0     C18393   8.677   0.971   1.484  0.1017  0.6951  0.2527
  134MOL0     C18394   8.789   0.958   1.380 -0.4616 -0.0082 -0.2826
  134MOL0     C18395   8.881   1.071   1.406 -0.4238 -0.0883  0.7184
  134MOL0     C18396   9.009   1.076   1.322  0.3326 -0.4131  0.8044
  134MOL0     C18397   9.109   1.176   1.385 -0.6613  0.0121 -0.3423
  134MOL0     C18398   9.245   1.163   1.307 -1.0713  0.3661  0.2357
  134MOL0    Cl18399   9.367   1.281   1.384  0.1745  0.2460 -0.3678
  134MOL0     C18400   8.432   0.726   1.868 -0.9708 -0.2606  1.3023
  134MOL0     C18401   8.331   0.688   1.955  0.3064 -0.0546  0.2049
  134MOL0     O18402   8.155   0.552   2.173  0.3734  0.5875  0.5735
  134MOL0     C18403   7.871   0.780   2.200 -0.4194  0.4805 -1.3935
  134MOL0     C18404   7.774   0.822   2.293 -0.2265  0.1229 -0.8687
  134MOL0     N18405   7.275   0.744   2.798  0.4461 -0.0837 -1.0276
  134MOL0     N18406   7.223   0.664   2.890  0.8762  0.1160  0.9367
  134MOL0     C18407   6.100   0.658   3.259  0.1030 -0.0970  0.3021
  134MOL0     C18408   5.958   0.661   3.292 -0.4851  0.0881  0.2273
  134MOL0     C18409   5.569   0.481   3.457  0.0490  0.0771  0.0815
  134MOL0     C18410   5.488   0.577   3.392  0.0929 -0.0363 -0.6874
  134MOL0     C18411   5.346   0.587   3.414 -0.2613 -0.8718  0.6390
  134MOL0     C18412   5.288   0.504   3.511 -0.0189 -1.1448  0.0474
  134MOL0     O18413   5.156   0.510   3.515  0.0368 -0.0910  1.0021
  134MOL0     C18414   5.102   0.560   3.632 -1.0768  0.0194 -0.2278
  134MOL0     C18415   4.962   0.532   3.653 -0.4018  0.0078 -0.1997
  134MOL0     C18416   4.946   0.391   3.710 -0.8864 -0.2568  0.2739
  134MOL0     C18417   4.799   0.360   3.718 -0.0357 -0.3583 -0.6523
  134MOL0     C18418   4.766   0.224   3.739 -0.3430  0.0268 -0.6478
  134MOL0     C18419   4.724   0.109   3.750  0.7139  0.1088 -0.5167
  134MOL0     C18420   5.374   0.416   3.576  0.0433 -0.3711 -0.7681
  134MOL0     C18421   5.510   0.394   3.552 -0.8566 -0.2076 -0.0075
  134MOL0     C18422   5.581   0.280   3.630  0.7375  0.7791  0.7680
  134MOL0     H18423   5.896   0.344   3.188 -0.6761  0.4254  0.4111
  134MOL0     H18424   6.134   0.350   3.130 -2.4104 -1.3543 -0.4437
  134MOL0     H18425   6.328   0.396   3.047 -0.7438 -3.2366  2.2918
  134MOL0     H18426   6.350   0.381   3.221  0.3104 -2.6177 -1.9998
  134MOL0     H18427   6.563   0.372   3.095  0.9689 -0.8411  2.3697
  134MOL0     H18428   6.525   0.540   3.031 -2.4894  2.3467  1.2395
  134MOL0     H18429   6.508   0.612   3.265  0.4489  0.9858  1.1972
  134MOL0     H18430   6.581   0.475   3.325  1.6458  0.8236  0.5852
  134MOL0     H18431   6.722   0.655   3.115  1.4007  1.1170  1.0227
  134MOL0     H18432   6.712   0.687   3.295  0.5737 -0.4274  0.4553
  134MOL0     H18433   6.822   0.433   3.148 -2.1479  0.1353  0.8721
  134MOL0     H18434   6.818   0.452   3.327  1.1726  0.5600  0.7331
  134MOL0     H18435   6.978   0.634   3.326 -2.5362 -1.1084 -0.1740
  134MOL0     H18436   7.034   0.481   3.271 -1.2379 -2.2881 -2.5248
  134MOL0     H18437   6.977   0.727   3.103  0.1634  1.2577 -0.2459
  134MOL0     H18438   7.012   0.570   3.026  1.5224  0.2591  0.2748
  134MOL0     H18439   7.195   0.723   3.207 -1.7566  0.3269  0.1077
  134MOL0     H18440   7.233   0.563   3.119  2.5129  1.9758 -1.5717
  134MOL0     H18441   7.262   0.947   3.058  1.2671 -0.5905  2.5360
  134MOL0     H18442   7.399   1.068   2.837  1.3582  1.9137 -0.9214
  134MOL0     H18443   7.268   1.037   2.721 -0.6944 -0.2787  0.8580
  134MOL0     H18444   7.530   1.033   2.677  1.2469 -0.8513 -0.3533
  134MOL0     H18445   7.525   0.873   2.747  1.7547  1.9152  0.6214
  134MOL0     H18446   7.394   0.789   2.566  0.5002  0.7675  1.4815
  134MOL0     H18447   7.345   0.948   2.503 -2.1719  0.9293  3.1257
  134MOL0     H18448   7.513   0.858   2.354 -0.8424  0.2509 -1.1812
  134MOL0     H18449   7.602   0.979   2.450  2.9873 -1.8462  0.7056
  134MOL0     H18450   7.774   0.539   2.474  1.2811 -1.0569 -2.2075
  134MOL0     H18451   7.997   0.370   2.289 -1.0806 -2.2389  2.3763
  134MOL0     H18452   7.931   0.383   2.436  0.7540 -0.7378  0.3078
  134MOL0     H18453   8.077   0.468   2.412  0.4993 -0.7312 -0.4252
  134MOL0     H18454   8.084   0.908   1.852  0.5528  1.2999 -0.3074
  134MOL0     H18455   8.278   0.996   1.720  0.7596 -0.5466 -0.6864
  134MOL0     H18456   8.377   0.825   1.539  0.3437 -1.8768  2.3754
  134MOL0     H18457   8.432   0.998   1.547 -1.8174  0.0918 -0.8371
  134MOL0     H18458   8.586   0.773   1.446 -2.4364 -0.1542  0.7985
  134MOL0     H18459   8.524   0.905   1.349 -0.0038  0.4164 -0.3675
  134MOL0     H18460   8.708   0.942   1.585 -4.0628  0.8252  1.7618
  134MOL0     H18461   8.641   1.074   1.488 -1.6278  0.1186  0.2771
  134MOL0     H18462   8.760   0.963   1.275  0.6850  0.0134 -0.6141
  134MOL0     H18463   8.844   0.866   1.400  0.0764  0.2790 -0.4136
  134MOL0     H18464   8.829   1.167   1.398  2.5481  1.7605  1.7038
  134MOL0     H18465   8.903   1.054   1.512 -1.1887 -0.7936  0.7752
  134MOL0     H18466   8.981   1.107   1.221  0.0756 -0.0497  0.9846
  134MOL0     H18467   9.056   0.979   1.305  0.5216 -0.0672 -0.8484
  134MOL0     H18468   9.133   1.158   1.490 -1.0686  1.9111  0.1190
  134MOL0     H18469   9.076   1.281   1.386  3.1837  1.3788  1.2299
  134MOL0     H18470   9.232   1.183   1.201  0.3118 -1.3604 -0.3010
  134MOL0     H18471   9.294   1.066   1.313 -0.7109  0.4252 -1.4615
  134MOL0     H18472   8.525   0.671   1.880  0.4495  1.8407  0.4811
  134MOL0     H18473   8.353   0.614   2.032  0.7326 -0.5784 -0.4090
  134MOL0     H18474   7.884   0.829   2.104  2.5359 -0.0081 -1.3336
  134MOL0     H18475   7.733   0.922   2.284 -0.9202 -0.0942 -0.1881
  134MOL0     H18476   6.147   0.756   3.261 -1.4796  0.8712  5.6481
  134MOL0     H18477   5.912   0.752   3.329 -1.0772  0.5541 -1.5597
  134MOL0     H18478   5.532   0.646   3.321  0.1982 -0.1718 -0.7535
  134MOL0     H18479   5.287   0.663   3.363  0.2555  0.9506  2.6116
  134MOL0     H18480   5.162   0.529   3.718 -0.5417 -1.4255 -1.0831
  134MOL0     H18481   5.108   0.668   3.616  0.2865 -0.3512 -2.6365
  134MOL0     H18482   4.912   0.541   3.556 -0.1942 -3.9309 -0.8142
  134MOL0     H18483   4.919   0.610   3.716 -0.4568  1.5426 -2.0368
  134MOL0     H18484   5.002   0.326   3.642  0.0747  1.6491 -0.8275
  134MOL0     H18485   4.988   0.388   3.812 -0.7825 -0.5944  0.2233
  134MOL0     H18486   4.751   0.383   3.622  1.4289  0.5755 -1.2007
  134MOL0     H18487   4.752   0.423   3.794  0.7579 -2.3538  1.5803
  134MOL0     H18488   4.688   0.011   3.776 -1.4640  1.0049  0.0983
  134MOL0     H18489   5.323   0.343   3.638  1.3548 -1.2157 -0.6594
  134MOL0     H18490   5.614   0.201   3.562 -1.1843  2.0329 -1.8097
  134MOL0     H18491   5.670   0.324   3.676 -0.9353  2.4972  2.5984
  134MOL0     H18492   5.524   0.227   3.707 -0.6841 -1.2577 -1.5346
  135MOL0     O18493   6.964   9.749  10.482 -0.3061 -0.2113  0.6957
  135MOL0     C18494   6.851   9.774  10.425 -0.0717  0.4244  0.3046
  135MOL0     O18495   6.835   9.871  10.333  0.0409  0.5017  0.5503
  135MOL0     C18496   6.957   9.923  10.282  0.1484  0.1222  0.3131
  135MOL0     C18497   7.050   9.852  10.206  0.3136  0.4270 -1.1151
  135MOL0     C18498   7.157   9.915  10.148  0.5057 -0.3523 -0.4309
  135MOL0     C18499   7.172  10.053  10.160 -0.6294 -0.0771 -0.7277
  135MOL0     O18500   7.270  10.118  10.089  0.1238 -0.3969 -0.6578
  135MOL0     C18501   7.343  10.038   9.985  0.7045 -0.6988 -0.9612
  135MOL0     C18502   7.412  10.143   9.902  0.6600 -0.2648 -0.6831
  135MOL0     C18503   7.514  10.072   9.811 -0.2632 -0.7892  0.7378
  135MOL0     C18504   7.603  10.174   9.738 -0.2373  0.6240 -0.2607
  135MOL0     C18505   7.710  10.100   9.647  0.5459 -0.5660  0.7489
  135MOL0     C18506   7.805  10.194   9.580 -0.9332 -0.7439 -0.4006
  135MOL0     C18507   7.931  10.125   9.511  0.2447  0.4082 -0.0093
  135MOL0     C18508   7.989  10.216   9.402  0.2368 -0.0568 -0.5619
  135MOL0     N18509   8.122  10.173   9.352  0.0408  0.4338  0.9990
  135MOL0     C18510   8.244  10.216   9.381  0.1048 -0.2111 -0.7371
  135MOL0     C18511   8.336  10.143   9.317 -0.0194  0.5540  0.1728
  135MOL0     C18512   8.489  10.136   9.327 -0.1538  0.0110 -0.4494
  135MOL0     C18513   8.545  10.245   9.414 -0.1674  0.0952  0.2483
  135MOL0     C18514   8.690  10.208   9.440  0.3775  0.2880  0.6094
  135MOL0     C18515   8.768  10.324   9.509  0.1964  0.0094 -0.0531
  135MOL0     O18516   8.899  10.281   9.556 -0.0546  0.5574 -0.0043
  135MOL0     C18517   9.016  10.347   9.565 -0.3853  0.1469 -0.9282
  135MOL0     C18518   9.129  10.269   9.539 -1.2925 -0.4481  0.1777
  135MOL0     C18519   9.258  10.331   9.538  0.7097  0.6287  0.0822
  135MOL0     C18520   9.374  10.257   9.495 -0.9870 -0.3479  0.2278
  135MOL0     C18521   9.265  10.473   9.566  0.7565 -0.4248  0.0449
  135MOL0     C18522   9.388  10.553   9.539  0.1848  0.6011 -0.3062
  135MOL0     O18523   9.505  10.522   9.608 -0.5182 -0.0296  0.3058
  135MOL0     C18524   9.614  10.603   9.564  0.4445 -0.6766  0.2859
  135MOL0     C18525   9.681  10.575   9.448 -0.6575 -0.1504  0.1037
  135MOL0     C18526   9.786  10.664   9.398 -0.6601 -0.0162  0.6218
  135MOL0     C18527   9.819  10.781   9.478  0.0262  0.1298  0.1741
  135MOL0     O18528   9.924  10.860   9.448 -0.0933 -0.3727  0.4603
  135MOL0     C18529   9.930  10.994   9.495  0.4633  0.0072  0.0957
  135MOL0     C18530  10.060  11.059   9.451  0.0816 -0.1392  0.5985
  135MOL0     C18531  10.190  10.996   9.509  0.6517  0.1587  0.3454
  135MOL0     C18532  10.320  11.073   9.491 -0.2596  0.5144 -0.7975
  135MOL0     C18533  10.332  11.123   9.340 -0.8541 -0.2051 -0.2916
  135MOL0     C18534  10.359  11.002   9.245  0.5963  0.4555  0.5983
  135MOL0     C18535  10.350  11.047   9.095  0.0296 -0.1158 -0.3726
  135MOL0     C18536  10.470  11.115   9.043 -0.4293 -1.1239  0.2423
  135MOL0    Cl18537  10.449  11.176   8.881  0.6909  0.4034 -0.1211
  135MOL0     C18538   9.740  10.801   9.594 -0.2791 -0.7326 -0.1865
  135MOL0     C18539   9.640  10.715   9.638  0.4442 -0.1870 -0.1289
  135MOL0     O18540   9.370  10.644   9.460 -0.7048 -0.7643 -0.4075
  135MOL0     C18541   9.151  10.544   9.605  0.3520  0.4461 -0.5805
  135MOL0     C18542   9.028  10.481   9.602  0.0610 -0.0176  0.8311
  135MOL0     N18543   8.267  10.041   9.253  0.0989 -0.1003  0.3572
  135MOL0     N18544   8.141  10.060   9.280 -0.1051 -1.7831 -0.3988
  135MOL0     C18545   7.085  10.126  10.243 -0.2351  0.6028  0.2664
  135MOL0     C18546   6.981  10.060  10.310 -0.0139 -0.6747  0.1080
  135MOL0     C18547   6.730   9.701  10.457 -0.2855  0.0371 -0.6546
  135MOL0     C18548   6.677   9.720  10.584  0.3525  0.6457 -0.3773
  135MOL0     C18549   6.568   9.652  10.619 -0.3480 -0.0149  0.1298
  135MOL0     C18550   6.496   9.581  10.523 -0.2877 -0.2983  0.3358
  135MOL0     O18551   6.375   9.522  10.551  0.1121  0.5111  0.0834
  135MOL0     C18552   6.326   9.530  10.687  0.0134 -0.1114  0.3704
  135MOL0     C18553   6.195   9.456  10.706 -0.3804  0.4340 -0.3076
  135MOL0     C18554   6.104   9.465  10.577  1.2474 -0.7772 -0.9495
  135MOL0     C18555   5.950   9.433  10.619 -0.0019 -0.0347  1.0172
  135MOL0     C18556   5.884   9.546  10.690  0.0622  0.0883  0.3106
  135MOL0     C18557   5.816   9.629  10.746 -0.8345  0.7310  0.3149
  135MOL0     C18558   6.543   9.569  10.392 -0.1817  0.6174  0.4831
  135MOL0     C18559   6.666   9.625  10.361 -0.3188  0.8630 -0.4060
  135MOL0     C18560   6.716   9.602  10.216  0.2925  0.7434  0.1080
  135MOL0     H18561   7.033   9.746  10.185 -0.4446 -0.1764  2.0177
  135MOL0     H18562   7.223   9.849  10.092 -0.8507 -0.2719 -2.2248
  135MOL0     H18563   7.279   9.984   9.915  2.5752 -2.4669 -1.4093
  135MOL0     H18564   7.402   9.956  10.027  1.9566  0.8657  0.5000
  135MOL0     H18565   7.333  10.195   9.847 -1.7742 -1.9538  0.9960
  135MOL0     H18566   7.450  10.218   9.972  0.1544 -0.1296 -0.5508
  135MOL0     H18567   7.578  10.001   9.866  0.0359 -0.7648  0.4306
  135MOL0     H18568   7.459  10.006   9.743  1.9726 -2.7897  0.7146
  135MOL0     H18569   7.560  10.253   9.676 -2.1182 -0.2299 -0.1186
  135MOL0     H18570   7.665  10.213   9.819 -0.9445  0.0603  0.5668
  135MOL0     H18571   7.654  10.043   9.573 -2.4782  3.0326 -0.0331
  135MOL0     H18572   7.773  10.030   9.703  0.5850 -1.3197 -0.2175
  135MOL0     H18573   7.753  10.248   9.500  1.9938  2.4098 -0.4088
  135MOL0     H18574   7.847  10.268   9.649  1.8510 -0.5868 -2.0723
  135MOL0     H18575   7.894  10.029   9.472 -0.0829 -0.0636  1.3903
  135MOL0     H18576   8.006  10.084   9.579  0.1800 -1.4228 -0.9794
  135MOL0     H18577   7.904  10.220   9.334 -1.1019 -0.6272  1.0005
  135MOL0     H18578   7.998  10.320   9.436 -3.9677  0.5788 -0.8999
  135MOL0     H18579   8.258  10.289   9.460  2.3351 -1.4553  0.1072
  135MOL0     H18580   8.524  10.132   9.224 -0.8571 -2.3227 -0.6503
  135MOL0     H18581   8.507  10.035   9.366 -0.0369 -0.0824 -0.7457
  135MOL0     H18582   8.546  10.343   9.366  0.5595  0.7957  1.6450
  135MOL0     H18583   8.491  10.254   9.508 -0.7281 -2.3056  0.2346
  135MOL0     H18584   8.695  10.113   9.494  0.4527  0.2632  0.5587
  135MOL0     H18585   8.748  10.179   9.351 -1.2560 -1.8695  0.1812
  135MOL0     H18586   8.770  10.410   9.443  0.5314  0.0379 -0.0070
  135MOL0     H18587   8.711  10.364   9.593 -0.1853 -0.0354 -0.2893
  135MOL0     H18588   9.112  10.165   9.511 -1.2374 -0.7192  1.1108
  135MOL0     H18589   9.393  10.296   9.394 -1.5592  1.7620  0.8943
  135MOL0     H18590   9.350  10.152   9.477 -1.2410  0.2323 -3.7999
  135MOL0     H18591   9.467  10.268   9.551 -2.2107  1.3071  2.0481
  135MOL0     H18592   9.649  10.478   9.410  2.0847 -0.8378 -0.6825
  135MOL0     H18593   9.844  10.639   9.310  0.8790  1.1799  1.2653
  135MOL0     H18594   9.841  11.049   9.465  0.1295 -0.0477  0.9602
  135MOL0     H18595   9.931  10.991   9.604  0.8558  1.0942  0.1272
  135MOL0     H18596  10.068  11.051   9.342 -0.6189 -1.2624  0.6097
  135MOL0     H18597  10.063  11.164   9.478  1.5305 -0.2805  1.0792
  135MOL0     H18598  10.197  10.899   9.459 -0.8832 -0.2480  0.8565
  135MOL0     H18599  10.163  10.979   9.613  0.6946  0.4367  0.4042
  135MOL0     H18600  10.401  11.004   9.515 -0.8808  0.7582  2.4807
  135MOL0     H18601  10.321  11.156   9.563 -2.4972  0.0950 -0.1909
  135MOL0     H18602  10.260  11.198   9.308 -2.4842 -2.2838 -1.7976
  135MOL0     H18603  10.425  11.181   9.339 -1.4571  0.7845 -1.9407
  135MOL0     H18604  10.279  10.929   9.257  1.1265  0.0294  1.7006
  135MOL0     H18605  10.449  10.941   9.255 -0.1108 -1.4182 -2.8643
  135MOL0     H18606  10.258  11.106   9.085  0.2879  0.7121  1.7096
  135MOL0     H18607  10.335  10.959   9.031  3.7929 -1.3481  0.2320
  135MOL0     H18608  10.551  11.041   9.052  0.3209 -0.0653  4.2223
  135MOL0     H18609  10.495  11.201   9.105  0.4889 -1.4496  0.3511
  135MOL0     H18610   9.749  10.890   9.656 -0.0471 -0.3970 -0.6942
  135MOL0     H18611   9.581  10.733   9.728  0.9318  0.9594 -0.0212
  135MOL0     H18612   9.149  10.648   9.635  4.9807  0.0130  2.1600
  135MOL0     H18613   8.932  10.530   9.614  0.7287  2.2709 -2.0561
  135MOL0     H18614   7.113  10.230  10.255 -1.4115  0.7471  2.2211
  135MOL0     H18615   6.922  10.117  10.380  0.8002  1.1415 -0.5951
  135MOL0     H18616   6.712   9.782  10.666  0.9592  1.9585 -1.5850
  135MOL0     H18617   6.525   9.660  10.718  1.4975  0.0590  0.9574
  135MOL0     H18618   6.397   9.482  10.755  1.8302  1.3993 -0.3628
  135MOL0     H18619   6.309   9.637  10.705 -0.8980  0.0771 -1.3607
  135MOL0     H18620   6.150   9.495  10.798  0.5033  2.8240 -0.7989
  135MOL0     H18621   6.234   9.354  10.717  6.2006  2.6040  0.7733
  135MOL0     H18622   6.099   9.561  10.525 -3.5569 -1.1654 -1.7099
  135MOL0     H18623   6.134   9.393  10.500  0.3377 -3.4706  1.0811
  135MOL0     H18624   5.941   9.353  10.692 -2.0933  0.2625  1.1337
  135MOL0     H18625   5.893   9.402  10.531  0.8910 -2.5338  1.2353
  135MOL0     H18626   5.733   9.684  10.785 -2.5890 -1.3523 -0.2672
  135MOL0     H18627   6.480   9.514  10.324 -0.0520 -3.0794  3.0665
  135MOL0     H18628   6.742   9.692  10.160  2.0685 -0.7976 -1.6990
  135MOL0     H18629   6.803   9.535  10.209 -0.6241 -1.0769  3.6893
  135MOL0     H18630   6.646   9.544  10.155  2.0787 -0.7251 -0.6532
  136MOL0     O18631   8.688   9.534   1.555 -0.1934  0.4067  0.3690
  136MOL0     C18632   8.739   9.642   1.583  0.1358 -0.8085 -0.8964
  136MOL0     O18633   8.690   9.730   1.677 -0.4376  0.6092  0.3120
  136MOL0     C18634   8.566   9.694   1.726 -0.2336  0.1581 -0.0355
  136MOL0     C18635   8.555   9.596   1.833 -0.2955  0.4125 -0.5227
  136MOL0     C18636   8.422   9.548   1.871 -0.2154 -0.1116 -0.8173
  136MOL0     C18637   8.310   9.611   1.815 -0.3794 -0.0918 -0.0030
  136MOL0     O18638   8.182   9.566   1.855 -0.5609 -0.4001 -0.0627
  136MOL0     C18639   8.102   9.671   1.904 -0.2056 -0.6191  0.0418
  136MOL0     C18640   7.979   9.620   1.989 -1.0955 -0.4097  0.1218
  136MOL0     C18641   7.919   9.488   1.938 -0.0845  0.5180 -1.3976
  136MOL0     C18642   7.797   9.442   2.025 -0.2088  0.0922 -0.1327
  136MOL0     C18643   7.750   9.302   1.988  0.3033 -0.3974 -0.7920
  136MOL0     C18644   7.850   9.188   2.001 -0.4219  0.1124 -0.0907
  136MOL0     C18645   7.934   9.198   2.132 -0.0428  0.0697 -0.1179
  136MOL0     C18646   8.037   9.088   2.136 -0.2307 -0.1838 -0.1556
  136MOL0     N18647   8.126   9.077   2.023  0.1220 -0.3497 -0.4915
  136MOL0     C18648   8.190   9.187   1.954  0.3861  0.0057 -0.2741
  136MOL0     C18649   8.231   9.128   1.843  0.2364 -0.4096  0.5854
  136MOL0     C18650   8.303   9.204   1.736  0.1726 -0.2942  0.0819
  136MOL0     C18651   8.437   9.150   1.700  0.3036 -0.3751  0.1031
  136MOL0     C18652   8.515   9.245   1.611  0.8320 -0.5369  0.2948
  136MOL0     C18653   8.502   9.237   1.458  0.1004 -0.0989  0.4495
  136MOL0     O18654   8.558   9.108   1.414 -0.4213 -0.7689  0.4586
  136MOL0     C18655   8.677   9.107   1.355  0.6635 -0.7171  0.8314
  136MOL0     C18656   8.703   9.016   1.250 -0.2303 -0.1058  0.7725
  136MOL0     C18657   8.827   9.005   1.189 -0.3784  0.4310  0.4155
  136MOL0     C18658   8.837   8.890   1.082  0.4808 -0.1301 -0.5898
  136MOL0     C18659   8.938   9.091   1.230 -0.5754 -0.0818 -0.1297
  136MOL0     C18660   9.085   9.078   1.201 -0.1771  0.1613  0.1817
  136MOL0     O18661   9.145   8.955   1.178 -0.3157 -0.5579 -0.0017
  136MOL0     C18662   9.252   8.939   1.091 -0.5505  0.2319 -0.2656
  136MOL0     C18663   9.289   9.022   0.986 -0.4091 -0.0324 -0.3671
  136MOL0     C18664   9.398   8.980   0.903 -0.3675 -0.0406  0.7981
  136MOL0     C18665   9.480   8.875   0.941 -0.3728 -0.2453  0.5601
  136MOL0     O18666   9.585   8.828   0.873 -0.0110  0.7882  0.2524
  136MOL0     C18667   9.627   8.896   0.759 -0.0917 -0.9927  0.0179
  136MOL0     C18668   9.757   8.831   0.711 -0.1206 -0.7413  0.9635
  136MOL0     C18669   9.777   8.867   0.558 -0.1699  0.9747 -0.5524
  136MOL0     C18670   9.915   8.820   0.506  0.5243 -1.2647 -0.0989
  136MOL0     C18671   9.932   8.859   0.356  0.2963 -0.5993 -0.3293
  136MOL0     C18672  10.073   8.855   0.314  0.1429  0.1032 -0.1731
  136MOL0     C18673  10.120   8.710   0.288  0.5681 -0.5127 -0.2883
  136MOL0     C18674  10.107   8.655   0.145 -0.0961  0.2703 -0.1940
  136MOL0    Cl18675  10.155   8.484   0.129  0.0212  0.2517  0.3760
  136MOL0     C18676   9.439   8.803   1.056 -0.0285 -0.3172 -0.0052
  136MOL0     C18677   9.326   8.831   1.127 -0.3997  0.0835 -0.5179
  136MOL0     O18678   9.148   9.182   1.206  0.1329  0.1816  0.9153
  136MOL0     C18679   8.907   9.178   1.335  0.8579  0.2060 -0.8554
  136MOL0     C18680   8.786   9.182   1.401 -0.4837 -0.6507  0.1608
  136MOL0     N18681   8.170   9.000   1.821 -0.1975  0.0241 -0.5084
  136MOL0     N18682   8.116   8.973   1.933 -0.0092  0.3560 -0.6910
  136MOL0     C18683   8.324   9.711   1.717  0.1225 -0.6931  0.3822
  136MOL0     C18684   8.453   9.755   1.670  0.3130 -0.2062 -0.0013
  136MOL0     C18685   8.868   9.667   1.518 -0.1199 -0.0082  0.5161
  136MOL0     C18686   8.947   9.558   1.493  0.3677  0.8671 -0.0438
  136MOL0     C18687   9.075   9.562   1.436  0.2560  0.6786  0.0119
  136MOL0     C18688   9.129   9.685   1.397 -0.9029  0.5192 -0.0191
  136MOL0     O18689   9.243   9.699   1.332  0.7391 -0.2569 -0.7110
  136MOL0     C18690   9.314   9.582   1.287  0.0289 -1.1372  0.3828
  136MOL0     C18691   9.462   9.604   1.266 -0.0359 -0.9963  0.2799
  136MOL0     C18692   9.499   9.673   1.129 -0.3676  0.3506 -0.3534
  136MOL0     C18693   9.647   9.656   1.095  0.8436 -0.3584  0.1148
  136MOL0     C18694   9.731   9.674   1.218 -0.2313  0.5814  0.7178
  136MOL0     C18695   9.799   9.696   1.318 -1.1765  0.1115  0.5239
  136MOL0     C18696   9.058   9.803   1.428  0.2783  0.1485 -1.1166
  136MOL0     C18697   8.932   9.794   1.487  0.5353 -0.2360 -0.9259
  136MOL0     C18698   8.858   9.929   1.527 -0.2174 -0.0935 -0.6109
  136MOL0     H18699   8.649   9.554   1.868  0.4791  0.1173 -2.7518
  136MOL0     H18700   8.408   9.463   1.938  1.7713  0.4342  0.3692
  136MOL0     H18701   8.062   9.725   1.817  0.0688 -0.8020 -0.1981
  136MOL0     H18702   8.164   9.740   1.961 -2.0352  0.7715  0.4471
  136MOL0     H18703   8.029   9.595   2.083  0.0073 -0.9371 -0.5749
  136MOL0     H18704   7.906   9.699   2.010  0.0117  0.1535  2.0899
  136MOL0     H18705   7.896   9.479   1.831  4.0981  3.3498 -2.8056
  136MOL0     H18706   8.001   9.418   1.953  1.5837  2.7897  0.8671
  136MOL0     H18707   7.825   9.449   2.131  2.0625 -2.8418 -0.4259
  136MOL0     H18708   7.714   9.510   2.003  0.9106  0.7513 -2.8312
  136MOL0     H18709   7.716   9.283   1.886  1.5218 -2.3391 -0.8823
  136MOL0     H18710   7.663   9.281   2.052  0.5375 -0.7373 -0.5833
  136MOL0     H18711   7.805   9.089   1.988 -1.2658  0.7262 -2.3267
  136MOL0     H18712   7.923   9.197   1.920 -0.4181 -1.7476 -0.3411
  136MOL0     H18713   7.871   9.183   2.221 -0.4624  1.4552 -0.1589
  136MOL0     H18714   7.973   9.296   2.162 -1.2164 -0.3171  3.0888
  136MOL0     H18715   8.097   9.110   2.225 -1.1856  0.5767  0.3087
  136MOL0     H18716   7.991   8.990   2.155  0.1892  0.1852  3.3883
  136MOL0     H18717   8.213   9.286   1.992  1.8377 -0.3350 -0.2188
  136MOL0     H18718   8.321   9.306   1.771  1.5324 -0.7268  0.6793
  136MOL0     H18719   8.239   9.208   1.647 -1.8179 -0.0552  1.4458
  136MOL0     H18720   8.487   9.120   1.792  2.7517 -2.2868 -1.6898
  136MOL0     H18721   8.435   9.063   1.633  0.2908  0.5126 -1.0945
  136MOL0     H18722   8.494   9.343   1.656 -1.0207 -1.4643  1.5725
  136MOL0     H18723   8.621   9.235   1.635  0.8396  0.3628  0.6885
  136MOL0     H18724   8.395   9.242   1.434  0.2260 -1.4540 -0.5395
  136MOL0     H18725   8.563   9.318   1.418  1.1067 -0.3565  1.4241
  136MOL0     H18726   8.622   8.952   1.216 -2.8724  3.4029 -0.2098
  136MOL0     H18727   8.775   8.802   1.104 -1.1244  0.8203 -1.0798
  136MOL0     H18728   8.932   8.837   1.082 -0.1117 -1.2796  0.9233
  136MOL0     H18729   8.817   8.941   0.987  1.2287  0.6636 -0.3279
  136MOL0     H18730   9.240   9.116   0.963  0.0308  0.7462  1.7175
  136MOL0     H18731   9.425   9.041   0.817  2.2672 -2.2734 -0.0989
  136MOL0     H18732   9.560   8.875   0.675 -0.8458  3.8280 -0.8430
  136MOL0     H18733   9.646   9.003   0.765 -0.3650 -0.8844 -0.8395
  136MOL0     H18734   9.842   8.865   0.771 -0.3094 -1.7032  1.8013
  136MOL0     H18735   9.752   8.722   0.720  0.9996 -0.9724 -0.7272
  136MOL0     H18736   9.761   8.973   0.541  1.8928  1.3617 -0.4051
  136MOL0     H18737   9.702   8.814   0.498  1.5199  1.2298 -3.0574
  136MOL0     H18738   9.924   8.711   0.516 -0.2587 -1.2839  0.4922
  136MOL0     H18739   9.990   8.874   0.564 -0.2233 -0.9910  0.6329
  136MOL0     H18740   9.871   8.801   0.286 -1.4577 -0.2307  0.8118
  136MOL0     H18741   9.906   8.963   0.331 -0.3202 -1.8321 -6.3569
  136MOL0     H18742  10.139   8.907   0.384  0.0284  2.0555 -1.4071
  136MOL0     H18743  10.072   8.907   0.217  0.7883  0.1625 -0.1532
  136MOL0     H18744  10.062   8.651   0.359  1.4086  0.0417  0.8808
  136MOL0     H18745  10.228   8.708   0.308  0.5753  3.2020  0.7492
  136MOL0     H18746  10.178   8.703   0.077  1.9779 -2.2682  0.0041
  136MOL0     H18747  10.003   8.676   0.118  0.1916  4.1951  1.1866
  136MOL0     H18748   9.487   8.713   1.092 -1.5938 -0.5890  1.5282
  136MOL0     H18749   9.297   8.784   1.220  1.4116 -1.7417 -0.8188
  136MOL0     H18750   8.986   9.236   1.382 -1.7436  2.0354  1.5922
  136MOL0     H18751   8.785   9.251   1.484  2.0810 -0.5942  0.2252
  136MOL0     H18752   8.237   9.749   1.663  1.0625  1.5887  0.3349
  136MOL0     H18753   8.473   9.822   1.587 -0.0085  1.5983  1.3160
  136MOL0     H18754   8.912   9.462   1.529 -0.9865  1.7934  1.2311
  136MOL0     H18755   9.119   9.467   1.409 -2.3135 -0.4652 -0.4244
  136MOL0     H18756   9.323   9.521   1.377 -0.3740  1.8156  2.5760
  136MOL0     H18757   9.264   9.548   1.195 -0.2321 -0.6092  0.3279
  136MOL0     H18758   9.511   9.507   1.275  0.5396 -0.5569  2.8654
  136MOL0     H18759   9.496   9.653   1.358  1.3943 -0.3125 -0.5711
  136MOL0     H18760   9.438   9.616   1.059  0.8426 -2.6887  0.9160
  136MOL0     H18761   9.465   9.777   1.144  1.7502  0.7652  2.4581
  136MOL0     H18762   9.686   9.732   1.025 -0.3192 -1.4937 -1.8525
  136MOL0     H18763   9.666   9.556   1.054  1.6498  0.7911 -2.5847
  136MOL0     H18764   9.868   9.737   1.388 -1.5454  1.2423  0.2524
  136MOL0     H18765   9.104   9.900   1.412 -0.6028  0.4775 -1.6897
  136MOL0     H18766   8.758   9.947   1.486 -0.6415  1.6695  1.0621
  136MOL0     H18767   8.860   9.940   1.636 -0.9418  1.0636 -0.6933
  136MOL0     H18768   8.920  10.012   1.494 -0.3374 -0.0668 -0.7700
  137MOL0     O18769   5.817   1.202  11.219 -0.0553 -0.0932 -0.2716
  137MOL0     C18770   5.714   1.189  11.158 -0.0827  0.5900 -0.3388
  137MOL0     O18771   5.700   1.130  11.036  0.3285 -0.4599  0.0309
  137MOL0     C18772   5.804   1.090  10.967 -1.2495 -0.0837 -0.2756
  137MOL0     C18773   5.788   0.960  10.913 -0.0162 -0.4585  0.5541
  137MOL0     C18774   5.896   0.900  10.843  0.0253 -0.0779 -0.3928
  137MOL0     C18775   6.014   0.959  10.830 -0.8144  0.3144  0.9292
  137MOL0     O18776   6.122   0.900  10.765 -0.3864  0.3908 -0.0329
  137MOL0     C18777   6.169   0.765  10.810 -0.7655  0.4952 -1.0574
  137MOL0     C18778   6.305   0.726  10.756  0.4508  0.0190  0.9288
  137MOL0     C18779   6.328   0.769  10.614 -0.6540  0.7442  0.3035
  137MOL0     C18780   6.442   0.696  10.553  1.2136 -0.0198  0.2414
  137MOL0     C18781   6.448   0.734  10.405 -0.1172 -0.3533 -0.5613
  137MOL0     C18782   6.555   0.652  10.330 -0.7594  0.3566 -0.2028
  137MOL0     C18783   6.694   0.698  10.356 -0.5551  0.1992 -0.4783
  137MOL0     C18784   6.806   0.609  10.298  0.5161 -0.4970  0.4407
  137MOL0     N18785   6.947   0.653  10.328 -0.0486  0.3609  0.5193
  137MOL0     C18786   6.982   0.782  10.341 -0.2262 -0.1220 -0.5050
  137MOL0     C18787   7.102   0.783  10.406 -0.1773  0.3663 -0.0035
  137MOL0     C18788   7.162   0.912  10.465  0.3398  0.1038 -0.6042
  137MOL0     C18789   7.304   0.893  10.513 -0.2571  0.0942  0.4064
  137MOL0     C18790   7.342   1.008  10.604 -0.3576  0.2263 -1.1867
  137MOL0     C18791   7.488   0.993  10.665  0.3511 -0.2865 -0.1420
  137MOL0     O18792   7.576   0.988  10.553  0.9162  0.1943 -0.2058
  137MOL0     C18793   7.703   1.043  10.557 -1.1626 -0.2172  1.0025
  137MOL0     C18794   7.778   1.033  10.433 -1.2998 -0.4951 -0.4007
  137MOL0     C18795   7.912   1.077  10.430  0.2218 -0.9173  0.2339
  137MOL0     C18796   7.976   1.087  10.290 -0.1784 -0.4600 -0.0456
  137MOL0     C18797   7.975   1.139  10.540  0.1239 -0.1490 -0.2852
  137MOL0     C18798   8.121   1.181  10.549  0.1905  0.5306  0.7400
  137MOL0     O18799   8.210   1.094  10.495  0.6037  0.1696 -0.2812
  137MOL0     C18800   8.344   1.121  10.497 -0.9252 -0.1210 -0.6985
  137MOL0     C18801   8.392   1.197  10.390  0.3517 -0.1989 -1.0695
  137MOL0     C18802   8.527   1.234  10.392 -0.0147 -0.0018  0.4476
  137MOL0     C18803   8.612   1.184  10.495 -0.1375  0.0858 -0.4165
  137MOL0     O18804   8.750   1.208  10.491  0.2562 -0.1119 -0.2625
  137MOL0     C18805   8.812   1.258  10.369  0.3745 -0.3460 -0.1532
  137MOL0     C18806   8.956   1.224  10.372 -0.2271  0.7208 -0.1670
  137MOL0     C18807   8.976   1.075  10.318  0.5709 -0.1346  0.3941
  137MOL0     C18808   9.120   1.035  10.333  0.3010 -0.5253 -0.2601
  137MOL0     C18809   9.143   0.911  10.249 -0.1130  0.3630 -0.1967
  137MOL0     C18810   9.246   0.820  10.311 -0.4138 -0.0206 -0.4669
  137MOL0     C18811   9.261   0.689  10.228 -0.5190  0.5720  1.0377
  137MOL0     C18812   9.387   0.600  10.272 -0.1684  0.1794 -0.4235
  137MOL0    Cl18813   9.396   0.584  10.452 -0.2683 -0.2440 -0.7138
  137MOL0     C18814   8.564   1.097  10.593  0.0551 -0.1248 -0.3265
  137MOL0     C18815   8.431   1.068  10.595 -0.2679 -0.7464  0.7352
  137MOL0     O18816   8.146   1.284  10.614  0.5736  0.0292 -0.2216
  137MOL0     C18817   7.900   1.152  10.658 -0.1977 -0.7302  0.8261
  137MOL0     C18818   7.771   1.092  10.673 -0.0415 -0.6432 -0.0723
  137MOL0     N18819   7.133   0.653  10.431  0.0196  0.3420 -0.4588
  137MOL0     N18820   7.048   0.573  10.378  0.8514 -0.7250 -0.2730
  137MOL0     C18821   6.024   1.091  10.871  0.2562 -0.9165  0.5879
  137MOL0     C18822   5.928   1.155  10.945 -0.9882  0.3957 -0.1584
  137MOL0     C18823   5.587   1.224  11.228 -0.2215 -0.0138  0.2426
  137MOL0     C18824   5.463   1.191  11.160 -0.8301 -0.4324 -0.7591
  137MOL0     C18825   5.342   1.240  11.214 -0.3782 -0.3157  0.3005
  137MOL0     C18826   5.335   1.297  11.340 -1.5188 -0.4231 -0.3925
  137MOL0     O18827   5.224   1.343  11.401 -0.1308 -0.2104  0.0674
  137MOL0     C18828   5.118   1.250  11.428 -0.5872 -0.9497  0.4193
  137MOL0     C18829   5.006   1.330  11.498  0.1867  1.1070  0.5308
  137MOL0     C18830   5.026   1.334  11.646  0.4395  0.0177  0.9613
  137MOL0     C18831   4.887   1.370  11.707  0.3532 -0.1688 -0.1379
  137MOL0     C18832   4.861   1.323  11.847 -0.5025 -0.1127 -0.2515
  137MOL0     C18833   4.827   1.281  11.954 -0.6099  0.6903 -0.2499
  137MOL0     C18834   5.457   1.313  11.404  0.0346 -0.3544  0.4084
  137MOL0     C18835   5.581   1.279  11.351  0.9416 -0.0877 -0.0951
  137MOL0     C18836   5.694   1.297  11.451 -0.6042  0.4978 -0.1408
  137MOL0     H18837   5.685   0.927  10.904  0.0252 -1.1875  2.3244
  137MOL0     H18838   5.882   0.803  10.796  2.3254 -0.9355  0.5590
  137MOL0     H18839   6.091   0.694  10.783 -1.5936  0.2927  1.5790
  137MOL0     H18840   6.199   0.768  10.916  2.9342 -0.3490 -1.9486
  137MOL0     H18841   6.381   0.776  10.818  1.6041 -0.3049 -0.1766
  137MOL0     H18842   6.324   0.619  10.770  3.1824  0.4998  1.5290
  137MOL0     H18843   6.239   0.748  10.555  0.4326 -3.7946 -0.0595
  137MOL0     H18844   6.349   0.876  10.614 -0.5898  0.8022 -2.5407
  137MOL0     H18845   6.535   0.736  10.593  3.1545 -3.0927 -0.8073
  137MOL0     H18846   6.432   0.588  10.572  1.2480 -0.0101  0.3128
  137MOL0     H18847   6.462   0.842  10.399 -0.9208 -0.0820  1.5635
  137MOL0     H18848   6.347   0.710  10.369 -1.7589  1.7850  2.2235
  137MOL0     H18849   6.546   0.548  10.362  0.3122  0.7218  1.3757
  137MOL0     H18850   6.535   0.635  10.224 -0.2048 -2.5424  0.0569
  137MOL0     H18851   6.694   0.713  10.464 -3.1565  0.6382 -0.4915
  137MOL0     H18852   6.702   0.796  10.307 -2.8996 -0.2794 -1.9840
  137MOL0     H18853   6.786   0.507  10.334 -0.7483 -1.6337 -3.0796
  137MOL0     H18854   6.810   0.595  10.190 -2.8507  1.4448 -0.0850
  137MOL0     H18855   6.925   0.863  10.297  0.4829  0.7739  0.2062
  137MOL0     H18856   7.098   0.946  10.547  2.1670 -0.3513  1.0765
  137MOL0     H18857   7.150   1.001  10.403 -3.1136  1.9567  2.2892
  137MOL0     H18858   7.310   0.800  10.570 -0.2581  0.9788  1.9171
  137MOL0     H18859   7.374   0.896  10.429  0.3123  2.0223  0.9056
  137MOL0     H18860   7.335   1.109  10.561  1.1442  0.7597 -0.2693
  137MOL0     H18861   7.267   1.011  10.683 -1.4336  0.4276 -2.1936
  137MOL0     H18862   7.506   1.081  10.727  0.4912 -0.3817 -0.0490
  137MOL0     H18863   7.497   0.905  10.730  1.9498  0.9102  1.3211
  137MOL0     H18864   7.735   0.983  10.346 -2.0197 -1.0491  0.2615
  137MOL0     H18865   8.050   1.167  10.277  0.4926 -1.4010 -2.6266
  137MOL0     H18866   7.895   1.105  10.218  0.8402  4.6062 -0.3504
  137MOL0     H18867   8.025   0.990  10.277 -1.0462 -1.2294  2.0740
  137MOL0     H18868   8.317   1.220  10.315  0.2864 -1.6930 -1.5065
  137MOL0     H18869   8.571   1.297  10.315  0.3139  1.1661  1.5658
  137MOL0     H18870   8.766   1.209  10.282  0.6540  0.4366 -0.7551
  137MOL0     H18871   8.798   1.366  10.367 -6.6272 -0.8303 -0.4301
  137MOL0     H18872   9.001   1.294  10.301  1.3455  1.2106  1.2472
  137MOL0     H18873   8.996   1.239  10.472  3.5561  1.6097 -1.6219
  137MOL0     H18874   8.948   1.063  10.213  1.8509  1.7088 -0.2209
  137MOL0     H18875   8.913   1.002  10.370  2.4317 -1.3249  1.0701
  137MOL0     H18876   9.143   1.007  10.437 -1.9700 -0.8775  0.2072
  137MOL0     H18877   9.183   1.120  10.307  0.9808  0.0240  2.7338
  137MOL0     H18878   9.048   0.856  10.248 -1.8901  3.1665 -0.7624
  137MOL0     H18879   9.163   0.945  10.146 -1.4731  0.8851 -0.3198
  137MOL0     H18880   9.221   0.795  10.415 -0.1635  0.3080 -0.3226
  137MOL0     H18881   9.345   0.867  10.310 -1.2336  1.8342 -3.3680
  137MOL0     H18882   9.267   0.714  10.122  1.8404  0.2005  1.0210
  137MOL0     H18883   9.180   0.616  10.241  1.2721 -1.4469  1.4897
  137MOL0     H18884   9.475   0.654  10.235 -1.7183  0.4966 -4.1023
  137MOL0     H18885   9.391   0.498  10.232 -2.2013 -0.5465  1.0188
  137MOL0     H18886   8.637   1.048  10.656 -0.6877 -1.8422 -0.7386
  137MOL0     H18887   8.392   1.011  10.679  2.1454  0.9061  3.1599
  137MOL0     H18888   7.950   1.208  10.736  0.0801  1.4292 -0.8276
  137MOL0     H18889   7.712   1.103  10.763 -0.8270  0.0607 -0.6531
  137MOL0     H18890   6.118   1.141  10.850 -0.0821 -1.3107 -2.3476
  137MOL0     H18891   5.948   1.253  10.987 -0.7035  0.2147  0.1306
  137MOL0     H18892   5.469   1.113  11.085  0.6878 -2.8835  1.6893
  137MOL0     H18893   5.255   1.213  11.156  0.2726 -1.9637  0.0374
  137MOL0     H18894   5.077   1.219  11.331 -0.8469  1.6184 -0.3680
  137MOL0     H18895   5.144   1.155  11.475 -0.9895 -0.6805  1.1897
  137MOL0     H18896   4.917   1.270  11.474  1.6824 -0.3818 -1.7289
  137MOL0     H18897   4.991   1.425  11.446  2.8714  2.1757  1.5102
  137MOL0     H18898   5.058   1.234  11.676  0.8325 -0.4755 -0.9731
  137MOL0     H18899   5.101   1.411  11.665  0.3300 -0.2027  2.4364
  137MOL0     H18900   4.803   1.329  11.649  0.6282 -1.9927  0.6766
  137MOL0     H18901   4.880   1.479  11.710  0.5515 -0.1458 -0.4715
  137MOL0     H18902   4.793   1.237  12.045 -0.7375  1.7035  0.2156
  137MOL0     H18903   5.458   1.358  11.503  0.5120  0.3770  0.0701
  137MOL0     H18904   5.771   1.356  11.400 -0.6383 -0.1380 -0.9474
  137MOL0     H18905   5.670   1.351  11.543 -1.5223 -1.0543  0.5647
  137MOL0     H18906   5.749   1.205  11.472  0.2926  1.1144  0.2778
  138MOL0     O18907   2.591   7.779   1.623  0.1494 -0.0222 -0.0113
  138MOL0     C18908   2.649   7.674   1.650 -0.1748  0.2251  0.5666
  138MOL0     O18909   2.623   7.591   1.755  0.4481 -0.5511  0.9943
  138MOL0     C18910   2.510   7.603   1.826 -0.4040 -0.8410 -0.0465
  138MOL0     C18911   2.530   7.599   1.964  0.3159 -0.5580 -0.0395
  138MOL0     C18912   2.416   7.603   2.046 -0.1078  0.2939  0.5018
  138MOL0     C18913   2.290   7.629   2.002 -0.3599  0.2076 -0.0240
  138MOL0     O18914   2.193   7.649   2.104 -0.1878  0.1140  0.2111
  138MOL0     C18915   2.062   7.631   2.066  0.8544  0.1991  0.1380
  138MOL0     C18916   1.962   7.600   2.177 -0.0274  0.4458 -0.0488
  138MOL0     C18917   1.959   7.691   2.297  0.8124  0.1340 -0.1902
  138MOL0     C18918   1.847   7.631   2.394  0.3222  0.5744 -0.6163
  138MOL0     C18919   1.826   7.706   2.529  0.8849  0.8119  0.1779
  138MOL0     C18920   1.735   7.826   2.516  0.9570 -0.2295  0.8756
  138MOL0     C18921   1.713   7.894   2.650  0.1640 -0.8035 -0.1807
  138MOL0     C18922   1.602   8.001   2.663  0.2748 -0.4303  0.0037
  138MOL0     N18923   1.607   8.066   2.795 -0.7142 -0.0717  0.6869
  138MOL0     C18924   1.557   8.017   2.911  0.7726 -0.0225 -0.0281
  138MOL0     C18925   1.563   8.119   3.003 -0.4231 -0.0286 -0.1172
  138MOL0     C18926   1.524   8.119   3.140  0.9817 -0.6714  0.5688
  138MOL0     C18927   1.392   8.056   3.173  0.0030  0.6132  0.0599
  138MOL0     C18928   1.270   8.084   3.067  0.1037  1.0090 -0.7947
  138MOL0     C18929   1.140   8.039   3.120 -0.4291  0.5943  0.3702
  138MOL0     O18930   1.108   8.111   3.236  0.9486 -0.0202  0.5219
  138MOL0     C18931   0.973   8.115   3.263  0.2695 -0.4070 -0.2831
  138MOL0     C18932   0.961   8.209   3.367 -0.0578  1.2927  0.1757
  138MOL0     C18933   0.838   8.230   3.427 -0.0020 -0.5924 -0.7024
  138MOL0     C18934   0.835   8.334   3.540 -0.0054  0.2362 -0.1296
  138MOL0     C18935   0.725   8.161   3.376  0.4294 -0.0469 -0.0889
  138MOL0     C18936   0.586   8.179   3.422  0.0796  0.3561 -0.6204
  138MOL0     O18937   0.494   8.080   3.381 -1.3209  0.1899  0.3420
  138MOL0     C18938   0.367   8.108   3.437 -0.4035  0.5486 -0.1771
  138MOL0     C18939   0.301   8.002   3.501  0.1494  0.0906  0.5222
  138MOL0     C18940   0.164   8.005   3.525 -0.1575  0.5975 -0.1811
  138MOL0     C18941   0.097   8.130   3.516 -0.7351  1.0633  0.1449
  138MOL0     O18942  -0.029   8.155   3.558  0.1624 -0.3017 -0.0804
  138MOL0     C18943  -0.113   8.055   3.606  0.7293  0.1612 -0.1846
  138MOL0     C18944  -0.237   8.097   3.673  0.1046  0.2033  0.2244
  138MOL0     C18945  -0.325   8.183   3.586  0.2777 -0.2320  1.2327
  138MOL0     C18946  -0.468   8.205   3.639  0.0528 -0.3089  0.1903
  138MOL0     C18947  -0.558   8.286   3.547  0.3579  0.8794 -0.4351
  138MOL0     C18948  -0.697   8.253   3.593 -0.9269  0.0287 -0.3229
  138MOL0     C18949  -0.732   8.332   3.720  0.3240 -0.0991 -0.4966
  138MOL0     C18950  -0.885   8.359   3.727 -0.3745  0.0235  0.2475
  138MOL0    Cl18951  -0.922   8.534   3.752  0.0965  0.3707 -0.4386
  138MOL0     C18952   0.163   8.237   3.465  0.7179 -0.8835 -0.6910
  138MOL0     C18953   0.297   8.227   3.420 -0.3377  0.4131 -1.3435
  138MOL0     O18954   0.559   8.277   3.490  0.3090  0.3941 -0.4262
  138MOL0     C18955   0.743   8.061   3.272  0.2528  0.3196 -0.0092
  138MOL0     C18956   0.871   8.040   3.214 -0.0385 -0.9138 -0.0369
  138MOL0     N18957   1.607   8.229   2.941  0.4390 -0.5104 -0.5910
  138MOL0     N18958   1.635   8.197   2.822 -0.0038  0.2568  0.0275
  138MOL0     C18959   2.275   7.629   1.859  0.0158  0.7215  0.1558
  138MOL0     C18960   2.382   7.615   1.770 -1.1375  0.0287  0.2600
  138MOL0     C18961   2.795   7.651   1.613  1.0268  0.7552  0.3124
  138MOL0     C18962   2.885   7.605   1.711  0.4018  0.1864 -0.4669
  138MOL0     C18963   3.007   7.566   1.684 -0.3682  0.1346  0.5524
  138MOL0     C18964   3.058   7.595   1.561 -1.0941  0.4822  0.7227
  138MOL0     O18965   3.190   7.559   1.538  0.4700 -0.6531 -0.3199
  138MOL0     C18966   3.244   7.559   1.403  0.0266  0.3478  0.1883
  138MOL0     C18967   3.394   7.540   1.414  0.5959 -0.8132  0.6080
  138MOL0     C18968   3.461   7.674   1.446  0.1294  0.0097  0.1870
  138MOL0     C18969   3.618   7.657   1.459  0.1205  0.4145 -0.0121
  138MOL0     C18970   3.691   7.582   1.357 -0.3220  0.4768  0.3290
  138MOL0     C18971   3.749   7.508   1.277 -0.7680 -0.1290  0.8382
  138MOL0     C18972   2.979   7.650   1.464 -0.0408 -0.7579  0.4416
  138MOL0     C18973   2.843   7.678   1.487  0.6557  0.0748  0.2032
  138MOL0     C18974   2.764   7.745   1.379 -0.0411  0.4882 -0.4068
  138MOL0     H18975   2.631   7.571   1.992  1.0134 -1.1875 -2.8659
  138MOL0     H18976   2.430   7.593   2.153 -0.0441  1.7610  0.6477
  138MOL0     H18977   2.048   7.544   2.002 -2.7547  0.2657  0.6192
  138MOL0     H18978   2.032   7.724   2.016  2.8528  1.1281  0.5613
  138MOL0     H18979   1.864   7.596   2.130  0.8036  1.2207 -1.9296
  138MOL0     H18980   1.973   7.495   2.205 -1.0180 -0.2243 -2.0188
  138MOL0     H18981   2.052   7.696   2.355  0.6636 -0.5386  0.1181
  138MOL0     H18982   1.937   7.793   2.263 -0.8292  1.0365  3.1945
  138MOL0     H18983   1.754   7.624   2.338  0.5846 -2.6342 -0.8245
  138MOL0     H18984   1.876   7.531   2.427 -0.7167  0.6375  0.5204
  138MOL0     H18985   1.921   7.735   2.576  0.5745  2.8975 -0.3492
  138MOL0     H18986   1.773   7.633   2.589 -0.2595  0.3697 -1.3151
  138MOL0     H18987   1.780   7.901   2.450 -0.5251 -0.8948 -1.0128
  138MOL0     H18988   1.641   7.798   2.467  0.2317 -0.9540  2.5926
  138MOL0     H18989   1.805   7.950   2.670 -0.6367  0.3465  0.3823
  138MOL0     H18990   1.687   7.829   2.733 -1.7891 -2.9180 -2.2900
  138MOL0     H18991   1.619   8.081   2.591 -3.0413  0.9849  0.5980
  138MOL0     H18992   1.500   7.971   2.638 -0.5417  1.0444  1.4301
  138MOL0     H18993   1.546   7.913   2.940  0.4813  0.2329  0.8263
  138MOL0     H18994   1.522   8.220   3.182 -2.3808 -0.2712 -0.2845
  138MOL0     H18995   1.601   8.058   3.190  0.1491 -4.6337 -2.4139
  138MOL0     H18996   1.408   7.951   3.200  4.5588  1.6378  2.2666
  138MOL0     H18997   1.371   8.100   3.271  3.7447 -0.4145  1.4811
  138MOL0     H18998   1.272   8.193   3.053  2.9122  1.1247 -0.1865
  138MOL0     H18999   1.281   8.034   2.970 -1.8253  0.9119 -1.0027
  138MOL0     H19000   1.070   8.053   3.037 -0.8546  0.8289  0.7658
  138MOL0     H19001   1.135   7.930   3.125  4.2558  0.1991  0.4868
  138MOL0     H19002   1.054   8.256   3.399  0.9340 -0.3162 -0.1994
  138MOL0     H19003   0.785   8.301   3.631 -1.9811  3.6627  0.1983
  138MOL0     H19004   0.784   8.422   3.500  0.6238  1.1762  1.0767
  138MOL0     H19005   0.938   8.357   3.569  0.7142 -0.9532 -1.5783
  138MOL0     H19006   0.366   7.918   3.523 -1.2326 -1.2243 -0.1958
  138MOL0     H19007   0.119   7.922   3.578  0.4826  0.1454 -0.3259
  138MOL0     H19008  -0.141   7.998   3.517  0.8958  0.2703 -0.3059
  138MOL0     H19009  -0.053   7.996   3.676  3.4550  2.4598 -0.4109
  138MOL0     H19010  -0.287   8.004   3.702  1.5775 -0.4267  0.8650
  138MOL0     H19011  -0.202   8.163   3.753  1.6688 -2.4630  1.9287
  138MOL0     H19012  -0.319   8.130   3.490 -1.9227 -0.2981  1.0792
  138MOL0     H19013  -0.278   8.281   3.579 -2.7373  1.2354 -0.5686
  138MOL0     H19014  -0.455   8.264   3.730  0.2933  0.6745 -0.4665
  138MOL0     H19015  -0.506   8.109   3.675 -1.8090  0.1276 -0.4849
  138MOL0     H19016  -0.522   8.389   3.552  1.2533  0.5370  0.4119
  138MOL0     H19017  -0.553   8.251   3.443 -4.6396  0.6571 -0.8457
  138MOL0     H19018  -0.697   8.145   3.608 -2.1040  0.2810  1.9880
  138MOL0     H19019  -0.768   8.288   3.517 -0.6729  4.0373  1.0400
  138MOL0     H19020  -0.694   8.434   3.724 -2.6971  1.0684  1.1358
  138MOL0     H19021  -0.685   8.291   3.810  3.4361 -1.1427 -2.4190
  138MOL0     H19022  -0.923   8.305   3.815  2.0796  1.8514  2.5915
  138MOL0     H19023  -0.936   8.327   3.635  1.8302 -0.6412 -0.8075
  138MOL0     H19024   0.113   8.333   3.452 -2.1628 -2.1059  0.5745
  138MOL0     H19025   0.350   8.308   3.372 -0.0925  0.7501 -0.5105
  138MOL0     H19026   0.661   8.014   3.219  1.7766  0.9987 -3.1775
  138MOL0     H19027   0.866   7.971   3.130 -1.2415 -2.6666  1.3911
  138MOL0     H19028   2.176   7.644   1.817 -0.2422 -1.1623  0.0488
  138MOL0     H19029   2.368   7.609   1.662  0.7981  2.1527 -0.1991
  138MOL0     H19030   2.845   7.584   1.809  1.1382 -1.2029 -0.4354
  138MOL0     H19031   3.079   7.531   1.758 -1.2480  2.1014  2.4199
  138MOL0     H19032   3.209   7.481   1.334  2.1980 -0.9201  0.4222
  138MOL0     H19033   3.215   7.648   1.347 -2.4054  0.4169  1.4096
  138MOL0     H19034   3.441   7.491   1.328 -0.5825 -2.0605  0.6439
  138MOL0     H19035   3.400   7.470   1.497 -2.3938 -1.7797  0.1199
  138MOL0     H19036   3.437   7.745   1.366 -0.2221 -0.7055 -0.3593
  138MOL0     H19037   3.424   7.703   1.544 -1.6366  0.9595 -0.7189
  138MOL0     H19038   3.640   7.597   1.548  1.1350  0.6955 -0.0584
  138MOL0     H19039   3.668   7.753   1.473 -1.0619  0.9430  0.6990
  138MOL0     H19040   3.801   7.445   1.208 -1.9157  0.1658 -0.3297
  138MOL0     H19041   3.005   7.666   1.360  0.6513  1.1497  0.8614
  138MOL0     H19042   2.797   7.697   1.287  0.5492  0.7153 -0.3252
  138MOL0     H19043   2.656   7.732   1.376  0.2782 -3.0553 -2.3703
  138MOL0     H19044   2.796   7.849   1.366  2.9238 -0.1523  0.8813
  139MOL0     O19045   9.669  10.731   0.426  0.0983  0.2875 -0.0733
  139MOL0     C19046   9.649  10.722   0.545 -0.2669 -0.6037 -0.3158
  139MOL0     O19047   9.751  10.689   0.641 -0.0878 -0.4908  1.2607
  139MOL0     C19048   9.888  10.678   0.614  0.0709 -0.5994  0.3711
  139MOL0     C19049   9.968  10.587   0.693  0.4515 -0.3350 -0.1833
  139MOL0     C19050  10.099  10.568   0.672 -0.0415  0.2385  0.1109
  139MOL0     C19051  10.160  10.647   0.568 -0.6169 -0.4131  0.3287
  139MOL0     O19052  10.288  10.603   0.540 -1.0359 -0.2921 -0.3749
  139MOL0     C19053  10.355  10.641   0.419 -0.2802  0.2917 -0.4633
  139MOL0     C19054  10.434  10.522   0.376  0.3460  0.2969  0.1273
  139MOL0     C19055  10.450  10.512   0.231 -0.0927 -1.1827 -0.2423
  139MOL0     C19056  10.516  10.377   0.194  0.5380  0.4979  0.1705
  139MOL0     C19057  10.571  10.382   0.057 -0.6906 -0.7513  0.0454
  139MOL0     C19058  10.671  10.265   0.040  0.7166 -0.0013  0.3799
  139MOL0     C19059  10.745  10.257  -0.096 -0.1848  0.3328 -0.3519
  139MOL0     C19060  10.655  10.233  -0.223 -0.0762  0.4392 -0.1370
  139MOL0     N19061  10.737  10.251  -0.348 -0.1584 -0.4408 -0.1030
  139MOL0     C19062  10.826  10.154  -0.404  0.0632  0.1310  0.2764
  139MOL0     C19063  10.889  10.216  -0.504 -0.5503 -0.7764 -1.2170
  139MOL0     C19064  11.017  10.162  -0.568  0.1805 -1.1906 -0.1966
  139MOL0     C19065  10.995  10.158  -0.719  0.1056 -1.4976 -0.7426
  139MOL0     C19066  11.123  10.107  -0.791  0.7530 -0.8721  0.0899
  139MOL0     C19067  11.110  10.107  -0.935 -0.8111 -0.0452 -0.1598
  139MOL0     O19068  11.182  10.005  -1.009  0.3278  0.2905  0.0242
  139MOL0     C19069  11.324  10.010  -1.027  0.1099  0.2927 -0.4042
  139MOL0     C19070  11.383   9.895  -1.088  0.1088 -0.0031 -0.2167
  139MOL0     C19071  11.522   9.900  -1.122  0.6001 -0.2211  0.1742
  139MOL0     C19072  11.571   9.777  -1.195  0.7123 -0.2949  0.7394
  139MOL0     C19073  11.610  10.009  -1.085  0.4509  0.6911 -0.3029
  139MOL0     C19074  11.748  10.029  -1.117 -0.1779  0.3204  0.3477
  139MOL0     O19075  11.823  10.090  -1.025 -0.4979 -0.2829 -0.0396
  139MOL0     C19076  11.954  10.113  -1.054  0.3604  1.5778  0.1703
  139MOL0     C19077  12.054  10.053  -0.971  0.0719  0.4108  0.8318
  139MOL0     C19078  12.188  10.069  -0.999  0.1444 -0.2350 -0.0998
  139MOL0     C19079  12.227  10.159  -1.099  0.2409 -0.2859  0.3980
  139MOL0     O19080  12.364  10.177  -1.105  0.4877 -0.0541  0.1133
  139MOL0     C19081  12.434  10.301  -1.144  0.6581  0.4888  0.1710
  139MOL0     C19082  12.586  10.284  -1.131  1.0996 -0.7895 -0.0593
  139MOL0     C19083  12.670  10.421  -1.158 -0.3343 -0.2483  0.1334
  139MOL0     C19084  12.782  10.394  -1.261  0.2950 -0.8182 -0.3507
  139MOL0     C19085  12.853  10.527  -1.303  0.2483  0.6572 -0.2884
  139MOL0     C19086  12.960  10.508  -1.409  0.3521  0.2822  1.3191
  139MOL0     C19087  13.036  10.646  -1.434  0.6077  0.5226  0.6143
  139MOL0     C19088  12.961  10.756  -1.510 -0.5150  0.1469  0.1363
  139MOL0    Cl19089  12.903  10.680  -1.652 -0.1777 -0.3708  0.4972
  139MOL0     C19090  12.120  10.223  -1.173  0.0419 -0.1549  0.4586
  139MOL0     C19091  11.981  10.202  -1.159  0.9307 -0.1368 -0.7707
  139MOL0     O19092  11.779  10.005  -1.238 -0.1801  0.2750 -0.8355
  139MOL0     C19093  11.541  10.115  -1.018  1.1117  0.6968  0.5776
  139MOL0     C19094  11.405  10.119  -0.986  0.0445 -0.9872  0.5911
  139MOL0     N19095  10.844  10.344  -0.504  0.3560  0.3481 -0.2932
  139MOL0     N19096  10.756  10.370  -0.408  0.5833 -0.4662  0.2940
  139MOL0     C19097  10.096  10.755   0.512 -0.5361  0.2714 -0.4648
  139MOL0     C19098   9.960  10.763   0.532 -0.5431  0.3298  0.1323
  139MOL0     C19099   9.514  10.731   0.599 -0.0084 -0.4460  0.5503
  139MOL0     C19100   9.498  10.708   0.736 -0.5853 -0.1183  0.2578
  139MOL0     C19101   9.378  10.725   0.804  0.3730 -0.4680 -0.0760
  139MOL0     C19102   9.264  10.778   0.742 -0.0460 -0.1789  0.2012
  139MOL0     O19103   9.139  10.779   0.792 -0.3873 -0.3266  0.4382
  139MOL0     C19104   9.119  10.728   0.923 -0.3721 -0.2903 -0.4416
  139MOL0     C19105   8.969  10.737   0.948 -0.0538  0.4110 -0.8077
  139MOL0     C19106   8.914  10.669   1.079 -1.1905  0.3901  0.1776
  139MOL0     C19107   9.021  10.582   1.155  0.8418 -0.2488 -0.4805
  139MOL0     C19108   9.125  10.661   1.226  0.2879 -0.1247  0.4367
  139MOL0     C19109   9.225  10.709   1.268  0.9242 -1.5009 -0.6177
  139MOL0     C19110   9.277  10.800   0.608  0.0733  0.0192  0.4435
  139MOL0     C19111   9.396  10.783   0.534  0.2527  0.8378 -0.4200
  139MOL0     C19112   9.389  10.826   0.392  1.0086  0.1446 -0.0300
  139MOL0     H19113   9.925  10.521   0.768  0.2683  0.2890  0.2753
  139MOL0     H19114  10.162  10.501   0.731  1.2312  0.7230 -0.6589
  139MOL0     H19115  10.416  10.729   0.439  1.6174 -0.9486 -0.5405
  139MOL0     H19116  10.278  10.668   0.345 -0.4256 -0.6465 -0.6632
  139MOL0     H19117  10.537  10.530   0.412  1.3405 -2.1378 -1.9126
  139MOL0     H19118  10.384  10.430   0.407 -0.1618  0.3431 -0.5486
  139MOL0     H19119  10.349  10.519   0.188 -1.1052 -1.7155  1.9212
  139MOL0     H19120  10.519  10.590   0.198 -0.3738 -0.5817  0.5645
  139MOL0     H19121  10.597  10.365   0.265  0.8199  0.6878 -0.1151
  139MOL0     H19122  10.438  10.302   0.210 -0.8858  2.1042  1.0921
  139MOL0     H19123  10.630  10.473   0.042  2.0663 -2.3024  0.6334
  139MOL0     H19124  10.494  10.379  -0.020 -2.3007 -3.7612  1.5808
  139MOL0     H19125  10.747  10.279   0.118 -0.0593  0.5378  1.0479
  139MOL0     H19126  10.615  10.177   0.074  3.8284 -1.8611  1.0832
  139MOL0     H19127  10.819  10.178  -0.079 -0.9711  0.0074  1.8703
  139MOL0     H19128  10.795  10.354  -0.107  0.8509 -0.1537 -0.0856
  139MOL0     H19129  10.612  10.132  -0.222 -2.0794  1.2132 -2.0369
  139MOL0     H19130  10.567  10.297  -0.225 -0.1312  0.5407  2.1773
  139MOL0     H19131  10.821  10.050  -0.372 -3.6413  0.3485  0.8009
  139MOL0     H19132  11.038  10.064  -0.523 -1.9560 -1.0336  1.3078
  139MOL0     H19133  11.105  10.226  -0.556 -0.7610  0.5065 -1.8075
  139MOL0     H19134  10.909  10.093  -0.737 -2.9138  1.4937  1.6831
  139MOL0     H19135  10.962  10.259  -0.744 -1.6139 -1.2647  2.0668
  139MOL0     H19136  11.210  10.163  -0.757 -1.3963  0.9594  3.0510
  139MOL0     H19137  11.129   9.999  -0.773  0.6077 -0.8287  0.4060
  139MOL0     H19138  11.003  10.096  -0.956 -0.7311  0.0696 -0.6320
  139MOL0     H19139  11.139  10.201  -0.982 -0.4478 -1.3666 -2.7673
  139MOL0     H19140  11.318   9.813  -1.119 -1.5338 -0.5067  3.9531
  139MOL0     H19141  11.677   9.781  -1.221  0.4466 -0.6112 -0.4338
  139MOL0     H19142  11.526   9.773  -1.294  1.9809  0.5846  0.0949
  139MOL0     H19143  11.562   9.682  -1.142  0.2458 -1.5722 -1.5206
  139MOL0     H19144  12.039   9.981  -0.892  0.2224  1.5057  1.8839
  139MOL0     H19145  12.264  10.034  -0.931  0.8083 -0.6801 -1.0549
  139MOL0     H19146  12.408  10.329  -1.246 -1.9128  0.2893  0.7124
  139MOL0     H19147  12.403  10.384  -1.079 -1.6954  0.4746 -0.8364
  139MOL0     H19148  12.606  10.248  -1.030 -4.4990 -0.6925  1.4198
  139MOL0     H19149  12.622  10.210  -1.203  1.4412  1.4942 -2.4150
  139MOL0     H19150  12.721  10.459  -1.069  0.3274  0.2028 -0.4261
  139MOL0     H19151  12.617  10.505  -1.202  0.0857  0.5345  1.0778
  139MOL0     H19152  12.738  10.351  -1.351 -3.0263  0.8605  0.3155
  139MOL0     H19153  12.851  10.328  -1.207 -1.1111 -1.2546  0.9794
  139MOL0     H19154  12.778  10.601  -1.331 -1.3155  0.0570  1.9962
  139MOL0     H19155  12.901  10.564  -1.212  1.7782  1.9956 -1.5767
  139MOL0     H19156  12.922  10.465  -1.502  0.7512  3.2203 -0.3178
  139MOL0     H19157  13.021  10.434  -1.356 -0.8317  1.3821  4.4416
  139MOL0     H19158  13.127  10.611  -1.484 -0.1454 -1.6598  0.6728
  139MOL0     H19159  13.067  10.686  -1.337  4.7174  1.0279 -0.7094
  139MOL0     H19160  13.026  10.840  -1.537  0.2596 -0.4496  0.0959
  139MOL0     H19161  12.887  10.801  -1.443  1.2278  1.8730  0.9924
  139MOL0     H19162  12.132  10.313  -1.232 -0.6249  0.5923  1.4443
  139MOL0     H19163  11.914  10.265  -1.215 -2.3535 -0.9755  1.8840
  139MOL0     H19164  11.598  10.206  -1.000 -0.6345  1.7520  0.9861
  139MOL0     H19165  11.365  10.207  -0.936  1.1937 -1.4585  2.4248
  139MOL0     H19166  10.156  10.810   0.440 -0.8717  2.7973  1.0844
  139MOL0     H19167   9.901  10.831   0.471 -2.0875 -0.0597  1.1500
  139MOL0     H19168   9.574  10.664   0.800  2.0889  1.7185 -1.4638
  139MOL0     H19169   9.374  10.684   0.904  3.0653  1.3491  0.8982
  139MOL0     H19170   9.156  10.626   0.938 -2.3872 -0.9452  0.2907
  139MOL0     H19171   9.175  10.795   0.989 -0.2287  0.1196 -0.9702
  139MOL0     H19172   8.917  10.687   0.866 -1.8508  2.6868 -1.1668
  139MOL0     H19173   8.934  10.840   0.935  0.0298  0.2676 -2.3959
  139MOL0     H19174   8.882  10.743   1.154  2.1533  3.2005 -0.9015
  139MOL0     H19175   8.834  10.605   1.042  0.6433  0.3673 -4.3743
  139MOL0     H19176   9.070  10.511   1.087 -0.4930 -3.3760  1.5965
  139MOL0     H19177   8.968  10.519   1.227  0.7779 -0.0740 -0.3767
  139MOL0     H19178   9.295  10.774   1.316  0.7087 -1.0787 -0.8748
  139MOL0     H19179   9.189  10.837   0.557 -2.5794 -4.8642  0.8991
  139MOL0     H19180   9.290  10.815   0.347  1.8717 -0.4828 -1.8515
  139MOL0     H19181   9.425  10.929   0.384 -1.4394  1.2295  1.5691
  139MOL0     H19182   9.451  10.757   0.333  0.0590  0.0227 -0.8985
  140MOL0     O19183   9.150  11.180   8.344 -0.0199  0.4495  0.6043
  140MOL0     C19184   9.196  11.147   8.236 -0.3653  0.2544  0.3954
  140MOL0     O19185   9.130  11.117   8.126 -0.2795  0.1161 -0.2084
  140MOL0     C19186   8.986  11.109   8.135 -0.2831  0.2333  1.4949
  140MOL0     C19187   8.910  11.080   8.240  1.0484 -0.5749 -0.8643
  140MOL0     C19188   8.765  11.063   8.238  0.4735 -0.1818  0.8943
  140MOL0     C19189   8.702  11.050   8.113 -0.8402 -0.1783 -0.0152
  140MOL0     O19190   8.571  11.014   8.105  0.9238 -0.4208  0.1043
  140MOL0     C19191   8.504  11.052   7.983 -0.0725 -0.6311 -0.3714
  140MOL0     C19192   8.357  11.050   7.998  0.8031  0.3825  0.3564
  140MOL0     C19193   8.305  11.175   8.074 -0.1634 -0.5119  0.1224
  140MOL0     C19194   8.153  11.174   8.065  0.3973 -0.5125  0.0296
  140MOL0     C19195   8.077  11.255   8.167  0.1902  0.4303  0.7435
  140MOL0     C19196   8.040  11.182   8.301 -0.3927 -0.0239  0.4434
  140MOL0     C19197   8.034  11.294   8.404  0.6915 -0.4127  0.2604
  140MOL0     C19198   8.001  11.243   8.548 -0.3048 -0.4086  0.4392
  140MOL0     N19199   7.874  11.173   8.562  0.8412  0.2677  1.2821
  140MOL0     C19200   7.843  11.056   8.637  0.3152 -0.0669 -0.0147
  140MOL0     C19201   7.706  11.053   8.640 -1.0267  0.1229  0.1504
  140MOL0     C19202   7.623  10.971   8.721  0.0965  0.0721  0.4865
  140MOL0     C19203   7.543  10.865   8.632 -0.7581  0.2164  0.3336
  140MOL0     C19204   7.451  10.778   8.717  0.1375 -0.0316 -0.6159
  140MOL0     C19205   7.379  10.662   8.635 -0.0175 -0.5364  0.1154
  140MOL0     O19206   7.282  10.724   8.562 -1.0920 -0.3442  0.5086
  140MOL0     C19207   7.204  10.664   8.466 -0.1504  0.8458 -0.2492
  140MOL0     C19208   7.185  10.526   8.476  0.7074  1.6292 -0.8350
  140MOL0     C19209   7.094  10.467   8.387  0.8493  0.2409  1.0021
  140MOL0     C19210   7.066  10.322   8.394 -0.6394 -0.8818 -0.6381
  140MOL0     C19211   7.025  10.547   8.288 -0.6978  0.0949  0.9267
  140MOL0     C19212   6.923  10.492   8.197  0.1018  0.4789 -0.0740
  140MOL0     O19213   6.949  10.462   8.064  0.2550 -0.7749  0.2224
  140MOL0     C19214   7.047  10.528   8.001 -0.6177  0.0918  0.8843
  140MOL0     C19215   7.009  10.638   7.923  0.2291  0.3383  0.0477
  140MOL0     C19216   7.108  10.691   7.837 -0.1541 -0.1904  0.3368
  140MOL0     C19217   7.241  10.646   7.836  0.3944  0.0332 -0.4708
  140MOL0     O19218   7.346  10.701   7.758 -0.0355  0.7262 -0.3930
  140MOL0     C19219   7.317  10.793   7.649 -0.1542  0.2572  0.1402
  140MOL0     C19220   7.443  10.857   7.617 -0.7661 -0.0050 -0.2825
  140MOL0     C19221   7.448  10.938   7.480  0.0688  1.4658  0.4641
  140MOL0     C19222   7.574  11.024   7.467 -0.2745  0.2611 -0.5179
  140MOL0     C19223   7.576  11.068   7.317 -0.1925 -0.1788 -0.4987
  140MOL0     C19224   7.696  11.160   7.300 -0.3323  0.5151  0.0023
  140MOL0     C19225   7.738  11.189   7.157 -0.0752  0.4835 -0.1624
  140MOL0     C19226   7.626  11.250   7.078  0.1254 -0.2320 -0.4303
  140MOL0    Cl19227   7.597  11.422   7.141 -0.0027  0.5459  0.0716
  140MOL0     C19228   7.270  10.538   7.917  0.9743  0.4261 -1.2330
  140MOL0     C19229   7.177  10.479   8.003  0.0866  0.2973  0.4477
  140MOL0     O19230   6.824  10.454   8.254  0.2503  0.4158 -0.0546
  140MOL0     C19231   7.041  10.684   8.291 -0.5082  0.0640  0.2677
  140MOL0     C19232   7.130  10.741   8.379  0.6288 -1.1222 -0.7926
  140MOL0     N19233   7.655  11.160   8.563  0.4933  0.4466  0.1420
  140MOL0     N19234   7.756  11.218   8.506  0.3380  0.5745  0.4945
  140MOL0     C19235   8.787  11.066   8.005 -1.1958 -0.4544  0.7565
  140MOL0     C19236   8.922  11.099   8.013 -0.8760 -0.3621 -0.1123
  140MOL0     C19237   9.338  11.153   8.217  0.5221  0.7616  0.0614
  140MOL0     C19238   9.396  11.038   8.165  0.5058 -1.0765 -0.0092
  140MOL0     C19239   9.535  11.029   8.153  0.3280 -0.1310  0.9319
  140MOL0     C19240   9.615  11.137   8.192  0.9342  0.9132  0.9861
  140MOL0     O19241   9.749  11.136   8.184 -0.7509 -0.8256  0.3283
  140MOL0     C19242   9.829  11.050   8.271 -0.0492 -0.4866  0.0181
  140MOL0     C19243   9.928  10.967   8.188 -0.9499  0.2776 -0.7968
  140MOL0     C19244  10.044  10.910   8.273 -0.3498  0.3584  0.3219
  140MOL0     C19245  10.136  10.820   8.182 -0.2233  0.6472  0.2954
  140MOL0     C19246  10.079  10.686   8.173 -0.3652 -0.2419 -0.3647
  140MOL0     C19247  10.023  10.578   8.149  0.5647 -0.5668  0.0314
  140MOL0     C19248   9.550  11.258   8.224 -0.1024  0.0147 -0.6219
  140MOL0     C19249   9.416  11.269   8.246 -0.1121 -0.2877 -0.1221
  140MOL0     C19250   9.361  11.397   8.312 -0.5650  0.2709 -0.4223
  140MOL0     H19251   8.963  11.070   8.334  0.3333 -0.6608 -0.4646
  140MOL0     H19252   8.706  11.050   8.328  2.2236  0.9245  2.2726
  140MOL0     H19253   8.519  10.982   7.901  1.3026 -1.5424  0.6212
  140MOL0     H19254   8.542  11.147   7.945 -0.8766  0.7402  2.0009
  140MOL0     H19255   8.308  11.055   7.900  3.2685  3.2058 -0.8621
  140MOL0     H19256   8.326  10.957   8.047 -0.6935  1.0195  0.6729
  140MOL0     H19257   8.335  11.169   8.179 -1.7532 -4.6905  0.5394
  140MOL0     H19258   8.335  11.274   8.037 -2.1171 -0.1523 -0.6343
  140MOL0     H19259   8.128  11.209   7.965 -1.2961  0.8707  0.8730
  140MOL0     H19260   8.121  11.071   8.084 -0.5304  0.2822  3.5017
  140MOL0     H19261   7.981  11.289   8.127 -0.1667 -1.6026 -0.2518
  140MOL0     H19262   8.140  11.344   8.177 -0.2805  0.7732  0.6794
  140MOL0     H19263   7.943  11.137   8.279  1.0768 -2.2812 -2.1404
  140MOL0     H19264   8.112  11.105   8.332  2.9851  1.5846 -2.6553
  140MOL0     H19265   7.962  11.367   8.365 -1.0225 -2.8218 -1.3813
  140MOL0     H19266   8.130  11.345   8.412 -0.1932  0.9855  3.0489
  140MOL0     H19267   8.083  11.177   8.578  0.8940  0.7208 -0.2455
  140MOL0     H19268   7.997  11.327   8.618  0.4489  0.5744 -0.6593
  140MOL0     H19269   7.917  11.015   8.704  0.2415  1.8020  1.2737
  140MOL0     H19270   7.547  11.033   8.770 -2.2088 -0.7523 -1.8075
  140MOL0     H19271   7.686  10.911   8.787 -0.3111 -2.2889 -1.1419
  140MOL0     H19272   7.482  10.919   8.559 -1.6440 -0.8704  0.2491
  140MOL0     H19273   7.612  10.797   8.580 -1.6179 -0.8578  0.5483
  140MOL0     H19274   7.500  10.747   8.809 -0.5383  1.8251  0.4312
  140MOL0     H19275   7.376  10.848   8.754  0.7820 -0.2468  1.2085
  140MOL0     H19276   7.452  10.611   8.572  1.1890 -1.6227  2.2776
  140MOL0     H19277   7.335  10.586   8.702  0.3075  1.1201  2.3219
  140MOL0     H19278   7.225  10.458   8.551 -2.2402 -0.6808 -1.1573
  140MOL0     H19279   7.095  10.276   8.298  1.5668  3.7355 -2.5006
  140MOL0     H19280   6.960  10.305   8.416 -0.8923  1.7003  0.5174
  140MOL0     H19281   7.127  10.264   8.463 -2.1098 -1.8857 -0.1248
  140MOL0     H19282   6.914  10.689   7.930  1.3830  2.4036  2.3376
  140MOL0     H19283   7.089  10.781   7.779 -0.1590 -1.1425 -1.2060
  140MOL0     H19284   7.278  10.751   7.556  1.7188  1.6629 -1.3860
  140MOL0     H19285   7.247  10.872   7.676 -2.0250 -0.7974 -1.4148
  140MOL0     H19286   7.455  10.927   7.700  0.8359 -0.7925  0.1863
  140MOL0     H19287   7.525  10.785   7.622 -1.0222 -0.2577  0.3413
  140MOL0     H19288   7.352  10.991   7.474 -0.7033 -0.0481 -2.0389
  140MOL0     H19289   7.433  10.867   7.398  1.2884 -0.9870  2.2449
  140MOL0     H19290   7.658  10.955   7.479 -1.0485 -1.4544 -3.8507
  140MOL0     H19291   7.573  11.108   7.537 -1.7216 -1.0315  1.0624
  140MOL0     H19292   7.570  10.975   7.261 -1.5806 -2.7438  3.4302
  140MOL0     H19293   7.489  11.133   7.301  0.5985  1.1320  0.2977
  140MOL0     H19294   7.781  11.119   7.355  0.3468  2.8727  0.8463
  140MOL0     H19295   7.665  11.247   7.358 -1.0311 -1.6669  3.1926
  140MOL0     H19296   7.770  11.096   7.109 -1.4974  0.0706 -0.3647
  140MOL0     H19297   7.822  11.258   7.153 -1.8965  2.9369  0.9276
  140MOL0     H19298   7.538  11.185   7.080  0.0085 -0.0810  1.1096
  140MOL0     H19299   7.670  11.272   6.981  2.9749  1.9734  1.1910
  140MOL0     H19300   7.370  10.502   7.896  0.5257 -1.9482  0.2143
  140MOL0     H19301   7.199  10.386   8.053  0.0160 -0.7714 -1.3955
  140MOL0     H19302   6.979  10.749   8.231 -1.1195  1.5343  2.3763
  140MOL0     H19303   7.149  10.847   8.387 -1.6758 -0.6829 -0.7322
  140MOL0     H19304   8.758  11.048   7.902  1.1196  0.9891 -0.2118
  140MOL0     H19305   8.986  11.109   7.926 -1.6927  0.4969 -0.6281
  140MOL0     H19306   9.327  10.961   8.133 -1.1691  0.7061 -0.8745
  140MOL0     H19307   9.568  10.935   8.109 -0.2789  0.3220 -0.5506
  140MOL0     H19308   9.876  11.121   8.340  0.2998 -1.1025  0.4342
  140MOL0     H19309   9.769  10.977   8.326 -1.3616  0.3247 -0.3113
  140MOL0     H19310   9.967  11.035   8.112  0.2518 -0.8229 -1.2019
  140MOL0     H19311   9.883  10.881   8.136 -1.7250 -0.1300  0.4890
  140MOL0     H19312  10.107  10.990   8.312 -1.0544  2.4702 -2.5422
  140MOL0     H19313  10.021  10.848   8.360  1.5184 -0.2586  0.4271
  140MOL0     H19314  10.235  10.813   8.229 -1.4383 -2.2324  2.8009
  140MOL0     H19315  10.145  10.869   8.085 -1.4970 -1.0694 -0.7359
  140MOL0     H19316   9.966  10.490   8.128 -0.2689  0.0753 -0.4460
  140MOL0     H19317   9.622  11.336   8.248  1.7119 -1.7496 -0.0368
  140MOL0     H19318   9.325  11.377   8.414  0.7785  1.0648  0.2408
  140MOL0     H19319   9.446  11.466   8.317 -0.3759  0.0169 -0.0665
  140MOL0     H19320   9.283  11.441   8.250 -1.1477  1.0086  0.7892
  141MOL0     O19321   4.018   8.967   3.015 -0.8028 -0.5327  0.8526
  141MOL0     C19322   4.011   9.050   2.929  0.5985 -0.7710  0.1222
  141MOL0     O19323   4.107   9.089   2.844  0.1360 -0.3071  0.4045
  141MOL0     C19324   4.217   9.025   2.812  0.5160  0.0584  0.6570
  141MOL0     C19325   4.335   9.095   2.824  0.5962 -0.4592 -0.0570
  141MOL0     C19326   4.458   9.045   2.788 -0.1350 -0.2570  0.3379
  141MOL0     C19327   4.464   8.918   2.720 -0.4726 -0.4356 -0.2532
  141MOL0     O19328   4.581   8.869   2.668 -0.4766  0.0455 -0.0833
  141MOL0     C19329   4.566   8.775   2.558  0.7466 -0.1131 -0.6812
  141MOL0     C19330   4.690   8.779   2.469 -0.2797 -0.5539  0.6585
  141MOL0     C19331   4.805   8.702   2.521 -0.4458 -0.8203  0.2292
  141MOL0     C19332   4.924   8.754   2.442  0.4788  0.0888  0.3889
  141MOL0     C19333   5.059   8.676   2.455  0.1547 -0.2783 -0.7187
  141MOL0     C19334   5.171   8.735   2.376 -0.0508  0.3537  0.1849
  141MOL0     C19335   5.299   8.664   2.407 -0.1932 -0.0289 -0.6171
  141MOL0     C19336   5.414   8.751   2.346 -0.0752 -0.1747 -0.2907
  141MOL0     N19337   5.551   8.696   2.348 -0.5185  0.5038  0.6782
  141MOL0     C19338   5.597   8.586   2.412  0.2059 -0.1341  0.1793
  141MOL0     C19339   5.717   8.563   2.355  0.0872 -0.4985  0.1830
  141MOL0     C19340   5.796   8.439   2.365  0.0579 -0.0444  0.0682
  141MOL0     C19341   5.911   8.451   2.465 -0.1568  0.5780  0.8640
  141MOL0     C19342   6.000   8.582   2.447  0.7495  0.2286 -0.8727
  141MOL0     C19343   6.126   8.581   2.533  0.2456  0.9143  0.0507
  141MOL0     O19344   6.171   8.705   2.573  0.1813  0.0378  0.6155
  141MOL0     C19345   6.279   8.765   2.505  0.6009 -0.0768  1.0446
  141MOL0     C19346   6.355   8.856   2.581  0.7179 -0.2764 -0.1844
  141MOL0     C19347   6.458   8.933   2.525  0.4035 -0.0718  1.7457
  141MOL0     C19348   6.555   9.007   2.612  0.3534  0.3740  0.1261
  141MOL0     C19349   6.492   8.907   2.390 -0.5841 -0.0518 -0.2438
  141MOL0     C19350   6.608   8.963   2.320 -0.5192 -0.8345 -0.1644
  141MOL0     O19351   6.651   9.088   2.360 -0.1942  0.2911 -0.0586
  141MOL0     C19352   6.771   9.128   2.322  1.2983  0.5593  0.1627
  141MOL0     C19353   6.881   9.069   2.390 -0.7145 -0.1483 -0.1184
  141MOL0     C19354   7.011   9.127   2.374  0.0854 -0.1894  0.3435
  141MOL0     C19355   7.030   9.237   2.288 -0.5019  0.5587  0.6260
  141MOL0     O19356   7.151   9.302   2.277 -0.6917  0.9336 -0.1079
  141MOL0     C19357   7.222   9.335   2.397  0.6322  0.3948  0.3108
  141MOL0     C19358   7.346   9.407   2.369  0.3417  0.7832  0.3991
  141MOL0     C19359   7.331   9.564   2.337  0.7169  0.2451  0.2804
  141MOL0     C19360   7.450   9.623   2.262 -0.4067  0.9874 -0.5400
  141MOL0     C19361   7.568   9.670   2.352 -0.4407 -0.8121  0.3334
  141MOL0     C19362   7.652   9.778   2.297  0.4716 -1.1117  0.0897
  141MOL0     C19363   7.774   9.798   2.387  0.1109 -0.5025 -0.2151
  141MOL0     C19364   7.874   9.890   2.322 -0.4820 -1.1757 -1.3231
  141MOL0    Cl19365   7.816  10.056   2.316 -0.4612  0.1744  0.1409
  141MOL0     C19366   6.924   9.273   2.203  0.2011 -0.1390 -0.0061
  141MOL0     C19367   6.791   9.227   2.224  0.8180  0.5531  0.4792
  141MOL0     O19368   6.653   8.892   2.231 -0.3230 -0.5157  0.7158
  141MOL0     C19369   6.414   8.819   2.321  0.3339  0.3524  0.2362
  141MOL0     C19370   6.304   8.748   2.373 -0.0518 -0.6714  0.0898
  141MOL0     N19371   5.744   8.661   2.263  0.4301 -0.6800 -0.0103
  141MOL0     N19372   5.637   8.737   2.258  0.1415 -0.6858 -0.0668
  141MOL0     C19373   4.345   8.846   2.711 -0.3227  0.4134 -0.5666
  141MOL0     C19374   4.218   8.896   2.752  0.3125 -1.0003 -0.3795
  141MOL0     C19375   3.882   9.128   2.917  0.6994 -0.2963 -0.2634
  141MOL0     C19376   3.877   9.248   2.840  0.3610  0.1263 -0.2836
  141MOL0     C19377   3.765   9.319   2.836  0.3420 -0.6570  0.3577
  141MOL0     C19378   3.648   9.296   2.914 -0.2100  0.5140 -0.5138
  141MOL0     O19379   3.543   9.380   2.904  0.1051  0.5464 -0.2647
  141MOL0     C19380   3.583   9.519   2.934 -0.1449  0.2397  0.6424
  141MOL0     C19381   3.481   9.584   3.028 -0.1454 -1.1483 -0.2456
  141MOL0     C19382   3.489   9.507   3.167 -0.2716 -0.3869 -0.2086
  141MOL0     C19383   3.393   9.562   3.267  0.4840  0.6714 -0.5242
  141MOL0     C19384   3.421   9.491   3.393  0.4345  0.5170  0.2987
  141MOL0     C19385   3.454   9.427   3.485  0.4903  0.4919  0.0814
  141MOL0     C19386   3.641   9.166   2.977 -0.0688 -0.9512 -0.3382
  141MOL0     C19387   3.759   9.084   2.978 -0.6293 -1.4286 -0.4633
  141MOL0     C19388   3.737   8.945   3.026 -0.0224  0.3022  0.3825
  141MOL0     H19389   4.339   9.194   2.869  1.3910 -1.0448  1.2318
  141MOL0     H19390   4.543   9.111   2.798 -1.8476  1.9177  1.6827
  141MOL0     H19391   4.485   8.814   2.495  1.2287 -0.4573 -1.5254
  141MOL0     H19392   4.535   8.676   2.592 -4.7383  1.7720  1.0137
  141MOL0     H19393   4.655   8.733   2.376  1.3881 -0.4899 -0.0390
  141MOL0     H19394   4.726   8.880   2.445  2.0754 -1.5987 -0.6500
  141MOL0     H19395   4.815   8.717   2.628  0.9105 -1.7719  0.2698
  141MOL0     H19396   4.786   8.596   2.502 -0.5644 -1.0661  1.6466
  141MOL0     H19397   4.897   8.744   2.337  1.3591 -2.2286  0.3188
  141MOL0     H19398   4.943   8.859   2.466  0.9651  0.2526 -0.6707
  141MOL0     H19399   5.042   8.577   2.413 -0.0894 -1.1404  1.2651
  141MOL0     H19400   5.088   8.666   2.560 -0.9777 -0.7662 -0.4389
  141MOL0     H19401   5.142   8.706   2.274 -1.3371 -2.5922  1.2789
  141MOL0     H19402   5.181   8.843   2.390  1.4287 -0.0536  2.9412
  141MOL0     H19403   5.302   8.566   2.359  0.2738  1.0466 -2.9280
  141MOL0     H19404   5.322   8.658   2.514  0.1000 -3.7094 -0.7425
  141MOL0     H19405   5.386   8.766   2.241  0.3472  0.6623 -0.2912
  141MOL0     H19406   5.425   8.849   2.392  0.9703 -0.8556  0.9699
  141MOL0     H19407   5.548   8.513   2.475 -1.1712 -2.9832 -3.7780
  141MOL0     H19408   5.841   8.417   2.267  0.6737  0.3961  0.2437
  141MOL0     H19409   5.724   8.360   2.387 -3.4230  2.1186 -2.5578
  141MOL0     H19410   5.869   8.456   2.566  1.1373  2.3011  1.3708
  141MOL0     H19411   5.979   8.366   2.459  0.5533  1.0315  2.2463
  141MOL0     H19412   6.038   8.585   2.344 -0.0477  2.8261 -1.1766
  141MOL0     H19413   5.946   8.675   2.470 -3.6159 -2.7530  2.5339
  141MOL0     H19414   6.113   8.526   2.626  2.8073 -0.9263 -0.5550
  141MOL0     H19415   6.199   8.519   2.478  1.3014 -0.1946  2.5685
  141MOL0     H19416   6.324   8.866   2.685  1.1997  0.2637 -0.0910
  141MOL0     H19417   6.526   8.985   2.715 -0.2571 -0.2914 -0.1830
  141MOL0     H19418   6.542   9.115   2.596 -0.3931  0.2632 -0.0557
  141MOL0     H19419   6.661   8.986   2.592  0.7845  3.4450 -1.4393
  141MOL0     H19420   6.856   8.995   2.465 -2.4153  1.3365  0.8441
  141MOL0     H19421   7.086   9.079   2.437  0.2929 -2.5480 -1.5491
  141MOL0     H19422   7.161   9.405   2.455 -1.1232 -0.1629 -0.7952
  141MOL0     H19423   7.236   9.246   2.460 -1.6314  0.1980  0.6318
  141MOL0     H19424   7.409   9.396   2.458 -0.2475 -0.1767  0.7194
  141MOL0     H19425   7.396   9.349   2.290 -1.3415  1.4284 -1.2104
  141MOL0     H19426   7.306   9.625   2.425 -3.7395  0.5364 -0.9699
  141MOL0     H19427   7.248   9.573   2.267  2.3011  0.5379 -1.6224
  141MOL0     H19428   7.423   9.715   2.211  1.4686  1.9615  0.1070
  141MOL0     H19429   7.476   9.560   2.177  1.7484 -1.5835  1.8053
  141MOL0     H19430   7.538   9.721   2.444  2.8452 -0.5424  1.4021
  141MOL0     H19431   7.629   9.581   2.366 -0.1813 -0.5253  1.0703
  141MOL0     H19432   7.594   9.871   2.300 -2.7646 -2.9408 -0.5417
  141MOL0     H19433   7.675   9.752   2.194  2.1204 -0.7265  0.3409
  141MOL0     H19434   7.830   9.709   2.416  3.1064  0.6832 -1.9404
  141MOL0     H19435   7.746   9.841   2.484  3.1319 -0.1531  0.6142
  141MOL0     H19436   7.903   9.863   2.220 -0.2694  1.4213 -2.0225
  141MOL0     H19437   7.954   9.889   2.395 -0.6569  0.5219 -1.0742
  141MOL0     H19438   6.958   9.354   2.139  1.6475 -0.3939  0.4113
  141MOL0     H19439   6.710   9.258   2.159  0.9503 -1.0110 -0.4875
  141MOL0     H19440   6.435   8.815   2.214  2.6622  2.2994  0.5072
  141MOL0     H19441   6.248   8.682   2.307  0.4547  0.8227 -1.9104
  141MOL0     H19442   4.342   8.749   2.662  0.4769 -1.0001  1.9964
  141MOL0     H19443   4.127   8.841   2.728  0.0662 -0.6989 -0.1472
  141MOL0     H19444   3.963   9.291   2.791 -0.0102  2.1304  0.7222
  141MOL0     H19445   3.760   9.409   2.776 -1.9856 -1.2829 -0.4928
  141MOL0     H19446   3.683   9.522   2.978 -0.3172 -1.8862  1.2847
  141MOL0     H19447   3.589   9.572   2.839 -0.9138 -0.1550  0.3613
  141MOL0     H19448   3.378   9.585   2.989 -0.7300 -1.8592  1.1951
  141MOL0     H19449   3.518   9.685   3.043  0.2251 -1.3981  0.5923
  141MOL0     H19450   3.473   9.399   3.164 -0.3792 -0.5221  2.8171
  141MOL0     H19451   3.592   9.523   3.198 -0.4104  0.0648  0.0314
  141MOL0     H19452   3.288   9.541   3.243  0.0552  0.2056  1.5956
  141MOL0     H19453   3.413   9.669   3.271  0.7543  0.6052  3.2482
  141MOL0     H19454   3.497   9.369   3.564  2.7258  1.0995 -0.6259
  141MOL0     H19455   3.548   9.150   3.030 -0.2000  2.6014  0.7235
  141MOL0     H19456   3.801   8.917   3.111 -0.3460 -1.7665 -0.0033
  141MOL0     H19457   3.635   8.945   3.067  1.1259  0.1979  3.4775
  141MOL0     H19458   3.745   8.871   2.946  0.9991 -0.0235  0.7794
  142MOL0     O19459   8.104   5.284   0.623  0.5483 -0.1209  0.6811
  142MOL0     C19460   8.200   5.366   0.619  0.4098 -0.0330 -1.1794
  142MOL0     O19461   8.247   5.434   0.515 -0.6708 -0.0690  0.0044
  142MOL0     C19462   8.229   5.378   0.399  0.1086 -0.4511 -0.0900
  142MOL0     C19463   8.169   5.465   0.295  1.1045  0.3200 -0.2003
  142MOL0     C19464   8.139   5.409   0.172 -0.2185 -0.0108  0.4778
  142MOL0     C19465   8.159   5.283   0.140 -0.6467  0.8473 -0.3012
  142MOL0     O19466   8.120   5.217   0.029  0.2500 -0.5203  0.7691
  142MOL0     C19467   8.049   5.289  -0.072 -0.5084  0.5437  0.6631
  142MOL0     C19468   7.902   5.317  -0.030  0.5684  0.0857 -0.5189
  142MOL0     C19469   7.810   5.368  -0.147  0.1120 -0.5891  0.4439
  142MOL0     C19470   7.890   5.450  -0.256  0.1846 -1.2243  0.1729
  142MOL0     C19471   7.790   5.524  -0.344  0.0165 -0.0659  0.4663
  142MOL0     C19472   7.875   5.574  -0.454  0.5076  0.1641  0.0011
  142MOL0     C19473   7.806   5.679  -0.539  1.3787 -0.7389  0.1110
  142MOL0     C19474   7.809   5.814  -0.468  0.2425 -0.3703 -0.0322
  142MOL0     N19475   7.944   5.856  -0.455 -1.0509 -0.3620  0.6471
  142MOL0     C19476   8.043   5.842  -0.556 -0.5542  0.9879 -1.0573
  142MOL0     C19477   8.161   5.864  -0.494 -0.1234 -0.4798 -0.1085
  142MOL0     C19478   8.297   5.889  -0.559  0.2485 -0.7225 -0.5641
  142MOL0     C19479   8.379   5.992  -0.488  0.0563  0.1277  0.4127
  142MOL0     C19480   8.527   6.005  -0.544 -0.6224 -0.1679  1.0100
  142MOL0     C19481   8.519   6.061  -0.682 -0.4030 -0.6671  0.9739
  142MOL0     O19482   8.474   6.197  -0.663 -0.1886  0.5788  0.6823
  142MOL0     C19483   8.444   6.266  -0.779 -0.1895 -0.3040 -0.0615
  142MOL0     C19484   8.381   6.392  -0.763  0.6365  0.4144 -0.8072
  142MOL0     C19485   8.339   6.475  -0.864  0.2032 -0.5225  0.1743
  142MOL0     C19486   8.272   6.603  -0.827 -0.1422  0.2686  0.4311
  142MOL0     C19487   8.359   6.425  -1.001  0.0110  0.8735 -0.2128
  142MOL0     C19488   8.315   6.505  -1.127  0.3529  0.5531  0.5416
  142MOL0     O19489   8.276   6.634  -1.121 -0.6854  0.1014 -0.6284
  142MOL0     C19490   8.257   6.701  -1.238 -0.7891 -0.1617 -0.4906
  142MOL0     C19491   8.125   6.732  -1.272 -0.5610 -0.0694 -0.0872
  142MOL0     C19492   8.113   6.785  -1.408 -0.3546 -0.1099  0.3612
  142MOL0     C19493   8.221   6.819  -1.493 -0.2820  0.1197 -0.6715
  142MOL0     O19494   8.189   6.900  -1.596 -0.3510  0.3692  0.0329
  142MOL0     C19495   8.295   6.965  -1.669  0.0205 -0.1155  0.7279
  142MOL0     C19496   8.221   7.079  -1.757  0.7198 -0.2178 -0.4020
  142MOL0     C19497   8.087   7.016  -1.816 -0.0623  0.2143 -1.3088
  142MOL0     C19498   8.011   7.121  -1.899 -0.3748 -0.1987 -0.8794
  142MOL0     C19499   7.869   7.074  -1.930 -0.2975  0.3777  0.6019
  142MOL0     C19500   7.852   6.960  -2.038 -0.8699  0.1497 -0.2941
  142MOL0     C19501   7.708   6.936  -2.089 -0.6327 -0.4364 -0.3358
  142MOL0     C19502   7.695   6.839  -2.199 -0.7004  0.2798  0.8743
  142MOL0    Cl19503   7.523   6.805  -2.256  0.4757 -0.3114 -0.2248
  142MOL0     C19504   8.349   6.794  -1.445 -0.6336  0.1223 -0.2115
  142MOL0     C19505   8.361   6.732  -1.319  0.9878  0.1897  0.8636
  142MOL0     O19506   8.339   6.447  -1.231 -0.9420 -0.0574  0.0869
  142MOL0     C19507   8.426   6.304  -1.013  0.8777 -0.3053 -0.0169
  142MOL0     C19508   8.467   6.223  -0.909  0.2405 -0.4878 -1.1663
  142MOL0     N19509   8.139   5.891  -0.359  0.1004  0.1273  0.0897
  142MOL0     N19510   8.012   5.880  -0.338 -0.3932  0.0533  0.1106
  142MOL0     C19511   8.221   5.198   0.240 -0.1544  0.0600  0.2216
  142MOL0     C19512   8.255   5.249   0.364 -0.0742 -0.8863  0.0566
  142MOL0     C19513   8.254   5.409   0.753  0.0194  1.0382  0.2444
  142MOL0     C19514   8.326   5.528   0.754  0.7338  0.5488 -0.4562
  142MOL0     C19515   8.373   5.583   0.877  0.7448 -0.2220 -0.5088
  142MOL0     C19516   8.346   5.517   0.998  0.6830 -0.7121 -0.3352
  142MOL0     O19517   8.388   5.580   1.116  0.0394  0.1731 -0.3291
  142MOL0     C19518   8.373   5.515   1.247  1.0672 -0.6184  0.4310
  142MOL0     C19519   8.466   5.405   1.270  0.5224 -0.3896  0.0850
  142MOL0     C19520   8.608   5.464   1.261  1.1687  0.3860  0.3583
  142MOL0     C19521   8.711   5.365   1.331 -0.0827 -0.2193  0.4274
  142MOL0     C19522   8.728   5.372   1.477 -0.1275 -0.4233  0.1413
  142MOL0     C19523   8.736   5.397   1.597 -0.7964  1.2901  0.5042
  142MOL0     C19524   8.281   5.396   0.997  0.4012 -0.4112  0.5744
  142MOL0     C19525   8.234   5.338   0.875 -0.0156 -0.3618  0.3131
  142MOL0     C19526   8.170   5.205   0.878  0.7928  0.6971 -1.3074
  142MOL0     H19527   8.147   5.569   0.319 -1.0116 -0.3909  1.1888
  142MOL0     H19528   8.083   5.473   0.105  0.4863 -1.3704 -1.4869
  142MOL0     H19529   8.052   5.224  -0.160 -0.0371 -0.9743  1.7457
  142MOL0     H19530   8.103   5.382  -0.093  3.9122 -2.0250 -0.6005
  142MOL0     H19531   7.875   5.227   0.025  2.2558  1.9665  3.9693
  142MOL0     H19532   7.892   5.393   0.049  0.7928 -0.9434  0.5281
  142MOL0     H19533   7.760   5.288  -0.203 -0.6333  2.3330 -3.5203
  142MOL0     H19534   7.733   5.434  -0.107 -0.1584 -0.0069 -0.9691
  142MOL0     H19535   7.940   5.535  -0.210 -0.8609 -0.0459 -0.7897
  142MOL0     H19536   7.969   5.401  -0.313 -0.3292 -1.6355 -0.2001
  142MOL0     H19537   7.759   5.608  -0.281  0.4337 -0.7263  1.5770
  142MOL0     H19538   7.709   5.459  -0.380 -0.6191  0.8115  0.2705
  142MOL0     H19539   7.969   5.625  -0.430 -1.2915  4.7389 -1.6585
  142MOL0     H19540   7.894   5.490  -0.522 -2.1320 -0.0708 -0.5475
  142MOL0     H19541   7.703   5.651  -0.560  0.6786  2.4152 -1.3233
  142MOL0     H19542   7.849   5.695  -0.639 -1.2852 -0.7178 -1.1147
  142MOL0     H19543   7.743   5.879  -0.526 -0.8078 -2.4305 -1.2792
  142MOL0     H19544   7.775   5.809  -0.364 -0.9403  1.6939 -0.2685
  142MOL0     H19545   8.039   5.828  -0.663  0.5181  0.1768 -1.0059
  142MOL0     H19546   8.279   5.914  -0.664 -0.4655 -1.4490 -0.6223
  142MOL0     H19547   8.358   5.798  -0.551 -1.6212 -1.8701  2.2179
  142MOL0     H19548   8.324   6.087  -0.491  0.0008  0.0890  0.0801
  142MOL0     H19549   8.395   5.972  -0.382 -1.3512  1.6020  0.9452
  142MOL0     H19550   8.585   6.075  -0.484  1.7019  0.4886 -1.7924
  142MOL0     H19551   8.579   5.908  -0.542  0.3027  0.2518 -0.7160
  142MOL0     H19552   8.615   6.067  -0.735 -1.0676  0.2193 -0.1766
  142MOL0     H19553   8.455   6.002  -0.749  1.8378 -2.1543  0.0156
  142MOL0     H19554   8.361   6.413  -0.658 -0.9519 -0.9434 -0.7916
  142MOL0     H19555   8.325   6.687  -0.872  0.5318 -0.1500  0.4170
  142MOL0     H19556   8.263   6.620  -0.719  1.2300 -1.2295  0.8126
  142MOL0     H19557   8.172   6.594  -0.870  1.8740 -2.1082 -4.6191
  142MOL0     H19558   8.036   6.698  -1.220 -1.1328 -0.3209 -1.2044
  142MOL0     H19559   8.022   6.825  -1.452  0.4695  0.9840 -0.3936
  142MOL0     H19560   8.374   7.003  -1.604  0.1671  1.8636 -0.5104
  142MOL0     H19561   8.340   6.888  -1.733  0.5713  1.4085 -0.8115
  142MOL0     H19562   8.195   7.160  -1.688  2.6802  0.6814 -0.6598
  142MOL0     H19563   8.284   7.117  -1.838 -0.1272  1.3400 -0.3705
  142MOL0     H19564   8.020   6.983  -1.736  0.1208  0.7805 -0.9161
  142MOL0     H19565   8.111   6.931  -1.880  1.9523  0.3512 -0.8006
  142MOL0     H19566   8.058   7.150  -1.993 -2.2107  0.4132 -1.6671
  142MOL0     H19567   8.005   7.207  -1.832 -0.9824 -0.0293 -1.1439
  142MOL0     H19568   7.818   7.042  -1.839  1.4938 -0.2308  1.4436
  142MOL0     H19569   7.819   7.168  -1.956 -0.5127  0.0144 -0.3312
  142MOL0     H19570   7.886   6.864  -1.997 -0.2144  0.1536 -0.8322
  142MOL0     H19571   7.912   6.987  -2.125 -0.9976  1.2218 -0.0680
  142MOL0     H19572   7.670   7.027  -2.136  0.6113  0.0693 -0.4072
  142MOL0     H19573   7.641   6.901  -2.009 -0.6840 -2.5298 -1.2109
  142MOL0     H19574   7.747   6.743  -2.187 -2.5959 -1.1316 -1.4522
  142MOL0     H19575   7.749   6.878  -2.286 -0.7291 -0.4771  0.5035
  142MOL0     H19576   8.431   6.815  -1.512  0.6028 -2.6143  0.2860
  142MOL0     H19577   8.457   6.699  -1.280 -0.2893 -2.1867  2.2712
  142MOL0     H19578   8.440   6.264  -1.113 -0.1235  2.7521 -1.5141
  142MOL0     H19579   8.513   6.130  -0.940  1.2576  0.2095 -1.7828
  142MOL0     H19580   8.248   5.101   0.202 -0.9778  0.2046 -0.7648
  142MOL0     H19581   8.307   5.187   0.436 -2.3832 -0.6189  2.0793
  142MOL0     H19582   8.339   5.587   0.664 -0.0082 -0.8660 -1.5380
  142MOL0     H19583   8.453   5.656   0.876  1.0662 -0.4915  1.3062
  142MOL0     H19584   8.386   5.596   1.320 -0.6317  2.5949 -2.4978
  142MOL0     H19585   8.271   5.479   1.264  0.8632  0.4591  1.6193
  142MOL0     H19586   8.470   5.319   1.202  2.0162 -0.0263 -0.3236
  142MOL0     H19587   8.451   5.364   1.370 -1.5693  1.2541  0.5165
  142MOL0     H19588   8.630   5.493   1.158 -2.8662  1.6668 -0.3204
  142MOL0     H19589   8.607   5.565   1.303  1.0582  1.6640 -2.5399
  142MOL0     H19590   8.805   5.375   1.275 -1.1608 -0.1633 -1.4494
  142MOL0     H19591   8.667   5.265   1.321 -0.3348 -0.0155 -0.6456
  142MOL0     H19592   8.748   5.417   1.701 -1.5096 -2.0728  1.3473
  142MOL0     H19593   8.263   5.346   1.092 -1.1570 -0.1948  0.4155
  142MOL0     H19594   8.169   5.162   0.979 -0.7090  1.4198 -0.9757
  142MOL0     H19595   8.063   5.207   0.856  1.0770 -0.6725 -3.0022
  142MOL0     H19596   8.206   5.136   0.802  0.4150 -0.0312 -0.8414
  143MOL0     O19597   2.571  10.838   9.410 -0.4365  0.3891  0.0510
  143MOL0     C19598   2.541  10.860   9.293 -0.0263  0.1028 -0.3185
  143MOL0     O19599   2.620  10.838   9.180  0.2871  0.5797  0.2418
  143MOL0     C19600   2.752  10.813   9.186 -0.5294 -0.4893  0.2425
  143MOL0     C19601   2.800  10.750   9.073 -0.5697 -0.6475  0.2081
  143MOL0     C19602   2.927  10.721   9.057 -0.0762 -0.0005  0.1835
  143MOL0     C19603   3.023  10.752   9.156  0.6339 -0.2522 -0.5087
  143MOL0     O19604   3.157  10.714   9.169  0.0542  0.4545  0.5623
  143MOL0     C19605   3.221  10.684   9.048  0.8956  0.5436 -0.2412
  143MOL0     C19606   3.216  10.529   9.033 -0.3143  0.9549 -1.0317
  143MOL0     C19607   3.330  10.471   9.128  0.0606 -0.8174 -0.0779
  143MOL0     C19608   3.321  10.323   9.128  0.3563 -0.0785  0.0324
  143MOL0     C19609   3.416  10.238   9.216 -0.6794 -0.0347  0.4222
  143MOL0     C19610   3.411  10.094   9.177  0.2044 -0.0914  0.0356
  143MOL0     C19611   3.500  10.000   9.260  0.5655 -0.4850  0.3525
  143MOL0     C19612   3.648  10.000   9.218 -1.1713  0.5875 -0.0477
  143MOL0     N19613   3.729  10.089   9.305 -0.9345  0.5978 -0.8321
  143MOL0     C19614   3.874  10.067   9.309 -0.6332  1.2111 -1.4340
  143MOL0     C19615   3.911  10.151   9.408 -0.0733 -0.0819  0.1873
  143MOL0     C19616   4.049  10.201   9.447  0.4008  0.2810 -0.1108
  143MOL0     C19617   4.108  10.292   9.331  0.1540 -0.0837 -0.8305
  143MOL0     C19618   4.228  10.218   9.283  0.6471 -0.8840 -0.2221
  143MOL0     C19619   4.358  10.225   9.372 -0.1640  0.1097 -0.4360
  143MOL0     O19620   4.376  10.361   9.413  0.0221  1.1051  0.1268
  143MOL0     C19621   4.478  10.403   9.490  0.7424  0.2894 -0.4134
  143MOL0     C19622   4.577  10.316   9.551  0.4210 -0.5223 -0.0180
  143MOL0     C19623   4.678  10.369   9.633 -0.9078  0.5075  0.0682
  143MOL0     C19624   4.782  10.276   9.685  0.6553  0.6772  0.1147
  143MOL0     C19625   4.683  10.512   9.662 -0.2704  0.1587  0.3877
  143MOL0     C19626   4.786  10.585   9.739  0.0014  0.0911  0.1222
  143MOL0     O19627   4.898  10.528   9.789  0.0703  0.0121  0.2917
  143MOL0     C19628   4.979  10.600   9.867 -0.0238 -0.5929  1.6198
  143MOL0     C19629   5.043  10.715   9.823  0.7157  0.0849 -0.4972
  143MOL0     C19630   5.122  10.792   9.912 -0.0256 -1.1183  0.2814
  143MOL0     C19631   5.152  10.745  10.041  0.0619  0.4889 -0.9833
  143MOL0     O19632   5.231  10.814  10.129 -0.7151  0.3353  0.0584
  143MOL0     C19633   5.299  10.930  10.082  1.0376 -0.6421 -0.4350
  143MOL0     C19634   5.401  10.961  10.193  0.4765 -0.3785 -0.5687
  143MOL0     C19635   5.512  10.854  10.212 -0.4296  0.4270 -0.2183
  143MOL0     C19636   5.617  10.889  10.316  0.3467  0.6235  0.3151
  143MOL0     C19637   5.723  10.776  10.321  0.4612  0.1027  0.0271
  143MOL0     C19638   5.840  10.814  10.417  0.5074 -0.0137  1.0295
  143MOL0     C19639   5.945  10.709  10.439 -0.6159  0.3670 -0.3891
  143MOL0     C19640   6.072  10.764  10.511 -0.1575 -0.4909  0.3375
  143MOL0    Cl19641   6.140  10.910  10.436  0.0886 -0.0866  0.0199
  143MOL0     C19642   5.091  10.627  10.083  0.4805  0.1009  0.4284
  143MOL0     C19643   5.004  10.564   9.999  0.6514 -0.2458 -0.4512
  143MOL0     O19644   4.761  10.702   9.758  0.7685 -0.1414  0.9333
  143MOL0     C19645   4.581  10.595   9.595 -0.6292  0.1951 -0.0088
  143MOL0     C19646   4.488  10.535   9.522  0.4907 -0.8503  0.3425
  143MOL0     N19647   3.795  10.216   9.453  0.3484  0.1412 -0.3675
  143MOL0     N19648   3.686  10.160   9.411  0.0404  1.0512  0.3603
  143MOL0     C19649   2.970  10.811   9.269 -0.0499 -0.5558  0.9647
  143MOL0     C19650   2.842  10.843   9.287  0.6280  0.9329 -0.0597
  143MOL0     C19651   2.402  10.910   9.275  0.5505 -0.5943  0.0748
  143MOL0     C19652   2.336  10.960   9.386  0.3135 -0.3090  0.5663
  143MOL0     C19653   2.212  11.018   9.379  0.4637  0.0125  0.1725
  143MOL0     C19654   2.153  11.015   9.257  0.2812 -0.6121  0.3148
  143MOL0     O19655   2.027  11.058   9.256  0.7562 -0.6305  0.4487
  143MOL0     C19656   2.026  11.195   9.209  0.0216  0.2300 -0.3637
  143MOL0     C19657   1.892  11.260   9.239  0.2812  1.1039 -0.5156
  143MOL0     C19658   1.781  11.184   9.163 -0.4454  0.3083 -0.4001
  143MOL0     C19659   1.642  11.225   9.213  0.4782 -0.3481  0.2030
  143MOL0     C19660   1.620  11.368   9.180 -0.0412  1.0217 -0.7995
  143MOL0     C19661   1.604  11.479   9.154  0.2570 -1.0491 -0.5501
  143MOL0     C19662   2.210  10.969   9.140  0.4161 -0.2735  0.6365
  143MOL0     C19663   2.335  10.911   9.153 -0.3385 -0.0009  0.3997
  143MOL0     C19664   2.385  10.841   9.022  0.1972  0.5335 -0.1326
  143MOL0     H19665   2.740  10.741   8.983 -0.6708  3.7164 -0.3949
  143MOL0     H19666   2.953  10.685   8.958  1.0487  1.9936 -0.3131
  143MOL0     H19667   3.328  10.707   9.057  1.7798 -3.2319  0.6119
  143MOL0     H19668   3.185  10.741   8.962  0.9414  3.1848  1.3860
  143MOL0     H19669   3.122  10.488   9.072  0.3906 -1.0737 -1.3582
  143MOL0     H19670   3.223  10.493   8.931 -1.0634 -1.6357 -0.2397
  143MOL0     H19671   3.427  10.491   9.083  0.4393 -2.5581 -0.0902
  143MOL0     H19672   3.321  10.505   9.232 -0.7117 -0.8552 -0.1237
  143MOL0     H19673   3.216  10.301   9.149 -0.0143  0.6640 -0.9629
  143MOL0     H19674   3.343  10.294   9.025  0.0793 -0.7416  0.1504
  143MOL0     H19675   3.388  10.255   9.320 -1.8663  0.6761  0.0017
  143MOL0     H19676   3.520  10.268   9.201 -0.5068 -1.1945 -0.9459
  143MOL0     H19677   3.311  10.054   9.193 -0.9669  1.1223 -3.3235
  143MOL0     H19678   3.435  10.074   9.072  2.3077 -0.8504  0.5947
  143MOL0     H19679   3.456   9.901   9.247 -2.3167  0.9282 -1.6372
  143MOL0     H19680   3.483  10.014   9.367 -3.1521 -1.8274  0.0847
  143MOL0     H19681   3.698   9.902   9.219  0.2942  1.3064  1.9922
  143MOL0     H19682   3.659  10.042   9.118  0.9989  0.9888  0.3141
  143MOL0     H19683   3.945  10.010   9.250 -0.3255 -1.4060  1.2414
  143MOL0     H19684   4.110  10.112   9.463  1.7423  0.9708 -1.1648
  143MOL0     H19685   4.044  10.257   9.541 -0.2686  0.3406 -0.1786
  143MOL0     H19686   4.025  10.295   9.259 -0.8448 -1.2209  0.2246
  143MOL0     H19687   4.125  10.387   9.383 -3.9314 -1.1430  3.1143
  143MOL0     H19688   4.196  10.115   9.265 -2.9119  0.3700 -1.9672
  143MOL0     H19689   4.252  10.262   9.185 -0.7442  0.3937 -0.0275
  143MOL0     H19690   4.339  10.175   9.467  0.7129  0.9891  0.2157
  143MOL0     H19691   4.442  10.177   9.322 -0.6320 -3.0489  1.5125
  143MOL0     H19692   4.589  10.209   9.538 -0.7714 -0.7989  0.8873
  143MOL0     H19693   4.777  10.253   9.792  2.3035 -1.9150 -0.2622
  143MOL0     H19694   4.878  10.314   9.652  0.5078  0.2638 -0.8349
  143MOL0     H19695   4.784  10.185   9.624  1.7877  0.6542  0.1682
  143MOL0     H19696   5.013  10.747   9.723  0.0509 -0.7307 -0.5640
  143MOL0     H19697   5.160  10.885   9.870  0.2486 -2.1030 -1.7837
  143MOL0     H19698   5.338  10.919   9.980 -2.1929 -1.4605 -1.7074
  143MOL0     H19699   5.228  11.013  10.074 -0.4754 -1.9502 -1.0988
  143MOL0     H19700   5.449  11.058  10.176 -0.2546  0.0286 -0.3584
  143MOL0     H19701   5.345  10.960  10.287 -0.6429 -3.4538 -1.1447
  143MOL0     H19702   5.564  10.825  10.119 -0.4999  0.7815 -0.3677
  143MOL0     H19703   5.471  10.757  10.241  1.6154 -0.1170  1.0931
  143MOL0     H19704   5.569  10.888  10.415 -1.7074 -4.1559 -0.4754
  143MOL0     H19705   5.654  10.986  10.283 -2.2084  1.4601 -0.3219
  143MOL0     H19706   5.689  10.675  10.342  0.5974 -0.2874 -1.4938
  143MOL0     H19707   5.769  10.774  10.221  2.3274 -2.2173  0.8527
  143MOL0     H19708   5.798  10.833  10.517 -1.9823  3.0103 -0.4149
  143MOL0     H19709   5.887  10.908  10.386  1.5885 -0.7917  0.1974
  143MOL0     H19710   5.977  10.649  10.353  0.1745 -0.3703  0.4071
  143MOL0     H19711   5.893  10.636  10.501  1.3899 -1.6073 -0.9064
  143MOL0     H19712   6.151  10.689  10.503  0.5093  0.2951 -0.5858
  143MOL0     H19713   6.043  10.783  10.615 -1.9962 -0.0301 -0.2275
  143MOL0     H19714   5.115  10.582  10.179  2.0551  0.5075  0.2617
  143MOL0     H19715   4.957  10.475  10.038 -1.4121 -0.3350 -2.8501
  143MOL0     H19716   4.573  10.703   9.600  0.9524  0.2681  2.8811
  143MOL0     H19717   4.406  10.596   9.486 -1.9478 -4.7377 -1.3584
  143MOL0     H19718   3.038  10.830   9.351  1.8992  2.8821 -1.1925
  143MOL0     H19719   2.817  10.875   9.388  3.9147  1.3781  0.7414
  143MOL0     H19720   2.375  10.954   9.487  3.9093 -0.7252 -0.7032
  143MOL0     H19721   2.150  11.062   9.456  0.1639  0.2017 -0.1753
  143MOL0     H19722   2.099  11.255   9.264 -1.9044  1.3739  1.1175
  143MOL0     H19723   2.047  11.187   9.102  3.0106 -1.3208  0.2373
  143MOL0     H19724   1.880  11.366   9.212 -3.9289  1.2483  1.1989
  143MOL0     H19725   1.862  11.245   9.343 -1.7790  0.2341 -1.1881
  143MOL0     H19726   1.794  11.208   9.057 -0.9385  0.0100 -0.5295
  143MOL0     H19727   1.792  11.075   9.167 -4.5166 -0.2194  0.7175
  143MOL0     H19728   1.617  11.204   9.317 -0.7563 -0.1814 -0.0403
  143MOL0     H19729   1.562  11.180   9.153  1.4489 -1.5269 -0.2292
  143MOL0     H19730   1.589  11.582   9.127  1.7428 -1.2127 -2.1893
  143MOL0     H19731   2.160  10.972   9.044  0.2586 -0.5107  0.7104
  143MOL0     H19732   2.426  10.740   9.035 -0.3134  0.3310 -0.1051
  143MOL0     H19733   2.300  10.835   8.954  1.5357 -4.9467 -1.8578
  143MOL0     H19734   2.457  10.903   8.968  0.0258 -1.1866 -2.4763
  144MOL0     O19735   2.013   2.834  11.122  0.9380  0.2543  0.2490
  144MOL0     C19736   2.040   2.891  11.013 -0.0865 -0.0250 -0.4419
  144MOL0     O19737   1.952   2.963  10.938  0.1942  0.4136  0.6257
  144MOL0     C19738   1.818   2.942  10.938  0.8294  0.4772 -0.7147
  144MOL0     C19739   1.752   2.906  10.830  0.6811 -0.1934  0.7503
  144MOL0     C19740   1.615   2.885  10.840  0.2218  0.2217 -0.0851
  144MOL0     C19741   1.544   2.904  10.960  0.0485 -0.0556 -0.0638
  144MOL0     O19742   1.413   2.871  10.959 -0.0382  0.5961 -0.1505
  144MOL0     C19743   1.321   2.935  11.046 -0.2677 -1.6097  0.1707
  144MOL0     C19744   1.296   3.087  11.023 -0.1326  0.3881  0.3245
  144MOL0     C19745   1.255   3.101  10.881 -0.0902 -0.2033 -0.6905
  144MOL0     C19746   1.162   3.222  10.857 -0.5231 -0.8385  0.4790
  144MOL0     C19747   1.021   3.223  10.917  0.4284  0.7145  1.0684
  144MOL0     C19748   0.933   3.329  10.853  0.1880 -0.5796  0.1295
  144MOL0     C19749   0.788   3.330  10.908  0.2845 -0.1194  0.0210
  144MOL0     C19750   0.698   3.442  10.856  0.2278 -0.6816  1.2459
  144MOL0     N19751   0.567   3.425  10.911 -0.1019  0.2099 -0.1328
  144MOL0     C19752   0.485   3.313  10.911 -0.8320  0.1587  0.5154
  144MOL0     C19753   0.363   3.356  10.953  0.4034 -0.3165  0.0154
  144MOL0     C19754   0.261   3.257  10.995  0.0956 -0.0089  0.7831
  144MOL0     C19755   0.258   3.237  11.147  0.3399  0.1642 -0.4597
  144MOL0     C19756   0.192   3.355  11.230 -0.7191  0.4924  0.4128
  144MOL0     C19757   0.170   3.312  11.384  0.2732 -0.5801  0.1404
  144MOL0     O19758   0.127   3.425  11.459  0.5079  0.2497  0.4546
  144MOL0     C19759  -0.006   3.453  11.467 -0.1372  0.0130 -0.5443
  144MOL0     C19760  -0.118   3.375  11.425  0.4748 -0.6293  0.6833
  144MOL0     C19761  -0.254   3.428  11.426  0.0899 -1.3862  0.2561
  144MOL0     C19762  -0.361   3.333  11.378  1.2357  0.1657  0.3724
  144MOL0     C19763  -0.278   3.557  11.481 -0.5129  0.1576 -0.1164
  144MOL0     C19764  -0.406   3.620  11.496  0.2650  1.0134 -0.7640
  144MOL0     O19765  -0.410   3.752  11.475  0.3412 -0.4067 -0.1565
  144MOL0     C19766  -0.517   3.821  11.525  0.2241 -0.3122  0.5996
  144MOL0     C19767  -0.518   3.873  11.653 -0.6954 -0.1118  0.3788
  144MOL0     C19768  -0.624   3.950  11.699 -0.0749  0.3099 -0.3811
  144MOL0     C19769  -0.746   3.979  11.620 -0.2851  1.1492  0.1403
  144MOL0     O19770  -0.848   4.061  11.660  0.5054  0.6335 -0.5041
  144MOL0     C19771  -0.843   4.138  11.778 -0.1349 -0.3824 -0.4337
  144MOL0     C19772  -0.933   4.076  11.883 -0.3028  0.3996  0.5173
  144MOL0     C19773  -0.931   4.132  12.032 -0.9816  1.0548  0.7571
  144MOL0     C19774  -0.980   4.276  12.040  0.6062  0.1173 -0.3780
  144MOL0     C19775  -0.993   4.329  12.181 -0.8061  0.0248 -0.8088
  144MOL0     C19776  -1.035   4.472  12.194 -0.1274 -0.5154  0.6837
  144MOL0     C19777  -1.182   4.507  12.176 -0.7421  1.2036  1.2634
  144MOL0     C19778  -1.264   4.430  12.283  0.0153 -0.3633 -0.4288
  144MOL0    Cl19779  -1.428   4.508  12.303 -0.0081 -0.1951  0.1143
  144MOL0     C19780  -0.741   3.916  11.493  0.5630  0.3213  0.1563
  144MOL0     C19781  -0.634   3.841  11.448  1.1227 -0.3578 -0.0129
  144MOL0     O19782  -0.502   3.544  11.524 -0.0148 -1.0734 -0.4414
  144MOL0     C19783  -0.172   3.624  11.528 -0.3575 -1.2552 -0.7226
  144MOL0     C19784  -0.036   3.583  11.521  0.4571  0.5518 -0.4540
  144MOL0     N19785   0.376   3.486  10.986  0.2290 -0.3636 -0.1618
  144MOL0     N19786   0.490   3.532  10.941 -0.2238  0.5205  0.2806
  144MOL0     C19787   1.612   2.947  11.071 -0.7288 -0.5613  0.2383
  144MOL0     C19788   1.751   2.967  11.059 -0.0843  0.1607 -0.1442
  144MOL0     C19789   2.185   2.905  10.999  0.5687  0.4309  0.3548
  144MOL0     C19790   2.276   2.883  11.104  0.7769  1.6167  0.2088
  144MOL0     C19791   2.414   2.901  11.089 -0.5314 -0.6088  0.1166
  144MOL0     C19792   2.470   2.945  10.968 -0.0489 -0.3944  0.1591
  144MOL0     O19793   2.600   2.977  10.953  0.2854 -0.1120 -0.3994
  144MOL0     C19794   2.707   2.985  11.056  0.0513 -0.8314 -0.3556
  144MOL0     C19795   2.848   2.965  10.991 -0.2003  0.4648 -0.4207
  144MOL0     C19796   2.883   2.828  10.931 -0.2281 -0.4977 -0.0765
  144MOL0     C19797   3.028   2.827  10.869 -0.4509 -0.0648 -0.1510
  144MOL0     C19798   3.070   2.707  10.799  0.2918  0.4663 -0.1839
  144MOL0     C19799   3.109   2.603  10.751 -1.0328  0.4040 -0.5185
  144MOL0     C19800   2.385   2.963  10.856 -0.1478 -0.6818  0.8583
  144MOL0     C19801   2.242   2.947  10.870  0.2014 -0.3660  0.3897
  144MOL0     C19802   2.160   2.960  10.736 -0.4928 -0.7544 -0.2456
  144MOL0     H19803   1.805   2.884  10.738 -1.8793 -1.5603 -0.5243
  144MOL0     H19804   1.542   2.859  10.763 -0.8262  3.1383 -0.1826
  144MOL0     H19805   1.366   2.925  11.145 -1.0176  1.7109  0.9592
  144MOL0     H19806   1.229   2.877  11.046  0.7488 -3.4098 -2.4872
  144MOL0     H19807   1.221   3.139  11.083 -1.6976  0.4073 -1.5832
  144MOL0     H19808   1.391   3.139  11.041 -1.5663  2.9347  1.0513
  144MOL0     H19809   1.339   3.111  10.810  1.1126  1.9645  0.9235
  144MOL0     H19810   1.202   3.010  10.852  0.5589 -1.4841  1.8281
  144MOL0     H19811   1.219   3.309  10.892 -2.2578  0.9474 -0.9104
  144MOL0     H19812   1.151   3.235  10.749  0.4794 -1.6293  0.2672
  144MOL0     H19813   1.027   3.257  11.021  0.4933  1.6955  0.7592
  144MOL0     H19814   0.963   3.132  10.903  0.8508  0.2169  2.3591
  144MOL0     H19815   0.977   3.425  10.882 -0.1260 -0.3058 -0.2724
  144MOL0     H19816   0.930   3.325  10.744 -0.3008  0.9451  0.0530
  144MOL0     H19817   0.787   3.339  11.017  1.1677  2.2244 -0.1009
  144MOL0     H19818   0.743   3.234  10.880  0.2299 -0.3667  0.9341
  144MOL0     H19819   0.742   3.540  10.879  1.1679 -0.5890 -0.6914
  144MOL0     H19820   0.698   3.441  10.746 -1.7510 -0.2271  1.1995
  144MOL0     H19821   0.518   3.211  10.902 -0.4393  0.2781  0.5723
  144MOL0     H19822   0.264   3.157  10.952  1.5078  0.5484 -0.4664
  144MOL0     H19823   0.169   3.306  10.961  0.9153  0.4947 -0.7634
  144MOL0     H19824   0.204   3.147  11.179 -0.7924  0.5133 -1.3478
  144MOL0     H19825   0.358   3.214  11.184 -0.1182 -0.5865  0.3716
  144MOL0     H19826   0.248   3.448  11.221 -0.1309  0.2621  1.4727
  144MOL0     H19827   0.092   3.380  11.192 -2.0136 -1.4439  2.2977
  144MOL0     H19828   0.094   3.233  11.389 -0.1785 -0.1748 -0.1462
  144MOL0     H19829   0.266   3.278  11.422  0.4354  1.5268  1.7788
  144MOL0     H19830  -0.095   3.273  11.394  1.8362 -0.0796 -0.2178
  144MOL0     H19831  -0.414   3.299  11.467  0.4643 -2.9275 -1.1204
  144MOL0     H19832  -0.321   3.244  11.328  0.4966  0.3005 -0.4852
  144MOL0     H19833  -0.426   3.389  11.310  2.3791  0.6976 -0.3134
  144MOL0     H19834  -0.428   3.855  11.711 -0.4567  0.0494  0.0627
  144MOL0     H19835  -0.607   3.999  11.794  0.7380  3.8923 -2.2117
  144MOL0     H19836  -0.742   4.154  11.817  0.8966  2.0545 -3.6726
  144MOL0     H19837  -0.865   4.240  11.746  3.2884  0.8203  0.5543
  144MOL0     H19838  -1.033   4.084  11.841 -1.6499  0.3113  3.4482
  144MOL0     H19839  -0.905   3.970  11.889 -1.1468  0.0087 -1.5834
  144MOL0     H19840  -0.828   4.114  12.065  0.7967  1.2269 -3.9459
  144MOL0     H19841  -0.994   4.066  12.092 -2.5276 -0.6889 -2.5369
  144MOL0     H19842  -1.073   4.283  11.982 -0.3268  0.9266  1.1699
  144MOL0     H19843  -0.911   4.345  11.991  1.8516 -0.4240  0.5711
  144MOL0     H19844  -1.059   4.258  12.232 -1.2043  0.2137 -1.0589
  144MOL0     H19845  -0.892   4.326  12.221 -0.0755 -2.4709 -2.6299
  144MOL0     H19846  -0.976   4.531  12.124 -0.3187  0.8975  1.6748
  144MOL0     H19847  -1.017   4.508  12.296  0.3192 -0.6286  0.6470
  144MOL0     H19848  -1.211   4.462  12.081  1.6472 -1.6682  1.7594
  144MOL0     H19849  -1.203   4.614  12.179 -0.9198  1.1665  4.0192
  144MOL0     H19850  -1.205   4.430  12.375 -1.0033  0.7005  0.2484
  144MOL0     H19851  -1.281   4.323  12.265 -0.8112 -0.1809 -0.7693
  144MOL0     H19852  -0.830   3.927  11.432  0.5464  0.7702  0.2603
  144MOL0     H19853  -0.635   3.796  11.350  2.0077  0.8391 -0.6000
  144MOL0     H19854  -0.182   3.721  11.578  2.1081 -1.3898  0.1607
  144MOL0     H19855   0.045   3.638  11.567  0.0564  0.6656  0.1279
  144MOL0     H19856   1.569   2.974  11.167  0.8026  1.0260  0.5330
  144MOL0     H19857   1.799   2.990  11.153 -3.0827 -2.6004  2.2880
  144MOL0     H19858   2.240   2.858  11.203  0.3922  1.3429  0.0042
  144MOL0     H19859   2.494   2.872  11.157  0.4219 -1.4433 -1.3151
  144MOL0     H19860   2.701   3.080  11.110 -1.8010 -1.1299  0.0561
  144MOL0     H19861   2.696   2.916  11.141 -0.5339 -0.4973 -0.1542
  144MOL0     H19862   2.921   2.983  11.070  1.3116 -3.6362 -0.6621
  144MOL0     H19863   2.857   3.041  10.913  0.8230 -0.4082 -1.1768
  144MOL0     H19864   2.877   2.762  11.018 -1.0421  2.9082  2.7126
  144MOL0     H19865   2.801   2.781  10.877 -1.7628 -1.3909  2.8410
  144MOL0     H19866   3.093   2.848  10.955 -1.9514  1.6351  0.6499
  144MOL0     H19867   3.026   2.920  10.811 -1.4318  0.9011  1.3686
  144MOL0     H19868   3.145   2.506  10.723 -0.2336  0.9826 -1.5634
  144MOL0     H19869   2.417   2.988  10.755 -0.4094 -2.6310  0.2391
  144MOL0     H19870   2.077   2.889  10.724 -3.6213  2.6572 -0.5039
  144MOL0     H19871   2.121   3.062  10.742 -3.2392 -1.7769  1.5420
  144MOL0     H19872   2.222   2.942  10.648 -0.3021 -1.0739 -0.0458
  145MOL0     O19873   1.383   8.842   7.161  0.3029 -0.7772  0.0653
  145MOL0     C19874   1.470   8.799   7.239  0.2593 -0.2308 -0.1199
  145MOL0     O19875   1.587   8.858   7.273  0.2367  0.1035  0.4680
  145MOL0     C19876   1.617   8.994   7.247  0.4507  1.0006 -0.2340
  145MOL0     C19877   1.728   9.032   7.174  0.3602 -0.4753  0.1808
  145MOL0     C19878   1.755   9.166   7.144 -0.2457 -0.1801  0.5446
  145MOL0     C19879   1.671   9.268   7.190 -0.5360  1.1001  0.0186
  145MOL0     O19880   1.679   9.405   7.164  0.4553 -0.3256  1.1631
  145MOL0     C19881   1.804   9.463   7.128  0.7054  0.4755 -0.1697
  145MOL0     C19882   1.805   9.467   6.971 -0.8178  0.6285 -0.0373
  145MOL0     C19883   1.950   9.489   6.916 -0.3470  0.3888 -0.5925
  145MOL0     C19884   1.952   9.491   6.768 -0.3334  0.3150  0.4827
  145MOL0     C19885   2.099   9.492   6.702  0.1605  0.2539 -0.3191
  145MOL0     C19886   2.205   9.593   6.764 -0.0532 -0.1355 -0.0403
  145MOL0     C19887   2.320   9.619   6.665  0.4491 -0.0152 -0.6395
  145MOL0     C19888   2.377   9.486   6.615  0.2259 -0.6422  1.0336
  145MOL0     N19889   2.491   9.510   6.531  0.1458  0.3288 -0.2784
  145MOL0     C19890   2.630   9.512   6.561 -0.4363  0.4430  0.6431
  145MOL0     C19891   2.687   9.501   6.433 -0.6130 -0.0306  0.0571
  145MOL0     C19892   2.832   9.477   6.412 -0.1847 -0.3465  0.4915
  145MOL0     C19893   2.876   9.370   6.318 -0.5335 -0.0468  0.4662
  145MOL0     C19894   2.876   9.227   6.377  0.2376 -0.0956  0.0032
  145MOL0     C19895   2.906   9.118   6.273  0.0117  0.1653  0.6798
  145MOL0     O19896   2.874   8.985   6.337  0.0078 -0.0936 -0.0068
  145MOL0     C19897   2.827   8.883   6.261 -0.0440 -0.1108  0.5158
  145MOL0     C19898   2.853   8.888   6.120  0.1301  0.1520  0.3537
  145MOL0     C19899   2.817   8.789   6.036  0.5123 -0.2272  0.7350
  145MOL0     C19900   2.823   8.810   5.887 -0.7749  0.0975 -0.2641
  145MOL0     C19901   2.748   8.675   6.089  0.2053  0.2461 -0.6690
  145MOL0     C19902   2.691   8.563   6.002 -0.6714 -0.5254  0.3832
  145MOL0     O19903   2.593   8.483   6.053 -0.2812  0.7855 -0.3590
  145MOL0     C19904   2.566   8.365   5.995 -0.2362  0.2100 -0.1978
  145MOL0     C19905   2.516   8.351   5.865  0.0103 -0.1089  0.1984
  145MOL0     C19906   2.498   8.219   5.814  0.5949  0.5403  0.8537
  145MOL0     C19907   2.539   8.105   5.882 -0.2642 -0.5313  0.3602
  145MOL0     O19908   2.529   7.975   5.850  0.4151 -0.1137 -0.4317
  145MOL0     C19909   2.443   7.918   5.750  0.5558  0.5777  0.8963
  145MOL0     C19910   2.477   7.765   5.741 -0.7761 -0.4160 -0.7574
  145MOL0     C19911   2.433   7.702   5.873  0.3897 -0.2916 -0.0436
  145MOL0     C19912   2.432   7.546   5.867 -0.1590  0.7519  0.5097
  145MOL0     C19913   2.403   7.497   6.015  0.6121 -0.6589 -0.2385
  145MOL0     C19914   2.266   7.521   6.088 -0.2906 -0.3490  0.2895
  145MOL0     C19915   2.261   7.401   6.187  0.3108  0.7160 -0.0665
  145MOL0     C19916   2.159   7.448   6.287 -0.3386  0.2046  0.2591
  145MOL0    Cl19917   2.143   7.348   6.427 -0.0930 -0.5462 -0.1619
  145MOL0     C19918   2.586   8.124   6.008  0.0879  0.2405 -0.0473
  145MOL0     C19919   2.610   8.250   6.065  0.1392  0.0104 -0.6008
  145MOL0     O19920   2.747   8.543   5.894 -0.6774  0.2351  0.6141
  145MOL0     C19921   2.727   8.666   6.235 -0.2993  0.1756 -0.1535
  145MOL0     C19922   2.766   8.772   6.316  0.5293  0.3061 -0.8325
  145MOL0     N19923   2.593   9.505   6.337 -0.4668 -0.5133  0.3829
  145MOL0     N19924   2.476   9.498   6.397 -0.2172  0.3112 -0.2178
  145MOL0     C19925   1.562   9.234   7.273 -0.3966  0.0074  0.2209
  145MOL0     C19926   1.531   9.099   7.301 -0.3912 -0.6279 -0.2779
  145MOL0     C19927   1.444   8.670   7.301  0.1733  0.2649 -0.0657
  145MOL0     C19928   1.539   8.563   7.301 -0.4966  0.5099 -0.7985
  145MOL0     C19929   1.506   8.434   7.344 -1.1454 -0.3948 -0.0096
  145MOL0     C19930   1.381   8.404   7.398 -0.8367  0.2903 -0.1486
  145MOL0     O19931   1.333   8.279   7.428  0.3095 -0.0807 -0.3564
  145MOL0     C19932   1.424   8.168   7.402  0.2757 -0.0291 -0.0922
  145MOL0     C19933   1.345   8.036   7.413  0.2941  0.8726 -0.3867
  145MOL0     C19934   1.241   8.013   7.297  0.6973 -0.2440 -0.3150
  145MOL0     C19935   1.158   7.891   7.321  0.1860  0.2012  0.3815
  145MOL0     C19936   1.042   7.885   7.232  0.4504  0.1323 -0.3886
  145MOL0     C19937   0.959   7.860   7.149 -0.0471 -0.5206 -0.1184
  145MOL0     C19938   1.288   8.509   7.398  0.3244 -0.6188 -0.3865
  145MOL0     C19939   1.317   8.647   7.356 -0.7013  0.1803  0.1506
  145MOL0     C19940   1.208   8.751   7.373 -0.8618  0.6290 -0.6577
  145MOL0     H19941   1.805   8.959   7.150  1.1421  0.5822 -0.6123
  145MOL0     H19942   1.841   9.180   7.078  0.8087 -5.2411  0.4278
  145MOL0     H19943   1.887   9.407   7.172  0.8676  1.6322  1.0950
  145MOL0     H19944   1.806   9.568   7.159  2.1041  0.7877 -1.2351
  145MOL0     H19945   1.772   9.372   6.927 -0.0432  0.2812  0.1097
  145MOL0     H19946   1.734   9.545   6.942  0.4723  2.6252  1.8752
  145MOL0     H19947   2.007   9.572   6.959  2.1230 -0.8518 -1.2742
  145MOL0     H19948   2.011   9.403   6.945  0.3257  1.3279  0.9074
  145MOL0     H19949   1.900   9.407   6.720  1.8550 -0.8155 -0.0347
  145MOL0     H19950   1.901   9.583   6.739  1.1428  1.0833  0.2139
  145MOL0     H19951   2.086   9.510   6.594 -0.0432  0.0493 -0.3285
  145MOL0     H19952   2.135   9.390   6.718 -1.6519 -0.1842  1.3102
  145MOL0     H19953   2.143   9.676   6.800 -1.3943 -0.9598 -0.3404
  145MOL0     H19954   2.250   9.546   6.851  4.2226 -1.2302 -2.5562
  145MOL0     H19955   2.394   9.686   6.710 -0.1289 -1.3535  2.5801
  145MOL0     H19956   2.284   9.685   6.585 -1.4860  0.3931  0.5024
  145MOL0     H19957   2.408   9.435   6.707 -0.0013  1.9599  2.6575
  145MOL0     H19958   2.306   9.417   6.569  0.2455 -1.9840  2.8934
  145MOL0     H19959   2.679   9.502   6.657  0.4756 -1.3541  0.0307
  145MOL0     H19960   2.874   9.445   6.507  0.7515 -0.0407  0.1869
  145MOL0     H19961   2.869   9.577   6.388  2.1446 -0.0690  4.3663
  145MOL0     H19962   2.802   9.371   6.237  1.4466  1.4878 -1.4273
  145MOL0     H19963   2.976   9.384   6.278 -1.1169 -1.2679 -1.5572
  145MOL0     H19964   2.962   9.220   6.444  1.8990  3.5073 -1.5114
  145MOL0     H19965   2.778   9.198   6.416 -0.1129 -1.6311 -1.8357
  145MOL0     H19966   2.847   9.143   6.184  0.8779  0.8672  0.2843
  145MOL0     H19967   3.014   9.129   6.257 -0.1236 -1.1943 -1.8133
  145MOL0     H19968   2.907   8.965   6.066  1.0331 -1.9174 -1.9152
  145MOL0     H19969   2.837   8.917   5.865 -3.7851  0.7909  0.7484
  145MOL0     H19970   2.727   8.782   5.843 -0.2012 -1.1580 -0.7480
  145MOL0     H19971   2.905   8.743   5.863  0.0310 -1.7653  5.9768
  145MOL0     H19972   2.476   8.437   5.813 -5.0612 -0.6023  2.7146
  145MOL0     H19973   2.481   8.211   5.707  1.0732 -0.4928  0.8410
  145MOL0     H19974   2.341   7.928   5.788 -0.8937 -0.1677 -2.4388
  145MOL0     H19975   2.452   7.980   5.661 -0.6704  1.2948  1.2575
  145MOL0     H19976   2.414   7.720   5.664 -2.2845 -0.3089  0.3571
  145MOL0     H19977   2.582   7.759   5.715 -0.6035  3.4860 -1.6627
  145MOL0     H19978   2.325   7.718   5.879  0.4999  0.6836 -0.4078
  145MOL0     H19979   2.480   7.749   5.960  1.9359  0.9669 -1.4979
  145MOL0     H19980   2.528   7.507   5.832 -0.7863 -0.8804  0.5460
  145MOL0     H19981   2.362   7.503   5.795 -1.4419 -0.4756  2.4095
  145MOL0     H19982   2.408   7.388   6.002  1.7198 -0.4371 -2.1201
  145MOL0     H19983   2.475   7.528   6.092  1.5977  3.0439 -2.4074
  145MOL0     H19984   2.185   7.535   6.016 -1.5201 -0.8406  1.5325
  145MOL0     H19985   2.271   7.617   6.139  0.0381 -1.1613  1.8673
  145MOL0     H19986   2.346   7.379   6.252 -0.7690 -0.1834  1.0814
  145MOL0     H19987   2.220   7.311   6.140 -2.2608  1.1557  1.2044
  145MOL0     H19988   2.062   7.466   6.241  0.3681 -0.5965 -1.6402
  145MOL0     H19989   2.194   7.544   6.326  2.3401  0.5969 -2.7338
  145MOL0     H19990   2.609   8.044   6.078  2.1713 -0.1560 -1.1026
  145MOL0     H19991   2.654   8.248   6.164 -2.4207 -0.8561  0.5968
  145MOL0     H19992   2.676   8.579   6.276 -1.6152  0.2804 -1.4531
  145MOL0     H19993   2.738   8.762   6.420 -0.1105 -2.4371 -1.1711
  145MOL0     H19994   1.500   9.319   7.300 -0.1551  0.1783  0.2373
  145MOL0     H19995   1.443   9.075   7.360 -0.5019 -2.9477 -1.2435
  145MOL0     H19996   1.640   8.584   7.267 -0.4769  0.4161 -0.7962
  145MOL0     H19997   1.586   8.361   7.340  0.4417  1.2402  0.6482
  145MOL0     H19998   1.487   8.168   7.313  1.5021 -1.5584  0.7262
  145MOL0     H19999   1.506   8.169   7.474 -0.1643 -0.9193  0.4437
  145MOL0     H20000   1.280   8.024   7.500 -1.0093 -0.6521 -1.5154
  145MOL0     H20001   1.413   7.951   7.427  1.0226  1.5204  0.1291
  145MOL0     H20002   1.174   8.099   7.303  1.9197  0.7240 -0.2380
  145MOL0     H20003   1.287   8.006   7.198 -0.2519 -1.8459 -0.6837
  145MOL0     H20004   1.111   7.897   7.420 -2.3212  1.4465 -0.7921
  145MOL0     H20005   1.211   7.798   7.301  1.2960  1.1862 -1.5490
  145MOL0     H20006   0.895   7.824   7.072 -0.5504  0.3246 -0.1088
  145MOL0     H20007   1.193   8.492   7.448 -0.5451  1.4059 -1.2359
  145MOL0     H20008   1.151   8.771   7.281  0.7433  0.0012 -1.8324
  145MOL0     H20009   1.134   8.719   7.447 -0.7734  0.7386 -0.5206
  145MOL0     H20010   1.262   8.841   7.406  2.0500 -1.1433 -0.2650
  146MOL0     O20011  10.925   7.750   8.947  0.1103 -0.1357 -0.2525
  146MOL0     C20012  10.972   7.713   9.051 -0.5707  0.0591 -1.1247
  146MOL0     O20013  10.900   7.669   9.157  0.3392  0.5602  0.2120
  146MOL0     C20014  10.762   7.663   9.138  0.6399  0.7599 -0.4612
  146MOL0     C20015  10.683   7.755   9.200  0.2832  0.7923 -0.3211
  146MOL0     C20016  10.548   7.764   9.178 -0.7642  0.3202  0.6745
  146MOL0     C20017  10.481   7.671   9.099 -0.3482 -0.0017 -0.3409
  146MOL0     O20018  10.341   7.662   9.102  0.1007  0.0954 -0.0532
  146MOL0     C20019  10.292   7.532   9.121 -0.0418  0.0378  0.5939
  146MOL0     C20020  10.136   7.554   9.125 -0.1013 -0.5228  0.4444
  146MOL0     C20021  10.072   7.528   8.987 -0.0140  0.5722  0.0406
  146MOL0     C20022   9.923   7.499   9.002  0.5839  0.1693  0.2612
  146MOL0     C20023   9.848   7.504   8.867 -1.2059  0.6244 -0.4108
  146MOL0     C20024   9.695   7.514   8.884  0.0041 -0.0810 -0.3974
  146MOL0     C20025   9.647   7.423   8.997 -0.1242 -0.1401 -0.4488
  146MOL0     C20026   9.497   7.386   8.975  0.4127  0.8952 -0.0100
  146MOL0     N20027   9.411   7.503   8.991  1.0226 -0.1499  0.4764
  146MOL0     C20028   9.358   7.584   8.899 -0.2503 -0.8295 -0.0450
  146MOL0     C20029   9.280   7.678   8.963 -0.3599  0.3886  1.1253
  146MOL0     C20030   9.208   7.781   8.880 -0.5624 -0.1018  0.3245
  146MOL0     C20031   9.294   7.894   8.827 -0.1360 -0.0386 -0.7725
  146MOL0     C20032   9.214   7.993   8.742 -0.8995 -0.0059  0.3630
  146MOL0     C20033   9.318   8.076   8.662  0.2369  0.6683 -0.3030
  146MOL0     O20034   9.426   8.127   8.740 -0.3891  0.8127 -0.2100
  146MOL0     C20035   9.539   8.175   8.678  0.4894  0.5433  0.0904
  146MOL0     C20036   9.562   8.162   8.535 -0.6310  0.7086  0.1737
  146MOL0     C20037   9.678   8.213   8.478 -0.1665 -0.8792  0.3707
  146MOL0     C20038   9.703   8.197   8.327 -0.2654  0.4877 -0.3004
  146MOL0     C20039   9.783   8.269   8.567  0.3081  0.3303 -0.4596
  146MOL0     C20040   9.907   8.349   8.524  1.3253 -0.0015  0.2692
  146MOL0     O20041   9.974   8.409   8.626  0.3510 -0.6496  0.5750
  146MOL0     C20042  10.107   8.400   8.624 -0.2774 -0.8461  0.6272
  146MOL0     C20043  10.165   8.507   8.694 -0.1042 -0.2530  0.8593
  146MOL0     C20044  10.305   8.509   8.727 -0.1245  0.3059 -0.1199
  146MOL0     C20045  10.390   8.412   8.677  1.0226 -0.0060  0.4148
  146MOL0     O20046  10.523   8.417   8.681  0.8509  0.3754 -0.5248
  146MOL0     C20047  10.573   8.368   8.805 -0.5894 -0.4269  0.1157
  146MOL0     C20048  10.629   8.490   8.884  0.2015 -0.1987 -0.1096
  146MOL0     C20049  10.750   8.449   8.965  0.3213 -0.4700  0.8180
  146MOL0     C20050  10.794   8.558   9.068  0.1809  0.5074  0.6174
  146MOL0     C20051  10.933   8.512   9.121 -0.4965  0.0196 -0.3987
  146MOL0     C20052  10.984   8.598   9.244 -0.1340  0.1179 -0.0881
  146MOL0     C20053  11.120   8.544   9.303 -0.6114  0.3112 -0.0810
  146MOL0     C20054  11.205   8.643   9.399 -0.7623  0.2865  0.0840
  146MOL0    Cl20055  11.094   8.696   9.517  0.0981 -0.2340  0.3773
  146MOL0     C20056  10.336   8.308   8.604  0.2837  1.0159 -0.0173
  146MOL0     C20057  10.192   8.297   8.576 -0.7222 -0.7436  0.0095
  146MOL0     O20058   9.944   8.345   8.403  0.4442 -0.4360 -0.3379
  146MOL0     C20059   9.759   8.264   8.706  0.2261  0.1963 -0.3759
  146MOL0     C20060   9.639   8.219   8.758  0.3648 -0.0795 -0.2347
  146MOL0     N20061   9.275   7.642   9.091 -0.7154  0.4036 -0.7634
  146MOL0     N20062   9.361   7.542   9.109  0.0321  0.2764 -0.0809
  146MOL0     C20063  10.566   7.577   9.030 -0.0102  0.3699 -0.8277
  146MOL0     C20064  10.704   7.572   9.052  0.1413  0.5961 -0.5742
  146MOL0     C20065  11.115   7.735   9.071  0.3017  0.0293  0.1438
  146MOL0     C20066  11.186   7.797   8.965 -0.2430 -0.2466  0.0991
  146MOL0     C20067  11.323   7.819   8.981 -0.0753  0.2850 -0.1196
  146MOL0     C20068  11.394   7.794   9.106  1.0443  0.1854  0.6598
  146MOL0     O20069  11.534   7.798   9.123 -0.2558  0.3676 -0.1990
  146MOL0     C20070  11.620   7.870   9.030 -0.5541  0.2785 -0.0402
  146MOL0     C20071  11.742   7.912   9.108 -0.1147 -0.7440 -0.2474
  146MOL0     C20072  11.719   8.024   9.203 -0.2247 -0.3890 -0.0380
  146MOL0     C20073  11.681   8.153   9.138  0.5919 -0.7031 -0.0027
  146MOL0     C20074  11.651   8.255   9.238  0.0185 -0.6954  0.0232
  146MOL0     C20075  11.634   8.342   9.323  0.3447 -0.1970  0.0445
  146MOL0     C20076  11.317   7.743   9.210  0.0003 -0.2529 -0.3894
  146MOL0     C20077  11.182   7.708   9.196 -0.0166  0.0877 -0.9511
  146MOL0     C20078  11.133   7.632   9.313 -0.2482  0.6579  0.0685
  146MOL0     H20079  10.724   7.826   9.271  0.1568  0.2045  0.3482
  146MOL0     H20080  10.495   7.844   9.228  1.6969  0.0271  4.1320
  146MOL0     H20081  10.339   7.497   9.213  2.1467 -0.0182 -0.4658
  146MOL0     H20082  10.312   7.456   9.044 -0.0265  0.7072 -0.0714
  146MOL0     H20083  10.093   7.470   9.181 -1.3131 -2.0624 -2.5346
  146MOL0     H20084  10.118   7.653   9.167 -2.3923 -1.6677  2.4194
  146MOL0     H20085  10.092   7.614   8.922 -1.2881  2.6763  2.2620
  146MOL0     H20086  10.111   7.442   8.932  2.8377  2.7261 -1.5877
  146MOL0     H20087   9.921   7.399   9.047  0.9484  0.2420  0.4456
  146MOL0     H20088   9.876   7.558   9.081  2.0711 -0.5782  1.7689
  146MOL0     H20089   9.878   7.417   8.808  3.5625  1.0394  0.9344
  146MOL0     H20090   9.889   7.589   8.812 -2.0112  2.5185  1.7389
  146MOL0     H20091   9.670   7.617   8.913 -1.2719  0.2572 -2.5168
  146MOL0     H20092   9.647   7.487   8.789 -1.4324 -1.2697  0.6191
  146MOL0     H20093   9.660   7.492   9.081 -4.5158 -0.1469  0.4687
  146MOL0     H20094   9.714   7.338   9.014 -0.6278 -0.7433 -1.3567
  146MOL0     H20095   9.491   7.360   8.869 -0.0019  0.4520  0.1243
  146MOL0     H20096   9.468   7.297   9.031  0.8778 -0.4963 -1.8628
  146MOL0     H20097   9.389   7.578   8.796 -1.8134  3.1588 -0.9352
  146MOL0     H20098   9.129   7.819   8.945 -0.0388 -1.0278  1.5452
  146MOL0     H20099   9.167   7.731   8.792  2.5296 -1.2467 -0.6299
  146MOL0     H20100   9.334   7.948   8.913 -0.2062  0.3617 -0.9894
  146MOL0     H20101   9.381   7.856   8.774  2.3671  1.8972  1.6299
  146MOL0     H20102   9.148   7.938   8.675  0.1048  2.1374 -2.6606
  146MOL0     H20103   9.155   8.053   8.812 -2.9255 -2.1128  0.5489
  146MOL0     H20104   9.362   8.000   8.596 -0.3469  0.3493 -0.3302
  146MOL0     H20105   9.259   8.147   8.604 -1.4644 -0.0818  0.4360
  146MOL0     H20106   9.489   8.112   8.473 -0.4400 -0.5218  0.9069
  146MOL0     H20107   9.611   8.171   8.274 -0.7755  0.2393  0.6884
  146MOL0     H20108   9.782   8.122   8.319 -0.2744  0.3528  0.7381
  146MOL0     H20109   9.725   8.294   8.283 -2.2555  0.9650 -0.3254
  146MOL0     H20110  10.086   8.574   8.727  0.4367  0.2002  1.2353
  146MOL0     H20111  10.353   8.595   8.772 -1.7027  0.3097  1.6332
  146MOL0     H20112  10.494   8.316   8.860 -0.5126  1.3014  1.9774
  146MOL0     H20113  10.658   8.303   8.783 -1.4112 -3.0305  3.6917
  146MOL0     H20114  10.665   8.566   8.814 -1.0103 -0.2469 -0.8264
  146MOL0     H20115  10.553   8.531   8.951 -0.9899 -2.2647 -0.1064
  146MOL0     H20116  10.834   8.436   8.895 -0.3599  0.7331 -0.2671
  146MOL0     H20117  10.722   8.359   9.021 -1.1814 -0.3250  0.3421
  146MOL0     H20118  10.716   8.570   9.145 -2.8577 -1.2117 -1.9425
  146MOL0     H20119  10.802   8.653   9.016 -2.6168  0.6973  0.3945
  146MOL0     H20120  10.941   8.404   9.136  2.9782  0.2902  0.5122
  146MOL0     H20121  10.996   8.528   9.034 -2.1186  1.3817 -1.3747
  146MOL0     H20122  10.908   8.588   9.322  2.2813 -0.9499  2.2715
  146MOL0     H20123  10.988   8.701   9.209 -1.4059  0.0944 -0.3387
  146MOL0     H20124  11.184   8.518   9.218  0.3527 -1.5950  1.1598
  146MOL0     H20125  11.110   8.451   9.360 -3.2726  0.9272  0.5977
  146MOL0     H20126  11.235   8.735   9.347  2.2080 -1.6197 -1.8829
  146MOL0     H20127  11.293   8.593   9.439  0.0163  1.4317 -0.1307
  146MOL0     H20128  10.402   8.225   8.581  0.1225  0.4267  1.5451
  146MOL0     H20129  10.163   8.207   8.524 -1.0316 -1.1711  0.9099
  146MOL0     H20130   9.833   8.292   8.780  1.7175  0.0126 -1.7245
  146MOL0     H20131   9.624   8.206   8.864 -0.2746 -1.1110 -0.4423
  146MOL0     H20132  10.527   7.501   8.963  1.6978 -0.2102 -1.2336
  146MOL0     H20133  10.769   7.493   9.015 -0.3032 -0.6016  1.1218
  146MOL0     H20134  11.144   7.833   8.871 -1.6704 -1.1851  0.3501
  146MOL0     H20135  11.383   7.854   8.898 -2.3129 -0.1177 -2.0194
  146MOL0     H20136  11.648   7.795   8.956 -1.9167  1.0189 -1.3647
  146MOL0     H20137  11.565   7.951   8.982 -1.2760 -0.7230 -0.9450
  146MOL0     H20138  11.809   7.956   9.033  0.6945 -0.3596  0.6819
  146MOL0     H20139  11.789   7.822   9.148  1.8379  1.0899  1.8443
  146MOL0     H20140  11.633   8.001   9.267 -1.3530  3.8462  0.2889
  146MOL0     H20141  11.810   8.040   9.261  0.0952 -0.3874 -0.5345
  146MOL0     H20142  11.597   8.147   9.069  0.6743  0.1954 -0.1961
  146MOL0     H20143  11.762   8.190   9.075  0.5830  2.5330  1.6423
  146MOL0     H20144  11.604   8.418   9.393 -2.3370 -0.5862 -0.5901
  146MOL0     H20145  11.377   7.726   9.298  1.4388  1.4070 -0.9893
  146MOL0     H20146  11.095   7.708   9.382 -0.1784  1.6087 -0.9131
  146MOL0     H20147  11.057   7.562   9.279 -0.2704  0.4470  0.5428
  146MOL0     H20148  11.219   7.579   9.357  0.9829  0.3245 -2.5409
  147MOL0     O20149  11.237   7.317  10.708  0.4142 -0.0944  0.1580
  147MOL0     C20150  11.152   7.238  10.746  0.1287 -0.2331 -0.6426
  147MOL0     O20151  11.169   7.104  10.760 -0.1965 -0.7729 -0.3787
  147MOL0     C20152  11.302   7.062  10.777 -0.6399 -0.7097  0.1059
  147MOL0     C20153  11.372   7.100  10.891  0.2199  0.0647 -0.3199
  147MOL0     C20154  11.505   7.052  10.911 -0.2646 -0.2868 -0.6625
  147MOL0     C20155  11.563   6.971  10.804 -0.6079 -1.3056 -0.3491
  147MOL0     O20156  11.689   6.927  10.804  0.6498  0.1556 -0.6701
  147MOL0     C20157  11.761   6.965  10.915 -0.1664  0.0962  0.0062
  147MOL0     C20158  11.899   6.897  10.926 -0.5483 -0.2557 -0.5088
  147MOL0     C20159  11.886   6.748  10.915  0.2575  0.2914  0.1454
  147MOL0     C20160  12.023   6.680  10.914 -0.6044 -0.0184 -0.2509
  147MOL0     C20161  12.019   6.536  10.880  0.5354  0.2503 -0.0717
  147MOL0     C20162  12.151   6.488  10.827 -0.0510  0.0020  0.1017
  147MOL0     C20163  12.137   6.339  10.766 -0.5099  0.6771  0.9903
  147MOL0     C20164  12.262   6.316  10.669  0.0642 -0.7742 -0.3113
  147MOL0     N20165  12.390   6.269  10.725 -0.1434 -0.5981 -0.6540
  147MOL0     C20166  12.485   6.349  10.791 -0.5139 -0.3052  0.2042
  147MOL0     C20167  12.580   6.263  10.845  0.1833 -0.5052 -0.4973
  147MOL0     C20168  12.711   6.286  10.911 -0.6190  0.0913 -0.0097
  147MOL0     C20169  12.827   6.266  10.814 -0.3553 -0.0480 -0.1234
  147MOL0     C20170  12.824   6.387  10.711  0.6094  0.7145 -0.6776
  147MOL0     C20171  12.925   6.393  10.602 -0.1970 -0.0691 -0.2941
  147MOL0     O20172  12.906   6.288  10.510  0.3088  0.6197 -0.3254
  147MOL0     C20173  12.943   6.292  10.380  0.3859  0.1697  0.2917
  147MOL0     C20174  13.021   6.398  10.327 -0.5265 -0.2505 -0.4474
  147MOL0     C20175  13.049   6.405  10.194  0.2249 -0.6479 -0.3847
  147MOL0     C20176  13.109   6.541  10.149  0.4761 -0.0568 -0.8719
  147MOL0     C20177  13.012   6.292  10.108  0.5182 -0.8392 -0.0207
  147MOL0     C20178  13.039   6.304   9.957 -0.3038 -0.5078 -0.8683
  147MOL0     O20179  13.078   6.186   9.901  0.2583 -0.2751 -0.0963
  147MOL0     C20180  13.117   6.180   9.768 -0.6607  0.3008  0.3337
  147MOL0     C20181  13.031   6.225   9.667  0.1529 -0.4284  0.0119
  147MOL0     C20182  13.075   6.231   9.531  0.7396 -0.1565 -0.1053
  147MOL0     C20183  13.208   6.198   9.491  0.3190 -0.9693  0.0583
  147MOL0     O20184  13.254   6.202   9.360  0.0490  0.1265 -0.4736
  147MOL0     C20185  13.341   6.092   9.333  0.1272  0.6185  0.0714
  147MOL0     C20186  13.402   6.109   9.187  0.6579  0.2654  0.3941
  147MOL0     C20187  13.283   6.100   9.081  1.0584 -0.1172 -0.2583
  147MOL0     C20188  13.299   6.164   8.935 -0.0241  1.1247 -0.6585
  147MOL0     C20189  13.325   6.044   8.837  0.0877 -0.5698 -0.3749
  147MOL0     C20190  13.465   5.997   8.838 -0.1764 -0.2632  0.8107
  147MOL0     C20191  13.502   5.891   8.738 -0.1966  0.7077  0.6126
  147MOL0     C20192  13.463   5.917   8.588 -0.3144  0.0308 -0.4090
  147MOL0    Cl20193  13.518   5.787   8.470  0.3072 -0.1139 -0.2212
  147MOL0     C20194  13.291   6.153   9.596  0.4944  0.2088 -0.2575
  147MOL0     C20195  13.246   6.138   9.728  0.8221  0.1335  0.1945
  147MOL0     O20196  13.013   6.409   9.899  0.9404  0.8667  0.1168
  147MOL0     C20197  12.941   6.189  10.163 -0.0810  0.1253 -0.4993
  147MOL0     C20198  12.904   6.184  10.300 -0.2253  0.1481  1.0557
  147MOL0     N20199  12.526   6.137  10.825  0.5529 -0.0599 -0.4843
  147MOL0     N20200  12.417   6.140  10.755 -0.2677  0.0113  0.0183
  147MOL0     C20201  11.484   6.924  10.701  0.1491  1.1513  0.0532
  147MOL0     C20202  11.351   6.957  10.700  0.2899 -0.1483  0.0515
  147MOL0     C20203  11.023   7.297  10.785  0.4011  0.8949 -0.2244
  147MOL0     C20204  11.021   7.377  10.906 -0.3062 -0.3810  0.3824
  147MOL0     C20205  10.896   7.421  10.953 -0.6998  0.4366 -0.8025
  147MOL0     C20206  10.774   7.382  10.896  0.6070 -0.4918 -0.3609
  147MOL0     O20207  10.658   7.428  10.956  0.3784 -0.6724  0.1629
  147MOL0     C20208  10.533   7.374  10.921  0.0061 -0.4245  0.2000
  147MOL0     C20209  10.508   7.239  10.981 -0.0922  0.6744 -0.7206
  147MOL0     C20210  10.363   7.197  10.958 -0.1946 -0.0342  0.1019
  147MOL0     C20211  10.340   7.161  10.807  0.8028 -0.0204  1.0412
  147MOL0     C20212  10.415   7.037  10.768 -0.0206  0.2731  0.2665
  147MOL0     C20213  10.464   6.928  10.737 -0.9139 -0.0381 -0.2091
  147MOL0     C20214  10.781   7.310  10.779 -0.2446 -0.6264  0.5680
  147MOL0     C20215  10.902   7.257  10.726 -0.4246 -0.6168 -0.5732
  147MOL0     C20216  10.894   7.169  10.609  0.3035  0.4489 -0.6698
  147MOL0     H20217  11.334   7.175  10.960 -2.5183 -0.1801 -1.4356
  147MOL0     H20218  11.561   7.090  10.995  3.1692  0.6201 -3.1423
  147MOL0     H20219  11.701   6.934  11.002 -0.8997 -0.7205 -0.7763
  147MOL0     H20220  11.771   7.074  10.922 -0.1200  0.0261  1.4832
  147MOL0     H20221  11.960   6.941  10.846 -0.4289  0.1320 -0.2099
  147MOL0     H20222  11.958   6.920  11.016  1.7214  3.2232 -2.6439
  147MOL0     H20223  11.823   6.705  10.993  0.0155 -0.6709 -0.5640
  147MOL0     H20224  11.838   6.730  10.818  0.0251  2.0959 -0.1177
  147MOL0     H20225  12.080   6.732  10.837 -1.0759 -1.3486 -1.5295
  147MOL0     H20226  12.070   6.689  11.013  0.9254 -1.5904 -0.8005
  147MOL0     H20227  11.939   6.510  10.811 -0.7004  1.5727  0.8074
  147MOL0     H20228  11.986   6.491  10.974  1.9522  0.2138  0.4419
  147MOL0     H20229  12.183   6.557  10.748  1.1597  1.0605  1.4555
  147MOL0     H20230  12.229   6.491  10.903  0.4066 -1.4346 -0.2783
  147MOL0     H20231  12.046   6.326  10.706 -1.2153  0.3483  2.0920
  147MOL0     H20232  12.131   6.263  10.845 -1.3869 -0.2454  0.0700
  147MOL0     H20233  12.225   6.235  10.606 -1.6955 -1.9236  2.0219
  147MOL0     H20234  12.289   6.407  10.614  0.9915  0.2375  1.6928
  147MOL0     H20235  12.487   6.458  10.791 -0.5008 -0.3059  0.4129
  147MOL0     H20236  12.708   6.215  10.994  1.3610 -0.5426 -0.4239
  147MOL0     H20237  12.719   6.385  10.957  1.6678 -0.9236  2.0037
  147MOL0     H20238  12.925   6.253  10.860  0.4475  1.7962 -1.2137
  147MOL0     H20239  12.802   6.172  10.762  0.7703 -0.2210 -0.3681
  147MOL0     H20240  12.732   6.416  10.661  0.1056 -0.4097 -0.4339
  147MOL0     H20241  12.852   6.468  10.779 -1.3165 -0.6650  1.9457
  147MOL0     H20242  12.910   6.492  10.558 -0.5306  0.0207  0.0256
  147MOL0     H20243  13.029   6.382  10.635  0.1721  0.2265 -1.2903
  147MOL0     H20244  13.060   6.470  10.397  0.0317  1.0293 -2.0066
  147MOL0     H20245  13.033   6.609  10.109  0.8960  0.9096 -0.0737
  147MOL0     H20246  13.177   6.520  10.067 -1.7454 -1.1019 -2.5620
  147MOL0     H20247  13.158   6.584  10.237 -0.3710  0.6463 -0.7199
  147MOL0     H20248  12.937   6.268   9.700  0.6893  1.7148 -1.0688
  147MOL0     H20249  13.009   6.255   9.449  1.0124  4.2584  0.7237
  147MOL0     H20250  13.426   6.075   9.400 -1.0935 -2.5805  1.0150
  147MOL0     H20251  13.279   6.001   9.331 -0.4180  0.9977 -0.8049
  147MOL0     H20252  13.459   6.201   9.178  1.0850  0.1157  1.4613
  147MOL0     H20253  13.467   6.022   9.170  0.1882  0.3384 -2.1723
  147MOL0     H20254  13.197   6.136   9.139  0.5999 -1.0622 -0.3244
  147MOL0     H20255  13.261   5.993   9.067  0.4894 -0.2847  1.6054
  147MOL0     H20256  13.379   6.238   8.938  2.7247 -1.6650 -1.0797
  147MOL0     H20257  13.205   6.217   8.914  1.4424  3.2056 -2.3842
  147MOL0     H20258  13.265   5.955   8.861 -0.7300  0.5107  1.9525
  147MOL0     H20259  13.281   6.062   8.739 -1.4818 -4.2796 -0.5155
  147MOL0     H20260  13.503   5.972   8.938  0.8768  2.9903  1.3469
  147MOL0     H20261  13.518   6.088   8.806 -2.6951  1.1781  0.4774
  147MOL0     H20262  13.452   5.802   8.775  0.3595  0.4620  0.7813
  147MOL0     H20263  13.609   5.867   8.729 -0.4875  0.0743 -2.3428
  147MOL0     H20264  13.513   6.009   8.555 -0.2880  0.3250  0.4425
  147MOL0     H20265  13.355   5.927   8.578 -0.6295 -3.2855 -1.6719
  147MOL0     H20266  13.395   6.123   9.589  0.9049  1.5454 -0.2750
  147MOL0     H20267  13.319   6.111   9.804  1.8445  0.2443 -0.7255
  147MOL0     H20268  12.905   6.118  10.089  0.3020 -0.5061 -0.0843
  147MOL0     H20269  12.855   6.094  10.336 -0.3639  0.6061  2.0473
  147MOL0     H20270  11.530   6.855  10.631 -0.5726 -0.4780  1.1276
  147MOL0     H20271  11.303   6.920  10.610  2.6963 -1.9959 -0.5950
  147MOL0     H20272  11.111   7.407  10.957 -0.5165  0.0851  0.4876
  147MOL0     H20273  10.912   7.468  11.050  1.3175  0.4825 -1.1136
  147MOL0     H20274  10.456   7.444  10.953 -0.5924 -0.8335 -0.3134
  147MOL0     H20275  10.523   7.364  10.812 -1.8268  0.5797  0.2478
  147MOL0     H20276  10.528   7.243  11.088  1.2416 -0.0983 -0.9219
  147MOL0     H20277  10.580   7.168  10.939  0.9827  1.1128  0.3315
  147MOL0     H20278  10.348   7.115  11.029  1.7178  1.5959  2.5416
  147MOL0     H20279  10.305   7.283  10.993 -1.4433 -0.8901  0.2302
  147MOL0     H20280  10.372   7.242  10.742  2.5931  0.2531  2.1811
  147MOL0     H20281  10.234   7.143  10.791  0.5466  1.4359  0.9723
  147MOL0     H20282  10.505   6.835  10.704 -2.2342 -0.8315  0.3099
  147MOL0     H20283  10.686   7.283  10.733  0.2807 -2.6687  0.5757
  147MOL0     H20284  10.799   7.116  10.604 -0.2183  1.4487 -2.3059
  147MOL0     H20285  10.903   7.228  10.517  0.3098  1.8671  0.2035
  147MOL0     H20286  10.968   7.088  10.614 -2.3967 -2.0890  1.3088
  148MOL0     O20287   0.697   6.165   4.662  0.3904  1.4202  0.3349
  148MOL0     C20288   0.691   6.068   4.590  0.1787  0.6677 -0.5099
  148MOL0     O20289   0.574   6.006   4.547  0.1019 -0.4382 -0.2060
  148MOL0     C20290   0.457   6.073   4.577 -0.4202  0.2946  0.2996
  148MOL0     C20291   0.411   6.158   4.486  0.6745 -0.3788  0.1099
  148MOL0     C20292   0.301   6.233   4.507  0.0010  0.3995 -0.5323
  148MOL0     C20293   0.232   6.222   4.632 -0.5677 -0.8010  0.2440
  148MOL0     O20294   0.120   6.295   4.651  0.9370  0.0864 -0.0937
  148MOL0     C20295   0.012   6.208   4.710  0.1890  0.0885 -0.6652
  148MOL0     C20296  -0.120   6.260   4.662  1.0644 -0.9852  1.5586
  148MOL0     C20297  -0.128   6.258   4.505  0.0574 -0.1141 -0.6383
  148MOL0     C20298  -0.149   6.398   4.447  0.8966  0.6396 -0.3250
  148MOL0     C20299  -0.116   6.421   4.295  0.2612 -0.2190 -0.1950
  148MOL0     C20300  -0.154   6.563   4.255 -0.0606  0.6592 -0.2108
  148MOL0     C20301  -0.307   6.582   4.219 -0.6208  0.2217  0.3949
  148MOL0     C20302  -0.378   6.653   4.338  0.6830 -0.4764  0.8239
  148MOL0     N20303  -0.338   6.790   4.349  0.0940 -0.2188 -0.0427
  148MOL0     C20304  -0.342   6.891   4.257  0.0350 -0.8069  1.2027
  148MOL0     C20305  -0.315   7.002   4.322 -0.4650  0.5262  0.6204
  148MOL0     C20306  -0.282   7.133   4.259 -0.7820  0.1934  0.4970
  148MOL0     C20307  -0.196   7.222   4.357 -0.3370 -0.5682  1.4855
  148MOL0     C20308  -0.128   7.333   4.263  0.6350  0.0959 -0.3122
  148MOL0     C20309  -0.032   7.423   4.333 -0.2899 -0.0774 -0.0649
  148MOL0     O20310   0.098   7.364   4.373 -0.1484 -0.1376 -0.6134
  148MOL0     C20311   0.202   7.345   4.285 -0.7246  1.0994  0.7111
  148MOL0     C20312   0.311   7.277   4.329  0.8651 -0.0514  1.1213
  148MOL0     C20313   0.421   7.251   4.253  0.2306  0.6284  0.6758
  148MOL0     C20314   0.534   7.186   4.320  0.3388 -0.3468  0.5702
  148MOL0     C20315   0.415   7.291   4.119 -0.5908 -0.3333  0.6904
  148MOL0     C20316   0.520   7.261   4.018 -0.8904 -0.2869  0.4633
  148MOL0     O20317   0.632   7.201   4.067  0.7590 -0.7309  0.6262
  148MOL0     C20318   0.733   7.156   3.981  0.1102 -0.0532  0.4044
  148MOL0     C20319   0.726   7.113   3.845  0.2680  0.0059 -0.7174
  148MOL0     C20320   0.847   7.093   3.765  0.1605 -0.1098  0.7908
  148MOL0     C20321   0.971   7.096   3.831 -0.0267 -0.6629  0.2672
  148MOL0     O20322   1.087   7.073   3.763  0.1263  0.3829  0.6956
  148MOL0     C20323   1.087   6.953   3.684  0.1162  0.4050 -0.1729
  148MOL0     C20324   1.226   6.924   3.639  0.3614 -0.8596  0.3264
  148MOL0     C20325   1.245   6.786   3.563  0.0047  0.8227 -0.3496
  148MOL0     C20326   1.396   6.764   3.536  0.1952 -0.1769  1.2054
  148MOL0     C20327   1.426   6.627   3.457  0.6821  0.1152 -0.3008
  148MOL0     C20328   1.400   6.647   3.301 -0.7026  0.2369 -0.1076
  148MOL0     C20329   1.255   6.615   3.258  0.2480 -0.1664 -0.3907
  148MOL0     C20330   1.220   6.470   3.260  0.4848  0.7547 -0.0741
  148MOL0    Cl20331   1.342   6.384   3.176 -0.2096  0.6303 -0.0965
  148MOL0     C20332   0.978   7.131   3.968 -0.2593  1.2806 -0.1489
  148MOL0     C20333   0.859   7.167   4.042 -0.8883 -0.2940  0.2319
  148MOL0     O20334   0.514   7.310   3.906 -0.6167 -0.4473  0.9915
  148MOL0     C20335   0.302   7.361   4.073  0.0808  0.1831  0.0223
  148MOL0     C20336   0.197   7.392   4.155 -0.2133 -0.7016 -0.2727
  148MOL0     N20337  -0.305   6.971   4.451 -1.3929 -0.2671 -0.4184
  148MOL0     N20338  -0.305   6.849   4.470  0.2076  0.6333 -0.2690
  148MOL0     C20339   0.279   6.121   4.722  0.9451 -1.3226  0.5930
  148MOL0     C20340   0.392   6.043   4.698  0.4222 -0.4586  0.1600
  148MOL0     C20341   0.815   5.998   4.556 -0.1736 -0.3988 -0.1129
  148MOL0     C20342   0.792   5.888   4.473  0.0118 -0.4765  0.1552
  148MOL0     C20343   0.905   5.820   4.419  0.5139  0.3905 -0.7357
  148MOL0     C20344   1.041   5.854   4.450  0.7392 -0.2281 -0.5909
  148MOL0     O20345   1.147   5.795   4.384  0.4463  0.4737 -0.4672
  148MOL0     C20346   1.139   5.654   4.338 -0.7109 -0.6603 -0.0465
  148MOL0     C20347   1.085   5.634   4.199  0.3321 -0.6046 -0.0172
  148MOL0     C20348   0.984   5.508   4.190 -0.9069  0.2067 -0.3039
  148MOL0     C20349   0.885   5.530   4.076 -0.0514  0.3748 -0.2112
  148MOL0     C20350   0.804   5.648   4.090 -0.8112  0.3463 -0.4640
  148MOL0     C20351   0.753   5.753   4.099  0.6786  0.4041  0.2576
  148MOL0     C20352   1.061   5.962   4.532  0.4536  0.2224 -0.1137
  148MOL0     C20353   0.946   6.037   4.588 -0.6807  0.3110  0.0531
  148MOL0     C20354   0.979   6.148   4.673 -0.5840  0.1911 -0.2730
  148MOL0     H20355   0.473   6.167   4.397  2.8366  0.0723  1.5666
  148MOL0     H20356   0.260   6.281   4.418 -1.6970 -1.8367 -1.0408
  148MOL0     H20357   0.018   6.221   4.818 -0.2339  1.6829 -0.8139
  148MOL0     H20358   0.026   6.103   4.682  1.7576  0.0150  0.2975
  148MOL0     H20359  -0.200   6.203   4.709 -0.8886  1.6976  1.7241
  148MOL0     H20360  -0.125   6.363   4.698  0.7400  0.2584 -1.6913
  148MOL0     H20361  -0.031   6.221   4.469  0.3839  0.7418 -0.6735
  148MOL0     H20362  -0.201   6.180   4.481 -0.6273  0.3698 -0.1571
  148MOL0     H20363  -0.256   6.415   4.459  0.5973 -0.4343 -1.2518
  148MOL0     H20364  -0.094   6.473   4.505  2.2050  0.9571 -1.8820
  148MOL0     H20365  -0.173   6.358   4.226  0.3109  0.4993 -0.9121
  148MOL0     H20366  -0.010   6.406   4.271  0.2060 -3.0284  0.9777
  148MOL0     H20367  -0.111   6.646   4.312 -1.2432 -0.2237  2.0567
  148MOL0     H20368  -0.100   6.567   4.159  0.3073 -1.5405 -0.1322
  148MOL0     H20369  -0.368   6.491   4.213 -0.6208  0.2551 -0.1920
  148MOL0     H20370  -0.316   6.645   4.130 -0.6270  2.6758  2.0194
  148MOL0     H20371  -0.485   6.666   4.322  0.3111 -2.0581  1.8089
  148MOL0     H20372  -0.361   6.613   4.438  0.1711  1.7523  1.8733
  148MOL0     H20373  -0.359   6.880   4.151 -3.7201  4.2741  0.9189
  148MOL0     H20374  -0.374   7.184   4.232 -0.2563  1.0339  0.2697
  148MOL0     H20375  -0.226   7.121   4.166  0.6979 -1.0666  1.4898
  148MOL0     H20376  -0.250   7.263   4.443  0.0373 -1.5611  2.2080
  148MOL0     H20377  -0.116   7.170   4.410 -1.1846 -1.4687  1.9040
  148MOL0     H20378  -0.080   7.278   4.182  0.2393  0.7870 -1.0370
  148MOL0     H20379  -0.212   7.389   4.219  0.7340 -0.5937 -1.4181
  148MOL0     H20380  -0.020   7.507   4.264  1.1468  0.9027  1.3034
  148MOL0     H20381  -0.081   7.465   4.422 -0.3863 -0.0550 -0.1287
  148MOL0     H20382   0.304   7.255   4.435  1.3977 -2.2885  0.7563
  148MOL0     H20383   0.517   7.182   4.428  0.9381  1.5653  0.7598
  148MOL0     H20384   0.625   7.245   4.312  1.6292 -2.0179  2.0235
  148MOL0     H20385   0.546   7.083   4.285  2.8326  0.2102 -0.4675
  148MOL0     H20386   0.626   7.107   3.803 -1.5857 -1.1583  3.3645
  148MOL0     H20387   0.834   7.075   3.659 -2.5917 -0.0681  1.0335
  148MOL0     H20388   1.044   6.870   3.742 -0.1260  0.9703  0.4782
  148MOL0     H20389   1.030   6.952   3.590 -0.5801 -3.0574  0.1436
  148MOL0     H20390   1.266   7.008   3.581  0.6205 -0.7464  0.6688
  148MOL0     H20391   1.283   6.926   3.732  0.1872  2.0088  0.4487
  148MOL0     H20392   1.191   6.799   3.469 -1.5192  0.9903  0.5082
  148MOL0     H20393   1.191   6.705   3.612 -1.0587  1.0562 -1.1112
  148MOL0     H20394   1.458   6.764   3.625 -0.5599 -1.9353  1.7606
  148MOL0     H20395   1.428   6.846   3.470 -4.8896  0.0592 -1.5116
  148MOL0     H20396   1.535   6.619   3.447  0.7392  2.1053 -1.9933
  148MOL0     H20397   1.372   6.544   3.503  2.1533 -0.4818  0.4222
  148MOL0     H20398   1.462   6.576   3.246  1.2607  0.3105  1.8605
  148MOL0     H20399   1.442   6.746   3.282  1.7004 -0.1932  2.3943
  148MOL0     H20400   1.247   6.646   3.154 -2.3831 -1.0342 -0.4967
  148MOL0     H20401   1.174   6.666   3.312 -0.5941 -3.5052  1.7916
  148MOL0     H20402   1.123   6.464   3.209  0.7003  0.1968 -0.4279
  148MOL0     H20403   1.197   6.431   3.360  1.9910  0.4281  0.1674
  148MOL0     H20404   1.075   7.110   4.013 -1.1482 -1.7128  0.6240
  148MOL0     H20405   0.862   7.196   4.147 -0.9007  0.1524  0.1103
  148MOL0     H20406   0.281   7.386   3.970 -1.4167  3.7749  1.0423
  148MOL0     H20407   0.116   7.446   4.107 -1.3466 -0.3932  1.8549
  148MOL0     H20408   0.221   6.090   4.808  1.4982 -1.7686  0.8178
  148MOL0     H20409   0.434   5.969   4.765  1.7105 -0.6170 -0.7856
  148MOL0     H20410   0.696   5.853   4.436  0.6556 -1.7865 -0.3717
  148MOL0     H20411   0.876   5.737   4.356  3.6033 -3.2893  2.1876
  148MOL0     H20412   1.237   5.607   4.344  0.9352  2.6386  3.6629
  148MOL0     H20413   1.080   5.606   4.417 -2.7269  4.7027  2.1777
  148MOL0     H20414   1.171   5.622   4.132 -0.1007 -0.9978 -0.4994
  148MOL0     H20415   1.034   5.723   4.163  2.5026  0.5694 -0.4015
  148MOL0     H20416   1.042   5.416   4.182  1.9028  1.8850 -0.8460
  148MOL0     H20417   0.929   5.500   4.284  1.7563 -3.8987  1.1737
  148MOL0     H20418   0.826   5.440   4.058 -0.9579  1.2284 -1.7451
  148MOL0     H20419   0.933   5.552   3.980 -4.5092  3.3939 -2.0533
  148MOL0     H20420   0.703   5.848   4.089 -0.5962 -0.1374  1.1816
  148MOL0     H20421   1.164   5.995   4.541  0.8163 -1.4148  2.9876
  148MOL0     H20422   0.928   6.125   4.767  1.1528  0.8806  0.8832
  148MOL0     H20423   1.088   6.148   4.687 -0.5570  0.8643 -0.4311
  148MOL0     H20424   0.950   6.243   4.627  0.8157 -0.5524 -2.8866
  149MOL0     O20425   7.151   3.164   2.216  0.2559 -0.1052  0.1179
  149MOL0     C20426   7.082   3.201   2.122  0.2727 -0.0125 -0.3943
  149MOL0     O20427   7.115   3.300   2.035  0.2393  0.6118 -0.4041
  149MOL0     C20428   7.236   3.367   2.064  0.3769  1.0345 -0.4634
  149MOL0     C20429   7.234   3.504   2.104 -0.1908  0.3977  1.1076
  149MOL0     C20430   7.349   3.564   2.155 -0.5446  0.4812 -0.4126
  149MOL0     C20431   7.471   3.491   2.153  0.7488  0.5483 -0.0515
  149MOL0     O20432   7.586   3.561   2.203 -0.4045  0.6087  0.1875
  149MOL0     C20433   7.722   3.517   2.186  0.2813 -0.2065 -0.5249
  149MOL0     C20434   7.830   3.614   2.226 -1.3181  0.5298  0.0854
  149MOL0     C20435   7.962   3.548   2.245 -0.7783  0.2304  0.0843
  149MOL0     C20436   8.070   3.646   2.299 -0.1148  0.6175  0.4784
  149MOL0     C20437   8.116   3.748   2.181  0.1964  0.3664 -0.8265
  149MOL0     C20438   8.254   3.818   2.209  0.1642  0.1633 -0.2652
  149MOL0     C20439   8.304   3.894   2.090 -0.2080 -0.1388  1.0021
  149MOL0     C20440   8.211   4.019   2.056  0.6543  0.0755  1.0179
  149MOL0     N20441   8.255   4.099   1.943 -0.0284 -0.2028 -0.7274
  149MOL0     C20442   8.341   4.075   1.838  0.3684 -0.8046  0.4951
  149MOL0     C20443   8.343   4.195   1.768  0.9627  0.4770  0.9843
  149MOL0     C20444   8.420   4.230   1.648 -1.2215 -0.1366  0.0590
  149MOL0     C20445   8.538   4.318   1.694 -0.0965 -0.0968 -0.0320
  149MOL0     C20446   8.640   4.229   1.758  0.3342 -0.0033  0.7774
  149MOL0     C20447   8.772   4.291   1.779 -1.4187 -1.2559 -0.0488
  149MOL0     O20448   8.763   4.420   1.845  0.0852 -0.4404 -0.5487
  149MOL0     C20449   8.866   4.520   1.824  0.3113  0.9008  0.3148
  149MOL0     C20450   8.854   4.650   1.866 -0.3329  0.2499  0.4696
  149MOL0     C20451   8.957   4.743   1.850 -0.8461  0.1109  0.1153
  149MOL0     C20452   8.950   4.883   1.912  0.3121 -0.3834 -0.0115
  149MOL0     C20453   9.086   4.696   1.816  0.4635 -1.0191 -0.5405
  149MOL0     C20454   9.211   4.790   1.814  0.5646  0.0517  0.2613
  149MOL0     O20455   9.205   4.933   1.792 -0.4695 -0.2691 -0.7342
  149MOL0     C20456   9.325   4.997   1.770  0.2414  0.3177 -0.6500
  149MOL0     C20457   9.372   5.025   1.641 -0.1854  0.8667 -0.0087
  149MOL0     C20458   9.479   5.109   1.626 -0.0565  0.3645  0.7156
  149MOL0     C20459   9.553   5.157   1.737 -0.0512 -0.0139 -0.4054
  149MOL0     O20460   9.660   5.229   1.712  0.4958 -0.0046 -0.0342
  149MOL0     C20461   9.768   5.247   1.808 -0.6393  0.0710 -0.2635
  149MOL0     C20462   9.840   5.356   1.740 -1.2177  0.2571  0.3480
  149MOL0     C20463   9.971   5.390   1.805 -0.3011  0.8387 -0.3538
  149MOL0     C20464  10.052   5.495   1.723  0.5417  0.0705  0.0224
  149MOL0     C20465  10.171   5.547   1.802  0.4513  0.9328  0.1316
  149MOL0     C20466  10.284   5.448   1.814  0.6919 -0.2367  0.3421
  149MOL0     C20467  10.396   5.528   1.871 -0.1694 -0.4884 -0.4757
  149MOL0     C20468  10.529   5.442   1.897 -0.4668 -0.8271  0.1897
  149MOL0    Cl20469  10.497   5.335   2.022 -0.3500  0.0759 -0.6047
  149MOL0     C20470   9.508   5.132   1.870 -0.8934  0.3733 -1.2374
  149MOL0     C20471   9.394   5.045   1.884 -0.3385 -0.6916 -0.5554
  149MOL0     O20472   9.312   4.734   1.835 -0.2143 -0.0835 -0.1722
  149MOL0     C20473   9.094   4.573   1.763  0.0717  0.6293  0.1024
  149MOL0     C20474   8.989   4.477   1.768 -0.2157 -1.1248  0.2894
  149MOL0     N20475   8.248   4.278   1.817 -0.2407  0.1485  0.0790
  149MOL0     N20476   8.187   4.210   1.905 -0.0593 -0.3018  0.5887
  149MOL0     C20477   7.480   3.371   2.081 -0.6146  0.5967  0.1696
  149MOL0     C20478   7.363   3.303   2.051  0.2716 -0.5412  0.0142
  149MOL0     C20479   6.946   3.134   2.116  0.7879 -0.1062  0.9937
  149MOL0     C20480   6.911   3.034   2.208  0.6558 -0.0897 -0.4183
  149MOL0     C20481   6.786   2.976   2.206  0.2777 -0.5430  0.1293
  149MOL0     C20482   6.701   2.998   2.100 -0.7924 -0.5504 -1.1616
  149MOL0     O20483   6.573   2.938   2.106 -0.1211 -0.7630 -0.4198
  149MOL0     C20484   6.555   2.841   2.001 -0.4952  0.2806  0.2661
  149MOL0     C20485   6.487   2.892   1.877 -0.8261  1.1202  0.0342
  149MOL0     C20486   6.374   3.001   1.897  0.3283  0.1142  0.0547
  149MOL0     C20487   6.267   2.956   1.997 -0.8250 -0.1806  0.5231
  149MOL0     C20488   6.189   2.838   1.951 -0.1777 -0.4996  0.0067
  149MOL0     C20489   6.126   2.750   1.912  0.2238  0.3331 -0.3443
  149MOL0     C20490   6.733   3.099   2.012  0.2575  0.2774  1.0679
  149MOL0     C20491   6.846   3.174   2.023  0.3294  0.2171  0.8112
  149MOL0     C20492   6.864   3.297   1.948 -0.3458 -0.0322 -0.3393
  149MOL0     H20493   7.139   3.558   2.101 -0.0268  0.6619 -1.9478
  149MOL0     H20494   7.348   3.664   2.196 -0.1852  1.6163 -2.9830
  149MOL0     H20495   7.737   3.496   2.080  0.3569  0.0857 -0.5727
  149MOL0     H20496   7.715   3.428   2.248  1.3925  0.7286  1.0311
  149MOL0     H20497   7.848   3.693   2.152 -3.0780 -1.4931 -2.7165
  149MOL0     H20498   7.806   3.666   2.319 -1.0783  1.7638 -0.5269
  149MOL0     H20499   7.954   3.462   2.311  2.6544  1.9782  3.1468
  149MOL0     H20500   7.990   3.511   2.146 -0.2563  1.5049 -0.2690
  149MOL0     H20501   8.038   3.699   2.389 -0.9515 -0.1852  0.6701
  149MOL0     H20502   8.159   3.590   2.326 -0.7022  0.4882  2.2596
  149MOL0     H20503   8.034   3.818   2.162 -1.7626 -1.6786 -0.3253
  149MOL0     H20504   8.125   3.680   2.096 -0.5536 -1.0163  0.1654
  149MOL0     H20505   8.251   3.888   2.293 -2.6529 -1.0048  0.7415
  149MOL0     H20506   8.330   3.743   2.237  4.6705  4.5604  0.7262
  149MOL0     H20507   8.307   3.831   2.001 -1.6793 -1.6851  1.9925
  149MOL0     H20508   8.407   3.928   2.100 -0.1064  0.8379 -2.2641
  149MOL0     H20509   8.106   3.992   2.035  0.9761  0.0344 -0.7377
  149MOL0     H20510   8.199   4.078   2.147 -1.9991  1.1640  0.0616
  149MOL0     H20511   8.407   3.991   1.818 -0.8373 -1.5613 -0.4523
  149MOL0     H20512   8.369   4.298   1.578 -2.1416  0.4017  1.2012
  149MOL0     H20513   8.458   4.138   1.605 -1.7906 -2.7487  4.4834
  149MOL0     H20514   8.578   4.376   1.610 -2.4477 -1.5213 -2.2693
  149MOL0     H20515   8.495   4.389   1.766 -2.3457 -0.0432 -1.3630
  149MOL0     H20516   8.613   4.193   1.858 -1.1031 -1.8390 -0.2225
  149MOL0     H20517   8.661   4.145   1.692 -1.4846  0.4393 -0.4171
  149MOL0     H20518   8.846   4.230   1.831  2.5578  1.4188 -2.0586
  149MOL0     H20519   8.820   4.305   1.682 -1.1060 -4.8514 -0.5535
  149MOL0     H20520   8.758   4.670   1.911 -1.4923 -1.5307 -1.0530
  149MOL0     H20521   8.843   4.888   1.934  0.1125 -3.7814  0.4127
  149MOL0     H20522   8.978   4.962   1.842 -1.9378  2.1199  1.7476
  149MOL0     H20523   9.013   4.887   2.002  0.5278  2.1289 -0.2175
  149MOL0     H20524   9.306   4.984   1.565 -1.9450  1.2909  1.2377
  149MOL0     H20525   9.508   5.140   1.526 -2.0652  3.4181  0.9453
  149MOL0     H20526   9.750   5.277   1.911  1.0682 -2.7992  1.0118
  149MOL0     H20527   9.834   5.160   1.815 -1.1135 -0.1764  1.6309
  149MOL0     H20528   9.865   5.343   1.634  0.5611  1.1051  0.6326
  149MOL0     H20529   9.777   5.445   1.745  0.8553  1.7966  0.3825
  149MOL0     H20530  10.017   5.290   1.805 -2.2801 -0.1681 -1.8783
  149MOL0     H20531   9.958   5.432   1.904  0.4293 -0.6460  0.4124
  149MOL0     H20532   9.990   5.583   1.703  0.5765  0.5691  1.8563
  149MOL0     H20533  10.065   5.454   1.623 -2.2095  0.0320 -0.3723
  149MOL0     H20534  10.204   5.642   1.759 -1.2169  1.4354 -0.1368
  149MOL0     H20535  10.144   5.550   1.908  1.4180  1.3393  0.3729
  149MOL0     H20536  10.317   5.412   1.717  2.8782 -3.1035  1.9955
  149MOL0     H20537  10.262   5.352   1.862  0.1788 -0.6330 -0.6547
  149MOL0     H20538  10.362   5.563   1.969 -0.7710 -0.6969 -0.6073
  149MOL0     H20539  10.427   5.611   1.807 -2.3934 -1.4819 -3.0313
  149MOL0     H20540  10.609   5.509   1.929  0.4588 -2.9839  2.7258
  149MOL0     H20541  10.555   5.401   1.799 -4.4784  0.9846 -1.9079
  149MOL0     H20542   9.553   5.165   1.963 -1.4267  0.8610 -1.1469
  149MOL0     H20543   9.358   5.032   1.986  0.3489 -0.2899 -0.2540
  149MOL0     H20544   9.177   4.546   1.698 -0.6578 -1.6010  0.0360
  149MOL0     H20545   9.003   4.378   1.727  0.7798 -1.3603  1.1784
  149MOL0     H20546   7.576   3.325   2.059 -0.2660  0.7188  1.3471
  149MOL0     H20547   7.358   3.201   2.015  4.8752 -0.7244 -0.7225
  149MOL0     H20548   6.968   3.009   2.297 -0.6434 -1.5010  0.0578
  149MOL0     H20549   6.751   2.905   2.281  1.4426 -1.5310 -0.2340
  149MOL0     H20550   6.652   2.793   1.985 -1.3590 -1.9224  1.1753
  149MOL0     H20551   6.491   2.758   2.035  2.1748 -1.6908  0.8056
  149MOL0     H20552   6.455   2.802   1.825  0.4711 -0.0300  1.1492
  149MOL0     H20553   6.560   2.938   1.811 -1.0010  3.4708  1.3291
  149MOL0     H20554   6.416   3.087   1.950 -1.8514  0.6136  1.0625
  149MOL0     H20555   6.329   3.041   1.806 -1.6406 -1.1801  0.4058
  149MOL0     H20556   6.201   3.043   2.009 -0.1891  0.5805 -1.1134
  149MOL0     H20557   6.311   2.939   2.095 -2.0099  1.9980  1.5154
  149MOL0     H20558   6.064   2.671   1.874  0.1393  0.8460 -1.3138
  149MOL0     H20559   6.653   3.131   1.946 -0.8763  1.3769  2.8864
  149MOL0     H20560   6.883   3.385   2.009 -3.2694 -1.1748  2.5035
  149MOL0     H20561   6.944   3.278   1.875 -1.0625 -2.3125 -0.6315
  149MOL0     H20562   6.778   3.320   1.884  0.9421  2.5497 -1.2731
  150MOL0     O20563   6.966   8.410   8.242 -0.0941  0.0047  0.3173
  150MOL0     C20564   6.884   8.471   8.311  0.0128  0.3865  0.6447
  150MOL0     O20565   6.788   8.416   8.381 -0.4747 -0.2392 -0.3766
  150MOL0     C20566   6.751   8.287   8.373  0.8158 -0.3093  0.1605
  150MOL0     C20567   6.707   8.235   8.494  0.1272  0.0330  0.1145
  150MOL0     C20568   6.652   8.102   8.502 -0.2196  0.4694 -0.5929
  150MOL0     C20569   6.644   8.021   8.387  0.1811  0.4001 -0.1102
  150MOL0     O20570   6.589   7.898   8.392 -0.8803  0.3438 -0.3010
  150MOL0     C20571   6.455   7.896   8.348 -0.0293  0.2235  1.6441
  150MOL0     C20572   6.405   7.763   8.299 -0.2105  0.2330  0.2178
  150MOL0     C20573   6.402   7.650   8.399 -0.0427 -0.3446  0.1969
  150MOL0     C20574   6.334   7.518   8.351  0.7204  0.1361 -0.4105
  150MOL0     C20575   6.411   7.442   8.245 -0.6387  0.5672  0.0090
  150MOL0     C20576   6.353   7.304   8.207  1.2653 -0.6904  0.2152
  150MOL0     C20577   6.419   7.251   8.073  0.1186 -0.1060 -0.6239
  150MOL0     C20578   6.566   7.217   8.092  0.0184 -0.2779 -0.5359
  150MOL0     N20579   6.609   7.081   8.051  0.1090 -0.1207  0.0999
  150MOL0     C20580   6.565   7.012   7.940  0.0303 -0.2322 -0.2682
  150MOL0     C20581   6.660   6.917   7.919  0.2706  0.3388  0.3002
  150MOL0     C20582   6.667   6.817   7.803 -0.4889 -0.1384  0.4692
  150MOL0     C20583   6.542   6.743   7.778  0.2936  0.0913 -0.0471
  150MOL0     C20584   6.568   6.649   7.662  0.2934  0.9738 -0.2500
  150MOL0     C20585   6.430   6.579   7.624 -0.5934  0.3900  0.4606
  150MOL0     O20586   6.357   6.667   7.533  0.2052  0.0163  0.4736
  150MOL0     C20587   6.244   6.617   7.485  0.0534 -0.7255 -0.2288
  150MOL0     C20588   6.135   6.704   7.458  0.4659 -0.2009 -0.8748
  150MOL0     C20589   6.022   6.669   7.393  0.1947 -0.4244  0.0787
  150MOL0     C20590   5.919   6.781   7.362  0.6705  0.3428 -0.4667
  150MOL0     C20591   5.998   6.528   7.364 -0.5466 -0.1393  0.0194
  150MOL0     C20592   5.884   6.453   7.308 -0.6519 -0.6910 -0.0961
  150MOL0     O20593   5.894   6.323   7.283  0.0061  0.1511  0.0259
  150MOL0     C20594   5.794   6.251   7.235 -0.4662  0.4534  0.5917
  150MOL0     C20595   5.833   6.161   7.128 -0.0126 -0.3366 -0.5118
  150MOL0     C20596   5.737   6.104   7.046  0.2832  0.3316  0.5054
  150MOL0     C20597   5.597   6.120   7.077 -0.5785  0.9327 -0.4230
  150MOL0     O20598   5.490   6.070   7.001 -0.2897 -0.7251  0.1432
  150MOL0     C20599   5.511   6.039   6.864 -0.4420 -0.0762  0.3408
  150MOL0     C20600   5.371   6.014   6.798  0.3632 -0.1775  0.8907
  150MOL0     C20601   5.399   5.955   6.652  0.8640 -0.2735  0.1436
  150MOL0     C20602   5.288   5.874   6.590 -0.9995  0.1201 -0.2805
  150MOL0     C20603   5.146   5.947   6.595 -0.4835 -0.6149 -0.3673
  150MOL0     C20604   5.036   5.887   6.511  0.5777 -0.1477  0.0337
  150MOL0     C20605   4.912   5.973   6.509 -1.0864  0.4078 -0.6290
  150MOL0     C20606   4.815   5.926   6.406 -1.0206 -0.5657 -0.4216
  150MOL0    Cl20607   4.863   5.988   6.240  0.1711  0.3113  0.0518
  150MOL0     C20608   5.567   6.196   7.197  0.1726 -0.4830 -0.1999
  150MOL0     C20609   5.662   6.270   7.270 -0.7598 -0.6622 -0.3327
  150MOL0     O20610   5.793   6.524   7.282  0.3243 -0.0318 -0.1919
  150MOL0     C20611   6.104   6.440   7.408 -0.2586  0.1307  0.4859
  150MOL0     C20612   6.224   6.485   7.455 -0.7335  0.6659  0.0592
  150MOL0     N20613   6.754   6.925   8.016 -0.3551  0.1966 -0.3211
  150MOL0     N20614   6.714   7.013   8.095 -0.0124  0.4698 -0.1525
  150MOL0     C20615   6.688   8.078   8.266  0.3696  1.0067  0.3166
  150MOL0     C20616   6.738   8.205   8.257 -0.5449  0.4606  0.1041
  150MOL0     C20617   6.911   8.617   8.341  0.0784  0.1397  0.4188
  150MOL0     C20618   6.871   8.658   8.474 -0.1913  0.1145  0.5158
  150MOL0     C20619   6.904   8.779   8.515 -0.2294 -0.2256  0.0502
  150MOL0     C20620   6.972   8.875   8.430 -0.2286 -0.1310 -1.1368
  150MOL0     O20621   6.999   9.002   8.472 -0.2847  0.2051 -0.2405
  150MOL0     C20622   7.015   9.035   8.607  0.3380  0.5834  0.1087
  150MOL0     C20623   6.969   9.179   8.623  0.5607 -0.1682 -0.6216
  150MOL0     C20624   6.835   9.220   8.575 -0.0930 -0.5128  0.5024
  150MOL0     C20625   6.839   9.352   8.491  1.0818  0.6634  0.5123
  150MOL0     C20626   6.877   9.463   8.583 -0.2689  0.8493 -0.5709
  150MOL0     C20627   6.911   9.547   8.666  0.0657 -0.9390  0.5466
  150MOL0     C20628   6.998   8.837   8.298 -0.1285 -0.4356 -0.0390
  150MOL0     C20629   6.967   8.711   8.250 -0.3202  0.4196  0.0970
  150MOL0     C20630   6.977   8.681   8.101  0.2899  0.6981  0.7351
  150MOL0     H20631   6.707   8.299   8.582 -1.4189  2.2770 -1.3858
  150MOL0     H20632   6.610   8.076   8.599  2.4579 -0.9307  0.2843
  150MOL0     H20633   6.438   7.964   8.264  0.5712 -2.0780 -0.4447
  150MOL0     H20634   6.388   7.925   8.429 -2.3575 -2.7475  0.9538
  150MOL0     H20635   6.302   7.777   8.267 -1.2867 -1.3571  2.7231
  150MOL0     H20636   6.464   7.733   8.211  0.6753 -3.0267  1.7546
  150MOL0     H20637   6.501   7.636   8.443 -0.9448 -1.0052  2.1269
  150MOL0     H20638   6.339   7.687   8.480  1.3716 -1.3368  1.8206
  150MOL0     H20639   6.312   7.456   8.438 -1.0472  1.6345  0.2741
  150MOL0     H20640   6.241   7.540   8.298  1.7838 -0.1187 -2.5022
  150MOL0     H20641   6.510   7.426   8.288 -0.7876  1.7127  0.7957
  150MOL0     H20642   6.416   7.508   8.158 -0.4150  2.6842  1.5551
  150MOL0     H20643   6.357   7.231   8.288 -0.9003  1.3698  2.3432
  150MOL0     H20644   6.244   7.311   8.200  1.2615 -1.7452 -1.1158
  150MOL0     H20645   6.393   7.312   7.986  0.4061  0.8452 -0.0537
  150MOL0     H20646   6.372   7.155   8.050  2.6638 -0.7346 -3.8854
  150MOL0     H20647   6.620   7.286   8.027  0.7635 -2.4147 -2.2877
  150MOL0     H20648   6.602   7.238   8.193 -1.8549  2.5968 -0.3494
  150MOL0     H20649   6.487   7.029   7.866 -0.1176 -1.7910 -0.5127
  150MOL0     H20650   6.752   6.752   7.825  0.6160  0.8390 -0.7246
  150MOL0     H20651   6.690   6.863   7.707  3.7439 -1.1682  0.8032
  150MOL0     H20652   6.510   6.695   7.871  1.8201  0.1066  0.5230
  150MOL0     H20653   6.466   6.813   7.740  0.2797  0.4699  0.6526
  150MOL0     H20654   6.609   6.701   7.575  0.4556  1.5985  0.1962
  150MOL0     H20655   6.642   6.573   7.690 -0.7962 -1.3163 -3.0987
  150MOL0     H20656   6.455   6.484   7.576 -0.0444  0.4040  0.7059
  150MOL0     H20657   6.373   6.556   7.714 -1.2343 -2.3523 -0.5515
  150MOL0     H20658   6.149   6.807   7.488 -2.9109 -0.4194  2.1232
  150MOL0     H20659   5.852   6.800   7.446  1.8027  1.9224  0.1285
  150MOL0     H20660   5.863   6.761   7.271  0.5771  1.2045 -0.6088
  150MOL0     H20661   5.974   6.866   7.320 -0.5989  0.2883 -2.3344
  150MOL0     H20662   5.937   6.136   7.114  0.5913  0.8013  1.4895
  150MOL0     H20663   5.754   6.023   6.975 -1.7338  0.3011 -0.0034
  150MOL0     H20664   5.565   6.115   6.807 -1.1635 -0.4520 -0.9017
  150MOL0     H20665   5.567   5.945   6.853 -0.5936  0.0492 -2.0678
  150MOL0     H20666   5.332   5.935   6.863 -0.4727  1.5647  2.6055
  150MOL0     H20667   5.305   6.101   6.793 -0.7357 -1.0159  0.2870
  150MOL0     H20668   5.485   5.888   6.658 -1.2376 -3.0845  1.6010
  150MOL0     H20669   5.439   6.032   6.585 -1.0142 -1.9600 -3.1968
  150MOL0     H20670   5.283   5.776   6.638 -0.1391  0.1368 -0.1254
  150MOL0     H20671   5.327   5.865   6.488 -1.0735 -0.8757 -0.2364
  150MOL0     H20672   5.108   5.964   6.696 -0.3076 -1.6789 -0.1097
  150MOL0     H20673   5.167   6.042   6.546  4.8020 -1.1709  0.2038
  150MOL0     H20674   5.011   5.789   6.553 -3.1494  0.3699 -0.5844
  150MOL0     H20675   5.078   5.866   6.412  2.8702  0.2389  0.8774
  150MOL0     H20676   4.928   6.080   6.496 -0.0491  0.2801 -0.4540
  150MOL0     H20677   4.873   5.959   6.611 -3.7067 -1.0367 -1.7304
  150MOL0     H20678   4.718   5.972   6.428  0.1518  1.2258  1.2993
  150MOL0     H20679   4.818   5.816   6.411 -0.5006 -0.5272  0.2915
  150MOL0     H20680   5.464   6.211   7.227  0.5772 -1.5920  1.9367
  150MOL0     H20681   5.630   6.339   7.348  0.6877 -0.5782  0.2202
  150MOL0     H20682   6.095   6.332   7.396 -1.2194  0.4122 -1.8442
  150MOL0     H20683   6.297   6.405   7.468 -3.0690 -1.4200  1.1826
  150MOL0     H20684   6.683   8.022   8.173  1.3021 -1.2726  1.5462
  150MOL0     H20685   6.785   8.244   8.167 -0.5938  2.1289  0.7565
  150MOL0     H20686   6.834   8.587   8.547  0.4959  0.4901  1.2495
  150MOL0     H20687   6.871   8.808   8.614 -0.4763  2.0885 -0.6424
  150MOL0     H20688   6.956   8.969   8.671  0.4107  1.6558  1.3173
  150MOL0     H20689   7.123   9.030   8.625  0.7335  2.0516 -1.4936
  150MOL0     H20690   7.045   9.241   8.574  0.9758  0.7582  1.1405
  150MOL0     H20691   6.969   9.200   8.730 -1.7904 -0.8007 -0.4269
  150MOL0     H20692   6.782   9.139   8.523  0.6770  0.7978 -2.5494
  150MOL0     H20693   6.772   9.249   8.659 -1.3025 -3.0876  0.5564
  150MOL0     H20694   6.736   9.368   8.457  0.1339 -0.4286  2.6253
  150MOL0     H20695   6.909   9.341   8.408  2.6799 -0.7358  1.9742
  150MOL0     H20696   6.949   9.614   8.741 -1.1883 -0.4020  0.7117
  150MOL0     H20697   7.042   8.907   8.227 -0.7467  1.1323  1.0505
  150MOL0     H20698   6.956   8.777   8.053 -1.9789  1.7857  3.5986
  150MOL0     H20699   7.072   8.641   8.064 -1.4993 -2.8490 -0.5558
  150MOL0     H20700   6.898   8.610   8.074  2.5905 -1.4166 -0.9295
  151MOL0     O20701  11.282  10.307   9.514 -0.4240  0.2017  0.1883
  151MOL0     C20702  11.235  10.243   9.420 -0.2238 -0.3223  0.3752
  151MOL0     O20703  11.319  10.170   9.333 -0.1120 -0.5664 -0.0757
  151MOL0     C20704  11.456  10.175   9.356 -0.3216 -0.5786  0.0679
  151MOL0     C20705  11.541  10.222   9.257 -0.3984 -0.3935  0.6643
  151MOL0     C20706  11.676  10.217   9.269  0.4618  0.5420  0.8498
  151MOL0     C20707  11.735  10.171   9.385  0.2115 -0.0721  0.5492
  151MOL0     O20708  11.875  10.168   9.385  0.0249 -0.0630  0.0957
  151MOL0     C20709  11.935  10.105   9.498 -0.4713  0.0201  0.6307
  151MOL0     C20710  12.080  10.079   9.464  0.2034  0.2661 -0.2371
  151MOL0     C20711  12.143  10.216   9.411  0.3360 -0.5618  0.8749
  151MOL0     C20712  12.294  10.188   9.399  0.1474  0.9011  1.0323
  151MOL0     C20713  12.387  10.292   9.323  0.1105 -0.0381  0.7387
  151MOL0     C20714  12.534  10.260   9.349 -0.3183 -0.9191  0.6060
  151MOL0     C20715  12.618  10.365   9.269  0.2358  0.1587 -0.0991
  151MOL0     C20716  12.761  10.320   9.239  0.0195  0.1185  0.7380
  151MOL0     N20717  12.849  10.306   9.350 -0.8926 -0.1336 -0.1160
  151MOL0     C20718  12.897  10.411   9.430 -0.6128 -0.2672  0.3545
  151MOL0     C20719  12.977  10.352   9.520  0.0790  0.0097  0.1480
  151MOL0     C20720  13.067  10.388   9.638  0.6144  0.1235 -0.1863
  151MOL0     C20721  13.190  10.455   9.580  0.3816  0.4945 -0.9135
  151MOL0     C20722  13.266  10.377   9.471  0.6185  0.9291 -0.3293
  151MOL0     C20723  13.306  10.232   9.510 -0.3435 -0.5221  0.3548
  151MOL0     O20724  13.381  10.248   9.631 -0.6855  0.0165 -0.3305
  151MOL0     C20725  13.429  10.132   9.694 -0.5627  0.5723  0.4305
  151MOL0     C20726  13.459  10.148   9.828 -0.0563  0.6725 -0.6241
  151MOL0     C20727  13.529  10.047   9.903  0.3528  0.5998  0.2454
  151MOL0     C20728  13.590  10.090  10.040  0.2377 -0.2342 -0.4671
  151MOL0     C20729  13.547   9.922   9.847 -0.9674 -0.6736 -0.2137
  151MOL0     C20730  13.602   9.802   9.926  0.0457  0.8442  0.7690
  151MOL0     O20731  13.624   9.689   9.839 -0.1653 -0.1620 -0.2990
  151MOL0     C20732  13.668   9.562   9.887  0.4589 -0.1898  0.0955
  151MOL0     C20733  13.714   9.529  10.018 -0.7436  0.3262  0.2431
  151MOL0     C20734  13.728   9.392  10.056  0.3909  0.6243  0.0822
  151MOL0     C20735  13.703   9.280   9.979 -0.0891  0.4036 -0.4184
  151MOL0     O20736  13.736   9.148  10.018  0.3100  0.1614 -0.8841
  151MOL0     C20737  13.737   9.039   9.924 -1.4055  0.2452  0.0619
  151MOL0     C20738  13.763   8.897   9.990 -0.6481  0.2588  0.4723
  151MOL0     C20739  13.898   8.888  10.066  0.2316  0.0514  0.8637
  151MOL0     C20740  13.889   8.927  10.215 -0.2381  0.3885 -0.4484
  151MOL0     C20741  14.027   8.937  10.292  1.0006  0.9494 -0.1350
  151MOL0     C20742  14.107   9.059  10.245  0.8685  0.7983 -0.3541
  151MOL0     C20743  14.248   9.031  10.308  0.1027  0.1577  0.0854
  151MOL0     C20744  14.348   9.114  10.226  0.0594 -0.6744  0.7837
  151MOL0    Cl20745  14.384   9.027  10.073  0.0397  0.0236 -0.1002
  151MOL0     C20746  13.667   9.315   9.849  0.0205  1.5910  0.4295
  151MOL0     C20747  13.650   9.446   9.802 -0.2894 -0.3738 -0.1537
  151MOL0     O20748  13.641   9.810  10.046  0.0429 -0.0415  0.0553
  151MOL0     C20749  13.527   9.899   9.710  0.3074 -0.4231  0.0155
  151MOL0     C20750  13.471  10.008   9.635  0.4751 -0.2071 -0.0442
  151MOL0     N20751  12.963  10.212   9.505 -0.3639 -0.2770  0.2994
  151MOL0     N20752  12.873  10.190   9.411 -0.2160 -0.5589  0.7115
  151MOL0     C20753  11.657  10.124   9.490  0.0757 -0.3114  0.4778
  151MOL0     C20754  11.516  10.132   9.478  1.4972 -0.5935 -0.7651
  151MOL0     C20755  11.091  10.219   9.408  0.0213  0.5442  0.3879
  151MOL0     C20756  11.042  10.146   9.289  0.3530 -0.5403 -0.2626
  151MOL0     C20757  10.907  10.121   9.277 -0.5277 -0.1365  0.0354
  151MOL0     C20758  10.816  10.161   9.369 -0.3452 -0.5653 -0.1532
  151MOL0     O20759  10.680  10.140   9.377  0.1152  0.5554 -0.6747
  151MOL0     C20760  10.622  10.063   9.268  0.2509  0.0345  0.0157
  151MOL0     C20761  10.474  10.077   9.244 -0.1899  0.1323 -0.0550
  151MOL0     C20762  10.385  10.013   9.344 -0.2093  0.0071 -0.2134
  151MOL0     C20763  10.240  10.017   9.280  0.5292  0.2518  0.6417
  151MOL0     C20764  10.214   9.952   9.151  0.1565  0.0664  0.5646
  151MOL0     C20765  10.213   9.897   9.043 -0.7451  0.4548  0.5148
  151MOL0     C20766  10.858  10.231   9.477 -1.1399  0.8661  0.3306
  151MOL0     C20767  10.992  10.274   9.495 -0.0830  0.6084  0.0796
  151MOL0     C20768  11.021  10.370   9.606 -0.2177 -0.2487 -0.4455
  151MOL0     H20769  11.505  10.258   9.161  1.6828  0.3089  0.1067
  151MOL0     H20770  11.736  10.251   9.185 -3.0254  0.6757 -1.7997
  151MOL0     H20771  11.894  10.007   9.525 -1.1978 -0.5911 -2.3768
  151MOL0     H20772  11.935  10.181   9.577  2.6565 -0.2961  1.0581
  151MOL0     H20773  12.146  10.065   9.550  1.3384  1.3321 -0.8854
  151MOL0     H20774  12.095  10.005   9.385  3.5398  0.7613 -0.2214
  151MOL0     H20775  12.101  10.254   9.317  1.6226  0.1098  0.5429
  151MOL0     H20776  12.134  10.298   9.483  0.4036  1.7916 -1.6061
  151MOL0     H20777  12.333  10.196   9.501  0.7608  1.6053  0.7457
  151MOL0     H20778  12.307  10.088   9.356 -0.4626  0.3855  2.0055
  151MOL0     H20779  12.369  10.396   9.354 -0.7715  0.2036 -0.5114
  151MOL0     H20780  12.359  10.276   9.219 -0.9896  0.3748  0.9516
  151MOL0     H20781  12.562  10.263   9.455  1.4036  1.1639  0.1629
  151MOL0     H20782  12.552  10.155   9.322 -1.6592 -1.1447  0.4997
  151MOL0     H20783  12.619  10.464   9.315  0.5707  0.6398 -1.1129
  151MOL0     H20784  12.574  10.383   9.170  0.9141 -0.1552 -0.4666
  151MOL0     H20785  12.752  10.222   9.191  2.0637  0.7023 -0.9808
  151MOL0     H20786  12.807  10.397   9.176 -2.3120  1.2120  0.2565
  151MOL0     H20787  12.876  10.517   9.424 -1.4023 -0.4889 -1.4493
  151MOL0     H20788  13.083  10.303   9.705 -2.7352  0.4687  1.2614
  151MOL0     H20789  13.014  10.453   9.708 -0.6988 -1.7916  0.6877
  151MOL0     H20790  13.169  10.551   9.533  0.5151  1.4176  0.8387
  151MOL0     H20791  13.259  10.463   9.665 -0.8308 -4.4226  0.9066
  151MOL0     H20792  13.209  10.370   9.378 -0.1703 -1.4364  0.2447
  151MOL0     H20793  13.347  10.441   9.437 -0.4036  1.2983 -2.2184
  151MOL0     H20794  13.224  10.159   9.518  0.2765 -1.1504  1.1133
  151MOL0     H20795  13.374  10.189   9.436  0.4862  0.9192  0.2553
  151MOL0     H20796  13.427  10.238   9.879 -4.9368 -0.6416 -0.8893
  151MOL0     H20797  13.552  10.041  10.130 -1.0451  1.8158  0.1507
  151MOL0     H20798  13.585  10.197  10.062  4.6359  0.1197 -0.1653
  151MOL0     H20799  13.695  10.058  10.033  0.2117 -0.1643 -1.3575
  151MOL0     H20800  13.744   9.602  10.093  1.3429 -0.4565  0.2203
  151MOL0     H20801  13.762   9.363  10.154  2.2010 -1.9075 -1.1781
  151MOL0     H20802  13.638   9.039   9.878 -1.3479 -2.4671 -0.2249
  151MOL0     H20803  13.818   9.049   9.851  1.2216 -3.3287  2.1596
  151MOL0     H20804  13.682   8.881  10.061  0.1111 -0.1020  1.2779
  151MOL0     H20805  13.758   8.818   9.914  1.5486  1.7920 -1.4001
  151MOL0     H20806  13.970   8.954  10.017 -1.3920  0.3353 -1.2772
  151MOL0     H20807  13.921   8.781  10.060 -0.1621  0.0709 -1.7439
  151MOL0     H20808  13.835   8.848  10.268 -2.0138  1.6994 -0.2437
  151MOL0     H20809  13.842   9.024  10.231  2.9477  1.7480  1.8148
  151MOL0     H20810  14.011   8.927  10.400  3.1778  1.8999  0.3330
  151MOL0     H20811  14.084   8.849  10.261  2.0257 -0.2144  4.2936
  151MOL0     H20812  14.059   9.157  10.260  1.6597  1.1886 -0.3213
  151MOL0     H20813  14.126   9.050  10.138  1.8581  0.8567 -0.1949
  151MOL0     H20814  14.275   8.925  10.308  1.3075  0.4414 -0.6873
  151MOL0     H20815  14.253   9.062  10.413 -1.1722 -0.8136  0.4577
  151MOL0     H20816  14.439   9.136  10.283 -0.9910 -1.2878  2.8190
  151MOL0     H20817  14.318   9.218  10.213  3.3374  0.3343  0.3418
  151MOL0     H20818  13.640   9.237   9.778 -1.4074  0.0904  2.5226
  151MOL0     H20819  13.606   9.455   9.703 -3.1099 -2.9851  0.7247
  151MOL0     H20820  13.544   9.810   9.650 -4.2818 -0.6321 -1.3704
  151MOL0     H20821  13.452   9.987   9.530 -0.7807 -0.9507  0.3032
  151MOL0     H20822  11.697  10.089   9.584  0.9438 -2.9108 -0.7533
  151MOL0     H20823  11.445  10.111   9.557  0.7373  1.4184 -0.8665
  151MOL0     H20824  11.102  10.106   9.208 -1.1280 -1.1181 -1.0989
  151MOL0     H20825  10.873  10.065   9.191 -1.2328  2.4583 -1.4797
  151MOL0     H20826  10.662  10.105   9.176  1.1513 -0.1173  0.3317
  151MOL0     H20827  10.653   9.958   9.274 -0.7053 -0.4032 -1.8539
  151MOL0     H20828  10.460  10.033   9.145 -0.0412  3.7369 -1.8675
  151MOL0     H20829  10.449  10.184   9.248  0.6829  0.3028  2.8793
  151MOL0     H20830  10.411   9.908   9.364 -1.8055 -0.2484  0.6275
  151MOL0     H20831  10.382  10.070   9.437  1.3965 -2.0266  1.1982
  151MOL0     H20832  10.222  10.123   9.261 -0.5136  0.3540  2.0389
  151MOL0     H20833  10.165   9.985   9.353  1.3689  0.5280  1.6512
  151MOL0     H20834  10.224   9.843   8.951  1.2863 -3.3052  2.6879
  151MOL0     H20835  10.772  10.247   9.542 -2.9902 -2.7000 -0.9994
  151MOL0     H20836  11.080  10.316   9.680 -2.2661 -2.6117 -0.4273
  151MOL0     H20837  11.075  10.454   9.561 -0.0743 -0.0249  0.1323
  151MOL0     H20838  10.926  10.407   9.646 -0.5815 -0.9523 -0.6458
  152MOL0     O20839   5.034   7.309  10.249  0.4817  0.1010  0.0672
  152MOL0     C20840   4.958   7.394  10.297 -0.2521 -0.8444  0.0856
  152MOL0     O20841   4.977   7.534  10.286 -0.6622  0.5468 -0.9294
  152MOL0     C20842   5.096   7.585  10.249 -1.0377 -1.0668 -0.8585
  152MOL0     C20843   5.107   7.646  10.134 -0.2774 -0.5264  0.3506
  152MOL0     C20844   5.227   7.705  10.094 -0.0166  0.7027  0.4376
  152MOL0     C20845   5.333   7.700  10.174  0.1285 -0.6461 -0.9425
  152MOL0     O20846   5.448   7.762  10.132  0.6715 -0.4942  0.8021
  152MOL0     C20847   5.543   7.807  10.232  0.1982 -0.7549  0.2207
  152MOL0     C20848   5.663   7.715  10.223 -0.1377 -0.8464  0.2724
  152MOL0     C20849   5.770   7.763  10.316 -0.7000 -0.1508 -0.7630
  152MOL0     C20850   5.884   7.659  10.312 -0.4953 -0.3259  0.1388
  152MOL0     C20851   5.994   7.685  10.413  0.7841  0.1451  0.1139
  152MOL0     C20852   6.078   7.557  10.411  0.5612 -0.4000  0.5122
  152MOL0     C20853   6.221   7.570  10.469 -1.0307 -0.5156 -0.3280
  152MOL0     C20854   6.293   7.440  10.427  0.5233  0.1986  0.0338
  152MOL0     N20855   6.412   7.411  10.516 -0.0050  0.7846 -0.3133
  152MOL0     C20856   6.538   7.460  10.489 -0.0713 -0.2134 -0.2490
  152MOL0     C20857   6.614   7.438  10.606  1.5351  0.0941  0.4951
  152MOL0     C20858   6.753   7.489  10.633 -0.2920 -0.7342  0.2574
  152MOL0     C20859   6.819   7.436  10.758 -0.0403  0.4079 -0.7958
  152MOL0     C20860   6.941   7.520  10.786  0.0177  0.5339  0.2781
  152MOL0     C20861   7.013   7.471  10.916 -0.0682 -1.1007 -0.7135
  152MOL0     O20862   7.079   7.594  10.966  0.6833  0.1366 -0.0280
  152MOL0     C20863   7.181   7.575  11.058  0.4495  0.1955 -0.2870
  152MOL0     C20864   7.246   7.692  11.104 -0.3947 -0.2692 -0.3655
  152MOL0     C20865   7.371   7.687  11.179 -0.5816 -0.6313 -0.2456
  152MOL0     C20866   7.449   7.818  11.210 -0.3009 -0.1530 -1.1115
  152MOL0     C20867   7.419   7.563  11.231  0.2308  0.4952 -0.1493
  152MOL0     C20868   7.531   7.554  11.333 -0.4429  0.4145 -0.3289
  152MOL0     O20869   7.583   7.435  11.365  0.3653  0.0797 -0.2779
  152MOL0     C20870   7.683   7.429  11.465  0.4484  0.0948  0.8042
  152MOL0     C20871   7.657   7.412  11.608  0.8249 -0.0140  0.7959
  152MOL0     C20872   7.766   7.430  11.697  1.2882 -0.6357 -0.5378
  152MOL0     C20873   7.894   7.460  11.653 -0.0595 -0.1913  0.4955
  152MOL0     O20874   8.002   7.491  11.738  0.1475 -0.8692 -0.5806
  152MOL0     C20875   8.005   7.433  11.868 -0.1016  0.4827 -0.2264
  152MOL0     C20876   8.143   7.463  11.917  0.8092  0.7029  0.1557
  152MOL0     C20877   8.251   7.368  11.873  0.2881 -0.0563 -0.6131
  152MOL0     C20878   8.387   7.427  11.923 -0.0384 -1.6378  0.2289
  152MOL0     C20879   8.510   7.381  11.843  0.4292  0.4102 -1.4418
  152MOL0     C20880   8.636   7.401  11.933 -0.0478  0.0432  0.9334
  152MOL0     C20881   8.759   7.333  11.867  0.1352 -0.5472  0.4898
  152MOL0     C20882   8.887   7.408  11.891 -0.4682 -0.0940 -0.5076
  152MOL0    Cl20883   8.967   7.435  12.053  0.4679 -0.0518  0.0578
  152MOL0     C20884   7.918   7.456  11.516 -0.2435  0.5722  0.0741
  152MOL0     C20885   7.814   7.438  11.430 -0.6163  0.6123  0.6285
  152MOL0     O20886   7.547   7.653  11.400 -0.6279  0.0905 -1.0437
  152MOL0     C20887   7.352   7.452  11.186  0.7290  0.0194 -1.2985
  152MOL0     C20888   7.233   7.453  11.109 -0.3814 -0.6396  0.1227
  152MOL0     N20889   6.527   7.370  10.695  0.8744  0.2427 -0.3324
  152MOL0     N20890   6.408   7.364  10.643  0.2314 -0.1499  0.1344
  152MOL0     C20891   5.326   7.635  10.292 -0.6787  0.0448 -0.4886
  152MOL0     C20892   5.212   7.576  10.334 -0.7780 -0.4657 -0.2601
  152MOL0     C20893   4.836   7.353  10.365 -0.7170  0.1406 -0.1013
  152MOL0     C20894   4.723   7.429  10.335  1.1319  1.1640 -0.5499
  152MOL0     C20895   4.605   7.383  10.386 -0.1902  0.4441 -0.3234
  152MOL0     C20896   4.593   7.278  10.471  0.6042 -0.8377 -0.3338
  152MOL0     O20897   4.476   7.244  10.539 -0.4458 -0.1619 -0.4348
  152MOL0     C20898   4.393   7.347  10.605  0.2079  0.4829  0.6899
  152MOL0     C20899   4.346   7.290  10.739 -0.6938 -0.7099  0.1801
  152MOL0     C20900   4.241   7.186  10.745  0.0662 -0.8980  0.3325
  152MOL0     C20901   4.279   7.048  10.725  0.2900 -0.0821 -0.4245
  152MOL0     C20902   4.361   6.987  10.841 -0.7572  0.0578  0.5897
  152MOL0     C20903   4.412   6.950  10.944  0.1557 -0.8058 -0.3309
  152MOL0     C20904   4.705   7.200  10.502  0.1433 -0.4988  0.0363
  152MOL0     C20905   4.827   7.237  10.448  0.5267 -0.6660 -0.5859
  152MOL0     C20906   4.944   7.145  10.486  0.5708 -0.0838 -1.1051
  152MOL0     H20907   5.021   7.675  10.075 -1.4028 -1.8281  1.2986
  152MOL0     H20908   5.234   7.752   9.996 -0.1721  0.6778  0.4148
  152MOL0     H20909   5.495   7.812  10.331 -0.1211 -2.2139  0.1615
  152MOL0     H20910   5.567   7.911  10.208 -1.9399 -0.5025 -1.0935
  152MOL0     H20911   5.630   7.614  10.247 -1.6202 -0.4507  0.0271
  152MOL0     H20912   5.703   7.721  10.121 -0.2108 -2.4230  0.1303
  152MOL0     H20913   5.815   7.861  10.296  0.3550 -0.2465  0.9721
  152MOL0     H20914   5.734   7.761  10.419  1.2760  0.0935 -0.0180
  152MOL0     H20915   5.842   7.558  10.322 -1.3644 -0.3000 -2.4402
  152MOL0     H20916   5.929   7.658  10.212  0.7610  1.1419  0.6518
  152MOL0     H20917   5.952   7.697  10.513  0.5777  2.6472 -0.2055
  152MOL0     H20918   6.046   7.779  10.393  1.7811  0.1702  2.5370
  152MOL0     H20919   6.019   7.483  10.465 -0.7362 -0.1596 -0.5313
  152MOL0     H20920   6.096   7.517  10.310 -1.3947 -0.7616  0.2719
  152MOL0     H20921   6.211   7.579  10.577 -1.8240 -2.2533 -0.2337
  152MOL0     H20922   6.282   7.652  10.429  2.1058 -1.9540  1.1847
  152MOL0     H20923   6.216   7.364  10.449 -0.1667 -0.2384 -3.3797
  152MOL0     H20924   6.315   7.445  10.321 -2.9317 -1.1080 -0.9030
  152MOL0     H20925   6.574   7.509  10.399 -1.5598  0.8359 -0.3064
  152MOL0     H20926   6.752   7.598  10.645 -1.4901 -0.8061  1.0216
  152MOL0     H20927   6.819   7.467  10.549  0.2554 -1.3363  0.8325
  152MOL0     H20928   6.740   7.432  10.833 -0.4939 -1.6932 -1.3300
  152MOL0     H20929   6.858   7.335  10.746  2.1390  1.2376 -1.1928
  152MOL0     H20930   7.009   7.508  10.702 -0.1693 -1.4734  0.3576
  152MOL0     H20931   6.913   7.624  10.805  0.2922  0.4774  1.0633
  152MOL0     H20932   6.943   7.426  10.987 -1.2597 -2.6768 -2.8029
  152MOL0     H20933   7.090   7.395  10.901  0.7687 -0.5717  0.6978
  152MOL0     H20934   7.208   7.789  11.072  0.3909 -0.8219 -3.2800
  152MOL0     H20935   7.423   7.892  11.134 -0.6947  1.4318  0.4890
  152MOL0     H20936   7.557   7.806  11.199 -0.2736 -0.1257 -0.8764
  152MOL0     H20937   7.424   7.850  11.312  1.3286  1.8289 -1.2746
  152MOL0     H20938   7.554   7.389  11.634  0.1862  0.9483 -0.7966
  152MOL0     H20939   7.744   7.430  11.803  3.7122  2.0866  0.0761
  152MOL0     H20940   7.935   7.483  11.936 -0.5936 -2.7723  1.8486
  152MOL0     H20941   7.978   7.327  11.870 -1.6173  0.8266 -1.0006
  152MOL0     H20942   8.169   7.564  11.886  0.8162 -0.0323 -2.4650
  152MOL0     H20943   8.129   7.458  12.026  1.8546 -2.3805  0.2523
  152MOL0     H20944   8.252   7.364  11.764 -0.0145 -0.5523 -0.6032
  152MOL0     H20945   8.234   7.269  11.916 -0.2378  0.3760  0.1981
  152MOL0     H20946   8.395   7.400  12.028 -4.7649  0.7351  1.4803
  152MOL0     H20947   8.382   7.536  11.915 -0.2578 -1.5625  1.2659
  152MOL0     H20948   8.493   7.273  11.833 -0.0562  0.3701 -0.2722
  152MOL0     H20949   8.506   7.431  11.746 -0.6871 -0.2213 -1.7416
  152MOL0     H20950   8.612   7.350  12.027  1.4196  0.5243  1.6028
  152MOL0     H20951   8.649   7.506  11.960  0.4534 -0.7214  3.9983
  152MOL0     H20952   8.741   7.322  11.760 -2.0927  2.6127  0.3810
  152MOL0     H20953   8.762   7.233  11.911  2.5096 -2.5668 -3.5989
  152MOL0     H20954   8.881   7.498  11.828 -3.6011 -0.3976 -0.7889
  152MOL0     H20955   8.970   7.346  11.856 -1.5986 -1.2453 -1.2459
  152MOL0     H20956   8.014   7.452  11.466 -1.6901  0.5407 -2.9338
  152MOL0     H20957   7.839   7.446  11.325 -1.8212  5.4183  0.4525
  152MOL0     H20958   7.374   7.352  11.220 -0.6152 -0.1311 -0.8007
  152MOL0     H20959   7.184   7.359  11.090 -0.0795 -1.0045  1.0989
  152MOL0     H20960   5.414   7.620  10.355  0.8737 -3.1981 -3.0792
  152MOL0     H20961   5.208   7.524  10.429  2.4658 -3.2628 -1.4539
  152MOL0     H20962   4.730   7.521  10.279 -0.3754  3.3082  2.4794
  152MOL0     H20963   4.513   7.436  10.363  0.8840  1.3188 -3.1432
  152MOL0     H20964   4.432   7.449  10.607  0.2723  0.5173 -0.7492
  152MOL0     H20965   4.302   7.357  10.545  0.4133 -0.6410  0.1609
  152MOL0     H20966   4.305   7.378  10.788 -2.3540  1.5504 -4.7333
  152MOL0     H20967   4.439   7.256  10.788 -2.3363 -2.4472  2.3085
  152MOL0     H20968   4.185   7.193  10.838 -2.1959 -1.3662 -0.9101
  152MOL0     H20969   4.171   7.205  10.662 -2.0405 -0.3929  2.1286
  152MOL0     H20970   4.329   7.040  10.628 -0.1048  1.6500 -0.8086
  152MOL0     H20971   4.197   6.975  10.717 -1.2588  1.6201 -0.6822
  152MOL0     H20972   4.471   6.906  11.022 -0.3799 -0.3718  0.3253
  152MOL0     H20973   4.693   7.114  10.568  1.0962 -0.8767 -0.2651
  152MOL0     H20974   5.032   7.199  10.524  3.2328 -0.9107 -5.4128
  152MOL0     H20975   4.908   7.084  10.569  1.6304  2.0123  1.0259
  152MOL0     H20976   4.990   7.091  10.403  1.4198 -2.0567  0.5748
  153MOL0     O20977  10.291  11.363   4.991  0.1990 -0.8377  0.2087
  153MOL0     C20978  10.364  11.291   5.060 -0.4250  0.2089  0.0125
  153MOL0     O20979  10.494  11.256   5.027  0.5710 -0.2666  0.0620
  153MOL0     C20980  10.567  11.308   4.931 -0.4247 -1.0180 -0.0827
  153MOL0     C20981  10.576  11.449   4.913 -0.1111 -0.9850 -0.0263
  153MOL0     C20982  10.659  11.515   4.817 -0.8082  0.4120 -0.3325
  153MOL0     C20983  10.725  11.426   4.727 -0.4273  0.2571 -0.1212
  153MOL0     O20984  10.809  11.469   4.631  0.0824 -0.1718 -0.3372
  153MOL0     C20985  10.787  11.595   4.567 -0.7892  0.8529 -0.1295
  153MOL0     C20986  10.880  11.607   4.446  0.0665  0.0828  0.6766
  153MOL0     C20987  11.019  11.614   4.502  0.4937 -0.2790  0.1405
  153MOL0     C20988  11.115  11.604   4.380  0.1439  0.3102  0.6452
  153MOL0     C20989  11.259  11.651   4.416  0.8717  0.2531 -0.3045
  153MOL0     C20990  11.342  11.634   4.293  0.0143 -0.0024  0.0558
  153MOL0     C20991  11.381  11.495   4.253  0.0495  0.0193  0.1235
  153MOL0     C20992  11.503  11.478   4.161  0.1561 -0.2301 -0.3745
  153MOL0     N20993  11.466  11.507   4.020  0.0418 -0.1945  0.2531
  153MOL0     C20994  11.416  11.411   3.927 -0.0968 -0.0245 -0.4708
  153MOL0     C20995  11.411  11.474   3.805  0.6279 -1.1991 -0.1191
  153MOL0     C20996  11.355  11.418   3.683  0.3873  0.9968 -0.5654
  153MOL0     C20997  11.203  11.416   3.676  0.3924  0.1567 -0.7299
  153MOL0     C20998  11.155  11.567   3.684 -0.0553  0.0790  0.1175
  153MOL0     C20999  11.030  11.584   3.769  0.7912  0.0987  0.2318
  153MOL0     O21000  11.014  11.718   3.808 -0.4722  0.3128 -0.2787
  153MOL0     C21001  10.918  11.743   3.901  0.7264 -0.1583  0.1811
  153MOL0     C21002  10.906  11.875   3.940 -0.6345  0.0662  0.2084
  153MOL0     C21003  10.802  11.924   4.022 -0.0908 -0.3658  0.0547
  153MOL0     C21004  10.786  12.067   4.063  0.2006 -0.4722  0.5218
  153MOL0     C21005  10.714  11.828   4.071  0.2568 -0.2471 -0.0752
  153MOL0     C21006  10.584  11.860   4.136 -0.0072 -0.3998 -0.3044
  153MOL0     O21007  10.561  11.786   4.250 -0.1536  0.2972  0.3457
  153MOL0     C21008  10.478  11.845   4.339  0.1696  0.1132 -0.6699
  153MOL0     C21009  10.345  11.816   4.335  0.2526 -0.2036  0.5766
  153MOL0     C21010  10.255  11.876   4.427  0.0829  0.4270  0.7450
  153MOL0     C21011  10.302  11.963   4.521  0.0202 -0.0014 -0.3023
  153MOL0     O21012  10.211  12.020   4.604  0.4821  0.5088  0.0953
  153MOL0     C21013  10.240  12.160   4.623  0.2012 -0.3546  0.6069
  153MOL0     C21014  10.118  12.234   4.669  0.3920  0.4548 -0.0387
  153MOL0     C21015  10.020  12.289   4.563  0.1727 -0.0257  0.2613
  153MOL0     C21016   9.938  12.169   4.516 -0.4568 -0.6555 -0.2759
  153MOL0     C21017   9.818  12.207   4.439  0.9212 -0.0230 -0.0794
  153MOL0     C21018   9.789  12.100   4.332 -0.7674 -0.9129  0.8863
  153MOL0     C21019   9.692  12.159   4.230  0.9046  0.5730  0.4688
  153MOL0     C21020   9.639  12.048   4.146  0.3201 -0.5465  0.5266
  153MOL0    Cl21021   9.477  12.001   4.203  0.2041  0.2652 -0.0104
  153MOL0     C21022  10.444  11.980   4.538  0.6551  0.6701  0.4847
  153MOL0     C21023  10.534  11.923   4.447 -0.2691  0.0785 -0.0335
  153MOL0     O21024  10.514  11.951   4.092 -0.2580  0.6342  0.1802
  153MOL0     C21025  10.736  11.687   4.049 -0.8940 -1.5226  0.7185
  153MOL0     C21026  10.825  11.644   3.952 -0.1998  0.4754  0.0910
  153MOL0     N21027  11.456  11.605   3.832 -0.5748  0.1897 -0.7482
  153MOL0     N21028  11.486  11.620   3.959  0.1025 -0.3258  0.7395
  153MOL0     C21029  10.717  11.290   4.747  0.0105 -0.3540  0.9488
  153MOL0     C21030  10.648  11.234   4.845 -0.3451  0.4187  0.5220
  153MOL0     C21031  10.299  11.207   5.164 -0.2817  1.0423  0.0036
  153MOL0     C21032  10.387  11.103   5.210  0.2879  0.2349  1.1189
  153MOL0     C21033  10.347  11.016   5.310 -0.3357 -0.5246 -0.4372
  153MOL0     C21034  10.221  11.030   5.374  0.3244 -0.3670 -0.6319
  153MOL0     O21035  10.185  10.941   5.478 -0.2906  0.8377 -0.4591
  153MOL0     C21036  10.055  10.886   5.500 -0.4368  0.1184 -1.2068
  153MOL0     C21037  10.069  10.794   5.620  0.6474  0.8439 -0.2339
  153MOL0     C21038  10.150  10.663   5.588  1.1214  1.1329  0.3038
  153MOL0     C21039  10.191  10.598   5.719  0.1802  0.1034  0.1458
  153MOL0     C21040  10.290  10.677   5.797  0.3103  0.8638  0.0297
  153MOL0     C21041  10.363  10.760   5.850 -0.3582  0.0216 -1.1908
  153MOL0     C21042  10.136  11.128   5.336 -0.0098  0.5871  0.1053
  153MOL0     C21043  10.172  11.215   5.232 -0.6523 -0.8636  1.0085
  153MOL0     C21044  10.070  11.329   5.199 -0.9117 -0.6424 -0.5111
  153MOL0     H21045  10.513  11.504   4.983  3.1237  2.2484  0.6400
  153MOL0     H21046  10.655  11.624   4.819 -2.2348  0.4108 -1.4513
  153MOL0     H21047  10.801  11.673   4.643  2.8312  0.1629  0.0712
  153MOL0     H21048  10.682  11.591   4.536 -1.0811  3.5244  0.2042
  153MOL0     H21049  10.855  11.528   4.375  1.5710 -3.2824  3.5618
  153MOL0     H21050  10.861  11.698   4.388  1.7190  0.0871  0.0872
  153MOL0     H21051  11.027  11.712   4.550 -0.4898  0.9985 -2.1517
  153MOL0     H21052  11.026  11.531   4.573 -1.8404  1.5750  2.8137
  153MOL0     H21053  11.110  11.507   4.330  1.6706  0.1972  0.6686
  153MOL0     H21054  11.077  11.685   4.317  0.6499 -0.4117 -0.6132
  153MOL0     H21055  11.290  11.588   4.500 -0.6518 -2.3630 -1.5736
  153MOL0     H21056  11.264  11.755   4.451 -0.6017  0.1911  0.1607
  153MOL0     H21057  11.292  11.688   4.213  2.4254 -0.5603 -1.9309
  153MOL0     H21058  11.439  11.680   4.312 -1.1748  2.5309  0.3782
  153MOL0     H21059  11.300  11.445   4.198  0.2228  1.3733 -1.4420
  153MOL0     H21060  11.411  11.445   4.346 -0.2257  1.9227  1.2691
  153MOL0     H21061  11.572  11.556   4.196 -0.3878  3.3672 -6.1395
  153MOL0     H21062  11.544  11.377   4.165 -2.3473 -1.3871 -1.8014
  153MOL0     H21063  11.393  11.309   3.954  2.2546 -0.7738 -1.0366
  153MOL0     H21064  11.391  11.315   3.670 -1.5903  0.3933 -1.6591
  153MOL0     H21065  11.408  11.480   3.610  0.2612  3.8074  1.5830
  153MOL0     H21066  11.197  11.368   3.578  1.8711 -1.9400  0.1347
  153MOL0     H21067  11.152  11.355   3.751  2.3353 -0.5460  0.0871
  153MOL0     H21068  11.230  11.636   3.724  0.2644  0.1563 -0.6026
  153MOL0     H21069  11.141  11.599   3.580  4.0189 -0.2091 -0.6756
  153MOL0     H21070  10.951  11.542   3.706  1.3590 -0.1280 -0.3347
  153MOL0     H21071  11.040  11.531   3.864  1.1118 -1.8541 -0.8533
  153MOL0     H21072  10.969  11.953   3.898  0.0952  0.7875  2.4610
  153MOL0     H21073  10.888  12.103   4.081 -0.1577  1.2555 -0.6494
  153MOL0     H21074  10.727  12.083   4.154  2.3846  0.1966  1.8899
  153MOL0     H21075  10.741  12.125   3.981 -3.2655  0.6530  2.9975
  153MOL0     H21076  10.314  11.758   4.249  0.6133 -2.9630  2.1760
  153MOL0     H21077  10.150  11.857   4.408  0.4484  0.3993 -1.4592
  153MOL0     H21078  10.309  12.166   4.707  0.1413 -1.2113  0.7301
  153MOL0     H21079  10.279  12.207   4.532  1.1471  0.3483  1.3682
  153MOL0     H21080  10.071  12.170   4.745 -2.2550  2.1928 -0.0726
  153MOL0     H21081  10.144  12.322   4.730  3.0758 -0.2637 -0.0083
  153MOL0     H21082  10.065  12.335   4.475 -0.9858 -1.6793 -1.2733
  153MOL0     H21083   9.956  12.358   4.618  1.0037  0.4410  0.6576
  153MOL0     H21084   9.910  12.110   4.604  1.5136 -2.2866 -0.6535
  153MOL0     H21085   9.997  12.095   4.461 -2.3082 -0.6138 -2.4663
  153MOL0     H21086   9.729  12.221   4.501  0.3342 -0.2527 -0.8570
  153MOL0     H21087   9.841  12.301   4.388  0.5351  0.6895  1.0201
  153MOL0     H21088   9.752  12.009   4.380  3.2071 -2.7642  0.8820
  153MOL0     H21089   9.880  12.071   4.279 -0.3963 -1.6012  1.8751
  153MOL0     H21090   9.742  12.230   4.163 -0.6673  1.2293 -0.0734
  153MOL0     H21091   9.613  12.210   4.286 -0.3877 -0.6601 -0.1716
  153MOL0     H21092   9.700  11.957   4.142 -2.4449 -2.4760 -0.9151
  153MOL0     H21093   9.652  12.077   4.041  0.2958 -2.7895 -0.1522
  153MOL0     H21094  10.483  12.037   4.622 -1.1418  2.1967  0.3456
  153MOL0     H21095  10.643  11.923   4.451 -0.2063 -1.8286 -0.8245
  153MOL0     H21096  10.667  11.614   4.089 -0.8421 -2.5134 -0.9359
  153MOL0     H21097  10.831  11.543   3.915 -1.4157  1.3320 -2.6821
  153MOL0     H21098  10.783  11.234   4.682 -0.5406  1.2002 -1.0424
  153MOL0     H21099  10.651  11.128   4.869  0.1974  0.1308 -0.7445
  153MOL0     H21100  10.487  11.088   5.171 -0.1283 -0.8801  0.4244
  153MOL0     H21101  10.415  10.939   5.345  0.3538 -0.1105 -0.8363
  153MOL0     H21102   9.984  10.968   5.514  0.8282  1.2353 -1.0845
  153MOL0     H21103  10.029  10.841   5.404 -0.0593 -2.1630 -0.2856
  153MOL0     H21104   9.967  10.770   5.652  1.5343 -2.5448  0.4258
  153MOL0     H21105  10.119  10.853   5.697 -2.0424  2.2901  0.5532
  153MOL0     H21106  10.089  10.606   5.517  1.5477  1.7096 -0.5470
  153MOL0     H21107  10.236  10.692   5.527  0.0314  2.0014 -0.8761
  153MOL0     H21108  10.229  10.498   5.697 -0.5999  0.0757 -1.1771
  153MOL0     H21109  10.106  10.570   5.782 -1.0577  0.0662 -1.4712
  153MOL0     H21110  10.432  10.838   5.877  0.2304 -1.2026  1.1471
  153MOL0     H21111  10.034  11.128   5.373 -0.2111 -3.4058  0.0213
  153MOL0     H21112  10.116  11.420   5.240  0.8526 -2.0072  0.6725
  153MOL0     H21113  10.067  11.347   5.091  3.3676  2.9656 -0.3131
  153MOL0     H21114   9.973  11.314   5.248 -1.7982 -0.1324 -2.0456
  154MOL0     O21115   2.462   6.947   9.960  0.6494 -0.6765  0.3890
  154MOL0     C21116   2.421   6.832   9.969  0.2962 -0.0450  0.3539
  154MOL0     O21117   2.398   6.741   9.868  0.8737  0.2640 -0.0822
  154MOL0     C21118   2.443   6.765   9.739 -0.0072 -0.3519 -0.7700
  154MOL0     C21119   2.372   6.721   9.626 -0.2414 -0.2010  0.4722
  154MOL0     C21120   2.440   6.747   9.498 -0.2004  0.5472 -0.4087
  154MOL0     C21121   2.575   6.800   9.492 -0.9781  0.3381  0.2859
  154MOL0     O21122   2.632   6.835   9.378 -0.8877 -0.2361  0.4306
  154MOL0     C21123   2.698   6.957   9.350  0.7319 -0.6058 -0.0362
  154MOL0     C21124   2.717   6.964   9.201 -0.2979 -0.0379  1.1059
  154MOL0     C21125   2.760   7.110   9.170 -0.0652  0.1350  0.0807
  154MOL0     C21126   2.761   7.140   9.016 -0.7507 -0.1483 -0.1479
  154MOL0     C21127   2.842   7.267   8.984 -0.1112 -0.0955  0.5477
  154MOL0     C21128   3.000   7.264   8.983 -0.5405 -0.1149 -0.0446
  154MOL0     C21129   3.072   7.380   8.899  1.3490 -0.6905 -0.1591
  154MOL0     C21130   3.222   7.373   8.910 -0.1048 -0.3702 -0.9446
  154MOL0     N21131   3.276   7.463   9.013  0.3196 -0.0862 -0.5365
  154MOL0     C21132   3.266   7.593   9.012  0.8681 -0.4227  0.1755
  154MOL0     C21133   3.306   7.630   9.134  0.0104  0.1566 -0.5491
  154MOL0     C21134   3.308   7.766   9.182 -0.2287 -0.5192 -0.4310
  154MOL0     C21135   3.444   7.845   9.137  0.1491  0.2736 -0.1948
  154MOL0     C21136   3.455   7.879   8.990 -0.2691 -0.6099  0.3898
  154MOL0     C21137   3.589   7.929   8.942  0.0776  0.4560  0.2780
  154MOL0     O21138   3.701   7.847   8.967  0.3893  0.2630 -0.0466
  154MOL0     C21139   3.740   7.768   8.860  0.7610  0.3196  0.0432
  154MOL0     C21140   3.871   7.779   8.800 -0.2822  0.5258 -0.7574
  154MOL0     C21141   3.899   7.720   8.674  0.3039  0.6590 -1.1610
  154MOL0     C21142   4.041   7.731   8.628  0.0845 -0.3396  1.0369
  154MOL0     C21143   3.806   7.632   8.614  0.2685  0.2247 -0.3159
  154MOL0     C21144   3.825   7.568   8.483  0.3987  0.5319 -0.3284
  154MOL0     O21145   3.935   7.598   8.411 -0.3528  0.0529 -0.2004
  154MOL0     C21146   3.964   7.531   8.294 -0.1920 -0.5631 -0.1024
  154MOL0     C21147   3.932   7.604   8.177 -0.1702  0.8314 -0.3235
  154MOL0     C21148   3.968   7.537   8.056 -0.0221  0.6144 -0.9305
  154MOL0     C21149   4.010   7.404   8.053 -0.3165  0.2064 -0.7117
  154MOL0     O21150   4.075   7.363   7.937 -0.1274  0.1251 -0.6398
  154MOL0     C21151   4.046   7.232   7.888 -0.2025  0.5859 -0.5181
  154MOL0     C21152   4.065   7.236   7.737 -0.9531  0.5688  0.2217
  154MOL0     C21153   4.207   7.264   7.689 -0.2619 -0.1046 -0.8991
  154MOL0     C21154   4.309   7.164   7.732 -0.2328  1.2006 -0.4402
  154MOL0     C21155   4.440   7.161   7.647 -0.0233  0.2207 -0.0610
  154MOL0     C21156   4.514   7.294   7.665 -0.1713 -0.3891 -0.4691
  154MOL0     C21157   4.659   7.294   7.612  0.7575 -0.1720 -0.4020
  154MOL0     C21158   4.661   7.285   7.458  0.0901 -0.1347 -1.1968
  154MOL0    Cl21159   4.826   7.326   7.393 -0.7568 -0.1259 -0.5047
  154MOL0     C21160   4.015   7.335   8.175  0.3719 -0.1537  0.8496
  154MOL0     C21161   3.994   7.403   8.296 -0.5649  0.0830  0.2027
  154MOL0     O21162   3.741   7.484   8.446 -0.3304 -0.3029 -0.3704
  154MOL0     C21163   3.679   7.612   8.681  0.1139 -0.8643  0.3706
  154MOL0     C21164   3.654   7.670   8.804 -0.0411 -0.7915  0.3239
  154MOL0     N21165   3.341   7.513   9.212  0.2981  0.0390 -0.3260
  154MOL0     N21166   3.325   7.411   9.137 -0.7336 -0.0522  0.1315
  154MOL0     C21167   2.646   6.820   9.606  0.7977  0.1008  0.6556
  154MOL0     C21168   2.581   6.799   9.725  0.6870  0.7525  0.1067
  154MOL0     C21169   2.415   6.776  10.104 -0.2819  0.1149 -0.9365
  154MOL0     C21170   2.338   6.659  10.136  0.8184  0.3114  0.1438
  154MOL0     C21171   2.289   6.628  10.265 -0.4803 -0.0707 -0.0974
  154MOL0     C21172   2.330   6.694  10.373  1.4227 -0.1411 -0.0252
  154MOL0     O21173   2.301   6.643  10.491  0.2638 -0.7783 -0.0260
  154MOL0     C21174   2.369   6.691  10.609  0.8221  0.2152 -0.8286
  154MOL0     C21175   2.297   6.619  10.737  0.0727 -0.5620  0.8335
  154MOL0     C21176   2.332   6.468  10.739  0.6447  0.1527 -0.6461
  154MOL0     C21177   2.262   6.388  10.849 -0.1969  0.5484 -0.1541
  154MOL0     C21178   2.127   6.347  10.805 -0.3463 -0.5828 -0.1048
  154MOL0     C21179   2.015   6.298  10.771  0.7633 -0.1188  0.3287
  154MOL0     C21180   2.414   6.801  10.348 -0.8065 -0.3554  0.0019
  154MOL0     C21181   2.458   6.846  10.222 -0.0342  0.3912 -0.9378
  154MOL0     C21182   2.557   6.958  10.221  0.1610 -0.1836  0.4943
  154MOL0     H21183   2.279   6.666   9.634 -0.3966  0.1799  1.4546
  154MOL0     H21184   2.399   6.731   9.398  3.2466  1.0606 -2.0298
  154MOL0     H21185   2.792   6.979   9.401  0.6175  1.8773 -0.7461
  154MOL0     H21186   2.629   7.038   9.372 -0.0956 -0.5655 -2.4470
  154MOL0     H21187   2.807   6.912   9.165 -0.5365  0.2268  0.0991
  154MOL0     H21188   2.628   6.929   9.148 -0.1238 -0.7020  1.2451
  154MOL0     H21189   2.699   7.184   9.225  0.7191  0.5465  0.4127
  154MOL0     H21190   2.861   7.118   9.212 -0.5585 -0.7997  1.5393
  154MOL0     H21191   2.815   7.061   8.964 -0.7974 -0.9235  0.9450
  154MOL0     H21192   2.662   7.147   8.969 -0.4917  2.0243 -0.4727
  154MOL0     H21193   2.801   7.354   9.037 -0.9776 -0.2651  0.1683
  154MOL0     H21194   2.812   7.306   8.886  1.7759  0.6674  0.2141
  154MOL0     H21195   3.043   7.270   9.083 -0.0915 -0.7960 -0.1879
  154MOL0     H21196   3.022   7.166   8.939 -0.7608 -0.2588  0.1634
  154MOL0     H21197   3.033   7.476   8.935 -0.3276  0.5451 -4.5154
  154MOL0     H21198   3.041   7.377   8.794  1.7975  0.8211 -0.3485
  154MOL0     H21199   3.259   7.271   8.925  2.7331  0.4768 -1.5151
  154MOL0     H21200   3.268   7.410   8.818  0.6847  0.9332 -0.0631
  154MOL0     H21201   3.217   7.659   8.941 -1.9897 -1.8686  0.6700
  154MOL0     H21202   3.297   7.775   9.291  0.5774  0.2216 -0.3966
  154MOL0     H21203   3.223   7.821   9.142 -0.9370 -1.1673  0.1597
  154MOL0     H21204   3.460   7.936   9.195  1.4323  1.7225 -2.6420
  154MOL0     H21205   3.527   7.775   9.151 -0.8061 -0.5573  1.6161
  154MOL0     H21206   3.427   7.792   8.931 -0.2817  0.5747 -1.4301
  154MOL0     H21207   3.387   7.960   8.961 -0.4147 -0.2447  1.6723
  154MOL0     H21208   3.591   7.959   8.837 -0.2115 -0.5668 -0.0291
  154MOL0     H21209   3.591   8.018   9.006  1.2350  1.1229 -0.6393
  154MOL0     H21210   3.952   7.830   8.850 -0.2129 -1.6471  1.5495
  154MOL0     H21211   4.051   7.768   8.525 -1.4349  2.4596  1.8072
  154MOL0     H21212   4.085   7.632   8.641  2.5744 -0.1482 -3.5922
  154MOL0     H21213   4.089   7.805   8.693 -0.7543  2.7767 -1.6196
  154MOL0     H21214   3.902   7.708   8.171  1.0887  1.4442  2.3563
  154MOL0     H21215   3.965   7.598   7.967 -2.7324  0.8400 -0.7442
  154MOL0     H21216   4.109   7.154   7.933  1.5708  2.2395 -0.0017
  154MOL0     H21217   3.946   7.205   7.921  0.2180  2.3703  2.6343
  154MOL0     H21218   4.033   7.141   7.694  1.1410  0.6739 -1.7244
  154MOL0     H21219   4.010   7.320   7.693  0.3170  1.1662 -0.2469
  154MOL0     H21220   4.240   7.364   7.717  2.0415 -1.2074  0.5866
  154MOL0     H21221   4.209   7.267   7.580 -0.0528  1.3799 -0.8802
  154MOL0     H21222   4.274   7.061   7.725  2.2973  0.1698  0.8157
  154MOL0     H21223   4.338   7.180   7.836  2.0679 -0.7681 -0.6967
  154MOL0     H21224   4.509   7.081   7.673  0.3369  0.3270 -0.6847
  154MOL0     H21225   4.405   7.143   7.545 -1.0475 -1.9756  0.6247
  154MOL0     H21226   4.525   7.303   7.773 -2.0815  0.1169 -0.2919
  154MOL0     H21227   4.462   7.378   7.618  1.2215  0.0827 -1.2486
  154MOL0     H21228   4.708   7.205   7.653 -2.0833 -0.6706  2.2941
  154MOL0     H21229   4.702   7.386   7.652  0.2277 -0.2962  0.4639
  154MOL0     H21230   4.579   7.346   7.421 -0.1598 -0.6686 -1.5451
  154MOL0     H21231   4.637   7.187   7.415 -0.4196  0.6243 -2.7284
  154MOL0     H21232   4.054   7.234   8.175 -1.1007 -0.7749 -0.7775
  154MOL0     H21233   3.985   7.352   8.391 -4.6951  0.1460  0.0177
  154MOL0     H21234   3.596   7.552   8.645  0.3091 -1.4509  0.8636
  154MOL0     H21235   3.557   7.657   8.850 -0.1411 -0.4331  0.2164
  154MOL0     H21236   2.754   6.831   9.615  1.2053 -2.7835  0.2174
  154MOL0     H21237   2.644   6.808   9.813 -2.5758 -0.0130  2.7259
  154MOL0     H21238   2.305   6.604  10.048  0.9402  1.6829 -0.7972
  154MOL0     H21239   2.235   6.534  10.277  1.1998 -1.0002  0.5838
  154MOL0     H21240   2.478   6.682  10.605  1.1178  1.7584  1.5805
  154MOL0     H21241   2.345   6.797  10.622  2.0826  0.6996 -2.1947
  154MOL0     H21242   2.188   6.627  10.733  0.1207 -0.3911 -0.7088
  154MOL0     H21243   2.339   6.663  10.828  1.3072  1.4015 -0.6009
  154MOL0     H21244   2.308   6.422  10.642  0.7204  1.9027 -1.5385
  154MOL0     H21245   2.441   6.463  10.750  0.3933 -2.7223  1.5926
  154MOL0     H21246   2.264   6.442  10.944 -1.7369 -3.5248  2.4824
  154MOL0     H21247   2.315   6.293  10.862 -0.4847  0.3199 -0.6036
  154MOL0     H21248   1.915   6.274  10.743  1.3582  0.8896 -3.0846
  154MOL0     H21249   2.463   6.861  10.424  0.8829  0.1929 -1.4492
  154MOL0     H21250   2.501   7.052  10.212  0.6998 -0.0537 -2.7254
  154MOL0     H21251   2.614   6.958  10.314 -2.3958  0.0248  2.1607
  154MOL0     H21252   2.616   6.948  10.130  3.1323 -0.9235  2.3555
  155MOL0     O21253  11.260   6.037   6.656 -0.5729  0.0984  0.3950
  155MOL0     C21254  11.183   6.124   6.612  0.1702  1.2677 -0.7148
  155MOL0     O21255  11.217   6.228   6.541  0.3275  0.7964 -0.6309
  155MOL0     C21256  11.345   6.237   6.492  0.8289 -0.0393 -0.9536
  155MOL0     C21257  11.445   6.268   6.582 -0.0209  0.4649 -0.5111
  155MOL0     C21258  11.572   6.317   6.524  0.9673 -0.1513 -0.8077
  155MOL0     C21259  11.580   6.336   6.387  0.3422  0.2497  0.2685
  155MOL0     O21260  11.678   6.410   6.321 -0.0020 -0.5208  0.1059
  155MOL0     C21261  11.748   6.320   6.237  0.0610 -0.1830 -0.0422
  155MOL0     C21262  11.875   6.383   6.191 -0.3737 -0.1208 -0.2351
  155MOL0     C21263  11.869   6.506   6.110 -0.8228  0.5494  0.8541
  155MOL0     C21264  12.014   6.567   6.089  0.0886  1.3638  0.6751
  155MOL0     C21265  12.024   6.710   6.033  0.0296 -0.3167 -0.2681
  155MOL0     C21266  11.976   6.728   5.890 -0.1491 -0.9878 -0.3608
  155MOL0     C21267  12.040   6.654   5.774  0.2113  0.6100 -0.5850
  155MOL0     C21268  12.162   6.720   5.707  1.1115 -0.5140 -0.2376
  155MOL0     N21269  12.285   6.705   5.774 -0.1645  0.1486 -0.8608
  155MOL0     C21270  12.345   6.800   5.841  0.0115 -0.3211  0.5840
  155MOL0     C21271  12.469   6.749   5.861  0.1158  0.4657 -0.7287
  155MOL0     C21272  12.568   6.815   5.951  0.0831 -0.2925  0.3496
  155MOL0     C21273  12.713   6.800   5.894 -0.4337  0.3597 -0.4958
  155MOL0     C21274  12.815   6.845   5.996 -0.4416  0.4301 -0.1981
  155MOL0     C21275  12.948   6.887   5.930 -0.2257 -0.0535 -0.4935
  155MOL0     O21276  12.999   6.773   5.858  0.5171  0.1094 -0.1581
  155MOL0     C21277  13.079   6.680   5.928 -0.2339 -0.4160  0.3333
  155MOL0     C21278  13.194   6.713   6.004  0.6056 -1.0166 -0.2227
  155MOL0     C21279  13.274   6.615   6.050 -0.5575  0.4022 -0.3897
  155MOL0     C21280  13.404   6.656   6.118  0.6749 -0.2477  0.4381
  155MOL0     C21281  13.237   6.480   6.028 -0.6383 -0.0664 -0.6046
  155MOL0     C21282  13.314   6.364   6.072 -0.5306 -1.3140  1.0129
  155MOL0     O21283  13.241   6.254   6.110 -0.7492 -0.3328  0.3558
  155MOL0     C21284  13.307   6.137   6.110 -0.7784 -0.0249 -0.4564
  155MOL0     C21285  13.330   6.052   6.000  0.2144  0.8612  0.7011
  155MOL0     C21286  13.394   5.926   6.009 -0.5889  0.5014 -0.6162
  155MOL0     C21287  13.448   5.885   6.132 -0.0042  0.0236  0.1321
  155MOL0     O21288  13.518   5.767   6.135  0.2638 -0.5788 -0.1571
  155MOL0     C21289  13.469   5.674   6.229  0.7082  0.1746  0.7362
  155MOL0     C21290  13.574   5.616   6.329 -0.5011  0.0163 -0.2800
  155MOL0     C21291  13.526   5.502   6.413  0.8369  0.2073 -0.1430
  155MOL0     C21292  13.395   5.520   6.496  0.0921 -0.6420 -0.3016
  155MOL0     C21293  13.368   5.389   6.578 -0.3020  0.2230  0.8149
  155MOL0     C21294  13.224   5.362   6.600 -0.8830 -0.1448  0.4094
  155MOL0     C21295  13.127   5.332   6.485 -0.0493  0.4645  0.7731
  155MOL0     C21296  12.984   5.346   6.534  0.6432 -0.2599 -0.1076
  155MOL0    Cl21297  12.872   5.229   6.452 -0.1599 -0.1537  0.6805
  155MOL0     C21298  13.414   5.960   6.246  0.7667 -0.1523  0.0639
  155MOL0     C21299  13.345   6.086   6.235  0.0611  0.6164  0.6414
  155MOL0     O21300  13.429   6.365   6.056 -0.5380  0.0806  0.7052
  155MOL0     C21301  13.118   6.451   5.961  0.8553 -0.2654  0.8371
  155MOL0     C21302  13.034   6.553   5.926 -0.2060  0.5896  0.1622
  155MOL0     N21303  12.471   6.622   5.803 -0.0861 -0.5726 -0.2690
  155MOL0     N21304  12.359   6.590   5.753  0.8718 -0.4933  0.6477
  155MOL0     C21305  11.474   6.295   6.303  0.6060  0.1901 -0.2144
  155MOL0     C21306  11.358   6.239   6.357 -0.7156  0.0174 -0.1723
  155MOL0     C21307  11.042   6.103   6.671  0.1569 -0.2385 -0.2920
  155MOL0     C21308  10.938   6.126   6.582  0.3090 -0.2726  0.6246
  155MOL0     C21309  10.806   6.126   6.629  0.4416  0.6679  0.0254
  155MOL0     C21310  10.772   6.106   6.758  0.4180 -0.2070 -0.2246
  155MOL0     O21311  10.638   6.115   6.797 -0.2404 -0.0596  0.0342
  155MOL0     C21312  10.596   6.071   6.929  0.1608 -0.6998  0.2918
  155MOL0     C21313  10.457   6.107   6.967 -0.1563  0.2501  0.4145
  155MOL0     C21314  10.335   6.039   6.927 -0.0832  1.0417  0.4510
  155MOL0     C21315  10.305   6.037   6.777 -0.1483 -0.6445  0.7787
  155MOL0     C21316  10.165   5.985   6.754 -0.9876 -0.5779 -0.1382
  155MOL0     C21317  10.059   5.941   6.727 -0.5861 -0.3476 -0.5286
  155MOL0     C21318  10.873   6.082   6.850 -0.2642 -0.2112 -0.2785
  155MOL0     C21319  11.011   6.091   6.810  0.2407  0.1180 -0.2957
  155MOL0     C21320  11.120   6.076   6.918  0.3198 -0.3878 -0.4760
  155MOL0     H21321  11.431   6.247   6.688  4.6748 -1.4753 -0.0184
  155MOL0     H21322  11.640   6.360   6.597  1.5412  0.7864 -1.8750
  155MOL0     H21323  11.688   6.286   6.153  0.0865  1.8775 -0.9537
  155MOL0     H21324  11.765   6.234   6.303 -0.1850  0.3582  0.7356
  155MOL0     H21325  11.916   6.419   6.285 -1.9745 -0.7112  0.7312
  155MOL0     H21326  11.931   6.308   6.135  0.5706  1.4909 -1.5687
  155MOL0     H21327  11.832   6.489   6.009  3.9701 -0.5105 -0.9605
  155MOL0     H21328  11.812   6.586   6.159  2.8320  4.6420 -0.8964
  155MOL0     H21329  12.067   6.563   6.184  0.9173  1.5380  0.2241
  155MOL0     H21330  12.078   6.501   6.030 -0.5318  0.7389  0.6928
  155MOL0     H21331  12.123   6.755   6.043  0.0003  0.1508 -1.7914
  155MOL0     H21332  11.961   6.777   6.094 -3.4770 -0.9842 -2.8120
  155MOL0     H21333  11.869   6.705   5.895 -0.6301  0.3989 -2.7261
  155MOL0     H21334  11.982   6.836   5.874 -0.7631 -0.8222  0.4713
  155MOL0     H21335  11.974   6.650   5.687  1.4326  1.2751 -1.5631
  155MOL0     H21336  12.049   6.551   5.811 -0.6758  0.6618 -0.1742
  155MOL0     H21337  12.176   6.669   5.612 -1.4653 -4.7653  1.3628
  155MOL0     H21338  12.139   6.824   5.680 -3.1260 -1.2157 -0.0978
  155MOL0     H21339  12.301   6.893   5.876  0.8779 -0.2712  1.5898
  155MOL0     H21340  12.556   6.776   6.052 -2.8608  0.5735  0.4079
  155MOL0     H21341  12.545   6.922   5.958  0.1203 -0.2913  0.4467
  155MOL0     H21342  12.737   6.697   5.867 -0.0778  0.8159 -2.0076
  155MOL0     H21343  12.726   6.858   5.802 -1.6428  1.4494 -0.0168
  155MOL0     H21344  12.775   6.934   6.045  2.4485  2.0054 -0.4365
  155MOL0     H21345  12.835   6.766   6.069 -3.0988  0.2795  0.4533
  155MOL0     H21346  12.933   6.962   5.852 -0.0748 -1.6560 -2.1457
  155MOL0     H21347  13.026   6.919   6.000  0.8690 -0.9039 -1.2983
  155MOL0     H21348  13.225   6.816   6.018 -1.0791 -0.2027 -2.0630
  155MOL0     H21349  13.444   6.579   6.184  1.7898 -1.0245 -1.0887
  155MOL0     H21350  13.374   6.737   6.186  1.1193  0.5285 -0.2695
  155MOL0     H21351  13.477   6.688   6.043  1.2610 -2.5318 -0.0379
  155MOL0     H21352  13.302   6.076   5.898 -1.1584  1.7807  1.2675
  155MOL0     H21353  13.421   5.865   5.924  0.9067  0.8075 -0.3861
  155MOL0     H21354  13.389   5.716   6.291  1.3055  4.6873 -1.1831
  155MOL0     H21355  13.436   5.587   6.172  0.6821  1.2998 -1.0475
  155MOL0     H21356  13.669   5.585   6.283 -2.3209 -2.4433 -2.7216
  155MOL0     H21357  13.597   5.683   6.412 -0.2707  0.4581 -0.6977
  155MOL0     H21358  13.616   5.485   6.472 -0.4032 -2.5206  1.1547
  155MOL0     H21359  13.507   5.418   6.345  0.4686  0.4356 -0.3265
  155MOL0     H21360  13.318   5.557   6.428 -0.6679  0.9975  1.3752
  155MOL0     H21361  13.409   5.601   6.568 -0.4957 -0.7213 -0.0920
  155MOL0     H21362  13.423   5.301   6.542  1.6804 -1.3471  6.6621
  155MOL0     H21363  13.406   5.393   6.680 -2.7106 -0.2665  1.7897
  155MOL0     H21364  13.190   5.453   6.650  0.3950  0.7131 -0.2210
  155MOL0     H21365  13.214   5.287   6.679 -0.6132 -0.0762  0.5098
  155MOL0     H21366  13.139   5.226   6.463  2.7316  0.4644  1.8124
  155MOL0     H21367  13.124   5.385   6.389 -2.6409  0.3086  0.7105
  155MOL0     H21368  12.949   5.446   6.506 -0.6133 -0.6308  0.0646
  155MOL0     H21369  12.959   5.330   6.639 -0.0360 -4.5621 -0.7567
  155MOL0     H21370  13.427   5.925   6.348 -2.0935 -0.1632  0.5089
  155MOL0     H21371  13.345   6.143   6.327  1.2773  1.8343 -0.0672
  155MOL0     H21372  13.080   6.350   5.948  0.1654 -0.2096  2.2367
  155MOL0     H21373  12.930   6.537   5.899 -0.5636  3.3463 -0.4298
  155MOL0     H21374  11.469   6.314   6.196 -3.8295  3.4250  0.2552
  155MOL0     H21375  11.276   6.211   6.292 -0.3445  0.7914 -0.9905
  155MOL0     H21376  10.963   6.145   6.478  0.6875 -0.1731  0.7333
  155MOL0     H21377  10.724   6.142   6.560  0.9654  0.8415 -0.5744
  155MOL0     H21378  10.595   5.962   6.931 -0.2175 -0.7106 -0.2510
  155MOL0     H21379  10.658   6.108   7.011  0.9333 -0.5326 -0.3651
  155MOL0     H21380  10.441   6.212   6.940 -1.2429 -0.0238 -0.0680
  155MOL0     H21381  10.446   6.101   7.075 -1.8878  2.1262  0.3897
  155MOL0     H21382  10.363   5.936   6.953  0.5842  1.1394  0.1479
  155MOL0     H21383  10.250   6.074   6.985 -1.9390  0.1945 -1.5939
  155MOL0     H21384  10.372   5.965   6.729 -0.0681 -1.7305  2.4386
  155MOL0     H21385  10.321   6.136   6.735 -1.3773 -1.3766 -1.5739
  155MOL0     H21386   9.957   5.915   6.703 -0.8688  1.1339 -1.0348
  155MOL0     H21387  10.860   6.077   6.957  0.6000  0.4031 -0.1330
  155MOL0     H21388  11.077   6.082   7.018 -2.9354  1.3164 -1.8205
  155MOL0     H21389  11.168   5.978   6.911  0.0270 -0.5326 -0.4276
  155MOL0     H21390  11.190   6.159   6.900  0.3258 -0.2944 -0.0254
  156MOL0     O21391   2.013   6.420   9.065  0.0655  0.5495 -0.3956
  156MOL0     C21392   2.130   6.388   9.080 -1.0007 -0.2916  0.0747
  156MOL0     O21393   2.200   6.404   9.199 -0.5967  0.0573 -0.6064
  156MOL0     C21394   2.134   6.444   9.320 -0.1368 -0.7925  0.5401
  156MOL0     C21395   2.039   6.546   9.332  0.0568  0.1622 -0.4364
  156MOL0     C21396   1.972   6.574   9.446  0.8242 -0.1738 -0.5879
  156MOL0     C21397   2.014   6.501   9.559 -0.2767  0.2722  0.0788
  156MOL0     O21398   1.974   6.521   9.686  0.3179  0.2570 -0.8545
  156MOL0     C21399   1.872   6.609   9.716  0.4494 -0.0332  0.8950
  156MOL0     C21400   1.883   6.639   9.868  0.2485 -0.2023  0.8570
  156MOL0     C21401   2.005   6.738   9.892  0.8578 -0.2375  0.1958
  156MOL0     C21402   1.969   6.878   9.903  0.2408 -0.4290 -0.4507
  156MOL0     C21403   2.095   6.967   9.913 -0.1283  0.6900  0.9122
  156MOL0     C21404   2.063   7.116   9.949  0.9706  0.0925 -0.1638
  156MOL0     C21405   2.194   7.189   9.991  0.2912  0.7139 -0.5714
  156MOL0     C21406   2.172   7.335  10.029 -0.5617  0.2569 -0.8145
  156MOL0     N21407   2.118   7.413   9.921  0.1549  0.0907 -0.1843
  156MOL0     C21408   2.194   7.458   9.821  0.2001 -0.1288  0.1779
  156MOL0     C21409   2.110   7.551   9.767 -0.1708  0.3747  1.0174
  156MOL0     C21410   2.149   7.653   9.655  0.6573 -0.7762  0.8789
  156MOL0     C21411   2.194   7.578   9.533  0.5263 -0.0173 -0.1283
  156MOL0     C21412   2.208   7.677   9.413  0.0765 -0.1855  0.3392
  156MOL0     C21413   2.236   7.605   9.273 -0.0431  0.3093  0.2393
  156MOL0     O21414   2.353   7.532   9.295 -0.7665  0.3201  0.0014
  156MOL0     C21415   2.473   7.592   9.295  0.9453  0.7050 -0.4554
  156MOL0     C21416   2.586   7.515   9.314  0.6114 -0.0287  0.3369
  156MOL0     C21417   2.717   7.561   9.300  0.8119 -0.6803  0.7570
  156MOL0     C21418   2.836   7.472   9.319 -0.5411 -0.4475  0.4129
  156MOL0     C21419   2.738   7.701   9.271  0.3144  0.3281  0.1392
  156MOL0     C21420   2.859   7.778   9.286 -0.3243 -0.3272 -0.0319
  156MOL0     O21421   2.855   7.914   9.253  0.0458  0.0546  0.1475
  156MOL0     C21422   2.971   7.984   9.272  0.1913  0.2537  0.2160
  156MOL0     C21423   3.002   8.084   9.181  0.5932  0.4976  0.0238
  156MOL0     C21424   3.112   8.169   9.183 -0.3728 -0.5069  0.6078
  156MOL0     C21425   3.193   8.158   9.292  0.6336  0.0562  0.0104
  156MOL0     O21426   3.289   8.252   9.303 -0.3039 -0.6462 -0.3726
  156MOL0     C21427   3.401   8.226   9.388  0.4531 -0.2956 -0.0826
  156MOL0     C21428   3.520   8.299   9.340 -0.8564 -0.4583 -0.7505
  156MOL0     C21429   3.653   8.244   9.395 -0.1594  0.9499 -0.4341
  156MOL0     C21430   3.762   8.350   9.394 -0.1512 -0.5525  1.2416
  156MOL0     C21431   3.898   8.291   9.406  0.3038  0.0354 -0.2053
  156MOL0     C21432   4.011   8.392   9.394  0.3036  0.5267  0.9559
  156MOL0     C21433   4.147   8.324   9.409  0.1393  1.0392 -0.5184
  156MOL0     C21434   4.245   8.377   9.304 -1.0736  0.0233  0.5278
  156MOL0    Cl21435   4.201   8.332   9.140  0.2199  0.2586 -0.1146
  156MOL0     C21436   3.176   8.047   9.383 -0.0222 -0.3176  0.1269
  156MOL0     C21437   3.061   7.974   9.377 -0.5180  0.6434  0.4632
  156MOL0     O21438   2.965   7.715   9.291  0.1619 -0.2983 -0.5065
  156MOL0     C21439   2.627   7.783   9.256  0.2943 -0.5320  0.4108
  156MOL0     C21440   2.496   7.728   9.267  0.6455  0.8451  0.6664
  156MOL0     N21441   1.985   7.546   9.832  0.4257 -0.0436 -0.2679
  156MOL0     N21442   1.994   7.458   9.921 -0.2260 -0.2981 -0.5816
  156MOL0     C21443   2.105   6.392   9.546 -0.3680  0.3328 -0.2645
  156MOL0     C21444   2.173   6.375   9.426 -0.1458  0.1931 -0.6171
  156MOL0     C21445   2.198   6.315   8.979 -0.5492 -0.1864 -0.7114
  156MOL0     C21446   2.243   6.187   9.024  0.4219  0.3493  0.5772
  156MOL0     C21447   2.307   6.097   8.935 -0.2248  0.8308 -0.3103
  156MOL0     C21448   2.325   6.134   8.805 -0.3368 -0.6520 -0.5126
  156MOL0     O21449   2.396   6.048   8.724 -0.0416  0.1507  0.3486
  156MOL0     C21450   2.385   6.070   8.576  0.2030  0.9500  0.0033
  156MOL0     C21451   2.466   5.960   8.504 -0.1720  0.7548  1.0857
  156MOL0     C21452   2.617   5.955   8.542  0.7850 -0.4878 -0.1989
  156MOL0     C21453   2.699   5.890   8.432 -0.0557 -0.0204  1.0747
  156MOL0     C21454   2.728   5.993   8.327 -0.7169 -0.5494 -1.4342
  156MOL0     C21455   2.783   6.052   8.237  0.0336 -0.2040 -0.0311
  156MOL0     C21456   2.278   6.260   8.758  0.4721 -0.6015 -0.8321
  156MOL0     C21457   2.212   6.352   8.839  1.1348 -0.3987  0.5940
  156MOL0     C21458   2.179   6.487   8.780 -0.9550 -0.1612 -0.7239
  156MOL0     H21459   1.997   6.600   9.248 -2.2903  0.1396  0.6366
  156MOL0     H21460   1.894   6.650   9.436 -0.8030 -1.6777  0.0440
  156MOL0     H21461   1.775   6.564   9.694  0.8220 -2.1589  3.2105
  156MOL0     H21462   1.877   6.706   9.666 -2.8465  0.2396  0.8832
  156MOL0     H21463   1.797   6.694   9.910  0.9453  1.3123  0.3637
  156MOL0     H21464   1.901   6.550   9.929  0.2198  1.3674  3.3108
  156MOL0     H21465   2.058   6.713   9.984 -0.7760  0.0916  1.2813
  156MOL0     H21466   2.077   6.734   9.810  1.2837 -2.5982  0.6147
  156MOL0     H21467   1.899   6.910   9.826 -2.1159 -1.5379  1.1128
  156MOL0     H21468   1.916   6.874   9.999  1.6728 -3.1561  0.3487
  156MOL0     H21469   2.160   6.971   9.826  2.9877 -1.6568  2.9249
  156MOL0     H21470   2.163   6.913   9.980  0.6349  1.3079  0.6510
  156MOL0     H21471   2.027   7.174   9.863 -2.2373  0.1746  1.0881
  156MOL0     H21472   1.982   7.119  10.022  1.3634 -0.1781  0.2827
  156MOL0     H21473   2.251   7.192   9.898 -1.4783 -0.7772 -1.7583
  156MOL0     H21474   2.252   7.149  10.075 -1.6027  0.0743  0.4664
  156MOL0     H21475   2.106   7.336  10.116  0.4554 -1.0935  0.0130
  156MOL0     H21476   2.274   7.363  10.060 -0.2820  0.4267 -1.8477
  156MOL0     H21477   2.299   7.441   9.798  0.9147  2.0101  1.5402
  156MOL0     H21478   2.228   7.722   9.687  3.0808 -2.8921 -0.1786
  156MOL0     H21479   2.057   7.706   9.628  1.2993  0.0564  0.2644
  156MOL0     H21480   2.297   7.548   9.551  0.3749 -1.3754 -1.3343
  156MOL0     H21481   2.124   7.495   9.517  0.3170 -0.5206  2.9599
  156MOL0     H21482   2.117   7.737   9.406 -0.3549 -1.0417 -2.3797
  156MOL0     H21483   2.289   7.747   9.435 -0.7902  1.0570 -0.3321
  156MOL0     H21484   2.156   7.536   9.245 -0.0266  0.8629 -1.2269
  156MOL0     H21485   2.244   7.673   9.188 -1.8142  0.2848  0.0068
  156MOL0     H21486   2.571   7.408   9.328  0.9399 -0.0255  0.7720
  156MOL0     H21487   2.896   7.453   9.229  1.3324 -3.8854  2.1793
  156MOL0     H21488   2.823   7.366   9.344  2.5617 -1.4351 -1.5155
  156MOL0     H21489   2.893   7.508   9.405  0.0616 -3.6624  1.4990
  156MOL0     H21490   2.935   8.081   9.095 -0.7839 -3.3483  1.0422
  156MOL0     H21491   3.122   8.244   9.105 -2.3422 -1.0099 -0.2065
  156MOL0     H21492   3.375   8.255   9.490 -0.1148  1.4216 -0.6817
  156MOL0     H21493   3.437   8.123   9.383 -1.3012 -0.8918 -1.8705
  156MOL0     H21494   3.524   8.305   9.231  1.8407  2.8900 -0.6658
  156MOL0     H21495   3.514   8.401   9.380  1.8077 -1.0215  1.4173
  156MOL0     H21496   3.672   8.158   9.330  0.1018  2.1726 -2.0318
  156MOL0     H21497   3.638   8.225   9.502 -0.6897  2.0405 -0.2978
  156MOL0     H21498   3.733   8.426   9.468  0.2800 -1.7688  2.7249
  156MOL0     H21499   3.753   8.397   9.296 -2.0501 -1.2050  1.0621
  156MOL0     H21500   3.895   8.240   9.503 -2.4658  0.0672 -0.1920
  156MOL0     H21501   3.908   8.228   9.318 -1.4680 -2.2759  1.1376
  156MOL0     H21502   3.990   8.470   9.468 -0.5110  2.3934 -1.1270
  156MOL0     H21503   4.007   8.438   9.295 -2.3513 -1.3267  0.1069
  156MOL0     H21504   4.146   8.215   9.394 -2.4206  0.7519  1.1802
  156MOL0     H21505   4.181   8.351   9.510 -2.4396 -0.3283  0.8185
  156MOL0     H21506   4.340   8.328   9.329 -0.0981  0.5689 -1.7571
  156MOL0     H21507   4.249   8.486   9.313 -4.7263  0.2535  0.6076
  156MOL0     H21508   3.234   8.048   9.475 -1.8348 -3.2287  1.4119
  156MOL0     H21509   3.035   7.911   9.462 -0.5845  1.2895  0.9247
  156MOL0     H21510   2.626   7.888   9.231 -1.1511 -1.0533 -2.1542
  156MOL0     H21511   2.411   7.795   9.254 -0.0059  0.5070  2.8060
  156MOL0     H21512   2.131   6.333   9.634  1.4989  1.7677  0.2179
  156MOL0     H21513   2.243   6.292   9.426  0.5423  0.7534 -1.6770
  156MOL0     H21514   2.225   6.152   9.125 -0.9405 -1.2632 -0.1835
  156MOL0     H21515   2.339   5.994   8.944  0.2687  0.9700 -0.4412
  156MOL0     H21516   2.282   6.084   8.543 -0.0728  2.2510  1.2996
  156MOL0     H21517   2.432   6.167   8.555 -3.0357  2.0984 -2.8090
  156MOL0     H21518   2.462   5.987   8.399 -2.4978  2.6517  1.5663
  156MOL0     H21519   2.414   5.865   8.519  0.7866  0.4173  2.5378
  156MOL0     H21520   2.653   6.053   8.575 -3.4895  1.6317 -1.1089
  156MOL0     H21521   2.623   5.893   8.632  0.0647 -1.1934 -0.6241
  156MOL0     H21522   2.656   5.796   8.394 -0.6770  0.5245  0.4110
  156MOL0     H21523   2.802   5.867   8.462  0.9856 -1.2840 -2.9221
  156MOL0     H21524   2.838   6.088   8.153 -2.8720 -1.0197 -2.4588
  156MOL0     H21525   2.279   6.298   8.656 -3.1544  2.1215 -0.0199
  156MOL0     H21526   2.070   6.497   8.774 -1.1101 -0.9430  0.5706
  156MOL0     H21527   2.213   6.561   8.854  1.0886 -0.8015 -0.9778
  156MOL0     H21528   2.235   6.516   8.690 -0.1392  0.0201 -0.1685
  157MOL0     O21529   9.430   7.009   6.534 -0.4781  0.5050  0.0547
  157MOL0     C21530   9.355   7.106   6.551 -0.9362 -0.0185  0.0432
  157MOL0     O21531   9.380   7.231   6.507 -0.7916  0.2778 -0.1203
  157MOL0     C21532   9.480   7.257   6.415  0.1192  0.0174 -0.6930
  157MOL0     C21533   9.614   7.269   6.450  0.6823  0.2623  0.8476
  157MOL0     C21534   9.709   7.306   6.348 -0.3142 -0.4508 -0.4498
  157MOL0     C21535   9.667   7.351   6.225 -0.3646 -0.6517  0.2413
  157MOL0     O21536   9.764   7.392   6.136 -0.5119  0.2659 -0.3950
  157MOL0     C21537   9.735   7.452   6.013  0.5328 -0.2046 -0.6899
  157MOL0     C21538   9.863   7.461   5.936 -0.4114 -0.8724 -0.0203
  157MOL0     C21539   9.851   7.535   5.796  0.4944  0.4692  0.2244
  157MOL0     C21540   9.982   7.508   5.714 -0.7543 -0.0706  0.1365
  157MOL0     C21541   9.985   7.564   5.567 -0.1041 -0.6591 -0.4277
  157MOL0     C21542  10.119   7.544   5.496 -0.2176 -0.2393 -0.7336
  157MOL0     C21543  10.131   7.399   5.450 -0.8463 -1.1420 -0.3005
  157MOL0     C21544  10.257   7.380   5.363 -0.8113  0.4217 -0.5281
  157MOL0     N21545  10.231   7.436   5.229  0.0560 -0.2999  0.4566
  157MOL0     C21546  10.147   7.383   5.134 -0.8578  0.3243 -0.4100
  157MOL0     C21547  10.178   7.456   5.031 -0.4133 -0.0287 -0.5106
  157MOL0     C21548  10.135   7.431   4.885  0.7605 -0.1561  0.2496
  157MOL0     C21549  10.233   7.330   4.818  0.5010 -0.2297  0.0049
  157MOL0     C21550  10.373   7.397   4.798  0.5003 -0.1696 -0.6882
  157MOL0     C21551  10.474   7.302   4.730  0.6239  0.7019 -0.7397
  157MOL0     O21552  10.423   7.266   4.601  0.2410  0.0238  0.2609
  157MOL0     C21553  10.500   7.190   4.514 -0.4302  0.1151 -0.0241
  157MOL0     C21554  10.640   7.169   4.523 -0.1875 -1.7242  0.4908
  157MOL0     C21555  10.717   7.099   4.431  0.1907  0.0598 -0.1397
  157MOL0     C21556  10.859   7.080   4.437  0.2781  0.0426  0.1119
  157MOL0     C21557  10.639   7.037   4.328 -0.1700  0.1360 -0.3273
  157MOL0     C21558  10.710   6.953   4.236  1.1844 -0.1837 -0.1401
  157MOL0     O21559  10.739   7.001   4.110 -0.3095  0.7632 -0.4554
  157MOL0     C21560  10.838   6.941   4.028 -0.0262 -1.0248 -0.6677
  157MOL0     C21561  10.867   6.805   4.028 -0.7168  0.7362  0.1743
  157MOL0     C21562  10.974   6.759   3.944 -0.0823 -0.4610  0.6360
  157MOL0     C21563  11.038   6.848   3.861  0.2626 -0.2588  0.0514
  157MOL0     O21564  11.140   6.797   3.783 -0.6176  0.4136 -0.2234
  157MOL0     C21565  11.123   6.802   3.641  0.8599 -0.5749 -0.1156
  157MOL0     C21566  11.220   6.713   3.571 -0.2985 -0.3578  0.2558
  157MOL0     C21567  11.203   6.721   3.422  0.6332 -0.8289  1.0942
  157MOL0     C21568  11.244   6.860   3.362 -0.5744  0.0888 -0.6789
  157MOL0     C21569  11.217   6.861   3.212 -0.5435  0.3702  0.2861
  157MOL0     C21570  11.269   6.735   3.137  0.1462  0.4782  0.1370
  157MOL0     C21571  11.259   6.755   2.987  0.5944  0.0859  1.0372
  157MOL0     C21572  11.270   6.623   2.911 -0.5079  0.0512 -0.3138
  157MOL0    Cl21573  11.436   6.569   2.941  0.2588  0.0728 -0.0065
  157MOL0     C21574  10.992   6.980   3.843 -1.0105  0.3453 -0.2611
  157MOL0     C21575  10.902   7.029   3.936  0.4593 -0.2418 -0.4446
  157MOL0     O21576  10.730   6.838   4.277 -0.7499 -0.6401 -0.0770
  157MOL0     C21577  10.503   7.050   4.319  0.0201  0.7415 -0.1138
  157MOL0     C21578  10.436   7.139   4.401  0.1501 -0.3397  0.9597
  157MOL0     N21579  10.258   7.562   5.059  0.4762 -0.3803 -0.3192
  157MOL0     N21580  10.289   7.554   5.178  0.7453 -0.5168  0.7458
  157MOL0     C21581   9.532   7.351   6.190  0.6437 -0.6222 -0.7061
  157MOL0     C21582   9.438   7.300   6.285 -0.4958 -0.3639  0.9035
  157MOL0     C21583   9.240   7.078   6.638 -0.2514  0.4189  0.5743
  157MOL0     C21584   9.264   7.017   6.766 -0.0842  0.0536 -0.0158
  157MOL0     C21585   9.166   7.000   6.860  0.0523 -0.2188  0.3034
  157MOL0     C21586   9.042   7.058   6.834  0.1321 -0.6092  0.3378
  157MOL0     O21587   8.934   7.053   6.919 -0.1720 -0.2181 -0.1687
  157MOL0     C21588   8.946   7.000   7.051 -0.4074  0.8588 -0.0158
  157MOL0     C21589   8.950   6.859   7.059  0.1661  0.6913 -0.0941
  157MOL0     C21590   8.950   6.808   7.208  0.9781  0.1224  0.4333
  157MOL0     C21591   9.012   6.661   7.212 -0.4854 -0.8430 -0.2001
  157MOL0     C21592   8.977   6.580   7.324  0.0243 -0.2882 -0.8140
  157MOL0     C21593   8.955   6.529   7.426 -0.4571  0.4963 -0.1067
  157MOL0     C21594   9.015   7.132   6.712  0.5110 -0.6271 -0.4289
  157MOL0     C21595   9.115   7.138   6.617  0.2638 -0.6798 -0.5334
  157MOL0     C21596   9.080   7.217   6.488  0.1998  0.6288 -0.1706
  157MOL0     H21597   9.657   7.248   6.547  2.8690 -2.4938 -0.5527
  157MOL0     H21598   9.811   7.306   6.384 -1.2442  0.1079  2.4730
  157MOL0     H21599   9.694   7.553   6.029 -0.6424 -0.6927 -0.5030
  157MOL0     H21600   9.658   7.394   5.962  0.3581 -1.3637  0.8144
  157MOL0     H21601   9.943   7.492   6.004  0.3764 -2.2817 -0.2717
  157MOL0     H21602   9.878   7.356   5.909 -3.2417 -1.5881  0.8954
  157MOL0     H21603   9.772   7.491   5.734 -0.2755 -1.1858  2.2672
  157MOL0     H21604   9.825   7.638   5.818 -1.7059 -0.4572  2.3735
  157MOL0     H21605  10.061   7.566   5.763 -1.7178  0.8595  0.6471
  157MOL0     H21606  10.009   7.403   5.720  4.4940  0.8246 -2.3963
  157MOL0     H21607   9.964   7.670   5.581  1.0307 -0.4758 -0.0454
  157MOL0     H21608   9.900   7.520   5.513 -0.5926  1.4894 -1.5018
  157MOL0     H21609  10.117   7.604   5.404  0.5089 -2.5803 -2.3732
  157MOL0     H21610  10.208   7.558   5.559 -1.2524 -2.0014  1.2434
  157MOL0     H21611  10.050   7.355   5.390  0.8308 -2.5377 -1.6572
  157MOL0     H21612  10.132   7.333   5.538 -1.0009  0.3791  0.8843
  157MOL0     H21613  10.337   7.439   5.409  0.2868 -0.9472 -0.5965
  157MOL0     H21614  10.286   7.275   5.370 -3.1552 -0.2746 -0.3121
  157MOL0     H21615  10.086   7.294   5.125 -0.1803 -0.1915 -0.0433
  157MOL0     H21616  10.134   7.527   4.833 -0.1842  0.7849  1.9265
  157MOL0     H21617  10.031   7.398   4.883  0.4418  0.8195 -2.0409
  157MOL0     H21618  10.231   7.237   4.876 -0.8183 -1.8943 -2.5424
  157MOL0     H21619  10.185   7.306   4.723 -2.8701 -2.3001  2.0162
  157MOL0     H21620  10.369   7.493   4.746 -0.7022  0.9469  1.3133
  157MOL0     H21621  10.412   7.425   4.897 -0.9648  0.9581 -0.3806
  157MOL0     H21622  10.574   7.346   4.735  2.7049 -3.6688  1.7170
  157MOL0     H21623  10.486   7.210   4.787 -0.1001 -0.3353 -2.1758
  157MOL0     H21624  10.690   7.222   4.603  0.6866  0.8002 -1.5832
  157MOL0     H21625  10.905   7.179   4.425 -1.4871  0.9843  0.7386
  157MOL0     H21626  10.898   7.012   4.360  1.0161 -1.6805  1.9207
  157MOL0     H21627  10.889   7.055   4.539 -1.4939  0.0583  0.6642
  157MOL0     H21628  10.809   6.735   4.088 -0.3637  1.0200  0.8580
  157MOL0     H21629  11.010   6.656   3.944  1.0706 -0.0893 -0.5996
  157MOL0     H21630  11.022   6.769   3.617  0.3873 -2.1137  3.3568
  157MOL0     H21631  11.133   6.905   3.605  0.9829 -0.3549  0.5316
  157MOL0     H21632  11.316   6.761   3.589 -0.1882 -0.2927 -0.4781
  157MOL0     H21633  11.214   6.611   3.609 -3.7015 -1.3031 -2.3537
  157MOL0     H21634  11.101   6.693   3.396  0.7995 -0.1342 -0.4115
  157MOL0     H21635  11.273   6.647   3.381  1.9503  1.6925 -1.6170
  157MOL0     H21636  11.351   6.875   3.379 -0.3213  1.4981 -2.9875
  157MOL0     H21637  11.189   6.943   3.407 -1.7698 -0.7462 -0.5485
  157MOL0     H21638  11.109   6.862   3.194 -0.2020 -1.2750 -2.2294
  157MOL0     H21639  11.256   6.950   3.162 -1.8257  0.3070 -0.9133
  157MOL0     H21640  11.210   6.648   3.170  0.0508  0.0794 -1.0401
  157MOL0     H21641  11.376   6.718   3.153  0.5351  0.6084 -2.0759
  157MOL0     H21642  11.337   6.823   2.951 -0.0385 -0.3226 -1.1988
  157MOL0     H21643  11.160   6.797   2.968  0.4949  0.4538  2.2657
  157MOL0     H21644  11.251   6.642   2.805 -1.8423  0.2280 -0.0600
  157MOL0     H21645  11.190   6.555   2.941 -0.4143 -1.3712 -2.9565
  157MOL0     H21646  11.027   7.056   3.775 -2.6013  1.6511  0.3070
  157MOL0     H21647  10.886   7.136   3.928  2.9809  0.2185 -0.0129
  157MOL0     H21648  10.448   7.015   4.232 -0.1626 -0.7734  0.5735
  157MOL0     H21649  10.330   7.147   4.382  0.2732 -0.8257  0.0085
  157MOL0     H21650   9.488   7.384   6.096  0.3163 -2.0519 -1.0738
  157MOL0     H21651   9.331   7.295   6.270 -0.1544  1.0704 -3.0402
  157MOL0     H21652   9.361   6.985   6.801  0.9679  3.2831  0.3258
  157MOL0     H21653   9.199   6.941   6.945  2.7958  0.4277 -0.2208
  157MOL0     H21654   9.032   7.035   7.109 -0.5152  0.1200  0.6048
  157MOL0     H21655   8.861   7.030   7.112 -1.0611 -1.5949  0.3715
  157MOL0     H21656   9.035   6.828   6.998  0.2312  2.4790 -0.9533
  157MOL0     H21657   8.869   6.806   7.008  0.2810  1.0720 -0.6766
  157MOL0     H21658   9.014   6.882   7.258  1.0481 -0.1198  0.7069
  157MOL0     H21659   8.851   6.820   7.254  1.6365 -0.3698  2.0540
  157MOL0     H21660   9.119   6.682   7.207 -0.7954  0.7092 -1.1398
  157MOL0     H21661   8.988   6.608   7.119  0.2828  0.5112 -1.2124
  157MOL0     H21662   8.952   6.472   7.517 -0.4996  0.2041 -0.2900
  157MOL0     H21663   8.913   7.169   6.700  1.0916  0.8132 -1.1645
  157MOL0     H21664   9.117   7.320   6.486  1.4480  0.1926 -2.2539
  157MOL0     H21665   9.138   7.177   6.404 -0.1481  2.0194 -1.1051
  157MOL0     H21666   8.975   7.201   6.465  1.0311 -3.8595 -1.8065
  158MOL0     O21667   1.566   9.039   5.394  0.2404  0.7736  0.4608
  158MOL0     C21668   1.561   9.132   5.318  0.2667 -0.8585 -0.6724
  158MOL0     O21669   1.653   9.233   5.325 -0.2230 -0.1050 -0.3951
  158MOL0     C21670   1.782   9.207   5.365 -0.7438  0.3097  0.3619
  158MOL0     C21671   1.872   9.155   5.272  0.0394 -0.1206 -0.7763
  158MOL0     C21672   2.008   9.149   5.317 -0.0072  0.9161  0.8883
  158MOL0     C21673   2.049   9.190   5.436  0.3587  0.0397 -0.2724
  158MOL0     O21674   2.185   9.197   5.448 -0.7733 -0.3257  0.0710
  158MOL0     C21675   2.243   9.277   5.551 -0.3364 -0.3901 -0.4141
  158MOL0     C21676   2.396   9.280   5.535  0.2393  0.9863 -0.4108
  158MOL0     C21677   2.461   9.252   5.672 -0.0848 -0.9450 -0.7302
  158MOL0     C21678   2.615   9.258   5.650 -1.1360  0.1535 -0.6687
  158MOL0     C21679   2.680   9.225   5.790  0.2612  0.0473 -0.6640
  158MOL0     C21680   2.836   9.240   5.778  0.0585 -0.4987  0.0889
  158MOL0     C21681   2.908   9.149   5.671 -0.0088 -0.2720 -0.3409
  158MOL0     C21682   3.057   9.167   5.676 -0.0286 -0.0160  0.7519
  158MOL0     N21683   3.116   9.112   5.793 -0.1452  0.3627 -0.1164
  158MOL0     C21684   3.108   8.977   5.827 -0.1348 -0.5807  0.2127
  158MOL0     C21685   3.169   8.970   5.954  0.8693 -0.3063 -0.1259
  158MOL0     C21686   3.186   8.853   6.047  0.6586 -0.9417 -0.5498
  158MOL0     C21687   3.321   8.793   6.017  0.2950  0.0631 -0.9231
  158MOL0     C21688   3.327   8.731   5.876  0.6105  0.1378  0.3415
  158MOL0     C21689   3.435   8.634   5.875 -0.3056  0.4631 -0.0964
  158MOL0     O21690   3.474   8.619   5.742 -0.3486  0.0341  0.0795
  158MOL0     C21691   3.576   8.540   5.708 -0.5819  1.2172  0.0577
  158MOL0     C21692   3.678   8.487   5.791 -1.0624  0.5862 -0.6979
  158MOL0     C21693   3.789   8.408   5.741  0.3547  0.9839 -0.6447
  158MOL0     C21694   3.879   8.351   5.849  0.4034 -0.5681  0.2095
  158MOL0     C21695   3.803   8.382   5.603  0.2748 -0.4073 -0.4618
  158MOL0     C21696   3.918   8.302   5.556  0.3684  1.6161  0.3305
  158MOL0     O21697   4.037   8.303   5.620  0.1496  0.5568  0.1094
  158MOL0     C21698   4.144   8.222   5.587  1.0402  0.1198  0.6017
  158MOL0     C21699   4.265   8.267   5.635  0.1200  0.0789 -0.5627
  158MOL0     C21700   4.385   8.196   5.610 -0.6032 -0.9347 -0.5420
  158MOL0     C21701   4.384   8.076   5.544  0.0341  0.4068  0.1333
  158MOL0     O21702   4.508   8.016   5.537  0.3765  0.4713  0.0899
  158MOL0     C21703   4.522   7.917   5.437  0.0934 -0.1467  0.2347
  158MOL0     C21704   4.671   7.869   5.451 -0.2066 -0.3881  0.3239
  158MOL0     C21705   4.769   7.968   5.383  0.0463  0.2217  0.5484
  158MOL0     C21706   4.920   7.942   5.419  1.0710  0.7278 -0.7354
  158MOL0     C21707   5.013   8.012   5.321  0.0929 -0.0646 -0.0272
  158MOL0     C21708   5.167   8.003   5.359 -0.7192  0.0341  0.6624
  158MOL0     C21709   5.216   8.080   5.483 -0.3168 -1.0859 -0.0481
  158MOL0     C21710   5.360   8.046   5.514 -0.0244  0.3353 -0.7924
  158MOL0    Cl21711   5.464   8.144   5.412  0.0441  0.0287 -0.3582
  158MOL0     C21712   4.263   8.037   5.477 -0.4221 -0.5884  0.5562
  158MOL0     C21713   4.142   8.113   5.496  0.0903  1.0204  0.6809
  158MOL0     O21714   3.878   8.232   5.457 -0.1495  0.3813 -0.5223
  158MOL0     C21715   3.693   8.428   5.527  0.8685 -0.1514  0.4745
  158MOL0     C21716   3.589   8.506   5.577  1.1150 -0.3677 -0.6154
  158MOL0     N21717   3.203   9.097   5.992 -0.8013  0.1900  0.1435
  158MOL0     N21718   3.189   9.171   5.888  0.6914 -0.6503 -0.0301
  158MOL0     C21719   1.952   9.251   5.523  0.4891  0.3352 -0.5806
  158MOL0     C21720   1.813   9.253   5.491 -0.6335 -0.1411 -0.0595
  158MOL0     C21721   1.442   9.146   5.232 -0.5710  0.0482  0.1950
  158MOL0     C21722   1.328   9.071   5.260  0.8585 -0.2096 -0.3723
  158MOL0     C21723   1.207   9.111   5.202 -0.0831  0.2971  0.5330
  158MOL0     C21724   1.197   9.216   5.113 -0.0950  0.0763 -0.6835
  158MOL0     O21725   1.081   9.274   5.070  0.1942 -0.1798  0.5619
  158MOL0     C21726   0.958   9.204   5.076  0.4006  0.1681 -0.1015
  158MOL0     C21727   0.871   9.305   5.154 -0.7007  0.3811 -1.0112
  158MOL0     C21728   0.734   9.252   5.144  0.6114 -0.1778  0.6715
  158MOL0     C21729   0.629   9.336   5.218  0.0768  0.4252 -0.7447
  158MOL0     C21730   0.625   9.483   5.176 -0.2315 -0.1152  0.3056
  158MOL0     C21731   0.631   9.609   5.144 -0.7200  0.6062  0.3042
  158MOL0     C21732   1.313   9.289   5.082  0.1124 -0.4474 -0.0060
  158MOL0     C21733   1.438   9.248   5.137  0.2676  0.2166  0.6418
  158MOL0     C21734   1.555   9.290   5.052  0.4069  0.0734  0.3915
  158MOL0     H21735   1.848   9.127   5.170  0.3829  1.0828 -1.2058
  158MOL0     H21736   2.075   9.130   5.234  0.5251  1.6105  1.1487
  158MOL0     H21737   2.235   9.221   5.645 -0.2849 -0.2323 -0.3161
  158MOL0     H21738   2.197   9.375   5.562  1.5963  0.7427 -1.8483
  158MOL0     H21739   2.430   9.202   5.466  1.0668  0.7404  0.2524
  158MOL0     H21740   2.424   9.373   5.486 -1.0354  1.6764  0.1405
  158MOL0     H21741   2.414   9.316   5.747  1.8265  0.0840 -0.3463
  158MOL0     H21742   2.436   9.147   5.691 -1.8386 -0.8088 -2.0376
  158MOL0     H21743   2.653   9.185   5.579 -0.7152 -1.0422  0.7400
  158MOL0     H21744   2.646   9.353   5.606 -2.7089  0.7233 -0.6176
  158MOL0     H21745   2.647   9.128   5.827  1.0848 -0.4772 -1.2537
  158MOL0     H21746   2.634   9.295   5.860 -0.3746 -0.7191 -0.3192
  158MOL0     H21747   2.871   9.343   5.769  0.5205 -0.6052  0.5922
  158MOL0     H21748   2.875   9.216   5.877 -0.2728  0.4848  0.4653
  158MOL0     H21749   2.867   9.167   5.571  1.0324 -0.0639 -0.7428
  158MOL0     H21750   2.880   9.046   5.693 -0.5204  0.2270  1.5079
  158MOL0     H21751   3.089   9.109   5.590 -2.6722 -0.3855 -0.0872
  158MOL0     H21752   3.084   9.273   5.670 -1.3446  0.2989 -0.1036
  158MOL0     H21753   3.068   8.897   5.766 -1.0545 -1.0525  1.3899
  158MOL0     H21754   3.093   8.797   6.059  0.8700 -0.7303  3.0955
  158MOL0     H21755   3.186   8.900   6.145 -4.2372 -0.9159 -0.3371
  158MOL0     H21756   3.398   8.870   6.025 -0.9240  1.3410 -1.2069
  158MOL0     H21757   3.341   8.724   6.100  3.2497 -0.0882 -1.6614
  158MOL0     H21758   3.228   8.688   5.857 -0.3227  0.8902  3.1041
  158MOL0     H21759   3.346   8.806   5.798  0.4741 -1.1717 -0.9948
  158MOL0     H21760   3.519   8.679   5.929 -1.0204  1.3333  0.3035
  158MOL0     H21761   3.410   8.541   5.927  2.4167  0.9073  2.2941
  158MOL0     H21762   3.676   8.506   5.898 -2.4103 -0.4488 -0.5120
  158MOL0     H21763   3.826   8.335   5.944 -0.1681  0.8871  0.1556
  158MOL0     H21764   3.960   8.419   5.876 -1.7755  1.2771  2.5985
  158MOL0     H21765   3.912   8.253   5.811 -1.0501 -0.8586 -0.3883
  158MOL0     H21766   4.250   8.366   5.676 -0.0119 -0.3150  0.3772
  158MOL0     H21767   4.481   8.232   5.646 -2.0652  4.5306 -1.2059
  158MOL0     H21768   4.463   7.829   5.463  0.7766 -0.8550 -0.5538
  158MOL0     H21769   4.506   7.941   5.331  0.9962 -3.2360 -0.7096
  158MOL0     H21770   4.705   7.870   5.555 -1.6557  1.1996  0.8287
  158MOL0     H21771   4.693   7.771   5.407  3.8732  0.4510  0.0546
  158MOL0     H21772   4.750   8.072   5.413 -0.7423 -0.1622  1.4160
  158MOL0     H21773   4.759   7.958   5.274  0.2780  1.8502  0.3491
  158MOL0     H21774   4.937   7.834   5.421 -1.8518  0.1415 -2.1521
  158MOL0     H21775   4.945   7.977   5.519  2.4207 -2.1370  0.0369
  158MOL0     H21776   4.997   7.972   5.221 -0.5420 -1.6409  0.6769
  158MOL0     H21777   4.997   8.120   5.317  3.0970  0.6354  2.6396
  158MOL0     H21778   5.232   8.030   5.275  0.1727  1.6963  1.8402
  158MOL0     H21779   5.183   7.896   5.372 -4.1244 -0.9373 -1.5966
  158MOL0     H21780   5.159   8.061   5.574  1.2998  1.8323  1.7250
  158MOL0     H21781   5.203   8.187   5.465  0.2777 -1.0345 -0.1922
  158MOL0     H21782   5.383   7.939   5.523 -2.0808  0.0316  5.0164
  158MOL0     H21783   5.387   8.081   5.614  0.7430 -0.2465 -0.7857
  158MOL0     H21784   4.262   7.952   5.409 -2.3977 -1.5902  1.7512
  158MOL0     H21785   4.052   8.070   5.453 -0.7495  0.0822  3.2038
  158MOL0     H21786   3.707   8.401   5.423  1.3687  1.7364  0.0117
  158MOL0     H21787   3.514   8.548   5.511 -1.0911 -1.2932  1.1344
  158MOL0     H21788   1.974   9.296   5.620  1.6668  3.2857 -2.1114
  158MOL0     H21789   1.744   9.295   5.564 -1.4726 -1.1380 -0.2631
  158MOL0     H21790   1.330   8.983   5.324  1.2696 -0.2945 -0.5024
  158MOL0     H21791   1.119   9.054   5.228 -1.7835  2.3590 -0.3667
  158MOL0     H21792   0.921   9.172   4.978 -1.3697 -1.6038  1.0648
  158MOL0     H21793   0.949   9.116   5.140 -2.7428  0.4691  0.0269
  158MOL0     H21794   0.875   9.397   5.095 -0.8768  1.3010  0.3640
  158MOL0     H21795   0.900   9.329   5.257  1.1532 -1.2872 -1.0712
  158MOL0     H21796   0.694   9.239   5.043 -1.9614  2.0102  1.2986
  158MOL0     H21797   0.735   9.155   5.194 -0.4034 -0.0737  0.9073
  158MOL0     H21798   0.639   9.327   5.327  1.5598  0.5414 -0.8516
  158MOL0     H21799   0.533   9.287   5.201  0.1620  0.3868 -1.1285
  158MOL0     H21800   0.644   9.712   5.120  0.3744  0.1682 -1.1145
  158MOL0     H21801   1.306   9.371   5.011  1.8614 -0.9973 -0.8729
  158MOL0     H21802   1.610   9.374   5.096 -0.6946  1.4887 -0.8224
  158MOL0     H21803   1.618   9.203   5.031 -0.0251 -0.4053  1.0242
  158MOL0     H21804   1.520   9.340   4.961  0.6296  0.4644  0.5165
  159MOL0     O21805   3.818   0.465   1.173  0.7284 -0.0125  0.2590
  159MOL0     C21806   3.818   0.583   1.221 -0.1974 -0.1521  0.6384
  159MOL0     O21807   3.927   0.660   1.222 -0.6496 -0.3962  0.0045
  159MOL0     C21808   4.046   0.603   1.204 -0.1263  0.2804  0.1736
  159MOL0     C21809   4.083   0.564   1.078 -0.2465 -0.8218  0.3151
  159MOL0     C21810   4.206   0.500   1.058  0.3023  0.4655  0.4301
  159MOL0     C21811   4.285   0.475   1.168  0.1942  0.5089 -0.0272
  159MOL0     O21812   4.394   0.399   1.144  0.1133  0.1453 -0.3654
  159MOL0     C21813   4.517   0.414   1.222 -0.6030 -1.4033 -0.2293
  159MOL0     C21814   4.631   0.331   1.165  0.0550  0.4027  0.6880
  159MOL0     C21815   4.655   0.341   1.008  0.3450  0.3346 -0.1444
  159MOL0     C21816   4.684   0.488   0.963 -0.1975  0.1831 -1.1456
  159MOL0     C21817   4.821   0.492   0.885  0.1972  0.6042 -0.0453
  159MOL0     C21818   4.868   0.637   0.880 -0.2347  0.3686 -0.0472
  159MOL0     C21819   4.986   0.649   0.777  0.0044  0.0608  0.0470
  159MOL0     C21820   5.051   0.778   0.794  0.0593  0.1618 -1.1980
  159MOL0     N21821   5.146   0.788   0.685 -0.4781 -0.5080 -0.5342
  159MOL0     C21822   5.116   0.808   0.548  0.4147  0.2840  0.0316
  159MOL0     C21823   5.240   0.792   0.492  0.4270 -0.7401 -0.1699
  159MOL0     C21824   5.278   0.817   0.350  0.7890 -0.6342  0.1777
  159MOL0     C21825   5.343   0.962   0.335 -0.2743 -0.3348 -0.2718
  159MOL0     C21826   5.315   1.032   0.201 -0.9184 -0.7841  0.5758
  159MOL0     C21827   5.364   0.959   0.083  0.1609  0.8515  0.1134
  159MOL0     O21828   5.506   0.950   0.070 -0.0557  0.9154  0.1273
  159MOL0     C21829   5.555   0.875  -0.034 -0.2722 -0.6052 -0.0576
  159MOL0     C21830   5.480   0.823  -0.142 -0.7058  0.1326  0.1333
  159MOL0     C21831   5.540   0.738  -0.242  0.8263 -0.1221 -0.1663
  159MOL0     C21832   5.443   0.684  -0.346 -0.9519 -0.0468 -0.6769
  159MOL0     C21833   5.672   0.687  -0.217  1.0978 -0.5672 -0.0760
  159MOL0     C21834   5.739   0.591  -0.298  0.7364  0.1182  0.8697
  159MOL0     O21835   5.872   0.595  -0.297  0.8718  0.1919  0.4540
  159MOL0     C21836   5.943   0.519  -0.378  0.1290 -1.1698  0.4262
  159MOL0     C21837   6.059   0.467  -0.318 -0.3027  0.3050 -0.5819
  159MOL0     C21838   6.144   0.387  -0.386 -0.8578  0.1773  0.1400
  159MOL0     C21839   6.125   0.371  -0.524 -0.0381 -0.0735  0.3759
  159MOL0     O21840   6.237   0.323  -0.584  0.0116  0.7243 -0.0985
  159MOL0     C21841   6.236   0.304  -0.728 -0.2456  0.7971  0.0440
  159MOL0     C21842   6.371   0.230  -0.763 -0.0526 -0.1055 -0.3105
  159MOL0     C21843   6.392   0.230  -0.920 -0.2373 -0.4308 -1.0053
  159MOL0     C21844   6.540   0.192  -0.961  0.9312  0.5854 -0.3593
  159MOL0     C21845   6.535   0.131  -1.105 -0.7220 -0.2056  0.6646
  159MOL0     C21846   6.505   0.248  -1.206 -0.1151 -0.3258 -0.0116
  159MOL0     C21847   6.481   0.199  -1.354  0.1140 -0.0964  0.1163
  159MOL0     C21848   6.406   0.315  -1.416  0.1084  0.1258  0.3037
  159MOL0    Cl21849   6.245   0.317  -1.362 -0.1376  0.2136  0.1224
  159MOL0     C21850   6.004   0.415  -0.588 -0.8331  0.0812 -0.4212
  159MOL0     C21851   5.921   0.491  -0.508 -0.1142 -0.6053 -0.3088
  159MOL0     O21852   5.670   0.502  -0.359 -0.8663  0.0645 -0.2144
  159MOL0     C21853   5.749   0.737  -0.106 -0.1365 -0.0165  0.9153
  159MOL0     C21854   5.687   0.835  -0.025 -0.5184 -0.6386  0.4672
  159MOL0     N21855   5.345   0.779   0.589  0.2154 -0.2775  1.0802
  159MOL0     N21856   5.279   0.778   0.703 -0.5117 -0.1419  0.8722
  159MOL0     C21857   4.251   0.502   1.297 -0.1323 -0.4924 -0.5034
  159MOL0     C21858   4.128   0.583   1.310 -0.2963  0.7452  0.0158
  159MOL0     C21859   3.688   0.644   1.269 -0.0555 -0.2229 -0.2128
  159MOL0     C21860   3.584   0.558   1.292  0.1060  0.1746  0.2297
  159MOL0     C21861   3.468   0.594   1.346  0.1225  0.0431 -0.3371
  159MOL0     C21862   3.451   0.724   1.381  1.3014  0.2442 -0.6333
  159MOL0     O21863   3.327   0.749   1.436  0.3922  0.7237  0.2428
  159MOL0     C21864   3.270   0.883   1.413  0.7616  0.7749  0.4551
  159MOL0     C21865   3.119   0.881   1.401  0.2588  0.6061 -0.1810
  159MOL0     C21866   3.063   0.797   1.282  0.9009 -0.7147  0.1871
  159MOL0     C21867   2.917   0.776   1.303 -0.3506 -0.1994  0.1226
  159MOL0     C21868   2.864   0.707   1.183  0.0062 -0.2150  0.4773
  159MOL0     C21869   2.826   0.659   1.081  0.3875 -0.1520  0.4810
  159MOL0     C21870   3.543   0.819   1.352  0.7340  0.0560 -0.4535
  159MOL0     C21871   3.663   0.780   1.294 -0.3927 -0.2408  0.3295
  159MOL0     C21872   3.770   0.885   1.300  0.5995  0.1266  0.6942
  159MOL0     H21873   4.019   0.583   0.993  1.7480 -1.1639 -1.3583
  159MOL0     H21874   4.241   0.478   0.957 -0.2421 -0.9436  0.5137
  159MOL0     H21875   4.501   0.380   1.325 -2.3135 -3.9137 -1.2235
  159MOL0     H21876   4.556   0.515   1.233 -0.7660 -1.6000  3.2497
  159MOL0     H21877   4.729   0.355   1.207  0.9151 -0.6728 -0.6218
  159MOL0     H21878   4.615   0.229   1.201 -0.7871 -0.1239 -1.0725
  159MOL0     H21879   4.736   0.269   0.990  0.3075 -0.2810  1.9292
  159MOL0     H21880   4.559   0.308   0.968  0.1500  1.3251 -0.5255
  159MOL0     H21881   4.608   0.530   0.896 -0.2897  0.8216 -0.6528
  159MOL0     H21882   4.701   0.557   1.046  0.8897  1.5730 -2.4473
  159MOL0     H21883   4.808   0.453   0.783 -2.4897  0.5045  0.2782
  159MOL0     H21884   4.899   0.432   0.933 -0.0303  1.0733  0.9342
  159MOL0     H21885   4.788   0.700   0.841  0.9344  0.6562 -2.1971
  159MOL0     H21886   4.900   0.670   0.979 -3.1895 -0.2686  1.2093
  159MOL0     H21887   4.939   0.641   0.679 -2.2169 -1.7131  1.1558
  159MOL0     H21888   5.059   0.567   0.783  1.0977  1.0737  1.3268
  159MOL0     H21889   4.978   0.859   0.797  0.9383  1.0922  3.7535
  159MOL0     H21890   5.098   0.781   0.893 -0.0959  1.5499 -1.1425
  159MOL0     H21891   5.022   0.829   0.499 -0.5332 -3.5240 -0.1577
  159MOL0     H21892   5.183   0.816   0.297  2.5366  0.3281 -3.2513
  159MOL0     H21893   5.335   0.734   0.308  3.2474  0.6238  0.8506
  159MOL0     H21894   5.319   1.033   0.414  0.9776  2.2744 -2.0836
  159MOL0     H21895   5.452   0.964   0.329 -0.2328  2.3673  0.1341
  159MOL0     H21896   5.209   1.058   0.195 -0.4801  1.7914  2.3740
  159MOL0     H21897   5.363   1.130   0.197 -1.5476 -0.5151 -2.2880
  159MOL0     H21898   5.323   0.858   0.090 -0.4197  1.1187  0.7696
  159MOL0     H21899   5.327   1.008  -0.007  4.2935  3.1926 -0.5801
  159MOL0     H21900   5.374   0.847  -0.148 -0.5890  0.7003  0.2710
  159MOL0     H21901   5.484   0.695  -0.448 -0.2478 -1.5178 -0.5788
  159MOL0     H21902   5.342   0.722  -0.328 -0.7421  0.4571 -0.5519
  159MOL0     H21903   5.432   0.578  -0.321  0.4787 -0.1409 -0.3530
  159MOL0     H21904   6.073   0.507  -0.218  0.6441 -0.8380 -0.2423
  159MOL0     H21905   6.223   0.339  -0.328  0.7031  3.1699  0.6740
  159MOL0     H21906   6.150   0.253  -0.771  1.1855 -0.5294 -1.3622
  159MOL0     H21907   6.238   0.401  -0.779  0.2597  0.0989 -1.3067
  159MOL0     H21908   6.453   0.290  -0.723 -0.6619  0.8085 -0.3960
  159MOL0     H21909   6.363   0.128  -0.724 -0.6305  0.5481  1.4115
  159MOL0     H21910   6.379   0.331  -0.960 -1.0522  1.4668  3.3862
  159MOL0     H21911   6.316   0.161  -0.958 -2.5163  1.0801  0.5220
  159MOL0     H21912   6.558   0.111  -0.889 -2.3506 -0.0408 -0.0684
  159MOL0     H21913   6.609   0.273  -0.937  0.2838  0.9175  0.4329
  159MOL0     H21914   6.632   0.083  -1.122 -0.6302  0.2297 -0.0657
  159MOL0     H21915   6.461   0.055  -1.133  1.6481 -2.1183 -0.7113
  159MOL0     H21916   6.592   0.315  -1.213 -0.1223 -0.4798 -2.3299
  159MOL0     H21917   6.422   0.312  -1.176  1.1746  0.8812  1.1075
  159MOL0     H21918   6.416   0.111  -1.355 -3.9367  2.5971  0.2272
  159MOL0     H21919   6.572   0.170  -1.407  0.8220  1.4726  0.4141
  159MOL0     H21920   6.403   0.299  -1.524 -1.2186  1.4784  0.1111
  159MOL0     H21921   6.450   0.406  -1.372  0.3839 -0.5042  1.3810
  159MOL0     H21922   5.976   0.385  -0.688  2.2047  1.0813 -1.6792
  159MOL0     H21923   5.833   0.532  -0.556  1.4574  3.7296  0.1053
  159MOL0     H21924   5.848   0.700  -0.084  2.3520  2.6178 -4.0994
  159MOL0     H21925   5.748   0.869   0.058 -0.6656 -1.6503  1.0116
  159MOL0     H21926   4.319   0.486   1.381  0.0116  1.9992 -0.0791
  159MOL0     H21927   4.097   0.623   1.407 -0.6528 -0.3419  0.3650
  159MOL0     H21928   3.599   0.453   1.271  2.8458  0.6246 -0.5335
  159MOL0     H21929   3.384   0.529   1.366 -0.0683  0.3794 -0.0224
  159MOL0     H21930   3.298   0.938   1.503  3.5224 -1.6940  1.2901
  159MOL0     H21931   3.301   0.930   1.319 -0.1772  0.5748  0.0417
  159MOL0     H21932   3.081   0.981   1.378 -1.9656 -0.4015 -1.2079
  159MOL0     H21933   3.073   0.855   1.497 -1.2321 -1.2909 -1.3534
  159MOL0     H21934   3.077   0.857   1.191  0.1813  0.2101  0.6704
  159MOL0     H21935   3.116   0.702   1.276 -0.0626 -1.1911 -1.4304
  159MOL0     H21936   2.868   0.873   1.322  1.9797  0.6770  2.1621
  159MOL0     H21937   2.895   0.716   1.391 -0.4656 -0.2166  0.0830
  159MOL0     H21938   2.807   0.624   0.981  1.6860  1.8825 -0.5414
  159MOL0     H21939   3.532   0.920   1.390 -1.3313 -1.1526  2.5408
  159MOL0     H21940   3.720   0.982   1.302  2.1262  1.2103 -3.0667
  159MOL0     H21941   3.841   0.879   1.383  1.2827  2.2202  0.3147
  159MOL0     H21942   3.824   0.890   1.204  0.7481 -0.7104  0.7283
  160MOL0     O21943   3.141   7.340   6.328  0.3198  0.0217 -0.5905
  160MOL0     C21944   3.186   7.243   6.389  1.1729 -0.8919 -0.1748
  160MOL0     O21945   3.298   7.181   6.371  0.4980 -0.5691 -0.2170
  160MOL0     C21946   3.395   7.250   6.295 -0.0681 -0.2931 -0.2850
  160MOL0     C21947   3.388   7.238   6.156  0.0225  1.3109 -0.1679
  160MOL0     C21948   3.468   7.308   6.073  0.4763 -1.2638  0.0466
  160MOL0     C21949   3.565   7.396   6.125 -0.2517  0.8639 -0.1244
  160MOL0     O21950   3.627   7.459   6.023 -0.8271 -0.1422  0.3569
  160MOL0     C21951   3.738   7.545   6.061  0.0337 -1.1189  0.2524
  160MOL0     C21952   3.789   7.621   5.941 -0.6918  0.1934  0.2147
  160MOL0     C21953   3.868   7.538   5.842  0.9376 -0.0766 -0.3197
  160MOL0     C21954   3.834   7.591   5.702  0.0272  0.0717 -0.6772
  160MOL0     C21955   3.896   7.496   5.611  0.6277 -0.2280  0.7388
  160MOL0     C21956   3.863   7.537   5.466 -0.7184  0.7920 -0.4807
  160MOL0     C21957   3.965   7.470   5.374 -0.4085 -0.1965  1.0295
  160MOL0     C21958   4.093   7.564   5.355  0.9292  0.1610  0.3230
  160MOL0     N21959   4.162   7.526   5.234 -0.2883  0.2343 -0.3999
  160MOL0     C21960   4.250   7.602   5.166 -1.1010  0.2804  0.5331
  160MOL0     C21961   4.302   7.511   5.074  0.7941  0.1356  0.5353
  160MOL0     C21962   4.388   7.544   4.958  0.1832 -0.8930  0.2348
  160MOL0     C21963   4.336   7.519   4.817  0.4425 -0.5580 -0.2026
  160MOL0     C21964   4.372   7.641   4.733 -0.1874  0.0932  0.7224
  160MOL0     C21965   4.321   7.612   4.586  0.3217  0.5218  0.2597
  160MOL0     O21966   4.181   7.652   4.571  0.7249 -0.8301 -0.2513
  160MOL0     C21967   4.114   7.606   4.462 -0.2978 -0.3443 -0.4975
  160MOL0     C21968   4.173   7.537   4.349  0.5061  0.6130 -0.2648
  160MOL0     C21969   4.098   7.495   4.241  0.0507 -0.5025  0.0255
  160MOL0     C21970   4.156   7.389   4.146 -0.2135 -0.8795 -0.2982
  160MOL0     C21971   3.964   7.540   4.233  0.4932  0.8443 -0.2914
  160MOL0     C21972   3.873   7.510   4.130  0.9882  0.2433 -0.0586
  160MOL0     O21973   3.791   7.618   4.092 -0.0584 -0.3445 -0.3072
  160MOL0     C21974   3.706   7.604   3.986  0.2658  0.3424  0.5923
  160MOL0     C21975   3.751   7.592   3.849  0.3507 -0.4002  0.3546
  160MOL0     C21976   3.677   7.580   3.740 -0.4142  0.0699  0.3468
  160MOL0     C21977   3.538   7.566   3.761  0.7965  0.4455  0.3057
  160MOL0     O21978   3.438   7.529   3.667 -0.0302  0.0333  0.5142
  160MOL0     C21979   3.490   7.488   3.542 -0.1569 -0.8818 -0.6567
  160MOL0     C21980   3.382   7.434   3.449  0.3061 -0.2119 -0.6123
  160MOL0     C21981   3.337   7.302   3.516  0.1479 -0.1342  0.3094
  160MOL0     C21982   3.221   7.240   3.435  0.3984  1.0930  0.3580
  160MOL0     C21983   3.151   7.126   3.512 -0.8896 -0.2009  0.6729
  160MOL0     C21984   3.058   7.041   3.436  0.4878  0.2995 -0.8301
  160MOL0     C21985   2.919   7.098   3.400  0.4330  0.0799  0.3102
  160MOL0     C21986   2.814   6.989   3.363  0.1334 -0.7512  0.2085
  160MOL0    Cl21987   2.862   6.884   3.216  0.5147  0.0741  0.1333
  160MOL0     C21988   3.489   7.573   3.893  0.0211  0.4220  0.5357
  160MOL0     C21989   3.569   7.595   3.999  0.7861 -0.3233 -0.2184
  160MOL0     O21990   3.861   7.393   4.088  0.2715  0.3962 -0.6826
  160MOL0     C21991   3.909   7.615   4.339 -0.4347 -0.2250 -0.3354
  160MOL0     C21992   3.975   7.639   4.461  0.9770  0.4398  0.1818
  160MOL0     N21993   4.235   7.391   5.086 -0.3055  0.3898  0.6559
  160MOL0     N21994   4.160   7.399   5.186  0.2970  0.3785 -0.4243
  160MOL0     C21995   3.581   7.400   6.265  0.4538 -0.3383 -0.5249
  160MOL0     C21996   3.500   7.323   6.352 -0.1452  0.5514 -0.0425
  160MOL0     C21997   3.102   7.197   6.511  0.1268  0.1096 -0.1997
  160MOL0     C21998   2.965   7.172   6.501  0.3208 -1.2019 -0.1382
  160MOL0     C21999   2.888   7.132   6.604  0.2329 -0.9912 -0.0386
  160MOL0     C22000   2.939   7.101   6.724 -0.4478  0.0501 -0.0774
  160MOL0     O22001   2.853   7.056   6.812 -0.2324 -0.0034 -0.6314
  160MOL0     C22002   2.870   7.108   6.947 -0.7826  0.1029  0.1272
  160MOL0     C22003   2.811   7.249   6.946 -0.7719 -1.0967 -0.7048
  160MOL0     C22004   2.657   7.258   6.936  1.4039  0.8549 -0.8046
  160MOL0     C22005   2.578   7.237   7.074 -0.6732 -0.0276  0.5746
  160MOL0     C22006   2.606   7.337   7.179  0.2258  0.2864 -0.2630
  160MOL0     C22007   2.651   7.414   7.267 -0.4019 -0.5212 -0.1584
  160MOL0     C22008   3.072   7.127   6.746  0.0934  0.0179 -1.0006
  160MOL0     C22009   3.159   7.169   6.641 -0.0545 -0.3242 -0.1881
  160MOL0     C22010   3.307   7.171   6.665  0.2075  1.0587 -0.1592
  160MOL0     H22011   3.304   7.196   6.102  1.7989 -0.6904 -1.5017
  160MOL0     H22012   3.433   7.308   5.970 -1.0745 -2.3202  0.5431
  160MOL0     H22013   3.825   7.486   6.089  0.4584 -2.6349 -3.5990
  160MOL0     H22014   3.704   7.629   6.123 -0.9211  0.2147 -1.9545
  160MOL0     H22015   3.702   7.659   5.887 -1.4437 -1.6834  0.0552
  160MOL0     H22016   3.851   7.702   5.982 -1.4130  0.6686  0.3793
  160MOL0     H22017   3.976   7.545   5.855  1.1953 -2.0810 -1.0470
  160MOL0     H22018   3.831   7.436   5.856 -1.3222  0.7811  0.4624
  160MOL0     H22019   3.725   7.603   5.690 -0.6621 -0.6389  3.3507
  160MOL0     H22020   3.878   7.690   5.689  0.9306 -0.2152  0.1052
  160MOL0     H22021   3.852   7.395   5.616  0.6636 -0.1987  2.1845
  160MOL0     H22022   4.003   7.481   5.630  0.5623 -2.2833 -0.2204
  160MOL0     H22023   3.765   7.499   5.437  0.0275 -0.8612 -0.9241
  160MOL0     H22024   3.880   7.645   5.465 -0.5731  0.7802  0.4297
  160MOL0     H22025   3.913   7.458   5.278  0.0240  4.0788  0.0276
  160MOL0     H22026   3.995   7.369   5.401  1.9163  0.0825 -0.2239
  160MOL0     H22027   4.057   7.666   5.339  2.5286  0.9794  1.6712
  160MOL0     H22028   4.154   7.576   5.445  1.4306 -2.4177  0.4026
  160MOL0     H22029   4.287   7.701   5.194 -1.1224  0.1116  1.1798
  160MOL0     H22030   4.484   7.491   4.965 -0.1726 -1.5860 -0.0294
  160MOL0     H22031   4.409   7.651   4.966 -3.1490  0.0969 -1.9566
  160MOL0     H22032   4.390   7.434   4.775  2.0354  0.0420  0.5712
  160MOL0     H22033   4.228   7.501   4.824  1.0196 -4.2948  0.8952
  160MOL0     H22034   4.314   7.724   4.774  0.1781  0.6324  0.1725
  160MOL0     H22035   4.480   7.659   4.741 -0.5708  2.3897  1.4506
  160MOL0     H22036   4.387   7.659   4.513  0.7111  1.2952  1.0908
  160MOL0     H22037   4.336   7.505   4.571  1.1900  0.7749 -0.7334
  160MOL0     H22038   4.276   7.509   4.365 -0.0478 -1.2144  0.5057
  160MOL0     H22039   4.141   7.433   4.046 -0.1268 -1.1466 -0.4301
  160MOL0     H22040   4.109   7.294   4.172  1.0224 -1.4310  0.0113
  160MOL0     H22041   4.263   7.374   4.162 -0.5675 -1.2247  2.1234
  160MOL0     H22042   3.856   7.592   3.819  0.7661 -0.8763  1.7246
  160MOL0     H22043   3.720   7.597   3.642 -1.9418 -0.4132 -0.4438
  160MOL0     H22044   3.542   7.571   3.494 -0.4922 -0.2435  0.0621
  160MOL0     H22045   3.556   7.403   3.563  0.8972  0.4839  2.1812
  160MOL0     H22046   3.300   7.505   3.436  2.1142  1.8107 -1.6592
  160MOL0     H22047   3.430   7.439   3.351  2.4961  0.1664  0.4019
  160MOL0     H22048   3.299   7.330   3.614  1.9920  1.9159  0.5156
  160MOL0     H22049   3.426   7.239   3.522  1.3154  1.3366 -0.7180
  160MOL0     H22050   3.269   7.206   3.343  1.1084  1.0172  0.7465
  160MOL0     H22051   3.155   7.320   3.398 -0.0781  0.1924 -0.8072
  160MOL0     H22052   3.235   7.066   3.549  0.4086  1.4237  0.4682
  160MOL0     H22053   3.095   7.170   3.595  1.8220  0.5456  2.2334
  160MOL0     H22054   3.044   6.945   3.486  2.0399 -1.4443 -3.5190
  160MOL0     H22055   3.111   7.015   3.344  0.2478 -0.3093 -0.7987
  160MOL0     H22056   2.932   7.149   3.304  0.2365 -0.9370 -0.2760
  160MOL0     H22057   2.873   7.168   3.470  2.1683  0.4930  1.1000
  160MOL0     H22058   2.720   7.036   3.335  0.4046  0.4194  1.1621
  160MOL0     H22059   2.783   6.934   3.452 -0.4963  1.1420  1.2178
  160MOL0     H22060   3.384   7.550   3.908 -0.3093 -0.5805 -2.5363
  160MOL0     H22061   3.516   7.609   4.093  0.5143  2.5090 -0.7129
  160MOL0     H22062   3.808   7.656   4.338 -0.9087 -1.1690 -3.7148
  160MOL0     H22063   3.926   7.700   4.535 -1.6110 -0.6282 -0.5622
  160MOL0     H22064   3.666   7.455   6.304  0.0634 -1.2803  1.8058
  160MOL0     H22065   3.515   7.323   6.459  2.6322 -0.7080 -0.3414
  160MOL0     H22066   2.911   7.206   6.413 -0.7215 -0.2127  0.8595
  160MOL0     H22067   2.780   7.130   6.601  0.1564 -0.8614 -4.4869
  160MOL0     H22068   2.798   7.055   7.010 -0.3454  1.0493  1.4542
  160MOL0     H22069   2.968   7.103   6.995 -0.6665 -2.3708 -0.2241
  160MOL0     H22070   2.857   7.303   6.862 -0.1699  0.7678  0.7542
  160MOL0     H22071   2.831   7.307   7.036  3.1477  0.6485 -2.4432
  160MOL0     H22072   2.624   7.352   6.892  1.3311  0.6486 -1.1966
  160MOL0     H22073   2.618   7.176   6.875  0.4325 -1.7484  2.9192
  160MOL0     H22074   2.610   7.137   7.106  3.3800  0.1370 -2.1641
  160MOL0     H22075   2.470   7.238   7.057 -0.4197  1.5142 -1.3993
  160MOL0     H22076   2.673   7.485   7.345 -1.5533 -0.5553  0.2106
  160MOL0     H22077   3.120   7.090   6.837 -0.0490 -1.4538 -1.4961
  160MOL0     H22078   3.335   7.161   6.770  2.6430 -1.5169 -0.9162
  160MOL0     H22079   3.371   7.095   6.618  0.9274  1.7135 -0.2471
  160MOL0     H22080   3.337   7.272   6.637 -1.3269  1.7819  0.6798
  161MOL0     O22081   5.334   3.759   3.469 -0.3087 -0.1823 -1.0461
  161MOL0     C22082   5.287   3.683   3.555  0.2632 -0.4402 -0.2201
  161MOL0     O22083   5.365   3.616   3.641  0.6608 -0.3260 -0.2799
  161MOL0     C22084   5.496   3.589   3.610  0.9365 -1.1499 -0.2848
  161MOL0     C22085   5.530   3.493   3.516  0.2306  0.3696 -0.4271
  161MOL0     C22086   5.658   3.457   3.487 -0.4280 -0.2574 -0.6413
  161MOL0     C22087   5.763   3.515   3.556 -0.0614  0.4580 -0.0905
  161MOL0     O22088   5.888   3.477   3.511  0.5428 -0.6148  0.3719
  161MOL0     C22089   5.999   3.555   3.564  0.1074 -0.0989 -0.2082
  161MOL0     C22090   6.120   3.499   3.494  0.1156  0.4273 -0.3603
  161MOL0     C22091   6.244   3.528   3.578 -0.6590 -0.0918 -0.1322
  161MOL0     C22092   6.357   3.510   3.485  0.0468 -0.0179  0.4284
  161MOL0     C22093   6.501   3.511   3.547 -0.0368 -0.1759  0.7176
  161MOL0     C22094   6.545   3.642   3.622 -0.7265  0.7428 -0.0855
  161MOL0     C22095   6.533   3.768   3.529  0.9388  0.4834  0.7095
  161MOL0     C22096   6.601   3.895   3.592  0.9213  0.8042  0.1626
  161MOL0     N22097   6.571   4.015   3.520  0.5092  0.5916  0.8870
  161MOL0     C22098   6.657   4.116   3.473 -0.8087  0.4105 -0.3926
  161MOL0     C22099   6.582   4.225   3.453  0.6265 -0.4317 -0.0999
  161MOL0     C22100   6.623   4.368   3.430 -0.6804 -0.1167  0.8112
  161MOL0     C22101   6.757   4.391   3.498  0.2054  0.4700 -0.3153
  161MOL0     C22102   6.795   4.532   3.499 -0.4872  0.0052  0.2185
  161MOL0     C22103   6.902   4.564   3.604 -0.3448  0.1950 -0.8797
  161MOL0     O22104   6.993   4.457   3.582  0.2141  0.4660 -0.1917
  161MOL0     C22105   7.108   4.454   3.660  0.0806 -0.5043  0.6782
  161MOL0     C22106   7.201   4.354   3.626  0.3494  0.1941 -0.3294
  161MOL0     C22107   7.320   4.342   3.694 -1.1058 -0.9056  0.1230
  161MOL0     C22108   7.406   4.226   3.646 -0.1167  0.3768 -0.2032
  161MOL0     C22109   7.352   4.426   3.802 -0.2982  0.9823  0.7181
  161MOL0     C22110   7.487   4.437   3.875 -1.0264  1.3980 -0.7640
  161MOL0     O22111   7.485   4.481   4.010 -0.2610  0.0980  0.1412
  161MOL0     C22112   7.606   4.479   4.085  0.2202  0.0958  0.3569
  161MOL0     C22113   7.697   4.372   4.073 -0.5162 -0.5888 -0.1158
  161MOL0     C22114   7.813   4.377   4.154  0.9625  0.7826  0.9417
  161MOL0     C22115   7.829   4.476   4.253  0.4383 -0.7326  2.0567
  161MOL0     O22116   7.950   4.472   4.315  0.4685  0.3788 -0.5792
  161MOL0     C22117   8.018   4.593   4.356 -0.0575 -0.1502  0.9810
  161MOL0     C22118   8.163   4.574   4.414 -0.2558  0.2105 -0.3878
  161MOL0     C22119   8.256   4.491   4.327 -0.4601 -0.8671 -0.0445
  161MOL0     C22120   8.316   4.385   4.419 -0.6449  0.3458  0.1630
  161MOL0     C22121   8.446   4.302   4.375  0.7711 -0.1849  0.4422
  161MOL0     C22122   8.562   4.379   4.317 -0.8416 -0.0774  0.1953
  161MOL0     C22123   8.602   4.504   4.399 -0.4350 -0.4614 -0.1290
  161MOL0     C22124   8.711   4.589   4.353 -0.2924 -0.3640  0.0527
  161MOL0    Cl22125   8.674   4.720   4.227 -0.1864  0.6188  0.1804
  161MOL0     C22126   7.737   4.581   4.261  0.3219 -0.4442 -1.0498
  161MOL0     C22127   7.616   4.575   4.186 -0.5127 -0.0818 -0.0873
  161MOL0     O22128   7.586   4.423   3.799  0.3922  1.1576  0.0628
  161MOL0     C22129   7.253   4.514   3.849  1.0043 -0.0566 -0.2441
  161MOL0     C22130   7.145   4.532   3.771  0.8561  0.3376  0.0462
  161MOL0     N22131   6.452   4.180   3.482  0.9635  0.3707 -0.4353
  161MOL0     N22132   6.442   4.061   3.516 -0.4216  0.3197  0.0515
  161MOL0     C22133   5.730   3.600   3.658 -0.0945  0.1177 -0.0541
  161MOL0     C22134   5.598   3.648   3.684  0.1345 -0.4192  0.6745
  161MOL0     C22135   5.137   3.667   3.554 -0.3690  0.0143  0.5404
  161MOL0     C22136   5.058   3.744   3.459  0.8515 -0.0517 -0.5276
  161MOL0     C22137   4.918   3.736   3.467  0.6008 -0.6221  0.1412
  161MOL0     C22138   4.847   3.655   3.558 -0.6918  0.1067 -0.0643
  161MOL0     O22139   4.711   3.641   3.547  0.4066  0.5205 -0.1326
  161MOL0     C22140   4.676   3.529   3.466  0.1794  0.4027 -0.5743
  161MOL0     C22141   4.745   3.527   3.329 -0.5528  0.1184 -0.7685
  161MOL0     C22142   4.706   3.398   3.256  0.4262  0.0256  0.0599
  161MOL0     C22143   4.768   3.271   3.305 -0.2411 -0.2392 -0.0720
  161MOL0     C22144   4.726   3.164   3.215  0.4576  1.7700  0.2295
  161MOL0     C22145   4.687   3.095   3.120 -0.5800 -0.7927 -0.6266
  161MOL0     C22146   4.921   3.589   3.653  0.1667  0.2704  0.8785
  161MOL0     C22147   5.064   3.586   3.650 -0.5133 -0.1506  1.2360
  161MOL0     C22148   5.121   3.512   3.769  0.3187 -0.3697  0.7932
  161MOL0     H22149   5.455   3.454   3.448 -0.0031 -0.1103  0.0980
  161MOL0     H22150   5.693   3.389   3.410  1.7909  0.1141 -0.0262
  161MOL0     H22151   6.021   3.553   3.671  3.7891 -0.4864 -0.8447
  161MOL0     H22152   5.992   3.662   3.542  0.3561 -0.1242 -0.4149
  161MOL0     H22153   6.117   3.390   3.505 -1.1182  0.3904 -0.9425
  161MOL0     H22154   6.116   3.528   3.389 -1.1493 -1.2898 -0.8323
  161MOL0     H22155   6.248   3.633   3.609  0.4910  0.2890 -1.4613
  161MOL0     H22156   6.261   3.459   3.661  2.6290  0.9711  0.2229
  161MOL0     H22157   6.337   3.428   3.415 -1.2403  1.5053 -1.0795
  161MOL0     H22158   6.353   3.600   3.423  2.8807  1.6902  2.4750
  161MOL0     H22159   6.581   3.503   3.472 -0.1574 -1.2434  0.6806
  161MOL0     H22160   6.509   3.425   3.614  1.3310 -0.8832 -0.2750
  161MOL0     H22161   6.495   3.656   3.718  1.7150  0.9736  1.2214
  161MOL0     H22162   6.651   3.621   3.636 -0.9672 -0.9069 -0.4991
  161MOL0     H22163   6.426   3.788   3.518  1.0700  0.0836 -1.6597
  161MOL0     H22164   6.567   3.754   3.426 -0.7764  0.5409  0.1001
  161MOL0     H22165   6.557   3.913   3.691 -1.0816  0.6163 -0.6555
  161MOL0     H22166   6.705   3.880   3.623  1.1657 -0.0671 -1.0261
  161MOL0     H22167   6.766   4.117   3.467 -0.8776  0.3105 -2.2431
  161MOL0     H22168   6.539   4.417   3.480  0.0965 -0.6778  2.7638
  161MOL0     H22169   6.630   4.403   3.326  0.2455 -0.6985  0.6656
  161MOL0     H22170   6.746   4.357   3.601  1.4421 -1.7149 -0.8523
  161MOL0     H22171   6.834   4.328   3.453 -0.6849 -0.1126 -1.0609
  161MOL0     H22172   6.840   4.559   3.402  3.1955 -1.2513  1.4078
  161MOL0     H22173   6.705   4.592   3.515  0.0123  1.3311 -1.5246
  161MOL0     H22174   6.946   4.664   3.598  1.7132 -0.7071 -1.8622
  161MOL0     H22175   6.865   4.556   3.707  0.9595 -1.7279 -0.4976
  161MOL0     H22176   7.176   4.290   3.542  3.7578 -1.9061  0.0687
  161MOL0     H22177   7.426   4.250   3.542  2.1007  2.6880  0.6414
  161MOL0     H22178   7.356   4.129   3.662 -0.9997  0.8933  0.2404
  161MOL0     H22179   7.503   4.217   3.695  0.1818 -1.8374 -1.0730
  161MOL0     H22180   7.666   4.292   4.006 -2.5321  0.6500 -0.7422
  161MOL0     H22181   7.884   4.296   4.143 -0.9848 -0.7368 -2.1291
  161MOL0     H22182   8.031   4.647   4.262 -1.0576  0.1370  0.9975
  161MOL0     H22183   7.963   4.660   4.422 -0.6179  2.7745 -2.1783
  161MOL0     H22184   8.203   4.675   4.430  0.3443 -0.0130 -0.4639
  161MOL0     H22185   8.150   4.531   4.514 -0.2220 -0.9752 -0.8816
  161MOL0     H22186   8.331   4.550   4.274 -1.9301  0.5990 -0.6011
  161MOL0     H22187   8.195   4.440   4.252 -0.3955 -1.4685  0.3006
  161MOL0     H22188   8.233   4.315   4.436 -0.1616 -1.1199 -2.8450
  161MOL0     H22189   8.351   4.432   4.512 -0.8661 -1.4380  1.2019
  161MOL0     H22190   8.489   4.234   4.450 -1.0736 -2.1665 -0.1951
  161MOL0     H22191   8.404   4.243   4.293 -0.2638 -1.6730  1.9638
  161MOL0     H22192   8.535   4.416   4.218  1.8787  2.0397  0.1247
  161MOL0     H22193   8.651   4.321   4.292  2.6979  4.8735 -0.0370
  161MOL0     H22194   8.634   4.461   4.495 -2.6509 -0.7574  0.5335
  161MOL0     H22195   8.509   4.561   4.407  0.3161  0.9671 -1.2140
  161MOL0     H22196   8.788   4.517   4.324 -0.8449 -0.8042 -0.3597
  161MOL0     H22197   8.746   4.638   4.444 -3.5172  0.9984  0.6953
  161MOL0     H22198   7.745   4.664   4.329  2.0230 -0.4583 -1.1853
  161MOL0     H22199   7.545   4.658   4.188  2.5905  2.7632 -0.0676
  161MOL0     H22200   7.266   4.570   3.941 -0.0149  1.1240 -0.7871
  161MOL0     H22201   7.082   4.609   3.815  1.0690  0.3479  0.3292
  161MOL0     H22202   5.814   3.649   3.707  0.8434 -1.4546 -0.0115
  161MOL0     H22203   5.584   3.711   3.772  2.2012  0.1835  0.6379
  161MOL0     H22204   5.091   3.805   3.375 -0.7766  1.1364 -0.3527
  161MOL0     H22205   4.862   3.803   3.402 -1.8708 -2.2022  0.5177
  161MOL0     H22206   4.697   3.441   3.528  1.8218  1.7071  0.8386
  161MOL0     H22207   4.570   3.533   3.440  0.1780  2.3789 -0.4484
  161MOL0     H22208   4.854   3.533   3.337 -0.5225  1.5965 -1.9546
  161MOL0     H22209   4.706   3.617   3.279 -1.2158 -0.5239 -1.4420
  161MOL0     H22210   4.597   3.395   3.247  0.5777  0.5451 -3.6217
  161MOL0     H22211   4.739   3.416   3.153 -0.7577  1.1911 -0.1417
  161MOL0     H22212   4.732   3.256   3.407  0.7641  0.2808  0.3830
  161MOL0     H22213   4.878   3.272   3.303 -0.1724  2.7973 -2.0373
  161MOL0     H22214   4.641   3.054   3.033 -2.4255  1.7881 -0.9784
  161MOL0     H22215   4.859   3.537   3.725 -2.2995  1.5478 -0.2352
  161MOL0     H22216   5.052   3.439   3.813 -0.9917  0.6693  0.5275
  161MOL0     H22217   5.197   3.449   3.721  0.4272 -0.0490  0.5416
  161MOL0     H22218   5.173   3.572   3.843 -0.2411  0.8985  0.1841
  162MOL0     O22219  10.109   9.098   7.285  0.5995  0.1823  0.0217
  162MOL0     C22220  10.051   9.207   7.276  0.0992  0.1562 -0.2239
  162MOL0     O22221  10.112   9.329   7.305 -0.3168  0.1875 -0.8175
  162MOL0     C22222  10.242   9.315   7.338  1.0089 -0.0329  0.4985
  162MOL0     C22223  10.276   9.272   7.461  0.6563  0.7887  0.2662
  162MOL0     C22224  10.407   9.277   7.504 -1.2891  0.0987  0.1258
  162MOL0     C22225  10.512   9.322   7.418 -0.2961  0.1119 -0.0134
  162MOL0     O22226  10.644   9.311   7.447 -0.1044  0.2207  0.9224
  162MOL0     C22227  10.687   9.189   7.500  0.2699 -0.1593  0.4715
  162MOL0     C22228  10.841   9.202   7.526 -0.1422  0.4433 -0.0619
  162MOL0     C22229  10.878   9.268   7.651 -0.3568  0.0292 -0.7127
  162MOL0     C22230  10.848   9.188   7.782  0.4482  0.5873  0.5261
  162MOL0     C22231  10.927   9.252   7.896 -0.1686 -0.6345 -0.3936
  162MOL0     C22232  11.063   9.186   7.921 -0.4653 -0.2534 -0.4186
  162MOL0     C22233  11.143   9.252   8.043  0.5217 -0.0558  0.6464
  162MOL0     C22234  11.150   9.406   8.035  0.6396 -0.0621  0.1668
  162MOL0     N22235  11.232   9.472   8.138  0.2623 -0.7809 -0.1775
  162MOL0     C22236  11.335   9.559   8.106 -0.5970 -0.3988 -0.9422
  162MOL0     C22237  11.377   9.604   8.231  0.3177  0.4495 -0.7479
  162MOL0     C22238  11.479   9.700   8.264 -0.0771 -0.5828  0.3810
  162MOL0     C22239  11.616   9.638   8.278  1.0764 -0.4501  0.5870
  162MOL0     C22240  11.712   9.738   8.342 -0.2279  0.5167 -0.4877
  162MOL0     C22241  11.856   9.695   8.356  0.4255 -0.2352  0.7201
  162MOL0     O22242  11.863   9.559   8.407 -0.4867  0.0792  0.1423
  162MOL0     C22243  11.984   9.506   8.405  0.2372  0.4478 -0.0740
  162MOL0     C22244  12.070   9.515   8.299 -0.4552 -0.1853  0.2421
  162MOL0     C22245  12.200   9.469   8.294  1.0562 -0.4453 -0.4274
  162MOL0     C22246  12.282   9.506   8.167  0.5408 -0.0446 -0.9501
  162MOL0     C22247  12.241   9.392   8.396 -0.6043  0.5529  0.5871
  162MOL0     C22248  12.373   9.326   8.410 -0.2047 -0.2763  1.0147
  162MOL0     O22249  12.429   9.326   8.526 -0.6343  0.4656 -0.4541
  162MOL0     C22250  12.566   9.295   8.539  0.1353  0.4767 -0.0292
  162MOL0     C22251  12.673   9.380   8.494 -0.8799 -0.6712 -0.0457
  162MOL0     C22252  12.805   9.336   8.519  0.3114 -0.4070 -0.8783
  162MOL0     C22253  12.839   9.224   8.591 -0.7576 -0.0097  0.0352
  162MOL0     O22254  12.977   9.216   8.612  0.2519  0.9383  0.3260
  162MOL0     C22255  13.011   9.180   8.748  0.1501 -0.3265 -0.9050
  162MOL0     C22256  13.151   9.238   8.783  0.0246  0.3359  0.8608
  162MOL0     C22257  13.253   9.170   8.702  0.1662 -0.2669  0.1672
  162MOL0     C22258  13.383   9.254   8.700 -0.7167  0.0964 -0.4596
  162MOL0     C22259  13.499   9.173   8.646 -0.2644 -0.8636  0.7402
  162MOL0     C22260  13.614   9.269   8.645  0.3380 -0.6213 -0.1126
  162MOL0     C22261  13.738   9.199   8.594  0.1696 -0.8742  0.8331
  162MOL0     C22262  13.859   9.288   8.579 -0.1215  0.5136  0.3405
  162MOL0    Cl22263  13.988   9.190   8.529  0.2070  0.1642 -0.3391
  162MOL0     C22264  12.734   9.143   8.633 -0.4488  0.6048  0.7189
  162MOL0     C22265  12.596   9.168   8.599 -0.9292 -0.8249 -0.2325
  162MOL0     O22266  12.420   9.287   8.307  0.0016 -0.1680  0.0355
  162MOL0     C22267  12.150   9.372   8.508  0.5949 -0.2093  0.0035
  162MOL0     C22268  12.030   9.435   8.516  0.6052  0.6804 -0.1845
  162MOL0     N22269  11.296   9.543   8.325  0.0396 -0.3008  0.3895
  162MOL0     N22270  11.211   9.464   8.264 -0.5024 -0.0300  0.3840
  162MOL0     C22271  10.483   9.347   7.288 -0.8261  0.4221 -0.3023
  162MOL0     C22272  10.350   9.344   7.248 -0.1177 -0.1336  0.1239
  162MOL0     C22273   9.906   9.198   7.252 -0.4728  0.0178 -0.8852
  162MOL0     C22274   9.840   9.321   7.264 -0.2365 -0.1610  0.0021
  162MOL0     C22275   9.701   9.330   7.260 -0.2240  0.4550  0.2520
  162MOL0     C22276   9.624   9.220   7.235 -0.2205  0.3484  0.5842
  162MOL0     O22277   9.494   9.248   7.223  0.1069 -0.9557 -0.2478
  162MOL0     C22278   9.413   9.162   7.140  0.2548  1.3114  0.2318
  162MOL0     C22279   9.358   9.235   7.025 -0.4905 -0.3353  0.9138
  162MOL0     C22280   9.468   9.289   6.932 -0.9331  0.4369  0.4571
  162MOL0     C22281   9.417   9.358   6.801 -0.1396 -0.7947 -0.6039
  162MOL0     C22282   9.521   9.376   6.697 -0.4355 -0.4240  0.4773
  162MOL0     C22283   9.596   9.384   6.597 -0.0770  0.1144 -0.1360
  162MOL0     C22284   9.683   9.098   7.211 -0.3847  0.3387  0.7631
  162MOL0     C22285   9.824   9.088   7.226 -0.7884  0.0698 -0.0432
  162MOL0     C22286   9.879   8.943   7.233 -0.5324  0.1457  0.2160
  162MOL0     H22287  10.202   9.217   7.518  2.4691  0.8411  2.8156
  162MOL0     H22288  10.435   9.250   7.605  1.9503 -3.7965 -1.5626
  162MOL0     H22289  10.661   9.108   7.431 -0.5945 -0.6032  1.2949
  162MOL0     H22290  10.635   9.167   7.594  0.4528 -0.9983  0.3793
  162MOL0     H22291  10.889   9.104   7.538 -1.8505 -0.8301 -2.5854
  162MOL0     H22292  10.884   9.243   7.434  2.2545 -0.7621  0.4505
  162MOL0     H22293  10.980   9.307   7.651  0.7615 -2.5894  1.0821
  162MOL0     H22294  10.823   9.362   7.660 -1.6354 -0.6147 -1.4556
  162MOL0     H22295  10.743   9.212   7.797  0.0883  0.2073 -1.1601
  162MOL0     H22296  10.854   9.078   7.777 -0.2817  0.5759 -3.0485
  162MOL0     H22297  10.880   9.253   7.994  1.0224 -1.2192  0.2006
  162MOL0     H22298  10.941   9.357   7.868 -2.9723 -0.7455 -2.7355
  162MOL0     H22299  11.053   9.079   7.941 -1.7297  0.1316  1.2087
  162MOL0     H22300  11.120   9.201   7.829  0.8720 -3.4162 -0.2164
  162MOL0     H22301  11.248   9.219   8.038  1.7034  3.0430  2.3930
  162MOL0     H22302  11.102   9.221   8.139 -2.3707  4.9589  1.3680
  162MOL0     H22303  11.192   9.437   7.939 -0.4839  0.0286 -0.3101
  162MOL0     H22304  11.053   9.454   8.041  1.1379  0.8294  2.0078
  162MOL0     H22305  11.371   9.595   8.010  1.5130  1.0584  0.3281
  162MOL0     H22306  11.454   9.748   8.359 -0.2532  2.1122 -0.9507
  162MOL0     H22307  11.478   9.775   8.185  3.7439  0.2869  0.9376
  162MOL0     H22308  11.620   9.545   8.336 -1.0732  0.0335  1.5944
  162MOL0     H22309  11.665   9.621   8.181 -2.1466 -0.4825 -1.1800
  162MOL0     H22310  11.694   9.832   8.290  1.3982  0.4659 -1.1954
  162MOL0     H22311  11.680   9.754   8.445  4.9658  1.9228  1.2253
  162MOL0     H22312  11.902   9.696   8.258  0.1637 -1.2887  0.5780
  162MOL0     H22313  11.906   9.770   8.419 -3.3421  1.1769  2.3764
  162MOL0     H22314  12.029   9.561   8.209 -0.1214  3.1713  1.6713
  162MOL0     H22315  12.363   9.573   8.197 -0.5760  1.5400 -1.3223
  162MOL0     H22316  12.220   9.569   8.101  2.0687  2.8666  0.2024
  162MOL0     H22317  12.318   9.422   8.108  2.1224  1.3094 -1.9947
  162MOL0     H22318  12.652   9.477   8.449  3.6640  0.2766 -0.6042
  162MOL0     H22319  12.890   9.399   8.493  1.6948 -2.3847 -1.4197
  162MOL0     H22320  12.947   9.221   8.826  1.0825 -2.2215  0.9809
  162MOL0     H22321  13.017   9.071   8.754  0.1537 -0.2292  2.0600
  162MOL0     H22322  13.162   9.346   8.767  0.3224  0.1400 -0.3753
  162MOL0     H22323  13.166   9.221   8.890 -3.8770  1.1540  1.6949
  162MOL0     H22324  13.220   9.155   8.599 -1.6309 -2.8127  1.0168
  162MOL0     H22325  13.274   9.080   8.759 -2.7225 -1.9423 -1.1495
  162MOL0     H22326  13.394   9.289   8.802 -0.7001  1.2407 -0.8444
  162MOL0     H22327  13.373   9.346   8.641  2.6526  1.3464  0.6958
  162MOL0     H22328  13.525   9.087   8.708  4.4191 -0.7057 -0.6659
  162MOL0     H22329  13.474   9.135   8.547 -1.9785  1.8086  0.0096
  162MOL0     H22330  13.638   9.303   8.746  0.8810  1.5993 -0.9157
  162MOL0     H22331  13.594   9.360   8.586  2.4965  1.1652  1.6866
  162MOL0     H22332  13.713   9.171   8.491 -0.4206 -1.0153  1.0138
  162MOL0     H22333  13.763   9.107   8.648  2.7878 -1.9218 -1.8333
  162MOL0     H22334  13.881   9.316   8.682 -0.8069  0.1464  0.5972
  162MOL0     H22335  13.837   9.377   8.519  2.2039 -0.3133 -1.9179
  162MOL0     H22336  12.767   9.058   8.690 -1.1329  1.7604  2.9520
  162MOL0     H22337  12.512   9.107   8.631 -0.1243 -2.2644 -0.8131
  162MOL0     H22338  12.178   9.316   8.597 -1.0224  1.0593  1.3955
  162MOL0     H22339  11.975   9.428   8.610  1.7780  0.8393  0.5464
  162MOL0     H22340  10.559   9.372   7.215  1.0259 -2.7809  0.3301
  162MOL0     H22341  10.316   9.380   7.151  1.3138  0.0933 -0.3246
  162MOL0     H22342   9.888   9.418   7.267 -2.3366  0.9136  1.9596
  162MOL0     H22343   9.655   9.425   7.285 -0.9744 -0.5098  2.8683
  162MOL0     H22344   9.453   9.065   7.108  0.3877  0.3029  3.1469
  162MOL0     H22345   9.324   9.146   7.202 -0.0672 -2.2570 -0.9022
  162MOL0     H22346   9.302   9.322   7.062 -2.3672 -0.5234 -1.2867
  162MOL0     H22347   9.296   9.169   6.963  2.5924 -1.1345 -1.5409
  162MOL0     H22348   9.525   9.363   6.988 -1.4341  1.7201 -0.6841
  162MOL0     H22349   9.524   9.202   6.895 -2.3009 -1.5457  2.7295
  162MOL0     H22350   9.378   9.458   6.822 -0.5375 -1.5622  2.9326
  162MOL0     H22351   9.332   9.303   6.760 -0.9369 -0.5379  0.6528
  162MOL0     H22352   9.646   9.396   6.502 -3.2438 -1.6878 -2.2161
  162MOL0     H22353   9.628   9.006   7.193  2.2242 -1.8278  2.8422
  162MOL0     H22354   9.925   8.919   7.329  0.1106 -1.6007 -0.4928
  162MOL0     H22355   9.807   8.867   7.200 -1.8047  0.1463  2.7512
  162MOL0     H22356   9.960   8.943   7.160  1.1643  1.0293  2.0160
  163MOL0     O22357   1.655   3.892   8.861 -0.0316  0.2931  0.1563
  163MOL0     C22358   1.630   4.007   8.818 -0.0591  0.2850 -0.2604
  163MOL0     O22359   1.639   4.122   8.899  0.0550  0.0520  0.7039
  163MOL0     C22360   1.671   4.122   9.032  0.5306  0.3223  0.2075
  163MOL0     C22361   1.638   4.239   9.097 -0.1927 -0.0798 -0.3435
  163MOL0     C22362   1.668   4.259   9.237  0.6580  0.2724 -0.0266
  163MOL0     C22363   1.709   4.147   9.316 -0.4640 -0.0718  0.0923
  163MOL0     O22364   1.729   4.156   9.453 -0.8230  0.0708 -0.4311
  163MOL0     C22365   1.813   4.068   9.523 -0.1518  0.0879  0.0601
  163MOL0     C22366   1.855   4.107   9.657  0.2812  0.1033  0.4429
  163MOL0     C22367   2.008   4.135   9.659  0.4152  0.0377  0.5179
  163MOL0     C22368   2.064   4.192   9.784  0.2546  0.2018 -0.4570
  163MOL0     C22369   2.214   4.170   9.796  0.1196 -0.3408 -0.0404
  163MOL0     C22370   2.266   4.210   9.933  0.7904  0.4897 -0.8630
  163MOL0     C22371   2.416   4.201   9.938  0.2274 -0.3941 -0.2093
  163MOL0     C22372   2.448   4.047   9.941  0.0587 -0.9034 -0.2258
  163MOL0     N22373   2.597   4.042   9.950 -0.8191 -0.3234 -0.7127
  163MOL0     C22374   2.672   4.063  10.062 -0.7581 -0.3673  0.4500
  163MOL0     C22375   2.798   4.023  10.040  0.5384  0.5181  0.1252
  163MOL0     C22376   2.913   4.030  10.123 -0.6499  0.1644  0.4299
  163MOL0     C22377   2.975   4.174  10.134  1.1638  0.1463 -0.1538
  163MOL0     C22378   3.102   4.170  10.221 -0.6892 -0.5890 -0.2308
  163MOL0     C22379   3.205   4.266  10.166 -0.7148  0.0833  0.1466
  163MOL0     O22380   3.314   4.285  10.260 -0.2403 -0.8236 -0.6608
  163MOL0     C22381   3.431   4.333  10.209  0.1210 -0.6833  1.0532
  163MOL0     C22382   3.521   4.362  10.303  0.1486  0.3176 -0.7012
  163MOL0     C22383   3.653   4.412  10.278 -0.0211 -0.2921  0.2653
  163MOL0     C22384   3.755   4.414  10.386  0.9151  0.7077  0.0282
  163MOL0     C22385   3.678   4.449  10.144 -0.1218 -0.5573  0.3841
  163MOL0     C22386   3.801   4.525  10.105 -0.3369 -0.4232 -0.5524
  163MOL0     O22387   3.791   4.606   9.992 -0.8590 -0.1893 -0.2747
  163MOL0     C22388   3.892   4.697   9.972 -0.0480  0.2845  0.3032
  163MOL0     C22389   3.990   4.661   9.879 -0.1686  0.0306  0.0094
  163MOL0     C22390   4.090   4.748   9.829 -0.2997 -0.0346 -0.8572
  163MOL0     C22391   4.094   4.872   9.888  0.0727 -0.3510  0.0962
  163MOL0     O22392   4.198   4.955   9.845  0.1773 -0.2647  0.0836
  163MOL0     C22393   4.224   4.978   9.716 -0.6954 -0.2333  0.3465
  163MOL0     C22394   4.207   5.127   9.686 -0.4110 -1.1627 -0.3999
  163MOL0     C22395   4.307   5.210   9.766  0.1504 -0.2283  0.2433
  163MOL0     C22396   4.453   5.183   9.738  0.1005 -0.1150  0.2614
  163MOL0     C22397   4.533   5.290   9.803 -0.3271  1.1940 -0.3730
  163MOL0     C22398   4.683   5.246   9.805  0.2423  0.1066  0.1717
  163MOL0     C22399   4.775   5.353   9.847  0.4923  0.5669  0.2765
  163MOL0     C22400   4.912   5.311   9.821  0.4654  0.6188 -0.3686
  163MOL0    Cl22401   5.025   5.443   9.866 -0.3337  0.0690  0.4885
  163MOL0     C22402   3.999   4.908   9.983 -1.0885  0.0031 -0.0494
  163MOL0     C22403   3.900   4.822  10.025 -0.6684 -0.2061  0.2173
  163MOL0     O22404   3.896   4.516  10.177  0.7994 -0.2511  0.5358
  163MOL0     C22405   3.575   4.441  10.050 -0.4146  0.1300  0.6458
  163MOL0     C22406   3.454   4.381  10.077 -0.7342 -0.8989  0.1981
  163MOL0     N22407   2.797   3.968   9.913  0.4010 -0.3359 -0.0860
  163MOL0     N22408   2.675   3.970   9.869 -0.3515 -0.7677  0.2211
  163MOL0     C22409   1.746   4.032   9.239  0.6148  0.1469  0.3984
  163MOL0     C22410   1.731   4.021   9.101 -0.4860  0.3760 -0.4418
  163MOL0     C22411   1.592   4.030   8.672 -0.5145  0.6181 -0.5423
  163MOL0     C22412   1.621   4.152   8.604 -0.4811  0.1946  0.1816
  163MOL0     C22413   1.575   4.156   8.472 -0.2944 -0.3312  0.5422
  163MOL0     C22414   1.513   4.059   8.405 -0.8480 -0.1780  0.8584
  163MOL0     O22415   1.472   4.079   8.274 -1.2033 -0.6313 -0.0990
  163MOL0     C22416   1.388   3.984   8.200 -0.1330  0.2163  0.1274
  163MOL0     C22417   1.253   4.015   8.247 -0.6460  1.0609  0.1620
  163MOL0     C22418   1.216   4.166   8.278 -0.4515 -0.1836 -0.2796
  163MOL0     C22419   1.075   4.212   8.239 -0.3989 -0.3675 -0.9159
  163MOL0     C22420   1.051   4.269   8.110  0.4914 -0.2973 -0.6784
  163MOL0     C22421   1.035   4.313   7.995  0.3597  0.7404 -0.6562
  163MOL0     C22422   1.492   3.942   8.478  0.4530 -0.0517  0.3186
  163MOL0     C22423   1.530   3.923   8.603 -0.2588  0.5151 -0.6529
  163MOL0     C22424   1.478   3.798   8.673  0.1424  0.4161  0.0110
  163MOL0     H22425   1.597   4.320   9.037  2.2653  0.7851 -0.9784
  163MOL0     H22426   1.664   4.362   9.270 -2.0860 -0.0021  0.7316
  163MOL0     H22427   1.899   4.050   9.458  0.5413 -0.3806  1.0778
  163MOL0     H22428   1.756   3.975   9.530 -1.3001  0.6458 -1.1978
  163MOL0     H22429   1.798   4.194   9.690 -3.3850 -0.8526 -2.6738
  163MOL0     H22430   1.834   4.017   9.715 -0.6107  0.8043  1.2370
  163MOL0     H22431   2.060   4.039   9.653  2.7655  1.2279  0.7421
  163MOL0     H22432   2.043   4.203   9.581  2.0675 -0.4525  0.7988
  163MOL0     H22433   2.044   4.300   9.783  2.5945  0.7036 -1.9198
  163MOL0     H22434   2.008   4.145   9.865 -0.1927 -2.3591 -2.1559
  163MOL0     H22435   2.267   4.232   9.723  0.6534  0.3678  0.9316
  163MOL0     H22436   2.231   4.066   9.769 -1.0366 -0.0649 -2.1054
  163MOL0     H22437   2.238   4.314   9.956  0.1980 -0.2081  1.9316
  163MOL0     H22438   2.209   4.155  10.008 -0.3945  0.2880 -1.8824
  163MOL0     H22439   2.461   4.232  10.032  2.7587 -0.7516 -1.2061
  163MOL0     H22440   2.466   4.259   9.859  0.3213 -3.0552 -2.2506
  163MOL0     H22441   2.409   4.000  10.031  2.7894 -1.6690  0.6392
  163MOL0     H22442   2.419   3.978   9.861  2.8046 -1.4992 -0.8158
  163MOL0     H22443   2.641   4.101  10.159  1.2756 -0.6578  1.2587
  163MOL0     H22444   2.991   3.966  10.080 -3.3561 -2.1217 -1.4814
  163MOL0     H22445   2.899   3.982  10.220 -1.6763  2.4110  1.4635
  163MOL0     H22446   2.984   4.218  10.034  2.2493 -2.7786 -1.4356
  163MOL0     H22447   2.905   4.238  10.189 -1.0864 -1.3608 -1.1125
  163MOL0     H22448   3.069   4.209  10.318  1.9530  1.6162 -0.1100
  163MOL0     H22449   3.148   4.071  10.221  1.9900  0.5150 -2.2631
  163MOL0     H22450   3.242   4.225  10.072 -1.7587 -3.0737  0.9950
  163MOL0     H22451   3.160   4.363  10.146 -1.2822 -0.5244 -1.6692
  163MOL0     H22452   3.501   4.332  10.406 -0.4986  1.2356 -0.5543
  163MOL0     H22453   3.850   4.368  10.360  0.6570  0.7175 -0.9573
  163MOL0     H22454   3.711   4.366  10.474  2.1605 -0.0606  0.2636
  163MOL0     H22455   3.786   4.514  10.417  2.4607  0.4078 -0.4541
  163MOL0     H22456   3.982   4.566   9.827  2.3791 -0.9478  1.2035
  163MOL0     H22457   4.172   4.726   9.761  1.6079  1.1748  0.9766
  163MOL0     H22458   4.319   4.942   9.677 -1.3394  0.5542 -2.1278
  163MOL0     H22459   4.141   4.942   9.653 -0.8805  1.9646 -0.7535
  163MOL0     H22460   4.230   5.143   9.581  0.9564 -2.5452 -0.3535
  163MOL0     H22461   4.108   5.164   9.712  0.1450  0.3896 -0.3518
  163MOL0     H22462   4.295   5.207   9.875  0.3606  4.2449  0.5511
  163MOL0     H22463   4.282   5.311   9.734  0.4750 -0.3038 -0.2538
  163MOL0     H22464   4.477   5.162   9.633 -0.4274 -1.3747  0.3746
  163MOL0     H22465   4.458   5.085   9.786 -0.2120  0.2342  1.0096
  163MOL0     H22466   4.505   5.382   9.752 -1.3282  1.4858  0.6625
  163MOL0     H22467   4.520   5.302   9.911  3.4017  2.3907  0.0742
  163MOL0     H22468   4.707   5.214   9.703 -2.3984  0.5660 -0.6778
  163MOL0     H22469   4.685   5.155   9.865  2.0050  1.0766  1.6795
  163MOL0     H22470   4.761   5.368   9.954  1.9171 -2.4417  0.9812
  163MOL0     H22471   4.761   5.440   9.782  3.2620 -0.7061 -2.2712
  163MOL0     H22472   4.921   5.293   9.713  1.9893  0.7292 -0.2807
  163MOL0     H22473   4.943   5.227   9.883 -2.9065 -0.8490 -0.4548
  163MOL0     H22474   3.996   5.009  10.022 -1.1824 -0.3734  0.9485
  163MOL0     H22475   3.825   4.857  10.095 -0.6065  0.0971  0.1362
  163MOL0     H22476   3.591   4.483   9.951 -1.1126  0.1165  0.5244
  163MOL0     H22477   3.393   4.369   9.988 -1.7422 -3.5811  1.1408
  163MOL0     H22478   1.801   3.955   9.293  1.9109  0.4810 -0.4043
  163MOL0     H22479   1.750   3.929   9.046 -4.6498  0.8045 -2.9949
  163MOL0     H22480   1.667   4.238   8.651  0.0381 -1.3567  2.7266
  163MOL0     H22481   1.583   4.243   8.407  0.9689 -1.1482 -0.4495
  163MOL0     H22482   1.392   3.998   8.092 -2.4509 -0.5231 -0.1167
  163MOL0     H22483   1.424   3.882   8.221 -0.1943  0.7587  3.4981
  163MOL0     H22484   1.242   3.969   8.346 -2.4330 -0.8602 -0.8526
  163MOL0     H22485   1.169   3.978   8.188 -1.0164  0.0603  1.2749
  163MOL0     H22486   1.219   4.168   8.387 -6.2877 -1.1822  0.1927
  163MOL0     H22487   1.289   4.239   8.240 -1.1174  1.2392  1.0329
  163MOL0     H22488   1.044   4.281   8.318  1.6349  2.3344 -2.3112
  163MOL0     H22489   1.015   4.122   8.254  0.1956 -0.7452 -0.7542
  163MOL0     H22490   1.044   4.347   7.893  4.2391 -2.1089 -1.5108
  163MOL0     H22491   1.426   3.877   8.422 -1.1425 -0.1773  2.2325
  163MOL0     H22492   1.433   3.833   8.767  0.8001  3.9332 -0.8368
  163MOL0     H22493   1.394   3.767   8.610  0.9698  0.6268 -1.2378
  163MOL0     H22494   1.556   3.726   8.699  0.0100 -0.2120 -1.2509
  164MOL0     O22495   6.796  10.654   6.129 -0.1345  0.1346  0.2517
  164MOL0     C22496   6.815  10.775   6.099  0.5499 -0.3159  0.4135
  164MOL0     O22497   6.797  10.888   6.189 -0.3004 -0.6804  0.0655
  164MOL0     C22498   6.778  10.841   6.323 -0.1324  0.1753 -0.1233
  164MOL0     C22499   6.658  10.831   6.399  0.1155 -0.0523 -0.1667
  164MOL0     C22500   6.679  10.791   6.533 -0.1343 -0.2376 -0.4651
  164MOL0     C22501   6.800  10.752   6.590 -0.2913 -0.0566 -0.4012
  164MOL0     O22502   6.807  10.739   6.727  0.0395 -0.1478  0.0714
  164MOL0     C22503   6.921  10.704   6.794  0.4649 -0.2577  0.2470
  164MOL0     C22504   6.912  10.732   6.950  0.3181  0.2789  0.6317
  164MOL0     C22505   6.930  10.879   6.982  0.1833 -0.3646  0.4097
  164MOL0     C22506   6.886  10.917   7.124  0.7387 -0.2560  0.6158
  164MOL0     C22507   6.913  11.056   7.178  0.6520  1.5749  0.3629
  164MOL0     C22508   7.064  11.048   7.215 -0.1654 -0.7373  0.6982
  164MOL0     C22509   7.094  11.167   7.305 -0.5118 -0.6752 -0.3290
  164MOL0     C22510   7.084  11.294   7.232 -0.1492 -0.4840 -1.2447
  164MOL0     N22511   7.140  11.396   7.327 -0.2233  0.8043  0.6631
  164MOL0     C22512   7.266  11.450   7.312  0.0087  0.0406  0.2310
  164MOL0     C22513   7.259  11.559   7.392  0.2896  0.0489 -0.1044
  164MOL0     C22514   7.381  11.652   7.408 -0.4784  0.5523 -0.3632
  164MOL0     C22515   7.491  11.572   7.488  1.1654  0.4631 -0.8542
  164MOL0     C22516   7.599  11.668   7.540  0.1701  0.3095 -0.2754
  164MOL0     C22517   7.712  11.601   7.606 -0.0583 -0.7430  0.5520
  164MOL0     O22518   7.782  11.519   7.512  0.3244 -0.2510  0.1562
  164MOL0     C22519   7.890  11.446   7.563  0.5881  1.2324  0.0574
  164MOL0     C22520   7.956  11.378   7.468  0.3266 -0.1925 -0.6348
  164MOL0     C22521   8.071  11.306   7.501  0.5395 -0.2778 -0.0177
  164MOL0     C22522   8.127  11.243   7.378  0.6264  0.6192 -0.0991
  164MOL0     C22523   8.128  11.316   7.630 -0.4233  0.4041  0.5808
  164MOL0     C22524   8.266  11.251   7.645  0.3463 -0.6874  0.5735
  164MOL0     O22525   8.366  11.326   7.695  0.4509  0.2163  0.0081
  164MOL0     C22526   8.503  11.299   7.692 -0.5258 -0.6019  0.5418
  164MOL0     C22527   8.559  11.183   7.632 -0.1018  0.3795 -0.0297
  164MOL0     C22528   8.698  11.171   7.629 -0.4453 -0.4493 -0.2526
  164MOL0     C22529   8.780  11.255   7.701 -0.6889  0.0140  0.4074
  164MOL0     O22530   8.912  11.226   7.706 -0.0361 -0.5514 -0.8500
  164MOL0     C22531   9.004  11.334   7.699 -0.3611 -0.2348 -0.2296
  164MOL0     C22532   9.149  11.291   7.695 -0.5747 -0.2212 -0.6655
  164MOL0     C22533   9.258  11.403   7.692 -0.0146 -0.7787 -0.7962
  164MOL0     C22534   9.339  11.418   7.820 -0.5096 -0.1273  0.5555
  164MOL0     C22535   9.483  11.457   7.802 -0.3962 -0.1154 -0.5699
  164MOL0     C22536   9.574  11.440   7.922  0.7962  0.1618 -0.0692
  164MOL0     C22537   9.718  11.490   7.885  0.8337  1.1159  0.4686
  164MOL0     C22538   9.809  11.495   8.005 -0.3914  0.2998 -0.6837
  164MOL0    Cl22539   9.978  11.497   7.935  0.1632 -0.3869  0.0156
  164MOL0     C22540   8.724  11.364   7.760 -0.2583  0.1437  0.2130
  164MOL0     C22541   8.586  11.387   7.760 -0.1991  0.2328  0.1650
  164MOL0     O22542   8.270  11.130   7.616  0.7184 -0.0536 -0.8530
  164MOL0     C22543   8.055  11.380   7.724 -1.1740  0.5040 -0.0784
  164MOL0     C22544   7.938  11.442   7.692  0.8674  0.2994  1.0048
  164MOL0     N22545   7.135  11.561   7.457  0.8126 -0.2715 -0.4392
  164MOL0     N22546   7.064  11.458   7.420  0.1218 -0.6873 -0.4442
  164MOL0     C22547   6.911  10.735   6.504  0.9788 -0.3708 -0.3346
  164MOL0     C22548   6.899  10.785   6.369 -0.2637  0.4084 -0.1819
  164MOL0     C22549   6.817  10.804   5.947 -0.0279 -0.2196 -0.2020
  164MOL0     C22550   6.858  10.700   5.857 -0.2420  0.2292 -1.3935
  164MOL0     C22551   6.882  10.721   5.722 -0.5201 -0.3098  1.0145
  164MOL0     C22552   6.845  10.841   5.656  0.8734  0.1219 -1.1095
  164MOL0     O22553   6.849  10.853   5.518 -0.0516  0.3673 -0.2567
  164MOL0     C22554   6.796  10.976   5.461 -0.0331 -0.4168  0.4254
  164MOL0     C22555   6.781  10.966   5.309  0.0364  0.6003  0.0070
  164MOL0     C22556   6.928  10.930   5.243 -0.1807  0.9902  0.2681
  164MOL0     C22557   7.017  11.042   5.234 -0.5994 -0.1171  0.7987
  164MOL0     C22558   6.955  11.179   5.233  0.0932  0.7024 -0.3580
  164MOL0     C22559   6.912  11.292   5.239 -0.0802  0.2626 -0.1474
  164MOL0     C22560   6.807  10.947   5.744  0.0535 -0.3450 -0.9982
  164MOL0     C22561   6.788  10.932   5.882  0.8544  0.4889 -0.2127
  164MOL0     C22562   6.747  11.056   5.951 -0.4040 -0.1349  0.4951
  164MOL0     H22563   6.562  10.849   6.353  0.5888  1.8404 -0.5101
  164MOL0     H22564   6.591  10.799   6.596  0.7540 -0.9162  0.8867
  164MOL0     H22565   7.009  10.753   6.750  0.3956 -3.4115 -4.0895
  164MOL0     H22566   6.940  10.598   6.771 -0.7896  0.0163 -2.4350
  164MOL0     H22567   6.812  10.708   6.988  0.5070  0.5178  1.2993
  164MOL0     H22568   6.980  10.666   7.005  1.5696 -0.2979 -1.4984
  164MOL0     H22569   7.033  10.906   6.958 -0.5724  0.7200 -1.8922
  164MOL0     H22570   6.871  10.936   6.909  2.3431  1.6976  0.1505
  164MOL0     H22571   6.781  10.891   7.138  0.3497 -0.3896 -2.0363
  164MOL0     H22572   6.930  10.843   7.192  1.7794  1.7302  2.2229
  164MOL0     H22573   6.849  11.061   7.266 -0.7668 -1.6289 -0.3640
  164MOL0     H22574   6.895  11.143   7.115  1.9737  1.9415  0.4448
  164MOL0     H22575   7.082  10.958   7.275 -0.5837 -0.2899  1.5194
  164MOL0     H22576   7.123  11.057   7.124 -0.8129 -0.4622  0.3009
  164MOL0     H22577   7.196  11.157   7.341 -0.2793  1.0442 -0.4141
  164MOL0     H22578   7.025  11.161   7.390 -0.9086 -0.3099 -0.6208
  164MOL0     H22579   7.148  11.297   7.144  0.0579 -0.8195 -1.1067
  164MOL0     H22580   6.984  11.330   7.207 -1.2071 -1.4487  1.1928
  164MOL0     H22581   7.358  11.419   7.263  0.2887  0.3183  0.5694
  164MOL0     H22582   7.347  11.739   7.464 -0.2641  2.1069 -2.5313
  164MOL0     H22583   7.431  11.694   7.321  3.1889  1.4554  1.9502
  164MOL0     H22584   7.439  11.525   7.572  0.9254  0.6122 -0.9175
  164MOL0     H22585   7.540  11.496   7.427 -0.0319  0.5588 -1.9763
  164MOL0     H22586   7.646  11.721   7.457 -2.4954  1.2141 -1.3039
  164MOL0     H22587   7.560  11.738   7.616  3.7619  0.9942  1.1551
  164MOL0     H22588   7.786  11.666   7.653  0.1489  1.0624 -2.0793
  164MOL0     H22589   7.666  11.544   7.688  0.0552  0.7363  1.6998
  164MOL0     H22590   7.914  11.376   7.368  0.1994  1.9182 -0.6514
  164MOL0     H22591   8.081  11.276   7.284 -1.5352  3.6713  1.8453
  164MOL0     H22592   8.106  11.136   7.393  0.0713  0.9138  1.3340
  164MOL0     H22593   8.234  11.261   7.364  0.4586  1.0646 -0.8567
  164MOL0     H22594   8.499  11.110   7.579  1.0844 -0.0940 -0.7688
  164MOL0     H22595   8.745  11.085   7.583 -1.1834 -1.8070  1.3935
  164MOL0     H22596   8.986  11.396   7.611 -3.8760  1.6844  1.6424
  164MOL0     H22597   8.987  11.397   7.786 -1.2678 -0.4884 -0.2164
  164MOL0     H22598   9.158  11.245   7.793 -0.4562  2.9049  0.9264
  164MOL0     H22599   9.163  11.217   7.616  2.5781 -0.9462  0.4315
  164MOL0     H22600   9.216  11.500   7.662  3.4526  0.7944 -1.0103
  164MOL0     H22601   9.327  11.387   7.609  2.2442  0.1324  0.8215
  164MOL0     H22602   9.339  11.323   7.875 -0.2760 -0.1936  0.4446
  164MOL0     H22603   9.288  11.492   7.882  1.4574  0.5406  1.4512
  164MOL0     H22604   9.527  11.400   7.719  2.9134 -0.4612  1.2577
  164MOL0     H22605   9.488  11.561   7.767  1.0959 -0.3609 -1.1937
  164MOL0     H22606   9.577  11.336   7.955 -2.6075  0.0971  0.4362
  164MOL0     H22607   9.535  11.491   8.010  0.6562  0.1774 -0.1399
  164MOL0     H22608   9.727  11.594   7.852 -0.1377  0.7474 -1.0214
  164MOL0     H22609   9.750  11.414   7.813 -0.5404  1.8940 -1.0182
  164MOL0     H22610   9.804  11.402   8.064  1.0428  0.5307 -0.1518
  164MOL0     H22611   9.798  11.583   8.068  0.8338  0.3214 -0.4654
  164MOL0     H22612   8.793  11.434   7.807  0.7400 -1.7040  1.6302
  164MOL0     H22613   8.542  11.475   7.805 -2.0406 -0.1326 -0.7968
  164MOL0     H22614   8.105  11.385   7.820  2.2923 -0.9209 -1.6471
  164MOL0     H22615   7.896  11.491   7.780  2.5766  1.5896  1.1561
  164MOL0     H22616   7.002  10.692   6.544  2.5064  1.6639 -1.4159
  164MOL0     H22617   6.990  10.778   6.311  0.1838 -0.2051  0.5714
  164MOL0     H22618   6.867  10.600   5.900 -0.6898 -1.1529 -4.2626
  164MOL0     H22619   6.932  10.646   5.662  2.6927  3.0213 -0.9356
  164MOL0     H22620   6.701  11.005   5.506  0.0593 -0.6571  0.7777
  164MOL0     H22621   6.863  11.061   5.482 -0.8618  0.6431 -1.0594
  164MOL0     H22622   6.731  11.061   5.284 -0.5522  0.3732  0.3079
  164MOL0     H22623   6.710  10.884   5.293  1.1547  0.0807 -2.6706
  164MOL0     H22624   6.963  10.851   5.310 -4.0360  0.2233  1.6263
  164MOL0     H22625   6.917  10.898   5.139  0.4040  3.1717 -0.5317
  164MOL0     H22626   7.074  11.035   5.140 -2.8969 -3.1928 -0.5439
  164MOL0     H22627   7.091  11.025   5.314 -1.3586  1.2787  1.8240
  164MOL0     H22628   6.870  11.390   5.230 -2.4524 -0.2210  3.4902
  164MOL0     H22629   6.803  11.047   5.702  0.1963 -0.0456 -0.3216
  164MOL0     H22630   6.649  11.048   5.999 -0.2062  2.3154  1.4671
  164MOL0     H22631   6.825  11.076   6.026  0.1957 -0.5488 -0.0127
  164MOL0     H22632   6.748  11.145   5.888  1.9316 -0.6138 -0.2332
  165MOL0     O22633   3.658   1.522   3.164 -0.9278  0.1941  0.4743
  165MOL0     C22634   3.592   1.620   3.183  0.4442 -0.0099  0.5457
  165MOL0     O22635   3.593   1.739   3.113 -0.0586 -1.0074 -0.9941
  165MOL0     C22636   3.673   1.782   3.014  0.0643  0.5478  0.8517
  165MOL0     C22637   3.757   1.695   2.952 -0.3125  0.6307  0.7379
  165MOL0     C22638   3.835   1.754   2.847 -0.6338  0.7205 -0.1480
  165MOL0     C22639   3.829   1.891   2.809 -0.4406 -0.4491  0.6648
  165MOL0     O22640   3.917   1.963   2.731  0.4096  0.1727  0.5332
  165MOL0     C22641   4.010   1.885   2.650 -0.0630  0.0081  0.6610
  165MOL0     C22642   4.035   1.944   2.514  0.7547  0.7769  0.2372
  165MOL0     C22643   3.915   1.933   2.424  0.9246  0.1695  0.3597
  165MOL0     C22644   3.832   2.070   2.426  1.0039 -0.5316 -0.0884
  165MOL0     C22645   3.678   2.067   2.377  0.5653 -0.2957 -0.4880
  165MOL0     C22646   3.597   1.990   2.465  0.3233  0.5340  0.3506
  165MOL0     C22647   3.438   2.013   2.457 -1.5443 -0.5390 -0.1575
  165MOL0     C22648   3.382   1.905   2.367 -0.9747 -0.2178  0.3667
  165MOL0     N22649   3.234   1.880   2.366 -0.3450  0.7243 -0.2994
  165MOL0     C22650   3.173   1.817   2.468  0.0993  0.1606 -0.2386
  165MOL0     C22651   3.047   1.788   2.424  0.7144 -0.7841 -0.2536
  165MOL0     C22652   2.928   1.733   2.492  0.7487  0.3959  0.9106
  165MOL0     C22653   2.932   1.583   2.476 -0.5705 -0.5169 -1.2423
  165MOL0     C22654   2.807   1.530   2.549  0.0299 -0.0986 -0.2565
  165MOL0     C22655   2.805   1.377   2.549 -0.2411 -1.4714  0.3004
  165MOL0     O22656   2.837   1.334   2.412 -0.7964  0.0854 -0.0620
  165MOL0     C22657   2.735   1.312   2.324 -0.5913  0.1237  0.9725
  165MOL0     C22658   2.757   1.286   2.191 -0.7769  0.4854  0.1527
  165MOL0     C22659   2.663   1.269   2.091  0.3958 -0.3023 -0.0615
  165MOL0     C22660   2.696   1.247   1.944 -0.6843 -0.4547 -0.7655
  165MOL0     C22661   2.525   1.284   2.123  0.7151  0.5310  0.1310
  165MOL0     C22662   2.406   1.252   2.035  0.3231  0.7291 -0.2584
  165MOL0     O22663   2.283   1.306   2.081  0.2894  0.5840 -0.7299
  165MOL0     C22664   2.155   1.258   2.054  0.6879 -0.4087  0.7244
  165MOL0     C22665   2.119   1.136   1.985  0.1612  0.1576 -0.0739
  165MOL0     C22666   1.989   1.102   1.970 -0.5163 -0.4193  0.0545
  165MOL0     C22667   1.889   1.184   2.009  1.0676 -0.0319  0.4353
  165MOL0     O22668   1.762   1.140   1.965 -0.2207 -0.6541  0.2596
  165MOL0     C22669   1.650   1.158   2.052 -0.0911  0.0555 -0.5765
  165MOL0     C22670   1.535   1.065   2.017 -0.0774  0.3678 -0.5265
  165MOL0     C22671   1.425   1.062   2.124  0.3244  0.3328  0.3921
  165MOL0     C22672   1.303   0.976   2.081  0.2719 -0.4347 -0.0296
  165MOL0     C22673   1.337   0.828   2.058 -1.0003 -0.9691  0.0791
  165MOL0     C22674   1.229   0.726   2.016  0.7951 -0.3679 -0.8794
  165MOL0     C22675   1.274   0.579   2.011 -0.7732  0.2789  0.4646
  165MOL0     C22676   1.378   0.544   1.905 -0.1374  0.0199  0.5810
  165MOL0    Cl22677   1.542   0.613   1.924  0.1959 -0.0925  0.1994
  165MOL0     C22678   1.919   1.304   2.065  0.4282 -0.2023 -0.1244
  165MOL0     C22679   2.049   1.337   2.093  0.1615  0.1802  0.2269
  165MOL0     O22680   2.408   1.180   1.933 -0.2878  0.2389  0.0629
  165MOL0     C22681   2.499   1.324   2.263  0.2878  0.5688  0.8244
  165MOL0     C22682   2.603   1.339   2.360  0.1781  0.2915  0.5991
  165MOL0     N22683   3.031   1.847   2.299 -0.2497  0.2204  0.4152
  165MOL0     N22684   3.148   1.895   2.261  0.6285  0.3059 -0.2848
  165MOL0     C22685   3.741   1.977   2.872 -0.3741 -0.1828 -0.5985
  165MOL0     C22686   3.658   1.920   2.971 -0.5364  0.4768 -0.3625
  165MOL0     C22687   3.477   1.605   3.287  0.3001 -0.7722 -0.1339
  165MOL0     C22688   3.367   1.695   3.273  0.0153 -0.4361 -0.2772
  165MOL0     C22689   3.250   1.677   3.356  0.1890  0.3826 -0.2555
  165MOL0     C22690   3.241   1.573   3.450  0.4884  1.4654 -0.4840
  165MOL0     O22691   3.138   1.541   3.528 -0.7555  0.0135 -0.5155
  165MOL0     C22692   3.017   1.624   3.521  0.4171  0.3013  0.0369
  165MOL0     C22693   3.021   1.742   3.619 -0.7054 -0.2099 -1.0625
  165MOL0     C22694   3.076   1.704   3.762 -0.4309 -0.3470  0.3208
  165MOL0     C22695   3.013   1.597   3.844 -0.1145  0.1241  0.3952
  165MOL0     C22696   2.868   1.609   3.861  1.4299  1.1057  0.9089
  165MOL0     C22697   2.751   1.617   3.894  1.0156 -0.3235 -0.1663
  165MOL0     C22698   3.363   1.500   3.468 -0.6212  0.4210 -0.3372
  165MOL0     C22699   3.481   1.510   3.389 -0.6605  0.1785  0.1485
  165MOL0     C22700   3.593   1.423   3.420 -0.1177  0.2341  0.8097
  165MOL0     H22701   3.787   1.596   2.984  0.2794  1.0280  1.4259
  165MOL0     H22702   3.923   1.698   2.815 -1.0691  0.0751 -0.2282
  165MOL0     H22703   3.979   1.781   2.632 -2.8231  1.0690 -1.3786
  165MOL0     H22704   4.109   1.889   2.695  0.8628  0.8614 -1.3105
  165MOL0     H22705   4.056   2.052   2.514 -1.6762  1.3535 -1.7600
  165MOL0     H22706   4.118   1.882   2.479 -0.3975 -1.2360  0.9375
  165MOL0     H22707   3.934   1.903   2.320  4.3099 -0.3052  0.9832
  165MOL0     H22708   3.850   1.856   2.467 -1.4489  2.4890  1.1111
  165MOL0     H22709   3.826   2.111   2.527 -0.5207 -0.5052 -0.1672
  165MOL0     H22710   3.885   2.138   2.359  2.2476 -1.0607  0.3394
  165MOL0     H22711   3.672   2.021   2.278 -1.5999  0.6929 -0.8730
  165MOL0     H22712   3.633   2.165   2.359 -1.3165 -0.7542  1.3651
  165MOL0     H22713   3.621   1.884   2.451  0.7132  0.7198 -0.4407
  165MOL0     H22714   3.626   2.018   2.567 -1.8013  0.0212  1.1541
  165MOL0     H22715   3.412   2.114   2.424  0.7029 -0.2777 -1.3444
  165MOL0     H22716   3.395   1.995   2.555  0.9747  0.7659  1.3010
  165MOL0     H22717   3.411   1.935   2.266  1.3371  0.7595  1.2306
  165MOL0     H22718   3.428   1.809   2.394  0.5236  0.9545  2.2947
  165MOL0     H22719   3.204   1.781   2.565 -3.2314 -4.3796 -0.5589
  165MOL0     H22720   2.843   1.781   2.443 -1.1493 -3.1781  0.3968
  165MOL0     H22721   2.929   1.768   2.595  2.0194 -0.7472  1.3096
  165MOL0     H22722   2.946   1.556   2.371 -0.1847  0.2440 -1.3911
  165MOL0     H22723   3.016   1.539   2.531 -0.8404  0.2073 -0.2251
  165MOL0     H22724   2.809   1.559   2.654 -1.6167 -3.9283  0.9923
  165MOL0     H22725   2.720   1.561   2.490  1.1855  1.0903 -1.4255
  165MOL0     H22726   2.888   1.356   2.617  0.1460 -0.0593  0.2926
  165MOL0     H22727   2.729   1.321   2.604  0.7072 -5.5666 -2.1293
  165MOL0     H22728   2.862   1.281   2.164 -0.9940  1.4125 -0.9316
  165MOL0     H22729   2.665   1.148   1.909 -2.3792  0.2061 -1.2160
  165MOL0     H22730   2.803   1.269   1.932 -1.4111  3.1979 -1.9038
  165MOL0     H22731   2.644   1.318   1.880  0.6215  1.9316  0.6755
  165MOL0     H22732   2.187   1.058   1.952 -0.0710 -0.5997  1.1499
  165MOL0     H22733   1.964   1.009   1.921 -3.5023  0.1201  0.3220
  165MOL0     H22734   1.685   1.144   2.154 -1.4134 -0.4893 -0.1669
  165MOL0     H22735   1.616   1.262   2.044  1.1473  0.4137 -1.4128
  165MOL0     H22736   1.496   1.087   1.917  0.8728  2.7575 -0.4403
  165MOL0     H22737   1.591   0.971   2.018  1.3501  1.1728  1.5347
  165MOL0     H22738   1.402   1.169   2.134 -0.8105  0.6595 -3.9659
  165MOL0     H22739   1.474   1.012   2.209  1.8986  1.6397  0.3052
  165MOL0     H22740   1.265   1.015   1.986 -3.5595  2.0680  2.2419
  165MOL0     H22741   1.226   0.984   2.158  0.3204 -1.9795  0.2283
  165MOL0     H22742   1.401   0.828   1.970 -1.8210  0.4772 -0.5718
  165MOL0     H22743   1.390   0.802   2.150  1.9645  0.0622 -1.2018
  165MOL0     H22744   1.182   0.741   1.919 -1.4663 -2.9054 -0.3221
  165MOL0     H22745   1.148   0.736   2.089  2.6691  3.5237  0.9789
  165MOL0     H22746   1.185   0.518   1.999 -1.5133  1.2577  0.7690
  165MOL0     H22747   1.319   0.553   2.108 -2.3530  0.0286  1.1479
  165MOL0     H22748   1.331   0.583   1.814  1.0732 -1.5565 -0.8045
  165MOL0     H22749   1.389   0.436   1.895  1.1021  0.2000 -0.2416
  165MOL0     H22750   1.838   1.365   2.103 -0.6564 -0.4065 -1.9784
  165MOL0     H22751   2.071   1.431   2.142  0.8630  0.9738 -1.5050
  165MOL0     H22752   2.400   1.335   2.305 -0.1411 -0.8462  0.2338
  165MOL0     H22753   2.575   1.352   2.463  1.1678  0.5902  0.8433
  165MOL0     H22754   3.742   2.085   2.861  0.5940  0.4165  3.6294
  165MOL0     H22755   3.590   1.984   3.025  0.7563  0.3672  1.4639
  165MOL0     H22756   3.372   1.772   3.196  2.4922 -0.1546  0.0920
  165MOL0     H22757   3.175   1.755   3.359  0.8666  1.0079  2.1506
  165MOL0     H22758   2.988   1.655   3.420 -2.1091 -5.7984 -1.5726
  165MOL0     H22759   2.931   1.563   3.551 -0.3435  0.3582 -1.8395
  165MOL0     H22760   2.918   1.776   3.633 -0.0309  1.4298  0.3242
  165MOL0     H22761   3.071   1.833   3.587 -0.1055 -0.8292 -1.9384
  165MOL0     H22762   3.182   1.680   3.747 -0.3911 -0.6633  1.0502
  165MOL0     H22763   3.076   1.790   3.830  1.0916 -0.6591  0.7490
  165MOL0     H22764   3.069   1.594   3.938  0.0648 -1.6646  0.2621
  165MOL0     H22765   3.038   1.497   3.807 -0.5763 -1.6430  4.3466
  165MOL0     H22766   2.653   1.629   3.935  0.9472 -1.9887  0.2214
  165MOL0     H22767   3.360   1.425   3.547 -1.4840  0.0891 -0.6730
  165MOL0     H22768   3.615   1.343   3.349  2.8833 -0.8020  2.7142
  165MOL0     H22769   3.682   1.486   3.422 -0.9623  1.4521  3.0029
  165MOL0     H22770   3.586   1.376   3.519  3.1485 -1.0997  0.5496
  166MOL0     O22771   4.513  10.465   1.453  0.7006  0.3078  0.4302
  166MOL0     C22772   4.453  10.462   1.560  0.7840  1.3073  0.0787
  166MOL0     O22773   4.319  10.499   1.585  0.4581  0.4909  0.0984
  166MOL0     C22774   4.251  10.559   1.483 -0.3584  0.8114 -0.6702
  166MOL0     C22775   4.223  10.473   1.371  0.2745 -0.4841 -0.3543
  166MOL0     C22776   4.131  10.512   1.273  0.0795  0.2395  0.1667
  166MOL0     C22777   4.091  10.644   1.265  0.9348 -0.0860 -0.3775
  166MOL0     O22778   4.004  10.690   1.165  0.0184 -0.2518 -0.7611
  166MOL0     C22779   3.978  10.620   1.045 -0.4991 -0.3327 -0.9444
  166MOL0     C22780   3.905  10.706   0.943 -0.4973 -1.0085  0.3870
  166MOL0     C22781   3.907  10.631   0.802  0.8492 -0.4066  0.4399
  166MOL0     C22782   3.839  10.706   0.684 -0.0497 -0.4781 -0.6198
  166MOL0     C22783   3.914  10.829   0.636  0.6311  1.3382  0.1809
  166MOL0     C22784   3.862  10.893   0.504  0.6477  0.4582  1.0196
  166MOL0     C22785   3.728  10.962   0.514  0.9592  0.0673  0.6379
  166MOL0     C22786   3.665  11.008   0.381  0.0552 -0.4667 -0.6685
  166MOL0     N22787   3.553  11.088   0.419 -0.2442 -0.5432 -0.2374
  166MOL0     C22788   3.565  11.219   0.441  0.4080 -0.7165 -0.5907
  166MOL0     C22789   3.443  11.269   0.462 -0.0684 -0.1484 -0.2070
  166MOL0     C22790   3.405  11.413   0.473  0.2888  0.2115  0.3601
  166MOL0     C22791   3.310  11.449   0.360 -0.5301  0.7471 -0.4497
  166MOL0     C22792   3.278  11.596   0.350 -0.7537 -0.8168  0.0472
  166MOL0     C22793   3.220  11.658   0.474 -1.3882  0.4422 -0.2782
  166MOL0     O22794   3.089  11.606   0.492  0.0841  0.5829 -0.2486
  166MOL0     C22795   2.986  11.662   0.417 -0.0845 -0.5079 -0.5836
  166MOL0     C22796   2.856  11.618   0.442  0.0038 -0.3620 -0.0733
  166MOL0     C22797   2.746  11.662   0.370  0.1126  0.0241 -0.2534
  166MOL0     C22798   2.610  11.655   0.433 -0.0273  0.7246  0.5063
  166MOL0     C22799   2.769  11.740   0.257 -0.5173  0.1982 -0.0191
  166MOL0     C22800   2.654  11.764   0.162 -0.3092 -0.5024 -1.0070
  166MOL0     O22801   2.543  11.676   0.154 -0.4561 -0.2876 -0.4069
  166MOL0     C22802   2.420  11.727   0.110 -0.6089  0.1038  0.0429
  166MOL0     C22803   2.308  11.742   0.188  0.5588  0.1753  0.6326
  166MOL0     C22804   2.197  11.809   0.134  0.3291  0.1657  0.2084
  166MOL0     C22805   2.185  11.831  -0.010 -0.3124  0.4943 -0.0960
  166MOL0     O22806   2.063  11.894  -0.054 -0.6534 -0.2597  0.0114
  166MOL0     C22807   2.053  11.941  -0.187 -0.1602 -0.5193  0.0052
  166MOL0     C22808   1.906  11.943  -0.236 -0.4766 -0.2199 -0.6706
  166MOL0     C22809   1.813  11.828  -0.191 -0.5222 -0.0059 -0.5661
  166MOL0     C22810   1.693  11.822  -0.285 -0.8398  0.1188 -0.1404
  166MOL0     C22811   1.593  11.716  -0.227 -1.0010 -0.3158 -0.2094
  166MOL0     C22812   1.467  11.721  -0.300  0.0990  0.7811 -0.4506
  166MOL0     C22813   1.366  11.607  -0.256  0.4119 -0.6488 -0.1119
  166MOL0     C22814   1.242  11.620  -0.353  0.2836  0.3333  0.2270
  166MOL0    Cl22815   1.114  11.510  -0.290 -0.7541  0.1413  0.2015
  166MOL0     C22816   2.302  11.803  -0.082  1.3986 -0.6095 -0.7685
  166MOL0     C22817   2.417  11.743  -0.026 -0.2206  0.0984  0.3394
  166MOL0     O22818   2.672  11.858   0.072  0.3112  0.0871 -0.2965
  166MOL0     C22819   2.892  11.785   0.232 -0.6914  0.1209  0.9493
  166MOL0     C22820   3.003  11.759   0.317 -0.0021 -0.7989 -0.2350
  166MOL0     N22821   3.351  11.154   0.448 -0.4302 -0.5123 -0.2845
  166MOL0     N22822   3.423  11.051   0.436  0.6789 -0.3996 -0.1333
  166MOL0     C22823   4.109  10.725   1.380 -0.3208  0.4607  0.5463
  166MOL0     C22824   4.187  10.689   1.490  0.5090 -0.3162 -0.4653
  166MOL0     C22825   4.527  10.403   1.677 -1.4402 -0.5460  0.3683
  166MOL0     C22826   4.639  10.465   1.745  1.0698 -0.0823  0.6546
  166MOL0     C22827   4.703  10.409   1.855 -0.2267 -0.3939  0.0440
  166MOL0     C22828   4.666  10.281   1.903 -0.3884  0.1141  0.0874
  166MOL0     O22829   4.724  10.218   2.006  0.0595  0.1908  1.2272
  166MOL0     C22830   4.821  10.281   2.088 -0.4766 -0.6933 -0.7616
  166MOL0     C22831   4.902  10.182   2.174 -0.4819  0.4084 -0.2696
  166MOL0     C22832   4.806  10.086   2.252 -0.3152  0.3034  0.1070
  166MOL0     C22833   4.885   9.973   2.331 -0.0321 -0.7817  0.0904
  166MOL0     C22834   5.012   9.925   2.281  0.4141 -1.4838 -0.4897
  166MOL0     C22835   5.124   9.893   2.255 -0.1108 -0.0137 -0.1426
  166MOL0     C22836   4.555  10.225   1.846 -0.3321 -1.6548 -0.5851
  166MOL0     C22837   4.489  10.283   1.736 -0.6114  0.4030 -0.6053
  166MOL0     C22838   4.381  10.200   1.669  0.1973  0.0310  0.0290
  166MOL0     H22839   4.262  10.372   1.362  1.3972  0.0855 -2.4000
  166MOL0     H22840   4.097  10.438   1.201 -3.8940 -0.1025  2.0960
  166MOL0     H22841   3.917  10.530   1.058 -1.3384 -0.0206 -2.5292
  166MOL0     H22842   4.076  10.602   0.999  1.1708  2.9629  0.9784
  166MOL0     H22843   3.801  10.716   0.974 -0.1547  0.9010  1.0717
  166MOL0     H22844   3.963  10.799   0.941 -1.5762 -0.3211 -1.5956
  166MOL0     H22845   4.005  10.602   0.765  0.8902  1.9778 -1.5928
  166MOL0     H22846   3.848  10.539   0.803  0.5692 -0.2296  0.4567
  166MOL0     H22847   3.827  10.639   0.598  0.2020 -0.2803 -0.8110
  166MOL0     H22848   3.741  10.744   0.714  0.1628 -1.2208  1.1567
  166MOL0     H22849   4.015  10.794   0.614  0.5938  2.0877 -1.3104
  166MOL0     H22850   3.933  10.902   0.715  2.0909 -0.9325  2.0456
  166MOL0     H22851   3.942  10.961   0.473 -1.0892  1.1636 -2.3281
  166MOL0     H22852   3.867  10.814   0.428 -0.1458  0.1982  1.2350
  166MOL0     H22853   3.739  11.050   0.578  0.1082  1.6295 -1.2627
  166MOL0     H22854   3.657  10.895   0.564 -0.4510  2.2608  1.7297
  166MOL0     H22855   3.744  11.071   0.338  1.0254 -1.7308 -0.8010
  166MOL0     H22856   3.640  10.918   0.324 -2.0299  0.2950 -1.0455
  166MOL0     H22857   3.643  11.293   0.429 -1.2834  1.2033 -0.3941
  166MOL0     H22858   3.490  11.482   0.468 -1.3956  2.3435 -0.5154
  166MOL0     H22859   3.351  11.414   0.568 -1.2402 -1.8116 -0.4082
  166MOL0     H22860   3.366  11.424   0.269 -2.5678 -0.3573 -1.4842
  166MOL0     H22861   3.228  11.378   0.368  0.2540 -0.2122 -0.7069
  166MOL0     H22862   3.368  11.651   0.322 -1.0643 -0.8078 -0.9649
  166MOL0     H22863   3.211  11.607   0.264  0.1093  3.3996 -0.3153
  166MOL0     H22864   3.280  11.630   0.560  2.4012 -0.2328 -2.8979
  166MOL0     H22865   3.209  11.767   0.467 -2.7289  0.2553 -1.7322
  166MOL0     H22866   2.851  11.561   0.535  0.8357  0.2155  0.3417
  166MOL0     H22867   2.547  11.741   0.410  3.0364  3.3813  1.2583
  166MOL0     H22868   2.615  11.640   0.541  0.1575 -2.5379  0.1305
  166MOL0     H22869   2.565  11.564   0.394 -1.1542  2.7336 -3.4402
  166MOL0     H22870   2.323  11.701   0.288  3.2807  0.0655  0.2401
  166MOL0     H22871   2.109  11.813   0.198  1.5736 -1.3010  2.1291
  166MOL0     H22872   2.095  12.042  -0.184 -0.5351 -0.2676 -1.8575
  166MOL0     H22873   2.108  11.877  -0.257  0.7516 -2.4586  2.3464
  166MOL0     H22874   1.870  12.038  -0.197  0.3675 -0.0747 -0.2173
  166MOL0     H22875   1.914  11.957  -0.344  1.7887  0.7031 -0.4480
  166MOL0     H22876   1.775  11.856  -0.092 -0.3509  1.7196 -0.9497
  166MOL0     H22877   1.853  11.727  -0.179 -0.8684 -0.0415  0.3632
  166MOL0     H22878   1.713  11.801  -0.390  0.0825 -0.5685  0.1582
  166MOL0     H22879   1.644  11.919  -0.272 -0.8606  0.0738  0.1270
  166MOL0     H22880   1.641  11.618  -0.217  2.7591  1.5575  2.3712
  166MOL0     H22881   1.571  11.743  -0.124  3.5895 -0.6953  1.0646
  166MOL0     H22882   1.488  11.686  -0.401  2.2392 -0.3787  0.3190
  166MOL0     H22883   1.417  11.818  -0.291 -1.3753  0.0455 -0.3913
  166MOL0     H22884   1.333  11.626  -0.153  0.2351 -0.7867 -0.1428
  166MOL0     H22885   1.407  11.506  -0.260 -0.1322 -0.9005  0.3844
  166MOL0     H22886   1.265  11.589  -0.455  0.7237 -0.3820  0.5330
  166MOL0     H22887   1.197  11.720  -0.356 -1.4033 -0.2929  2.2127
  166MOL0     H22888   2.302  11.823  -0.188  1.9060 -1.2275 -0.8911
  166MOL0     H22889   2.501  11.725  -0.093 -1.1865  0.2304 -0.9600
  166MOL0     H22890   2.899  11.855   0.149 -1.2565 -0.9680 -0.0415
  166MOL0     H22891   3.090  11.819   0.294 -1.1788  1.0117 -0.1540
  166MOL0     H22892   4.051  10.816   1.389 -0.4045  0.5719 -0.9731
  166MOL0     H22893   4.207  10.746   1.580 -0.6599 -3.1869  1.7884
  166MOL0     H22894   4.682  10.554   1.701 -1.1441  0.0321 -1.4847
  166MOL0     H22895   4.783  10.465   1.904  0.3275 -1.6142  0.5954
  166MOL0     H22896   4.894  10.330   2.023  0.7560 -1.8404 -0.2759
  166MOL0     H22897   4.764  10.350   2.153 -1.4250 -1.3245 -0.8980
  166MOL0     H22898   4.981  10.231   2.232  4.8720 -0.4706 -5.7447
  166MOL0     H22899   4.965  10.130   2.101 -1.1045 -1.7742  0.6587
  166MOL0     H22900   4.744  10.149   2.316 -1.6044  1.5767 -2.2333
  166MOL0     H22901   4.739  10.022   2.193  0.7965 -0.7851 -0.0189
  166MOL0     H22902   4.818   9.891   2.360  0.3524 -0.7827  1.0065
  166MOL0     H22903   4.900  10.022   2.427  0.8437 -2.3032  0.7651
  166MOL0     H22904   5.223   9.880   2.217  0.1196 -3.4987  1.2306
  166MOL0     H22905   4.521  10.128   1.880 -6.7672  0.1625 -0.6176
  166MOL0     H22906   4.394  10.211   1.561  1.4855  0.7388  0.2318
  166MOL0     H22907   4.390  10.096   1.701 -1.4657 -0.1512 -0.0214
  166MOL0     H22908   4.279  10.225   1.701 -1.0107 -1.4873 -2.4017
  167MOL0     O22909   1.467  11.375   1.155 -0.4372 -0.4041  0.5566
  167MOL0     C22910   1.418  11.334   1.261 -0.3673 -0.2119  0.0794
  167MOL0     O22911   1.477  11.257   1.358 -0.5814  0.0491  0.3592
  167MOL0     C22912   1.590  11.188   1.322 -0.2556 -0.0865 -0.9124
  167MOL0     C22913   1.583  11.052   1.331 -0.0255  1.2786 -0.4343
  167MOL0     C22914   1.700  10.980   1.289 -0.1542  0.1372 -0.4453
  167MOL0     C22915   1.819  11.046   1.251  0.8686  0.0064 -0.1278
  167MOL0     O22916   1.926  10.972   1.207  0.0069 -0.2652  0.8827
  167MOL0     C22917   2.032  11.034   1.129  0.5808 -0.0177  0.4507
  167MOL0     C22918   2.120  10.933   1.066 -0.5270  0.1359 -0.1182
  167MOL0     C22919   2.056  10.810   0.999  0.6359  0.6902 -0.1946
  167MOL0     C22920   1.962  10.850   0.886 -0.0133  0.4434 -0.0709
  167MOL0     C22921   1.926  10.739   0.790  0.2801  0.3549  0.2571
  167MOL0     C22922   1.831  10.632   0.844 -0.8838 -0.7082  0.0712
  167MOL0     C22923   1.901  10.521   0.926 -0.1454  0.6847  0.3616
  167MOL0     C22924   1.981  10.420   0.843 -0.9447 -0.8052  0.3873
  167MOL0     N22925   1.906  10.341   0.750  0.0934 -0.3963 -0.7928
  167MOL0     C22926   1.849  10.220   0.781 -0.0454 -0.0850 -0.5538
  167MOL0     C22927   1.791  10.177   0.661 -0.0840  0.6863 -0.8266
  167MOL0     C22928   1.733  10.040   0.637  0.6922 -0.8454 -0.5776
  167MOL0     C22929   1.581  10.054   0.645 -0.3157 -0.1925  0.0108
  167MOL0     C22930   1.510   9.936   0.566 -0.5330  0.2854  0.7192
  167MOL0     C22931   1.368   9.980   0.527 -0.5041  0.4072 -0.5863
  167MOL0     O22932   1.296   9.883   0.444 -0.4366 -0.7504 -0.0227
  167MOL0     C22933   1.161   9.881   0.458  0.7987  0.1183 -0.1764
  167MOL0     C22934   1.091   9.782   0.384 -0.5943  0.8604  0.7168
  167MOL0     C22935   0.951   9.771   0.382  0.1711 -0.3853 -0.7364
  167MOL0     C22936   0.884   9.669   0.289 -0.7389  0.1192 -0.2850
  167MOL0     C22937   0.874   9.859   0.467 -0.1739  0.4308  0.3400
  167MOL0     C22938   0.720   9.859   0.478  0.1039 -0.3934 -0.0405
  167MOL0     O22939   0.674   9.931   0.578 -1.0089  0.5165  0.4370
  167MOL0     C22940   0.536   9.934   0.588 -0.5834  0.2665 -0.9399
  167MOL0     C22941   0.465   9.875   0.686  0.3389  0.2914 -0.1349
  167MOL0     C22942   0.324   9.868   0.678  0.5130 -0.4293 -0.3452
  167MOL0     C22943   0.251   9.942   0.587 -0.7659  0.8849  0.9790
  167MOL0     O22944   0.118   9.948   0.589  0.6515  0.5926 -0.3092
  167MOL0     C22945   0.042   9.851   0.677  0.0202 -0.0467  0.9387
  167MOL0     C22946  -0.110   9.879   0.685 -0.1485 -0.0953 -0.0979
  167MOL0     C22947  -0.193   9.769   0.745 -0.7907  0.7681  0.0114
  167MOL0     C22948  -0.146   9.759   0.894 -0.5545  0.5639 -0.1112
  167MOL0     C22949  -0.240   9.665   0.969 -0.6240  1.1547  0.9408
  167MOL0     C22950  -0.179   9.637   1.100 -0.2727  0.3806 -1.3128
  167MOL0     C22951  -0.291   9.581   1.201  0.1302  0.9245 -0.0878
  167MOL0     C22952  -0.226   9.508   1.321 -0.7167  0.0899  0.1432
  167MOL0    Cl22953  -0.101   9.616   1.392  0.1405  0.0467  0.1550
  167MOL0     C22954   0.327  10.015   0.492  0.5247  0.2715 -0.2236
  167MOL0     C22955   0.466  10.012   0.497 -0.2656  0.7285 -0.0421
  167MOL0     O22956   0.646   9.794   0.400 -0.5202  0.0660  0.0625
  167MOL0     C22957   0.942   9.960   0.527 -0.4117  1.0509  0.3483
  167MOL0     C22958   1.081   9.968   0.525 -0.7224  0.2363 -0.7993
  167MOL0     N22959   1.815  10.277   0.568  0.4583  0.2686 -0.1739
  167MOL0     N22960   1.888  10.371   0.618 -0.4844 -0.1735 -0.9411
  167MOL0     C22961   1.819  11.189   1.268 -0.6172 -0.5166 -0.2518
  167MOL0     C22962   1.709  11.261   1.310  0.3889  0.0447  0.5257
  167MOL0     C22963   1.291  11.396   1.304 -0.6782 -0.4010  0.2998
  167MOL0     C22964   1.255  11.516   1.249  0.0950 -0.2838 -1.1090
  167MOL0     C22965   1.147  11.581   1.294 -0.1090  0.2658 -0.6049
  167MOL0     C22966   1.058  11.526   1.390  0.6118  0.9300 -0.2468
  167MOL0     O22967   0.957  11.616   1.431 -0.1653  0.2633  0.0902
  167MOL0     C22968   0.842  11.554   1.482  0.4609 -0.9480 -0.2409
  167MOL0     C22969   0.727  11.650   1.499  0.7553 -0.1438 -0.9762
  167MOL0     C22970   0.689  11.709   1.365 -0.3992  0.6749 -0.3661
  167MOL0     C22971   0.599  11.833   1.371  0.0643  0.2838 -0.0081
  167MOL0     C22972   0.665  11.947   1.435  0.0347 -0.1716 -0.0167
  167MOL0     C22973   0.710  12.046   1.489 -0.2769  0.2910  0.2522
  167MOL0     C22974   1.080  11.398   1.446 -0.3524  0.7169  0.7360
  167MOL0     C22975   1.193  11.330   1.394  0.6018  0.3404  0.5173
  167MOL0     C22976   1.220  11.196   1.452  0.0960 -0.4084  0.5896
  167MOL0     H22977   1.494  10.993   1.352  1.4387 -0.2882  1.9215
  167MOL0     H22978   1.699  10.872   1.295 -0.4304  0.1008 -1.1188
  167MOL0     H22979   2.083  11.105   1.194 -1.8146  2.3158 -0.0520
  167MOL0     H22980   1.988  11.099   1.053  1.2066  2.1966  1.8860
  167MOL0     H22981   2.193  10.972   0.995 -0.0664 -0.4915 -0.0036
  167MOL0     H22982   2.176  10.892   1.151 -0.2810 -0.3362 -0.5008
  167MOL0     H22983   2.133  10.746   0.954  0.5013 -0.0915  0.6701
  167MOL0     H22984   1.997  10.760   1.076  0.9767 -0.0487 -0.4012
  167MOL0     H22985   1.880  10.910   0.928  0.0468  0.2405  0.3398
  167MOL0     H22986   2.025  10.926   0.839  0.3068  0.6872  0.7247
  167MOL0     H22987   2.009  10.683   0.745 -0.6045 -1.7706  1.1116
  167MOL0     H22988   1.875  10.782   0.702 -0.8366  0.0923  0.7511
  167MOL0     H22989   1.748  10.687   0.891 -0.8677 -1.0457  0.5007
  167MOL0     H22990   1.780  10.586   0.759  1.2274 -1.9139 -0.6162
  167MOL0     H22991   1.817  10.461   0.964  0.1313  0.2831  0.3478
  167MOL0     H22992   1.970  10.555   1.003  3.5932 -0.3490 -2.2565
  167MOL0     H22993   2.061  10.473   0.790 -0.9457  1.0949  2.1581
  167MOL0     H22994   2.030  10.351   0.912  1.1535 -0.8092 -1.0178
  167MOL0     H22995   1.866  10.161   0.870 -0.5707  1.7073  0.7837
  167MOL0     H22996   1.771   9.958   0.698  0.8801 -0.1729  0.2257
  167MOL0     H22997   1.751  10.024   0.531  0.0253 -3.2250 -0.3845
  167MOL0     H22998   1.555  10.053   0.751  0.3414  0.4127  0.1918
  167MOL0     H22999   1.555  10.152   0.604  0.2873 -0.1938 -0.3933
  167MOL0     H23000   1.566   9.908   0.477 -1.1176  1.2733  0.0205
  167MOL0     H23001   1.508   9.850   0.633  1.9084 -0.8524 -0.5516
  167MOL0     H23002   1.318  10.011   0.619 -0.1720  2.0754 -0.9408
  167MOL0     H23003   1.388  10.067   0.464  1.0041  2.6842  2.7431
  167MOL0     H23004   1.147   9.719   0.316 -1.9388  3.3953 -3.0648
  167MOL0     H23005   0.817   9.601   0.342 -0.3597  0.5058  0.7006
  167MOL0     H23006   0.952   9.602   0.234  0.6021 -0.0831  1.5343
  167MOL0     H23007   0.830   9.703   0.201 -0.6537 -2.5880 -1.4952
  167MOL0     H23008   0.520   9.832   0.770 -0.9452  2.8923  2.2176
  167MOL0     H23009   0.265   9.814   0.752 -2.3396 -0.4463 -2.4127
  167MOL0     H23010   0.055   9.751   0.633  0.7442 -0.3388  1.7685
  167MOL0     H23011   0.085   9.857   0.777 -2.5000  0.5167  2.0517
  167MOL0     H23012  -0.128   9.975   0.736  2.7985  1.1193 -1.0932
  167MOL0     H23013  -0.140   9.892   0.580  1.2906 -1.9332 -0.7799
  167MOL0     H23014  -0.171   9.676   0.691 -0.7560 -0.6532  2.3220
  167MOL0     H23015  -0.297   9.799   0.734 -1.7142 -2.9170 -3.3715
  167MOL0     H23016  -0.148   9.858   0.941 -2.1203  0.1529  0.7800
  167MOL0     H23017  -0.046   9.715   0.897 -1.0090 -0.4540  2.0650
  167MOL0     H23018  -0.344   9.698   0.969 -0.9324  0.2218  0.5852
  167MOL0     H23019  -0.241   9.573   0.909  1.5396  1.2081  0.7700
  167MOL0     H23020  -0.121   9.722   1.139 -2.7624  2.9547 -2.8650
  167MOL0     H23021  -0.099   9.563   1.091  0.6066  1.1596 -0.3243
  167MOL0     H23022  -0.350   9.512   1.138 -0.9373 -0.6984  2.5142
  167MOL0     H23023  -0.347   9.669   1.232 -1.1379  0.4880 -1.0173
  167MOL0     H23024  -0.182   9.416   1.283 -2.1306 -0.3580 -0.4946
  167MOL0     H23025  -0.298   9.481   1.399  1.2003  1.7286  2.6288
  167MOL0     H23026   0.277  10.067   0.411  1.7996  0.3344 -0.9971
  167MOL0     H23027   0.525  10.076   0.432 -0.0173  1.8864  1.2821
  167MOL0     H23028   0.890  10.036   0.584 -0.5195  1.2992 -0.0749
  167MOL0     H23029   1.126  10.061   0.558  2.1705 -0.5732 -2.1292
  167MOL0     H23030   1.912  11.237   1.239  0.0928 -2.4981 -1.4646
  167MOL0     H23031   1.711  11.370   1.311  0.0897  0.0829  2.8379
  167MOL0     H23032   1.322  11.558   1.174 -0.1225 -0.2335 -1.2754
  167MOL0     H23033   1.149  11.683   1.257  2.5451  0.7351  0.5581
  167MOL0     H23034   0.809  11.482   1.407 -0.6075 -0.4338 -0.2834
  167MOL0     H23035   0.867  11.514   1.581  1.7809  1.2975  0.3939
  167MOL0     H23036   0.751  11.729   1.570 -1.8238 -1.4996  1.6309
  167MOL0     H23037   0.642  11.586   1.526  1.6626 -1.2984 -0.7229
  167MOL0     H23038   0.788  11.724   1.320  2.2179 -0.6927  4.2143
  167MOL0     H23039   0.639  11.634   1.304  1.6556  1.4862 -3.2313
  167MOL0     H23040   0.505  11.806   1.420  1.9709  0.2721  4.0464
  167MOL0     H23041   0.578  11.863   1.267  0.6509  0.5629 -0.0520
  167MOL0     H23042   0.741  12.137   1.538  0.6309 -0.6326  1.4531
  167MOL0     H23043   1.021  11.351   1.524 -2.1975  0.0753 -0.9521
  167MOL0     H23044   1.248  11.122   1.376 -4.2871 -0.0439 -1.6927
  167MOL0     H23045   1.293  11.204   1.533 -0.6004  1.4363  1.0906
  167MOL0     H23046   1.128  11.160   1.500 -2.2810  1.4677 -2.1722
  168MOL0     O23047   5.536   8.495   0.748 -0.2701  0.0598 -0.4189
  168MOL0     C23048   5.501   8.607   0.735  0.8387 -0.9276 -0.3071
  168MOL0     O23049   5.569   8.698   0.667  0.9999  0.1476 -0.2401
  168MOL0     C23050   5.692   8.686   0.615 -0.3345 -0.3595  0.2279
  168MOL0     C23051   5.745   8.573   0.548 -0.4761 -0.4083  0.9731
  168MOL0     C23052   5.882   8.573   0.501 -0.6434  0.9417 -0.3888
  168MOL0     C23053   5.957   8.690   0.504  0.0970  0.6989  0.8033
  168MOL0     O23054   6.092   8.689   0.467 -0.6110 -0.3069 -0.2711
  168MOL0     C23055   6.193   8.759   0.543  0.7375 -0.4334 -0.7187
  168MOL0     C23056   6.330   8.718   0.483 -0.5612  0.4088  0.1683
  168MOL0     C23057   6.444   8.806   0.538  0.1795 -0.6776  0.2625
  168MOL0     C23058   6.582   8.752   0.494 -1.2722 -0.0215 -0.4666
  168MOL0     C23059   6.682   8.839   0.568 -0.0626  0.1521 -0.3777
  168MOL0     C23060   6.813   8.806   0.507 -0.4011  0.2046  0.0928
  168MOL0     C23061   6.922   8.880   0.573  0.1863 -0.4838 -0.3691
  168MOL0     C23062   7.041   8.901   0.486 -0.7130 -0.0120 -0.1118
  168MOL0     N23063   7.162   8.937   0.565  0.5559 -0.0975  0.6691
  168MOL0     C23064   7.220   9.053   0.593 -0.9257 -0.2104  0.0193
  168MOL0     C23065   7.328   9.021   0.666 -0.2662  0.0433 -0.3474
  168MOL0     C23066   7.426   9.112   0.732  0.5259 -0.4970 -0.7741
  168MOL0     C23067   7.564   9.088   0.681 -0.0965  0.2514 -0.3822
  168MOL0     C23068   7.662   9.195   0.726 -0.3893  0.0404 -0.0627
  168MOL0     C23069   7.648   9.332   0.660 -0.4970  0.5166  0.3048
  168MOL0     O23070   7.781   9.382   0.636 -0.2663  0.0244 -0.0489
  168MOL0     C23071   7.805   9.504   0.582  0.3136 -0.4113 -0.2835
  168MOL0     C23072   7.696   9.590   0.562  0.4900  0.0388  0.3655
  168MOL0     C23073   7.722   9.716   0.525 -0.5761 -0.8861 -0.0113
  168MOL0     C23074   7.594   9.799   0.499  0.2835 -0.8069  0.2402
  168MOL0     C23075   7.856   9.768   0.500  0.5021  0.6824  0.1661
  168MOL0     C23076   7.878   9.900   0.439 -0.2804 -0.1275  0.5326
  168MOL0     O23077   8.005   9.915   0.386 -0.0709  0.6484  0.3278
  168MOL0     C23078   8.052  10.032   0.361  0.5966  0.4741 -0.4056
  168MOL0     C23079   7.991  10.108   0.258 -0.3114 -0.1204 -0.3850
  168MOL0     C23080   8.046  10.226   0.208 -0.2804  0.2505 -0.8592
  168MOL0     C23081   8.151  10.286   0.284  0.2742  0.0859  0.1527
  168MOL0     O23082   8.198  10.406   0.259  0.2533 -0.2345  0.6060
  168MOL0     C23083   8.104  10.505   0.222  1.2253 -0.0144 -0.8478
  168MOL0     C23084   8.138  10.637   0.281  0.1324  0.3279  0.0592
  168MOL0     C23085   8.027  10.728   0.250  0.1700 -0.1552  0.7256
  168MOL0     C23086   7.899  10.729   0.329  0.4256 -0.5396  1.1845
  168MOL0     C23087   7.806  10.852   0.294 -0.5079 -0.6427  0.5186
  168MOL0     C23088   7.712  10.874   0.416 -0.3949  0.0039  1.0664
  168MOL0     C23089   7.627  11.001   0.381  0.4380  0.3560  0.3301
  168MOL0     C23090   7.566  11.047   0.510  0.5110 -1.0729  0.2381
  168MOL0    Cl23091   7.447  10.918   0.574 -0.5429  0.0800  0.0491
  168MOL0     C23092   8.210  10.212   0.385  0.4644  0.4177 -0.7639
  168MOL0     C23093   8.161  10.086   0.429  0.2946 -0.4267 -0.4384
  168MOL0     O23094   7.795   9.983   0.425  0.1175  0.3114  0.0398
  168MOL0     C23095   7.959   9.668   0.505 -0.2276 -0.1445  0.4621
  168MOL0     C23096   7.935   9.542   0.552 -0.3747 -0.7238 -0.1313
  168MOL0     N23097   7.337   8.882   0.681 -0.3128  0.0261 -0.0523
  168MOL0     N23098   7.236   8.838   0.617 -0.7264 -0.2900 -0.7122
  168MOL0     C23099   5.900   8.803   0.562 -0.5596  0.8242  0.1285
  168MOL0     C23100   5.763   8.800   0.605  1.4831  0.2284  0.3168
  168MOL0     C23101   5.374   8.652   0.798  0.7756 -0.0558 -0.1885
  168MOL0     C23102   5.324   8.778   0.760  0.1174 -0.2035 -0.2332
  168MOL0     C23103   5.228   8.845   0.833  0.8157 -0.3087  1.1448
  168MOL0     C23104   5.159   8.783   0.936  0.5664 -0.6114 -0.1104
  168MOL0     O23105   5.080   8.872   1.008  0.5013 -0.2380  0.3526
  168MOL0     C23106   4.993   8.811   1.113  0.7720  0.5464 -0.1011
  168MOL0     C23107   4.860   8.743   1.066 -0.3444 -0.6574 -0.1956
  168MOL0     C23108   4.762   8.826   0.987 -0.2555 -0.6754 -0.4091
  168MOL0     C23109   4.644   8.740   0.936 -0.7263  0.9843 -0.3172
  168MOL0     C23110   4.542   8.716   1.044 -0.3718  0.0922 -0.8830
  168MOL0     C23111   4.475   8.705   1.146 -0.1083 -0.7944  0.0653
  168MOL0     C23112   5.192   8.656   0.965 -0.5320  0.2967 -0.1842
  168MOL0     C23113   5.294   8.582   0.894 -0.6377 -0.0259 -0.0595
  168MOL0     C23114   5.336   8.440   0.948 -0.0032 -0.4486 -0.2783
  168MOL0     H23115   5.678   8.488   0.550 -0.1453 -0.7102  4.2396
  168MOL0     H23116   5.929   8.478   0.476 -1.6327  0.3367 -0.0371
  168MOL0     H23117   6.180   8.740   0.650  3.6928  0.5543 -0.1025
  168MOL0     H23118   6.176   8.864   0.517  0.7079  0.1426  1.3784
  168MOL0     H23119   6.336   8.610   0.503 -0.8584 -0.0582 -2.0685
  168MOL0     H23120   6.335   8.728   0.375 -0.5565 -0.7093  0.0504
  168MOL0     H23121   6.450   8.912   0.509  0.7325 -0.7274  0.1927
  168MOL0     H23122   6.440   8.803   0.647 -0.5188  3.0212  0.4619
  168MOL0     H23123   6.591   8.646   0.521  0.0225 -0.0015 -0.7144
  168MOL0     H23124   6.589   8.757   0.385 -0.3546 -0.3857 -0.4394
  168MOL0     H23125   6.682   8.829   0.677  2.8722 -0.5096 -0.3395
  168MOL0     H23126   6.665   8.943   0.541 -1.2574  0.2025  0.4981
  168MOL0     H23127   6.833   8.700   0.522 -0.8358  0.0398 -0.4279
  168MOL0     H23128   6.814   8.831   0.400 -2.2554  0.3379  0.0778
  168MOL0     H23129   6.960   8.825   0.660 -2.9122 -0.8464  0.8795
  168MOL0     H23130   6.882   8.978   0.602  0.6353 -0.3283 -0.2720
  168MOL0     H23131   7.054   8.815   0.420  0.0955 -0.1347  0.1952
  168MOL0     H23132   7.028   8.988   0.421  2.0225  2.2286  2.0637
  168MOL0     H23133   7.186   9.153   0.571 -1.0749 -0.1626  0.4559
  168MOL0     H23134   7.420   9.118   0.841  1.3249  3.8609 -0.7919
  168MOL0     H23135   7.409   9.216   0.703 -0.9570 -0.8769 -1.3817
  168MOL0     H23136   7.595   8.993   0.723 -0.0293 -0.7157 -2.4808
  168MOL0     H23137   7.559   9.079   0.572 -1.7096  1.4812 -0.4689
  168MOL0     H23138   7.656   9.199   0.835  2.4997 -1.7819  0.2707
  168MOL0     H23139   7.762   9.154   0.709 -0.5409 -0.4006  0.1029
  168MOL0     H23140   7.594   9.320   0.566  2.6944  0.8307 -1.7103
  168MOL0     H23141   7.589   9.391   0.731 -2.9690 -1.2294 -0.1387
  168MOL0     H23142   7.594   9.556   0.577 -0.1092  1.9319  0.8985
  168MOL0     H23143   7.576   9.870   0.580  0.8165  0.0319 -0.3676
  168MOL0     H23144   7.509   9.730   0.496 -0.1352 -0.4045  1.8253
  168MOL0     H23145   7.596   9.853   0.404 -0.7925 -2.2992 -0.6887
  168MOL0     H23146   7.904  10.063   0.211 -0.6854  1.9035 -1.7996
  168MOL0     H23147   8.005  10.285   0.126 -0.8871  0.3390 -0.4947
  168MOL0     H23148   8.078  10.509   0.116 -3.9995 -0.6347  0.1108
  168MOL0     H23149   8.008  10.478   0.268 -0.1510  0.2817 -3.3709
  168MOL0     H23150   8.144  10.610   0.387 -0.7919 -1.1956 -0.2494
  168MOL0     H23151   8.237  10.672   0.247  1.4565 -2.2052  1.0241
  168MOL0     H23152   8.003  10.722   0.143 -4.2852  0.2492  1.5221
  168MOL0     H23153   8.066  10.830   0.242  1.5703 -0.7247 -0.0743
  168MOL0     H23154   7.927  10.743   0.434 -0.2425  1.9131  1.1069
  168MOL0     H23155   7.848  10.633   0.316  1.6425 -1.5367  3.2315
  168MOL0     H23156   7.863  10.945   0.287 -2.1974  0.6668  2.5445
  168MOL0     H23157   7.751  10.836   0.200  0.7460 -0.5911 -0.2390
  168MOL0     H23158   7.771  10.897   0.505  0.3749  0.8659  0.3511
  168MOL0     H23159   7.665  10.777   0.436  0.9760 -0.6378  1.3328
  168MOL0     H23160   7.555  10.978   0.302  1.4205 -2.0524  0.0520
  168MOL0     H23161   7.699  11.077   0.346 -1.2943  1.8999 -0.0402
  168MOL0     H23162   7.511  11.141   0.505  0.8315 -0.9124 -0.4159
  168MOL0     H23163   7.639  11.062   0.591 -1.5387 -0.9924  2.1709
  168MOL0     H23164   8.301  10.242   0.436 -1.0529 -1.9399  4.0218
  168MOL0     H23165   8.212  10.029   0.506 -0.4602 -3.0823 -1.7855
  168MOL0     H23166   8.061   9.687   0.472  0.5013 -0.0360  2.6109
  168MOL0     H23167   8.011   9.464   0.557 -0.4843 -1.1857 -3.2646
  168MOL0     H23168   5.939   8.904   0.556 -1.3694  1.1424  0.2238
  168MOL0     H23169   5.712   8.893   0.626 -0.9497 -0.6833 -1.1163
  168MOL0     H23170   5.382   8.827   0.681  1.9545 -2.2462 -0.2606
  168MOL0     H23171   5.200   8.944   0.800  1.8885 -1.3844 -3.7469
  168MOL0     H23172   5.044   8.749   1.186  0.2407  2.3349  1.8771
  168MOL0     H23173   4.953   8.890   1.177 -0.4961  1.5922 -2.0564
  168MOL0     H23174   4.807   8.707   1.154 -1.8803 -1.7765 -1.5080
  168MOL0     H23175   4.882   8.655   1.004 -2.0695 -2.0348  1.0445
  168MOL0     H23176   4.731   8.911   1.049  0.2381 -2.7329  2.9622
  168MOL0     H23177   4.814   8.866   0.900  2.8618  2.9596  2.7395
  168MOL0     H23178   4.679   8.642   0.904 -0.9135  1.3259 -1.6294
  168MOL0     H23179   4.601   8.793   0.850 -1.2921 -3.8613 -3.3606
  168MOL0     H23180   4.431   8.706   1.244  1.2672 -0.7767  0.7141
  168MOL0     H23181   5.136   8.606   1.044 -0.9734 -0.5796 -1.0199
  168MOL0     H23182   5.442   8.416   0.964 -0.6602 -1.3057  3.6189
  168MOL0     H23183   5.290   8.414   1.043 -0.0436 -0.8358 -0.4015
  168MOL0     H23184   5.299   8.367   0.875 -1.2083  1.5885 -1.8063
  169MOL0     O23185   6.027  11.347   9.025  0.5636  0.7312 -0.2508
  169MOL0     C23186   6.115  11.432   9.031  0.5648  0.8806  0.4991
  169MOL0     O23187   6.101  11.564   8.981 -0.0130  0.2423 -0.0011
  169MOL0     C23188   5.976  11.613   8.940 -0.1248 -0.1515  0.0111
  169MOL0     C23189   5.844  11.603   8.996 -0.9920  0.5017 -0.5633
  169MOL0     C23190   5.738  11.665   8.934  0.1395 -0.3331  0.0951
  169MOL0     C23191   5.747  11.747   8.816 -0.0895  0.4465  0.0815
  169MOL0     O23192   5.644  11.827   8.766  0.0955 -0.6043 -0.7151
  169MOL0     C23193   5.520  11.833   8.824  0.1535 -0.5511 -1.0272
  169MOL0     C23194   5.433  11.719   8.803 -0.4563  0.4794 -0.0257
  169MOL0     C23195   5.359  11.695   8.667 -0.2753 -0.7228 -0.4154
  169MOL0     C23196   5.291  11.564   8.659  0.4124 -0.3589 -0.2373
  169MOL0     C23197   5.381  11.440   8.648  0.4918  0.0038 -0.6442
  169MOL0     C23198   5.309  11.312   8.591 -0.7291 -0.1610  0.0682
  169MOL0     C23199   5.393  11.184   8.604  0.3702 -0.2440  0.6689
  169MOL0     C23200   5.380  11.115   8.741 -0.2457  0.7495 -0.5765
  169MOL0     N23201   5.376  10.974   8.729 -0.5953  0.4848 -0.3380
  169MOL0     C23202   5.287  10.881   8.671 -0.7141 -0.4187 -0.2022
  169MOL0     C23203   5.345  10.759   8.693 -0.4114  1.0522 -0.3273
  169MOL0     C23204   5.304  10.618   8.659 -0.1944 -0.0571 -0.6518
  169MOL0     C23205   5.183  10.563   8.731 -0.4545 -0.5859 -1.1571
  169MOL0     C23206   5.121  10.440   8.657  0.2505  0.8638  0.2482
  169MOL0     C23207   5.022  10.367   8.750  0.4194  0.0984 -0.8936
  169MOL0     O23208   4.944  10.255   8.691 -0.3371  0.0825  0.7500
  169MOL0     C23209   4.818  10.230   8.732  1.4292  0.3531  0.2939
  169MOL0     C23210   4.711  10.224   8.642 -0.3904 -0.5065  0.5703
  169MOL0     C23211   4.583  10.184   8.665 -0.0235  0.7550 -0.7873
  169MOL0     C23212   4.485  10.190   8.547  0.0606 -0.8400 -0.0110
  169MOL0     C23213   4.559  10.133   8.799  0.8645  1.4998 -0.0854
  169MOL0     C23214   4.417  10.085   8.848  0.5528 -0.1589 -0.0941
  169MOL0     O23215   4.318  10.081   8.752  0.2317  0.7452  0.0018
  169MOL0     C23216   4.194  10.051   8.793 -0.3183  0.8236  0.2432
  169MOL0     C23217   4.149   9.931   8.748  0.3223 -0.4742  0.3836
  169MOL0     C23218   4.010   9.884   8.785 -0.4639  0.1768 -0.4905
  169MOL0     C23219   3.921   9.962   8.854 -0.3672  1.3937 -0.9750
  169MOL0     O23220   3.789   9.939   8.885 -0.0051 -0.6776  0.2576
  169MOL0     C23221   3.713   9.880   8.772  0.5451 -0.9985 -1.8036
  169MOL0     C23222   3.563   9.875   8.806  0.5521 -0.0047 -0.0669
  169MOL0     C23223   3.546   9.771   8.919 -0.2865 -0.2620 -0.2243
  169MOL0     C23224   3.405   9.720   8.944  0.3906  0.8443 -0.1484
  169MOL0     C23225   3.405   9.627   9.066  0.7140 -0.0953 -0.2171
  169MOL0     C23226   3.265   9.559   9.098  0.1996  0.1477 -0.0082
  169MOL0     C23227   3.182   9.516   8.975 -0.3041 -0.0280 -0.4388
  169MOL0     C23228   3.045   9.442   9.012  0.0673  0.3703  0.2179
  169MOL0    Cl23229   2.933   9.549   9.096 -0.1341 -0.2688  0.0421
  169MOL0     C23230   3.976  10.090   8.901 -0.3521  0.9337  0.1522
  169MOL0     C23231   4.107  10.127   8.869  0.2384  0.3076  0.1945
  169MOL0     O23232   4.396  10.069   8.972 -0.4597  0.2285  0.1743
  169MOL0     C23233   4.668  10.125   8.886  1.0604 -0.8505  0.1854
  169MOL0     C23234   4.790  10.184   8.860 -0.7006  0.2894  0.8220
  169MOL0     N23235   5.459  10.782   8.758 -0.6797 -0.6731 -0.5901
  169MOL0     N23236   5.479  10.905   8.792  0.5841  0.0959  0.9149
  169MOL0     C23237   5.876  11.753   8.762 -0.4289 -0.3493 -0.6961
  169MOL0     C23238   5.982  11.691   8.826 -0.6492  0.0612  0.6762
  169MOL0     C23239   6.261  11.403   9.065  0.3373  0.1959 -0.6261
  169MOL0     C23240   6.344  11.517   9.087  0.0786 -0.0172  0.5311
  169MOL0     C23241   6.482  11.489   9.104 -0.0476 -0.1794  0.6201
  169MOL0     C23242   6.536  11.365   9.092  0.1410 -0.2455 -1.3356
  169MOL0     O23243   6.671  11.333   9.077  0.1955  0.3764 -0.0206
  169MOL0     C23244   6.768  11.431   9.080 -0.0678 -0.2762  0.4681
  169MOL0     C23245   6.775  11.515   8.950  0.2897  0.5554 -0.3517
  169MOL0     C23246   6.861  11.445   8.844  0.0920 -0.1966  0.0271
  169MOL0     C23247   6.866  11.536   8.720  0.0239  0.6665 -0.6428
  169MOL0     C23248   6.964  11.647   8.735 -0.9167  0.5403 -0.0068
  169MOL0     C23249   7.036  11.738   8.756  0.0856  0.1400 -0.4733
  169MOL0     C23250   6.451  11.255   9.073 -0.2455 -0.1068 -0.6045
  169MOL0     C23251   6.316  11.269   9.052 -0.5834 -0.1835 -0.0865
  169MOL0     C23252   6.242  11.141   9.025  0.1616 -0.3813  0.4696
  169MOL0     H23253   5.838  11.554   9.092  1.0921  1.8145  0.3126
  169MOL0     H23254   5.644  11.649   8.985 -2.1019  1.6910 -3.0390
  169MOL0     H23255   5.473  11.928   8.795 -0.0770 -0.7552 -1.3278
  169MOL0     H23256   5.519  11.854   8.931 -2.1876  2.7687 -1.5298
  169MOL0     H23257   5.491  11.628   8.824 -2.0659 -0.8192 -0.9707
  169MOL0     H23258   5.351  11.727   8.874  0.4538 -1.5283  1.3566
  169MOL0     H23259   5.286  11.776   8.661 -2.8211 -2.7744  0.8962
  169MOL0     H23260   5.437  11.714   8.592 -0.2867  4.5905  0.5485
  169MOL0     H23261   5.223  11.546   8.742  1.9441 -0.9364  0.9318
  169MOL0     H23262   5.225  11.568   8.572 -0.3040 -0.4241  0.2979
  169MOL0     H23263   5.432  11.432   8.745  0.7285 -0.1420 -0.7805
  169MOL0     H23264   5.457  11.452   8.570  0.9764  1.1794 -0.0193
  169MOL0     H23265   5.221  11.289   8.652  1.4748 -2.0053  2.8117
  169MOL0     H23266   5.279  11.328   8.487 -0.2991 -0.5191 -0.1165
  169MOL0     H23267   5.495  11.221   8.596 -0.0394  1.1939  1.5821
  169MOL0     H23268   5.378  11.113   8.522  1.6884 -0.5008  0.6229
  169MOL0     H23269   5.460  11.132   8.813 -2.1390  0.7796  1.6324
  169MOL0     H23270   5.291  11.143   8.798  0.2861  0.0634  0.6206
  169MOL0     H23271   5.190  10.905   8.629 -1.1441  0.9525  1.4754
  169MOL0     H23272   5.384  10.549   8.688  1.9352  1.9154 -1.5680
  169MOL0     H23273   5.288  10.610   8.551  2.6301  0.0991 -1.1406
  169MOL0     H23274   5.208  10.524   8.830  1.9274  1.5370 -0.8320
  169MOL0     H23275   5.107  10.640   8.747  0.6241  0.1194  0.8521
  169MOL0     H23276   5.074  10.479   8.566  1.9641  0.7938 -0.6968
  169MOL0     H23277   5.196  10.363   8.638 -0.1787 -0.3572  3.0545
  169MOL0     H23278   5.090  10.318   8.819 -0.2474 -1.5358 -1.3253
  169MOL0     H23279   4.953  10.432   8.805 -0.8433 -1.5118 -0.4743
  169MOL0     H23280   4.726  10.260   8.540 -0.6116  4.9235  2.1865
  169MOL0     H23281   4.461  10.083   8.537  0.4415 -0.8661 -0.6743
  169MOL0     H23282   4.530  10.239   8.461 -1.5066 -1.2319 -1.0832
  169MOL0     H23283   4.396  10.248   8.574 -0.3779 -1.3588 -0.3141
  169MOL0     H23284   4.213   9.862   8.693  1.2807  0.1738  0.6758
  169MOL0     H23285   3.971   9.793   8.741  0.7621 -0.0856 -1.0534
  169MOL0     H23286   3.731   9.934   8.679 -0.1781  0.9752 -0.8588
  169MOL0     H23287   3.749   9.778   8.760 -0.0091 -1.1759 -1.9754
  169MOL0     H23288   3.525   9.972   8.841 -0.0715  0.1064 -1.0239
  169MOL0     H23289   3.507   9.851   8.716 -3.8529 -2.4591  2.9402
  169MOL0     H23290   3.591   9.822   9.005  1.9659  0.2606 -1.6318
  169MOL0     H23291   3.611   9.685   8.901  0.2361  0.5894 -2.8397
  169MOL0     H23292   3.370   9.674   8.851  0.3432 -2.4556  1.3756
  169MOL0     H23293   3.336   9.798   8.978 -3.6487 -2.4327 -0.0234
  169MOL0     H23294   3.472   9.544   9.042  0.3071 -0.4522 -0.1245
  169MOL0     H23295   3.436   9.682   9.155 -0.2638 -0.2169  0.2103
  169MOL0     H23296   3.205   9.635   9.150 -0.7233  0.4118 -1.3906
  169MOL0     H23297   3.289   9.469   9.154  1.3495 -0.1997 -1.0249
  169MOL0     H23298   3.239   9.449   8.911 -0.1843  0.9139 -1.3409
  169MOL0     H23299   3.157   9.604   8.916 -1.5621  0.6170  0.9703
  169MOL0     H23300   3.071   9.356   9.074  0.2942  0.2529 -0.0382
  169MOL0     H23301   2.999   9.396   8.924 -2.7844 -2.9440  3.1576
  169MOL0     H23302   3.916  10.163   8.954  0.3718  0.7193  1.2746
  169MOL0     H23303   4.136  10.230   8.886  1.1363 -0.1918  1.8819
  169MOL0     H23304   4.655  10.090   8.988  2.0087 -1.5503  0.0785
  169MOL0     H23305   4.875  10.177   8.928  0.9897  3.1942 -0.8007
  169MOL0     H23306   5.910  11.814   8.679 -0.4642  0.1379 -0.3592
  169MOL0     H23307   6.085  11.720   8.808  0.4320 -1.6376  3.4388
  169MOL0     H23308   6.314  11.621   9.094 -0.8704 -0.2765  0.5111
  169MOL0     H23309   6.539  11.573   9.142 -1.3251  0.8397  0.3830
  169MOL0     H23310   6.758  11.502   9.162 -1.9346 -1.7037  1.5424
  169MOL0     H23311   6.865  11.384   9.099  0.6153  0.9688  0.2264
  169MOL0     H23312   6.832  11.605   8.973  0.2262 -0.0577  2.6542
  169MOL0     H23313   6.678  11.545   8.909  1.0926  2.1644 -1.1757
  169MOL0     H23314   6.962  11.420   8.878 -0.2967 -0.2098  1.2100
  169MOL0     H23315   6.803  11.357   8.812  1.2243 -0.9041 -0.1316
  169MOL0     H23316   6.773  11.574   8.677 -0.7521 -0.6875 -0.2257
  169MOL0     H23317   6.905  11.470   8.642 -0.5743 -0.7436  0.2208
  169MOL0     H23318   7.101  11.821   8.777 -0.1682 -0.0213  1.0300
  169MOL0     H23319   6.496  11.157   9.069  0.7086  0.2666  0.4119
  169MOL0     H23320   6.203  11.141   8.923  1.8067  0.2914 -0.2046
  169MOL0     H23321   6.310  11.055   9.033  2.6709  1.4677  0.2381
  169MOL0     H23322   6.168  11.122   9.104 -0.7997 -0.2529 -0.3865
  170MOL0     O23323   9.011   2.137   4.111 -0.1426  0.2210 -0.1871
  170MOL0     C23324   9.024   2.168   3.995 -0.4987 -0.1341 -0.0198
  170MOL0     O23325   9.142   2.172   3.927 -0.2131 -0.3166 -0.6505
  170MOL0     C23326   9.250   2.096   3.965  0.7038 -0.2454  0.4176
  170MOL0     C23327   9.358   2.156   4.023  0.3050  0.4517  0.2270
  170MOL0     C23328   9.461   2.079   4.083 -0.8365 -0.3423  0.1415
  170MOL0     C23329   9.465   1.939   4.052  0.0707 -0.8670 -0.1131
  170MOL0     O23330   9.570   1.867   4.091 -0.6132 -0.0954  0.6372
  170MOL0     C23331   9.608   1.765   4.000 -0.0734  0.0167 -0.0444
  170MOL0     C23332   9.737   1.704   4.042 -0.0332  0.7547 -0.5599
  170MOL0     C23333   9.817   1.633   3.929  0.5198 -0.8608  0.3351
  170MOL0     C23334   9.761   1.491   3.913 -1.0658 -0.5112 -0.4409
  170MOL0     C23335   9.849   1.405   3.818  0.3184  0.4264 -0.5262
  170MOL0     C23336   9.801   1.251   3.811 -0.1785 -1.0561  0.6823
  170MOL0     C23337   9.884   1.166   3.697  0.2422 -0.7160 -0.8117
  170MOL0     C23338  10.037   1.177   3.719  0.8205  0.6719  0.5736
  170MOL0     N23339  10.081   1.153   3.852 -0.6114 -0.1249 -0.1395
  170MOL0     C23340  10.033   1.061   3.942 -0.1361  0.5173  0.2973
  170MOL0     C23341  10.122   1.062   4.046 -0.1694  0.2293 -0.8771
  170MOL0     C23342  10.111   0.994   4.178  0.7868  0.5590 -0.6757
  170MOL0     C23343  10.095   0.836   4.166  0.3502 -0.2397 -0.4954
  170MOL0     C23344  10.219   0.769   4.102 -0.0811 -0.4856  0.9799
  170MOL0     C23345  10.214   0.612   4.118 -0.0754 -0.7113 -0.0466
  170MOL0     O23346  10.094   0.563   4.062  0.0586  0.1433 -0.1464
  170MOL0     C23347  10.096   0.423   4.054  0.3814  0.3841  0.3994
  170MOL0     C23348  10.198   0.353   3.995 -0.7261  0.9848  0.0888
  170MOL0     C23349  10.208   0.218   3.979 -1.2273  0.0947 -0.4809
  170MOL0     C23350  10.340   0.176   3.919  0.0592 -0.1850 -0.2949
  170MOL0     C23351  10.105   0.140   4.029  0.0966 -0.1042 -0.1938
  170MOL0     C23352  10.103  -0.007   4.032  0.5614 -1.3054 -0.1015
  170MOL0     O23353   9.994  -0.065   4.087 -0.0902  0.1256 -0.1313
  170MOL0     C23354   9.997  -0.198   4.124  0.0789 -0.1900  0.4391
  170MOL0     C23355  10.097  -0.256   4.204  0.5946 -0.5828  0.0406
  170MOL0     C23356  10.074  -0.380   4.270 -0.2225  0.0370  0.0747
  170MOL0     C23357   9.953  -0.448   4.237 -0.2457  0.2857 -1.7061
  170MOL0     O23358   9.922  -0.560   4.307  0.1979 -0.0004  0.0379
  170MOL0     C23359   9.970  -0.670   4.220 -0.0592  0.5689  0.5612
  170MOL0     C23360   9.939  -0.809   4.275  0.2169  0.6459 -0.8537
  170MOL0     C23361  10.021  -0.817   4.398  0.1508 -0.2751  0.3858
  170MOL0     C23362  10.022  -0.958   4.456 -0.2529  0.2286 -0.2839
  170MOL0     C23363  10.133  -0.997   4.556 -0.1731  0.4034  0.7423
  170MOL0     C23364  10.106  -1.132   4.628  0.5800 -0.4595  0.6162
  170MOL0     C23365  10.213  -1.175   4.728 -0.0649 -0.0801  0.4128
  170MOL0     C23366  10.165  -1.294   4.807  0.5157  0.5421 -0.8678
  170MOL0    Cl23367  10.327  -1.344   4.876 -0.1295  0.0964 -0.0336
  170MOL0     C23368   9.864  -0.398   4.151  0.1287  0.1348 -1.0881
  170MOL0     C23369   9.887  -0.276   4.084  0.1658  0.4872  0.9844
  170MOL0     O23370  10.197  -0.064   3.982 -0.4848  0.4354  1.1766
  170MOL0     C23371   9.998   0.206   4.086  0.3757  0.0499  0.1683
  170MOL0     C23372   9.989   0.349   4.101  0.2568  0.2037 -0.0408
  170MOL0     N23373  10.233   1.133   4.005  0.3032 -0.2417 -0.1881
  170MOL0     N23374  10.208   1.189   3.891  0.1428 -0.0220 -0.2194
  170MOL0     C23375   9.362   1.887   3.984 -0.2194 -0.1535  0.2263
  170MOL0     C23376   9.249   1.958   3.948 -0.0465 -0.2910 -0.7172
  170MOL0     C23377   8.902   2.224   3.939  0.3590  0.5627  1.1813
  170MOL0     C23378   8.863   2.362   3.953 -0.2414 -0.7626 -0.3455
  170MOL0     C23379   8.751   2.410   3.884 -1.4150  0.6055 -1.0839
  170MOL0     C23380   8.669   2.328   3.817  1.3209  0.1854 -0.6061
  170MOL0     O23381   8.545   2.374   3.769 -0.5549 -0.3849  0.3253
  170MOL0     C23382   8.555   2.490   3.688 -0.1134 -0.9898 -0.9076
  170MOL0     C23383   8.420   2.534   3.621 -0.5072 -0.6984 -0.0830
  170MOL0     C23384   8.324   2.549   3.734  0.5845 -0.1451 -0.0133
  170MOL0     C23385   8.187   2.591   3.686  0.2441 -0.3697  0.6367
  170MOL0     C23386   8.128   2.497   3.584 -0.4421  0.2415 -0.6331
  170MOL0     C23387   8.090   2.410   3.499  0.6671  0.3540  0.2702
  170MOL0     C23388   8.699   2.190   3.817 -0.1562  0.2505  0.3942
  170MOL0     C23389   8.815   2.143   3.860 -0.2997  0.2908  0.5693
  170MOL0     C23390   8.849   1.998   3.819  0.1414 -1.0101 -0.1694
  170MOL0     H23391   9.367   2.263   4.035 -0.5472  0.3230  2.5867
  170MOL0     H23392   9.546   2.123   4.134 -0.0283 -0.4716 -1.0681
  170MOL0     H23393   9.619   1.796   3.896 -0.7798 -0.1999 -0.1899
  170MOL0     H23394   9.531   1.687   3.994 -1.8927  1.8211 -1.9724
  170MOL0     H23395   9.786   1.796   4.074  0.8026 -0.0910  0.6353
  170MOL0     H23396   9.713   1.633   4.122 -1.3125 -1.3729 -2.6865
  170MOL0     H23397   9.806   1.681   3.832  2.3760 -2.5489 -0.7804
  170MOL0     H23398   9.923   1.646   3.952  0.3026  1.1635  0.3679
  170MOL0     H23399   9.777   1.446   4.012 -5.5258 -1.3009  0.1382
  170MOL0     H23400   9.655   1.481   3.890 -1.3173  0.8377  0.0277
  170MOL0     H23401   9.945   1.395   3.869 -0.8504  2.1911  2.2268
  170MOL0     H23402   9.858   1.454   3.721  0.9961  1.6291  0.1276
  170MOL0     H23403   9.818   1.208   3.910  1.3963 -0.9909  0.4624
  170MOL0     H23404   9.697   1.246   3.777 -0.5873 -0.4967  1.8056
  170MOL0     H23405   9.881   1.212   3.598  1.6484 -1.2760 -1.1495
  170MOL0     H23406   9.853   1.061   3.706  2.5846 -1.3176  2.0873
  170MOL0     H23407  10.094   1.107   3.657  0.9043 -1.5473  2.9746
  170MOL0     H23408  10.073   1.279   3.702  1.0521  0.3362 -1.2095
  170MOL0     H23409   9.943   1.001   3.927  0.9201 -1.0153 -0.1087
  170MOL0     H23410  10.031   1.038   4.238  1.0250 -0.0522  0.1143
  170MOL0     H23411  10.208   1.009   4.228  0.6419 -0.8390  0.0729
  170MOL0     H23412  10.087   0.805   4.270  1.7089  1.6530  0.2419
  170MOL0     H23413  10.008   0.811   4.105 -0.8460  0.5453  0.8422
  170MOL0     H23414  10.216   0.778   3.993  2.3925  2.0660  0.9947
  170MOL0     H23415  10.317   0.804   4.135 -0.1404 -0.4546  1.1226
  170MOL0     H23416  10.307   0.581   4.069  1.0744  0.0423  1.5705
  170MOL0     H23417  10.211   0.583   4.223 -1.3697 -2.4063 -0.5197
  170MOL0     H23418  10.277   0.421   3.964 -1.2101  2.2742  1.5431
  170MOL0     H23419  10.397   0.260   3.879  1.1420  0.4822  2.4775
  170MOL0     H23420  10.332   0.094   3.846  0.9500 -0.4279 -0.1389
  170MOL0     H23421  10.397   0.131   4.000  0.4964 -1.3867 -1.2269
  170MOL0     H23422  10.193  -0.209   4.223  0.1591  0.1901  0.3585
  170MOL0     H23423  10.157  -0.406   4.335  0.4502  1.5634 -0.1119
  170MOL0     H23424   9.916  -0.665   4.125 -0.4615 -1.9660  0.5734
  170MOL0     H23425  10.077  -0.663   4.197 -0.2551 -0.4317 -0.7805
  170MOL0     H23426   9.832  -0.817   4.297  0.2308  1.6506 -0.3663
  170MOL0     H23427   9.969  -0.885   4.203  2.4695 -0.3602  1.0384
  170MOL0     H23428   9.977  -0.746   4.468 -0.5203 -0.2563 -0.0404
  170MOL0     H23429  10.127  -0.804   4.372  0.4270 -1.6555  0.7624
  170MOL0     H23430  10.028  -1.025   4.370 -1.9902  0.5224 -0.6690
  170MOL0     H23431   9.923  -0.977   4.498 -1.0309 -0.2354 -2.2261
  170MOL0     H23432  10.226  -1.006   4.498  0.6268 -1.8825  2.2242
  170MOL0     H23433  10.156  -0.923   4.633  0.1031  0.1707  0.8873
  170MOL0     H23434  10.106  -1.206   4.548 -0.4931  1.0376 -0.8267
  170MOL0     H23435  10.008  -1.123   4.676 -0.1577  1.9813 -1.1131
  170MOL0     H23436  10.231  -1.092   4.798  1.5279  0.4192 -0.5447
  170MOL0     H23437  10.304  -1.188   4.669 -0.8770  1.0116 -1.1215
  170MOL0     H23438  10.128  -1.375   4.743  0.9481 -1.2683  1.0427
  170MOL0     H23439  10.093  -1.263   4.883  1.9327  2.9839 -0.4207
  170MOL0     H23440   9.775  -0.460   4.146  1.0645 -1.3417 -0.3595
  170MOL0     H23441   9.802  -0.245   4.024 -0.1877 -1.0415  0.6647
  170MOL0     H23442   9.909   0.150   4.114 -0.2204  0.4302 -0.9201
  170MOL0     H23443   9.903   0.400   4.145  0.3431  0.5503 -0.2706
  170MOL0     H23444   9.353   1.780   3.965  1.3257 -0.2536 -0.0570
  170MOL0     H23445   9.176   1.909   3.883  0.7595 -1.2297 -0.9410
  170MOL0     H23446   8.926   2.425   4.015  0.1365 -1.8992  0.4616
  170MOL0     H23447   8.721   2.512   3.904 -3.3804 -0.3522  1.3781
  170MOL0     H23448   8.594   2.574   3.745  0.3397 -0.0655 -2.5050
  170MOL0     H23449   8.630   2.475   3.609 -1.6122  0.3998 -2.6924
  170MOL0     H23450   8.389   2.466   3.541  0.1878 -0.8660 -0.2153
  170MOL0     H23451   8.438   2.634   3.582 -1.3653 -0.5889 -0.2122
  170MOL0     H23452   8.309   2.449   3.775  0.8416 -1.5355 -3.0204
  170MOL0     H23453   8.366   2.622   3.804  0.1658  0.8125 -0.7195
  170MOL0     H23454   8.183   2.693   3.647  0.3593 -1.2429 -1.8875
  170MOL0     H23455   8.114   2.590   3.768  1.0729 -0.2520  1.3880
  170MOL0     H23456   8.062   2.340   3.422 -0.1304  0.6133  0.3158
  170MOL0     H23457   8.634   2.125   3.759  0.1170 -0.4176  0.8256
  170MOL0     H23458   8.914   1.998   3.731  0.6126 -2.7185  0.1406
  170MOL0     H23459   8.893   1.942   3.902 -1.1932 -0.2800  1.0714
  170MOL0     H23460   8.758   1.946   3.789 -0.1502 -0.3733 -0.3974
  171MOL0     O23461   7.036   1.305   5.579 -0.3938  0.3343 -0.3961
  171MOL0     C23462   7.002   1.285   5.461  0.1858 -0.2609  0.4269
  171MOL0     O23463   7.072   1.322   5.350 -0.0378  0.4624 -0.3157
  171MOL0     C23464   7.193   1.382   5.369 -1.2877 -0.1514  0.0378
  171MOL0     C23465   7.288   1.336   5.453 -0.5111 -0.3951 -0.8272
  171MOL0     C23466   7.414   1.393   5.452 -0.2608 -0.0812 -0.6355
  171MOL0     C23467   7.450   1.507   5.380 -0.1276 -0.3049  0.2447
  171MOL0     O23468   7.564   1.578   5.412 -0.4219  0.2998  0.4216
  171MOL0     C23469   7.669   1.500   5.476  0.0521  0.2305 -0.0771
  171MOL0     C23470   7.806   1.578   5.468 -0.1818 -0.6448  0.0934
  171MOL0     C23471   7.821   1.681   5.346  0.1478 -0.3008  0.4983
  171MOL0     C23472   7.825   1.610   5.210  0.2539 -0.3679 -0.9961
  171MOL0     C23473   7.980   1.586   5.182  0.9441  0.4806 -1.0390
  171MOL0     C23474   8.054   1.503   5.290  0.7085 -0.0750 -0.1893
  171MOL0     C23475   8.192   1.453   5.235 -0.6498 -0.4625 -1.0539
  171MOL0     C23476   8.274   1.386   5.352  0.7010 -0.0102  0.1470
  171MOL0     N23477   8.205   1.272   5.414 -0.3892  0.5461  0.2004
  171MOL0     C23478   8.115   1.175   5.359  1.0113 -0.8299  0.6431
  171MOL0     C23479   8.077   1.097   5.465 -1.0311 -0.1501 -0.2532
  171MOL0     C23480   7.979   0.981   5.459  0.7050 -0.2616  0.3698
  171MOL0     C23481   7.863   1.016   5.561 -0.3827 -0.4718 -0.4360
  171MOL0     C23482   7.739   0.935   5.522  0.2330 -0.0629 -0.9387
  171MOL0     C23483   7.621   0.962   5.625  0.0609  0.1357 -0.5946
  171MOL0     O23484   7.495   0.912   5.575  0.3564 -0.3331  0.3565
  171MOL0     C23485   7.456   0.783   5.578 -1.0341 -0.0015  0.5075
  171MOL0     C23486   7.519   0.678   5.642  0.1008 -0.2425  0.0587
  171MOL0     C23487   7.456   0.549   5.662 -0.1685  0.3933 -0.0478
  171MOL0     C23488   7.526   0.438   5.747 -0.0078 -0.3412  0.4441
  171MOL0     C23489   7.331   0.533   5.591  0.2550 -0.0506  0.0185
  171MOL0     C23490   7.254   0.400   5.593  0.5576 -0.9709 -0.6280
  171MOL0     O23491   7.119   0.408   5.561  0.1709 -0.1220 -0.4978
  171MOL0     C23492   7.038   0.299   5.562 -0.2347 -0.2102 -0.5953
  171MOL0     C23493   7.071   0.171   5.517 -0.2712 -0.2322 -0.3376
  171MOL0     C23494   6.981   0.068   5.499 -0.3707  0.2470 -0.6644
  171MOL0     C23495   6.847   0.088   5.526 -0.6974  1.2263 -0.6579
  171MOL0     O23496   6.760  -0.020   5.503  0.6816 -0.3119  0.3396
  171MOL0     C23497   6.643  -0.027   5.580  1.0087 -0.8087 -0.8723
  171MOL0     C23498   6.563  -0.159   5.570 -0.8991  0.5294 -0.1681
  171MOL0     C23499   6.464  -0.173   5.689 -0.7602  0.0707 -0.1375
  171MOL0     C23500   6.379  -0.291   5.641  0.3220  0.0671 -1.4326
  171MOL0     C23501   6.285  -0.340   5.758 -1.7055 -1.0954 -0.1555
  171MOL0     C23502   6.345  -0.442   5.861  0.3079 -0.2886 -0.3336
  171MOL0     C23503   6.415  -0.563   5.799  0.0962  0.3381  0.0062
  171MOL0     C23504   6.405  -0.690   5.877  0.0544 -0.8668  0.2310
  171MOL0    Cl23505   6.480  -0.665   6.040  0.1645  0.1088 -0.3479
  171MOL0     C23506   6.811   0.211   5.577 -0.2773  0.7752  0.9505
  171MOL0     C23507   6.904   0.318   5.596  0.1275 -0.2526 -0.6826
  171MOL0     O23508   7.317   0.294   5.608  0.8555  0.0583  0.1261
  171MOL0     C23509   7.277   0.642   5.524  0.1822 -0.4869  0.2414
  171MOL0     C23510   7.335   0.772   5.526  0.3535 -0.1198  1.1314
  171MOL0     N23511   8.149   1.140   5.574  0.0446 -0.2342 -0.3818
  171MOL0     N23512   8.224   1.241   5.544 -0.3306  0.2387  1.2913
  171MOL0     C23513   7.349   1.561   5.304 -0.3642 -0.6121 -0.2511
  171MOL0     C23514   7.226   1.493   5.290 -0.7790  0.2819  0.2613
  171MOL0     C23515   6.872   1.217   5.437  0.8785 -0.0916 -0.6474
  171MOL0     C23516   6.855   1.139   5.316  0.6372 -0.0549  0.0568
  171MOL0     C23517   6.750   1.054   5.305 -0.0765 -0.5781  0.3273
  171MOL0     C23518   6.637   1.068   5.392  0.2084  0.0226 -0.1115
  171MOL0     O23519   6.533   0.996   5.355  1.2571  0.4212  0.3536
  171MOL0     C23520   6.413   0.993   5.433 -1.1211 -0.2012 -0.0104
  171MOL0     C23521   6.314   0.895   5.358 -0.7291  0.3195  0.2280
  171MOL0     C23522   6.174   0.888   5.424 -0.6000 -0.1123 -0.2349
  171MOL0     C23523   6.064   0.801   5.363  0.7418 -0.4760 -0.2405
  171MOL0     C23524   6.115   0.666   5.349 -0.7468  0.7652  0.5882
  171MOL0     C23525   6.165   0.565   5.321  0.1252  0.8344 -0.4772
  171MOL0     C23526   6.645   1.147   5.510 -0.7178 -0.2619 -1.1594
  171MOL0     C23527   6.763   1.214   5.535 -0.5645  0.3659  0.5651
  171MOL0     C23528   6.770   1.304   5.656  0.5669 -0.1747  0.5276
  171MOL0     H23529   7.271   1.250   5.518 -0.7761 -0.5564 -1.1066
  171MOL0     H23530   7.484   1.348   5.521 -0.1127  2.2568  0.8563
  171MOL0     H23531   7.694   1.407   5.424  1.9361  0.9241 -0.4787
  171MOL0     H23532   7.649   1.477   5.581  2.0104  2.7946  0.9508
  171MOL0     H23533   7.819   1.636   5.559 -0.1441 -3.9543  2.3860
  171MOL0     H23534   7.879   1.497   5.476 -0.4626 -0.9698 -0.4879
  171MOL0     H23535   7.730   1.742   5.338 -0.9285 -1.8978  0.1981
  171MOL0     H23536   7.907   1.748   5.353  1.1411 -1.4709 -0.2473
  171MOL0     H23537   7.753   1.528   5.203 -0.9645  0.5844 -0.1042
  171MOL0     H23538   7.779   1.687   5.148  0.7607  0.4370 -0.3973
  171MOL0     H23539   8.035   1.680   5.192  1.1465  0.1236  2.5380
  171MOL0     H23540   7.990   1.548   5.080  1.8443 -0.4253 -0.6252
  171MOL0     H23541   8.065   1.553   5.387 -2.5358 -1.8259  1.2447
  171MOL0     H23542   7.996   1.414   5.315 -0.3247  1.1047  1.8556
  171MOL0     H23543   8.247   1.536   5.191 -0.5870 -0.0449 -0.2140
  171MOL0     H23544   8.178   1.378   5.156  0.7013 -1.2640 -0.5759
  171MOL0     H23545   8.375   1.357   5.319  1.3123  0.3135  1.6595
  171MOL0     H23546   8.277   1.455   5.436 -2.0735  1.2884 -0.6994
  171MOL0     H23547   8.069   1.181   5.261  0.0418 -0.1274  1.1194
  171MOL0     H23548   8.031   0.888   5.484  1.6297 -0.2357 -1.3267
  171MOL0     H23549   7.937   0.977   5.359 -0.6029  1.8778  0.7732
  171MOL0     H23550   7.898   1.001   5.663  0.8164  1.5841 -0.4963
  171MOL0     H23551   7.847   1.123   5.546 -0.5007 -0.4002  0.1974
  171MOL0     H23552   7.691   0.962   5.428 -1.1449 -0.1740 -0.2893
  171MOL0     H23553   7.766   0.829   5.516  0.8822 -0.1968  2.4669
  171MOL0     H23554   7.643   0.914   5.720  0.4646 -0.4096 -0.9518
  171MOL0     H23555   7.610   1.069   5.642 -1.1342 -0.4393  2.9409
  171MOL0     H23556   7.610   0.689   5.700  0.1869 -0.8982  0.0559
  171MOL0     H23557   7.623   0.476   5.782 -0.7262  1.6245  0.4451
  171MOL0     H23558   7.551   0.354   5.682 -0.8543 -0.7760  0.6631
  171MOL0     H23559   7.463   0.423   5.835 -0.7824  2.6349  0.5064
  171MOL0     H23560   7.170   0.145   5.481  0.6649  2.0638  0.4169
  171MOL0     H23561   7.012  -0.033   5.474 -1.1712  0.4605 -2.7669
  171MOL0     H23562   6.672  -0.014   5.685 -0.1941 -1.7314 -0.4035
  171MOL0     H23563   6.573   0.052   5.553 -3.6175 -4.6875 -1.5142
  171MOL0     H23564   6.521  -0.166   5.469 -1.3532 -2.8633  0.1454
  171MOL0     H23565   6.641  -0.236   5.575 -1.9231 -0.4439  1.6300
  171MOL0     H23566   6.408  -0.081   5.704  0.3659  0.8570 -0.6175
  171MOL0     H23567   6.524  -0.199   5.777 -0.8734 -1.8559 -0.5907
  171MOL0     H23568   6.449  -0.371   5.614  0.3830 -1.2811  2.1104
  171MOL0     H23569   6.318  -0.266   5.554 -3.1852  3.8950  1.7229
  171MOL0     H23570   6.248  -0.246   5.798  0.4602 -0.5213  0.6564
  171MOL0     H23571   6.200  -0.391   5.712 -0.7221 -1.1102 -2.0902
  171MOL0     H23572   6.264  -0.476   5.926  1.4418  0.5678  1.5866
  171MOL0     H23573   6.409  -0.396   5.936 -2.1073  0.2970  1.5100
  171MOL0     H23574   6.522  -0.549   5.784  0.5292 -1.7013  0.8654
  171MOL0     H23575   6.372  -0.581   5.700 -2.1532  2.5900  0.4502
  171MOL0     H23576   6.437  -0.779   5.823  3.8911  0.6946 -0.3910
  171MOL0     H23577   6.299  -0.699   5.902 -0.7438  3.1498 -0.8604
  171MOL0     H23578   6.706   0.233   5.595 -0.2356  0.7012  1.2782
  171MOL0     H23579   6.853   0.414   5.603 -1.6134 -0.9296 -2.9245
  171MOL0     H23580   7.189   0.627   5.461  0.7947 -1.6974 -0.3542
  171MOL0     H23581   7.284   0.857   5.481 -0.5771  0.2042  2.7442
  171MOL0     H23582   7.361   1.651   5.243  0.2507 -1.1165 -0.8977
  171MOL0     H23583   7.156   1.522   5.212 -0.6418 -1.5863 -0.6203
  171MOL0     H23584   6.925   1.141   5.233 -0.9780 -0.7014 -1.3496
  171MOL0     H23585   6.743   0.983   5.224 -4.2276  0.9341 -0.9058
  171MOL0     H23586   6.434   0.963   5.536  2.7344  0.6767 -0.3505
  171MOL0     H23587   6.374   1.095   5.431  0.9370  0.6284 -1.1951
  171MOL0     H23588   6.358   0.795   5.357  1.4366  1.2239 -0.7996
  171MOL0     H23589   6.307   0.923   5.252  1.8987 -1.2904 -0.4661
  171MOL0     H23590   6.184   0.837   5.520 -0.6350 -2.7643 -1.5560
  171MOL0     H23591   6.128   0.986   5.438 -3.5621 -1.3782 -0.3872
  171MOL0     H23592   6.057   0.849   5.265 -1.4033  0.3304  0.2611
  171MOL0     H23593   5.972   0.788   5.420 -0.6014 -0.9774 -2.4501
  171MOL0     H23594   6.206   0.470   5.295  0.0341 -0.2056  2.7483
  171MOL0     H23595   6.568   1.140   5.586 -0.5890  0.4924 -0.9576
  171MOL0     H23596   6.832   1.265   5.737  2.2324  4.4820  1.8216
  171MOL0     H23597   6.805   1.403   5.626  0.0768  0.3920  1.7426
  171MOL0     H23598   6.669   1.310   5.697 -0.7006 -1.6257 -2.1556
  172MOL0     O23599   0.506   3.714   0.740  0.3826  0.1476  0.1342
  172MOL0     C23600   0.631   3.714   0.741 -0.3522 -0.7568  0.6528
  172MOL0     O23601   0.715   3.714   0.846 -0.0594  0.1989  0.3020
  172MOL0     C23602   0.653   3.749   0.966 -0.4204 -0.6722 -0.5839
  172MOL0     C23603   0.618   3.880   0.994  0.2921  0.3821  0.8229
  172MOL0     C23604   0.550   3.909   1.113  0.5780  0.3487 -0.2811
  172MOL0     C23605   0.504   3.806   1.207 -0.4649  0.0570  0.3705
  172MOL0     O23606   0.441   3.822   1.322 -0.1202  0.2481 -0.5358
  172MOL0     C23607   0.358   3.928   1.344 -0.4729  0.5884  0.0039
  172MOL0     C23608   0.420   4.014   1.459  0.1696  0.0801  0.4230
  172MOL0     C23609   0.440   3.926   1.584  0.7524  0.1114  0.2902
  172MOL0     C23610   0.460   4.010   1.704 -0.5807 -0.1216 -0.2546
  172MOL0     C23611   0.459   3.945   1.837 -0.3774 -0.0008  0.2712
  172MOL0     C23612   0.592   3.879   1.881 -0.5486  0.7554 -0.3053
  172MOL0     C23613   0.590   3.812   2.024 -0.2812  0.2871 -0.0964
  172MOL0     C23614   0.464   3.715   2.033 -0.0157  0.0885 -0.3269
  172MOL0     N23615   0.481   3.605   2.126  0.4241 -0.3262 -0.0736
  172MOL0     C23616   0.425   3.609   2.252 -0.1383 -0.0968  0.9704
  172MOL0     C23617   0.446   3.485   2.296  0.1822  0.3042 -0.1842
  172MOL0     C23618   0.376   3.414   2.413  0.4069 -0.2263 -0.6402
  172MOL0     C23619   0.227   3.379   2.373 -0.1469 -0.3683  0.3245
  172MOL0     C23620   0.226   3.281   2.257 -0.1491  0.1135  0.4328
  172MOL0     C23621   0.085   3.240   2.224  0.4110 -0.3446  0.0765
  172MOL0     O23622  -0.001   3.196   2.335 -0.4477  0.2627  0.4147
  172MOL0     C23623  -0.129   3.181   2.301  1.4247  0.5027  0.4763
  172MOL0     C23624  -0.181   3.186   2.172  0.5822 -0.3329  0.8155
  172MOL0     C23625  -0.322   3.162   2.147  0.1693 -0.0067 -0.5563
  172MOL0     C23626  -0.370   3.190   2.004 -0.1585 -0.2966  0.0970
  172MOL0     C23627  -0.405   3.130   2.258  0.0038 -0.5343  0.7097
  172MOL0     C23628  -0.554   3.105   2.247  0.4752  0.9000 -0.0621
  172MOL0     O23629  -0.617   3.092   2.372 -0.5851 -0.4185  0.0893
  172MOL0     C23630  -0.745   3.045   2.402 -0.1100 -0.3732  0.8889
  172MOL0     C23631  -0.788   3.050   2.531 -1.0144 -0.6971 -0.0161
  172MOL0     C23632  -0.910   2.992   2.571 -0.0964 -0.7899 -0.3132
  172MOL0     C23633  -0.987   2.927   2.483  0.2042  0.4434  0.0459
  172MOL0     O23634  -1.098   2.866   2.537 -0.3849  0.5630 -0.9230
  172MOL0     C23635  -1.216   2.907   2.468  0.1592  0.3540 -0.3818
  172MOL0     C23636  -1.346   2.833   2.500  0.2827  1.0035  0.3273
  172MOL0     C23637  -1.376   2.709   2.411 -0.5505 -0.0551  0.1128
  172MOL0     C23638  -1.243   2.635   2.387  0.2175  0.5855 -0.2529
  172MOL0     C23639  -1.274   2.494   2.318  0.0008 -0.4183 -0.3300
  172MOL0     C23640  -1.163   2.398   2.335 -0.2883  0.0589 -0.8377
  172MOL0     C23641  -1.219   2.268   2.287  0.8327  0.5599  0.4902
  172MOL0     C23642  -1.120   2.146   2.303 -0.6842  0.4104  0.4690
  172MOL0    Cl23643  -0.947   2.188   2.252  0.4403  0.2135  0.1501
  172MOL0     C23644  -0.947   2.923   2.348 -0.8888 -0.5945  0.3138
  172MOL0     C23645  -0.824   2.978   2.311  0.2905  0.7692  0.0538
  172MOL0     O23646  -0.607   3.099   2.135  0.3304 -0.4579  0.1326
  172MOL0     C23647  -0.348   3.118   2.385  0.5842 -1.0286  0.5488
  172MOL0     C23648  -0.214   3.130   2.403  0.2095  0.1275  0.4205
  172MOL0     N23649   0.520   3.411   2.200 -0.8438 -0.3590  0.5299
  172MOL0     N23650   0.547   3.489   2.101  0.7290 -0.7522 -0.8741
  172MOL0     C23651   0.566   3.680   1.180  1.0225  0.7228  0.6138
  172MOL0     C23652   0.632   3.645   1.061 -0.7991 -0.1203  0.7459
  172MOL0     C23653   0.700   3.712   0.613  1.0358  0.2248  0.7030
  172MOL0     C23654   0.644   3.626   0.521 -0.1573  0.9075 -0.2800
  172MOL0     C23655   0.690   3.615   0.393  0.0509 -0.1711 -0.7674
  172MOL0     C23656   0.799   3.689   0.358 -1.0004 -0.7345  0.0703
  172MOL0     O23657   0.846   3.691   0.232  0.2599  0.0926  0.4819
  172MOL0     C23658   0.789   3.793   0.147 -0.6186  0.4904  0.4547
  172MOL0     C23659   0.876   3.816   0.024 -0.1648  0.5735 -0.1287
  172MOL0     C23660   0.967   3.928   0.057  0.2636  0.1479  0.1353
  172MOL0     C23661   1.061   3.947  -0.063 -0.0022 -0.4965 -0.4595
  172MOL0     C23662   1.119   4.075  -0.047  0.0602  0.0137  0.3669
  172MOL0     C23663   1.167   4.186  -0.048  0.2301  0.5955  0.5684
  172MOL0     C23664   0.859   3.778   0.454 -0.2440 -1.2098 -0.5567
  172MOL0     C23665   0.812   3.797   0.582  1.2809 -0.2783  0.0018
  172MOL0     C23666   0.888   3.888   0.678  0.4907  0.5520 -1.1266
  172MOL0     H23667   0.639   3.937   0.904 -0.8846 -1.4017 -0.6423
  172MOL0     H23668   0.512   4.009   1.128  2.7013  1.1945 -0.2647
  172MOL0     H23669   0.266   3.875   1.372 -0.5398  1.2454  1.1211
  172MOL0     H23670   0.319   3.987   1.260 -1.8294 -0.4454 -0.1268
  172MOL0     H23671   0.515   4.048   1.416  0.9283 -2.2237  0.1651
  172MOL0     H23672   0.367   4.108   1.477  1.1833  0.5565  0.9804
  172MOL0     H23673   0.353   3.863   1.604 -1.2349  2.8825  1.0417
  172MOL0     H23674   0.523   3.857   1.568  2.0683  1.6199  0.3657
  172MOL0     H23675   0.548   4.075   1.701 -0.7785  0.4667  3.0116
  172MOL0     H23676   0.379   4.083   1.705 -1.0375 -0.6208 -0.0965
  172MOL0     H23677   0.372   3.879   1.838 -0.4472  0.0042 -1.5894
  172MOL0     H23678   0.423   4.024   1.903 -3.1820  2.5693 -3.8447
  172MOL0     H23679   0.636   3.809   1.808 -0.5073 -1.8261  2.0311
  172MOL0     H23680   0.673   3.952   1.884  0.3353 -0.2370  0.9821
  172MOL0     H23681   0.587   3.881   2.108 -0.5477  2.3633 -1.7394
  172MOL0     H23682   0.688   3.763   2.029 -0.6837 -0.6441 -0.9439
  172MOL0     H23683   0.379   3.779   2.057  1.1686  1.1082  1.3783
  172MOL0     H23684   0.456   3.667   1.935  3.0023 -0.1448 -0.5509
  172MOL0     H23685   0.361   3.677   2.308 -0.8398  0.0371  0.0291
  172MOL0     H23686   0.370   3.478   2.501  1.7692  0.5351 -1.0722
  172MOL0     H23687   0.440   3.327   2.432 -1.3719 -0.9494  2.8528
  172MOL0     H23688   0.169   3.332   2.453  1.6678 -0.0384  1.9013
  172MOL0     H23689   0.171   3.470   2.348 -0.1542 -0.3004  0.5899
  172MOL0     H23690   0.262   3.323   2.162 -1.2882 -1.1433 -0.5931
  172MOL0     H23691   0.299   3.202   2.276  0.3174  1.4689  5.7675
  172MOL0     H23692   0.037   3.330   2.186  1.4711  1.1940  2.1861
  172MOL0     H23693   0.091   3.163   2.146 -1.4825 -1.5076  1.0146
  172MOL0     H23694  -0.120   3.214   2.086  3.4624 -0.0115  2.8137
  172MOL0     H23695  -0.394   3.092   1.963 -1.0675 -0.0843  0.1030
  172MOL0     H23696  -0.286   3.230   1.948 -1.9297 -0.0518 -2.5547
  172MOL0     H23697  -0.463   3.246   1.996 -0.7047 -0.2339  4.2808
  172MOL0     H23698  -0.719   3.098   2.599  0.9197 -0.5787 -1.9439
  172MOL0     H23699  -0.948   2.997   2.673 -2.5117 -2.2822 -1.0694
  172MOL0     H23700  -1.243   3.007   2.503  0.6167  0.4027 -0.1648
  172MOL0     H23701  -1.200   2.921   2.361 -0.6415 -0.7989 -0.6780
  172MOL0     H23702  -1.346   2.804   2.605  0.1110 -0.7583 -0.1254
  172MOL0     H23703  -1.434   2.898   2.491 -1.6147 -1.5413 -1.1356
  172MOL0     H23704  -1.415   2.747   2.317  2.7294 -0.4878 -1.5826
  172MOL0     H23705  -1.461   2.653   2.449 -1.9105  0.3932 -2.1237
  172MOL0     H23706  -1.185   2.615   2.477 -0.3578  2.3528  0.5657
  172MOL0     H23707  -1.174   2.690   2.322  1.4611 -1.9541 -1.1903
  172MOL0     H23708  -1.357   2.448   2.373  1.4280 -2.0285  0.5596
  172MOL0     H23709  -1.307   2.507   2.214 -0.2268 -1.5142 -0.4087
  172MOL0     H23710  -1.123   2.395   2.437  6.1471 -0.0499 -2.8960
  172MOL0     H23711  -1.079   2.427   2.271  2.4549 -0.7973  2.1080
  172MOL0     H23712  -1.242   2.271   2.180 -0.4074 -0.5175  0.7050
  172MOL0     H23713  -1.312   2.241   2.338  0.4763  1.7210  0.4773
  172MOL0     H23714  -1.151   2.064   2.238 -0.7967 -1.0014  2.2238
  172MOL0     H23715  -1.137   2.118   2.408 -0.5939  2.2482  1.0129
  172MOL0     H23716  -1.000   2.880   2.264 -0.2324 -0.6188 -0.0954
  172MOL0     H23717  -0.792   2.977   2.207  1.3953  2.2269  0.3568
  172MOL0     H23718  -0.414   3.121   2.472 -0.3447  0.3998 -0.1684
  172MOL0     H23719  -0.175   3.103   2.500 -1.6429 -0.2750  1.0931
  172MOL0     H23720   0.543   3.599   1.249  0.4271 -1.3477 -1.8830
  172MOL0     H23721   0.652   3.540   1.045 -0.0884 -0.4729  3.5000
  172MOL0     H23722   0.556   3.571   0.551  0.9933 -1.6625 -1.2945
  172MOL0     H23723   0.644   3.551   0.319 -4.3472  0.0827  1.4674
  172MOL0     H23724   0.694   3.757   0.104  0.5132 -0.5027 -1.3400
  172MOL0     H23725   0.776   3.883   0.207 -1.7632  0.2132  0.6588
  172MOL0     H23726   0.804   3.849  -0.052 -1.1718  0.7035  0.8428
  172MOL0     H23727   0.930   3.724   0.001 -0.9840 -0.0775  0.4969
  172MOL0     H23728   0.907   4.019   0.066  0.0880  0.0667 -0.2144
  172MOL0     H23729   1.017   3.917   0.154 -0.3417 -2.5730  0.2073
  172MOL0     H23730   1.006   3.936  -0.157 -4.8021 -0.7996  2.0528
  172MOL0     H23731   1.138   3.870  -0.056 -1.8964 -2.4170  0.6881
  172MOL0     H23732   1.219   4.279  -0.043 -1.2895  1.4554  0.9908
  172MOL0     H23733   0.936   3.849   0.427 -1.5738  0.7386  0.5516
  172MOL0     H23734   0.967   3.845   0.740 -1.6445  1.5913  2.6427
  172MOL0     H23735   0.931   3.966   0.615 -0.1271  3.6152  1.9926
  172MOL0     H23736   0.819   3.929   0.753 -0.7879 -2.4789 -0.4717
  173MOL0     O23737   8.469   2.984   6.978 -0.2805 -0.7462 -0.4919
  173MOL0     C23738   8.381   3.065   6.956  0.9784 -0.4377 -0.1954
  173MOL0     O23739   8.399   3.188   6.889  1.1618  0.3442  0.0037
  173MOL0     C23740   8.517   3.203   6.815  0.0960 -0.3657  0.1417
  173MOL0     C23741   8.544   3.118   6.705 -0.4371  0.9566 -0.3505
  173MOL0     C23742   8.655   3.145   6.630 -0.4004 -0.3884 -1.0619
  173MOL0     C23743   8.730   3.261   6.645 -0.6373  0.6779  1.4612
  173MOL0     O23744   8.839   3.284   6.559 -0.7609  0.2695 -0.2573
  173MOL0     C23745   8.836   3.221   6.434  0.7521  1.0218 -1.2732
  173MOL0     C23746   8.953   3.261   6.348 -0.2202  0.3177  0.4982
  173MOL0     C23747   8.970   3.410   6.319 -0.2029 -0.3499  0.6112
  173MOL0     C23748   9.059   3.483   6.415 -0.5567 -1.0143 -0.4905
  173MOL0     C23749   9.209   3.456   6.389  0.3654 -0.1882 -0.4611
  173MOL0     C23750   9.302   3.562   6.463  0.3123 -0.5678  0.5349
  173MOL0     C23751   9.442   3.535   6.420 -0.0764 -0.2368 -0.7461
  173MOL0     C23752   9.460   3.557   6.272 -0.4780  0.5334  0.6709
  173MOL0     N23753   9.607   3.573   6.238  0.4796  0.1649 -0.7014
  173MOL0     C23754   9.709   3.486   6.265 -0.1216  0.6066  0.7310
  173MOL0     C23755   9.819   3.564   6.252  0.2446 -0.7384  0.2339
  173MOL0     C23756   9.950   3.499   6.277 -0.4190 -0.3844 -0.6002
  173MOL0     C23757  10.057   3.610   6.275  0.1587 -0.3116 -0.2545
  173MOL0     C23758  10.086   3.639   6.128  0.3027 -0.6258  0.3993
  173MOL0     C23759  10.217   3.725   6.127 -0.4137  0.7816 -0.1955
  173MOL0     O23760  10.324   3.649   6.176  0.2351  0.1729  0.1580
  173MOL0     C23761  10.423   3.697   6.254 -0.3566 -0.4235 -0.2423
  173MOL0     C23762  10.395   3.786   6.350  1.2514 -0.1492 -0.0343
  173MOL0     C23763  10.506   3.842   6.421  0.8083  1.0330  0.7586
  173MOL0     C23764  10.469   3.930   6.540 -1.7290 -0.4633 -0.5142
  173MOL0     C23765  10.641   3.814   6.375  0.5378  0.1076  0.4781
  173MOL0     C23766  10.759   3.877   6.439 -0.0588 -0.1879 -0.2487
  173MOL0     O23767  10.859   3.882   6.358  0.2443 -0.4484  0.5507
  173MOL0     C23768  10.964   3.975   6.374  0.2584  0.8936 -0.1413
  173MOL0     C23769  10.948   4.110   6.410 -0.4280 -0.3184  0.2338
  173MOL0     C23770  11.053   4.197   6.436  0.1174  0.2385  0.5451
  173MOL0     C23771  11.181   4.150   6.399 -0.5526  0.7563  0.5673
  173MOL0     O23772  11.299   4.216   6.419 -0.8692  0.4563 -0.4696
  173MOL0     C23773  11.312   4.348   6.378 -1.1802 -0.2326 -0.0407
  173MOL0     C23774  11.452   4.393   6.398 -0.0517  0.1367 -0.0669
  173MOL0     C23775  11.464   4.532   6.341 -0.5860 -0.4958  0.2250
  173MOL0     C23776  11.605   4.600   6.347 -0.3802  0.3579  0.8438
  173MOL0     C23777  11.675   4.605   6.483 -0.1221 -0.0934  0.3362
  173MOL0     C23778  11.598   4.704   6.579 -0.8160 -0.4585  0.6106
  173MOL0     C23779  11.680   4.721   6.713  0.2319 -1.0619 -0.6359
  173MOL0     C23780  11.700   4.588   6.791 -0.3985 -0.6378 -0.1701
  173MOL0    Cl23781  11.554   4.528   6.873 -0.5214  0.4498  0.1549
  173MOL0     C23782  11.201   4.013   6.367  0.9597 -0.1521  0.4739
  173MOL0     C23783  11.093   3.924   6.357 -0.4098 -0.2720  0.1532
  173MOL0     O23784  10.744   3.935   6.543  0.0415 -0.1435 -0.4761
  173MOL0     C23785  10.658   3.714   6.284  0.0265 -0.3192  0.3858
  173MOL0     C23786  10.545   3.652   6.230 -0.6431  0.2758 -0.4201
  173MOL0     N23787   9.783   3.697   6.228 -0.2352 -0.0771 -0.0104
  173MOL0     N23788   9.658   3.698   6.223 -0.0447 -0.3546  0.2823
  173MOL0     C23789   8.695   3.352   6.744 -1.0459 -0.1108  0.3671
  173MOL0     C23790   8.584   3.324   6.831 -0.4401  0.2872  0.1525
  173MOL0     C23791   8.242   3.049   6.997  0.6755 -0.1559 -0.6992
  173MOL0     C23792   8.142   3.113   6.919  0.0562  0.3213  0.3381
  173MOL0     C23793   8.003   3.102   6.948  0.3137 -1.3385  0.8131
  173MOL0     C23794   7.973   3.042   7.067 -0.1333  0.3512  0.3227
  173MOL0     O23795   7.846   3.046   7.108 -0.4718  0.3600 -0.6735
  173MOL0     C23796   7.731   3.063   7.019 -0.6912  0.3517 -0.4042
  173MOL0     C23797   7.605   3.052   7.095 -0.5676  0.4786 -0.2108
  173MOL0     C23798   7.479   3.058   7.002 -0.2587  0.1625 -0.7081
  173MOL0     C23799   7.462   3.198   6.934  0.2605  0.3644  0.1300
  173MOL0     C23800   7.410   3.298   7.028  0.8622  0.3313  1.7014
  173MOL0     C23801   7.364   3.368   7.117  0.0784 -0.2226  1.0905
  173MOL0     C23802   8.071   2.978   7.144  0.6016  1.3671 -0.5067
  173MOL0     C23803   8.206   2.989   7.120 -0.4406  0.3179  0.0059
  173MOL0     C23804   8.304   2.926   7.211 -0.1949  0.0782  0.2001
  173MOL0     H23805   8.490   3.028   6.680 -0.1068  1.5354 -3.5858
  173MOL0     H23806   8.676   3.074   6.550  1.3415 -2.6986  1.2792
  173MOL0     H23807   8.738   3.237   6.389 -0.8948 -2.5944  0.6481
  173MOL0     H23808   8.859   3.116   6.451  2.4278  1.7764  1.9985
  173MOL0     H23809   9.041   3.230   6.405  0.1319  0.4738  0.0518
  173MOL0     H23810   8.954   3.207   6.253  0.7423  2.3771 -0.7403
  173MOL0     H23811   9.007   3.418   6.216  2.6513 -1.3501  1.4798
  173MOL0     H23812   8.870   3.453   6.304  0.3956  0.7639 -0.4140
  173MOL0     H23813   9.033   3.588   6.404 -0.0724 -0.8767 -0.3380
  173MOL0     H23814   9.022   3.459   6.515 -1.7015 -0.1226 -0.6728
  173MOL0     H23815   9.231   3.453   6.282 -1.9683  0.9412 -1.0454
  173MOL0     H23816   9.235   3.357   6.428  2.4230  0.1387 -0.8777
  173MOL0     H23817   9.265   3.658   6.426  1.1501 -0.5621 -0.3231
  173MOL0     H23818   9.292   3.552   6.572  1.2039  3.0617  1.0645
  173MOL0     H23819   9.482   3.438   6.452  1.5158  0.3947 -0.6882
  173MOL0     H23820   9.508   3.604   6.474  0.3862 -1.1056 -0.1706
  173MOL0     H23821   9.417   3.473   6.217  0.9423  0.4173 -0.3231
  173MOL0     H23822   9.421   3.655   6.244  2.9272  2.0547  0.6971
  173MOL0     H23823   9.707   3.378   6.278 -0.7563  0.5208  0.0280
  173MOL0     H23824   9.982   3.424   6.204  1.6001 -0.1056 -0.0600
  173MOL0     H23825   9.952   3.458   6.378  2.3347 -0.5634 -0.6621
  173MOL0     H23826  10.021   3.698   6.329 -1.4312 -0.1946 -1.4284
  173MOL0     H23827  10.149   3.566   6.316 -0.4787 -2.3834 -0.9347
  173MOL0     H23828  10.103   3.541   6.084 -1.7762 -1.2457  0.8479
  173MOL0     H23829  10.004   3.699   6.087  0.9774  0.5658  0.7383
  173MOL0     H23830  10.236   3.745   6.021  0.9586 -0.6273 -0.2509
  173MOL0     H23831  10.198   3.812   6.191 -0.5428 -0.8980  2.2001
  173MOL0     H23832  10.296   3.815   6.385  1.4077 -1.3557  1.5186
  173MOL0     H23833  10.474   4.038   6.522 -1.6862  0.2726  3.1976
  173MOL0     H23834  10.520   3.913   6.635 -3.7157 -3.1192  0.2028
  173MOL0     H23835  10.365   3.914   6.572 -1.3963 -3.1822 -0.5297
  173MOL0     H23836  10.846   4.140   6.431  0.0273  0.8793  0.7861
  173MOL0     H23837  11.018   4.293   6.473 -0.3527 -0.4897  2.0454
  173MOL0     H23838  11.294   4.355   6.270  1.2869  1.0293 -0.4239
  173MOL0     H23839  11.252   4.418   6.438 -3.1960 -0.5232 -1.5894
  173MOL0     H23840  11.477   4.391   6.504 -1.3119  0.7967  0.2614
  173MOL0     H23841  11.523   4.327   6.347  2.1224  1.5376  0.9942
  173MOL0     H23842  11.385   4.592   6.387 -0.8236  0.2505 -1.1151
  173MOL0     H23843  11.444   4.527   6.234  0.6049  0.4585 -0.0699
  173MOL0     H23844  11.603   4.700   6.303  1.1680 -0.2630 -0.7613
  173MOL0     H23845  11.679   4.546   6.287 -0.6714  2.6802 -1.8472
  173MOL0     H23846  11.681   4.501   6.516 -2.6589 -0.6803 -0.8360
  173MOL0     H23847  11.782   4.624   6.470 -0.2117  0.2052  0.0299
  173MOL0     H23848  11.494   4.676   6.598 -2.0382  0.5810 -3.6019
  173MOL0     H23849  11.595   4.802   6.532  0.5894 -1.6702 -2.2446
  173MOL0     H23850  11.626   4.797   6.771  2.5038  1.7659 -1.9818
  173MOL0     H23851  11.777   4.763   6.688  0.3356 -1.2864 -0.6106
  173MOL0     H23852  11.779   4.616   6.862  0.5438  1.6375 -1.9862
  173MOL0     H23853  11.748   4.511   6.729 -1.5209 -1.3633 -0.1573
  173MOL0     H23854  11.304   3.979   6.358  1.0590  0.6482 -2.1155
  173MOL0     H23855  11.104   3.818   6.334 -3.4332 -1.0564  1.8516
  173MOL0     H23856  10.748   3.693   6.228 -0.6842 -0.3367 -0.7732
  173MOL0     H23857  10.566   3.584   6.148  0.3994 -0.3554  0.3603
  173MOL0     H23858   8.744   3.448   6.758  0.5633 -0.3354 -2.8047
  173MOL0     H23859   8.550   3.391   6.909 -1.7510 -0.3806  0.1782
  173MOL0     H23860   8.171   3.163   6.826 -0.7873 -0.2826 -0.2594
  173MOL0     H23861   7.936   3.147   6.875  1.7904 -1.5004 -0.6953
  173MOL0     H23862   7.742   3.162   6.974 -1.5658  0.7703  0.2712
  173MOL0     H23863   7.733   2.991   6.937 -1.6547  0.4980 -0.5712
  173MOL0     H23864   7.603   3.126   7.175  0.0318 -1.0962  1.3248
  173MOL0     H23865   7.598   2.952   7.140 -2.9253  0.7306  0.0981
  173MOL0     H23866   7.486   2.979   6.926 -2.6332 -1.9392  1.0612
  173MOL0     H23867   7.389   3.043   7.063  0.8518 -1.0428  0.7292
  173MOL0     H23868   7.398   3.187   6.846  0.4125 -1.8582  0.2297
  173MOL0     H23869   7.557   3.229   6.890  0.1067  0.5555 -0.0724
  173MOL0     H23870   7.313   3.410   7.201 -0.0173 -1.0489  1.4575
  173MOL0     H23871   8.030   2.928   7.232  1.7111 -0.5841 -1.0498
  173MOL0     H23872   8.379   3.001   7.237 -1.4005  1.5035 -0.2941
  173MOL0     H23873   8.266   2.885   7.305 -1.1708 -1.8831 -1.0009
  173MOL0     H23874   8.351   2.842   7.158  3.2849 -0.0556  3.0643
  174MOL0     O23875   6.253  10.850   1.296 -0.0003 -0.4583 -0.4553
  174MOL0     C23876   6.357  10.888   1.236  0.2958 -0.1475  0.1582
  174MOL0     O23877   6.387  11.015   1.215 -0.1645 -0.5234 -0.0596
  174MOL0     C23878   6.304  11.099   1.285 -0.3804  0.1737  0.8171
  174MOL0     C23879   6.362  11.169   1.391 -0.2128  0.5052  0.3988
  174MOL0     C23880   6.275  11.254   1.463 -0.3703 -0.0990 -0.1178
  174MOL0     C23881   6.142  11.263   1.447  0.9366 -0.0924  0.1616
  174MOL0     O23882   6.060  11.344   1.527  0.4403 -0.4531 -0.3003
  174MOL0     C23883   6.104  11.390   1.653  0.3913 -0.0813 -0.2902
  174MOL0     C23884   5.985  11.441   1.745  0.0171 -0.2929 -0.4374
  174MOL0     C23885   5.974  11.594   1.744 -0.8323  0.2639  0.3669
  174MOL0     C23886   6.095  11.661   1.815 -0.2640 -0.0505 -0.0850
  174MOL0     C23887   6.070  11.813   1.770 -0.3702  0.7674 -0.3963
  174MOL0     C23888   6.199  11.885   1.814 -0.9472  0.1325 -0.3212
  174MOL0     C23889   6.239  11.860   1.959  0.5842  0.9749 -0.6585
  174MOL0     C23890   6.333  11.969   2.013  0.3976 -0.7092 -0.3075
  174MOL0     N23891   6.417  11.934   2.125 -0.7605  0.7792  0.2222
  174MOL0     C23892   6.375  11.961   2.257 -0.5504  0.3514  1.0475
  174MOL0     C23893   6.471  11.905   2.329  0.2524  0.7895 -0.3167
  174MOL0     C23894   6.501  11.902   2.483  0.2484 -0.2421  0.2837
  174MOL0     C23895   6.638  11.948   2.528 -0.1206 -0.3253 -0.0937
  174MOL0     C23896   6.637  11.999   2.677  0.5413  0.5165  0.1081
  174MOL0     C23897   6.771  11.999   2.743 -0.4833 -0.0371  0.0543
  174MOL0     O23898   6.856  12.113   2.711  0.1667  0.6125  0.3446
  174MOL0     C23899   6.943  12.110   2.611  0.2332 -0.6205 -0.2431
  174MOL0     C23900   6.972  12.003   2.528  0.4070 -0.3587  0.3677
  174MOL0     C23901   7.059  12.010   2.420 -0.4416  0.2321 -0.6257
  174MOL0     C23902   7.070  11.886   2.325  0.4986 -0.4709  0.1671
  174MOL0     C23903   7.138  12.129   2.406 -0.3530 -0.9556  0.3405
  174MOL0     C23904   7.249  12.144   2.306  0.6417 -1.2125 -0.4127
  174MOL0     O23905   7.318  12.036   2.265  0.5346 -0.2469  0.1693
  174MOL0     C23906   7.391  12.053   2.147 -0.0704  0.1755  0.2954
  174MOL0     C23907   7.332  12.077   2.021  0.0744 -0.2633 -0.2942
  174MOL0     C23908   7.419  12.074   1.905  0.0989 -0.5758 -1.2220
  174MOL0     C23909   7.550  12.054   1.913 -0.4656 -0.6226  0.6272
  174MOL0     O23910   7.621  12.042   1.791  0.4841  1.1083  0.7029
  174MOL0     C23911   7.743  11.970   1.785  0.4995  1.0854 -0.3423
  174MOL0     C23912   7.779  11.944   1.644  0.3765  0.9370  0.0384
  174MOL0     C23913   7.695  11.823   1.581  0.6349  1.3665  0.7860
  174MOL0     C23914   7.723  11.810   1.434 -0.4759  0.6915 -0.1607
  174MOL0     C23915   7.662  11.905   1.340  0.4798 -0.3408 -0.5367
  174MOL0     C23916   7.716  11.877   1.205  0.2309 -0.3709  0.1613
  174MOL0     C23917   7.705  11.980   1.101  0.3249 -0.1845 -0.2528
  174MOL0     C23918   7.752  11.947   0.960  0.3360 -0.6369  0.0977
  174MOL0    Cl23919   7.662  11.803   0.899  0.0196  0.3004 -0.1068
  174MOL0     C23920   7.610  12.039   2.034 -0.2368  0.1033  0.6330
  174MOL0     C23921   7.530  12.051   2.148 -0.8890 -0.6935  0.2180
  174MOL0     O23922   7.270  12.254   2.263  0.5074 -0.1308  0.3308
  174MOL0     C23923   7.102  12.235   2.490 -0.7212 -0.9218  0.3559
  174MOL0     C23924   7.003  12.234   2.591  0.4004  0.2167  0.3158
  174MOL0     N23925   6.564  11.846   2.240  0.7799  0.2465 -1.0495
  174MOL0     N23926   6.534  11.862   2.120 -0.3602 -0.0563  0.2396
  174MOL0     C23927   6.090  11.208   1.327  0.3655  1.1545 -1.1461
  174MOL0     C23928   6.169  11.127   1.243 -0.0897  0.1316 -0.3280
  174MOL0     C23929   6.439  10.782   1.176  0.2024 -0.7993  0.1162
  174MOL0     C23930   6.537  10.821   1.083  0.0001  0.8442  0.6041
  174MOL0     C23931   6.622  10.734   1.009 -0.0383 -0.0995  0.7832
  174MOL0     C23932   6.597  10.596   1.030  0.0193  0.1429  0.1374
  174MOL0     O23933   6.672  10.506   0.967  0.1063  0.1590  0.3887
  174MOL0     C23934   6.600  10.399   0.897 -0.1434 -0.7450 -0.0316
  174MOL0     C23935   6.590  10.451   0.752 -0.6083  0.9932  1.0111
  174MOL0     C23936   6.729  10.423   0.683 -0.3498 -0.1639  0.3324
  174MOL0     C23937   6.750  10.268   0.644  0.9594 -0.2249 -0.0015
  174MOL0     C23938   6.867  10.245   0.559  0.6172 -0.0217 -0.3040
  174MOL0     C23939   6.966  10.223   0.492 -0.2721  0.3961 -0.1274
  174MOL0     C23940   6.507  10.552   1.123 -0.1539  0.6008  0.0787
  174MOL0     C23941   6.431  10.644   1.187 -0.5299  0.4722  0.0160
  174MOL0     C23942   6.337  10.589   1.291 -0.5039 -0.3713  1.5831
  174MOL0     H23943   6.464  11.144   1.418  0.1236 -2.0606 -2.6148
  174MOL0     H23944   6.320  11.325   1.532 -0.1252  1.5226 -1.8863
  174MOL0     H23945   6.180  11.467   1.643 -1.0884  1.7460  1.6068
  174MOL0     H23946   6.145  11.306   1.710 -0.3192 -0.0574  0.2739
  174MOL0     H23947   5.891  11.395   1.712 -0.5891 -0.3403  1.2408
  174MOL0     H23948   5.995  11.397   1.844 -0.3070 -1.3894 -0.8801
  174MOL0     H23949   5.978  11.626   1.639 -1.8764  2.6184  0.9671
  174MOL0     H23950   5.880  11.631   1.786 -1.1300 -2.5064  2.4362
  174MOL0     H23951   6.083  11.646   1.923 -1.5495 -2.3926 -0.5039
  174MOL0     H23952   6.192  11.616   1.791  0.1970  0.3505  0.9378
  174MOL0     H23953   5.986  11.856   1.826 -0.6042  1.5911 -1.3541
  174MOL0     H23954   6.049  11.839   1.666  2.2887 -0.7358 -1.4166
  174MOL0     H23955   6.289  11.851   1.761 -0.4788 -1.8605  1.6286
  174MOL0     H23956   6.184  11.992   1.794 -0.5841 -0.0416 -1.6489
  174MOL0     H23957   6.293  11.765   1.963  1.9116  1.6899 -1.0349
  174MOL0     H23958   6.147  11.851   2.019  0.7041 -0.1068 -0.6087
  174MOL0     H23959   6.407  11.988   1.934  0.7277 -2.9170 -0.5911
  174MOL0     H23960   6.283  12.063   2.038  1.0472 -0.1323 -1.1127
  174MOL0     H23961   6.288  12.022   2.283 -0.9368  2.0136 -3.1785
  174MOL0     H23962   6.481  11.799   2.514 -0.7805 -0.4179 -0.8632
  174MOL0     H23963   6.423  11.965   2.528  0.5531  1.4266 -1.4178
  174MOL0     H23964   6.706  11.863   2.517  2.3337  1.6361 -0.9198
  174MOL0     H23965   6.673  12.027   2.461  0.5869  0.1879  0.8618
  174MOL0     H23966   6.578  12.088   2.700 -0.6410  0.0181 -0.8677
  174MOL0     H23967   6.576  11.926   2.733  0.0832  0.8641  0.0657
  174MOL0     H23968   6.750  11.993   2.850 -0.9791 -3.8518 -0.1302
  174MOL0     H23969   6.827  11.908   2.718  0.9976  0.7919  0.1978
  174MOL0     H23970   6.917  11.909   2.526  0.9070 -0.6575  0.5320
  174MOL0     H23971   7.141  11.820   2.375  0.1215  0.9086  2.6702
  174MOL0     H23972   7.098  11.918   2.224  2.8096  2.0767  1.4946
  174MOL0     H23973   6.971  11.842   2.307  0.3767  0.5391 -1.9557
  174MOL0     H23974   7.225  12.067   2.007 -0.4773  2.3494  1.2325
  174MOL0     H23975   7.363  12.084   1.813  1.1152  0.6046 -1.7467
  174MOL0     H23976   7.829  12.022   1.828  0.7833  1.5100 -1.3952
  174MOL0     H23977   7.736  11.875   1.839  4.5546  1.6795  1.6434
  174MOL0     H23978   7.759  12.042   1.599  0.2601  1.7363  1.7361
  174MOL0     H23979   7.884  11.913   1.642 -0.2199 -1.2373 -0.4275
  174MOL0     H23980   7.592  11.858   1.598  0.1742  0.4873 -0.0732
  174MOL0     H23981   7.717  11.727   1.628  0.5735  1.0769  0.2388
  174MOL0     H23982   7.678  11.714   1.407  0.0723 -0.0660  1.5023
  174MOL0     H23983   7.831  11.802   1.419 -0.0124  0.1435  2.8407
  174MOL0     H23984   7.553  11.893   1.337  0.2946 -0.0155  2.1369
  174MOL0     H23985   7.683  12.010   1.365  1.1808 -0.4552 -0.6357
  174MOL0     H23986   7.673  11.783   1.170 -2.0045  0.5359  0.2587
  174MOL0     H23987   7.824  11.858   1.210  0.0998 -1.0520  0.5807
  174MOL0     H23988   7.769  12.064   1.129 -1.3817  1.9671 -2.4113
  174MOL0     H23989   7.601  12.015   1.100  0.9538  1.7309 -1.0343
  174MOL0     H23990   7.858  11.922   0.962  0.2054 -1.3546 -1.0356
  174MOL0     H23991   7.731  12.041   0.908 -1.9971 -0.7334  0.7547
  174MOL0     H23992   7.718  12.030   2.036  0.0702  1.4392 -3.1251
  174MOL0     H23993   7.580  12.050   2.244 -0.8445 -2.8965  0.2361
  174MOL0     H23994   7.145  12.335   2.494  0.3374 -1.3274 -0.4131
  174MOL0     H23995   6.979  12.322   2.650 -0.3414  1.9897 -2.4325
  174MOL0     H23996   5.984  11.221   1.310  0.3743  1.9142 -0.6785
  174MOL0     H23997   6.142  11.071   1.154  1.0990  0.1955 -0.7396
  174MOL0     H23998   6.552  10.922   1.045 -1.3468 -0.0277 -2.6153
  174MOL0     H23999   6.689  10.766   0.929  1.5644 -1.6820  1.4098
  174MOL0     H24000   6.643  10.298   0.893 -0.0009 -0.6573 -0.9230
  174MOL0     H24001   6.499  10.387   0.937 -1.1402  1.1476 -1.8091
  174MOL0     H24002   6.560  10.556   0.739 -1.5256  0.7843  1.3994
  174MOL0     H24003   6.510  10.392   0.708 -1.2721  0.5951  2.6937
  174MOL0     H24004   6.731  10.475   0.587 -0.5428 -3.8003 -1.8166
  174MOL0     H24005   6.806  10.452   0.756 -0.6807  0.7275  0.3403
  174MOL0     H24006   6.663  10.238   0.584  0.9076  0.0463 -0.0643
  174MOL0     H24007   6.762  10.205   0.732  4.0113  1.2430  0.7561
  174MOL0     H24008   7.048  10.189   0.431 -1.4684  0.3603 -1.7978
  174MOL0     H24009   6.492  10.445   1.139  2.5250 -0.2922 -2.5698
  174MOL0     H24010   6.242  10.615   1.245 -0.0058  1.2781  1.3944
  174MOL0     H24011   6.347  10.481   1.301 -0.7894 -0.3930  1.6413
  174MOL0     H24012   6.355  10.643   1.385 -1.7617  0.4837  1.3546
  175MOL0     O24013   4.978   0.326   6.350 -0.2053 -0.2569  0.0909
  175MOL0     C24014   4.953   0.369   6.238 -0.6419 -0.2463 -0.7533
  175MOL0     O24015   4.836   0.427   6.196  0.0528  0.0592  0.2377
  175MOL0     C24016   4.727   0.421   6.282  0.0408  0.3502  0.2579
  175MOL0     C24017   4.718   0.417   6.422 -0.1862 -0.5730 -0.0619
  175MOL0     C24018   4.588   0.433   6.483 -0.7037  0.3791 -0.2792
  175MOL0     C24019   4.474   0.428   6.406 -0.5367 -0.6001  0.0414
  175MOL0     O24020   4.348   0.420   6.456  1.0323  0.1730  0.1995
  175MOL0     C24021   4.267   0.536   6.421 -0.5180 -0.1463 -0.0742
  175MOL0     C24022   4.124   0.523   6.465  0.4678 -0.6557  0.9107
  175MOL0     C24023   4.054   0.433   6.356  0.3771  0.1902  0.1503
  175MOL0     C24024   3.907   0.418   6.392 -1.4311  0.5265  0.3145
  175MOL0     C24025   3.841   0.327   6.279 -0.5993  0.2472 -0.3664
  175MOL0     C24026   3.684   0.369   6.275  1.1292  0.1679  0.2295
  175MOL0     C24027   3.611   0.270   6.186  0.0463  0.3132 -0.5586
  175MOL0     C24028   3.463   0.273   6.206 -0.7420  0.1857 -0.6597
  175MOL0     N24029   3.394   0.173   6.123  0.1636 -1.0645  0.0986
  175MOL0     C24030   3.379   0.045   6.173 -0.4181 -0.9309 -0.5368
  175MOL0     C24031   3.283   0.003   6.089  0.2295  0.3814  0.6361
  175MOL0     C24032   3.248  -0.140   6.095 -0.7682  0.0824  0.8058
  175MOL0     C24033   3.375  -0.216   6.046  0.5757  0.1734  0.1255
  175MOL0     C24034   3.390  -0.201   5.897 -0.5803 -0.0341  0.1947
  175MOL0     C24035   3.496  -0.099   5.860  0.6547  0.4293 -0.0626
  175MOL0     O24036   3.620  -0.160   5.889  0.1981  0.0745  0.3901
  175MOL0     C24037   3.729  -0.077   5.879 -0.3173  0.0651 -0.2035
  175MOL0     C24038   3.720   0.065   5.881  0.8136 -0.4406 -0.6991
  175MOL0     C24039   3.831   0.147   5.862 -0.0998 -0.1599 -0.5980
  175MOL0     C24040   3.806   0.293   5.848 -0.3295 -0.5117  0.4306
  175MOL0     C24041   3.963   0.089   5.872 -0.3211 -0.8256  0.1929
  175MOL0     C24042   4.097   0.176   5.861  0.1211  0.8531 -0.3267
  175MOL0     O24043   4.203   0.107   5.837 -0.4144 -0.9080 -0.2327
  175MOL0     C24044   4.310   0.188   5.779  0.4328 -0.2717 -0.2082
  175MOL0     C24045   4.419   0.236   5.852 -0.9875 -0.0432  0.5121
  175MOL0     C24046   4.517   0.319   5.785  0.4435 -0.3636  0.7698
  175MOL0     C24047   4.508   0.342   5.643  0.2545 -0.1155 -0.0461
  175MOL0     O24048   4.603   0.409   5.572 -0.0858 -0.1396  0.0538
  175MOL0     C24049   4.726   0.452   5.637 -0.1411  0.1542  0.5282
  175MOL0     C24050   4.800   0.548   5.543  0.6203  0.4344 -0.3087
  175MOL0     C24051   4.880   0.480   5.429 -0.1479  0.0266  0.0935
  175MOL0     C24052   4.928   0.591   5.329 -0.0018  0.1836  0.6200
  175MOL0     C24053   5.024   0.540   5.232  0.0290  0.0563 -0.9288
  175MOL0     C24054   5.042   0.643   5.119 -0.1290  0.8688  0.5442
  175MOL0     C24055   5.098   0.773   5.162  0.7128 -0.0104 -0.2615
  175MOL0     C24056   5.151   0.859   5.046 -0.5649 -0.2721  0.5067
  175MOL0    Cl24057   5.245   1.004   5.109 -0.1252  0.0588  0.6062
  175MOL0     C24058   4.395   0.298   5.577  0.7163  0.0256 -0.8134
  175MOL0     C24059   4.304   0.220   5.645 -0.2621  0.0924  0.1809
  175MOL0     O24060   4.086   0.302   5.861 -0.9056  0.0490  0.1359
  175MOL0     C24061   3.973  -0.051   5.870  0.2468  0.1956 -0.5594
  175MOL0     C24062   3.853  -0.126   5.861  0.1223 -0.2877  0.3064
  175MOL0     N24063   3.222   0.107   6.015 -0.1094  0.6026 -0.1182
  175MOL0     N24064   3.308   0.199   6.024 -0.0668  0.3914 -0.7870
  175MOL0     C24065   4.485   0.423   6.265  0.0906  0.4570 -0.1675
  175MOL0     C24066   4.610   0.408   6.211  0.3644  0.2073  0.2569
  175MOL0     C24067   5.059   0.344   6.140 -0.1078  0.0869 -1.0255
  175MOL0     C24068   5.162   0.256   6.179  0.2686 -0.5165  0.8286
  175MOL0     C24069   5.271   0.235   6.102 -0.0078  0.4630  0.7821
  175MOL0     C24070   5.283   0.293   5.974 -0.8958  0.3055 -0.2486
  175MOL0     O24071   5.401   0.274   5.900 -0.5206 -0.1807 -0.4467
  175MOL0     C24072   5.378   0.206   5.776  0.9002 -0.5459 -0.4033
  175MOL0     C24073   5.395   0.302   5.663 -0.1951 -0.0054  0.3458
  175MOL0     C24074   5.514   0.398   5.676  0.7770  0.9759 -0.3223
  175MOL0     C24075   5.532   0.480   5.549 -0.1117 -0.2626 -0.1154
  175MOL0     C24076   5.420   0.570   5.542 -0.8908  0.4213  0.9120
  175MOL0     C24077   5.317   0.623   5.557  0.5524 -0.7947 -0.3258
  175MOL0     C24078   5.176   0.375   5.930 -0.4286  0.2631 -0.2086
  175MOL0     C24079   5.064   0.397   6.013  0.4235 -0.4060  0.1725
  175MOL0     C24080   4.971   0.511   5.966 -0.2291  0.6497  0.1084
  175MOL0     H24081   4.803   0.431   6.488 -0.1641  0.3416 -0.2704
  175MOL0     H24082   4.568   0.429   6.589 -2.5988 -1.6280 -0.6348
  175MOL0     H24083   4.281   0.552   6.314  0.8397 -2.2223 -0.2623
  175MOL0     H24084   4.318   0.614   6.479 -0.8110  0.8344 -1.0884
  175MOL0     H24085   4.103   0.491   6.568  1.1342 -3.7244  0.1998
  175MOL0     H24086   4.080   0.621   6.448 -1.8773 -1.4366  2.1063
  175MOL0     H24087   4.071   0.469   6.255  2.0152 -1.0499 -0.0631
  175MOL0     H24088   4.089   0.329   6.355 -0.9745 -0.2845  0.3751
  175MOL0     H24089   3.890   0.375   6.491 -3.0674 -0.0316 -0.1773
  175MOL0     H24090   3.867   0.519   6.393 -2.5329  0.1347 -1.0099
  175MOL0     H24091   3.852   0.221   6.302 -0.1373 -0.0286 -1.7472
  175MOL0     H24092   3.895   0.336   6.185  0.6299 -3.1767 -0.1304
  175MOL0     H24093   3.641   0.373   6.376 -0.3382  3.8088 -0.3665
  175MOL0     H24094   3.675   0.471   6.236 -2.3320 -0.0886  0.0060
  175MOL0     H24095   3.621   0.164   6.212 -1.2834  0.0872 -0.9224
  175MOL0     H24096   3.642   0.277   6.082  2.0273 -0.2801 -0.0696
  175MOL0     H24097   3.437   0.269   6.312 -2.1688  0.8712 -0.9558
  175MOL0     H24098   3.431   0.370   6.165  1.5693  1.6017  0.6570
  175MOL0     H24099   3.429   0.000   6.258 -1.7739 -0.5469  0.5093
  175MOL0     H24100   3.162  -0.155   6.029 -1.5482 -0.4063  1.9081
  175MOL0     H24101   3.220  -0.163   6.198  3.0639  0.5832  2.1363
  175MOL0     H24102   3.468  -0.199   6.101  1.3611  0.8331 -1.3452
  175MOL0     H24103   3.358  -0.322   6.066 -2.1494  0.6177  0.4849
  175MOL0     H24104   3.415  -0.296   5.848  1.5625  1.1590 -1.1798
  175MOL0     H24105   3.301  -0.168   5.842  0.3372 -0.1782 -1.4472
  175MOL0     H24106   3.497  -0.073   5.753 -1.3369  2.9383  0.4439
  175MOL0     H24107   3.476  -0.013   5.925 -0.5848 -0.1969  0.4262
  175MOL0     H24108   3.630   0.126   5.886  2.1088  1.4248  1.6708
  175MOL0     H24109   3.872   0.350   5.781  1.2203  0.7660  2.9171
  175MOL0     H24110   3.823   0.327   5.950 -0.3991 -0.7295  0.5146
  175MOL0     H24111   3.704   0.307   5.811 -0.4417  1.1262  1.2739
  175MOL0     H24112   4.429   0.209   5.957  1.6584 -0.0088  0.3415
  175MOL0     H24113   4.596   0.371   5.837  3.0876 -1.5142 -1.8171
  175MOL0     H24114   4.722   0.512   5.728  2.7623  0.6390  0.4397
  175MOL0     H24115   4.785   0.363   5.658  0.9410  0.2261 -1.8400
  175MOL0     H24116   4.718   0.607   5.501  2.5781  0.5599 -4.5329
  175MOL0     H24117   4.870   0.609   5.601  0.4794  2.2531 -1.9498
  175MOL0     H24118   4.834   0.394   5.379 -0.6773  0.5301 -0.3097
  175MOL0     H24119   4.972   0.442   5.474  1.6758  1.6973 -1.9629
  175MOL0     H24120   4.978   0.665   5.392 -0.6817  1.2518 -0.0656
  175MOL0     H24121   4.840   0.627   5.275 -0.6035 -1.4156  0.4770
  175MOL0     H24122   5.115   0.518   5.289  0.6317  4.7166  0.3667
  175MOL0     H24123   4.974   0.450   5.198 -1.0421 -0.3484  1.5533
  175MOL0     H24124   4.947   0.668   5.071  0.1108  1.3179  0.3017
  175MOL0     H24125   5.105   0.604   5.038  1.0485  0.3268  1.6826
  175MOL0     H24126   5.182   0.754   5.230  1.9581  3.9937 -0.3812
  175MOL0     H24127   5.024   0.833   5.216 -0.5315 -0.5716 -1.2950
  175MOL0     H24128   5.068   0.885   4.980 -0.7183 -0.0502  0.7879
  175MOL0     H24129   5.225   0.795   4.997 -1.3675  0.1467 -1.3403
  175MOL0     H24130   4.385   0.323   5.471  1.2115 -4.2277 -2.0492
  175MOL0     H24131   4.219   0.179   5.591 -0.1622  0.6940 -0.4498
  175MOL0     H24132   4.064  -0.109   5.860  0.4717 -0.1720  2.4562
  175MOL0     H24133   3.852  -0.234   5.857 -1.8589 -0.3856  2.0062
  175MOL0     H24134   4.400   0.416   6.198  0.5519  1.9197 -0.9666
  175MOL0     H24135   4.627   0.395   6.104  0.7422 -2.4318  0.5730
  175MOL0     H24136   5.146   0.196   6.268  0.9360 -1.0179  0.6200
  175MOL0     H24137   5.348   0.168   6.141 -0.4569 -1.1299 -0.8893
  175MOL0     H24138   5.440   0.116   5.770  0.0776 -1.2159  0.6552
  175MOL0     H24139   5.277   0.164   5.765  1.2615 -0.9670 -2.6658
  175MOL0     H24140   5.307   0.367   5.666 -1.4089 -1.6016  1.1999
  175MOL0     H24141   5.390   0.256   5.564  0.9361  0.5952 -0.0061
  175MOL0     H24142   5.509   0.464   5.763  2.1482 -1.2037  1.5300
  175MOL0     H24143   5.602   0.334   5.686 -0.2675 -0.1858  2.4881
  175MOL0     H24144   5.548   0.422   5.457 -2.2281 -0.2888 -0.5123
  175MOL0     H24145   5.631   0.527   5.549 -0.2656  0.0833  0.8628
  175MOL0     H24146   5.226   0.666   5.594  0.2072 -0.3148 -1.6654
  175MOL0     H24147   5.172   0.426   5.834 -1.2256 -1.1514 -0.9551
  175MOL0     H24148   5.004   0.551   5.869 -0.7517  0.2997 -0.2250
  175MOL0     H24149   4.868   0.476   5.947 -0.0162  0.1689 -0.1840
  175MOL0     H24150   4.963   0.591   6.039 -3.4595  1.0828 -0.5331
  176MOL0     O24151   4.097   6.006  10.340  0.7573  0.2709  0.0627
  176MOL0     C24152   4.034   5.953  10.248  0.3404 -0.2466  0.7443
  176MOL0     O24153   3.900   5.943  10.251  0.2065  0.0560  0.5154
  176MOL0     C24154   3.836   5.973  10.362 -0.3789  0.7104 -0.6297
  176MOL0     C24155   3.830   5.866  10.455  0.0837 -0.2778  1.3258
  176MOL0     C24156   3.742   5.877  10.564  0.5917 -1.0347  0.3579
  176MOL0     C24157   3.655   5.995  10.575 -0.5542  0.4755 -0.1729
  176MOL0     O24158   3.574   5.987  10.685 -0.5622 -0.0831  0.7817
  176MOL0     C24159   3.504   6.100  10.730  0.0169  0.6276 -0.1501
  176MOL0     C24160   3.410   6.070  10.846 -0.7371  0.1880  0.6849
  176MOL0     C24161   3.291   6.175  10.865  0.1219 -0.3136  1.1742
  176MOL0     C24162   3.340   6.322  10.882 -0.4751  0.1954  0.6563
  176MOL0     C24163   3.277   6.391  11.005 -0.4421  0.0234 -0.2382
  176MOL0     C24164   3.312   6.542  11.002  0.1012  0.5609  0.4859
  176MOL0     C24165   3.290   6.596  11.144 -0.3117  0.6546  0.1771
  176MOL0     C24166   3.403   6.678  11.187 -0.4589  0.5070 -1.2386
  176MOL0     N24167   3.416   6.683  11.335 -0.2915  0.1086  0.5653
  176MOL0     C24168   3.381   6.588  11.429 -0.8625 -0.4152  0.3600
  176MOL0     C24169   3.428   6.631  11.545 -0.6234 -0.5559 -0.1000
  176MOL0     C24170   3.411   6.560  11.671 -0.8125 -0.4281  0.5197
  176MOL0     C24171   3.306   6.616  11.762  0.1220  0.5577  0.3958
  176MOL0     C24172   3.344   6.742  11.843  0.5308  0.9570  0.5173
  176MOL0     C24173   3.453   6.709  11.948  0.2512  0.6866  0.2404
  176MOL0     O24174   3.590   6.732  11.911  0.3257 -0.2416  0.6200
  176MOL0     C24175   3.615   6.858  11.878  0.1969 -0.1529 -0.7183
  176MOL0     C24176   3.595   6.974  11.957 -0.8316 -0.0294  0.8019
  176MOL0     C24177   3.623   7.105  11.904 -0.0913 -0.2942  0.6725
  176MOL0     C24178   3.587   7.214  11.990  0.3256  0.0471 -1.0344
  176MOL0     C24179   3.678   7.128  11.772 -0.9301 -0.0899  0.1639
  176MOL0     C24180   3.706   7.259  11.706 -0.1833  0.1128  0.4858
  176MOL0     O24181   3.774   7.250  11.587  0.6874  0.0082  0.2675
  176MOL0     C24182   3.793   7.361  11.511 -0.6503 -0.5295  0.5800
  176MOL0     C24183   3.697   7.397  11.413 -0.3393 -0.0164 -0.1174
  176MOL0     C24184   3.718   7.506  11.334  0.1813 -0.3928 -0.6817
  176MOL0     C24185   3.831   7.594  11.356  0.6059  0.1586 -0.3343
  176MOL0     O24186   3.851   7.707  11.282 -0.1123 -0.5524  0.2686
  176MOL0     C24187   3.811   7.709  11.145  0.2946 -0.0921 -0.1063
  176MOL0     C24188   3.754   7.851  11.122 -0.6449  0.4674  0.4625
  176MOL0     C24189   3.759   7.903  10.976  0.2282  0.2067 -0.0737
  176MOL0     C24190   3.899   7.925  10.916  0.6201 -0.3733 -0.1471
  176MOL0     C24191   3.916   8.077  10.865  0.2302 -0.0412  0.4158
  176MOL0     C24192   3.918   8.195  10.964 -0.2499 -0.5210 -0.2573
  176MOL0     C24193   4.050   8.185  11.050  0.5095  0.2922 -0.4062
  176MOL0     C24194   4.068   8.303  11.150 -0.7096  0.3215  0.6158
  176MOL0    Cl24195   4.227   8.272  11.234 -0.1914 -0.1316  0.5623
  176MOL0     C24196   3.920   7.563  11.451  0.4550 -0.1235 -0.7360
  176MOL0     C24197   3.901   7.450  11.531  0.1611 -0.1142 -0.1332
  176MOL0     O24198   3.669   7.363  11.764  0.5875  0.6975 -1.1516
  176MOL0     C24199   3.695   7.009  11.700  0.5950 -0.2581  0.5363
  176MOL0     C24200   3.663   6.881  11.756 -0.7808 -0.9964 -0.3211
  176MOL0     N24201   3.484   6.758  11.526  0.1861  0.1563  0.1356
  176MOL0     N24202   3.471   6.783  11.399  0.4810 -0.3611 -0.4645
  176MOL0     C24203   3.666   6.097  10.483  0.1921  0.5075 -0.3669
  176MOL0     C24204   3.756   6.086  10.380 -0.2110  0.2831  0.9152
  176MOL0     C24205   4.115   5.906  10.139  0.0873  0.6625  0.0124
  176MOL0     C24206   4.223   5.977  10.097  0.3114 -0.6015  0.5936
  176MOL0     C24207   4.304   5.937   9.995 -0.0049 -0.1758 -0.6952
  176MOL0     C24208   4.277   5.827   9.916 -0.0992  0.4302 -0.7007
  176MOL0     O24209   4.342   5.807   9.793  0.2384 -0.1365 -0.2727
  176MOL0     C24210   4.489   5.783   9.802 -0.1031  0.1667 -0.2954
  176MOL0     C24211   4.552   5.846   9.679 -1.0978 -0.6015  0.2696
  176MOL0     C24212   4.704   5.843   9.680 -0.0103 -0.1544 -0.2652
  176MOL0     C24213   4.774   5.912   9.564 -0.5376 -0.5314 -0.2162
  176MOL0     C24214   4.916   5.904   9.598  0.2150 -1.2428 -0.1490
  176MOL0     C24215   5.030   5.895   9.623 -0.5771 -1.1839 -0.5789
  176MOL0     C24216   4.158   5.767   9.946  1.0055  0.5850  0.1385
  176MOL0     C24217   4.078   5.797  10.057 -0.2216  0.3558  0.1415
  176MOL0     C24218   3.959   5.700  10.097  1.4984  0.4505  0.1533
  176MOL0     H24219   3.899   5.784  10.437  3.4261  2.5391  0.2359
  176MOL0     H24220   3.760   5.799  10.637  0.0226  0.0533  1.7040
  176MOL0     H24221   3.439   6.142  10.653 -0.7064  1.1371  0.7171
  176MOL0     H24222   3.578   6.174  10.761 -0.3168  0.3130  1.4820
  176MOL0     H24223   3.369   5.968  10.837  1.0507 -0.9626  3.8693
  176MOL0     H24224   3.464   6.069  10.941  1.1477 -1.6361 -0.3340
  176MOL0     H24225   3.223   6.178  10.780  2.2259  2.3669 -0.5575
  176MOL0     H24226   3.241   6.149  10.958  0.5763  0.7607  1.7351
  176MOL0     H24227   3.447   6.331  10.865 -0.5281  1.9984  1.0877
  176MOL0     H24228   3.310   6.369  10.787 -0.2261  0.9289  0.9298
  176MOL0     H24229   3.317   6.337  11.091  0.5809  0.1383 -0.6307
  176MOL0     H24230   3.168   6.376  11.006 -0.9123  2.9381 -0.4667
  176MOL0     H24231   3.416   6.547  10.970  0.0287  2.0162  0.4067
  176MOL0     H24232   3.249   6.585  10.924  2.1115 -0.9342 -2.1039
  176MOL0     H24233   3.278   6.513  11.215  1.0161 -0.1128 -0.4582
  176MOL0     H24234   3.190   6.641  11.137  0.5469  2.3547 -1.8601
  176MOL0     H24235   3.492   6.631  11.145  0.2642 -2.0854  2.6576
  176MOL0     H24236   3.393   6.780  11.149  0.5706 -0.0980 -3.2306
  176MOL0     H24237   3.327   6.494  11.424  1.8408 -2.2933  2.7138
  176MOL0     H24238   3.499   6.551  11.736 -2.2180  0.1726  2.5886
  176MOL0     H24239   3.370   6.463  11.644 -1.9688  0.9134 -3.1740
  176MOL0     H24240   3.224   6.637  11.694  3.4214  0.1255 -4.1435
  176MOL0     H24241   3.268   6.538  11.828 -3.6554 -0.4675 -2.6692
  176MOL0     H24242   3.387   6.810  11.769 -0.0406 -0.3063 -1.0328
  176MOL0     H24243   3.253   6.781  11.889 -1.2279 -2.0498 -0.1392
  176MOL0     H24244   3.430   6.773  12.033 -0.5124  3.4815 -1.9201
  176MOL0     H24245   3.440   6.604  11.975  1.5775 -0.4682 -3.0394
  176MOL0     H24246   3.543   6.962  12.052 -1.3480 -0.0640  0.5178
  176MOL0     H24247   3.492   7.262  11.965 -1.1051 -1.5455  1.0332
  176MOL0     H24248   3.666   7.289  12.003 -2.0102  2.5331 -0.2767
  176MOL0     H24249   3.581   7.177  12.093  2.1592  0.5167 -0.7162
  176MOL0     H24250   3.610   7.332  11.405 -0.0899 -0.3814  0.1162
  176MOL0     H24251   3.631   7.521  11.270 -2.2245 -2.0434  1.9203
  176MOL0     H24252   3.893   7.686  11.076  0.7802  0.1447  0.3831
  176MOL0     H24253   3.730   7.640  11.122 -2.8237  3.6829 -1.5287
  176MOL0     H24254   3.655   7.849  11.167  1.2155 -0.0165  5.0970
  176MOL0     H24255   3.809   7.926  11.180  1.0612  0.4881 -1.0980
  176MOL0     H24256   3.705   7.998  10.969  1.2757  0.7020 -2.7820
  176MOL0     H24257   3.717   7.832  10.903  3.0747 -1.2626 -0.4315
  176MOL0     H24258   3.912   7.863  10.827  2.0405 -1.2874  0.6578
  176MOL0     H24259   3.978   7.897  10.987 -0.7466 -1.4244  1.0392
  176MOL0     H24260   3.999   8.094  10.796 -0.7324 -0.9852 -1.0361
  176MOL0     H24261   3.827   8.095  10.804  0.1332 -0.1318  0.5292
  176MOL0     H24262   3.838   8.194  11.038  3.1886  0.7313  3.8979
  176MOL0     H24263   3.905   8.289  10.909  0.7340  1.2078  2.2587
  176MOL0     H24264   4.143   8.173  10.993  1.5461  0.8731  1.0852
  176MOL0     H24265   4.039   8.097  11.115  1.2986  0.1286 -0.4795
  176MOL0     H24266   3.988   8.304  11.224 -0.2606 -0.9933  1.1517
  176MOL0     H24267   4.080   8.397  11.097  2.7030  0.6571  1.7308
  176MOL0     H24268   4.013   7.617  11.465  1.1034 -1.1450 -0.9796
  176MOL0     H24269   3.955   7.425  11.621 -3.1868 -5.3938  0.8376
  176MOL0     H24270   3.721   7.018  11.595  0.1138 -2.5915  0.1566
  176MOL0     H24271   3.717   6.800  11.707  2.7269  0.8598  0.1121
  176MOL0     H24272   3.607   6.188  10.486 -0.0559  0.4084 -1.4813
  176MOL0     H24273   3.757   6.172  10.314  0.0806 -1.5372 -1.5897
  176MOL0     H24274   4.260   6.067  10.146 -0.4343 -0.6197  1.2245
  176MOL0     H24275   4.380   6.014   9.984 -1.8958  1.5817 -2.4128
  176MOL0     H24276   4.539   5.822   9.891 -1.6412  1.2705  0.1401
  176MOL0     H24277   4.501   5.674   9.796  0.0488  0.1078  0.8753
  176MOL0     H24278   4.518   5.950   9.677 -3.9798 -1.4497  1.3006
  176MOL0     H24279   4.514   5.796   9.590  0.1476 -3.2774  1.1411
  176MOL0     H24280   4.728   5.871   9.783 -2.5388  1.7652 -0.0941
  176MOL0     H24281   4.740   5.740   9.670  1.6824  0.3051  0.7336
  176MOL0     H24282   4.739   6.014   9.544  1.6358 -0.0334 -1.8934
  176MOL0     H24283   4.750   5.852   9.475 -1.7991 -2.3110  1.2530
  176MOL0     H24284   5.134   5.889   9.648 -0.8987  0.9307  1.6785
  176MOL0     H24285   4.124   5.695   9.872  0.4096  1.1054 -0.1056
  176MOL0     H24286   3.864   5.720  10.046  0.3788 -0.6485  1.6994
  176MOL0     H24287   3.982   5.593  10.086  0.0699 -0.3044  3.3732
  176MOL0     H24288   3.931   5.704  10.202 -4.4327  0.6100 -1.0463
  177MOL0     O24289   2.823   4.684   4.205 -0.2930 -0.3252  0.1679
  177MOL0     C24290   2.880   4.578   4.210 -0.4622 -0.3305  0.8234
  177MOL0     O24291   2.996   4.549   4.275 -0.5956 -0.5090  0.2046
  177MOL0     C24292   3.060   4.664   4.325  0.9374  0.5870 -0.9917
  177MOL0     C24293   3.164   4.725   4.264 -0.3598 -0.1786  0.5541
  177MOL0     C24294   3.237   4.830   4.329  1.2000 -0.0403  0.6641
  177MOL0     C24295   3.204   4.875   4.463  0.2908  0.5433  0.3880
  177MOL0     O24296   3.260   4.985   4.530  0.1453 -0.1665 -0.6310
  177MOL0     C24297   3.381   5.040   4.470  0.8784 -0.3534 -0.3178
  177MOL0     C24298   3.495   4.952   4.510 -0.0376  0.8856 -0.4304
  177MOL0     C24299   3.620   4.992   4.434  0.5061 -0.2519  0.9284
  177MOL0     C24300   3.673   5.129   4.471 -0.4375  0.1795  1.2226
  177MOL0     C24301   3.820   5.145   4.412  0.1399 -0.2523  0.0983
  177MOL0     C24302   3.878   5.291   4.397  0.7638 -0.2472 -0.3232
  177MOL0     C24303   3.925   5.344   4.535  1.8269  0.1899  0.3727
  177MOL0     C24304   4.068   5.313   4.561  0.0124  0.4082  0.2589
  177MOL0     N24305   4.132   5.421   4.634  0.3935 -0.3613 -0.0499
  177MOL0     C24306   4.169   5.547   4.583 -0.4691  0.1959 -0.7767
  177MOL0     C24307   4.186   5.619   4.702 -0.1712 -1.0053 -0.4970
  177MOL0     C24308   4.234   5.758   4.708 -0.5462 -0.4196 -0.2350
  177MOL0     C24309   4.349   5.793   4.811 -0.4551 -0.2499  0.0777
  177MOL0     C24310   4.356   5.944   4.820 -0.3792  0.0487  0.3177
  177MOL0     C24311   4.464   5.987   4.916 -0.1709  0.4403 -0.4041
  177MOL0     O24312   4.592   5.987   4.842 -0.7784 -0.3315 -0.5483
  177MOL0     C24313   4.722   5.987   4.891 -0.1725 -0.2570  0.0318
  177MOL0     C24314   4.834   6.013   4.805  0.8643 -0.5023 -0.0151
  177MOL0     C24315   4.963   5.995   4.843  0.0078 -0.5870  0.7884
  177MOL0     C24316   5.064   6.012   4.728 -0.0479 -0.1430 -0.0620
  177MOL0     C24317   4.996   5.965   4.973 -0.1835 -1.5876  0.5475
  177MOL0     C24318   5.127   5.961   5.024  0.6147 -0.7480 -0.0577
  177MOL0     O24319   5.205   6.060   4.981 -0.2533 -0.1482  0.0740
  177MOL0     C24320   5.324   6.081   5.040 -0.2783  0.9050  0.3951
  177MOL0     C24321   5.336   6.159   5.157  0.6460  0.9844 -0.6538
  177MOL0     C24322   5.470   6.169   5.225 -0.0011 -0.1992 -0.3896
  177MOL0     C24323   5.583   6.103   5.172  0.0774  0.3348  0.2693
  177MOL0     O24324   5.707   6.110   5.235  0.6422  0.4435 -0.1530
  177MOL0     C24325   5.795   6.001   5.202  0.1151  0.7341  0.2058
  177MOL0     C24326   5.882   6.000   5.320 -0.0236 -0.3386 -0.3063
  177MOL0     C24327   5.938   6.137   5.360 -0.6159 -0.2168 -0.1437
  177MOL0     C24328   6.010   6.132   5.496 -0.4198  0.4718 -0.1176
  177MOL0     C24329   6.147   6.198   5.498 -0.4876 -1.3001  0.1770
  177MOL0     C24330   6.211   6.210   5.638 -0.9441  0.1659 -0.0690
  177MOL0     C24331   6.344   6.285   5.629  0.4024 -0.4951 -0.0669
  177MOL0     C24332   6.399   6.340   5.762  0.1613  0.8982 -0.1180
  177MOL0    Cl24333   6.559   6.407   5.725 -0.0868 -0.1928  0.3158
  177MOL0     C24334   5.571   6.043   5.045  0.4996  1.5915 -0.5923
  177MOL0     C24335   5.443   6.032   4.982  0.0747 -0.0202  0.2359
  177MOL0     O24336   5.168   5.866   5.088  0.1376  0.1406 -0.1365
  177MOL0     C24337   4.889   5.954   5.064  1.0466 -0.0457 -0.4234
  177MOL0     C24338   4.753   5.963   5.022  0.3651  0.0746 -0.4753
  177MOL0     N24339   4.156   5.535   4.814 -0.4750  0.0491 -0.0582
  177MOL0     N24340   4.133   5.421   4.771  0.1754  0.6951 -0.6431
  177MOL0     C24341   3.102   4.803   4.524 -0.7117  0.0753  1.0094
  177MOL0     C24342   3.038   4.693   4.458  0.6660 -0.6468 -0.2852
  177MOL0     C24343   2.827   4.477   4.123  1.0150  0.1856  0.7384
  177MOL0     C24344   2.914   4.408   4.033 -0.0277  0.3022 -1.4618
  177MOL0     C24345   2.865   4.323   3.943 -0.4466 -0.5176 -0.1599
  177MOL0     C24346   2.723   4.304   3.925 -0.0840  0.4808  0.2799
  177MOL0     O24347   2.666   4.218   3.826 -0.7667  0.6168 -0.0383
  177MOL0     C24348   2.755   4.151   3.727  0.8837  0.0806  0.0920
  177MOL0     C24349   2.668   4.065   3.638  0.2546 -0.8826 -0.6450
  177MOL0     C24350   2.582   4.145   3.543  0.1798 -0.5293 -0.2279
  177MOL0     C24351   2.493   4.043   3.462  0.1691 -0.2975  0.4963
  177MOL0     C24352   2.380   4.122   3.411  0.3719 -0.5591  0.9701
  177MOL0     C24353   2.287   4.180   3.358 -0.4251  0.2541  0.4112
  177MOL0     C24354   2.638   4.369   4.011  0.0741  0.4071 -0.0214
  177MOL0     C24355   2.691   4.449   4.121 -0.1566 -0.1379  0.0627
  177MOL0     C24356   2.593   4.493   4.230 -0.6036 -0.0414  0.4707
  177MOL0     H24357   3.183   4.704   4.160  0.0972  0.8213  0.4215
  177MOL0     H24358   3.320   4.872   4.273  0.5268  0.5426  0.0878
  177MOL0     H24359   3.395   5.143   4.502  3.5180  0.2057 -2.8186
  177MOL0     H24360   3.368   5.063   4.364  0.1574  0.4087 -0.0755
  177MOL0     H24361   3.512   4.955   4.618  1.3941  3.6069 -0.6545
  177MOL0     H24362   3.469   4.851   4.478  0.5579  0.2474  1.0095
  177MOL0     H24363   3.705   4.926   4.457  3.1013  2.2181 -0.8105
  177MOL0     H24364   3.612   4.990   4.325  1.1466  0.0818  0.8656
  177MOL0     H24365   3.619   5.207   4.416  1.3542 -0.4616 -1.6467
  177MOL0     H24366   3.650   5.149   4.576 -0.2030  0.0276  1.3046
  177MOL0     H24367   3.835   5.098   4.314  0.5594 -2.8326  1.3269
  177MOL0     H24368   3.889   5.093   4.479  0.8540  0.1222 -0.3209
  177MOL0     H24369   3.965   5.300   4.331 -0.0313  2.8837 -1.1276
  177MOL0     H24370   3.797   5.354   4.359 -0.5772 -2.7448 -1.8054
  177MOL0     H24371   3.860   5.326   4.621 -1.1142 -1.0650 -1.9193
  177MOL0     H24372   3.910   5.449   4.508 -2.7795 -0.9676 -2.7925
  177MOL0     H24373   4.083   5.222   4.620  1.7556  1.3025  1.2904
  177MOL0     H24374   4.120   5.294   4.467 -0.2053  3.1683 -0.5020
  177MOL0     H24375   4.183   5.586   4.483 -1.0583  1.9709 -0.2111
  177MOL0     H24376   4.146   5.818   4.730  0.0463  0.3149  0.1808
  177MOL0     H24377   4.271   5.768   4.605  2.2912 -2.3524  0.4624
  177MOL0     H24378   4.320   5.761   4.911  0.8021  0.9127  0.8515
  177MOL0     H24379   4.451   5.763   4.785 -1.1138 -1.6034 -1.1451
  177MOL0     H24380   4.359   5.995   4.724  0.8874  0.9252  0.8031
  177MOL0     H24381   4.265   5.978   4.869 -0.6523 -0.9105  0.5068
  177MOL0     H24382   4.448   6.094   4.935  2.7826  0.8173  0.5386
  177MOL0     H24383   4.461   5.924   5.005 -3.1665  0.5909 -0.3035
  177MOL0     H24384   4.805   6.025   4.701  0.0399 -1.1066  0.1287
  177MOL0     H24385   5.036   5.971   4.630 -0.5457 -0.2397  0.1146
  177MOL0     H24386   5.156   5.966   4.766  0.4765  1.3111  0.5056
  177MOL0     H24387   5.075   6.119   4.710 -1.8897 -0.0319 -0.7070
  177MOL0     H24388   5.247   6.201   5.203  0.7268  0.6848 -0.2135
  177MOL0     H24389   5.471   6.231   5.314 -1.4450  0.8521 -1.0686
  177MOL0     H24390   5.748   5.905   5.182  0.5450  0.7853 -1.1316
  177MOL0     H24391   5.856   6.023   5.114  1.1714  2.1478  1.2289
  177MOL0     H24392   5.832   5.950   5.403  0.3065  0.4338  0.3726
  177MOL0     H24393   5.963   5.930   5.298 -0.0536 -0.3966 -0.2308
  177MOL0     H24394   5.862   6.216   5.361 -1.1015 -0.6505 -1.0294
  177MOL0     H24395   6.010   6.160   5.281  3.8458 -2.6107  2.7877
  177MOL0     H24396   6.003   6.035   5.545  0.2113 -0.7960 -2.4045
  177MOL0     H24397   5.947   6.189   5.565  0.1653  0.0064  0.8276
  177MOL0     H24398   6.215   6.133   5.443  1.0142  0.7765 -0.5489
  177MOL0     H24399   6.154   6.286   5.433  0.6758 -2.4869 -1.3777
  177MOL0     H24400   6.238   6.111   5.677  0.2834  0.0120 -1.2235
  177MOL0     H24401   6.147   6.269   5.704  0.2401  1.5430 -0.0915
  177MOL0     H24402   6.327   6.375   5.568 -0.0766 -0.8777 -0.5098
  177MOL0     H24403   6.424   6.236   5.573  1.6467  0.2796  0.9605
  177MOL0     H24404   6.414   6.265   5.839  1.8928 -0.9837 -2.1551
  177MOL0     H24405   6.330   6.418   5.796 -1.7385 -1.0995  0.8757
  177MOL0     H24406   5.654   5.994   4.994  1.7159 -0.4034  2.9653
  177MOL0     H24407   5.442   5.995   4.881  2.0989 -1.8855  0.8275
  177MOL0     H24408   4.901   5.937   5.170 -4.8439  0.8544  0.7041
  177MOL0     H24409   4.677   5.939   5.096 -0.4100  0.9244 -0.9803
  177MOL0     H24410   3.080   4.837   4.625 -2.0033  0.0963  0.7281
  177MOL0     H24411   2.956   4.649   4.514  1.1639  0.3463  1.2887
  177MOL0     H24412   3.021   4.426   4.026  0.2922 -1.4118 -1.4252
  177MOL0     H24413   2.940   4.276   3.880  1.1232 -2.2673  2.7650
  177MOL0     H24414   2.811   4.223   3.666  1.8011 -1.9821 -1.6338
  177MOL0     H24415   2.825   4.081   3.773  1.2687  1.5498  1.8821
  177MOL0     H24416   2.615   3.991   3.699  1.9539 -0.5115  1.4065
  177MOL0     H24417   2.735   4.003   3.578  1.0133 -0.2803 -0.4350
  177MOL0     H24418   2.515   4.206   3.603  1.1967  0.8532 -0.4294
  177MOL0     H24419   2.646   4.195   3.469 -0.7554 -0.5688 -1.0830
  177MOL0     H24420   2.462   3.956   3.520 -0.2385 -0.7908 -0.4289
  177MOL0     H24421   2.556   4.007   3.380  0.4366  0.4815  0.3529
  177MOL0     H24422   2.200   4.232   3.324 -1.2215  0.7785  2.9600
  177MOL0     H24423   2.535   4.337   4.008 -0.5778  2.2741  1.0060
  177MOL0     H24424   2.533   4.570   4.181  1.1248 -0.0540 -1.8197
  177MOL0     H24425   2.527   4.410   4.258 -1.4798  1.0473  1.7291
  177MOL0     H24426   2.650   4.530   4.315  0.9334  0.1224 -0.6009
  178MOL0     O24427  10.941  11.199   0.253 -0.0642  0.4621  0.6185
  178MOL0     C24428  10.846  11.167   0.321  0.1836  0.2904  0.4187
  178MOL0     O24429  10.857  11.137   0.448 -0.1899  0.7097 -0.6381
  178MOL0     C24430  10.979  11.161   0.512  1.2283  0.4172  0.2416
  178MOL0     C24431  11.013  11.054   0.603 -0.7655 -1.0632  0.0126
  178MOL0     C24432  11.125  11.077   0.678 -0.5544  0.9353  0.9159
  178MOL0     C24433  11.196  11.198   0.680 -0.3905 -0.5133  0.2370
  178MOL0     O24434  11.299  11.203   0.771  0.2794 -0.1815  0.2628
  178MOL0     C24435  11.402  11.299   0.738  0.2379 -0.7267 -1.0556
  178MOL0     C24436  11.511  11.278   0.836  1.0450  0.3471 -0.0491
  178MOL0     C24437  11.467  11.317   0.983  0.2829  0.2774  0.0950
  178MOL0     C24438  11.457  11.462   1.016 -0.8335  0.3288 -1.0345
  178MOL0     C24439  11.405  11.490   1.151 -0.3016 -0.2954 -0.0464
  178MOL0     C24440  11.404  11.643   1.182  1.2534  0.2521  0.7416
  178MOL0     C24441  11.352  11.670   1.320 -0.0911 -0.6453 -0.0800
  178MOL0     C24442  11.463  11.650   1.439  0.0786  0.0071 -0.0367
  178MOL0     N24443  11.411  11.727   1.552 -0.7041  0.8322  0.5605
  178MOL0     C24444  11.399  11.860   1.547 -1.4268 -0.5332 -0.6497
  178MOL0     C24445  11.330  11.891   1.660  1.1742 -0.2099  0.7012
  178MOL0     C24446  11.268  12.022   1.712  0.0737 -0.7858  0.3193
  178MOL0     C24447  11.378  12.090   1.797 -0.3140 -0.3959 -0.1565
  178MOL0     C24448  11.437  11.998   1.909 -0.3842 -0.0311 -0.3496
  178MOL0     C24449  11.528  12.076   2.001  0.2209 -0.4688  0.3948
  178MOL0     O24450  11.452  12.152   2.097 -0.7255  0.9614 -0.7415
  178MOL0     C24451  11.513  12.214   2.210 -0.6194  0.1217 -0.6422
  178MOL0     C24452  11.656  12.202   2.244 -0.3274 -0.7605 -0.5335
  178MOL0     C24453  11.703  12.259   2.371  0.3309  0.2853 -0.4729
  178MOL0     C24454  11.855  12.256   2.390  0.3439  0.1381  0.7066
  178MOL0     C24455  11.610  12.326   2.457 -0.1698 -0.8546 -0.9330
  178MOL0     C24456  11.654  12.404   2.580  1.1431  0.4089 -0.2966
  178MOL0     O24457  11.777  12.396   2.629 -0.6355  0.3985  0.3847
  178MOL0     C24458  11.814  12.470   2.737 -0.1981  0.3678  0.0235
  178MOL0     C24459  11.815  12.415   2.864 -0.4011 -0.9794  0.2271
  178MOL0     C24460  11.863  12.493   2.969 -0.3662 -0.6789  0.5762
  178MOL0     C24461  11.925  12.622   2.941 -0.4484  0.3639 -0.8624
  178MOL0     O24462  11.974  12.711   3.034 -0.0797 -0.8813 -0.2176
  178MOL0     C24463  11.980  12.662   3.168  0.1804 -0.5566 -0.2653
  178MOL0     C24464  12.079  12.547   3.197 -0.0183  0.7683  0.3145
  178MOL0     C24465  12.230  12.590   3.220 -0.1862  0.7208  0.0231
  178MOL0     C24466  12.312  12.462   3.246 -0.1803 -0.3715  0.7754
  178MOL0     C24467  12.451  12.480   3.293  1.0069 -0.5071 -0.8969
  178MOL0     C24468  12.470  12.558   3.434  0.9297  0.0470  0.4586
  178MOL0     C24469  12.603  12.540   3.487  0.5305 -0.3491 -0.7451
  178MOL0     C24470  12.615  12.633   3.607  0.2883  0.8047 -0.1974
  178MOL0    Cl24471  12.790  12.610   3.654 -0.2510  0.1515 -0.1707
  178MOL0     C24472  11.914  12.672   2.811 -1.0675 -0.5231 -0.4815
  178MOL0     C24473  11.859  12.594   2.711 -0.3662 -0.3492 -0.5067
  178MOL0     O24474  11.567  12.483   2.623 -0.6428  0.5499  0.0810
  178MOL0     C24475  11.474  12.332   2.418 -1.3792 -0.0498 -0.7000
  178MOL0     C24476  11.434  12.273   2.300  0.5189  0.4574  0.8379
  178MOL0     N24477  11.294  11.767   1.723 -0.6311 -0.7495  0.2442
  178MOL0     N24478  11.344  11.673   1.652  0.0208 -1.1205  0.5042
  178MOL0     C24479  11.156  11.299   0.592  0.3392 -0.8288  0.2234
  178MOL0     C24480  11.047  11.283   0.504  0.0374 -0.2485  0.8067
  178MOL0     C24481  10.709  11.151   0.257  0.0792 -0.3263  0.2982
  178MOL0     C24482  10.630  11.050   0.302 -0.2936  0.5246 -0.2656
  178MOL0     C24483  10.505  11.022   0.249 -0.1005  0.0007  0.2060
  178MOL0     C24484  10.454  11.108   0.146  0.6431  0.3227 -0.6275
  178MOL0     O24485  10.339  11.071   0.083 -0.2731  0.8413 -0.2833
  178MOL0     C24486  10.313  11.096  -0.056  0.7453 -0.8011  1.1769
  178MOL0     C24487  10.233  11.225  -0.088 -0.1012  0.6599 -0.3552
  178MOL0     C24488  10.236  11.250  -0.239 -0.0110  0.0009  0.0865
  178MOL0     C24489  10.138  11.361  -0.276 -0.7183 -0.8834  0.0923
  178MOL0     C24490  10.182  11.505  -0.253  0.4263  0.2646 -0.1418
  178MOL0     C24491  10.225  11.614  -0.222  0.0961  0.4334 -0.1917
  178MOL0     C24492  10.524  11.216   0.111 -0.5894  0.8193 -0.5062
  178MOL0     C24493  10.650  11.235   0.156 -0.6088 -0.1806 -0.5600
  178MOL0     C24494  10.714  11.360   0.114 -0.0747 -0.4567 -0.0426
  178MOL0     H24495  10.952  10.964   0.610 -1.3201 -0.8531 -1.6834
  178MOL0     H24496  11.164  11.005   0.749 -2.8081 -2.0109 -0.6074
  178MOL0     H24497  11.358  11.398   0.753 -1.3647 -1.4565 -0.7436
  178MOL0     H24498  11.443  11.289   0.637  1.1385 -1.9636 -0.5936
  178MOL0     H24499  11.549  11.177   0.817  0.5453  0.5254 -2.2081
  178MOL0     H24500  11.592  11.349   0.818  0.0044  0.9181 -3.0148
  178MOL0     H24501  11.373  11.263   0.999  1.4258 -2.6644 -2.1294
  178MOL0     H24502  11.540  11.267   1.047  1.0307  2.8125  1.3134
  178MOL0     H24503  11.558  11.500   1.004  0.9940 -3.1241  1.6391
  178MOL0     H24504  11.394  11.514   0.943 -1.4342  0.1944 -0.6196
  178MOL0     H24505  11.449  11.419   1.221  4.2368 -1.5257 -3.6321
  178MOL0     H24506  11.301  11.458   1.137 -0.3451 -0.0314 -0.3374
  178MOL0     H24507  11.501  11.692   1.174  1.1260  0.3802 -0.0603
  178MOL0     H24508  11.340  11.693   1.108 -0.3953 -3.2656 -0.4100
  178MOL0     H24509  11.261  11.609   1.324 -1.2546  0.7736 -2.5224
  178MOL0     H24510  11.318  11.772   1.301 -0.2683 -0.9894 -1.7435
  178MOL0     H24511  11.467  11.544   1.468  0.1154  0.0322  0.0497
  178MOL0     H24512  11.564  11.676   1.407  1.0922  0.5455  3.2637
  178MOL0     H24513  11.433  11.929   1.469  1.6806 -0.4198  0.6451
  178MOL0     H24514  11.180  11.983   1.763 -0.7835 -1.1000 -1.3194
  178MOL0     H24515  11.236  12.097   1.638 -2.7016  0.2407  2.4051
  178MOL0     H24516  11.451  12.131   1.726  1.2742 -1.8826  0.5478
  178MOL0     H24517  11.335  12.180   1.841  2.2743  1.2652 -0.7876
  178MOL0     H24518  11.365  11.947   1.974  1.8400 -1.3341  1.2446
  178MOL0     H24519  11.495  11.918   1.862  1.0548  0.1910  0.9577
  178MOL0     H24520  11.596  12.004   2.047 -0.1663 -0.7607  0.5180
  178MOL0     H24521  11.582  12.152   1.944 -2.3391  2.4228  1.5424
  178MOL0     H24522  11.737  12.159   2.185  2.6760 -0.6699  3.1221
  178MOL0     H24523  11.873  12.226   2.494 -2.4393  1.9302  1.8375
  178MOL0     H24524  11.895  12.352   2.354  0.7798 -0.4185 -0.3293
  178MOL0     H24525  11.898  12.182   2.323 -0.3935  1.2402 -1.0531
  178MOL0     H24526  11.758  12.323   2.877 -2.3686 -0.1312 -1.7498
  178MOL0     H24527  11.854  12.432   3.059 -1.0425 -1.2905  0.1074
  178MOL0     H24528  12.003  12.741   3.240 -0.6635 -0.6171  0.0868
  178MOL0     H24529  11.881  12.626   3.197  0.2396 -0.2002  0.3936
  178MOL0     H24530  12.041  12.497   3.286 -0.6391  2.0412  0.7974
  178MOL0     H24531  12.069  12.481   3.110  0.0683  2.3779 -0.9770
  178MOL0     H24532  12.225  12.640   3.317 -1.2529  2.7944 -1.0377
  178MOL0     H24533  12.279  12.649   3.143  1.4344 -1.8999 -1.0964
  178MOL0     H24534  12.318  12.396   3.158  1.5604 -0.6353  1.0631
  178MOL0     H24535  12.256  12.405   3.320 -0.7064  0.0780  0.7320
  178MOL0     H24536  12.494  12.381   3.310  0.7816 -0.2155  1.7433
  178MOL0     H24537  12.500  12.535   3.212 -0.2161  1.8124 -0.1732
  178MOL0     H24538  12.396  12.513   3.501 -0.4587 -1.2813 -1.8402
  178MOL0     H24539  12.451  12.663   3.412  0.4729 -0.4078 -1.4811
  178MOL0     H24540  12.688  12.564   3.421  2.6508 -0.9363  1.6296
  178MOL0     H24541  12.611  12.435   3.517 -1.2575 -0.4631 -0.5760
  178MOL0     H24542  12.541  12.597   3.679  0.7144 -0.0584 -0.1798
  178MOL0     H24543  12.602  12.740   3.586 -0.1419  1.1458  1.6565
  178MOL0     H24544  11.962  12.764   2.782  0.7198  0.1199  3.7376
  178MOL0     H24545  11.859  12.639   2.612 -0.5690 -2.3627 -1.4755
  178MOL0     H24546  11.399  12.384   2.478 -0.2546 -0.3354  1.0215
  178MOL0     H24547  11.326  12.274   2.291  0.5223  0.0719  0.7468
  178MOL0     H24548  11.210  11.393   0.593 -1.5256  0.3112 -0.1902
  178MOL0     H24549  11.021  11.361   0.433  2.1486  0.0947  0.3125
  178MOL0     H24550  10.670  10.972   0.366 -0.8312 -0.3810 -0.9935
  178MOL0     H24551  10.446  10.935   0.278 -0.2779  0.6069  1.7542
  178MOL0     H24552  10.400  11.100  -0.122 -0.2782 -0.2236 -0.1797
  178MOL0     H24553  10.258  11.009  -0.094 -1.1293  1.1618 -0.8225
  178MOL0     H24554  10.283  11.305  -0.032 -1.2146  1.8141 -0.9632
  178MOL0     H24555  10.135  11.211  -0.043  0.4644  0.2097  0.7727
  178MOL0     H24556  10.336  11.279  -0.271 -0.6625  1.2377 -0.9057
  178MOL0     H24557  10.187  11.163  -0.284  0.3987  0.3954 -1.1646
  178MOL0     H24558  10.045  11.352  -0.220 -0.9807 -1.1463 -0.3818
  178MOL0     H24559  10.110  11.344  -0.380 -0.6384  0.6343 -0.2052
  178MOL0     H24560  10.267  11.710  -0.204 -3.5281  1.8467  1.7603
  178MOL0     H24561  10.477  11.293   0.050 -1.0981  0.6565 -0.3295
  178MOL0     H24562  10.647  11.432   0.064  1.5475 -1.3956 -3.9197
  178MOL0     H24563  10.760  11.408   0.201  2.4973 -0.6283 -1.2133
  178MOL0     H24564  10.791  11.348   0.037 -0.2650  2.2118 -0.7603
  179MOL0     O24565   5.608   8.023   6.057  0.3017 -0.6206 -0.0896
  179MOL0     C24566   5.553   8.023   6.172 -0.6485  0.9229  0.1667
  179MOL0     O24567   5.601   8.089   6.277 -0.0075 -0.6384 -0.5068
  179MOL0     C24568   5.712   8.168   6.286 -0.2305 -0.1182  0.8779
  179MOL0     C24569   5.769   8.233   6.182  0.6415  0.0077  0.4992
  179MOL0     C24570   5.885   8.319   6.193 -0.2699  0.6682  0.2274
  179MOL0     C24571   5.927   8.343   6.326  0.0909  0.8800  0.0690
  179MOL0     O24572   6.045   8.408   6.337  0.6216  0.9098  0.4768
  179MOL0     C24573   6.057   8.519   6.433  0.1940 -0.3913  1.3541
  179MOL0     C24574   5.988   8.651   6.382 -0.5909  0.0137  0.5537
  179MOL0     C24575   5.984   8.761   6.486  0.5040  0.4882  0.8565
  179MOL0     C24576   6.018   8.897   6.434  0.8291  0.2637 -0.0317
  179MOL0     C24577   5.990   9.003   6.550  0.4261 -0.0729  0.6379
  179MOL0     C24578   5.992   9.141   6.501  0.5149  0.0916 -0.0349
  179MOL0     C24579   6.114   9.169   6.402  0.0821  0.5147 -0.1824
  179MOL0     C24580   6.153   9.313   6.392  0.2638 -0.1504  0.4422
  179MOL0     N24581   6.041   9.401   6.340 -0.1419 -0.8472 -0.1102
  179MOL0     C24582   6.014   9.428   6.208 -0.7406  0.0677  0.5794
  179MOL0     C24583   5.908   9.504   6.199 -0.1974  0.2669  0.3839
  179MOL0     C24584   5.837   9.574   6.082 -0.3908  0.2125  0.8364
  179MOL0     C24585   5.737   9.484   6.010  0.2095  0.9257 -0.3742
  179MOL0     C24586   5.658   9.564   5.902 -0.5505  0.1464  0.0795
  179MOL0     C24587   5.562   9.468   5.835  0.0539  0.1544  0.0449
  179MOL0     O24588   5.494   9.522   5.725  0.1723  0.1260 -0.5951
  179MOL0     C24589   5.399   9.619   5.754  1.0542 -0.1663  0.4798
  179MOL0     C24590   5.357   9.694   5.637  0.2215  0.2288 -0.3410
  179MOL0     C24591   5.249   9.784   5.627 -0.2551  0.0081 -0.1674
  179MOL0     C24592   5.199   9.839   5.490 -0.2998 -0.2849  0.2279
  179MOL0     C24593   5.189   9.818   5.750 -0.6232 -0.6135 -0.3269
  179MOL0     C24594   5.079   9.910   5.763  0.5241 -0.2521 -0.6170
  179MOL0     O24595   4.967   9.861   5.813 -0.4366  0.3794 -0.5172
  179MOL0     C24596   4.865   9.950   5.855  0.1818 -1.3288  0.3452
  179MOL0     C24597   4.758   9.953   5.775  0.0497  0.1343 -0.1169
  179MOL0     C24598   4.640  10.033   5.803  0.3641  0.3828 -0.1302
  179MOL0     C24599   4.642  10.116   5.921  0.6300  0.4564  0.5658
  179MOL0     O24600   4.525  10.188   5.947 -0.5959  0.2079 -0.5429
  179MOL0     C24601   4.548  10.324   5.988  0.1635  0.2883  0.1273
  179MOL0     C24602   4.418  10.400   6.029 -0.0781  0.3032 -0.8121
  179MOL0     C24603   4.378  10.350   6.165 -0.2481  0.7323 -0.9063
  179MOL0     C24604   4.257  10.408   6.222  0.0274 -0.1605 -0.3713
  179MOL0     C24605   4.201  10.332   6.346 -0.1434 -0.5592 -0.4720
  179MOL0     C24606   4.121  10.439   6.422  0.7363 -1.0132 -0.6906
  179MOL0     C24607   4.015  10.372   6.503 -0.3839  0.6439  0.0381
  179MOL0     C24608   3.918  10.471   6.568 -0.1041 -0.8685  0.5694
  179MOL0    Cl24609   3.819  10.380   6.683  0.0248 -0.0708 -0.0572
  179MOL0     C24610   4.755  10.120   6.004 -0.1711  0.0191 -0.5770
  179MOL0     C24611   4.868  10.034   5.973 -0.1347  0.6016  0.7434
  179MOL0     O24612   5.093  10.027   5.718  0.1992  0.1772 -0.0087
  179MOL0     C24613   5.235   9.749   5.867 -0.4890 -0.0625  0.6713
  179MOL0     C24614   5.338   9.648   5.873  0.1119 -1.1289 -0.0226
  179MOL0     N24615   5.862   9.511   6.332 -0.6898 -0.3331 -0.2472
  179MOL0     N24616   5.947   9.461   6.416  0.2763  1.2250  0.1791
  179MOL0     C24617   5.868   8.283   6.435  0.1051  1.3627 -0.2342
  179MOL0     C24618   5.760   8.201   6.414  0.5183  0.3470 -0.5143
  179MOL0     C24619   5.431   7.940   6.197  0.7703  1.0278  0.0866
  179MOL0     C24620   5.430   7.872   6.315  0.1591 -0.8723  0.7684
  179MOL0     C24621   5.350   7.761   6.334  0.3810 -0.1860 -0.0076
  179MOL0     C24622   5.253   7.726   6.240 -0.5534  0.5187  0.2764
  179MOL0     O24623   5.165   7.625   6.249 -0.3842 -0.0977  0.0054
  179MOL0     C24624   5.123   7.581   6.379 -0.3492  0.5764  0.5704
  179MOL0     C24625   4.972   7.555   6.355 -0.5054  0.6451  0.2827
  179MOL0     C24626   4.889   7.688   6.344  0.4078 -0.4548  0.7769
  179MOL0     C24627   4.742   7.677   6.373  0.4484  0.0563 -0.0364
  179MOL0     C24628   4.734   7.661   6.519  0.4040  0.1340 -0.4236
  179MOL0     C24629   4.709   7.645   6.638  0.1363  0.3820  0.0372
  179MOL0     C24630   5.257   7.787   6.116  0.5465 -0.0275 -0.0892
  179MOL0     C24631   5.346   7.894   6.096  0.5879  0.6824  0.0415
  179MOL0     C24632   5.337   7.967   5.961 -0.4091  0.2052 -0.5494
  179MOL0     H24633   5.723   8.225   6.084 -1.5813 -0.7607  1.5375
  179MOL0     H24634   5.923   8.362   6.102  0.0044  0.3247  0.1754
  179MOL0     H24635   6.162   8.545   6.449  0.2149 -0.4238  1.2735
  179MOL0     H24636   6.017   8.513   6.535  0.9366  3.8515  2.0584
  179MOL0     H24637   6.034   8.685   6.289 -0.1270 -0.0663  0.7529
  179MOL0     H24638   5.888   8.618   6.351  1.1976 -4.4942 -1.2722
  179MOL0     H24639   5.878   8.773   6.510  0.1965  1.6465 -0.8692
  179MOL0     H24640   6.036   8.728   6.577 -0.0923 -0.7317  0.7754
  179MOL0     H24641   6.122   8.892   6.401 -0.3604 -1.4975 -4.1596
  179MOL0     H24642   5.962   8.925   6.344 -0.6458 -0.7241  0.5366
  179MOL0     H24643   6.073   8.988   6.621 -0.2084 -0.6447  1.2686
  179MOL0     H24644   5.896   8.989   6.604 -0.7836 -0.5084 -1.4689
  179MOL0     H24645   5.907   9.162   6.436 -0.0746 -1.3921  0.2235
  179MOL0     H24646   5.982   9.209   6.587  3.5382 -3.0790  3.1770
  179MOL0     H24647   6.098   9.130   6.301  0.4764 -2.9286  0.9354
  179MOL0     H24648   6.199   9.111   6.440 -0.8505 -0.3915  0.5586
  179MOL0     H24649   6.165   9.347   6.495  1.9143  0.6931 -0.0072
  179MOL0     H24650   6.249   9.320   6.340  0.0123 -1.0114 -0.1692
  179MOL0     H24651   6.070   9.400   6.120 -0.0316  0.1758  0.9890
  179MOL0     H24652   5.917   9.609   6.016 -0.1363  1.9213  1.9925
  179MOL0     H24653   5.795   9.670   6.113 -1.4150 -0.4385  1.5251
  179MOL0     H24654   5.788   9.397   5.968  0.8431 -0.0502  2.1931
  179MOL0     H24655   5.675   9.431   6.084  1.8443 -1.3558 -0.5352
  179MOL0     H24656   5.602   9.648   5.944  0.2012  0.3690  0.6462
  179MOL0     H24657   5.720   9.592   5.817 -1.3093 -0.3529 -0.6635
  179MOL0     H24658   5.621   9.388   5.791 -1.4027  0.0499 -1.8522
  179MOL0     H24659   5.502   9.420   5.913  2.4267  0.8919  2.4585
  179MOL0     H24660   5.401   9.673   5.540  0.6672 -3.0772  0.4580
  179MOL0     H24661   5.138   9.929   5.504  1.0624  0.5079  1.3809
  179MOL0     H24662   5.135   9.764   5.443 -2.2495 -0.8787  3.4975
  179MOL0     H24663   5.280   9.877   5.427  0.2942 -1.3887  0.3138
  179MOL0     H24664   4.770   9.876   5.699  2.3760 -0.9668  1.2577
  179MOL0     H24665   4.551  10.034   5.741  1.0928 -1.5643 -1.2934
  179MOL0     H24666   4.620  10.336   6.069 -0.0094  1.4686  0.1279
  179MOL0     H24667   4.586  10.382   5.904 -0.2040 -0.1767 -0.3669
  179MOL0     H24668   4.441  10.507   6.032  1.5010 -0.0157 -0.7026
  179MOL0     H24669   4.343  10.371   5.956 -2.2653 -0.0540  1.4302
  179MOL0     H24670   4.458  10.375   6.235 -1.2369 -2.6147  1.6924
  179MOL0     H24671   4.371  10.241   6.160  1.1471  0.5638  0.0776
  179MOL0     H24672   4.177  10.408   6.147 -0.6309  1.8639  0.2540
  179MOL0     H24673   4.271  10.515   6.240  2.0974 -0.5505  0.6182
  179MOL0     H24674   4.136  10.252   6.309  0.4698 -0.6225 -1.4620
  179MOL0     H24675   4.287  10.291   6.399  1.7430  2.5738 -0.8474
  179MOL0     H24676   4.065  10.502   6.352 -1.2562 -1.3653  0.5067
  179MOL0     H24677   4.176  10.499   6.495 -0.7717  0.8954 -1.0368
  179MOL0     H24678   4.057  10.294   6.566 -2.9863 -1.2702 -0.4670
  179MOL0     H24679   3.949  10.315   6.438  1.1774  1.1932 -2.1355
  179MOL0     H24680   3.852  10.512   6.491  1.0740 -1.1942 -0.6401
  179MOL0     H24681   3.978  10.556   6.604  1.0151 -1.4114  0.0418
  179MOL0     H24682   4.770  10.195   6.082  3.5592  0.8955 -1.9385
  179MOL0     H24683   4.955  10.011   6.032  0.2556 -3.4389 -1.0784
  179MOL0     H24684   5.177   9.774   5.955 -1.2045 -0.5790  0.3584
  179MOL0     H24685   5.359   9.611   5.973 -2.3921 -1.4637  0.4508
  179MOL0     H24686   5.906   8.290   6.536  0.6913  0.1217 -0.3516
  179MOL0     H24687   5.705   8.153   6.495 -2.0857 -0.5887 -2.6995
  179MOL0     H24688   5.504   7.905   6.388  0.0971  5.6213 -1.4730
  179MOL0     H24689   5.353   7.702   6.425 -4.2232 -2.0304 -0.7897
  179MOL0     H24690   5.163   7.483   6.407  0.3180  0.2009 -1.5322
  179MOL0     H24691   5.143   7.654   6.458  1.2149  0.0938  0.6742
  179MOL0     H24692   4.940   7.496   6.441  0.7655 -0.0710  0.2850
  179MOL0     H24693   4.949   7.492   6.269 -0.2903 -0.0848  0.7547
  179MOL0     H24694   4.932   7.764   6.411  1.0802  1.9216 -2.1450
  179MOL0     H24695   4.901   7.737   6.247 -0.4391  1.7053  1.6796
  179MOL0     H24696   4.691   7.597   6.318  0.5616 -0.5618  0.7447
  179MOL0     H24697   4.695   7.771   6.345 -1.1476 -0.2772  1.3544
  179MOL0     H24698   4.671   7.637   6.738 -1.4376  1.7873 -0.3986
  179MOL0     H24699   5.193   7.753   6.035  0.4704 -0.4515  0.1428
  179MOL0     H24700   5.347   8.076   5.973  1.4208 -0.2055  3.3985
  179MOL0     H24701   5.433   7.938   5.917  0.5634  3.4491 -0.8647
  179MOL0     H24702   5.252   7.943   5.897 -0.9037 -0.0926  0.2069
  180MOL0     O24703   2.423   0.501   7.845  0.1776 -0.1334  0.2130
  180MOL0     C24704   2.386   0.396   7.792  0.1768 -0.0688 -0.5024
  180MOL0     O24705   2.480   0.290   7.777 -0.1874  0.1911  0.5579
  180MOL0     C24706   2.615   0.294   7.770 -0.9155 -0.1595  0.4851
  180MOL0     C24707   2.698   0.410   7.787 -0.1109  0.0151 -0.3479
  180MOL0     C24708   2.838   0.408   7.799  0.1837  0.6844  0.0954
  180MOL0     C24709   2.900   0.281   7.784  0.0932 -0.6213 -0.3437
  180MOL0     O24710   3.037   0.285   7.792 -0.4020  0.3607  0.0544
  180MOL0     C24711   3.119   0.172   7.852 -0.7959 -0.7004 -0.4046
  180MOL0     C24712   3.250   0.172   7.780  0.8681  0.5093 -0.5293
  180MOL0     C24713   3.350   0.279   7.819 -0.0451 -0.1563  0.3063
  180MOL0     C24714   3.483   0.266   7.759  0.1783 -1.1067  0.0851
  180MOL0     C24715   3.577   0.388   7.785  0.0613  0.1526 -0.3561
  180MOL0     C24716   3.615   0.410   7.928 -0.0236 -0.7222  0.8070
  180MOL0     C24717   3.747   0.484   7.942  0.2518 -0.5203 -0.3007
  180MOL0     C24718   3.729   0.639   7.964  0.0861  0.6697 -0.1341
  180MOL0     N24719   3.700   0.707   7.837 -0.2329 -0.1571 -0.7000
  180MOL0     C24720   3.583   0.764   7.788 -0.0372 -0.4169 -0.2951
  180MOL0     C24721   3.618   0.827   7.678 -0.0030 -0.0449  0.0560
  180MOL0     C24722   3.523   0.922   7.614 -0.6352 -0.8843 -0.4690
  180MOL0     C24723   3.589   1.061   7.589 -0.3325 -0.3072 -0.3840
  180MOL0     C24724   3.579   1.146   7.719 -0.2483  0.2267  0.5008
  180MOL0     C24725   3.664   1.280   7.719 -0.7073  0.1906  0.1865
  180MOL0     O24726   3.796   1.254   7.663  0.2799  0.2181 -0.0737
  180MOL0     C24727   3.909   1.335   7.677  0.0094 -0.2505 -0.6975
  180MOL0     C24728   3.900   1.464   7.742 -0.0086  0.0456  0.0624
  180MOL0     C24729   4.008   1.552   7.731 -0.0915 -0.0133 -0.6343
  180MOL0     C24730   3.991   1.687   7.808  0.4381 -0.5175  0.3372
  180MOL0     C24731   4.122   1.524   7.654 -0.1567  0.9306 -0.1627
  180MOL0     C24732   4.249   1.600   7.645 -0.5698 -0.8328 -0.5146
  180MOL0     O24733   4.293   1.660   7.757 -1.0953 -0.9249  0.1461
  180MOL0     C24734   4.402   1.750   7.753 -0.7110  0.6606 -0.1552
  180MOL0     C24735   4.489   1.752   7.866 -1.0906  0.0457  0.3599
  180MOL0     C24736   4.597   1.852   7.866  0.0848  1.1105  0.2766
  180MOL0     C24737   4.617   1.937   7.754 -0.0658 -0.1203 -0.6496
  180MOL0     O24738   4.731   2.016   7.771 -0.0692  0.0414 -0.0826
  180MOL0     C24739   4.837   1.949   7.697  0.6925 -0.0805  0.7484
  180MOL0     C24740   4.971   1.988   7.767  0.0308  0.3170  0.2972
  180MOL0     C24741   4.982   2.138   7.773 -0.6869 -0.4548  0.2491
  180MOL0     C24742   5.123   2.172   7.836 -0.2442  0.5254  0.7448
  180MOL0     C24743   5.112   2.315   7.891 -0.3021 -0.6965  0.7790
  180MOL0     C24744   5.253   2.372   7.936 -0.0389  0.0900  0.4798
  180MOL0     C24745   5.247   2.525   7.979 -0.0040  0.6719  0.4521
  180MOL0     C24746   5.141   2.584   8.074 -0.2409  0.2624  0.0506
  180MOL0    Cl24747   5.162   2.532   8.242 -0.3704 -0.2506  0.5957
  180MOL0     C24748   4.538   1.924   7.640  0.8450  0.7400 -0.1384
  180MOL0     C24749   4.426   1.835   7.647  0.1664 -0.4761 -0.4292
  180MOL0     O24750   4.313   1.589   7.538 -0.7602  0.6117 -0.2643
  180MOL0     C24751   4.125   1.395   7.599  0.5791 -0.8552  0.0141
  180MOL0     C24752   4.017   1.302   7.609  0.0557 -0.0699 -0.4009
  180MOL0     N24753   3.748   0.794   7.641  0.8062  0.3025  0.2346
  180MOL0     N24754   3.790   0.721   7.740  0.2035 -0.3569 -0.7951
  180MOL0     C24755   2.819   0.164   7.779 -0.1882  0.6045  1.3118
  180MOL0     C24756   2.686   0.179   7.773 -0.0211  1.3503 -0.0902
  180MOL0     C24757   2.236   0.373   7.782 -0.3716 -0.5774 -0.6876
  180MOL0     C24758   2.192   0.241   7.772 -0.1520  0.6064 -0.1141
  180MOL0     C24759   2.061   0.206   7.780 -0.8253 -0.5397 -0.0245
  180MOL0     C24760   1.963   0.302   7.784  0.0831 -0.9975 -0.1032
  180MOL0     O24761   1.835   0.256   7.803 -0.1599 -0.2726 -0.4954
  180MOL0     C24762   1.729   0.352   7.835  0.0268 -0.1475 -0.4259
  180MOL0     C24763   1.603   0.278   7.852  0.0758 -0.0859 -0.1659
  180MOL0     C24764   1.629   0.187   7.980  0.3549  1.0231  0.3376
  180MOL0     C24765   1.503   0.097   8.011  0.6036 -0.3744 -0.7040
  180MOL0     C24766   1.492  -0.018   7.920  0.6548  0.6211 -0.4238
  180MOL0     C24767   1.487  -0.099   7.830 -0.4390  1.2409  0.5239
  180MOL0     C24768   2.002   0.444   7.790  0.4953 -0.0710 -0.0173
  180MOL0     C24769   2.134   0.480   7.787 -0.0939  0.0582 -0.3976
  180MOL0     C24770   2.166   0.623   7.786  0.3687 -0.1545  0.3592
  180MOL0     H24771   2.657   0.509   7.771  0.4063  0.4934  1.0919
  180MOL0     H24772   2.904   0.493   7.806  2.7694 -1.2401  0.6326
  180MOL0     H24773   3.078   0.073   7.828  1.3355 -1.4379 -1.3047
  180MOL0     H24774   3.129   0.178   7.960 -1.8282  1.3731 -0.3717
  180MOL0     H24775   3.302   0.077   7.795  0.6505  0.3708 -0.6484
  180MOL0     H24776   3.238   0.187   7.673 -2.3699  1.8983 -0.0786
  180MOL0     H24777   3.305   0.378   7.814  3.2689  1.5433  1.0828
  180MOL0     H24778   3.378   0.271   7.925  0.2174  0.0907  0.2580
  180MOL0     H24779   3.541   0.178   7.787  1.8607 -1.2997 -3.4410
  180MOL0     H24780   3.466   0.262   7.651 -1.2332 -0.7911  0.2776
  180MOL0     H24781   3.537   0.482   7.746  2.3746  1.0520 -0.7347
  180MOL0     H24782   3.673   0.366   7.736 -0.9211  1.8785 -3.2800
  180MOL0     H24783   3.542   0.462   7.991 -0.0815 -3.0119  2.7768
  180MOL0     H24784   3.630   0.308   7.963  2.3873 -1.4700 -2.0172
  180MOL0     H24785   3.820   0.467   7.862  3.7828 -2.9449  3.0791
  180MOL0     H24786   3.798   0.439   8.028  0.4872 -1.2494 -0.8210
  180MOL0     H24787   3.656   0.658   8.043  0.8168  0.0664  0.6991
  180MOL0     H24788   3.824   0.678   8.002 -0.7232  2.1532  0.4342
  180MOL0     H24789   3.491   0.761   7.846  0.9438  3.4800  1.8417
  180MOL0     H24790   3.434   0.931   7.677  2.1048  2.6576  3.3609
  180MOL0     H24791   3.494   0.886   7.514  0.0059  4.5516 -2.9994
  180MOL0     H24792   3.694   1.045   7.561 -0.0749 -1.5875  1.1554
  180MOL0     H24793   3.536   1.110   7.507  1.5273  0.4241 -1.2192
  180MOL0     H24794   3.475   1.163   7.749  0.0013  2.7499  0.1090
  180MOL0     H24795   3.630   1.096   7.802 -1.8712 -0.0913  1.3572
  180MOL0     H24796   3.609   1.358   7.665  0.5160  1.6618  0.9748
  180MOL0     H24797   3.679   1.319   7.820  0.6434 -1.6424  0.7393
  180MOL0     H24798   3.813   1.485   7.803 -1.6871 -0.0113 -2.1587
  180MOL0     H24799   4.017   1.758   7.728 -0.7680 -3.6861 -3.1585
  180MOL0     H24800   4.066   1.701   7.886  0.3026 -4.7022  1.4161
  180MOL0     H24801   3.892   1.703   7.851  1.6468  1.2511  2.7323
  180MOL0     H24802   4.468   1.687   7.951 -0.5551 -1.7426 -0.8431
  180MOL0     H24803   4.669   1.864   7.946 -0.7340 -0.1321  1.2354
  180MOL0     H24804   4.820   1.842   7.684 -1.5849  0.2197  0.8714
  180MOL0     H24805   4.835   1.989   7.595  0.2704  3.2809  1.9395
  180MOL0     H24806   4.966   1.950   7.869 -1.0347  1.6709  0.7798
  180MOL0     H24807   5.048   1.947   7.701 -2.0536 -0.5985 -1.7092
  180MOL0     H24808   4.914   2.186   7.845  0.8051  1.2709  0.5788
  180MOL0     H24809   4.961   2.188   7.678 -3.3815  0.2224  1.0969
  180MOL0     H24810   5.191   2.170   7.751  1.0515  2.0013  1.6920
  180MOL0     H24811   5.154   2.094   7.907  2.0120 -1.8795 -2.6171
  180MOL0     H24812   5.060   2.389   7.829 -2.8825 -3.4845 -0.6333
  180MOL0     H24813   5.058   2.308   7.985 -0.5369 -0.3565  0.6712
  180MOL0     H24814   5.334   2.364   7.863 -0.4370 -3.3752  0.2553
  180MOL0     H24815   5.285   2.304   8.016  1.7117 -2.4136 -2.1234
  180MOL0     H24816   5.232   2.575   7.882  0.5936 -1.4427 -0.8044
  180MOL0     H24817   5.343   2.560   8.020  0.1828  2.4690 -1.3413
  180MOL0     H24818   5.040   2.556   8.042 -0.1508 -0.1890  0.1464
  180MOL0     H24819   5.156   2.691   8.060 -2.8554  0.6281 -0.5338
  180MOL0     H24820   4.538   1.996   7.559  0.7496  1.5245  0.5483
  180MOL0     H24821   4.353   1.845   7.567 -1.6317  0.8133  1.2716
  180MOL0     H24822   4.215   1.365   7.547  0.7722 -2.3824  1.1719
  180MOL0     H24823   4.027   1.201   7.571  0.9994  0.7095 -2.3746
  180MOL0     H24824   2.848   0.061   7.758 -2.6842  0.2712 -1.2597
  180MOL0     H24825   2.620   0.095   7.752 -1.9929  2.1968  2.2124
  180MOL0     H24826   2.272   0.169   7.759 -1.7113 -1.2305  0.1268
  180MOL0     H24827   2.036   0.102   7.792  1.4903 -1.0961  0.4634
  180MOL0     H24828   1.755   0.411   7.924 -0.9251  0.1350 -0.3261
  180MOL0     H24829   1.714   0.416   7.748 -2.2364 -0.5952 -0.4249
  180MOL0     H24830   1.571   0.213   7.769 -0.9213 -3.3723  2.5631
  180MOL0     H24831   1.532   0.357   7.878 -0.4319 -0.0578 -1.5338
  180MOL0     H24832   1.716   0.121   7.970 -0.2782  0.3527 -1.0132
  180MOL0     H24833   1.652   0.251   8.066 -0.8687  2.8643 -0.6354
  180MOL0     H24834   1.412   0.158   8.001  0.5600 -0.2025  0.5414
  180MOL0     H24835   1.515   0.060   8.113 -2.6665 -1.4505 -0.5956
  180MOL0     H24836   1.498  -0.171   7.751 -1.3292  1.0770  0.5480
  180MOL0     H24837   1.934   0.528   7.803  0.6556 -0.1299  1.3211
  180MOL0     H24838   2.238   0.659   7.712  0.4114  0.6069  0.7590
  180MOL0     H24839   2.084   0.696   7.778 -0.8101 -1.5913 -1.4089
  180MOL0     H24840   2.214   0.635   7.884 -1.0453  0.9290  0.9737
  181MOL0     O24841   5.141   0.873   7.918 -0.0413 -0.0249 -0.0145
  181MOL0     C24842   5.056   0.960   7.919  0.0753  0.2929  0.3721
  181MOL0     O24843   5.069   1.094   7.893 -0.0078  0.5077  0.1121
  181MOL0     C24844   5.181   1.149   7.832 -0.1576  0.0286  0.1042
  181MOL0     C24845   5.294   1.192   7.895 -0.5193  0.3032 -0.4822
  181MOL0     C24846   5.398   1.256   7.831 -0.7875  0.8047  0.8528
  181MOL0     C24847   5.399   1.253   7.687 -0.9081  0.2610  0.0631
  181MOL0     O24848   5.499   1.302   7.611  0.4390 -0.7247 -0.0461
  181MOL0     C24849   5.546   1.237   7.487  0.7886 -0.2281  0.3053
  181MOL0     C24850   5.615   1.115   7.514 -0.0333  0.7734 -0.9884
  181MOL0     C24851   5.750   1.120   7.606  1.0243 -0.0619 -1.1228
  181MOL0     C24852   5.847   1.217   7.537 -0.2886 -0.0362 -0.7433
  181MOL0     C24853   5.966   1.277   7.620 -0.5051  0.7377  0.2747
  181MOL0     C24854   6.078   1.171   7.610 -0.7620 -0.0404  0.5960
  181MOL0     C24855   6.209   1.199   7.693  0.4043  1.1389  0.0685
  181MOL0     C24856   6.288   1.070   7.698 -0.9266 -0.2101  0.5065
  181MOL0     N24857   6.427   1.097   7.738  0.5995 -0.1396  0.2148
  181MOL0     C24858   6.468   1.145   7.864  0.0641 -0.2107  0.0961
  181MOL0     C24859   6.606   1.152   7.859 -0.0602  0.1690 -0.4330
  181MOL0     C24860   6.700   1.181   7.970 -1.0079 -0.4352 -0.3623
  181MOL0     C24861   6.844   1.131   7.952  0.0933 -0.2451 -0.2920
  181MOL0     C24862   6.934   1.215   7.854  0.4080  0.0406  0.0313
  181MOL0     C24863   7.054   1.140   7.803  0.2036 -0.2362  0.0669
  181MOL0     O24864   7.148   1.091   7.907 -0.1104  0.1273 -0.6646
  181MOL0     C24865   7.279   1.060   7.888  0.4203 -0.1741  1.0043
  181MOL0     C24866   7.360   1.072   7.994  0.1822 -0.9157 -0.4942
  181MOL0     C24867   7.497   1.065   7.979 -0.1237 -0.2084  1.2001
  181MOL0     C24868   7.579   1.088   8.097  0.5581 -0.4899 -0.5174
  181MOL0     C24869   7.562   1.028   7.855  0.2434 -0.6371  0.0236
  181MOL0     C24870   7.712   1.020   7.830  0.1926 -0.3337 -0.6866
  181MOL0     O24871   7.753   0.943   7.727  0.1187  0.2576 -0.4227
  181MOL0     C24872   7.888   0.913   7.712  0.7679  0.2871  0.2449
  181MOL0     C24873   7.981   0.899   7.817 -0.1971 -0.3483  1.0303
  181MOL0     C24874   8.113   0.866   7.792 -0.3437 -0.5098  0.2571
  181MOL0     C24875   8.163   0.847   7.665  0.2659 -0.5566  0.2021
  181MOL0     O24876   8.286   0.803   7.646 -0.1935 -0.2670 -0.5829
  181MOL0     C24877   8.343   0.809   7.515 -0.9526  0.8543  0.7113
  181MOL0     C24878   8.497   0.776   7.531  0.6582 -0.2274  0.7942
  181MOL0     C24879   8.575   0.787   7.396 -0.0012 -0.5058 -0.4371
  181MOL0     C24880   8.722   0.836   7.405  0.0184  0.5761  0.4983
  181MOL0     C24881   8.804   0.814   7.277 -0.3893  1.1590 -0.6412
  181MOL0     C24882   8.914   0.701   7.286 -0.4470 -0.4756  0.5465
  181MOL0     C24883   9.033   0.748   7.366 -0.4762  0.3347 -0.3764
  181MOL0     C24884   9.126   0.828   7.284 -0.1268  0.8972  0.6308
  181MOL0    Cl24885   9.208   0.736   7.154  0.3268  0.0033  0.1365
  181MOL0     C24886   8.069   0.862   7.562 -0.2462  1.4386  0.8507
  181MOL0     C24887   7.938   0.896   7.585 -0.4452  0.3440  0.5193
  181MOL0     O24888   7.785   1.091   7.898 -0.5685  0.3789  0.4433
  181MOL0     C24889   7.469   1.009   7.748 -0.2127 -0.2694 -0.4612
  181MOL0     C24890   7.335   1.035   7.769 -0.3753  0.6156 -0.4615
  181MOL0     N24891   6.637   1.131   7.725 -0.2171 -0.6728  0.0393
  181MOL0     N24892   6.532   1.101   7.658  0.4332  0.5083  0.1819
  181MOL0     C24893   5.279   1.212   7.625 -0.6464  1.0759  0.3550
  181MOL0     C24894   5.166   1.165   7.693 -1.4385 -0.6067 -0.6515
  181MOL0     C24895   4.917   0.931   7.971  0.0948 -0.4030  0.7146
  181MOL0     C24896   4.827   1.040   7.996 -0.1966 -0.1428  0.0463
  181MOL0     C24897   4.696   1.021   8.040 -0.3599  0.0798 -0.6431
  181MOL0     C24898   4.642   0.897   8.057  0.2208  0.5396 -0.4697
  181MOL0     O24899   4.509   0.891   8.093 -0.1745  0.5607  0.2683
  181MOL0     C24900   4.433   0.774   8.062  0.9345  0.1749  1.4875
  181MOL0     C24901   4.421   0.754   7.904  0.3989  0.2555 -0.0883
  181MOL0     C24902   4.291   0.689   7.863 -0.7333  0.2810  0.2870
  181MOL0     C24903   4.173   0.786   7.855  0.6142  0.1301 -0.6506
  181MOL0     C24904   4.097   0.800   7.982 -0.6481  0.4442  0.5033
  181MOL0     C24905   4.038   0.836   8.083 -1.0371 -0.4890 -0.3426
  181MOL0     C24906   4.731   0.783   8.044  0.2256 -0.7324 -0.2538
  181MOL0     C24907   4.862   0.802   7.991  0.1269 -0.3477  0.3503
  181MOL0     C24908   4.945   0.672   7.960  0.9466  0.2625  0.0519
  181MOL0     H24909   5.286   1.195   8.003  2.9654  1.0984 -0.1219
  181MOL0     H24910   5.488   1.301   7.872 -0.1486  0.2093  0.1459
  181MOL0     H24911   5.594   1.305   7.417 -2.3196 -0.0205 -1.7939
  181MOL0     H24912   5.462   1.207   7.423  3.1847  1.6371 -4.1652
  181MOL0     H24913   5.545   1.045   7.560  0.3051  0.7876 -0.4400
  181MOL0     H24914   5.648   1.081   7.415 -1.9828  2.1472 -2.1784
  181MOL0     H24915   5.724   1.142   7.710  0.5247 -1.9132 -0.8313
  181MOL0     H24916   5.784   1.017   7.598 -0.5617 -0.7787  0.6272
  181MOL0     H24917   5.883   1.162   7.450  0.4823  0.5307 -0.7885
  181MOL0     H24918   5.791   1.301   7.494  0.8546  0.6849 -0.8606
  181MOL0     H24919   5.939   1.312   7.720  1.8604  1.4143  0.7546
  181MOL0     H24920   5.998   1.372   7.575  0.5837  1.2101  1.9337
  181MOL0     H24921   6.029   1.079   7.643 -1.5160  0.2850  0.4187
  181MOL0     H24922   6.102   1.142   7.507 -1.2243 -0.3086  0.5602
  181MOL0     H24923   6.167   1.229   7.789  0.9092 -0.1692  0.7343
  181MOL0     H24924   6.269   1.279   7.650 -0.8877  1.6390 -0.8590
  181MOL0     H24925   6.255   0.999   7.774  2.9663 -0.2062  2.5005
  181MOL0     H24926   6.294   1.037   7.594  1.6554  0.6977  0.2954
  181MOL0     H24927   6.408   1.160   7.953 -0.2066  1.3516 -0.3248
  181MOL0     H24928   6.650   1.136   8.056 -1.6976 -0.7900 -0.9385
  181MOL0     H24929   6.708   1.290   7.972  1.6435 -0.5253 -1.3694
  181MOL0     H24930   6.884   1.132   8.054  0.2837 -3.6580 -0.2161
  181MOL0     H24931   6.836   1.030   7.913 -0.2287  0.4581 -2.1526
  181MOL0     H24932   6.875   1.233   7.764 -0.1020 -2.5835 -0.2418
  181MOL0     H24933   6.955   1.308   7.907 -0.6542 -0.1730  0.8586
  181MOL0     H24934   7.006   1.062   7.743  2.4523 -0.7021 -1.2373
  181MOL0     H24935   7.103   1.204   7.729 -1.4094  2.4949  1.1880
  181MOL0     H24936   7.307   1.075   8.089  0.2074  0.5861 -0.5027
  181MOL0     H24937   7.608   1.194   8.096  1.5756 -0.7538 -1.7153
  181MOL0     H24938   7.669   1.026   8.104  0.3563 -0.6558  0.9314
  181MOL0     H24939   7.524   1.062   8.188 -1.0996 -0.6068 -1.5133
  181MOL0     H24940   7.951   0.907   7.921  2.4141  1.6708  1.7554
  181MOL0     H24941   8.177   0.861   7.879  0.7421 -0.9342 -0.5336
  181MOL0     H24942   8.298   0.746   7.438 -2.1352 -0.0496  2.0961
  181MOL0     H24943   8.342   0.913   7.482 -1.0583  0.0771 -1.9457
  181MOL0     H24944   8.544   0.840   7.605 -0.0893 -0.7263  1.7310
  181MOL0     H24945   8.491   0.677   7.578 -4.6374 -0.6768 -0.1710
  181MOL0     H24946   8.526   0.864   7.336 -0.0272 -0.4905 -0.3957
  181MOL0     H24947   8.583   0.687   7.351  2.3013 -0.8498  0.5872
  181MOL0     H24948   8.773   0.784   7.487 -0.3221 -1.0918 -0.3010
  181MOL0     H24949   8.725   0.944   7.417  0.3638  0.3795  2.6484
  181MOL0     H24950   8.735   0.764   7.208  0.8840  0.0869 -1.1921
  181MOL0     H24951   8.854   0.898   7.227  3.6799 -0.6857 -0.0645
  181MOL0     H24952   8.960   0.681   7.188 -0.0613 -0.1236  0.6520
  181MOL0     H24953   8.875   0.610   7.332 -2.2839  0.1678  0.3294
  181MOL0     H24954   9.094   0.662   7.395  1.2213  1.9374  1.1130
  181MOL0     H24955   8.996   0.817   7.442 -0.3880  0.8248 -0.7769
  181MOL0     H24956   9.198   0.875   7.352 -0.2650 -1.5557  2.6044
  181MOL0     H24957   9.077   0.916   7.241  1.0278  2.0599  1.5764
  181MOL0     H24958   8.102   0.842   7.461 -2.3584 -3.8793  0.8830
  181MOL0     H24959   7.859   0.902   7.511 -1.2117 -0.9162  1.1805
  181MOL0     H24960   7.517   0.986   7.654 -1.9461 -2.5102 -0.8961
  181MOL0     H24961   7.276   1.038   7.678 -0.1695  3.5001 -0.6209
  181MOL0     H24962   5.261   1.217   7.518 -0.0450  1.5974  0.2689
  181MOL0     H24963   5.073   1.138   7.644 -3.0850  0.7795  1.5389
  181MOL0     H24964   4.855   1.141   7.972 -1.2687 -0.3450 -2.3639
  181MOL0     H24965   4.632   1.107   8.058 -0.7641 -0.3609  0.0615
  181MOL0     H24966   4.475   0.681   8.102 -2.6209 -2.6322 -0.6594
  181MOL0     H24967   4.342   0.802   8.114  0.4844  1.5080  0.0710
  181MOL0     H24968   4.496   0.685   7.865  0.3781  0.0226  0.2790
  181MOL0     H24969   4.433   0.850   7.853 -0.5145  0.7309  0.5691
  181MOL0     H24970   4.304   0.648   7.763 -4.6169 -0.6523  0.0012
  181MOL0     H24971   4.277   0.605   7.931 -2.8759  1.0568  0.8996
  181MOL0     H24972   4.101   0.744   7.784 -1.0721  3.2587 -0.9558
  181MOL0     H24973   4.202   0.875   7.798  3.2908  0.1479  0.5985
  181MOL0     H24974   3.991   0.868   8.174  0.8598 -4.8489  2.4820
  181MOL0     H24975   4.681   0.688   8.063  0.3372 -0.5581  0.9594
  181MOL0     H24976   4.890   0.582   7.988  2.2894 -0.2148  1.3327
  181MOL0     H24977   4.996   0.662   7.864  0.8990 -2.1297  0.2206
  181MOL0     H24978   5.030   0.662   8.028  2.1727 -0.1161 -1.4916
  182MOL0     O24979   2.589   1.443   7.790  0.5476 -0.0773 -0.2395
  182MOL0     C24980   2.701   1.469   7.746  0.6313  0.3834 -0.3202
  182MOL0     O24981   2.742   1.443   7.611 -0.1495  0.5311 -0.6102
  182MOL0     C24982   2.656   1.465   7.508 -0.3896  0.0781 -0.7331
  182MOL0     C24983   2.549   1.561   7.507  1.2345  0.8361 -0.0339
  182MOL0     C24984   2.451   1.564   7.407  0.7343  0.1216  0.1394
  182MOL0     C24985   2.477   1.500   7.283 -0.9854  0.5672 -0.0207
  182MOL0     O24986   2.406   1.518   7.173  0.0456  0.4003 -0.1822
  182MOL0     C24987   2.265   1.514   7.187  0.0392 -0.2725  0.7923
  182MOL0     C24988   2.208   1.420   7.085 -0.2592  0.0117 -0.1387
  182MOL0     C24989   2.057   1.404   7.098  0.3603 -0.9310  1.0433
  182MOL0     C24990   1.987   1.337   6.979  0.2513 -0.3814  0.5058
  182MOL0     C24991   1.849   1.296   7.033 -0.4078 -1.0409  0.3188
  182MOL0     C24992   1.753   1.264   6.928  0.4941  0.0211 -0.0282
  182MOL0     C24993   1.714   1.391   6.849 -0.2889  0.2787  0.1033
  182MOL0     C24994   1.623   1.345   6.729  0.1305  0.0146 -0.5201
  182MOL0     N24995   1.563   1.464   6.660 -0.2562  0.2968 -0.3793
  182MOL0     C24996   1.584   1.508   6.531 -0.0819  0.2614  0.9040
  182MOL0     C24997   1.503   1.619   6.521 -0.8477 -0.8969 -0.2516
  182MOL0     C24998   1.452   1.681   6.391 -0.4579 -0.3702 -0.0379
  182MOL0     C24999   1.338   1.591   6.334 -0.8491  0.6044 -0.9765
  182MOL0     C25000   1.210   1.614   6.408  0.1098  0.4345 -0.8060
  182MOL0     C25001   1.158   1.507   6.506 -1.0330  0.1445  0.3692
  182MOL0     O25002   1.110   1.410   6.428 -0.8691  0.1179 -0.4448
  182MOL0     C25003   0.972   1.386   6.445  0.1467 -0.1011 -0.0166
  182MOL0     C25004   0.912   1.311   6.349 -0.0080 -0.2006  0.0339
  182MOL0     C25005   0.775   1.282   6.341  1.0174  0.3383  0.2714
  182MOL0     C25006   0.731   1.231   6.202 -0.0353 -0.2135  1.1022
  182MOL0     C25007   0.686   1.319   6.450  0.4824  0.3431  0.5275
  182MOL0     C25008   0.539   1.300   6.443  0.5627  0.3070 -0.3180
  182MOL0     O25009   0.503   1.181   6.385  0.4804  0.2817  0.4288
  182MOL0     C25010   0.370   1.139   6.394  0.0145 -1.1087  0.1725
  182MOL0     C25011   0.293   1.147   6.273 -0.3421 -0.6384  0.4561
  182MOL0     C25012   0.168   1.102   6.271 -0.0602  0.4195  0.6619
  182MOL0     C25013   0.117   1.039   6.380 -0.5286  0.3199 -1.0619
  182MOL0     O25014  -0.023   1.022   6.376 -0.3244 -0.3277 -0.2852
  182MOL0     C25015  -0.077   0.902   6.428 -0.2174  0.3776 -0.0026
  182MOL0     C25016  -0.129   0.935   6.564 -0.5136 -0.1423  1.0553
  182MOL0     C25017  -0.163   0.811   6.648  0.3608  0.3801 -0.4432
  182MOL0     C25018  -0.037   0.760   6.726 -1.1631 -0.2013  0.3435
  182MOL0     C25019  -0.074   0.639   6.821 -0.2511  0.5069 -0.3854
  182MOL0     C25020  -0.120   0.512   6.734 -0.2803 -1.0550 -0.1688
  182MOL0     C25021  -0.203   0.408   6.805  0.0199  0.6835  0.6438
  182MOL0     C25022  -0.229   0.280   6.725  0.6208 -0.4968 -0.2473
  182MOL0    Cl25023  -0.087   0.176   6.704  0.0538 -0.3583 -0.1131
  182MOL0     C25024   0.187   1.027   6.503 -0.2538  0.4767  1.0166
  182MOL0     C25025   0.317   1.074   6.505 -0.2585  0.2830  0.0960
  182MOL0     O25026   0.471   1.369   6.521 -0.1687 -0.2448 -0.0122
  182MOL0     C25027   0.748   1.378   6.564 -0.5959  0.0471  0.2533
  182MOL0     C25028   0.892   1.421   6.553  0.1326 -0.2531  0.3915
  182MOL0     N25029   1.450   1.652   6.646 -0.0820 -0.1756 -0.7837
  182MOL0     N25030   1.482   1.559   6.728  0.1063  0.9331 -0.5124
  182MOL0     C25031   2.585   1.408   7.277 -0.3544  0.0026 -0.3176
  182MOL0     C25032   2.670   1.390   7.392 -0.1526  0.4980  0.6888
  182MOL0     C25033   2.824   1.480   7.837 -0.2408  0.2231 -0.2764
  182MOL0     C25034   2.842   1.356   7.908  0.4740 -1.0386 -0.3455
  182MOL0     C25035   2.962   1.338   7.983 -0.4436  0.5520 -0.6116
  182MOL0     C25036   3.062   1.441   7.991  0.1912 -0.3867 -0.2179
  182MOL0     O25037   3.181   1.434   8.059  0.3673 -0.5988  0.3529
  182MOL0     C25038   3.217   1.322   8.144  0.4726  0.3971 -0.9274
  182MOL0     C25039   3.305   1.225   8.064 -0.0628 -0.3111 -0.4392
  182MOL0     C25040   3.373   1.114   8.145 -0.7948  0.3908 -0.6496
  182MOL0     C25041   3.477   1.038   8.076 -0.0068 -0.5561  0.2325
  182MOL0     C25042   3.569   0.979   8.180  0.5106  0.7756  0.0191
  182MOL0     C25043   3.653   0.930   8.257 -0.1609 -0.8175  0.1029
  182MOL0     C25044   3.044   1.554   7.911  0.1633  0.3207 -0.3132
  182MOL0     C25045   2.926   1.575   7.837 -0.5101  0.1813 -0.6732
  182MOL0     C25046   2.926   1.688   7.738  0.2862 -0.0486  0.3826
  182MOL0     H25047   2.522   1.615   7.597 -3.1295 -0.6439 -0.2388
  182MOL0     H25048   2.365   1.627   7.428  0.0909 -0.7805  0.2705
  182MOL0     H25049   2.231   1.616   7.166  1.1875 -0.0057  0.1739
  182MOL0     H25050   2.239   1.487   7.290 -1.7515 -3.2676 -0.3150
  182MOL0     H25051   2.232   1.455   6.984 -1.3743 -0.2886 -0.5213
  182MOL0     H25052   2.253   1.322   7.103  1.2565  1.0290  2.2018
  182MOL0     H25053   2.045   1.345   7.189 -1.2026 -0.8757  0.9098
  182MOL0     H25054   2.009   1.500   7.122 -0.1346 -1.5439  2.6101
  182MOL0     H25055   1.978   1.397   6.888  0.1003 -2.4570 -0.9467
  182MOL0     H25056   2.029   1.245   6.936 -3.0079 -1.8457  0.2082
  182MOL0     H25057   1.813   1.386   7.083  0.9343  1.6171 -3.0759
  182MOL0     H25058   1.867   1.220   7.109 -1.2816  0.4005  2.0518
  182MOL0     H25059   1.802   1.191   6.863  1.8932 -0.0092  1.0235
  182MOL0     H25060   1.659   1.224   6.967 -1.2540  4.0765  0.3888
  182MOL0     H25061   1.795   1.449   6.804 -0.8575  0.3358 -0.8779
  182MOL0     H25062   1.651   1.458   6.909 -1.6873  1.4889 -2.5472
  182MOL0     H25063   1.670   1.280   6.655 -0.1280 -0.1489 -0.5446
  182MOL0     H25064   1.542   1.283   6.770  1.8401 -1.1845  1.2099
  182MOL0     H25065   1.654   1.477   6.454 -0.0028 -0.1513  1.1343
  182MOL0     H25066   1.542   1.682   6.329 -0.1658  1.5495  0.3403
  182MOL0     H25067   1.414   1.784   6.395 -1.1762 -0.6355  0.1358
  182MOL0     H25068   1.305   1.614   6.232 -1.1540  0.0288 -1.0139
  182MOL0     H25069   1.362   1.485   6.347  1.8437  1.2954  0.3736
  182MOL0     H25070   1.232   1.697   6.476  4.0409  0.8336 -2.2790
  182MOL0     H25071   1.124   1.642   6.347 -1.9639 -1.2806  1.1429
  182MOL0     H25072   1.240   1.467   6.567  1.2561  2.1076 -1.2690
  182MOL0     H25073   1.090   1.560   6.573  0.3949 -0.3609  2.2953
  182MOL0     H25074   0.966   1.280   6.261 -0.7231  0.8861 -0.8130
  182MOL0     H25075   0.625   1.244   6.181  0.2744 -0.5660 -0.8352
  182MOL0     H25076   0.753   1.124   6.203  2.3894  0.1981 -0.1530
  182MOL0     H25077   0.791   1.282   6.126  1.4212 -1.3588  1.4260
  182MOL0     H25078   0.332   1.194   6.184 -0.5329 -1.8384 -0.2849
  182MOL0     H25079   0.108   1.102   6.181  1.4671 -4.7220 -0.6621
  182MOL0     H25080  -0.158   0.866   6.365 -0.0375  1.0681 -0.6504
  182MOL0     H25081  -0.014   0.813   6.434  0.3474  0.8159  0.7033
  182MOL0     H25082  -0.063   1.000   6.621 -1.6392  0.0134  2.2294
  182MOL0     H25083  -0.220   0.994   6.547 -3.4949 -3.9938  2.0289
  182MOL0     H25084  -0.205   0.734   6.581 -1.9601  2.0423 -1.0473
  182MOL0     H25085  -0.243   0.829   6.721  0.2645  1.8831 -0.8985
  182MOL0     H25086   0.014   0.837   6.784 -1.0211  0.5163 -0.7139
  182MOL0     H25087   0.025   0.722   6.645 -0.3192 -1.3958  1.5051
  182MOL0     H25088   0.006   0.607   6.889 -3.8716 -1.3052  3.5483
  182MOL0     H25089  -0.149   0.663   6.897 -0.3985 -0.4802 -0.2059
  182MOL0     H25090  -0.037   0.455   6.691  0.9101 -0.5387  1.3577
  182MOL0     H25091  -0.181   0.554   6.653 -1.5407  1.3260  1.8534
  182MOL0     H25092  -0.304   0.448   6.823  0.2818  0.7752  2.0494
  182MOL0     H25093  -0.158   0.382   6.901  0.6487  0.7966  0.3845
  182MOL0     H25094  -0.276   0.315   6.633 -1.0688 -1.3966  0.2500
  182MOL0     H25095  -0.300   0.223   6.785 -0.0464  1.6068  1.0728
  182MOL0     H25096   0.144   0.982   6.591  1.2511 -3.0652  0.1337
  182MOL0     H25097   0.384   1.059   6.589  0.3594 -1.2388 -0.6042
  182MOL0     H25098   0.698   1.408   6.655  1.4923 -0.2698  1.5892
  182MOL0     H25099   0.928   1.479   6.637  0.6239  2.6856 -1.6952
  182MOL0     H25100   2.591   1.344   7.189 -2.1078 -0.4831 -0.1211
  182MOL0     H25101   2.757   1.325   7.391  0.3982  1.2006  1.6890
  182MOL0     H25102   2.768   1.277   7.902 -1.7592  0.9944 -1.0503
  182MOL0     H25103   2.984   1.239   8.022  1.5690  0.6614 -1.3554
  182MOL0     H25104   3.267   1.368   8.230  0.1516  0.8726 -0.9882
  182MOL0     H25105   3.133   1.265   8.183  1.3923  0.8595  1.9448
  182MOL0     H25106   3.388   1.282   8.022  2.0457 -3.6966 -1.2406
  182MOL0     H25107   3.240   1.174   7.992 -2.5455  1.5239  0.3485
  182MOL0     H25108   3.419   1.172   8.226 -0.4552 -1.9042  0.8936
  182MOL0     H25109   3.300   1.052   8.198 -4.3603  4.8216  0.2759
  182MOL0     H25110   3.530   1.100   8.004  0.1105  1.1877  1.7437
  182MOL0     H25111   3.435   0.957   8.014  1.5924 -1.9978  0.9505
  182MOL0     H25112   3.720   0.878   8.322 -1.4886 -1.2073  1.2044
  182MOL0     H25113   3.126   1.623   7.896  1.5581  0.0481  4.4963
  182MOL0     H25114   2.977   1.661   7.645  0.0662 -0.4215  0.3674
  182MOL0     H25115   2.824   1.724   7.719  0.3155 -0.9933 -1.8538
  182MOL0     H25116   2.978   1.780   7.768  0.8255  0.0917 -0.9230
  183MOL0     O25117   5.063   6.766  11.156 -1.0104  0.0234  0.3330
  183MOL0     C25118   5.032   6.648  11.141 -0.5362 -1.7982  0.7209
  183MOL0     O25119   5.071   6.569  11.038  0.2958  0.1647  0.0249
  183MOL0     C25120   5.129   6.637  10.936 -0.1131 -0.5829  0.0495
  183MOL0     C25121   5.060   6.656  10.819 -0.0012  0.0496 -0.1481
  183MOL0     C25122   5.121   6.708  10.706 -0.0906  0.6615  0.0763
  183MOL0     C25123   5.254   6.745  10.713 -0.0137  0.6137 -0.0379
  183MOL0     O25124   5.320   6.785  10.604 -0.7630  0.2866 -0.0551
  183MOL0     C25125   5.369   6.680  10.516 -0.1489 -0.3429  0.2723
  183MOL0     C25126   5.486   6.742  10.436 -0.4452  0.1216  0.6802
  183MOL0     C25127   5.434   6.821  10.310  0.5354  0.1119 -0.2715
  183MOL0     C25128   5.545   6.858  10.206  0.3638 -0.1436 -0.1224
  183MOL0     C25129   5.487   6.957  10.102  0.8209  0.6719  0.5207
  183MOL0     C25130   5.373   6.904  10.011  0.4224  0.1479 -0.6638
  183MOL0     C25131   5.366   7.005   9.890  0.2784  0.9800  1.0558
  183MOL0     C25132   5.266   6.947   9.787 -0.5188 -0.3166 -0.4516
  183MOL0     N25133   5.273   7.019   9.654 -0.6628  0.0834  0.4819
  183MOL0     C25134   5.382   7.033   9.572 -0.0255  1.1576  0.2027
  183MOL0     C25135   5.335   7.105   9.466 -0.7040  0.2729  0.2902
  183MOL0     C25136   5.410   7.128   9.340 -0.2231  0.4718  0.4943
  183MOL0     C25137   5.423   7.282   9.325 -0.2882 -0.3162 -0.2020
  183MOL0     C25138   5.544   7.342   9.253 -0.5812 -0.0585  1.1198
  183MOL0     C25139   5.680   7.309   9.320  0.3879 -0.6733  0.3673
  183MOL0     O25140   5.724   7.419   9.396  0.0246 -0.1031 -0.9405
  183MOL0     C25141   5.861   7.420   9.435 -0.0787  0.3760 -0.0747
  183MOL0     C25142   5.943   7.307   9.422 -0.7129  0.3019  0.2560
  183MOL0     C25143   6.069   7.311   9.477 -0.4998 -0.1306 -0.2719
  183MOL0     C25144   6.155   7.192   9.451 -0.6767 -0.1126  0.3458
  183MOL0     C25145   6.110   7.427   9.549  0.0821 -0.0387  0.7803
  183MOL0     C25146   6.237   7.432   9.628  0.9492  0.1906  0.5656
  183MOL0     O25147   6.309   7.310   9.636  0.4402  0.2333  0.4895
  183MOL0     C25148   6.440   7.317   9.687  0.7388  0.3676  0.5806
  183MOL0     C25149   6.478   7.241   9.793  0.9535 -0.0481  0.1664
  183MOL0     C25150   6.611   7.246   9.841  0.5286 -0.2571  0.3817
  183MOL0     C25151   6.703   7.330   9.774  1.0087 -0.0830  0.7751
  183MOL0     O25152   6.834   7.307   9.801 -0.7247 -0.3805  0.4281
  183MOL0     C25153   6.898   7.181   9.766 -0.2898 -0.3919 -0.3735
  183MOL0     C25154   7.042   7.217   9.732 -0.1094  0.1277  1.0081
  183MOL0     C25155   7.133   7.262   9.843 -0.2688  0.0828  0.4805
  183MOL0     C25156   7.263   7.317   9.773  0.4452 -1.1965 -0.9039
  183MOL0     C25157   7.380   7.326   9.882  1.1332  0.8184  0.5638
  183MOL0     C25158   7.512   7.350   9.810  0.1885 -0.6173 -0.3932
  183MOL0     C25159   7.646   7.345   9.896  0.4764 -0.5231  0.2358
  183MOL0     C25160   7.780   7.373   9.823 -0.3121 -0.5676 -0.5569
  183MOL0    Cl25161   7.819   7.547   9.830  0.2221  0.9532  0.0235
  183MOL0     C25162   6.659   7.415   9.669 -0.3795  0.0529 -0.5239
  183MOL0     C25163   6.536   7.398   9.620 -1.0909  0.7741  0.7632
  183MOL0     O25164   6.259   7.532   9.696 -0.3851 -0.2217  0.2775
  183MOL0     C25165   6.019   7.541   9.558 -0.9715 -0.1759 -0.9248
  183MOL0     C25166   5.899   7.535   9.494  0.0874  0.4981  0.7684
  183MOL0     N25167   5.199   7.137   9.483  0.1823  0.0794 -0.3105
  183MOL0     N25168   5.170   7.086   9.603  0.5202 -0.2689  0.3812
  183MOL0     C25169   5.322   6.733  10.828 -0.1353 -0.4441 -0.1205
  183MOL0     C25170   5.259   6.686  10.947 -0.7179  0.1488 -0.1396
  183MOL0     C25171   4.962   6.581  11.246 -0.2777  0.0757  0.5193
  183MOL0     C25172   4.911   6.451  11.217  0.1009  1.0247  0.7889
  183MOL0     C25173   4.868   6.366  11.321 -0.0915 -0.6556  0.3797
  183MOL0     C25174   4.841   6.418  11.443 -0.1324  0.3203 -0.4319
  183MOL0     O25175   4.789   6.326  11.526 -0.3497  0.1532  0.7801
  183MOL0     C25176   4.855   6.324  11.655  0.9159  0.0752 -1.5381
  183MOL0     C25177   4.838   6.210  11.751  0.4231  1.1064 -0.3186
  183MOL0     C25178   4.696   6.191  11.794  0.6170 -0.2340 -0.0609
  183MOL0     C25179   4.694   6.149  11.942  0.4567  0.3849 -0.2157
  183MOL0     C25180   4.732   6.260  12.033 -0.2159 -0.4479  0.0243
  183MOL0     C25181   4.773   6.356  12.108 -0.6739  0.7147  0.2394
  183MOL0     C25182   4.875   6.547  11.471 -0.3824 -0.7996  0.0930
  183MOL0     C25183   4.937   6.633  11.378 -0.1665  0.7196  0.4037
  183MOL0     C25184   4.994   6.756  11.434 -0.0523  0.4201  0.1790
  183MOL0     H25185   4.957   6.626  10.810 -0.5021  0.9129  2.0489
  183MOL0     H25186   5.062   6.721  10.615 -0.7961  1.3963  0.6217
  183MOL0     H25187   5.287   6.647  10.451 -2.1934 -1.8794  3.3639
  183MOL0     H25188   5.395   6.598  10.583 -4.7179 -1.2965  1.2413
  183MOL0     H25189   5.544   6.821  10.485  0.7667 -1.9860  2.8490
  183MOL0     H25190   5.547   6.658  10.401 -0.8902 -1.1619  2.7751
  183MOL0     H25191   5.360   6.766  10.252 -0.5409  0.6681  0.5302
  183MOL0     H25192   5.387   6.909  10.354  0.9109 -0.4328  1.2955
  183MOL0     H25193   5.635   6.896  10.254  0.2911 -0.3271  0.1670
  183MOL0     H25194   5.579   6.770  10.150 -3.9432 -0.3967 -2.7871
  183MOL0     H25195   5.571   6.987  10.038 -0.0154  0.1307 -0.8850
  183MOL0     H25196   5.452   7.049  10.149  0.5306  0.8440 -0.0143
  183MOL0     H25197   5.402   6.806   9.973 -2.7360 -1.3103  0.3538
  183MOL0     H25198   5.281   6.901  10.071  1.2643  2.9133  0.9402
  183MOL0     H25199   5.464   7.008   9.841  0.2293  3.3462  1.0162
  183MOL0     H25200   5.332   7.104   9.922 -4.2044  0.0838 -0.2156
  183MOL0     H25201   5.276   6.840   9.766  0.1350 -0.0173 -1.7630
  183MOL0     H25202   5.163   6.959   9.823 -0.0228 -1.1978  1.4075
  183MOL0     H25203   5.475   6.979   9.587 -0.6139 -0.4869 -1.6437
  183MOL0     H25204   5.355   7.080   9.258 -0.5868 -0.5299  1.3062
  183MOL0     H25205   5.512   7.090   9.329 -1.1147 -1.4795 -1.9266
  183MOL0     H25206   5.341   7.322   9.264  0.5722 -0.0927 -1.2582
  183MOL0     H25207   5.422   7.332   9.422 -1.3919 -0.6734 -0.0169
  183MOL0     H25208   5.543   7.307   9.149  0.1957 -0.6566  1.3046
  183MOL0     H25209   5.533   7.451   9.254  0.7720  0.0995  0.7555
  183MOL0     H25210   5.666   7.226   9.390 -4.4092  1.1712  1.9633
  183MOL0     H25211   5.743   7.281   9.235 -1.0644 -3.2440  0.0128
  183MOL0     H25212   5.909   7.214   9.379 -0.1372 -0.7160  1.9118
  183MOL0     H25213   6.243   7.220   9.393  1.2480 -1.9742  2.2000
  183MOL0     H25214   6.093   7.121   9.395  2.7186 -2.5967 -0.5572
  183MOL0     H25215   6.188   7.133   9.536 -3.2599  0.7537  2.0595
  183MOL0     H25216   6.401   7.180   9.840 -0.0137  0.5891 -0.5737
  183MOL0     H25217   6.637   7.176   9.921 -0.8381  1.1856  2.1746
  183MOL0     H25218   6.894   7.106   9.846  0.3562 -1.0492 -0.9398
  183MOL0     H25219   6.839   7.144   9.683 -3.1122  3.6629 -0.4714
  183MOL0     H25220   7.080   7.118   9.703  0.5850  0.9726 -1.1137
  183MOL0     H25221   7.054   7.269   9.637  1.6887 -0.5995  0.7825
  183MOL0     H25222   7.159   7.168   9.893  0.6203  0.5402  0.9062
  183MOL0     H25223   7.093   7.323   9.925  0.7047  0.5476  0.6341
  183MOL0     H25224   7.233   7.418   9.741 -3.1795 -2.0614 -0.6259
  183MOL0     H25225   7.289   7.273   9.677 -1.8054 -0.0322 -2.1326
  183MOL0     H25226   7.360   7.403   9.957 -0.9876 -0.6248  1.5897
  183MOL0     H25227   7.386   7.228   9.931  0.5171  0.9257  0.8719
  183MOL0     H25228   7.504   7.445   9.757 -1.0232 -1.7142 -2.3012
  183MOL0     H25229   7.530   7.278   9.730  0.2216 -0.3005 -0.6717
  183MOL0     H25230   7.650   7.242   9.931  0.0686 -1.0180 -1.1148
  183MOL0     H25231   7.631   7.414   9.980 -0.6489 -0.4040 -0.0409
  183MOL0     H25232   7.769   7.346   9.718 -4.1665  0.5071 -0.5854
  183MOL0     H25233   7.863   7.311   9.858  0.2273 -2.0215 -4.0561
  183MOL0     H25234   6.726   7.491   9.630  0.1761 -0.7772 -1.2297
  183MOL0     H25235   6.512   7.463   9.536  2.1179  0.2273 -0.7103
  183MOL0     H25236   6.035   7.626   9.624  0.2742  1.5996 -3.3730
  183MOL0     H25237   5.823   7.613   9.493  0.0632  0.4697 -0.1942
  183MOL0     H25238   5.429   6.746  10.839 -0.3761 -0.2927  3.1666
  183MOL0     H25239   5.311   6.668  11.041 -0.3478  1.4207 -0.0813
  183MOL0     H25240   4.900   6.408  11.118 -0.4517  1.5153  0.6358
  183MOL0     H25241   4.832   6.265  11.303 -0.1000 -0.2439 -2.3482
  183MOL0     H25242   4.962   6.327  11.636  1.0083  1.7140 -0.8899
  183MOL0     H25243   4.820   6.412  11.709  3.8523  1.2387 -1.4123
  183MOL0     H25244   4.897   6.249  11.834  1.0230  2.6562 -1.4353
  183MOL0     H25245   4.884   6.119  11.712 -0.2563  0.4262  0.4159
  183MOL0     H25246   4.631   6.276  11.771  2.0732  1.6781  2.3269
  183MOL0     H25247   4.659   6.104  11.739  1.6464 -0.6803 -0.0718
  183MOL0     H25248   4.757   6.060  11.948  0.1822 -0.0009 -2.3312
  183MOL0     H25249   4.592   6.122  11.973  0.8701  2.1357  3.1599
  183MOL0     H25250   4.807   6.431  12.176  1.2849 -0.5454  0.7145
  183MOL0     H25251   4.874   6.585  11.573 -1.4391  3.2163 -1.2393
  183MOL0     H25252   4.917   6.834  11.424  0.7307  1.1630 -0.1315
  183MOL0     H25253   5.014   6.746  11.541  1.9481  2.8188  0.1057
  183MOL0     H25254   5.085   6.795  11.387 -0.4982  2.5517  0.9494
  184MOL0     O25255   6.220   2.901   8.567  1.2112  0.0206 -0.7756
  184MOL0     C25256   6.215   2.789   8.625  0.7190  0.0114 -0.2929
  184MOL0     O25257   6.327   2.716   8.660  0.5452  0.6485  0.2818
  184MOL0     C25258   6.449   2.766   8.625  0.3043  0.5369 -1.1001
  184MOL0     C25259   6.500   2.740   8.498 -1.3461  1.0726 -0.3180
  184MOL0     C25260   6.626   2.790   8.469  0.4136  0.9828 -0.4628
  184MOL0     C25261   6.701   2.841   8.568 -0.7374 -0.1545 -0.6031
  184MOL0     O25262   6.840   2.844   8.550 -0.1208  0.1798 -1.1019
  184MOL0     C25263   6.880   2.974   8.510 -0.4194 -0.2691 -0.7894
  184MOL0     C25264   6.853   3.005   8.368 -0.1534  0.4519  0.7010
  184MOL0     C25265   6.920   3.134   8.318  0.2782  0.9130  0.1993
  184MOL0     C25266   6.863   3.174   8.175 -0.3108  0.9847  0.7330
  184MOL0     C25267   6.890   3.309   8.117  0.1134 -0.5247 -0.1553
  184MOL0     C25268   6.799   3.352   7.998 -0.1173 -0.0157 -0.0718
  184MOL0     C25269   6.761   3.502   7.986 -0.4105  0.0544 -0.3618
  184MOL0     C25270   6.686   3.541   7.862 -0.2745 -0.5304 -0.9565
  184MOL0     N25271   6.605   3.669   7.889 -0.5203 -0.0167  1.2489
  184MOL0     C25272   6.473   3.662   7.917 -0.2948 -0.6136  0.5949
  184MOL0     C25273   6.436   3.796   7.902  0.0641 -0.1102 -0.7510
  184MOL0     C25274   6.301   3.845   7.919  0.2714  0.7288 -0.1417
  184MOL0     C25275   6.301   3.971   8.004 -0.5265  0.0924 -0.9697
  184MOL0     C25276   6.336   3.948   8.152  0.1071 -0.1345  0.6530
  184MOL0     C25277   6.377   4.074   8.221 -0.1837  0.5053  0.6232
  184MOL0     O25278   6.505   4.136   8.169  0.5255  0.4091 -0.1207
  184MOL0     C25279   6.630   4.086   8.183 -0.6459 -0.0495 -0.2013
  184MOL0     C25280   6.672   4.039   8.310  1.0111 -0.4460 -0.2759
  184MOL0     C25281   6.794   3.984   8.330 -0.2959  0.3055  1.5819
  184MOL0     C25282   6.815   3.916   8.459  0.2672  0.5400  0.3987
  184MOL0     C25283   6.897   3.990   8.226  0.3458  0.1779 -0.2337
  184MOL0     C25284   7.021   3.912   8.225 -0.7423  0.1513 -0.2742
  184MOL0     O25285   7.097   3.913   8.105 -0.2943  0.6165 -0.0971
  184MOL0     C25286   7.180   3.800   8.080 -0.2903  0.3876 -0.2866
  184MOL0     C25287   7.301   3.820   8.017 -0.1350  0.0497  0.5221
  184MOL0     C25288   7.385   3.703   7.990  1.1749 -1.1006  0.2525
  184MOL0     C25289   7.339   3.577   8.004 -0.5826 -0.2356 -1.0769
  184MOL0     O25290   7.398   3.468   7.955  0.4333 -0.1776  0.4395
  184MOL0     C25291   7.462   3.492   7.822 -1.0049  0.3200 -0.4478
  184MOL0     C25292   7.473   3.369   7.743 -0.2069  1.2904  0.3635
  184MOL0     C25293   7.583   3.376   7.629 -1.1304  0.0714  0.2082
  184MOL0     C25294   7.530   3.445   7.494 -0.4458  0.5759  0.3177
  184MOL0     C25295   7.646   3.469   7.395 -0.7211  0.5529 -0.8669
  184MOL0     C25296   7.757   3.572   7.408 -1.1477  0.5071 -0.3020
  184MOL0     C25297   7.690   3.708   7.422  0.0089 -0.4900 -0.6118
  184MOL0     C25298   7.784   3.827   7.378  0.4663  0.4104  0.7030
  184MOL0    Cl25299   7.945   3.813   7.439 -0.8506  0.1138 -0.1425
  184MOL0     C25300   7.221   3.556   8.073 -0.7121  0.1921  0.3630
  184MOL0     C25301   7.137   3.667   8.107 -0.3932 -0.4973  0.4561
  184MOL0     O25302   7.058   3.859   8.331  0.6227 -0.1874  0.2234
  184MOL0     C25303   6.853   4.039   8.105 -0.9133  0.0676  0.1606
  184MOL0     C25304   6.724   4.088   8.075 -0.4821 -0.6839 -0.0148
  184MOL0     N25305   6.541   3.873   7.859 -0.2152  0.0153 -0.0916
  184MOL0     N25306   6.637   3.797   7.853 -0.2031 -1.0075 -0.1423
  184MOL0     C25307   6.647   2.880   8.693 -0.2675  1.0373  0.1895
  184MOL0     C25308   6.521   2.841   8.713  0.2766 -1.0577  0.8192
  184MOL0     C25309   6.086   2.719   8.654 -0.3229 -0.0664  0.2404
  184MOL0     C25310   6.083   2.618   8.754  0.3041 -0.2888 -0.2378
  184MOL0     C25311   5.973   2.547   8.782  0.0208  0.0668 -0.0838
  184MOL0     C25312   5.852   2.574   8.719  0.0646 -0.1706 -0.0656
  184MOL0     O25313   5.735   2.501   8.742  0.0726  0.5772 -0.5230
  184MOL0     C25314   5.754   2.363   8.736  0.6154 -0.1441  0.3788
  184MOL0     C25315   5.616   2.311   8.690 -0.0260  0.3752 -0.5970
  184MOL0     C25316   5.524   2.279   8.810 -0.2277  0.0802  0.2340
  184MOL0     C25317   5.530   2.134   8.870 -0.6080 -0.1001 -0.1013
  184MOL0     C25318   5.668   2.087   8.889  0.1818 -0.1890  0.1097
  184MOL0     C25319   5.781   2.055   8.928 -1.0535  0.5825  0.5847
  184MOL0     C25320   5.843   2.682   8.632  0.5631 -0.4128  0.4726
  184MOL0     C25321   5.957   2.748   8.594 -0.7142 -1.3093  0.1305
  184MOL0     C25322   5.958   2.837   8.468  0.3611 -1.1011  0.4152
  184MOL0     H25323   6.442   2.692   8.419 -3.7540  0.7654  1.5169
  184MOL0     H25324   6.669   2.769   8.371 -0.9519  0.3808 -0.9694
  184MOL0     H25325   6.989   2.978   8.513 -0.4521  2.0490  0.9802
  184MOL0     H25326   6.837   3.057   8.568 -1.5443 -0.4996 -1.2776
  184MOL0     H25327   6.870   2.922   8.299  0.1113  1.3291 -0.3137
  184MOL0     H25328   6.746   3.026   8.367 -0.6960 -1.9103 -1.2155
  184MOL0     H25329   6.894   3.216   8.386  0.2612 -0.0840  1.4308
  184MOL0     H25330   7.028   3.126   8.306  0.8563  3.6917  2.5831
  184MOL0     H25331   6.903   3.101   8.104  1.6078  3.3435 -0.7805
  184MOL0     H25332   6.755   3.161   8.188 -0.0383 -1.9395  0.7290
  184MOL0     H25333   6.995   3.309   8.087  0.3489  0.6586  0.5823
  184MOL0     H25334   6.877   3.387   8.193  0.1515  1.1887 -1.8352
  184MOL0     H25335   6.849   3.313   7.909 -1.6236  0.7625 -1.3084
  184MOL0     H25336   6.705   3.301   8.019 -0.5420  1.3804  1.7474
  184MOL0     H25337   6.855   3.557   7.983 -1.1622  1.3970 -0.0852
  184MOL0     H25338   6.711   3.527   8.080  1.4108  0.4774  0.5428
  184MOL0     H25339   6.767   3.567   7.793  0.4963  0.7548  0.3793
  184MOL0     H25340   6.615   3.469   7.821  0.3033 -0.1993 -2.6184
  184MOL0     H25341   6.414   3.576   7.948 -0.2631 -0.5112  0.9446
  184MOL0     H25342   6.240   3.769   7.969 -1.8616  2.2543 -0.2678
  184MOL0     H25343   6.249   3.858   7.823 -2.2417  0.6749  1.1308
  184MOL0     H25344   6.377   4.038   7.964 -0.7666  0.0763 -1.4523
  184MOL0     H25345   6.200   4.011   7.993 -0.4319  1.0151  1.0569
  184MOL0     H25346   6.251   3.895   8.196 -1.1213 -1.0144 -2.4930
  184MOL0     H25347   6.421   3.879   8.165  2.5569  2.2803 -1.3603
  184MOL0     H25348   6.292   4.143   8.212 -1.9004 -1.5853 -0.2101
  184MOL0     H25349   6.392   4.042   8.325  0.5693  2.2653  1.0855
  184MOL0     H25350   6.614   4.051   8.400 -0.1622  1.4218 -1.2078
  184MOL0     H25351   6.826   3.810   8.433 -0.1883  0.2666  1.2899
  184MOL0     H25352   6.732   3.922   8.530  1.2121  1.4198  1.4686
  184MOL0     H25353   6.897   3.965   8.512  0.1933  1.4794 -0.3152
  184MOL0     H25354   7.344   3.918   7.999  1.3186 -0.6750 -0.2009
  184MOL0     H25355   7.479   3.732   7.943  1.9780 -2.9955  0.5943
  184MOL0     H25356   7.428   3.579   7.766  0.9010  1.2001 -0.3248
  184MOL0     H25357   7.566   3.515   7.845 -1.5716  0.6059  2.2069
  184MOL0     H25358   7.501   3.289   7.811 -1.1302 -0.7251 -1.5158
  184MOL0     H25359   7.379   3.335   7.698  0.3414 -0.4416  0.4647
  184MOL0     H25360   7.617   3.275   7.607 -1.9123  0.0915 -1.2106
  184MOL0     H25361   7.675   3.423   7.665  2.5369 -4.8429 -1.7673
  184MOL0     H25362   7.483   3.538   7.526 -0.8828 -0.0638  1.6151
  184MOL0     H25363   7.463   3.371   7.450  2.8748 -3.2172  1.0171
  184MOL0     H25364   7.690   3.370   7.375  0.7477  1.1824 -0.8434
  184MOL0     H25365   7.593   3.494   7.303  0.5898  0.7137 -1.6030
  184MOL0     H25366   7.818   3.575   7.317  1.0158  1.9008  1.0874
  184MOL0     H25367   7.829   3.556   7.489 -1.2262 -0.1701 -0.3588
  184MOL0     H25368   7.658   3.730   7.525 -1.7195 -0.3658 -1.1443
  184MOL0     H25369   7.597   3.713   7.366 -0.1710 -0.4066 -0.3092
  184MOL0     H25370   7.730   3.919   7.402 -0.0762  0.2469  0.1445
  184MOL0     H25371   7.800   3.830   7.269  1.0631 -1.1470  0.7212
  184MOL0     H25372   7.186   3.457   8.102  0.3468 -0.2233  0.2749
  184MOL0     H25373   7.036   3.658   8.144 -2.5662  1.3976 -4.2373
  184MOL0     H25374   6.908   4.032   8.011 -1.0322  1.8227 -0.0647
  184MOL0     H25375   6.705   4.124   7.975 -0.7043  1.6888  0.8105
  184MOL0     H25376   6.700   2.923   8.777 -1.6663 -0.5976  1.9913
  184MOL0     H25377   6.467   2.867   8.804 -1.5645 -1.6007 -0.0737
  184MOL0     H25378   6.171   2.605   8.817  1.3524 -2.0925 -1.9629
  184MOL0     H25379   5.976   2.457   8.843 -1.1124  0.0472 -0.0283
  184MOL0     H25380   5.831   2.347   8.660 -0.4570  0.0702 -0.7769
  184MOL0     H25381   5.784   2.314   8.830 -1.0178  1.2392  1.6822
  184MOL0     H25382   5.648   2.220   8.637  0.9881  1.6543 -2.2916
  184MOL0     H25383   5.573   2.371   8.609  0.4283 -2.5293 -3.1953
  184MOL0     H25384   5.522   2.356   8.887  0.0770 -0.4057  0.7306
  184MOL0     H25385   5.423   2.283   8.767  0.0605 -0.3888 -0.5123
  184MOL0     H25386   5.453   2.066   8.832 -0.1039 -0.2089 -0.9373
  184MOL0     H25387   5.493   2.163   8.969 -1.4025  3.2012 -1.2112
  184MOL0     H25388   5.880   2.033   8.963 -1.8938 -2.1180  1.5194
  184MOL0     H25389   5.742   2.698   8.595  0.4718  2.3663  1.6718
  184MOL0     H25390   6.047   2.816   8.407 -1.0614 -1.7556 -1.5276
  184MOL0     H25391   5.873   2.811   8.404  0.5936  0.0112 -0.3879
  184MOL0     H25392   5.962   2.943   8.492  1.4839 -0.8595 -0.7058
  185MOL0     O25393   8.187  10.372   9.679 -0.8493 -0.4604  0.0019
  185MOL0     C25394   8.168  10.449   9.772  0.3439 -0.0675  0.3538
  185MOL0     O25395   8.241  10.550   9.802 -0.1015 -0.1891 -0.4023
  185MOL0     C25396   8.354  10.591   9.730 -0.1470  0.0417 -0.5984
  185MOL0     C25397   8.356  10.600   9.592  0.3390  0.1591 -0.5021
  185MOL0     C25398   8.482  10.620   9.527 -0.3667 -0.3554  0.4769
  185MOL0     C25399   8.598  10.646   9.601 -0.1111 -0.3321 -0.6756
  185MOL0     O25400   8.720  10.671   9.550  0.3987 -0.1625  0.2988
  185MOL0     C25401   8.721  10.795   9.472 -0.7152 -0.4324  0.8917
  185MOL0     C25402   8.856  10.799   9.396 -0.2305  0.4036  0.0135
  185MOL0     C25403   8.840  10.717   9.257  0.0035 -0.1063  0.3271
  185MOL0     C25404   8.977  10.669   9.205  0.0263 -0.0853 -0.0306
  185MOL0     C25405   9.092  10.783   9.199  0.6798  0.7491 -0.5771
  185MOL0     C25406   9.213  10.734   9.119  0.3402  0.1992 -0.6981
  185MOL0     C25407   9.258  10.582   9.108 -0.1052 -0.2647 -0.9434
  185MOL0     C25408   9.403  10.571   9.087 -0.1864  0.6665  0.2104
  185MOL0     N25409   9.447  10.432   9.051  0.4444  0.3834  0.5513
  185MOL0     C25410   9.510  10.401   8.934 -0.2298  0.0288 -0.6587
  185MOL0     C25411   9.525  10.263   8.939 -0.2943  0.1561  0.2092
  185MOL0     C25412   9.576  10.186   8.822  0.7070  0.0742  0.5678
  185MOL0     C25413   9.720  10.141   8.825  0.0602  0.0932  0.0169
  185MOL0     C25414   9.758  10.081   8.691 -0.9291  0.0680  0.8027
  185MOL0     C25415   9.875   9.990   8.693 -0.1695  0.3654  0.3185
  185MOL0     O25416   9.982  10.048   8.767 -0.2710 -0.1918 -0.3208
  185MOL0     C25417  10.085  10.105   8.697  0.6525  0.1958  0.7176
  185MOL0     C25418  10.097  10.134   8.558  0.3213  0.2465  0.2994
  185MOL0     C25419  10.219  10.193   8.513 -1.2146 -0.1031 -0.3276
  185MOL0     C25420  10.217  10.227   8.365 -1.5664 -0.1967 -0.2555
  185MOL0     C25421  10.334  10.213   8.595  1.2222 -0.7460  0.6259
  185MOL0     C25422  10.461  10.272   8.556 -0.0842  0.4066  0.5320
  185MOL0     O25423  10.554  10.284   8.658 -0.7769  0.1692  0.6886
  185MOL0     C25424  10.665  10.338   8.616 -0.3452 -0.0284 -0.3174
  185MOL0     C25425  10.713  10.456   8.682 -0.5611  0.0911  0.0590
  185MOL0     C25426  10.837  10.502   8.645  0.3676  0.0905  0.1266
  185MOL0     C25427  10.928  10.422   8.571  0.3379  1.0096 -0.7117
  185MOL0     O25428  11.049  10.476   8.535  0.5467  0.0189 -0.5923
  185MOL0     C25429  11.054  10.604   8.473  0.2311  0.0260  0.5283
  185MOL0     C25430  11.193  10.661   8.452  0.1996  0.6268  0.0199
  185MOL0     C25431  11.301  10.660   8.559  1.0173  0.7323 -0.4667
  185MOL0     C25432  11.233  10.702   8.689  0.3942 -0.3880  0.7260
  185MOL0     C25433  11.326  10.751   8.801  0.4107  0.0667  1.8704
  185MOL0     C25434  11.426  10.849   8.761 -0.5596  0.0822 -0.3916
  185MOL0     C25435  11.499  10.912   8.881 -0.7010 -0.1337  0.0760
  185MOL0     C25436  11.608  11.021   8.832 -0.3211 -0.2389  0.4157
  185MOL0    Cl25437  11.750  10.947   8.748  0.0064 -0.5691 -0.0228
  185MOL0     C25438  10.887  10.300   8.523 -0.0107 -0.5403  0.3534
  185MOL0     C25439  10.751  10.266   8.533  0.6406 -0.4558 -0.0698
  185MOL0     O25440  10.476  10.303   8.440 -0.1593 -0.5908 -0.7239
  185MOL0     C25441  10.327  10.170   8.730  1.1001  0.1025 -0.2194
  185MOL0     C25442  10.201  10.126   8.777  0.5175 -0.2065 -0.0843
  185MOL0     N25443   9.472  10.217   9.056  0.7898 -0.1274 -0.5658
  185MOL0     N25444   9.413  10.313   9.116 -0.5240  0.0719  0.4062
  185MOL0     C25445   8.586  10.643   9.740  0.3437 -0.5682 -0.2723
  185MOL0     C25446   8.466  10.608   9.797  0.1421 -0.4302  0.2589
  185MOL0     C25447   8.060  10.394   9.872  0.2792 -0.0046  0.5033
  185MOL0     C25448   8.014  10.261   9.861 -0.8839  0.2962 -0.3157
  185MOL0     C25449   7.936  10.203   9.956 -0.4104 -0.7090  0.3491
  185MOL0     C25450   7.871  10.288  10.046  0.3244 -0.0283  0.2261
  185MOL0     O25451   7.770  10.237  10.118  0.7336 -0.4842 -0.0132
  185MOL0     C25452   7.663  10.324  10.161  1.0747  0.6840 -0.0317
  185MOL0     C25453   7.571  10.235  10.258  0.4739  0.0807 -0.2163
  185MOL0     C25454   7.660  10.173  10.379 -0.3522  0.3256  0.4307
  185MOL0     C25455   7.596  10.058  10.448  0.8775  0.6383  0.6118
  185MOL0     C25456   7.667  10.029  10.566 -1.0072  0.5180 -0.6778
  185MOL0     C25457   7.737  10.016  10.660 -0.3418  0.1914 -0.1905
  185MOL0     C25458   7.915  10.420  10.050  0.2630  0.6158 -0.4471
  185MOL0     C25459   8.005  10.476   9.972 -0.1751 -0.2422  0.2708
  185MOL0     C25460   8.031  10.623   9.992  0.1483 -0.1862  0.6907
  185MOL0     H25461   8.269  10.581   9.529  1.9192 -1.9183 -2.2104
  185MOL0     H25462   8.476  10.610   9.419 -1.7052  0.7888  0.4261
  185MOL0     H25463   8.716  10.885   9.534 -1.9550  0.5579 -0.5578
  185MOL0     H25464   8.635  10.788   9.404  0.7292 -3.7197 -0.8568
  185MOL0     H25465   8.874  10.904   9.371  1.6137  0.0181 -0.4523
  185MOL0     H25466   8.938  10.764   9.459 -0.0340 -2.0076 -1.4315
  185MOL0     H25467   8.785  10.624   9.273 -0.0011 -0.5260 -1.8084
  185MOL0     H25468   8.784  10.777   9.183 -0.7456 -0.7682  0.3450
  185MOL0     H25469   9.022  10.593   9.268  0.5081 -0.0712 -0.3568
  185MOL0     H25470   8.969  10.628   9.103  0.7844 -0.6318  0.1227
  185MOL0     H25471   9.119  10.800   9.303 -0.5129  1.3985 -0.3509
  185MOL0     H25472   9.038  10.868   9.155 -2.1735 -0.6750 -0.0943
  185MOL0     H25473   9.203  10.765   9.015 -2.0171 -0.8261 -0.8633
  185MOL0     H25474   9.295  10.788   9.166  0.8502 -2.8270  2.3307
  185MOL0     H25475   9.211  10.538   9.020  2.2584 -2.0532 -1.3909
  185MOL0     H25476   9.226  10.521   9.193  2.6777 -0.7567 -0.1678
  185MOL0     H25477   9.451  10.632   9.011  0.5835  2.0944  1.7797
  185MOL0     H25478   9.449  10.594   9.184 -1.1439  1.1239  0.5676
  185MOL0     H25479   9.537  10.468   8.852 -1.1099 -1.6358 -2.3921
  185MOL0     H25480   9.542  10.252   8.741 -4.7472 -0.0118  2.3658
  185MOL0     H25481   9.511  10.098   8.815  0.4988  0.2478  0.2839
  185MOL0     H25482   9.787  10.227   8.839  0.4162  0.2268 -2.1992
  185MOL0     H25483   9.730  10.069   8.907  1.6032 -0.1469 -0.3377
  185MOL0     H25484   9.672  10.020   8.661 -1.5771  1.0279  0.6818
  185MOL0     H25485   9.786  10.164   8.626 -0.2942 -0.5351  0.2900
  185MOL0     H25486   9.854   9.909   8.764  0.5910  2.1724  2.7619
  185MOL0     H25487   9.905   9.954   8.595 -2.3009 -0.4845 -0.0821
  185MOL0     H25488  10.017  10.109   8.489  1.7042  1.3826 -1.8141
  185MOL0     H25489  10.133  10.189   8.306 -1.6276 -0.4304 -0.0216
  185MOL0     H25490  10.302  10.180   8.314 -0.9707 -2.2722  2.4117
  185MOL0     H25491  10.212  10.336   8.355 -0.7907 -0.0268  1.0466
  185MOL0     H25492  10.646  10.511   8.748  1.2485  3.6986 -0.8619
  185MOL0     H25493  10.873  10.595   8.688  0.5239 -0.0669  0.3380
  185MOL0     H25494  11.004  10.578   8.379  4.5466 -0.7812 -1.8159
  185MOL0     H25495  11.005  10.685   8.527 -1.5082 -1.6756  1.6471
  185MOL0     H25496  11.239  10.591   8.382  4.0405  0.4467  2.4325
  185MOL0     H25497  11.187  10.765   8.419 -2.4187  0.6755  0.4684
  185MOL0     H25498  11.384  10.727   8.535  1.4075  0.5221  0.2596
  185MOL0     H25499  11.332  10.557   8.575  1.1416  1.0769  1.7971
  185MOL0     H25500  11.170  10.619   8.723  1.4861 -1.8108 -0.5660
  185MOL0     H25501  11.169  10.788   8.668  0.6602 -0.8349 -2.4637
  185MOL0     H25502  11.255  10.787   8.876 -3.5670  0.3665 -1.7025
  185MOL0     H25503  11.384  10.665   8.835  1.3249  0.2293  0.7755
  185MOL0     H25504  11.383  10.922   8.692 -0.3128 -0.0758 -0.7187
  185MOL0     H25505  11.502  10.801   8.699  1.3802  1.3317  0.8959
  185MOL0     H25506  11.556  10.835   8.936  2.4554  1.1831 -1.0815
  185MOL0     H25507  11.424  10.961   8.942 -2.5100 -2.8292  0.2023
  185MOL0     H25508  11.650  11.055   8.927  0.0803  0.1022  0.1241
  185MOL0     H25509  11.557  11.098   8.773  0.7211 -1.4337 -2.2048
  185MOL0     H25510  10.960  10.234   8.479  0.8240  1.3752 -1.3301
  185MOL0     H25511  10.715  10.176   8.485  1.8003 -0.4991 -0.8868
  185MOL0     H25512  10.409  10.176   8.802 -0.3553  1.0004  1.4344
  185MOL0     H25513  10.179  10.110   8.882  0.7264 -1.4475 -0.2144
  185MOL0     H25514   8.678  10.653   9.797  2.1121 -1.5863 -2.7978
  185MOL0     H25515   8.465  10.598   9.905  1.5137  2.4761  0.6493
  185MOL0     H25516   8.061  10.197   9.787  1.5822  0.6007  0.8879
  185MOL0     H25517   7.904  10.100   9.969  0.9559 -0.7968  4.2488
  185MOL0     H25518   7.701  10.416  10.209  1.7353 -0.1381  1.0835
  185MOL0     H25519   7.607  10.357  10.073  0.6995  0.1734  0.0113
  185MOL0     H25520   7.512  10.164  10.199 -1.8358  3.3301 -2.1402
  185MOL0     H25521   7.506  10.308  10.307  0.7594  0.7126 -0.7643
  185MOL0     H25522   7.756  10.135  10.344  0.3199  1.4491  1.0011
  185MOL0     H25523   7.678  10.245  10.459  0.3697  1.4648 -0.7272
  185MOL0     H25524   7.594   9.965  10.389  2.0427  1.1776 -0.3259
  185MOL0     H25525   7.494  10.092  10.463 -0.2357 -0.8652 -2.6164
  185MOL0     H25526   7.808   9.998  10.738 -0.9144 -3.2002 -0.2775
  185MOL0     H25527   7.848  10.481  10.109 -2.5774 -2.1576 -0.5077
  185MOL0     H25528   7.967  10.676  10.063 -0.0893 -1.8411  1.7639
  185MOL0     H25529   8.135  10.631  10.028  0.8111 -1.0130 -0.9614
  185MOL0     H25530   8.030  10.674   9.896  0.0586 -1.3525  0.0624
  186MOL0     O25531   3.820   6.215   7.080  1.4233 -0.3902 -0.2709
  186MOL0     C25532   3.759   6.321   7.063  1.6043 -0.0990 -0.9603
  186MOL0     O25533   3.798   6.419   6.980 -0.3472  0.0577 -0.1711
  186MOL0     C25534   3.912   6.403   6.908 -0.5368  0.1154  0.1123
  186MOL0     C25535   4.015   6.496   6.909 -0.3831  0.0712 -0.3115
  186MOL0     C25536   4.137   6.484   6.824  0.0893 -0.5785 -0.0441
  186MOL0     C25537   4.136   6.368   6.743  0.8569  0.0203 -0.0726
  186MOL0     O25538   4.249   6.354   6.665  0.2938 -0.0899  0.1819
  186MOL0     C25539   4.249   6.434   6.544  0.5211 -0.6313 -0.0783
  186MOL0     C25540   4.376   6.413   6.468 -0.2363 -1.1263 -0.0060
  186MOL0     C25541   4.381   6.274   6.400 -0.9357  0.3166 -0.4678
  186MOL0     C25542   4.511   6.250   6.322 -0.3064  1.0537 -0.1559
  186MOL0     C25543   4.564   6.351   6.213  0.8001 -0.0520  0.2169
  186MOL0     C25544   4.703   6.313   6.178 -0.3620  0.2488 -0.8751
  186MOL0     C25545   4.762   6.400   6.072 -0.5619 -0.6295 -0.1028
  186MOL0     C25546   4.869   6.328   5.993  0.1865 -0.0878 -0.0233
  186MOL0     N25547   5.002   6.310   6.062  0.0664 -0.5684 -0.5800
  186MOL0     C25548   5.031   6.252   6.191  0.1424 -0.5587  0.1710
  186MOL0     C25549   5.165   6.256   6.185 -0.1820 -0.3497  0.0689
  186MOL0     C25550   5.246   6.213   6.299  0.3955 -0.3655 -0.0147
  186MOL0     C25551   5.316   6.079   6.275  0.9869  0.0825 -0.3279
  186MOL0     C25552   5.424   6.073   6.161  0.5340  0.0261  0.1213
  186MOL0     C25553   5.524   6.183   6.169 -0.4749  0.0058  0.1305
  186MOL0     O25554   5.592   6.172   6.298  0.2549  0.2335 -0.5184
  186MOL0     C25555   5.630   6.288   6.344  0.4976 -0.4281  0.5767
  186MOL0     C25556   5.686   6.392   6.274  0.8037 -0.5404 -0.4467
  186MOL0     C25557   5.723   6.512   6.336 -0.3699  0.5818  1.5374
  186MOL0     C25558   5.782   6.609   6.239 -0.1709  0.8911  0.1146
  186MOL0     C25559   5.709   6.514   6.478 -1.4231  0.5633  0.4061
  186MOL0     C25560   5.747   6.626   6.569 -0.3751  0.1374  0.2847
  186MOL0     O25561   5.766   6.580   6.696 -0.2206  0.8497  1.1842
  186MOL0     C25562   5.834   6.662   6.780  0.0402  1.2708 -0.3600
  186MOL0     C25563   5.765   6.727   6.883  0.3926 -0.1426 -0.5694
  186MOL0     C25564   5.823   6.814   6.972  0.3565 -0.5258 -0.4358
  186MOL0     C25565   5.966   6.816   6.969  0.0341 -0.9409  0.6866
  186MOL0     O25566   6.032   6.901   7.055  0.1472  0.6329 -0.5353
  186MOL0     C25567   6.171   6.911   7.046  0.1556  0.5202 -0.0338
  186MOL0     C25568   6.228   7.022   7.136 -0.3291  0.9572  1.2042
  186MOL0     C25569   6.384   7.029   7.131  0.7553 -0.3291  0.4830
  186MOL0     C25570   6.435   7.057   7.273  0.0282 -0.4408  0.2308
  186MOL0     C25571   6.594   7.032   7.286  0.4278 -0.2902 -0.7931
  186MOL0     C25572   6.644   7.031   7.425 -0.1664  0.0700 -1.1885
  186MOL0     C25573   6.589   7.142   7.522  0.8325 -0.3537 -1.1441
  186MOL0     C25574   6.658   7.266   7.487  0.1484  0.3324 -0.6780
  186MOL0    Cl25575   6.839   7.249   7.508 -0.0481 -0.3205 -0.5096
  186MOL0     C25576   6.040   6.741   6.870 -0.9989 -0.0723  0.0712
  186MOL0     C25577   5.973   6.672   6.770 -0.0261  0.1768 -0.0247
  186MOL0     O25578   5.746   6.742   6.534 -0.7174  0.0173 -0.1757
  186MOL0     C25579   5.658   6.401   6.547  0.4712 -0.8974  0.5118
  186MOL0     C25580   5.615   6.295   6.483 -0.7246 -0.0959  0.9204
  186MOL0     N25581   5.211   6.294   6.066  0.1070 -0.4457 -0.0030
  186MOL0     N25582   5.113   6.330   5.991 -0.0761 -0.9486  0.8422
  186MOL0     C25583   4.031   6.284   6.732 -0.3956  0.5059 -1.5157
  186MOL0     C25584   3.926   6.296   6.818  0.1124 -0.5700 -0.3216
  186MOL0     C25585   3.651   6.349   7.164 -0.5648  0.3688  0.4190
  186MOL0     C25586   3.602   6.485   7.177 -0.0218 -0.6713 -0.4649
  186MOL0     C25587   3.511   6.529   7.276  0.0020 -0.3265  0.5162
  186MOL0     C25588   3.465   6.429   7.368 -0.6809 -0.6071  0.1571
  186MOL0     O25589   3.364   6.462   7.448  0.2852 -0.4232  0.6809
  186MOL0     C25590   3.248   6.377   7.457 -0.9103  0.5645 -0.0062
  186MOL0     C25591   3.152   6.400   7.572  0.0197 -0.2001 -0.1040
  186MOL0     C25592   3.221   6.389   7.707 -0.5294 -0.8221 -0.1133
  186MOL0     C25593   3.131   6.347   7.823  0.1154 -0.0233 -0.4514
  186MOL0     C25594   3.108   6.199   7.842  0.5650  0.4161  0.9057
  186MOL0     C25595   3.078   6.083   7.867 -0.7104  0.5586 -0.3204
  186MOL0     C25596   3.506   6.296   7.349 -0.1684  0.9072  0.4814
  186MOL0     C25597   3.595   6.257   7.248 -0.6522 -0.9695  0.8237
  186MOL0     C25598   3.609   6.101   7.238 -0.1710 -0.1282 -0.2786
  186MOL0     H25599   4.008   6.584   6.972 -0.0391  0.2064 -0.4642
  186MOL0     H25600   4.216   6.558   6.836 -0.4651 -0.1347  0.9580
  186MOL0     H25601   4.250   6.537   6.579  2.4235 -1.2690  2.0009
  186MOL0     H25602   4.157   6.423   6.486  1.2494 -0.3876 -1.3130
  186MOL0     H25603   4.376   6.491   6.392  0.4242 -0.1351  0.9779
  186MOL0     H25604   4.465   6.431   6.529 -0.7495  0.0416  0.4317
  186MOL0     H25605   4.365   6.196   6.474  2.5026 -0.6330 -0.5715
  186MOL0     H25606   4.306   6.267   6.320 -0.2025 -1.4141 -1.0371
  186MOL0     H25607   4.592   6.238   6.395  0.4867 -0.1803 -1.1830
  186MOL0     H25608   4.501   6.150   6.278 -0.4720  0.6383  0.8112
  186MOL0     H25609   4.554   6.452   6.254 -0.7946 -0.0287 -0.1508
  186MOL0     H25610   4.496   6.335   6.129  0.7016  0.1223  0.2624
  186MOL0     H25611   4.760   6.320   6.271 -1.2091  0.9711 -0.3902
  186MOL0     H25612   4.697   6.206   6.156  2.1215 -0.1418  0.0466
  186MOL0     H25613   4.816   6.489   6.105  0.4966 -0.2138 -2.6864
  186MOL0     H25614   4.682   6.426   6.002 -0.9163  0.4698  0.6887
  186MOL0     H25615   4.835   6.227   5.967 -1.1875  0.1488  0.7871
  186MOL0     H25616   4.890   6.378   5.898 -0.1341 -0.5657 -0.3459
  186MOL0     H25617   4.971   6.219   6.276  1.0185 -3.9526 -0.3894
  186MOL0     H25618   5.188   6.213   6.392  0.8037 -2.0652  0.2827
  186MOL0     H25619   5.333   6.277   6.311  0.3039 -0.4080  0.9302
  186MOL0     H25620   5.357   6.038   6.367  1.0036 -1.4982 -1.0122
  186MOL0     H25621   5.236   6.012   6.244  2.7374 -1.1465 -2.5196
  186MOL0     H25622   5.472   5.974   6.159 -1.3212 -0.9191 -0.0222
  186MOL0     H25623   5.364   6.073   6.069 -1.2240 -0.6372  1.2142
  186MOL0     H25624   5.595   6.167   6.086 -2.0754  1.8108 -1.6997
  186MOL0     H25625   5.497   6.287   6.149 -1.6440 -0.5803 -1.5515
  186MOL0     H25626   5.703   6.379   6.167  1.8226  2.3312 -0.7183
  186MOL0     H25627   5.861   6.557   6.184 -0.3832  0.0514  0.5963
  186MOL0     H25628   5.827   6.694   6.292  1.3519 -0.5408  1.2338
  186MOL0     H25629   5.696   6.647   6.183 -1.5371  0.1400  1.6350
  186MOL0     H25630   5.657   6.720   6.887  0.0300  3.2826 -1.3701
  186MOL0     H25631   5.768   6.874   7.044  0.5898 -1.1133  0.2480
  186MOL0     H25632   6.222   6.817   7.068  2.1552  1.1119 -1.8699
  186MOL0     H25633   6.190   6.919   6.938 -5.1467 -2.3520 -1.5819
  186MOL0     H25634   6.195   7.115   7.089  1.5128  0.2452 -1.7418
  186MOL0     H25635   6.180   7.023   7.234 -4.8209 -1.9910 -0.6043
  186MOL0     H25636   6.411   7.106   7.057  0.4921 -1.1342 -0.4752
  186MOL0     H25637   6.418   6.931   7.095 -2.7560 -2.1368  1.6336
  186MOL0     H25638   6.393   6.986   7.345 -0.0758 -0.2846  0.3255
  186MOL0     H25639   6.407   7.160   7.296  0.8932 -0.1155 -0.1199
  186MOL0     H25640   6.615   6.927   7.266  1.4898 -0.8840  2.7655
  186MOL0     H25641   6.655   7.096   7.221  2.1796 -1.3455 -0.2386
  186MOL0     H25642   6.754   7.029   7.427  0.0587  3.7560  1.2956
  186MOL0     H25643   6.611   6.937   7.469 -1.9698  0.7493 -0.9925
  186MOL0     H25644   6.621   7.116   7.624  1.2293  1.1541 -0.8651
  186MOL0     H25645   6.482   7.162   7.518  1.3116  2.5374 -1.8497
  186MOL0     H25646   6.632   7.346   7.557  1.8478 -0.5088  0.9975
  186MOL0     H25647   6.642   7.305   7.386  4.0001  3.1275 -0.4622
  186MOL0     H25648   6.148   6.752   6.865 -1.1648  1.2750 -2.0170
  186MOL0     H25649   6.025   6.613   6.694 -0.0488 -1.5124  1.2076
  186MOL0     H25650   5.645   6.394   6.654 -2.9103  1.9709  0.4643
  186MOL0     H25651   5.554   6.229   6.543 -1.6268  2.3536  2.8538
  186MOL0     H25652   4.033   6.198   6.666  0.2995  2.6565 -4.5073
  186MOL0     H25653   3.847   6.225   6.799  1.1824 -1.7321 -0.5130
  186MOL0     H25654   3.639   6.564   7.112  3.2207  1.3427  3.3786
  186MOL0     H25655   3.482   6.633   7.289  0.1939 -0.1446 -0.4058
  186MOL0     H25656   3.192   6.395   7.365 -1.3155  1.7563  0.4513
  186MOL0     H25657   3.274   6.271   7.457 -3.4313 -0.1105 -1.2388
  186MOL0     H25658   3.087   6.312   7.566  0.3365 -0.7004  2.5546
  186MOL0     H25659   3.105   6.498   7.564 -0.0165  0.0560  2.5444
  186MOL0     H25660   3.311   6.328   7.691  0.3385  0.6491 -1.0557
  186MOL0     H25661   3.259   6.490   7.725 -2.2012 -0.2527  0.3466
  186MOL0     H25662   3.031   6.389   7.807 -0.1213 -0.5960 -0.5019
  186MOL0     H25663   3.167   6.385   7.919 -1.9852 -5.2129  2.8236
  186MOL0     H25664   3.061   5.991   7.920 -1.0477  0.0374 -1.2993
  186MOL0     H25665   3.458   6.216   7.405 -0.0153 -0.7981 -1.6973
  186MOL0     H25666   3.699   6.056   7.281  0.3672  0.3522 -0.8901
  186MOL0     H25667   3.513   6.055   7.264 -0.2033  1.3599  2.5751
  186MOL0     H25668   3.619   6.072   7.133  1.7782  1.1131 -0.4819
  187MOL0     O25669   2.217   3.867   9.609  0.9173  0.8722 -0.0408
  187MOL0     C25670   2.184   3.901   9.497 -0.0772  0.1458 -0.0083
  187MOL0     O25671   2.246   3.990   9.414  0.3849  0.3062 -0.6627
  187MOL0     C25672   2.383   4.014   9.427  0.3046 -0.1212 -0.4035
  187MOL0     C25673   2.450   4.142   9.455 -0.0861  0.0286 -0.5211
  187MOL0     C25674   2.585   4.151   9.458 -0.9114 -0.4456 -0.3380
  187MOL0     C25675   2.664   4.037   9.449  0.0219  0.6245 -0.6384
  187MOL0     O25676   2.806   4.046   9.477 -0.1740  0.3807  0.0953
  187MOL0     C25677   2.854   4.157   9.548 -0.3732  0.0259 -0.3109
  187MOL0     C25678   2.992   4.113   9.608 -0.7788 -0.7410  0.5815
  187MOL0     C25679   3.054   4.229   9.684 -0.0472  0.0224  0.4421
  187MOL0     C25680   3.099   4.341   9.593  0.8209 -0.4707 -0.4831
  187MOL0     C25681   3.223   4.415   9.631  0.4008 -0.3072 -0.1687
  187MOL0     C25682   3.344   4.335   9.609 -0.7123  1.3570  0.5627
  187MOL0     C25683   3.491   4.389   9.628 -0.4273  0.1802 -0.0398
  187MOL0     C25684   3.591   4.272   9.642  0.9427  0.6758 -0.1958
  187MOL0     N25685   3.732   4.299   9.655  0.0769  0.1480  0.4348
  187MOL0     C25686   3.829   4.264   9.563  0.1709  0.0397  0.2213
  187MOL0     C25687   3.937   4.281   9.636  0.2920  0.4357 -0.1635
  187MOL0     C25688   4.071   4.288   9.581 -0.2367 -0.3443  0.4952
  187MOL0     C25689   4.123   4.423   9.612 -0.3215 -0.0678 -0.3418
  187MOL0     C25690   4.252   4.441   9.540 -0.0502 -0.0858  0.1413
  187MOL0     C25691   4.367   4.345   9.576 -0.6964 -0.0999  0.1837
  187MOL0     O25692   4.497   4.378   9.512  0.0100 -0.8255  0.2447
  187MOL0     C25693   4.573   4.487   9.562 -0.3914  0.5791  0.8645
  187MOL0     C25694   4.539   4.557   9.680  0.4946  0.2764  1.4599
  187MOL0     C25695   4.607   4.674   9.712  0.0299  1.0521  0.6030
  187MOL0     C25696   4.582   4.731   9.852 -0.0710  0.4844 -0.1813
  187MOL0     C25697   4.719   4.711   9.632 -0.1159  0.9384 -0.3697
  187MOL0     C25698   4.803   4.827   9.664  0.8388 -0.5120  0.1447
  187MOL0     O25699   4.932   4.829   9.620  1.0888  0.0672  0.3283
  187MOL0     C25700   5.013   4.932   9.659 -0.3722  0.5826 -0.3056
  187MOL0     C25701   5.057   5.041   9.581 -0.8219  1.3104 -0.0228
  187MOL0     C25702   5.144   5.137   9.633  0.0182  0.1776 -0.4625
  187MOL0     C25703   5.183   5.123   9.767  0.6493 -0.5573  0.6336
  187MOL0     O25704   5.278   5.207   9.828  0.0865  0.6079  0.4546
  187MOL0     C25705   5.316   5.325   9.768 -0.3786  0.4815  0.1303
  187MOL0     C25706   5.444   5.305   9.681  0.8777  0.2595 -0.2052
  187MOL0     C25707   5.570   5.274   9.768  0.4862  1.0152  0.2973
  187MOL0     C25708   5.640   5.394   9.815 -0.2335  0.2980 -0.8591
  187MOL0     C25709   5.764   5.340   9.890 -0.4832 -0.9257  0.4546
  187MOL0     C25710   5.871   5.302   9.788 -0.4204 -0.5510  0.4294
  187MOL0     C25711   5.986   5.236   9.862 -0.6863 -0.4060  0.0374
  187MOL0     C25712   5.940   5.099   9.912 -0.2144  0.0324 -0.2318
  187MOL0    Cl25713   6.087   5.011   9.952  0.0195 -0.2930  0.0926
  187MOL0     C25714   5.139   5.019   9.839  0.2036  0.4491  1.3544
  187MOL0     C25715   5.068   4.921   9.782  0.5211  0.6873  0.6166
  187MOL0     O25716   4.750   4.918   9.729 -0.0974  0.7006 -1.1430
  187MOL0     C25717   4.757   4.636   9.522 -1.0711  0.5433  0.6106
  187MOL0     C25718   4.680   4.527   9.482 -0.3050 -0.8113 -0.8150
  187MOL0     N25719   3.914   4.329   9.767 -0.9591  0.1438  0.6554
  187MOL0     N25720   3.787   4.332   9.780 -0.3905  0.1574  1.1839
  187MOL0     C25721   2.604   3.917   9.416  0.7521  0.6742  0.0352
  187MOL0     C25722   2.467   3.909   9.390 -0.4454  0.2002  0.8603
  187MOL0     C25723   2.079   3.815   9.430 -0.1746  0.3515  0.2689
  187MOL0     C25724   2.083   3.808   9.287 -0.3042  0.3055  0.3127
  187MOL0     C25725   2.001   3.719   9.220 -0.1552 -0.5783  0.2698
  187MOL0     C25726   1.917   3.632   9.293  0.2388 -0.0727 -0.4398
  187MOL0     O25727   1.862   3.533   9.218 -0.5890  0.2565 -1.0948
  187MOL0     C25728   1.725   3.568   9.182  0.1004  0.4177  0.0451
  187MOL0     C25729   1.675   3.476   9.078  1.3745 -0.7979  0.1808
  187MOL0     C25730   1.641   3.343   9.150  0.4443 -0.2155 -1.3492
  187MOL0     C25731   1.502   3.291   9.138  0.2382  0.2224 -0.2891
  187MOL0     C25732   1.484   3.158   9.200  0.1232 -0.2377 -0.3934
  187MOL0     C25733   1.458   3.047   9.250 -0.2210 -0.5980 -0.2568
  187MOL0     C25734   1.905   3.635   9.426 -0.4722  0.4349 -0.0039
  187MOL0     C25735   1.982   3.730   9.494 -0.4970 -0.1979 -0.1354
  187MOL0     C25736   1.959   3.732   9.649  0.2122  0.9969  0.0719
  187MOL0     H25737   2.390   4.222   9.498  1.2252  0.1008  1.3217
  187MOL0     H25738   2.631   4.247   9.482  0.9270 -1.4434  0.3256
  187MOL0     H25739   2.797   4.152   9.641  0.7825 -1.2170  0.3568
  187MOL0     H25740   2.854   4.256   9.501 -2.9900 -0.6210 -1.8578
  187MOL0     H25741   2.982   4.039   9.688 -0.0837 -0.5687  0.8350
  187MOL0     H25742   3.064   4.085   9.531  2.8033  0.6932  3.1332
  187MOL0     H25743   2.981   4.273   9.752  1.4271  2.1530  0.7390
  187MOL0     H25744   3.129   4.185   9.749 -0.5739  0.6377  1.4972
  187MOL0     H25745   3.094   4.302   9.491  0.2547 -1.1714 -0.1932
  187MOL0     H25746   3.028   4.424   9.595  0.6079 -0.5605 -2.2084
  187MOL0     H25747   3.211   4.438   9.737 -0.7714 -1.1356 -0.0946
  187MOL0     H25748   3.227   4.500   9.562 -0.2977 -0.3902 -0.3191
  187MOL0     H25749   3.337   4.247   9.675  4.4215  1.9529  2.3248
  187MOL0     H25750   3.351   4.302   9.505 -0.5460  1.7371  0.4546
  187MOL0     H25751   3.498   4.446   9.721 -3.0913  0.2888  0.1734
  187MOL0     H25752   3.518   4.445   9.538 -0.1903  1.1231  0.6022
  187MOL0     H25753   3.555   4.221   9.732 -1.0332 -0.1851 -1.4138
  187MOL0     H25754   3.580   4.196   9.565  4.6230 -0.5073  0.2684
  187MOL0     H25755   3.820   4.234   9.459 -1.1460 -2.1588  0.8843
  187MOL0     H25756   4.070   4.265   9.474  0.2602  1.7726 -0.0018
  187MOL0     H25757   4.134   4.219   9.638 -0.7865  0.2066  1.8357
  187MOL0     H25758   4.058   4.503   9.577 -0.3496 -1.0041 -2.6230
  187MOL0     H25759   4.139   4.442   9.718  1.3647  3.9841 -1.1036
  187MOL0     H25760   4.230   4.434   9.433 -0.4980  2.1719  0.0405
  187MOL0     H25761   4.281   4.544   9.560 -0.2706 -0.1524  0.8331
  187MOL0     H25762   4.387   4.341   9.684  2.6811  1.2402 -0.2780
  187MOL0     H25763   4.337   4.248   9.536 -2.1360  0.4110 -0.0245
  187MOL0     H25764   4.460   4.519   9.744 -1.4928 -0.4275 -1.2492
  187MOL0     H25765   4.529   4.661   9.917  3.0898 -0.8366  1.1866
  187MOL0     H25766   4.525   4.824   9.866 -0.9863  0.1064 -1.2710
  187MOL0     H25767   4.675   4.737   9.909 -1.5859 -0.7801  2.6449
  187MOL0     H25768   5.019   5.039   9.479 -3.3383 -0.2247  0.8409
  187MOL0     H25769   5.169   5.213   9.559  3.4318 -1.1110 -0.8220
  187MOL0     H25770   5.234   5.371   9.712 -1.2416 -0.6710  0.3977
  187MOL0     H25771   5.346   5.398   9.843  0.2909  0.8096 -0.4410
  187MOL0     H25772   5.422   5.212   9.626 -3.8784  1.0100 -0.0467
  187MOL0     H25773   5.472   5.378   9.606  1.7707 -0.7163 -0.8458
  187MOL0     H25774   5.632   5.228   9.690  0.0706  1.7672 -0.5013
  187MOL0     H25775   5.546   5.195   9.840 -0.6644  0.4424 -0.6788
  187MOL0     H25776   5.566   5.450   9.872 -1.1165 -0.2002 -1.4814
  187MOL0     H25777   5.667   5.453   9.727  1.2623 -0.1850 -0.7546
  187MOL0     H25778   5.798   5.420   9.956  0.2124  1.2374 -2.3116
  187MOL0     H25779   5.742   5.255   9.956 -2.2303 -1.7744 -1.1271
  187MOL0     H25780   5.900   5.395   9.738 -1.0920 -0.0207  0.9983
  187MOL0     H25781   5.853   5.238   9.702  2.7003 -0.3427 -0.4955
  187MOL0     H25782   6.011   5.311   9.938 -3.4099  0.1651  0.4597
  187MOL0     H25783   6.060   5.217   9.784 -2.3420 -1.1827 -1.4015
  187MOL0     H25784   5.889   5.038   9.837  1.3931 -0.0863 -1.2731
  187MOL0     H25785   5.877   5.098  10.002 -2.7809  0.7171 -1.9262
  187MOL0     H25786   5.165   5.017   9.944  3.2481  0.0978  0.6808
  187MOL0     H25787   5.014   4.845   9.837 -1.7229  0.5094 -1.6467
  187MOL0     H25788   4.839   4.671   9.461  1.2424  0.5526  3.4802
  187MOL0     H25789   4.693   4.482   9.384  2.6620 -1.3887 -0.2664
  187MOL0     H25790   2.675   3.837   9.404  3.0055  2.3354  1.5050
  187MOL0     H25791   2.420   3.817   9.356  0.3192 -0.4468  1.5261
  187MOL0     H25792   2.148   3.861   9.219  0.6173 -2.1353 -0.8177
  187MOL0     H25793   1.993   3.705   9.113 -1.7168  2.0878 -0.0727
  187MOL0     H25794   1.657   3.569   9.267  0.9319  0.7341  0.7283
  187MOL0     H25795   1.723   3.668   9.138 -1.1094  0.6344  0.5759
  187MOL0     H25796   1.753   3.469   9.001 -1.0097  1.5833 -2.7056
  187MOL0     H25797   1.578   3.499   9.033 -0.3750 -0.8141  3.6219
  187MOL0     H25798   1.698   3.272   9.088  1.9078 -1.3071  1.0970
  187MOL0     H25799   1.675   3.341   9.254  0.2824  0.0298 -1.2913
  187MOL0     H25800   1.480   3.282   9.031  0.5224 -3.0075 -0.1982
  187MOL0     H25801   1.433   3.364   9.180  1.0411  2.7447 -2.9739
  187MOL0     H25802   1.422   2.954   9.287 -3.6863  0.1181 -1.4956
  187MOL0     H25803   1.843   3.569   9.485  1.6911 -1.0557  0.7410
  187MOL0     H25804   1.891   3.654   9.685 -0.6707  2.9619  2.9844
  187MOL0     H25805   2.047   3.747   9.712 -0.7740 -0.1741  1.7947
  187MOL0     H25806   1.900   3.824   9.662 -1.8419  0.0133 -1.5013
  188MOL0     O25807   2.730   3.237   2.704  0.0221  0.0253 -0.4531
  188MOL0     C25808   2.808   3.332   2.680 -0.4109 -0.5732  0.2178
  188MOL0     O25809   2.925   3.354   2.748 -0.2074 -0.0989  0.3003
  188MOL0     C25810   2.947   3.309   2.880  0.6017 -0.4719  0.7539
  188MOL0     C25811   2.852   3.317   2.983 -0.4956  0.0896 -0.3030
  188MOL0     C25812   2.890   3.294   3.113  1.6396  0.7665  0.1731
  188MOL0     C25813   3.025   3.273   3.140  0.6304 -0.5866 -0.0289
  188MOL0     O25814   3.060   3.268   3.273 -0.5066  0.2365  0.6832
  188MOL0     C25815   3.175   3.190   3.317 -0.5721  0.2238  0.6949
  188MOL0     C25816   3.291   3.281   3.352 -0.5486 -0.0903 -0.0986
  188MOL0     C25817   3.421   3.212   3.396 -0.3084  0.1841  0.7115
  188MOL0     C25818   3.512   3.322   3.452  0.1491 -0.2575  1.0589
  188MOL0     C25819   3.645   3.287   3.528  0.6606  1.0476 -0.5091
  188MOL0     C25820   3.769   3.276   3.440  0.5538 -0.1641  0.0682
  188MOL0     C25821   3.752   3.183   3.326 -0.2871  0.3308  0.5393
  188MOL0     C25822   3.874   3.111   3.271  1.1299  0.1907  0.8223
  188MOL0     N25823   3.837   3.040   3.147 -0.6388 -0.6475  0.9030
  188MOL0     C25824   3.777   2.921   3.128 -0.2337 -0.0681  0.2823
  188MOL0     C25825   3.769   2.917   2.992  0.3337  0.4451 -0.1402
  188MOL0     C25826   3.731   2.789   2.928  0.3155 -0.2862  0.4987
  188MOL0     C25827   3.834   2.680   2.949 -0.1883  0.4219 -0.6596
  188MOL0     C25828   3.790   2.541   2.942  0.1029 -0.6332  0.2020
  188MOL0     C25829   3.677   2.505   3.028  0.9616  0.4016 -0.0645
  188MOL0     O25830   3.693   2.524   3.169  1.0812  0.4662 -0.7598
  188MOL0     C25831   3.576   2.546   3.241 -0.7356 -0.8397  0.3504
  188MOL0     C25832   3.570   2.660   3.318 -0.1634  0.5053  0.0738
  188MOL0     C25833   3.462   2.684   3.401 -0.1511  0.1989  0.3992
  188MOL0     C25834   3.469   2.816   3.469  0.5761 -0.4810  0.8190
  188MOL0     C25835   3.366   2.584   3.424  0.0112 -0.3234  0.4610
  188MOL0     C25836   3.258   2.595   3.523  0.6380  0.6801  0.8532
  188MOL0     O25837   3.147   2.513   3.498 -0.1223  0.5024 -0.6782
  188MOL0     C25838   3.029   2.543   3.567 -1.1639  0.1975  0.8563
  188MOL0     C25839   2.990   2.472   3.680  0.6789 -0.0128 -0.6499
  188MOL0     C25840   2.867   2.494   3.742 -0.6476  0.1625 -0.5201
  188MOL0     C25841   2.780   2.600   3.706 -0.1245  0.2759  0.5806
  188MOL0     O25842   2.661   2.623   3.775 -0.1548 -0.2538  0.7785
  188MOL0     C25843   2.652   2.606   3.917  0.1591  0.7658 -0.1292
  188MOL0     C25844   2.509   2.660   3.971 -0.8513 -0.3798  0.3226
  188MOL0     C25845   2.398   2.593   3.893  0.3861  1.5377  0.0994
  188MOL0     C25846   2.269   2.659   3.935 -0.7642  0.9827  0.3439
  188MOL0     C25847   2.140   2.595   3.873  0.0109  0.5249  0.0181
  188MOL0     C25848   2.013   2.669   3.934  0.6608  0.3332 -0.1040
  188MOL0     C25849   2.015   2.820   3.938 -0.3369  0.4136 -0.7990
  188MOL0     C25850   1.992   2.880   3.796 -0.5132 -0.1588 -0.2308
  188MOL0    Cl25851   1.833   2.830   3.734  0.4932 -0.2330 -0.5229
  188MOL0     C25852   2.826   2.680   3.603  0.1647 -0.3315 -0.1428
  188MOL0     C25853   2.949   2.654   3.534  0.0104  0.2597  0.8456
  188MOL0     O25854   3.270   2.674   3.616  0.1221 -0.1156 -0.1824
  188MOL0     C25855   3.361   2.473   3.332  0.2385  0.8155  0.3961
  188MOL0     C25856   3.471   2.454   3.243 -0.2227  0.0704 -0.3908
  188MOL0     N25857   3.849   3.014   2.930  0.2359 -0.0007  0.4554
  188MOL0     N25858   3.886   3.091   3.023 -0.1891  0.6035 -0.2859
  188MOL0     C25859   3.122   3.266   3.043  0.1891 -0.6023 -0.0373
  188MOL0     C25860   3.078   3.279   2.919 -0.8591 -0.0171  0.3168
  188MOL0     C25861   2.770   3.425   2.567  0.0766 -0.2099 -0.8391
  188MOL0     C25862   2.636   3.419   2.515  0.0018 -0.5457 -0.0566
  188MOL0     C25863   2.585   3.519   2.423 -0.0970  0.1257 -0.4792
  188MOL0     C25864   2.662   3.630   2.393 -0.4119 -0.1786  0.1236
  188MOL0     O25865   2.629   3.735   2.308 -1.4874  0.8056 -0.1570
  188MOL0     C25866   2.489   3.743   2.275  0.7659  0.2603  0.4418
  188MOL0     C25867   2.453   3.869   2.195 -0.5282 -0.6859  0.0745
  188MOL0     C25868   2.478   3.994   2.281  0.2393  0.2741  0.4133
  188MOL0     C25869   2.620   4.025   2.323 -0.0667  1.3113 -0.6552
  188MOL0     C25870   2.651   4.172   2.356 -0.4871 -0.2419  0.1368
  188MOL0     C25871   2.670   4.280   2.399  0.2975 -0.5948 -0.4741
  188MOL0     C25872   2.792   3.630   2.440 -0.5710  0.0261  0.4016
  188MOL0     C25873   2.844   3.540   2.529 -0.0089 -0.4516 -0.0172
  188MOL0     C25874   2.979   3.575   2.593 -0.2482  0.5399 -0.1968
  188MOL0     H25875   2.746   3.330   2.959 -1.3078  0.2238  2.9509
  188MOL0     H25876   2.808   3.301   3.184  2.1701  1.1518  0.7637
  188MOL0     H25877   3.197   3.114   3.242 -2.8300  0.3916 -0.2408
  188MOL0     H25878   3.142   3.141   3.409  0.3515  1.3019  1.6326
  188MOL0     H25879   3.315   3.348   3.269  0.0382  2.2907  1.8710
  188MOL0     H25880   3.247   3.350   3.425  0.9781 -1.4826  2.2889
  188MOL0     H25881   3.414   3.134   3.472  1.3331 -0.4839  0.2190
  188MOL0     H25882   3.478   3.161   3.318 -0.2196 -0.4606  1.1871
  188MOL0     H25883   3.539   3.387   3.368 -0.9404 -1.2022 -0.0672
  188MOL0     H25884   3.456   3.387   3.519  0.3674  1.3416 -0.2578
  188MOL0     H25885   3.628   3.195   3.586  2.5447  1.8362  1.4335
  188MOL0     H25886   3.658   3.361   3.607 -0.6012 -0.3833  1.1211
  188MOL0     H25887   3.777   3.377   3.399 -5.6084  1.9103  2.7977
  188MOL0     H25888   3.855   3.254   3.504  0.5499 -0.6947 -0.1073
  188MOL0     H25889   3.702   3.234   3.243 -1.7554 -0.1053  1.1308
  188MOL0     H25890   3.686   3.100   3.352  1.7844 -1.1947  1.2198
  188MOL0     H25891   3.944   3.189   3.240  1.1780  0.0392  0.5494
  188MOL0     H25892   3.918   3.042   3.343  0.3337 -0.1073  1.0310
  188MOL0     H25893   3.746   2.846   3.200 -0.8488 -0.5094 -0.4302
  188MOL0     H25894   3.728   2.810   2.820 -0.0942  2.5592  0.9841
  188MOL0     H25895   3.630   2.758   2.958 -0.5314 -0.6877 -2.4028
  188MOL0     H25896   3.914   2.690   2.875 -0.1095 -4.8095 -1.6369
  188MOL0     H25897   3.874   2.686   3.051  0.0474  2.9158 -0.8416
  188MOL0     H25898   3.763   2.517   2.838  0.9148  1.9522 -0.7072
  188MOL0     H25899   3.884   2.493   2.971  0.5032  0.1728  0.2934
  188MOL0     H25900   3.583   2.551   2.998 -1.9231 -4.0049  1.1712
  188MOL0     H25901   3.661   2.402   2.995  1.8856  0.3065 -0.2655
  188MOL0     H25902   3.650   2.733   3.308 -1.5171  2.4690  2.3850
  188MOL0     H25903   3.527   2.884   3.405 -1.8723 -1.0241 -2.2237
  188MOL0     H25904   3.505   2.812   3.572  2.2884  2.9544  0.5059
  188MOL0     H25905   3.368   2.858   3.471  0.8452  0.3793 -1.0945
  188MOL0     H25906   3.056   2.401   3.727  0.6010  0.5444  0.3300
  188MOL0     H25907   2.854   2.440   3.835  0.6849 -1.2193 -1.1104
  188MOL0     H25908   2.662   2.498   3.934  0.2096  0.8804  0.5848
  188MOL0     H25909   2.731   2.666   3.962  0.8684  0.0315 -0.3616
  188MOL0     H25910   2.507   2.651   4.080  2.0917  1.5948  0.6702
  188MOL0     H25911   2.507   2.767   3.951  1.3399  0.3144  3.1077
  188MOL0     H25912   2.387   2.486   3.913 -2.3636  0.8753 -3.8759
  188MOL0     H25913   2.400   2.593   3.784 -4.4867  1.3136 -0.2212
  188MOL0     H25914   2.278   2.766   3.915  2.2678  0.4171 -2.2602
  188MOL0     H25915   2.254   2.641   4.041 -1.1877  0.1733  0.1529
  188MOL0     H25916   2.146   2.606   3.765 -1.2681  0.6050 -0.0601
  188MOL0     H25917   2.142   2.486   3.886  1.7716 -0.1135 -4.1870
  188MOL0     H25918   1.997   2.635   4.037 -1.0442  3.9646  0.9831
  188MOL0     H25919   1.930   2.631   3.874  1.3445 -0.4129 -0.6109
  188MOL0     H25920   2.100   2.875   3.980  1.2381  0.0046 -3.3069
  188MOL0     H25921   1.929   2.844   4.002 -0.5651 -1.0977 -0.4901
  188MOL0     H25922   2.074   2.853   3.730 -0.4449  0.6156 -0.4733
  188MOL0     H25923   1.984   2.989   3.811  0.2898 -0.4834  3.7155
  188MOL0     H25924   2.775   2.769   3.567  0.1018  0.5447  1.9807
  188MOL0     H25925   2.988   2.719   3.456 -1.3164 -0.5223 -0.5233
  188MOL0     H25926   3.278   2.403   3.333  0.0660  1.0160  0.2473
  188MOL0     H25927   3.478   2.361   3.189 -1.9478 -1.9278  2.5086
  188MOL0     H25928   3.228   3.253   3.064  0.0107 -2.3724 -0.0266
  188MOL0     H25929   3.138   3.259   2.831 -2.4321 -4.0869 -0.0759
  188MOL0     H25930   2.555   3.350   2.536 -0.3116 -0.4973 -1.0375
  188MOL0     H25931   2.484   3.505   2.385 -0.7678  3.7215 -0.3850
  188MOL0     H25932   2.465   3.650   2.223 -1.0513  0.1876  1.3015
  188MOL0     H25933   2.422   3.744   2.362  0.8791  0.1205  0.5314
  188MOL0     H25934   2.352   3.853   2.156 -0.6337  1.3895 -0.6242
  188MOL0     H25935   2.513   3.881   2.104 -0.6577  0.4796  0.1375
  188MOL0     H25936   2.435   4.076   2.222  0.3621 -0.0542 -0.1409
  188MOL0     H25937   2.416   3.994   2.371  1.7607 -1.7031  1.5662
  188MOL0     H25938   2.692   3.984   2.251 -3.1477 -5.0563 -0.8294
  188MOL0     H25939   2.647   3.970   2.414 -2.8274 -0.8198 -0.9813
  188MOL0     H25940   2.690   4.374   2.447  0.4582  0.3133 -2.2501
  188MOL0     H25941   2.861   3.711   2.419 -2.1329  1.3949  0.3467
  188MOL0     H25942   3.045   3.489   2.580 -2.0560 -0.8756 -0.3262
  188MOL0     H25943   3.038   3.658   2.552  1.8590  0.3940  2.2498
  188MOL0     H25944   2.969   3.610   2.696 -2.4067  3.3683 -1.2224
  189MOL0     O25945   4.224   1.844  10.039 -0.5217 -0.1230 -0.2388
  189MOL0     C25946   4.192   1.721  10.044  0.1046 -0.8216  0.0111
  189MOL0     O25947   4.279   1.610  10.029 -0.1313 -0.2007  0.0603
  189MOL0     C25948   4.417   1.636  10.029  1.2234 -0.4234 -0.8387
  189MOL0     C25949   4.480   1.629   9.908  0.1435  0.0489  0.1453
  189MOL0     C25950   4.618   1.640   9.892 -0.0730  0.4772  0.7503
  189MOL0     C25951   4.700   1.671  10.001 -0.0444 -0.0561  0.0847
  189MOL0     O25952   4.837   1.680   9.985  0.3512 -0.5040 -0.8042
  189MOL0     C25953   4.909   1.751  10.082 -1.1940 -1.2953 -0.9759
  189MOL0     C25954   5.051   1.782  10.042  0.2024 -0.1704  0.4542
  189MOL0     C25955   5.125   1.844  10.161  1.2015 -0.0310 -0.6181
  189MOL0     C25956   5.274   1.883  10.123  0.6215  0.5088 -0.9511
  189MOL0     C25957   5.364   1.927  10.238 -0.5720 -0.6068 -0.5952
  189MOL0     C25958   5.509   1.964  10.189  0.5263 -0.2221  0.3075
  189MOL0     C25959   5.593   1.846  10.141  0.7153  0.0535 -1.3392
  189MOL0     C25960   5.702   1.879  10.047 -0.2039 -0.2609  0.1810
  189MOL0     N25961   5.741   1.754   9.977  0.2441  0.1971  1.3470
  189MOL0     C25962   5.672   1.701   9.873  0.9953  0.3129  0.2046
  189MOL0     C25963   5.742   1.592   9.841  0.2577 -0.7386  0.4661
  189MOL0     C25964   5.706   1.466   9.750 -0.3199  0.3796 -0.3698
  189MOL0     C25965   5.786   1.479   9.618  0.2337 -0.0030  0.2944
  189MOL0     C25966   5.688   1.491   9.497  0.0077  0.3956 -0.2497
  189MOL0     C25967   5.726   1.438   9.353  0.2731 -0.2031  0.0260
  189MOL0     O25968   5.821   1.332   9.373  0.9049  0.1352 -0.0693
  189MOL0     C25969   5.942   1.348   9.312 -0.7255  0.2833  0.2419
  189MOL0     C25970   6.053   1.322   9.386 -0.0850  0.0012 -0.1208
  189MOL0     C25971   6.177   1.358   9.328 -0.0182 -0.5474  0.1575
  189MOL0     C25972   6.304   1.356   9.421  0.0202  0.4778 -0.5263
  189MOL0     C25973   6.193   1.383   9.188  0.9107  0.3775 -0.0220
  189MOL0     C25974   6.318   1.431   9.121 -0.5685  0.3547 -0.3682
  189MOL0     O25975   6.301   1.538   9.027 -0.2942 -0.0672 -0.7452
  189MOL0     C25976   6.414   1.562   8.947 -0.2220 -0.6274  0.2538
  189MOL0     C25977   6.533   1.628   8.988  0.5138 -0.4612  0.3588
  189MOL0     C25978   6.628   1.637   8.887  0.0556 -0.3914 -0.3373
  189MOL0     C25979   6.595   1.598   8.753 -0.0989 -0.5380 -0.9154
  189MOL0     O25980   6.684   1.612   8.643  0.4370 -0.6289  0.5355
  189MOL0     C25981   6.762   1.730   8.661 -0.9245  0.6387  0.1531
  189MOL0     C25982   6.911   1.706   8.712  0.3633  0.2976 -0.9938
  189MOL0     C25983   6.980   1.579   8.660 -0.3163 -0.2415  0.7289
  189MOL0     C25984   7.014   1.577   8.509  0.8056 -0.1002 -0.7908
  189MOL0     C25985   7.079   1.442   8.482  0.1413  0.6220  0.6131
  189MOL0     C25986   7.104   1.428   8.331  0.0105  0.3571  0.2780
  189MOL0     C25987   7.155   1.292   8.301 -0.5363  0.1614 -0.7155
  189MOL0     C25988   7.297   1.240   8.343 -1.1258  0.1515  0.6630
  189MOL0    Cl25989   7.410   1.345   8.272 -0.0289  0.0709 -0.1010
  189MOL0     C25990   6.475   1.537   8.719  1.2524  1.1329 -1.0663
  189MOL0     C25991   6.388   1.511   8.826 -0.7559 -0.1932 -0.4036
  189MOL0     O25992   6.425   1.377   9.154 -0.3293 -0.5137  0.5519
  189MOL0     C25993   6.075   1.379   9.111  0.1768  0.1395  0.4160
  189MOL0     C25994   5.952   1.363   9.172  0.0439  0.5499 -0.0105
  189MOL0     N25995   5.845   1.581   9.924 -0.1632  0.3216  0.4623
  189MOL0     N25996   5.851   1.679  10.007  0.4374 -0.0839 -0.2540
  189MOL0     C25997   4.635   1.685  10.128  0.0642  0.2869  0.1672
  189MOL0     C25998   4.491   1.668  10.138  0.4271 -0.3904 -0.2553
  189MOL0     C25999   4.048   1.705  10.049  1.2861  0.6077 -0.0106
  189MOL0     C26000   4.009   1.591  10.120  0.4818 -0.4003 -0.2154
  189MOL0     C26001   3.875   1.580  10.160  0.5251 -0.8149 -0.9749
  189MOL0     C26002   3.786   1.677  10.124  0.5909  1.5005 -0.1559
  189MOL0     O26003   3.657   1.659  10.181  0.1958 -0.0758  0.5530
  189MOL0     C26004   3.539   1.738  10.142  0.1235  0.2797  0.2680
  189MOL0     C26005   3.525   1.859  10.229  0.4152 -0.7041 -0.6086
  189MOL0     C26006   3.455   1.818  10.362  0.0029 -0.0634 -0.0079
  189MOL0     C26007   3.306   1.852  10.391  0.3553 -0.1728 -0.2900
  189MOL0     C26008   3.286   1.984  10.459  0.3838 -0.5629 -0.7538
  189MOL0     C26009   3.261   2.102  10.498  0.5973 -0.0961 -0.3185
  189MOL0     C26010   3.817   1.778  10.035 -0.1095  0.9027 -0.1816
  189MOL0     C26011   3.951   1.795   9.989  0.4022  0.3400  0.1775
  189MOL0     C26012   3.992   1.892   9.886 -0.0795 -0.0647 -0.1174
  189MOL0     H26013   4.413   1.603   9.827 -0.9486 -1.0966  1.3573
  189MOL0     H26014   4.667   1.620   9.797  0.1987 -1.9390  1.3434
  189MOL0     H26015   4.911   1.679  10.165  0.2107  0.7378  0.8573
  189MOL0     H26016   4.868   1.847  10.111  0.7938  0.6641 -4.0073
  189MOL0     H26017   5.097   1.688  10.011  0.0752  0.7936 -3.1588
  189MOL0     H26018   5.063   1.849   9.956  4.9787 -0.3389  0.6871
  189MOL0     H26019   5.068   1.934  10.186  0.6113 -0.0397 -1.8450
  189MOL0     H26020   5.121   1.777  10.247  2.9923 -2.0553 -2.0223
  189MOL0     H26021   5.329   1.810  10.063  1.8558  1.8255 -1.4650
  189MOL0     H26022   5.269   1.976  10.066 -1.1350  0.6588 -0.6163
  189MOL0     H26023   5.356   1.870  10.331 -0.5976  1.5446  0.7910
  189MOL0     H26024   5.323   2.026  10.262  1.7706  0.6746 -1.4959
  189MOL0     H26025   5.504   2.029  10.101 -0.6188 -2.3494 -1.3129
  189MOL0     H26026   5.566   2.028  10.257 -0.6012  0.2936  0.7827
  189MOL0     H26027   5.530   1.763  10.107 -1.2702  1.1925 -0.6388
  189MOL0     H26028   5.635   1.800  10.231  1.0755  1.3923 -0.7953
  189MOL0     H26029   5.666   1.955   9.976 -0.4833  0.2029  0.8131
  189MOL0     H26030   5.784   1.914  10.110  0.4276  0.3015 -0.9155
  189MOL0     H26031   5.576   1.738   9.837  1.3746  0.3589 -0.7798
  189MOL0     H26032   5.599   1.443   9.747  0.0621 -2.4066  2.7112
  189MOL0     H26033   5.753   1.379   9.796  2.2409  0.8769 -1.8509
  189MOL0     H26034   5.847   1.569   9.630  0.5283 -0.4064  2.2005
  189MOL0     H26035   5.841   1.385   9.606 -0.6892 -0.6246  0.7381
  189MOL0     H26036   5.601   1.432   9.528  0.7694 -0.2207  0.7539
  189MOL0     H26037   5.644   1.591   9.493 -1.9755 -0.3434  1.3427
  189MOL0     H26038   5.633   1.390   9.320 -0.3173  0.9061  0.0520
  189MOL0     H26039   5.762   1.514   9.284  1.7624 -1.9459 -1.2300
  189MOL0     H26040   6.039   1.277   9.484 -1.6907 -1.8522 -1.1223
  189MOL0     H26041   6.278   1.351   9.527 -0.0782 -1.7799 -0.6016
  189MOL0     H26042   6.346   1.455   9.403 -0.3166  1.4731  3.2818
  189MOL0     H26043   6.375   1.274   9.413  0.3926  0.4657  2.0712
  189MOL0     H26044   6.554   1.671   9.086  2.1883  2.6207 -1.1920
  189MOL0     H26045   6.717   1.696   8.904 -0.0269  0.0690 -1.4261
  189MOL0     H26046   6.770   1.770   8.560  3.1694  0.5697  0.2638
  189MOL0     H26047   6.706   1.806   8.715 -3.2102  0.4276 -1.7833
  189MOL0     H26048   6.962   1.795   8.675 -0.6718  0.9767 -0.8224
  189MOL0     H26049   6.906   1.713   8.821 -1.9660  1.1373 -1.0900
  189MOL0     H26050   6.938   1.484   8.694  0.7872 -0.4411  1.5980
  189MOL0     H26051   7.077   1.563   8.707  0.3336 -0.0836 -0.5075
  189MOL0     H26052   7.078   1.661   8.479 -0.1177  0.2448 -1.9103
  189MOL0     H26053   6.922   1.571   8.450  0.4903 -0.9998 -0.2225
  189MOL0     H26054   7.172   1.443   8.539  1.2914  2.4300 -1.1606
  189MOL0     H26055   7.018   1.357   8.514  0.4838 -0.4139 -1.3612
  189MOL0     H26056   7.178   1.498   8.291  2.7056 -1.5675  1.5434
  189MOL0     H26057   7.009   1.432   8.278 -0.1820  1.6282  0.7009
  189MOL0     H26058   7.152   1.279   8.193  3.3423  0.1305 -0.9822
  189MOL0     H26059   7.081   1.221   8.340 -0.4869  1.1956  1.4192
  189MOL0     H26060   7.315   1.142   8.299  3.2819  0.1067  2.1385
  189MOL0     H26061   7.316   1.219   8.449 -0.4892 -1.0280  0.3320
  189MOL0     H26062   6.451   1.513   8.616 -4.4033 -1.8183  0.5040
  189MOL0     H26063   6.295   1.458   8.809 -0.6445 -0.8047  0.7891
  189MOL0     H26064   6.078   1.390   9.004 -2.3282 -0.4945  0.2029
  189MOL0     H26065   5.861   1.363   9.112 -0.1644 -1.1379  0.2581
  189MOL0     H26066   4.697   1.716  10.212 -1.2551  1.7638  0.6317
  189MOL0     H26067   4.441   1.677  10.233 -0.1551  0.8576 -0.6585
  189MOL0     H26068   4.083   1.517  10.149  0.9642  1.6659  4.6656
  189MOL0     H26069   3.832   1.497  10.214 -0.0007  0.4388  0.6236
  189MOL0     H26070   3.543   1.761  10.035 -1.5126 -2.4221 -0.4677
  189MOL0     H26071   3.443   1.686  10.148 -0.7913  2.0289  3.6119
  189MOL0     H26072   3.459   1.936  10.187  0.8160  0.5477  0.9443
  189MOL0     H26073   3.626   1.898  10.243 -0.6443  1.2050  2.6972
  189MOL0     H26074   3.466   1.711  10.380 -1.5439 -0.7492 -2.5341
  189MOL0     H26075   3.513   1.873  10.436 -1.2600  0.8713  0.3143
  189MOL0     H26076   3.267   1.770  10.451  1.3115 -1.4430 -1.3527
  189MOL0     H26077   3.244   1.842  10.301 -0.0272 -0.4489  0.0029
  189MOL0     H26078   3.229   2.197  10.536  1.2477  0.0518 -0.1235
  189MOL0     H26079   3.752   1.862  10.011  1.6570  1.9767 -1.3917
  189MOL0     H26080   4.036   1.838   9.801 -2.9457 -0.7717 -1.2823
  189MOL0     H26081   3.902   1.945   9.851 -1.3627 -2.2333 -0.2983
  189MOL0     H26082   4.067   1.965   9.916  3.2637 -2.0392 -2.8962
  190MOL0     O26083   4.386   5.560   4.240  0.8530 -0.4576 -0.5680
  190MOL0     C26084   4.418   5.489   4.338 -0.4903  0.4359  0.7631
  190MOL0     O26085   4.500   5.524   4.436 -1.0562  0.0899 -0.2217
  190MOL0     C26086   4.583   5.631   4.418  0.6000 -0.6526 -0.2101
  190MOL0     C26087   4.570   5.737   4.501  0.2566  0.3581 -0.4407
  190MOL0     C26088   4.662   5.844   4.492 -0.0574 -0.3483 -0.1677
  190MOL0     C26089   4.748   5.853   4.388 -0.0856 -0.3863 -0.0649
  190MOL0     O26090   4.814   5.967   4.367  0.2112 -0.1425 -0.3518
  190MOL0     C26091   4.804   6.015   4.234 -0.8335  0.2668  0.2692
  190MOL0     C26092   4.878   6.141   4.215 -0.4770  0.1172  0.4398
  190MOL0     C26093   5.030   6.115   4.214 -0.5998  0.4661 -0.2142
  190MOL0     C26094   5.083   6.136   4.358  0.4565  0.0802  0.1103
  190MOL0     C26095   5.236   6.122   4.359 -0.2075  0.8106 -1.1190
  190MOL0     C26096   5.291   6.150   4.497 -0.7454  0.4088  0.1207
  190MOL0     C26097   5.454   6.155   4.486 -0.5995 -0.3816  0.5107
  190MOL0     C26098   5.532   6.191   4.615 -0.0788 -0.4899 -0.0405
  190MOL0     N26099   5.669   6.144   4.604  0.0955  0.7166 -0.0102
  190MOL0     C26100   5.767   6.199   4.524  1.0889  0.5334  0.0687
  190MOL0     C26101   5.873   6.112   4.535 -0.8596  0.3562 -0.8112
  190MOL0     C26102   6.007   6.138   4.482  0.0774 -0.4119  0.1397
  190MOL0     C26103   6.032   6.287   4.473 -0.0969  0.3837 -0.2254
  190MOL0     C26104   6.174   6.320   4.424 -0.1838  0.5229 -0.0388
  190MOL0     C26105   6.221   6.456   4.473  0.4849  0.4180 -0.4543
  190MOL0     O26106   6.340   6.487   4.410 -0.1389 -0.7268 -0.5252
  190MOL0     C26107   6.395   6.612   4.418 -0.4385  0.4442 -0.5951
  190MOL0     C26108   6.496   6.646   4.337  0.3995  0.3427 -0.3978
  190MOL0     C26109   6.575   6.767   4.348 -0.0602  0.1153 -0.2803
  190MOL0     C26110   6.687   6.794   4.250 -0.4412 -1.0192  0.4939
  190MOL0     C26111   6.540   6.866   4.447 -0.4508  0.1308  0.7728
  190MOL0     C26112   6.596   6.999   4.468 -0.7321 -0.3905 -0.4150
  190MOL0     O26113   6.507   7.094   4.506 -0.1451  0.9279 -1.1548
  190MOL0     C26114   6.551   7.220   4.506 -0.1556 -1.1442  0.5686
  190MOL0     C26115   6.563   7.295   4.393  0.5820 -0.6962  0.7709
  190MOL0     C26116   6.612   7.434   4.389  0.4487  0.2220  0.1601
  190MOL0     C26117   6.653   7.497   4.508 -0.6321  0.6847  0.3950
  190MOL0     O26118   6.706   7.625   4.520  0.0279 -0.0911 -0.4800
  190MOL0     C26119   6.727   7.714   4.406 -0.1391 -1.2653  0.7371
  190MOL0     C26120   6.720   7.863   4.454 -0.5439  0.6180 -0.1132
  190MOL0     C26121   6.715   7.940   4.329 -0.1637  0.2854  0.1567
  190MOL0     C26122   6.734   8.092   4.347  0.2158  0.1214  0.5921
  190MOL0     C26123   6.759   8.168   4.215 -0.8764 -0.2905  0.0271
  190MOL0     C26124   6.884   8.131   4.133  0.9666  0.6790 -0.5551
  190MOL0     C26125   7.014   8.106   4.217 -0.2215  0.3202  0.0611
  190MOL0     C26126   7.141   8.174   4.157  0.4694 -0.4081  0.2691
  190MOL0    Cl26127   7.173   8.097   3.991 -0.1246 -0.3330  0.0413
  190MOL0     C26128   6.632   7.419   4.621 -0.4523  0.1907 -0.3976
  190MOL0     C26129   6.590   7.284   4.627  1.3345 -0.4579  0.2325
  190MOL0     O26130   6.718   7.018   4.446 -0.3169  0.9843 -0.2861
  190MOL0     C26131   6.421   6.836   4.525  0.0442  0.8290 -0.2005
  190MOL0     C26132   6.351   6.716   4.511  0.5466  0.0772 -0.3014
  190MOL0     N26133   5.835   6.007   4.610 -0.4609 -0.0805 -0.4464
  190MOL0     N26134   5.717   6.028   4.653  0.0877  0.5565 -0.8231
  190MOL0     C26135   4.763   5.741   4.302 -0.6912  0.8235 -0.0486
  190MOL0     C26136   4.678   5.625   4.320 -0.2156 -0.5632 -0.3158
  190MOL0     C26137   4.363   5.356   4.346 -0.8122  0.7573  0.5726
  190MOL0     C26138   4.385   5.286   4.465 -0.7848 -0.2384  0.0136
  190MOL0     C26139   4.355   5.150   4.479  0.4111 -0.2575 -0.3385
  190MOL0     C26140   4.282   5.079   4.381 -0.4057 -0.2295  0.5986
  190MOL0     O26141   4.241   4.951   4.396  0.4994 -0.1636 -0.4523
  190MOL0     C26142   4.105   4.916   4.353  1.1076 -0.3426 -0.2651
  190MOL0     C26143   4.089   4.762   4.358 -0.3634 -0.9570 -1.0485
  190MOL0     C26144   3.938   4.728   4.345 -0.2325 -0.3687 -1.4843
  190MOL0     C26145   3.883   4.756   4.201 -0.6002  0.5175  0.0295
  190MOL0     C26146   3.743   4.715   4.187 -0.8435 -0.3684 -0.4517
  190MOL0     C26147   3.627   4.697   4.166 -0.4411 -0.0598  0.6963
  190MOL0     C26148   4.238   5.162   4.274 -0.9695 -0.5933 -0.8151
  190MOL0     C26149   4.289   5.292   4.244  0.0931  0.4584 -0.9202
  190MOL0     C26150   4.247   5.357   4.115 -0.3116 -0.1657 -0.3369
  190MOL0     H26151   4.503   5.725   4.585  0.7150  1.0099  0.0323
  190MOL0     H26152   4.652   5.923   4.566  1.0471 -1.5077  1.2840
  190MOL0     H26153   4.701   6.029   4.199 -0.1365  1.8983 -1.2957
  190MOL0     H26154   4.858   5.945   4.170  0.3463  0.9101  0.5484
  190MOL0     H26155   4.870   6.166   4.109 -0.6029  1.1377  0.6755
  190MOL0     H26156   4.852   6.229   4.274  0.1620  0.0812  0.7788
  190MOL0     H26157   5.044   6.012   4.181 -2.6115  0.9534 -2.9572
  190MOL0     H26158   5.090   6.181   4.151  2.3041  1.0069  2.8738
  190MOL0     H26159   5.066   6.230   4.411  0.6082 -0.7772  1.7356
  190MOL0     H26160   5.040   6.058   4.421 -0.8349  1.9188  1.6083
  190MOL0     H26161   5.283   6.194   4.291  1.2883  0.7718 -0.1538
  190MOL0     H26162   5.271   6.026   4.321  1.1175  0.7805  0.1210
  190MOL0     H26163   5.247   6.241   4.540 -1.8246 -0.1155  0.1499
  190MOL0     H26164   5.257   6.084   4.577 -2.9503  1.9783  0.5774
  190MOL0     H26165   5.481   6.236   4.418  0.2612 -0.7860  0.3551
  190MOL0     H26166   5.487   6.055   4.457 -1.5204 -0.6547  0.3763
  190MOL0     H26167   5.539   6.298   4.634  0.9475 -0.7094  0.9114
  190MOL0     H26168   5.491   6.149   4.707 -0.5206  1.4085  0.6692
  190MOL0     H26169   5.761   6.293   4.471  2.8344  2.0237  2.3445
  190MOL0     H26170   6.013   6.110   4.376 -0.4547 -0.1571  0.0344
  190MOL0     H26171   6.090   6.095   4.537  0.1665 -0.6568 -0.1826
  190MOL0     H26172   5.959   6.324   4.401  1.3590 -0.5411 -2.2555
  190MOL0     H26173   6.022   6.339   4.569  1.2344  1.0323 -0.4143
  190MOL0     H26174   6.236   6.235   4.454 -2.4896 -2.0346 -2.0220
  190MOL0     H26175   6.175   6.298   4.317 -0.3981 -0.5602  0.1738
  190MOL0     H26176   6.138   6.523   4.449  0.2273  0.0281 -0.6689
  190MOL0     H26177   6.230   6.468   4.582 -1.8346  0.9066 -0.2661
  190MOL0     H26178   6.510   6.564   4.267  2.7288 -1.3088  1.8170
  190MOL0     H26179   6.669   6.885   4.193  1.4465  1.0996  3.0119
  190MOL0     H26180   6.702   6.709   4.183  1.3468  0.0694 -0.5657
  190MOL0     H26181   6.788   6.825   4.281  2.2038  1.4391 -7.9165
  190MOL0     H26182   6.540   7.247   4.298  2.6101  0.2465 -0.2635
  190MOL0     H26183   6.614   7.485   4.293 -1.1732  0.7821  0.3895
  190MOL0     H26184   6.824   7.702   4.357  2.2137  5.3863  2.6727
  190MOL0     H26185   6.639   7.704   4.342 -1.5810 -1.2803  2.6546
  190MOL0     H26186   6.645   7.897   4.526  1.4557 -1.9839  3.5959
  190MOL0     H26187   6.817   7.889   4.499 -1.0579  0.4472  1.1443
  190MOL0     H26188   6.619   7.912   4.285  0.6018 -3.7170  0.6305
  190MOL0     H26189   6.799   7.903   4.269 -0.9178 -0.9240 -0.1783
  190MOL0     H26190   6.815   8.097   4.421  0.6741 -0.3511  0.1302
  190MOL0     H26191   6.646   8.139   4.392 -0.2895 -1.8339  1.7593
  190MOL0     H26192   6.680   8.139   4.145 -0.0001  0.6805 -1.4108
  190MOL0     H26193   6.769   8.272   4.248 -0.3487  1.4572 -4.8252
  190MOL0     H26194   6.902   8.206   4.056  0.6200  0.2587 -1.0488
  190MOL0     H26195   6.849   8.043   4.080  1.3516 -1.7684  2.8945
  190MOL0     H26196   7.037   7.999   4.227 -1.8733 -0.1153 -0.3774
  190MOL0     H26197   7.004   8.134   4.322 -0.3901  0.6209 -0.0355
  190MOL0     H26198   7.232   8.168   4.217  1.3156 -2.6765 -1.1279
  190MOL0     H26199   7.119   8.280   4.141 -1.4241 -0.6981  0.7404
  190MOL0     H26200   6.659   7.463   4.716  2.9989  3.8404 -2.7471
  190MOL0     H26201   6.582   7.233   4.723 -1.2354  1.0001  0.8691
  190MOL0     H26202   6.388   6.907   4.600 -1.7170 -1.1794  1.0372
  190MOL0     H26203   6.257   6.707   4.565 -0.6855 -0.0718 -2.3657
  190MOL0     H26204   4.833   5.734   4.220 -1.6013 -1.5058 -0.6958
  190MOL0     H26205   4.675   5.534   4.261 -1.0568 -0.6846 -0.1025
  190MOL0     H26206   4.450   5.328   4.542  0.7581  1.5590 -2.1402
  190MOL0     H26207   4.382   5.098   4.570  1.6981  2.1636  0.7498
  190MOL0     H26208   4.026   4.957   4.416 -0.1102  0.5656 -2.3083
  190MOL0     H26209   4.081   4.937   4.249 -0.4064  0.8895  0.2946
  190MOL0     H26210   4.121   4.726   4.456 -4.8872  1.5550  1.6681
  190MOL0     H26211   4.143   4.719   4.273 -1.5418  0.9264 -2.8314
  190MOL0     H26212   3.930   4.622   4.371  0.7535  0.2435  1.7707
  190MOL0     H26213   3.876   4.785   4.415 -0.0472  0.5867 -2.0728
  190MOL0     H26214   3.941   4.698   4.129  0.6156  1.0864  0.5113
  190MOL0     H26215   3.895   4.863   4.181  2.2716  0.5500  1.3335
  190MOL0     H26216   3.527   4.666   4.141  0.5275 -3.1366  0.1108
  190MOL0     H26217   4.173   5.131   4.193 -0.2962  1.2048 -2.0913
  190MOL0     H26218   4.182   5.290   4.058  2.2048  1.7176 -6.1804
  190MOL0     H26219   4.204   5.457   4.121 -1.1275 -0.5955  1.8840
  190MOL0     H26220   4.337   5.374   4.056 -0.3272  0.7789 -0.0997
  191MOL0     O26221   5.823  11.409   4.594 -0.7086 -0.1833  0.4904
  191MOL0     C26222   5.764  11.457   4.501 -0.4392 -1.1019  0.0990
  191MOL0     O26223   5.817  11.517   4.394  0.2058 -0.9559  0.0296
  191MOL0     C26224   5.947  11.561   4.381 -0.2465  0.3606  0.7603
  191MOL0     C26225   5.976  11.596   4.252 -0.4133  0.1528 -0.5114
  191MOL0     C26226   6.099  11.648   4.211  0.6304 -0.3911 -0.2492
  191MOL0     C26227   6.196  11.672   4.310  0.4447  0.1564  0.6073
  191MOL0     O26228   6.317  11.730   4.280  1.0561  0.6142  0.3270
  191MOL0     C26229   6.428  11.638   4.269  0.0720 -0.3713 -0.1527
  191MOL0     C26230   6.524  11.675   4.386 -0.2723 -0.4746 -0.8823
  191MOL0     C26231   6.576  11.826   4.376  0.2212  0.1290 -1.1483
  191MOL0     C26232   6.726  11.825   4.380  0.1634  0.1256  0.4185
  191MOL0     C26233   6.792  11.957   4.349 -0.3189 -0.6647 -0.1172
  191MOL0     C26234   6.936  11.965   4.380 -0.9061 -0.5415  0.0572
  191MOL0     C26235   7.028  11.888   4.292  1.2445  0.2341  0.8489
  191MOL0     C26236   7.181  11.896   4.318 -0.0878  0.4076  0.5051
  191MOL0     N26237   7.222  12.028   4.362  0.6265  0.3623 -0.2920
  191MOL0     C26238   7.256  12.049   4.496  0.0912  0.7278 -1.2829
  191MOL0     C26239   7.279  12.180   4.500  0.2569 -0.2143 -0.0107
  191MOL0     C26240   7.306  12.266   4.623 -0.1989 -0.1950 -0.2459
  191MOL0     C26241   7.427  12.218   4.708  0.6104 -0.2630 -0.9860
  191MOL0     C26242   7.557  12.259   4.644  0.1437  0.3899 -0.2802
  191MOL0     C26243   7.672  12.173   4.685 -0.3319 -0.4383  0.2664
  191MOL0     O26244   7.702  12.163   4.827  0.8763  0.7601 -0.5033
  191MOL0     C26245   7.830  12.187   4.873 -0.8863  0.7009 -0.2038
  191MOL0     C26246   7.861  12.310   4.938  0.2598  0.3920 -0.2248
  191MOL0     C26247   7.990  12.342   4.984 -0.4743 -1.0317  0.2013
  191MOL0     C26248   8.006  12.480   5.035 -0.0355  0.8682  0.5334
  191MOL0     C26249   8.095  12.249   4.979 -0.1624 -0.0010  0.6428
  191MOL0     C26250   8.233  12.268   5.022 -0.2887 -0.5008  0.2394
  191MOL0     O26251   8.325  12.200   4.951 -0.2622 -0.2535 -0.5596
  191MOL0     C26252   8.458  12.219   4.987 -0.0206  0.2600  0.0995
  191MOL0     C26253   8.507  12.166   5.108  0.4528  0.2735 -0.1202
  191MOL0     C26254   8.636  12.187   5.141  0.7122  0.2322  0.1805
  191MOL0     C26255   8.725  12.257   5.063  0.4827 -0.1239 -0.0841
  191MOL0     O26256   8.856  12.263   5.114 -0.1279  0.4192 -0.1843
  191MOL0     C26257   8.960  12.236   5.023 -0.4406  0.5847  1.1547
  191MOL0     C26258   9.095  12.192   5.094  0.1327  0.6610 -0.3218
  191MOL0     C26259   9.082  12.078   5.200 -0.0299  0.0781 -0.2546
  191MOL0     C26260   9.228  12.019   5.232 -0.1163 -0.0530 -0.4464
  191MOL0     C26261   9.300  12.114   5.330 -0.8113 -0.1740  0.3281
  191MOL0     C26262   9.443  12.060   5.380  0.9985  0.6678  0.1521
  191MOL0     C26263   9.432  11.939   5.484  0.1737 -0.2445  0.4913
  191MOL0     C26264   9.563  11.924   5.564 -0.2700 -0.0931  0.6400
  191MOL0    Cl26265   9.598  11.765   5.627  0.2528  0.6915  0.0678
  191MOL0     C26266   8.678  12.311   4.943 -1.4823 -0.4416 -0.1845
  191MOL0     C26267   8.544  12.288   4.905 -0.0097 -0.4912 -0.2562
  191MOL0     O26268   8.255  12.354   5.106  0.1506  0.6220  0.4807
  191MOL0     C26269   8.061  12.117   4.921  0.4647  0.0704 -0.3166
  191MOL0     C26270   7.940  12.091   4.869 -0.4197 -0.2853  0.1622
  191MOL0     N26271   7.259  12.233   4.376  0.3348 -0.7684 -0.3185
  191MOL0     N26272   7.216  12.144   4.296  0.0261 -0.7981  0.5298
  191MOL0     C26273   6.167  11.642   4.445  0.4370  0.4923 -0.2425
  191MOL0     C26274   6.041  11.587   4.477  0.7303 -0.3405  0.4706
  191MOL0     C26275   5.613  11.420   4.492 -0.9420 -1.0314 -0.1039
  191MOL0     C26276   5.560  11.388   4.364  0.2161 -0.4617 -0.6803
  191MOL0     C26277   5.420  11.375   4.353  0.5302 -0.6000 -0.6395
  191MOL0     C26278   5.348  11.373   4.475  0.3270 -0.3066 -0.2785
  191MOL0     O26279   5.217  11.337   4.485  0.1131 -0.2890  0.2040
  191MOL0     C26280   5.128  11.295   4.377  0.0613 -0.3849  0.2702
  191MOL0     C26281   4.981  11.322   4.438 -0.3949  0.2779  1.1733
  191MOL0     C26282   4.946  11.229   4.548 -1.1857 -0.1215 -0.2599
  191MOL0     C26283   4.791  11.210   4.556  0.0619  0.5868  0.1636
  191MOL0     C26284   4.732  11.105   4.476 -0.4898 -1.0915 -0.4824
  191MOL0     C26285   4.687  11.018   4.409  0.0172  0.1749  0.2261
  191MOL0     C26286   5.398  11.412   4.603  0.3934 -0.1343  0.1302
  191MOL0     C26287   5.533  11.442   4.606  0.4269 -0.4325  0.5818
  191MOL0     C26288   5.595  11.472   4.747  0.5638 -0.2339 -0.2826
  191MOL0     H26289   5.903  11.579   4.173 -0.0033  1.4679 -1.1921
  191MOL0     H26290   6.121  11.672   4.107  3.6254 -0.6992  0.2082
  191MOL0     H26291   6.476  11.659   4.173 -0.0170 -1.7927 -0.5272
  191MOL0     H26292   6.408  11.532   4.285 -0.1063 -0.4437 -0.8218
  191MOL0     H26293   6.472  11.666   4.481 -3.3259  1.4103 -2.2350
  191MOL0     H26294   6.613  11.612   4.398 -0.6689 -1.2003 -1.6230
  191MOL0     H26295   6.527  11.884   4.297 -2.6996  0.6375  0.8774
  191MOL0     H26296   6.549  11.874   4.470  0.0526 -0.0505 -1.1028
  191MOL0     H26297   6.752  11.780   4.476 -1.2263  1.2078  1.3298
  191MOL0     H26298   6.757  11.756   4.301  1.0009 -1.3875  1.9994
  191MOL0     H26299   6.741  12.047   4.384  2.1689  2.2262 -3.2570
  191MOL0     H26300   6.786  11.968   4.240  2.2593 -3.8558 -0.7495
  191MOL0     H26301   6.971  12.068   4.367 -0.6020 -0.4877  1.2015
  191MOL0     H26302   6.955  11.931   4.482 -0.0208  0.9203  0.4029
  191MOL0     H26303   7.001  11.910   4.188  0.5862 -3.0598  0.2258
  191MOL0     H26304   7.002  11.783   4.307  2.1569 -0.1947 -0.4646
  191MOL0     H26305   7.212  11.821   4.392  3.5866  0.0815 -1.1626
  191MOL0     H26306   7.230  11.862   4.227 -0.6924 -0.8751  0.6201
  191MOL0     H26307   7.248  11.986   4.584  1.2879  2.1449 -0.1014
  191MOL0     H26308   7.220  12.279   4.690  0.0246  0.5227 -0.0935
  191MOL0     H26309   7.329  12.366   4.585  1.8728 -0.1377  1.0284
  191MOL0     H26310   7.412  12.263   4.807 -0.7621 -3.1834  0.2364
  191MOL0     H26311   7.424  12.109   4.717 -0.1265 -0.2765 -1.3434
  191MOL0     H26312   7.550  12.237   4.537  1.2585  0.0244 -0.2832
  191MOL0     H26313   7.586  12.364   4.654  0.2700  0.5774 -2.1926
  191MOL0     H26314   7.658  12.068   4.657  2.4715 -0.6580 -0.5753
  191MOL0     H26315   7.762  12.218   4.642 -0.2686 -1.1476 -0.3667
  191MOL0     H26316   7.769  12.366   4.949 -1.8840 -2.9308  0.2619
  191MOL0     H26317   8.012  12.478   5.144 -1.9149  0.5567  0.6796
  191MOL0     H26318   7.922  12.539   4.995 -0.0070  0.5976  0.0587
  191MOL0     H26319   8.096  12.532   5.001 -0.7838  0.6586 -1.9625
  191MOL0     H26320   8.446  12.116   5.183 -0.7801  2.3860  0.3744
  191MOL0     H26321   8.670  12.139   5.232  1.4202  0.3066 -0.0340
  191MOL0     H26322   8.927  12.151   4.963 -2.7257  1.0450  1.6719
  191MOL0     H26323   8.996  12.316   4.958 -0.8018 -1.0745 -1.2117
  191MOL0     H26324   9.179  12.156   5.034  2.3294 -0.1745  2.9796
  191MOL0     H26325   9.129  12.271   5.162 -3.0690  0.3034  1.9266
  191MOL0     H26326   9.024  11.999   5.152  2.5791 -0.1038 -3.4936
  191MOL0     H26327   9.030  12.119   5.287 -0.9284  0.9137 -1.1550
  191MOL0     H26328   9.276  12.006   5.135  1.0022 -0.1297  0.1018
  191MOL0     H26329   9.197  11.927   5.282 -2.4642 -0.5172 -2.5625
  191MOL0     H26330   9.318  12.210   5.280 -1.1049 -0.2240  0.1219
  191MOL0     H26331   9.231  12.131   5.414 -1.5648  0.8769 -0.4693
  191MOL0     H26332   9.505  12.135   5.430  1.2472 -0.0147  0.8815
  191MOL0     H26333   9.491  12.030   5.286 -1.8252  3.5723 -2.4372
  191MOL0     H26334   9.415  11.848   5.425 -0.0842  1.2284 -1.8498
  191MOL0     H26335   9.350  11.961   5.552 -0.8133 -0.3575 -0.6238
  191MOL0     H26336   9.562  11.981   5.658 -0.9162 -1.4224  1.4791
  191MOL0     H26337   9.651  11.943   5.502  0.1528 -0.8159  1.0060
  191MOL0     H26338   8.725  12.375   4.869 -1.1951 -0.8648 -0.3696
  191MOL0     H26339   8.514  12.335   4.812  0.6851 -0.8773 -0.6851
  191MOL0     H26340   8.128  12.032   4.928 -1.8944 -1.9817 -1.2488
  191MOL0     H26341   7.927  12.000   4.811  0.0727 -0.5442  0.4582
  191MOL0     H26342   6.239  11.657   4.526  0.6627 -0.4091 -0.2667
  191MOL0     H26343   6.022  11.565   4.581  2.5147 -0.8819  0.7135
  191MOL0     H26344   5.620  11.372   4.275 -2.3932  1.1631 -2.9086
  191MOL0     H26345   5.372  11.351   4.258 -1.1621  0.7996 -0.1879
  191MOL0     H26346   5.137  11.365   4.293 -1.1341 -3.2684 -2.4511
  191MOL0     H26347   5.146  11.190   4.350 -2.0075  0.2243 -4.2861
  191MOL0     H26348   4.904  11.304   4.363  1.2612 -4.4723  0.2286
  191MOL0     H26349   4.985  11.423   4.480  0.5899  0.8585 -0.2323
  191MOL0     H26350   4.989  11.129   4.536  1.6809  0.3491  3.8342
  191MOL0     H26351   4.983  11.272   4.641 -1.0581  1.8138 -1.1544
  191MOL0     H26352   4.733  11.303   4.550  1.3959  1.5344  1.2655
  191MOL0     H26353   4.786  11.173   4.658  1.8720 -0.3976 -0.0601
  191MOL0     H26354   4.638  10.942   4.351 -1.4162 -2.3591  4.3166
  191MOL0     H26355   5.329  11.417   4.687  0.9003  2.9263  0.5106
  191MOL0     H26356   5.668  11.551   4.725  0.4822 -0.1517 -0.2617
  191MOL0     H26357   5.520  11.505   4.819  1.2046 -2.9152  1.7538
  191MOL0     H26358   5.636  11.377   4.783  2.3059  0.2560 -0.8653
  192MOL0     O26359   9.378   2.564  10.853  0.1789 -0.3601  0.2365
  192MOL0     C26360   9.260   2.542  10.877  0.5415 -0.9081 -0.3696
  192MOL0     O26361   9.209   2.510  10.995  0.0728 -0.0486  0.8529
  192MOL0     C26362   9.289   2.510  11.099 -0.5517 -0.6310  0.4878
  192MOL0     C26363   9.320   2.384  11.157 -0.7344 -0.7001 -0.6777
  192MOL0     C26364   9.390   2.383  11.275  0.9817  1.5267 -0.9439
  192MOL0     C26365   9.442   2.500  11.332  0.8362  0.6367  0.0427
  192MOL0     O26366   9.518   2.496  11.447 -0.2288 -0.1266  0.1404
  192MOL0     C26367   9.639   2.575  11.432 -0.6990 -0.4686 -0.0613
  192MOL0     C26368   9.710   2.594  11.566 -0.6562  0.3159 -0.1008
  192MOL0     C26369   9.850   2.638  11.561 -0.3095 -0.0904  0.1914
  192MOL0     C26370   9.914   2.629  11.698 -0.0525 -0.0546 -1.2022
  192MOL0     C26371  10.060   2.656  11.685  0.2648 -0.0413  0.3379
  192MOL0     C26372  10.128   2.681  11.819  0.4085  0.0465  0.1035
  192MOL0     C26373  10.274   2.704  11.810  1.0604 -1.1253  0.1805
  192MOL0     C26374  10.312   2.761  11.934  0.4863 -0.8429  0.9453
  192MOL0     N26375  10.296   2.681  12.059 -0.0639 -0.0837 -0.6813
  192MOL0     C26376  10.394   2.609  12.118 -0.0048 -0.0045 -0.5173
  192MOL0     C26377  10.344   2.559  12.236 -0.1855  0.0996 -0.3985
  192MOL0     C26378  10.408   2.498  12.357 -0.0031 -0.3473 -0.4549
  192MOL0     C26379  10.330   2.538  12.486  0.2479  0.6621  0.1214
  192MOL0     C26380  10.383   2.480  12.613  0.0234  0.4622  0.5238
  192MOL0     C26381  10.523   2.524  12.654  0.4521 -0.0396 -0.5321
  192MOL0     O26382  10.566   2.640  12.583  0.2714  0.4929 -0.3175
  192MOL0     C26383  10.698   2.678  12.586 -0.1777 -0.0709  0.1179
  192MOL0     C26384  10.735   2.806  12.559 -0.0134  0.1589  0.2980
  192MOL0     C26385  10.874   2.840  12.555  0.3240 -0.1031  0.4702
  192MOL0     C26386  10.900   2.983  12.517  1.4475 -0.3946  0.0623
  192MOL0     C26387  10.981   2.747  12.577 -0.6747  0.7457 -0.0459
  192MOL0     C26388  11.126   2.783  12.552 -0.3382  0.4296 -0.1191
  192MOL0     O26389  11.222   2.716  12.622 -0.4055  0.0751  0.1893
  192MOL0     C26390  11.336   2.701  12.554 -0.2483 -0.7667  0.2825
  192MOL0     C26391  11.365   2.582  12.494 -0.1923 -0.0493  0.3540
  192MOL0     C26392  11.482   2.566  12.413  0.7922  0.5269  0.3134
  192MOL0     C26393  11.567   2.672  12.398  0.1810 -0.7630 -0.7356
  192MOL0     O26394  11.682   2.635  12.337 -0.0060 -0.6488  0.2898
  192MOL0     C26395  11.767   2.725  12.276 -0.5375  0.2725 -0.1692
  192MOL0     C26396  11.884   2.645  12.214 -0.8717 -0.1520 -0.9989
  192MOL0     C26397  11.951   2.563  12.323 -0.7117  0.1992 -0.3888
  192MOL0     C26398  12.059   2.475  12.267  0.3086 -1.0176 -0.6456
  192MOL0     C26399  12.183   2.453  12.358  0.6425  0.8555 -0.1609
  192MOL0     C26400  12.297   2.390  12.264  0.6364  0.0299 -0.5213
  192MOL0     C26401  12.260   2.250  12.231 -0.4497 -0.5649  0.1784
  192MOL0     C26402  12.384   2.173  12.196  0.1805  0.1042 -0.0911
  192MOL0    Cl26403  12.424   2.217  12.028 -0.2199  0.4825 -0.1845
  192MOL0     C26404  11.541   2.798  12.453 -0.9314  0.8946  0.3485
  192MOL0     C26405  11.431   2.813  12.540  0.2627  0.8390  0.8191
  192MOL0     O26406  11.151   2.870  12.467  0.7301 -0.4714  0.2818
  192MOL0     C26407  10.943   2.623  12.623 -1.2645  0.2087  0.3497
  192MOL0     C26408  10.805   2.589  12.627 -0.0244  0.2194  0.3929
  192MOL0     N26409  10.208   2.593  12.230  0.5795 -0.4666  0.8763
  192MOL0     N26410  10.178   2.659  12.128 -0.2587 -0.1392 -0.9335
  192MOL0     C26411   9.396   2.630  11.289  0.7242  0.2128 -0.9869
  192MOL0     C26412   9.315   2.627  11.175  0.2703 -0.0236 -0.1237
  192MOL0     C26413   9.168   2.558  10.762 -0.0910  0.1737 -0.3193
  192MOL0     C26414   9.040   2.514  10.774 -0.8002  0.8215  0.4026
  192MOL0     C26415   8.937   2.549  10.690 -0.3913  0.0132  0.5216
  192MOL0     C26416   8.959   2.611  10.566 -0.8287  0.5082 -0.9414
  192MOL0     O26417   8.853   2.629  10.481 -0.4276 -0.5478 -0.3052
  192MOL0     C26418   8.862   2.747  10.401  0.0334 -0.7434 -0.4316
  192MOL0     C26419   8.722   2.805  10.369 -0.6328  0.2480 -0.6636
  192MOL0     C26420   8.676   2.899  10.475 -0.6387  0.7712 -0.0376
  192MOL0     C26421   8.537   2.955  10.440 -0.6883 -0.9735 -0.4622
  192MOL0     C26422   8.531   3.031  10.318 -0.1579 -0.5835  0.2659
  192MOL0     C26423   8.524   3.086  10.212 -0.1523  0.1742  0.3053
  192MOL0     C26424   9.092   2.630  10.533  0.2620 -0.7744  0.5456
  192MOL0     C26425   9.199   2.616  10.633  0.3604  0.6549 -0.0057
  192MOL0     C26426   9.339   2.646  10.583 -0.5691 -0.8526 -0.1313
  192MOL0     H26427   9.276   2.292  11.118 -2.1349 -0.7492  0.9145
  192MOL0     H26428   9.404   2.283  11.315 -1.2771  0.2585 -3.0319
  192MOL0     H26429   9.614   2.676  11.399 -2.3880 -0.2347  1.7782
  192MOL0     H26430   9.712   2.536  11.359 -1.6075  2.6022 -2.8543
  192MOL0     H26431   9.650   2.644  11.642  0.6404  0.3122  0.9685
  192MOL0     H26432   9.719   2.486  11.585  2.1396  0.2458 -1.3375
  192MOL0     H26433   9.896   2.563  11.496 -3.1934 -0.5273 -1.5021
  192MOL0     H26434   9.863   2.737  11.517 -0.4516 -0.6844 -1.2395
  192MOL0     H26435   9.866   2.700  11.765  0.3902 -1.2246  0.4068
  192MOL0     H26436   9.900   2.531  11.746  2.1675  0.2564  0.2633
  192MOL0     H26437  10.081   2.744  11.623  1.4566 -0.2469  0.4103
  192MOL0     H26438  10.104   2.569  11.637  0.1238  1.0287 -1.8731
  192MOL0     H26439  10.080   2.770  11.860  2.7015  0.8567  1.1774
  192MOL0     H26440  10.115   2.598  11.889 -1.4352 -1.6055 -2.0308
  192MOL0     H26441  10.300   2.772  11.729 -0.6811  2.2148  2.2031
  192MOL0     H26442  10.326   2.609  11.796  0.8527 -1.0465 -1.3101
  192MOL0     H26443  10.418   2.777  11.911 -0.1404  0.4453 -1.3382
  192MOL0     H26444  10.274   2.861  11.956  1.7710 -0.3022  0.8188
  192MOL0     H26445  10.500   2.611  12.094  0.2468  1.6375  0.5404
  192MOL0     H26446  10.508   2.543  12.351  0.2426 -1.0645 -2.7210
  192MOL0     H26447  10.406   2.389  12.346  1.1196 -0.4415  0.0945
  192MOL0     H26448  10.322   2.645  12.507 -0.7180  0.2971  1.7442
  192MOL0     H26449  10.233   2.487  12.477 -0.3160  1.8328 -0.7108
  192MOL0     H26450  10.323   2.507  12.701  1.4843 -0.3723  1.8467
  192MOL0     H26451  10.386   2.370  12.606  1.0337  0.4775  0.5119
  192MOL0     H26452  10.533   2.532  12.763 -0.5433 -1.1251 -0.3473
  192MOL0     H26453  10.577   2.432  12.628 -0.9865 -1.1972  0.4592
  192MOL0     H26454  10.659   2.874  12.522 -1.1089  0.0487  2.2446
  192MOL0     H26455  10.808   3.041  12.504  2.1899  0.6622 -0.6374
  192MOL0     H26456  10.931   2.982  12.412  2.7857 -0.6237  0.4360
  192MOL0     H26457  10.966   3.027  12.592  0.8853 -1.5057  1.2356
  192MOL0     H26458  11.299   2.497  12.514 -1.1841 -0.0354 -2.4044
  192MOL0     H26459  11.501   2.466  12.374  3.4737  0.3332  1.8589
  192MOL0     H26460  11.710   2.778  12.199  1.7355 -0.1989 -2.2875
  192MOL0     H26461  11.816   2.795  12.344  1.1804 -2.1063  1.2123
  192MOL0     H26462  11.842   2.571  12.145 -1.7920  0.4558 -1.1038
  192MOL0     H26463  11.960   2.707  12.166 -0.6339  0.3092 -0.0622
  192MOL0     H26464  11.884   2.501  12.383 -1.2787  1.4881  0.3369
  192MOL0     H26465  12.001   2.631  12.393 -0.8584 -0.4169  0.3351
  192MOL0     H26466  12.103   2.504  12.171  0.6345  0.7415 -0.0046
  192MOL0     H26467  12.021   2.374  12.247 -0.6849 -1.2041  1.8776
  192MOL0     H26468  12.213   2.554  12.386  1.1160  1.3536 -2.2813
  192MOL0     H26469  12.165   2.389  12.444 -0.0296 -0.0676 -0.9537
  192MOL0     H26470  12.396   2.390  12.311 -0.5666  0.6626  2.1657
  192MOL0     H26471  12.307   2.444  12.169  2.5347 -2.8972 -2.1441
  192MOL0     H26472  12.190   2.232  12.149 -0.7748 -4.5839  1.1436
  192MOL0     H26473  12.219   2.205  12.322 -0.7594 -0.9831 -0.1602
  192MOL0     H26474  12.358   2.067  12.204  1.2697 -0.1058  1.0407
  192MOL0     H26475  12.469   2.190  12.264 -0.5513 -1.1031  1.2009
  192MOL0     H26476  11.605   2.881  12.423 -2.7601  1.8772 -1.0316
  192MOL0     H26477  11.398   2.904  12.589  0.8990  0.4980  1.9037
  192MOL0     H26478  11.026   2.555  12.635 -0.9538  0.5892  0.3960
  192MOL0     H26479  10.777   2.486  12.642 -2.5850  0.9080  0.9187
  192MOL0     H26480   9.419   2.725  11.336 -1.6514  0.5493 -0.3575
  192MOL0     H26481   9.280   2.718  11.127  2.4460  0.9273 -0.0523
  192MOL0     H26482   9.011   2.449  10.856 -3.7362 -0.3856 -1.4794
  192MOL0     H26483   8.841   2.512  10.724 -0.9104  0.5202 -0.3543
  192MOL0     H26484   8.909   2.824  10.463 -2.5612 -0.7089  1.6769
  192MOL0     H26485   8.922   2.742  10.310 -1.3080  1.4681 -1.5291
  192MOL0     H26486   8.652   2.727  10.339  0.4820 -0.7224 -0.8108
  192MOL0     H26487   8.745   2.860  10.277 -0.2014 -0.2278 -0.8448
  192MOL0     H26488   8.675   2.844  10.569  1.6706  2.0226  0.7880
  192MOL0     H26489   8.743   2.985  10.480 -0.7028  0.8908 -1.0095
  192MOL0     H26490   8.516   3.030  10.518 -0.6937 -1.9872  0.5404
  192MOL0     H26491   8.455   2.882  10.440 -1.9536  0.4024 -1.1588
  192MOL0     H26492   8.504   3.134  10.118 -0.7056 -0.0996  0.2765
  192MOL0     H26493   9.117   2.669  10.435  2.3235 -2.2812  0.4058
  192MOL0     H26494   9.319   2.725  10.509 -1.3158  0.2411  1.1970
  192MOL0     H26495   9.416   2.685  10.651  1.0751  0.8918 -2.7880
  192MOL0     H26496   9.376   2.555  10.535  0.7224  0.2262 -1.2703
  193MOL0     O26497   6.754   1.180  10.262 -0.6592  0.4211 -0.6706
  193MOL0     C26498   6.729   1.287  10.213 -0.3729  0.3755 -0.3030
  193MOL0     O26499   6.816   1.372  10.164  0.4240  0.5313  0.4962
  193MOL0     C26500   6.951   1.367  10.192  0.4138  0.4021  0.7139
  193MOL0     C26501   7.047   1.350  10.094  0.2543  0.2442  0.6598
  193MOL0     C26502   7.180   1.337  10.137  0.1132  0.9425  0.2098
  193MOL0     C26503   7.222   1.346  10.270  0.1770  0.5384 -0.2034
  193MOL0     O26504   7.358   1.328  10.288  0.4958  0.4672  0.3593
  193MOL0     C26505   7.417   1.377  10.404 -0.2570 -0.1678  0.5244
  193MOL0     C26506   7.563   1.355  10.382 -0.0748  0.5520  0.5677
  193MOL0     C26507   7.638   1.483  10.338 -0.2916  0.7812 -0.1760
  193MOL0     C26508   7.786   1.443  10.309 -0.8219 -0.8036  0.3891
  193MOL0     C26509   7.870   1.567  10.311 -0.5215 -0.3141  0.9797
  193MOL0     C26510   8.016   1.544  10.276 -0.3640  0.1001  0.6601
  193MOL0     C26511   8.088   1.682  10.282 -0.9734  0.4074  0.0315
  193MOL0     C26512   8.065   1.754  10.147  0.1897  0.3152  0.6411
  193MOL0     N26513   8.096   1.892  10.160 -0.8012 -0.0318 -0.2771
  193MOL0     C26514   8.218   1.938  10.209 -0.3386  1.1580  0.4418
  193MOL0     C26515   8.217   2.076  10.197  0.3472  0.5815 -1.1537
  193MOL0     C26516   8.317   2.176  10.237 -0.8189  0.2385  0.0406
  193MOL0     C26517   8.258   2.311  10.266  1.1254  0.2544  0.0750
  193MOL0     C26518   8.370   2.406  10.313  0.1080 -0.4342 -0.1087
  193MOL0     C26519   8.315   2.534  10.378  0.5253  0.4149  0.2329
  193MOL0     O26520   8.260   2.497  10.509 -0.0183 -0.0162 -0.6944
  193MOL0     C26521   8.332   2.526  10.623  0.7680  1.2656  0.7899
  193MOL0     C26522   8.270   2.521  10.748 -0.0198 -0.0660 -0.2058
  193MOL0     C26523   8.346   2.544  10.866  0.3333 -0.1138 -0.2434
  193MOL0     C26524   8.274   2.540  10.998  0.5287  0.4468 -0.3829
  193MOL0     C26525   8.487   2.583  10.857 -0.4207 -0.2685  0.1002
  193MOL0     C26526   8.567   2.635  10.969 -0.1456  0.3373  0.3101
  193MOL0     O26527   8.696   2.695  10.934  0.7521 -0.1732  0.5722
  193MOL0     C26528   8.797   2.701  11.030  0.7779  0.2155  0.1597
  193MOL0     C26529   8.833   2.579  11.089 -0.7114  0.2883  0.1711
  193MOL0     C26530   8.926   2.576  11.191 -0.6243 -0.8136  0.1945
  193MOL0     C26531   8.974   2.699  11.245 -0.5482 -0.4608  0.3546
  193MOL0     O26532   9.051   2.720  11.358  0.1949 -0.5948  0.3783
  193MOL0     C26533   9.083   2.601  11.429  0.1566  0.3398  0.1193
  193MOL0     C26534   9.149   2.645  11.557 -1.2222  0.5179  0.4191
  193MOL0     C26535   9.191   2.533  11.651 -0.3822 -0.5561 -0.2577
  193MOL0     C26536   9.301   2.580  11.748 -0.2349 -0.1964 -0.2833
  193MOL0     C26537   9.360   2.457  11.827  0.0338  0.1286  0.2842
  193MOL0     C26538   9.433   2.514  11.954 -0.2293  0.2611  0.8189
  193MOL0     C26539   9.538   2.417  12.013  0.1084 -0.0916 -0.3284
  193MOL0     C26540   9.481   2.343  12.131 -0.1373  0.2317 -0.0529
  193MOL0    Cl26541   9.370   2.220  12.075 -0.1620 -0.4355  0.2261
  193MOL0     C26542   8.938   2.822  11.188  0.1023 -0.0884  1.2308
  193MOL0     C26543   8.844   2.828  11.078  0.0312 -0.2862  0.4080
  193MOL0     O26544   8.540   2.589  11.078  0.5250 -1.5131 -0.0194
  193MOL0     C26545   8.542   2.596  10.726  0.1711 -0.5697 -0.3739
  193MOL0     C26546   8.468   2.565  10.615  0.0115 -0.5964  0.5336
  193MOL0     N26547   8.088   2.107  10.150  0.2744 -0.6723 -0.6887
  193MOL0     N26548   8.023   1.999  10.135  0.7987  0.0745  0.1987
  193MOL0     C26549   7.122   1.359  10.369  0.2942 -0.5382 -0.9124
  193MOL0     C26550   6.985   1.376  10.329 -0.4688 -0.0786 -0.2554
  193MOL0     C26551   6.589   1.322  10.208  0.2222 -0.6946 -0.5692
  193MOL0     C26552   6.493   1.216  10.235  0.2643 -0.9987 -1.1644
  193MOL0     C26553   6.355   1.244  10.253 -0.4344  0.4471  0.3835
  193MOL0     C26554   6.308   1.376  10.234  0.0398  0.2361 -1.4671
  193MOL0     O26555   6.175   1.393  10.248  0.1565  0.4349 -0.0345
  193MOL0     C26556   6.094   1.390  10.127 -1.2936 -0.0034  0.3209
  193MOL0     C26557   5.977   1.294  10.156 -0.6792 -0.4292 -0.1196
  193MOL0     C26558   5.888   1.355  10.258  0.4701  0.1226 -0.5762
  193MOL0     C26559   5.805   1.256  10.336  0.1886 -0.6782 -0.4221
  193MOL0     C26560   5.883   1.181  10.431 -1.4373 -0.2182 -0.8984
  193MOL0     C26561   5.945   1.109  10.510 -0.1776  0.1689  0.3051
  193MOL0     C26562   6.399   1.474  10.200  0.3803  0.1961  0.1690
  193MOL0     C26563   6.535   1.457  10.185  0.1350  0.9546  0.2827
  193MOL0     C26564   6.622   1.569  10.142  0.2646 -0.4277 -0.2279
  193MOL0     H26565   7.012   1.335   9.992 -0.8500 -1.6641  1.2624
  193MOL0     H26566   7.260   1.330  10.063 -0.4362  0.0839 -0.3155
  193MOL0     H26567   7.393   1.316  10.492  1.6515 -0.4985  0.8612
  193MOL0     H26568   7.404   1.483  10.426 -1.5633  0.0234 -0.9803
  193MOL0     H26569   7.601   1.327  10.481 -1.7751  1.1394  1.4211
  193MOL0     H26570   7.585   1.274  10.311 -0.4132 -0.4537  1.5886
  193MOL0     H26571   7.594   1.517  10.244  0.7879 -2.4385 -1.9917
  193MOL0     H26572   7.630   1.562  10.414 -2.1197  1.5544 -1.0971
  193MOL0     H26573   7.818   1.377  10.391  0.6336  0.5944  0.9983
  193MOL0     H26574   7.794   1.395  10.212 -3.3315 -0.5298 -0.0377
  193MOL0     H26575   7.877   1.612  10.411 -0.1900 -0.8448  1.2047
  193MOL0     H26576   7.819   1.634  10.242  1.0544  0.8829  0.9099
  193MOL0     H26577   8.057   1.483  10.357 -0.4127  1.2081  1.5359
  193MOL0     H26578   8.039   1.496  10.181  0.1324 -0.5554  1.0994
  193MOL0     H26579   8.193   1.651  10.273 -0.0195  3.1651  0.4103
  193MOL0     H26580   8.061   1.742  10.369  0.0659 -0.9946  1.3758
  193MOL0     H26581   8.124   1.709  10.067 -2.4094 -0.7728 -0.7645
  193MOL0     H26582   7.964   1.754  10.106  1.3306 -2.5747 -2.6823
  193MOL0     H26583   8.309   1.882  10.225 -0.4728  0.8641  0.2034
  193MOL0     H26584   8.394   2.185  10.159 -0.6410  1.0969  0.3013
  193MOL0     H26585   8.364   2.127  10.323 -1.2180 -0.7852 -0.3054
  193MOL0     H26586   8.196   2.335  10.179 -0.3185 -1.6739  0.5080
  193MOL0     H26587   8.188   2.296  10.350  1.5540 -2.8794 -0.0149
  193MOL0     H26588   8.433   2.357  10.388 -0.2180  0.6021  0.8639
  193MOL0     H26589   8.436   2.444  10.235 -0.3862  1.6772  0.4619
  193MOL0     H26590   8.378   2.623  10.365 -1.0097  1.0872 -4.3304
  193MOL0     H26591   8.231   2.575  10.321  0.1619 -0.4143  0.1559
  193MOL0     H26592   8.162   2.506  10.747  0.1434 -1.5387 -2.1086
  193MOL0     H26593   8.165   2.540  10.987  0.0787  1.5587  3.0255
  193MOL0     H26594   8.305   2.628  11.053  0.1603  0.9267 -0.9307
  193MOL0     H26595   8.310   2.461  11.064 -3.4569  0.1108  1.6696
  193MOL0     H26596   8.795   2.484  11.053 -0.6307  0.6365 -0.8788
  193MOL0     H26597   8.945   2.477  11.231 -0.7471 -1.2013 -0.6855
  193MOL0     H26598   9.007   2.525  11.446  1.3740 -0.8778  0.3128
  193MOL0     H26599   9.159   2.553  11.367  0.2521  3.4404 -2.4318
  193MOL0     H26600   9.245   2.691  11.530 -0.1149 -1.7288  0.2969
  193MOL0     H26601   9.093   2.716  11.619  0.4131  2.3282 -0.0590
  193MOL0     H26602   9.243   2.458  11.591  1.3293  0.6310 -0.3732
  193MOL0     H26603   9.103   2.485  11.693 -0.4950 -2.3957 -2.4183
  193MOL0     H26604   9.253   2.655  11.812  0.4175 -1.4557  1.7489
  193MOL0     H26605   9.380   2.631  11.692 -0.9913  0.7618 -0.5245
  193MOL0     H26606   9.273   2.397  11.856 -0.7532  1.0926 -0.0499
  193MOL0     H26607   9.439   2.405  11.772  1.2430  1.4281  0.7497
  193MOL0     H26608   9.359   2.542  12.029 -1.5448  0.6152 -0.5803
  193MOL0     H26609   9.483   2.608  11.928 -0.2469  0.1385  0.3367
  193MOL0     H26610   9.625   2.476  12.046 -0.1364  2.2358 -3.4149
  193MOL0     H26611   9.567   2.354  11.928 -1.6207 -3.5602  1.4642
  193MOL0     H26612   9.434   2.407  12.206  0.7529 -1.6061  2.1713
  193MOL0     H26613   9.557   2.294  12.192 -2.6294  0.3973  3.4640
  193MOL0     H26614   8.982   2.914  11.226  1.2394  0.5190 -1.3485
  193MOL0     H26615   8.818   2.924  11.035  3.1470  0.5868  0.2095
  193MOL0     H26616   8.647   2.614  10.702  0.1415  1.1341  0.6088
  193MOL0     H26617   8.520   2.577  10.520 -1.7951 -3.6612 -1.0022
  193MOL0     H26618   7.149   1.359  10.474 -0.2826  4.7811 -0.4550
  193MOL0     H26619   6.902   1.381  10.399  0.8577 -0.2908  1.4150
  193MOL0     H26620   6.521   1.115  10.265 -1.2650 -1.1703 -0.1770
  193MOL0     H26621   6.280   1.171  10.280 -1.0502  0.9576  0.0743
  193MOL0     H26622   6.063   1.487  10.088 -0.4475  0.4279  0.7107
  193MOL0     H26623   6.153   1.353  10.043  2.1957 -0.8855  2.9048
  193MOL0     H26624   6.013   1.199  10.195 -0.1971  0.0908  0.7261
  193MOL0     H26625   5.923   1.268  10.064  0.2318 -1.1592 -0.4688
  193MOL0     H26626   5.945   1.404  10.337 -0.6156  1.0138 -0.3127
  193MOL0     H26627   5.822   1.425  10.206 -0.9480 -1.4054 -0.9164
  193MOL0     H26628   5.738   1.199  10.270  0.4535  0.3230 -1.5972
  193MOL0     H26629   5.738   1.320  10.395 -2.6541 -2.1062 -1.8941
  193MOL0     H26630   5.991   1.041  10.579  0.7953 -0.9850 -1.4105
  193MOL0     H26631   6.355   1.571  10.177  2.3795  0.8021 -1.3832
  193MOL0     H26632   6.566   1.657  10.110  1.2109  1.6662  3.2964
  193MOL0     H26633   6.663   1.612  10.234  0.8617  0.9018 -1.0910
  193MOL0     H26634   6.693   1.546  10.062 -0.5859  2.6764 -2.0688
  194MOL0     O26635   3.216   8.409   3.887 -0.3967  0.4057  0.3100
  194MOL0     C26636   3.101   8.388   3.931 -0.3137 -0.4515  0.4632
  194MOL0     O26637   3.068   8.398   4.059 -0.0423 -0.3465  0.2991
  194MOL0     C26638   3.167   8.418   4.150  0.7143  0.6487  0.0378
  194MOL0     C26639   3.279   8.330   4.164  0.3149  0.3432  0.0574
  194MOL0     C26640   3.368   8.355   4.274  0.4898  0.1803 -0.4006
  194MOL0     C26641   3.334   8.445   4.376 -0.5137 -0.5067 -0.5709
  194MOL0     O26642   3.442   8.461   4.461 -0.1379  0.0712 -0.7436
  194MOL0     C26643   3.445   8.573   4.553  0.0583  0.2969  0.5281
  194MOL0     C26644   3.551   8.557   4.662 -0.9651 -1.0616 -1.1660
  194MOL0     C26645   3.692   8.592   4.606 -0.5031  0.7124  0.7655
  194MOL0     C26646   3.733   8.500   4.489 -0.1511 -0.1068 -0.3208
  194MOL0     C26647   3.871   8.525   4.448  0.4469 -0.0180 -0.3313
  194MOL0     C26648   3.890   8.494   4.303 -0.0046 -0.1768 -0.3235
  194MOL0     C26649   4.029   8.527   4.261  0.3939  0.2246 -0.6906
  194MOL0     C26650   4.062   8.677   4.232  0.3457 -0.0543 -0.5925
  194MOL0     N26651   4.207   8.689   4.216 -0.5556  0.1907 -0.1002
  194MOL0     C26652   4.282   8.619   4.128 -1.2930 -0.5069  0.0960
  194MOL0     C26653   4.408   8.656   4.151  0.5175  0.2122  0.3353
  194MOL0     C26654   4.532   8.606   4.092  0.0871  0.8590  0.1679
  194MOL0     C26655   4.537   8.616   3.944 -1.2027 -0.0021 -0.3880
  194MOL0     C26656   4.681   8.586   3.894 -0.1030  0.4243 -0.1215
  194MOL0     C26657   4.730   8.436   3.912  0.7296  0.8377 -0.3652
  194MOL0     O26658   4.789   8.422   4.042 -0.1644  0.3183 -0.1065
  194MOL0     C26659   4.813   8.294   4.088 -0.5175 -0.9925 -0.5403
  194MOL0     C26660   4.863   8.274   4.216 -0.4094  0.1928 -0.3455
  194MOL0     C26661   4.868   8.139   4.278 -0.5814 -0.2018  0.5800
  194MOL0     C26662   4.922   8.134   4.423 -0.6111  0.2927 -0.4111
  194MOL0     C26663   4.833   8.024   4.207 -0.4321 -0.3705  0.4479
  194MOL0     C26664   4.841   7.884   4.261 -0.2360  0.3093 -0.3325
  194MOL0     O26665   4.857   7.864   4.393  0.5413 -0.0994  0.2864
  194MOL0     C26666   4.855   7.733   4.433 -0.0686  0.3970 -0.5995
  194MOL0     C26667   4.973   7.654   4.436 -0.0376  0.1319  0.3008
  194MOL0     C26668   4.963   7.517   4.471  0.0606 -0.1597 -0.2029
  194MOL0     C26669   4.848   7.474   4.537 -0.0062 -0.5612 -0.5566
  194MOL0     O26670   4.825   7.362   4.602 -0.2024  0.5671 -0.0514
  194MOL0     C26671   4.918   7.263   4.602  0.3041 -0.0226 -0.1679
  194MOL0     C26672   4.891   7.159   4.711 -0.0529  0.0849  0.3762
  194MOL0     C26673   5.018   7.072   4.723  0.2984 -0.6709 -0.7682
  194MOL0     C26674   5.008   7.000   4.851  0.3456  0.2170 -0.0488
  194MOL0     C26675   4.878   6.927   4.872  0.0037 -0.4393 -0.6458
  194MOL0     C26676   4.885   6.840   5.001  0.1811 -1.2578  0.7873
  194MOL0     C26677   4.918   6.912   5.128  0.2277  1.0280  0.1858
  194MOL0     C26678   4.882   6.832   5.250  1.1617 -0.0311 -0.2094
  194MOL0    Cl26679   4.882   6.941   5.385 -0.0248  0.2147  0.0859
  194MOL0     C26680   4.734   7.556   4.539  0.1332 -0.1993 -0.1989
  194MOL0     C26681   4.726   7.684   4.481 -0.3838 -0.7854 -1.3258
  194MOL0     O26682   4.822   7.794   4.181 -0.1848 -0.4920 -0.8684
  194MOL0     C26683   4.792   8.043   4.071 -0.0215 -0.1346  0.5787
  194MOL0     C26684   4.786   8.175   4.013 -0.9277 -1.2609 -0.0213
  194MOL0     N26685   4.415   8.736   4.265  0.4839 -0.4125 -0.8997
  194MOL0     N26686   4.292   8.757   4.301  0.5000  0.4570  0.5466
  194MOL0     C26687   3.225   8.537   4.355 -0.9937 -0.7455  0.9885
  194MOL0     C26688   3.140   8.520   4.246 -1.0168  1.0331  0.3614
  194MOL0     C26689   2.993   8.363   3.826 -0.5855  0.2945  0.6096
  194MOL0     C26690   3.035   8.306   3.705  0.4345  0.3906 -0.4806
  194MOL0     C26691   2.949   8.308   3.599 -0.3802 -0.6918 -0.2148
  194MOL0     C26692   2.809   8.327   3.619  0.6067 -1.2537 -0.1069
  194MOL0     O26693   2.709   8.347   3.524  0.2305  0.2237 -0.1525
  194MOL0     C26694   2.738   8.281   3.401  0.2335 -0.1422 -0.1051
  194MOL0     C26695   2.608   8.256   3.309 -0.1857  0.2122 -0.8196
  194MOL0     C26696   2.632   8.142   3.209 -0.1588 -0.0608  0.7210
  194MOL0     C26697   2.507   8.114   3.117 -0.7610 -0.2806  0.1398
  194MOL0     C26698   2.519   7.995   3.038 -1.0017  0.9766 -0.1982
  194MOL0     C26699   2.507   7.888   2.974  0.4464 -0.4524 -0.1793
  194MOL0     C26700   2.763   8.372   3.745  0.8829 -0.0317  0.1610
  194MOL0     C26701   2.850   8.400   3.842  0.0851  0.4719 -0.4155
  194MOL0     C26702   2.785   8.453   3.965  0.4713  0.4503  0.4417
  194MOL0     H26703   3.310   8.258   4.089  0.6472 -0.5694  1.0412
  194MOL0     H26704   3.463   8.304   4.287 -1.0507 -2.5378  1.0672
  194MOL0     H26705   3.345   8.578   4.597 -0.0036  0.0177  0.4214
  194MOL0     H26706   3.453   8.669   4.500 -2.0368  0.7625  0.9715
  194MOL0     H26707   3.531   8.623   4.746  1.9332 -1.5277  0.0248
  194MOL0     H26708   3.546   8.455   4.702  0.1886 -0.4448  0.6680
  194MOL0     H26709   3.700   8.700   4.585 -0.0109  0.4227 -0.6597
  194MOL0     H26710   3.758   8.568   4.690 -0.2164  0.7843  0.5635
  194MOL0     H26711   3.721   8.395   4.516 -0.6001  0.0942  0.3012
  194MOL0     H26712   3.667   8.521   4.405  0.4095 -1.4817 -1.1220
  194MOL0     H26713   3.932   8.459   4.510  0.9326 -0.6028 -1.4056
  194MOL0     H26714   3.880   8.632   4.469 -0.0901 -0.2152  0.9869
  194MOL0     H26715   3.886   8.385   4.298  0.3160 -0.6125  4.4258
  194MOL0     H26716   3.816   8.542   4.237  0.8864 -0.7857 -1.8284
  194MOL0     H26717   4.054   8.467   4.173  0.1262  1.3668 -1.5629
  194MOL0     H26718   4.105   8.497   4.335  0.2342 -1.9373 -1.3459
  194MOL0     H26719   4.012   8.712   4.141  0.2525  3.7274  0.7203
  194MOL0     H26720   4.026   8.741   4.313 -2.3781 -1.0398 -0.9064
  194MOL0     H26721   4.252   8.550   4.049  1.0796  1.4599 -2.7393
  194MOL0     H26722   4.552   8.504   4.127 -1.4401 -0.2361 -1.9635
  194MOL0     H26723   4.606   8.672   4.138 -3.5871  3.7496  2.4964
  194MOL0     H26724   4.463   8.549   3.900 -1.8857  0.6158 -0.1920
  194MOL0     H26725   4.513   8.719   3.916  0.5259  0.8864  1.1652
  194MOL0     H26726   4.681   8.618   3.789  2.8948 -0.4406 -0.4784
  194MOL0     H26727   4.747   8.660   3.940  1.9997 -1.6981  0.5006
  194MOL0     H26728   4.636   8.381   3.900  0.1418  1.3299  1.6358
  194MOL0     H26729   4.800   8.396   3.837 -1.7881  1.5926 -3.3258
  194MOL0     H26730   4.881   8.358   4.282 -0.3832 -0.2376  0.2064
  194MOL0     H26731   4.858   8.080   4.493 -0.1067  1.0326  0.6573
  194MOL0     H26732   4.924   8.229   4.477  1.4384 -0.1044  0.3138
  194MOL0     H26733   5.022   8.090   4.431  0.8612  3.5329  0.6853
  194MOL0     H26734   5.062   7.693   4.386 -1.3956 -0.3210 -2.6969
  194MOL0     H26735   5.042   7.448   4.443  1.1356 -0.0485  2.3011
  194MOL0     H26736   4.930   7.217   4.503  0.3579  1.4577 -0.8735
  194MOL0     H26737   5.017   7.302   4.627  1.7522 -2.2258 -2.0539
  194MOL0     H26738   4.862   7.217   4.800  2.2744  2.5525 -0.3391
  194MOL0     H26739   4.804   7.110   4.667 -0.2341  1.7205 -1.2116
  194MOL0     H26740   5.105   7.138   4.712 -0.3804  1.2152  3.2557
  194MOL0     H26741   5.019   6.999   4.642 -1.2625 -2.6176  0.8619
  194MOL0     H26742   5.017   7.072   4.933 -0.2283  0.0928  0.1257
  194MOL0     H26743   5.085   6.922   4.853 -1.2226 -1.3876 -0.4949
  194MOL0     H26744   4.786   6.981   4.895  0.3451 -1.1849  3.0271
  194MOL0     H26745   4.856   6.864   4.785  1.1172 -1.7667 -0.0036
  194MOL0     H26746   4.954   6.756   4.985 -1.5342 -2.4828 -0.5318
  194MOL0     H26747   4.784   6.799   5.007 -1.3989  2.1150 -0.4587
  194MOL0     H26748   4.851   6.999   5.132  0.2254  1.0259  3.7233
  194MOL0     H26749   5.025   6.936   5.127  0.4447  0.7327 -4.6009
  194MOL0     H26750   4.956   6.753   5.266 -0.0381 -0.6456  3.0262
  194MOL0     H26751   4.781   6.791   5.245  1.8757 -1.7130 -1.9095
  194MOL0     H26752   4.638   7.512   4.565  1.1335 -2.4292 -0.0958
  194MOL0     H26753   4.645   7.754   4.499  1.6864  1.0164  2.0924
  194MOL0     H26754   4.755   7.955   4.020 -1.4862 -0.2910  1.8424
  194MOL0     H26755   4.734   8.189   3.919 -1.2845  1.0247  0.4706
  194MOL0     H26756   3.211   8.621   4.422  0.7448 -0.1473  0.6506
  194MOL0     H26757   3.055   8.583   4.224 -1.1215 -0.0253 -2.7720
  194MOL0     H26758   3.138   8.275   3.692  1.2123  3.3723 -2.5509
  194MOL0     H26759   2.993   8.274   3.506  1.6002  1.0612  0.0124
  194MOL0     H26760   2.798   8.347   3.339  0.0072 -0.0034 -0.1778
  194MOL0     H26761   2.790   8.186   3.419 -0.3581 -0.1261  1.9820
  194MOL0     H26762   2.594   8.346   3.249  0.0227 -0.3170 -1.6830
  194MOL0     H26763   2.516   8.226   3.360 -1.5095  0.8025 -2.7845
  194MOL0     H26764   2.716   8.158   3.142 -0.8805  0.6438 -0.0317
  194MOL0     H26765   2.648   8.044   3.255  1.8246 -0.1779 -0.1373
  194MOL0     H26766   2.488   8.204   3.057 -1.0906  1.6316  2.9194
  194MOL0     H26767   2.411   8.100   3.169 -3.1124  1.9125 -3.2099
  194MOL0     H26768   2.517   7.800   2.912  0.6018 -0.2955 -0.3796
  194MOL0     H26769   2.659   8.391   3.766  0.1120 -2.2634 -1.2882
  194MOL0     H26770   2.747   8.370   4.025  0.3194 -1.1942 -1.8250
  194MOL0     H26771   2.856   8.515   4.020  0.0466  0.2942  1.1847
  194MOL0     H26772   2.706   8.521   3.932  0.7123  0.5434  0.0557
  195MOL0     O26773   2.654   6.343   6.122  1.3352 -0.1211  0.1128
  195MOL0     C26774   2.576   6.304   6.041  0.4408 -0.7981  0.0872
  195MOL0     O26775   2.471   6.385   6.006 -0.0484 -0.5948  0.2399
  195MOL0     C26776   2.464   6.527   6.007  0.3914  0.7341 -0.9223
  195MOL0     C26777   2.577   6.616   6.036 -0.0830 -0.2639  0.4063
  195MOL0     C26778   2.570   6.764   6.038  1.1817  0.5212 -0.1316
  195MOL0     C26779   2.439   6.816   6.020  0.2488 -0.0138 -0.0919
  195MOL0     O26780   2.426   6.955   6.040  0.0746 -0.0119 -0.1436
  195MOL0     C26781   2.305   7.032   6.002  0.2927 -0.5549  0.7462
  195MOL0     C26782   2.297   7.036   5.842  0.4511  0.4120  0.6903
  195MOL0     C26783   2.427   7.093   5.782 -0.7227  0.8789 -0.5874
  195MOL0     C26784   2.394   7.172   5.658 -0.6791  0.7843  0.2335
  195MOL0     C26785   2.525   7.236   5.595 -0.6604 -0.2941 -1.2161
  195MOL0     C26786   2.516   7.285   5.458 -0.1584  0.6811  0.4675
  195MOL0     C26787   2.418   7.404   5.450 -0.5942 -0.7966 -0.0120
  195MOL0     C26788   2.453   7.496   5.332  0.0067 -0.2441 -0.1601
  195MOL0     N26789   2.342   7.588   5.309 -0.0737  0.4705 -0.0833
  195MOL0     C26790   2.256   7.588   5.204  0.5611 -0.3622  0.8460
  195MOL0     C26791   2.172   7.698   5.224  0.6387  0.1449 -0.9232
  195MOL0     C26792   2.074   7.755   5.125  0.7451  0.3591 -0.4679
  195MOL0     C26793   1.956   7.825   5.205 -0.0481  0.0765  0.7485
  195MOL0     C26794   1.858   7.870   5.087  0.8549  0.2764 -0.9941
  195MOL0     C26795   1.795   7.744   5.013 -0.8725 -0.4260  0.4326
  195MOL0     O26796   1.654   7.752   4.994 -0.1097 -0.1463  0.5350
  195MOL0     C26797   1.582   7.655   4.923  0.6516 -0.9243 -0.8293
  195MOL0     C26798   1.445   7.683   4.910 -0.3635  0.5059  0.4186
  195MOL0     C26799   1.355   7.584   4.846 -0.5816  0.0837  0.5871
  195MOL0     C26800   1.207   7.629   4.829  0.3832  0.1291  0.0237
  195MOL0     C26801   1.410   7.457   4.808 -0.1347  0.9572 -1.5494
  195MOL0     C26802   1.319   7.340   4.772  0.6325 -0.4933 -0.0201
  195MOL0     O26803   1.384   7.232   4.731 -0.6001 -0.1972  0.2616
  195MOL0     C26804   1.321   7.121   4.689 -0.5873  0.3266  0.0386
  195MOL0     C26805   1.288   7.104   4.557 -0.0085  0.0316  1.1324
  195MOL0     C26806   1.229   6.984   4.521  0.3278 -0.0112  0.2358
  195MOL0     C26807   1.207   6.878   4.607 -0.3976 -0.1318  0.1548
  195MOL0     O26808   1.145   6.769   4.552  0.7600 -0.5743  0.3382
  195MOL0     C26809   1.095   6.663   4.631 -0.0305 -1.0338 -1.0411
  195MOL0     C26810   1.035   6.543   4.554 -0.6419 -0.0622  0.6492
  195MOL0     C26811   1.134   6.485   4.460  0.5564  0.4422 -0.2299
  195MOL0     C26812   1.164   6.562   4.330  0.0521  0.2403 -0.9289
  195MOL0     C26813   1.248   6.495   4.228 -0.3946 -0.1550 -0.0084
  195MOL0     C26814   1.242   6.574   4.094  0.5048 -0.7448  0.0259
  195MOL0     C26815   1.311   6.717   4.108 -0.1134 -0.5312 -0.0028
  195MOL0     C26816   1.353   6.777   3.979 -0.0317 -0.5568  0.5001
  195MOL0    Cl26817   1.483   6.689   3.894  0.0604  0.3423  0.0982
  195MOL0     C26818   1.223   6.902   4.740 -1.1169 -0.0375  0.0664
  195MOL0     C26819   1.283   7.024   4.779  0.2239  0.3759 -1.3050
  195MOL0     O26820   1.193   7.348   4.780 -0.5727  0.1794 -0.2385
  195MOL0     C26821   1.547   7.446   4.807  0.0386 -0.4016 -0.4988
  195MOL0     C26822   1.635   7.534   4.867  0.4532 -0.8115  0.2316
  195MOL0     N26823   2.218   7.762   5.345 -0.6275 -0.5846  0.7873
  195MOL0     N26824   2.317   7.693   5.389 -0.1000 -0.5349 -0.4976
  195MOL0     C26825   2.328   6.734   6.004  0.4065 -0.0454 -0.0467
  195MOL0     C26826   2.340   6.594   6.005 -0.3520 -1.2436  0.7852
  195MOL0     C26827   2.590   6.163   5.988  0.9452 -0.6889  0.4243
  195MOL0     C26828   2.488   6.116   5.904 -0.5147 -0.5707 -0.0166
  195MOL0     C26829   2.489   5.982   5.851 -0.1141 -0.4362 -0.1090
  195MOL0     C26830   2.607   5.900   5.863  0.9067 -0.2480  1.3345
  195MOL0     O26831   2.620   5.774   5.814 -0.0168 -0.0024  0.5311
  195MOL0     C26832   2.507   5.697   5.769 -1.1797  0.2260  0.5424
  195MOL0     C26833   2.443   5.626   5.882  0.5953  0.1573  0.8092
  195MOL0     C26834   2.301   5.589   5.834 -0.6598  0.2011 -0.0141
  195MOL0     C26835   2.213   5.542   5.945 -0.1508 -0.6077  0.9113
  195MOL0     C26836   2.241   5.404   5.979 -0.1740  0.6918  0.1616
  195MOL0     C26837   2.265   5.287   5.990  0.0421  0.2544 -0.5858
  195MOL0     C26838   2.708   5.951   5.937 -0.0909  0.0956 -0.6730
  195MOL0     C26839   2.697   6.073   6.013 -0.7436  0.1046 -0.1374
  195MOL0     C26840   2.818   6.109   6.095  0.5435  0.2943  0.5570
  195MOL0     H26841   2.672   6.563   6.041 -1.3034 -2.8092 -1.3853
  195MOL0     H26842   2.647   6.840   6.026  2.1645 -0.6160 -1.3168
  195MOL0     H26843   2.311   7.136   6.036  0.2544 -0.5137  0.6270
  195MOL0     H26844   2.207   6.999   6.038  0.5575 -3.0209 -0.6020
  195MOL0     H26845   2.263   6.941   5.798 -1.8201  1.2794  0.4371
  195MOL0     H26846   2.216   7.106   5.817  0.5872  0.1668 -0.5265
  195MOL0     H26847   2.463   7.175   5.845  0.6470  0.3974 -0.7155
  195MOL0     H26848   2.499   7.011   5.772 -2.4772 -1.1812  2.2366
  195MOL0     H26849   2.353   7.106   5.581  1.2538  0.9732 -1.0439
  195MOL0     H26850   2.324   7.255   5.670  0.9665  2.5951 -1.7240
  195MOL0     H26851   2.613   7.171   5.591 -1.1671 -1.0528 -0.3642
  195MOL0     H26852   2.550   7.321   5.659  1.7583 -0.8419 -1.3250
  195MOL0     H26853   2.612   7.324   5.422 -0.7605  0.3303 -1.6618
  195MOL0     H26854   2.490   7.208   5.385  0.9366  0.9246 -0.2092
  195MOL0     H26855   2.396   7.452   5.546 -0.9234 -0.1479 -0.3975
  195MOL0     H26856   2.320   7.360   5.428  0.4668 -2.9239 -0.6950
  195MOL0     H26857   2.551   7.541   5.348  0.1517  0.0415 -1.7064
  195MOL0     H26858   2.472   7.436   5.243  1.5969 -0.7024  0.4600
  195MOL0     H26859   2.241   7.521   5.120 -2.0923  1.9241 -0.6869
  195MOL0     H26860   2.053   7.685   5.044 -1.4063  0.6630 -0.2260
  195MOL0     H26861   2.133   7.833   5.077  1.3510 -2.6788 -5.3066
  195MOL0     H26862   1.909   7.753   5.272 -1.9925  0.6009 -0.0048
  195MOL0     H26863   1.997   7.906   5.268  2.5300 -0.2335 -0.4012
  195MOL0     H26864   1.774   7.921   5.135 -1.1472 -0.9928 -2.9771
  195MOL0     H26865   1.909   7.941   5.022 -0.3810 -1.1823 -3.7596
  195MOL0     H26866   1.853   7.713   4.926 -1.1507 -2.0132  0.7778
  195MOL0     H26867   1.819   7.661   5.080 -1.5993 -0.8962  0.1175
  195MOL0     H26868   1.407   7.782   4.933 -1.5889  0.7177 -2.1504
  195MOL0     H26869   1.146   7.559   4.886 -1.3240 -0.6097 -2.5515
  195MOL0     H26870   1.173   7.632   4.726 -3.2482 -5.0557  0.7016
  195MOL0     H26871   1.190   7.728   4.871 -1.8242 -0.0845 -0.2980
  195MOL0     H26872   1.318   7.184   4.490  3.3398 -2.2486 -0.3544
  195MOL0     H26873   1.212   6.966   4.415 -1.1181  0.3358  0.3945
  195MOL0     H26874   1.178   6.620   4.689  2.2639  2.2049 -1.6290
  195MOL0     H26875   1.024   6.708   4.701  0.0682 -3.3755  0.7095
  195MOL0     H26876   1.001   6.468   4.626  3.2920 -0.0070  2.8136
  195MOL0     H26877   0.954   6.589   4.496 -1.1457  0.1320  1.5007
  195MOL0     H26878   1.083   6.393   4.432 -3.2393  2.5761 -1.0010
  195MOL0     H26879   1.220   6.450   4.518 -1.3156 -0.8905  1.8661
  195MOL0     H26880   1.215   6.656   4.355 -0.5043  0.3088  0.0107
  195MOL0     H26881   1.075   6.597   4.275  0.5412  1.9853 -0.6833
  195MOL0     H26882   1.349   6.481   4.267 -0.9954 -3.4316  0.7276
  195MOL0     H26883   1.224   6.389   4.214  2.2736 -1.0311  1.4044
  195MOL0     H26884   1.136   6.590   4.072 -0.0051 -1.4544  1.7638
  195MOL0     H26885   1.288   6.521   4.010  0.5990  2.2505 -1.9548
  195MOL0     H26886   1.402   6.718   4.170  0.7232  0.8987 -1.1981
  195MOL0     H26887   1.243   6.785   4.161 -1.0121 -2.4769  1.4815
  195MOL0     H26888   1.388   6.881   3.988 -0.3542 -0.4747  0.8245
  195MOL0     H26889   1.262   6.780   3.919  0.6749  1.0331 -0.5646
  195MOL0     H26890   1.185   6.836   4.817 -0.5891  0.2482  0.5839
  195MOL0     H26891   1.293   7.048   4.885 -1.7580  2.6552 -1.5536
  195MOL0     H26892   1.601   7.362   4.765 -0.9298 -0.6409 -1.2769
  195MOL0     H26893   1.742   7.514   4.872  0.2721 -1.6160  4.4280
  195MOL0     H26894   2.225   6.766   6.004 -0.4957 -2.6436 -1.6100
  195MOL0     H26895   2.248   6.537   6.006 -1.1171 -0.0747  2.7792
  195MOL0     H26896   2.403   6.171   5.866 -1.4908 -2.0600 -0.0741
  195MOL0     H26897   2.403   5.958   5.789 -3.2681  5.6960  1.0575
  195MOL0     H26898   2.440   5.760   5.709 -1.7454  0.9059  1.8504
  195MOL0     H26899   2.545   5.621   5.700  2.1724  0.8100  1.5281
  195MOL0     H26900   2.434   5.699   5.963 -0.1908  1.6825 -0.6024
  195MOL0     H26901   2.503   5.544   5.922  2.7033  1.8827  1.3526
  195MOL0     H26902   2.258   5.677   5.787  2.2616  1.3538 -0.7162
  195MOL0     H26903   2.309   5.512   5.757 -0.6405  1.5577 -1.4173
  195MOL0     H26904   2.112   5.546   5.903  2.2016  1.2289 -5.8722
  195MOL0     H26905   2.229   5.610   6.029  1.0670 -1.5760  1.4986
  195MOL0     H26906   2.291   5.187   6.019  1.6778  1.0960  1.0213
  195MOL0     H26907   2.803   5.898   5.929  0.9895  2.1693 -2.9961
  195MOL0     H26908   2.887   6.025   6.095  1.4158  0.8517 -2.5363
  195MOL0     H26909   2.874   6.199   6.067 -1.3049  1.0969 -0.7659
  195MOL0     H26910   2.791   6.122   6.200 -1.1546 -2.4817  0.5579
  196MOL0     O26911   4.480   2.371   9.398  0.0305 -0.4391 -0.0775
  196MOL0     C26912   4.368   2.363   9.353  0.5289 -0.1120 -0.3207
  196MOL0     O26913   4.325   2.415   9.225  0.1888 -0.5683 -0.2295
  196MOL0     C26914   4.432   2.423   9.136  0.2083 -0.7572  0.7274
  196MOL0     C26915   4.497   2.312   9.079  0.3390 -0.8070  0.1708
  196MOL0     C26916   4.621   2.322   9.014  0.4268  0.6824 -0.3224
  196MOL0     C26917   4.675   2.446   8.990 -0.3386 -0.0339 -0.1254
  196MOL0     O26918   4.799   2.472   8.930  0.7314  0.2851 -0.4387
  196MOL0     C26919   4.819   2.403   8.805 -0.4904 -0.0145 -0.2739
  196MOL0     C26920   4.755   2.463   8.685  0.3605  0.1377 -0.0070
  196MOL0     C26921   4.816   2.601   8.663  0.3844 -0.8655 -0.2516
  196MOL0     C26922   4.749   2.672   8.542  0.6132  0.0073 -0.4956
  196MOL0     C26923   4.807   2.818   8.527  0.5100 -0.8600  0.2722
  196MOL0     C26924   4.962   2.819   8.509  0.4380 -0.1697 -0.8011
  196MOL0     C26925   5.013   2.954   8.465 -1.3515  0.2352 -0.3870
  196MOL0     C26926   4.973   2.979   8.310 -0.0859 -0.1295 -0.0243
  196MOL0     N26927   5.064   3.088   8.263 -0.2110  0.4267  0.3989
  196MOL0     C26928   5.054   3.222   8.280  0.6080 -0.3217 -0.8983
  196MOL0     C26929   5.158   3.282   8.220  0.3611  0.9036 -0.1016
  196MOL0     C26930   5.201   3.424   8.198 -0.2452 -0.2643  0.4328
  196MOL0     C26931   5.291   3.482   8.305 -0.7753 -0.2886 -0.6586
  196MOL0     C26932   5.339   3.629   8.296  0.5187 -0.5751  0.4297
  196MOL0     C26933   5.443   3.646   8.187 -0.4695 -0.6436  0.3255
  196MOL0     O26934   5.543   3.553   8.230 -0.4523 -0.4789  0.4377
  196MOL0     C26935   5.656   3.529   8.158  0.0233  0.4578  0.5407
  196MOL0     C26936   5.669   3.563   8.025 -0.3673  0.1185  0.2342
  196MOL0     C26937   5.794   3.548   7.959 -1.0313  0.9563 -0.0013
  196MOL0     C26938   5.798   3.594   7.813  0.0529 -0.7144  0.2738
  196MOL0     C26939   5.912   3.490   8.017  0.1908 -0.0045 -0.2005
  196MOL0     C26940   6.045   3.454   7.958 -0.3002 -0.2126  0.1515
  196MOL0     O26941   6.049   3.465   7.823 -0.1654 -0.9122  0.0771
  196MOL0     C26942   6.161   3.407   7.756 -0.7571  0.6009  0.0015
  196MOL0     C26943   6.160   3.266   7.756  0.1133 -0.8912  0.2102
  196MOL0     C26944   6.277   3.202   7.707 -0.2548 -0.0641  0.2550
  196MOL0     C26945   6.384   3.273   7.657  0.6548 -0.6422 -0.6101
  196MOL0     O26946   6.485   3.187   7.601  0.0580 -0.8688 -0.2496
  196MOL0     C26947   6.598   3.256   7.538 -0.8514 -0.2357  0.2385
  196MOL0     C26948   6.700   3.158   7.507  0.4239  0.9603  0.9436
  196MOL0     C26949   6.841   3.211   7.452 -0.0305 -0.1776 -0.3066
  196MOL0     C26950   6.891   3.314   7.548  0.8307 -0.0227  0.1372
  196MOL0     C26951   7.047   3.340   7.540 -1.0670  1.4449  0.0471
  196MOL0     C26952   7.087   3.438   7.642 -0.3780 -0.7448  0.6593
  196MOL0     C26953   7.077   3.589   7.608  0.5824  0.6260 -0.4034
  196MOL0     C26954   7.111   3.664   7.737  1.0767  0.0594  0.3976
  196MOL0    Cl26955   7.151   3.836   7.706 -0.1556 -0.4944 -0.1443
  196MOL0     C26956   6.372   3.419   7.646 -0.5315 -0.2251 -0.3122
  196MOL0     C26957   6.268   3.485   7.705 -0.0394 -0.5379 -0.1262
  196MOL0     O26958   6.133   3.415   8.026  0.0322 -0.6463 -0.2592
  196MOL0     C26959   5.892   3.459   8.157  0.2753 -0.0589  0.2355
  196MOL0     C26960   5.777   3.483   8.222  0.7173  0.4847 -0.2779
  196MOL0     N26961   5.235   3.173   8.166  0.6928  0.2973 -0.1707
  196MOL0     N26962   5.185   3.060   8.201 -0.2830 -0.6044 -0.3318
  196MOL0     C26963   4.611   2.559   9.036 -0.0223  1.4761 -0.0109
  196MOL0     C26964   4.496   2.547   9.115  0.5106 -0.2421  0.4498
  196MOL0     C26965   4.261   2.314   9.439 -0.1949  0.4544 -0.4499
  196MOL0     C26966   4.127   2.348   9.421  0.3407  0.2223 -0.8342
  196MOL0     C26967   4.022   2.289   9.497 -0.4300 -0.8797 -0.7213
  196MOL0     C26968   4.051   2.210   9.601 -0.6489 -0.0695 -0.1953
  196MOL0     O26969   3.942   2.149   9.667 -0.4093  0.1178 -0.1212
  196MOL0     C26970   3.894   2.224   9.787  0.0019 -0.0260 -1.1718
  196MOL0     C26971   3.749   2.198   9.809 -0.9531 -0.3409  0.4954
  196MOL0     C26972   3.698   2.253   9.948  0.5850 -0.0099 -0.4454
  196MOL0     C26973   3.557   2.303   9.956  0.3588 -0.5254 -0.0569
  196MOL0     C26974   3.467   2.216  10.018  0.4900 -1.5840  1.0722
  196MOL0     C26975   3.383   2.147  10.075 -0.2451 -0.6525 -1.5471
  196MOL0     C26976   4.179   2.174   9.633 -0.1952 -0.6935 -0.6805
  196MOL0     C26977   4.286   2.212   9.548 -0.3208 -0.5742  0.2430
  196MOL0     C26978   4.425   2.155   9.566  0.3210  0.1466  0.1669
  196MOL0     H26979   4.448   2.218   9.101 -2.5021  0.6543  0.5462
  196MOL0     H26980   4.665   2.228   8.982 -2.3927 -0.3174 -1.5324
  196MOL0     H26981   4.794   2.296   8.804 -1.0463 -0.0612 -5.2760
  196MOL0     H26982   4.925   2.396   8.778 -0.3574 -0.7161  0.4093
  196MOL0     H26983   4.765   2.403   8.594  0.7771  1.4647 -0.8545
  196MOL0     H26984   4.647   2.443   8.695  0.4670 -2.1747 -2.3378
  196MOL0     H26985   4.792   2.659   8.752 -1.4845 -2.2117  0.1686
  196MOL0     H26986   4.924   2.604   8.646  0.4396  0.2806  0.2101
  196MOL0     H26987   4.747   2.615   8.449 -1.3434 -2.7286  1.0717
  196MOL0     H26988   4.641   2.680   8.554  0.2577  0.3681 -3.4334
  196MOL0     H26989   4.778   2.896   8.599 -1.9525 -1.1140 -0.3562
  196MOL0     H26990   4.757   2.860   8.439  2.6450 -1.0309 -1.1076
  196MOL0     H26991   5.013   2.792   8.602  1.3687  1.6538 -0.7347
  196MOL0     H26992   4.985   2.733   8.446  0.4939 -0.7288 -0.0409
  196MOL0     H26993   5.119   2.960   8.491 -0.9774 -1.4328 -1.3601
  196MOL0     H26994   4.971   3.030   8.531  0.3402  0.6433  0.2798
  196MOL0     H26995   4.978   2.893   8.242  1.5411  1.5853 -2.2469
  196MOL0     H26996   4.867   3.003   8.307 -0.7096 -2.4967  0.9298
  196MOL0     H26997   4.965   3.272   8.317  1.2654  0.6336 -0.5759
  196MOL0     H26998   5.114   3.490   8.193 -0.7930 -0.7007  3.1204
  196MOL0     H26999   5.252   3.428   8.101  0.2749  2.2492  0.7513
  196MOL0     H27000   5.244   3.487   8.404 -0.6193  0.7244 -0.6342
  196MOL0     H27001   5.381   3.422   8.326 -1.9113 -0.8184  3.9444
  196MOL0     H27002   5.259   3.700   8.273 -0.1537 -1.4101  0.1517
  196MOL0     H27003   5.370   3.661   8.396 -2.7978  1.2351  1.0397
  196MOL0     H27004   5.394   3.623   8.092 -1.9558 -0.4313  1.0174
  196MOL0     H27005   5.480   3.749   8.192 -0.0209 -0.7520 -0.5346
  196MOL0     H27006   5.578   3.595   7.976  0.0500  1.9600  0.5760
  196MOL0     H27007   5.785   3.512   7.742 -0.0874 -2.2941  2.0419
  196MOL0     H27008   5.895   3.646   7.802  0.0469 -0.8231 -0.3217
  196MOL0     H27009   5.723   3.669   7.788  1.3560  0.2220 -1.0315
  196MOL0     H27010   6.079   3.221   7.812  0.2574  1.7373  2.7444
  196MOL0     H27011   6.269   3.095   7.718  4.7860 -0.6324  1.1452
  196MOL0     H27012   6.577   3.329   7.459 -0.4585  0.1412  0.4790
  196MOL0     H27013   6.637   3.318   7.619 -2.2407  1.4480 -0.3230
  196MOL0     H27014   6.714   3.095   7.596 -0.2177  1.7310  1.6083
  196MOL0     H27015   6.650   3.097   7.432 -1.2172  2.7329  0.5211
  196MOL0     H27016   6.838   3.256   7.352  0.5758  1.7737  0.4983
  196MOL0     H27017   6.913   3.131   7.434 -0.1196  0.4518 -4.5905
  196MOL0     H27018   6.870   3.264   7.643 -1.3458  1.8886  0.7425
  196MOL0     H27019   6.834   3.407   7.548 -0.1941 -0.6349 -0.0170
  196MOL0     H27020   7.101   3.247   7.559  3.2730  3.0465 -2.8734
  196MOL0     H27021   7.075   3.379   7.442 -0.5454  1.9066  0.3756
  196MOL0     H27022   7.194   3.437   7.663 -0.3056  2.4867  0.9605
  196MOL0     H27023   7.031   3.402   7.729  1.9286 -1.0093  2.0998
  196MOL0     H27024   6.975   3.622   7.584  0.0535 -0.7159 -0.1090
  196MOL0     H27025   7.141   3.599   7.520  0.3594  1.8703 -0.4502
  196MOL0     H27026   7.202   3.631   7.788  2.2512  0.2553 -1.4739
  196MOL0     H27027   7.029   3.649   7.809  0.8764  1.9567  0.6131
  196MOL0     H27028   6.436   3.479   7.581 -2.2446  1.3876 -0.6009
  196MOL0     H27029   6.264   3.593   7.714  4.2793 -0.3236  2.2990
  196MOL0     H27030   5.967   3.401   8.210 -0.2009 -1.8628 -1.0031
  196MOL0     H27031   5.768   3.454   8.326  4.0708 -0.6642 -0.2044
  196MOL0     H27032   4.657   2.654   9.013  0.0118  1.1550 -1.3417
  196MOL0     H27033   4.442   2.627   9.165 -0.8178 -1.3788  0.9066
  196MOL0     H27034   4.101   2.412   9.337  1.0822  1.8266  0.1181
  196MOL0     H27035   3.917   2.314   9.479 -1.1892  0.7765  4.1528
  196MOL0     H27036   3.950   2.187   9.874  1.0280  0.8803 -1.4157
  196MOL0     H27037   3.922   2.330   9.782  2.0158  0.0217  4.0802
  196MOL0     H27038   3.741   2.090   9.792  1.3903 -0.4944 -0.0578
  196MOL0     H27039   3.688   2.249   9.734 -1.2190 -2.1233 -0.5738
  196MOL0     H27040   3.716   2.172  10.020 -0.8090  0.8276  0.9002
  196MOL0     H27041   3.753   2.346   9.967 -4.4669  3.0460  1.1128
  196MOL0     H27042   3.531   2.342   9.857 -1.1455 -1.7755 -0.2027
  196MOL0     H27043   3.554   2.390  10.022  3.3164 -1.2975  1.2242
  196MOL0     H27044   3.309   2.096  10.132 -1.6645  3.3782  0.5996
  196MOL0     H27045   4.208   2.105   9.712  0.1994 -0.4445 -0.6100
  196MOL0     H27046   4.421   2.064   9.628 -1.1059 -0.2484 -0.4600
  196MOL0     H27047   4.466   2.125   9.469 -0.2583  1.7235 -0.5965
  196MOL0     H27048   4.498   2.225   9.607  0.6084 -0.4299  0.6682
  197MOL0     O27049   0.342   5.843  11.017  0.0262  1.0669 -0.5762
  197MOL0     C27050   0.283   5.841  11.122  0.0639  0.3204 -0.3227
  197MOL0     O27051   0.309   5.756  11.228  0.2484 -0.7098  0.2052
  197MOL0     C27052   0.358   5.626  11.206  0.2492 -0.6071  0.3490
  197MOL0     C27053   0.358   5.547  11.323 -0.7411 -0.3173  0.2506
  197MOL0     C27054   0.410   5.418  11.314 -0.5596 -0.2710  0.9260
  197MOL0     C27055   0.459   5.363  11.194  0.4228  0.1401 -0.3286
  197MOL0     O27056   0.487   5.228  11.202 -0.0315 -0.3315  0.4196
  197MOL0     C27057   0.555   5.169  11.088  0.9460  0.0738  0.7127
  197MOL0     C27058   0.605   5.019  11.111  0.4023  0.1228 -0.2782
  197MOL0     C27059   0.713   5.005  11.222  0.8734 -0.6576  0.6986
  197MOL0     C27060   0.783   4.871  11.205  0.0592 -0.0423  0.1367
  197MOL0     C27061   0.876   4.850  11.326 -0.0243  0.0283 -0.5043
  197MOL0     C27062   0.935   4.717  11.318  0.6354 -0.1662  0.7903
  197MOL0     C27063   1.058   4.712  11.401 -0.2652  0.1175  1.3837
  197MOL0     C27064   1.103   4.566  11.393 -0.1840  0.3614 -0.2252
  197MOL0     N27065   1.230   4.545  11.462 -1.0959 -0.6447 -0.0477
  197MOL0     C27066   1.346   4.619  11.435  0.3159  0.1478 -0.0856
  197MOL0     C27067   1.427   4.594  11.537 -0.0191 -0.2506  0.0204
  197MOL0     C27068   1.556   4.656  11.571  0.0198  0.0884  0.7682
  197MOL0     C27069   1.638   4.588  11.676 -0.9642  0.5235  0.5046
  197MOL0     C27070   1.747   4.679  11.714 -1.1071 -0.1479  0.4461
  197MOL0     C27071   1.851   4.624  11.815  0.3024 -0.7282 -0.0634
  197MOL0     O27072   1.923   4.517  11.765 -0.3633  0.3731 -0.0071
  197MOL0     C27073   1.906   4.387  11.814  0.4675 -0.0870 -0.3068
  197MOL0     C27074   1.791   4.333  11.864  0.0757  1.3206 -0.2615
  197MOL0     C27075   1.775   4.190  11.887 -0.6721 -0.0564 -0.1869
  197MOL0     C27076   1.634   4.140  11.898 -0.4745  0.4090  0.0001
  197MOL0     C27077   1.890   4.105  11.892  0.0919  0.4881 -0.5111
  197MOL0     C27078   1.899   3.963  11.949  0.5660  0.5001 -0.0779
  197MOL0     O27079   2.023   3.912  11.966 -0.9024 -0.4433 -0.4302
  197MOL0     C27080   2.043   3.785  12.009  0.0594  0.0980 -0.1735
  197MOL0     C27081   2.122   3.764  12.118 -0.3604 -0.2437  0.2067
  197MOL0     C27082   2.155   3.628  12.150 -0.9391 -0.0285 -0.3830
  197MOL0     C27083   2.101   3.524  12.080 -0.0027  0.3632  0.7273
  197MOL0     O27084   2.155   3.402  12.105 -0.3758  0.2658  1.1969
  197MOL0     C27085   2.113   3.294  12.008 -1.0759  0.4186 -0.1776
  197MOL0     C27086   2.184   3.170  12.028  0.1820  0.2347  0.5228
  197MOL0     C27087   2.325   3.162  11.976 -0.0817  0.2342  0.0415
  197MOL0     C27088   2.403   3.041  12.025 -0.7158  1.0351  0.6318
  197MOL0     C27089   2.545   3.047  11.980 -0.5288  0.3572  0.1128
  197MOL0     C27090   2.563   3.064  11.825  0.0897 -0.0637 -0.1640
  197MOL0     C27091   2.679   2.974  11.766 -0.7783 -1.1728  1.1801
  197MOL0     C27092   2.819   3.026  11.761  0.0501 -0.2600  0.5100
  197MOL0    Cl27093   2.881   3.011  11.938 -0.2436 -0.0745 -0.2740
  197MOL0     C27094   1.991   3.552  11.991  0.6549 -0.1111  0.9289
  197MOL0     C27095   1.978   3.678  11.941  0.8341  0.3526 -0.2575
  197MOL0     O27096   1.794   3.905  11.968 -0.1145 -0.4252  0.1354
  197MOL0     C27097   2.011   4.160  11.844  0.1774  0.7597  0.5664
  197MOL0     C27098   2.021   4.301  11.816 -0.0585 -0.2279 -0.1221
  197MOL0     N27099   1.362   4.523  11.632  0.1449  0.4602 -0.0590
  197MOL0     N27100   1.252   4.492  11.587 -0.4033 -0.8514 -0.0557
  197MOL0     C27101   0.459   5.441  11.077 -0.1179  0.0813 -0.2825
  197MOL0     C27102   0.404   5.570  11.087  0.9855 -0.0459 -0.0973
  197MOL0     C27103   0.180   5.950  11.140 -1.0260  0.4002 -0.6400
  197MOL0     C27104   0.104   5.942  11.258  0.4673 -0.6942 -0.1456
  197MOL0     C27105   0.015   6.037  11.301  1.0729 -0.0848  0.0103
  197MOL0     C27106  -0.006   6.154  11.218 -0.2719  0.6114 -0.1099
  197MOL0     O27107  -0.086   6.262  11.251 -0.0946  0.0684 -0.2297
  197MOL0     C27108  -0.160   6.242  11.369  0.1326  0.2961  0.0204
  197MOL0     C27109  -0.261   6.358  11.383  0.3873 -0.2431 -0.5228
  197MOL0     C27110  -0.198   6.497  11.392  0.2551 -0.9819  0.0296
  197MOL0     C27111  -0.294   6.595  11.447 -0.2104  0.3360 -0.1984
  197MOL0     C27112  -0.325   6.589  11.599  0.1819 -0.3121  0.6455
  197MOL0     C27113  -0.361   6.568  11.710 -0.2957 -0.3788 -0.6675
  197MOL0     C27114   0.064   6.164  11.095 -0.3467  0.2469 -0.3909
  197MOL0     C27115   0.162   6.066  11.055 -0.0554  0.3116  0.1781
  197MOL0     C27116   0.230   6.093  10.926  0.4145 -0.4409  0.9855
  197MOL0     H27117   0.318   5.594  11.413  0.7235  0.5619  0.4869
  197MOL0     H27118   0.423   5.362  11.406  2.5882  0.6510  1.1581
  197MOL0     H27119   0.635   5.221  11.033  0.8064 -3.5304 -3.5102
  197MOL0     H27120   0.484   5.161  11.005  2.1240  1.1055 -0.4443
  197MOL0     H27121   0.520   4.957  11.140  0.7661 -0.9432 -1.4239
  197MOL0     H27122   0.638   4.975  11.016  1.2809 -0.9300  0.4914
  197MOL0     H27123   0.781   5.090  11.230 -0.4895  0.5965 -0.3983
  197MOL0     H27124   0.669   5.011  11.323 -2.9404 -0.5706 -0.7950
  197MOL0     H27125   0.703   4.798  11.193 -3.5971  3.7968 -1.0723
  197MOL0     H27126   0.836   4.857  11.110  1.8580 -2.0672  1.3522
  197MOL0     H27127   0.826   4.858  11.423 -2.2326 -0.1455 -1.5631
  197MOL0     H27128   0.953   4.928  11.330  0.3836 -0.2926  4.6543
  197MOL0     H27129   0.871   4.644  11.368  0.8843 -1.8301 -1.2261
  197MOL0     H27130   0.944   4.682  11.215 -2.8705 -0.5361  0.4718
  197MOL0     H27131   1.038   4.739  11.505 -2.6819 -2.4420  1.7045
  197MOL0     H27132   1.134   4.772  11.350  0.1194 -1.5940 -0.1905
  197MOL0     H27133   1.035   4.496  11.442  1.0071  0.5929  1.8662
  197MOL0     H27134   1.113   4.528  11.291 -1.8748  1.3767 -0.8087
  197MOL0     H27135   1.364   4.682  11.348  2.8137 -0.7815 -0.3237
  197MOL0     H27136   1.543   4.755  11.615  4.0722  1.2116 -0.1312
  197MOL0     H27137   1.623   4.676  11.487  1.6388  2.3267  2.4746
  197MOL0     H27138   1.583   4.566  11.768 -0.2001  0.2495  0.9077
  197MOL0     H27139   1.675   4.488  11.654 -0.0549 -0.0798  4.1188
  197MOL0     H27140   1.799   4.706  11.622  1.1072  2.5886  2.3242
  197MOL0     H27141   1.706   4.773  11.754 -1.3305  1.3435 -2.9198
  197MOL0     H27142   1.923   4.705  11.829  0.3652 -0.9879  1.2369
  197MOL0     H27143   1.805   4.604  11.912 -2.5492 -2.7203 -1.6740
  197MOL0     H27144   1.698   4.389  11.858  2.4617  5.7102 -0.4894
  197MOL0     H27145   1.630   4.036  11.866 -0.4530  0.8681 -1.5818
  197MOL0     H27146   1.577   4.191  11.820 -0.1445  1.0695  0.1850
  197MOL0     H27147   1.592   4.159  11.997  2.3870 -2.2693  1.9270
  197MOL0     H27148   2.160   3.848  12.175 -0.0610  0.9427 -1.6565
  197MOL0     H27149   2.229   3.625  12.230  2.4406  4.9274 -2.8514
  197MOL0     H27150   2.008   3.270  12.028 -0.4228 -2.6034  0.0109
  197MOL0     H27151   2.114   3.321  11.902  0.7463 -1.2166 -0.6221
  197MOL0     H27152   2.172   3.127  12.128  1.9914 -1.2732  0.1490
  197MOL0     H27153   2.123   3.106  11.964  1.0436 -0.3725  0.2937
  197MOL0     H27154   2.369   3.255  12.013 -0.2051  0.5570 -0.6110
  197MOL0     H27155   2.311   3.174  11.869  1.2176 -0.2456 -0.1955
  197MOL0     H27156   2.354   2.950  11.990 -1.4158  2.1967 -1.6402
  197MOL0     H27157   2.393   3.039  12.134  1.4184 -1.7359  0.8756
  197MOL0     H27158   2.598   3.134  12.022 -0.3713 -0.1456  0.9735
  197MOL0     H27159   2.598   2.954  12.005 -1.1317 -0.1658 -0.5363
  197MOL0     H27160   2.573   3.172  11.808 -0.9430  0.1821  0.6518
  197MOL0     H27161   2.471   3.030  11.777  0.6935 -0.5663 -0.9847
  197MOL0     H27162   2.657   2.974  11.658  2.7090  3.5461  0.0949
  197MOL0     H27163   2.665   2.872  11.801  0.0993 -1.2045  1.4627
  197MOL0     H27164   2.819   3.123  11.712 -0.9557 -1.7844 -2.7898
  197MOL0     H27165   2.876   2.960  11.695 -1.1802  0.5022 -1.3972
  197MOL0     H27166   1.924   3.480  11.946 -1.3764  2.5627 -0.6570
  197MOL0     H27167   1.906   3.680  11.860 -0.9337 -2.6128  1.0621
  197MOL0     H27168   2.101   4.100  11.842 -0.7044 -0.6080  0.3180
  197MOL0     H27169   2.110   4.351  11.781 -0.5257 -0.5085 -1.8322
  197MOL0     H27170   0.509   5.408  10.987  1.2722  0.1613  0.4438
  197MOL0     H27171   0.404   5.630  10.996  2.7059  0.8574  0.4610
  197MOL0     H27172   0.114   5.858  11.326 -2.1209  1.1467  2.7076
  197MOL0     H27173  -0.030   6.033  11.400  1.0349  1.8822  0.1065
  197MOL0     H27174  -0.220   6.150  11.368 -1.9043  1.5297  1.3634
  197MOL0     H27175  -0.090   6.230  11.452  0.7790 -2.3013 -0.7892
  197MOL0     H27176  -0.329   6.344  11.467 -2.4243  0.7284 -2.5022
  197MOL0     H27177  -0.327   6.343  11.297 -1.5302 -0.2734  0.9041
  197MOL0     H27178  -0.107   6.500  11.452 -0.1852  1.6593  0.7065
  197MOL0     H27179  -0.177   6.522  11.287 -0.6369  0.3385  0.1293
  197MOL0     H27180  -0.383   6.576  11.387  0.5576 -1.6085 -0.7760
  197MOL0     H27181  -0.265   6.700  11.435  1.6883  0.0768  1.5445
  197MOL0     H27182  -0.381   6.569  11.816 -2.4023  2.1339 -0.9870
  197MOL0     H27183   0.039   6.253  11.038  1.6545  2.8651  2.4623
  197MOL0     H27184   0.338   6.103  10.929  0.3439  0.2451  1.8565
  197MOL0     H27185   0.202   6.004  10.869  0.6442  0.3809 -0.4320
  197MOL0     H27186   0.193   6.180  10.871  1.1710 -1.4587 -1.2264
  198MOL0     O27187   9.987  10.045   4.478 -1.0436  0.4226  0.3249
  198MOL0     C27188  10.021  10.084   4.369  0.4870  0.0029  0.6161
  198MOL0     O27189  10.138  10.047   4.306  0.1363 -0.0341 -0.2146
  198MOL0     C27190  10.205   9.954   4.374 -0.2816 -0.2866  0.1476
  198MOL0     C27191  10.166   9.818   4.368 -0.2890 -0.1502  0.0919
  198MOL0     C27192  10.237   9.721   4.433 -0.2018  1.5664  0.0975
  198MOL0     C27193  10.342   9.749   4.511  0.2495 -0.1078 -0.1929
  198MOL0     O27194  10.406   9.649   4.574 -0.2710  0.1201 -0.2844
  198MOL0     C27195  10.458   9.541   4.493 -0.4774 -0.7043 -0.6492
  198MOL0     C27196  10.503   9.422   4.580  0.5039  0.1089  0.0824
  198MOL0     C27197  10.375   9.350   4.624 -0.3555 -0.7482 -0.4085
  198MOL0     C27198  10.397   9.254   4.745 -0.0865 -0.2545 -0.8956
  198MOL0     C27199  10.418   9.307   4.890  0.0373  0.0962 -0.3139
  198MOL0     C27200  10.326   9.425   4.911  0.5035  0.0861 -0.0743
  198MOL0     C27201  10.362   9.473   5.057 -0.3726  0.7023 -0.0156
  198MOL0     C27202  10.285   9.384   5.173  0.1273  0.0333  0.0623
  198MOL0     N27203  10.325   9.454   5.299  0.2444 -0.6027 -0.3883
  198MOL0     C27204  10.289   9.584   5.332 -0.3850  0.4191 -0.3370
  198MOL0     C27205  10.375   9.612   5.439  0.2415  0.4309  0.1476
  198MOL0     C27206  10.401   9.736   5.515 -0.4256 -0.5584 -0.5535
  198MOL0     C27207  10.436   9.863   5.438 -0.2976  0.3136  0.3301
  198MOL0     C27208  10.558   9.854   5.348  0.0321 -0.3127 -0.0380
  198MOL0     C27209  10.676   9.786   5.420  1.1448  0.3964  0.3363
  198MOL0     O27210  10.800   9.802   5.345  0.4462 -0.6805 -0.7960
  198MOL0     C27211  10.837   9.713   5.256 -0.4875  0.1303 -0.0278
  198MOL0     C27212  10.781   9.594   5.220 -1.0419  0.3559 -0.3246
  198MOL0     C27213  10.830   9.513   5.119  0.3123 -0.2175 -0.8497
  198MOL0     C27214  10.773   9.374   5.121 -0.5273  0.2624  0.2599
  198MOL0     C27215  10.930   9.554   5.028  0.0107  0.1110  0.6621
  198MOL0     C27216  10.978   9.469   4.908 -0.0475 -0.6679  1.1502
  198MOL0     O27217  10.890   9.389   4.850 -0.3665 -0.5875  0.5730
  198MOL0     C27218  10.935   9.296   4.759  0.4891 -0.8324 -0.0449
  198MOL0     C27219  10.917   9.157   4.779 -0.7362 -0.8198 -0.2533
  198MOL0     C27220  10.957   9.064   4.685  0.2739  0.4451 -1.2147
  198MOL0     C27221  10.998   9.106   4.561  0.4447  0.3527 -0.5115
  198MOL0     O27222  11.026   9.017   4.464  0.1064  0.3291  0.0395
  198MOL0     C27223  11.034   8.877   4.487  0.3741  0.0295  0.0028
  198MOL0     C27224  11.042   8.806   4.349  0.8229 -0.3228 -0.5280
  198MOL0     C27225  11.168   8.838   4.272 -0.0030  0.8302  0.0415
  198MOL0     C27226  11.156   8.971   4.196  0.6730 -0.4724 -0.0213
  198MOL0     C27227  11.261   8.977   4.089  0.4922  0.3075  0.7572
  198MOL0     C27228  11.261   9.112   4.016 -0.2139 -0.0058  0.1852
  198MOL0     C27229  11.376   9.141   3.914 -0.5005 -0.1838  0.8902
  198MOL0     C27230  11.410   9.027   3.804  0.1766 -0.2255 -0.1355
  198MOL0    Cl27231  11.549   9.089   3.706  0.6635  0.0741 -0.0651
  198MOL0     C27232  10.999   9.243   4.544 -0.2859 -1.3477  0.3550
  198MOL0     C27233  10.977   9.340   4.640 -0.6122 -0.0346  0.7349
  198MOL0     O27234  11.094   9.486   4.873 -0.3804  0.5549  0.0476
  198MOL0     C27235  10.991   9.681   5.070  0.7600 -0.4520 -0.6064
  198MOL0     C27236  10.948   9.748   5.183  0.7994  0.0763 -0.1742
  198MOL0     N27237  10.450   9.496   5.463  0.0750  0.4666  0.0214
  198MOL0     N27238  10.414   9.407   5.384  0.1214 -0.2026  0.9158
  198MOL0     C27239  10.379   9.882   4.527 -0.2397 -0.4058 -0.0328
  198MOL0     C27240  10.309   9.989   4.464  0.0120 -0.3822 -0.1330
  198MOL0     C27241   9.937  10.185   4.293  1.0327  0.2837  0.3117
  198MOL0     C27242   9.980  10.228   4.161 -0.5814 -0.6113  0.0625
  198MOL0     C27243   9.909  10.315   4.077  0.2495 -0.3662 -0.1635
  198MOL0     C27244   9.795  10.377   4.123 -0.6184  0.2495 -0.2280
  198MOL0     O27245   9.723  10.440   4.027  0.3385 -0.6087  0.1254
  198MOL0     C27246   9.653  10.566   4.062 -0.3525  0.2520  0.3312
  198MOL0     C27247   9.514  10.572   3.993 -0.1767 -0.2893 -0.4746
  198MOL0     C27248   9.414  10.476   4.053  0.1497  0.5449 -0.4428
  198MOL0     C27249   9.267  10.504   3.991 -1.1610  0.2716 -0.1802
  198MOL0     C27250   9.171  10.392   4.003  0.6784 -0.2680  0.6953
  198MOL0     C27251   9.089  10.300   4.013  0.1293 -0.1419 -0.9964
  198MOL0     C27252   9.756  10.352   4.253  0.1318 -0.2204  0.3728
  198MOL0     C27253   9.818  10.260   4.335 -0.5509  0.8975  0.5909
  198MOL0     C27254   9.748  10.206   4.456 -0.1260 -1.3195 -0.6932
  198MOL0     H27255  10.096   9.794   4.289 -0.5331 -1.3235  0.6414
  198MOL0     H27256  10.211   9.619   4.411 -0.5110  2.0155 -1.7399
  198MOL0     H27257  10.545   9.591   4.452 -2.0435  1.6054 -1.3342
  198MOL0     H27258  10.391   9.510   4.412 -2.1822 -2.1507  1.2149
  198MOL0     H27259  10.571   9.356   4.525  1.2048  2.6832 -2.3334
  198MOL0     H27260  10.560   9.466   4.662  2.3485  1.0246 -1.6149
  198MOL0     H27261  10.301   9.423   4.659 -0.8271 -1.0707 -0.7097
  198MOL0     H27262  10.321   9.296   4.546 -1.5578  1.3022 -1.0785
  198MOL0     H27263  10.303   9.199   4.750 -1.9716  2.8069  3.5001
  198MOL0     H27264  10.482   9.192   4.714 -1.3161 -3.0616  0.9424
  198MOL0     H27265  10.520   9.344   4.904  0.4313 -1.4415  1.2214
  198MOL0     H27266  10.410   9.223   4.959 -1.3598 -1.5957 -2.3991
  198MOL0     H27267  10.357   9.512   4.852 -1.3945  1.9142  1.4844
  198MOL0     H27268  10.223   9.389   4.902  0.8048 -1.0472  0.7440
  198MOL0     H27269  10.328   9.575   5.080  1.5111  1.3007  0.3558
  198MOL0     H27270  10.471   9.482   5.068 -0.0529 -0.2164 -2.0603
  198MOL0     H27271  10.180   9.414   5.175  0.6350  2.3269 -1.9544
  198MOL0     H27272  10.309   9.277   5.173 -0.8325 -0.2493  2.8274
  198MOL0     H27273  10.223   9.645   5.272  0.7497  0.0566 -2.0161
  198MOL0     H27274  10.479   9.727   5.592 -0.3742  3.4025  0.0496
  198MOL0     H27275  10.305   9.750   5.564  0.3133  1.9409  0.3367
  198MOL0     H27276  10.346   9.893   5.383  0.2194  1.2092 -0.0447
  198MOL0     H27277  10.444   9.939   5.517 -1.8550  0.0126  0.8170
  198MOL0     H27278  10.522   9.809   5.255  1.7628 -0.7578 -0.5405
  198MOL0     H27279  10.581   9.958   5.324  0.0133  0.0758  1.5534
  198MOL0     H27280  10.686   9.824   5.522  0.3608  0.4800  0.3819
  198MOL0     H27281  10.649   9.680   5.422 -1.9031  1.1064  1.2706
  198MOL0     H27282  10.715   9.558   5.299  0.0372  0.8147  0.8179
  198MOL0     H27283  10.709   9.355   5.034  0.6863 -1.9320 -0.2464
  198MOL0     H27284  10.716   9.352   5.211 -0.8518  0.6409  0.1497
  198MOL0     H27285  10.855   9.301   5.118  0.4263  1.3223 -0.6880
  198MOL0     H27286  10.858   9.133   4.867 -1.4996 -0.5772 -0.6848
  198MOL0     H27287  10.946   8.957   4.700  0.7871  0.4242 -0.9479
  198MOL0     H27288  11.119   8.859   4.555  0.1763 -0.6065  0.0865
  198MOL0     H27289  10.936   8.851   4.528  0.5406 -2.3581 -0.9656
  198MOL0     H27290  11.043   8.699   4.368  1.6515 -0.2130  0.1367
  198MOL0     H27291  10.943   8.812   4.303  0.3698  1.4808  0.5953
  198MOL0     H27292  11.183   8.755   4.202 -3.1363 -0.4389  0.6893
  198MOL0     H27293  11.252   8.836   4.342 -0.2667  1.4507  0.3743
  198MOL0     H27294  11.163   9.063   4.255  1.6312  1.0913 -2.3938
  198MOL0     H27295  11.058   8.983   4.149 -1.0549 -1.5555  3.0043
  198MOL0     H27296  11.358   8.980   4.141  2.6919  4.0902 -2.9384
  198MOL0     H27297  11.260   8.891   4.021  0.6976  1.4980 -0.8221
  198MOL0     H27298  11.261   9.196   4.086 -0.9206 -0.4139  0.6903
  198MOL0     H27299  11.170   9.116   3.955  0.3162 -0.6568 -0.6814
  198MOL0     H27300  11.465   9.158   3.976 -0.5679  0.7305  0.7386
  198MOL0     H27301  11.350   9.234   3.864  0.4141 -0.5153 -0.2412
  198MOL0     H27302  11.329   9.007   3.734  2.2214 -0.2602 -2.6596
  198MOL0     H27303  11.444   8.933   3.848  2.1435 -0.3254 -1.7163
  198MOL0     H27304  11.034   9.269   4.445 -0.4353 -2.1008  0.0956
  198MOL0     H27305  10.985   9.446   4.620  0.9909 -0.5128 -1.6446
  198MOL0     H27306  11.082   9.715   5.020  1.2257 -0.8069 -0.0006
  198MOL0     H27307  10.969   9.854   5.191 -2.5608  0.8513 -0.2837
  198MOL0     H27308  10.469   9.912   4.579 -1.3146  3.0665  0.0681
  198MOL0     H27309  10.335  10.090   4.494  2.1482 -0.7345 -0.6368
  198MOL0     H27310  10.077  10.208   4.117  1.1624  2.1601  2.2722
  198MOL0     H27311   9.944  10.319   3.975  0.4277 -0.4629 -0.1069
  198MOL0     H27312   9.626  10.565   4.168 -2.3773 -0.0806 -0.1438
  198MOL0     H27313   9.723  10.647   4.038 -0.5254  0.3896  0.2872
  198MOL0     H27314   9.527  10.562   3.885 -0.4429  1.7132 -0.7184
  198MOL0     H27315   9.489  10.678   3.995  0.3688 -0.1602 -0.0680
  198MOL0     H27316   9.453  10.375   4.033  2.0039  1.7079 -3.5748
  198MOL0     H27317   9.416  10.490   4.161 -1.6864 -1.6866 -0.0573
  198MOL0     H27318   9.281  10.507   3.882 -1.2930 -1.0745 -0.2523
  198MOL0     H27319   9.229  10.602   4.022  0.6268  1.2537 -0.9776
  198MOL0     H27320   9.026  10.213   4.024  0.3541 -0.2155 -0.2506
  198MOL0     H27321   9.671  10.402   4.297 -0.6375 -1.4703  0.3484
  198MOL0     H27322   9.645  10.243   4.466  1.0626  2.3346 -0.5018
  198MOL0     H27323   9.729  10.099   4.442 -3.0144 -0.9084 -0.6458
  198MOL0     H27324   9.801  10.236   4.547 -1.7438  1.5732 -0.5698
  199MOL0     O27325   5.659   8.042  10.881 -0.8378  0.9790  0.4484
  199MOL0     C27326   5.633   8.004  10.767  0.4257 -0.0906  0.2959
  199MOL0     O27327   5.724   7.928  10.686  0.3766  0.2548 -0.6460
  199MOL0     C27328   5.860   7.942  10.698  0.8827  0.8079 -0.3173
  199MOL0     C27329   5.930   7.977  10.584 -0.3613  0.0886  0.0472
  199MOL0     C27330   6.071   7.976  10.579  0.5384  0.8531 -0.3665
  199MOL0     C27331   6.146   7.946  10.697 -0.6738  1.0124 -0.5832
  199MOL0     O27332   6.286   7.962  10.696  0.0455  0.2806 -0.1085
  199MOL0     C27333   6.367   7.859  10.764 -0.2871  0.0076 -0.1130
  199MOL0     C27334   6.502   7.845  10.683 -0.2552  0.4187 -0.1794
  199MOL0     C27335   6.607   7.964  10.708 -1.2569 -0.0260  0.1982
  199MOL0     C27336   6.666   7.968  10.850  0.5661 -0.0596  0.5391
  199MOL0     C27337   6.793   8.062  10.833  0.0223  0.6059  0.2545
  199MOL0     C27338   6.855   8.090  10.975  0.7641  0.1283 -1.2948
  199MOL0     C27339   6.962   8.190  10.963  0.3733  0.4681  1.2506
  199MOL0     C27340   7.039   8.207  11.097 -0.3956  0.4749  0.2050
  199MOL0     N27341   7.147   8.307  11.088  0.2493 -0.3037 -0.8338
  199MOL0     C27342   7.151   8.441  11.135 -0.2500  0.2363  0.5028
  199MOL0     C27343   7.275   8.483  11.099 -0.0656 -0.8095  0.1479
  199MOL0     C27344   7.321   8.629  11.127  0.3449 -0.5925  0.9446
  199MOL0     C27345   7.357   8.647  11.272  0.1032  0.3061 -0.4486
  199MOL0     C27346   7.464   8.755  11.296 -0.5258 -0.2686 -0.3130
  199MOL0     C27347   7.568   8.712  11.402  0.0947 -0.1082 -0.2278
  199MOL0     O27348   7.654   8.596  11.356 -0.3713  0.1121 -0.7461
  199MOL0     C27349   7.744   8.537  11.444 -0.2343 -0.6783 -0.4414
  199MOL0     C27350   7.827   8.440  11.403  0.5931 -0.5528  1.2143
  199MOL0     C27351   7.919   8.370  11.487 -0.6258 -0.7465  0.3485
  199MOL0     C27352   7.988   8.256  11.430  0.4266 -0.4363 -0.3885
  199MOL0     C27353   7.939   8.431  11.610  0.3775  0.0814 -0.9526
  199MOL0     C27354   8.042   8.383  11.703  0.1766  1.1345 -0.8605
  199MOL0     O27355   8.164   8.353  11.647  0.2355  0.0689  0.3006
  199MOL0     C27356   8.281   8.366  11.720  0.5315  0.0828 -0.1351
  199MOL0     C27357   8.392   8.281  11.681  0.6478 -0.4144  1.1978
  199MOL0     C27358   8.519   8.298  11.739  0.1273 -0.7020 -0.1605
  199MOL0     C27359   8.532   8.392  11.840  0.6415  0.0683  0.3658
  199MOL0     O27360   8.643   8.431  11.900  0.4783  0.2714  0.9925
  199MOL0     C27361   8.744   8.333  11.912  0.5293 -0.9036  0.2695
  199MOL0     C27362   8.861   8.397  11.991  0.2976 -0.3165  0.3291
  199MOL0     C27363   8.998   8.351  11.942 -0.6280  0.3610  0.3489
  199MOL0     C27364   9.123   8.395  12.020 -0.5321  0.0863  0.1649
  199MOL0     C27365   9.247   8.331  11.971 -0.2178 -0.5194 -0.2314
  199MOL0     C27366   9.371   8.377  12.046 -0.0880  0.1665 -0.3878
  199MOL0     C27367   9.496   8.285  12.023 -0.4230 -0.0748  0.2787
  199MOL0     C27368   9.625   8.332  12.096 -0.5463 -0.4567 -0.2323
  199MOL0    Cl27369   9.665   8.492  12.045  0.3345  0.1058 -0.6031
  199MOL0     C27370   8.421   8.460  11.878  0.3498  0.1927  0.2015
  199MOL0     C27371   8.295   8.455  11.823 -0.0074  0.8739  0.5432
  199MOL0     O27372   8.021   8.373  11.822  0.4663  0.6618  0.5860
  199MOL0     C27373   7.858   8.534  11.651  1.1731  0.0032  0.0404
  199MOL0     C27374   7.758   8.592  11.574  0.1614  0.1874 -0.9533
  199MOL0     N27375   7.348   8.374  11.044  1.2237  0.2632 -0.7795
  199MOL0     N27376   7.266   8.269  11.038 -0.4071 -0.7672 -0.1328
  199MOL0     C27377   6.075   7.918  10.810  1.1306 -0.2025 -0.7861
  199MOL0     C27378   5.933   7.913  10.814 -0.5889  0.8730  0.6902
  199MOL0     C27379   5.493   8.015  10.712  0.4013  0.1767 -0.2541
  199MOL0     C27380   5.452   7.908  10.630  0.5954 -0.3995  0.8550
  199MOL0     C27381   5.320   7.893  10.594 -0.8303 -0.3411  0.3370
  199MOL0     C27382   5.225   7.989  10.632 -0.6123 -0.7878  0.2490
  199MOL0     O27383   5.097   7.975  10.595  0.4582 -0.1279 -0.3577
  199MOL0     C27384   5.078   7.916  10.465 -0.4595  0.1907  0.3358
  199MOL0     C27385   4.944   7.965  10.404 -0.9284 -0.5478 -0.5675
  199MOL0     C27386   4.899   7.924  10.264  0.1543  0.0793  0.5707
  199MOL0     C27387   4.790   8.022  10.212 -0.3213 -0.1616  0.6335
  199MOL0     C27388   4.727   7.966  10.093  0.2921 -0.3207  0.2206
  199MOL0     C27389   4.669   7.934   9.995  0.4522  0.2797 -0.0473
  199MOL0     C27390   5.261   8.093  10.712  0.1937 -0.6690 -0.0113
  199MOL0     C27391   5.394   8.110  10.751  0.1885 -0.7985 -0.5053
  199MOL0     C27392   5.432   8.233  10.825 -0.5356  0.0213 -0.0510
  199MOL0     H27393   5.888   8.004  10.487 -0.9502 -2.4943 -0.4946
  199MOL0     H27394   6.124   8.009  10.490  0.3787  1.1807 -0.3433
  199MOL0     H27395   6.310   7.766  10.765 -0.9359  0.4012  0.6773
  199MOL0     H27396   6.375   7.885  10.870 -4.2054  0.1922  0.2816
  199MOL0     H27397   6.556   7.756  10.716 -3.1547 -1.6794 -0.6230
  199MOL0     H27398   6.492   7.836  10.574  0.5959 -0.8400 -0.1756
  199MOL0     H27399   6.692   7.970  10.640 -0.2238  6.2189  1.3917
  199MOL0     H27400   6.570   8.064  10.683  2.7781  1.2762 -1.4124
  199MOL0     H27401   6.589   8.015  10.912 -2.3462 -2.7886 -0.7755
  199MOL0     H27402   6.701   7.871  10.886  3.2687 -0.2028 -2.0459
  199MOL0     H27403   6.770   8.150  10.772  0.0214  0.3837 -0.0723
  199MOL0     H27404   6.870   8.009  10.776  0.5818  0.5645  1.0464
  199MOL0     H27405   6.780   8.130  11.044  0.9391  0.2327 -1.1656
  199MOL0     H27406   6.889   7.995  11.018  1.2759  0.7279 -0.3410
  199MOL0     H27407   6.930   8.287  10.923  1.3007  0.4573  0.4632
  199MOL0     H27408   7.035   8.158  10.888  0.2847  1.8584  0.5392
  199MOL0     H27409   6.973   8.241  11.178  1.1891  0.6394  1.4771
  199MOL0     H27410   7.075   8.107  11.120 -0.1290  0.7575  1.0460
  199MOL0     H27411   7.068   8.501  11.172  0.4419  2.8831 -1.8865
  199MOL0     H27412   7.243   8.700  11.099  1.1387 -1.2464 -3.7821
  199MOL0     H27413   7.398   8.656  11.055 -1.5832  2.7513 -0.0891
  199MOL0     H27414   7.265   8.682  11.321 -0.5920 -0.7902 -0.9301
  199MOL0     H27415   7.390   8.552  11.315  0.9101  1.3985  1.5108
  199MOL0     H27416   7.526   8.780  11.210 -0.6413 -0.0692 -0.3397
  199MOL0     H27417   7.418   8.847  11.334  1.5464 -0.0584  1.8946
  199MOL0     H27418   7.638   8.795  11.419 -1.7194  1.3079  0.6786
  199MOL0     H27419   7.505   8.698  11.490 -1.9445  1.1499 -1.4299
  199MOL0     H27420   7.810   8.414  11.299 -0.4926  0.7551  1.0387
  199MOL0     H27421   8.043   8.296  11.344 -0.7659  0.8963 -0.5597
  199MOL0     H27422   7.904   8.197  11.392 -0.2819  0.8999 -0.9585
  199MOL0     H27423   8.043   8.203  11.508 -0.1595  1.2844  1.2953
  199MOL0     H27424   8.363   8.207  11.607  0.9758  0.1029  0.5348
  199MOL0     H27425   8.611   8.247  11.713  1.9207  1.7286  1.0780
  199MOL0     H27426   8.704   8.242  11.957 -1.9998 -0.1182 -0.2104
  199MOL0     H27427   8.790   8.296  11.820  0.4249  0.5712 -0.4137
  199MOL0     H27428   8.854   8.506  11.988  0.4938 -0.3183 -0.6610
  199MOL0     H27429   8.855   8.361  12.094 -0.5464 -0.0452  0.3870
  199MOL0     H27430   9.011   8.381  11.838 -1.0472 -1.2089 -0.1831
  199MOL0     H27431   8.997   8.241  11.939 -3.6532  0.3135 -0.1895
  199MOL0     H27432   9.106   8.355  12.120  1.7818 -1.2199  0.0988
  199MOL0     H27433   9.126   8.504  12.025  0.1835  0.0593  0.4686
  199MOL0     H27434   9.235   8.222  11.977 -0.6624 -0.4410  0.3318
  199MOL0     H27435   9.250   8.365  11.867 -1.6250 -0.3331 -0.2332
  199MOL0     H27436   9.347   8.373  12.152  1.2967  0.5652 -0.0427
  199MOL0     H27437   9.397   8.477  12.011 -1.9269  0.0010 -2.4801
  199MOL0     H27438   9.521   8.289  11.917 -0.4050 -1.1357  0.2316
  199MOL0     H27439   9.472   8.191  12.074 -1.3500  0.7473  1.4158
  199MOL0     H27440   9.712   8.267  12.080  0.4682  0.5080  1.0762
  199MOL0     H27441   9.609   8.333  12.204  1.8476 -3.5971  0.2959
  199MOL0     H27442   8.436   8.536  11.954  1.3834  0.3505 -0.1411
  199MOL0     H27443   8.215   8.516  11.865 -0.2337  0.4333  0.7555
  199MOL0     H27444   7.874   8.579  11.749  0.2037 -2.3051  1.3389
  199MOL0     H27445   7.714   8.684  11.611  2.0268  0.8763 -0.3312
  199MOL0     H27446   6.124   7.920  10.906 -0.1698  1.3537 -0.0916
  199MOL0     H27447   5.882   7.888  10.906  0.4625 -1.3366  0.7409
  199MOL0     H27448   5.521   7.828  10.607  1.1741  0.2367  0.3264
  199MOL0     H27449   5.291   7.801  10.544  0.9920 -0.5448 -0.4185
  199MOL0     H27450   5.166   7.938  10.404  0.6407 -0.7156  1.5351
  199MOL0     H27451   5.070   7.807  10.474  1.3496 -0.1432 -1.5046
  199MOL0     H27452   4.959   8.073  10.412  0.6877 -0.8510  1.3753
  199MOL0     H27453   4.868   7.934  10.477  0.9740 -4.0019  0.1704
  199MOL0     H27454   4.992   7.914  10.206  0.1975  1.3294  0.3910
  199MOL0     H27455   4.840   7.833  10.273 -2.8516  1.7060 -1.1163
  199MOL0     H27456   4.844   8.115  10.193  0.2331  0.0586  2.9703
  199MOL0     H27457   4.705   8.055  10.272 -1.9515 -1.9605 -0.5488
  199MOL0     H27458   4.616   7.901   9.909  0.2138  3.2608 -1.1620
  199MOL0     H27459   5.186   8.169  10.730  1.8949  0.6670  1.8692
  199MOL0     H27460   5.352   8.306  10.836 -0.5052 -0.2896  3.2741
  199MOL0     H27461   5.450   8.198  10.927 -0.8694 -2.7060 -0.8433
  199MOL0     H27462   5.523   8.273  10.780  1.2301 -1.7874  1.6902
  200MOL0     O27463   1.301   6.322   6.523 -0.4660  0.0954  0.0094
  200MOL0     C27464   1.355   6.236   6.454  0.5594 -1.1697 -0.0485
  200MOL0     O27465   1.422   6.135   6.496  0.0202 -0.1803 -0.5156
  200MOL0     C27466   1.491   6.142   6.617  0.2724 -1.6579 -0.9864
  200MOL0     C27467   1.422   6.131   6.738  1.3074 -0.2079  0.5045
  200MOL0     C27468   1.491   6.140   6.855  0.0467  0.2228  0.4921
  200MOL0     C27469   1.633   6.158   6.874  0.5411  0.3275  0.2329
  200MOL0     O27470   1.701   6.155   6.991  0.0921 -0.0125 -0.6998
  200MOL0     C27471   1.623   6.129   7.109  0.2485 -0.4708 -0.3630
  200MOL0     C27472   1.701   6.098   7.241  0.7287 -0.7929 -0.0018
  200MOL0     C27473   1.779   5.962   7.249  0.4016 -0.3238 -0.0120
  200MOL0     C27474   1.916   5.970   7.170  0.6819 -0.3762 -0.2138
  200MOL0     C27475   2.020   5.853   7.204  0.0512  0.1020  0.0617
  200MOL0     C27476   2.066   5.869   7.350 -0.2020  0.0259  0.1537
  200MOL0     C27477   2.026   5.739   7.424  0.1343  0.6192 -0.4708
  200MOL0     C27478   2.100   5.717   7.553  0.0716  0.1265 -0.0945
  200MOL0     N27479   2.241   5.695   7.531 -0.0070  0.2886  0.1835
  200MOL0     C27480   2.299   5.573   7.495 -0.0491  0.1302 -0.0798
  200MOL0     C27481   2.433   5.599   7.518 -1.0383  0.0528 -0.3531
  200MOL0     C27482   2.549   5.498   7.498  0.3183  0.8900 -0.4041
  200MOL0     C27483   2.572   5.413   7.623  0.3874 -0.2618 -0.8551
  200MOL0     C27484   2.624   5.488   7.749  0.3449  0.3411  1.0045
  200MOL0     C27485   2.678   5.397   7.861 -0.1760  0.3587  0.3506
  200MOL0     O27486   2.661   5.440   8.002  0.6083  0.1728  0.3262
  200MOL0     C27487   2.546   5.423   8.058  0.4437 -0.8292  0.1117
  200MOL0     C27488   2.446   5.344   8.006 -0.3784 -0.1624  0.2776
  200MOL0     C27489   2.329   5.315   8.079 -0.6773  1.0054 -0.0105
  200MOL0     C27490   2.225   5.223   8.013  0.5640 -1.0124 -1.0434
  200MOL0     C27491   2.310   5.363   8.212 -0.4967  0.2569 -0.1491
  200MOL0     C27492   2.189   5.330   8.303 -0.6908  0.7554 -0.2835
  200MOL0     O27493   2.210   5.337   8.439 -0.0500 -0.6343 -0.1112
  200MOL0     C27494   2.108   5.291   8.521  0.9746 -0.0594 -0.2230
  200MOL0     C27495   2.013   5.384   8.576  0.6751 -0.0889  0.2721
  200MOL0     C27496   1.912   5.343   8.657  0.5492  0.4512  0.3325
  200MOL0     C27497   1.904   5.203   8.687 -0.1805 -0.1615  0.7773
  200MOL0     O27498   1.805   5.143   8.758  0.2367 -0.0074 -0.6139
  200MOL0     C27499   1.682   5.206   8.793 -0.2883  0.3900 -0.0910
  200MOL0     C27500   1.562   5.097   8.814  1.4846 -0.2206 -1.2272
  200MOL0     C27501   1.607   4.989   8.927 -0.1529  0.1765  0.0557
  200MOL0     C27502   1.510   4.877   8.957  0.2088  0.2943  0.3626
  200MOL0     C27503   1.362   4.899   9.009  0.4167 -0.2280 -0.4536
  200MOL0     C27504   1.274   4.766   9.010 -0.0407 -0.5575  0.0563
  200MOL0     C27505   1.331   4.663   9.111 -0.2028  0.8508  1.4072
  200MOL0     C27506   1.251   4.520   9.128 -0.4080 -0.0040  0.0971
  200MOL0    Cl27507   1.359   4.413   9.215  0.4686  0.3995 -0.2249
  200MOL0     C27508   1.996   5.110   8.640  0.5239 -0.4370  0.3115
  200MOL0     C27509   2.093   5.156   8.551 -0.1768 -0.2463 -0.6475
  200MOL0     O27510   2.087   5.302   8.247 -0.2810 -0.2305 -1.3216
  200MOL0     C27511   2.424   5.430   8.263  0.2922  0.5545  0.3045
  200MOL0     C27512   2.540   5.469   8.190  0.3446 -0.3817  0.5022
  200MOL0     N27513   2.445   5.733   7.553  0.6493  0.0981  1.1715
  200MOL0     N27514   2.335   5.792   7.551  0.1668 -0.1995  0.0293
  200MOL0     C27515   1.705   6.175   6.750 -0.3533  0.2374  0.3003
  200MOL0     C27516   1.628   6.182   6.629  0.4559  1.1380  0.0305
  200MOL0     C27517   1.325   6.223   6.307 -0.0976 -0.5857 -0.8961
  200MOL0     C27518   1.370   6.112   6.223  0.5751  0.7413 -1.0276
  200MOL0     C27519   1.368   6.113   6.083 -0.0026 -0.3111  0.4557
  200MOL0     C27520   1.311   6.219   6.011 -0.3325  0.6140 -0.2844
  200MOL0     O27521   1.291   6.236   5.876  0.0094  0.4541  0.3440
  200MOL0     C27522   1.293   6.120   5.797 -0.1953 -0.2557  0.5794
  200MOL0     C27523   1.287   6.167   5.658 -0.5884  0.6245  1.3709
  200MOL0     C27524   1.160   6.102   5.600 -1.0156  0.2696  0.0413
  200MOL0     C27525   1.155   6.123   5.446 -0.2756 -0.7025  0.4422
  200MOL0     C27526   1.021   6.153   5.396 -0.3292 -0.0766 -0.4362
  200MOL0     C27527   0.909   6.198   5.365  0.0327  0.6814 -0.5279
  200MOL0     C27528   1.256   6.323   6.086 -0.8720  0.1365 -0.1540
  200MOL0     C27529   1.259   6.324   6.229  0.0673  0.6843  0.3139
  200MOL0     C27530   1.213   6.448   6.288  0.5765 -0.6523 -0.9556
  200MOL0     H27531   1.315   6.128   6.723  1.6042  1.4412 -2.9065
  200MOL0     H27532   1.426   6.127   6.941 -0.8368 -1.5624 -0.4015
  200MOL0     H27533   1.565   6.039   7.086  2.0047 -1.0253 -3.1318
  200MOL0     H27534   1.554   6.213   7.119  0.4134  0.1554 -3.4076
  200MOL0     H27535   1.767   6.183   7.262 -1.5565  0.3228  3.4134
  200MOL0     H27536   1.619   6.102   7.313 -1.6195 -1.2462 -2.4952
  200MOL0     H27537   1.799   5.946   7.355  2.5936  1.7292 -0.0383
  200MOL0     H27538   1.716   5.879   7.215 -1.4223  0.0905  2.1242
  200MOL0     H27539   1.897   5.968   7.062 -0.2944  1.5156 -0.1203
  200MOL0     H27540   1.968   6.062   7.196  0.4671 -0.6626  1.3073
  200MOL0     H27541   2.108   5.885   7.147  0.9786  1.3573  2.0722
  200MOL0     H27542   1.980   5.754   7.178 -1.1879  0.9152 -1.3037
  200MOL0     H27543   2.175   5.878   7.349 -0.3021  1.7999  1.0428
  200MOL0     H27544   2.036   5.960   7.402  0.9305 -0.7280  2.2234
  200MOL0     H27545   2.051   5.655   7.359 -0.8172  2.5620 -3.5815
  200MOL0     H27546   1.918   5.739   7.446  0.2321 -1.5903  0.2922
  200MOL0     H27547   2.091   5.802   7.622  0.7653 -0.1261  0.3150
  200MOL0     H27548   2.060   5.630   7.606  1.1293 -1.6945 -2.1048
  200MOL0     H27549   2.243   5.488   7.459  1.0179  0.4361 -2.6844
  200MOL0     H27550   2.638   5.554   7.468 -0.7880  0.7061 -4.5704
  200MOL0     H27551   2.531   5.428   7.416  0.5634 -0.3953  0.6002
  200MOL0     H27552   2.478   5.364   7.653  0.7320  0.7948  2.4124
  200MOL0     H27553   2.642   5.335   7.591  1.0448  0.4784 -1.2363
  200MOL0     H27554   2.700   5.554   7.707 -2.5414  3.1224 -0.1745
  200MOL0     H27555   2.550   5.561   7.782 -1.2052  0.6989 -2.8154
  200MOL0     H27556   2.643   5.295   7.841 -1.0545  0.6900  0.1573
  200MOL0     H27557   2.786   5.381   7.852 -0.2763  0.1545 -0.7499
  200MOL0     H27558   2.461   5.302   7.906  0.4280 -0.3813  0.4849
  200MOL0     H27559   2.194   5.150   8.088  0.0333 -3.3405 -3.4055
  200MOL0     H27560   2.264   5.155   7.937  1.5452 -1.3046 -0.3030
  200MOL0     H27561   2.146   5.288   7.974  1.8502  0.5281 -1.1817
  200MOL0     H27562   2.020   5.486   8.539  1.8606 -0.1813  0.2178
  200MOL0     H27563   1.839   5.410   8.701 -0.1101  0.9500 -1.4564
  200MOL0     H27564   1.711   5.250   8.889  2.0413  0.3447 -0.7260
  200MOL0     H27565   1.642   5.279   8.722  2.2630  2.2401  0.2492
  200MOL0     H27566   1.469   5.142   8.850  0.7498 -0.8113 -2.3217
  200MOL0     H27567   1.542   5.053   8.716  1.8627 -2.7487 -0.2593
  200MOL0     H27568   1.624   5.035   9.024 -3.8657 -0.6806  1.2689
  200MOL0     H27569   1.705   4.950   8.896  0.1307  0.6287  0.3901
  200MOL0     H27570   1.564   4.800   9.013 -0.8413 -1.4395 -0.8953
  200MOL0     H27571   1.506   4.830   8.859  0.6356  1.1677 -0.0863
  200MOL0     H27572   1.365   4.939   9.110  2.4866 -1.7760  0.1785
  200MOL0     H27573   1.311   4.975   8.948  0.2807  0.0284 -0.0219
  200MOL0     H27574   1.259   4.737   8.906 -1.8570  2.1672 -0.5515
  200MOL0     H27575   1.171   4.778   9.044 -0.0206 -1.4002  0.4326
  200MOL0     H27576   1.350   4.718   9.204  2.3337  3.6357 -0.5477
  200MOL0     H27577   1.429   4.642   9.067 -0.5573  2.5600 -0.3585
  200MOL0     H27578   1.232   4.476   9.029 -0.0466  1.5383 -0.6926
  200MOL0     H27579   1.154   4.529   9.177 -1.1068 -1.7909 -0.8197
  200MOL0     H27580   2.008   5.011   8.684  0.1951 -1.4281 -1.7175
  200MOL0     H27581   2.147   5.087   8.487 -0.1962 -0.5601 -0.3311
  200MOL0     H27582   2.426   5.464   8.366 -0.9886  0.7491  0.2735
  200MOL0     H27583   2.617   5.518   8.249 -2.4224  3.8207  1.0138
  200MOL0     H27584   1.810   6.200   6.749 -0.4483  0.6406  0.5025
  200MOL0     H27585   1.684   6.188   6.536  1.0742 -1.0615  0.2176
  200MOL0     H27586   1.428   6.033   6.271  1.5558  1.8559 -0.3333
  200MOL0     H27587   1.407   6.026   6.031  2.1559  0.5144  0.6185
  200MOL0     H27588   1.389   6.069   5.811  0.8030  1.3425 -0.0690
  200MOL0     H27589   1.201   6.072   5.830 -1.8976 -0.2892 -3.5702
  200MOL0     H27590   1.376   6.135   5.603 -0.6227  2.3164  0.2437
  200MOL0     H27591   1.285   6.274   5.637  1.9034  0.0417 -3.1222
  200MOL0     H27592   1.182   5.995   5.607  0.6707  0.6816  1.9010
  200MOL0     H27593   1.069   6.136   5.651 -0.8663  0.5291  0.1364
  200MOL0     H27594   1.179   6.034   5.387  0.8855  1.4144 -2.5104
  200MOL0     H27595   1.221   6.207   5.424 -1.0271 -0.2024  0.0491
  200MOL0     H27596   0.814   6.241   5.340  0.3118  1.7035  0.1086
  200MOL0     H27597   1.214   6.410   6.038 -3.5199 -0.3906  0.9907
  200MOL0     H27598   1.296   6.508   6.326  0.0112  0.3176 -1.2254
  200MOL0     H27599   1.157   6.514   6.221  0.1343 -0.6589 -0.6025
  200MOL0     H27600   1.142   6.429   6.369  0.9911  0.6351 -0.2542
  201MOL0     O27601   0.504   9.123   9.783 -1.0408  0.4882 -0.3647
  201MOL0     C27602   0.536   9.018   9.730  0.5173  0.1365  1.2550
  201MOL0     O27603   0.482   8.976   9.613  0.0100  0.3819 -0.7472
  201MOL0     C27604   0.378   9.049   9.569 -0.6944  0.7249 -0.0951
  201MOL0     C27605   0.265   9.064   9.643  0.1691 -0.0166 -0.8563
  201MOL0     C27606   0.164   9.141   9.593  0.2635  0.5462  0.4149
  201MOL0     C27607   0.172   9.198   9.467 -0.4781 -0.3919  0.0346
  201MOL0     O27608   0.071   9.275   9.425  0.0275  0.0672 -0.0569
  201MOL0     C27609   0.083   9.367   9.320 -0.1282 -0.3140  0.3875
  201MOL0     C27610  -0.059   9.415   9.282 -0.0636 -0.4358 -0.5260
  201MOL0     C27611  -0.134   9.463   9.406  0.2394 -0.6430  0.1145
  201MOL0     C27612  -0.072   9.599   9.480  0.5113 -0.1282 -0.5108
  201MOL0     C27613  -0.145   9.653   9.595  0.9543  0.5858  0.8962
  201MOL0     C27614  -0.296   9.672   9.577 -0.9608  0.0848  0.1583
  201MOL0     C27615  -0.322   9.788   9.482 -0.5463  0.7787  0.7250
  201MOL0     C27616  -0.477   9.822   9.483  0.6668  0.7981 -0.3660
  201MOL0     N27617  -0.537   9.756   9.367  0.7424 -0.0411 -1.0172
  201MOL0     C27618  -0.505   9.768   9.239 -0.0102 -0.7453 -0.8112
  201MOL0     C27619  -0.566   9.662   9.173  0.4428  1.0395 -0.5513
  201MOL0     C27620  -0.557   9.628   9.026  0.5121 -0.4219 -0.2378
  201MOL0     C27621  -0.615   9.486   8.978  0.7036  0.7548 -0.0091
  201MOL0     C27622  -0.644   9.494   8.833 -0.5037  0.1159 -0.8864
  201MOL0     C27623  -0.718   9.370   8.781 -0.2700 -0.4391  0.4855
  201MOL0     O27624  -0.631   9.267   8.744  0.8102  0.3822 -1.0263
  201MOL0     C27625  -0.552   9.209   8.843  0.0307 -0.0992 -0.7410
  201MOL0     C27626  -0.414   9.208   8.811 -0.5591  0.8148  0.6629
  201MOL0     C27627  -0.328   9.138   8.892 -0.0252  1.1650 -0.6951
  201MOL0     C27628  -0.193   9.148   8.833 -0.0166 -0.2510 -0.1008
  201MOL0     C27629  -0.379   9.072   9.010 -0.2649  0.5854 -0.4938
  201MOL0     C27630  -0.286   9.004   9.102 -0.5626 -0.4649  0.0249
  201MOL0     O27631  -0.168   8.955   9.054  0.2352  0.0010  0.5927
  201MOL0     C27632  -0.095   8.897   9.149 -0.8398  1.1580 -0.2921
  201MOL0     C27633  -0.069   8.758   9.128 -0.4913  0.1907  0.4372
  201MOL0     C27634   0.026   8.689   9.201 -0.1665  0.0941  0.3888
  201MOL0     C27635   0.074   8.745   9.314 -0.4432 -0.1898 -0.2131
  201MOL0     O27636   0.156   8.667   9.396  0.2353  0.2305  0.2341
  201MOL0     C27637   0.138   8.687   9.540 -0.6620  0.2437  0.2370
  201MOL0     C27638   0.269   8.634   9.607  0.0108 -0.0652 -0.7062
  201MOL0     C27639   0.227   8.585   9.741 -0.5787 -0.0622 -0.1209
  201MOL0     C27640   0.350   8.542   9.820 -0.6745  0.2656 -0.2437
  201MOL0     C27641   0.333   8.545   9.967  0.0650 -0.6806 -0.8182
  201MOL0     C27642   0.317   8.682  10.031  0.3467  0.4029  0.2688
  201MOL0     C27643   0.345   8.676  10.180  0.1232  0.5918 -0.2081
  201MOL0     C27644   0.350   8.826  10.230  0.6932  0.8222 -0.5811
  201MOL0    Cl27645   0.183   8.874  10.274  0.2006 -0.3193 -0.2768
  201MOL0     C27646   0.043   8.878   9.340 -0.6986 -0.4165 -0.4629
  201MOL0     C27647  -0.042   8.955   9.260 -1.0908  0.1230 -0.5501
  201MOL0     O27648  -0.329   8.981   9.220 -0.1263  0.2213  0.1918
  201MOL0     C27649  -0.508   9.088   9.040 -0.5952 -0.0965 -0.7969
  201MOL0     C27650  -0.597   9.153   8.966 -0.7376  0.0770  0.8201
  201MOL0     N27651  -0.633   9.588   9.271  0.4108 -0.0877 -0.0463
  201MOL0     N27652  -0.621   9.651   9.380  0.8425  0.5049  0.8633
  201MOL0     C27653   0.277   9.163   9.387  0.8110  0.2469  0.2294
  201MOL0     C27654   0.382   9.088   9.433 -0.1064 -0.6518  0.1852
  201MOL0     C27655   0.627   8.926   9.805 -1.1478 -0.5313  0.0481
  201MOL0     C27656   0.640   8.784   9.768 -0.9071 -0.5985 -0.8204
  201MOL0     C27657   0.726   8.698   9.843 -0.1282  0.2458 -0.2689
  201MOL0     C27658   0.787   8.740   9.959 -0.5357  1.0704  0.5072
  201MOL0     O27659   0.857   8.640  10.019  0.7210  0.0509  0.3695
  201MOL0     C27660   0.885   8.657  10.159  0.3730  0.1436 -0.1234
  201MOL0     C27661   0.964   8.545  10.219  0.7054 -0.4324 -0.4027
  201MOL0     C27662   1.059   8.603  10.328 -0.7849 -0.5453  0.0320
  201MOL0     C27663   1.167   8.506  10.373  1.0787  0.7350 -0.0869
  201MOL0     C27664   1.125   8.430  10.491 -0.4736  0.0893 -0.6936
  201MOL0     C27665   1.096   8.371  10.593 -0.1370  0.3914 -0.1498
  201MOL0     C27666   0.763   8.867  10.010 -0.6105 -0.3545 -0.1319
  201MOL0     C27667   0.690   8.959   9.937  0.6283 -0.0612 -0.2365
  201MOL0     C27668   0.667   9.087   9.999 -0.5649 -0.0831 -0.3173
  201MOL0     H27669   0.246   9.028   9.743 -0.2718 -1.0181 -1.2886
  201MOL0     H27670   0.077   9.175   9.649 -0.3629  0.7275 -0.6491
  201MOL0     H27671   0.117   9.321   9.227  0.1282 -1.4497  1.0307
  201MOL0     H27672   0.159   9.440   9.351  2.5018 -2.8020  0.2489
  201MOL0     H27673  -0.055   9.496   9.208 -1.7660  1.4554  1.3247
  201MOL0     H27674  -0.115   9.330   9.242  0.8653 -1.2851 -0.0585
  201MOL0     H27675  -0.233   9.493   9.370 -0.5276 -1.6337  1.2776
  201MOL0     H27676  -0.154   9.391   9.487 -0.3065  2.7857  3.2908
  201MOL0     H27677   0.016   9.559   9.531 -0.9800 -1.0278  1.4853
  201MOL0     H27678  -0.065   9.679   9.405 -1.4033  1.4318  0.8819
  201MOL0     H27679  -0.106   9.753   9.616 -2.8932  3.0474 -2.2008
  201MOL0     H27680  -0.125   9.587   9.680  2.5121  0.7441  0.6764
  201MOL0     H27681  -0.331   9.580   9.531 -0.2508  0.7315 -1.7722
  201MOL0     H27682  -0.346   9.691   9.672  0.0882 -3.9275  1.7029
  201MOL0     H27683  -0.291   9.764   9.380  0.6773 -1.2299  1.4939
  201MOL0     H27684  -0.273   9.876   9.523 -0.0213  0.5469  0.5969
  201MOL0     H27685  -0.527   9.785   9.573  1.8548 -0.5621 -0.2237
  201MOL0     H27686  -0.494   9.930   9.481 -2.0534  0.4392 -0.3685
  201MOL0     H27687  -0.450   9.852   9.199 -0.6207  0.3718  0.5934
  201MOL0     H27688  -0.450   9.621   9.009  0.3546  0.8695 -2.0275
  201MOL0     H27689  -0.593   9.717   8.974 -1.2721 -0.4991  0.7652
  201MOL0     H27690  -0.537   9.414   9.005 -0.1523  0.3773  1.6247
  201MOL0     H27691  -0.703   9.466   9.041  2.0214 -0.2420  1.6010
  201MOL0     H27692  -0.713   9.578   8.821  2.4341  2.7624 -0.3451
  201MOL0     H27693  -0.556   9.526   8.777 -2.0314  3.4938 -1.6175
  201MOL0     H27694  -0.798   9.333   8.846 -0.5838  2.4559  1.9171
  201MOL0     H27695  -0.778   9.420   8.704  0.7350  1.0149  0.6053
  201MOL0     H27696  -0.388   9.271   8.726  0.6944  2.4355  2.1456
  201MOL0     H27697  -0.145   9.187   8.924 -2.5925 -0.9919  1.6936
  201MOL0     H27698  -0.194   9.220   8.751  1.3275  1.4068  1.2348
  201MOL0     H27699  -0.147   9.056   8.796 -0.2368  0.3935 -2.0847
  201MOL0     H27700  -0.114   8.711   9.042 -0.7565  4.7156 -2.2068
  201MOL0     H27701   0.059   8.586   9.189 -0.0284  0.1895 -0.0787
  201MOL0     H27702   0.131   8.795   9.556  4.1129  1.1641 -1.9582
  201MOL0     H27703   0.055   8.628   9.579 -0.9800  0.4689 -0.0847
  201MOL0     H27704   0.303   8.548   9.548 -5.0963 -1.7880 -1.6843
  201MOL0     H27705   0.349   8.707   9.624 -0.5612  0.1381  1.3621
  201MOL0     H27706   0.167   8.494   9.736  0.3870 -0.6291 -2.5836
  201MOL0     H27707   0.178   8.662   9.802 -1.8860 -0.1889 -0.9800
  201MOL0     H27708   0.440   8.596   9.789  0.4243 -1.6018 -0.4713
  201MOL0     H27709   0.370   8.440   9.786 -0.0524  0.3728 -0.2038
  201MOL0     H27710   0.237   8.494   9.978 -2.0299  3.3769  2.8924
  201MOL0     H27711   0.418   8.493  10.012 -2.8804 -3.4220  2.1213
  201MOL0     H27712   0.216   8.721  10.015  0.3204  0.7789  1.2551
  201MOL0     H27713   0.383   8.753   9.981 -1.6717  3.1934  1.2928
  201MOL0     H27714   0.445   8.636  10.196  0.7862  2.8915  2.1134
  201MOL0     H27715   0.272   8.624  10.242  0.2327 -0.3236 -0.8241
  201MOL0     H27716   0.392   8.894  10.156  2.7840  0.1609 -0.0551
  201MOL0     H27717   0.418   8.818  10.315 -1.3665  1.8005  1.2810
  201MOL0     H27718   0.079   8.929   9.429 -1.2560 -1.8559  0.6501
  201MOL0     H27719  -0.072   9.056   9.287  0.6194  0.4929  0.0688
  201MOL0     H27720  -0.543   9.050   9.136 -0.3755  0.1747 -0.6076
  201MOL0     H27721  -0.703   9.158   8.986 -0.8649 -0.8759  0.4582
  201MOL0     H27722   0.278   9.202   9.285 -1.0831  0.7784  0.3772
  201MOL0     H27723   0.458   9.056   9.363  0.1177  0.5333 -0.1206
  201MOL0     H27724   0.594   8.748   9.676 -1.3659 -1.3420 -0.3086
  201MOL0     H27725   0.732   8.595   9.808  0.3486 -0.6404  2.2512
  201MOL0     H27726   0.944   8.749  10.167 -0.5395  0.6397  1.5727
  201MOL0     H27727   0.792   8.671  10.216 -0.1765 -1.0038 -0.7016
  201MOL0     H27728   1.013   8.482  10.143 -0.7351 -0.8825 -1.0002
  201MOL0     H27729   0.887   8.485  10.269  0.8240 -2.4077 -2.3990
  201MOL0     H27730   1.106   8.694  10.290 -0.8066 -0.9027 -0.8662
  201MOL0     H27731   1.001   8.629  10.417 -0.6274  3.0864 -0.7621
  201MOL0     H27732   1.259   8.558  10.401 -0.4243  1.9870  3.0128
  201MOL0     H27733   1.175   8.436  10.290 -2.0111  0.6149 -0.4258
  201MOL0     H27734   1.075   8.313  10.680  0.9099  0.1810 -0.0183
  201MOL0     H27735   0.799   8.895  10.109  0.8055 -1.2186 -0.3718
  201MOL0     H27736   0.674   9.170   9.928 -0.9182  1.5613  1.5091
  201MOL0     H27737   0.568   9.088  10.046 -1.2425  0.2387 -1.6883
  201MOL0     H27738   0.743   9.099  10.076 -3.5781 -1.5404  3.2124
  202MOL0     O27739   4.767   4.276  10.860 -0.1335 -0.7277 -0.7204
  202MOL0     C27740   4.680   4.227  10.795 -0.1416  0.7532 -0.3465
  202MOL0     O27741   4.694   4.102  10.730 -0.4102  0.6558 -0.5712
  202MOL0     C27742   4.823   4.051  10.714 -0.3164  0.6163 -0.1517
  202MOL0     C27743   4.911   4.126  10.653 -0.0287 -0.0217  0.3317
  202MOL0     C27744   5.042   4.090  10.628  0.0101 -0.3787  0.1529
  202MOL0     C27745   5.086   3.962  10.652 -0.0863  0.1946  0.2017
  202MOL0     O27746   5.217   3.927  10.616 -0.5042 -0.2711  0.1531
  202MOL0     C27747   5.243   3.791  10.569 -0.8913  0.5588 -0.8316
  202MOL0     C27748   5.289   3.767  10.423 -0.4838  0.1349 -0.3843
  202MOL0     C27749   5.398   3.856  10.376  0.2806  0.3420 -0.6306
  202MOL0     C27750   5.544   3.797  10.382  0.1468  0.0951 -1.2826
  202MOL0     C27751   5.621   3.841  10.266  0.8393 -0.0600  0.8548
  202MOL0     C27752   5.763   3.776  10.266  0.4784 -0.8240  0.0521
  202MOL0     C27753   5.743   3.627  10.264  0.8127 -0.0486 -0.4285
  202MOL0     C27754   5.888   3.563  10.263  0.8997  0.9660  0.0408
  202MOL0     N27755   5.876   3.422  10.305 -0.0846  0.1980  0.5622
  202MOL0     C27756   5.957   3.360  10.404  0.4373 -0.6437  1.2010
  202MOL0     C27757   5.944   3.230  10.370  0.3924 -1.2421 -0.4223
  202MOL0     C27758   6.007   3.103  10.420 -0.1592  0.7885 -0.5926
  202MOL0     C27759   5.906   2.987  10.446 -0.6355  0.0639  0.2731
  202MOL0     C27760   5.830   3.017  10.571  0.1243  0.7360  0.8467
  202MOL0     C27761   5.747   2.895  10.607 -0.4790 -0.2389  0.7051
  202MOL0     O27762   5.660   2.933  10.717 -0.5757 -0.0857  0.1107
  202MOL0     C27763   5.655   2.846  10.825 -0.5372 -0.0249 -0.8631
  202MOL0     C27764   5.548   2.756  10.843  0.0386  0.7336  0.1970
  202MOL0     C27765   5.554   2.663  10.948  0.4003  0.6878 -0.1325
  202MOL0     C27766   5.433   2.579  10.980  0.4832  0.1163 -0.8874
  202MOL0     C27767   5.671   2.653  11.031  0.2409 -0.9170 -0.2008
  202MOL0     C27768   5.683   2.572  11.160  0.1255  0.0063 -0.2553
  202MOL0     O27769   5.814   2.565  11.207  0.1646 -0.3333  0.9505
  202MOL0     C27770   5.837   2.507  11.329 -0.4338 -0.7571 -0.3741
  202MOL0     C27771   5.751   2.518  11.442 -0.9250 -0.7527 -0.5425
  202MOL0     C27772   5.776   2.458  11.571 -0.3172 -0.3461  0.2105
  202MOL0     C27773   5.897   2.395  11.591 -0.4498 -0.7495  0.3680
  202MOL0     O27774   5.922   2.342  11.714  0.1457 -0.9105 -0.1681
  202MOL0     C27775   5.986   2.220  11.698 -1.2949  0.4183 -0.2560
  202MOL0     C27776   5.982   2.140  11.827  0.1057 -0.0664 -0.3795
  202MOL0     C27777   6.098   2.152  11.926  0.5798 -0.5543  0.3213
  202MOL0     C27778   6.091   2.070  12.052  0.2470 -0.6236 -0.4239
  202MOL0     C27779   6.224   2.072  12.141  0.5408 -0.0197 -0.5091
  202MOL0     C27780   6.257   2.210  12.189  0.2602  0.4270 -0.2374
  202MOL0     C27781   6.396   2.213  12.260  0.5773 -0.5713  0.2669
  202MOL0     C27782   6.402   2.127  12.387 -0.1603 -0.3436 -0.0460
  202MOL0    Cl27783   6.278   2.169  12.515  0.3764  0.2285 -0.9171
  202MOL0     C27784   5.994   2.385  11.480 -0.2487 -0.4927  0.0006
  202MOL0     C27785   5.959   2.437  11.354 -0.0090  0.0368 -0.1746
  202MOL0     O27786   5.584   2.510  11.200  0.5656 -0.3606  0.1274
  202MOL0     C27787   5.775   2.744  11.002  0.0789  0.3630  0.7881
  202MOL0     C27788   5.763   2.835  10.907 -0.7314 -0.4637  0.4563
  202MOL0     N27789   5.849   3.217  10.274 -0.3505  0.0268  1.1119
  202MOL0     N27790   5.810   3.332  10.231  0.0857 -0.3011 -0.4446
  202MOL0     C27791   4.985   3.870  10.707  0.2966 -0.3723  0.0973
  202MOL0     C27792   4.858   3.916  10.748 -0.4400  0.8230 -0.4913
  202MOL0     C27793   4.555   4.304  10.777  0.4540 -0.3091  0.1248
  202MOL0     C27794   4.517   4.307  10.640 -0.7163  0.0959  0.4316
  202MOL0     C27795   4.383   4.326  10.610  0.2369  0.3603 -0.6214
  202MOL0     C27796   4.284   4.365  10.704  0.2624 -0.0822 -0.3148
  202MOL0     O27797   4.150   4.389  10.676 -0.4538  0.0148 -0.0012
  202MOL0     C27798   4.106   4.394  10.543 -0.5998  0.1314  0.6040
  202MOL0     C27799   4.123   4.535  10.481  0.5346 -0.3490  0.9900
  202MOL0     C27800   4.039   4.636  10.557 -0.5030 -0.7415  1.0491
  202MOL0     C27801   4.008   4.757  10.465  0.7387  0.0992  0.0797
  202MOL0     C27802   3.897   4.825  10.535  1.4482 -0.0559 -1.1924
  202MOL0     C27803   3.809   4.887  10.595  0.4110 -0.3885 -0.3485
  202MOL0     C27804   4.326   4.379  10.839 -0.3955 -0.5021  0.0424
  202MOL0     C27805   4.463   4.351  10.877 -0.5533 -0.4111 -0.0840
  202MOL0     C27806   4.500   4.336  11.021 -0.9855 -0.4840  0.5579
  202MOL0     H27807   4.873   4.222  10.619 -1.3130 -0.7723 -0.3767
  202MOL0     H27808   5.106   4.165  10.585  1.4434 -0.9708  1.1448
  202MOL0     H27809   5.157   3.727  10.587 -1.2678  0.5681 -2.4580
  202MOL0     H27810   5.331   3.761  10.626 -2.2911 -0.7579  0.7471
  202MOL0     H27811   5.321   3.663  10.409  0.2849  0.2582  0.3466
  202MOL0     H27812   5.201   3.779  10.360 -1.3447 -1.8548  0.3536
  202MOL0     H27813   5.374   3.883  10.273 -3.2377  2.4005  0.5468
  202MOL0     H27814   5.383   3.950  10.429 -2.8704 -0.4110  0.0448
  202MOL0     H27815   5.589   3.824  10.478 -0.2008 -1.7890 -0.5308
  202MOL0     H27816   5.523   3.690  10.387  0.0517  0.1661  0.2249
  202MOL0     H27817   5.642   3.947  10.248  2.3544 -0.4094  0.4441
  202MOL0     H27818   5.578   3.812  10.169  3.2815 -2.5352  0.3862
  202MOL0     H27819   5.820   3.816  10.181  2.4990  1.0190  2.1364
  202MOL0     H27820   5.818   3.814  10.352  0.2888  0.6399 -0.4472
  202MOL0     H27821   5.669   3.587  10.193 -1.8574  2.4390  0.7688
  202MOL0     H27822   5.698   3.607  10.361  2.6266 -0.4905  0.3505
  202MOL0     H27823   5.935   3.568  10.164  0.8707  1.0729  0.0325
  202MOL0     H27824   5.960   3.608  10.332  2.0889 -0.0140 -0.5071
  202MOL0     H27825   6.009   3.397  10.492  1.3608 -1.2530  0.9287
  202MOL0     H27826   6.061   3.112  10.515 -0.0547 -3.2075 -0.1048
  202MOL0     H27827   6.078   3.079  10.340  0.2472  0.8907 -0.2613
  202MOL0     H27828   5.836   2.961  10.366  1.0835  0.5046 -1.4593
  202MOL0     H27829   5.967   2.896  10.446 -1.0375 -0.2314 -0.9538
  202MOL0     H27830   5.898   3.049  10.651  3.1546 -0.6914 -0.9683
  202MOL0     H27831   5.756   3.095  10.553 -2.3809 -1.8407 -0.9313
  202MOL0     H27832   5.692   2.852  10.523 -0.8449 -3.7000  2.5344
  202MOL0     H27833   5.806   2.811  10.644 -0.9689 -1.0623 -0.3453
  202MOL0     H27834   5.456   2.767  10.787 -1.0183  1.7907  2.0386
  202MOL0     H27835   5.396   2.596  11.081 -0.8635  1.0914 -1.5114
  202MOL0     H27836   5.450   2.472  10.964 -1.4291 -1.0073  3.2566
  202MOL0     H27837   5.344   2.608  10.922  0.2026  1.0086 -0.0391
  202MOL0     H27838   5.668   2.588  11.437  0.6160  1.5139  2.2278
  202MOL0     H27839   5.713   2.476  11.658  0.9181  2.1816  0.6816
  202MOL0     H27840   5.926   2.158  11.632  1.1040 -2.9445  0.4497
  202MOL0     H27841   6.087   2.224  11.656 -1.0292  0.3531  0.3563
  202MOL0     H27842   5.886   2.149  11.878  1.8073  0.9498  2.9511
  202MOL0     H27843   5.996   2.039  11.787 -1.3864 -0.1325 -0.8100
  202MOL0     H27844   6.090   2.254  11.965 -2.2637 -1.2501  1.8995
  202MOL0     H27845   6.191   2.136  11.872  1.0029 -1.3158  1.2366
  202MOL0     H27846   6.063   1.969  12.019  1.0983 -0.2851 -2.3012
  202MOL0     H27847   6.005   2.112  12.105 -0.0785  1.1346 -2.2121
  202MOL0     H27848   6.201   2.018  12.233  4.4944  0.4476  0.9576
  202MOL0     H27849   6.309   2.027  12.089  0.1485 -0.0681 -1.1222
  202MOL0     H27850   6.179   2.238  12.259  1.2945 -0.4215  1.3090
  202MOL0     H27851   6.266   2.283  12.108 -0.5171 -0.1891 -0.8932
  202MOL0     H27852   6.412   2.318  12.285 -1.0789  0.2867 -1.8653
  202MOL0     H27853   6.471   2.181  12.187 -0.1538 -1.1464 -0.2536
  202MOL0     H27854   6.498   2.139  12.440 -0.4324  2.8283 -0.0687
  202MOL0     H27855   6.396   2.023  12.355 -1.6225 -0.3218  0.1118
  202MOL0     H27856   6.098   2.356  11.489  0.4365  2.1119  1.6650
  202MOL0     H27857   6.035   2.414  11.281  2.1576  2.5797  1.0962
  202MOL0     H27858   5.876   2.742  11.044  1.0349 -0.0446 -1.3683
  202MOL0     H27859   5.853   2.894  10.890 -0.8440 -0.2748  0.5236
  202MOL0     H27860   5.018   3.769  10.730  0.2765 -0.9380 -2.1772
  202MOL0     H27861   4.773   3.856  10.781 -1.3941  0.1034 -3.9009
  202MOL0     H27862   4.588   4.274  10.565  1.6799  2.7586  1.3386
  202MOL0     H27863   4.357   4.325  10.504  2.6903  1.5639 -1.3062
  202MOL0     H27864   4.154   4.320  10.478 -2.4544 -1.2577  0.7307
  202MOL0     H27865   4.000   4.371  10.550 -1.1175  2.1632 -0.0282
  202MOL0     H27866   4.094   4.527  10.375 -1.2801  0.1546  1.4132
  202MOL0     H27867   4.228   4.568  10.486  0.6077 -0.1622 -0.7920
  202MOL0     H27868   3.951   4.592  10.604 -0.2091 -0.5278  1.8147
  202MOL0     H27869   4.107   4.671  10.635 -0.4460 -2.2511  1.7032
  202MOL0     H27870   3.980   4.712  10.369 -0.4117 -1.1209  0.9370
  202MOL0     H27871   4.093   4.825  10.454  0.3191  0.2427 -3.3176
  202MOL0     H27872   3.731   4.942  10.645  0.7765  0.5005 -0.7424
  202MOL0     H27873   4.266   4.411  10.924 -0.6961 -0.3215 -0.2352
  202MOL0     H27874   4.606   4.328  11.049 -1.5709 -0.8080  2.8313
  202MOL0     H27875   4.454   4.420  11.075 -1.9751 -0.5929 -0.0964
  202MOL0     H27876   4.434   4.258  11.058 -0.6278 -1.3112 -0.4944
  203MOL0     O27877   1.234   9.217  10.773  0.7064 -0.1707  0.3168
  203MOL0     C27878   1.128   9.280  10.787  0.3223  0.2146  0.5169
  203MOL0     O27879   1.059   9.292  10.905  0.6593 -0.3341 -0.0403
  203MOL0     C27880   1.117   9.237  11.015  0.2352  0.8695  0.4611
  203MOL0     C27881   1.166   9.109  11.022  0.4290  0.5378  0.8202
  203MOL0     C27882   1.229   9.064  11.143  0.4456 -0.3668 -0.1737
  203MOL0     C27883   1.228   9.138  11.264 -0.3892 -1.0081  0.1874
  203MOL0     O27884   1.261   9.098  11.389  0.0333  0.5918  0.0517
  203MOL0     C27885   1.229   8.959  11.420 -0.1803  0.2103 -0.1509
  203MOL0     C27886   1.257   8.923  11.572 -0.8004  0.4168 -0.0379
  203MOL0     C27887   1.199   8.792  11.622  0.3421 -0.2450  0.2765
  203MOL0     C27888   1.260   8.678  11.545 -0.9270 -0.1339  0.1164
  203MOL0     C27889   1.197   8.549  11.598 -0.0923  0.0979  0.6523
  203MOL0     C27890   1.285   8.425  11.577 -0.0564  0.4003  0.2293
  203MOL0     C27891   1.287   8.375  11.435  0.1794  0.1617 -0.2877
  203MOL0     C27892   1.153   8.334  11.363 -0.2651 -0.0178  0.1671
  203MOL0     N27893   1.099   8.197  11.389 -0.0606  0.6437  0.5079
  203MOL0     C27894   1.140   8.074  11.341  0.2260  0.1168  0.5221
  203MOL0     C27895   1.079   7.987  11.427 -0.0000  0.6618 -0.3166
  203MOL0     C27896   1.101   7.837  11.425 -0.2175 -1.1538  0.1074
  203MOL0     C27897   1.224   7.799  11.517  0.8421 -1.3624  0.1700
  203MOL0     C27898   1.179   7.807  11.668  0.3783 -0.9350  0.2860
  203MOL0     C27899   1.300   7.796  11.756 -0.6865 -0.5195  0.1737
  203MOL0     O27900   1.361   7.672  11.765 -0.6327 -0.2840  0.0084
  203MOL0     C27901   1.480   7.658  11.843  0.3398  0.6737 -0.0039
  203MOL0     C27902   1.527   7.758  11.930  0.1616 -0.4175  0.0493
  203MOL0     C27903   1.649   7.750  11.999 -0.5284  0.4844 -0.9132
  203MOL0     C27904   1.695   7.878  12.073 -0.5877  0.2042  0.7835
  203MOL0     C27905   1.732   7.633  11.982  0.0475  0.2307  1.2280
  203MOL0     C27906   1.863   7.607  12.047 -0.1431 -0.3618  0.4848
  203MOL0     O27907   1.922   7.483  12.008  0.1000 -0.8521 -0.1373
  203MOL0     C27908   2.035   7.452  12.081 -0.6231  0.1061 -0.1129
  203MOL0     C27909   2.028   7.401  12.204 -0.1659  0.4971  0.1730
  203MOL0     C27910   2.140   7.357  12.278  0.0717  0.6202 -0.6041
  203MOL0     C27911   2.266   7.349  12.218 -0.0351  0.7409  0.2382
  203MOL0     O27912   2.357   7.293  12.304  0.0422 -0.2064  0.0890
  203MOL0     C27913   2.496   7.285  12.276  0.2918  0.4852  0.5020
  203MOL0     C27914   2.573   7.236  12.398  0.9308 -0.0108 -0.4413
  203MOL0     C27915   2.715   7.190  12.370 -1.2897 -0.3617 -0.2877
  203MOL0     C27916   2.723   7.038  12.336 -0.4182  0.2799 -0.0174
  203MOL0     C27917   2.868   6.981  12.353  0.1279  0.4124 -0.8332
  203MOL0     C27918   2.991   7.036  12.285 -1.0626  0.3228  0.2230
  203MOL0     C27919   3.102   6.928  12.301  0.2569 -0.0976 -0.3642
  203MOL0     C27920   3.226   6.972  12.224 -0.1508  0.5295 -1.1654
  203MOL0    Cl27921   3.380   6.881  12.266 -0.2012  0.3092  0.0571
  203MOL0     C27922   2.275   7.375  12.082  0.8716 -0.5790 -0.4316
  203MOL0     C27923   2.160   7.436  12.017 -0.7015 -0.3920 -0.4273
  203MOL0     O27924   1.923   7.686  12.123  0.1905  0.0580  0.0592
  203MOL0     C27925   1.686   7.530  11.893 -0.9938  0.2110  0.2892
  203MOL0     C27926   1.564   7.542  11.822  0.1523  0.1969 -0.2811
  203MOL0     N27927   0.981   8.050  11.499  0.4594  0.0987 -0.5131
  203MOL0     N27928   0.992   8.176  11.476  0.5457  0.3327 -1.0208
  203MOL0     C27929   1.171   9.273  11.252  0.0651 -0.1714 -0.5239
  203MOL0     C27930   1.111   9.317  11.133 -1.1916  0.3373  0.2691
  203MOL0     C27931   1.070   9.350  10.666 -0.0578 -0.3221 -0.6943
  203MOL0     C27932   1.169   9.416  10.586 -0.1037 -1.2179 -0.6446
  203MOL0     C27933   1.129   9.491  10.477 -0.5318  0.0402 -1.0782
  203MOL0     C27934   0.991   9.498  10.443  0.1067  0.3859 -0.2350
  203MOL0     O27935   0.960   9.565  10.330  0.1850  0.6885  0.5719
  203MOL0     C27936   0.827   9.623  10.315  0.5390  0.3628  0.2951
  203MOL0     C27937   0.811   9.733  10.208 -1.1044  0.3107 -0.0782
  203MOL0     C27938   0.673   9.809  10.207  0.4082 -0.8686 -0.5666
  203MOL0     C27939   0.563   9.718  10.147 -0.2453 -0.6869 -0.8082
  203MOL0     C27940   0.493   9.634  10.245  0.3645  0.4609 -0.1816
  203MOL0     C27941   0.437   9.561  10.330 -0.0378  0.2695  0.3196
  203MOL0     C27942   0.905   9.423  10.523  0.5319 -0.7497  0.4455
  203MOL0     C27943   0.934   9.356  10.633 -0.1892  0.0015  0.6612
  203MOL0     C27944   0.836   9.271  10.705 -0.2608  0.6791 -0.2996
  203MOL0     H27945   1.155   9.043  10.937 -0.6038  2.2558 -0.4592
  203MOL0     H27946   1.283   8.971  11.135 -0.2465 -0.9838  1.6972
  203MOL0     H27947   1.296   8.897  11.360  0.9217  1.6189 -0.4322
  203MOL0     H27948   1.126   8.931  11.399 -0.1889  0.5147 -0.5175
  203MOL0     H27949   1.363   8.928  11.601 -0.8701  2.7919 -0.0577
  203MOL0     H27950   1.212   8.998  11.637 -0.8320 -1.0073  1.6745
  203MOL0     H27951   1.223   8.800  11.729  1.4524  1.9959 -0.0976
  203MOL0     H27952   1.090   8.792  11.616  0.4083 -0.1438 -1.3548
  203MOL0     H27953   1.248   8.688  11.437  1.4856  0.3200 -0.1721
  203MOL0     H27954   1.369   8.675  11.560 -0.7175  3.2988  0.0402
  203MOL0     H27955   1.102   8.515  11.555 -0.2223  0.8149  0.3560
  203MOL0     H27956   1.184   8.568  11.705  0.4035 -0.9514  0.9063
  203MOL0     H27957   1.388   8.435  11.614  0.4238 -0.2553 -0.8838
  203MOL0     H27958   1.239   8.339  11.625 -2.6617  0.0973 -2.5110
  203MOL0     H27959   1.360   8.293  11.438  0.7073  0.6189  2.7373
  203MOL0     H27960   1.333   8.455  11.376  0.5620  0.9656  1.0587
  203MOL0     H27961   1.076   8.410  11.378  0.4014  1.1077 -1.7564
  203MOL0     H27962   1.178   8.333  11.256  0.6981 -1.4995  0.3802
  203MOL0     H27963   1.210   8.056  11.260  0.5752 -0.3870  0.9363
  203MOL0     H27964   1.124   7.796  11.327 -0.5028 -0.2374 -0.3501
  203MOL0     H27965   1.014   7.781  11.460  0.3551 -1.1055  1.7177
  203MOL0     H27966   1.270   7.702  11.497  0.8190 -0.8671 -2.5980
  203MOL0     H27967   1.302   7.875  11.502 -1.0858  0.5632 -0.5440
  203MOL0     H27968   1.127   7.901  11.687  2.7877  0.3396  1.0164
  203MOL0     H27969   1.106   7.730  11.694 -2.2116  1.9644  2.2778
  203MOL0     H27970   1.375   7.868  11.720 -0.0993 -0.7332  0.9681
  203MOL0     H27971   1.270   7.815  11.859  0.1960  1.2999  0.1298
  203MOL0     H27972   1.461   7.843  11.944 -2.5472 -2.8456  4.1890
  203MOL0     H27973   1.703   7.866  12.182 -1.4982 -0.8695  0.7526
  203MOL0     H27974   1.624   7.961  12.063  0.7068  1.2832  0.3124
  203MOL0     H27975   1.796   7.903  12.040  1.2385 -1.0344  4.8278
  203MOL0     H27976   1.925   7.406  12.236 -0.1333 -0.7697  0.5095
  203MOL0     H27977   2.141   7.319  12.379  2.3886 -3.6672 -1.9921
  203MOL0     H27978   2.521   7.225  12.188  2.4110  2.0235 -0.0387
  203MOL0     H27979   2.549   7.377  12.248 -0.1964  0.7843  0.5425
  203MOL0     H27980   2.584   7.322  12.464 -2.9559 -0.0731  0.5611
  203MOL0     H27981   2.526   7.145  12.439 -1.7354 -0.9965 -4.9995
  203MOL0     H27982   2.788   7.195  12.451  3.2700 -0.2425 -3.9895
  203MOL0     H27983   2.767   7.255  12.299  0.5370  0.6510  1.8579
  203MOL0     H27984   2.686   7.024  12.234 -2.6419  2.1350  0.4582
  203MOL0     H27985   2.667   6.973  12.404  3.4652 -2.5575  0.8277
  203MOL0     H27986   2.889   6.971  12.460 -1.3271  1.6860 -0.3943
  203MOL0     H27987   2.873   6.879  12.314  3.2087 -0.0460  0.4649
  203MOL0     H27988   3.019   7.132  12.329 -0.0950 -0.0679  0.4863
  203MOL0     H27989   2.959   7.052  12.182  0.5455 -1.1854 -0.5531
  203MOL0     H27990   3.069   6.827  12.273 -0.6416  0.3582 -1.0269
  203MOL0     H27991   3.123   6.931  12.408 -2.2969  1.6271  0.1989
  203MOL0     H27992   3.257   7.076  12.235  2.4195 -0.4286  2.7402
  203MOL0     H27993   3.194   6.953  12.121 -2.2156  4.4347 -1.4452
  203MOL0     H27994   2.359   7.357  12.016 -0.0693  2.4781 -2.7357
  203MOL0     H27995   2.168   7.465  11.913  0.7072  0.7946 -0.0251
  203MOL0     H27996   1.733   7.432  11.899 -1.4856 -0.1258 -1.0344
  203MOL0     H27997   1.512   7.461  11.772 -1.4952 -0.6209  2.5725
  203MOL0     H27998   1.177   9.345  11.332  0.0249  0.2177 -0.8683
  203MOL0     H27999   1.068   9.417  11.131 -1.6042  0.1526 -0.3322
  203MOL0     H28000   1.275   9.402  10.604  0.2125  1.4317  0.0801
  203MOL0     H28001   1.202   9.546  10.417 -1.6495 -0.6853 -3.2271
  203MOL0     H28002   0.771   9.540  10.273 -0.7208  1.2544  0.1559
  203MOL0     H28003   0.792   9.658  10.413  3.4239  3.3828  0.4105
  203MOL0     H28004   0.834   9.690  10.110 -1.3452  0.2620 -0.1132
  203MOL0     H28005   0.885   9.810  10.230 -2.2814  1.0423  1.4670
  203MOL0     H28006   0.640   9.828  10.309  0.6837  0.1941 -0.6730
  203MOL0     H28007   0.682   9.903  10.151 -0.3223  0.8644  2.0703
  203MOL0     H28008   0.603   9.654  10.067  0.4093 -0.1259 -0.9428
  203MOL0     H28009   0.498   9.794  10.102  3.7226  3.0504 -0.9662
  203MOL0     H28010   0.408   9.505  10.417 -1.5450 -0.4702 -0.6122
  203MOL0     H28011   0.802   9.435  10.493  0.1941  1.6883  2.2314
  203MOL0     H28012   0.894   9.188  10.747  3.2004  3.5313  1.1078
  203MOL0     H28013   0.786   9.327  10.784  1.3363 -2.1186  2.9732
  203MOL0     H28014   0.762   9.228  10.637 -0.4493  0.4715  0.0342
  204MOL0     O28015  11.368   7.704   4.057  0.3484  0.4230 -0.4389
  204MOL0     C28016  11.323   7.813   4.026  0.2182 -0.7215 -0.1983
  204MOL0     O28017  11.402   7.922   3.988  0.4348  0.2419  0.0600
  204MOL0     C28018  11.538   7.919   3.959  0.1619  0.3763  1.5704
  204MOL0     C28019  11.618   7.803   3.925  0.9828 -0.7683 -0.0365
  204MOL0     C28020  11.741   7.805   3.864 -0.4757 -0.6413 -1.2345
  204MOL0     C28021  11.810   7.934   3.870 -0.3082  0.0574 -0.4133
  204MOL0     O28022  11.945   7.932   3.830  0.1172 -0.0002 -0.4045
  204MOL0     C28023  12.018   8.050   3.801 -0.5603  0.2548 -0.2450
  204MOL0     C28024  12.090   8.104   3.931 -0.3475  0.8264  0.9177
  204MOL0     C28025  12.226   8.034   3.943  1.3285  0.0140 -0.1515
  204MOL0     C28026  12.335   8.081   3.852  0.0053 -0.5948  0.3913
  204MOL0     C28027  12.464   8.004   3.859 -0.2734 -0.0080  0.9115
  204MOL0     C28028  12.582   8.098   3.817 -0.1462 -0.3790 -0.1369
  204MOL0     C28029  12.706   8.022   3.788 -0.5976  0.1877 -1.1945
  204MOL0     C28030  12.819   8.121   3.776 -0.1507 -0.9641  0.5171
  204MOL0     N28031  12.942   8.079   3.695 -0.4112  0.2122 -0.5253
  204MOL0     C28032  13.045   7.998   3.743 -0.6363  0.2402  0.4306
  204MOL0     C28033  13.124   7.987   3.635 -0.0839  0.5457 -0.5000
  204MOL0     C28034  13.222   7.883   3.613 -0.3815  0.2264  0.1975
  204MOL0     C28035  13.356   7.920   3.674  0.0510  1.0424 -0.0633
  204MOL0     C28036  13.466   7.814   3.643  0.6769 -0.2804  0.3281
  204MOL0     C28037  13.591   7.814   3.727  1.0061  0.3995 -0.4495
  204MOL0     O28038  13.656   7.689   3.711  0.5930 -0.6334  0.5644
  204MOL0     C28039  13.721   7.661   3.830 -0.2874  0.5562 -0.3355
  204MOL0     C28040  13.855   7.700   3.837  0.4891  0.7323 -0.1707
  204MOL0     C28041  13.937   7.662   3.946  0.3401 -1.2247 -0.2784
  204MOL0     C28042  14.084   7.702   3.942  0.9347 -0.0570  0.8826
  204MOL0     C28043  13.880   7.593   4.053  1.0838  0.3870  0.1613
  204MOL0     C28044  13.953   7.550   4.168 -0.3142 -0.5288 -0.4827
  204MOL0     O28045  14.076   7.491   4.146  0.6687 -0.1934  1.1364
  204MOL0     C28046  14.169   7.457   4.235 -0.3357 -0.4220 -0.3118
  204MOL0     C28047  14.299   7.412   4.192  0.0767 -0.2270  0.2447
  204MOL0     C28048  14.386   7.344   4.270  0.8664  0.4605  0.7409
  204MOL0     C28049  14.359   7.321   4.411  0.7148 -1.1597  0.9159
  204MOL0     O28050  14.439   7.260   4.494 -0.3595  0.6749 -0.8572
  204MOL0     C28051  14.577   7.232   4.473  0.0673  0.2549  0.4577
  204MOL0     C28052  14.635   7.129   4.573  0.1954  0.4006 -0.2510
  204MOL0     C28053  14.566   6.989   4.565 -0.1353 -0.3123  0.0273
  204MOL0     C28054  14.616   6.889   4.677  0.0576  0.6477 -0.1617
  204MOL0     C28055  14.733   6.800   4.625  1.0431 -0.0619 -0.1602
  204MOL0     C28056  14.764   6.697   4.734 -0.7434 -0.2374  0.6653
  204MOL0     C28057  14.674   6.569   4.725 -0.0098  0.1712 -0.0719
  204MOL0     C28058  14.742   6.443   4.787 -0.0298 -0.3011 -0.4538
  204MOL0    Cl28059  14.876   6.387   4.690  0.1093 -0.0404 -0.4205
  204MOL0     C28060  14.236   7.371   4.457 -0.1007 -0.4737  0.7875
  204MOL0     C28061  14.146   7.437   4.366 -0.6459 -0.2940 -0.1745
  204MOL0     O28062  13.906   7.578   4.281  0.1956 -0.9651  0.3506
  204MOL0     C28063  13.739   7.569   4.061 -0.1693 -0.6381  0.1859
  204MOL0     C28064  13.660   7.604   3.947 -0.0842  0.5082 -0.2198
  204MOL0     N28065  13.074   8.065   3.528 -0.2153 -0.0285 -0.0349
  204MOL0     N28066  12.972   8.132   3.577  0.1428 -0.1212 -0.4041
  204MOL0     C28067  11.742   8.054   3.899  0.4159  0.0255 -0.7133
  204MOL0     C28068  11.607   8.044   3.932 -0.0918  0.2219  0.3606
  204MOL0     C28069  11.180   7.842   4.043  0.2511 -0.2958 -0.1760
  204MOL0     C28070  11.148   7.973   4.002 -0.3134  0.0919 -0.2731
  204MOL0     C28071  11.023   8.026   4.011 -0.4090 -0.1986  0.0956
  204MOL0     C28072  10.928   7.950   4.068 -0.2844  0.9924 -0.7430
  204MOL0     O28073  10.806   8.024   4.073 -0.2691  0.3020  0.1239
  204MOL0     C28074  10.691   7.964   4.141 -0.0320  0.4744  0.1686
  204MOL0     C28075  10.596   7.916   4.034 -1.2131 -0.7566 -0.5985
  204MOL0     C28076  10.527   8.041   3.971  0.2857  0.2962  0.6864
  204MOL0     C28077  10.421   8.000   3.869  0.1391 -0.1168  0.0290
  204MOL0     C28078  10.485   7.977   3.744  0.2709  0.3778  1.3709
  204MOL0     C28079  10.513   7.953   3.633  0.2909  0.2432 -0.3606
  204MOL0     C28080  10.948   7.816   4.111  0.2475 -0.4744 -0.2842
  204MOL0     C28081  11.072   7.758   4.099 -0.0492 -0.2843  1.0745
  204MOL0     C28082  11.097   7.618   4.137  1.1962  0.1299  0.0525
  204MOL0     H28083  11.572   7.707   3.947 -1.1361  0.5159  1.4982
  204MOL0     H28084  11.789   7.710   3.844  2.2395 -0.2898  2.4651
  204MOL0     H28085  11.952   8.128   3.763 -2.0439  0.2340  2.1334
  204MOL0     H28086  12.088   8.016   3.724 -1.5999 -1.8537 -0.3337
  204MOL0     H28087  12.106   8.210   3.912  0.8434  0.4430 -0.4232
  204MOL0     H28088  12.040   8.071   4.022  0.9233  0.3401  1.4620
  204MOL0     H28089  12.266   8.054   4.042  0.4676  0.2750  0.1572
  204MOL0     H28090  12.214   7.927   3.924  1.0987 -0.5513  2.8185
  204MOL0     H28091  12.298   8.093   3.750 -0.0202 -0.3977  0.4231
  204MOL0     H28092  12.357   8.186   3.875  2.1074 -0.3037 -2.4076
  204MOL0     H28093  12.448   7.921   3.789 -0.5556  1.2065 -0.5234
  204MOL0     H28094  12.489   7.972   3.960  0.7005  0.6011  0.8774
  204MOL0     H28095  12.558   8.167   3.736  0.6086 -1.0572 -0.9575
  204MOL0     H28096  12.607   8.160   3.903 -2.0438 -0.1925  0.3313
  204MOL0     H28097  12.683   7.976   3.692  0.5896 -2.2626 -0.3890
  204MOL0     H28098  12.728   7.952   3.869  1.1474  3.4711  1.4049
  204MOL0     H28099  12.787   8.223   3.752  0.7170 -0.4527  1.4518
  204MOL0     H28100  12.859   8.139   3.877  0.6850  1.8854 -0.2333
  204MOL0     H28101  13.065   7.950   3.838  1.0969  2.0862  1.0737
  204MOL0     H28102  13.231   7.866   3.505 -0.5942  1.2455  0.0085
  204MOL0     H28103  13.178   7.789   3.649  1.1009 -2.3031 -3.7984
  204MOL0     H28104  13.402   8.011   3.634  1.6406  0.6469  0.8015
  204MOL0     H28105  13.354   7.934   3.783 -0.6866 -0.3673  0.1257
  204MOL0     H28106  13.427   7.712   3.643 -4.8027  1.4856  1.4422
  204MOL0     H28107  13.505   7.832   3.542  0.9341  0.3152  0.5282
  204MOL0     H28108  13.664   7.885   3.686  2.0484 -0.4099 -0.0397
  204MOL0     H28109  13.568   7.838   3.832  0.9597  0.2646 -0.4291
  204MOL0     H28110  13.906   7.745   3.752  1.3289 -0.2961 -0.2300
  204MOL0     H28111  14.093   7.778   3.864 -2.8942  1.4173  1.6371
  204MOL0     H28112  14.143   7.614   3.915  3.2333  2.1597 -1.9262
  204MOL0     H28113  14.127   7.746   4.033  2.1869 -1.0593  0.7906
  204MOL0     H28114  14.312   7.419   4.085 -0.3485 -5.6853 -0.4563
  204MOL0     H28115  14.468   7.309   4.208 -1.9457 -0.3865 -2.8188
  204MOL0     H28116  14.586   7.194   4.370  0.2849 -1.4388  1.0679
  204MOL0     H28117  14.637   7.322   4.487  1.7977 -0.9623  1.1017
  204MOL0     H28118  14.744   7.121   4.564  0.0219 -1.4344 -1.3497
  204MOL0     H28119  14.622   7.162   4.676 -2.7245  1.3587 -0.8188
  204MOL0     H28120  14.581   6.944   4.467  0.2818  1.1497 -0.6026
  204MOL0     H28121  14.459   7.009   4.577 -0.0757 -0.7906  1.6326
  204MOL0     H28122  14.531   6.822   4.693 -0.1214  1.2187  1.5158
  204MOL0     H28123  14.650   6.942   4.767  0.2031 -0.2139  0.2975
  204MOL0     H28124  14.720   6.744   4.532  2.2400 -0.3225 -0.1832
  204MOL0     H28125  14.822   6.858   4.599  0.8638 -0.3074 -1.4213
  204MOL0     H28126  14.760   6.745   4.832  0.9925  0.2652  0.5221
  204MOL0     H28127  14.868   6.666   4.720 -0.1637  2.3942 -1.8725
  204MOL0     H28128  14.667   6.547   4.618 -0.7256  2.1630 -0.4789
  204MOL0     H28129  14.572   6.588   4.761  0.1893 -3.5911  3.1844
  204MOL0     H28130  14.662   6.369   4.797 -1.8753  1.6933  0.1575
  204MOL0     H28131  14.779   6.462   4.888  2.1363  1.7209 -1.5276
  204MOL0     H28132  14.218   7.381   4.564  0.4993  1.9960  0.7073
  204MOL0     H28133  14.054   7.458   4.420 -1.9656 -0.5778 -2.2175
  204MOL0     H28134  13.697   7.520   4.148 -1.1947  1.7065  1.0940
  204MOL0     H28135  13.554   7.580   3.948  0.1801 -0.7144  0.7646
  204MOL0     H28136  11.789   8.151   3.906  0.7930 -0.2839  2.3278
  204MOL0     H28137  11.552   8.137   3.944  2.5778  2.1874 -1.6440
  204MOL0     H28138  11.217   8.042   3.954  2.7691 -2.7771 -0.2880
  204MOL0     H28139  11.000   8.128   3.981 -0.5553 -0.4408 -0.6307
  204MOL0     H28140  10.726   7.882   4.204  1.0075  1.5225  0.9983
  204MOL0     H28141  10.650   8.040   4.209 -0.1999  1.5551 -1.0971
  204MOL0     H28142  10.517   7.856   4.080 -1.5927  1.3881  1.8285
  204MOL0     H28143  10.643   7.843   3.968  1.2024 -0.8109  1.0389
  204MOL0     H28144  10.475   8.108   4.040 -1.5001  3.8686 -3.6324
  204MOL0     H28145  10.604   8.105   3.926 -0.6879  0.6612 -0.5306
  204MOL0     H28146  10.349   8.078   3.846  1.3842  0.6941 -1.3046
  204MOL0     H28147  10.362   7.919   3.914 -0.6532 -0.2846 -1.2581
  204MOL0     H28148  10.532   7.926   3.531  0.6212 -2.3014  0.3269
  204MOL0     H28149  10.862   7.764   4.152 -0.1606  0.1251 -0.3575
  204MOL0     H28150  11.089   7.603   4.245 -6.4029 -0.9625 -0.1180
  204MOL0     H28151  11.008   7.566   4.100  0.8770  0.4413  0.3724
  204MOL0     H28152  11.170   7.556   4.085 -1.0857 -3.3051  0.5841
  205MOL0     O28153   2.765   0.751   6.724  0.1253 -0.4813  0.4184
  205MOL0     C28154   2.778   0.635   6.687  0.6092 -0.3670  0.5129
  205MOL0     O28155   2.891   0.558   6.683  0.0849 -0.1959  0.1479
  205MOL0     C28156   3.005   0.591   6.758  0.1129  0.6499  0.0454
  205MOL0     C28157   3.087   0.696   6.727  0.5255  0.1790 -0.1149
  205MOL0     C28158   3.203   0.734   6.806 -0.5267  0.6173  0.1559
  205MOL0     C28159   3.221   0.662   6.928  1.4850 -0.4006  0.4198
  205MOL0     O28160   3.324   0.693   7.012  0.8384 -0.0952 -0.5724
  205MOL0     C28161   3.422   0.790   6.979  0.5753  0.0675 -0.2264
  205MOL0     C28162   3.553   0.753   7.047 -0.8341  0.6401 -0.8258
  205MOL0     C28163   3.552   0.810   7.187  0.7954 -0.3064  0.0745
  205MOL0     C28164   3.679   0.767   7.265  0.7136  0.1748 -0.0858
  205MOL0     C28165   3.798   0.848   7.238  0.0897 -0.1723  0.3228
  205MOL0     C28166   3.909   0.772   7.299 -0.1159  0.4662  0.3913
  205MOL0     C28167   4.031   0.869   7.309  0.4030 -0.5996 -0.1638
  205MOL0     C28168   4.050   0.944   7.442 -0.7682  0.2284  0.2454
  205MOL0     N28169   4.183   1.004   7.453  0.7912  0.8165 -0.3371
  205MOL0     C28170   4.281   0.962   7.539 -0.1516  0.4256  0.0826
  205MOL0     C28171   4.365   1.062   7.537  0.0155  0.7642 -0.4502
  205MOL0     C28172   4.500   1.065   7.607 -0.3777  0.7656 -0.6508
  205MOL0     C28173   4.597   0.974   7.547 -0.5478 -0.7268  0.1192
  205MOL0     C28174   4.732   0.979   7.640  0.0362 -0.4215 -0.2264
  205MOL0     C28175   4.820   0.857   7.622 -0.0491  0.0964  0.3110
  205MOL0     O28176   4.751   0.736   7.658  0.3882  0.7340  1.3699
  205MOL0     C28177   4.772   0.619   7.588 -0.3062 -1.1481 -0.2245
  205MOL0     C28178   4.903   0.571   7.566 -0.1471 -0.3504 -0.7130
  205MOL0     C28179   4.908   0.449   7.500  0.0508  0.2746 -0.2341
  205MOL0     C28180   5.047   0.404   7.459  0.0143 -0.4581 -0.3461
  205MOL0     C28181   4.792   0.376   7.451 -0.0926 -0.0867  0.1219
  205MOL0     C28182   4.800   0.252   7.371  0.4561 -0.1019 -0.0642
  205MOL0     O28183   4.908   0.236   7.279  0.0421 -1.1548  0.1179
  205MOL0     C28184   4.962   0.117   7.230 -0.8759 -0.1842 -0.5816
  205MOL0     C28185   5.089   0.127   7.176 -0.5357  1.1616  0.9684
  205MOL0     C28186   5.157   0.018   7.121 -0.6729  0.8734  0.4855
  205MOL0     C28187   5.096  -0.112   7.121 -0.3737  0.3596 -0.1645
  205MOL0     O28188   5.149  -0.220   7.063 -0.2735  0.1236 -0.1663
  205MOL0     C28189   5.165  -0.325   7.161 -0.0555  0.3542  0.6848
  205MOL0     C28190   5.211  -0.450   7.101 -0.2907  0.9503  0.1624
  205MOL0     C28191   5.087  -0.533   7.047  0.8899  0.3283  0.5013
  205MOL0     C28192   5.131  -0.631   6.929  1.1932  0.2684 -1.3422
  205MOL0     C28193   4.997  -0.695   6.870 -1.1631 -0.3929  0.4314
  205MOL0     C28194   4.912  -0.775   6.962 -1.1494  0.2487  0.0191
  205MOL0     C28195   4.786  -0.836   6.890 -0.4770 -0.3001 -0.2997
  205MOL0     C28196   4.696  -0.887   6.996 -0.7010  0.5599 -0.6339
  205MOL0    Cl28197   4.550  -0.963   6.932  0.0079 -0.3324  0.1159
  205MOL0     C28198   4.962  -0.122   7.172  0.0425 -0.6171  0.0525
  205MOL0     C28199   4.895  -0.006   7.223  0.8039 -1.0225 -0.6441
  205MOL0     O28200   4.710   0.172   7.392  0.2104 -0.1197  0.3295
  205MOL0     C28201   4.667   0.434   7.481 -0.2917  0.3076 -0.3420
  205MOL0     C28202   4.658   0.550   7.553 -0.3351 -0.6312  0.0691
  205MOL0     N28203   4.329   1.163   7.453  0.5679 -0.0357  0.1281
  205MOL0     N28204   4.221   1.116   7.397 -0.6077  0.5448 -0.2440
  205MOL0     C28205   3.148   0.543   6.942  0.2768  0.3205  0.3804
  205MOL0     C28206   3.044   0.510   6.862  0.4243  0.4099 -0.0128
  205MOL0     C28207   2.669   0.568   6.611 -0.6301 -0.5456  0.1500
  205MOL0     C28208   2.698   0.487   6.498 -0.9978 -0.3524 -0.1533
  205MOL0     C28209   2.602   0.423   6.421 -0.0009  0.1607 -0.7833
  205MOL0     C28210   2.466   0.456   6.446  0.5477 -0.2808 -0.2812
  205MOL0     O28211   2.356   0.407   6.386 -0.3986  0.3954  0.4782
  205MOL0     C28212   2.374   0.363   6.245 -0.2432  0.1425 -1.3699
  205MOL0     C28213   2.349   0.476   6.137  0.2654 -0.0031  0.3113
  205MOL0     C28214   2.420   0.613   6.152  0.3016 -0.3293 -0.2534
  205MOL0     C28215   2.363   0.703   6.040 -0.4248 -0.3970  0.0930
  205MOL0     C28216   2.433   0.828   6.006 -0.1839  0.0947  0.1081
  205MOL0     C28217   2.477   0.937   5.978 -0.2893  0.6600 -0.0803
  205MOL0     C28218   2.441   0.543   6.551  0.0142  1.3398 -1.2388
  205MOL0     C28219   2.534   0.594   6.642  0.5639 -0.1012  0.6274
  205MOL0     C28220   2.487   0.672   6.770 -0.7578 -0.1689 -0.2565
  205MOL0     H28221   3.054   0.754   6.641  0.7209  2.0362  1.0071
  205MOL0     H28222   3.260   0.821   6.774 -0.1067  1.4115  2.8230
  205MOL0     H28223   3.389   0.888   7.012  1.8949 -0.0132  1.5203
  205MOL0     H28224   3.437   0.792   6.871  0.8702  1.8015 -0.1853
  205MOL0     H28225   3.561   0.644   7.059 -0.8043  0.8955  2.3910
  205MOL0     H28226   3.634   0.807   6.996 -0.1674  2.4305  1.9163
  205MOL0     H28227   3.543   0.919   7.190 -0.6210 -0.4203  0.4809
  205MOL0     H28228   3.472   0.767   7.248  1.0479  1.1641  1.5001
  205MOL0     H28229   3.660   0.760   7.372 -0.5561  1.6739 -0.1804
  205MOL0     H28230   3.705   0.669   7.225 -0.2174  0.5407 -1.6977
  205MOL0     H28231   3.774   0.943   7.287 -4.7695 -0.9772 -0.0449
  205MOL0     H28232   3.812   0.870   7.132  0.3924  0.2356  0.4441
  205MOL0     H28233   3.874   0.728   7.393  1.3855 -0.8789  0.3674
  205MOL0     H28234   3.932   0.678   7.249 -1.0123 -1.0046  2.5507
  205MOL0     H28235   4.052   0.930   7.221  2.6820 -4.0745 -2.2837
  205MOL0     H28236   4.122   0.808   7.313  1.0999  0.4678  1.0887
  205MOL0     H28237   3.987   1.032   7.454  1.2491  2.0007 -1.2495
  205MOL0     H28238   4.024   0.876   7.523  0.8763  1.2278  1.6572
  205MOL0     H28239   4.293   0.877   7.605  0.8179  2.0431  2.1123
  205MOL0     H28240   4.481   1.049   7.713  0.4002 -0.8756 -0.7138
  205MOL0     H28241   4.532   1.169   7.599 -2.5949  1.6856  1.4153
  205MOL0     H28242   4.558   0.873   7.539  0.9338 -1.3090 -0.0772
  205MOL0     H28243   4.618   1.005   7.444 -1.5342 -1.7717 -0.4166
  205MOL0     H28244   4.794   1.067   7.622  0.6930 -0.9960 -0.8389
  205MOL0     H28245   4.712   0.982   7.748 -1.1435 -4.0579 -0.2051
  205MOL0     H28246   4.855   0.860   7.518  1.9068  1.1242  0.9438
  205MOL0     H28247   4.905   0.864   7.691  0.3067 -1.0608  0.0216
  205MOL0     H28248   4.991   0.632   7.585 -1.8468  1.2922  2.7170
  205MOL0     H28249   5.132   0.460   7.498  0.0666 -1.9446  1.8242
  205MOL0     H28250   5.064   0.411   7.351 -2.1797 -0.0971 -0.7105
  205MOL0     H28251   5.055   0.297   7.481  0.0949 -0.8876 -2.2451
  205MOL0     H28252   5.139   0.222   7.163  2.0674 -0.3312 -0.8314
  205MOL0     H28253   5.258   0.029   7.081 -0.2109  2.2819  1.9161
  205MOL0     H28254   5.237  -0.294   7.239 -0.1104  1.9943  0.1235
  205MOL0     H28255   5.078  -0.340   7.225  1.6489  1.0889  3.3809
  205MOL0     H28256   5.275  -0.424   7.016 -0.8266 -1.4542 -1.0672
  205MOL0     H28257   5.265  -0.511   7.175  0.5581  1.9379  0.3735
  205MOL0     H28258   5.016  -0.461   7.007 -0.2777 -0.7475  0.5820
  205MOL0     H28259   5.034  -0.585   7.128 -0.5761  0.1020 -0.5683
  205MOL0     H28260   5.187  -0.715   6.972 -3.3978 -0.2056  5.2243
  205MOL0     H28261   5.194  -0.577   6.858  1.6753 -0.9954 -1.9046
  205MOL0     H28262   4.932  -0.620   6.824 -3.8689 -2.2997  0.9468
  205MOL0     H28263   5.029  -0.759   6.788 -3.8833  0.9599 -1.8425
  205MOL0     H28264   4.883  -0.714   7.048  1.1430 -2.5308  2.9863
  205MOL0     H28265   4.986  -0.844   7.005  1.8246  2.9149 -0.4773
  205MOL0     H28266   4.806  -0.914   6.815 -1.2340 -1.9223  1.1201
  205MOL0     H28267   4.733  -0.761   6.832 -1.7200 -3.4167 -3.6417
  205MOL0     H28268   4.661  -0.796   7.045  0.6007  0.4672  0.5496
  205MOL0     H28269   4.745  -0.959   7.063 -0.0787  1.7857  0.2569
  205MOL0     H28270   4.906  -0.215   7.174  2.4495 -2.1516  1.7273
  205MOL0     H28271   4.798  -0.007   7.272  0.5944  2.7131 -0.7154
  205MOL0     H28272   4.578   0.375   7.463  0.6980 -1.3880  0.0370
  205MOL0     H28273   4.562   0.592   7.580 -0.2013 -1.3947  1.8608
  205MOL0     H28274   3.187   0.486   7.025 -0.6613 -2.3460 -0.9047
  205MOL0     H28275   2.984   0.421   6.878 -2.7121  2.5395  0.9095
  205MOL0     H28276   2.801   0.458   6.479 -0.8932 -0.1768  0.1474
  205MOL0     H28277   2.646   0.359   6.345 -2.0821  0.2875 -2.1626
  205MOL0     H28278   2.476   0.336   6.217 -0.3384 -0.7229 -0.9304
  205MOL0     H28279   2.323   0.267   6.233  2.2601 -1.6725  1.1878
  205MOL0     H28280   2.241   0.489   6.128  0.2922 -0.6668 -1.4587
  205MOL0     H28281   2.369   0.430   6.040 -0.8510 -3.4354  1.5477
  205MOL0     H28282   2.401   0.652   6.252 -3.2183  0.3150 -1.0347
  205MOL0     H28283   2.528   0.605   6.138  0.2289 -1.1608 -0.3874
  205MOL0     H28284   2.256   0.715   6.055 -0.7794  1.0188 -2.7290
  205MOL0     H28285   2.364   0.653   5.943 -1.8407  0.4907 -0.4069
  205MOL0     H28286   2.517   1.028   5.939  1.7118 -0.9425 -1.9924
  205MOL0     H28287   2.335   0.552   6.575  0.2246  1.2033 -0.1726
  205MOL0     H28288   2.565   0.673   6.846 -0.7042  1.5171 -0.2962
  205MOL0     H28289   2.473   0.773   6.732 -4.0854 -0.0783  0.8328
  205MOL0     H28290   2.395   0.633   6.814  0.5685 -4.8623 -1.0676
  206MOL0     O28291   9.854   8.335   5.804  0.4267 -0.4324  0.1814
  206MOL0     C28292   9.866   8.226   5.853  0.8519 -0.6728 -0.8291
  206MOL0     O28293   9.775   8.167   5.931 -0.9464  0.3013 -0.7648
  206MOL0     C28294   9.665   8.239   5.970 -1.0100 -0.1954  0.6770
  206MOL0     C28295   9.662   8.322   6.081 -0.0963 -0.1924  0.1359
  206MOL0     C28296   9.552   8.408   6.105  0.2336  1.3300  0.2086
  206MOL0     C28297   9.445   8.412   6.011  0.3096  0.2844  0.4610
  206MOL0     O28298   9.344   8.502   6.036 -0.5755 -0.2022 -0.1001
  206MOL0     C28299   9.208   8.455   6.034  0.3628 -0.0813 -0.2910
  206MOL0     C28300   9.129   8.529   6.150  0.3373  0.6352  0.7922
  206MOL0     C28301   9.212   8.519   6.280 -0.0964  0.4205  0.2712
  206MOL0     C28302   9.109   8.558   6.394 -0.1391 -0.3597  0.7803
  206MOL0     C28303   9.161   8.517   6.531  0.3310 -0.5115 -0.5540
  206MOL0     C28304   9.298   8.583   6.564  0.1443 -0.4067  0.2511
  206MOL0     C28305   9.334   8.576   6.719  0.8542 -0.0522  0.7262
  206MOL0     C28306   9.464   8.665   6.753  0.8412 -0.2604  0.0520
  206MOL0     N28307   9.591   8.602   6.718 -0.1258 -0.2139 -0.1847
  206MOL0     C28308   9.646   8.586   6.590  0.1936 -0.2124 -0.1460
  206MOL0     C28309   9.751   8.507   6.601  0.0888  0.2920  0.4549
  206MOL0     C28310   9.835   8.462   6.485  0.3385 -0.6994  0.0535
  206MOL0     C28311   9.952   8.559   6.463 -0.0400 -0.5577  0.3952
  206MOL0     C28312  10.041   8.573   6.591 -0.5626  0.4621 -0.4054
  206MOL0     C28313  10.175   8.630   6.559  0.0317  0.6638  0.6430
  206MOL0     O28314  10.163   8.780   6.551 -0.0305  0.6857  0.0638
  206MOL0     C28315  10.276   8.850   6.529  0.3381 -0.9200  0.3794
  206MOL0     C28316  10.273   8.987   6.556 -0.2878  0.1085 -0.4572
  206MOL0     C28317  10.393   9.065   6.548 -0.3489  0.3851 -0.0348
  206MOL0     C28318  10.365   9.211   6.589 -0.4552 -0.8848  0.1938
  206MOL0     C28319  10.511   9.005   6.505  0.0079 -0.1210 -0.1885
  206MOL0     C28320  10.632   9.091   6.469 -0.6746 -1.1190 -0.7188
  206MOL0     O28321  10.686   9.163   6.574 -0.5752 -0.4988 -0.5499
  206MOL0     C28322  10.776   9.262   6.562 -0.1266 -0.3828 -0.3576
  206MOL0     C28323  10.749   9.370   6.476  0.5426 -0.2309 -0.0238
  206MOL0     C28324  10.834   9.473   6.462 -0.0058 -0.3017  0.5912
  206MOL0     C28325  10.958   9.474   6.527  0.7071  0.0768 -0.0616
  206MOL0     O28326  11.040   9.582   6.527  0.3510 -0.3377  0.2872
  206MOL0     C28327  11.012   9.699   6.441  0.2138 -0.0091 -0.2814
  206MOL0     C28328  11.140   9.776   6.424 -0.3013  0.6045  0.0696
  206MOL0     C28329  11.137   9.907   6.338 -0.5858 -0.0603 -0.5713
  206MOL0     C28330  11.036   9.912   6.222 -0.2429  1.2345  0.4947
  206MOL0     C28331  11.058  10.020   6.121 -0.4041 -0.4989 -1.4654
  206MOL0     C28332  10.993   9.999   5.992 -1.1039 -0.0106 -0.0847
  206MOL0     C28333  10.842   9.994   5.989 -0.1815 -0.0067 -0.0860
  206MOL0     C28334  10.782   9.967   5.843 -0.0595  0.9173  0.5737
  206MOL0    Cl28335  10.825   9.798   5.784  0.0695  0.0405 -0.2985
  206MOL0     C28336  10.981   9.370   6.620  0.1129  0.2459 -0.0134
  206MOL0     C28337  10.891   9.260   6.634 -0.3860 -0.4358 -0.0817
  206MOL0     O28338  10.684   9.086   6.361 -0.3381 -0.6985  0.1267
  206MOL0     C28339  10.511   8.873   6.469  0.1412 -0.5466  0.4162
  206MOL0     C28340  10.403   8.790   6.487  0.0003 -0.0500 -0.2523
  206MOL0     N28341   9.764   8.476   6.738 -0.0233 -0.1264  0.6572
  206MOL0     N28342   9.670   8.536   6.810 -0.1074  0.5674  0.6206
  206MOL0     C28343   9.440   8.326   5.909 -0.0493  1.4977  1.3312
  206MOL0     C28344   9.551   8.244   5.886  0.3030 -0.3043  0.7936
  206MOL0     C28345   9.980   8.146   5.812 -0.2368 -0.2024  0.2044
  206MOL0     C28346   9.973   8.012   5.752 -0.3912 -0.8163  0.7332
  206MOL0     C28347  10.081   7.953   5.695 -0.5595  0.5904 -0.8167
  206MOL0     C28348  10.208   8.019   5.700 -0.5181  0.5518  1.0993
  206MOL0     O28349  10.324   7.979   5.638 -0.0226 -0.5886 -0.6088
  206MOL0     C28350  10.350   7.850   5.571 -0.3029 -0.7414  0.7901
  206MOL0     C28351  10.496   7.845   5.543  0.4466 -0.3487 -0.2909
  206MOL0     C28352  10.529   7.724   5.449 -0.5570  0.2446 -0.6818
  206MOL0     C28353  10.669   7.726   5.386  0.0786  0.2830  0.0859
  206MOL0     C28354  10.771   7.679   5.478 -0.5905 -0.7470  0.9219
  206MOL0     C28355  10.852   7.653   5.566  0.2831  0.2005 -0.5219
  206MOL0     C28356  10.221   8.145   5.761 -0.5743  0.4913  0.5868
  206MOL0     C28357  10.114   8.201   5.822 -0.5717  0.2239  0.0663
  206MOL0     C28358  10.146   8.328   5.891 -0.0059 -0.4343 -1.1648
  206MOL0     H28359   9.745   8.327   6.151 -1.6132  1.0267  1.9490
  206MOL0     H28360   9.565   8.449   6.205  1.7832 -3.3683  2.2687
  206MOL0     H28361   9.204   8.346   6.044  2.8313 -0.6601 -3.8374
  206MOL0     H28362   9.178   8.474   5.931  2.5822 -0.7313 -1.1015
  206MOL0     H28363   9.137   8.637   6.136 -0.2039  0.6488  0.5982
  206MOL0     H28364   9.025   8.498   6.158  0.6362 -0.1292  2.0497
  206MOL0     H28365   9.248   8.417   6.297  1.3203  0.4111 -2.3087
  206MOL0     H28366   9.302   8.581   6.283 -0.8588  1.7270 -1.8744
  206MOL0     H28367   9.081   8.663   6.387 -2.3915 -0.9943 -1.4333
  206MOL0     H28368   9.013   8.509   6.373  0.7967 -2.0758  0.3018
  206MOL0     H28369   9.168   8.408   6.526  2.9750 -0.4881  0.6462
  206MOL0     H28370   9.089   8.539   6.611  1.0010 -0.5160  0.0616
  206MOL0     H28371   9.378   8.534   6.509  0.1457 -3.4523  2.6629
  206MOL0     H28372   9.286   8.689   6.540  1.4727  0.6188  3.5765
  206MOL0     H28373   9.357   8.474   6.750  0.6188 -0.0667  0.8492
  206MOL0     H28374   9.250   8.602   6.783  1.9888 -0.6222  2.5270
  206MOL0     H28375   9.459   8.762   6.703  1.0310  0.1708  0.8461
  206MOL0     H28376   9.461   8.682   6.862 -1.5531 -0.3197  0.0374
  206MOL0     H28377   9.615   8.638   6.500 -0.4678  2.6260  1.5877
  206MOL0     H28378   9.785   8.450   6.389  0.5241 -3.0400  0.1884
  206MOL0     H28379   9.869   8.362   6.512  0.8571 -0.6422 -0.3625
  206MOL0     H28380   9.998   8.517   6.374  2.0550  0.8069  0.7806
  206MOL0     H28381   9.923   8.662   6.445  0.7199  0.2577  3.2791
  206MOL0     H28382  10.009   8.642   6.669 -1.0868 -2.3259  2.0313
  206MOL0     H28383  10.067   8.475   6.633  3.5214  0.9723 -1.2648
  206MOL0     H28384  10.238   8.606   6.645 -1.8042 -1.8769  1.4421
  206MOL0     H28385  10.221   8.590   6.468  1.4521  1.2169  1.0925
  206MOL0     H28386  10.182   9.040   6.585 -1.0834 -2.3060  1.8881
  206MOL0     H28387  10.259   9.239   6.594 -0.0874  0.5564  0.1645
  206MOL0     H28388  10.411   9.280   6.518  0.0148  0.8076  2.0683
  206MOL0     H28389  10.408   9.225   6.688  1.2985  0.7408 -0.7345
  206MOL0     H28390  10.645   9.366   6.443  0.2197  0.1641  0.8970
  206MOL0     H28391  10.801   9.557   6.402 -0.0784 -0.6950  0.0685
  206MOL0     H28392  10.977   9.670   6.342 -0.5825  0.8668 -0.2755
  206MOL0     H28393  10.923   9.748   6.484  1.3674  0.2530  1.9705
  206MOL0     H28394  11.184   9.794   6.522  1.7033 -1.3304 -0.3833
  206MOL0     H28395  11.217   9.713   6.377  2.5372  2.1965  2.2485
  206MOL0     H28396  11.240   9.928   6.309  0.3096 -1.2819  1.5477
  206MOL0     H28397  11.118   9.996   6.398  2.2952 -0.1111  0.5540
  206MOL0     H28398  10.929   9.919   6.246 -1.2287  0.7833 -3.1507
  206MOL0     H28399  11.055   9.813   6.180  5.9753  1.4602  1.7775
  206MOL0     H28400  11.026  10.116   6.163  0.3304 -0.4695 -0.9489
  206MOL0     H28401  11.166  10.025   6.101 -0.0266 -0.6320  0.3525
  206MOL0     H28402  11.027   9.899   5.963 -1.8350 -0.7343  1.4539
  206MOL0     H28403  11.033  10.063   5.913  1.0597  0.9400  1.6627
  206MOL0     H28404  10.809  10.094   6.018 -0.5400 -0.7485  2.2237
  206MOL0     H28405  10.811   9.914   6.056 -1.6877 -0.2717 -1.0557
  206MOL0     H28406  10.809  10.043   5.769 -0.8862 -0.1577 -0.8998
  206MOL0     H28407  10.673   9.961   5.857  0.3817  0.9394  5.5040
  206MOL0     H28408  11.076   9.370   6.672 -0.0048 -0.9423  0.2186
  206MOL0     H28409  10.916   9.179   6.702  2.5644  0.3367 -0.0772
  206MOL0     H28410  10.603   8.830   6.433  0.4099 -1.7747  2.4115
  206MOL0     H28411  10.408   8.686   6.455  0.6157  0.7603 -3.0754
  206MOL0     H28412   9.364   8.332   5.832  0.8541 -0.3779  0.2169
  206MOL0     H28413   9.566   8.181   5.799  0.5767 -1.8978  1.9331
  206MOL0     H28414   9.880   7.955   5.754 -0.1780 -1.5481 -2.6553
  206MOL0     H28415  10.080   7.856   5.646 -1.2951  0.1083  0.0955
  206MOL0     H28416  10.325   7.766   5.636  1.0887 -2.0135 -0.2651
  206MOL0     H28417  10.300   7.842   5.474 -0.9638  2.2382  0.7759
  206MOL0     H28418  10.543   7.849   5.641  0.3366 -0.2623 -0.2411
  206MOL0     H28419  10.536   7.932   5.490  0.2134 -0.5290 -0.7737
  206MOL0     H28420  10.530   7.626   5.496  3.6132  1.1528  1.5994
  206MOL0     H28421  10.457   7.730   5.367  0.3975  2.9842 -1.4443
  206MOL0     H28422  10.693   7.828   5.355 -1.1244  0.6973  0.4609
  206MOL0     H28423  10.674   7.677   5.288  1.7401  3.0951 -1.3716
  206MOL0     H28424  10.921   7.621   5.642  1.8245  1.5626 -1.2904
  206MOL0     H28425  10.317   8.195   5.764  1.6400 -3.3740  0.4000
  206MOL0     H28426  10.185   8.396   5.815 -1.4583  3.0327  0.9590
  206MOL0     H28427  10.059   8.386   5.920  1.1277  0.8532 -0.2047
  206MOL0     H28428  10.201   8.301   5.982 -1.7008 -1.7967 -0.4958
  207MOL0     O28429   8.795   9.239   3.501  0.2717  0.3402  0.5120
  207MOL0     C28430   8.745   9.158   3.423  1.0438 -1.0223  0.5062
  207MOL0     O28431   8.784   9.027   3.418 -0.1529 -0.4819  0.0691
  207MOL0     C28432   8.910   8.995   3.458  0.2265 -0.4292  0.5569
  207MOL0     C28433   9.024   9.054   3.399 -0.2599  0.0932  0.7186
  207MOL0     C28434   9.156   9.031   3.455  0.0178 -0.0727  0.0474
  207MOL0     C28435   9.171   8.928   3.550  1.1665  1.0426  0.0533
  207MOL0     O28436   9.292   8.886   3.597  0.1238  0.0730  0.7578
  207MOL0     C28437   9.414   8.926   3.533  0.3754  0.3037  0.0963
  207MOL0     C28438   9.519   8.871   3.622  0.8109  0.0845 -0.4925
  207MOL0     C28439   9.666   8.913   3.581  0.5571 -0.2136 -0.1910
  207MOL0     C28440   9.765   8.862   3.676 -0.6122  0.0313 -0.3319
  207MOL0     C28441   9.904   8.882   3.621  0.4571  0.9930 -0.8877
  207MOL0     C28442  10.008   8.796   3.686  0.7027 -0.8861 -0.2483
  207MOL0     C28443  10.126   8.819   3.587  0.0481  0.7016 -0.5490
  207MOL0     C28444  10.259   8.763   3.654  0.2512 -0.1806 -0.7044
  207MOL0     N28445  10.248   8.624   3.677  0.6277  0.5529 -0.5212
  207MOL0     C28446  10.215   8.529   3.574 -1.0259  0.6002  0.5495
  207MOL0     C28447  10.191   8.413   3.638 -0.1753 -0.2108  0.6478
  207MOL0     C28448  10.164   8.287   3.559 -0.4478  1.3895 -0.6197
  207MOL0     C28449  10.049   8.199   3.620 -0.1422 -0.1819 -1.0857
  207MOL0     C28450   9.918   8.274   3.614  0.3402  0.0959  0.0685
  207MOL0     C28451   9.892   8.327   3.468  0.5070  0.6860 -0.1681
  207MOL0     O28452   9.906   8.233   3.353 -0.6213 -0.0697 -0.2110
  207MOL0     C28453   9.799   8.152   3.324 -0.3731 -0.6048 -0.4652
  207MOL0     C28454   9.834   8.017   3.297  0.6881 -0.2253 -0.2407
  207MOL0     C28455   9.730   7.919   3.273  0.4778  0.9833  0.0392
  207MOL0     C28456   9.783   7.782   3.244  0.6080 -0.4766 -0.4048
  207MOL0     C28457   9.590   7.956   3.289 -0.5928  0.4328  0.1517
  207MOL0     C28458   9.476   7.862   3.267 -0.6681 -0.4142  0.6503
  207MOL0     O28459   9.356   7.919   3.274 -0.4012  0.3231  0.9445
  207MOL0     C28460   9.252   7.861   3.215 -0.0593  0.0908 -0.8209
  207MOL0     C28461   9.258   7.824   3.072  0.1292 -0.7979 -0.5609
  207MOL0     C28462   9.142   7.774   3.010 -0.0946  0.2634 -0.1909
  207MOL0     C28463   9.025   7.759   3.090 -0.4751  0.3130  0.0170
  207MOL0     O28464   8.922   7.697   3.014  0.0762 -0.0977  0.2318
  207MOL0     C28465   8.809   7.650   3.081  0.0645  0.3822  0.3149
  207MOL0     C28466   8.700   7.630   2.974 -0.1112  0.1876  0.1482
  207MOL0     C28467   8.596   7.567   3.075  0.7893  0.3028  0.8432
  207MOL0     C28468   8.478   7.505   3.004 -0.0616 -0.4910  0.0167
  207MOL0     C28469   8.415   7.589   2.897 -0.3863 -0.1182  0.0419
  207MOL0     C28470   8.279   7.536   2.864 -0.2609 -0.1838 -0.8583
  207MOL0     C28471   8.282   7.393   2.814 -0.0225  0.9036 -0.0713
  207MOL0     C28472   8.145   7.341   2.766  0.6550 -0.7638  0.1098
  207MOL0    Cl28473   8.009   7.365   2.886 -0.0890  0.2221 -0.0095
  207MOL0     C28474   9.014   7.810   3.226  0.4199  0.1309  0.3219
  207MOL0     C28475   9.132   7.855   3.288 -0.3278  0.7463  0.5541
  207MOL0     O28476   9.495   7.743   3.234 -0.2783  0.4051  0.7249
  207MOL0     C28477   9.563   8.090   3.326  0.5920 -0.2556  0.5100
  207MOL0     C28478   9.666   8.185   3.344  0.4728  0.0287  0.0904
  207MOL0     N28479  10.190   8.438   3.771  0.5804 -0.2604  0.0048
  207MOL0     N28480  10.236   8.560   3.799 -0.4594 -0.1152  0.7428
  207MOL0     C28481   9.058   8.861   3.608  0.5120  0.2099  0.9671
  207MOL0     C28482   8.927   8.898   3.562 -0.0368 -0.3571  0.1743
  207MOL0     C28483   8.648   9.196   3.325  0.9157 -0.1505  0.2843
  207MOL0     C28484   8.651   9.136   3.195  0.7592 -0.0245  0.1127
  207MOL0     C28485   8.551   9.164   3.103 -0.2172 -0.4667  0.3889
  207MOL0     C28486   8.441   9.248   3.140 -0.1118 -0.3247  0.4378
  207MOL0     O28487   8.351   9.275   3.040  0.0451 -0.4291 -0.4468
  207MOL0     C28488   8.223   9.334   3.082  0.6461  0.2420 -0.0225
  207MOL0     C28489   8.204   9.485   3.054 -0.5224 -0.3685  0.4034
  207MOL0     C28490   8.225   9.514   2.906 -0.2162  0.8369 -0.3209
  207MOL0     C28491   8.128   9.622   2.864 -0.3475 -0.6090 -0.3503
  207MOL0     C28492   8.167   9.686   2.734  0.1454  0.2822  0.0174
  207MOL0     C28493   8.174   9.749   2.626 -0.3119  0.5514  0.1258
  207MOL0     C28494   8.435   9.305   3.270  0.1943 -0.9453  0.8751
  207MOL0     C28495   8.538   9.279   3.357 -0.1354 -0.2000 -0.0780
  207MOL0     C28496   8.521   9.324   3.506 -0.0413 -0.2083 -0.3845
  207MOL0     H28497   9.008   9.126   3.320  1.6577 -1.5570 -1.2788
  207MOL0     H28498   9.236   9.087   3.407  1.1589 -1.6418  0.0522
  207MOL0     H28499   9.421   9.036   3.531  2.1569  0.2293  0.1672
  207MOL0     H28500   9.423   8.884   3.432  2.5439 -3.8752  1.7937
  207MOL0     H28501   9.508   8.912   3.723  1.4599  0.2713 -0.4936
  207MOL0     H28502   9.502   8.763   3.630 -1.3406  0.4607  0.8222
  207MOL0     H28503   9.688   8.869   3.483 -1.8914  1.5773 -1.6697
  207MOL0     H28504   9.675   9.022   3.580 -0.1162 -0.1502  0.1977
  207MOL0     H28505   9.753   8.914   3.771  1.0584  1.1387 -0.7002
  207MOL0     H28506   9.741   8.756   3.689 -2.5514  0.4959  0.1920
  207MOL0     H28507   9.926   8.989   3.622  2.3283  0.6406  0.1927
  207MOL0     H28508   9.906   8.852   3.516  0.5730 -1.7154 -0.1714
  207MOL0     H28509  10.029   8.822   3.791  1.6470 -2.8986  0.1094
  207MOL0     H28510   9.988   8.689   3.695 -0.8671 -0.6888 -1.0732
  207MOL0     H28511  10.135   8.928   3.583  0.8814  0.6297 -0.8631
  207MOL0     H28512  10.117   8.776   3.486 -0.3413 -0.8058  0.0921
  207MOL0     H28513  10.343   8.789   3.589  0.1593 -0.9757 -1.1488
  207MOL0     H28514  10.270   8.812   3.752  0.4373 -2.2629  0.3773
  207MOL0     H28515  10.227   8.528   3.466  1.6633  0.5201  0.7931
  207MOL0     H28516  10.259   8.233   3.551 -0.4947  1.5542 -4.6123
  207MOL0     H28517  10.142   8.312   3.455  0.2000  0.3399 -1.0300
  207MOL0     H28518  10.040   8.099   3.578  1.0018 -1.7285  1.9640
  207MOL0     H28519  10.071   8.182   3.726 -3.4180 -1.2513 -0.4713
  207MOL0     H28520   9.836   8.210   3.648  0.9140  0.1426  1.5789
  207MOL0     H28521   9.913   8.354   3.688  2.2998 -0.6003  0.9934
  207MOL0     H28522   9.787   8.355   3.483 -0.3819 -2.4978  0.4911
  207MOL0     H28523   9.944   8.422   3.457 -0.4130  1.0023 -2.3990
  207MOL0     H28524   9.936   7.981   3.299 -0.2974 -3.3877 -1.0027
  207MOL0     H28525   9.890   7.777   3.226  0.3658 -1.1416 -1.7287
  207MOL0     H28526   9.729   7.747   3.155 -2.1752 -2.1271  1.7571
  207MOL0     H28527   9.756   7.721   3.331 -3.3781 -0.7586 -1.6365
  207MOL0     H28528   9.341   7.817   3.002 -0.6455 -0.1990 -1.5669
  207MOL0     H28529   9.129   7.739   2.908 -1.3760 -1.4903  0.5319
  207MOL0     H28530   8.834   7.551   3.120 -0.5941  0.7210  1.6410
  207MOL0     H28531   8.766   7.715   3.158 -1.9167  0.8851 -1.1366
  207MOL0     H28532   8.666   7.731   2.947  1.6844  1.3652  1.9591
  207MOL0     H28533   8.726   7.572   2.885 -1.2455  0.2060 -0.2126
  207MOL0     H28534   8.564   7.650   3.138  2.2669  0.2824  1.6751
  207MOL0     H28535   8.641   7.486   3.133  1.8640  0.5814  0.4265
  207MOL0     H28536   8.399   7.461   3.065 -1.6859  0.7094 -1.1392
  207MOL0     H28537   8.532   7.423   2.956 -0.0692  0.4092 -1.5976
  207MOL0     H28538   8.404   7.697   2.912 -1.9289  0.4884 -4.1527
  207MOL0     H28539   8.478   7.594   2.808  0.6999  0.2389  0.8061
  207MOL0     H28540   8.246   7.609   2.789  0.7337 -0.4004 -1.5254
  207MOL0     H28541   8.205   7.542   2.944 -0.0140 -1.2120 -0.5378
  207MOL0     H28542   8.304   7.329   2.900  2.1867 -0.4264 -1.5330
  207MOL0     H28543   8.361   7.375   2.739  0.6449  0.4791  0.7133
  207MOL0     H28544   8.148   7.234   2.746  1.8065 -0.9775  1.3224
  207MOL0     H28545   8.116   7.393   2.674  0.5321 -0.7478  0.1569
  207MOL0     H28546   8.917   7.802   3.273 -1.5823  3.4964 -2.7346
  207MOL0     H28547   9.115   7.908   3.381 -3.4602 -0.7349  0.9621
  207MOL0     H28548   9.461   8.124   3.336  1.1103  1.7208 -0.5514
  207MOL0     H28549   9.626   8.281   3.373 -1.7746  0.1867 -2.9414
  207MOL0     H28550   9.087   8.780   3.674 -2.9058 -1.6558  0.4087
  207MOL0     H28551   8.845   8.837   3.600 -2.4613  1.7074 -1.3868
  207MOL0     H28552   8.741   9.089   3.156  0.5625  1.0770 -1.7748
  207MOL0     H28553   8.544   9.123   3.003 -3.6631 -3.9666  1.7769
  207MOL0     H28554   8.151   9.270   3.029  2.0842 -0.8999 -0.6606
  207MOL0     H28555   8.194   9.322   3.187  0.3460 -0.7793 -0.2110
  207MOL0     H28556   8.268   9.552   3.112 -1.0460 -2.2921  3.4761
  207MOL0     H28557   8.105   9.508   3.095 -0.0887  1.8316  0.3166
  207MOL0     H28558   8.330   9.542   2.896 -0.6393  2.5553 -0.1896
  207MOL0     H28559   8.212   9.423   2.847  1.6908 -0.8534  1.6824
  207MOL0     H28560   8.127   9.707   2.932 -0.0604 -0.8164 -0.0855
  207MOL0     H28561   8.029   9.577   2.854 -1.4002  1.3289  0.8927
  207MOL0     H28562   8.190   9.781   2.525 -0.2843  1.7246  0.4805
  207MOL0     H28563   8.354   9.362   3.315  0.4153 -0.8958  1.2123
  207MOL0     H28564   8.606   9.389   3.530  0.1523 -0.0384 -1.4795
  207MOL0     H28565   8.424   9.367   3.530 -1.1522 -3.6358  1.9262
  207MOL0     H28566   8.528   9.239   3.574 -0.9545  0.7894  0.9842
  208MOL0     O28567  10.979   9.264  10.260 -0.1616  0.6259  0.0025
  208MOL0     C28568  11.032   9.186  10.330 -0.6862  0.0314 -0.2334
  208MOL0     O28569  10.979   9.073  10.381 -0.6456 -0.5470  0.5157
  208MOL0     C28570  10.854   9.035  10.334 -0.7291 -0.6383 -0.7031
  208MOL0     C28571  10.838   8.932  10.241  0.0021 -0.3437 -0.5471
  208MOL0     C28572  10.706   8.883  10.209  0.7050 -0.2226 -0.3403
  208MOL0     C28573  10.597   8.928  10.284  0.0159 -0.0440 -0.2985
  208MOL0     O28574  10.468   8.879  10.281 -0.4257  0.3025  0.0048
  208MOL0     C28575  10.442   8.777  10.187 -0.3376 -0.0938 -0.1194
  208MOL0     C28576  10.291   8.766  10.201 -0.3409 -0.1705 -1.1245
  208MOL0     C28577  10.216   8.681  10.096  0.4096 -0.1531  0.7825
  208MOL0     C28578  10.056   8.695  10.115 -0.6548 -0.5831  0.2425
  208MOL0     C28579   9.982   8.594  10.048  0.2645  0.7432 -0.3230
  208MOL0     C28580  10.020   8.444  10.082  0.4103 -0.4564 -0.4878
  208MOL0     C28581   9.894   8.343  10.072  0.0799 -0.2796  0.6576
  208MOL0     C28582   9.859   8.332   9.919 -0.5569 -0.0238 -0.4194
  208MOL0     N28583   9.761   8.221   9.904  0.2563  0.1377  0.6224
  208MOL0     C28584   9.649   8.222   9.828 -0.8435 -0.5347  0.4732
  208MOL0     C28585   9.605   8.093   9.829 -0.0462 -0.5467 -0.3379
  208MOL0     C28586   9.480   8.041   9.756 -0.7015 -0.0882  0.3106
  208MOL0     C28587   9.423   7.911   9.813  0.0535  0.0560 -0.2842
  208MOL0     C28588   9.334   7.847   9.717 -0.0247  1.0876 -0.6627
  208MOL0     C28589   9.191   7.885   9.741  0.2609 -0.2761 -0.1285
  208MOL0     O28590   9.140   7.837   9.865  0.1862  0.2911  0.1918
  208MOL0     C28591   9.073   7.720   9.878 -0.9591  0.0345 -0.4430
  208MOL0     C28592   9.053   7.636   9.770 -0.2134 -0.1888 -0.6788
  208MOL0     C28593   8.999   7.506   9.787 -0.3659 -0.4599  0.3752
  208MOL0     C28594   9.015   7.416   9.663  0.2267 -0.1289  0.6886
  208MOL0     C28595   8.964   7.464   9.921  0.4594 -0.2096  0.5881
  208MOL0     C28596   8.900   7.338   9.959 -0.5154  0.6281 -0.3685
  208MOL0     O28597   8.893   7.309  10.096 -0.5896  0.2147 -0.6895
  208MOL0     C28598   8.831   7.189  10.132  0.2577 -0.1111 -0.2795
  208MOL0     C28599   8.919   7.086  10.161  0.1442  0.5881 -1.1031
  208MOL0     C28600   8.856   6.969  10.206 -0.4355  0.4421  0.4257
  208MOL0     C28601   8.715   6.957  10.208 -1.5672 -0.0680 -0.0567
  208MOL0     O28602   8.661   6.847  10.267  0.1085 -0.2010 -0.2294
  208MOL0     C28603   8.720   6.816  10.402  0.6989  0.0600  0.1566
  208MOL0     C28604   8.618   6.709  10.455 -0.1596  0.3756  1.3040
  208MOL0     C28605   8.642   6.675  10.602 -0.2554 -0.7383 -0.2854
  208MOL0     C28606   8.739   6.555  10.618  0.3571 -0.0547  0.4794
  208MOL0     C28607   8.742   6.516  10.762 -0.1452 -1.0411  0.2438
  208MOL0     C28608   8.826   6.397  10.787  0.0863  0.2815 -0.8656
  208MOL0     C28609   8.786   6.339  10.928 -0.8089  0.5054  0.6167
  208MOL0     C28610   8.856   6.205  10.960 -0.5125  1.0291  0.4890
  208MOL0    Cl28611   8.849   6.164  11.131 -0.1566 -0.6180 -0.0219
  208MOL0     C28612   8.636   7.051  10.141  0.7934  0.4295 -0.2828
  208MOL0     C28613   8.688   7.170  10.106 -0.1719  0.0171 -0.3419
  208MOL0     O28614   8.861   7.262   9.867  1.2138 -0.7362  0.3677
  208MOL0     C28615   8.994   7.550  10.027 -0.9204  0.8282  0.2623
  208MOL0     C28616   9.049   7.673  10.005  0.7589  0.2930  0.1617
  208MOL0     N28617   9.696   8.014   9.901 -0.5691  0.4209  0.2085
  208MOL0     N28618   9.787   8.090   9.936  0.2037 -0.3940 -0.2885
  208MOL0     C28619  10.610   9.028  10.368 -1.2526 -0.8455 -0.4385
  208MOL0     C28620  10.736   9.088  10.398 -0.0075 -0.2184  0.7190
  208MOL0     C28621  11.174   9.213  10.352 -0.1195 -0.0147 -0.3369
  208MOL0     C28622  11.272   9.112  10.368  0.3953  0.9837 -1.1496
  208MOL0     C28623  11.412   9.138  10.386 -0.5725 -0.3472 -1.0649
  208MOL0     C28624  11.453   9.273  10.391  0.4252  0.8405  0.0451
  208MOL0     O28625  11.580   9.316  10.400 -0.2887 -0.7475  1.0296
  208MOL0     C28626  11.689   9.225  10.392  0.0959  0.2498 -0.3210
  208MOL0     C28627  11.739   9.175  10.533 -1.0581  0.8722  0.0797
  208MOL0     C28628  11.862   9.084  10.511 -0.4987  0.4782 -0.1622
  208MOL0     C28629  11.920   9.035  10.637  0.4562 -0.9753 -0.0981
  208MOL0     C28630  12.051   8.962  10.618  0.3206 -1.0550  0.9632
  208MOL0     C28631  12.162   8.911  10.594  0.7270 -1.2650 -0.3236
  208MOL0     C28632  11.356   9.375  10.391 -0.2153  0.2888 -1.1388
  208MOL0     C28633  11.218   9.347  10.375  0.2938  0.8318 -0.1410
  208MOL0     C28634  11.123   9.478  10.371  0.0834  0.4534 -0.3964
  208MOL0     H28635  10.919   8.877  10.195  0.5858 -0.8060  0.9757
  208MOL0     H28636  10.692   8.809  10.130 -0.9675 -0.9536  0.5999
  208MOL0     H28637  10.490   8.679  10.200  0.0828 -0.3673 -2.9488
  208MOL0     H28638  10.463   8.815  10.087  0.1180  0.7989  0.3124
  208MOL0     H28639  10.275   8.707  10.292 -0.5917 -2.0342 -2.3223
  208MOL0     H28640  10.245   8.864  10.214  0.3953 -0.2492  4.7904
  208MOL0     H28641  10.249   8.711   9.996 -1.8085 -0.4035 -0.0983
  208MOL0     H28642  10.242   8.575  10.102 -1.1488 -0.6253 -0.0827
  208MOL0     H28643  10.043   8.701  10.224 -0.2081  0.3430  0.2497
  208MOL0     H28644  10.022   8.793  10.082 -0.7689 -1.5554 -2.7741
  208MOL0     H28645   9.989   8.609   9.940 -1.9521 -0.3595 -0.6697
  208MOL0     H28646   9.877   8.618  10.063  0.5619  0.9618  1.7264
  208MOL0     H28647  10.094   8.400  10.014 -1.2912 -1.0188 -2.0455
  208MOL0     H28648  10.052   8.454  10.186 -2.7328 -2.5129  0.8129
  208MOL0     H28649   9.805   8.372  10.128 -0.4918  0.4262 -0.5727
  208MOL0     H28650   9.922   8.244  10.109 -2.7349 -1.5661 -0.3871
  208MOL0     H28651   9.814   8.426   9.887 -0.8410  0.0539  0.1895
  208MOL0     H28652   9.945   8.309   9.855  0.7001 -0.3965  1.3217
  208MOL0     H28653   9.595   8.301   9.777 -0.8293 -0.3273  0.7780
  208MOL0     H28654   9.503   8.024   9.651 -1.2540  1.6573 -0.1271
  208MOL0     H28655   9.412   8.127   9.756  2.4863  2.7049 -1.7137
  208MOL0     H28656   9.515   7.853   9.823  1.1969  2.0830  2.0695
  208MOL0     H28657   9.376   7.921   9.911 -1.0067 -1.6547 -0.5834
  208MOL0     H28658   9.371   7.859   9.615  1.4763 -2.2393 -0.6505
  208MOL0     H28659   9.341   7.738   9.721 -5.5453  0.3235 -3.2699
  208MOL0     H28660   9.181   7.994   9.744  1.5096 -0.1610  1.1104
  208MOL0     H28661   9.125   7.858   9.658  1.6201 -0.4549 -1.1762
  208MOL0     H28662   9.086   7.668   9.671  2.7151 -0.9169 -0.0297
  208MOL0     H28663   9.056   7.457   9.571 -0.2303 -2.0841 -0.4332
  208MOL0     H28664   8.917   7.382   9.628 -0.6156  2.9173 -0.1385
  208MOL0     H28665   9.085   7.336   9.692  1.6838  1.1020  0.7151
  208MOL0     H28666   9.026   7.100  10.171  0.3770 -1.7020  0.1666
  208MOL0     H28667   8.917   6.891  10.251 -1.3041  0.6409  2.0255
  208MOL0     H28668   8.816   6.763  10.404 -0.8571 -2.9881  1.6839
  208MOL0     H28669   8.726   6.903  10.468  1.5765 -0.1782  0.4087
  208MOL0     H28670   8.517   6.747  10.439  0.7872  2.1482 -1.0570
  208MOL0     H28671   8.632   6.614  10.402 -1.5158 -1.3016  3.7526
  208MOL0     H28672   8.543   6.655  10.644 -0.9944 -2.5115 -2.6398
  208MOL0     H28673   8.681   6.768  10.644 -1.9886  0.2307 -0.7313
  208MOL0     H28674   8.838   6.586  10.584 -0.5360 -1.4077 -3.9545
  208MOL0     H28675   8.699   6.473  10.558 -2.4429  1.2147  0.4210
  208MOL0     H28676   8.782   6.597  10.824  0.5299 -0.4600 -0.9032
  208MOL0     H28677   8.638   6.491  10.785 -1.3115  2.9149  0.0140
  208MOL0     H28678   8.933   6.417  10.790 -0.2709  2.4446 -0.7585
  208MOL0     H28679   8.802   6.327  10.706 -4.7923 -1.1899  1.4471
  208MOL0     H28680   8.678   6.326  10.937 -0.8714 -0.6050 -1.1715
  208MOL0     H28681   8.836   6.410  10.996  3.9015 -1.9908  0.2300
  208MOL0     H28682   8.959   6.203  10.926 -1.0105  0.6039 -1.0748
  208MOL0     H28683   8.797   6.129  10.908 -0.7871  1.3095  0.3870
  208MOL0     H28684   8.540   7.015  10.108  0.6306  0.8850 -0.3196
  208MOL0     H28685   8.635   7.251  10.056  1.3646  1.0132 -0.4462
  208MOL0     H28686   8.972   7.517  10.128 -2.2008 -0.6175 -0.4368
  208MOL0     H28687   9.085   7.731  10.089  0.5836 -0.7044  0.9504
  208MOL0     H28688  10.521   9.066  10.416 -0.4618 -0.4582  0.7640
  208MOL0     H28689  10.751   9.164  10.474 -0.7863  1.6665 -0.9210
  208MOL0     H28690  11.247   9.008  10.356 -0.6943  1.1864 -0.6957
  208MOL0     H28691  11.482   9.060  10.415  0.6127  1.4199  1.1381
  208MOL0     H28692  11.657   9.145  10.325 -1.1581 -1.5753  2.2732
  208MOL0     H28693  11.765   9.292  10.351  0.8596 -0.0738  0.5383
  208MOL0     H28694  11.659   9.129  10.592 -3.0457  2.4877 -1.2370
  208MOL0     H28695  11.778   9.259  10.592  0.0863  0.0191  0.5878
  208MOL0     H28696  11.827   8.994  10.459  0.3253  0.8597 -1.4391
  208MOL0     H28697  11.942   9.133  10.455 -2.5431  1.9730 -1.9524
  208MOL0     H28698  11.843   8.976  10.688 -0.6751  1.4411  1.1598
  208MOL0     H28699  11.933   9.119  10.706 -1.5785  0.8161 -1.7572
  208MOL0     H28700  12.253   8.859  10.569  1.7264  1.4936 -3.0639
  208MOL0     H28701  11.399   9.474  10.403  2.9977 -1.0351 -0.7617
  208MOL0     H28702  11.170   9.568  10.412  3.5213 -0.5592 -1.7204
  208MOL0     H28703  11.100   9.496  10.265 -1.7604 -0.5191 -0.1934
  208MOL0     H28704  11.027   9.452  10.415 -1.4004 -0.4616 -3.8304
  209MOL0     O28705  11.285   7.851   1.602 -0.5127 -0.2781  0.5072
  209MOL0     C28706  11.336   7.941   1.667 -0.0531  0.6873 -0.7336
  209MOL0     O28707  11.277   8.001   1.776 -0.0641  0.0251  0.5754
  209MOL0     C28708  11.178   7.920   1.840  0.1980 -1.5031  0.6422
  209MOL0     C28709  11.045   7.951   1.827  0.8932  0.2422  0.2356
  209MOL0     C28710  10.948   7.870   1.880  0.0111 -0.3986 -0.0979
  209MOL0     C28711  10.984   7.758   1.955  0.2321 -0.2308  0.5062
  209MOL0     O28712  10.880   7.686   2.002 -0.3370 -0.2599  0.2352
  209MOL0     C28713  10.899   7.579   2.098 -0.2574 -0.2188 -0.3467
  209MOL0     C28714  10.906   7.438   2.034  0.1750 -0.3441  0.4578
  209MOL0     C28715  10.794   7.420   1.930 -0.4267  0.5154 -0.2536
  209MOL0     C28716  10.779   7.279   1.871  0.7022  0.7468 -0.3070
  209MOL0     C28717  10.701   7.271   1.739 -0.2425 -0.2659  0.5515
  209MOL0     C28718  10.566   7.345   1.737 -0.0293  0.0488  0.6232
  209MOL0     C28719  10.571   7.490   1.691 -1.2112  0.7968 -0.9990
  209MOL0     C28720  10.431   7.527   1.640 -0.5665 -0.0510 -0.1379
  209MOL0     N28721  10.415   7.514   1.491  0.5808 -0.8813  0.0541
  209MOL0     C28722  10.376   7.406   1.417 -0.2064  1.2682 -0.4724
  209MOL0     C28723  10.380   7.441   1.285 -0.8872  0.6912  0.3783
  209MOL0     C28724  10.347   7.356   1.165  0.4863  0.2589  0.8876
  209MOL0     C28725  10.471   7.340   1.073 -1.1070 -0.8729 -0.1433
  209MOL0     C28726  10.445   7.227   0.974 -1.1330 -0.3655  0.5855
  209MOL0     C28727  10.552   7.216   0.872 -1.0751 -1.2393  0.7361
  209MOL0     O28728  10.676   7.175   0.938  0.1390  0.1218  0.3387
  209MOL0     C28729  10.693   7.038   0.953 -0.2176  0.8618 -1.1154
  209MOL0     C28730  10.589   6.940   0.942 -0.2957 -0.0891 -0.4530
  209MOL0     C28731  10.599   6.808   0.993  0.0442 -0.1040  0.0121
  209MOL0     C28732  10.476   6.715   0.976 -0.5734  0.0531 -0.3677
  209MOL0     C28733  10.726   6.777   1.047  0.3225  1.1804  0.0290
  209MOL0     C28734  10.757   6.638   1.096 -0.1293 -0.3204 -0.0481
  209MOL0     O28735  10.894   6.629   1.127  0.6504  0.9247 -0.4125
  209MOL0     C28736  10.934   6.499   1.148  0.2028  0.0269  0.0292
  209MOL0     C28737  10.876   6.402   1.232  0.1366  0.5906 -0.2099
  209MOL0     C28738  10.953   6.282   1.254 -0.1128  0.6543 -0.0127
  209MOL0     C28739  11.079   6.259   1.201  0.2529  0.6302 -0.9430
  209MOL0     O28740  11.158   6.148   1.245  0.0864 -0.5343  0.9944
  209MOL0     C28741  11.108   6.013   1.261 -0.6857  0.0670 -0.0225
  209MOL0     C28742  11.066   5.956   1.128 -0.2096 -0.4075 -1.9154
  209MOL0     C28743  11.186   5.955   1.037 -0.8567  0.3617  0.2024
  209MOL0     C28744  11.150   5.884   0.909 -0.1978 -0.3096 -0.8975
  209MOL0     C28745  11.268   5.869   0.815  0.0803  1.1316  0.4391
  209MOL0     C28746  11.209   5.860   0.664  0.2762  0.5817  0.4578
  209MOL0     C28747  11.322   5.868   0.562  0.2498 -0.1547 -0.9656
  209MOL0     C28748  11.275   5.799   0.433  0.4680  1.1963 -0.3059
  209MOL0    Cl28749  11.235   5.630   0.449 -0.3793  0.2051  0.1816
  209MOL0     C28750  11.132   6.361   1.125 -0.7306 -0.6711 -0.3135
  209MOL0     C28751  11.062   6.483   1.105  0.1105 -0.2417  0.4608
  209MOL0     O28752  10.681   6.541   1.091  0.3051 -0.5898 -0.0338
  209MOL0     C28753  10.833   6.880   1.054  0.4018  0.0703 -0.3539
  209MOL0     C28754  10.817   6.999   0.993  0.1937  0.4568  0.2889
  209MOL0     N28755  10.438   7.567   1.287  0.0132  0.1230  0.5764
  209MOL0     N28756  10.457   7.608   1.406  0.8632  1.4466 -0.3921
  209MOL0     C28757  11.117   7.730   1.976  0.3274  0.0802 -0.6662
  209MOL0     C28758  11.213   7.812   1.920 -0.4169  1.1962 -0.3803
  209MOL0     C28759  11.479   7.984   1.632 -0.6486 -0.6176  0.7317
  209MOL0     C28760  11.553   7.920   1.528 -1.5552 -0.0309 -0.5031
  209MOL0     C28761  11.674   7.970   1.479 -0.3707  0.9265 -0.0269
  209MOL0     C28762  11.739   8.081   1.535  0.7386 -0.2300  0.0918
  209MOL0     O28763  11.848   8.139   1.484 -0.4899  0.7787 -0.4673
  209MOL0     C28764  11.947   8.046   1.432  0.1359 -1.1377 -0.2181
  209MOL0     C28765  11.995   7.937   1.533 -0.3999  0.3087 -0.2948
  209MOL0     C28766  12.026   7.981   1.680 -0.4648  0.5798 -0.0519
  209MOL0     C28767  12.112   8.099   1.691 -0.2416 -0.2767  0.0800
  209MOL0     C28768  12.239   8.081   1.620  0.0882 -0.3140 -0.5603
  209MOL0     C28769  12.336   8.076   1.549 -0.4541 -0.2630 -0.2735
  209MOL0     C28770  11.675   8.157   1.635  0.7435 -0.5295 -0.2740
  209MOL0     C28771  11.548   8.107   1.680 -0.2940 -0.2155  0.0075
  209MOL0     C28772  11.489   8.189   1.789 -0.3516 -0.9460  0.4883
  209MOL0     H28773  11.024   8.035   1.761  2.3072 -0.2060 -0.8319
  209MOL0     H28774  10.840   7.880   1.869 -0.1900  4.0073  3.1089
  209MOL0     H28775  10.826   7.592   2.179 -1.6284  1.9342 -1.8401
  209MOL0     H28776  10.991   7.595   2.155  0.0011  0.0883 -0.8432
  209MOL0     H28777  11.003   7.444   1.984 -0.3063  1.2016 -0.3361
  209MOL0     H28778  10.912   7.353   2.103  2.7791  0.1966  1.0059
  209MOL0     H28779  10.699   7.438   1.982  0.3338 -0.5988  1.6331
  209MOL0     H28780  10.809   7.492   1.849  1.1957 -0.4330 -0.8348
  209MOL0     H28781  10.877   7.233   1.862  0.8759  1.1742 -0.6361
  209MOL0     H28782  10.720   7.226   1.947 -0.7989  0.0581 -1.8905
  209MOL0     H28783  10.696   7.165   1.713 -0.2915 -0.4181  1.1767
  209MOL0     H28784  10.755   7.327   1.662 -0.7898  0.2707  0.5512
  209MOL0     H28785  10.506   7.296   1.660 -0.1991 -0.3800  1.0197
  209MOL0     H28786  10.520   7.329   1.835  2.4762 -0.2094  1.8514
  209MOL0     H28787  10.644   7.520   1.616 -0.7839  2.8663  0.1686
  209MOL0     H28788  10.598   7.542   1.783  0.9208 -0.6272 -0.7653
  209MOL0     H28789  10.350   7.471   1.686  0.3148 -0.9800  0.3222
  209MOL0     H28790  10.431   7.629   1.680  1.4459 -0.5763  1.3941
  209MOL0     H28791  10.345   7.308   1.451  1.9151  0.7112  0.0213
  209MOL0     H28792  10.257   7.399   1.119 -0.2428 -0.2779  1.7687
  209MOL0     H28793  10.308   7.258   1.196 -0.0016  0.1239 -0.0986
  209MOL0     H28794  10.499   7.430   1.016  0.0715  0.2381  2.0346
  209MOL0     H28795  10.559   7.321   1.135 -1.3269 -1.5255 -0.0308
  209MOL0     H28796  10.417   7.130   1.015  0.4868 -0.5691  1.3084
  209MOL0     H28797  10.357   7.253   0.915 -0.4780 -2.2241 -1.3399
  209MOL0     H28798  10.519   7.165   0.781 -1.7682  0.5748 -0.0692
  209MOL0     H28799  10.579   7.319   0.844 -0.2219 -1.2391  1.5222
  209MOL0     H28800  10.492   6.965   0.900 -2.6132 -0.7222  3.9165
  209MOL0     H28801  10.509   6.665   0.885 -1.0878  0.8780 -1.0234
  209MOL0     H28802  10.386   6.776   0.968 -0.2638  0.3809 -1.7092
  209MOL0     H28803  10.456   6.646   1.058  0.9824 -0.8040 -0.6722
  209MOL0     H28804  10.783   6.413   1.288 -0.6378  0.2439 -1.3842
  209MOL0     H28805  10.921   6.201   1.318 -0.0391 -0.2731 -1.1093
  209MOL0     H28806  11.181   5.949   1.310 -1.0531  0.4351  1.0226
  209MOL0     H28807  11.020   6.020   1.325  0.5764  2.3617  1.6298
  209MOL0     H28808  11.020   5.860   1.153 -1.2786  0.6434  0.5963
  209MOL0     H28809  10.979   6.010   1.091 -1.3508  0.0915  1.1499
  209MOL0     H28810  11.274   5.906   1.081  0.7615  0.2607 -2.8851
  209MOL0     H28811  11.211   6.060   1.021  0.2587 -0.1343 -1.6028
  209MOL0     H28812  11.076   5.950   0.863  1.3175  1.4369 -0.9818
  209MOL0     H28813  11.098   5.788   0.918 -2.3646  0.8312 -0.4776
  209MOL0     H28814  11.333   5.954   0.835 -0.8021  1.7745  0.6438
  209MOL0     H28815  11.329   5.782   0.838 -1.4420  0.0711  0.6153
  209MOL0     H28816  11.136   5.938   0.644  0.8093  0.7608 -0.8953
  209MOL0     H28817  11.150   5.768   0.659 -0.6866  1.0742  2.1717
  209MOL0     H28818  11.416   5.824   0.598 -0.6591  0.1824  2.0934
  209MOL0     H28819  11.331   5.976   0.543  0.2797 -0.0389 -0.3119
  209MOL0     H28820  11.347   5.818   0.353 -0.5833  1.0327 -1.3192
  209MOL0     H28821  11.184   5.852   0.402  1.1416  3.9032  1.9264
  209MOL0     H28822  11.227   6.361   1.073 -1.5825 -0.4412 -1.9175
  209MOL0     H28823  11.117   6.560   1.052 -2.6976  2.1344  0.7787
  209MOL0     H28824  10.930   6.856   1.097  0.6708  0.5858 -0.6666
  209MOL0     H28825  10.888   7.080   1.006 -0.2186  1.2454 -1.9343
  209MOL0     H28826  11.138   7.641   2.036  0.0065  0.5193  0.1145
  209MOL0     H28827  11.320   7.790   1.920 -0.5085  0.6705  1.1818
  209MOL0     H28828  11.503   7.837   1.479 -2.6263  1.0266 -1.2761
  209MOL0     H28829  11.729   7.913   1.405  2.6587  1.0091  1.9749
  209MOL0     H28830  11.913   7.994   1.342 -1.7474 -1.4979  0.6534
  209MOL0     H28831  12.024   8.115   1.394 -1.2569 -0.6618 -2.3045
  209MOL0     H28832  12.086   7.889   1.496 -1.1889 -1.9156  0.5093
  209MOL0     H28833  11.926   7.854   1.545  2.6490 -1.9363  5.5629
  209MOL0     H28834  11.925   8.000   1.718 -1.4958 -1.3517 -1.6249
  209MOL0     H28835  12.075   7.896   1.730 -1.0109 -0.1473 -0.7255
  209MOL0     H28836  12.136   8.123   1.795  0.4344 -2.5081  0.5007
  209MOL0     H28837  12.073   8.185   1.636 -0.8824  1.0780  2.5156
  209MOL0     H28838  12.415   8.073   1.477 -1.0038  1.7329 -1.0258
  209MOL0     H28839  11.728   8.245   1.672  1.6170 -1.5089  0.8970
  209MOL0     H28840  11.406   8.237   1.736 -1.3921 -4.0670 -0.9889
  209MOL0     H28841  11.459   8.131   1.876  0.4914 -1.5611  0.3820
  209MOL0     H28842  11.554   8.271   1.820 -1.0852  0.2560 -1.0046
  210MOL0     O28843  10.577   9.898   6.171 -0.2146 -0.3942 -0.5154
  210MOL0     C28844  10.458   9.877   6.134 -0.2036 -0.2172 -0.3772
  210MOL0     O28845  10.399   9.935   6.015 -0.2325 -0.5516 -0.0307
  210MOL0     C28846  10.443  10.057   5.969  0.5000  0.3858  0.0417
  210MOL0     C28847  10.422  10.079   5.834 -0.4335 -0.0732 -0.4502
  210MOL0     C28848  10.468  10.203   5.775  0.9914  0.7565  0.2746
  210MOL0     C28849  10.515  10.307   5.862  0.4723  0.5190  0.3977
  210MOL0     O28850  10.538  10.431   5.809 -0.4300 -0.2998  0.0405
  210MOL0     C28851  10.660  10.505   5.838 -0.1862 -0.1395  0.1359
  210MOL0     C28852  10.660  10.622   5.745 -0.2422  0.3879  0.1044
  210MOL0     C28853  10.780  10.623   5.656  0.5062  0.1724 -0.5333
  210MOL0     C28854  10.778  10.756   5.571 -0.7436  0.9507  0.4372
  210MOL0     C28855  10.901  10.777   5.498  0.2098  0.6739  0.9042
  210MOL0     C28856  10.921  10.888   5.397  0.5920 -0.2656  0.0238
  210MOL0     C28857  10.804  10.920   5.316  0.4388 -0.4183  0.1376
  210MOL0     C28858  10.845  11.030   5.214 -0.3714  0.3115  0.3346
  210MOL0     N28859  10.913  10.973   5.099 -0.3224  0.3977  0.2494
  210MOL0     C28860  10.861  10.905   4.990  0.4481  0.9700  0.5329
  210MOL0     C28861  10.978  10.877   4.915  0.8102 -1.4307  0.2173
  210MOL0     C28862  10.991  10.791   4.790  1.0012 -0.6844  0.4354
  210MOL0     C28863  10.897  10.853   4.687  1.5848 -0.2540  0.0871
  210MOL0     C28864  10.923  10.783   4.556  0.4697 -0.2509  0.2880
  210MOL0     C28865  10.858  10.848   4.442  0.9070 -0.4378  0.4315
  210MOL0     O28866  10.882  10.984   4.420  0.2379  0.2927 -0.1918
  210MOL0     C28867  10.864  11.029   4.290  0.3552 -0.2728  0.5427
  210MOL0     C28868  10.947  11.128   4.233  0.1740 -1.2634 -0.3820
  210MOL0     C28869  10.929  11.191   4.106 -0.8150 -0.1190  0.1885
  210MOL0     C28870  11.015  11.304   4.079 -0.2953 -0.4482  0.6162
  210MOL0     C28871  10.829  11.141   4.023 -0.5185  0.1349 -0.2784
  210MOL0     C28872  10.786  11.213   3.897 -0.1082 -0.2188  0.7180
  210MOL0     O28873  10.655  11.193   3.868 -0.3743  0.3430  0.3366
  210MOL0     C28874  10.600  11.236   3.747  0.1227  0.5487 -1.0019
  210MOL0     C28875  10.470  11.294   3.773 -0.2066  0.2473  0.6625
  210MOL0     C28876  10.403  11.341   3.657  0.0589  0.1825 -0.7815
  210MOL0     C28877  10.463  11.344   3.533  0.9036  0.0790 -1.0916
  210MOL0     O28878  10.384  11.402   3.441 -0.0540 -0.0624  0.5017
  210MOL0     C28879  10.429  11.413   3.304  0.3080 -0.4526  0.8734
  210MOL0     C28880  10.316  11.488   3.221 -1.3997 -0.3899 -0.7858
  210MOL0     C28881  10.176  11.420   3.234  0.0947 -0.7807 -0.1351
  210MOL0     C28882  10.076  11.508   3.157  0.1285 -0.2007  0.3614
  210MOL0     C28883   9.935  11.437   3.159  0.2378  0.0473  0.3520
  210MOL0     C28884   9.878  11.434   3.287 -0.2954  0.2726 -0.6660
  210MOL0     C28885   9.733  11.379   3.268  0.5560 -0.0207  0.2515
  210MOL0     C28886   9.719  11.234   3.219 -0.1168  1.4887 -0.2546
  210MOL0    Cl28887   9.806  11.129   3.335  0.1644 -0.1232  0.4106
  210MOL0     C28888  10.589  11.281   3.508  0.2459 -0.0206 -0.9298
  210MOL0     C28889  10.649  11.225   3.622 -0.8270 -0.0934 -0.1956
  210MOL0     O28890  10.873  11.274   3.823  0.3771 -0.4747 -0.4280
  210MOL0     C28891  10.756  11.032   4.071  0.4639  0.5869 -0.1208
  210MOL0     C28892  10.774  10.977   4.202 -0.0452  0.0414 -0.3891
  210MOL0     N28893  11.085  10.930   4.981 -0.2666  0.0844 -0.4277
  210MOL0     N28894  11.046  10.985   5.089  0.5809  0.4778 -0.1810
  210MOL0     C28895  10.550  10.267   5.989 -0.6124 -0.5199 -0.0884
  210MOL0     C28896  10.523  10.146   6.043  0.8350  0.2273 -0.2861
  210MOL0     C28897  10.383   9.779   6.210  0.1752 -0.4989 -0.1883
  210MOL0     C28898  10.251   9.751   6.167 -0.3424  0.6156 -0.3219
  210MOL0     C28899  10.172   9.658   6.230 -0.6095  0.0040  0.0870
  210MOL0     C28900  10.222   9.584   6.342 -0.0900  0.1334 -0.1279
  210MOL0     O28901  10.147   9.496   6.417  0.3235 -0.0144  0.3430
  210MOL0     C28902  10.052   9.414   6.341  0.4952  0.0977  0.2706
  210MOL0     C28903  10.125   9.277   6.333 -0.1639 -0.4574 -1.1023
  210MOL0     C28904  10.053   9.172   6.254  0.5319  1.1604 -0.5219
  210MOL0     C28905  10.115   9.032   6.255 -0.1929 -0.2664 -0.1380
  210MOL0     C28906  10.242   9.034   6.195  0.3352 -0.0960 -0.2888
  210MOL0     C28907  10.347   9.041   6.130 -0.3275 -0.6340  0.3955
  210MOL0     C28908  10.347   9.625   6.395  0.1967  0.6128  0.5813
  210MOL0     C28909  10.424   9.726   6.339  0.3821  0.6729  0.7144
  210MOL0     C28910  10.548   9.756   6.426  0.7889 -1.1181 -0.6807
  210MOL0     H28911  10.374  10.008   5.767 -0.9367  0.5277 -0.7466
  210MOL0     H28912  10.449  10.214   5.668 -3.2943 -1.5704  0.5858
  210MOL0     H28913  10.745  10.443   5.809  1.2902  1.9853 -0.2847
  210MOL0     H28914  10.674  10.535   5.942  0.8795 -0.5188  0.1125
  210MOL0     H28915  10.567  10.630   5.687 -0.7924  2.8115  1.1871
  210MOL0     H28916  10.672  10.710   5.808  2.8189 -0.0044  0.2157
  210MOL0     H28917  10.869  10.604   5.716 -1.1076 -1.0147  1.6024
  210MOL0     H28918  10.774  10.538   5.588 -0.7621 -1.0660  1.0762
  210MOL0     H28919  10.698  10.748   5.496  2.2616  1.3095 -3.0810
  210MOL0     H28920  10.756  10.844   5.632  1.6629  1.9925 -0.1071
  210MOL0     H28921  10.909  10.685   5.440 -1.3970  0.4284  1.0275
  210MOL0     H28922  10.984  10.793   5.568  1.9056 -2.7616 -0.0946
  210MOL0     H28923  10.957  10.979   5.446  1.5992  0.8809 -2.6445
  210MOL0     H28924  10.998  10.869   5.323  0.0277  1.6184 -1.1104
  210MOL0     H28925  10.729  10.967   5.382  1.9425  0.4895  1.2639
  210MOL0     H28926  10.768  10.830   5.265 -0.1545  0.1531 -0.4725
  210MOL0     H28927  10.748  11.068   5.181 -0.1165  1.2360  0.6116
  210MOL0     H28928  10.898  11.113   5.261 -2.8243  1.4965  1.1728
  210MOL0     H28929  10.756  10.888   4.964  0.7339 -0.3916  0.1934
  210MOL0     H28930  10.944  10.695   4.813 -0.9758 -0.4174 -1.9779
  210MOL0     H28931  11.090  10.781   4.745 -0.2379  0.4356 -2.8999
  210MOL0     H28932  10.792  10.840   4.717  1.1883 -2.9727 -2.0017
  210MOL0     H28933  10.913  10.961   4.680 -3.1503  0.5834 -1.4189
  210MOL0     H28934  11.029  10.787   4.529  0.0905  2.2813 -1.2003
  210MOL0     H28935  10.887  10.681   4.565 -1.1455  0.1497 -1.1004
  210MOL0     H28936  10.895  10.794   4.354  0.2746 -1.1001  0.5637
  210MOL0     H28937  10.751  10.835   4.457  1.1507 -0.2763  2.6222
  210MOL0     H28938  11.020  11.151   4.310 -2.1695 -0.2619  1.7171
  210MOL0     H28939  10.967  11.386   4.025  4.1364  1.7511 -0.4625
  210MOL0     H28940  11.103  11.266   4.027  1.6253  1.7607  2.0307
  210MOL0     H28941  11.045  11.347   4.175 -0.4770  0.9337  0.0694
  210MOL0     H28942  10.413  11.283   3.865 -0.2665 -0.7321  0.5211
  210MOL0     H28943  10.311  11.397   3.668  0.7051  0.7771  3.1604
  210MOL0     H28944  10.526  11.461   3.290 -0.2820  0.4276 -0.3418
  210MOL0     H28945  10.444  11.314   3.260  0.6726 -0.3506  0.7623
  210MOL0     H28946  10.319  11.589   3.262  0.8753 -0.4528 -0.6603
  210MOL0     H28947  10.357  11.489   3.119  0.9283 -1.9865  0.0455
  210MOL0     H28948  10.132  11.413   3.335  0.3980 -0.3604  0.0293
  210MOL0     H28949  10.193  11.319   3.197  0.2142 -0.6070 -0.5543
  210MOL0     H28950  10.120  11.517   3.057  1.9219  1.2776  1.2236
  210MOL0     H28951  10.086  11.606   3.205  1.5987  0.5527 -1.3762
  210MOL0     H28952   9.874  11.507   3.101 -1.5475  3.5864  5.7122
  210MOL0     H28953   9.955  11.341   3.110 -2.4952  0.4245 -1.7454
  210MOL0     H28954   9.891  11.533   3.331 -0.3329  1.2395 -2.7329
  210MOL0     H28955   9.932  11.373   3.360 -0.7906  1.0558  0.3830
  210MOL0     H28956   9.677  11.442   3.198 -1.3929 -1.0143  0.8525
  210MOL0     H28957   9.677  11.383   3.362  0.8256 -0.4995  0.4348
  210MOL0     H28958   9.761  11.220   3.119  0.3706 -3.8635  0.4143
  210MOL0     H28959   9.613  11.211   3.205 -0.2689  0.9445  1.5278
  210MOL0     H28960  10.642  11.270   3.414 -1.3554 -1.5281 -1.7270
  210MOL0     H28961  10.747  11.179   3.613 -1.0483 -0.9583  1.3978
  210MOL0     H28962  10.682  10.982   4.008 -0.5066  2.8782 -0.8908
  210MOL0     H28963  10.715  10.889   4.222  1.3684 -1.6452 -3.0091
  210MOL0     H28964  10.607  10.336   6.050 -0.5308 -1.0481  0.4432
  210MOL0     H28965  10.541  10.126   6.148 -0.7382  4.2546  0.9671
  210MOL0     H28966  10.214   9.786   6.071 -1.6026 -1.1475 -0.5500
  210MOL0     H28967  10.071   9.639   6.196 -0.1660 -1.0664 -0.6877
  210MOL0     H28968   9.956   9.401   6.390  0.8513  1.4695  1.3769
  210MOL0     H28969  10.050   9.442   6.235  4.7470 -3.6904 -1.1964
  210MOL0     H28970  10.140   9.250   6.438 -0.6042  4.8823  0.6704
  210MOL0     H28971  10.226   9.297   6.294 -0.7486  2.7214 -1.2492
  210MOL0     H28972   9.956   9.176   6.304  0.0293  4.3404 -1.5184
  210MOL0     H28973  10.034   9.200   6.150  0.0523 -1.3065 -1.1647
  210MOL0     H28974  10.053   8.954   6.209 -1.9929  0.9315  0.1449
  210MOL0     H28975  10.118   8.985   6.354  1.8335 -0.3532 -0.2105
  210MOL0     H28976  10.438   9.037   6.073 -1.0399 -2.0866 -0.7029
  210MOL0     H28977  10.386   9.597   6.492 -1.2855  2.2883  1.7009
  210MOL0     H28978  10.572   9.686   6.506 -5.3940 -0.7895  1.9936
  210MOL0     H28979  10.624   9.769   6.348  0.0947  2.8107 -0.9389
  210MOL0     H28980  10.529   9.856   6.467  3.4614 -0.0245 -1.8647
  211MOL0     O28981   9.799  10.179   9.952  0.7570  0.4472 -0.1383
  211MOL0     C28982   9.709  10.261   9.941  0.0934  0.0511  1.0774
  211MOL0     O28983   9.726  10.396   9.915  0.0730  0.4941 -0.2037
  211MOL0     C28984   9.853  10.453   9.899 -0.8764  0.2192 -0.2092
  211MOL0     C28985   9.905  10.478   9.771  0.0388  0.0259  0.3569
  211MOL0     C28986  10.028  10.544   9.749  0.3566 -0.6467 -0.6154
  211MOL0     C28987  10.110  10.577   9.863  0.1595 -1.0228 -0.0207
  211MOL0     O28988  10.225  10.641   9.868 -0.0917  0.5400  0.0761
  211MOL0     C28989  10.283  10.669   9.737 -0.2371 -0.1159 -0.3408
  211MOL0     C28990  10.413  10.744   9.763 -0.0629 -0.1615  0.9458
  211MOL0     C28991  10.390  10.858   9.866  0.1240  0.4190  0.5882
  211MOL0     C28992  10.507  10.951   9.897 -0.3139 -0.1048  0.2933
  211MOL0     C28993  10.519  11.065   9.785 -0.1252  0.0806  0.7059
  211MOL0     C28994  10.609  11.176   9.830 -0.2984  0.1889  0.2083
  211MOL0     C28995  10.613  11.301   9.738  0.7631 -1.1147  0.3161
  211MOL0     C28996  10.524  11.412   9.775  0.3998 -0.1346  0.5776
  211MOL0     N28997  10.378  11.372   9.752 -1.1411 -1.0093  0.1320
  211MOL0     C28998  10.307  11.319   9.853  0.6983  1.1270  0.2648
  211MOL0     C28999  10.188  11.293   9.793  0.3740 -0.9124 -0.6984
  211MOL0     C29000  10.059  11.254   9.866  0.2910  0.0728 -1.1377
  211MOL0     C29001  10.068  11.170  10.001  0.0517 -0.7188  0.5638
  211MOL0     C29002  10.056  11.012   9.990 -0.5082  0.1559  1.1931
  211MOL0     C29003  10.055  10.951  10.131  1.1032  0.7810  0.3526
  211MOL0     O29004   9.955  11.011  10.219 -0.4727  0.6391  0.2175
  211MOL0     C29005   9.823  10.967  10.216 -0.1383 -0.1792 -0.5155
  211MOL0     C29006   9.737  11.030  10.306 -0.2040  0.2614 -0.1264
  211MOL0     C29007   9.604  10.988  10.332 -0.7311 -0.8625  0.1553
  211MOL0     C29008   9.526  11.064  10.440  0.3961  0.4496  0.3022
  211MOL0     C29009   9.552  10.874  10.266  0.6039  0.0765  0.0262
  211MOL0     C29010   9.421  10.812  10.299 -0.0870  0.4245  0.3291
  211MOL0     O29011   9.421  10.676  10.286  0.3547  0.3073 -0.6578
  211MOL0     C29012   9.303  10.604  10.299 -0.4112  0.0607 -0.5762
  211MOL0     C29013   9.203  10.625  10.396  1.2025  0.1498 -0.0845
  211MOL0     C29014   9.099  10.524  10.408 -0.4798 -0.8116 -0.7893
  211MOL0     C29015   9.104  10.407  10.329 -0.0064 -0.1059  0.3243
  211MOL0     O29016   9.007  10.311  10.341 -0.4322  0.2125  0.4094
  211MOL0     C29017   8.976  10.235  10.221  0.0866 -0.5736  0.2220
  211MOL0     C29018   8.840  10.176  10.243 -0.5477 -0.2224  0.6127
  211MOL0     C29019   8.844  10.057  10.335  0.2412  0.1005  0.7251
  211MOL0     C29020   8.710   9.986  10.340 -0.2023  0.1178 -0.2731
  211MOL0     C29021   8.705   9.850  10.413  0.0526 -0.1363 -0.1104
  211MOL0     C29022   8.782   9.746  10.348 -0.7495  0.0826  0.3076
  211MOL0     C29023   8.698   9.657  10.253  0.0805  0.0316  0.3235
  211MOL0     C29024   8.767   9.528  10.221 -0.5092  0.0147  0.2388
  211MOL0    Cl29025   8.768   9.408  10.350  0.0983  0.0048 -0.2250
  211MOL0     C29026   9.208  10.387  10.234  0.1869 -0.7180 -0.2312
  211MOL0     C29027   9.305  10.486  10.219  0.4691  0.6109 -0.2775
  211MOL0     O29028   9.324  10.882  10.338 -0.2986  0.6631  0.1703
  211MOL0     C29029   9.643  10.807  10.175  0.6137 -0.6804  0.2326
  211MOL0     C29030   9.771  10.856  10.150 -0.9520 -0.0765  0.1605
  211MOL0     N29031  10.190  11.351   9.666  0.2954  0.1446 -0.6224
  211MOL0     N29032  10.305  11.396   9.640  1.0665 -0.0255  0.1835
  211MOL0     C29033  10.061  10.542   9.991 -0.8659 -0.1473 -0.1439
  211MOL0     C29034   9.934  10.481  10.009 -0.2900 -0.6084  0.5094
  211MOL0     C29035   9.568  10.200   9.950 -0.0394  0.0291  0.2550
  211MOL0     C29036   9.460  10.252   9.873  0.1738  0.4599 -0.8156
  211MOL0     C29037   9.341  10.188   9.871  0.3462 -0.8606 -0.1164
  211MOL0     C29038   9.310  10.075   9.939  0.0875  0.2912  0.7378
  211MOL0     O29039   9.180  10.030   9.946 -0.1134  0.0420 -0.2616
  211MOL0     C29040   9.070  10.081   9.864  1.0546 -0.6394 -0.9498
  211MOL0     C29041   8.932  10.011   9.899 -0.1360 -0.0434 -0.6561
  211MOL0     C29042   8.935   9.875   9.842  0.8153  0.1872  0.4334
  211MOL0     C29043   8.834   9.792   9.923 -0.5115 -0.5166 -0.6667
  211MOL0     C29044   8.695   9.837   9.902 -0.6875  0.0269 -0.4061
  211MOL0     C29045   8.587   9.881   9.893  0.5695 -0.1201  0.1133
  211MOL0     C29046   9.414  10.014  10.007 -0.5125  0.0424  0.2026
  211MOL0     C29047   9.539  10.082  10.028  0.8377  0.6255  0.4192
  211MOL0     C29048   9.635  10.024  10.136  1.0974  1.0068  0.5508
  211MOL0     H29049   9.847  10.462   9.681 -0.6746  0.8904  0.6414
  211MOL0     H29050  10.061  10.559   9.647  3.6344 -3.1875 -0.1243
  211MOL0     H29051  10.229  10.741   9.676 -0.1556  2.6304  2.5264
  211MOL0     H29052  10.301  10.569   9.696  1.9557 -0.5225  1.4102
  211MOL0     H29053  10.496  10.689   9.809  1.9139  0.3632 -1.7607
  211MOL0     H29054  10.455  10.782   9.669  1.1918  1.0977  1.9743
  211MOL0     H29055  10.309  10.922   9.830  1.7989  2.0891 -0.4224
  211MOL0     H29056  10.365  10.809   9.960  1.1278 -0.9121  0.1839
  211MOL0     H29057  10.492  11.005   9.991  3.9607  0.4112  0.8637
  211MOL0     H29058  10.601  10.901   9.919 -0.8531 -0.5896  1.5874
  211MOL0     H29059  10.419  11.091   9.750 -0.2662  0.7323  1.5505
  211MOL0     H29060  10.567  11.024   9.696 -0.0446 -0.1951  0.8781
  211MOL0     H29061  10.565  11.215   9.922  2.5754 -0.3812  1.9590
  211MOL0     H29062  10.709  11.136   9.852 -0.0849  0.7513  0.2663
  211MOL0     H29063  10.578  11.270   9.639 -0.0408 -1.8800  0.8259
  211MOL0     H29064  10.716  11.334   9.719  0.8186 -0.5051  1.5736
  211MOL0     H29065  10.527  11.454   9.875 -4.7322  1.6371  0.2865
  211MOL0     H29066  10.535  11.494   9.704  0.3685 -1.0858 -0.5719
  211MOL0     H29067  10.328  11.326   9.959  1.6031  2.0347  0.0417
  211MOL0     H29068   9.990  11.198   9.802 -3.6162  1.5302  1.4294
  211MOL0     H29069  10.002  11.345   9.887 -4.5623 -2.5588 -1.5103
  211MOL0     H29070  10.161  11.195  10.051 -0.1354 -1.9226  1.5586
  211MOL0     H29071  10.000  11.208  10.078  1.0736 -1.7349  1.9955
  211MOL0     H29072   9.960  10.979   9.949  0.1325 -2.9386  1.9282
  211MOL0     H29073  10.140  10.986   9.926 -0.7740  2.3516 -0.1784
  211MOL0     H29074  10.047  10.842  10.133  0.8983  0.7840 -0.1237
  211MOL0     H29075  10.152  10.982  10.171  1.0011 -1.2401  2.3350
  211MOL0     H29076   9.792  11.102  10.366  0.8187 -1.0293  0.5404
  211MOL0     H29077   9.477  10.989  10.504  2.8383 -0.2946  1.4206
  211MOL0     H29078   9.445  11.122  10.394 -2.4078 -2.3625  1.3517
  211MOL0     H29079   9.586  11.136  10.496 -0.8222  0.8344  1.1651
  211MOL0     H29080   9.208  10.708  10.466  3.1647  1.4170 -1.6318
  211MOL0     H29081   9.023  10.540  10.484  1.0341  3.4534  0.0883
  211MOL0     H29082   8.972  10.301  10.134 -1.4611  1.6862  1.8827
  211MOL0     H29083   9.046  10.151  10.212  0.9482 -0.0057  1.4603
  211MOL0     H29084   8.781  10.252  10.295  0.8117 -1.0785  3.6659
  211MOL0     H29085   8.804  10.142  10.146 -0.9566 -1.7790  1.2685
  211MOL0     H29086   8.867  10.086  10.438  1.6453 -1.5278  0.9165
  211MOL0     H29087   8.920   9.986  10.300 -1.0843 -1.5894  1.1773
  211MOL0     H29088   8.651   9.982  10.248 -0.2136  0.3196 -0.2763
  211MOL0     H29089   8.657  10.065  10.396  1.3943  0.7268  0.4441
  211MOL0     H29090   8.749   9.871  10.510 -3.4353 -0.6128  1.7514
  211MOL0     H29091   8.603   9.817  10.435 -0.8137  1.4540 -1.4962
  211MOL0     H29092   8.799   9.672  10.426 -4.0297 -0.2525  0.8781
  211MOL0     H29093   8.876   9.774  10.300  0.4574 -1.4954  1.6134
  211MOL0     H29094   8.660   9.720  10.172 -2.6932  1.2475  2.3747
  211MOL0     H29095   8.604   9.640  10.307 -0.8444  2.4164 -0.3955
  211MOL0     H29096   8.870   9.543  10.188 -0.2463 -2.8598 -0.5325
  211MOL0     H29097   8.720   9.476  10.137 -1.0158 -1.0625  1.1605
  211MOL0     H29098   9.206  10.296  10.174 -0.0789 -0.9246  0.0863
  211MOL0     H29099   9.388  10.480  10.148  0.7481  1.0059  0.0070
  211MOL0     H29100   9.606  10.714  10.134 -2.7693 -0.1809  1.7792
  211MOL0     H29101   9.838  10.811  10.078 -1.7428 -0.0006 -0.6325
  211MOL0     H29102  10.121  10.580  10.073 -0.0535 -3.0447  0.7176
  211MOL0     H29103   9.903  10.448  10.108  2.1931  0.8809  1.8852
  211MOL0     H29104   9.469  10.343   9.813  0.2146  0.0481 -1.4408
  211MOL0     H29105   9.274  10.233   9.798  1.5796 -1.2721 -1.5622
  211MOL0     H29106   9.049  10.187   9.882  0.1156 -1.1043  1.0142
  211MOL0     H29107   9.090  10.060   9.759 -1.9405 -1.8667 -1.3550
  211MOL0     H29108   8.853  10.062   9.843 -0.6745 -0.1869 -0.0420
  211MOL0     H29109   8.923  10.002  10.008 -0.2443 -1.8433 -0.7875
  211MOL0     H29110   8.911   9.880   9.736  2.9567 -0.9631 -0.1642
  211MOL0     H29111   9.040   9.845   9.854  1.3600  1.4361 -0.9875
  211MOL0     H29112   8.863   9.788  10.028 -0.5747 -0.1750 -0.6338
  211MOL0     H29113   8.837   9.689   9.887  0.1789 -0.1570 -1.6878
  211MOL0     H29114   8.491   9.924   9.873  1.3791  2.3116  1.1477
  211MOL0     H29115   9.383   9.920  10.052 -1.7454  0.3103 -0.0694
  211MOL0     H29116   9.697   9.939  10.106  2.0405  1.3286  1.5350
  211MOL0     H29117   9.701  10.097  10.183  1.4666 -0.7406  2.9377
  211MOL0     H29118   9.563   9.995  10.213  2.7731 -1.0736  1.4239
  212MOL0     O29119   2.986   1.677   8.738 -0.4792 -0.1414 -0.4290
  212MOL0     C29120   3.029   1.692   8.621  0.1562 -0.0206 -0.9035
  212MOL0     O29121   2.964   1.762   8.528 -0.0192 -0.1526 -0.1262
  212MOL0     C29122   2.828   1.800   8.527  0.3917  0.4236 -0.4496
  212MOL0     C29123   2.786   1.930   8.483  0.0765 -0.3348 -0.6058
  212MOL0     C29124   2.651   1.963   8.487 -0.7247  0.4818  0.2494
  212MOL0     C29125   2.548   1.883   8.535 -0.6844  1.0528 -0.9499
  212MOL0     O29126   2.420   1.918   8.538 -0.2740  0.1499 -0.0813
  212MOL0     C29127   2.317   1.814   8.502 -0.1024  0.1086 -0.0069
  212MOL0     C29128   2.277   1.852   8.367  0.0544 -0.7611  0.6052
  212MOL0     C29129   2.166   1.760   8.313  0.1235  0.2837 -0.1023
  212MOL0     C29130   2.102   1.794   8.175  0.8613  0.2157  0.2626
  212MOL0     C29131   2.204   1.812   8.065 -0.7330 -0.3562 -0.2974
  212MOL0     C29132   2.146   1.861   7.928  0.1182 -0.0859  0.1058
  212MOL0     C29133   2.252   1.854   7.815 -1.0098 -0.2440  0.2410
  212MOL0     C29134   2.335   1.988   7.815 -0.1582 -0.7116  0.3691
  212MOL0     N29135   2.450   1.959   7.732 -0.3437 -0.5019  0.4727
  212MOL0     C29136   2.509   2.039   7.636 -1.2867  0.0773 -0.2644
  212MOL0     C29137   2.622   1.975   7.599  0.3872  0.3673  0.1357
  212MOL0     C29138   2.731   2.049   7.527  0.0489 -0.1438 -0.9663
  212MOL0     C29139   2.860   1.961   7.530  0.4891 -0.1903  0.1992
  212MOL0     C29140   2.970   2.010   7.428 -0.8510 -0.2582  0.4112
  212MOL0     C29141   3.092   1.910   7.416 -0.2561 -0.5909  0.5962
  212MOL0     O29142   3.133   1.877   7.547  0.0674 -0.0126  0.5353
  212MOL0     C29143   3.242   1.939   7.600  0.0897  0.9100 -0.6227
  212MOL0     C29144   3.375   1.917   7.552 -0.5606 -1.0294  0.0104
  212MOL0     C29145   3.489   1.952   7.619 -0.3423 -0.2340  0.0043
  212MOL0     C29146   3.615   1.932   7.543  0.0626  0.0294 -0.2110
  212MOL0     C29147   3.473   2.037   7.731  0.0138 -0.0189  0.4128
  212MOL0     C29148   3.591   2.095   7.795  0.3706  0.0810  0.7744
  212MOL0     O29149   3.687   2.008   7.821  0.4159 -0.5457  0.2955
  212MOL0     C29150   3.806   2.058   7.875  0.6498  0.1920 -0.2455
  212MOL0     C29151   3.931   2.034   7.812 -0.1137 -1.0156 -0.3957
  212MOL0     C29152   4.048   2.074   7.864 -0.4187  0.0698 -0.8299
  212MOL0     C29153   4.054   2.133   7.990 -0.2104  0.3062  0.7007
  212MOL0     O29154   4.179   2.169   8.033 -0.0279  0.1041  0.2768
  212MOL0     C29155   4.186   2.204   8.179  0.6015  0.4496  1.2656
  212MOL0     C29156   4.330   2.183   8.218  0.0871 -0.1000  0.2401
  212MOL0     C29157   4.358   2.218   8.368  0.4398 -0.3801  0.8156
  212MOL0     C29158   4.290   2.132   8.478 -0.0901 -0.3942 -0.1783
  212MOL0     C29159   4.344   2.184   8.612  1.3535  0.3677 -1.0473
  212MOL0     C29160   4.234   2.247   8.697  0.2609 -0.0486 -0.1243
  212MOL0     C29161   4.298   2.319   8.814 -0.7831 -0.2830  0.2521
  212MOL0     C29162   4.207   2.419   8.875 -0.0817 -0.7052  0.0926
  212MOL0    Cl29163   4.073   2.335   8.972  0.1532 -0.1297  0.2951
  212MOL0     C29164   3.932   2.154   8.061  1.0021 -0.6249  0.2382
  212MOL0     C29165   3.806   2.111   8.007 -0.6778 -0.9548 -0.8924
  212MOL0     O29166   3.593   2.213   7.824  0.6468 -0.1819  0.6793
  212MOL0     C29167   3.342   2.062   7.783  0.7368  0.1014 -0.3407
  212MOL0     C29168   3.232   2.008   7.723 -0.6113  0.2505 -0.0425
  212MOL0     N29169   2.632   1.854   7.660  1.2782  0.1994  0.0938
  212MOL0     N29170   2.530   1.849   7.737 -0.3720  0.1283 -0.1021
  212MOL0     C29171   2.597   1.758   8.577 -0.8121  0.8340 -0.3257
  212MOL0     C29172   2.732   1.711   8.578 -0.2617 -0.1544  0.2771
  212MOL0     C29173   3.161   1.632   8.581 -0.7860 -0.0936 -0.1967
  212MOL0     C29174   3.246   1.566   8.676 -0.1353  0.1075  0.1577
  212MOL0     C29175   3.377   1.525   8.642 -0.2146 -0.5156 -0.0476
  212MOL0     C29176   3.428   1.529   8.510 -0.9081 -0.8060  0.5394
  212MOL0     O29177   3.534   1.446   8.478 -0.4734  0.2600 -0.0019
  212MOL0     C29178   3.582   1.432   8.341  0.6364  0.2220  0.2456
  212MOL0     C29179   3.682   1.315   8.339 -1.0076 -0.0283 -0.2065
  212MOL0     C29180   3.741   1.311   8.194  0.0417  0.0286 -0.8625
  212MOL0     C29181   3.854   1.208   8.175  0.1899 -1.0782 -0.0554
  212MOL0     C29182   3.860   1.141   8.042  0.5547  0.5235  0.3004
  212MOL0     C29183   3.883   1.092   7.932  0.0396  0.1562  0.0010
  212MOL0     C29184   3.346   1.599   8.415 -0.0620 -0.0057 -0.3026
  212MOL0     C29185   3.216   1.640   8.451  0.4122 -1.3497  0.2421
  212MOL0     C29186   3.142   1.703   8.336  0.3773 -0.0927  0.6975
  212MOL0     H29187   2.867   1.992   8.445  2.0404 -2.5274 -0.2626
  212MOL0     H29188   2.624   2.057   8.442  3.6590  1.4290 -0.9456
  212MOL0     H29189   2.233   1.837   8.569  0.1748  1.2998 -0.0384
  212MOL0     H29190   2.356   1.712   8.499 -2.3663 -0.8040 -1.8336
  212MOL0     H29191   2.235   1.952   8.371  0.2550 -0.6378 -0.2758
  212MOL0     H29192   2.361   1.861   8.298 -1.4868 -1.2287 -1.4419
  212MOL0     H29193   2.211   1.661   8.307 -2.7266 -1.1833  0.9803
  212MOL0     H29194   2.087   1.757   8.389  0.2480  0.2982  0.0290
  212MOL0     H29195   2.029   1.718   8.148 -0.3899  0.7159  2.1258
  212MOL0     H29196   2.051   1.891   8.180 -1.3740 -0.9363  0.9674
  212MOL0     H29197   2.250   1.714   8.047  1.4836  0.1113  2.2025
  212MOL0     H29198   2.283   1.881   8.095 -2.2310  1.2194  0.2174
  212MOL0     H29199   2.064   1.794   7.902  0.3163 -0.6413  0.8631
  212MOL0     H29200   2.104   1.961   7.946 -0.7965 -0.6118  0.9954
  212MOL0     H29201   2.206   1.862   7.717 -2.5954  3.6053  1.0945
  212MOL0     H29202   2.315   1.765   7.823 -0.5572  0.1757  1.9923
  212MOL0     H29203   2.282   2.073   7.770  1.0888 -0.1422 -0.0712
  212MOL0     H29204   2.368   2.008   7.917  1.4038 -1.1340 -0.0198
  212MOL0     H29205   2.484   2.137   7.597 -1.0618 -0.9815 -3.2736
  212MOL0     H29206   2.741   2.138   7.589  3.7544 -1.5520  0.7413
  212MOL0     H29207   2.706   2.075   7.424 -0.6310 -0.1399 -0.8110
  212MOL0     H29208   2.899   1.956   7.632 -0.6041  0.2796  0.6603
  212MOL0     H29209   2.839   1.858   7.500 -0.7067  0.1657 -0.2477
  212MOL0     H29210   2.941   2.021   7.323  0.8650 -0.4578 -0.1003
  212MOL0     H29211   3.012   2.103   7.468  1.1117 -0.4168 -1.1219
  212MOL0     H29212   3.063   1.821   7.359  1.4900 -0.9739  0.2578
  212MOL0     H29213   3.178   1.953   7.364  0.8155 -1.6004  1.4828
  212MOL0     H29214   3.380   1.879   7.451 -2.3786 -0.8453 -0.1942
  212MOL0     H29215   3.693   1.879   7.598 -0.4946 -0.6207 -0.0223
  212MOL0     H29216   3.650   2.029   7.507 -0.2203 -0.5767 -2.2877
  212MOL0     H29217   3.604   1.878   7.448  1.9115  3.1144 -2.3307
  212MOL0     H29218   3.923   1.985   7.715  1.9434 -0.0570 -1.1158
  212MOL0     H29219   4.141   2.057   7.810  1.2103  0.0217  1.8350
  212MOL0     H29220   4.157   2.307   8.203  2.2867  0.9343  1.3151
  212MOL0     H29221   4.126   2.132   8.235 -0.1161 -0.3606 -0.4679
  212MOL0     H29222   4.364   2.081   8.202  0.8607  0.2743 -0.5659
  212MOL0     H29223   4.394   2.246   8.156  2.9060 -2.0461  0.9590
  212MOL0     H29224   4.324   2.321   8.385 -0.3040 -0.9659  3.2882
  212MOL0     H29225   4.467   2.213   8.376  0.9430 -1.3650 -3.8949
  212MOL0     H29226   4.327   2.029   8.480  0.8303 -0.0793 -0.0051
  212MOL0     H29227   4.181   2.134   8.473 -0.2492 -1.3376  1.8134
  212MOL0     H29228   4.373   2.095   8.668 -1.5983 -1.6643 -2.5228
  212MOL0     H29229   4.429   2.252   8.597  3.3576 -1.7076  0.3597
  212MOL0     H29230   4.164   2.171   8.731 -1.8238  1.0161 -1.7481
  212MOL0     H29231   4.180   2.320   8.635  1.0777  0.5015 -0.2019
  212MOL0     H29232   4.382   2.374   8.769 -0.3262 -0.3407  1.0077
  212MOL0     H29233   4.336   2.245   8.885 -1.0095  0.5471  1.2590
  212MOL0     H29234   4.153   2.478   8.800 -0.4307  0.2008  1.0408
  212MOL0     H29235   4.269   2.484   8.936  1.1405 -1.3347 -0.4490
  212MOL0     H29236   3.921   2.190   8.163 -3.3346  0.1072 -0.3162
  212MOL0     H29237   3.717   2.122   8.069 -1.4705 -0.5402 -2.0701
  212MOL0     H29238   3.322   2.114   7.876  1.6950 -1.2426  0.6743
  212MOL0     H29239   3.137   2.021   7.774  0.1688  2.8122  0.9555
  212MOL0     H29240   2.524   1.692   8.622  0.2109 -1.1682 -1.4640
  212MOL0     H29241   2.759   1.614   8.617 -1.0129  0.7890  3.4803
  212MOL0     H29242   3.223   1.564   8.782  0.2093 -1.9859  0.2266
  212MOL0     H29243   3.434   1.483   8.724 -3.7595 -2.4935  1.6332
  212MOL0     H29244   3.503   1.423   8.267  0.0633 -0.9572  0.9774
  212MOL0     H29245   3.639   1.524   8.323  2.9500 -1.1050  0.3718
  212MOL0     H29246   3.632   1.219   8.356  2.6868 -1.8368  1.5074
  212MOL0     H29247   3.760   1.335   8.413 -2.2628 -0.7947  1.3944
  212MOL0     H29248   3.660   1.297   8.123 -0.8970  0.8927  0.0098
  212MOL0     H29249   3.779   1.411   8.169  1.1164 -0.2313 -0.3404
  212MOL0     H29250   3.843   1.129   8.249  0.3328  1.2749  2.6300
  212MOL0     H29251   3.948   1.262   8.189 -0.2394 -0.5659  0.9230
  212MOL0     H29252   3.886   1.033   7.842 -0.5287  2.1796 -1.4267
  212MOL0     H29253   3.389   1.609   8.316 -0.7986  1.0148 -0.5397
  212MOL0     H29254   3.104   1.803   8.357 -1.6575 -0.2278 -1.8349
  212MOL0     H29255   3.194   1.710   8.241  0.0081 -0.9103  0.4267
  212MOL0     H29256   3.053   1.647   8.307  2.0057 -0.8718 -3.4566
  213MOL0     O29257   0.636   5.890   8.767 -0.3697 -0.0707 -0.0445
  213MOL0     C29258   0.558   5.980   8.767  0.1758 -0.8192  0.0131
  213MOL0     O29259   0.474   6.014   8.660  0.8905  0.7083  0.0413
  213MOL0     C29260   0.521   5.991   8.528  0.2596 -0.0033 -0.0476
  213MOL0     C29261   0.574   6.095   8.453 -1.0977 -0.1857  0.2252
  213MOL0     C29262   0.628   6.083   8.325  1.0680  0.1042 -0.1791
  213MOL0     C29263   0.648   5.951   8.275 -0.4126  0.3692  0.1444
  213MOL0     O29264   0.710   5.923   8.158  0.9007  0.2331  0.6843
  213MOL0     C29265   0.775   6.011   8.066  0.1963 -0.3795 -1.0736
  213MOL0     C29266   0.905   6.070   8.122  0.0635 -0.0816 -0.3258
  213MOL0     C29267   1.025   5.993   8.072  0.6302  0.5834  0.1051
  213MOL0     C29268   1.055   5.866   8.148 -1.0452  0.2834  0.5804
  213MOL0     C29269   1.170   5.793   8.079 -0.5351  0.3734  1.0223
  213MOL0     C29270   1.218   5.684   8.174  0.0564  0.3039  0.5727
  213MOL0     C29271   1.268   5.566   8.093  0.6011  0.3957  0.1013
  213MOL0     C29272   1.409   5.581   8.026  0.5462  0.0068 -0.4189
  213MOL0     N29273   1.516   5.568   8.126 -0.1216  0.2379  0.1988
  213MOL0     C29274   1.545   5.458   8.204  0.2816 -0.3282 -0.3457
  213MOL0     C29275   1.664   5.482   8.259  0.4672 -0.0191 -0.3218
  213MOL0     C29276   1.742   5.406   8.361  0.5785  0.6030 -0.1591
  213MOL0     C29277   1.770   5.253   8.323 -0.4595 -0.5253  0.3073
  213MOL0     C29278   1.670   5.145   8.381  0.0509 -0.3885  0.5829
  213MOL0     C29279   1.700   5.004   8.332  0.6668 -0.0993 -0.0502
  213MOL0     O29280   1.690   4.915   8.443 -0.3825 -0.0427  0.0450
  213MOL0     C29281   1.579   4.857   8.480 -0.2607 -0.6561  0.3420
  213MOL0     C29282   1.593   4.734   8.535  0.3452  0.2738  0.3635
  213MOL0     C29283   1.480   4.661   8.576 -0.7008 -0.5309  0.8034
  213MOL0     C29284   1.505   4.514   8.616  0.7416  0.7414 -0.2925
  213MOL0     C29285   1.348   4.715   8.560  0.9541  0.5707  0.5856
  213MOL0     C29286   1.221   4.633   8.597 -0.4768 -0.7341 -0.1878
  213MOL0     O29287   1.105   4.701   8.586  0.0284  0.7692 -0.1737
  213MOL0     C29288   1.001   4.655   8.658 -1.0218  0.0631 -0.4190
  213MOL0     C29289   0.971   4.717   8.776  0.5741  0.2052 -0.2373
  213MOL0     C29290   0.875   4.676   8.867  0.5578  0.4480  0.4116
  213MOL0     C29291   0.793   4.555   8.832 -0.1769 -0.4880 -0.2384
  213MOL0     O29292   0.683   4.513   8.904 -0.7423 -0.5803 -0.0120
  213MOL0     C29293   0.710   4.415   9.004  0.2444  0.0785 -0.4507
  213MOL0     C29294   0.585   4.368   9.069 -0.8837  0.0259 -0.1400
  213MOL0     C29295   0.498   4.286   8.974  0.1484 -0.1844 -0.8887
  213MOL0     C29296   0.573   4.179   8.900 -0.8753 -0.5505 -0.5094
  213MOL0     C29297   0.488   4.091   8.806  0.4433 -0.4652 -0.1092
  213MOL0     C29298   0.395   3.989   8.881 -0.1118 -0.4688 -0.0942
  213MOL0     C29299   0.454   3.879   8.973  0.0832 -0.3517 -0.1643
  213MOL0     C29300   0.358   3.773   9.023 -0.7132  0.3562  0.0352
  213MOL0    Cl29301   0.242   3.816   9.151 -0.0926  0.1562  0.2768
  213MOL0     C29302   0.813   4.504   8.699 -0.0164 -0.1552 -0.3877
  213MOL0     C29303   0.923   4.549   8.623  1.5134  0.7277  2.0744
  213MOL0     O29304   1.231   4.515   8.626  0.2843 -0.8046 -0.4595
  213MOL0     C29305   1.342   4.848   8.514 -0.3956 -0.1434 -0.2834
  213MOL0     C29306   1.456   4.917   8.475  0.7419 -0.0204  0.0421
  213MOL0     N29307   1.704   5.601   8.226  0.0410  0.5329  0.2783
  213MOL0     N29308   1.619   5.653   8.142  0.5674 -0.0944  0.2215
  213MOL0     C29309   0.606   5.847   8.348 -0.3124 -0.0311 -0.0500
  213MOL0     C29310   0.536   5.862   8.465 -0.0683 -0.6944 -0.4183
  213MOL0     C29311   0.532   6.042   8.905  0.1364  0.3293  0.0282
  213MOL0     C29312   0.582   5.981   9.018  0.2165  0.1858  0.5175
  213MOL0     C29313   0.559   6.029   9.149  0.4751  0.3965 -0.2149
  213MOL0     C29314   0.492   6.149   9.168 -0.1487 -0.2534  0.3076
  213MOL0     O29315   0.480   6.210   9.293  0.0990 -0.2712  0.4737
  213MOL0     C29316   0.574   6.175   9.400 -0.7835  0.6759  0.5055
  213MOL0     C29317   0.593   6.285   9.514 -0.6310 -0.4073 -0.6403
  213MOL0     C29318   0.604   6.223   9.644  0.1357 -0.0132 -0.2444
  213MOL0     C29319   0.726   6.144   9.679 -0.0014  0.1761  0.7160
  213MOL0     C29320   0.744   6.117   9.824 -0.4759  0.5192 -0.7461
  213MOL0     C29321   0.769   6.098   9.944 -0.4705  0.5303 -0.0968
  213MOL0     C29322   0.430   6.203   9.061 -0.0854 -0.5553  0.5751
  213MOL0     C29323   0.452   6.155   8.927  0.4287 -0.3734  0.0051
  213MOL0     C29324   0.403   6.241   8.808  0.6808 -0.7789 -0.4506
  213MOL0     H29325   0.554   6.193   8.496 -2.5435 -0.7865  0.9872
  213MOL0     H29326   0.646   6.171   8.265  0.8468  1.1704  1.2675
  213MOL0     H29327   0.705   6.092   8.046 -0.2365 -0.8082 -1.3145
  213MOL0     H29328   0.790   5.960   7.970 -1.5243 -3.5433  0.1914
  213MOL0     H29329   0.910   6.175   8.091 -1.4103  0.7300  1.9353
  213MOL0     H29330   0.887   6.075   8.230  0.0556  1.1323 -0.3641
  213MOL0     H29331   1.016   5.975   7.964  0.0683  0.4939  0.1630
  213MOL0     H29332   1.103   6.067   8.090  0.1275  0.7743  1.5748
  213MOL0     H29333   1.095   5.897   8.245 -0.5440 -0.7328  0.7202
  213MOL0     H29334   0.969   5.799   8.159  0.1231 -1.2732  0.6092
  213MOL0     H29335   1.255   5.856   8.053 -0.8232  0.1223 -0.6308
  213MOL0     H29336   1.132   5.753   7.985 -1.5130  0.4191  1.3830
  213MOL0     H29337   1.295   5.722   8.242  0.3057  1.9971 -0.6240
  213MOL0     H29338   1.133   5.647   8.233  0.6540 -1.6363  0.3004
  213MOL0     H29339   1.199   5.539   8.013  0.9461 -0.6330  0.1378
  213MOL0     H29340   1.274   5.485   8.165 -0.4102 -0.3252 -0.6051
  213MOL0     H29341   1.430   5.500   7.956 -1.4486 -1.4277  0.5431
  213MOL0     H29342   1.419   5.682   7.984 -0.9909 -0.1848 -1.3218
  213MOL0     H29343   1.478   5.375   8.224  2.2075 -2.7604 -3.1708
  213MOL0     H29344   1.682   5.403   8.452  0.0284  2.6547 -0.4188
  213MOL0     H29345   1.842   5.445   8.384  1.6554 -2.7736  1.5212
  213MOL0     H29346   1.788   5.250   8.215 -0.0170  0.0309  0.3625
  213MOL0     H29347   1.870   5.232   8.360  0.4625  2.1554 -0.4117
  213MOL0     H29348   1.670   5.150   8.490 -0.6487  2.3844  0.5557
  213MOL0     H29349   1.574   5.179   8.341  1.1420 -0.0648 -1.9726
  213MOL0     H29350   1.639   4.975   8.247  0.7289 -1.0994  0.2287
  213MOL0     H29351   1.802   4.999   8.292  1.0824  0.0279  0.9501
  213MOL0     H29352   1.687   4.681   8.534  0.9622  1.3346 -0.2920
  213MOL0     H29353   1.611   4.492   8.602  0.1825 -1.8943 -1.0524
  213MOL0     H29354   1.452   4.441   8.553 -0.5645 -0.1449  1.7199
  213MOL0     H29355   1.467   4.505   8.718 -1.0509  0.5874 -0.9265
  213MOL0     H29356   1.022   4.807   8.809  0.2508  0.5178 -0.5713
  213MOL0     H29357   0.848   4.727   8.959 -2.1158  1.9397 -1.0930
  213MOL0     H29358   0.779   4.335   8.975 -1.2679 -1.8971  1.1279
  213MOL0     H29359   0.760   4.476   9.080 -0.4342  1.7089 -1.2847
  213MOL0     H29360   0.607   4.310   9.159 -0.4210  1.1658  0.4993
  213MOL0     H29361   0.516   4.445   9.105 -1.8520 -2.0979  3.0003
  213MOL0     H29362   0.448   4.353   8.904 -2.2301 -0.2446  0.6350
  213MOL0     H29363   0.421   4.230   9.027  3.3168 -2.5194  1.7158
  213MOL0     H29364   0.626   4.119   8.974 -0.7088  2.0956  1.6670
  213MOL0     H29365   0.647   4.227   8.835  2.2154 -3.4081  0.6173
  213MOL0     H29366   0.416   4.152   8.750 -0.6998 -0.4850  1.2641
  213MOL0     H29367   0.563   4.035   8.749  1.5823  1.0260 -0.1410
  213MOL0     H29368   0.324   3.941   8.813 -1.1788 -1.5014  1.6605
  213MOL0     H29369   0.329   4.044   8.949 -1.0786 -1.0695 -0.5214
  213MOL0     H29370   0.507   3.915   9.062  0.3096 -1.9117  0.3608
  213MOL0     H29371   0.533   3.835   8.912 -0.5329 -3.2412  0.9758
  213MOL0     H29372   0.420   3.693   9.063 -1.4401  0.2309  0.9511
  213MOL0     H29373   0.306   3.727   8.940  1.1445 -1.7124 -0.0693
  213MOL0     H29374   0.745   4.425   8.668 -1.5166  1.0142 -0.1553
  213MOL0     H29375   0.943   4.496   8.530 -0.3182 -2.6678  3.4396
  213MOL0     H29376   1.244   4.894   8.509 -1.0895 -1.3619  1.2957
  213MOL0     H29377   1.441   5.015   8.430 -1.8760 -0.3154  0.1018
  213MOL0     H29378   0.618   5.749   8.302  2.3436  1.0290 -1.8901
  213MOL0     H29379   0.499   5.776   8.520  0.4253  0.6308  2.1174
  213MOL0     H29380   0.647   5.896   8.999 -2.5310 -1.7353 -1.0649
  213MOL0     H29381   0.606   5.987   9.237  0.1831  1.4560  0.4648
  213MOL0     H29382   0.548   6.080   9.447  2.3463 -1.7584 -2.2065
  213MOL0     H29383   0.667   6.170   9.342 -0.4523 -0.1325  1.0960
  213MOL0     H29384   0.496   6.337   9.518 -0.1688  0.3926  0.4580
  213MOL0     H29385   0.672   6.355   9.487  2.7028 -3.8235 -0.5109
  213MOL0     H29386   0.574   6.298   9.718 -4.8996 -1.3032 -0.5952
  213MOL0     H29387   0.525   6.148   9.646 -2.2550  2.3641  1.5255
  213MOL0     H29388   0.809   6.203   9.638 -0.3673  0.6411  0.6396
  213MOL0     H29389   0.721   6.050   9.623  0.5854  0.1505  0.6951
  213MOL0     H29390   0.798   6.082  10.046  3.2441  0.9018 -0.9803
  213MOL0     H29391   0.375   6.296   9.066 -0.6434 -0.9286  1.4609
  213MOL0     H29392   0.386   6.341   8.850  0.7227 -0.5203 -1.0420
  213MOL0     H29393   0.473   6.265   8.728 -0.6473 -0.4793 -1.5511
  213MOL0     H29394   0.308   6.202   8.770  2.0990 -2.8909 -2.0737
  214MOL0     O29395   3.672   1.325   1.097  0.2185  0.5593  0.4245
  214MOL0     C29396   3.624   1.238   1.019 -0.1681  0.6529  0.0740
  214MOL0     O29397   3.694   1.173   0.925 -0.0105 -1.2398  0.1629
  214MOL0     C29398   3.823   1.207   0.894 -0.2009 -0.1495 -0.5023
  214MOL0     C29399   3.925   1.107   0.884 -0.3619 -0.3721 -0.1396
  214MOL0     C29400   4.053   1.133   0.843 -0.5721 -0.3108 -0.6461
  214MOL0     C29401   4.084   1.261   0.801  0.2022  0.1269 -0.2982
  214MOL0     O29402   4.209   1.294   0.755  0.3175  0.1924  0.3580
  214MOL0     C29403   4.302   1.199   0.710 -0.1580  0.6943  0.6731
  214MOL0     C29404   4.293   1.170   0.561 -0.0289  0.4248  0.1028
  214MOL0     C29405   4.427   1.123   0.512  0.0695  1.0299  0.5429
  214MOL0     C29406   4.413   1.075   0.366  0.3367 -0.7501  0.0485
  214MOL0     C29407   4.533   0.981   0.332  0.0744 -0.3703  0.2872
  214MOL0     C29408   4.669   1.049   0.335  0.2403 -0.0414 -0.4246
  214MOL0     C29409   4.792   0.961   0.300 -0.2907 -0.7409  0.0021
  214MOL0     C29410   4.785   0.931   0.145 -0.3394  0.6292 -0.5584
  214MOL0     N29411   4.899   0.842   0.104  0.0768  0.0209 -0.0401
  214MOL0     C29412   4.884   0.709   0.084 -0.0457  0.6517  0.0969
  214MOL0     C29413   4.997   0.677   0.020  0.0009 -0.0565  0.6850
  214MOL0     C29414   5.030   0.542  -0.034  0.1585 -0.6110  0.6348
  214MOL0     C29415   5.106   0.451   0.065 -0.5578 -0.2306  0.0449
  214MOL0     C29416   5.262   0.461   0.053 -0.3697 -0.1119 -0.5823
  214MOL0     C29417   5.318   0.409  -0.078  0.7560 -0.2131 -0.0155
  214MOL0     O29418   5.304   0.266  -0.077 -0.1590  1.0703  0.2180
  214MOL0     C29419   5.404   0.193  -0.142  0.3640  0.7338 -0.0234
  214MOL0     C29420   5.419   0.063  -0.114 -0.7704  0.3160  0.9678
  214MOL0     C29421   5.500  -0.023  -0.182  0.1610  0.5983  0.2673
  214MOL0     C29422   5.486  -0.167  -0.155  0.1225 -0.6594 -0.2339
  214MOL0     C29423   5.575   0.035  -0.293 -0.9718 -0.2446 -0.3286
  214MOL0     C29424   5.674  -0.050  -0.383 -0.6982  0.0924  0.3876
  214MOL0     O29425   5.758   0.025  -0.468  1.0110  0.0594 -0.2351
  214MOL0     C29426   5.887  -0.027  -0.496 -1.4729  0.2669 -0.4959
  214MOL0     C29427   5.965   0.035  -0.603  0.3042 -0.8021 -0.2283
  214MOL0     C29428   6.084  -0.014  -0.652  0.1486 -0.4465 -0.6960
  214MOL0     C29429   6.145  -0.123  -0.587  0.4772  0.1847  0.1002
  214MOL0     O29430   6.253  -0.171  -0.651  0.1626 -0.8270 -0.2432
  214MOL0     C29431   6.318  -0.281  -0.590  0.1437 -0.0167  0.8246
  214MOL0     C29432   6.448  -0.318  -0.661  0.8555  0.8167 -0.3901
  214MOL0     C29433   6.417  -0.341  -0.809  0.3265 -1.0443 -0.2785
  214MOL0     C29434   6.552  -0.350  -0.885 -0.4806  0.4525  0.0766
  214MOL0     C29435   6.600  -0.216  -0.938 -0.0812  0.1423 -0.5617
  214MOL0     C29436   6.725  -0.238  -1.031 -0.3651 -0.6619 -0.0987
  214MOL0     C29437   6.851  -0.250  -0.950 -0.6454  0.1961 -0.8603
  214MOL0     C29438   6.978  -0.280  -1.034  0.8735 -0.0130 -0.7890
  214MOL0    Cl29439   6.972  -0.208  -1.190 -0.0846 -0.3849 -0.2533
  214MOL0     C29440   6.081  -0.169  -0.475 -0.8055  1.2077  1.1482
  214MOL0     C29441   5.960  -0.128  -0.428 -0.3943  0.1428 -0.1787
  214MOL0     O29442   5.672  -0.173  -0.373 -0.1692  0.0852 -0.8503
  214MOL0     C29443   5.571   0.174  -0.306 -0.1674 -0.5347 -0.5805
  214MOL0     C29444   5.482   0.252  -0.244  0.6232  0.8821  1.0045
  214MOL0     N29445   5.079   0.788  -0.002  0.3391  0.2123 -0.2367
  214MOL0     N29446   5.027   0.890   0.055  0.9742 -0.2383  0.4081
  214MOL0     C29447   3.980   1.362   0.809 -0.1049 -0.0627 -0.1012
  214MOL0     C29448   3.858   1.339   0.870  0.7013 -0.7330 -0.0578
  214MOL0     C29449   3.482   1.208   1.027 -0.0307  1.1404  0.0248
  214MOL0     C29450   3.411   1.146   0.910 -0.1856  0.6962 -0.0441
  214MOL0     C29451   3.278   1.115   0.905  0.0439  0.2531 -1.2124
  214MOL0     C29452   3.214   1.119   1.022 -0.1014  0.3032  0.3697
  214MOL0     O29453   3.081   1.087   1.036 -1.1257 -0.6431  0.3682
  214MOL0     C29454   2.988   1.153   0.951  0.0783  0.5264  0.1993
  214MOL0     C29455   2.860   1.192   1.015  0.2804 -0.2091 -0.1344
  214MOL0     C29456   2.761   1.075   1.035  0.1970  0.0404  0.1954
  214MOL0     C29457   2.713   1.011   0.902 -0.4053  0.8977  0.0314
  214MOL0     C29458   2.600   1.088   0.849 -0.3598 -0.9117 -0.0906
  214MOL0     C29459   2.519   1.147   0.780 -0.6779  0.0940 -0.2991
  214MOL0     C29460   3.273   1.171   1.135 -0.3371  0.5502  0.3625
  214MOL0     C29461   3.400   1.219   1.143 -0.9523  0.1206  0.1538
  214MOL0     C29462   3.446   1.280   1.273 -0.5532  0.1978  0.5851
  214MOL0     H29463   3.899   1.008   0.919 -4.0571  1.2244  2.2472
  214MOL0     H29464   4.116   1.045   0.839  2.9426  2.0231 -0.4868
  214MOL0     H29465   4.301   1.099   0.753  1.1518  0.1428 -0.4878
  214MOL0     H29466   4.398   1.249   0.730  0.3684  0.1993 -0.5377
  214MOL0     H29467   4.218   1.091   0.553  0.4991 -0.1538  0.7411
  214MOL0     H29468   4.253   1.260   0.513  2.4279  0.6802 -1.6422
  214MOL0     H29469   4.509   1.194   0.522  1.3781 -0.6148  2.3673
  214MOL0     H29470   4.445   1.026   0.559 -0.3663  0.4137 -0.5346
  214MOL0     H29471   4.326   1.014   0.342 -0.8091  1.1006 -0.6758
  214MOL0     H29472   4.413   1.166   0.306 -3.7974  1.6078  3.1443
  214MOL0     H29473   4.514   0.940   0.233  1.3615 -0.4554  0.0611
  214MOL0     H29474   4.548   0.908   0.412 -0.4360 -1.3546 -0.5006
  214MOL0     H29475   4.661   1.136   0.269  1.2366 -1.4690 -2.4941
  214MOL0     H29476   4.685   1.073   0.441  1.1909  0.6343 -0.7112
  214MOL0     H29477   4.783   0.868   0.357 -1.5620 -1.4483 -1.2819
  214MOL0     H29478   4.883   1.010   0.336 -0.2784 -0.7767  0.0203
  214MOL0     H29479   4.687   0.890   0.120 -0.2068  0.2638 -0.4886
  214MOL0     H29480   4.787   1.027   0.092  0.6336  1.8560  1.5684
  214MOL0     H29481   4.809   0.634   0.107  2.5251 -1.6268  1.6605
  214MOL0     H29482   5.081   0.562  -0.128 -1.7292 -0.7062 -0.4604
  214MOL0     H29483   4.934   0.499  -0.066  0.0940  0.1270 -0.2168
  214MOL0     H29484   5.072   0.486   0.164  3.5052  0.6703  1.3134
  214MOL0     H29485   5.091   0.347   0.035  3.9197 -0.6310 -1.4863
  214MOL0     H29486   5.291   0.565   0.070 -2.2197  0.1807  1.1948
  214MOL0     H29487   5.304   0.402   0.135 -1.1025 -1.7005 -1.2969
  214MOL0     H29488   5.261   0.455  -0.159 -0.4280  0.3806  1.1091
  214MOL0     H29489   5.425   0.430  -0.080  0.6791  0.1427 -1.9203
  214MOL0     H29490   5.348   0.014  -0.048 -0.5662 -1.0120  0.2269
  214MOL0     H29491   5.413  -0.189  -0.076 -1.7558 -0.7979 -1.9385
  214MOL0     H29492   5.587  -0.195  -0.122  0.4426  1.4441  0.7177
  214MOL0     H29493   5.464  -0.233  -0.239  2.4479 -0.2484 -1.2323
  214MOL0     H29494   5.919   0.114  -0.662 -0.7084 -0.7308  0.6240
  214MOL0     H29495   6.134   0.018  -0.742 -1.2108 -1.0150 -1.6923
  214MOL0     H29496   6.338  -0.263  -0.484 -2.3136 -0.8225  1.4917
  214MOL0     H29497   6.251  -0.366  -0.606  1.3750 -0.5966 -1.8067
  214MOL0     H29498   6.510  -0.230  -0.639  1.9213 -0.6475  3.1635
  214MOL0     H29499   6.499  -0.398  -0.607  1.3267  0.9637 -0.6096
  214MOL0     H29500   6.343  -0.270  -0.845 -1.8933 -2.4675  1.2234
  214MOL0     H29501   6.379  -0.444  -0.812 -1.5984 -0.4334  1.2874
  214MOL0     H29502   6.541  -0.423  -0.966  1.5024  0.8565 -0.6291
  214MOL0     H29503   6.630  -0.389  -0.819 -0.8226  1.4103  1.0553
  214MOL0     H29504   6.525  -0.157  -0.991  1.0606  0.1632 -2.2465
  214MOL0     H29505   6.637  -0.159  -0.852 -0.0970 -0.6403 -0.0367
  214MOL0     H29506   6.738  -0.146  -1.088 -1.8889  0.1159  0.7702
  214MOL0     H29507   6.721  -0.320  -1.104  0.3655 -0.7276 -0.0775
  214MOL0     H29508   6.848  -0.318  -0.864  1.3503  0.8045 -0.2421
  214MOL0     H29509   6.871  -0.153  -0.904 -2.0615  2.0403 -3.8755
  214MOL0     H29510   6.977  -0.385  -1.065 -1.0008 -0.0406 -0.7734
  214MOL0     H29511   7.062  -0.239  -0.977  0.0456  0.5454  0.0712
  214MOL0     H29512   6.136  -0.256  -0.438 -1.4110  0.3487  0.0765
  214MOL0     H29513   5.912  -0.174  -0.342  0.0839 -0.9877 -0.5002
  214MOL0     H29514   5.638   0.219  -0.379 -1.8295  1.5095 -0.9259
  214MOL0     H29515   5.473   0.357  -0.271 -0.4313  0.3396 -0.9573
  214MOL0     H29516   4.012   1.462   0.781 -2.8595  1.4970  1.8141
  214MOL0     H29517   3.785   1.418   0.887  0.3642 -1.3290  1.5246
  214MOL0     H29518   3.464   1.128   0.817 -1.5742 -1.5048 -0.4732
  214MOL0     H29519   3.231   1.076   0.816 -0.8021 -0.7149 -0.3748
  214MOL0     H29520   3.028   1.245   0.908  0.2004 -0.1145 -1.0962
  214MOL0     H29521   2.976   1.088   0.864  1.7310  1.7146 -0.9759
  214MOL0     H29522   2.802   1.258   0.950  0.5827 -0.5411 -0.7490
  214MOL0     H29523   2.877   1.247   1.108 -0.7637 -1.4840  0.8475
  214MOL0     H29524   2.809   0.992   1.087 -1.2497 -0.4715  0.7531
  214MOL0     H29525   2.678   1.112   1.096 -1.4630 -1.2133 -1.1856
  214MOL0     H29526   2.668   0.912   0.911 -2.2324  1.5327 -1.4979
  214MOL0     H29527   2.801   1.006   0.837  1.4033  1.4378  2.2815
  214MOL0     H29528   2.451   1.208   0.723 -0.8911  1.2911  1.1773
  214MOL0     H29529   3.217   1.166   1.227  0.1935  1.1778  0.7273
  214MOL0     H29530   3.524   1.219   1.320 -0.4124 -0.7621 -0.8391
  214MOL0     H29531   3.488   1.379   1.258 -0.2954  0.6657  3.7004
  214MOL0     H29532   3.361   1.289   1.341  0.4668  2.5192  1.6549
  215MOL0     O29533   7.239   2.961   1.946  0.3825  0.2730 -0.6866
  215MOL0     C29534   7.239   2.959   1.823 -0.6580 -1.0153  0.6138
  215MOL0     O29535   7.346   2.998   1.747  0.8056  0.4594  0.0930
  215MOL0     C29536   7.466   3.022   1.808  0.3940  0.1006  0.3632
  215MOL0     C29537   7.544   2.926   1.878 -0.5407 -0.7205 -0.0517
  215MOL0     C29538   7.668   2.965   1.933 -0.2800  0.2338  0.0822
  215MOL0     C29539   7.733   3.089   1.918  0.1395 -0.9206  0.5553
  215MOL0     O29540   7.859   3.133   1.958 -0.6495  0.4059 -0.4620
  215MOL0     C29541   7.930   3.054   2.054  0.1345  0.0304 -0.0377
  215MOL0     C29542   8.044   3.151   2.100  0.6763 -0.7807  0.2087
  215MOL0     C29543   8.165   3.177   2.006 -0.3813  0.2380 -0.1927
  215MOL0     C29544   8.240   3.285   2.079 -0.5790  0.9348 -0.5758
  215MOL0     C29545   8.364   3.335   2.004 -0.7056 -0.3358 -0.7675
  215MOL0     C29546   8.431   3.442   2.089  0.4203  0.6025 -0.0032
  215MOL0     C29547   8.545   3.513   2.015 -0.5092 -0.4852 -0.1919
  215MOL0     C29548   8.510   3.580   1.886 -0.4673  0.4924 -1.1653
  215MOL0     N29549   8.616   3.673   1.841  0.3491  0.5236  0.5315
  215MOL0     C29550   8.704   3.659   1.730 -0.4933 -0.1604  0.7029
  215MOL0     C29551   8.750   3.785   1.713  1.0883  0.8711  0.4357
  215MOL0     C29552   8.863   3.812   1.612 -0.4622  0.3666  0.2536
  215MOL0     C29553   8.911   3.959   1.590  0.1118  0.2876 -0.1485
  215MOL0     C29554   9.002   3.996   1.479  0.3493  0.4359  0.7934
  215MOL0     C29555   9.122   3.903   1.453 -0.3046 -0.3184 -0.7393
  215MOL0     O29556   9.083   3.778   1.399 -0.3311 -1.0036 -0.3087
  215MOL0     C29557   9.054   3.754   1.271  0.4684  0.2305 -0.0250
  215MOL0     C29558   8.975   3.643   1.231 -0.3801  0.5167  0.0596
  215MOL0     C29559   8.934   3.618   1.099  0.3527  0.1786  0.7970
  215MOL0     C29560   8.870   3.488   1.069  0.3930 -0.3718 -0.1255
  215MOL0     C29561   8.965   3.713   1.007  0.6297 -0.4370  0.8058
  215MOL0     C29562   8.926   3.703   0.867  0.8764  1.0148  0.8087
  215MOL0     O29563   9.005   3.754   0.769 -0.2403  0.6996  0.1114
  215MOL0     C29564   8.990   3.733   0.636  0.7508 -0.6682 -0.8435
  215MOL0     C29565   8.930   3.614   0.586  0.0644  0.8399 -0.2322
  215MOL0     C29566   8.901   3.600   0.451 -1.3115  0.1732  0.1128
  215MOL0     C29567   8.944   3.703   0.364 -0.4626  0.2432 -0.6243
  215MOL0     O29568   8.913   3.700   0.224 -0.2290 -0.1184 -0.4608
  215MOL0     C29569   9.007   3.744   0.127  0.1472 -0.5130 -0.0910
  215MOL0     C29570   8.968   3.685   0.000 -0.7352 -0.4017  0.8984
  215MOL0     C29571   9.087   3.743  -0.095  0.6225  0.2392 -0.0149
  215MOL0     C29572   9.043   3.716  -0.239  0.9047  0.0663  0.0561
  215MOL0     C29573   9.155   3.741  -0.340 -0.9031  0.3494 -0.2595
  215MOL0     C29574   9.106   3.734  -0.482  0.1894 -0.0773  1.5398
  215MOL0     C29575   9.216   3.761  -0.584  0.0923  1.4164 -0.0264
  215MOL0     C29576   9.337   3.669  -0.547  0.2751 -0.4130  0.5080
  215MOL0    Cl29577   9.432   3.671  -0.702  0.2884 -0.1226  0.4969
  215MOL0     C29578   9.000   3.818   0.418  0.1664  0.5896  0.0768
  215MOL0     C29579   9.024   3.830   0.553 -0.7887  0.4250  0.4300
  215MOL0     O29580   8.814   3.650   0.848 -0.3695  0.6678  0.7374
  215MOL0     C29581   9.056   3.821   1.036  0.0045 -0.0892  0.4385
  215MOL0     C29582   9.093   3.838   1.164  0.4110  0.4218 -0.1793
  215MOL0     N29583   8.682   3.873   1.795 -0.1200  0.5075 -0.6783
  215MOL0     N29584   8.603   3.802   1.868  0.0252 -0.0348 -0.7531
  215MOL0     C29585   7.660   3.173   1.836 -0.2845  0.0263  0.5969
  215MOL0     C29586   7.528   3.149   1.792  0.2872  0.1803 -0.7282
  215MOL0     C29587   7.112   2.931   1.763  0.4202 -0.5112  0.5087
  215MOL0     C29588   7.052   3.028   1.684  0.0341  0.3247 -0.1877
  215MOL0     C29589   6.936   2.996   1.615  0.4925  0.5094 -0.1297
  215MOL0     C29590   6.864   2.880   1.635  0.9943 -0.7264  0.2857
  215MOL0     O29591   6.731   2.853   1.596  0.2945 -0.0348  0.1532
  215MOL0     C29592   6.655   2.941   1.508 -1.0882 -0.4969 -1.0592
  215MOL0     C29593   6.724   2.944   1.363  0.3793 -0.1358 -0.5606
  215MOL0     C29594   6.753   2.805   1.313  0.6057  1.1586 -0.3823
  215MOL0     C29595   6.640   2.697   1.318 -0.3423 -1.1535  0.3897
  215MOL0     C29596   6.528   2.746   1.232 -0.5505 -0.1858  0.3398
  215MOL0     C29597   6.427   2.761   1.167 -0.6388 -0.0592  0.7148
  215MOL0     C29598   6.918   2.792   1.731  0.7660  0.2131  0.3726
  215MOL0     C29599   7.042   2.806   1.790 -0.7732  0.0482 -0.4406
  215MOL0     C29600   7.105   2.706   1.879  0.3945  0.0340 -0.2765
  215MOL0     H29601   7.511   2.823   1.890  4.2298 -2.3338  1.5153
  215MOL0     H29602   7.710   2.890   2.000 -0.2397  0.6077  0.4784
  215MOL0     H29603   7.977   2.962   2.019  0.7439  1.7685 -4.3433
  215MOL0     H29604   7.860   3.026   2.134 -0.9445 -0.2119 -1.0342
  215MOL0     H29605   7.998   3.249   2.112 -0.9043 -1.5626  0.8271
  215MOL0     H29606   8.076   3.123   2.200 -3.9780  1.8943  2.7830
  215MOL0     H29607   8.228   3.088   2.005  1.0682  1.2337 -0.1375
  215MOL0     H29608   8.137   3.202   1.903  0.4037 -0.8741 -0.6949
  215MOL0     H29609   8.174   3.365   2.115 -0.3274  0.9933 -0.2361
  215MOL0     H29610   8.282   3.248   2.173 -0.6838 -0.6103 -1.1218
  215MOL0     H29611   8.332   3.366   1.904  2.9875  0.6431 -1.7779
  215MOL0     H29612   8.436   3.255   1.987 -0.6571 -0.7429  1.1179
  215MOL0     H29613   8.367   3.528   2.113  0.0450  0.3579 -0.1384
  215MOL0     H29614   8.457   3.407   2.189 -1.9683 -3.0013 -0.4821
  215MOL0     H29615   8.620   3.439   1.986  0.1674  0.9299 -2.3310
  215MOL0     H29616   8.577   3.594   2.082 -0.2426  0.6379 -1.6254
  215MOL0     H29617   8.477   3.512   1.808 -1.0561 -1.4418  0.6906
  215MOL0     H29618   8.421   3.638   1.912 -0.8327 -1.6011  3.0787
  215MOL0     H29619   8.743   3.571   1.680  1.9157  0.6133  1.0939
  215MOL0     H29620   8.821   3.781   1.516  0.5446 -2.2358  0.5761
  215MOL0     H29621   8.946   3.748   1.642 -2.0026 -2.4622 -1.1734
  215MOL0     H29622   8.826   4.028   1.582 -0.7846 -0.6639  0.7621
  215MOL0     H29623   8.967   3.982   1.681 -0.9354 -0.3391  0.6839
  215MOL0     H29624   8.943   4.003   1.387  1.4600  0.6046  0.0720
  215MOL0     H29625   9.037   4.098   1.495 -2.7103  1.4826  1.4618
  215MOL0     H29626   9.209   3.944   1.401  1.4218 -1.8191  0.8196
  215MOL0     H29627   9.159   3.878   1.553 -1.0451 -1.9020 -0.8235
  215MOL0     H29628   8.946   3.575   1.311 -3.7790  1.1520 -0.4587
  215MOL0     H29629   8.889   3.410   1.143  0.5049 -2.0218 -1.8485
  215MOL0     H29630   8.910   3.448   0.976 -1.5402  0.3601 -1.3389
  215MOL0     H29631   8.762   3.506   1.073  0.3396  0.7656 -3.6232
  215MOL0     H29632   8.895   3.531   0.648  0.7287  1.6240  1.2391
  215MOL0     H29633   8.853   3.514   0.405  1.0486 -2.4477  2.2174
  215MOL0     H29634   9.005   3.853   0.125  0.7282 -0.4883  0.4050
  215MOL0     H29635   9.107   3.712   0.160  0.1651 -1.9161 -1.3677
  215MOL0     H29636   8.987   3.577   0.007  0.7240 -0.1863  0.5299
  215MOL0     H29637   8.866   3.709  -0.031 -1.5133 -1.0796  2.7708
  215MOL0     H29638   9.177   3.682  -0.079  1.2088  1.2791  0.7653
  215MOL0     H29639   9.122   3.845  -0.084  0.2132  0.2734  1.1830
  215MOL0     H29640   8.960   3.784  -0.258  0.0656 -1.1228 -0.7327
  215MOL0     H29641   9.014   3.612  -0.260 -0.6451  0.3037  0.9060
  215MOL0     H29642   9.209   3.831  -0.313  3.2472 -2.2127  0.8295
  215MOL0     H29643   9.226   3.660  -0.318  0.7632  1.8641  0.1254
  215MOL0     H29644   9.025   3.805  -0.503  1.7278  0.7821 -2.2878
  215MOL0     H29645   9.059   3.638  -0.505 -1.5825  0.5695  2.3151
  215MOL0     H29646   9.238   3.868  -0.591  0.1116  1.4781  0.8424
  215MOL0     H29647   9.175   3.726  -0.679 -2.1419 -1.0044  1.6845
  215MOL0     H29648   9.304   3.569  -0.518 -0.6413  0.0026  0.9302
  215MOL0     H29649   9.400   3.707  -0.466  0.3058 -0.0241  0.3065
  215MOL0     H29650   9.013   3.898   0.346 -0.8998  0.8440  0.1369
  215MOL0     H29651   9.060   3.919   0.604  0.8210 -0.1218  0.3038
  215MOL0     H29652   9.091   3.901   0.973  1.0149 -2.4601 -2.2133
  215MOL0     H29653   9.159   3.920   1.189 -0.8400  1.2776  0.4151
  215MOL0     H29654   7.722   3.258   1.809 -0.2506  0.3821  1.7516
  215MOL0     H29655   7.470   3.223   1.736 -0.8871 -0.6038 -0.6012
  215MOL0     H29656   7.108   3.119   1.667  1.1911 -0.2935  0.1345
  215MOL0     H29657   6.893   3.074   1.553  1.3017 -0.2575 -1.7229
  215MOL0     H29658   6.548   2.919   1.508 -1.1573 -0.2880  0.5468
  215MOL0     H29659   6.665   3.042   1.549 -0.8078  0.2852 -2.9411
  215MOL0     H29660   6.817   3.001   1.363 -0.4444  1.2473 -0.3561
  215MOL0     H29661   6.663   2.994   1.288 -3.3490 -2.9522  0.2804
  215MOL0     H29662   6.790   2.807   1.210  1.0825  1.0798 -0.2177
  215MOL0     H29663   6.838   2.766   1.370 -1.0775 -2.6094 -0.2073
  215MOL0     H29664   6.607   2.679   1.420 -0.4195 -0.5883  0.4686
  215MOL0     H29665   6.662   2.603   1.266  0.0584 -0.3009 -1.0363
  215MOL0     H29666   6.337   2.789   1.116  0.0065 -0.2022 -0.5290
  215MOL0     H29667   6.861   2.702   1.751  1.4770 -0.9188 -2.1870
  215MOL0     H29668   7.214   2.699   1.869  0.4611 -1.3385  1.0004
  215MOL0     H29669   7.086   2.734   1.983  1.6476  0.1826 -0.0681
  215MOL0     H29670   7.071   2.604   1.857  0.0151  0.0620  0.1776
  216MOL0     O29671   8.848   0.139   3.128  0.2665  0.2547 -0.4179
  216MOL0     C29672   8.732   0.148   3.168 -0.5860 -0.9731  0.4915
  216MOL0     O29673   8.695   0.200   3.285  0.2321  0.1672  0.1406
  216MOL0     C29674   8.773   0.299   3.339  0.9992 -0.1118  0.3571
  216MOL0     C29675   8.912   0.329   3.338  0.3130 -0.1518 -0.4479
  216MOL0     C29676   8.969   0.425   3.421 -0.0553  0.4943  0.5231
  216MOL0     C29677   8.886   0.507   3.500  0.1494 -0.1032 -0.3128
  216MOL0     O29678   8.942   0.610   3.568  0.8308 -0.4684 -0.3649
  216MOL0     C29679   8.865   0.686   3.659  0.3537  0.0551  0.4741
  216MOL0     C29680   8.957   0.786   3.730  0.0832  0.4445  0.2690
  216MOL0     C29681   8.867   0.876   3.821 -0.4860  0.1432  0.0269
  216MOL0     C29682   8.981   0.941   3.912  0.2760  0.5146 -0.1589
  216MOL0     C29683   8.922   1.039   4.013  0.4124 -0.5503  0.3171
  216MOL0     C29684   8.993   1.030   4.142 -0.1759 -0.6087  0.7197
  216MOL0     C29685   8.998   1.162   4.222 -0.4176 -0.1322  0.4555
  216MOL0     C29686   9.086   1.128   4.350 -0.4513 -0.5850 -0.6323
  216MOL0     N29687   9.226   1.109   4.322  0.4098 -0.0441 -0.7245
  216MOL0     C29688   9.305   1.003   4.359  0.4081 -0.5195  0.3277
  216MOL0     C29689   9.430   1.052   4.334 -0.1322  0.3074  0.1462
  216MOL0     C29690   9.566   0.982   4.351  0.1718  0.0090 -0.1638
  216MOL0     C29691   9.664   1.071   4.435  0.2636  0.1150  0.5470
  216MOL0     C29692   9.630   1.065   4.580  1.0229 -0.4769 -0.1128
  216MOL0     C29693   9.707   1.168   4.667  0.4539  0.5566  0.1703
  216MOL0     O29694   9.840   1.153   4.621  0.8606  0.2514 -0.1289
  216MOL0     C29695   9.941   1.210   4.695  0.5074 -0.6239  0.0938
  216MOL0     C29696   9.928   1.308   4.793 -0.5907  0.8344 -0.3405
  216MOL0     C29697  10.031   1.346   4.876  0.9107  0.1750  0.0184
  216MOL0     C29698  10.012   1.463   4.974 -1.3736 -0.1126  0.1581
  216MOL0     C29699  10.155   1.283   4.869 -0.6706 -1.1171 -0.4999
  216MOL0     C29700  10.274   1.300   4.962 -0.6114  0.2857  0.3959
  216MOL0     O29701  10.391   1.246   4.917  0.1053  0.1542 -0.0498
  216MOL0     C29702  10.486   1.191   4.997 -0.0518  0.1293  0.3006
  216MOL0     C29703  10.505   1.203   5.135  0.7267 -0.5665 -1.2071
  216MOL0     C29704  10.602   1.132   5.209 -0.1702  0.2234  0.0108
  216MOL0     C29705  10.690   1.046   5.148  0.6402  0.1367  0.8972
  216MOL0     O29706  10.788   0.982   5.214 -0.1629  0.2054 -0.2184
  216MOL0     C29707  10.741   0.891   5.324  0.2680 -0.1646  0.1518
  216MOL0     C29708  10.841   0.776   5.348  0.5552  0.2742  0.0635
  216MOL0     C29709  10.861   0.697   5.216 -0.0908  0.2575 -0.6396
  216MOL0     C29710  10.958   0.586   5.251  0.0703  0.3661 -0.5667
  216MOL0     C29711  11.096   0.640   5.301  0.2111  0.1996  0.9447
  216MOL0     C29712  11.206   0.538   5.284 -0.7194 -0.1197  0.3341
  216MOL0     C29713  11.338   0.575   5.335  0.2709  0.4270  0.8326
  216MOL0     C29714  11.451   0.465   5.305 -0.5121 -0.1022 -0.8704
  216MOL0    Cl29715  11.475   0.434   5.129 -0.0125 -0.1790  0.1936
  216MOL0     C29716  10.681   1.032   5.010 -0.4437 -0.2484 -0.5362
  216MOL0     C29717  10.578   1.100   4.939 -0.2608  0.3275  0.9298
  216MOL0     O29718  10.254   1.343   5.077  0.7708 -0.0329  0.0838
  216MOL0     C29719  10.174   1.195   4.768  0.5803  0.4027 -0.1560
  216MOL0     C29720  10.067   1.159   4.682  0.3403  0.1936  0.0467
  216MOL0     N29721   9.420   1.181   4.282  0.0911  0.6959  0.3474
  216MOL0     N29722   9.297   1.209   4.271  0.3434 -0.1626  0.5580
  216MOL0     C29723   8.747   0.471   3.514 -0.4210 -0.7434  0.2989
  216MOL0     C29724   8.694   0.367   3.438 -0.0010  0.1655  1.3461
  216MOL0     C29725   8.626   0.106   3.074 -0.6541 -0.2699 -0.3314
  216MOL0     C29726   8.679   0.058   2.944  0.3297  0.8388  0.4952
  216MOL0     C29727   8.593   0.025   2.843  0.0477  0.2421 -0.4349
  216MOL0     C29728   8.456   0.032   2.860 -0.4128  0.2441 -0.3774
  216MOL0     O29729   8.374   0.021   2.753 -0.4774  0.4998 -0.6631
  216MOL0     C29730   8.409  -0.002   2.615 -0.5550 -0.4965  0.7116
  216MOL0     C29731   8.272  -0.019   2.545 -0.0564  0.6749 -0.3256
  216MOL0     C29732   8.232  -0.164   2.534 -0.1603 -0.5499  1.1076
  216MOL0     C29733   8.176  -0.212   2.670 -0.2256  0.2086  0.1107
  216MOL0     C29734   8.170  -0.356   2.653  0.5390  1.0798  1.2049
  216MOL0     C29735   8.147  -0.475   2.649  0.2330  0.4228  0.7865
  216MOL0     C29736   8.410   0.064   2.986 -1.0083  0.2560  0.4079
  216MOL0     C29737   8.486   0.111   3.093 -0.8310  0.3802  0.2733
  216MOL0     C29738   8.422   0.151   3.226  0.1279  0.3838 -0.2150
  216MOL0     H29739   8.988   0.276   3.281  0.4309 -1.3331  0.7493
  216MOL0     H29740   9.073   0.455   3.419  0.3273  0.1147  5.1309
  216MOL0     H29741   8.807   0.621   3.725  1.2925  0.4219  1.6745
  216MOL0     H29742   8.793   0.739   3.595  0.2397  0.0741  0.6197
  216MOL0     H29743   9.030   0.724   3.783  3.3523  2.2627 -1.7157
  216MOL0     H29744   9.013   0.853   3.664  0.8403 -1.4246 -1.0772
  216MOL0     H29745   8.803   0.942   3.763 -0.6670  0.3102  0.4185
  216MOL0     H29746   8.799   0.813   3.879  0.5270 -1.8270 -0.8035
  216MOL0     H29747   9.034   0.865   3.970 -0.0566  1.3838  1.3376
  216MOL0     H29748   9.066   0.993   3.865  2.1532 -1.2847  1.0624
  216MOL0     H29749   8.816   1.022   4.027  0.2358 -1.6086 -1.8176
  216MOL0     H29750   8.937   1.135   3.962  2.5935 -1.7944 -1.5784
  216MOL0     H29751   8.930   0.961   4.199 -0.6533 -1.0384 -0.3070
  216MOL0     H29752   9.092   0.986   4.126  0.1505  0.5482 -0.6450
  216MOL0     H29753   8.896   1.197   4.240 -0.1579  2.1355 -1.9496
  216MOL0     H29754   9.049   1.234   4.158  1.8935 -1.0677  1.1246
  216MOL0     H29755   9.078   1.214   4.417  1.2161 -0.9859  0.1350
  216MOL0     H29756   9.044   1.042   4.403 -1.4899  0.2142 -0.1185
  216MOL0     H29757   9.283   0.901   4.389  1.0363 -0.3653  1.3883
  216MOL0     H29758   9.608   0.980   4.250  0.2120  3.3296 -0.3219
  216MOL0     H29759   9.556   0.884   4.399  4.5660 -0.4088  0.2389
  216MOL0     H29760   9.768   1.037   4.425  0.8605  1.7091  0.9248
  216MOL0     H29761   9.649   1.172   4.395 -0.7846 -0.5426 -0.7974
  216MOL0     H29762   9.522   1.081   4.588  1.0919 -0.1593  0.2001
  216MOL0     H29763   9.645   0.966   4.624 -1.0801 -1.6709 -1.8606
  216MOL0     H29764   9.663   1.267   4.651 -1.4124 -0.2968 -0.2646
  216MOL0     H29765   9.686   1.143   4.772 -2.5021  2.2972  0.1074
  216MOL0     H29766   9.833   1.360   4.800 -0.0316  2.5147 -3.4007
  216MOL0     H29767  10.098   1.530   4.965 -1.1623 -0.2998  0.7413
  216MOL0     H29768  10.017   1.438   5.081 -1.9389  2.9620  1.0118
  216MOL0     H29769   9.919   1.514   4.949 -1.2960 -0.1489 -0.2086
  216MOL0     H29770  10.436   1.256   5.200  1.4277  1.3761 -2.0058
  216MOL0     H29771  10.616   1.144   5.316  1.2780  0.9131 -0.2365
  216MOL0     H29772  10.726   0.946   5.417 -2.2697 -3.1564  1.7264
  216MOL0     H29773  10.642   0.852   5.297 -0.2843  1.2907  0.0132
  216MOL0     H29774  10.928   0.829   5.386  0.8484 -0.3598  0.2681
  216MOL0     H29775  10.806   0.713   5.429 -1.5956 -1.0593 -1.7777
  216MOL0     H29776  10.896   0.771   5.143 -0.6324  0.8986 -0.2673
  216MOL0     H29777  10.777   0.636   5.183  0.7431 -0.9443 -0.6290
  216MOL0     H29778  10.972   0.523   5.163  1.0180 -0.6911  0.3106
  216MOL0     H29779  10.918   0.522   5.330  0.5294 -0.4889 -1.0221
  216MOL0     H29780  11.130   0.722   5.236 -0.6782 -1.1495 -1.3304
  216MOL0     H29781  11.082   0.674   5.404 -2.3673  0.0631  0.7118
  216MOL0     H29782  11.207   0.506   5.180 -2.6007 -1.6253  0.7083
  216MOL0     H29783  11.167   0.451   5.337 -3.8257  1.7823  1.4422
  216MOL0     H29784  11.340   0.584   5.444  4.1996  2.4866  0.7990
  216MOL0     H29785  11.355   0.676   5.295 -1.2189 -0.3339 -2.0383
  216MOL0     H29786  11.418   0.370   5.349 -0.3644 -0.5023 -1.6068
  216MOL0     H29787  11.547   0.498   5.346  0.2388  1.3163 -3.5326
  216MOL0     H29788  10.748   0.957   4.969 -3.9304 -3.1697 -1.3738
  216MOL0     H29789  10.568   1.095   4.831 -0.0677  0.5696  0.8997
  216MOL0     H29790  10.273   1.156   4.743 -0.3664 -1.5252 -1.0863
  216MOL0     H29791  10.096   1.086   4.607 -1.5249  0.8900 -1.4325
  216MOL0     H29792   8.677   0.533   3.569 -1.0205  0.8559 -2.1234
  216MOL0     H29793   8.585   0.366   3.438 -0.1187  1.0915 -1.7510
  216MOL0     H29794   8.783   0.069   2.915  0.1090  1.3828 -0.1177
  216MOL0     H29795   8.624  -0.001   2.742 -1.0058 -0.3112 -0.6247
  216MOL0     H29796   8.448   0.097   2.590  0.3208 -0.0555  3.5005
  216MOL0     H29797   8.478  -0.084   2.595  1.0836  0.8059  0.8485
  216MOL0     H29798   8.281   0.020   2.443 -0.9838 -2.0093 -1.5211
  216MOL0     H29799   8.189   0.039   2.587  0.4577  1.4631 -0.3603
  216MOL0     H29800   8.158  -0.191   2.458  0.9113  0.4919 -0.3647
  216MOL0     H29801   8.325  -0.211   2.502 -0.2290  0.5015 -0.8136
  216MOL0     H29802   8.076  -0.173   2.689  0.2920  1.0019  1.3456
  216MOL0     H29803   8.235  -0.188   2.759 -1.0527 -2.2086  1.4214
  216MOL0     H29804   8.134  -0.580   2.629  1.2887 -0.2190  3.1282
  216MOL0     H29805   8.305   0.048   3.007 -1.1029 -1.0185 -0.8713
  216MOL0     H29806   8.314   0.169   3.226  0.5284  3.6899  1.9549
  216MOL0     H29807   8.436   0.067   3.295 -1.9948  0.8736  0.9165
  216MOL0     H29808   8.450   0.253   3.252 -2.4388  1.2827 -0.7375
  217MOL0     O29809   0.779  10.372   0.389 -0.6085 -0.2571 -0.5398
  217MOL0     C29810   0.726  10.317   0.294  0.3195  0.2003  0.2126
  217MOL0     O29811   0.792  10.237   0.199 -0.6945 -0.6904 -0.8623
  217MOL0     C29812   0.931  10.230   0.207  0.9773 -0.9058 -0.0472
  217MOL0     C29813   1.013  10.341   0.222  0.2087  0.1167  0.0883
  217MOL0     C29814   1.150  10.328   0.233  1.3104 -0.0559  0.2324
  217MOL0     C29815   1.207  10.206   0.194 -0.5193 -0.2042 -0.3849
  217MOL0     O29816   1.343  10.187   0.195 -1.0001 -0.0811  0.2694
  217MOL0     C29817   1.428  10.295   0.242  0.8536 -0.8323  0.4763
  217MOL0     C29818   1.570  10.244   0.253  0.0018  0.1427 -0.8337
  217MOL0     C29819   1.640  10.199   0.129  0.4915 -0.0489 -0.1213
  217MOL0     C29820   1.774  10.132   0.147  0.7669 -0.5267 -0.7387
  217MOL0     C29821   1.828  10.081   0.016 -0.6393 -0.5386 -0.2549
  217MOL0     C29822   1.983  10.041   0.028 -0.3975  0.6799 -0.0730
  217MOL0     C29823   2.042   9.998  -0.102 -1.5239 -0.2332  0.8797
  217MOL0     C29824   2.191   9.947  -0.094  0.8353  0.0657  0.4347
  217MOL0     N29825   2.234   9.862  -0.210  0.4967  0.2144  0.0616
  217MOL0     C29826   2.291   9.735  -0.200 -0.1441 -0.5356 -0.3538
  217MOL0     C29827   2.311   9.698  -0.325 -0.2761 -0.1923  0.2285
  217MOL0     C29828   2.358   9.565  -0.361 -0.7309  0.1597 -0.1874
  217MOL0     C29829   2.492   9.526  -0.295  0.5528  0.1161 -0.4528
  217MOL0     C29830   2.594   9.621  -0.370  0.3857 -0.2449 -0.3238
  217MOL0     C29831   2.733   9.570  -0.359  0.6275  1.0358  0.7354
  217MOL0     O29832   2.809   9.677  -0.403  0.7596 -0.5193 -0.6922
  217MOL0     C29833   2.947   9.681  -0.395  0.8629  0.7758 -0.3947
  217MOL0     C29834   3.014   9.809  -0.403 -0.3282  0.6170  0.1151
  217MOL0     C29835   3.152   9.822  -0.386 -0.4385 -0.0993  0.9209
  217MOL0     C29836   3.202   9.959  -0.436  0.0525  0.0250  0.1976
  217MOL0     C29837   3.235   9.708  -0.365  0.5166 -0.4844 -0.2728
  217MOL0     C29838   3.381   9.722  -0.339  0.0788  0.5790  1.0521
  217MOL0     O29839   3.455   9.613  -0.365 -0.1222  0.9652  0.1161
  217MOL0     C29840   3.589   9.625  -0.398  1.0043  0.2608 -0.9847
  217MOL0     C29841   3.681   9.575  -0.304 -0.1681 -1.5396 -0.1636
  217MOL0     C29842   3.820   9.578  -0.329 -0.1269 -0.2493  0.4765
  217MOL0     C29843   3.866   9.618  -0.457  0.0154 -0.3990 -0.0512
  217MOL0     O29844   3.997   9.616  -0.499 -0.1155 -0.0968 -0.2204
  217MOL0     C29845   4.083   9.611  -0.382  0.5914  0.4078  0.1582
  217MOL0     C29846   4.229   9.611  -0.441  0.0478 -0.2301 -0.1924
  217MOL0     C29847   4.253   9.744  -0.513 -0.6190  0.6477 -0.4499
  217MOL0     C29848   4.399   9.788  -0.504 -0.2730 -0.3202  0.1318
  217MOL0     C29849   4.460   9.850  -0.625  0.4905 -0.1378  0.3798
  217MOL0     C29850   4.387   9.968  -0.678 -0.1861 -0.5616 -0.0117
  217MOL0     C29851   4.477  10.056  -0.762 -0.2157  0.6500 -0.7362
  217MOL0     C29852   4.400  10.164  -0.824  0.7843 -0.4987 -0.6448
  217MOL0    Cl29853   4.518  10.234  -0.930 -0.2054  0.0377  0.4190
  217MOL0     C29854   3.775   9.661  -0.541  0.4645  0.0122  0.1144
  217MOL0     C29855   3.639   9.676  -0.511 -0.3207  0.3924 -0.1530
  217MOL0     O29856   3.420   9.831  -0.291 -0.4458  0.6033 -0.0995
  217MOL0     C29857   3.164   9.584  -0.351 -0.3012  0.0491 -0.0455
  217MOL0     C29858   3.023   9.573  -0.362 -0.2978  0.4059  0.0870
  217MOL0     N29859   2.265   9.795  -0.414 -0.8594 -0.7196 -0.3175
  217MOL0     N29860   2.215   9.896  -0.342 -0.8172  0.6814  0.6231
  217MOL0     C29861   1.121  10.093   0.181  0.0183 -0.2735  0.0330
  217MOL0     C29862   0.994  10.108   0.178  0.3252 -0.9033  0.7289
  217MOL0     C29863   0.571  10.315   0.282 -0.0846  0.3544  0.0105
  217MOL0     C29864   0.499  10.348   0.399 -0.3115 -0.2403  0.2003
  217MOL0     C29865   0.363  10.344   0.403 -0.4481 -0.2698 -0.7899
  217MOL0     C29866   0.292  10.304   0.292 -0.2943 -0.5129  0.0672
  217MOL0     O29867   0.156  10.288   0.301  0.4082 -0.2841 -0.5909
  217MOL0     C29868   0.073  10.285   0.193  1.1183 -0.6383  0.9559
  217MOL0     C29869  -0.078  10.263   0.238  0.4365  0.2722  0.6040
  217MOL0     C29870  -0.150  10.392   0.291 -0.7873  0.1730  0.6051
  217MOL0     C29871  -0.083  10.435   0.419 -0.5121 -0.1610 -0.4140
  217MOL0     C29872  -0.148  10.548   0.486 -0.5341 -0.3845  0.8591
  217MOL0     C29873  -0.179  10.657   0.524 -0.4735 -0.1831  0.2604
  217MOL0     C29874   0.357  10.291   0.173 -0.7726 -0.1027  0.0642
  217MOL0     C29875   0.496  10.294   0.160  0.0616 -0.9664 -0.1511
  217MOL0     C29876   0.557  10.282   0.022 -0.2363  0.4418  0.5765
  217MOL0     H29877   0.968  10.440   0.225  1.9993  0.9934 -0.5177
  217MOL0     H29878   1.222  10.406   0.254  0.8845  0.3429  0.2287
  217MOL0     H29879   1.399  10.336   0.339 -2.0061 -0.8618 -0.2643
  217MOL0     H29880   1.428  10.374   0.167  1.2952 -0.2712  1.0615
  217MOL0     H29881   1.626  10.320   0.308 -3.2035  0.8497  1.7961
  217MOL0     H29882   1.562  10.159   0.321  0.7085 -1.5026 -2.6917
  217MOL0     H29883   1.579  10.118   0.087  0.3069  0.5209 -0.9825
  217MOL0     H29884   1.651  10.273   0.049  3.1714  0.9243  1.0273
  217MOL0     H29885   1.841  10.212   0.179 -0.7354 -0.1540  1.7231
  217MOL0     H29886   1.776  10.057   0.227  1.6180  1.4064  1.1517
  217MOL0     H29887   1.814  10.163  -0.055 -2.3717  0.0909  0.7604
  217MOL0     H29888   1.769   9.999  -0.026  0.5421 -2.9873  2.5539
  217MOL0     H29889   2.049  10.118   0.067 -2.8876  2.0676  1.7327
  217MOL0     H29890   1.980   9.959   0.100 -0.2174  1.2935  0.6445
  217MOL0     H29891   2.058  10.081  -0.172 -0.3430 -1.0064  0.1865
  217MOL0     H29892   1.978   9.921  -0.148  1.5750 -1.5242 -1.7019
  217MOL0     H29893   2.256  10.034  -0.085  1.8892 -0.7075  0.3844
  217MOL0     H29894   2.192   9.889  -0.002 -1.7854 -1.2189 -0.2518
  217MOL0     H29895   2.297   9.678  -0.108 -2.4019  2.9399  2.2352
  217MOL0     H29896   2.368   9.565  -0.469  1.0522  3.3022 -0.1346
  217MOL0     H29897   2.287   9.486  -0.334  0.6168 -1.3795 -0.9183
  217MOL0     H29898   2.487   9.541  -0.187 -1.1950  0.3044 -0.5346
  217MOL0     H29899   2.517   9.423  -0.320  0.0713  0.2945 -1.7806
  217MOL0     H29900   2.573   9.617  -0.477  1.8634  2.0252 -0.7818
  217MOL0     H29901   2.593   9.723  -0.330  3.3191 -0.0970 -0.4014
  217MOL0     H29902   2.765   9.539  -0.259 -0.3960 -0.9797  0.4828
  217MOL0     H29903   2.737   9.482  -0.424  1.0897  0.9712  0.8470
  217MOL0     H29904   2.945   9.887  -0.435  1.6681  3.4140  2.1388
  217MOL0     H29905   3.248  10.005  -0.349 -1.3746  2.0209 -0.0463
  217MOL0     H29906   3.119  10.025  -0.460 -1.4005 -0.7473  2.7372
  217MOL0     H29907   3.275   9.957  -0.518  1.2357 -2.2837  1.2060
  217MOL0     H29908   3.652   9.536  -0.207  2.4018  0.5512  1.5744
  217MOL0     H29909   3.877   9.535  -0.247 -1.7177 -0.8609  1.3042
  217MOL0     H29910   4.066   9.699  -0.319  2.4133 -1.4695  3.6090
  217MOL0     H29911   4.075   9.526  -0.313  0.1326 -0.9402 -1.4918
  217MOL0     H29912   4.295   9.598  -0.355 -2.1880  0.2054  1.6635
  217MOL0     H29913   4.239   9.526  -0.509 -1.4781 -0.3566 -0.2980
  217MOL0     H29914   4.188   9.821  -0.470 -1.5289 -0.8828  1.0087
  217MOL0     H29915   4.227   9.737  -0.620 -0.0052  0.3223 -0.5798
  217MOL0     H29916   4.455   9.698  -0.477  2.2420  1.1351  0.0562
  217MOL0     H29917   4.399   9.866  -0.428 -1.0128 -0.1058 -0.0719
  217MOL0     H29918   4.559   9.886  -0.597  1.0919  0.5760 -2.3043
  217MOL0     H29919   4.467   9.771  -0.701  1.0180 -1.3329  1.6214
  217MOL0     H29920   4.344  10.028  -0.597 -2.0421 -0.2959 -1.1287
  217MOL0     H29921   4.303   9.943  -0.744  0.4688  0.8665 -1.4654
  217MOL0     H29922   4.518   9.994  -0.843  1.0707  2.3906 -1.4894
  217MOL0     H29923   4.562  10.099  -0.708  0.6545 -1.8665  0.0371
  217MOL0     H29924   4.359  10.237  -0.754 -1.5865  0.8266 -3.2350
  217MOL0     H29925   4.316  10.133  -0.886  1.1284 -0.5032 -1.1158
  217MOL0     H29926   3.810   9.691  -0.640  1.2039 -2.9241 -0.6182
  217MOL0     H29927   3.572   9.729  -0.578  2.2272  0.6818 -2.6406
  217MOL0     H29928   3.223   9.495  -0.333 -0.9813 -1.3334 -3.6832
  217MOL0     H29929   2.977   9.477  -0.341 -3.1970  1.6987  0.1884
  217MOL0     H29930   1.157   9.992   0.168 -2.4309 -1.2681  0.4623
  217MOL0     H29931   0.929  10.030   0.139 -0.6353  0.2992 -0.1331
  217MOL0     H29932   0.558  10.375   0.486  1.4192 -2.4868 -0.1900
  217MOL0     H29933   0.327  10.359   0.504  2.8663 -2.5306  0.9378
  217MOL0     H29934   0.081  10.383   0.143 -1.1720  1.7201  4.7788
  217MOL0     H29935   0.094  10.204   0.122 -2.0169 -1.1425  0.4692
  217MOL0     H29936  -0.076  10.183   0.312  0.1321 -1.3189 -1.0452
  217MOL0     H29937  -0.139  10.211   0.163 -1.3446  0.6114  1.7642
  217MOL0     H29938  -0.131  10.476   0.224  3.5943  1.0400  2.5823
  217MOL0     H29939  -0.255  10.374   0.316 -1.2696  5.2771  3.5928
  217MOL0     H29940   0.022  10.455   0.394 -0.2773 -1.1629 -0.2871
  217MOL0     H29941  -0.079  10.348   0.485 -1.7184 -0.4341 -0.6842
  217MOL0     H29942  -0.218  10.752   0.553 -1.9172 -1.4213  2.7655
  217MOL0     H29943   0.299  10.267   0.084 -0.0353 -0.7941 -0.2422
  217MOL0     H29944   0.655  10.233   0.021  0.2090  1.3109  0.4836
  217MOL0     H29945   0.494  10.222  -0.043  0.7490 -0.3491  0.3245
  217MOL0     H29946   0.580  10.375  -0.032 -0.1520 -0.1760 -0.4823
  218MOL0     O29947   9.644   4.069   3.765 -0.6588  0.7387 -0.2055
  218MOL0     C29948   9.581   3.990   3.692 -0.4478  0.1154 -0.1478
  218MOL0     O29949   9.637   3.912   3.597  0.4572 -0.4455 -0.3415
  218MOL0     C29950   9.756   3.857   3.596  0.0634  0.5043  0.0976
  218MOL0     C29951   9.872   3.904   3.661 -0.2256  0.8139 -0.0090
  218MOL0     C29952   9.999   3.839   3.647 -0.6132  0.9661 -0.2237
  218MOL0     C29953  10.003   3.737   3.560 -0.3596  0.4857  0.4789
  218MOL0     O29954  10.121   3.670   3.527 -0.0658  0.0948  0.2044
  218MOL0     C29955  10.219   3.752   3.463 -1.1555  0.0588  0.1186
  218MOL0     C29956  10.334   3.792   3.556  0.4782  0.2463 -0.0758
  218MOL0     C29957  10.468   3.814   3.488  0.2162 -0.6734 -0.1207
  218MOL0     C29958  10.577   3.829   3.584  0.1485 -0.2168 -0.6782
  218MOL0     C29959  10.708   3.851   3.509  0.0705 -0.8303 -0.1767
  218MOL0     C29960  10.829   3.830   3.597 -0.2084  0.8311  0.7365
  218MOL0     C29961  10.951   3.818   3.502 -1.3346  0.5533  0.4792
  218MOL0     C29962  11.083   3.856   3.556 -0.4519 -0.4108  0.4357
  218MOL0     N29963  11.194   3.823   3.459  0.2083 -1.3905 -0.1664
  218MOL0     C29964  11.301   3.740   3.474 -0.2574  0.3441  0.1302
  218MOL0     C29965  11.371   3.739   3.362 -0.0438 -0.6653  0.5125
  218MOL0     C29966  11.472   3.644   3.325  0.6834  0.0948  0.5811
  218MOL0     C29967  11.610   3.723   3.311  0.3872 -0.3326  1.1282
  218MOL0     C29968  11.729   3.630   3.279  0.5606 -0.3775  0.1900
  218MOL0     C29969  11.855   3.717   3.297 -0.4203 -0.5405 -0.1994
  218MOL0     O29970  11.871   3.839   3.219  0.8358 -0.2078 -0.9804
  218MOL0     C29971  11.978   3.920   3.249 -0.8474  0.6219  1.3920
  218MOL0     C29972  12.013   3.943   3.382 -0.1248 -1.9630  0.1511
  218MOL0     C29973  12.126   4.021   3.420 -0.2548 -0.1592  0.8498
  218MOL0     C29974  12.151   4.038   3.564 -0.2223  0.2326  1.2412
  218MOL0     C29975  12.212   4.070   3.317 -0.1363 -0.2428 -0.8765
  218MOL0     C29976  12.325   4.149   3.347 -0.9965 -0.3388  1.4912
  218MOL0     O29977  12.343   4.266   3.270 -0.5077  0.6849 -0.6597
  218MOL0     C29978  12.445   4.349   3.302  0.5525 -0.3480  0.9689
  218MOL0     C29979  12.535   4.374   3.196 -0.1522 -0.5958  0.8554
  218MOL0     C29980  12.640   4.470   3.204 -1.2171  0.4175 -0.9383
  218MOL0     C29981  12.670   4.528   3.327 -0.2943 -0.2668  0.2024
  218MOL0     O29982  12.788   4.599   3.317 -0.0478  0.1356 -0.1158
  218MOL0     C29983  12.861   4.620   3.440  0.2384 -0.6143  0.2844
  218MOL0     C29984  12.998   4.689   3.418  0.4699  0.2348 -0.6489
  218MOL0     C29985  13.050   4.719   3.562 -1.2007  0.7754  0.1066
  218MOL0     C29986  13.198   4.757   3.576 -0.3592  0.0812  0.3115
  218MOL0     C29987  13.225   4.907   3.550 -1.1691 -0.3049 -0.3625
  218MOL0     C29988  13.376   4.942   3.557 -0.0174 -0.9325  0.4368
  218MOL0     C29989  13.377   5.090   3.518 -0.2716  0.6037  0.2919
  218MOL0     C29990  13.520   5.143   3.490  0.0893  0.2128 -0.2918
  218MOL0    Cl29991  13.624   5.167   3.627  0.0582 -0.5691  0.2124
  218MOL0     C29992  12.582   4.494   3.440 -0.9924 -0.6151  0.3698
  218MOL0     C29993  12.465   4.418   3.422  0.3506  0.0533  0.5336
  218MOL0     O29994  12.397   4.122   3.448  0.1907 -0.8477 -0.4454
  218MOL0     C29995  12.175   4.045   3.186 -0.1896 -0.5769  0.8874
  218MOL0     C29996  12.067   3.973   3.153 -0.1104  0.3818 -0.7844
  218MOL0     N29997  11.307   3.830   3.281  0.2250 -0.6846 -0.6041
  218MOL0     N29998  11.202   3.882   3.338  0.3864 -0.4074 -0.3834
  218MOL0     C29999   9.895   3.686   3.492 -0.1249 -0.4784  0.3398
  218MOL0     C30000   9.770   3.753   3.505 -0.2002 -1.2661  0.3189
  218MOL0     C30001   9.435   3.995   3.703  0.5808  0.1391 -0.4051
  218MOL0     C30002   9.369   3.878   3.656  0.1180 -0.4244  0.3467
  218MOL0     C30003   9.232   3.884   3.661 -0.0268  0.5197 -0.0194
  218MOL0     C30004   9.148   3.994   3.696 -1.0974  0.0208 -0.3731
  218MOL0     O30005   9.017   3.987   3.672  0.3637  0.2733  0.9160
  218MOL0     C30006   8.935   4.076   3.744  0.1370 -0.1489  0.1809
  218MOL0     C30007   8.801   4.018   3.781  0.4706  0.0822  0.4245
  218MOL0     C30008   8.730   3.952   3.652  0.0400 -0.1029  0.2362
  218MOL0     C30009   8.602   3.884   3.687 -0.0085  0.4540 -0.0078
  218MOL0     C30010   8.555   3.819   3.566  0.2057  0.4002  0.0750
  218MOL0     C30011   8.502   3.765   3.471 -0.0717  0.2147  0.6510
  218MOL0     C30012   9.219   4.111   3.746  0.0677  0.0707  0.7113
  218MOL0     C30013   9.361   4.108   3.754 -0.1362  0.3924 -0.2823
  218MOL0     C30014   9.408   4.235   3.815 -0.1243 -0.1485  1.1205
  218MOL0     H30015   9.882   3.991   3.726  1.9960 -0.6992  1.7997
  218MOL0     H30016  10.080   3.879   3.708  0.5962 -1.3774 -0.2060
  218MOL0     H30017  10.175   3.833   3.405  0.4841  0.0055 -1.2747
  218MOL0     H30018  10.268   3.687   3.389  2.8883  0.3810  2.2297
  218MOL0     H30019  10.308   3.881   3.614 -2.2558 -1.2864  1.2758
  218MOL0     H30020  10.345   3.702   3.618 -0.1936 -1.5168 -2.3480
  218MOL0     H30021  10.492   3.726   3.426  1.3649  0.2465 -1.0326
  218MOL0     H30022  10.464   3.905   3.428  0.6325 -2.0379 -2.3416
  218MOL0     H30023  10.562   3.916   3.649  1.6619 -0.9659  0.7777
  218MOL0     H30024  10.585   3.738   3.645  2.1151 -0.1962 -0.8548
  218MOL0     H30025  10.717   3.946   3.457  3.6026  0.5087  2.4508
  218MOL0     H30026  10.714   3.770   3.436  1.1002 -1.3034  0.4042
  218MOL0     H30027  10.833   3.910   3.671 -2.3777 -0.1919  2.0763
  218MOL0     H30028  10.812   3.732   3.643  1.3581 -1.6783 -3.5019
  218MOL0     H30029  10.943   3.876   3.409  1.2672  2.5570  1.3822
  218MOL0     H30030  10.959   3.715   3.467  0.9045  1.0433 -0.6190
  218MOL0     H30031  11.084   3.963   3.576 -3.1765 -0.1532 -0.5431
  218MOL0     H30032  11.106   3.802   3.649  0.4225 -2.2407 -0.7718
  218MOL0     H30033  11.330   3.682   3.561  0.6054 -1.1430 -1.0901
  218MOL0     H30034  11.441   3.597   3.231 -0.5699  2.1377 -0.1092
  218MOL0     H30035  11.487   3.565   3.398  2.3248  1.3342  1.6671
  218MOL0     H30036  11.593   3.788   3.224 -0.8074  1.9336  2.9514
  218MOL0     H30037  11.635   3.780   3.401  2.9136 -0.8334  0.8113
  218MOL0     H30038  11.723   3.535   3.334  0.7748 -0.7256 -0.3792
  218MOL0     H30039  11.724   3.593   3.176  1.2402 -0.3345  0.1351
  218MOL0     H30040  11.863   3.734   3.404  2.3338  0.2431 -0.4527
  218MOL0     H30041  11.934   3.649   3.264  0.3971 -0.6955  1.9576
  218MOL0     H30042  11.958   3.894   3.461 -0.9015 -0.7301  0.4141
  218MOL0     H30043  12.194   4.137   3.581 -0.2225  0.3613  0.5187
  218MOL0     H30044  12.233   3.970   3.589 -0.2468  0.2302  1.3171
  218MOL0     H30045  12.070   4.017   3.635  0.7369  0.9275  2.6011
  218MOL0     H30046  12.516   4.323   3.102 -0.1988 -0.0340  0.5555
  218MOL0     H30047  12.705   4.490   3.120  0.2788  1.7462  0.4665
  218MOL0     H30048  12.794   4.675   3.506 -0.8096  0.0251 -1.2693
  218MOL0     H30049  12.881   4.522   3.483  0.7232 -0.8228 -0.3955
  218MOL0     H30050  13.057   4.623   3.355 -0.2300 -1.7059  0.6292
  218MOL0     H30051  12.979   4.780   3.359 -1.5906 -0.8132 -1.7166
  218MOL0     H30052  13.031   4.628   3.620 -3.0584  0.9685 -0.1256
  218MOL0     H30053  12.989   4.796   3.610  1.5711  2.5752  0.9339
  218MOL0     H30054  13.265   4.695   3.515  2.1325 -0.0869  3.0232
  218MOL0     H30055  13.229   4.739   3.679  0.5191  2.4930  0.5221
  218MOL0     H30056  13.185   4.914   3.449 -0.0145  0.2105 -0.8004
  218MOL0     H30057  13.153   4.965   3.610 -1.3336  0.1608 -1.0035
  218MOL0     H30058  13.445   4.892   3.489 -1.4239  1.9552 -3.4608
  218MOL0     H30059  13.405   4.934   3.663  0.6087  0.4718  0.3975
  218MOL0     H30060  13.335   5.145   3.602 -1.8506 -0.3479  0.1612
  218MOL0     H30061  13.317   5.101   3.427 -1.3060  1.8567  1.0883
  218MOL0     H30062  13.514   5.233   3.427  0.8833  1.6182  1.5554
  218MOL0     H30063  13.574   5.067   3.433  0.8911 -1.6835  2.7615
  218MOL0     H30064  12.601   4.536   3.539  0.6353  1.0157 -0.5791
  218MOL0     H30065  12.394   4.405   3.503  0.5806 -2.4050  0.4147
  218MOL0     H30066  12.229   4.086   3.102  1.3710 -0.2290  2.0178
  218MOL0     H30067  12.063   3.950   3.047  3.2334  2.6103 -1.5442
  218MOL0     H30068   9.906   3.607   3.419  0.7819 -0.4292  0.4020
  218MOL0     H30069   9.683   3.727   3.446  0.6628 -0.3441 -1.4246
  218MOL0     H30070   9.415   3.782   3.635  2.8853  1.2597 -2.0978
  218MOL0     H30071   9.168   3.799   3.640  1.1299 -0.5048  0.5225
  218MOL0     H30072   8.983   4.108   3.838  0.2923 -0.2688  0.1427
  218MOL0     H30073   8.914   4.163   3.681 -0.7742 -1.3393 -1.2130
  218MOL0     H30074   8.723   4.086   3.818 -1.5073 -3.0276  2.3988
  218MOL0     H30075   8.802   3.944   3.861  1.1064 -1.0777 -0.6318
  218MOL0     H30076   8.701   4.020   3.571  1.6877 -1.8396 -1.9601
  218MOL0     H30077   8.797   3.879   3.606  1.1915  0.1833  1.3984
  218MOL0     H30078   8.520   3.950   3.719 -2.5240 -2.0535 -0.8949
  218MOL0     H30079   8.602   3.806   3.763 -3.1432  0.0248 -0.2928
  218MOL0     H30080   8.461   3.704   3.394  0.5346  0.2171  0.3206
  218MOL0     H30081   9.165   4.196   3.784 -3.2577 -0.8600 -1.5013
  218MOL0     H30082   9.505   4.272   3.782 -0.6529 -0.0461 -0.4165
  218MOL0     H30083   9.334   4.307   3.779  0.7159 -0.9587 -2.6418
  218MOL0     H30084   9.409   4.227   3.924  3.1221  0.5310  1.2565
  219MOL0     O30085  10.099  10.920   1.440  0.2141  0.1161  0.6449
  219MOL0     C30086  10.000  10.970   1.389  0.5895  0.0733 -0.4091
  219MOL0     O30087   9.991  11.079   1.314  0.7607  0.5431 -0.1489
  219MOL0     C30088  10.113  11.131   1.278 -0.1355 -0.1279 -0.3906
  219MOL0     C30089  10.226  11.056   1.236 -0.4130 -0.2428 -0.6551
  219MOL0     C30090  10.345  11.121   1.208 -0.0289 -0.0850 -0.6170
  219MOL0     C30091  10.358  11.264   1.191  0.0467 -0.3167  0.8640
  219MOL0     O30092  10.474  11.317   1.134 -0.1143 -0.3814  0.1026
  219MOL0     C30093  10.492  11.455   1.151 -0.1216 -0.3335 -0.5043
  219MOL0     C30094  10.620  11.500   1.083 -0.3566 -0.8215 -0.5379
  219MOL0     C30095  10.681  11.630   1.134  0.6257 -0.5065  0.3871
  219MOL0     C30096  10.610  11.756   1.088 -0.0975  0.0813  0.4198
  219MOL0     C30097  10.716  11.868   1.108 -0.7332  0.3125 -0.4001
  219MOL0     C30098  10.656  11.998   1.073 -0.1710 -0.0308 -0.5507
  219MOL0     C30099  10.763  12.098   1.031 -0.5212 -0.1608 -0.8944
  219MOL0     C30100  10.838  12.071   0.894  0.4403 -0.5076 -0.0165
  219MOL0     N30101  10.739  12.055   0.784 -0.2806  0.3703 -0.9467
  219MOL0     C30102  10.668  12.142   0.712  0.6651  0.0012 -0.1714
  219MOL0     C30103  10.586  12.075   0.627  0.0486  0.9089 -0.2314
  219MOL0     C30104  10.476  12.136   0.536 -0.4382  0.2425 -0.0042
  219MOL0     C30105  10.519  12.245   0.435 -0.3159  0.4654  0.0834
  219MOL0     C30106  10.638  12.206   0.344  0.0436  1.2212 -0.1074
  219MOL0     C30107  10.648  12.277   0.210 -0.4275 -0.0209  0.9254
  219MOL0     O30108  10.744  12.203   0.139 -0.6209  0.1664  0.2063
  219MOL0     C30109  10.875  12.240   0.137 -0.4276  0.4490  0.8291
  219MOL0     C30110  10.925  12.356   0.192  0.4967  0.6084  1.0739
  219MOL0     C30111  11.052  12.403   0.158  0.9131  0.4129 -0.1050
  219MOL0     C30112  11.102  12.528   0.222  0.8048  0.1092  0.0657
  219MOL0     C30113  11.142  12.320   0.075 -1.3608 -0.4247  0.2713
  219MOL0     C30114  11.276  12.371   0.023 -0.1604  0.1412 -0.4041
  219MOL0     O30115  11.302  12.501   0.035 -0.1228  0.0210  0.6019
  219MOL0     C30116  11.423  12.545  -0.006  2.0518  1.2731  0.0136
  219MOL0     C30117  11.492  12.633   0.074 -0.5333 -0.1352  0.4257
  219MOL0     C30118  11.609  12.700   0.038  0.2288  0.5806  0.4050
  219MOL0     C30119  11.667  12.659  -0.083  0.4793  0.2247 -0.3755
  219MOL0     O30120  11.781  12.706  -0.144  0.3958 -0.4773  0.1477
  219MOL0     C30121  11.865  12.788  -0.060 -0.5833  0.3385 -0.2002
  219MOL0     C30122  12.000  12.785  -0.120 -0.2009  0.4951  0.4840
  219MOL0     C30123  11.997  12.908  -0.210  0.4980  0.0168  0.1120
  219MOL0     C30124  12.136  12.914  -0.276  0.3350  0.3706 -0.2017
  219MOL0     C30125  12.155  13.029  -0.392  0.5774 -0.9257  0.4190
  219MOL0     C30126  12.214  13.166  -0.341  0.5236  0.3056 -0.4003
  219MOL0     C30127  12.105  13.252  -0.275 -0.4906  0.1474  0.8232
  219MOL0     C30128  12.151  13.385  -0.221 -0.3427 -0.4891  0.7684
  219MOL0    Cl30129  12.304  13.367  -0.119  0.0736  0.0239 -0.0972
  219MOL0     C30130  11.610  12.557  -0.161 -0.2074 -0.1942  0.6268
  219MOL0     C30131  11.487  12.505  -0.127  0.8341  0.6894 -0.2118
  219MOL0     O30132  11.353  12.283  -0.016 -0.4324 -0.6956  0.2754
  219MOL0     C30133  11.100  12.195   0.035 -0.0487  0.7924 -0.3703
  219MOL0     C30134  10.962  12.163   0.055  0.4149 -0.9443  0.0045
  219MOL0     N30135  10.609  11.943   0.643 -0.4199 -0.6703  0.3614
  219MOL0     N30136  10.709  11.931   0.726  0.0043  0.5084 -0.2312
  219MOL0     C30137  10.244  11.342   1.219 -0.1661  0.1041 -0.6018
  219MOL0     C30138  10.124  11.275   1.267  0.0321  0.6445 -0.0662
  219MOL0     C30139   9.874  10.903   1.440  0.4635 -0.0764 -0.6652
  219MOL0     C30140   9.757  10.994   1.448  0.2985  0.3803 -0.7762
  219MOL0     C30141   9.638  10.936   1.500 -0.6833 -0.5129 -1.0014
  219MOL0     C30142   9.635  10.806   1.546  0.7948 -0.3816  0.3900
  219MOL0     O30143   9.527  10.783   1.627 -0.3824  0.3619  0.2603
  219MOL0     C30144   9.469  10.657   1.664 -0.0647  0.0027  0.5593
  219MOL0     C30145   9.377  10.600   1.559  0.3460  0.0949 -0.0199
  219MOL0     C30146   9.286  10.484   1.616 -0.2396 -0.1161 -0.8639
  219MOL0     C30147   9.184  10.438   1.513 -0.2012  0.0849 -0.6522
  219MOL0     C30148   9.123  10.318   1.563 -0.6559 -0.0080  0.2127
  219MOL0     C30149   9.092  10.207   1.585 -0.0822  0.0238  1.1076
  219MOL0     C30150   9.741  10.720   1.536 -0.1712 -0.6405  0.1601
  219MOL0     C30151   9.861  10.771   1.479 -0.0934  0.8304 -0.6041
  219MOL0     C30152   9.972  10.680   1.458 -0.2518  0.2884  0.1266
  219MOL0     H30153  10.221  10.949   1.250 -0.6110  0.1575  3.3313
  219MOL0     H30154  10.426  11.056   1.177 -0.4668  0.0026 -2.0041
  219MOL0     H30155  10.508  11.480   1.256 -2.5308  0.8275 -0.3290
  219MOL0     H30156  10.409  11.514   1.109 -0.9533 -2.1475 -1.5622
  219MOL0     H30157  10.693  11.424   1.113 -0.4617 -0.8574 -0.3742
  219MOL0     H30158  10.617  11.508   0.974 -1.2432  2.7145 -0.3657
  219MOL0     H30159  10.681  11.616   1.242  2.4237 -0.6895  0.3839
  219MOL0     H30160  10.785  11.631   1.102  0.1194  1.8132 -1.5522
  219MOL0     H30161  10.578  11.735   0.985 -2.1062 -0.6096  1.1322
  219MOL0     H30162  10.521  11.777   1.147 -0.0214 -0.4183  0.7163
  219MOL0     H30163  10.804  11.848   1.047 -0.3490 -1.7860  0.7235
  219MOL0     H30164  10.746  11.870   1.213 -1.2796 -0.5532 -0.2169
  219MOL0     H30165  10.580  11.984   0.996 -0.6944  0.6784 -0.1692
  219MOL0     H30166  10.600  12.045   1.154 -0.8112  0.7039 -1.3971
  219MOL0     H30167  10.846  12.110   1.101  0.9368  0.3563 -2.6157
  219MOL0     H30168  10.719  12.198   1.020  2.9920  1.9120  1.7684
  219MOL0     H30169  10.917  12.144   0.878 -0.9160  0.7510 -1.1873
  219MOL0     H30170  10.872  11.967   0.897 -5.5953 -3.3045 -5.4073
  219MOL0     H30171  10.677  12.249   0.729 -0.7062  0.1323 -0.1237
  219MOL0     H30172  10.395  12.174   0.598  0.2309 -2.1252  2.5036
  219MOL0     H30173  10.436  12.053   0.477  0.5879 -1.8232  2.0449
  219MOL0     H30174  10.432  12.274   0.375 -0.5835  2.6909  1.4369
  219MOL0     H30175  10.544  12.337   0.490  1.7573 -0.7376  1.2761
  219MOL0     H30176  10.730  12.208   0.403  1.2011 -1.7107 -1.5844
  219MOL0     H30177  10.626  12.100   0.318  0.9594  1.1241 -0.1841
  219MOL0     H30178  10.555  12.275   0.154  1.2246  0.3092 -2.0307
  219MOL0     H30179  10.672  12.384   0.220  0.0435  0.3038 -2.4513
  219MOL0     H30180  10.863  12.414   0.260 -1.1921 -0.3511  0.3823
  219MOL0     H30181  11.026  12.550   0.297 -1.3823 -2.2069 -1.3235
  219MOL0     H30182  11.098  12.611   0.150  1.2000 -0.3151 -0.4513
  219MOL0     H30183  11.205  12.527   0.259 -0.3595  1.0804  3.6935
  219MOL0     H30184  11.455  12.667   0.170  1.9632  0.4649  1.2685
  219MOL0     H30185  11.634  12.785   0.101 -4.3143  3.0428 -0.6900
  219MOL0     H30186  11.821  12.887  -0.042 -1.2021 -0.0753  0.6162
  219MOL0     H30187  11.886  12.723   0.026 -0.9944  1.5686  0.8577
  219MOL0     H30188  12.083  12.792  -0.050  0.8555 -3.2073 -0.2268
  219MOL0     H30189  12.015  12.699  -0.186  0.6748 -0.3710  1.7926
  219MOL0     H30190  11.990  13.005  -0.161  1.7287 -0.5185  1.3886
  219MOL0     H30191  11.914  12.895  -0.282 -0.3072  1.6513  0.7115
  219MOL0     H30192  12.163  12.818  -0.321  0.0512  1.1648 -2.1878
  219MOL0     H30193  12.207  12.939  -0.196 -1.1959 -1.6801  1.9280
  219MOL0     H30194  12.233  12.978  -0.449  0.3594 -0.0247 -0.7030
  219MOL0     H30195  12.073  13.053  -0.459  0.7893 -0.8283  0.1953
  219MOL0     H30196  12.256  13.212  -0.431 -0.5756  1.2253 -0.4585
  219MOL0     H30197  12.292  13.147  -0.267 -0.4891  2.7462  1.4525
  219MOL0     H30198  12.066  13.205  -0.184  2.0851 -1.3074  1.2711
  219MOL0     H30199  12.026  13.278  -0.345 -2.3201 -1.7271  2.0607
  219MOL0     H30200  12.067  13.423  -0.162 -0.8368  0.0472 -0.2486
  219MOL0     H30201  12.176  13.456  -0.301  2.0521 -2.5583 -0.4778
  219MOL0     H30202  11.660  12.522  -0.251  1.6109  1.8074  0.7853
  219MOL0     H30203  11.445  12.442  -0.205  1.2436  1.7145 -1.2939
  219MOL0     H30204  11.162  12.132  -0.028  0.1503 -0.0942  0.6663
  219MOL0     H30205  10.933  12.068   0.010 -0.8972 -1.1214  1.1372
  219MOL0     H30206  10.223  11.448   1.207  1.4562  0.5440  0.1942
  219MOL0     H30207  10.044  11.345   1.293  3.0399  3.7970  1.5465
  219MOL0     H30208   9.765  11.102   1.439  0.9327  0.8209  3.1928
  219MOL0     H30209   9.557  11.006   1.510  0.4816  0.9165 -1.2328
  219MOL0     H30210   9.546  10.587   1.698 -0.6745 -0.3216  1.3123
  219MOL0     H30211   9.419  10.679   1.759  1.4639 -0.6007  1.5348
  219MOL0     H30212   9.444  10.562   1.481  1.9764 -1.2230  1.9269
  219MOL0     H30213   9.313  10.671   1.506 -2.0501 -1.5853  0.4346
  219MOL0     H30214   9.354  10.401   1.634  0.3585  1.0492  3.1973
  219MOL0     H30215   9.240  10.516   1.710 -0.3543  0.5137 -1.1282
  219MOL0     H30216   9.228  10.421   1.414 -0.0499 -3.3110 -0.0894
  219MOL0     H30217   9.102  10.510   1.500 -1.3774 -1.3710 -1.5889
  219MOL0     H30218   9.079  10.105   1.613 -0.9315  0.4281  2.2428
  219MOL0     H30219   9.741  10.617   1.570 -0.7763  0.2187  2.9997
  219MOL0     H30220   9.935  10.578   1.473 -0.0898  0.4033  1.3861
  219MOL0     H30221  10.026  10.675   1.363 -0.2012 -0.8983  0.1913
  219MOL0     H30222  10.047  10.697   1.536 -0.9702 -2.0567  1.4451
  220MOL0     O30223   2.829   5.415   1.000 -0.1964 -0.7541 -0.1942
  220MOL0     C30224   2.832   5.309   0.931  0.0748 -1.3179 -0.9288
  220MOL0     O30225   2.731   5.223   0.912  0.5908  0.1405 -0.0117
  220MOL0     C30226   2.607   5.252   0.962  0.0495  0.0556 -0.8484
  220MOL0     C30227   2.502   5.251   0.862 -0.5615  0.0422 -0.3541
  220MOL0     C30228   2.366   5.254   0.898  0.2305 -0.1072 -0.4619
  220MOL0     C30229   2.336   5.261   1.032  0.4918 -0.4801 -0.4136
  220MOL0     O30230   2.196   5.266   1.068  0.3063  0.3181  0.4158
  220MOL0     C30231   2.145   5.275   1.207  0.0475  0.5369 -0.4870
  220MOL0     C30232   2.001   5.257   1.207  0.8699 -1.3063  0.7256
  220MOL0     C30233   1.922   5.266   1.337  0.1324 -1.0592 -0.0801
  220MOL0     C30234   1.779   5.260   1.293 -0.1745  0.0298  0.3191
  220MOL0     C30235   1.684   5.225   1.407  0.5636  0.1507  0.6024
  220MOL0     C30236   1.704   5.084   1.474 -0.1358 -0.0670  0.3489
  220MOL0     C30237   1.619   5.083   1.600 -0.0188  0.2909 -0.1578
  220MOL0     C30238   1.625   4.946   1.675  0.2138 -0.2162  0.5686
  220MOL0     N30239   1.569   4.959   1.810  0.8469  0.1052  0.0644
  220MOL0     C30240   1.464   5.043   1.837  0.8767  0.4669 -0.0102
  220MOL0     C30241   1.436   5.013   1.967 -0.0237 -0.6673  0.5171
  220MOL0     C30242   1.335   5.085   2.049  0.5222 -0.5290  0.0436
  220MOL0     C30243   1.196   5.028   2.018  0.4878  0.1374  0.2547
  220MOL0     C30244   1.088   5.076   2.110  0.1610  0.4869  0.6952
  220MOL0     C30245   0.965   5.010   2.055  0.2138  0.2330  0.3252
  220MOL0     O30246   0.867   4.972   2.162 -0.0801  0.2088  0.0464
  220MOL0     C30247   0.768   5.061   2.188  0.2810  0.4820 -0.4663
  220MOL0     C30248   0.787   5.198   2.180 -0.3187  0.3163 -0.0347
  220MOL0     C30249   0.683   5.287   2.207 -0.3415  0.2651  0.3468
  220MOL0     C30250   0.712   5.434   2.204 -0.7192  0.4549  0.3485
  220MOL0     C30251   0.558   5.243   2.248  0.5633  0.1661 -0.8813
  220MOL0     C30252   0.430   5.332   2.257  0.1239  0.4169  1.0291
  220MOL0     O30253   0.320   5.270   2.312  0.0160 -0.2292 -0.0327
  220MOL0     C30254   0.188   5.300   2.288  0.8257 -0.2147  1.0778
  220MOL0     C30255   0.089   5.246   2.374  0.0773  0.7938 -0.9898
  220MOL0     C30256  -0.047   5.276   2.353  0.2430 -0.6427 -0.4662
  220MOL0     C30257  -0.083   5.349   2.239  0.0279 -0.7263  0.4418
  220MOL0     O30258  -0.218   5.375   2.234  0.8957 -0.1252  0.5755
  220MOL0     C30259  -0.262   5.478   2.146  0.2701 -0.7286 -0.3932
  220MOL0     C30260  -0.413   5.482   2.145  0.7613 -0.6135  0.1892
  220MOL0     C30261  -0.456   5.590   2.249  0.5734 -0.0935  0.3094
  220MOL0     C30262  -0.605   5.625   2.231  0.4091 -0.2450  0.4548
  220MOL0     C30263  -0.704   5.555   2.327 -0.7527 -0.1565  0.3407
  220MOL0     C30264  -0.681   5.569   2.481  0.6110 -0.0398  0.3005
  220MOL0     C30265  -0.653   5.704   2.524 -0.2325 -0.0120 -0.0806
  220MOL0     C30266  -0.647   5.725   2.677  0.8323 -0.1051  0.0373
  220MOL0    Cl30267  -0.646   5.902   2.674 -0.3131 -0.8731 -0.4238
  220MOL0     C30268   0.012   5.388   2.146 -0.6305 -0.2990  0.5076
  220MOL0     C30269   0.144   5.374   2.181 -0.7189 -1.3345 -0.4306
  220MOL0     O30270   0.428   5.448   2.212 -1.0846 -0.4251  0.4944
  220MOL0     C30271   0.549   5.105   2.277 -0.0432  0.1536 -0.0135
  220MOL0     C30272   0.644   5.013   2.233 -0.6013  0.4125 -0.2300
  220MOL0     N30273   1.515   4.910   2.005 -0.1811 -0.3948  0.2595
  220MOL0     N30274   1.599   4.882   1.914  0.3020  0.0028  0.4311
  220MOL0     C30275   2.442   5.270   1.130 -0.6375 -0.2094 -0.5934
  220MOL0     C30276   2.576   5.253   1.101  0.7230 -0.0702  0.8161
  220MOL0     C30277   2.954   5.278   0.851 -0.0476 -0.1631  0.2230
  220MOL0     C30278   2.938   5.191   0.741 -1.3146  0.2647 -0.0360
  220MOL0     C30279   3.038   5.157   0.655 -0.9281  1.1183 -1.1795
  220MOL0     C30280   3.163   5.218   0.671  0.6988 -0.2569 -0.3650
  220MOL0     O30281   3.266   5.194   0.586  0.0287  0.2594 -0.2305
  220MOL0     C30282   3.250   5.117   0.463 -0.1100 -0.0674  0.0200
  220MOL0     C30283   3.379   5.120   0.386  0.3024 -0.9312  0.2862
  220MOL0     C30284   3.367   5.097   0.234 -0.0455 -0.0379  0.5853
  220MOL0     C30285   3.342   4.954   0.187 -0.1758 -0.0423 -0.6546
  220MOL0     C30286   3.369   4.967   0.044 -0.2548  0.8268 -0.0494
  220MOL0     C30287   3.386   4.970  -0.075  0.3457  0.4178 -0.3655
  220MOL0     C30288   3.184   5.298   0.783  0.6611 -0.5250 -0.0828
  220MOL0     C30289   3.080   5.329   0.883 -0.1648  0.5307  0.2222
  220MOL0     C30290   3.121   5.380   1.019  1.4954 -0.0649  0.2377
  220MOL0     H30291   2.526   5.243   0.757 -1.0982 -0.9614 -0.4218
  220MOL0     H30292   2.290   5.238   0.822  0.3291  0.1326 -0.6141
  220MOL0     H30293   2.189   5.368   1.242  1.3172 -1.5716  4.2272
  220MOL0     H30294   2.192   5.192   1.260 -0.1374 -0.8256 -2.3578
  220MOL0     H30295   1.966   5.330   1.133 -2.6756 -3.1449  0.3825
  220MOL0     H30296   1.988   5.162   1.155  0.2808 -0.5804 -0.5014
  220MOL0     H30297   1.954   5.176   1.390  1.3805  0.5688  2.0931
  220MOL0     H30298   1.948   5.358   1.390  1.1928 -1.3205 -0.1356
  220MOL0     H30299   1.749   5.359   1.256 -0.3071 -1.0671 -2.7483
  220MOL0     H30300   1.762   5.192   1.210  1.5541  0.6032 -0.5548
  220MOL0     H30301   1.580   5.230   1.376  1.4359 -0.2616 -2.7810
  220MOL0     H30302   1.707   5.299   1.484 -1.3825  0.5131  0.8803
  220MOL0     H30303   1.665   5.002   1.413 -2.1823  0.9773  0.1736
  220MOL0     H30304   1.807   5.064   1.506 -0.3517 -2.1894 -0.1621
  220MOL0     H30305   1.513   5.099   1.579 -0.2557 -0.7674  0.1551
  220MOL0     H30306   1.653   5.169   1.659  1.1265  0.0541 -0.4566
  220MOL0     H30307   1.579   4.872   1.610 -0.5070  1.2873 -0.6996
  220MOL0     H30308   1.730   4.920   1.689  0.5532  1.5431  1.6533
  220MOL0     H30309   1.427   5.129   1.783  0.5237  0.6243  0.4832
  220MOL0     H30310   1.338   5.193   2.032 -2.7863 -0.1877  0.9775
  220MOL0     H30311   1.354   5.071   2.156 -0.2745 -0.0520  0.2530
  220MOL0     H30312   1.164   5.072   1.923  0.4799 -0.0853  0.1543
  220MOL0     H30313   1.191   4.919   2.015 -1.7344  0.1856 -2.0898
  220MOL0     H30314   1.104   5.043   2.213 -3.1885  0.8210  1.4275
  220MOL0     H30315   1.072   5.184   2.105  0.0891  0.4213 -0.8070
  220MOL0     H30316   0.922   5.080   1.983  3.0229  3.3253  1.4053
  220MOL0     H30317   0.984   4.911   2.012 -0.4077  1.1922 -2.3368
  220MOL0     H30318   0.886   5.237   2.157 -1.3035  1.3190 -2.9879
  220MOL0     H30319   0.819   5.438   2.222 -0.2516 -0.8093 -1.7783
  220MOL0     H30320   0.669   5.478   2.295 -2.7521  2.9480 -1.6460
  220MOL0     H30321   0.690   5.474   2.104  0.5092 -2.0268 -0.9992
  220MOL0     H30322   0.112   5.183   2.460 -0.5851 -0.4380 -1.6933
  220MOL0     H30323  -0.119   5.239   2.425 -1.3819  2.0603 -0.5419
  220MOL0     H30324  -0.211   5.570   2.175 -0.9313  0.5541 -2.1071
  220MOL0     H30325  -0.233   5.460   2.042 -4.7311 -2.6650 -1.7269
  220MOL0     H30326  -0.450   5.520   2.050 -0.4634 -1.0682  0.4644
  220MOL0     H30327  -0.450   5.381   2.167  1.5574 -0.3223  3.3905
  220MOL0     H30328  -0.387   5.674   2.238 -0.7842  0.9312 -0.5869
  220MOL0     H30329  -0.444   5.547   2.349  0.3475  0.7110  0.6877
  220MOL0     H30330  -0.635   5.607   2.127 -2.4732  1.7205  0.8241
  220MOL0     H30331  -0.624   5.731   2.215  0.0748 -0.6742 -2.6934
  220MOL0     H30332  -0.801   5.595   2.294 -0.5937  1.7464  2.0257
  220MOL0     H30333  -0.700   5.448   2.306 -1.2740  0.5222 -4.3681
  220MOL0     H30334  -0.598   5.501   2.507 -0.4362 -1.5831 -0.2658
  220MOL0     H30335  -0.778   5.538   2.521  0.1080  1.4239  0.2687
  220MOL0     H30336  -0.731   5.767   2.481  0.4051  0.7814 -0.1095
  220MOL0     H30337  -0.557   5.741   2.486  0.1932  0.0008  0.9613
  220MOL0     H30338  -0.559   5.681   2.726  1.6289  3.0146  1.6589
  220MOL0     H30339  -0.739   5.688   2.724 -2.4793  1.1100 -4.7840
  220MOL0     H30340  -0.008   5.458   2.066 -0.9176 -0.5329  0.3701
  220MOL0     H30341   0.214   5.402   2.103  0.7785  0.8177  1.5442
  220MOL0     H30342   0.454   5.069   2.317  0.0021 -3.6838 -2.7873
  220MOL0     H30343   0.627   4.906   2.248  1.2127  0.0232 -0.7512
  220MOL0     H30344   2.414   5.278   1.235 -2.0164  0.3958 -0.9944
  220MOL0     H30345   2.655   5.244   1.174  0.6403  0.5090  0.9769
  220MOL0     H30346   2.840   5.155   0.710 -1.9085  2.7257 -1.2679
  220MOL0     H30347   3.023   5.084   0.576  1.0572  2.1133 -2.5838
  220MOL0     H30348   3.203   5.020   0.480 -0.7432  0.4883  1.6697
  220MOL0     H30349   3.174   5.169   0.403 -3.6217 -3.1801  1.3762
  220MOL0     H30350   3.446   5.041   0.423  2.6069  0.6973 -0.2516
  220MOL0     H30351   3.428   5.215   0.407 -1.2354 -0.1911  0.7001
  220MOL0     H30352   3.291   5.160   0.186  2.3942  0.2023 -3.4780
  220MOL0     H30353   3.464   5.132   0.198  0.7413  2.6183  4.5986
  220MOL0     H30354   3.235   4.936   0.197  0.0159 -1.0189 -0.1190
  220MOL0     H30355   3.399   4.877   0.240 -0.5906 -1.4451 -2.1701
  220MOL0     H30356   3.410   4.960  -0.179  0.4568  1.2236 -0.4225
  220MOL0     H30357   3.283   5.341   0.796  0.9644 -1.7203  1.9726
  220MOL0     H30358   3.078   5.323   1.102 -0.2552 -1.4636 -1.5108
  220MOL0     H30359   3.228   5.377   1.037  1.0297  0.4628  3.7546
  220MOL0     H30360   3.092   5.485   1.017 -2.8256 -1.0555 -0.2379
  221MOL0     O30361   3.129   5.406   2.800  0.1804  0.4465  0.2432
  221MOL0     C30362   3.069   5.496   2.744  0.7054  0.8273 -0.3188
  221MOL0     O30363   2.941   5.474   2.699 -0.3525 -0.4661 -0.2772
  221MOL0     C30364   2.871   5.358   2.715 -0.7952 -0.2317  0.3233
  221MOL0     C30365   2.925   5.235   2.680  0.5122  0.6457 -0.6678
  221MOL0     C30366   2.839   5.128   2.677  0.4055  0.6514  0.4221
  221MOL0     C30367   2.701   5.126   2.710  0.3345  1.0224  0.0492
  221MOL0     O30368   2.619   5.016   2.708 -0.9429 -0.4280  0.0818
  221MOL0     C30369   2.474   5.031   2.710 -0.3130  0.5526 -0.5298
  221MOL0     C30370   2.400   4.906   2.663 -0.8564  0.2893  0.2422
  221MOL0     C30371   2.257   4.920   2.628  0.5507  0.0708  0.1083
  221MOL0     C30372   2.180   4.781   2.599 -0.5016  0.3253  0.2731
  221MOL0     C30373   2.235   4.705   2.473 -0.2197 -0.0244  0.3522
  221MOL0     C30374   2.136   4.599   2.424 -0.4502  0.8044  0.4441
  221MOL0     C30375   2.216   4.523   2.322  0.2835 -0.5983 -0.1148
  221MOL0     C30376   2.150   4.410   2.243  0.3602  0.2243 -0.2443
  221MOL0     N30377   2.232   4.372   2.128  0.4491 -0.1857  0.0250
  221MOL0     C30378   2.365   4.364   2.130  0.2686  0.3023  0.2594
  221MOL0     C30379   2.393   4.362   1.996 -0.0695 -0.5562  0.0003
  221MOL0     C30380   2.531   4.355   1.928  0.0639  0.4197 -0.5673
  221MOL0     C30381   2.587   4.209   1.948 -0.3386 -0.0864  0.1619
  221MOL0     C30382   2.731   4.201   1.890  0.2901  0.1815 -0.0369
  221MOL0     C30383   2.809   4.089   1.957  0.4849 -0.2189  0.4851
  221MOL0     O30384   2.942   4.069   1.917 -0.4506  0.0903 -0.0534
  221MOL0     C30385   3.015   3.954   1.951 -0.0552  0.0944 -0.8862
  221MOL0     C30386   3.145   3.944   1.903 -0.6851 -0.3251 -0.3173
  221MOL0     C30387   3.237   3.859   1.953  1.4995 -0.4389  1.3272
  221MOL0     C30388   3.377   3.859   1.893  0.2758  0.4595 -0.1660
  221MOL0     C30389   3.191   3.766   2.054  1.0098 -0.6775 -0.3032
  221MOL0     C30390   3.273   3.668   2.130 -1.1834 -0.3209  0.2892
  221MOL0     O30391   3.201   3.571   2.203  0.0462 -0.3798 -0.6770
  221MOL0     C30392   3.252   3.451   2.239 -0.1482  0.4777 -0.0207
  221MOL0     C30393   3.192   3.369   2.338 -0.7338 -0.8695  1.0230
  221MOL0     C30394   3.250   3.243   2.372 -0.4489  0.0934 -0.1875
  221MOL0     C30395   3.357   3.197   2.304 -0.9130  0.2550  0.0680
  221MOL0     O30396   3.424   3.075   2.338  0.2241 -0.0946 -0.2989
  221MOL0     C30397   3.360   2.972   2.417  0.3429 -0.2041 -0.5454
  221MOL0     C30398   3.464   2.877   2.463  0.0342  0.8123  0.1608
  221MOL0     C30399   3.566   2.935   2.566 -0.5381  0.3557  0.3005
  221MOL0     C30400   3.700   2.955   2.493  0.8450  0.3255  0.1311
  221MOL0     C30401   3.811   2.966   2.596  0.2446 -0.2739 -1.1462
  221MOL0     C30402   3.956   3.010   2.556  0.9704 -0.0561 -0.4676
  221MOL0     C30403   4.066   3.015   2.669 -0.2461  0.4645 -0.2610
  221MOL0     C30404   4.182   3.080   2.604  0.0816 -0.1841 -0.4826
  221MOL0    Cl30405   4.245   2.968   2.477 -0.2358 -0.4878  0.3886
  221MOL0     C30406   3.409   3.281   2.203  0.3832  0.0555  0.3942
  221MOL0     C30407   3.355   3.402   2.164  1.0190  1.4713  0.4596
  221MOL0     O30408   3.394   3.684   2.138  0.7268 -0.6747  0.6863
  221MOL0     C30409   3.054   3.768   2.081  0.7873 -0.0388  0.0203
  221MOL0     C30410   2.967   3.863   2.040  0.6531  0.3001  0.7244
  221MOL0     N30411   2.276   4.342   1.919 -0.4801 -0.4502 -0.2607
  221MOL0     N30412   2.183   4.335   2.002  0.5610 -0.8186  0.6835
  221MOL0     C30413   2.654   5.249   2.754 -0.0758  0.3540  0.1981
  221MOL0     C30414   2.736   5.367   2.750  0.2972  0.8936 -0.1203
  221MOL0     C30415   3.131   5.624   2.716 -0.1670 -0.3021  1.2036
  221MOL0     C30416   3.269   5.631   2.734 -1.1874 -0.8189 -0.4998
  221MOL0     C30417   3.333   5.760   2.725  0.3243 -0.2361  0.3928
  221MOL0     C30418   3.264   5.872   2.688  0.6074 -0.2360  1.7587
  221MOL0     O30419   3.336   5.993   2.676 -0.3305 -0.2206 -0.5287
  221MOL0     C30420   3.247   6.110   2.661  0.1956  0.4129 -0.4214
  221MOL0     C30421   3.341   6.234   2.682  0.0724  0.0589 -0.0156
  221MOL0     C30422   3.435   6.236   2.559  0.5955 -0.3742 -0.2022
  221MOL0     C30423   3.544   6.338   2.579  0.8119  0.3194  0.2571
  221MOL0     C30424   3.600   6.363   2.440 -0.9950 -0.3715 -0.2774
  221MOL0     C30425   3.648   6.397   2.339  0.3067  0.3243  0.7162
  221MOL0     C30426   3.137   5.852   2.639  0.1447  0.2247 -0.4141
  221MOL0     C30427   3.057   5.738   2.663 -0.5897  0.2640  0.7935
  221MOL0     C30428   2.915   5.744   2.624  0.2266 -0.4338 -0.1163
  221MOL0     H30429   3.027   5.229   2.644  0.4961 -1.1558 -0.5186
  221MOL0     H30430   2.872   5.028   2.649 -1.7775  0.1575 -0.6126
  221MOL0     H30431   2.442   5.109   2.640 -0.7780 -0.2615 -1.2510
  221MOL0     H30432   2.449   5.069   2.809  1.6876  2.1971 -0.5701
  221MOL0     H30433   2.450   4.868   2.574 -0.0631 -0.5014  1.0021
  221MOL0     H30434   2.414   4.833   2.744  2.6687  0.8010  0.2547
  221MOL0     H30435   2.217   4.969   2.717 -2.9858  0.3252 -1.4749
  221MOL0     H30436   2.238   4.984   2.541  1.3637 -0.2100 -0.2915
  221MOL0     H30437   2.198   4.728   2.693  0.7580  2.0784  1.0712
  221MOL0     H30438   2.072   4.797   2.594 -0.7943 -0.1506  3.0890
  221MOL0     H30439   2.336   4.672   2.500  0.5934  0.0611 -2.2900
  221MOL0     H30440   2.242   4.780   2.394 -1.4732 -1.1754 -0.8965
  221MOL0     H30441   2.118   4.524   2.501  3.6245  1.6008  2.4139
  221MOL0     H30442   2.045   4.640   2.379  0.5741  0.2003 -2.4221
  221MOL0     H30443   2.296   4.481   2.383  2.0974  1.4485 -0.9755
  221MOL0     H30444   2.248   4.597   2.248  1.2797 -1.5606 -0.6661
  221MOL0     H30445   2.137   4.325   2.310  0.7150 -0.3259 -0.8721
  221MOL0     H30446   2.051   4.434   2.202 -0.6914 -1.9812  0.8430
  221MOL0     H30447   2.434   4.366   2.213  1.1856  1.3461 -0.4883
  221MOL0     H30448   2.591   4.425   1.988 -1.5012  0.8091  0.6150
  221MOL0     H30449   2.532   4.393   1.826  1.4672  0.4041 -0.5879
  221MOL0     H30450   2.583   4.187   2.055  0.6813 -1.5326 -0.0701
  221MOL0     H30451   2.516   4.139   1.902 -1.2080  1.8302 -1.5508
  221MOL0     H30452   2.730   4.182   1.782  2.0439  3.4218 -0.7789
  221MOL0     H30453   2.781   4.297   1.907  2.0889 -0.9664  1.5494
  221MOL0     H30454   2.803   4.103   2.065  0.6592 -1.5797  0.6928
  221MOL0     H30455   2.745   4.004   1.933 -4.5514  3.3595 -0.3495
  221MOL0     H30456   3.164   4.033   1.843 -3.0024 -1.1388 -2.4274
  221MOL0     H30457   3.443   3.887   1.976 -0.7794 -3.7642  2.4085
  221MOL0     H30458   3.391   3.923   1.805  0.9582 -2.2975 -2.1820
  221MOL0     H30459   3.389   3.759   1.852 -4.0653  0.1699 -1.1754
  221MOL0     H30460   3.109   3.411   2.393  1.2517  1.8820  2.1723
  221MOL0     H30461   3.208   3.187   2.455  0.5859 -0.9499 -0.3506
  221MOL0     H30462   3.320   3.027   2.502  0.5510 -1.1604  0.1782
  221MOL0     H30463   3.271   2.930   2.368 -1.1914 -0.2747  2.1217
  221MOL0     H30464   3.410   2.791   2.506  2.4142 -2.0556 -2.1272
  221MOL0     H30465   3.510   2.833   2.374 -1.0150  0.0400 -0.0215
  221MOL0     H30466   3.582   2.850   2.633  0.9489 -3.0442 -3.8784
  221MOL0     H30467   3.530   3.028   2.610  0.0405  0.7681 -0.0889
  221MOL0     H30468   3.687   3.048   2.437 -3.5491 -1.4982 -2.4358
  221MOL0     H30469   3.707   2.873   2.421 -3.1928 -1.6938  1.7392
  221MOL0     H30470   3.770   3.036   2.669  3.5390 -0.9320  1.6029
  221MOL0     H30471   3.820   2.866   2.640  3.1498 -0.1312 -1.2480
  221MOL0     H30472   3.945   3.099   2.494  0.9112  0.4421  0.2396
  221MOL0     H30473   3.990   2.936   2.483  2.0803  1.2085 -1.2603
  221MOL0     H30474   4.080   2.908   2.689 -1.0831 -0.9447 -5.5786
  221MOL0     H30475   4.031   3.075   2.753 -1.6028  0.5061 -0.8290
  221MOL0     H30476   4.259   3.104   2.677 -1.9356 -2.6274  2.6989
  221MOL0     H30477   4.148   3.169   2.549  2.3132  0.1864 -1.3900
  221MOL0     H30478   3.486   3.229   2.147 -0.4297 -0.0196 -0.6880
  221MOL0     H30479   3.380   3.446   2.069  3.5060  0.8216  0.7510
  221MOL0     H30480   3.009   3.707   2.159  1.0526  1.0399  1.0580
  221MOL0     H30481   2.864   3.867   2.072  0.8453  1.5498  1.2707
  221MOL0     H30482   2.549   5.268   2.772 -0.1846 -0.7399  0.8108
  221MOL0     H30483   2.692   5.464   2.771 -1.1910  0.3649 -0.6090
  221MOL0     H30484   3.324   5.544   2.766  0.5488 -1.6820 -5.0600
  221MOL0     H30485   3.438   5.769   2.750  0.1823  1.3106  0.5696
  221MOL0     H30486   3.196   6.117   2.565 -1.7139  0.1188  0.5294
  221MOL0     H30487   3.173   6.121   2.740 -1.2473 -1.7712 -1.3995
  221MOL0     H30488   3.402   6.234   2.773 -1.6658  0.9066  1.2113
  221MOL0     H30489   3.289   6.331   2.677  0.1687  0.0410 -3.2506
  221MOL0     H30490   3.476   6.136   2.544  1.6611  0.0732 -0.3543
  221MOL0     H30491   3.368   6.263   2.477  1.6805 -2.2949 -1.8000
  221MOL0     H30492   3.621   6.310   2.653  1.5763  2.7404  0.4951
  221MOL0     H30493   3.501   6.427   2.626  0.5053 -0.6874  2.0022
  221MOL0     H30494   3.686   6.425   2.243  1.4820 -1.8940  0.4765
  221MOL0     H30495   3.090   5.936   2.589 -0.6651  0.8286  1.2974
  221MOL0     H30496   2.880   5.847   2.627  0.7125 -0.1586 -2.3286
  221MOL0     H30497   2.901   5.707   2.522  0.8999  0.1644 -0.4411
  221MOL0     H30498   2.857   5.692   2.701 -0.7462 -1.1456 -1.2968
  222MOL0     O30499   1.439   2.245   0.753 -1.0625  0.5411  0.3099
  222MOL0     C30500   1.380   2.297   0.659 -0.1751  0.8074  0.1037
  222MOL0     O30501   1.344   2.229   0.548  0.0574  0.1740  0.8789
  222MOL0     C30502   1.440   2.135   0.500 -0.2181  0.1418  0.7186
  222MOL0     C30503   1.392   2.016   0.442 -0.1408 -0.3279 -0.2312
  222MOL0     C30504   1.490   1.912   0.400  0.2738 -0.4316 -0.6624
  222MOL0     C30505   1.629   1.933   0.415  0.3142  0.1246 -0.8503
  222MOL0     O30506   1.716   1.836   0.374  0.2127  0.1465 -0.2105
  222MOL0     C30507   1.844   1.888   0.338  0.2623 -0.0835  0.0356
  222MOL0     C30508   1.926   1.789   0.258 -0.5525 -0.4189 -1.4973
  222MOL0     C30509   1.981   1.682   0.358 -0.6758 -0.0428 -0.4835
  222MOL0     C30510   1.869   1.581   0.390  0.2171 -0.2688  0.0851
  222MOL0     C30511   1.914   1.444   0.445  0.3634  0.5098  0.0584
  222MOL0     C30512   1.791   1.345   0.463 -0.3908 -0.3459  0.0700
  222MOL0     C30513   1.849   1.206   0.494  0.7358 -0.0763  0.1294
  222MOL0     C30514   1.738   1.104   0.520 -0.3410  0.3861 -0.4609
  222MOL0     N30515   1.782   1.006   0.613  0.1520 -0.5058 -0.7624
  222MOL0     C30516   1.722   0.985   0.735 -1.8175  0.5509 -0.0505
  222MOL0     C30517   1.757   0.858   0.772 -1.4274 -0.4216  0.4527
  222MOL0     C30518   1.703   0.795   0.894  0.1323 -0.1257  0.1904
  222MOL0     C30519   1.816   0.706   0.963 -0.3788 -0.5689  0.2069
  222MOL0     C30520   1.861   0.581   0.886  0.0485 -0.0389  0.1301
  222MOL0     C30521   1.923   0.490   0.989  0.6704 -0.4006 -0.5909
  222MOL0     O30522   1.822   0.438   1.083 -0.4572  0.0582 -0.5240
  222MOL0     C30523   1.702   0.385   1.034  0.5025  0.1069  0.8325
  222MOL0     C30524   1.693   0.271   0.954 -0.7369  0.1493  0.0222
  222MOL0     C30525   1.579   0.206   0.909 -0.2982  0.0947  0.3671
  222MOL0     C30526   1.592   0.069   0.854  0.1135 -0.0393  0.7251
  222MOL0     C30527   1.458   0.273   0.941  0.1950 -0.0221 -0.2799
  222MOL0     C30528   1.325   0.226   0.886 -1.2704  0.4855  0.0025
  222MOL0     O30529   1.217   0.291   0.941  0.0899  0.4223 -0.3507
  222MOL0     C30530   1.086   0.259   0.918 -1.2606  0.4293 -1.0913
  222MOL0     C30531   1.033   0.134   0.944  0.0293  0.3251 -0.9389
  222MOL0     C30532   0.895   0.117   0.942  1.0315 -0.3897 -0.7521
  222MOL0     C30533   0.807   0.224   0.906 -0.0634  0.5356 -0.2465
  222MOL0     O30534   0.663   0.207   0.916  0.1929  0.1176 -0.3233
  222MOL0     C30535   0.579   0.323   0.917 -0.0766  0.3178  0.3179
  222MOL0     C30536   0.442   0.259   0.886 -0.5109 -0.3244 -0.0443
  222MOL0     C30537   0.387   0.197   1.016 -0.2511  0.4842  0.4700
  222MOL0     C30538   0.441   0.067   1.063  0.6036  0.1099  1.3428
  222MOL0     C30539   0.347   0.026   1.185  0.0832  0.0872  0.2481
  222MOL0     C30540   0.421  -0.061   1.282 -0.8821  0.8846 -0.1424
  222MOL0     C30541   0.448  -0.196   1.219 -0.4141  0.1079 -1.6122
  222MOL0     C30542   0.545  -0.270   1.312 -0.0588  0.4429 -0.6690
  222MOL0    Cl30543   0.499  -0.273   1.479  0.1537  0.0171 -0.1926
  222MOL0     C30544   0.864   0.344   0.861 -0.3444  0.1858  0.3883
  222MOL0     C30545   1.001   0.362   0.867 -0.6062  0.5154 -0.2720
  222MOL0     O30546   1.325   0.138   0.799 -0.6881  0.5187  0.6690
  222MOL0     C30547   1.455   0.396   1.011 -0.7194  0.0487  0.2130
  222MOL0     C30548   1.579   0.446   1.067 -0.1667  0.0911  0.0720
  222MOL0     N30549   1.826   0.798   0.664 -0.3760  0.2264  0.1892
  222MOL0     N30550   1.843   0.891   0.572 -0.5577 -0.1675 -0.4398
  222MOL0     C30551   1.670   2.058   0.468  1.3002 -0.6324  0.4966
  222MOL0     C30552   1.580   2.150   0.516 -0.7974  0.1878  0.4370
  222MOL0     C30553   1.311   2.427   0.673 -0.1721  0.1478  1.0297
  222MOL0     C30554   1.239   2.464   0.795 -0.5180 -0.5627  0.6449
  222MOL0     C30555   1.171   2.586   0.799  0.2337  0.3966 -0.5594
  222MOL0     C30556   1.171   2.668   0.691 -0.4745 -0.4190  0.5509
  222MOL0     O30557   1.085   2.773   0.721  0.0520  0.5519  0.0209
  222MOL0     C30558   1.119   2.896   0.664 -0.3450  0.1141  0.4042
  222MOL0     C30559   1.064   3.001   0.765  0.7830 -0.0075  0.2332
  222MOL0     C30560   1.071   3.145   0.738 -0.4756 -0.3854 -0.4064
  222MOL0     C30561   1.022   3.226   0.859  0.4134 -0.0420 -0.6231
  222MOL0     C30562   1.034   3.370   0.822  0.1916  0.3288 -0.0137
  222MOL0     C30563   1.032   3.479   0.770 -0.3037  0.4744 -0.4188
  222MOL0     C30564   1.238   2.640   0.574 -0.2103 -0.0321 -0.5742
  222MOL0     C30565   1.310   2.515   0.560  0.0861 -0.9692  0.0249
  222MOL0     C30566   1.373   2.482   0.426  0.1604  0.3498 -0.5283
  222MOL0     H30567   1.287   1.990   0.437  0.0490 -0.8104 -3.1351
  222MOL0     H30568   1.452   1.819   0.359  1.4952 -0.4392 -1.8434
  222MOL0     H30569   1.901   1.921   0.425 -0.1381 -0.5000  0.4664
  222MOL0     H30570   1.827   1.972   0.270  0.1662  1.0511  1.4334
  222MOL0     H30571   1.876   1.746   0.171 -2.2314 -0.2881 -0.6305
  222MOL0     H30572   2.016   1.840   0.224  0.8590 -1.2786  0.6975
  222MOL0     H30573   2.069   1.628   0.321  0.0863  1.2510 -0.6258
  222MOL0     H30574   2.008   1.732   0.451 -0.3985 -0.5631 -0.2822
  222MOL0     H30575   1.804   1.629   0.464  2.2764  3.9019 -0.4645
  222MOL0     H30576   1.804   1.568   0.303  0.2824  0.7061 -0.1322
  222MOL0     H30577   1.969   1.465   0.537 -0.9594 -0.7327  1.1950
  222MOL0     H30578   1.984   1.394   0.378  0.9522 -0.6279  1.4542
  222MOL0     H30579   1.726   1.385   0.542 -2.8799 -0.8876 -1.6076
  222MOL0     H30580   1.735   1.347   0.370  1.4391 -1.6272 -1.1406
  222MOL0     H30581   1.899   1.219   0.590 -2.0231  1.7521  1.4425
  222MOL0     H30582   1.910   1.173   0.409 -0.1896 -2.6883  0.3763
  222MOL0     H30583   1.649   1.158   0.554  0.6839  2.1861 -0.4821
  222MOL0     H30584   1.700   1.057   0.429  1.9969 -2.0225 -0.2933
  222MOL0     H30585   1.655   1.054   0.787 -1.7178  1.6646 -1.3300
  222MOL0     H30586   1.626   0.724   0.863  0.9005  0.4678 -3.5724
  222MOL0     H30587   1.670   0.869   0.968 -0.2622 -0.3194  0.2104
  222MOL0     H30588   1.905   0.761   0.996 -0.6507  0.0972 -0.1346
  222MOL0     H30589   1.773   0.685   1.061  2.6629 -2.2557  1.2917
  222MOL0     H30590   1.768   0.544   0.843 -0.5396  0.3371  1.0326
  222MOL0     H30591   1.935   0.602   0.808  0.5516  2.5725  1.2109
  222MOL0     H30592   1.985   0.409   0.948  3.3677 -0.2412  2.6259
  222MOL0     H30593   1.989   0.548   1.055 -2.4144 -1.5737  4.0275
  222MOL0     H30594   1.790   0.230   0.928  0.0883  2.9502 -1.7765
  222MOL0     H30595   1.534  -0.010   0.903  0.4282 -0.0055  1.1608
  222MOL0     H30596   1.693   0.027   0.863 -0.3183 -1.6730 -1.2381
  222MOL0     H30597   1.567   0.068   0.748 -2.3345 -0.6840  1.2445
  222MOL0     H30598   1.092   0.050   0.980 -1.7079 -0.4708  0.1639
  222MOL0     H30599   0.848   0.020   0.956 -1.6055  1.0732  1.8270
  222MOL0     H30600   0.576   0.370   1.016 -0.4536  0.4972  0.2219
  222MOL0     H30601   0.598   0.401   0.844 -2.5385 -0.1846 -0.9532
  222MOL0     H30602   0.373   0.337   0.855 -0.4466 -0.4054 -0.3923
  222MOL0     H30603   0.457   0.193   0.800 -1.3648  1.6911 -1.8261
  222MOL0     H30604   0.282   0.182   0.988  0.9634 -2.2315 -3.5017
  222MOL0     H30605   0.387   0.282   1.085 -1.6439 -1.2063  2.7203
  222MOL0     H30606   0.543   0.070   1.103  1.0314 -0.6928  0.3645
  222MOL0     H30607   0.431  -0.006   0.982 -3.7621  0.4677  1.2991
  222MOL0     H30608   0.304   0.115   1.233 -0.1785  0.1314 -0.0590
  222MOL0     H30609   0.256  -0.024   1.150 -0.4516  0.8882  0.4752
  222MOL0     H30610   0.352  -0.078   1.365  1.0355 -3.9585  0.8049
  222MOL0     H30611   0.511  -0.014   1.323  2.0905 -3.1230 -1.4728
  222MOL0     H30612   0.497  -0.206   1.122 -1.3443  0.0490 -2.0802
  222MOL0     H30613   0.361  -0.260   1.237  2.0190 -3.6067 -1.9511
  222MOL0     H30614   0.642  -0.218   1.310  0.1812 -0.0147 -1.0903
  222MOL0     H30615   0.559  -0.376   1.291 -3.2768 -0.2794  0.3467
  222MOL0     H30616   0.802   0.425   0.824  2.2481  1.8997 -0.5341
  222MOL0     H30617   1.059   0.441   0.820 -0.0257  0.6229  0.5965
  222MOL0     H30618   1.364   0.454   1.021  0.2279  1.5321  0.6876
  222MOL0     H30619   1.593   0.530   1.134 -0.0447 -2.4097  3.4474
  222MOL0     H30620   1.776   2.080   0.479  1.1497  0.3081  0.1773
  222MOL0     H30621   1.622   2.235   0.568 -0.8125 -0.4186  1.4530
  222MOL0     H30622   1.237   2.388   0.872 -0.6766 -0.7662  0.4379
  222MOL0     H30623   1.114   2.620   0.885  4.0890  2.6470  1.4355
  222MOL0     H30624   1.229   2.897   0.660 -0.3430 -1.9049 -2.5985
  222MOL0     H30625   1.081   2.932   0.568 -2.8127  4.3016  2.6571
  222MOL0     H30626   1.111   2.981   0.861 -4.9962 -1.6768  3.1602
  222MOL0     H30627   0.959   2.974   0.776  0.8246 -2.2123 -3.1261
  222MOL0     H30628   1.174   3.169   0.711 -0.6040 -0.6003 -1.1176
  222MOL0     H30629   1.000   3.171   0.659  0.5426  2.4200 -0.5002
  222MOL0     H30630   1.066   3.203   0.957 -2.3861 -1.1708  0.4700
  222MOL0     H30631   0.917   3.205   0.878  0.6951 -0.2571  0.8164
  222MOL0     H30632   1.023   3.582   0.742 -3.9516  0.9407  1.7853
  222MOL0     H30633   1.236   2.714   0.495 -1.6216  0.0428 -0.4865
  222MOL0     H30634   1.474   2.439   0.425 -1.1634 -3.0209 -0.6068
  222MOL0     H30635   1.307   2.407   0.382  0.5469 -0.3158  0.0138
  222MOL0     H30636   1.374   2.569   0.360 -3.1209  0.6267 -0.3610
  223MOL0     O30637   0.180   3.948   2.109 -0.2540  0.6026  0.5235
  223MOL0     C30638   0.094   4.011   2.167 -0.3233  0.9203  0.9327
  223MOL0     O30639   0.066   4.143   2.163 -0.1154 -0.0441  0.2397
  223MOL0     C30640   0.139   4.232   2.098  0.5601 -0.5536  0.4955
  223MOL0     C30641   0.064   4.344   2.047  0.3389  0.7193  0.1527
  223MOL0     C30642   0.136   4.449   1.987 -0.2555  0.1578 -0.2065
  223MOL0     C30643   0.272   4.438   1.970 -1.6813 -0.1229 -0.6251
  223MOL0     O30644   0.334   4.540   1.899  0.0328 -0.3957  0.2195
  223MOL0     C30645   0.463   4.536   1.844  0.5025 -0.3454  0.2207
  223MOL0     C30646   0.462   4.436   1.725 -0.5107  0.4880 -0.0843
  223MOL0     C30647   0.587   4.443   1.638 -0.0058  0.3013 -0.3122
  223MOL0     C30648   0.553   4.339   1.522 -0.0108  0.2310  0.6124
  223MOL0     C30649   0.645   4.356   1.388 -0.2661  0.2315 -0.3558
  223MOL0     C30650   0.783   4.280   1.395  0.8221 -0.2756 -0.2351
  223MOL0     C30651   0.859   4.262   1.270 -0.1267 -0.3537 -0.4830
  223MOL0     C30652   0.807   4.140   1.200  0.7352 -0.2184  0.5371
  223MOL0     N30653   0.882   4.109   1.077 -0.7555 -0.9283  0.2925
  223MOL0     C30654   1.011   4.065   1.082 -0.3586 -0.2613  0.1984
  223MOL0     C30655   1.052   4.050   0.953  0.4092 -0.6531 -1.0079
  223MOL0     C30656   1.165   3.974   0.899  0.6299 -0.8831 -0.5735
  223MOL0     C30657   1.233   3.858   0.988  0.1102 -1.1845 -0.1464
  223MOL0     C30658   1.380   3.884   0.983 -0.4354 -0.1127 -0.2525
  223MOL0     C30659   1.458   3.774   1.041 -0.6583  0.6931 -0.3276
  223MOL0     O30660   1.501   3.681   0.944 -0.0764  0.8753 -0.5468
  223MOL0     C30661   1.590   3.577   0.970  0.2714 -0.0623  0.2304
  223MOL0     C30662   1.638   3.519   0.852 -0.5091 -0.8291 -0.1269
  223MOL0     C30663   1.725   3.408   0.848 -0.3789 -0.3440 -0.1884
  223MOL0     C30664   1.791   3.377   0.717 -0.4487 -0.1238  0.7188
  223MOL0     C30665   1.746   3.346   0.975  0.1104  0.3367  0.2456
  223MOL0     C30666   1.831   3.221   0.994  0.1817 -0.6362 -0.3482
  223MOL0     O30667   1.913   3.194   0.890  0.0777 -0.0588 -1.0814
  223MOL0     C30668   1.995   3.082   0.917  0.2252  0.7199  1.3272
  223MOL0     C30669   2.087   3.090   1.015 -0.9825  0.4811  0.1849
  223MOL0     C30670   2.185   2.981   1.021  0.6413  0.0512 -0.4112
  223MOL0     C30671   2.175   2.864   0.941 -0.4630 -0.1059 -0.4797
  223MOL0     O30672   2.243   2.745   0.956  0.1605  0.5243  0.9791
  223MOL0     C30673   2.315   2.713   1.078  0.4878 -0.8075  1.0581
  223MOL0     C30674   2.453   2.772   1.071  0.4802  0.5175  0.4246
  223MOL0     C30675   2.547   2.680   0.988  0.1407 -0.0549  0.0797
  223MOL0     C30676   2.545   2.698   0.838 -0.2380  0.4526  0.1972
  223MOL0     C30677   2.617   2.580   0.759 -0.5185 -0.6857 -0.8978
  223MOL0     C30678   2.759   2.550   0.814 -0.5725  0.3324 -0.0618
  223MOL0     C30679   2.857   2.661   0.770 -0.5660  1.2060 -0.1939
  223MOL0     C30680   3.005   2.619   0.814  0.0756  0.1971 -0.1921
  223MOL0    Cl30681   3.122   2.710   0.727  0.6458 -0.1155  0.5040
  223MOL0     C30682   2.088   2.873   0.837 -0.3958 -0.0491 -0.0322
  223MOL0     C30683   2.001   2.981   0.816  0.7526  0.2746 -0.3321
  223MOL0     O30684   1.811   3.151   1.091  0.8342  0.4899  0.2377
  223MOL0     C30685   1.699   3.406   1.090 -0.0313 -1.6989  0.5435
  223MOL0     C30686   1.618   3.519   1.088 -0.3656 -0.0281  0.3393
  223MOL0     N30687   0.948   4.107   0.877  0.1701 -0.0120 -0.8561
  223MOL0     N30688   0.850   4.141   0.954 -0.8799  1.0429  0.4665
  223MOL0     C30689   0.339   4.328   2.020 -0.6587 -0.2264  1.0216
  223MOL0     C30690   0.272   4.229   2.081  0.0726 -0.5387 -0.1722
  223MOL0     C30691  -0.010   3.924   2.236  0.8103  0.2515 -0.0094
  223MOL0     C30692   0.030   3.822   2.328 -0.4471 -0.1395 -0.1152
  223MOL0     C30693  -0.060   3.736   2.388  1.0129 -0.6470  0.2734
  223MOL0     C30694  -0.195   3.749   2.358  0.1594 -0.2262 -0.1539
  223MOL0     O30695  -0.287   3.673   2.426 -0.3762 -0.2781 -0.6116
  223MOL0     C30696  -0.432   3.671   2.395  0.2271  0.3604  0.0969
  223MOL0     C30697  -0.470   3.526   2.424 -0.4630 -0.3378 -0.2576
  223MOL0     C30698  -0.424   3.471   2.562 -0.1763 -0.1336  0.3874
  223MOL0     C30699  -0.465   3.563   2.680 -0.3813  0.7139 -0.5849
  223MOL0     C30700  -0.607   3.596   2.690  0.5409 -0.3891  0.0067
  223MOL0     C30701  -0.729   3.616   2.693  0.1002 -0.2553 -0.7085
  223MOL0     C30702  -0.239   3.857   2.285  0.0304 -0.2702  1.0403
  223MOL0     C30703  -0.146   3.937   2.213  0.0956 -0.0990 -0.0883
  223MOL0     C30704  -0.210   4.035   2.121 -0.2955 -0.0487  0.1502
  223MOL0     H30705  -0.043   4.343   2.059 -0.1540 -0.3056 -3.2956
  223MOL0     H30706   0.089   4.543   1.960  0.3412  1.0948  1.8524
  223MOL0     H30707   0.541   4.507   1.914 -0.8007  2.1510  2.9281
  223MOL0     H30708   0.497   4.632   1.804  0.9232 -0.7729 -0.4909
  223MOL0     H30709   0.452   4.334   1.762  0.5845 -0.5587 -2.4515
  223MOL0     H30710   0.381   4.466   1.657 -2.0100  0.0417  1.4237
  223MOL0     H30711   0.596   4.543   1.596  0.6607  0.4689  0.2180
  223MOL0     H30712   0.678   4.414   1.692 -0.6362 -1.5723 -0.1878
  223MOL0     H30713   0.572   4.242   1.570 -3.0768  0.1331  1.8781
  223MOL0     H30714   0.449   4.363   1.498 -0.6388  3.0566  4.9680
  223MOL0     H30715   0.644   4.464   1.368 -3.4576  0.6603  1.4376
  223MOL0     H30716   0.590   4.313   1.304 -1.6230 -0.1889  0.7093
  223MOL0     H30717   0.841   4.339   1.467 -2.1340  0.9325  1.3500
  223MOL0     H30718   0.758   4.183   1.440 -0.3625 -0.2760 -0.8516
  223MOL0     H30719   0.961   4.233   1.299 -0.4032 -1.0451 -0.1916
  223MOL0     H30720   0.860   4.351   1.207  0.9334 -1.3484 -1.9449
  223MOL0     H30721   0.814   4.052   1.264 -0.1886  0.1731  1.1893
  223MOL0     H30722   0.700   4.155   1.181  1.3494  3.9499 -0.6240
  223MOL0     H30723   1.065   4.045   1.174  0.9072  1.6724 -0.0529
  223MOL0     H30724   1.247   4.046   0.884  0.9957 -1.2079 -0.1606
  223MOL0     H30725   1.146   3.941   0.797 -0.0552  2.9319 -1.8332
  223MOL0     H30726   1.202   3.869   1.093 -0.0151 -1.5257 -0.1480
  223MOL0     H30727   1.206   3.757   0.957 -1.3228 -1.2795  1.2723
  223MOL0     H30728   1.424   3.916   0.888 -0.2393  2.0765  0.5276
  223MOL0     H30729   1.401   3.971   1.046 -0.4064 -1.0573  1.0783
  223MOL0     H30730   1.548   3.817   1.085  0.3918 -2.4302  0.8274
  223MOL0     H30731   1.410   3.726   1.127  1.1150  1.2421  1.0247
  223MOL0     H30732   1.628   3.574   0.759 -2.2016 -1.4958 -0.3727
  223MOL0     H30733   1.763   3.278   0.679 -2.9357  1.2847 -1.5310
  223MOL0     H30734   1.899   3.389   0.724  0.8557 -6.3264 -2.1046
  223MOL0     H30735   1.756   3.450   0.643 -1.8424 -2.5995 -1.2245
  223MOL0     H30736   2.079   3.162   1.095  1.5962 -0.7108  1.6222
  223MOL0     H30737   2.256   2.984   1.103  1.5290 -1.9116 -1.0448
  223MOL0     H30738   2.264   2.765   1.159  0.1172  1.3590 -0.4804
  223MOL0     H30739   2.313   2.604   1.091  2.6354 -1.0875 -0.4059
  223MOL0     H30740   2.462   2.877   1.041 -1.1121  1.3002  2.4233
  223MOL0     H30741   2.495   2.766   1.172 -0.6985 -1.6527  0.8469
  223MOL0     H30742   2.541   2.577   1.026  1.5561 -0.2876 -0.2554
  223MOL0     H30743   2.649   2.708   1.016  0.3767  1.3683 -2.0592
  223MOL0     H30744   2.583   2.798   0.817 -0.2774  0.8947  2.0126
  223MOL0     H30745   2.444   2.692   0.798 -0.1588  3.8747 -0.8241
  223MOL0     H30746   2.559   2.487   0.759 -1.7173 -0.1279  2.8783
  223MOL0     H30747   2.640   2.618   0.659  1.3236 -1.6722 -0.8962
  223MOL0     H30748   2.788   2.452   0.777 -0.2318 -0.1357  1.3690
  223MOL0     H30749   2.766   2.542   0.923 -0.4401 -3.0025 -0.2102
  223MOL0     H30750   2.831   2.757   0.817 -0.2252  0.1584  2.2825
  223MOL0     H30751   2.847   2.680   0.663 -1.2204  0.3395 -0.2926
  223MOL0     H30752   3.019   2.514   0.789  1.6296  0.8607 -2.4170
  223MOL0     H30753   3.016   2.631   0.922 -2.2192  0.6612  0.0560
  223MOL0     H30754   2.075   2.798   0.759 -2.0389  0.9875 -0.8128
  223MOL0     H30755   1.918   2.980   0.748  0.7317 -1.0494 -0.3156
  223MOL0     H30756   1.719   3.363   1.188  1.4067 -1.4778  0.3725
  223MOL0     H30757   1.584   3.564   1.180  0.8229 -1.0745  1.3176
  223MOL0     H30758   0.447   4.314   2.018 -0.3585  1.4535  2.4622
  223MOL0     H30759   0.330   4.158   2.139  2.1675  3.1240  2.6895
  223MOL0     H30760   0.133   3.819   2.362  0.0234  2.8580 -1.0395
  223MOL0     H30761  -0.015   3.678   2.468  1.7406  1.2586  1.3009
  223MOL0     H30762  -0.496   3.742   2.448 -2.9218 -0.9928 -1.6304
  223MOL0     H30763  -0.452   3.687   2.289 -0.6574  2.2516  0.5074
  223MOL0     H30764  -0.426   3.461   2.348  1.3643  0.8220 -0.2529
  223MOL0     H30765  -0.578   3.520   2.412 -0.6604  2.1423 -0.2453
  223MOL0     H30766  -0.475   3.374   2.561  2.2174 -1.4617 -0.9927
  223MOL0     H30767  -0.319   3.444   2.561  0.1195  0.8738  1.4930
  223MOL0     H30768  -0.416   3.657   2.655  1.8050 -0.6212 -1.6188
  223MOL0     H30769  -0.431   3.512   2.771 -0.7841  0.7858 -0.3887
  223MOL0     H30770  -0.834   3.640   2.701  0.2597  0.4174 -0.5379
  223MOL0     H30771  -0.343   3.885   2.271  0.8858  1.2119 -5.7333
  223MOL0     H30772  -0.166   4.037   2.020  0.0222  3.0121  0.2662
  223MOL0     H30773  -0.316   4.012   2.108  0.2791 -2.1734 -1.6294
  223MOL0     H30774  -0.201   4.134   2.166 -4.4222 -0.6463  2.8216
  224MOL0     O30775   0.958  10.165   7.820 -1.0071  0.0485  0.7764
  224MOL0     C30776   0.972  10.244   7.725 -0.5961  0.4206 -0.2897
  224MOL0     O30777   1.051  10.363   7.732 -0.1477  0.8339 -0.7164
  224MOL0     C30778   1.126  10.383   7.854 -0.3957 -0.6297  0.8396
  224MOL0     C30779   1.068  10.388   7.982 -0.7662  0.1296 -0.5195
  224MOL0     C30780   1.148  10.401   8.104  0.0026 -0.4690  0.0409
  224MOL0     C30781   1.284  10.425   8.092 -0.3573  0.5350  0.3758
  224MOL0     O30782   1.347  10.425   8.209  0.1647  0.0217 -0.0933
  224MOL0     C30783   1.463  10.503   8.230 -0.1835 -1.0852  0.3501
  224MOL0     C30784   1.504  10.484   8.381  0.2343 -0.1084 -0.2176
  224MOL0     C30785   1.637  10.540   8.431  0.4874 -0.5400 -0.3399
  224MOL0     C30786   1.644  10.512   8.584 -0.2323 -0.2762 -0.6128
  224MOL0     C30787   1.739  10.398   8.639 -0.3069 -0.3662  1.0741
  224MOL0     C30788   1.893  10.429   8.619  0.2282  0.1450  0.5452
  224MOL0     C30789   1.963  10.324   8.698  0.3390 -0.5382  0.2616
  224MOL0     C30790   2.110  10.351   8.688 -0.4365 -0.0349  0.3345
  224MOL0     N30791   2.185  10.241   8.740 -0.4794  0.5263  0.0828
  224MOL0     C30792   2.219  10.226   8.866  0.0494  0.5953 -0.2971
  224MOL0     C30793   2.235  10.086   8.868  0.5843 -0.4785 -0.7050
  224MOL0     C30794   2.263   9.994   8.992  0.1356 -0.2885  0.6024
  224MOL0     C30795   2.204   9.852   8.981  0.0279  0.4331 -0.9803
  224MOL0     C30796   2.200   9.775   9.113 -0.8573 -0.0871 -0.2049
  224MOL0     C30797   2.107   9.831   9.224 -0.6520 -0.4853 -0.5263
  224MOL0     O30798   2.133   9.759   9.346 -0.2047  0.5022  0.1512
  224MOL0     C30799   2.252   9.766   9.420  0.6388 -0.0545 -0.5415
  224MOL0     C30800   2.365   9.837   9.391 -0.3430 -0.3921  0.4458
  224MOL0     C30801   2.486   9.814   9.459  0.0044  0.3087  0.0852
  224MOL0     C30802   2.600   9.916   9.422  0.0498  1.1414  0.2450
  224MOL0     C30803   2.496   9.719   9.557 -0.6129  0.3733  0.3505
  224MOL0     C30804   2.614   9.690   9.630 -0.2446 -0.5027  0.6136
  224MOL0     O30805   2.722   9.666   9.542  0.2196  0.0382 -0.0333
  224MOL0     C30806   2.855   9.656   9.585  0.3952 -1.2221  0.2638
  224MOL0     C30807   2.939   9.556   9.520 -0.7387  0.5488 -0.0714
  224MOL0     C30808   3.074   9.538   9.565  0.9212  0.8422  0.2503
  224MOL0     C30809   3.134   9.621   9.658 -0.7068 -0.9105 -1.2271
  224MOL0     O30810   3.257   9.583   9.689 -0.6158 -0.2242 -0.9892
  224MOL0     C30811   3.320   9.664   9.791 -0.2144  0.7752 -0.0014
  224MOL0     C30812   3.464   9.613   9.827  0.4360 -0.0267  1.0964
  224MOL0     C30813   3.518   9.666   9.959  0.5995 -0.3552 -0.2751
  224MOL0     C30814   3.518   9.820   9.985  0.2170 -0.3189  0.2710
  224MOL0     C30815   3.576   9.858  10.121 -0.1726 -0.1027  0.5958
  224MOL0     C30816   3.476   9.850  10.238  0.0327 -0.6832 -0.1050
  224MOL0     C30817   3.331   9.910  10.232  0.1700  0.1818  0.0293
  224MOL0     C30818   3.222   9.812  10.213 -1.4878  0.2046  0.2018
  224MOL0    Cl30819   3.235   9.695  10.354  0.3450  0.1030  0.1440
  224MOL0     C30820   3.056   9.734   9.704 -0.3997 -0.4501  0.6156
  224MOL0     C30821   2.916   9.743   9.671  0.4193  0.1154  0.0926
  224MOL0     O30822   2.614   9.670   9.749 -0.0131 -0.8176  0.4313
  224MOL0     C30823   2.378   9.651   9.598  0.5301  1.6348 -0.4424
  224MOL0     C30824   2.263   9.668   9.522  0.6664  0.4793 -0.4754
  224MOL0     N30825   2.236  10.029   8.746  0.1278 -1.0802  0.3182
  224MOL0     N30826   2.204  10.123   8.671 -0.0239 -0.7908 -0.4821
  224MOL0     C30827   1.340  10.431   7.961 -0.0097  0.2490  0.9422
  224MOL0     C30828   1.263  10.416   7.848  0.8568  0.3703 -0.3145
  224MOL0     C30829   0.898  10.224   7.602 -0.2208  1.0602 -0.1399
  224MOL0     C30830   0.945  10.280   7.485 -1.0942 -0.6696 -1.2744
  224MOL0     C30831   0.886  10.264   7.367 -1.0414 -0.4487  0.1567
  224MOL0     C30832   0.773  10.188   7.346 -0.4421  0.4066  0.3538
  224MOL0     O30833   0.729  10.188   7.216  0.3067 -0.5260 -0.0996
  224MOL0     C30834   0.606  10.128   7.197  0.2623 -0.1450  0.5035
  224MOL0     C30835   0.613   9.982   7.182  0.4770  0.6746  0.1412
  224MOL0     C30836   0.473   9.916   7.212 -0.7859 -0.1587  0.4374
  224MOL0     C30837   0.369   9.982   7.122 -0.1473 -0.3924 -0.3923
  224MOL0     C30838   0.401   9.938   6.986  0.2980 -0.1290  0.6632
  224MOL0     C30839   0.430   9.921   6.867 -0.6913  0.1947  0.2150
  224MOL0     C30840   0.709  10.133   7.466 -0.5383 -1.2862 -0.7480
  224MOL0     C30841   0.774  10.152   7.589  0.3503 -0.0633 -0.4670
  224MOL0     C30842   0.702  10.093   7.712 -0.1761 -0.1943  0.4190
  224MOL0     H30843   0.960  10.377   7.989 -0.8390 -0.4951 -2.0788
  224MOL0     H30844   1.107  10.384   8.203  2.0839 -1.7566  0.7518
  224MOL0     H30845   1.451  10.612   8.222 -0.8009 -1.1870 -0.1914
  224MOL0     H30846   1.549  10.468   8.173 -1.9102 -4.0451 -0.6461
  224MOL0     H30847   1.431  10.540   8.442  1.2618 -1.4957  2.4676
  224MOL0     H30848   1.497  10.379   8.410 -2.9638 -0.6063 -2.2819
  224MOL0     H30849   1.724  10.495   8.383  1.6847  1.3607 -0.0533
  224MOL0     H30850   1.635  10.649   8.421  1.1865 -0.4133  0.7349
  224MOL0     H30851   1.687  10.600   8.632  1.9507 -1.0795 -0.9857
  224MOL0     H30852   1.547  10.492   8.630 -0.1771 -1.2471 -0.9046
  224MOL0     H30853   1.720  10.302   8.590 -2.6171 -0.4230  1.9744
  224MOL0     H30854   1.699  10.390   8.740 -1.8030 -1.2806  0.4381
  224MOL0     H30855   1.905  10.421   8.511 -1.1020 -2.1281  0.5067
  224MOL0     H30856   1.913  10.530   8.655 -2.3426  0.2675  1.8838
  224MOL0     H30857   1.948  10.223   8.659  1.6525 -0.9167  0.6599
  224MOL0     H30858   1.921  10.329   8.799 -1.2188 -1.6646 -0.3004
  224MOL0     H30859   2.141  10.356   8.583  2.1505 -1.2752  0.9757
  224MOL0     H30860   2.140  10.438   8.747 -2.3953  1.9104 -1.3388
  224MOL0     H30861   2.214  10.305   8.941 -0.4081  0.8983 -0.6441
  224MOL0     H30862   2.228  10.044   9.082  1.6067 -0.2187  1.1597
  224MOL0     H30863   2.373   9.987   8.997  0.3318  1.7104 -0.1443
  224MOL0     H30864   2.101   9.868   8.948 -1.4707 -3.8787  0.8235
  224MOL0     H30865   2.251   9.789   8.905  1.1563  0.4622 -0.3305
  224MOL0     H30866   2.182   9.670   9.090 -1.0412  0.1893 -1.3811
  224MOL0     H30867   2.300   9.786   9.157 -1.4761  0.9030  1.0300
  224MOL0     H30868   2.112   9.939   9.240 -0.9048 -0.3152 -1.5041
  224MOL0     H30869   2.003   9.803   9.204 -1.0628 -0.2550  1.1349
  224MOL0     H30870   2.379   9.895   9.300 -0.9379 -1.7877 -0.5821
  224MOL0     H30871   2.677   9.872   9.358  2.1253  0.1537  3.1949
  224MOL0     H30872   2.642   9.952   9.516 -0.5030 -0.1107  0.9965
  224MOL0     H30873   2.559   9.998   9.363 -0.8752 -1.1384 -2.5293
  224MOL0     H30874   2.899   9.482   9.452  0.1101  0.3494 -0.3626
  224MOL0     H30875   3.129   9.452   9.528  1.5218  0.3826  2.1035
  224MOL0     H30876   3.318   9.769   9.759 -2.3867  1.0250  0.7225
  224MOL0     H30877   3.250   9.664   9.876 -1.3587 -2.1925 -0.8148
  224MOL0     H30878   3.461   9.503   9.832  0.6790 -0.1733 -0.9855
  224MOL0     H30879   3.537   9.646   9.752  2.1154  0.8731  3.0162
  224MOL0     H30880   3.620   9.634   9.980  0.6963 -0.2578 -0.5967
  224MOL0     H30881   3.468   9.625  10.048 -0.3206 -0.1036 -0.6603
  224MOL0     H30882   3.421   9.869   9.983  0.6888  0.8171  2.4564
  224MOL0     H30883   3.579   9.870   9.908 -1.3155 -0.2013 -0.9234
  224MOL0     H30884   3.667   9.804  10.150 -0.1745  1.5074  3.9945
  224MOL0     H30885   3.609   9.962  10.117  1.4218 -0.6122 -2.1067
  224MOL0     H30886   3.520   9.900  10.325 -3.6448  4.4210 -0.7329
  224MOL0     H30887   3.476   9.745  10.268  3.2665 -0.1490  2.3431
  224MOL0     H30888   3.331   9.993  10.160 -2.9662 -0.1019 -0.4088
  224MOL0     H30889   3.311   9.958  10.328 -0.2236 -1.4423  0.7951
  224MOL0     H30890   3.249   9.760  10.121 -0.9086  0.5695  0.1586
  224MOL0     H30891   3.126   9.863  10.197 -0.7746  0.8484 -2.5542
  224MOL0     H30892   3.085   9.813   9.773 -2.5817  2.8514 -1.9085
  224MOL0     H30893   2.854   9.824   9.708 -0.5648 -0.7784  0.4360
  224MOL0     H30894   2.376   9.585   9.684 -2.8450 -0.7577 -2.1133
  224MOL0     H30895   2.185   9.595   9.538  1.0023 -0.5071 -2.9191
  224MOL0     H30896   1.443  10.459   7.943  0.0374  0.7395  1.8778
  224MOL0     H30897   1.310  10.428   7.751  0.5422 -3.0531 -1.0238
  224MOL0     H30898   1.025  10.354   7.488 -3.4868  2.1363 -1.8636
  224MOL0     H30899   0.937  10.297   7.277  1.9034  0.0096  1.8585
  224MOL0     H30900   0.531  10.155   7.272 -0.5216 -2.7572  0.7397
  224MOL0     H30901   0.577  10.165   7.098  4.6391  1.8955 -0.2480
  224MOL0     H30902   0.686   9.938   7.250  1.0661  0.7773 -0.4081
  224MOL0     H30903   0.648   9.963   7.080  0.3983 -3.6164  0.7357
  224MOL0     H30904   0.473   9.808   7.197 -2.1622 -0.0927 -0.2345
  224MOL0     H30905   0.453   9.937   7.318  1.5797  1.0319  0.7199
  224MOL0     H30906   0.354  10.090   7.134  0.0113 -0.3484 -0.5836
  224MOL0     H30907   0.266   9.956   7.148 -0.9692 -0.3964 -3.3740
  224MOL0     H30908   0.446   9.911   6.761  1.0553 -1.0039  0.5429
  224MOL0     H30909   0.609  10.090   7.465 -1.1594 -0.0322  1.2629
  224MOL0     H30910   0.704  10.176   7.784  1.3210 -1.1089  1.4965
  224MOL0     H30911   0.600  10.060   7.692  0.0828 -1.2623  0.8064
  224MOL0     H30912   0.756  10.014   7.764  0.2337  1.8904  3.4315
  225MOL0     O30913   2.716   2.000   9.676 -0.2382  0.3626  0.1035
  225MOL0     C30914   2.736   1.906   9.601 -0.2271 -0.1091  0.3453
  225MOL0     O30915   2.681   1.781   9.611 -0.0289 -0.6107 -0.1062
  225MOL0     C30916   2.599   1.758   9.714 -0.6542  0.2539 -0.9655
  225MOL0     C30917   2.651   1.767   9.848 -0.2761 -0.5301  0.0893
  225MOL0     C30918   2.575   1.751   9.962  0.1744  1.5321 -1.0467
  225MOL0     C30919   2.439   1.712   9.945  0.0298 -0.5526 -0.0388
  225MOL0     O30920   2.363   1.670  10.051 -0.8364  0.6128  0.6546
  225MOL0     C30921   2.420   1.669  10.178 -0.2350  0.1455 -0.6273
  225MOL0     C30922   2.421   1.805  10.245 -0.1834  0.5043 -0.9963
  225MOL0     C30923   2.317   1.906  10.194  1.2676  0.8346  0.9783
  225MOL0     C30924   2.303   2.031  10.285 -0.1786  0.1972 -0.8251
  225MOL0     C30925   2.209   2.134  10.219  0.1072  0.0279  0.1736
  225MOL0     C30926   2.177   2.260  10.297 -0.4350  0.0873 -0.1302
  225MOL0     C30927   2.115   2.372  10.210 -0.5286  0.0998 -0.0084
  225MOL0     C30928   2.219   2.437  10.118  0.0196  0.7097 -0.4885
  225MOL0     N30929   2.156   2.520  10.016  0.7941  0.4238  0.5782
  225MOL0     C30930   2.086   2.637  10.049  0.0711 -0.2996 -0.5047
  225MOL0     C30931   2.084   2.702   9.928  0.4504  0.6259 -0.6171
  225MOL0     C30932   2.012   2.836   9.892 -0.2995  0.2076  0.5850
  225MOL0     C30933   1.891   2.828   9.801 -0.8700  0.5286  0.2397
  225MOL0     C30934   1.826   2.968   9.770  0.3171 -0.3011  0.5621
  225MOL0     C30935   1.906   3.032   9.660  0.8533 -0.4042 -0.2602
  225MOL0     O30936   1.842   3.154   9.616  0.5399  0.2983 -0.0732
  225MOL0     C30937   1.921   3.225   9.528  0.6169 -0.4888 -0.7122
  225MOL0     C30938   1.925   3.198   9.400  0.1174 -0.9040  0.3130
  225MOL0     C30939   2.025   3.255   9.315  0.3139  0.1262  0.3444
  225MOL0     C30940   2.019   3.243   9.166  0.3353 -0.0472  0.0807
  225MOL0     C30941   2.123   3.338   9.372 -0.2041 -0.1780 -0.2270
  225MOL0     C30942   2.225   3.409   9.295  1.1787 -0.8827  0.0787
  225MOL0     O30943   2.294   3.335   9.202  0.2062 -0.4391  0.5374
  225MOL0     C30944   2.425   3.364   9.181 -0.0884  0.3775 -0.0475
  225MOL0     C30945   2.526   3.351   9.281  0.0624  0.3261 -0.2601
  225MOL0     C30946   2.652   3.387   9.250  0.5001 -0.0037 -0.3571
  225MOL0     C30947   2.688   3.448   9.131  0.6524  0.1179 -0.5770
  225MOL0     O30948   2.818   3.486   9.103 -0.0193 -0.5181  0.1486
  225MOL0     C30949   2.916   3.487   9.206 -0.4045  0.3802 -0.3140
  225MOL0     C30950   3.022   3.585   9.157 -0.4003 -0.1315  0.1747
  225MOL0     C30951   3.052   3.694   9.262 -0.3465 -0.2141 -0.0366
  225MOL0     C30952   3.153   3.787   9.195 -0.3659  0.4632 -0.0575
  225MOL0     C30953   3.189   3.920   9.273  1.1756  0.7239 -0.3641
  225MOL0     C30954   3.311   3.987   9.209  0.2916 -0.4770 -0.5865
  225MOL0     C30955   3.339   4.118   9.295  0.3981 -0.9420 -0.5413
  225MOL0     C30956   3.362   4.235   9.201 -0.6614 -0.2871  0.5359
  225MOL0    Cl30957   3.206   4.297   9.143  0.0182  0.1564 -0.0355
  225MOL0     C30958   2.592   3.456   9.028  0.5185 -0.5479 -0.8493
  225MOL0     C30959   2.464   3.422   9.057 -0.9265  0.2640 -0.1506
  225MOL0     O30960   2.247   3.527   9.327 -0.6287 -0.5726 -0.1275
  225MOL0     C30961   2.111   3.362   9.511 -0.0525 -0.6091  0.5353
  225MOL0     C30962   2.010   3.321   9.595 -0.0015  0.3053 -0.5441
  225MOL0     N30963   2.155   2.628   9.835  0.2331  0.9228  0.3435
  225MOL0     N30964   2.188   2.510   9.885 -0.9200 -0.2368 -0.1264
  225MOL0     C30965   2.384   1.705   9.814 -0.1990 -0.3055 -0.0044
  225MOL0     C30966   2.455   1.738   9.703 -0.1264 -0.4358 -0.1922
  225MOL0     C30967   2.836   1.947   9.503 -0.3897 -0.5702 -0.3329
  225MOL0     C30968   2.830   2.070   9.430 -0.5432 -0.2308  0.2360
  225MOL0     C30969   2.925   2.095   9.334  0.2696 -0.0622 -0.8683
  225MOL0     C30970   3.027   2.012   9.306  0.2778 -0.4058 -0.4667
  225MOL0     O30971   3.119   2.042   9.202 -1.0166 -0.0498 -0.0857
  225MOL0     C30972   3.261   2.031   9.223  0.4475  0.2582  0.3445
  225MOL0     C30973   3.321   2.181   9.221  0.1184  0.5231  0.1003
  225MOL0     C30974   3.291   2.265   9.341  0.4131  0.3197  0.6136
  225MOL0     C30975   3.320   2.190   9.477  0.6518  0.1707  0.0121
  225MOL0     C30976   3.461   2.176   9.490 -0.0394 -0.2046  0.5067
  225MOL0     C30977   3.585   2.168   9.502  0.3397 -0.3528  0.6090
  225MOL0     C30978   3.030   1.890   9.378 -0.4124  0.3220  0.1413
  225MOL0     C30979   2.938   1.859   9.472 -0.3638 -0.0849 -0.4836
  225MOL0     C30980   2.943   1.722   9.537  0.3080  0.1501 -0.3741
  225MOL0     H30981   2.756   1.790   9.857 -0.0329 -1.5677  0.0749
  225MOL0     H30982   2.631   1.762  10.054  1.1355  0.1386 -1.4392
  225MOL0     H30983   2.514   1.614  10.191 -1.0377 -1.5207 -1.5983
  225MOL0     H30984   2.354   1.609  10.242  2.9771 -1.0476  1.8467
  225MOL0     H30985   2.413   1.791  10.353  0.0593  1.2164 -0.8790
  225MOL0     H30986   2.518   1.852  10.224  1.5667 -2.9025 -1.2629
  225MOL0     H30987   2.335   1.936  10.091 -2.5649 -2.1173 -0.7849
  225MOL0     H30988   2.221   1.855  10.184  0.2854  2.5415  1.2597
  225MOL0     H30989   2.271   2.008  10.387  0.6447 -0.2265 -0.6482
  225MOL0     H30990   2.405   2.066  10.302  0.0203 -0.0380 -1.4955
  225MOL0     H30991   2.111   2.084  10.217  0.3513 -0.4475  0.0183
  225MOL0     H30992   2.254   2.153  10.121  1.9908 -1.3039  0.7274
  225MOL0     H30993   2.118   2.240  10.386  0.2615  1.0596  0.5847
  225MOL0     H30994   2.277   2.291  10.331 -0.6322 -0.5883  1.1151
  225MOL0     H30995   2.078   2.456  10.271  1.2474  0.9534 -0.0536
  225MOL0     H30996   2.025   2.335  10.159  0.7049  0.7779 -2.8704
  225MOL0     H30997   2.295   2.490  10.177  2.2597 -1.3406 -1.3697
  225MOL0     H30998   2.269   2.358  10.061 -0.3448 -1.6128  2.1770
  225MOL0     H30999   2.054   2.675  10.146  0.8984  0.1926 -0.4165
  225MOL0     H31000   2.082   2.904   9.844  0.7315 -2.3400 -1.8149
  225MOL0     H31001   1.980   2.877   9.988 -1.9793  3.6924 -1.2930
  225MOL0     H31002   1.935   2.778   9.714 -2.0860 -0.6535  0.2704
  225MOL0     H31003   1.817   2.765   9.851 -0.6764  1.5957  1.9598
  225MOL0     H31004   1.720   2.956   9.745 -0.4253 -1.6802  3.8878
  225MOL0     H31005   1.817   3.030   9.859 -2.6833 -0.0177  0.1664
  225MOL0     H31006   2.005   3.060   9.698  0.4779  1.7174 -0.7134
  225MOL0     H31007   1.900   2.971   9.570 -0.8659  1.7295 -1.6821
  225MOL0     H31008   1.844   3.136   9.363 -3.0919  2.6968  0.6251
  225MOL0     H31009   2.096   3.186   9.114  0.0566  1.1065 -1.6991
  225MOL0     H31010   2.015   3.342   9.120  1.1754  0.3452  0.8119
  225MOL0     H31011   1.924   3.196   9.142  2.0849 -3.1677 -1.3669
  225MOL0     H31012   2.503   3.309   9.378  4.6810  0.8385  1.3026
  225MOL0     H31013   2.723   3.370   9.330  0.7048  0.3000 -0.4738
  225MOL0     H31014   2.870   3.522   9.299 -5.4154 -0.3407 -2.2091
  225MOL0     H31015   2.965   3.392   9.225 -1.9960 -0.1612  1.4271
  225MOL0     H31016   3.114   3.538   9.121 -1.5600 -0.6869 -2.1864
  225MOL0     H31017   2.979   3.622   9.064  2.5919 -3.9547 -3.0486
  225MOL0     H31018   3.099   3.656   9.353  0.9814  4.7723  1.6495
  225MOL0     H31019   2.959   3.746   9.286  0.2160  0.6843  0.2253
  225MOL0     H31020   3.120   3.804   9.092  1.6906 -1.3475 -1.1088
  225MOL0     H31021   3.242   3.723   9.202 -0.2930  0.6758  1.2549
  225MOL0     H31022   3.098   3.980   9.268  0.3436 -0.4934 -0.1988
  225MOL0     H31023   3.214   3.905   9.378  1.6166 -0.0724 -0.5716
  225MOL0     H31024   3.298   3.999   9.101 -0.3016  1.6921 -0.3352
  225MOL0     H31025   3.409   3.945   9.230  1.3027  2.7933  2.1674
  225MOL0     H31026   3.420   4.106   9.368 -0.3259 -0.0054  0.4543
  225MOL0     H31027   3.257   4.157   9.357 -0.2461 -0.1944 -1.8353
  225MOL0     H31028   3.420   4.207   9.112 -2.4208  1.6880 -1.3358
  225MOL0     H31029   3.419   4.318   9.244  0.6645 -0.4009 -0.8827
  225MOL0     H31030   2.618   3.493   8.929  2.1261 -0.3541 -0.3820
  225MOL0     H31031   2.398   3.426   8.970  0.9067 -1.1052 -1.7045
  225MOL0     H31032   2.193   3.422   9.551  2.4525 -2.2977 -1.6779
  225MOL0     H31033   1.998   3.365   9.694  0.3901  4.3380 -2.0984
  225MOL0     H31034   2.280   1.678   9.810  0.2072 -2.1122  0.7773
  225MOL0     H31035   2.407   1.757   9.607 -0.4891  0.9189  0.2318
  225MOL0     H31036   2.747   2.139   9.439 -0.0490  0.1873  2.0727
  225MOL0     H31037   2.918   2.184   9.272 -1.1343 -0.3288 -1.1458
  225MOL0     H31038   3.284   1.968   9.309  1.7708  0.4540  0.1522
  225MOL0     H31039   3.307   1.981   9.137  0.2929  0.7248 -0.0186
  225MOL0     H31040   3.285   2.228   9.129 -1.2543 -0.3989  0.1322
  225MOL0     H31041   3.429   2.170   9.208  0.3595  3.7375 -1.7756
  225MOL0     H31042   3.354   2.355   9.350  1.1402 -0.0867 -0.2663
  225MOL0     H31043   3.188   2.300   9.331  0.5446  1.2171  2.0723
  225MOL0     H31044   3.268   2.094   9.489 -0.7062  0.9602  0.5585
  225MOL0     H31045   3.294   2.244   9.568  2.5431  0.2650  0.5408
  225MOL0     H31046   3.692   2.175   9.505  0.4664 -0.6442 -1.4438
  225MOL0     H31047   3.108   1.818   9.355  0.2600  0.3357  2.2158
  225MOL0     H31048   2.847   1.677   9.510 -0.5834  1.1760  0.9276
  225MOL0     H31049   3.022   1.656   9.500  0.5385  0.9205 -1.2985
  225MOL0     H31050   2.954   1.724   9.646 -0.4778 -1.8498 -0.2149
  226MOL0     O31051   6.879   3.774   9.688 -0.0725  0.0547 -0.0584
  226MOL0     C31052   6.926   3.814   9.584  0.2695  0.0487  0.2052
  226MOL0     O31053   7.054   3.854   9.567  0.8764 -0.4938 -0.6559
  226MOL0     C31054   7.143   3.839   9.670  0.3100 -0.2265  0.4928
  226MOL0     C31055   7.254   3.761   9.647 -0.4893 -0.0237 -0.0343
  226MOL0     C31056   7.348   3.740   9.742 -0.0249  0.2307 -0.2919
  226MOL0     C31057   7.331   3.792   9.874 -0.6449 -0.0631 -0.3525
  226MOL0     O31058   7.416   3.755   9.967 -0.5703  0.3001  0.0099
  226MOL0     C31059   7.408   3.805  10.109  0.6389 -0.5185  0.1145
  226MOL0     C31060   7.533   3.760  10.181  0.2983 -0.7285  0.6550
  226MOL0     C31061   7.645   3.849  10.137 -0.3654  0.3819  0.1129
  226MOL0     C31062   7.782   3.810  10.206 -0.5116 -0.2714 -0.4382
  226MOL0     C31063   7.776   3.845  10.354 -0.0651  0.6133  0.2989
  226MOL0     C31064   7.919   3.837  10.417  0.0877  0.3585  1.3581
  226MOL0     C31065   7.913   3.878  10.573  1.0328 -0.4542  0.4255
  226MOL0     C31066   8.049   3.942  10.602  0.4091 -1.2274 -0.0017
  226MOL0     N31067   8.050   4.085  10.564  0.3203  0.1102 -0.9849
  226MOL0     C31068   8.151   4.151  10.500 -0.0422  0.6518 -0.8983
  226MOL0     C31069   8.144   4.282  10.541  0.8858  0.1514 -0.1936
  226MOL0     C31070   8.255   4.377  10.520 -0.2846  0.3051  0.1852
  226MOL0     C31071   8.368   4.356  10.621  0.4970 -0.5425  1.0604
  226MOL0     C31072   8.459   4.475  10.611 -0.3861 -0.8177 -0.2257
  226MOL0     C31073   8.550   4.482  10.498 -1.0879  1.4275  0.3798
  226MOL0     O31074   8.642   4.376  10.525  0.5509 -0.9305 -0.2416
  226MOL0     C31075   8.711   4.319  10.426  0.6417 -0.8070  0.7020
  226MOL0     C31076   8.748   4.387  10.311 -0.2431 -0.1790  0.4601
  226MOL0     C31077   8.849   4.335  10.225  0.1089  0.0638  0.2246
  226MOL0     C31078   8.881   4.420  10.099  0.2272  0.0380  0.2086
  226MOL0     C31079   8.914   4.212  10.255  0.4174  0.7684 -0.6858
  226MOL0     C31080   9.016   4.150  10.178 -0.2568 -0.6432  0.3635
  226MOL0     O31081   9.131   4.130  10.249 -0.3485 -0.1710 -0.9188
  226MOL0     C31082   9.241   4.089  10.181  0.0309  1.1088  0.0964
  226MOL0     C31083   9.367   4.129  10.237 -0.2425 -0.5082 -0.7499
  226MOL0     C31084   9.483   4.074  10.200 -0.5390  0.6513 -0.8145
  226MOL0     C31085   9.487   3.969  10.103 -0.7349  0.3167 -0.5602
  226MOL0     O31086   9.606   3.898  10.089  0.5259 -0.9001  0.0384
  226MOL0     C31087   9.604   3.760  10.068  0.7606 -0.4712 -0.1404
  226MOL0     C31088   9.736   3.686  10.097 -0.3746 -0.0560 -0.2868
  226MOL0     C31089   9.837   3.737   9.995  0.4690  0.4364  0.8825
  226MOL0     C31090   9.980   3.709  10.023  0.5286 -0.4522  0.5083
  226MOL0     C31091  10.064   3.780   9.918  0.0870 -0.0073  0.0595
  226MOL0     C31092  10.208   3.744   9.924 -0.9484  0.4540  0.1822
  226MOL0     C31093  10.277   3.812  10.041  1.5693 -0.5888 -0.1445
  226MOL0     C31094  10.422   3.792  10.028  0.0732  0.2938 -0.2234
  226MOL0    Cl31095  10.461   3.617  10.039  0.0533  0.0382 -0.0338
  226MOL0     C31096   9.371   3.931  10.039  0.3496  0.0525  0.6842
  226MOL0     C31097   9.246   3.990  10.075  1.3469  0.2694  0.8852
  226MOL0     O31098   9.012   4.155  10.056  0.4859  0.0894 -0.1925
  226MOL0     C31099   8.882   4.152  10.375  0.0563  0.3983  0.0598
  226MOL0     C31100   8.777   4.199  10.450 -1.0880  0.4735  0.5901
  226MOL0     N31101   8.039   4.291  10.630 -0.0092  0.4450  0.5506
  226MOL0     N31102   7.991   4.177  10.648  0.5322  0.2980 -0.1861
  226MOL0     C31103   7.224   3.874   9.896 -0.0111 -0.3264 -0.1471
  226MOL0     C31104   7.128   3.903   9.790 -0.2992  0.1603  0.6069
  226MOL0     C31105   6.840   3.803   9.461  0.5059 -0.1975  0.9079
  226MOL0     C31106   6.699   3.814   9.472 -0.2430  0.6009  0.0064
  226MOL0     C31107   6.617   3.806   9.362 -0.4482  0.4829  0.5765
  226MOL0     C31108   6.668   3.786   9.232  0.1507 -0.1320  0.8768
  226MOL0     O31109   6.571   3.790   9.125  0.5240  0.2376 -1.1870
  226MOL0     C31110   6.612   3.758   8.993  0.4228  0.0810  0.4859
  226MOL0     C31111   6.505   3.812   8.892 -0.0697  0.4313  0.4338
  226MOL0     C31112   6.561   3.801   8.756  0.2913 -0.0857 -0.0843
  226MOL0     C31113   6.498   3.890   8.652  0.3195 -0.7246 -0.6378
  226MOL0     C31114   6.492   3.834   8.513  0.3324 -0.6735  0.0785
  226MOL0     C31115   6.507   3.789   8.404  0.0022 -1.0940 -0.0910
  226MOL0     C31116   6.806   3.771   9.219  1.2570 -0.1603 -0.6330
  226MOL0     C31117   6.888   3.770   9.332 -0.1725 -0.4475 -0.1310
  226MOL0     C31118   7.026   3.728   9.305 -1.7546  0.7491  0.6513
  226MOL0     H31119   7.254   3.713   9.550 -2.8878 -0.9438  0.3435
  226MOL0     H31120   7.425   3.671   9.709 -1.4760 -2.7699  2.0724
  226MOL0     H31121   7.321   3.761  10.158  0.3147  0.1084  0.1047
  226MOL0     H31122   7.393   3.913  10.112 -3.2510 -0.8588 -1.6052
  226MOL0     H31123   7.502   3.771  10.285  0.7091  2.8701  0.5161
  226MOL0     H31124   7.552   3.658  10.148 -0.0090 -0.9941  1.2884
  226MOL0     H31125   7.669   3.835  10.031  1.1267  0.8384  0.3636
  226MOL0     H31126   7.615   3.952  10.159 -0.3576  0.5172 -0.4852
  226MOL0     H31127   7.797   3.703  10.194  3.2306 -0.1624  1.7153
  226MOL0     H31128   7.856   3.866  10.148 -2.0770 -0.8011 -3.1536
  226MOL0     H31129   7.709   3.778  10.408  0.2054 -0.4589 -0.6565
  226MOL0     H31130   7.748   3.950  10.367 -0.1372  0.7598 -0.9100
  226MOL0     H31131   7.950   3.733  10.409 -1.7325 -0.1910  1.0035
  226MOL0     H31132   7.993   3.896  10.361  2.8158  0.0419  4.3702
  226MOL0     H31133   7.891   3.782  10.622  0.2512 -0.4587  0.0799
  226MOL0     H31134   7.840   3.958  10.584  2.5271  1.4996 -2.4878
  226MOL0     H31135   8.061   3.941  10.710 -0.3471 -0.7855  0.0967
  226MOL0     H31136   8.131   3.890  10.552 -0.3051 -3.4745  1.0257
  226MOL0     H31137   8.235   4.111  10.445  0.2023  0.2338 -0.2336
  226MOL0     H31138   8.214   4.478  10.524 -1.9799 -0.3728  1.9324
  226MOL0     H31139   8.301   4.361  10.422 -3.7179  0.6388 -1.6224
  226MOL0     H31140   8.321   4.362  10.719 -0.9675  1.7995  0.2881
  226MOL0     H31141   8.407   4.254  10.614 -1.4613 -1.2277 -1.6355
  226MOL0     H31142   8.411   4.574  10.618  1.6526  0.2257 -0.2713
  226MOL0     H31143   8.510   4.478  10.707  2.0448  0.2770 -1.4528
  226MOL0     H31144   8.507   4.463  10.399  1.3052  0.5350 -0.5552
  226MOL0     H31145   8.597   4.580  10.489 -2.4326  2.1087  0.4360
  226MOL0     H31146   8.696   4.480  10.289  1.2611  1.1691  2.2738
  226MOL0     H31147   8.988   4.432  10.083  0.2529  0.7424  0.8177
  226MOL0     H31148   8.822   4.512  10.101  0.6836  0.3276  0.9206
  226MOL0     H31149   8.865   4.377  10.000  0.9726 -0.1678  0.1726
  226MOL0     H31150   9.363   4.198  10.320  2.3454 -0.3008 -0.7329
  226MOL0     H31151   9.579   4.089  10.249 -0.0474 -2.7498 -0.4739
  226MOL0     H31152   9.536   3.710  10.138 -0.8485 -2.0788 -2.7013
  226MOL0     H31153   9.567   3.726   9.971  0.0797 -1.2895  0.3891
  226MOL0     H31154   9.773   3.706  10.198 -0.5334 -0.8919 -0.0576
  226MOL0     H31155   9.723   3.580  10.074 -1.0398  0.2172 -1.2129
  226MOL0     H31156   9.830   3.846   9.990 -0.1603  0.3526 -3.2739
  226MOL0     H31157   9.808   3.705   9.895  2.2503 -1.7717  0.9868
  226MOL0     H31158  10.001   3.602  10.023  1.6350 -0.2588 -0.2552
  226MOL0     H31159  10.002   3.745  10.124 -1.9621 -2.1902  1.7720
  226MOL0     H31160  10.029   3.747   9.820  0.0417 -0.7160  0.3136
  226MOL0     H31161  10.045   3.888   9.907 -1.9494 -0.2795  0.5797
  226MOL0     H31162  10.258   3.762   9.828 -0.8629 -0.2534  0.0920
  226MOL0     H31163  10.208   3.636   9.939 -1.8848  0.4254  0.0661
  226MOL0     H31164  10.248   3.767  10.136 -1.8924  2.8516  0.6627
  226MOL0     H31165  10.250   3.918  10.049 -0.5908 -1.1814  1.1253
  226MOL0     H31166  10.469   3.840  10.115 -0.0909  2.4827 -1.2846
  226MOL0     H31167  10.465   3.843   9.942 -1.9567 -0.1214 -1.5317
  226MOL0     H31168   9.379   3.860   9.957  2.7706  2.3443 -1.2459
  226MOL0     H31169   9.157   3.949  10.029  2.6534  0.9634 -2.6314
  226MOL0     H31170   8.928   4.055  10.394  2.8906  0.8871 -3.2432
  226MOL0     H31171   8.748   4.149  10.542  0.0290  2.2299  1.9545
  226MOL0     H31172   7.204   3.913   9.996 -2.3361 -2.3474  0.3050
  226MOL0     H31173   7.033   3.951   9.808 -1.0325 -0.2980 -1.6935
  226MOL0     H31174   6.651   3.812   9.569  1.6087 -0.0523  0.9606
  226MOL0     H31175   6.509   3.811   9.370 -0.3772  0.9002  1.3535
  226MOL0     H31176   6.710   3.801   8.970  0.8930 -1.3063 -0.2786
  226MOL0     H31177   6.619   3.650   8.978  2.6975  0.3107 -0.6135
  226MOL0     H31178   6.483   3.914   8.924 -0.4473 -0.1726  2.2228
  226MOL0     H31179   6.420   3.743   8.892  0.6568 -0.5066  1.7360
  226MOL0     H31180   6.668   3.823   8.758  0.3382 -0.3217  0.0823
  226MOL0     H31181   6.560   3.697   8.721 -0.1231  0.4186 -1.6618
  226MOL0     H31182   6.572   3.970   8.656 -1.4708  0.9533  1.3708
  226MOL0     H31183   6.401   3.919   8.692  1.7362 -0.3569  2.8381
  226MOL0     H31184   6.551   3.741   8.319 -1.4919 -1.4422 -0.7096
  226MOL0     H31185   6.850   3.757   9.120  0.1337 -2.9302 -0.8460
  226MOL0     H31186   7.062   3.664   9.386 -1.5619 -0.8549 -0.6373
  226MOL0     H31187   7.017   3.661   9.219 -1.5431  0.0794  1.1481
  226MOL0     H31188   7.091   3.809   9.269  0.7818 -0.8312  1.3696
  227MOL0     O31189   2.834  10.190  10.983 -0.5332 -0.4078  0.4863
  227MOL0     C31190   2.778  10.300  10.995 -1.1501  0.5293 -0.4147
  227MOL0     O31191   2.837  10.414  11.034  0.7586 -0.1237  0.5635
  227MOL0     C31192   2.965  10.405  11.085  0.9350  0.1689 -0.0715
  227MOL0     C31193   3.071  10.463  11.020  0.4750  0.1433  0.3518
  227MOL0     C31194   3.208  10.443  11.060 -0.4643 -0.0007  0.1266
  227MOL0     C31195   3.232  10.366  11.176 -0.7404 -0.4088  0.0741
  227MOL0     O31196   3.360  10.347  11.237  0.0281  0.1875 -1.0881
  227MOL0     C31197   3.473  10.357  11.147 -0.0627  0.8859  0.1640
  227MOL0     C31198   3.585  10.292  11.227 -0.2565  0.6352  0.2054
  227MOL0     C31199   3.716  10.261  11.158  0.2779  0.7602  0.5987
  227MOL0     C31200   3.815  10.235  11.262 -0.1522 -0.2158  0.1049
  227MOL0     C31201   3.951  10.186  11.215  0.6024  0.0725 -0.6572
  227MOL0     C31202   4.033  10.160  11.338 -0.1946  0.0123  0.3501
  227MOL0     C31203   4.160  10.089  11.289  0.0333 -0.0798 -0.3812
  227MOL0     C31204   4.282  10.082  11.390 -0.2195  0.5239 -0.3059
  227MOL0     N31205   4.376   9.977  11.347  0.0568 -0.0347 -0.6832
  227MOL0     C31206   4.485   9.992  11.265 -1.1938  0.0329  0.3541
  227MOL0     C31207   4.535   9.873  11.261  0.2069 -0.4973 -0.3905
  227MOL0     C31208   4.659   9.834  11.191  0.4457  1.2762  0.4735
  227MOL0     C31209   4.756   9.785  11.295 -0.2704 -0.0992 -0.3803
  227MOL0     C31210   4.830   9.893  11.374 -0.1282  0.3795  0.0998
  227MOL0     C31211   4.951   9.825  11.433  0.3209 -0.1551  0.4678
  227MOL0     O31212   4.985   9.892  11.550  0.4729 -0.3444  0.1267
  227MOL0     C31213   5.121   9.902  11.561 -0.0357  0.4033 -0.2278
  227MOL0     C31214   5.189   9.989  11.482  0.5889 -0.4469 -0.0987
  227MOL0     C31215   5.325  10.006  11.490 -0.0179  0.0312  0.5982
  227MOL0     C31216   5.388  10.099  11.382  0.1268  0.1451  0.1748
  227MOL0     C31217   5.395   9.937  11.582 -1.2810  0.1445 -0.1476
  227MOL0     C31218   5.544   9.944  11.609 -0.0439  0.6412  0.2202
  227MOL0     O31219   5.602  10.054  11.552 -0.0025 -0.9724 -0.2928
  227MOL0     C31220   5.725  10.093  11.587  0.2046 -0.0209 -0.2724
  227MOL0     C31221   5.837  10.085  11.501  0.0315 -0.6136  0.0468
  227MOL0     C31222   5.971  10.119  11.534  0.1411 -0.1628 -0.2113
  227MOL0     C31223   5.995  10.155  11.664 -0.1136 -0.1748  0.5951
  227MOL0     O31224   6.123  10.185  11.698 -0.5033  0.6172  0.3996
  227MOL0     C31225   6.162  10.137  11.828 -0.9481 -0.8415  0.8396
  227MOL0     C31226   6.304  10.102  11.842 -0.4182  0.0296  0.4701
  227MOL0     C31227   6.395  10.217  11.793 -0.6215 -0.0838 -0.4642
  227MOL0     C31228   6.535  10.168  11.775 -0.3942 -0.9942  0.9595
  227MOL0     C31229   6.626  10.273  11.703 -0.6426  0.7976 -0.2975
  227MOL0     C31230   6.756  10.206  11.652 -0.3165  0.5349  0.3873
  227MOL0     C31231   6.856  10.303  11.598  0.9351 -0.9368 -0.4775
  227MOL0     C31232   6.970  10.244  11.506  0.6792  0.4857 -0.1813
  227MOL0    Cl31233   7.080  10.364  11.433  0.1096 -0.2062 -0.3537
  227MOL0     C31234   5.886  10.172  11.750  0.2694  0.6505  0.4606
  227MOL0     C31235   5.749  10.141  11.715 -0.2980  0.3813  1.2223
  227MOL0     O31236   5.599   9.854  11.678 -0.8629  0.2872 -0.4509
  227MOL0     C31237   5.325   9.842  11.657 -0.7570 -0.3045  0.2579
  227MOL0     C31238   5.188   9.818  11.650  0.3360  0.2215 -0.7120
  227MOL0     N31239   4.461   9.788  11.334  0.1354  1.0189  0.7197
  227MOL0     N31240   4.354   9.849  11.388  0.2892 -0.0732  0.5364
  227MOL0     C31241   3.122  10.310  11.239 -0.1702  0.0362  0.5515
  227MOL0     C31242   2.993  10.333  11.198  0.0292  0.1130  1.0823
  227MOL0     C31243   2.632  10.306  10.958 -0.1755  0.2388 -0.2131
  227MOL0     C31244   2.586  10.419  10.885 -0.0042 -0.2081  0.2025
  227MOL0     C31245   2.449  10.426  10.850  0.6202 -0.0302 -0.0669
  227MOL0     C31246   2.363  10.329  10.895 -0.4259 -0.2200  0.7069
  227MOL0     O31247   2.233  10.322  10.874 -0.7719 -0.0424  0.3837
  227MOL0     C31248   2.162  10.400  10.775 -0.5149 -0.5899 -0.0352
  227MOL0     C31249   2.180  10.354  10.626 -0.1952  0.1247 -0.4814
  227MOL0     C31250   2.333  10.332  10.586 -0.0131  0.0136 -0.5563
  227MOL0     C31251   2.355  10.298  10.434  0.2097 -0.7443  0.2210
  227MOL0     C31252   2.497  10.293  10.419 -0.8379 -0.3424 -0.5508
  227MOL0     C31253   2.620  10.276  10.418 -0.4930 -1.0151  0.4621
  227MOL0     C31254   2.412  10.217  10.966  1.6961 -0.4284 -0.3220
  227MOL0     C31255   2.543  10.206  10.998  0.5606 -0.1339  0.6047
  227MOL0     C31256   2.580  10.090  11.081  0.1910 -0.9360  0.6072
  227MOL0     H31257   3.042  10.530  10.939 -0.0904 -0.7448 -0.1893
  227MOL0     H31258   3.288  10.477  10.996  1.2646 -2.8166  0.5954
  227MOL0     H31259   3.507  10.458  11.123  4.3420 -0.8881 -2.0467
  227MOL0     H31260   3.440  10.300  11.060 -0.4080  0.6426  0.4455
  227MOL0     H31261   3.622  10.355  11.309  0.6161  1.0666 -0.4947
  227MOL0     H31262   3.541  10.203  11.273  2.9701  0.6555  3.9523
  227MOL0     H31263   3.707  10.177  11.088  1.0240  0.4871  0.8261
  227MOL0     H31264   3.760  10.339  11.094  1.5707 -0.3749  0.0464
  227MOL0     H31265   3.830  10.322  11.326 -1.8757 -0.9872  1.6445
  227MOL0     H31266   3.768  10.169  11.335 -1.0740  0.5233  0.2037
  227MOL0     H31267   3.982  10.267  11.148  1.1589  0.0527 -0.4317
  227MOL0     H31268   3.934  10.093  11.160  0.4034 -1.0535  1.2170
  227MOL0     H31269   4.060  10.251  11.392 -2.5118  1.7179 -1.1896
  227MOL0     H31270   3.971  10.104  11.408 -0.2713 -2.9960 -1.9338
  227MOL0     H31271   4.189  10.144  11.199 -1.0415  0.1961 -0.5735
  227MOL0     H31272   4.143   9.990  11.245 -1.3830  0.7974 -1.9382
  227MOL0     H31273   4.337  10.177  11.387  1.1729 -0.2797 -1.2572
  227MOL0     H31274   4.250  10.060  11.493  1.9377  1.9544  0.7506
  227MOL0     H31275   4.526  10.083  11.221  0.7212  0.0149  1.9863
  227MOL0     H31276   4.700   9.913  11.128  1.5421 -0.2732 -0.8474
  227MOL0     H31277   4.657   9.746  11.126  0.1920  1.9664 -0.4822
  227MOL0     H31278   4.700   9.722  11.365  0.7546 -0.4114  0.1862
  227MOL0     H31279   4.816   9.709  11.243  1.8830  0.9804  0.3894
  227MOL0     H31280   4.863   9.977  11.312 -0.2328 -1.4465 -2.5706
  227MOL0     H31281   4.765   9.941  11.449 -0.0551  2.9952 -1.3969
  227MOL0     H31282   4.920   9.724  11.462  0.6358  0.3586  2.8010
  227MOL0     H31283   5.028   9.832  11.356  0.4902  2.9315  0.7837
  227MOL0     H31284   5.138  10.045  11.405 -0.1160  2.6828  2.4335
  227MOL0     H31285   5.404  10.193  11.435  1.3508 -0.9218  1.7755
  227MOL0     H31286   5.315  10.110  11.302  0.1101  1.7361  0.3690
  227MOL0     H31287   5.479  10.067  11.330 -1.1370 -0.8856 -1.5320
  227MOL0     H31288   5.822  10.041  11.403 -1.3714 -0.3867  0.1399
  227MOL0     H31289   6.055  10.117  11.465  0.1253 -0.5955 -0.2215
  227MOL0     H31290   6.152  10.206  11.912  1.9442 -2.2606  2.5107
  227MOL0     H31291   6.108  10.047  11.858 -1.1718 -0.2998  2.1168
  227MOL0     H31292   6.315  10.078  11.949 -3.0080  0.4294  0.9104
  227MOL0     H31293   6.325  10.014  11.781 -2.4510 -0.3274  0.2167
  227MOL0     H31294   6.382  10.304  11.857 -0.0048 -0.8888  0.7931
  227MOL0     H31295   6.357  10.264  11.701  0.0758  0.1577 -0.6298
  227MOL0     H31296   6.540  10.082  11.708  0.9967 -0.4677  0.3511
  227MOL0     H31297   6.594  10.138  11.863  3.4239 -1.0059 -1.3769
  227MOL0     H31298   6.560  10.323  11.631 -0.1283  0.9048 -0.7005
  227MOL0     H31299   6.655  10.346  11.780  1.2930 -0.8282  0.6088
  227MOL0     H31300   6.725  10.133  11.577 -0.8167  1.2959 -0.1550
  227MOL0     H31301   6.798  10.142  11.731  0.2824 -0.9036 -1.0334
  227MOL0     H31302   6.905  10.351  11.684 -0.7070  0.2415 -0.1518
  227MOL0     H31303   6.806  10.385  11.545  0.4107 -0.2714  0.9792
  227MOL0     H31304   6.909  10.225  11.417  0.6803  3.1555 -0.8429
  227MOL0     H31305   7.018  10.154  11.546 -1.3951  0.1251  1.7041
  227MOL0     H31306   5.910  10.192  11.853  1.4886 -1.0505  0.5429
  227MOL0     H31307   5.672  10.147  11.791  1.4470  1.4635  3.0275
  227MOL0     H31308   5.379   9.783  11.730 -1.6120  0.1567  1.2829
  227MOL0     H31309   5.144   9.744  11.716  2.3227 -0.3421  0.0610
  227MOL0     H31310   3.143  10.260  11.333  0.7163 -0.3632  0.1458
  227MOL0     H31311   2.905  10.285  11.239 -0.6277  1.4273  1.2608
  227MOL0     H31312   2.655  10.490  10.841  0.8677 -1.2336 -0.1181
  227MOL0     H31313   2.409  10.511  10.796 -1.0502 -1.0984 -0.5688
  227MOL0     H31314   2.058  10.379  10.803 -0.3951 -0.8301  0.2280
  227MOL0     H31315   2.182  10.506  10.793 -0.5988 -0.3811 -1.0825
  227MOL0     H31316   2.132  10.417  10.551 -1.2519 -1.8595 -1.5200
  227MOL0     H31317   2.131  10.257  10.621  1.4472 -0.7184 -1.2394
  227MOL0     H31318   2.378  10.431  10.595  0.2188 -0.0481 -1.0071
  227MOL0     H31319   2.388  10.266  10.654  0.7527  2.3084  1.1802
  227MOL0     H31320   2.315  10.378  10.371 -0.5776  0.0766  1.6877
  227MOL0     H31321   2.303  10.203  10.418 -0.0530 -0.6195  0.3139
  227MOL0     H31322   2.723  10.246  10.425 -0.1227  0.1488  0.2996
  227MOL0     H31323   2.341  10.148  11.012 -0.0230  1.3823 -0.1134
  227MOL0     H31324   2.646  10.019  11.030 -1.4927 -2.3241  0.2726
  227MOL0     H31325   2.627  10.130  11.171 -0.6478  2.5066 -0.3213
  227MOL0     H31326   2.491  10.035  11.113 -0.4976  0.0023  0.3767
  228MOL0     O31327   8.490   4.207   6.573  0.5293  0.5292  0.3995
  228MOL0     C31328   8.427   4.307   6.544 -0.9570 -0.2733  0.3217
  228MOL0     O31329   8.488   4.424   6.514  0.6273  0.2195 -0.1840
  228MOL0     C31330   8.618   4.448   6.534  0.3547  0.4645  0.5613
  228MOL0     C31331   8.721   4.353   6.573  0.0035 -0.2764  0.1352
  228MOL0     C31332   8.849   4.398   6.594 -0.7102  0.1045 -0.5170
  228MOL0     C31333   8.889   4.529   6.559 -0.6443 -0.5403 -0.0955
  228MOL0     O31334   9.017   4.571   6.577  0.1239  0.3345  0.2203
  228MOL0     C31335   9.120   4.501   6.652  1.1435  0.0837  0.6587
  228MOL0     C31336   9.234   4.594   6.681 -0.0480  0.3653 -1.0964
  228MOL0     C31337   9.211   4.748   6.698 -0.1692  0.5114 -0.5989
  228MOL0     C31338   9.245   4.831   6.573  0.9118  0.5293  0.0572
  228MOL0     C31339   9.218   4.983   6.594  0.0773  0.4439 -0.7585
  228MOL0     C31340   9.283   5.085   6.495  0.3073  0.2228 -0.7680
  228MOL0     C31341   9.225   5.220   6.517 -0.3658 -0.3848 -0.4639
  228MOL0     C31342   9.307   5.323   6.437  0.6507  0.3340 -0.2497
  228MOL0     N31343   9.323   5.285   6.294 -0.0142 -0.2218  0.7319
  228MOL0     C31344   9.228   5.312   6.197 -0.1350  0.0216  0.9207
  228MOL0     C31345   9.293   5.280   6.080  0.7298 -0.4061  0.5933
  228MOL0     C31346   9.243   5.312   5.939 -0.4374  0.1138  0.6684
  228MOL0     C31347   9.107   5.392   5.929 -0.0767  0.8291  0.7196
  228MOL0     C31348   9.070   5.432   5.786  0.1754  0.4054  0.7153
  228MOL0     C31349   8.937   5.494   5.783  0.5775  0.0975 -0.4356
  228MOL0     O31350   8.924   5.600   5.874 -0.1546 -0.0077 -0.3581
  228MOL0     C31351   8.826   5.685   5.868  0.1263  0.1080 -0.0398
  228MOL0     C31352   8.840   5.800   5.953  0.4167  0.2288 -0.2134
  228MOL0     C31353   8.727   5.879   5.973 -0.2687 -0.5985 -0.1235
  228MOL0     C31354   8.754   6.004   6.058 -0.0370  0.3714  0.4023
  228MOL0     C31355   8.614   5.869   5.893 -0.8794  0.5726 -0.0798
  228MOL0     C31356   8.495   5.962   5.898 -0.2278  0.0863  0.1287
  228MOL0     O31357   8.384   5.920   5.829  0.0628  0.2269 -0.0899
  228MOL0     C31358   8.265   5.995   5.827 -1.3424  0.3594 -0.0775
  228MOL0     C31359   8.159   5.934   5.880  0.2657 -0.1417 -0.4120
  228MOL0     C31360   8.037   6.011   5.904  0.1844  0.2298 -0.3315
  228MOL0     C31361   8.038   6.153   5.881 -0.4508  0.3164  0.1369
  228MOL0     O31362   7.930   6.235   5.895  0.7342 -0.1808 -0.7938
  228MOL0     C31363   7.811   6.180   5.958  0.5067 -0.1643 -0.0168
  228MOL0     C31364   7.693   6.280   5.973  0.9094 -0.3933 -0.2882
  228MOL0     C31365   7.737   6.415   6.025  0.0356 -0.6339  0.0027
  228MOL0     C31366   7.827   6.423   6.148  0.4398  0.0584  0.8460
  228MOL0     C31367   7.761   6.365   6.275  0.1798 -0.2367 -0.4659
  228MOL0     C31368   7.873   6.354   6.381  0.2949 -0.7274  0.2588
  228MOL0     C31369   7.810   6.310   6.516 -0.5331 -0.0104 -0.3461
  228MOL0     C31370   7.908   6.300   6.627 -0.3412 -0.0315 -0.0940
  228MOL0    Cl31371   7.828   6.233   6.774  0.2719  0.2800 -0.1404
  228MOL0     C31372   8.157   6.211   5.824  1.0627 -0.0262  0.3451
  228MOL0     C31373   8.270   6.135   5.796  0.6943  0.2820 -0.5099
  228MOL0     O31374   8.500   6.065   5.964 -0.5771 -0.3769  0.2113
  228MOL0     C31375   8.611   5.759   5.799 -0.3175  0.0236 -0.3560
  228MOL0     C31376   8.714   5.665   5.795 -0.2463 -0.1725 -0.6907
  228MOL0     N31377   9.422   5.235   6.110 -0.1883 -0.4896 -0.3371
  228MOL0     N31378   9.440   5.251   6.237 -0.3424  0.4361 -0.5954
  228MOL0     C31379   8.793   4.609   6.500 -0.0375  0.3602  0.4403
  228MOL0     C31380   8.658   4.578   6.500  0.5176 -0.1519  0.1143
  228MOL0     C31381   8.282   4.314   6.547 -0.1541 -0.4473 -0.4322
  228MOL0     C31382   8.220   4.444   6.579  0.4343  0.0131 -0.3089
  228MOL0     C31383   8.083   4.459   6.583 -0.1640 -1.1385  0.0508
  228MOL0     C31384   7.991   4.353   6.562  0.2235 -0.0207  0.5572
  228MOL0     O31385   7.857   4.379   6.566  0.0485  0.6938 -0.2017
  228MOL0     C31386   7.793   4.327   6.690  0.1762  0.0914 -0.8716
  228MOL0     C31387   7.643   4.348   6.669  0.2831 -0.0777  0.5945
  228MOL0     C31388   7.609   4.504   6.664 -0.1420  0.3236  0.5585
  228MOL0     C31389   7.457   4.523   6.611 -0.4656  0.4102 -0.3089
  228MOL0     C31390   7.401   4.656   6.618 -0.1381 -0.1542 -1.4248
  228MOL0     C31391   7.363   4.773   6.633 -1.4872 -0.1878  0.3720
  228MOL0     C31392   8.055   4.228   6.544  0.6529  0.3110  0.3723
  228MOL0     C31393   8.192   4.207   6.528  0.5974  0.2815 -0.1771
  228MOL0     C31394   8.243   4.069   6.502  0.9917  0.3464  0.0199
  228MOL0     H31395   8.704   4.253   6.612  0.1040 -1.2224 -2.1097
  228MOL0     H31396   8.920   4.336   6.647  1.8934  1.9796 -1.5814
  228MOL0     H31397   9.152   4.408   6.604  0.5437  1.0255 -1.7271
  228MOL0     H31398   9.073   4.479   6.748 -1.1515  1.1747 -0.1217
  228MOL0     H31399   9.284   4.554   6.769  1.6197  1.0816 -1.6852
  228MOL0     H31400   9.314   4.589   6.607 -0.4472  0.7648 -1.5616
  228MOL0     H31401   9.106   4.775   6.709  0.3699  2.2238  0.7257
  228MOL0     H31402   9.266   4.790   6.782 -0.7348 -1.4100  0.7906
  228MOL0     H31403   9.350   4.810   6.549  0.1245 -2.2328 -1.3789
  228MOL0     H31404   9.194   4.791   6.485 -1.3972 -0.5075  1.7594
  228MOL0     H31405   9.267   5.001   6.691  0.7448 -2.8167 -0.3649
  228MOL0     H31406   9.113   5.014   6.593 -0.0894  0.0647  1.0038
  228MOL0     H31407   9.391   5.084   6.513  0.3897 -1.3956 -1.1934
  228MOL0     H31408   9.261   5.053   6.393 -2.3339 -3.4297  0.7299
  228MOL0     H31409   9.233   5.229   6.626 -1.4097 -1.3028 -0.2934
  228MOL0     H31410   9.120   5.227   6.487 -0.5890  1.2621  0.5652
  228MOL0     H31411   9.250   5.416   6.441 -1.8727 -1.1683  1.2244
  228MOL0     H31412   9.406   5.344   6.480  0.9609  0.4592 -1.0066
  228MOL0     H31413   9.132   5.361   6.209  0.9538  2.8186 -0.8625
  228MOL0     H31414   9.227   5.219   5.883 -0.9752  0.7947 -0.3434
  228MOL0     H31415   9.326   5.368   5.894 -1.2859  2.3144  1.6675
  228MOL0     H31416   9.034   5.322   5.971  0.3288  1.8791  3.3207
  228MOL0     H31417   9.113   5.483   5.989  1.3499  2.1575 -1.2733
  228MOL0     H31418   9.130   5.510   5.738 -0.5991 -0.2520 -1.4452
  228MOL0     H31419   9.076   5.340   5.727  1.0468 -0.2925  1.8368
  228MOL0     H31420   8.908   5.511   5.679  2.9855 -2.7893 -1.7505
  228MOL0     H31421   8.873   5.410   5.810 -0.3508  0.9629  0.1122
  228MOL0     H31422   8.929   5.832   6.007 -0.8955  0.8838  1.6632
  228MOL0     H31423   8.674   6.012   6.132 -1.3697  1.1191 -1.0465
  228MOL0     H31424   8.749   6.093   5.995 -0.2118  0.8336  1.0567
  228MOL0     H31425   8.852   6.006   6.107  0.9805  3.5643 -1.4013
  228MOL0     H31426   8.158   5.827   5.897  0.2157 -0.4935 -2.3521
  228MOL0     H31427   7.943   5.962   5.926  1.0360 -2.8961 -2.9101
  228MOL0     H31428   7.768   6.103   5.893  2.3933 -0.0422 -1.4859
  228MOL0     H31429   7.836   6.139   6.057  4.8236 -0.2041 -0.9577
  228MOL0     H31430   7.653   6.297   5.872  0.2715  0.6152  0.1216
  228MOL0     H31431   7.608   6.242   6.029 -0.1420  0.6802 -1.0841
  228MOL0     H31432   7.649   6.479   6.039 -0.5994 -1.2444 -1.0907
  228MOL0     H31433   7.788   6.463   5.941 -2.0141 -2.2937 -2.3191
  228MOL0     H31434   7.867   6.525   6.144 -1.0184  0.6585 -2.5742
  228MOL0     H31435   7.912   6.360   6.118  1.2792  0.0023  3.1369
  228MOL0     H31436   7.684   6.437   6.305  1.2045  0.9095 -0.5282
  228MOL0     H31437   7.718   6.264   6.265  0.6644 -0.7401  1.9356
  228MOL0     H31438   7.920   6.453   6.391  0.8354 -1.1441  2.2232
  228MOL0     H31439   7.957   6.287   6.358 -0.8026 -1.5274 -1.5988
  228MOL0     H31440   7.772   6.210   6.497 -0.2990 -0.4997  1.6179
  228MOL0     H31441   7.729   6.378   6.543  0.5519  0.9537  0.6124
  228MOL0     H31442   7.952   6.397   6.651  0.0364 -0.1127 -0.4515
  228MOL0     H31443   7.990   6.239   6.590  0.7918  1.8292 -0.7655
  228MOL0     H31444   8.163   6.314   5.790  0.9980 -0.6254 -1.6631
  228MOL0     H31445   8.353   6.182   5.744  1.4899  2.6575  2.6095
  228MOL0     H31446   8.527   5.746   5.732  0.2573 -0.7978 -0.9429
  228MOL0     H31447   8.698   5.579   5.732  0.3586 -0.1547 -0.8811
  228MOL0     H31448   8.818   4.711   6.471  1.7095 -0.8930 -3.0902
  228MOL0     H31449   8.582   4.652   6.478  0.8227 -0.3734 -1.8670
  228MOL0     H31450   8.276   4.534   6.599  0.4872  0.1231 -0.9326
  228MOL0     H31451   8.041   4.556   6.606  1.4246 -0.8899  2.3559
  228MOL0     H31452   7.820   4.223   6.708  0.7201  0.2905 -0.5283
  228MOL0     H31453   7.830   4.392   6.770 -0.3172 -1.0835  0.3507
  228MOL0     H31454   7.587   4.308   6.755  0.0895  0.3559  0.6727
  228MOL0     H31455   7.621   4.297   6.575  0.3277  0.6147  0.2021
  228MOL0     H31456   7.627   4.550   6.762 -0.9294 -1.0188  1.3600
  228MOL0     H31457   7.666   4.557   6.587  0.1228 -1.2990 -0.3970
  228MOL0     H31458   7.402   4.462   6.683 -0.5939 -0.5408 -1.1886
  228MOL0     H31459   7.446   4.487   6.508  1.4363  0.4254 -0.5585
  228MOL0     H31460   7.314   4.868   6.637 -0.5813  0.3056 -0.0630
  228MOL0     H31461   7.986   4.146   6.527 -1.7025  2.1837  0.3796
  228MOL0     H31462   8.171   4.004   6.451  0.1958  3.0196 -2.5665
  228MOL0     H31463   8.335   4.073   6.444  2.0571 -2.2205  1.3805
  228MOL0     H31464   8.275   4.032   6.599  0.9619  2.9131  1.0834
  229MOL0     O31465   8.006   1.519   2.650 -0.1472 -0.0231  0.4607
  229MOL0     C31466   8.030   1.406   2.708 -0.1575 -0.2316  0.7525
  229MOL0     O31467   8.153   1.359   2.729  1.2269 -0.5898 -0.2669
  229MOL0     C31468   8.255   1.420   2.668  0.1995  0.3879 -0.0427
  229MOL0     C31469   8.259   1.462   2.532  1.1183 -0.4835  0.7062
  229MOL0     C31470   8.382   1.493   2.469 -0.0996 -0.3137 -0.0870
  229MOL0     C31471   8.501   1.501   2.549 -0.4544  0.9557 -0.2361
  229MOL0     O31472   8.621   1.545   2.498 -0.1165  0.5082  0.2387
  229MOL0     C31473   8.667   1.486   2.370  0.4002 -0.5505  0.0345
  229MOL0     C31474   8.810   1.439   2.378 -0.6527  0.2457 -0.7304
  229MOL0     C31475   8.904   1.540   2.445 -0.1398 -0.2371 -1.1702
  229MOL0     C31476   9.051   1.483   2.466 -0.1619 -0.0220  0.6905
  229MOL0     C31477   9.130   1.482   2.337 -0.4229  0.1276  0.1295
  229MOL0     C31478   9.260   1.420   2.369 -0.0193 -0.2708 -0.0072
  229MOL0     C31479   9.349   1.419   2.245  0.5884  0.9317  0.5706
  229MOL0     C31480   9.489   1.434   2.296 -1.0897  0.0612  0.0022
  229MOL0     N31481   9.586   1.390   2.192  0.0133 -0.1249  0.4561
  229MOL0     C31482   9.644   1.267   2.196  0.7184 -0.0800  0.4479
  229MOL0     C31483   9.718   1.259   2.086  1.0276 -0.4527 -0.6613
  229MOL0     C31484   9.798   1.142   2.039  0.2014  0.4649  1.1630
  229MOL0     C31485   9.943   1.184   2.003 -0.5107  0.0526 -0.3625
  229MOL0     C31486  10.044   1.074   1.964 -0.4585 -1.0959  0.6902
  229MOL0     C31487  10.011   0.997   1.840 -0.1140  0.4686  0.0152
  229MOL0     O31488   9.917   0.891   1.858  0.0613  0.4211  0.4594
  229MOL0     C31489   9.868   0.830   1.747  0.0721 -1.0832  0.1961
  229MOL0     C31490   9.919   0.708   1.712  0.1816  0.0903 -0.6838
  229MOL0     C31491   9.879   0.639   1.596  0.4480 -1.0424 -0.0641
  229MOL0     C31492   9.922   0.502   1.573 -0.5917  0.9360  0.3174
  229MOL0     C31493   9.776   0.704   1.518  0.4580  0.4637  0.8327
  229MOL0     C31494   9.727   0.652   1.393  0.7408 -0.3098 -0.0901
  229MOL0     O31495   9.595   0.623   1.374 -0.8032  0.2199  0.5120
  229MOL0     C31496   9.528   0.576   1.481  0.2241  0.1226 -0.3404
  229MOL0     C31497   9.418   0.637   1.532  0.6515 -0.1018 -0.2743
  229MOL0     C31498   9.335   0.580   1.632  0.4553 -0.2452  0.0841
  229MOL0     C31499   9.385   0.478   1.708  0.3821  0.4109  0.1950
  229MOL0     O31500   9.321   0.429   1.815  0.7240 -0.0592  0.4604
  229MOL0     C31501   9.205   0.347   1.792  0.3315 -0.1500  1.3575
  229MOL0     C31502   9.236   0.225   1.690 -0.1303  0.3054  0.1347
  229MOL0     C31503   9.115   0.164   1.627 -0.2537  0.0974 -0.4955
  229MOL0     C31504   9.145   0.044   1.535 -0.3670  0.1785  0.9873
  229MOL0     C31505   9.033  -0.060   1.548  0.4980 -0.1341  0.2057
  229MOL0     C31506   9.067  -0.169   1.437 -0.9344  0.3049  0.7096
  229MOL0     C31507   8.954  -0.270   1.408 -0.1805 -0.5026  0.5158
  229MOL0     C31508   8.990  -0.367   1.304 -0.0557 -0.0532 -0.2213
  229MOL0    Cl31509   8.896  -0.518   1.314  0.0448  0.0288  0.3464
  229MOL0     C31510   9.497   0.420   1.663 -0.2533  1.1863  1.0167
  229MOL0     C31511   9.560   0.453   1.543  0.4552 -0.2441  0.3933
  229MOL0     O31512   9.807   0.674   1.302  0.5115 -0.5234 -0.1016
  229MOL0     C31513   9.716   0.822   1.569 -0.3874 -1.0048 -0.3598
  229MOL0     C31514   9.762   0.892   1.680  0.2167 -0.0368  0.6979
  229MOL0     N31515   9.712   1.381   2.022 -0.0709  0.5691 -0.0537
  229MOL0     N31516   9.626   1.454   2.081  0.1432 -0.4835 -0.5687
  229MOL0     C31517   8.494   1.464   2.685 -0.3786 -0.7462  0.4648
  229MOL0     C31518   8.372   1.425   2.735 -0.5601  0.2356 -0.9489
  229MOL0     C31519   7.917   1.317   2.745 -0.0398 -0.5940 -1.2941
  229MOL0     C31520   7.953   1.201   2.823  0.7395 -0.0623 -1.5609
  229MOL0     C31521   7.861   1.132   2.894 -0.6376 -0.0236  0.3057
  229MOL0     C31522   7.729   1.156   2.881  0.4653  0.1817  0.0980
  229MOL0     O31523   7.617   1.097   2.950 -0.0869  0.3279  0.4378
  229MOL0     C31524   7.643   1.011   3.058 -0.7811  0.0429 -0.0442
  229MOL0     C31525   7.666   1.094   3.180 -0.8272 -0.2964  0.0072
  229MOL0     C31526   7.553   1.187   3.207  0.2188 -0.9350 -0.1588
  229MOL0     C31527   7.596   1.285   3.320  0.0165 -0.4331  0.3732
  229MOL0     C31528   7.482   1.375   3.363  0.0705  0.1669  0.4519
  229MOL0     C31529   7.401   1.463   3.389 -0.5998 -0.5641 -0.3099
  229MOL0     C31530   7.688   1.257   2.796 -0.1538 -0.2161  0.3796
  229MOL0     C31531   7.780   1.343   2.729  0.4126  0.0544  0.7359
  229MOL0     C31532   7.722   1.444   2.634  0.2969 -0.3324  0.3360
  229MOL0     H31533   8.165   1.471   2.478 -0.7255  2.6251  3.9867
  229MOL0     H31534   8.384   1.515   2.363 -0.7274 -2.0919 -0.5044
  229MOL0     H31535   8.659   1.559   2.289  1.3556  0.2716  0.6448
  229MOL0     H31536   8.602   1.405   2.336 -0.6251  0.2292  0.0802
  229MOL0     H31537   8.820   1.343   2.430 -1.3787 -0.3083 -1.5774
  229MOL0     H31538   8.845   1.426   2.276 -0.8897  1.3798 -0.9664
  229MOL0     H31539   8.912   1.629   2.382  0.4034 -0.7155 -1.7890
  229MOL0     H31540   8.866   1.569   2.543 -0.5273 -2.4898 -0.5992
  229MOL0     H31541   9.100   1.555   2.532 -0.0822  0.9562 -0.3959
  229MOL0     H31542   9.044   1.384   2.512  0.2158  0.7680  2.5093
  229MOL0     H31543   9.143   1.587   2.309 -1.2053  0.8802  2.3457
  229MOL0     H31544   9.080   1.419   2.263 -0.4830 -1.5314  1.5442
  229MOL0     H31545   9.304   1.479   2.449  0.5472  0.6155 -0.9543
  229MOL0     H31546   9.250   1.319   2.411  4.5726  0.3962  3.4353
  229MOL0     H31547   9.340   1.504   2.177 -1.0703  1.1777  1.0527
  229MOL0     H31548   9.340   1.325   2.189  2.1250  0.7409  0.6063
  229MOL0     H31549   9.506   1.539   2.322 -0.5788  0.5617 -2.1288
  229MOL0     H31550   9.505   1.379   2.389  1.7882 -0.9826 -1.0171
  229MOL0     H31551   9.636   1.205   2.285  0.9549 -1.5476 -0.5263
  229MOL0     H31552   9.744   1.100   1.954  0.2022  1.2498  0.7671
  229MOL0     H31553   9.798   1.077   2.128 -0.6487 -0.0454  0.8001
  229MOL0     H31554   9.948   1.252   1.918 -1.2904 -0.4067 -0.7919
  229MOL0     H31555   9.987   1.235   2.089  0.5020 -2.0206  0.4267
  229MOL0     H31556  10.140   1.121   1.943 -1.0527 -0.2090 -0.1468
  229MOL0     H31557  10.054   1.008   2.050  2.0543 -2.7363 -0.7669
  229MOL0     H31558   9.983   1.069   1.762  0.3225  1.3544  0.6569
  229MOL0     H31559  10.102   0.953   1.800 -1.1744 -0.3732 -1.5610
  229MOL0     H31560  10.000   0.679   1.778 -0.3528  1.7574  0.7720
  229MOL0     H31561   9.858   0.418   1.601  0.1718 -0.8102 -2.7556
  229MOL0     H31562  10.026   0.502   1.605  0.1049 -2.0402 -1.5801
  229MOL0     H31563   9.917   0.474   1.468  1.6363 -0.0559  0.4276
  229MOL0     H31564   9.384   0.733   1.496 -1.0409  0.8366  3.3584
  229MOL0     H31565   9.256   0.637   1.680 -0.2213 -2.4662  1.7923
  229MOL0     H31566   9.186   0.311   1.893  2.6129  0.1417  1.9281
  229MOL0     H31567   9.123   0.409   1.753  0.1222 -1.3701 -0.2691
  229MOL0     H31568   9.277   0.276   1.602 -2.6398  3.2302  0.4919
  229MOL0     H31569   9.299   0.146   1.731  0.9457  1.3325  0.5246
  229MOL0     H31570   9.065   0.248   1.579  1.0167  2.8099  2.5172
  229MOL0     H31571   9.053   0.129   1.710  1.1368 -0.2841  0.4123
  229MOL0     H31572   9.239  -0.004   1.563 -2.0179 -1.1796  4.7273
  229MOL0     H31573   9.162   0.075   1.431  3.0852  0.9210  1.6629
  229MOL0     H31574   9.025  -0.104   1.648 -1.5024  0.0975  0.1930
  229MOL0     H31575   8.934  -0.016   1.537  1.1873  1.9214  1.6636
  229MOL0     H31576   9.156  -0.226   1.466 -1.3366 -1.1872 -0.8210
  229MOL0     H31577   9.091  -0.121   1.342  0.6550 -1.2909  0.2509
  229MOL0     H31578   8.861  -0.225   1.371  0.1597  0.1703  0.4631
  229MOL0     H31579   8.928  -0.318   1.502 -1.8877  3.1552  2.1339
  229MOL0     H31580   9.098  -0.381   1.317  0.3281  2.1320 -0.6431
  229MOL0     H31581   8.974  -0.326   1.204  2.3276  0.0170 -0.6225
  229MOL0     H31582   9.537   0.342   1.727 -0.6348  0.2845  0.1593
  229MOL0     H31583   9.635   0.387   1.502 -1.9187 -2.5928 -0.4786
  229MOL0     H31584   9.626   0.867   1.527 -0.6105  3.5401  4.1130
  229MOL0     H31585   9.710   0.985   1.704  0.2837  0.5330 -1.2308
  229MOL0     H31586   8.581   1.460   2.749 -1.3356 -0.6078  1.8022
  229MOL0     H31587   8.390   1.380   2.833 -1.0338 -1.2312 -1.5080
  229MOL0     H31588   8.053   1.171   2.851 -0.0611 -1.6083 -0.1896
  229MOL0     H31589   7.904   1.057   2.960  0.1643 -1.9497 -2.2604
  229MOL0     H31590   7.552   0.954   3.078 -0.1584 -0.7701  0.5814
  229MOL0     H31591   7.730   0.946   3.043 -0.8324 -0.0188 -0.0804
  229MOL0     H31592   7.761   1.147   3.169 -1.3244  0.7272  0.5103
  229MOL0     H31593   7.672   1.020   3.261 -0.0260 -1.1458 -0.7944
  229MOL0     H31594   7.520   1.237   3.116  1.6363 -0.1176 -0.2483
  229MOL0     H31595   7.462   1.138   3.243 -0.1505  1.3437  2.3704
  229MOL0     H31596   7.670   1.358   3.285 -2.1696  2.6887  1.7306
  229MOL0     H31597   7.649   1.232   3.400  0.1837  1.4429  1.5823
  229MOL0     H31598   7.338   1.548   3.406  0.5202  0.1759  0.2307
  229MOL0     H31599   7.581   1.271   2.786  0.0580  0.5691 -1.3091
  229MOL0     H31600   7.760   1.459   2.532 -0.0757  2.0117  0.4871
  229MOL0     H31601   7.616   1.419   2.630  0.1468  0.2327  0.6269
  229MOL0     H31602   7.731   1.546   2.674  0.1232  0.0619 -0.5969
  230MOL0     O31603   7.971   0.180   2.987 -0.7453 -0.1153  0.6780
  230MOL0     C31604   7.977   0.142   2.869  0.2459  1.1107  1.3482
  230MOL0     O31605   8.065   0.179   2.778 -0.4545  0.3277  0.8266
  230MOL0     C31606   8.167   0.272   2.797 -1.0118  0.0225  0.2002
  230MOL0     C31607   8.193   0.342   2.677  0.5244 -0.4759  0.4856
  230MOL0     C31608   8.295   0.440   2.670  0.6851 -0.1269  0.7546
  230MOL0     C31609   8.362   0.475   2.784 -0.2434  0.6950 -0.4203
  230MOL0     O31610   8.458   0.572   2.770 -0.1387  0.0978  0.2946
  230MOL0     C31611   8.583   0.511   2.799 -0.3400  0.1423 -0.1146
  230MOL0     C31612   8.690   0.626   2.779  0.5008  0.0118 -0.0681
  230MOL0     C31613   8.830   0.561   2.783 -0.3916  0.4976  0.0738
  230MOL0     C31614   8.880   0.522   2.919  0.3297 -0.3042 -0.1988
  230MOL0     C31615   9.033   0.515   2.928  0.7662 -0.5585 -0.2567
  230MOL0     C31616   9.080   0.431   3.055 -0.1428  0.3132  0.1399
  230MOL0     C31617   9.220   0.394   3.023 -0.4430 -0.6553 -0.2289
  230MOL0     C31618   9.318   0.502   3.060 -0.7852 -0.4913 -0.2760
  230MOL0     N31619   9.458   0.465   3.031  1.0027  0.4513 -0.1142
  230MOL0     C31620   9.518   0.373   2.944 -0.1203  1.2514  0.4258
  230MOL0     C31621   9.648   0.380   2.973 -0.4063 -0.4263 -0.4785
  230MOL0     C31622   9.748   0.319   2.872  0.2623 -0.0492 -0.2057
  230MOL0     C31623   9.896   0.284   2.909  0.1537  0.3700  0.3646
  230MOL0     C31624   9.976   0.409   2.917  0.2737 -0.5100 -0.7877
  230MOL0     C31625  10.130   0.387   2.939  0.1482  1.1280 -0.3503
  230MOL0     O31626  10.203   0.404   2.812  0.6399  0.0861  0.5409
  230MOL0     C31627  10.337   0.391   2.831 -0.6429 -0.4223  0.5626
  230MOL0     C31628  10.405   0.297   2.913 -0.5030 -0.6237  0.0237
  230MOL0     C31629  10.543   0.291   2.918  0.0316  0.3981  0.0194
  230MOL0     C31630  10.590   0.171   3.005  0.9487 -1.1565  0.5081
  230MOL0     C31631  10.626   0.369   2.835  0.2512  0.5595  0.1142
  230MOL0     C31632  10.774   0.378   2.843  0.1264  0.4989  1.0185
  230MOL0     O31633  10.841   0.432   2.733  0.2345  0.4330 -0.5881
  230MOL0     C31634  10.971   0.451   2.741 -0.3198 -0.5702 -0.1689
  230MOL0     C31635  11.066   0.350   2.764 -0.1706  0.1367 -0.1679
  230MOL0     C31636  11.203   0.382   2.784 -0.1147 -0.0263 -0.5843
  230MOL0     C31637  11.248   0.507   2.769  0.8934 -0.6894 -0.2866
  230MOL0     O31638  11.376   0.545   2.778  0.7113 -0.0409  0.3251
  230MOL0     C31639  11.447   0.556   2.651 -0.0518  1.0739 -0.6191
  230MOL0     C31640  11.601   0.583   2.681  0.4310 -0.9188  0.5522
  230MOL0     C31641  11.673   0.478   2.770  1.3401  0.1937  0.3369
  230MOL0     C31642  11.790   0.539   2.850 -0.3816  0.0674 -0.0915
  230MOL0     C31643  11.912   0.560   2.757 -0.3252 -0.3501 -0.6045
  230MOL0     C31644  12.041   0.602   2.834 -0.0241  0.4393 -0.1997
  230MOL0     C31645  12.163   0.579   2.742 -0.6696  0.6787  0.4703
  230MOL0     C31646  12.291   0.597   2.812 -0.5035 -0.3975 -0.6012
  230MOL0    Cl31647  12.310   0.748   2.909  0.2963  0.6025  0.6377
  230MOL0     C31648  11.149   0.607   2.740 -0.3080  0.0733  0.2597
  230MOL0     C31649  11.014   0.582   2.722  0.2277  0.4223 -0.9926
  230MOL0     O31650  10.826   0.325   2.943 -0.1549 -0.8215  0.6339
  230MOL0     C31651  10.558   0.453   2.739  0.9094 -0.2637 -0.1421
  230MOL0     C31652  10.419   0.474   2.744  0.2418  0.0094 -0.0493
  230MOL0     N31653   9.666   0.463   3.073 -0.1168  0.4875  0.3593
  230MOL0     N31654   9.557   0.519   3.111  0.1118  0.5502 -0.2250
  230MOL0     C31655   8.334   0.421   2.904 -1.1224  0.2937 -0.2805
  230MOL0     C31656   8.242   0.313   2.908  0.5300 -0.6413  0.1594
  230MOL0     C31657   7.888   0.035   2.827  0.2042  0.7611  0.1317
  230MOL0     C31658   7.801   0.055   2.721 -0.0686  0.8067 -0.3351
  230MOL0     C31659   7.705  -0.037   2.674 -0.1005  0.1945 -0.2380
  230MOL0     C31660   7.703  -0.163   2.732  0.2069  0.3152  0.5413
  230MOL0     O31661   7.615  -0.259   2.680 -0.0153 -0.4131  0.7962
  230MOL0     C31662   7.543  -0.337   2.776  0.8101 -0.0637 -0.1928
  230MOL0     C31663   7.430  -0.238   2.825  0.7453  0.4043 -0.0081
  230MOL0     C31664   7.318  -0.316   2.885  0.6000 -0.6540  0.0588
  230MOL0     C31665   7.211  -0.220   2.942 -0.2169 -0.0680  0.7686
  230MOL0     C31666   7.087  -0.294   2.969 -0.0200  0.6938 -0.3339
  230MOL0     C31667   6.974  -0.343   2.987  0.4024  0.2904  0.1901
  230MOL0     C31668   7.786  -0.183   2.841 -0.3055 -0.7039  0.2042
  230MOL0     C31669   7.883  -0.094   2.886  0.0035 -0.3085  0.3812
  230MOL0     C31670   7.992  -0.128   2.985  0.2491  0.4791 -0.1180
  230MOL0     H31671   8.142   0.308   2.587  3.3079  0.1020 -1.4195
  230MOL0     H31672   8.303   0.489   2.574  1.6858  1.3730  1.5508
  230MOL0     H31673   8.601   0.426   2.733  0.0581 -0.9025  1.2885
  230MOL0     H31674   8.596   0.471   2.900 -2.0978 -0.9365 -0.2814
  230MOL0     H31675   8.694   0.681   2.684  3.8988  5.0503  2.4650
  230MOL0     H31676   8.673   0.699   2.859  1.3546 -0.6053  0.6936
  230MOL0     H31677   8.825   0.480   2.709 -1.3214  0.9716 -0.3982
  230MOL0     H31678   8.910   0.625   2.745  1.1355 -0.8459  0.8958
  230MOL0     H31679   8.854   0.595   2.996  0.3271 -0.9712  0.4437
  230MOL0     H31680   8.835   0.427   2.947 -0.0637 -1.4053 -3.9428
  230MOL0     H31681   9.083   0.611   2.941 -0.2460  0.0736 -0.8550
  230MOL0     H31682   9.059   0.487   2.826  0.3472 -0.4344 -0.4033
  230MOL0     H31683   9.066   0.487   3.148 -1.6924 -0.9784  0.7250
  230MOL0     H31684   9.033   0.333   3.066  3.3901 -1.3646  2.2422
  230MOL0     H31685   9.223   0.364   2.918  1.8078 -3.0683  0.4237
  230MOL0     H31686   9.247   0.309   3.086 -2.8957 -0.9679  0.4935
  230MOL0     H31687   9.318   0.591   2.996  1.4418 -1.3334 -1.5624
  230MOL0     H31688   9.307   0.535   3.164  2.5113  1.5580 -0.4249
  230MOL0     H31689   9.473   0.319   2.861  1.0465 -1.1438  1.2795
  230MOL0     H31690   9.738   0.384   2.785 -1.0133 -0.7057 -0.5695
  230MOL0     H31691   9.716   0.218   2.845  2.1522 -0.4574 -1.0619
  230MOL0     H31692   9.898   0.235   3.007 -2.3456 -0.2601  0.1473
  230MOL0     H31693   9.945   0.213   2.842  5.1501  2.9338  0.7819
  230MOL0     H31694   9.956   0.467   2.826 -0.7000  2.6315  1.2533
  230MOL0     H31695   9.941   0.472   2.999  1.0580 -1.7221  0.5250
  230MOL0     H31696  10.184   0.454   3.007  1.6380 -0.8331  0.5279
  230MOL0     H31697  10.143   0.288   2.984  4.1546  2.1117  1.1787
  230MOL0     H31698  10.347   0.237   2.982  0.5652 -1.7225 -0.0037
  230MOL0     H31699  10.657   0.202   3.086  0.5622  2.0825 -0.2566
  230MOL0     H31700  10.641   0.095   2.944  2.7118 -0.1854  0.6980
  230MOL0     H31701  10.504   0.146   3.067  1.4495 -0.1899  1.6435
  230MOL0     H31702  11.033   0.249   2.785  1.0944  0.1047  1.9461
  230MOL0     H31703  11.269   0.300   2.812  2.4061  1.9373 -0.4561
  230MOL0     H31704  11.446   0.455   2.610 -3.2263 -0.2857  2.3216
  230MOL0     H31705  11.400   0.630   2.586  0.1810  3.3267  1.6001
  230MOL0     H31706  11.646   0.568   2.583  0.2426  0.9828  0.1352
  230MOL0     H31707  11.606   0.688   2.712 -1.2447 -0.9013  0.8651
  230MOL0     H31708  11.695   0.386   2.714 -0.0447 -0.6514  1.1141
  230MOL0     H31709  11.604   0.437   2.844 -2.5915  2.9061 -1.4951
  230MOL0     H31710  11.820   0.474   2.933 -1.4516  0.7744  0.8741
  230MOL0     H31711  11.757   0.636   2.889  1.5055  0.9808 -0.6583
  230MOL0     H31712  11.938   0.470   2.701  0.8290  0.4562 -1.4008
  230MOL0     H31713  11.881   0.632   2.681 -3.2680 -0.0583  0.7336
  230MOL0     H31714  12.049   0.551   2.930  1.4610  3.0453  1.1781
  230MOL0     H31715  12.026   0.707   2.862 -1.0980 -0.0290  1.0699
  230MOL0     H31716  12.163   0.653   2.662 -2.0973  1.0739  0.8015
  230MOL0     H31717  12.160   0.478   2.700 -0.3273  0.9171 -0.1344
  230MOL0     H31718  12.368   0.602   2.734 -0.6485  0.9732 -0.6742
  230MOL0     H31719  12.316   0.515   2.880 -2.2156 -2.0662 -1.8813
  230MOL0     H31720  11.187   0.709   2.744  1.2891 -0.5292  2.7646
  230MOL0     H31721  10.941   0.660   2.702  0.4614  1.5402  2.1210
  230MOL0     H31722  10.612   0.516   2.669  1.3851  2.2044  2.2778
  230MOL0     H31723  10.376   0.545   2.674  1.1508  1.1890  0.5461
  230MOL0     H31724   8.380   0.449   2.998 -2.4522  0.4903  0.3229
  230MOL0     H31725   8.217   0.277   3.007 -1.9193 -1.0882 -0.5364
  230MOL0     H31726   7.800   0.153   2.673 -1.8427  0.6791 -0.5905
  230MOL0     H31727   7.640  -0.017   2.589  1.4142  1.5795 -1.1298
  230MOL0     H31728   7.486  -0.412   2.720 -1.4085  1.1533  0.3032
  230MOL0     H31729   7.596  -0.366   2.867  0.2920  0.3196  0.2371
  230MOL0     H31730   7.401  -0.178   2.737 -2.2230 -0.8218  0.0009
  230MOL0     H31731   7.471  -0.170   2.900  2.4639  0.5414 -1.0211
  230MOL0     H31732   7.271  -0.364   2.798  0.5612 -1.5106  0.5429
  230MOL0     H31733   7.351  -0.391   2.957  0.4961  0.4419  1.2992
  230MOL0     H31734   7.199  -0.148   2.860  2.2832 -2.4947 -1.9770
  230MOL0     H31735   7.239  -0.176   3.038 -2.1319 -0.8538  1.7547
  230MOL0     H31736   6.881  -0.395   3.002  1.9514 -2.8808 -0.2871
  230MOL0     H31737   7.777  -0.273   2.900  0.2415  0.6863  2.5129
  230MOL0     H31738   8.008  -0.237   2.980  1.1995  0.2267  4.3797
  230MOL0     H31739   8.094  -0.095   2.964  0.9015 -0.9710  0.6398
  230MOL0     H31740   7.972  -0.102   3.089 -0.2991  0.4276 -0.2059
  231MOL0     O31741   3.582   5.896   3.601  0.0583  0.0675  0.1172
  231MOL0     C31742   3.534   5.842   3.706  0.3743 -0.2477 -0.1556
  231MOL0     O31743   3.546   5.890   3.839 -0.6277  0.0413  0.0788
  231MOL0     C31744   3.616   6.009   3.846 -0.3213 -1.0240 -0.4326
  231MOL0     C31745   3.589   6.125   3.774 -0.9216 -0.8308  1.0012
  231MOL0     C31746   3.665   6.244   3.787 -0.0567  0.6824 -0.1816
  231MOL0     C31747   3.768   6.243   3.886  0.3160  0.7838  0.2555
  231MOL0     O31748   3.856   6.343   3.920  0.8876 -0.7723 -0.2957
  231MOL0     C31749   3.824   6.481   3.878  0.7018 -0.2480  0.5912
  231MOL0     C31750   3.921   6.585   3.934  0.0649  0.1539  0.2485
  231MOL0     C31751   4.070   6.549   3.900  0.1774  0.2860  0.3917
  231MOL0     C31752   4.169   6.646   3.967  0.0837 -0.3003 -0.4343
  231MOL0     C31753   4.170   6.793   3.913  0.2759  0.2405 -0.2870
  231MOL0     C31754   4.218   6.887   4.025  0.1776 -0.1010 -0.8173
  231MOL0     C31755   4.353   6.870   4.075  0.3197  0.2560  0.5237
  231MOL0     C31756   4.461   6.878   3.969  0.0367 -0.5233  0.0241
  231MOL0     N31757   4.458   7.011   3.907  0.5592 -0.2406  0.9845
  231MOL0     C31758   4.492   7.135   3.957 -0.2324 -0.0139 -0.4004
  231MOL0     C31759   4.460   7.228   3.877 -0.2971  0.3112  0.2240
  231MOL0     C31760   4.485   7.379   3.891  0.4058  0.2244  0.7409
  231MOL0     C31761   4.592   7.442   3.803  0.4300  0.3989  0.3867
  231MOL0     C31762   4.713   7.353   3.761  0.2142  0.6977 -0.3828
  231MOL0     C31763   4.809   7.434   3.684 -0.7086  0.1424 -0.5719
  231MOL0     O31764   4.771   7.469   3.558  0.3399  0.1188  0.7973
  231MOL0     C31765   4.862   7.473   3.454 -0.6873 -0.9768  0.6038
  231MOL0     C31766   4.802   7.455   3.331 -0.2458 -0.6383 -0.8884
  231MOL0     C31767   4.875   7.439   3.214 -0.5810  0.3274  0.4398
  231MOL0     C31768   4.798   7.427   3.083 -0.1428 -0.6553 -0.7846
  231MOL0     C31769   5.015   7.443   3.215 -0.0807  0.5887 -0.4523
  231MOL0     C31770   5.107   7.430   3.106 -0.2864  0.8578 -0.2483
  231MOL0     O31771   5.230   7.471   3.117 -0.0134  0.4260  0.1902
  231MOL0     C31772   5.316   7.413   3.033 -0.2505 -0.4166  0.1634
  231MOL0     C31773   5.348   7.279   3.027  0.1301  0.3762 -0.5597
  231MOL0     C31774   5.474   7.237   2.987 -0.2622 -0.2980  0.0408
  231MOL0     C31775   5.553   7.320   2.903  0.2842  0.1701 -0.2434
  231MOL0     O31776   5.669   7.269   2.857 -0.8370 -0.3649  0.0866
  231MOL0     C31777   5.776   7.366   2.822  0.1251 -0.3334  0.0404
  231MOL0     C31778   5.911   7.300   2.804  0.5506 -0.3748 -0.2075
  231MOL0     C31779   5.903   7.194   2.697 -0.3469  0.1507  0.3952
  231MOL0     C31780   6.032   7.137   2.654  0.5488 -0.0160  0.4641
  231MOL0     C31781   6.007   7.035   2.543 -0.2633 -0.1874  0.3983
  231MOL0     C31782   5.957   7.081   2.414 -0.4353 -0.2976 -0.5557
  231MOL0     C31783   6.065   7.167   2.347 -0.4157  0.4084 -0.5198
  231MOL0     C31784   6.071   7.144   2.197  0.6963  0.1684  0.2320
  231MOL0    Cl31785   5.906   7.177   2.123 -0.1275 -0.1744 -0.0001
  231MOL0     C31786   5.505   7.444   2.882 -0.3024  0.7325  0.6237
  231MOL0     C31787   5.395   7.500   2.953  0.2127  0.4811 -0.3595
  231MOL0     O31788   5.062   7.386   2.999  0.2945  0.4945  0.4197
  231MOL0     C31789   5.070   7.487   3.341  0.1976 -0.5913  0.4784
  231MOL0     C31790   4.994   7.496   3.459 -0.0271  0.3109  0.4240
  231MOL0     N31791   4.406   7.169   3.767  0.1164  0.5350  0.1503
  231MOL0     N31792   4.394   7.039   3.796  0.2447 -0.3745 -0.2220
  231MOL0     C31793   3.793   6.125   3.966  0.2610 -0.4846  1.0031
  231MOL0     C31794   3.717   6.013   3.947 -0.8141 -0.3393 -0.2973
  231MOL0     C31795   3.450   5.725   3.675  0.0117  0.3873 -0.1412
  231MOL0     C31796   3.506   5.628   3.595  0.1304  0.2069  0.2253
  231MOL0     C31797   3.449   5.503   3.586  0.7289  0.5248  0.7306
  231MOL0     C31798   3.308   5.483   3.617  0.3774 -0.1268 -0.2674
  231MOL0     O31799   3.242   5.373   3.565 -0.0705  0.7614 -0.1871
  231MOL0     C31800   3.105   5.366   3.600 -0.7571 -0.3513 -0.5381
  231MOL0     C31801   3.077   5.212   3.579 -0.3678 -0.3291 -0.3125
  231MOL0     C31802   2.918   5.185   3.592 -0.3047 -0.5399 -0.0417
  231MOL0     C31803   2.847   5.258   3.471  0.2463 -0.4861 -0.2874
  231MOL0     C31804   2.706   5.210   3.470  0.8105 -0.2007  0.0970
  231MOL0     C31805   2.588   5.178   3.460  0.4344 -0.0347  0.1899
  231MOL0     C31806   3.251   5.587   3.689 -0.0261 -0.7850 -1.1793
  231MOL0     C31807   3.321   5.704   3.728 -0.1339 -0.2050  0.1563
  231MOL0     C31808   3.254   5.810   3.805  0.0264 -0.1191 -0.6077
  231MOL0     H31809   3.503   6.123   3.706 -1.0506  0.7756  1.0836
  231MOL0     H31810   3.642   6.338   3.738  1.6085  0.5154 -1.3990
  231MOL0     H31811   3.728   6.519   3.914  0.4759  2.2126 -2.2476
  231MOL0     H31812   3.819   6.494   3.770  0.0566 -0.9909  0.5263
  231MOL0     H31813   3.906   6.688   3.899 -1.0954  0.8727  2.6397
  231MOL0     H31814   3.911   6.588   4.043 -3.4535 -0.4666  0.0688
  231MOL0     H31815   4.102   6.448   3.928  0.7692 -0.2445 -1.8989
  231MOL0     H31816   4.074   6.569   3.792  1.1229  1.1244  0.5659
  231MOL0     H31817   4.152   6.646   4.075  1.3421 -1.4220 -0.2194
  231MOL0     H31818   4.271   6.611   3.955  0.2459 -0.4896  1.2016
  231MOL0     H31819   4.063   6.808   3.896 -0.3468 -2.4998  0.7215
  231MOL0     H31820   4.232   6.791   3.824  1.7223 -0.3830  0.6935
  231MOL0     H31821   4.190   6.991   4.006 -2.6242 -0.2649  1.7306
  231MOL0     H31822   4.150   6.846   4.100 -0.3260 -0.7025 -1.5817
  231MOL0     H31823   4.371   6.775   4.125  2.1533  0.5626  0.4871
  231MOL0     H31824   4.363   6.948   4.151 -2.8336  0.4477  0.8957
  231MOL0     H31825   4.564   6.863   4.003  0.9624  1.7062 -1.5671
  231MOL0     H31826   4.453   6.793   3.900  3.9151 -1.5763  0.6153
  231MOL0     H31827   4.544   7.157   4.050 -0.2828 -1.2641 -0.0593
  231MOL0     H31828   4.520   7.387   3.995  1.2944  0.2040  0.4536
  231MOL0     H31829   4.397   7.440   3.869  2.3060  2.1136 -2.2394
  231MOL0     H31830   4.550   7.481   3.711  0.8997  0.5080  0.2148
  231MOL0     H31831   4.629   7.520   3.871 -0.9761  0.0075  1.6462
  231MOL0     H31832   4.761   7.311   3.850 -2.0974 -0.0757  0.5878
  231MOL0     H31833   4.687   7.267   3.698  1.4258  0.6526 -0.8446
  231MOL0     H31834   4.826   7.521   3.748 -0.0321 -1.0021  0.8778
  231MOL0     H31835   4.903   7.378   3.676 -1.0412 -0.2698 -1.7076
  231MOL0     H31836   4.694   7.450   3.321 -0.8107 -1.8659  3.5947
  231MOL0     H31837   4.829   7.507   3.016  0.8913  0.4514  0.9359
  231MOL0     H31838   4.691   7.445   3.096 -0.4469 -0.7090 -2.8919
  231MOL0     H31839   4.802   7.323   3.047 -3.1381 -0.4854 -1.8715
  231MOL0     H31840   5.282   7.222   3.092 -0.3687 -1.2547 -2.3937
  231MOL0     H31841   5.500   7.134   3.013  1.2700  0.3766  1.3670
  231MOL0     H31842   5.737   7.424   2.739 -2.7064  0.5117  1.8268
  231MOL0     H31843   5.781   7.437   2.905 -0.4417  2.0100 -1.8576
  231MOL0     H31844   5.988   7.374   2.777 -1.2770  0.7082 -2.9908
  231MOL0     H31845   5.949   7.248   2.892  2.2482  1.0757 -0.0230
  231MOL0     H31846   5.846   7.233   2.612  1.5986  4.1792  0.7441
  231MOL0     H31847   5.850   7.105   2.733 -0.2294 -1.1188 -2.3049
  231MOL0     H31848   6.076   7.101   2.748 -0.5880  1.9971  1.8373
  231MOL0     H31849   6.099   7.218   2.624 -1.9360  2.6528  1.6656
  231MOL0     H31850   6.097   6.976   2.520  0.8747  2.3050 -2.0947
  231MOL0     H31851   5.928   6.968   2.578 -0.1843  1.4290  4.2113
  231MOL0     H31852   5.864   7.138   2.425  0.2447  0.6739  0.4451
  231MOL0     H31853   5.944   6.993   2.350  2.1362 -2.9413  2.2259
  231MOL0     H31854   6.161   7.134   2.388 -1.0422 -2.7264 -1.3136
  231MOL0     H31855   6.047   7.275   2.355  1.4847  0.6989  0.2995
  231MOL0     H31856   6.090   7.039   2.171 -2.2282  0.3705 -3.5530
  231MOL0     H31857   6.146   7.210   2.152  0.9891  0.8795  1.6923
  231MOL0     H31858   5.558   7.515   2.819 -0.6074  0.5508  0.1642
  231MOL0     H31859   5.367   7.605   2.954  1.0105  0.6994 -0.1930
  231MOL0     H31860   5.174   7.518   3.340  0.2417 -0.4846 -2.6087
  231MOL0     H31861   5.055   7.518   3.546 -1.8279 -2.2669  2.4934
  231MOL0     H31862   3.867   6.138   4.044  3.1832 -1.0567 -1.4848
  231MOL0     H31863   3.724   5.930   4.016 -0.6734  0.5970  0.8452
  231MOL0     H31864   3.600   5.650   3.545  0.3138 -0.4042  0.2958
  231MOL0     H31865   3.500   5.421   3.536 -0.3132  1.6595 -2.3951
  231MOL0     H31866   3.078   5.379   3.705  0.7691 -1.0606 -0.0132
  231MOL0     H31867   3.044   5.437   3.544 -2.2465  0.1893  1.6570
  231MOL0     H31868   3.121   5.160   3.664  0.3335  0.1454 -0.3768
  231MOL0     H31869   3.126   5.172   3.490 -0.4754 -2.5649  0.5702
  231MOL0     H31870   2.901   5.077   3.581  1.3718 -0.9721  1.1745
  231MOL0     H31871   2.880   5.224   3.686 -0.5747  1.4708 -0.9253
  231MOL0     H31872   2.901   5.233   3.379 -0.2872  0.5185 -0.8834
  231MOL0     H31873   2.842   5.366   3.488 -0.1722 -0.4237 -0.7690
  231MOL0     H31874   2.493   5.129   3.456  0.2147  0.3524  0.5836
  231MOL0     H31875   3.145   5.590   3.714  0.1068 -4.1916  0.3083
  231MOL0     H31876   3.275   5.914   3.778 -1.1703 -0.0782 -1.4982
  231MOL0     H31877   3.146   5.819   3.786  0.4380  3.5514 -2.0680
  231MOL0     H31878   3.265   5.793   3.912  0.0488 -2.4914 -0.9348
  232MOL0     O31879   7.145   8.361   1.554  0.1297  0.7674 -0.5038
  232MOL0     C31880   7.076   8.427   1.635 -0.0224 -0.2468  0.2382
  232MOL0     O31881   7.122   8.542   1.696 -0.0355 -0.1580  0.3037
  232MOL0     C31882   7.245   8.591   1.674 -0.2921  0.7220 -0.1862
  232MOL0     C31883   7.304   8.657   1.781 -0.7793  0.1548 -0.5466
  232MOL0     C31884   7.428   8.709   1.761  0.1855 -0.0875  0.5423
  232MOL0     C31885   7.488   8.726   1.630 -0.7062 -0.3122 -0.5396
  232MOL0     O31886   7.607   8.790   1.639  0.5624 -0.2573 -0.0980
  232MOL0     C31887   7.680   8.817   1.514  0.0966 -0.5360  0.7127
  232MOL0     C31888   7.794   8.913   1.542 -0.9006  0.2363  0.7425
  232MOL0     C31889   7.883   8.946   1.421 -0.3233 -0.7692 -0.4177
  232MOL0     C31890   7.975   9.068   1.448  0.1027  0.2549 -0.4955
  232MOL0     C31891   8.041   9.114   1.327 -0.3237 -0.8281  0.0853
  232MOL0     C31892   8.138   9.014   1.260 -0.8175  0.1841 -0.6033
  232MOL0     C31893   8.251   9.086   1.190  0.4069  0.5129 -0.2552
  232MOL0     C31894   8.345   8.992   1.118  0.4883 -0.7728  0.9196
  232MOL0     N31895   8.439   9.068   1.026  0.6585  0.1773  0.1993
  232MOL0     C31896   8.504   9.186   1.026 -0.2311  0.1680 -0.2455
  232MOL0     C31897   8.587   9.188   0.923 -0.3908 -0.3791  1.6991
  232MOL0     C31898   8.680   9.310   0.894  0.2243 -0.4416  0.6101
  232MOL0     C31899   8.820   9.300   0.950 -1.0642 -0.1830 -0.7496
  232MOL0     C31900   8.911   9.405   0.899 -0.8635 -0.1057  0.2743
  232MOL0     C31901   9.055   9.393   0.944 -0.0906  0.2284  0.8415
  232MOL0     O31902   9.130   9.483   0.872 -1.0212 -0.4081 -0.4345
  232MOL0     C31903   9.270   9.486   0.890 -0.3653  0.8451 -0.2404
  232MOL0     C31904   9.351   9.397   0.961 -0.9422 -0.7047 -0.4524
  232MOL0     C31905   9.489   9.398   0.945 -0.7160 -0.0647  0.3197
  232MOL0     C31906   9.560   9.291   1.033 -0.2222 -0.1981  0.8286
  232MOL0     C31907   9.552   9.462   0.834 -0.1355 -1.1303 -0.0647
  232MOL0     C31908   9.696   9.445   0.789  1.0687 -0.1006  0.3077
  232MOL0     O31909   9.716   9.507   0.669 -0.0789  0.2290 -0.8309
  232MOL0     C31910   9.830   9.491   0.594 -0.0505  0.6253  0.6244
  232MOL0     C31911   9.919   9.385   0.598  0.1586  0.2497 -0.6580
  232MOL0     C31912  10.039   9.385   0.524 -0.0462  0.0687  0.6234
  232MOL0     C31913  10.083   9.499   0.452 -0.0679 -0.7034 -0.2875
  232MOL0     O31914  10.210   9.501   0.395  0.3380  0.3567  0.5210
  232MOL0     C31915  10.261   9.614   0.324 -1.2248 -0.6330  0.3816
  232MOL0     C31916  10.283   9.732   0.424  0.4111 -0.1375  0.3691
  232MOL0     C31917  10.367   9.843   0.353  0.7329 -0.1129 -0.0511
  232MOL0     C31918  10.516   9.825   0.345 -0.8452  0.4669 -0.7895
  232MOL0     C31919  10.592   9.956   0.327 -0.2722  0.5588 -0.4785
  232MOL0     C31920  10.739   9.926   0.319 -0.1348 -0.2015  0.7765
  232MOL0     C31921  10.838  10.056   0.324 -0.6761 -0.4079  0.3133
  232MOL0     C31922  10.948  10.041   0.430 -0.6858  0.8146 -0.1012
  232MOL0    Cl31923  11.078  10.151   0.386  0.1114 -0.0913 -0.0321
  232MOL0     C31924   9.987   9.604   0.442  0.1618  0.1511  0.2140
  232MOL0     C31925   9.867   9.597   0.510 -0.6489 -1.3466 -0.5815
  232MOL0     O31926   9.778   9.385   0.855 -0.1498  0.2217  0.5786
  232MOL0     C31927   9.472   9.564   0.776 -0.5284  0.4818  0.4882
  232MOL0     C31928   9.335   9.569   0.804 -0.1212  0.5183  0.8516
  232MOL0     N31929   8.573   9.067   0.853 -0.0669  0.6365 -0.5293
  232MOL0     N31930   8.476   9.003   0.913  0.1048  0.0068 -0.2565
  232MOL0     C31931   7.431   8.663   1.517  0.0318 -0.0534 -1.0637
  232MOL0     C31932   7.308   8.601   1.543  1.1876 -0.3713 -0.0093
  232MOL0     C31933   6.928   8.403   1.660  0.1117  0.8099 -0.6482
  232MOL0     C31934   6.891   8.292   1.736  0.0985  0.8000  0.0992
  232MOL0     C31935   6.766   8.267   1.767  0.5822 -0.3314 -0.3774
  232MOL0     C31936   6.671   8.367   1.733  0.2696  0.2426  0.2792
  232MOL0     O31937   6.542   8.339   1.767  0.1984 -0.0586 -0.9625
  232MOL0     C31938   6.434   8.436   1.766 -0.2395 -0.3206  0.4090
  232MOL0     C31939   6.383   8.433   1.619 -0.5114 -0.5006  0.7643
  232MOL0     C31940   6.240   8.489   1.599  0.4277 -0.4235 -0.0453
  232MOL0     C31941   6.128   8.405   1.661  0.1321 -0.0627 -0.2103
  232MOL0     C31942   6.101   8.262   1.613  0.1676 -0.7819  0.4896
  232MOL0     C31943   6.066   8.152   1.569  0.2999  0.2551  0.4293
  232MOL0     C31944   6.706   8.484   1.668  0.7992  0.2599  1.5398
  232MOL0     C31945   6.838   8.501   1.622  0.8370 -0.9619 -0.0662
  232MOL0     C31946   6.877   8.628   1.539 -0.0874 -0.3425  0.5970
  232MOL0     H31947   7.261   8.643   1.879 -0.5500  1.1097 -0.3036
  232MOL0     H31948   7.472   8.769   1.840 -1.2213 -0.4790  1.6748
  232MOL0     H31949   7.620   8.861   1.434  0.4123 -0.3419  0.5778
  232MOL0     H31950   7.715   8.721   1.474 -0.0364  0.2348 -1.3605
  232MOL0     H31951   7.751   9.006   1.578  3.2930  2.9741 -0.5365
  232MOL0     H31952   7.856   8.862   1.616  0.1195 -3.7474 -2.4235
  232MOL0     H31953   7.946   8.862   1.389  1.8879 -0.0162  1.6284
  232MOL0     H31954   7.814   8.972   1.340 -1.1186 -0.1568  0.4325
  232MOL0     H31955   7.921   9.154   1.487 -0.2165 -0.4823  0.7548
  232MOL0     H31956   8.048   9.040   1.524 -2.8253  2.4525  3.5364
  232MOL0     H31957   8.106   9.198   1.351 -0.3652 -0.5454 -0.7300
  232MOL0     H31958   7.970   9.154   1.254  0.0172 -0.0645  0.1684
  232MOL0     H31959   8.180   8.950   1.337  1.0126  3.8626  1.7187
  232MOL0     H31960   8.069   8.959   1.194 -2.2952  0.0266  0.9931
  232MOL0     H31961   8.300   9.147   1.266  1.7747  2.3160 -2.4332
  232MOL0     H31962   8.210   9.157   1.117 -2.2341  0.8486  1.4177
  232MOL0     H31963   8.407   8.937   1.189  2.8517 -2.4033 -2.1662
  232MOL0     H31964   8.278   8.923   1.067 -2.5460  0.2701  3.1938
  232MOL0     H31965   8.501   9.246   1.116  0.1054 -1.2410  0.7411
  232MOL0     H31966   8.637   9.398   0.943  1.0571  0.4747 -0.2416
  232MOL0     H31967   8.690   9.345   0.790 -0.1400  2.2267  1.3988
  232MOL0     H31968   8.798   9.297   1.057 -0.0079  3.2734 -0.3076
  232MOL0     H31969   8.866   9.202   0.930 -0.8246 -0.1622 -0.3312
  232MOL0     H31970   8.919   9.404   0.790  0.3111 -2.7088  0.2973
  232MOL0     H31971   8.872   9.504   0.925  0.8333  0.8468 -0.6011
  232MOL0     H31972   9.068   9.415   1.050  1.0883  0.5945  0.6308
  232MOL0     H31973   9.106   9.297   0.932 -0.3421  0.1510  0.3665
  232MOL0     H31974   9.306   9.327   1.031  1.5603  0.4558  2.5357
  232MOL0     H31975   9.613   9.215   0.975 -0.7844 -1.3886  1.8382
  232MOL0     H31976   9.485   9.250   1.101  0.9508  0.6354  2.6974
  232MOL0     H31977   9.629   9.341   1.101  3.9389 -2.8281 -1.0228
  232MOL0     H31978   9.903   9.299   0.663  1.6910 -0.1988 -0.8284
  232MOL0     H31979  10.114   9.306   0.526  0.4838  0.5623  0.5156
  232MOL0     H31980  10.360   9.583   0.290 -2.2866 -0.3313 -3.4800
  232MOL0     H31981  10.207   9.657   0.240  2.3999  3.3326 -0.2683
  232MOL0     H31982  10.192   9.776   0.466  0.6663 -0.2223  1.0082
  232MOL0     H31983  10.339   9.695   0.510  0.9132  2.6961  1.3805
  232MOL0     H31984  10.354   9.932   0.415  1.3091  1.0626 -1.5525
  232MOL0     H31985  10.332   9.882   0.256  0.6093  1.3147  0.5355
  232MOL0     H31986  10.532   9.756   0.261 -1.5003 -1.8218  0.8505
  232MOL0     H31987  10.554   9.779   0.437  1.4279 -0.8958 -2.3098
  232MOL0     H31988  10.563  10.009   0.235 -1.4578  1.3054  0.2968
  232MOL0     H31989  10.583  10.023   0.412  2.0569 -1.9363  1.9088
  232MOL0     H31990  10.760   9.859   0.236 -0.3832 -0.9653  1.3179
  232MOL0     H31991  10.747   9.858   0.405 -3.2049 -2.8740 -0.8379
  232MOL0     H31992  10.788  10.152   0.340 -0.3508 -0.0158 -0.9499
  232MOL0     H31993  10.882  10.062   0.225  2.3484  0.0978  1.5854
  232MOL0     H31994  10.998   9.944   0.438  0.2771  1.3669  0.8389
  232MOL0     H31995  10.912  10.067   0.530 -1.4523  1.5289 -0.5529
  232MOL0     H31996   9.999   9.691   0.379  0.3978 -0.6623 -0.8946
  232MOL0     H31997   9.803   9.685   0.512  1.5099  0.3083 -0.2101
  232MOL0     H31998   9.516   9.630   0.702  1.4849 -3.0205 -1.7308
  232MOL0     H31999   9.266   9.634   0.751 -1.2917  1.3362  3.2156
  232MOL0     H32000   7.485   8.669   1.423  2.1103 -0.1092  0.0542
  232MOL0     H32001   7.234   8.575   1.469  0.3069 -0.1194  0.7716
  232MOL0     H32002   6.959   8.211   1.762  0.0053  0.2842 -1.2080
  232MOL0     H32003   6.743   8.187   1.836 -0.6120 -2.9830 -3.5640
  232MOL0     H32004   6.353   8.397   1.828 -0.1432 -3.6212 -1.3003
  232MOL0     H32005   6.461   8.536   1.802 -1.8106 -0.6502  2.7411
  232MOL0     H32006   6.385   8.332   1.577 -2.1268 -0.2200 -0.0650
  232MOL0     H32007   6.448   8.493   1.555 -2.2549 -1.2009 -1.8110
  232MOL0     H32008   6.235   8.590   1.641 -4.6440 -0.9837  1.3909
  232MOL0     H32009   6.215   8.499   1.493  2.5034  4.3712 -0.3419
  232MOL0     H32010   6.031   8.454   1.656 -0.6556 -1.2396  2.0436
  232MOL0     H32011   6.143   8.395   1.769  1.7169 -1.3460 -0.4968
  232MOL0     H32012   6.037   8.058   1.526 -1.7990  0.2764  1.7057
  232MOL0     H32013   6.641   8.567   1.640  2.0177  0.0952 -2.4254
  232MOL0     H32014   6.961   8.595   1.477  0.5678 -0.7089  1.6613
  232MOL0     H32015   6.797   8.656   1.470  1.7145 -1.4691 -2.1333
  232MOL0     H32016   6.908   8.714   1.597  2.7567 -0.8719  0.0186
  233MOL0     O32017   9.475  10.007   6.282  0.3162  0.2481 -0.3681
  233MOL0     C32018   9.427   9.929   6.359 -0.8009 -0.4615  0.0141
  233MOL0     O32019   9.438   9.932   6.489  0.2455  0.0549 -0.5078
  233MOL0     C32020   9.385  10.047   6.547  0.0342  0.6276 -0.1785
  233MOL0     C32021   9.256  10.088   6.519  0.1123  0.7236  0.3485
  233MOL0     C32022   9.215  10.210   6.569  0.3987  0.4346 -0.3449
  233MOL0     C32023   9.293  10.292   6.657 -0.2501  1.1500 -0.3011
  233MOL0     O32024   9.239  10.415   6.686  0.4558  0.7865 -0.6910
  233MOL0     C32025   9.333  10.505   6.754 -0.7374 -0.1560 -0.3534
  233MOL0     C32026   9.252  10.628   6.785 -0.1164  0.0617 -0.4251
  233MOL0     C32027   9.124  10.612   6.864 -0.3310  1.3724 -0.0259
  233MOL0     C32028   9.160  10.534   6.991  0.6973 -0.3636 -0.0237
  233MOL0     C32029   9.045  10.555   7.103 -0.0667 -0.2255 -0.1989
  233MOL0     C32030   8.907  10.510   7.056 -0.3548 -0.1529  0.2149
  233MOL0     C32031   8.808  10.493   7.164  0.6278 -0.0487 -1.8724
  233MOL0     C32032   8.676  10.428   7.121  0.0553  0.3306 -0.1864
  233MOL0     N32033   8.582  10.416   7.240  0.3809  0.7600  0.4305
  233MOL0     C32034   8.571  10.299   7.301 -0.2834  0.2183 -0.4931
  233MOL0     C32035   8.472  10.320   7.395  0.2538  0.3840  0.3110
  233MOL0     C32036   8.411  10.222   7.486 -0.4913  0.6196  0.2778
  233MOL0     C32037   8.258  10.224   7.492  0.8210 -0.2068  0.3392
  233MOL0     C32038   8.188  10.120   7.579 -0.6708  0.1645 -0.3907
  233MOL0     C32039   8.038  10.144   7.600 -0.8670  0.1843 -0.8860
  233MOL0     O32040   7.978  10.032   7.668  0.1183  0.1566  0.1456
  233MOL0     C32041   7.922   9.924   7.604  0.0285  0.0606  0.3814
  233MOL0     C32042   7.879   9.816   7.677  0.5273  0.1057 -0.8190
  233MOL0     C32043   7.815   9.696   7.632  0.1585 -0.2796  0.1567
  233MOL0     C32044   7.753   9.597   7.723  0.4259 -0.0730 -0.5864
  233MOL0     C32045   7.804   9.690   7.487 -0.1729  0.4054 -0.6105
  233MOL0     C32046   7.731   9.588   7.411 -0.3669  0.3691 -0.8905
  233MOL0     O32047   7.677   9.631   7.286 -1.4984 -0.2490 -0.1508
  233MOL0     C32048   7.609   9.533   7.220  0.5214 -0.5413 -0.3435
  233MOL0     C32049   7.675   9.467   7.111  1.4212  0.6765  0.1199
  233MOL0     C32050   7.597   9.376   7.029  0.3803  0.3282  0.2871
  233MOL0     C32051   7.461   9.347   7.048 -0.8038 -0.4727  0.7005
  233MOL0     O32052   7.401   9.257   6.966  0.4731  0.6721  0.4249
  233MOL0     C32053   7.467   9.133   6.933  0.8842 -1.0446 -0.3296
  233MOL0     C32054   7.365   9.022   6.940 -1.1395  0.1128  0.6069
  233MOL0     C32055   7.295   9.012   7.076  0.0427 -0.8327  0.1058
  233MOL0     C32056   7.145   8.983   7.053 -0.2473  0.2723 -0.0616
  233MOL0     C32057   7.077   8.923   7.175  0.1285  0.1480 -0.0426
  233MOL0     C32058   6.915   8.908   7.159  0.2029  0.2952  0.5993
  233MOL0     C32059   6.819   8.992   7.255  0.9571 -1.0412  0.2573
  233MOL0     C32060   6.675   8.992   7.196 -1.3580  0.9719  0.6344
  233MOL0    Cl32061   6.692   9.106   7.058  0.1841  0.1697  0.2504
  233MOL0     C32062   7.398   9.399   7.163  0.0312 -0.0337 -0.6500
  233MOL0     C32063   7.471   9.499   7.248  0.1028  0.7272 -0.2914
  233MOL0     O32064   7.730   9.471   7.460  0.0033 -0.3404 -0.2260
  233MOL0     C32065   7.855   9.796   7.414 -0.7829 -0.0198 -0.1459
  233MOL0     C32066   7.922   9.905   7.464  0.6346  0.1282 -0.6478
  233MOL0     N32067   8.419  10.450   7.371  0.4068 -0.8910 -0.1915
  233MOL0     N32068   8.484  10.504   7.270 -0.1633  0.2342 -0.0841
  233MOL0     C32069   9.419  10.238   6.689  0.1852 -1.1508 -0.3862
  233MOL0     C32070   9.456  10.120   6.639  0.2461  0.3158 -0.0223
  233MOL0     C32071   9.361   9.804   6.317  1.5293 -1.2971 -0.1299
  233MOL0     C32072   9.372   9.685   6.395  0.7358  0.0318 -1.3592
  233MOL0     C32073   9.315   9.570   6.351  0.3120 -0.3482  0.6942
  233MOL0     C32074   9.236   9.558   6.229  0.1794  0.0385  0.0235
  233MOL0     O32075   9.198   9.434   6.178  0.3662  0.0157 -0.2776
  233MOL0     C32076   9.127   9.423   6.059 -1.3121 -0.8156 -0.8136
  233MOL0     C32077   9.066   9.285   6.032  0.5764  0.6504  0.1213
  233MOL0     C32078   8.984   9.283   5.899 -0.4687 -0.2601 -0.1018
  233MOL0     C32079   8.986   9.138   5.844  0.0330  0.0265 -0.7407
  233MOL0     C32080   8.950   9.129   5.701  0.1709  0.0332 -0.1650
  233MOL0     C32081   8.922   9.139   5.586 -0.2869  0.5817 -0.0995
  233MOL0     C32082   9.215   9.671   6.157 -0.8580 -0.0469 -0.9873
  233MOL0     C32083   9.277   9.792   6.193  0.1791 -1.0189 -0.2492
  233MOL0     C32084   9.257   9.913   6.109 -0.0061 -0.4385  0.6740
  233MOL0     H32085   9.193  10.029   6.453 -0.5748 -0.8301  2.2868
  233MOL0     H32086   9.116  10.229   6.531  0.5103 -0.4667 -1.1043
  233MOL0     H32087   9.429  10.525   6.705  0.2912  0.7892  1.9261
  233MOL0     H32088   9.365  10.474   6.853  2.1677  0.1920 -1.0971
  233MOL0     H32089   9.318  10.700   6.835  1.8247 -0.9707 -1.3469
  233MOL0     H32090   9.240  10.673   6.686  3.8406 -1.4194 -1.7841
  233MOL0     H32091   9.078  10.709   6.885  0.1139  1.2471  1.6337
  233MOL0     H32092   9.062  10.545   6.805 -0.5746 -1.1052  2.8325
  233MOL0     H32093   9.169  10.426   6.976  1.3489 -0.5789  1.6546
  233MOL0     H32094   9.253  10.563   7.040  1.0347 -0.5756 -0.5323
  233MOL0     H32095   9.033  10.662   7.125  0.8641 -0.2344  0.4236
  233MOL0     H32096   9.071  10.487   7.184 -0.4342 -2.9264 -2.2348
  233MOL0     H32097   8.869  10.597   7.002  0.9812  0.6898  0.5738
  233MOL0     H32098   8.912  10.421   6.992 -2.0640 -1.6946  2.0952
  233MOL0     H32099   8.785  10.586   7.218 -1.5078 -1.3390 -0.4081
  233MOL0     H32100   8.846  10.421   7.237  2.7842  2.6133 -0.1350
  233MOL0     H32101   8.625  10.503   7.059 -0.8047  0.7621  1.0061
  233MOL0     H32102   8.690  10.336   7.064  2.3333  2.1390 -2.8725
  233MOL0     H32103   8.628  10.212   7.271 -1.9018 -1.4676  1.0265
  233MOL0     H32104   8.461  10.236   7.582  3.3275  0.0047 -1.4480
  233MOL0     H32105   8.438  10.119   7.460 -0.7569  0.5914  0.1109
  233MOL0     H32106   8.222  10.320   7.532  0.9731  0.6912 -1.5931
  233MOL0     H32107   8.226  10.199   7.391  1.5511  0.2190 -0.0034
  233MOL0     H32108   8.201  10.025   7.527 -1.5305  1.8011 -3.8697
  233MOL0     H32109   8.243  10.120   7.674 -1.4650  1.2379  0.0816
  233MOL0     H32110   8.033  10.229   7.668 -0.6282 -0.4307 -0.0796
  233MOL0     H32111   7.993  10.175   7.505  3.1051  1.3113 -2.6084
  233MOL0     H32112   7.864   9.845   7.780  0.4057 -2.7123  0.0462
  233MOL0     H32113   7.733   9.636   7.823 -0.6055 -0.6228 -0.5596
  233MOL0     H32114   7.816   9.507   7.726  0.6923  0.1404  1.2974
  233MOL0     H32115   7.654   9.562   7.694 -0.5398  1.2673  0.9241
  233MOL0     H32116   7.782   9.475   7.093  1.8144 -1.5546  1.1710
  233MOL0     H32117   7.658   9.333   6.949  0.6929 -0.1756  0.7847
  233MOL0     H32118   7.512   9.130   6.834  2.0424 -2.4330  0.2023
  233MOL0     H32119   7.541   9.109   7.010  0.0846 -1.6377  0.2798
  233MOL0     H32120   7.291   9.040   6.862  2.0935  2.7213 -2.2120
  233MOL0     H32121   7.417   8.928   6.919  0.0491  0.8287  0.1876
  233MOL0     H32122   7.316   9.100   7.137  1.6210 -2.2532  1.7341
  233MOL0     H32123   7.335   8.921   7.124 -1.0276 -1.0517  0.6136
  233MOL0     H32124   7.132   8.914   6.969 -0.0351 -0.6039  0.6128
  233MOL0     H32125   7.103   9.078   7.019 -1.2495  0.5839  1.9323
  233MOL0     H32126   7.122   8.827   7.200  3.6287  1.9087  1.1076
  233MOL0     H32127   7.092   8.984   7.264 -0.8373  0.4633 -0.0879
  233MOL0     H32128   6.896   8.804   7.188  1.7382 -1.1765 -3.0482
  233MOL0     H32129   6.896   8.917   7.052  2.1603  0.6451  0.2480
  233MOL0     H32130   6.846   9.096   7.276  2.9424 -1.3863 -0.3730
  233MOL0     H32131   6.806   8.952   7.356  1.0897  2.3904  1.7721
  233MOL0     H32132   6.608   9.028   7.274 -0.1661 -0.4919  2.4325
  233MOL0     H32133   6.636   8.893   7.168  3.5553 -1.9412  2.6860
  233MOL0     H32134   7.302   9.358   7.191 -0.3245  0.5898 -0.9345
  233MOL0     H32135   7.422   9.538   7.337 -1.3670  0.5446 -0.9974
  233MOL0     H32136   7.842   9.794   7.307 -1.3493  2.4532 -0.2001
  233MOL0     H32137   7.946   9.979   7.389  0.4913  0.8984  0.0492
  233MOL0     H32138   9.489  10.290   6.753 -1.4980  2.2035 -1.0352
  233MOL0     H32139   9.556  10.085   6.663  0.0798  1.0472  1.9470
  233MOL0     H32140   9.432   9.667   6.484 -3.3931  1.6855  2.1043
  233MOL0     H32141   9.343   9.480   6.404  1.5951  0.9319  2.3060
  233MOL0     H32142   9.044   9.494   6.065 -1.0264 -0.5443  0.0583
  233MOL0     H32143   9.190   9.451   5.974 -0.4380 -1.8505 -0.5285
  233MOL0     H32144   9.005   9.255   6.118  0.5046  0.0312 -0.1422
  233MOL0     H32145   9.150   9.216   6.044 -0.7404 -0.7231  1.9860
  233MOL0     H32146   8.881   9.315   5.918 -0.2795 -0.4586  1.3294
  233MOL0     H32147   9.028   9.351   5.825  1.2584  0.6429  1.6697
  233MOL0     H32148   8.908   9.083   5.900  0.2556 -0.9209 -1.3374
  233MOL0     H32149   9.082   9.086   5.853 -0.6066 -1.0899 -0.0863
  233MOL0     H32150   8.888   9.151   5.485 -1.5606  1.0475  0.3624
  233MOL0     H32151   9.159   9.659   6.064 -1.5229 -3.0724 -0.2922
  233MOL0     H32152   9.193   9.881   6.025  0.3652  0.4462  0.0366
  233MOL0     H32153   9.203   9.983   6.173  1.6635  0.6206  0.9984
  233MOL0     H32154   9.350   9.961   6.077 -0.6245  0.7678  0.6500
  234MOL0     O32155   4.623   3.085   3.692 -0.2463  0.0848  0.0565
  234MOL0     C32156   4.499   3.079   3.699 -0.1520 -0.4963 -0.2862
  234MOL0     O32157   4.424   3.175   3.761  0.2862 -0.1096 -0.6508
  234MOL0     C32158   4.484   3.254   3.851 -0.0225 -0.5698  0.7215
  234MOL0     C32159   4.579   3.346   3.817  0.4727 -0.4305  1.0465
  234MOL0     C32160   4.646   3.414   3.914  0.1619  0.0189  0.0309
  234MOL0     C32161   4.613   3.401   4.046 -0.4189 -0.1525 -0.3861
  234MOL0     O32162   4.670   3.464   4.149  0.0994 -0.4304  0.2297
  234MOL0     C32163   4.799   3.513   4.129 -0.6645 -0.6961 -0.0411
  234MOL0     C32164   4.874   3.552   4.264 -0.6486 -0.1956  0.4008
  234MOL0     C32165   5.016   3.587   4.242 -0.1508  0.2444 -0.5223
  234MOL0     C32166   5.062   3.698   4.337  0.3479 -0.7005  1.3225
  234MOL0     C32167   5.201   3.727   4.310 -0.6954  0.4159 -1.0554
  234MOL0     C32168   5.251   3.850   4.381  0.3327 -0.1877  0.2590
  234MOL0     C32169   5.405   3.853   4.363  0.0351 -0.4633  0.9925
  234MOL0     C32170   5.473   3.954   4.451  0.6101  0.9502 -0.2081
  234MOL0     N32171   5.605   3.930   4.497  0.4223 -0.0468  0.2960
  234MOL0     C32172   5.678   3.815   4.535  0.4467  0.6460  0.0840
  234MOL0     C32173   5.785   3.870   4.595 -0.7257  0.3623 -0.8688
  234MOL0     C32174   5.887   3.784   4.671  0.0101 -0.6499 -0.3195
  234MOL0     C32175   6.029   3.811   4.617 -0.5157 -0.1920  0.8783
  234MOL0     C32176   6.141   3.737   4.682  0.2884  0.8746  0.2860
  234MOL0     C32177   6.150   3.737   4.829 -0.0241  0.1032 -0.4926
  234MOL0     O32178   6.186   3.865   4.895 -0.3126  0.1851 -0.4463
  234MOL0     C32179   6.318   3.909   4.906  0.7081 -0.4561  0.1200
  234MOL0     C32180   6.424   3.825   4.875 -0.0713 -0.0585 -0.0277
  234MOL0     C32181   6.556   3.869   4.886 -0.5038 -0.2252  0.5363
  234MOL0     C32182   6.670   3.785   4.846 -0.0869  0.5157  0.5128
  234MOL0     C32183   6.584   4.001   4.941 -0.0726  0.0334  0.6610
  234MOL0     C32184   6.724   4.060   4.963  0.7082  1.0106 -0.5616
  234MOL0     O32185   6.732   4.152   5.060 -1.1318  0.0989 -0.2065
  234MOL0     C32186   6.855   4.217   5.077  0.8666  0.2069 -0.4175
  234MOL0     C32187   6.903   4.302   4.981 -0.1023  0.5375  0.6888
  234MOL0     C32188   7.027   4.351   5.001  0.3008  0.3702  0.2099
  234MOL0     C32189   7.097   4.330   5.122 -0.3863  0.0407  0.2873
  234MOL0     O32190   7.219   4.402   5.135 -0.3222  0.3911  0.9397
  234MOL0     C32191   7.326   4.314   5.175 -0.1810 -0.1138 -0.9617
  234MOL0     C32192   7.460   4.375   5.138  0.0159  0.2940  0.8248
  234MOL0     C32193   7.590   4.285   5.130  0.0379  0.3179 -0.0882
  234MOL0     C32194   7.600   4.189   5.254  1.1176 -0.8370  1.0888
  234MOL0     C32195   7.595   4.261   5.390 -1.0546  0.7871 -0.8009
  234MOL0     C32196   7.622   4.146   5.493  0.1826  0.6146 -0.2505
  234MOL0     C32197   7.773   4.144   5.537  0.8209 -0.2646 -0.2744
  234MOL0     C32198   7.795   4.018   5.625  0.0637 -0.5025  0.0547
  234MOL0    Cl32199   7.869   4.069   5.782  0.3495 -0.3832  0.2481
  234MOL0     C32200   7.046   4.249   5.222  0.2645  0.7476 -0.8859
  234MOL0     C32201   6.915   4.197   5.205 -0.4786  0.1110  0.0032
  234MOL0     O32202   6.815   4.027   4.882 -0.0943 -0.1410  0.7290
  234MOL0     C32203   6.470   4.091   4.957  0.2771  0.5525 -0.7382
  234MOL0     C32204   6.342   4.036   4.944 -0.6003  0.3242 -0.1723
  234MOL0     N32205   5.773   4.009   4.592 -0.4634 -0.4514 -0.1429
  234MOL0     N32206   5.666   4.048   4.539 -0.5316  0.1997  0.2510
  234MOL0     C32207   4.525   3.304   4.074 -0.0724 -0.0774 -0.7740
  234MOL0     C32208   4.446   3.233   3.985 -1.4038 -0.3987 -0.2212
  234MOL0     C32209   4.428   2.958   3.648  0.9527 -0.3846 -1.1877
  234MOL0     C32210   4.335   2.903   3.735 -0.2873  0.2396 -0.0458
  234MOL0     C32211   4.286   2.780   3.720 -0.4630  0.0754 -0.1330
  234MOL0     C32212   4.315   2.698   3.611  0.0149 -0.0695 -0.4498
  234MOL0     O32213   4.279   2.565   3.589 -0.6638  1.1548  0.1524
  234MOL0     C32214   4.208   2.488   3.683 -0.0907 -0.6358 -0.4808
  234MOL0     C32215   4.177   2.353   3.636  0.5794  0.0971 -0.3360
  234MOL0     C32216   4.097   2.272   3.734 -0.6876  0.2476 -0.4307
  234MOL0     C32217   4.017   2.168   3.664 -0.2668 -0.3848  0.5956
  234MOL0     C32218   4.112   2.073   3.594  0.0815 -0.1574  0.1906
  234MOL0     C32219   4.171   1.999   3.520 -0.7173 -0.1254  0.4860
  234MOL0     C32220   4.397   2.758   3.515  0.6151  0.1447 -0.0747
  234MOL0     C32221   4.458   2.881   3.534  0.0497  0.3835  0.2645
  234MOL0     C32222   4.561   2.929   3.440  0.2149  0.0184  0.2523
  234MOL0     H32223   4.591   3.372   3.712 -1.4725 -0.2982  0.8281
  234MOL0     H32224   4.720   3.490   3.891 -1.2510  1.1822 -0.8539
  234MOL0     H32225   4.787   3.605   4.072 -2.5631 -0.7579  0.1895
  234MOL0     H32226   4.864   3.437   4.084  0.2815 -0.2680  0.5812
  234MOL0     H32227   4.820   3.638   4.306  0.6173  1.3299 -0.9500
  234MOL0     H32228   4.866   3.468   4.333  2.8646 -1.3766 -0.4164
  234MOL0     H32229   5.077   3.498   4.259 -0.6612 -0.2466 -1.1875
  234MOL0     H32230   5.037   3.620   4.140  1.7784  0.6416 -0.0400
  234MOL0     H32231   5.003   3.790   4.328  0.7425 -0.4317  1.4383
  234MOL0     H32232   5.058   3.660   4.439 -0.9210  0.2572  1.6595
  234MOL0     H32233   5.209   3.746   4.203 -0.4124 -0.5377 -1.2112
  234MOL0     H32234   5.263   3.641   4.340 -0.0370  1.1238 -0.3248
  234MOL0     H32235   5.197   3.936   4.340 -0.3773 -1.5456 -1.8281
  234MOL0     H32236   5.221   3.839   4.485  1.0801 -0.0904  0.4967
  234MOL0     H32237   5.432   3.873   4.260 -1.2784 -1.2593  0.4617
  234MOL0     H32238   5.438   3.753   4.393 -0.9751 -0.9639  0.5040
  234MOL0     H32239   5.464   4.055   4.411 -2.1996  1.3401  1.1643
  234MOL0     H32240   5.414   3.955   4.543  1.1846 -2.3078  0.3322
  234MOL0     H32241   5.638   3.715   4.532  0.4489  0.6211  0.8009
  234MOL0     H32242   5.863   3.678   4.656 -1.6164 -0.5152  1.0435
  234MOL0     H32243   5.867   3.809   4.775 -0.1536  0.0761 -0.5182
  234MOL0     H32244   6.031   3.786   4.511  0.2039 -0.1712  0.8818
  234MOL0     H32245   6.041   3.918   4.635  3.1893 -0.0974 -1.2090
  234MOL0     H32246   6.118   3.634   4.652 -1.5540  1.4291 -0.3642
  234MOL0     H32247   6.235   3.772   4.639  0.1882 -1.7763 -2.4653
  234MOL0     H32248   6.050   3.712   4.866 -0.9798  1.7926 -1.7693
  234MOL0     H32249   6.220   3.663   4.867 -0.3975  1.1412  2.5299
  234MOL0     H32250   6.400   3.725   4.840  0.0065 -0.4539  0.9866
  234MOL0     H32251   6.747   3.758   4.920 -0.1299 -1.4748 -0.0924
  234MOL0     H32252   6.713   3.833   4.758  2.0886 -1.9279  0.1280
  234MOL0     H32253   6.632   3.689   4.809  0.8069  0.0379  0.8127
  234MOL0     H32254   6.847   4.313   4.889  0.6746  0.2310  0.1713
  234MOL0     H32255   7.061   4.415   4.920 -2.0991  1.7279  0.1697
  234MOL0     H32256   7.301   4.293   5.280 -1.7808 -0.3788 -1.3794
  234MOL0     H32257   7.318   4.215   5.130 -4.1567  0.0314 -0.9285
  234MOL0     H32258   7.457   4.419   5.038  0.3264 -0.9723  0.2379
  234MOL0     H32259   7.478   4.450   5.215  3.2837 -1.8950  2.4262
  234MOL0     H32260   7.679   4.346   5.109 -0.9940  1.4494 -1.3357
  234MOL0     H32261   7.588   4.207   5.053 -1.0786  0.3138 -0.0733
  234MOL0     H32262   7.689   4.126   5.256  0.7730 -1.3519  0.6306
  234MOL0     H32263   7.520   4.114   5.250  0.4263 -0.0729 -0.6299
  234MOL0     H32264   7.679   4.331   5.393  0.7811 -1.3529  1.7820
  234MOL0     H32265   7.496   4.302   5.415 -1.4904 -0.3060 -0.6758
  234MOL0     H32266   7.591   4.048   5.457 -0.7406  0.6090  0.5240
  234MOL0     H32267   7.557   4.163   5.579 -2.6670 -0.8159 -1.9899
  234MOL0     H32268   7.791   4.235   5.596  0.3406 -0.3837  0.0569
  234MOL0     H32269   7.842   4.143   5.452  1.1375 -0.7616 -0.0124
  234MOL0     H32270   7.856   3.950   5.565  0.8327 -1.6782  2.0814
  234MOL0     H32271   7.703   3.968   5.655  1.0053 -2.1108  0.3802
  234MOL0     H32272   7.106   4.224   5.308 -3.4153  1.4181  2.1083
  234MOL0     H32273   6.868   4.138   5.282 -0.5212  1.0491  0.7174
  234MOL0     H32274   6.471   4.192   4.996  0.5299  0.2755 -0.0033
  234MOL0     H32275   6.254   4.097   4.963 -1.0100  0.3917 -2.0990
  234MOL0     H32276   4.531   3.274   4.178 -0.8720  0.3986 -0.5812
  234MOL0     H32277   4.373   3.162   4.020 -2.4793  0.4267 -0.7360
  234MOL0     H32278   4.313   2.960   3.825 -0.9369 -0.1812  0.0699
  234MOL0     H32279   4.210   2.743   3.788  1.0297 -2.3800  0.3342
  234MOL0     H32280   4.271   2.487   3.772 -0.0564 -0.6973 -0.5048
  234MOL0     H32281   4.123   2.541   3.727  2.0819  1.3214  1.6731
  234MOL0     H32282   4.269   2.304   3.602  0.4994 -2.0987  2.3307
  234MOL0     H32283   4.112   2.368   3.549  0.1901 -2.4106 -0.5292
  234MOL0     H32284   4.162   2.211   3.798 -0.9831 -0.4509 -0.7821
  234MOL0     H32285   4.037   2.336   3.799 -1.2048  0.0631 -0.7263
  234MOL0     H32286   3.949   2.205   3.586  1.7483  1.0583 -0.5992
  234MOL0     H32287   3.967   2.115   3.745  0.9893  1.3042  2.5702
  234MOL0     H32288   4.236   1.930   3.471  1.7716  1.7017  0.9779
  234MOL0     H32289   4.422   2.699   3.427  0.9811  1.3921 -0.8371
  234MOL0     H32290   4.664   2.905   3.469 -0.0255 -1.7466 -0.2224
  234MOL0     H32291   4.531   2.893   3.341 -0.4959  0.3061  0.3613
  234MOL0     H32292   4.553   3.038   3.432 -2.7503 -0.1089  0.4849
  235MOL0     O32293   1.093   0.463   5.770  0.1329  0.5349 -0.1146
  235MOL0     C32294   1.117   0.347   5.804 -0.1691  0.0928 -0.4495
  235MOL0     O32295   1.206   0.315   5.906 -0.6440 -0.0744 -0.5922
  235MOL0     C32296   1.294   0.411   5.944 -0.4339  0.8713 -1.4421
  235MOL0     C32297   1.424   0.392   5.909 -0.7744 -1.0488  0.4273
  235MOL0     C32298   1.515   0.484   5.939  0.4510 -0.4110 -0.2528
  235MOL0     C32299   1.485   0.601   6.016  0.5364  0.2129  0.3470
  235MOL0     O32300   1.595   0.679   6.046  0.3848  0.5579  0.0948
  235MOL0     C32301   1.574   0.803   6.113 -0.2459 -0.3080 -0.1828
  235MOL0     C32302   1.700   0.879   6.158 -0.2247  0.3776  0.1367
  235MOL0     C32303   1.787   0.919   6.034  0.6239 -0.5026  0.1482
  235MOL0     C32304   1.898   1.007   6.080  0.1024 -0.4789 -1.1773
  235MOL0     C32305   2.011   1.044   5.978 -0.4390  0.1544 -0.5133
  235MOL0     C32306   2.123   1.111   6.053 -0.3302 -0.4395 -1.0312
  235MOL0     C32307   2.205   1.192   5.943  0.6189  0.3695 -0.3384
  235MOL0     C32308   2.307   1.288   6.012 -0.8181  0.1875 -0.2386
  235MOL0     N32309   2.387   1.348   5.908  0.7740 -0.2208  0.1456
  235MOL0     C32310   2.336   1.435   5.814  0.8001  0.4076 -0.1462
  235MOL0     C32311   2.445   1.484   5.753 -0.0214  0.5367 -0.4607
  235MOL0     C32312   2.451   1.568   5.631  0.4529  0.1253  1.2123
  235MOL0     C32313   2.495   1.715   5.650  0.0586 -0.0154  0.0268
  235MOL0     C32314   2.625   1.733   5.738  0.5410  0.6299 -0.9343
  235MOL0     C32315   2.757   1.689   5.673  0.2032 -0.8045  0.1932
  235MOL0     O32316   2.862   1.705   5.769 -0.1124  0.6875 -0.5275
  235MOL0     C32317   2.995   1.706   5.739 -0.3330  0.2310  0.0687
  235MOL0     C32318   3.037   1.733   5.608 -0.1433  1.1737 -0.1580
  235MOL0     C32319   3.171   1.745   5.572 -0.4033 -0.0976 -0.0536
  235MOL0     C32320   3.193   1.755   5.423 -0.2870 -0.5766 -0.5711
  235MOL0     C32321   3.269   1.730   5.669  0.8187  0.7671 -0.1892
  235MOL0     C32322   3.415   1.736   5.648 -0.7463  0.0443 -0.3850
  235MOL0     O32323   3.505   1.743   5.755  0.6024 -1.0863  0.1770
  235MOL0     C32324   3.640   1.739   5.748  0.5444  0.0279 -1.1410
  235MOL0     C32325   3.714   1.807   5.853  0.9511 -0.2275 -0.4334
  235MOL0     C32326   3.855   1.801   5.857  0.5614 -1.1981  0.0078
  235MOL0     C32327   3.922   1.723   5.768 -0.0489 -0.1679 -0.7959
  235MOL0     O32328   4.059   1.744   5.775 -0.7946  0.5846 -0.4139
  235MOL0     C32329   4.140   1.630   5.739  0.3422  0.1693 -0.4421
  235MOL0     C32330   4.277   1.680   5.691  0.1524  0.3105  0.2646
  235MOL0     C32331   4.363   1.770   5.787 -0.3593  0.1067 -0.1749
  235MOL0     C32332   4.404   1.704   5.911 -0.1116  0.0511 -0.0043
  235MOL0     C32333   4.537   1.759   5.972  0.6532 -0.2006  0.0507
  235MOL0     C32334   4.567   1.697   6.110  0.1987  0.1882  0.1663
  235MOL0     C32335   4.483   1.783   6.225 -0.8924 -0.5655  0.0724
  235MOL0     C32336   4.502   1.716   6.358 -0.1080  0.9199 -0.8491
  235MOL0    Cl32337   4.673   1.744   6.407  0.0434  0.6809 -0.0242
  235MOL0     C32338   3.850   1.656   5.667  0.1676  0.5852 -0.2531
  235MOL0     C32339   3.709   1.658   5.658 -0.0459 -0.0354  0.7858
  235MOL0     O32340   3.450   1.741   5.530 -0.6047 -0.0493  0.0907
  235MOL0     C32341   3.225   1.698   5.804 -0.2330  0.3258  0.6112
  235MOL0     C32342   3.091   1.694   5.837 -0.7198  0.5432 -0.8212
  235MOL0     N32343   2.558   1.433   5.821  0.0306  0.5247 -0.6660
  235MOL0     N32344   2.516   1.349   5.910 -0.3674 -0.0920 -0.5245
  235MOL0     C32345   1.349   0.621   6.075 -0.5296  0.0487  0.4703
  235MOL0     C32346   1.255   0.520   6.040 -0.3382  0.4499  0.1082
  235MOL0     C32347   1.041   0.235   5.747 -0.1980  0.7723  1.2984
  235MOL0     C32348   1.117   0.114   5.733  0.3545 -0.0633 -0.6744
  235MOL0     C32349   1.051   0.006   5.669  0.1945  0.1918 -0.4090
  235MOL0     C32350   0.916   0.012   5.634 -0.6469  0.5293 -0.0992
  235MOL0     O32351   0.879  -0.095   5.573 -0.4947  0.1014  0.9399
  235MOL0     C32352   0.742  -0.101   5.521 -0.7793 -0.1480  0.4624
  235MOL0     C32353   0.717  -0.002   5.406 -0.0355 -0.2288  0.0084
  235MOL0     C32354   0.824  -0.022   5.296  0.5879  0.5547 -0.7964
  235MOL0     C32355   0.775   0.044   5.171  0.3457 -0.3527  0.8251
  235MOL0     C32356   0.874   0.053   5.063 -0.8109  0.6618  0.1700
  235MOL0     C32357   0.971   0.063   4.989  0.8306 -0.1987 -0.2859
  235MOL0     C32358   0.844   0.129   5.667 -0.8717  0.5534  0.5528
  235MOL0     C32359   0.903   0.244   5.720 -0.1003  0.6176 -0.4305
  235MOL0     C32360   0.812   0.359   5.745  0.4238 -0.0684  0.2219
  235MOL0     H32361   1.441   0.300   5.854  0.3042  0.9916 -2.9446
  235MOL0     H32362   1.619   0.474   5.911  0.6231  2.4618 -0.9108
  235MOL0     H32363   1.516   0.784   6.203 -1.7204 -0.6377 -1.1634
  235MOL0     H32364   1.525   0.880   6.053  1.4445  2.4547  1.7208
  235MOL0     H32365   1.662   0.968   6.208 -1.7270 -0.0866 -0.1281
  235MOL0     H32366   1.764   0.820   6.224 -2.9834 -3.2820 -0.1348
  235MOL0     H32367   1.833   0.834   5.983 -1.6703 -1.6923 -0.0777
  235MOL0     H32368   1.717   0.967   5.965  1.9309  0.3225 -0.6258
  235MOL0     H32369   1.845   1.094   6.121 -0.4930 -0.3759 -2.1328
  235MOL0     H32370   1.934   0.954   6.168 -0.8115  0.5319 -0.1624
  235MOL0     H32371   1.980   1.126   5.912  0.4226  2.0363  1.3233
  235MOL0     H32372   2.048   0.959   5.919 -0.3958 -0.1601 -0.0396
  235MOL0     H32373   2.087   1.184   6.126  2.6524 -1.2521  1.4369
  235MOL0     H32374   2.189   1.045   6.110 -1.7109  0.6904  2.0838
  235MOL0     H32375   2.137   1.264   5.896 -2.3965 -1.1959  1.3254
  235MOL0     H32376   2.252   1.132   5.865  0.8268 -0.1598  0.1901
  235MOL0     H32377   2.271   1.372   6.072  1.8806  2.2186 -1.2178
  235MOL0     H32378   2.367   1.226   6.078 -0.6825  2.5050  1.9952
  235MOL0     H32379   2.231   1.440   5.787  0.3756 -1.7189  0.8920
  235MOL0     H32380   2.350   1.563   5.589 -0.2010  3.0799  2.2011
  235MOL0     H32381   2.524   1.530   5.559  0.7687  1.0821  1.0133
  235MOL0     H32382   2.506   1.767   5.554  2.4599  1.3981  0.9809
  235MOL0     H32383   2.424   1.767   5.715  1.8867  1.5020  0.9066
  235MOL0     H32384   2.623   1.838   5.769  1.0017  0.4796 -0.3934
  235MOL0     H32385   2.615   1.678   5.832 -2.1311  1.9567 -0.3285
  235MOL0     H32386   2.753   1.585   5.642  1.2134 -1.0810  0.9416
  235MOL0     H32387   2.776   1.746   5.581 -0.2871 -0.8550  0.0610
  235MOL0     H32388   2.969   1.762   5.530  1.9272 -0.1065 -2.5973
  235MOL0     H32389   3.259   1.841   5.412  1.0604 -1.4689  0.1845
  235MOL0     H32390   3.101   1.766   5.366 -0.5364 -0.3132 -0.1270
  235MOL0     H32391   3.238   1.666   5.378 -0.5707  0.9296 -4.0965
  235MOL0     H32392   3.679   1.881   5.925 -0.7506  0.5694 -2.0040
  235MOL0     H32393   3.906   1.865   5.928 -4.2393  2.4298  0.7518
  235MOL0     H32394   4.146   1.559   5.822  1.0032 -2.6405 -2.7424
  235MOL0     H32395   4.095   1.565   5.662 -1.0322  1.0307 -0.3963
  235MOL0     H32396   4.348   1.603   5.660  0.0969 -0.0769  1.0653
  235MOL0     H32397   4.256   1.740   5.602  2.3482 -0.1829 -0.6609
  235MOL0     H32398   4.317   1.866   5.810  2.1139  1.8426 -2.0369
  235MOL0     H32399   4.458   1.785   5.734  1.0229 -1.1372  1.7991
  235MOL0     H32400   4.432   1.601   5.886  0.6881  0.8104 -2.5131
  235MOL0     H32401   4.319   1.695   5.979  0.1344 -2.8505  0.0313
  235MOL0     H32402   4.613   1.758   5.892  1.8389  3.0483  0.9659
  235MOL0     H32403   4.533   1.865   6.001 -1.3324 -0.8088  2.2464
  235MOL0     H32404   4.676   1.699   6.126  0.4545 -0.7525 -1.2744
  235MOL0     H32405   4.527   1.595   6.107  0.1575  0.2270 -1.1908
  235MOL0     H32406   4.375   1.792   6.210 -1.4515 -3.2992  1.7997
  235MOL0     H32407   4.532   1.879   6.246  1.8261 -1.8794  0.1219
  235MOL0     H32408   4.477   1.609   6.359  1.7618  0.4413  0.8519
  235MOL0     H32409   4.436   1.771   6.424  2.0846 -0.7784  3.0723
  235MOL0     H32410   3.908   1.599   5.595  1.2432  0.3324  0.7990
  235MOL0     H32411   3.651   1.603   5.585 -1.5182  2.6526 -0.1847
  235MOL0     H32412   3.309   1.694   5.872 -0.1221  1.8303  0.5937
  235MOL0     H32413   3.067   1.664   5.939  2.3329  0.9720  0.1059
  235MOL0     H32414   1.321   0.703   6.141 -2.0164 -1.4496  1.8072
  235MOL0     H32415   1.149   0.526   6.064 -0.6261  0.3313 -1.0843
  235MOL0     H32416   1.225   0.102   5.742  0.3245  0.3890  0.3242
  235MOL0     H32417   1.104  -0.085   5.642 -0.1817 -0.1798  0.0974
  235MOL0     H32418   0.718  -0.204   5.491 -1.9708 -0.2030  1.5078
  235MOL0     H32419   0.676  -0.079   5.605 -0.7772 -0.4785  0.5531
  235MOL0     H32420   0.731   0.104   5.431  1.1044 -0.2419 -0.4809
  235MOL0     H32421   0.620  -0.024   5.362 -0.8945 -1.2989  2.2715
  235MOL0     H32422   0.921   0.019   5.327  0.4334 -0.3772  1.0991
  235MOL0     H32423   0.841  -0.129   5.281  4.6209  1.3268 -3.3593
  235MOL0     H32424   0.749   0.149   5.187  0.2784 -0.2534  0.1173
  235MOL0     H32425   0.696  -0.005   5.113  1.0888  0.7648 -1.2513
  235MOL0     H32426   1.055   0.072   4.923  1.7906 -0.6862  0.8219
  235MOL0     H32427   0.738   0.137   5.646 -1.1356 -0.8835  1.2933
  235MOL0     H32428   0.817   0.425   5.657  0.3066  2.6122  2.0869
  235MOL0     H32429   0.707   0.327   5.752  0.1631  1.0605  2.7969
  235MOL0     H32430   0.841   0.414   5.836  1.2684  0.3898 -0.3095
  236MOL0     O32431   3.067   4.471  10.494  0.6056  0.5507  0.2845
  236MOL0     C32432   2.957   4.468  10.434 -1.0561 -0.0531  0.3497
  236MOL0     O32433   2.942   4.521  10.308  0.1433  0.6371  0.4340
  236MOL0     C32434   3.032   4.573  10.216  0.4094  0.0061  0.3890
  236MOL0     C32435   3.164   4.606  10.239  0.4074 -0.2318  0.1643
  236MOL0     C32436   3.250   4.638  10.135 -0.0930 -0.6324 -0.5185
  236MOL0     C32437   3.201   4.638  10.002 -0.4300  0.6160 -0.8555
  236MOL0     O32438   3.270   4.678   9.887  0.3856 -0.2189 -0.9121
  236MOL0     C32439   3.396   4.742   9.901 -0.2744  0.1972  0.8565
  236MOL0     C32440   3.387   4.891   9.911 -0.1631 -0.5488 -0.1091
  236MOL0     C32441   3.483   4.972   9.837  0.1361  0.2760  0.6335
  236MOL0     C32442   3.626   4.923   9.845 -0.5553 -0.1477  0.6205
  236MOL0     C32443   3.722   5.034   9.795 -1.0146 -0.1832  0.2317
  236MOL0     C32444   3.693   5.055   9.646 -0.1872 -0.6208 -0.2012
  236MOL0     C32445   3.811   5.115   9.561 -0.1245 -0.2650  0.1939
  236MOL0     C32446   3.795   5.113   9.406  0.3283 -0.1320 -1.4449
  236MOL0     N32447   3.887   5.223   9.359 -0.2464 -0.5109 -0.1991
  236MOL0     C32448   4.025   5.213   9.366  0.6353 -0.4751 -0.4764
  236MOL0     C32449   4.069   5.342   9.373  0.2907 -0.1857 -0.2743
  236MOL0     C32450   4.206   5.388   9.407  0.3023 -0.4915 -1.0388
  236MOL0     C32451   4.259   5.487   9.308 -0.1290  0.7902  0.1318
  236MOL0     C32452   4.255   5.629   9.356  0.7782 -0.0889  0.1674
  236MOL0     C32453   4.359   5.726   9.287  0.1568 -1.0060  0.2023
  236MOL0     O32454   4.494   5.704   9.339  0.2789  0.2857 -0.0843
  236MOL0     C32455   4.587   5.721   9.241  0.2663 -1.1286  0.1479
  236MOL0     C32456   4.635   5.608   9.159 -0.6241  0.3769  0.1758
  236MOL0     C32457   4.720   5.628   9.054  0.0742  0.3047 -0.7412
  236MOL0     C32458   4.774   5.505   8.984  0.5554 -0.7405 -0.8979
  236MOL0     C32459   4.770   5.758   9.019  0.4621  0.2177 -0.2295
  236MOL0     C32460   4.867   5.790   8.912 -0.3792 -0.1028  0.8232
  236MOL0     O32461   4.949   5.894   8.931 -0.0133  0.2909  0.3533
  236MOL0     C32462   5.052   5.910   8.849  1.0727  0.3689  0.1076
  236MOL0     C32463   5.026   5.895   8.708 -0.1583 -0.7018 -0.1939
  236MOL0     C32464   5.141   5.908   8.620  0.5460  0.0984  0.2203
  236MOL0     C32465   5.264   5.942   8.665 -0.1214 -0.1837 -0.7002
  236MOL0     O32466   5.371   5.968   8.586  0.3219  0.8240 -0.1038
  236MOL0     C32467   5.346   5.975   8.448  0.0157 -0.5512  0.0279
  236MOL0     C32468   5.470   5.991   8.363  0.0372 -0.3963 -0.5101
  236MOL0     C32469   5.547   6.119   8.400 -0.6752  0.2094  0.2221
  236MOL0     C32470   5.696   6.118   8.344 -0.4502  0.2037 -0.2604
  236MOL0     C32471   5.761   6.259   8.360 -0.1523 -0.6461  0.4086
  236MOL0     C32472   5.915   6.253   8.341 -0.3111 -0.9313 -0.2664
  236MOL0     C32473   5.981   6.391   8.332 -0.1522  0.7139  0.4015
  236MOL0     C32474   6.131   6.377   8.331 -1.4487 -0.1723  0.3724
  236MOL0    Cl32475   6.205   6.253   8.228 -0.6710 -0.1193  0.1687
  236MOL0     C32476   5.276   5.966   8.800  0.7698 -0.6608  0.5313
  236MOL0     C32477   5.177   5.953   8.889 -0.4323  0.2972  0.2884
  236MOL0     O32478   4.862   5.713   8.812  0.0484 -0.3631  0.1437
  236MOL0     C32479   4.717   5.860   9.094 -1.4470 -0.4095 -0.0762
  236MOL0     C32480   4.636   5.844   9.207  0.3414  0.3720  0.8833
  236MOL0     N32481   3.959   5.421   9.359 -0.0815 -0.4525  0.1437
  236MOL0     N32482   3.851   5.356   9.361  0.6982  0.1662  0.3757
  236MOL0     C32483   3.074   4.605   9.975 -0.5614 -0.0973  0.2348
  236MOL0     C32484   2.989   4.563  10.086  0.1236 -0.4937  0.1838
  236MOL0     C32485   2.834   4.421  10.502  0.0060  0.9032  0.5170
  236MOL0     C32486   2.713   4.465  10.459 -0.0351 -0.7820  0.2691
  236MOL0     C32487   2.586   4.438  10.522 -0.4482 -0.2994  0.3256
  236MOL0     C32488   2.588   4.373  10.646 -0.3527  0.5115 -0.1527
  236MOL0     O32489   2.475   4.370  10.718  0.2026 -0.6112 -0.8024
  236MOL0     C32490   2.457   4.282  10.821  0.9636  0.9113 -1.0559
  236MOL0     C32491   2.318   4.290  10.885 -0.6696  0.5830 -0.1416
  236MOL0     C32492   2.208   4.213  10.806  0.4898 -0.2364  0.1724
  236MOL0     C32493   2.070   4.209  10.885 -0.6651  0.0089 -0.4183
  236MOL0     C32494   2.022   4.333  10.941 -0.0070 -0.2241  0.1893
  236MOL0     C32495   1.984   4.436  10.986  0.6818  0.2443 -0.5632
  236MOL0     C32496   2.711   4.323  10.690  0.3530 -0.2358 -1.0263
  236MOL0     C32497   2.831   4.335  10.616  0.1167  0.3828 -0.2037
  236MOL0     C32498   2.958   4.257  10.669  0.3882  0.7922 -0.2571
  236MOL0     H32499   3.207   4.600  10.339  0.0395 -1.1199  0.2800
  236MOL0     H32500   3.348   4.679  10.157 -0.2758 -0.3940 -0.1530
  236MOL0     H32501   3.435   4.723   9.801  0.9300  1.8318  0.9691
  236MOL0     H32502   3.462   4.686   9.968  0.7479 -5.4949 -4.1077
  236MOL0     H32503   3.284   4.922   9.891 -1.1447 -2.7734  1.1935
  236MOL0     H32504   3.410   4.917  10.015  3.6677 -0.6414 -0.7757
  236MOL0     H32505   3.450   4.972   9.732  1.5135  0.5293  0.1847
  236MOL0     H32506   3.480   5.073   9.879 -1.4135 -0.5966  2.7996
  236MOL0     H32507   3.649   4.895   9.948 -2.2197  0.0509  1.0681
  236MOL0     H32508   3.640   4.840   9.775 -2.4549  2.3421 -3.0608
  236MOL0     H32509   3.822   4.998   9.820 -0.9966  0.1436  0.6537
  236MOL0     H32510   3.709   5.126   9.853  1.6837  0.0360  0.6251
  236MOL0     H32511   3.665   4.962   9.596  1.1604 -1.8491  1.2091
  236MOL0     H32512   3.605   5.118   9.630 -0.5758 -1.6084 -2.1483
  236MOL0     H32513   3.900   5.055   9.579  0.7928  0.6202 -1.2590
  236MOL0     H32514   3.837   5.214   9.599  0.9566  0.0045 -1.1807
  236MOL0     H32515   3.821   5.014   9.368  0.6169 -0.5708 -0.1573
  236MOL0     H32516   3.698   5.153   9.375  0.9337  2.6349 -0.1492
  236MOL0     H32517   4.091   5.126   9.365 -0.1146 -1.3443  4.1680
  236MOL0     H32518   4.273   5.302   9.410 -0.9011 -1.4249 -0.3406
  236MOL0     H32519   4.206   5.428   9.509 -2.4427  0.7360 -1.4242
  236MOL0     H32520   4.363   5.455   9.301  0.1536  1.3584  1.4336
  236MOL0     H32521   4.203   5.478   9.214  0.7687 -1.7130 -0.2363
  236MOL0     H32522   4.159   5.673   9.326  1.0414 -0.4087 -1.2234
  236MOL0     H32523   4.269   5.636   9.464 -0.0114 -0.6196  0.3110
  236MOL0     H32524   4.350   5.719   9.178  0.9640 -0.8121  0.1079
  236MOL0     H32525   4.331   5.831   9.303 -0.9001 -0.7013 -2.9671
  236MOL0     H32526   4.600   5.507   9.178  0.0180  0.2403  0.6512
  236MOL0     H32527   4.882   5.520   8.974  0.4450  2.5421  1.0754
  236MOL0     H32528   4.745   5.510   8.879  1.9184 -0.1602 -1.2676
  236MOL0     H32529   4.749   5.407   9.025  1.0689 -0.3112  0.5124
  236MOL0     H32530   4.931   5.869   8.661 -0.8025 -2.4935  1.9393
  236MOL0     H32531   5.116   5.901   8.514 -0.2873  1.3064  0.3211
  236MOL0     H32532   5.297   5.884   8.412  1.8844 -0.7264 -2.3188
  236MOL0     H32533   5.284   6.059   8.413  2.2606  1.1451 -0.0817
  236MOL0     H32534   5.532   5.902   8.382 -0.4437 -0.3853  1.2545
  236MOL0     H32535   5.444   6.006   8.258 -1.4156 -1.7942 -0.3877
  236MOL0     H32536   5.547   6.120   8.510 -0.4390 -1.4384  0.2614
  236MOL0     H32537   5.489   6.206   8.368 -0.2576  0.3976 -0.0293
  236MOL0     H32538   5.697   6.092   8.238 -2.0284 -2.5828  0.3041
  236MOL0     H32539   5.755   6.046   8.401 -1.3970  0.2356  0.8016
  236MOL0     H32540   5.722   6.327   8.283 -0.6532  2.7687  3.4134
  236MOL0     H32541   5.728   6.315   8.448  0.4684  0.6317 -0.1403
  236MOL0     H32542   5.939   6.195   8.251  0.3835 -1.3472  0.1795
  236MOL0     H32543   5.944   6.206   8.435  4.1991  2.3499  0.2770
  236MOL0     H32544   5.933   6.451   8.409 -2.7658  0.2523 -0.7410
  236MOL0     H32545   5.945   6.443   8.243 -2.4045  1.9387  1.9488
  236MOL0     H32546   6.155   6.347   8.433  0.3253 -0.9167 -0.2311
  236MOL0     H32547   6.181   6.473   8.316 -1.7865  0.3770  2.4379
  236MOL0     H32548   5.364   6.008   8.848 -0.2216 -2.9651  4.8156
  236MOL0     H32549   5.197   5.981   8.992  0.5440 -5.0421  1.8571
  236MOL0     H32550   4.749   5.958   9.060  0.5870 -1.1653 -0.4960
  236MOL0     H32551   4.598   5.929   9.263 -2.7268 -0.8343  0.8035
  236MOL0     H32552   3.044   4.607   9.870  1.3446 -0.5827 -0.3565
  236MOL0     H32553   2.888   4.525  10.082 -1.2573  2.8920  0.2864
  236MOL0     H32554   2.715   4.521  10.366 -1.4646 -0.2548  0.5296
  236MOL0     H32555   2.501   4.488  10.478  0.4245  1.2741  0.3403
  236MOL0     H32556   2.469   4.176  10.797 -1.0177 -0.2627  2.3815
  236MOL0     H32557   2.531   4.299  10.900  1.4494  0.7849 -1.4764
  236MOL0     H32558   2.295   4.396  10.896  0.2734  0.5521  3.9601
  236MOL0     H32559   2.329   4.251  10.987 -2.8399  0.8727  0.2584
  236MOL0     H32560   2.187   4.258  10.709 -1.0437 -0.3928  0.4022
  236MOL0     H32561   2.243   4.110  10.794  0.3748 -0.3655  0.8985
  236MOL0     H32562   2.072   4.129  10.959  2.3809 -0.3073 -0.6878
  236MOL0     H32563   1.989   4.194  10.813 -0.7204  3.3706 -1.2391
  236MOL0     H32564   1.939   4.530  11.011  2.1533  0.4375  1.6794
  236MOL0     H32565   2.714   4.269  10.784 -1.4749  0.1171 -0.7309
  236MOL0     H32566   3.008   4.211  10.583 -1.0866 -0.5630 -0.4337
  236MOL0     H32567   3.018   4.332  10.722  1.4242  0.7407 -1.3018
  236MOL0     H32568   2.930   4.171  10.731  0.0026 -0.0087 -1.4940
  237MOL0     O32569   9.651   3.012   4.252 -0.3634  0.0504 -0.5142
  237MOL0     C32570   9.586   2.910   4.259  0.6235  0.0271 -0.1021
  237MOL0     O32571   9.613   2.789   4.210  0.0938  0.7684  0.2714
  237MOL0     C32572   9.743   2.756   4.173 -0.4275  0.1525  0.0506
  237MOL0     C32573   9.813   2.644   4.230 -1.1515 -0.3847 -0.0429
  237MOL0     C32574   9.952   2.640   4.223 -0.0789 -0.9972  0.2751
  237MOL0     C32575  10.023   2.721   4.128 -0.5576  0.7909  0.1063
  237MOL0     O32576  10.153   2.707   4.099  0.7094  0.0725 -0.1548
  237MOL0     C32577  10.242   2.681   4.209  0.7692 -0.4703  0.2535
  237MOL0     C32578  10.373   2.756   4.195 -0.6622 -0.4875 -0.8631
  237MOL0     C32579  10.480   2.708   4.295  0.2234  0.5846  0.3743
  237MOL0     C32580  10.590   2.811   4.288 -0.3500  0.3864  0.0054
  237MOL0     C32581  10.710   2.802   4.383  0.8716  0.1145  0.4677
  237MOL0     C32582  10.785   2.922   4.393 -0.3967  0.1355  0.0379
  237MOL0     C32583  10.903   2.904   4.479 -1.3594 -0.0446 -0.4855
  237MOL0     C32584  10.985   3.031   4.492  0.0261 -0.3151 -0.1795
  237MOL0     N32585  11.116   2.997   4.571  0.3403 -0.2535  0.5759
  237MOL0     C32586  11.128   2.982   4.708  0.2514 -0.0605  0.3430
  237MOL0     C32587  11.261   2.957   4.736 -0.0650 -0.2692 -0.4687
  237MOL0     C32588  11.314   2.930   4.877 -0.3041 -0.0222  0.8939
  237MOL0     C32589  11.464   2.957   4.892 -0.2486  0.2260 -0.1172
  237MOL0     C32590  11.550   2.851   4.825  0.9873 -0.1041  0.6014
  237MOL0     C32591  11.697   2.881   4.817 -0.0918 -0.1065  0.4548
  237MOL0     O32592  11.770   2.910   4.940  0.0004 -0.5212  0.2881
  237MOL0     C32593  11.907   2.887   4.939  0.3740 -0.3759 -0.4277
  237MOL0     C32594  11.992   2.957   4.857 -0.3979  0.6294 -0.8149
  237MOL0     C32595  12.126   2.916   4.848 -0.2257 -0.0755 -0.3938
  237MOL0     C32596  12.221   2.994   4.749 -0.5964  0.6151  0.1626
  237MOL0     C32597  12.167   2.813   4.942  0.3721 -0.6550  1.2553
  237MOL0     C32598  12.298   2.747   4.939 -0.7530 -0.9343  1.2225
  237MOL0     O32599  12.402   2.826   4.916 -0.5434  0.4395 -0.4975
  237MOL0     C32600  12.516   2.755   4.874 -0.1877  0.4836 -0.3858
  237MOL0     C32601  12.553   2.732   4.735  0.1016 -0.2771 -0.5469
  237MOL0     C32602  12.667   2.662   4.706  1.2768  0.0011 -0.2118
  237MOL0     C32603  12.744   2.606   4.801 -0.1515 -0.4914  0.9087
  237MOL0     O32604  12.862   2.546   4.755 -0.9231  0.3416 -0.7280
  237MOL0     C32605  12.965   2.511   4.846 -0.1099  0.9025 -0.8019
  237MOL0     C32606  13.096   2.486   4.764 -0.0862 -0.0256 -0.1509
  237MOL0     C32607  13.092   2.349   4.699 -0.0196 -0.5041  0.0723
  237MOL0     C32608  13.126   2.232   4.796  0.5014  0.1310 -0.2863
  237MOL0     C32609  13.140   2.106   4.716 -0.0777  1.6821  1.1139
  237MOL0     C32610  13.190   1.991   4.804  0.0890  0.7336 -0.2156
  237MOL0     C32611  13.075   1.932   4.899 -0.6905  0.2569  0.4902
  237MOL0     C32612  13.100   1.790   4.933 -0.3424  0.4442 -0.7723
  237MOL0    Cl32613  13.271   1.775   5.014  0.2584  0.2676 -0.0975
  237MOL0     C32614  12.713   2.632   4.940 -0.3275 -0.0518 -0.9686
  237MOL0     C32615  12.606   2.712   4.978  0.5085  0.3104  0.5200
  237MOL0     O32616  12.307   2.626   4.954  0.4045  0.1539 -0.0723
  237MOL0     C32617  12.076   2.756   5.028 -0.0323  0.6815  0.0639
  237MOL0     C32618  11.944   2.788   5.028  0.1912 -0.6764  0.1865
  237MOL0     N32619  11.324   2.949   4.615 -0.6523  0.5904  1.2450
  237MOL0     N32620  11.241   2.972   4.517 -0.6012  0.3310 -0.5324
  237MOL0     C32621   9.950   2.805   4.045 -0.3005  0.0678 -0.3088
  237MOL0     C32622   9.815   2.824   4.077  0.0687 -0.4907  0.7326
  237MOL0     C32623   9.444   2.934   4.303  0.3527 -0.3920 -0.4203
  237MOL0     C32624   9.339   2.867   4.242 -0.5545 -0.5534  0.2678
  237MOL0     C32625   9.213   2.868   4.297 -0.2094  0.1720 -0.4391
  237MOL0     C32626   9.175   2.936   4.411  0.2113 -0.2822  0.0078
  237MOL0     O32627   9.054   2.938   4.461  0.7926 -0.2509  0.1820
  237MOL0     C32628   8.954   2.939   4.367  0.3757  0.0681  1.0402
  237MOL0     C32629   8.941   3.081   4.302 -0.1871 -0.5898 -0.0115
  237MOL0     C32630   8.795   3.129   4.292  1.1503 -0.2043  0.0507
  237MOL0     C32631   8.778   3.262   4.210 -0.1024 -0.3395 -0.1375
  237MOL0     C32632   8.636   3.292   4.199  0.9266 -0.6963  0.4415
  237MOL0     C32633   8.529   3.353   4.213 -0.0885 -0.0544 -0.2982
  237MOL0     C32634   9.285   3.004   4.472  0.3770  0.1741  0.1678
  237MOL0     C32635   9.416   3.004   4.423 -0.6267  0.3294 -0.0947
  237MOL0     C32636   9.504   3.085   4.506 -0.6889 -0.1789  0.0806
  237MOL0     H32637   9.757   2.574   4.291  0.9253 -1.6342  0.5062
  237MOL0     H32638  10.006   2.581   4.297 -0.5046 -0.4145  1.0701
  237MOL0     H32639  10.269   2.576   4.191 -4.2561 -1.9763 -0.0594
  237MOL0     H32640  10.196   2.697   4.307  0.0352  1.7872 -0.3960
  237MOL0     H32641  10.411   2.748   4.092 -0.3439 -1.4397 -0.6842
  237MOL0     H32642  10.355   2.861   4.218  1.3342 -0.4162  0.6405
  237MOL0     H32643  10.443   2.719   4.397 -1.7753  2.6980 -0.4749
  237MOL0     H32644  10.517   2.607   4.275  1.1179  1.2708 -1.7005
  237MOL0     H32645  10.617   2.824   4.183  0.4674 -4.2908 -0.6006
  237MOL0     H32646  10.538   2.903   4.318 -0.8840  0.1776 -0.2499
  237MOL0     H32647  10.777   2.725   4.341 -2.2860 -2.8472  0.3908
  237MOL0     H32648  10.682   2.777   4.485  0.3963  0.2380  0.3689
  237MOL0     H32649  10.814   2.952   4.291  1.6411 -0.6007  0.3645
  237MOL0     H32650  10.718   2.998   4.436 -1.6127  0.0180 -1.5584
  237MOL0     H32651  10.970   2.828   4.436 -2.1572 -1.2488  0.3164
  237MOL0     H32652  10.873   2.866   4.578  3.0586 -2.3396  0.2542
  237MOL0     H32653  11.011   3.056   4.388 -2.6404  0.8995 -0.6290
  237MOL0     H32654  10.931   3.115   4.535  0.6850  0.6427 -1.1616
  237MOL0     H32655  11.056   2.995   4.788  1.5625  3.6434  1.1366
  237MOL0     H32656  11.299   2.823   4.898 -2.8896 -0.1843 -1.2629
  237MOL0     H32657  11.259   2.992   4.948 -2.0931  0.2474 -0.6599
  237MOL0     H32658  11.483   3.048   4.835  1.1731  0.0982  0.1152
  237MOL0     H32659  11.491   2.963   4.998 -0.4477  1.0859 -0.1049
  237MOL0     H32660  11.537   2.750   4.866  1.5873 -1.4622 -2.3241
  237MOL0     H32661  11.519   2.839   4.721 -0.9229 -0.9407  1.2050
  237MOL0     H32662  11.750   2.800   4.767  0.9781  0.5625  0.4765
  237MOL0     H32663  11.716   2.970   4.756  0.9414  1.8089  3.3579
  237MOL0     H32664  11.952   3.032   4.789 -2.2156  1.2066  0.7800
  237MOL0     H32665  12.166   3.071   4.694 -1.5723  1.2112  1.9019
  237MOL0     H32666  12.261   2.925   4.674 -1.8126 -0.4354  0.4403
  237MOL0     H32667  12.303   3.049   4.794 -1.5427  2.5268 -0.3545
  237MOL0     H32668  12.491   2.781   4.660 -1.0892  0.3839  0.8199
  237MOL0     H32669  12.701   2.645   4.605  1.6885 -3.6146  0.3956
  237MOL0     H32670  12.990   2.597   4.910 -3.1613  1.1193  0.2688
  237MOL0     H32671  12.946   2.421   4.906  0.2648  0.2569 -1.6342
  237MOL0     H32672  13.106   2.567   4.692 -2.5911  1.7109  1.2782
  237MOL0     H32673  13.183   2.494   4.830 -0.3296  0.4447  0.1172
  237MOL0     H32674  13.163   2.352   4.615 -0.8496 -2.0102 -0.7147
  237MOL0     H32675  12.995   2.342   4.650  0.3623  2.9416 -1.5551
  237MOL0     H32676  13.061   2.226   4.884  2.1232 -2.3875  0.8776
  237MOL0     H32677  13.219   2.267   4.843  0.6800 -0.3321 -0.2865
  237MOL0     H32678  13.046   2.071   4.671 -0.5042  2.4136  1.4229
  237MOL0     H32679  13.210   2.127   4.634  0.4913 -0.7181  0.9169
  237MOL0     H32680  13.267   2.031   4.870  0.0728  3.9780 -1.9433
  237MOL0     H32681  13.236   1.912   4.745  4.3006  1.2990  1.9402
  237MOL0     H32682  12.982   1.955   4.848  1.2086  2.0260 -2.4934
  237MOL0     H32683  13.080   1.993   4.990 -0.5037  1.2167 -0.1427
  237MOL0     H32684  13.098   1.719   4.849  3.0055 -1.0868  0.2658
  237MOL0     H32685  13.024   1.757   5.004 -2.1052  0.5545 -2.5195
  237MOL0     H32686  12.788   2.593   5.008 -2.4447 -1.1495  0.8496
  237MOL0     H32687  12.597   2.748   5.080 -0.8750  0.4951  0.3494
  237MOL0     H32688  12.113   2.689   5.106 -0.9062  1.9095  1.6085
  237MOL0     H32689  11.874   2.751   5.102  1.3736  0.4326  1.9316
  237MOL0     H32690  10.003   2.867   3.973  1.2562 -0.5949  0.2253
  237MOL0     H32691   9.757   2.902   4.029  1.0224 -0.5182 -0.5241
  237MOL0     H32692   9.355   2.824   4.144 -3.2003  2.9412 -1.9791
  237MOL0     H32693   9.136   2.819   4.238 -1.5158 -1.3543  2.3361
  237MOL0     H32694   8.955   2.868   4.284  1.6889  2.0237 -0.7344
  237MOL0     H32695   8.861   2.926   4.424  1.3105  0.8216  2.8077
  237MOL0     H32696   8.998   3.095   4.209  0.8231 -2.7219  0.2322
  237MOL0     H32697   8.993   3.146   4.373  0.8843  0.5398 -1.7437
  237MOL0     H32698   8.737   3.046   4.251  0.6403 -0.0698  0.4951
  237MOL0     H32699   8.749   3.141   4.390  1.2580  2.0416 -0.1122
  237MOL0     H32700   8.813   3.239   4.109 -2.7933  0.0742 -1.2411
  237MOL0     H32701   8.837   3.338   4.263 -0.1073 -1.4737  1.6019
  237MOL0     H32702   8.454   3.424   4.239  0.8370  0.8254  0.0336
  237MOL0     H32703   9.256   3.063   4.559 -0.2999  3.8171 -2.2690
  237MOL0     H32704   9.454   3.137   4.588  0.9598  2.0789 -0.2339
  237MOL0     H32705   9.583   3.017   4.538  1.5457  2.6918  1.2063
  237MOL0     H32706   9.555   3.162   4.446 -1.2656  0.0907 -0.0724
  238MOL0     O32707   9.655   8.280   4.489  0.3805 -0.2999 -0.4468
  238MOL0     C32708   9.610   8.289   4.378  0.5100  0.5555  0.2310
  238MOL0     O32709   9.672   8.240   4.268 -0.1984  0.1085  0.4303
  238MOL0     C32710   9.808   8.224   4.256  0.4111  0.2502  0.6357
  238MOL0     C32711   9.907   8.222   4.351  0.1051 -0.1072  0.6033
  238MOL0     C32712  10.040   8.217   4.322  0.3628  0.7431  0.0723
  238MOL0     C32713  10.089   8.238   4.192 -0.0327  0.9766 -0.5673
  238MOL0     O32714  10.221   8.257   4.178  0.4503  0.1739  0.5457
  238MOL0     C32715  10.260   8.345   4.067 -0.1169 -0.5398  1.2190
  238MOL0     C32716  10.356   8.456   4.117 -0.4261 -0.5854 -0.4441
  238MOL0     C32717  10.494   8.405   4.158 -0.3156  0.5289 -0.6627
  238MOL0     C32718  10.578   8.511   4.219  1.1315 -0.3532 -0.4111
  238MOL0     C32719  10.733   8.487   4.232  0.1166 -0.6412 -0.4768
  238MOL0     C32720  10.805   8.510   4.094 -0.4454  0.2635 -0.5919
  238MOL0     C32721  10.945   8.446   4.098 -0.8487  0.6039 -0.2888
  238MOL0     C32722  11.035   8.477   3.975 -1.1144  0.1265 -0.4421
  238MOL0     N32723  11.170   8.427   3.997  0.4542 -0.1351 -0.0247
  238MOL0     C32724  11.282   8.497   3.968 -0.1375  0.5103 -0.3219
  238MOL0     C32725  11.384   8.408   3.990  0.2499  0.4382  1.1538
  238MOL0     C32726  11.528   8.431   3.980  0.0486 -0.1377 -0.0373
  238MOL0     C32727  11.573   8.462   3.830 -1.0058  0.4344 -0.1888
  238MOL0     C32728  11.579   8.606   3.810  0.9729  0.0552  0.1485
  238MOL0     C32729  11.560   8.657   3.666  0.0842  0.5004  0.2670
  238MOL0     O32730  11.657   8.599   3.579 -0.3608  0.5072  0.9172
  238MOL0     C32731  11.767   8.671   3.542 -0.6145  0.1143 -0.5379
  238MOL0     C32732  11.819   8.781   3.602  0.2882  0.4999 -0.0343
  238MOL0     C32733  11.943   8.835   3.557  0.8381 -0.2926  0.2597
  238MOL0     C32734  11.968   8.962   3.638 -0.6100 -0.8876  0.6158
  238MOL0     C32735  12.027   8.777   3.468 -0.3752 -0.5266 -0.4240
  238MOL0     C32736  12.166   8.813   3.440 -0.6732  0.1109  0.4009
  238MOL0     O32737  12.249   8.719   3.384  0.2486  0.4832  0.5906
  238MOL0     C32738  12.386   8.745   3.398 -0.7756  0.8545  0.0348
  238MOL0     C32739  12.471   8.656   3.331  1.1574  0.5970 -0.7321
  238MOL0     C32740  12.603   8.648   3.345  0.2042 -0.2887 -0.5116
  238MOL0     C32741  12.669   8.758   3.413  0.4155  0.2459 -0.3002
  238MOL0     O32742  12.803   8.769   3.406  0.8494 -0.0137  1.0346
  238MOL0     C32743  12.865   8.895   3.435 -0.7179  0.7918 -0.3315
  238MOL0     C32744  12.998   8.884   3.353  0.2116  0.4602  0.1704
  238MOL0     C32745  13.079   9.010   3.356  0.4545 -0.2183  0.5874
  238MOL0     C32746  13.192   9.009   3.257 -0.1335  0.1537 -0.1019
  238MOL0     C32747  13.283   8.887   3.282 -0.1420 -0.4781  0.2077
  238MOL0     C32748  13.403   8.915   3.192 -0.6914  0.5005 -0.2169
  238MOL0     C32749  13.476   8.788   3.154 -0.6261  0.1523 -0.2707
  238MOL0     C32750  13.593   8.837   3.057  0.1770  0.7299  0.3720
  238MOL0    Cl32751  13.526   8.906   2.902  0.1837 -0.3315 -0.2245
  238MOL0     C32752  12.590   8.857   3.474 -0.0086  0.1626  0.0028
  238MOL0     C32753  12.453   8.843   3.464 -0.0627 -0.1574 -0.4500
  238MOL0     O32754  12.191   8.931   3.451 -0.1104  0.0318  0.1121
  238MOL0     C32755  11.975   8.662   3.404 -0.4683 -0.0721 -0.0080
  238MOL0     C32756  11.849   8.619   3.441  1.0610 -0.1963 -0.2448
  238MOL0     N32757  11.328   8.284   4.028  0.3449 -0.0582  0.5142
  238MOL0     N32758  11.200   8.294   4.036  0.4141 -0.3895  0.0646
  238MOL0     C32759  10.000   8.236   4.091  0.0583 -1.6591  0.0149
  238MOL0     C32760   9.857   8.225   4.121 -0.5726  0.7490  0.4808
  238MOL0     C32761   9.461   8.332   4.372  0.1643  0.4719 -0.6370
  238MOL0     C32762   9.392   8.290   4.253 -0.3540 -0.3654  0.4474
  238MOL0     C32763   9.260   8.320   4.239  0.4289  0.3847 -0.1583
  238MOL0     C32764   9.194   8.396   4.328  0.5018  0.5788 -0.0185
  238MOL0     O32765   9.060   8.422   4.314  0.1871  0.2417 -0.4620
  238MOL0     C32766   8.980   8.349   4.406 -0.6229  0.4251 -0.4759
  238MOL0     C32767   8.935   8.214   4.351  0.7833  0.3167  0.3857
  238MOL0     C32768   9.044   8.100   4.367 -0.3051 -0.3798 -0.0723
  238MOL0     C32769   8.992   7.964   4.395  0.1691  0.7777  0.0142
  238MOL0     C32770   8.910   7.906   4.290  0.4076  1.0573 -0.7237
  238MOL0     C32771   8.835   7.870   4.203 -0.0499  0.0087  0.3978
  238MOL0     C32772   9.259   8.446   4.437 -0.2555  0.8822 -1.2439
  238MOL0     C32773   9.396   8.417   4.461 -0.2935 -0.0689 -0.0761
  238MOL0     C32774   9.467   8.477   4.585 -0.3830  0.4557 -0.2056
  238MOL0     H32775   9.872   8.215   4.454 -0.9951  0.9067  0.3135
  238MOL0     H32776  10.106   8.213   4.408 -2.7285  1.0024  2.6269
  238MOL0     H32777  10.170   8.395   4.030 -0.2538 -2.2270 -0.9560
  238MOL0     H32778  10.301   8.282   3.988 -1.9307 -0.6935  0.3474
  238MOL0     H32779  10.372   8.539   4.047  1.7225 -0.2110  0.3957
  238MOL0     H32780  10.330   8.496   4.216  0.8303 -0.8989  0.0329
  238MOL0     H32781  10.495   8.321   4.228 -1.9323 -0.4008 -1.7139
  238MOL0     H32782  10.546   8.376   4.066  2.0510 -2.3024  1.3494
  238MOL0     H32783  10.560   8.597   4.153 -1.9016 -2.7632 -3.0436
  238MOL0     H32784  10.551   8.546   4.320  0.2217  1.9477 -1.3722
  238MOL0     H32785  10.749   8.384   4.264 -0.6823 -0.1707  1.5248
  238MOL0     H32786  10.782   8.558   4.299  2.3930 -2.0123 -0.6007
  238MOL0     H32787  10.747   8.464   4.013 -2.4644  2.0903 -0.2758
  238MOL0     H32788  10.821   8.614   4.062  1.6458  0.3877  0.6502
  238MOL0     H32789  10.930   8.340   4.118  0.5096  0.6386  1.1060
  238MOL0     H32790  10.994   8.496   4.182  2.7100  0.2349 -1.9258
  238MOL0     H32791  10.999   8.432   3.882  0.1271 -3.9669  0.8201
  238MOL0     H32792  11.040   8.586   3.967  0.3225  0.6095  3.8788
  238MOL0     H32793  11.290   8.601   3.937 -1.7947  1.1403  1.1922
  238MOL0     H32794  11.583   8.342   4.013 -0.4499  0.0890  1.4630
  238MOL0     H32795  11.569   8.515   4.037  3.8998 -2.8186  1.6126
  238MOL0     H32796  11.676   8.431   3.811 -1.5469 -0.2648 -2.3646
  238MOL0     H32797  11.506   8.412   3.760 -0.0042 -0.9570 -0.2012
  238MOL0     H32798  11.498   8.656   3.865  0.9376  0.6763 -0.4524
  238MOL0     H32799  11.675   8.641   3.848  1.6782 -1.4503 -0.2016
  238MOL0     H32800  11.461   8.626   3.633 -0.3174  0.5500  1.3607
  238MOL0     H32801  11.562   8.766   3.658  3.2508  0.5820  0.6806
  238MOL0     H32802  11.754   8.841   3.664 -1.6091 -0.2675 -1.2033
  238MOL0     H32803  11.993   9.043   3.569 -2.7159 -0.2078  0.5561
  238MOL0     H32804  12.051   8.940   3.706  0.0546 -0.4260 -0.0410
  238MOL0     H32805  11.883   8.988   3.703 -1.7465 -2.9281  0.0449
  238MOL0     H32806  12.412   8.594   3.264 -3.3372  0.9611  2.3752
  238MOL0     H32807  12.657   8.579   3.282 -1.4198  0.3326 -2.7271
  238MOL0     H32808  12.810   8.976   3.386  1.8665  0.9783 -3.1627
  238MOL0     H32809  12.898   8.901   3.539  2.3709  1.0959 -1.2516
  238MOL0     H32810  13.035   8.786   3.385 -1.3208 -0.4863 -0.8006
  238MOL0     H32811  12.971   8.874   3.248 -1.2029 -0.2646  0.5820
  238MOL0     H32812  13.123   9.026   3.455 -0.3191 -0.4169  0.9737
  238MOL0     H32813  13.016   9.094   3.326  2.2907  1.0639  0.1260
  238MOL0     H32814  13.251   9.100   3.275  0.2542 -0.3620  1.4278
  238MOL0     H32815  13.144   9.005   3.159 -0.0638  2.6666 -0.3259
  238MOL0     H32816  13.315   8.881   3.386 -0.2897 -0.9815  0.2283
  238MOL0     H32817  13.248   8.786   3.257  3.0151 -1.2500 -1.6345
  238MOL0     H32818  13.471   8.978   3.250 -0.4132  1.8866 -1.9528
  238MOL0     H32819  13.375   8.965   3.099 -0.1433  0.0827 -0.6156
  238MOL0     H32820  13.409   8.711   3.117  0.2127 -2.3779  2.9760
  238MOL0     H32821  13.524   8.730   3.234  0.3367  0.4345 -0.6269
  238MOL0     H32822  13.659   8.753   3.036 -0.0827  0.5018  0.4509
  238MOL0     H32823  13.641   8.919   3.110  0.4283  0.1308  1.1049
  238MOL0     H32824  12.625   8.946   3.527 -3.9099  1.9988 -0.1396
  238MOL0     H32825  12.407   8.920   3.524  2.2421 -0.6601  2.2066
  238MOL0     H32826  12.035   8.607   3.332  2.0414 -0.4140  2.1749
  238MOL0     H32827  11.811   8.529   3.394 -2.4421  0.4143  1.0871
  238MOL0     H32828  10.023   8.271   3.991 -2.7974  0.6164  0.0191
  238MOL0     H32829   9.789   8.227   4.036 -0.0277 -3.9381 -0.3096
  238MOL0     H32830   9.438   8.230   4.175  1.7153  0.6227  0.8449
  238MOL0     H32831   9.202   8.306   4.148  1.4730  2.7891 -1.2877
  238MOL0     H32832   9.033   8.339   4.501 -0.5701 -0.8986 -0.6341
  238MOL0     H32833   8.897   8.414   4.436  0.6220  1.7833  0.1823
  238MOL0     H32834   8.910   8.232   4.246 -0.4292 -1.5429  0.3078
  238MOL0     H32835   8.839   8.185   4.393  1.4784  0.4331  2.1355
  238MOL0     H32836   9.107   8.106   4.278  0.7938  1.8601  0.7826
  238MOL0     H32837   9.112   8.129   4.447 -2.1895  1.8431  0.8505
  238MOL0     H32838   8.949   7.955   4.495  0.1094 -1.6050 -0.1729
  238MOL0     H32839   9.076   7.894   4.398  0.3869  1.0336 -0.0011
  238MOL0     H32840   8.767   7.828   4.132 -2.2464  0.6960  1.9874
  238MOL0     H32841   9.206   8.510   4.507 -0.4461  0.2557 -0.8104
  238MOL0     H32842   9.402   8.552   4.631 -1.3187  0.7433 -1.9146
  238MOL0     H32843   9.497   8.397   4.654  0.8496 -0.2851 -1.5314
  238MOL0     H32844   9.558   8.524   4.548 -0.0030 -0.1063 -0.0094
  239MOL0     O32845   3.415   7.267   4.228  0.0414  0.3949 -0.2763
  239MOL0     C32846   3.358   7.373   4.216 -0.4601  0.3572 -0.6784
  239MOL0     O32847   3.381   7.479   4.294  0.3398 -0.6066 -0.1230
  239MOL0     C32848   3.470   7.460   4.402 -1.1682 -1.0051 -0.3595
  239MOL0     C32849   3.435   7.518   4.525  0.5075 -0.7892  0.5518
  239MOL0     C32850   3.525   7.505   4.627 -0.4199 -0.0182 -0.5023
  239MOL0     C32851   3.649   7.448   4.616 -0.9633 -0.8099 -0.7215
  239MOL0     O32852   3.725   7.440   4.733 -0.4781 -0.0963  0.1331
  239MOL0     C32853   3.860   7.400   4.706 -0.1729  0.0077 -0.3064
  239MOL0     C32854   3.934   7.378   4.830 -0.1073  0.3916  0.6733
  239MOL0     C32855   3.967   7.508   4.911  0.0689  0.1047  0.5552
  239MOL0     C32856   3.827   7.567   4.960  0.5941  0.5051 -0.1341
  239MOL0     C32857   3.835   7.687   5.056  0.3159 -0.1037 -0.0461
  239MOL0     C32858   3.926   7.805   4.999  0.1804  0.2337 -0.0270
  239MOL0     C32859   3.888   7.921   5.094 -0.7770  0.2508 -0.3684
  239MOL0     C32860   3.971   8.052   5.066 -0.2448  0.5453  1.0825
  239MOL0     N32861   4.111   8.015   5.069 -0.3914  0.3484  0.5773
  239MOL0     C32862   4.186   8.022   4.954  0.5705  0.2244  0.6054
  239MOL0     C32863   4.317   8.001   4.993  0.3593 -0.4432 -0.2542
  239MOL0     C32864   4.445   8.021   4.922  0.2625 -0.6794 -0.5450
  239MOL0     C32865   4.428   8.015   4.769 -0.7006 -1.2610  0.1941
  239MOL0     C32866   4.563   7.997   4.686  0.7959 -0.5561  0.3888
  239MOL0     C32867   4.543   8.030   4.546 -0.4074 -0.5258 -0.2237
  239MOL0     O32868   4.452   7.939   4.480  0.1893 -0.3536  0.2563
  239MOL0     C32869   4.370   7.983   4.376  1.0141 -0.2697  0.2787
  239MOL0     C32870   4.380   8.112   4.323  0.0937 -0.1184 -0.0760
  239MOL0     C32871   4.310   8.155   4.212  0.1983  0.1865  0.9440
  239MOL0     C32872   4.338   8.292   4.162 -0.6262 -0.3419 -0.0487
  239MOL0     C32873   4.224   8.060   4.144  0.7194  0.2843 -0.9164
  239MOL0     C32874   4.159   8.096   4.019 -0.1846  0.3903  0.7640
  239MOL0     O32875   4.028   8.088   4.004  0.4323 -0.6566 -0.2207
  239MOL0     C32876   3.947   8.061   4.107  0.3703 -0.1256  0.3762
  239MOL0     C32877   3.855   7.957   4.102 -0.3515  0.5626 -0.1360
  239MOL0     C32878   3.760   7.927   4.202 -0.9096 -0.5558  0.1300
  239MOL0     C32879   3.763   8.002   4.321 -0.3116 -0.3195 -0.3516
  239MOL0     O32880   3.690   7.979   4.432  0.2938 -0.2766 -0.0242
  239MOL0     C32881   3.560   8.029   4.404 -0.4475 -0.1936 -0.4621
  239MOL0     C32882   3.456   7.914   4.445  0.2703  0.0812  0.5744
  239MOL0     C32883   3.312   7.954   4.424  0.5119 -0.1432 -0.2758
  239MOL0     C32884   3.263   8.069   4.515 -0.3904  0.1418  0.0744
  239MOL0     C32885   3.111   8.086   4.513 -0.0139  0.2150 -0.0015
  239MOL0     C32886   3.058   8.122   4.375  0.6216  0.1662 -0.1875
  239MOL0     C32887   2.905   8.146   4.385 -0.3666  0.6912 -0.0532
  239MOL0     C32888   2.872   8.239   4.265 -0.0192  0.6072 -1.0883
  239MOL0    Cl32889   2.702   8.290   4.274  0.6943 -0.5534 -0.1654
  239MOL0     C32890   3.852   8.112   4.326  0.6571 -0.2227 -0.5722
  239MOL0     C32891   3.942   8.139   4.225 -1.1012 -0.4747  0.0630
  239MOL0     O32892   4.229   8.101   3.921  0.0895 -0.8773 -0.4834
  239MOL0     C32893   4.202   7.931   4.203 -0.2350  0.3346 -0.6720
  239MOL0     C32894   4.277   7.898   4.319 -0.2249  0.4986 -1.1414
  239MOL0     N32895   4.310   7.983   5.130  0.8097 -0.1601 -0.1200
  239MOL0     N32896   4.191   7.992   5.176 -0.3678 -0.3175  0.7053
  239MOL0     C32897   3.687   7.406   4.484  0.0773  0.1540 -0.0157
  239MOL0     C32898   3.603   7.414   4.379  0.0388  0.1202  0.4118
  239MOL0     C32899   3.272   7.389   4.090  0.1343  0.2133  0.6687
  239MOL0     C32900   3.186   7.501   4.086 -0.8193 -0.9598 -0.5965
  239MOL0     C32901   3.089   7.506   3.989 -0.1114  0.0193 -0.3861
  239MOL0     C32902   3.079   7.410   3.882  0.3777 -0.7317  0.5125
  239MOL0     O32903   2.993   7.413   3.778  0.7166  0.4099 -0.0589
  239MOL0     C32904   2.895   7.517   3.772  0.4171 -0.3849 -0.0315
  239MOL0     C32905   2.949   7.636   3.688 -0.2780 -0.2742  0.0963
  239MOL0     C32906   3.013   7.594   3.551 -0.1339 -0.3090 -0.2006
  239MOL0     C32907   2.908   7.614   3.437  0.4260 -0.1402 -0.1238
  239MOL0     C32908   2.794   7.523   3.448  0.0333 -0.4090 -0.0288
  239MOL0     C32909   2.711   7.443   3.459 -0.0116  0.6850 -0.8440
  239MOL0     C32910   3.169   7.311   3.881  0.1413 -0.2258  0.8047
  239MOL0     C32911   3.266   7.294   3.985  0.0967 -0.0143  0.9562
  239MOL0     C32912   3.377   7.202   3.944  0.1771  0.3596  0.3339
  239MOL0     H32913   3.342   7.575   4.530  1.5795  1.2078 -0.8572
  239MOL0     H32914   3.513   7.562   4.719 -0.3927  1.7272 -1.5326
  239MOL0     H32915   3.917   7.468   4.641 -0.6813 -0.2400 -1.0283
  239MOL0     H32916   3.860   7.302   4.658  0.6686 -0.0073 -0.2865
  239MOL0     H32917   3.886   7.301   4.892 -0.2632  0.9884  1.3148
  239MOL0     H32918   4.034   7.342   4.807  0.2301 -0.7797  3.5198
  239MOL0     H32919   4.026   7.480   4.999  0.3450 -0.0180  0.3330
  239MOL0     H32920   4.021   7.590   4.864  1.6429 -0.2350  1.6785
  239MOL0     H32921   3.760   7.605   4.883 -0.6159 -0.2048  0.5399
  239MOL0     H32922   3.762   7.489   5.000 -1.7610  2.0234 -0.7672
  239MOL0     H32923   3.880   7.653   5.149 -0.6018 -1.0194  0.0842
  239MOL0     H32924   3.739   7.724   5.093  0.2137 -0.4193  0.0095
  239MOL0     H32925   4.033   7.782   5.008  0.0953 -0.0825  0.1622
  239MOL0     H32926   3.898   7.831   4.897  1.1404  4.9048  0.6741
  239MOL0     H32927   3.892   7.892   5.199 -1.3678  1.6383  0.0689
  239MOL0     H32928   3.785   7.953   5.076 -0.7475  0.9557  0.6496
  239MOL0     H32929   3.936   8.104   4.977  0.7631  0.9326  0.9004
  239MOL0     H32930   3.939   8.106   5.155 -3.4497  1.5824 -0.5687
  239MOL0     H32931   4.141   8.044   4.858  2.1721  1.2108  0.0338
  239MOL0     H32932   4.518   7.952   4.965  1.2706  1.8105  2.1343
  239MOL0     H32933   4.483   8.123   4.932  2.3049 -1.4925  0.5561
  239MOL0     H32934   4.356   7.938   4.739 -2.8798  1.5732 -2.4417
  239MOL0     H32935   4.400   8.115   4.735  0.0763 -1.1594 -0.1673
  239MOL0     H32936   4.645   8.050   4.735  0.5283  0.5079 -0.2788
  239MOL0     H32937   4.597   7.894   4.699  2.4979  0.1625  2.1479
  239MOL0     H32938   4.519   8.137   4.539 -0.6355 -0.5316  0.3986
  239MOL0     H32939   4.636   8.006   4.494  0.0100 -1.7146  1.0279
  239MOL0     H32940   4.453   8.185   4.356 -1.9290  1.7505  0.4675
  239MOL0     H32941   4.244   8.332   4.122  0.5149  2.0764 -0.4575
  239MOL0     H32942   4.424   8.303   4.095  0.1814  2.3798  1.2739
  239MOL0     H32943   4.352   8.347   4.255 -0.0603 -3.4246  1.8229
  239MOL0     H32944   3.865   7.904   4.008  2.4979  0.3937  0.1660
  239MOL0     H32945   3.698   7.841   4.180  1.1261 -2.2227  0.5750
  239MOL0     H32946   3.552   8.115   4.472  2.8876 -1.2334  1.5014
  239MOL0     H32947   3.547   8.052   4.298  1.7111  0.5074 -0.6285
  239MOL0     H32948   3.479   7.828   4.381 -1.4104  0.3161 -0.3845
  239MOL0     H32949   3.474   7.892   4.551 -3.2303 -0.9504  1.0614
  239MOL0     H32950   3.245   7.868   4.434 -1.9533  1.8565  2.0126
  239MOL0     H32951   3.304   7.986   4.320  0.3091  0.5933 -0.0415
  239MOL0     H32952   3.323   8.160   4.502 -1.5164  1.3435  2.4940
  239MOL0     H32953   3.290   8.042   4.618 -1.8355  0.9630  0.7070
  239MOL0     H32954   3.063   7.995   4.549 -0.2139  0.8776  1.4607
  239MOL0     H32955   3.086   8.166   4.583 -0.9860 -0.5653  0.5753
  239MOL0     H32956   3.063   8.045   4.297  3.1303  0.5677 -0.4959
  239MOL0     H32957   3.103   8.218   4.350  0.4738 -0.1694 -1.8716
  239MOL0     H32958   2.887   8.171   4.490  2.0714 -1.8351  1.1015
  239MOL0     H32959   2.856   8.048   4.380 -1.7973  1.0059  3.8689
  239MOL0     H32960   2.886   8.198   4.165  2.0681 -3.7344  0.7168
  239MOL0     H32961   2.933   8.327   4.285  0.0726  0.1351  0.9667
  239MOL0     H32962   3.856   8.173   4.415 -2.0218 -0.5630 -0.1214
  239MOL0     H32963   4.000   8.230   4.218 -0.7417 -0.7915 -1.2388
  239MOL0     H32964   4.141   7.860   4.147  0.9534 -0.1603 -1.3830
  239MOL0     H32965   4.262   7.800   4.363 -0.6687  1.8798  2.0479
  239MOL0     H32966   3.781   7.354   4.466 -0.3974  0.4364 -4.6505
  239MOL0     H32967   3.638   7.392   4.279 -2.3422 -1.0392 -0.2430
  239MOL0     H32968   3.191   7.566   4.173  0.3893 -1.8907  0.0636
  239MOL0     H32969   3.025   7.594   3.983 -1.1799 -0.7760 -1.1537
  239MOL0     H32970   2.800   7.485   3.726  0.0444  1.0581 -0.3179
  239MOL0     H32971   2.864   7.548   3.872 -0.7419  3.1765 -1.3418
  239MOL0     H32972   3.019   7.693   3.750  0.5580 -2.9030  1.7015
  239MOL0     H32973   2.866   7.705   3.667 -1.1036 -1.6994 -1.5522
  239MOL0     H32974   3.108   7.645   3.529  1.0243 -2.2170  0.1791
  239MOL0     H32975   3.044   7.490   3.560 -0.4502 -0.4101 -0.2678
  239MOL0     H32976   2.953   7.592   3.340 -1.0238 -1.9711 -0.4306
  239MOL0     H32977   2.872   7.717   3.437  0.8477  0.0217 -1.3807
  239MOL0     H32978   2.625   7.380   3.474  1.1886 -0.5274  1.4607
  239MOL0     H32979   3.153   7.235   3.805  0.4530 -1.2783  1.7687
  239MOL0     H32980   3.377   7.180   3.837 -0.1720  2.3873 -0.1318
  239MOL0     H32981   3.471   7.247   3.977  0.0951 -0.6582  2.0495
  239MOL0     H32982   3.366   7.104   3.991 -0.1945 -0.7233 -1.8870
  240MOL0     O32983   4.490   2.877   9.592  0.2992 -0.0816  0.4316
  240MOL0     C32984   4.478   2.795   9.499 -0.6156  0.5962 -0.0518
  240MOL0     O32985   4.574   2.705   9.465 -0.9639 -0.2790  0.1052
  240MOL0     C32986   4.667   2.673   9.559 -0.3345 -0.8306 -0.4686
  240MOL0     C32987   4.785   2.743   9.570  0.0865  0.6882  0.2438
  240MOL0     C32988   4.898   2.697   9.646 -0.5651 -0.0549  0.3072
  240MOL0     C32989   4.882   2.575   9.713  0.8702  0.4579 -0.6396
  240MOL0     O32990   4.986   2.513   9.782  0.3597  0.1912  0.4932
  240MOL0     C32991   5.123   2.547   9.771 -0.5816  0.2016  0.7991
  240MOL0     C32992   5.161   2.636   9.891  0.1035  0.9538 -0.1542
  240MOL0     C32993   5.110   2.601  10.031  0.0632 -0.5332 -0.2222
  240MOL0     C32994   5.008   2.698  10.095 -0.9795 -0.6112 -0.6598
  240MOL0     C32995   4.903   2.619  10.178 -0.3084 -0.5167 -0.5471
  240MOL0     C32996   4.818   2.716  10.266  1.3304  0.7028 -0.3424
  240MOL0     C32997   4.720   2.657  10.362 -0.2952 -0.0861  0.4990
  240MOL0     C32998   4.774   2.568  10.469  0.5258  0.4666  0.5076
  240MOL0     N32999   4.654   2.514  10.541 -0.0566 -0.3410  1.0263
  240MOL0     C33000   4.572   2.583  10.616 -0.6149 -0.0721 -0.1760
  240MOL0     C33001   4.474   2.499  10.655  0.5000 -0.0039 -0.0328
  240MOL0     C33002   4.370   2.530  10.759 -0.6555  0.1719  0.0098
  240MOL0     C33003   4.412   2.489  10.904 -0.7174 -0.2055  0.6128
  240MOL0     C33004   4.428   2.340  10.936 -1.0979  0.9859 -0.0248
  240MOL0     C33005   4.310   2.255  10.912 -0.1086  0.6407  0.2774
  240MOL0     O33006   4.217   2.248  11.027 -1.0047 -0.6206 -0.1303
  240MOL0     C33007   4.087   2.222  10.999 -0.0962  0.9578 -0.6765
  240MOL0     C33008   4.030   2.148  10.894 -0.3538 -0.8638 -0.7718
  240MOL0     C33009   3.893   2.130  10.878 -0.4527 -0.3865 -0.2635
  240MOL0     C33010   3.838   2.042  10.769 -0.0258  0.6069  0.4867
  240MOL0     C33011   3.810   2.170  10.987  0.3944 -0.1394 -0.0750
  240MOL0     C33012   3.664   2.150  10.989 -0.6489  0.3727  0.0065
  240MOL0     O33013   3.598   2.194  10.876  0.0079 -0.6169 -0.1098
  240MOL0     C33014   3.472   2.235  10.894 -0.1397 -0.2218 -0.6547
  240MOL0     C33015   3.447   2.352  10.973 -0.2766 -0.2826  0.4269
  240MOL0     C33016   3.310   2.403  10.980  0.1376 -0.0963 -0.5909
  240MOL0     C33017   3.209   2.339  10.919 -0.6752 -0.9679 -0.1810
  240MOL0     O33018   3.078   2.369  10.935 -0.3637 -0.7612 -0.2435
  240MOL0     C33019   3.030   2.446  11.044  0.6002 -0.9076 -0.6138
  240MOL0     C33020   2.884   2.435  11.022  1.2595  0.5486 -0.5826
  240MOL0     C33021   2.841   2.293  11.079  1.1207  0.3527  0.5698
  240MOL0     C33022   2.715   2.251  10.994 -0.3339  1.3590  0.1031
  240MOL0     C33023   2.641   2.136  11.057 -0.3994 -0.1965 -0.4634
  240MOL0     C33024   2.545   2.075  10.961 -0.3357 -0.4981  0.1417
  240MOL0     C33025   2.506   1.937  11.015 -0.7645 -0.3799 -0.9761
  240MOL0     C33026   2.375   1.877  10.955 -0.4790 -0.4400 -0.4786
  240MOL0    Cl33027   2.235   2.002  10.977 -0.1722  0.0625 -0.1790
  240MOL0     C33028   3.243   2.238  10.827 -0.0255  0.2340 -0.3710
  240MOL0     C33029   3.363   2.187  10.814 -0.6309  0.5605  0.1942
  240MOL0     O33030   3.614   2.081  11.076  0.2829 -0.2376 -0.3897
  240MOL0     C33031   3.870   2.214  11.100  0.3066 -1.0839 -0.4977
  240MOL0     C33032   4.005   2.238  11.109 -0.0870 -0.0565 -0.1553
  240MOL0     N33033   4.501   2.379  10.596 -0.6577 -0.0663 -0.3879
  240MOL0     N33034   4.608   2.393  10.528  0.5541  0.6186  0.6512
  240MOL0     C33035   4.757   2.505   9.712 -0.5680  0.2868  0.6210
  240MOL0     C33036   4.649   2.556   9.633  0.0472  0.0601  0.5093
  240MOL0     C33037   4.385   2.826   9.393  0.9029 -0.2795 -0.0311
  240MOL0     C33038   4.276   2.737   9.381  0.1398 -0.7996 -0.6050
  240MOL0     C33039   4.183   2.749   9.278 -0.6317  0.0430 -0.0425
  240MOL0     C33040   4.199   2.849   9.178 -0.3040 -0.5253  0.1421
  240MOL0     O33041   4.119   2.858   9.069 -0.0994 -0.0438 -0.6177
  240MOL0     C33042   3.990   2.807   9.071  0.9431  1.0968  0.0535
  240MOL0     C33043   3.975   2.728   8.942  0.0339 -0.0071 -0.4918
  240MOL0     C33044   3.990   2.820   8.817 -0.4120 -0.9979  0.2059
  240MOL0     C33045   4.033   2.750   8.696  0.4689 -0.0470 -0.9341
  240MOL0     C33046   3.916   2.677   8.647  0.1336 -0.0312 -0.8298
  240MOL0     C33047   3.817   2.610   8.615  0.1933 -0.2510 -0.1840
  240MOL0     C33048   4.315   2.923   9.190  0.0846 -0.2762 -0.3876
  240MOL0     C33049   4.401   2.924   9.299  0.3207 -0.3382  0.5416
  240MOL0     C33050   4.517   3.027   9.299  0.0344  1.0220 -1.0174
  240MOL0     H33051   4.806   2.827   9.505 -0.4330 -1.2481 -2.5658
  240MOL0     H33052   4.989   2.756   9.638 -0.5817  0.0354  0.7808
  240MOL0     H33053   5.141   2.589   9.672 -2.2084 -1.6591 -0.3607
  240MOL0     H33054   5.184   2.456   9.773  1.5625  1.4982 -1.0780
  240MOL0     H33055   5.269   2.646   9.883  0.0874  0.4760 -1.0678
  240MOL0     H33056   5.119   2.733   9.862 -0.4002  0.5742 -0.7297
  240MOL0     H33057   5.056   2.508  10.016 -1.4309  0.5146 -1.7805
  240MOL0     H33058   5.186   2.570  10.104 -0.6376 -2.6284 -0.3293
  240MOL0     H33059   5.066   2.767  10.156 -0.5761  1.1473 -2.9186
  240MOL0     H33060   4.947   2.740  10.014 -1.1939  2.9293  1.1619
  240MOL0     H33061   4.957   2.552  10.246 -0.9497  1.2768  1.8923
  240MOL0     H33062   4.841   2.560  10.111 -0.6102  0.6241 -1.2966
  240MOL0     H33063   4.897   2.771  10.318  0.7209  1.6015 -0.3550
  240MOL0     H33064   4.750   2.780  10.209 -3.5144 -1.5675  2.2829
  240MOL0     H33065   4.647   2.603  10.300  1.5021  0.7741 -2.5668
  240MOL0     H33066   4.672   2.742  10.410  1.9510  2.3394 -1.2749
  240MOL0     H33067   4.832   2.486  10.424 -1.2337 -0.7074  0.2681
  240MOL0     H33068   4.830   2.625  10.543 -1.4492  0.3741  2.1570
  240MOL0     H33069   4.591   2.689  10.632  2.0609 -0.5983  0.6917
  240MOL0     H33070   4.284   2.466  10.738 -0.7935 -0.9945  3.5071
  240MOL0     H33071   4.340   2.635  10.756  0.0244  0.3922  0.6850
  240MOL0     H33072   4.510   2.537  10.911 -0.2609 -1.0445  0.0678
  240MOL0     H33073   4.343   2.532  10.977 -1.6650 -2.0013  0.8178
  240MOL0     H33074   4.501   2.309  10.861 -0.1636  0.1029  1.2028
  240MOL0     H33075   4.476   2.328  11.034  1.7228 -0.4668 -1.4541
  240MOL0     H33076   4.259   2.279  10.819 -0.0353 -0.5046 -0.0779
  240MOL0     H33077   4.352   2.156  10.891  0.2245  0.8786 -0.1909
  240MOL0     H33078   4.087   2.102  10.814 -1.1497 -1.4116 -1.0384
  240MOL0     H33079   3.849   2.088  10.670  1.4887 -1.3267 -0.3239
  240MOL0     H33080   3.736   2.009  10.793  0.6072 -0.5698  1.7328
  240MOL0     H33081   3.902   1.954  10.761  0.8334  1.2278  0.4295
  240MOL0     H33082   3.525   2.408  11.023  0.3304 -0.7768  0.0436
  240MOL0     H33083   3.303   2.492  11.042  4.3893 -0.7663  1.1386
  240MOL0     H33084   3.047   2.409  11.145  1.4467  1.8846  0.3599
  240MOL0     H33085   3.072   2.547  11.042  1.2535 -1.1859 -1.4731
  240MOL0     H33086   2.835   2.517  11.075 -1.2375  1.5450 -4.0527
  240MOL0     H33087   2.849   2.455  10.920 -1.1063 -1.0469 -0.1701
  240MOL0     H33088   2.816   2.298  11.185  2.2018  2.7500  0.7897
  240MOL0     H33089   2.920   2.218  11.068 -0.3049 -0.8212 -3.3668
  240MOL0     H33090   2.766   2.226  10.900  2.7065 -0.3767  2.0280
  240MOL0     H33091   2.657   2.342  10.975  1.4188  2.7726  1.1996
  240MOL0     H33092   2.714   2.059  11.082  0.0215  1.0348  2.5291
  240MOL0     H33093   2.593   2.160  11.152 -1.8987  2.0427 -1.6924
  240MOL0     H33094   2.593   2.060  10.863 -1.4050 -2.0933 -0.1888
  240MOL0     H33095   2.454   2.136  10.960  1.6231  2.7475 -2.6464
  240MOL0     H33096   2.498   1.918  11.123  0.7291  0.6537 -0.6523
  240MOL0     H33097   2.595   1.882  10.983 -1.2511 -2.2963  0.7141
  240MOL0     H33098   2.348   1.790  11.015 -1.2575  1.9393  2.8550
  240MOL0     H33099   2.392   1.846  10.851  3.8534  0.8152 -0.3364
  240MOL0     H33100   3.158   2.177  10.799 -0.9219  0.6354  1.3709
  240MOL0     H33101   3.374   2.095  10.758  0.4609  0.0903  1.1549
  240MOL0     H33102   3.813   2.248  11.186  2.4896  1.3611  0.1067
  240MOL0     H33103   4.049   2.279  11.199 -2.2757 -0.1528  1.0304
  240MOL0     H33104   4.751   2.417   9.775 -1.4782 -0.4593 -0.4630
  240MOL0     H33105   4.563   2.491   9.620  0.0836 -0.3451  2.1141
  240MOL0     H33106   4.259   2.656   9.452 -0.5455 -0.4659 -0.3735
  240MOL0     H33107   4.096   2.685   9.283  0.6944 -1.7459  1.6146
  240MOL0     H33108   3.976   2.733   9.149  1.1201  1.7515  0.7200
  240MOL0     H33109   3.906   2.877   9.078 -1.7858 -1.7088 -1.8537
  240MOL0     H33110   3.870   2.697   8.940 -0.0965 -0.3392  3.6509
  240MOL0     H33111   4.042   2.643   8.934 -0.1420 -0.0390 -1.9941
  240MOL0     H33112   3.894   2.870   8.807 -0.2651 -0.3369  1.7750
  240MOL0     H33113   4.059   2.904   8.834 -2.6480  0.5921  2.0634
  240MOL0     H33114   4.117   2.681   8.707 -1.1376 -2.0030 -0.2384
  240MOL0     H33115   4.044   2.815   8.609  0.2736 -0.2880 -1.1429
  240MOL0     H33116   3.731   2.552   8.590 -0.0309  0.4209 -1.0121
  240MOL0     H33117   4.349   2.991   9.112  0.3188 -0.2667 -0.2796
  240MOL0     H33118   4.560   3.046   9.200 -1.4629 -0.3725 -1.9823
  240MOL0     H33119   4.474   3.110   9.356  1.7323 -0.4649  2.7635
  240MOL0     H33120   4.589   2.997   9.375 -2.7149  2.7365  2.6172
  241MOL0     O33121   7.559   5.190   5.436 -0.1539 -0.1766  0.3863
  241MOL0     C33122   7.507   5.299   5.399 -0.1504 -0.1093 -0.2316
  241MOL0     O33123   7.545   5.418   5.450 -0.0881  0.4107  0.1037
  241MOL0     C33124   7.674   5.427   5.489 -0.2403 -0.7284 -0.2757
  241MOL0     C33125   7.701   5.463   5.620  0.5841 -0.4662  0.5617
  241MOL0     C33126   7.835   5.477   5.658  0.3165 -0.0527 -0.3568
  241MOL0     C33127   7.947   5.452   5.579 -0.2085 -0.3158 -0.1940
  241MOL0     O33128   8.083   5.467   5.620  0.0468  0.2464 -0.7874
  241MOL0     C33129   8.179   5.445   5.517 -0.5601  0.1021  0.9275
  241MOL0     C33130   8.323   5.484   5.555  0.6381  0.2892 -0.7333
  241MOL0     C33131   8.411   5.498   5.430  0.1569 -0.1028  0.0570
  241MOL0     C33132   8.554   5.538   5.452  0.8446 -0.6214 -1.0358
  241MOL0     C33133   8.634   5.554   5.317  0.5201  0.9987  0.7940
  241MOL0     C33134   8.664   5.427   5.230 -0.0416  0.0418 -0.4627
  241MOL0     C33135   8.719   5.460   5.092  0.6664 -0.6340 -0.9780
  241MOL0     C33136   8.679   5.347   5.000 -0.3599 -0.6349 -0.5031
  241MOL0     N33137   8.738   5.218   5.036 -0.7000  0.2465 -0.0882
  241MOL0     C33138   8.874   5.195   5.053 -0.5227  0.3888  0.1617
  241MOL0     C33139   8.886   5.067   5.102 -0.2851 -0.1329 -0.5117
  241MOL0     C33140   9.013   4.993   5.136 -0.3694 -0.4496 -0.1800
  241MOL0     C33141   9.126   5.094   5.163  0.2584  0.0154 -0.5030
  241MOL0     C33142   9.251   5.019   5.221 -0.0127 -0.2867  0.7087
  241MOL0     C33143   9.353   4.973   5.112 -0.7082 -0.9957 -0.2064
  241MOL0     O33144   9.419   5.089   5.068  0.0359 -0.3621  0.1912
  241MOL0     C33145   9.556   5.089   5.048  0.2513 -0.1668  0.4634
  241MOL0     C33146   9.592   5.192   4.958  0.4921  0.2747 -0.2406
  241MOL0     C33147   9.725   5.216   4.935  0.3976  0.2166  0.3109
  241MOL0     C33148   9.749   5.341   4.851 -0.6263  0.6496 -0.2297
  241MOL0     C33149   9.830   5.142   5.000 -0.1564 -0.6977 -0.2888
  241MOL0     C33150   9.981   5.166   4.975 -0.1146  0.4199  0.5540
  241MOL0     O33151  10.061   5.089   5.050 -0.6258  0.2559 -0.0944
  241MOL0     C33152  10.198   5.108   5.057  0.5868  0.4233  0.2535
  241MOL0     C33153  10.249   5.079   5.185  0.5464  1.2553  0.3234
  241MOL0     C33154  10.389   5.101   5.209  0.0333 -0.9421 -0.5268
  241MOL0     C33155  10.474   5.140   5.100  0.5959  0.4019  1.0820
  241MOL0     O33156  10.611   5.151   5.115 -0.4418  0.3869 -0.4592
  241MOL0     C33157  10.681   5.076   5.217 -0.1406 -0.3027 -0.3969
  241MOL0     C33158  10.830   5.103   5.201  0.9426 -0.4439  0.0216
  241MOL0     C33159  10.909   5.001   5.277 -0.1421 -0.0059 -0.6839
  241MOL0     C33160  11.030   4.954   5.198  0.8317  0.3924  0.3191
  241MOL0     C33161  11.118   4.866   5.283  0.3499  0.0148  0.5837
  241MOL0     C33162  11.216   4.804   5.185 -0.2306  0.7608  0.6650
  241MOL0     C33163  11.287   4.682   5.255  0.2303 -0.2497  0.2438
  241MOL0     C33164  11.396   4.614   5.179  0.3349  1.0736  0.1640
  241MOL0    Cl33165  11.479   4.711   5.051  0.1158  0.4260  0.1238
  241MOL0     C33166  10.414   5.163   4.972 -0.2546  0.6376 -0.0778
  241MOL0     C33167  10.277   5.141   4.952 -0.6390  0.1128  1.0577
  241MOL0     O33168  10.015   5.255   4.901 -0.3696  0.9179 -0.0237
  241MOL0     C33169   9.792   5.042   5.095 -0.1429 -0.3655 -0.2219
  241MOL0     C33170   9.662   5.012   5.108  1.0443 -0.9000  0.3614
  241MOL0     N33171   8.756   5.018   5.108 -0.3975  0.3892  1.0821
  241MOL0     N33172   8.672   5.110   5.074  0.7935  0.5768 -0.0497
  241MOL0     C33173   7.918   5.409   5.450 -1.5485 -1.1783 -0.2782
  241MOL0     C33174   7.780   5.394   5.408  0.2107  0.4329 -0.2333
  241MOL0     C33175   7.382   5.295   5.322  0.4739  0.2795 -0.5736
  241MOL0     C33176   7.272   5.216   5.371 -0.1992  0.3761 -0.1108
  241MOL0     C33177   7.148   5.223   5.298  0.3616  1.4970 -0.1941
  241MOL0     C33178   7.134   5.287   5.186 -0.4896 -0.3670  0.8235
  241MOL0     O33179   7.013   5.297   5.119  0.5259  0.0454  0.2354
  241MOL0     C33180   7.000   5.366   4.991 -0.3917  0.6997 -0.3624
  241MOL0     C33181   7.049   5.281   4.872  0.4821 -0.0036  0.9084
  241MOL0     C33182   7.006   5.344   4.735 -0.5259 -0.1095  0.2196
  241MOL0     C33183   7.046   5.252   4.612  0.4854 -0.0923 -0.7355
  241MOL0     C33184   6.982   5.123   4.599 -0.6980  0.3142 -0.4383
  241MOL0     C33185   6.951   5.005   4.588  0.3860  0.5294 -0.8012
  241MOL0     C33186   7.249   5.352   5.122 -0.6312 -0.0100 -0.6181
  241MOL0     C33187   7.369   5.351   5.193  0.0319 -0.7109  0.1529
  241MOL0     C33188   7.494   5.400   5.122 -0.2492  0.6860 -0.3955
  241MOL0     H33189   7.617   5.469   5.688 -0.2971  2.2022 -0.6134
  241MOL0     H33190   7.851   5.515   5.759 -0.2600  1.8683 -0.9388
  241MOL0     H33191   8.161   5.515   5.434 -1.3101  0.4229  1.3584
  241MOL0     H33192   8.179   5.343   5.479 -3.4204  0.3734 -0.0014
  241MOL0     H33193   8.317   5.581   5.606  0.9112  0.8132 -1.6793
  241MOL0     H33194   8.363   5.407   5.623  0.3262 -0.6395 -1.5738
  241MOL0     H33195   8.411   5.404   5.375  1.9673 -0.0221 -0.1103
  241MOL0     H33196   8.364   5.576   5.370  2.0956 -1.8666 -4.0911
  241MOL0     H33197   8.551   5.631   5.509  1.3751 -0.4752 -1.2408
  241MOL0     H33198   8.609   5.466   5.515  0.8758 -1.4905 -2.0232
  241MOL0     H33199   8.728   5.610   5.324  1.0872  0.7874 -2.8926
  241MOL0     H33200   8.573   5.616   5.251  0.4816  0.1286 -0.0258
  241MOL0     H33201   8.737   5.360   5.277  0.1506 -1.3490 -2.6266
  241MOL0     H33202   8.567   5.377   5.216  0.7164 -0.6224 -4.1911
  241MOL0     H33203   8.824   5.486   5.103 -0.1783  2.4135  1.5861
  241MOL0     H33204   8.667   5.552   5.062 -1.1343 -0.9602  0.9411
  241MOL0     H33205   8.578   5.322   4.967 -0.7838 -0.2015  0.4058
  241MOL0     H33206   8.733   5.380   4.911  1.8930  1.8802  1.5826
  241MOL0     H33207   8.961   5.259   5.045  0.8366 -1.5028 -1.1105
  241MOL0     H33208   9.031   4.927   5.050 -1.7654 -1.1187 -0.0012
  241MOL0     H33209   9.008   4.936   5.229  2.7616  0.3657  0.5712
  241MOL0     H33210   9.146   5.147   5.070  2.3874 -0.0065 -0.0940
  241MOL0     H33211   9.094   5.167   5.238 -0.7663 -0.5846 -0.3393
  241MOL0     H33212   9.298   5.089   5.291  0.4511  1.0095 -0.8241
  241MOL0     H33213   9.216   4.927   5.268 -3.5312 -1.6663 -3.8572
  241MOL0     H33214   9.419   4.900   5.161  2.1029  1.4616 -0.0408
  241MOL0     H33215   9.301   4.926   5.028 -1.5181  2.8224 -2.0752
  241MOL0     H33216   9.514   5.245   4.904  2.1798  1.9595 -1.1550
  241MOL0     H33217   9.660   5.394   4.817 -1.1131  1.7062  2.4252
  241MOL0     H33218   9.814   5.314   4.767  0.0108 -2.1048  1.0339
  241MOL0     H33219   9.801   5.415   4.913  1.8976  0.1758 -1.6283
  241MOL0     H33220  10.192   5.030   5.264 -2.7096 -1.1096 -3.1342
  241MOL0     H33221  10.427   5.055   5.299  0.9498 -3.6558 -2.1524
  241MOL0     H33222  10.642   5.098   5.317 -0.7119  2.2288 -1.1056
  241MOL0     H33223  10.669   4.969   5.199  0.1192 -0.4783  0.4494
  241MOL0     H33224  10.862   5.100   5.096  2.6500 -0.8421  0.5245
  241MOL0     H33225  10.853   5.202   5.241 -1.8531  0.6144 -0.7729
  241MOL0     H33226  10.853   4.911   5.305 -2.2463  1.2454 -0.6435
  241MOL0     H33227  10.942   5.052   5.369 -0.6572  0.8705 -0.9773
  241MOL0     H33228  11.088   5.040   5.163  0.7968  0.5535  0.6501
  241MOL0     H33229  10.987   4.898   5.115 -1.5387 -0.7031  2.1622
  241MOL0     H33230  11.173   4.920   5.361 -0.7216 -0.5951  1.8125
  241MOL0     H33231  11.061   4.785   5.331 -0.4493 -0.0734 -0.4837
  241MOL0     H33232  11.282   4.890   5.169 -0.2557  0.7314  0.4022
  241MOL0     H33233  11.173   4.769   5.090 -1.0589  0.2115  1.2349
  241MOL0     H33234  11.208   4.610   5.276 -0.1318 -0.2414 -1.0124
  241MOL0     H33235  11.323   4.713   5.354 -0.0998 -1.8443  0.9081
  241MOL0     H33236  11.353   4.524   5.133 -0.4963  2.1947 -1.3558
  241MOL0     H33237  11.465   4.574   5.254 -0.4470 -0.1136  0.2814
  241MOL0     H33238  10.477   5.197   4.891  1.1296 -0.9367  0.2804
  241MOL0     H33239  10.259   5.151   4.845  3.0996  0.1434  0.2850
  241MOL0     H33240   9.862   4.989   5.159  0.9448  3.0880  1.7204
  241MOL0     H33241   9.647   4.928   5.175  1.3978 -0.3739  1.1104
  241MOL0     H33242   7.988   5.393   5.369 -1.4918  3.9363 -1.5829
  241MOL0     H33243   7.769   5.355   5.307 -0.7951 -0.9113  0.3734
  241MOL0     H33244   7.275   5.163   5.465  0.3099  2.5400  1.1676
  241MOL0     H33245   7.065   5.166   5.337  1.3356  1.9514  2.8345
  241MOL0     H33246   6.891   5.373   4.981 -0.6080  0.4570  1.4541
  241MOL0     H33247   7.050   5.463   4.984  1.3704 -0.0403  1.0843
  241MOL0     H33248   7.012   5.179   4.876 -0.7926  0.3905 -0.0692
  241MOL0     H33249   7.157   5.266   4.869  0.4650 -1.3281  3.8842
  241MOL0     H33250   6.902   5.377   4.726 -0.5835 -0.8889 -3.8601
  241MOL0     H33251   7.057   5.440   4.726 -0.4179 -0.1083  0.8095
  241MOL0     H33252   7.153   5.233   4.619  0.4269  0.2066  3.6465
  241MOL0     H33253   7.015   5.315   4.529  1.4689  3.2388  1.2138
  241MOL0     H33254   6.907   4.908   4.601  1.1053  0.3000 -0.0166
  241MOL0     H33255   7.241   5.405   5.028 -2.4123  0.3228 -0.3281
  241MOL0     H33256   7.544   5.464   5.195  1.5850 -1.0279 -0.0213
  241MOL0     H33257   7.559   5.315   5.098  0.6945  0.7590  1.6629
  241MOL0     H33258   7.482   5.469   5.038  2.6584  1.2201 -0.4762
  242MOL0     O33259   9.604   6.976   1.541 -1.0166 -0.7138  0.4392
  242MOL0     C33260   9.586   7.094   1.569  0.1136  0.2348  0.0562
  242MOL0     O33261   9.686   7.193   1.569  0.0803  0.0692 -0.0719
  242MOL0     C33262   9.818   7.167   1.554 -0.6922 -0.3482  0.2664
  242MOL0     C33263   9.878   7.044   1.577 -0.0352 -0.0831  0.5495
  242MOL0     C33264  10.007   7.011   1.540  0.4521 -0.7301  0.3042
  242MOL0     C33265  10.091   7.107   1.477 -1.0544  0.1780  0.3753
  242MOL0     O33266  10.219   7.084   1.429 -0.3821  0.0188  0.0237
  242MOL0     C33267  10.286   6.961   1.451  0.8673 -0.1375 -0.2142
  242MOL0     C33268  10.423   6.935   1.376  0.3404 -0.1083 -0.3216
  242MOL0     C33269  10.525   7.044   1.418 -0.1813 -0.4243 -0.4747
  242MOL0     C33270  10.655   7.046   1.339 -0.0985  0.9113 -0.2153
  242MOL0     C33271  10.766   7.123   1.404  0.4342  0.1429  0.5604
  242MOL0     C33272  10.902   7.129   1.323 -0.4797 -1.1637 -0.0324
  242MOL0     C33273  11.027   7.168   1.410 -0.9679  0.8448  0.2634
  242MOL0     C33274  11.144   7.212   1.318  0.3784  0.0560  0.7701
  242MOL0     N33275  11.183   7.107   1.222 -0.4829  1.3530  0.1092
  242MOL0     C33276  11.246   6.989   1.270  1.1111  0.1110  0.4212
  242MOL0     C33277  11.255   6.904   1.165  0.7213 -0.3361  0.9914
  242MOL0     C33278  11.319   6.771   1.158  0.5476  0.4762 -0.6061
  242MOL0     C33279  11.412   6.769   1.048 -0.3423 -0.2836  0.9059
  242MOL0     C33280  11.485   6.631   1.051  0.0812 -0.3415  0.2736
  242MOL0     C33281  11.642   6.647   1.060 -0.4545 -0.6042 -0.6888
  242MOL0     O33282  11.672   6.734   0.952  0.4352 -0.0089 -0.1519
  242MOL0     C33283  11.789   6.708   0.889 -0.1257 -0.2725 -0.8215
  242MOL0     C33284  11.914   6.734   0.951 -0.8527 -0.8126  0.5651
  242MOL0     C33285  12.041   6.701   0.892 -0.5323 -0.4834  0.1853
  242MOL0     C33286  12.160   6.721   0.988 -0.4064 -0.2094  0.3179
  242MOL0     C33287  12.042   6.654   0.757 -0.6632 -0.1294 -0.3673
  242MOL0     C33288  12.166   6.614   0.684 -0.2061 -0.4373  0.5097
  242MOL0     O33289  12.140   6.599   0.550 -0.2397  0.1723  0.2440
  242MOL0     C33290  12.239   6.574   0.461 -0.0123  0.1993 -1.0206
  242MOL0     C33291  12.347   6.499   0.490  0.9762 -0.3642 -1.1246
  242MOL0     C33292  12.450   6.493   0.397 -0.3170  0.0735 -0.5893
  242MOL0     C33293  12.430   6.533   0.265  0.5318  0.4009  0.7657
  242MOL0     O33294  12.530   6.518   0.173 -0.5541  0.1937  0.1847
  242MOL0     C33295  12.567   6.379   0.154  0.3081 -0.1870 -0.0113
  242MOL0     C33296  12.575   6.326   0.018  0.1591 -0.1179 -0.2553
  242MOL0     C33297  12.434   6.279  -0.033 -0.0293 -0.0048 -0.0011
  242MOL0     C33298  12.428   6.246  -0.182 -0.7530 -0.1065 -0.2728
  242MOL0     C33299  12.297   6.191  -0.204  0.4810  0.3044  0.7502
  242MOL0     C33300  12.277   6.133  -0.343  0.1061  0.6496  0.3701
  242MOL0     C33301  12.128   6.086  -0.356  0.4171 -0.3317  0.0401
  242MOL0     C33302  12.080   5.962  -0.281  0.0441  0.0637  0.5579
  242MOL0    Cl33303  12.023   5.985  -0.113 -0.2744 -0.0499  0.0359
  242MOL0     C33304  12.318   6.599   0.235 -0.2507  0.3250  0.0007
  242MOL0     C33305  12.232   6.630   0.337  0.2622  0.8310 -0.3463
  242MOL0     O33306  12.272   6.606   0.745 -0.6383 -0.2383  0.4662
  242MOL0     C33307  11.916   6.632   0.698 -0.9590  0.4584  0.1378
  242MOL0     C33308  11.795   6.652   0.764  0.1399 -0.1945 -0.3084
  242MOL0     N33309  11.186   6.965   1.055  0.5130 -0.4692  0.6317
  242MOL0     N33310  11.137   7.073   1.099 -0.1517  0.8070 -0.2701
  242MOL0     C33311  10.032   7.230   1.461  0.7226  0.0038  0.4975
  242MOL0     C33312   9.903   7.262   1.504  1.0096 -0.1797  1.1481
  242MOL0     C33313   9.443   7.146   1.583  0.3159  1.0646 -0.0131
  242MOL0     C33314   9.431   7.286   1.586 -0.1654  0.1027 -0.4123
  242MOL0     C33315   9.301   7.351   1.585 -0.0835  0.3708 -0.3973
  242MOL0     C33316   9.188   7.274   1.602 -0.7338 -0.4489  0.0105
  242MOL0     O33317   9.065   7.337   1.602  0.2175  0.2745 -0.5891
  242MOL0     C33318   9.038   7.414   1.481 -1.2541 -0.1502 -0.5579
  242MOL0     C33319   8.900   7.368   1.437 -0.0761  0.4154 -0.2591
  242MOL0     C33320   8.874   7.220   1.427 -0.4841  1.4528  0.9165
  242MOL0     C33321   8.970   7.154   1.331 -0.1795  0.3880  0.4425
  242MOL0     C33322   8.943   7.009   1.294  0.1466 -0.3715  0.7192
  242MOL0     C33323   8.918   6.889   1.287  0.0511 -0.1255  0.0092
  242MOL0     C33324   9.199   7.134   1.608 -1.1626 -0.5982  0.0639
  242MOL0     C33325   9.330   7.072   1.596  0.4709  0.5414 -0.2392
  242MOL0     C33326   9.329   6.919   1.579 -0.2610  0.5443  0.1058
  242MOL0     H33327   9.819   6.969   1.629  0.3627 -0.7590  0.0407
  242MOL0     H33328  10.040   6.913   1.570 -0.2845 -0.3170  2.6643
  242MOL0     H33329  10.220   6.880   1.419  3.8609 -2.8498  0.0100
  242MOL0     H33330  10.293   6.946   1.559 -1.0616 -3.3314 -0.4122
  242MOL0     H33331  10.452   6.834   1.406 -4.1051 -0.9339  2.0206
  242MOL0     H33332  10.400   6.932   1.269  0.9352  1.7476 -0.5428
  242MOL0     H33333  10.492   7.148   1.410  3.5045  0.8206 -1.7506
  242MOL0     H33334  10.553   7.026   1.522 -1.9277 -3.8909 -0.4621
  242MOL0     H33335  10.684   6.942   1.321 -2.0967  0.6016 -2.0114
  242MOL0     H33336  10.645   7.092   1.240 -1.8647 -1.0005 -0.9849
  242MOL0     H33337  10.780   7.085   1.505  4.0616  0.0681  0.1678
  242MOL0     H33338  10.739   7.227   1.426  0.8888 -0.0491  2.0991
  242MOL0     H33339  10.908   7.032   1.273  4.4376 -0.1838 -1.9893
  242MOL0     H33340  10.895   7.205   1.245 -1.5557  0.6425  1.7308
  242MOL0     H33341  11.038   7.074   1.464 -1.5872 -0.5494 -1.9003
  242MOL0     H33342  11.003   7.252   1.477 -0.8565 -0.8159  2.4981
  242MOL0     H33343  11.126   7.302   1.258  0.1323  0.4216  1.3819
  242MOL0     H33344  11.227   7.251   1.378  1.4542  0.3620 -0.8482
  242MOL0     H33345  11.289   6.986   1.370  1.7151 -1.3993  0.1366
  242MOL0     H33346  11.237   6.700   1.171  0.2130  1.2028  1.6712
  242MOL0     H33347  11.374   6.754   1.251  0.5880 -0.1596 -0.7426
  242MOL0     H33348  11.364   6.789   0.952 -1.3972 -0.3173  1.4173
  242MOL0     H33349  11.482   6.853   1.056  0.4444  0.0852 -5.1364
  242MOL0     H33350  11.453   6.579   1.142  0.5289  0.1973  0.7465
  242MOL0     H33351  11.453   6.572   0.964 -1.0558 -0.6503  0.8809
  242MOL0     H33352  11.666   6.696   1.154  0.7749  2.9080 -2.6355
  242MOL0     H33353  11.700   6.554   1.065  1.4944  0.6357  2.0473
  242MOL0     H33354  11.907   6.776   1.051 -1.1060 -0.4747  0.4084
  242MOL0     H33355  12.234   6.791   0.946 -1.7730  0.6258 -0.8006
  242MOL0     H33356  12.209   6.625   1.006 -2.5673 -1.8884 -1.9732
  242MOL0     H33357  12.129   6.755   1.087  0.7874  3.5251 -0.4268
  242MOL0     H33358  12.354   6.449   0.586  0.5320 -2.5090 -2.1255
  242MOL0     H33359  12.548   6.455   0.424 -0.7741 -1.4476 -1.0197
  242MOL0     H33360  12.666   6.375   0.201  0.0976 -3.8543  0.4061
  242MOL0     H33361  12.511   6.311   0.218  2.8937 -2.5415 -0.0437
  242MOL0     H33362  12.625   6.391  -0.054  1.3110 -0.6269  0.0779
  242MOL0     H33363  12.646   6.244   0.027  2.4982  1.8901  0.8568
  242MOL0     H33364  12.351   6.347  -0.012  0.1151  1.9018 -4.4940
  242MOL0     H33365  12.417   6.187   0.024  1.9064 -0.3731  0.0596
  242MOL0     H33366  12.515   6.182  -0.200  1.1944  1.0316  3.9163
  242MOL0     H33367  12.435   6.331  -0.251  0.4422 -0.9294 -1.2327
  242MOL0     H33368  12.278   6.108  -0.135  0.3146 -1.2761 -1.0985
  242MOL0     H33369  12.220   6.269  -0.198 -1.8455 -1.4966 -2.4450
  242MOL0     H33370  12.326   6.037  -0.360 -5.2066 -2.3423 -0.2978
  242MOL0     H33371  12.294   6.204  -0.425 -0.8188  0.9611  0.4381
  242MOL0     H33372  12.116   6.065  -0.463  1.9495  0.5347 -0.3427
  242MOL0     H33373  12.061   6.171  -0.341 -0.9965 -1.5304  0.7504
  242MOL0     H33374  12.157   5.884  -0.284 -1.2834 -1.3913 -4.1185
  242MOL0     H33375  12.003   5.920  -0.347  2.2445 -0.0040 -2.1654
  242MOL0     H33376  12.299   6.638   0.136 -1.8979 -2.0434 -0.7074
  242MOL0     H33377  12.142   6.685   0.309  1.9169  4.3934  0.7287
  242MOL0     H33378  11.906   6.597   0.596 -2.0797  2.2518 -0.4264
  242MOL0     H33379  11.697   6.631   0.722  0.8410 -1.5173 -1.3587
  242MOL0     H33380  10.077   7.309   1.402 -1.0778  0.1715 -0.7382
  242MOL0     H33381   9.883   7.367   1.489  1.3414 -0.5652 -2.8772
  242MOL0     H33382   9.519   7.348   1.602 -0.8884  0.8992  0.5737
  242MOL0     H33383   9.305   7.460   1.584  1.1064  0.3727  0.5960
  242MOL0     H33384   9.033   7.521   1.504  1.2334 -0.0475 -0.2782
  242MOL0     H33385   9.113   7.396   1.404  1.2240  1.8146  1.2109
  242MOL0     H33386   8.869   7.415   1.344 -0.7453  1.7999  0.6335
  242MOL0     H33387   8.839   7.411   1.517  1.4425  0.2584  1.0492
  242MOL0     H33388   8.884   7.170   1.523  1.2899 -2.0211 -0.8880
  242MOL0     H33389   8.768   7.205   1.404 -0.0763 -1.0917  0.3521
  242MOL0     H33390   9.068   7.176   1.374  0.5005 -0.3663 -0.6579
  242MOL0     H33391   8.968   7.205   1.234  1.0348  1.3138  0.8818
  242MOL0     H33392   8.892   6.785   1.292 -0.9894 -0.0728 -2.7312
  242MOL0     H33393   9.111   7.071   1.611  0.4773 -2.9882  3.5661
  242MOL0     H33394   9.388   6.893   1.491  2.5252 -1.6954  2.4132
  242MOL0     H33395   9.387   6.870   1.658  2.9618 -0.5067 -2.6844
  242MOL0     H33396   9.230   6.873   1.578  1.1289 -2.6417 -0.2189
  243MOL0     O33397   3.271   2.753   6.843  1.0680  0.2682 -0.8641
  243MOL0     C33398   3.259   2.634   6.841  0.8418  1.0838  0.2492
  243MOL0     O33399   3.338   2.556   6.919 -0.6776 -0.2408  0.2244
  243MOL0     C33400   3.444   2.614   6.984  0.7007  0.2184 -0.0898
  243MOL0     C33401   3.425   2.695   7.101 -0.4494  1.5070 -0.3032
  243MOL0     C33402   3.536   2.747   7.170 -0.5155 -0.7390 -0.5293
  243MOL0     C33403   3.662   2.713   7.126 -1.6485  0.5981 -0.0424
  243MOL0     O33404   3.787   2.742   7.180  0.3166 -0.3753 -0.5432
  243MOL0     C33405   3.795   2.844   7.279 -0.2281  0.4931 -0.0062
  243MOL0     C33406   3.917   2.919   7.299 -0.5801 -0.0600 -0.8712
  243MOL0     C33407   4.033   2.833   7.340 -0.9435 -0.8193  0.3058
  243MOL0     C33408   4.142   2.914   7.410  0.0749 -0.0533 -0.1793
  243MOL0     C33409   4.246   2.829   7.474 -1.4570  0.5478  0.1702
  243MOL0     C33410   4.373   2.921   7.506  0.4775  0.6535 -0.6059
  243MOL0     C33411   4.326   3.015   7.625  0.2345  0.4091 -0.2568
  243MOL0     C33412   4.454   3.089   7.670  1.0083 -0.0015 -0.0482
  243MOL0     N33413   4.536   3.001   7.751 -0.7695  0.2755  0.3443
  243MOL0     C33414   4.668   2.961   7.727  0.1673  0.2641  0.1986
  243MOL0     C33415   4.709   2.917   7.849  0.1763 -0.9088 -0.5363
  243MOL0     C33416   4.846   2.877   7.893 -0.3750 -0.3622  0.0250
  243MOL0     C33417   4.946   2.997   7.882 -0.0639 -0.0042  0.3517
  243MOL0     C33418   4.902   3.136   7.935  0.7576 -0.6282 -0.5359
  243MOL0     C33419   5.006   3.233   7.895 -0.6676  0.2616 -0.5538
  243MOL0     O33420   4.976   3.283   7.761  0.5024 -0.2687 -0.3335
  243MOL0     C33421   5.089   3.305   7.679 -0.0145 -0.1106 -0.1587
  243MOL0     C33422   5.210   3.361   7.714 -0.4486  0.0803 -0.0456
  243MOL0     C33423   5.321   3.371   7.627 -0.3262  0.0670  0.1343
  243MOL0     C33424   5.441   3.439   7.691 -0.4588  0.2266 -0.1115
  243MOL0     C33425   5.308   3.339   7.491 -0.5195  0.3654  0.3261
  243MOL0     C33426   5.413   3.363   7.395 -0.3965 -0.2403  0.1653
  243MOL0     O33427   5.407   3.301   7.278 -0.4440 -0.2385  0.1159
  243MOL0     C33428   5.488   3.343   7.176  0.2843 -0.2778  0.2813
  243MOL0     C33429   5.562   3.247   7.100 -0.0723 -0.0151  0.2052
  243MOL0     C33430   5.649   3.294   6.998 -0.0736  0.3560  0.2178
  243MOL0     C33431   5.654   3.425   6.958  0.9901  0.5564 -0.1331
  243MOL0     O33432   5.746   3.478   6.878 -0.1095 -0.4468  0.3132
  243MOL0     C33433   5.866   3.403   6.862 -0.6834 -0.2426 -0.0032
  243MOL0     C33434   5.958   3.505   6.797 -0.6578  1.3970  0.0212
  243MOL0     C33435   6.106   3.447   6.804 -0.0182  0.5784 -0.1381
  243MOL0     C33436   6.213   3.519   6.723 -0.7851 -0.6929 -0.0965
  243MOL0     C33437   6.343   3.423   6.704 -0.3571 -0.6015  0.9560
  243MOL0     C33438   6.325   3.316   6.600  0.1278  0.3774  0.0902
  243MOL0     C33439   6.383   3.174   6.636 -0.2501 -1.0023  0.2518
  243MOL0     C33440   6.533   3.164   6.592  0.7823  0.6998 -0.1501
  243MOL0    Cl33441   6.641   3.290   6.669  0.1066  0.0339  0.0527
  243MOL0     C33442   5.576   3.517   7.029  0.0278  0.1153 -0.6107
  243MOL0     C33443   5.494   3.481   7.139  0.4824  0.2524 -0.1462
  243MOL0     O33444   5.517   3.414   7.438  0.2014 -0.1926 -0.2763
  243MOL0     C33445   5.186   3.290   7.452 -0.4286  0.5953  0.5171
  243MOL0     C33446   5.081   3.277   7.541  0.7667  0.1094 -0.1904
  243MOL0     N33447   4.606   2.910   7.932 -0.4341 -0.2268  0.9375
  243MOL0     N33448   4.507   2.967   7.877 -0.1808  0.6182 -0.8975
  243MOL0     C33449   3.683   2.641   7.013  0.1564  0.1271  1.0268
  243MOL0     C33450   3.575   2.593   6.945 -0.7417  1.4620  0.1033
  243MOL0     C33451   3.152   2.557   6.765 -0.4048  0.1560 -0.8283
  243MOL0     C33452   3.194   2.429   6.723 -0.6910 -0.2723 -1.0334
  243MOL0     C33453   3.112   2.366   6.640  0.7663 -0.0581  1.3212
  243MOL0     C33454   2.979   2.416   6.597 -0.9782  0.1521  0.4919
  243MOL0     O33455   2.904   2.336   6.503 -0.0015 -0.4518 -0.2573
  243MOL0     C33456   2.854   2.407   6.386  0.2927  0.1712 -0.1645
  243MOL0     C33457   2.804   2.307   6.284  0.4306 -0.2513  0.3101
  243MOL0     C33458   2.710   2.196   6.347  0.2381 -0.6720 -1.1471
  243MOL0     C33459   2.586   2.260   6.423  0.1055 -0.0324  0.6901
  243MOL0     C33460   2.503   2.338   6.335 -0.3445 -0.0033  0.7718
  243MOL0     C33461   2.440   2.409   6.262 -0.4623  0.7644  0.4790
  243MOL0     C33462   2.943   2.543   6.642  0.8965  0.4757  0.1094
  243MOL0     C33463   3.027   2.612   6.725 -0.9641 -0.3215 -0.3893
  243MOL0     C33464   2.985   2.756   6.754  0.6614 -0.0077  0.1702
  243MOL0     H33465   3.321   2.711   7.129 -0.3528 -1.5831  2.4423
  243MOL0     H33466   3.525   2.812   7.257 -0.8800 -0.8517 -0.4913
  243MOL0     H33467   3.768   2.799   7.376  0.7462 -0.1811 -0.0324
  243MOL0     H33468   3.723   2.924   7.259 -0.0708  0.4426 -0.8170
  243MOL0     H33469   3.935   2.980   7.210  1.7081  2.0427  0.9181
  243MOL0     H33470   3.908   2.988   7.383 -0.4117 -0.0602 -0.8541
  243MOL0     H33471   4.009   2.750   7.407 -1.9002  0.6311  1.8288
  243MOL0     H33472   4.079   2.789   7.250  2.6606  0.9341  1.1052
  243MOL0     H33473   4.196   2.961   7.328 -0.2045 -0.7909 -0.8040
  243MOL0     H33474   4.098   2.989   7.476 -2.8666 -1.0414 -0.8569
  243MOL0     H33475   4.271   2.744   7.410 -0.8338  0.1187  0.9712
  243MOL0     H33476   4.217   2.782   7.568  1.3308  0.2838  1.0048
  243MOL0     H33477   4.457   2.860   7.541  1.7471  2.3450 -0.5962
  243MOL0     H33478   4.419   2.972   7.421  0.2508  1.1581 -0.4306
  243MOL0     H33479   4.299   2.952   7.710  0.6024 -0.5441 -0.8234
  243MOL0     H33480   4.249   3.087   7.597  2.3844  2.8039 -0.3489
  243MOL0     H33481   4.501   3.127   7.579 -2.6080  1.5671 -1.4830
  243MOL0     H33482   4.446   3.175   7.737  3.0115  0.5048 -0.4037
  243MOL0     H33483   4.732   2.974   7.640 -1.1063  0.3947 -0.7532
  243MOL0     H33484   4.888   2.810   7.817 -1.3273  1.4913 -2.2728
  243MOL0     H33485   4.856   2.825   7.989  1.2191  0.6187  0.4208
  243MOL0     H33486   5.037   2.974   7.938 -0.9371 -0.2262  1.7168
  243MOL0     H33487   4.968   3.002   7.775  2.2982 -1.7791  0.6615
  243MOL0     H33488   4.806   3.175   7.901  0.7455 -0.4737 -0.3186
  243MOL0     H33489   4.899   3.138   8.044 -0.2546  2.2659 -0.5424
  243MOL0     H33490   5.009   3.306   7.977  3.5291 -0.8161  0.4888
  243MOL0     H33491   5.103   3.184   7.886 -0.6440 -0.6579  3.0872
  243MOL0     H33492   5.221   3.404   7.813 -2.5558  4.7515 -1.5865
  243MOL0     H33493   5.432   3.453   7.799  1.5479  0.3117  0.0882
  243MOL0     H33494   5.453   3.538   7.645  1.5384  0.2517  0.3540
  243MOL0     H33495   5.533   3.383   7.672 -0.2923  0.6108 -0.4659
  243MOL0     H33496   5.559   3.146   7.139 -0.6310  0.2658  0.9055
  243MOL0     H33497   5.706   3.220   6.942  0.5221  2.3600 -2.0252
  243MOL0     H33498   5.896   3.373   6.963 -2.5852  1.3064  1.0876
  243MOL0     H33499   5.858   3.315   6.798 -0.4133 -1.5497  1.6921
  243MOL0     H33500   5.936   3.503   6.690  1.2511 -0.5463 -0.3906
  243MOL0     H33501   5.945   3.609   6.831  0.0630  1.1629  1.0528
  243MOL0     H33502   6.112   3.339   6.790  0.4220  0.1769  2.5555
  243MOL0     H33503   6.134   3.448   6.910 -1.3726 -0.1272  0.2443
  243MOL0     H33504   6.225   3.614   6.775 -3.2117  0.4676 -1.4309
  243MOL0     H33505   6.170   3.534   6.623  0.7556  0.2072 -0.6523
  243MOL0     H33506   6.428   3.486   6.676 -1.1214  0.4993  1.0563
  243MOL0     H33507   6.358   3.382   6.804  3.1607  0.0673  0.8111
  243MOL0     H33508   6.361   3.351   6.503 -0.6562  1.9629  0.3348
  243MOL0     H33509   6.220   3.292   6.585  0.7473 -0.8525 -2.8323
  243MOL0     H33510   6.324   3.098   6.585 -0.4471 -1.0501  0.5481
  243MOL0     H33511   6.371   3.174   6.745 -2.5045  1.4866  0.0970
  243MOL0     H33512   6.552   3.149   6.485  0.4784  1.6052 -0.3370
  243MOL0     H33513   6.578   3.077   6.642  1.6363  1.7498  0.9607
  243MOL0     H33514   5.575   3.624   7.011  0.4611  0.5460  1.5701
  243MOL0     H33515   5.444   3.555   7.199 -0.4452 -1.4606  1.2786
  243MOL0     H33516   5.184   3.260   7.347  2.3102 -3.3069  1.3677
  243MOL0     H33517   4.992   3.233   7.497  1.1427 -1.1122  0.2207
  243MOL0     H33518   3.783   2.602   6.995  0.5371  1.0494  1.0855
  243MOL0     H33519   3.598   2.536   6.855 -1.4021  0.3308  0.6225
  243MOL0     H33520   3.283   2.379   6.760 -1.7648  0.2419  2.6398
  243MOL0     H33521   3.126   2.266   6.598 -1.1553  0.4338 -0.6635
  243MOL0     H33522   2.771   2.475   6.408  0.3923  0.2291  0.0414
  243MOL0     H33523   2.933   2.470   6.346  2.8952 -1.5143  1.9713
  243MOL0     H33524   2.897   2.262   6.249  1.4987  0.6195  1.8831
  243MOL0     H33525   2.749   2.351   6.201 -1.9572 -0.9758  1.3977
  243MOL0     H33526   2.676   2.142   6.258  2.0418 -4.1716  0.1215
  243MOL0     H33527   2.759   2.132   6.421 -1.9554 -1.9363 -0.6999
  243MOL0     H33528   2.621   2.323   6.505 -0.1263  0.0927  0.6932
  243MOL0     H33529   2.526   2.174   6.453  2.3912 -1.5864  1.0966
  243MOL0     H33530   2.387   2.475   6.195  1.0114  0.6543 -0.8584
  243MOL0     H33531   2.846   2.579   6.608 -0.4393 -1.7411  1.3955
  243MOL0     H33532   3.023   2.829   6.681 -3.6726  0.4626 -1.9404
  243MOL0     H33533   2.877   2.771   6.750  0.9154  1.9674 -2.5269
  243MOL0     H33534   3.022   2.782   6.853  0.3374  3.6780 -0.5144
  244MOL0     O33535   4.705   5.886   2.335 -0.0106  1.0799  0.0368
  244MOL0     C33536   4.633   5.983   2.333 -1.0238  0.1839  0.2017
  244MOL0     O33537   4.584   6.046   2.222  0.1041  0.7722 -0.0445
  244MOL0     C33538   4.603   5.998   2.092 -0.1713 -0.0885 -0.5599
  244MOL0     C33539   4.505   5.989   1.999  0.4829  0.5375 -1.0361
  244MOL0     C33540   4.525   5.949   1.869 -0.0485  0.2617  0.3312
  244MOL0     C33541   4.655   5.918   1.822  0.2183 -0.1427 -0.3064
  244MOL0     O33542   4.658   5.860   1.699 -0.4160 -0.4331  0.5151
  244MOL0     C33543   4.778   5.802   1.657 -0.3428  0.5928 -0.4274
  244MOL0     C33544   4.765   5.736   1.523  0.1698  0.8618  0.3623
  244MOL0     C33545   4.896   5.683   1.474  0.7401  0.1459  0.2063
  244MOL0     C33546   4.947   5.556   1.556 -0.6762 -0.0148 -0.3055
  244MOL0     C33547   5.073   5.490   1.501  0.6080  0.4230  0.3996
  244MOL0     C33548   5.201   5.555   1.544  0.6232 -0.2881 -0.0254
  244MOL0     C33549   5.330   5.476   1.498 -0.8127  0.3842 -0.0940
  244MOL0     C33550   5.335   5.472   1.346 -0.4543  0.8116 -0.2046
  244MOL0     N33551   5.466   5.412   1.306 -0.4643 -0.9574  0.6977
  244MOL0     C33552   5.490   5.275   1.307 -0.0243 -0.4274  0.2492
  244MOL0     C33553   5.626   5.268   1.277  0.4561  0.3786 -0.4526
  244MOL0     C33554   5.704   5.143   1.258  1.2992  0.5100  0.1595
  244MOL0     C33555   5.747   5.090   1.394  0.1720 -0.7020  0.2063
  244MOL0     C33556   5.822   4.960   1.373  0.1336 -0.1078  0.5389
  244MOL0     C33557   5.863   4.917   1.513 -0.7642  0.7000 -0.1712
  244MOL0     O33558   5.972   4.996   1.564  0.4696  0.5306  1.1586
  244MOL0     C33559   6.095   4.939   1.587 -0.8865  0.1462 -0.6847
  244MOL0     C33560   6.129   4.802   1.603  0.2852 -0.8955 -0.2414
  244MOL0     C33561   6.257   4.763   1.619  0.1312  0.1599 -1.2014
  244MOL0     C33562   6.279   4.617   1.642 -0.8642 -0.7508  0.3074
  244MOL0     C33563   6.365   4.858   1.628 -1.1774 -0.4361  0.0460
  244MOL0     C33564   6.503   4.830   1.649 -0.0261 -1.1387  0.0707
  244MOL0     O33565   6.589   4.927   1.602 -0.0375  0.7073  0.8398
  244MOL0     C33566   6.723   4.905   1.601 -0.2191  0.4166 -0.7337
  244MOL0     C33567   6.798   4.894   1.482 -0.5891 -0.5898 -0.2779
  244MOL0     C33568   6.928   4.854   1.476 -0.9148  0.6020 -0.4005
  244MOL0     C33569   6.996   4.820   1.600  0.0090  1.0535  0.4634
  244MOL0     O33570   7.128   4.775   1.578 -0.0602 -0.0698  0.5873
  244MOL0     C33571   7.218   4.797   1.679  0.1281  1.1465  0.5111
  244MOL0     C33572   7.355   4.845   1.625 -0.4360 -0.0956  0.6191
  244MOL0     C33573   7.401   4.761   1.507  1.1977  0.2186  0.0664
  244MOL0     C33574   7.383   4.850   1.386  0.8009  1.0222 -0.2866
  244MOL0     C33575   7.397   4.772   1.258 -1.2028  0.2771  0.1059
  244MOL0     C33576   7.359   4.874   1.143  0.2670 -0.5889  0.0183
  244MOL0     C33577   7.209   4.860   1.111 -0.8391 -0.3871 -0.9341
  244MOL0     C33578   7.155   4.945   0.998 -0.7529  1.0722 -0.5413
  244MOL0    Cl33579   6.990   4.919   0.963  0.0640  0.2444 -0.5587
  244MOL0     C33580   6.929   4.825   1.721 -0.7391 -0.2209 -0.0492
  244MOL0     C33581   6.795   4.872   1.722 -0.7712  0.3860  0.1991
  244MOL0     O33582   6.543   4.724   1.699 -0.0702  0.0453  0.5554
  244MOL0     C33583   6.327   4.994   1.622 -0.4336  0.6152  0.1667
  244MOL0     C33584   6.200   5.032   1.603  0.1709 -0.1176 -0.2383
  244MOL0     N33585   5.679   5.396   1.268  1.1207 -0.0735  0.3868
  244MOL0     N33586   5.581   5.481   1.288 -0.7207 -0.5314  0.3405
  244MOL0     C33587   4.763   5.927   1.909 -0.3530 -0.6547 -0.7657
  244MOL0     C33588   4.729   5.969   2.040 -0.0891  0.2176 -0.3270
  244MOL0     C33589   4.588   6.016   2.467 -0.1230 -0.3085 -0.0011
  244MOL0     C33590   4.450   6.048   2.480  0.1283  0.0237 -0.5137
  244MOL0     C33591   4.393   6.070   2.599  0.2634  0.0280  1.2456
  244MOL0     C33592   4.474   6.074   2.718 -0.2524 -0.1937 -0.6161
  244MOL0     O33593   4.432   6.086   2.850 -0.1559 -0.6258  0.2509
  244MOL0     C33594   4.314   6.022   2.889  0.1191 -0.6349  1.1943
  244MOL0     C33595   4.311   5.868   2.877  0.5722 -0.1533  0.0759
  244MOL0     C33596   4.409   5.814   2.982  0.0059  0.1770  0.5656
  244MOL0     C33597   4.457   5.668   2.954 -0.7823  0.0341 -0.0053
  244MOL0     C33598   4.517   5.666   2.828 -0.6189 -0.9460 -0.3500
  244MOL0     C33599   4.578   5.661   2.721 -0.4962 -0.1331 -0.5767
  244MOL0     C33600   4.606   6.037   2.703 -1.1776 -0.0964  0.2819
  244MOL0     C33601   4.669   6.012   2.583  0.2967  0.4324 -0.1265
  244MOL0     C33602   4.824   5.990   2.589 -0.0985 -0.2827 -0.2449
  244MOL0     H33603   4.408   6.027   2.031  0.8996  1.0442 -0.3524
  244MOL0     H33604   4.442   5.927   1.802  3.1921 -5.5915 -2.5694
  244MOL0     H33605   4.803   5.721   1.725  3.3582  1.4247 -0.5935
  244MOL0     H33606   4.857   5.878   1.647  1.3362 -1.0090  0.1382
  244MOL0     H33607   4.697   5.650   1.529 -0.5835  1.5406  3.7203
  244MOL0     H33608   4.727   5.807   1.450  1.0798 -0.6624 -1.7116
  244MOL0     H33609   4.881   5.640   1.375  1.7827 -1.1490  0.5750
  244MOL0     H33610   4.972   5.761   1.459  2.0288 -1.1549 -0.3109
  244MOL0     H33611   4.962   5.587   1.660 -1.3415  2.6716 -0.9334
  244MOL0     H33612   4.870   5.478   1.562  0.8672 -1.7179 -1.6242
  244MOL0     H33613   5.079   5.491   1.391  2.8598  1.6715  0.4749
  244MOL0     H33614   5.066   5.387   1.537  0.7130  0.8767  1.7865
  244MOL0     H33615   5.206   5.659   1.513  0.5359 -0.0481  0.7425
  244MOL0     H33616   5.195   5.559   1.653 -1.3394  1.0548 -0.1334
  244MOL0     H33617   5.327   5.370   1.525 -0.0147  0.2342 -0.5592
  244MOL0     H33618   5.413   5.526   1.551 -1.3452 -0.9688  2.1573
  244MOL0     H33619   5.258   5.405   1.307 -0.9943 -1.0864  3.6024
  244MOL0     H33620   5.320   5.573   1.307  0.0126  0.1417 -2.2224
  244MOL0     H33621   5.421   5.191   1.311  0.7200 -1.1502 -1.2808
  244MOL0     H33622   5.790   5.161   1.193 -0.2779  0.1319 -2.1606
  244MOL0     H33623   5.649   5.067   1.201  1.2403  1.8128 -1.5984
  244MOL0     H33624   5.811   5.164   1.443 -0.4116 -1.2159  1.8044
  244MOL0     H33625   5.665   5.081   1.466 -0.0209  1.7479  0.3594
  244MOL0     H33626   5.765   4.886   1.316  0.8499  0.8820 -1.5830
  244MOL0     H33627   5.909   4.975   1.309 -2.0427 -0.4125 -2.7471
  244MOL0     H33628   5.780   4.928   1.583  0.7751 -1.2917  2.0781
  244MOL0     H33629   5.874   4.808   1.517  1.1352  0.8783  0.3698
  244MOL0     H33630   6.046   4.732   1.603 -0.0870 -0.4897  1.3020
  244MOL0     H33631   6.326   4.601   1.739 -2.5641 -0.1534  1.2528
  244MOL0     H33632   6.341   4.568   1.565 -0.0552  1.1551 -0.3148
  244MOL0     H33633   6.190   4.553   1.639 -0.3517 -1.4534 -1.5403
  244MOL0     H33634   6.758   4.914   1.383 -1.0261 -0.5305 -0.0890
  244MOL0     H33635   6.976   4.834   1.381 -2.9403  0.7854 -1.5115
  244MOL0     H33636   7.192   4.882   1.742  2.4427  0.5746  2.3624
  244MOL0     H33637   7.230   4.706   1.739 -0.4829  0.5397 -0.2551
  244MOL0     H33638   7.335   4.949   1.597 -4.5445 -0.5638  1.0696
  244MOL0     H33639   7.432   4.845   1.702 -0.0638 -0.0331  0.2462
  244MOL0     H33640   7.345   4.667   1.504  3.5413 -1.2288 -1.9314
  244MOL0     H33641   7.501   4.723   1.531  1.2570  0.3763  0.0693
  244MOL0     H33642   7.453   4.933   1.399  1.1597  0.6769  0.0003
  244MOL0     H33643   7.282   4.892   1.390  0.4514  0.3301 -1.3274
  244MOL0     H33644   7.502   4.742   1.259 -1.5492 -0.9985 -0.1900
  244MOL0     H33645   7.332   4.685   1.249 -0.0465 -0.9515  2.7281
  244MOL0     H33646   7.420   4.845   1.057  1.2606 -0.5985  0.7047
  244MOL0     H33647   7.374   4.980   1.164 -1.3381 -0.5234  1.0026
  244MOL0     H33648   7.160   4.893   1.203  1.2108  1.5875 -0.4695
  244MOL0     H33649   7.184   4.755   1.092  1.3648 -1.3089  0.6947
  244MOL0     H33650   7.217   4.941   0.908  0.0582  0.2427  0.0257
  244MOL0     H33651   7.167   5.049   1.031  1.6041  0.4219  0.8992
  244MOL0     H33652   6.971   4.795   1.816 -1.7530 -2.5342 -0.2715
  244MOL0     H33653   6.737   4.880   1.813  2.6708  2.0938  2.4636
  244MOL0     H33654   6.403   5.072   1.616  1.9921 -1.6980 -3.7447
  244MOL0     H33655   6.176   5.138   1.600  1.0235  0.0801 -2.7319
  244MOL0     H33656   4.867   5.904   1.887 -0.3927 -2.5119  0.7361
  244MOL0     H33657   4.820   5.983   2.098  0.3102  1.2299 -1.1628
  244MOL0     H33658   4.382   6.049   2.396  1.8859  0.4910 -2.0083
  244MOL0     H33659   4.287   6.090   2.603 -0.0413 -1.6625  2.6265
  244MOL0     H33660   4.291   6.055   2.991  0.9638 -1.5936  1.7187
  244MOL0     H33661   4.226   6.056   2.835 -1.3790 -2.1914  2.5192
  244MOL0     H33662   4.332   5.841   2.773 -3.2056  0.8611 -1.0932
  244MOL0     H33663   4.211   5.828   2.894  0.9120 -0.9919  0.1783
  244MOL0     H33664   4.495   5.878   3.000  1.0307 -1.5021  2.0492
  244MOL0     H33665   4.359   5.815   3.080  1.9425 -1.6915  1.6591
  244MOL0     H33666   4.369   5.604   2.950 -0.9508  0.3480 -2.6470
  244MOL0     H33667   4.518   5.637   3.040 -1.7715  0.2356  0.7827
  244MOL0     H33668   4.624   5.667   2.625  0.3765  1.5737 -0.1026
  244MOL0     H33669   4.684   6.018   2.776  0.0949  0.4627 -0.8920
  244MOL0     H33670   4.878   6.019   2.499  0.4519  2.3654  0.8523
  244MOL0     H33671   4.872   6.044   2.671 -0.6822  3.9758 -2.3976
  244MOL0     H33672   4.828   5.881   2.596  0.4912 -0.2528 -0.0908
  245MOL0     O33673  10.181  10.504  10.909 -0.3302  0.5127 -0.0012
  245MOL0     C33674  10.166  10.402  10.974  0.5762 -0.3153  0.4144
  245MOL0     O33675  10.228  10.370  11.087  0.1527 -1.0738  0.1694
  245MOL0     C33676  10.308  10.463  11.145  0.0308  0.7248 -0.7830
  245MOL0     C33677  10.280  10.513  11.270  0.2626  0.7735  0.4253
  245MOL0     C33678  10.371  10.599  11.337 -1.0105  0.7740  0.9241
  245MOL0     C33679  10.496  10.629  11.271  0.4671  0.2066 -0.8694
  245MOL0     O33680  10.596  10.701  11.338  0.6671  0.0297  0.3400
  245MOL0     C33681  10.555  10.808  11.428 -0.7945  0.2692  0.1038
  245MOL0     C33682  10.684  10.874  11.492  0.3780  0.5109 -0.3117
  245MOL0     C33683  10.802  10.886  11.394  0.4175 -0.9587 -0.6649
  245MOL0     C33684  10.908  10.985  11.443  0.3108 -0.4591 -0.5775
  245MOL0     C33685  11.010  11.036  11.343 -0.4691  0.2638  0.6882
  245MOL0     C33686  11.097  11.144  11.401 -0.3354 -0.5555 -0.1959
  245MOL0     C33687  11.168  11.218  11.295  0.1026  0.0527  0.3362
  245MOL0     C33688  11.263  11.138  11.208  0.0468  1.3007 -0.3963
  245MOL0     N33689  11.377  11.093  11.285 -0.8250  0.4785 -0.0462
  245MOL0     C33690  11.386  10.971  11.352  0.7612  0.3345 -0.5758
  245MOL0     C33691  11.494  10.983  11.429 -0.4486 -0.1511  0.7065
  245MOL0     C33692  11.555  10.879  11.528  0.5220 -0.5384  0.1486
  245MOL0     C33693  11.624  10.770  11.456  0.2128  0.4201  0.9826
  245MOL0     C33694  11.667  10.649  11.555  0.0205 -0.4506  0.5118
  245MOL0     C33695  11.784  10.679  11.653  0.0444 -0.2898 -0.2152
  245MOL0     O33696  11.904  10.662  11.575 -0.1493  0.4655 -0.1361
  245MOL0     C33697  12.022  10.678  11.642 -0.2747  0.0734  0.7155
  245MOL0     C33698  12.047  10.701  11.774  0.5245 -0.4991  0.2149
  245MOL0     C33699  12.180  10.722  11.822  1.2267 -0.1525  0.0421
  245MOL0     C33700  12.195  10.748  11.968  0.1441 -0.5754  0.1099
  245MOL0     C33701  12.284  10.720  11.731 -0.2332 -0.1620  0.3810
  245MOL0     C33702  12.430  10.742  11.764  0.5546 -0.5684 -0.5511
  245MOL0     O33703  12.526  10.717  11.665  0.1249 -0.0470 -0.4666
  245MOL0     C33704  12.653  10.683  11.701 -0.1380  0.1535  1.6061
  245MOL0     C33705  12.698  10.646  11.824  0.0870  0.1852 -0.5587
  245MOL0     C33706  12.835  10.627  11.846  0.3707  0.1215 -0.4739
  245MOL0     C33707  12.925  10.650  11.743  0.4018  0.7169 -0.2947
  245MOL0     O33708  13.064  10.637  11.753  0.0788 -0.0744  0.6098
  245MOL0     C33709  13.114  10.655  11.879 -0.5877 -0.5084 -0.6744
  245MOL0     C33710  13.263  10.683  11.881 -0.8192  0.1468 -0.0572
  245MOL0     C33711  13.292  10.818  11.830 -0.5854 -0.4545  0.3023
  245MOL0     C33712  13.434  10.840  11.757  0.5309 -0.1803  0.7824
  245MOL0     C33713  13.561  10.823  11.847 -0.0374  0.1339  0.1679
  245MOL0     C33714  13.582  10.963  11.912 -0.8153  0.4832 -0.1800
  245MOL0     C33715  13.682  10.948  12.029  0.8129  0.3553  0.4090
  245MOL0     C33716  13.645  11.082  12.109 -0.0858  0.3385  0.3244
  245MOL0    Cl33717  13.753  11.117  12.239  0.1715  0.1152 -0.2489
  245MOL0     C33718  12.877  10.705  11.620 -0.2051  1.2203 -0.3009
  245MOL0     C33719  12.744  10.716  11.599  0.2802  0.7138  0.9326
  245MOL0     O33720  12.457  10.798  11.874  0.4850  0.9728  0.1410
  245MOL0     C33721  12.262  10.708  11.598  0.4726  0.1683 -0.2928
  245MOL0     C33722  12.127  10.689  11.556 -1.0542 -0.9101  0.0551
  245MOL0     N33723  11.571  11.102  11.401 -0.3819 -0.4494 -0.0545
  245MOL0     N33724  11.493  11.168  11.317  0.2759 -0.3590  1.9854
  245MOL0     C33725  10.516  10.572  11.148 -0.8428 -0.6986 -0.3721
  245MOL0     C33726  10.426  10.497  11.084  0.5079  0.5549 -0.0430
  245MOL0     C33727  10.082  10.291  10.919  0.1271 -0.5965 -0.8084
  245MOL0     C33728   9.984  10.236  10.989 -0.3700 -0.3382  0.4554
  245MOL0     C33729   9.912  10.124  10.953 -0.6460  0.1967 -0.0960
  245MOL0     C33730   9.923  10.076  10.827  0.2994  0.9068  0.4652
  245MOL0     O33731   9.842   9.970  10.791 -0.8020 -0.0420 -0.1765
  245MOL0     C33732   9.897   9.879  10.693  0.6936 -0.1632 -0.2635
  245MOL0     C33733   9.853   9.738  10.715 -0.3145 -0.4786  0.1203
  245MOL0     C33734   9.941   9.669  10.831  0.1312 -0.6492  1.0980
  245MOL0     C33735   9.896   9.529  10.844  0.0873  0.0966 -0.3151
  245MOL0     C33736   9.773   9.501  10.921 -0.4064 -0.7335 -0.6706
  245MOL0     C33737   9.664   9.498  10.981 -0.3829  0.3891 -0.5957
  245MOL0     C33738  10.018  10.138  10.742 -0.1155 -0.5578 -0.0506
  245MOL0     C33739  10.106  10.241  10.787  0.7208  0.4148  0.5003
  245MOL0     C33740  10.216  10.294  10.698  0.9362 -0.3510  0.5170
  245MOL0     H33741  10.197  10.476  11.330  2.8098 -1.2254  3.0327
  245MOL0     H33742  10.340  10.638  11.434  0.2507 -0.6959  1.9840
  245MOL0     H33743  10.482  10.781  11.504  0.6835 -0.4883  1.3100
  245MOL0     H33744  10.501  10.886  11.373 -3.2083  0.1156  2.0853
  245MOL0     H33745  10.664  10.974  11.530  0.1953  0.6295 -0.7179
  245MOL0     H33746  10.716  10.801  11.567  3.5417  2.2943  0.2574
  245MOL0     H33747  10.851  10.789  11.397 -2.1250 -2.3188  0.8264
  245MOL0     H33748  10.758  10.908  11.296 -1.9653 -1.1500  0.2904
  245MOL0     H33749  10.857  11.074  11.482 -0.1430 -0.4377 -1.2111
  245MOL0     H33750  10.955  10.940  11.531 -2.2758 -0.7073  0.7595
  245MOL0     H33751  10.963  11.067  11.249 -0.4051  1.2712  0.9778
  245MOL0     H33752  11.079  10.959  11.307  0.9406  0.8698  1.9588
  245MOL0     H33753  11.045  11.228  11.448  0.3589 -0.7844  1.0384
  245MOL0     H33754  11.161  11.097  11.477 -1.6509  1.4328  2.3294
  245MOL0     H33755  11.225  11.296  11.346  0.8366 -1.4448  1.9401
  245MOL0     H33756  11.091  11.266  11.235 -1.7498  0.2586  2.7120
  245MOL0     H33757  11.211  11.052  11.164 -3.5908  2.4796  1.2517
  245MOL0     H33758  11.293  11.208  11.130  0.5748  2.0267  0.4388
  245MOL0     H33759  11.321  10.885  11.343  1.7533 -0.2423 -3.5862
  245MOL0     H33760  11.459  10.853  11.572 -0.9100  1.6683 -1.4395
  245MOL0     H33761  11.614  10.930  11.605 -0.0685  0.3765  0.0049
  245MOL0     H33762  11.567  10.722  11.376  0.6393  1.5216 -0.0045
  245MOL0     H33763  11.714  10.817  11.416 -0.9100  1.7735 -0.0613
  245MOL0     H33764  11.579  10.619  11.613  0.7777 -0.4046  1.7171
  245MOL0     H33765  11.692  10.559  11.498  2.2806  1.0680 -1.1087
  245MOL0     H33766  11.783  10.775  11.705 -1.9695 -0.0418 -0.6409
  245MOL0     H33767  11.779  10.598  11.727 -1.7875  0.2653  0.3152
  245MOL0     H33768  11.968  10.686  11.847 -0.4376  3.1111  0.1241
  245MOL0     H33769  12.270  10.684  12.015 -1.0338 -2.3360 -0.3192
  245MOL0     H33770  12.107  10.722  12.028  0.1594 -0.4413  0.1920
  245MOL0     H33771  12.222  10.853  11.985 -1.3016 -0.0504 -0.6490
  245MOL0     H33772  12.630  10.596  11.891 -0.2633  0.8084 -0.4442
  245MOL0     H33773  12.872  10.575  11.933 -2.2031  1.1450  1.3693
  245MOL0     H33774  13.068  10.738  11.934 -0.3870  2.9907 -5.2222
  245MOL0     H33775  13.102  10.562  11.936  2.2474 -0.6679 -0.2320
  245MOL0     H33776  13.302  10.683  11.984  1.8966  0.6803 -1.0134
  245MOL0     H33777  13.316  10.610  11.818 -2.9296 -0.6389 -1.0074
  245MOL0     H33778  13.305  10.884  11.916  1.3528 -0.7681  0.2806
  245MOL0     H33779  13.216  10.853  11.758  0.8234 -0.1691 -1.0987
  245MOL0     H33780  13.428  10.943  11.723  1.4455 -0.3326  0.1406
  245MOL0     H33781  13.444  10.785  11.663  0.5136  2.3801 -0.7973
  245MOL0     H33782  13.553  10.749  11.927 -0.4314 -1.0157 -0.9048
  245MOL0     H33783  13.651  10.797  11.790 -1.7965  0.0914 -2.7557
  245MOL0     H33784  13.487  11.004  11.948  0.3170  0.8787  2.6468
  245MOL0     H33785  13.609  11.037  11.837  0.2549 -0.5906 -0.8907
  245MOL0     H33786  13.785  10.933  11.997  0.5550  0.7161 -0.6615
  245MOL0     H33787  13.655  10.872  12.102  1.0458  3.3064  3.8367
  245MOL0     H33788  13.557  11.063  12.170 -1.2471 -1.7113 -1.8102
  245MOL0     H33789  13.638  11.171  12.046  2.9820  2.2205  2.3887
  245MOL0     H33790  12.951  10.726  11.543 -0.6860  1.4701 -0.7011
  245MOL0     H33791  12.709  10.744  11.500  3.9048 -2.3304 -1.4804
  245MOL0     H33792  12.333  10.719  11.517 -0.2121 -2.9888 -1.4640
  245MOL0     H33793  12.095  10.682  11.452 -3.3148  0.4916  0.5733
  245MOL0     H33794  10.609  10.584  11.092 -1.7058 -0.2994 -1.7815
  245MOL0     H33795  10.455  10.436  10.999 -1.7853  1.8089 -1.8352
  245MOL0     H33796   9.969  10.280  11.087  1.9300  2.2734 -0.2666
  245MOL0     H33797   9.838  10.099  11.029 -0.2515  3.1288  1.4238
  245MOL0     H33798   9.887   9.903  10.586  1.2126 -2.5887 -0.9034
  245MOL0     H33799  10.006   9.878  10.699  0.7924 -4.4964  0.1989
  245MOL0     H33800   9.875   9.687  10.621  1.3769 -2.5269  1.5255
  245MOL0     H33801   9.745   9.731  10.727 -0.3870 -0.3376 -0.4181
  245MOL0     H33802  10.048   9.668  10.810  0.1874  0.6414  1.2041
  245MOL0     H33803   9.935   9.719  10.928  3.1592  0.9214  0.5951
  245MOL0     H33804   9.983   9.470  10.873  0.0071 -0.0965 -0.4662
  245MOL0     H33805   9.881   9.494  10.742  0.2801  1.2330 -0.7384
  245MOL0     H33806   9.568   9.491  11.028 -0.1567  2.4701  0.3055
  245MOL0     H33807  10.026  10.102  10.640  1.1044  0.9739 -0.5233
  245MOL0     H33808  10.227  10.233  10.608  0.1112  0.7514 -0.3537
  245MOL0     H33809  10.207  10.401  10.680 -0.9245 -0.2587  1.7505
  245MOL0     H33810  10.311  10.278  10.751  2.0432 -0.3187 -1.3806
  246MOL0     O33811   6.565   1.870   1.063 -0.4382  0.2127 -0.5970
  246MOL0     C33812   6.579   1.818   1.179  1.3139  0.4925 -0.5861
  246MOL0     O33813   6.472   1.793   1.269  0.0181  0.4023  0.7190
  246MOL0     C33814   6.358   1.844   1.243 -0.1974 -0.9016  0.4615
  246MOL0     C33815   6.323   1.957   1.318  0.3838  0.1421 -0.7413
  246MOL0     C33816   6.188   2.007   1.320 -0.2417  0.2262 -0.1954
  246MOL0     C33817   6.098   1.955   1.231  0.4556  0.3900 -0.1049
  246MOL0     O33818   5.978   2.018   1.242 -0.6696  0.1062 -0.1325
  246MOL0     C33819   5.895   1.965   1.339  0.1125 -0.1640  0.0891
  246MOL0     C33820   5.815   2.091   1.389 -1.1945  1.2044 -0.0903
  246MOL0     C33821   5.697   2.043   1.471  0.1445  1.3034 -0.1739
  246MOL0     C33822   5.590   2.150   1.485 -0.4427  0.6452  1.2851
  246MOL0     C33823   5.493   2.103   1.583  0.6937 -0.3753  0.4884
  246MOL0     C33824   5.380   2.205   1.602  0.3204  0.4439 -1.0711
  246MOL0     C33825   5.288   2.179   1.720  0.0919  0.3135  0.0942
  246MOL0     C33826   5.143   2.182   1.673 -0.0518 -0.2930  1.0032
  246MOL0     N33827   5.050   2.155   1.787  0.0116 -0.3726 -0.0565
  246MOL0     C33828   4.968   2.257   1.839 -0.7185 -0.1121  0.3153
  246MOL0     C33829   4.879   2.199   1.916  0.5088  1.1610  0.0576
  246MOL0     C33830   4.765   2.281   1.975 -0.1029  0.2932 -0.4292
  246MOL0     C33831   4.798   2.362   2.100 -0.5156 -0.1750  0.1166
  246MOL0     C33832   4.913   2.466   2.080 -0.4284  0.2384  0.1825
  246MOL0     C33833   4.883   2.579   1.976  0.3393 -0.2496  0.0938
  246MOL0     O33834   5.005   2.657   1.979  1.1395  0.9009 -0.3398
  246MOL0     C33835   5.086   2.653   1.872  0.3050 -1.5310 -0.1427
  246MOL0     C33836   5.071   2.751   1.770  0.5238 -0.7412 -0.8247
  246MOL0     C33837   5.168   2.764   1.668  0.9655 -0.5076  0.3084
  246MOL0     C33838   5.151   2.873   1.566  0.3706 -0.3526  0.3046
  246MOL0     C33839   5.265   2.658   1.648  0.0048  0.2717  0.3233
  246MOL0     C33840   5.359   2.651   1.528  0.1080 -0.0283  0.6040
  246MOL0     O33841   5.416   2.534   1.499  0.1114  0.3104  0.6072
  246MOL0     C33842   5.523   2.541   1.410 -0.8198  0.9185 -0.0518
  246MOL0     C33843   5.528   2.454   1.305 -0.0211 -0.5681  0.7112
  246MOL0     C33844   5.634   2.457   1.216 -0.6262 -0.1154 -0.6956
  246MOL0     C33845   5.749   2.530   1.244  0.1954 -0.7970  0.4366
  246MOL0     O33846   5.866   2.534   1.171 -0.0904 -0.1222  1.1781
  246MOL0     C33847   5.908   2.420   1.107  0.4068 -0.1509  0.0781
  246MOL0     C33848   6.045   2.450   1.040  1.0117 -0.4407  0.3212
  246MOL0     C33849   6.027   2.552   0.917 -0.6899  0.4302 -0.8562
  246MOL0     C33850   6.162   2.557   0.839  0.1716 -0.0250  0.0216
  246MOL0     C33851   6.175   2.669   0.733  0.1996 -0.0416  0.7288
  246MOL0     C33852   6.103   2.630   0.607 -0.7171 -0.1976  0.8720
  246MOL0     C33853   5.957   2.644   0.585  0.8755 -0.3710  0.0733
  246MOL0     C33854   5.907   2.529   0.500  0.4018  0.1709 -0.0927
  246MOL0    Cl33855   5.729   2.545   0.461  0.2810 -0.3772  0.0369
  246MOL0     C33856   5.744   2.619   1.355 -1.0960  0.4481  0.4604
  246MOL0     C33857   5.636   2.618   1.447 -0.0163  0.5238  0.1856
  246MOL0     O33858   5.377   2.754   1.462 -0.2459 -0.9181  0.0361
  246MOL0     C33859   5.265   2.549   1.743 -0.0971  0.9915 -0.3981
  246MOL0     C33860   5.180   2.551   1.861  0.2055 -1.3802 -0.3232
  246MOL0     N33861   4.896   2.059   1.915  0.5168  0.2541 -0.2229
  246MOL0     N33862   5.008   2.037   1.849  0.0562 -0.1877  0.9383
  246MOL0     C33863   6.136   1.840   1.155  0.4470  0.2093 -0.3100
  246MOL0     C33864   6.265   1.790   1.159 -0.1790  0.3861  0.1314
  246MOL0     C33865   6.716   1.754   1.196 -0.0423  0.0949 -0.5207
  246MOL0     C33866   6.723   1.637   1.276  0.2587  0.1496  0.0530
  246MOL0     C33867   6.842   1.566   1.301 -0.7410 -0.9009 -0.1229
  246MOL0     C33868   6.959   1.620   1.250 -0.0534 -0.0721 -0.1715
  246MOL0     O33869   7.064   1.537   1.263  0.1076 -0.3572 -0.5198
  246MOL0     C33870   7.194   1.582   1.226  0.2283  0.1838  0.3047
  246MOL0     C33871   7.243   1.698   1.315 -0.3211  0.4527 -0.1657
  246MOL0     C33872   7.382   1.735   1.269 -0.4579 -0.5117  0.3263
  246MOL0     C33873   7.452   1.858   1.338  0.0980  0.2620 -0.1566
  246MOL0     C33874   7.374   1.984   1.344 -0.4996 -0.1293  0.6479
  246MOL0     C33875   7.307   2.083   1.353  0.1549  0.5757  0.2511
  246MOL0     C33876   6.957   1.738   1.174 -0.6381  0.7934  0.2618
  246MOL0     C33877   6.840   1.807   1.157 -0.1396  0.0239  0.2081
  246MOL0     C33878   6.858   1.943   1.090 -0.1817  0.2316  1.0279
  246MOL0     H33879   6.396   2.009   1.380 -0.9445  1.8112 -0.4921
  246MOL0     H33880   6.165   2.089   1.388 -2.1533 -0.3114 -0.1495
  246MOL0     H33881   5.953   1.931   1.425 -0.6465 -1.2727  0.1903
  246MOL0     H33882   5.828   1.885   1.306 -0.8782 -0.3948  2.4368
  246MOL0     H33883   5.888   2.151   1.444 -1.8426  2.9779 -1.0679
  246MOL0     H33884   5.788   2.153   1.303 -1.4256 -0.5334 -1.3239
  246MOL0     H33885   5.646   1.961   1.418 -0.7679 -0.3064  2.9632
  246MOL0     H33886   5.740   2.005   1.564 -2.5803  0.9155  1.0138
  246MOL0     H33887   5.636   2.244   1.517  6.3077 -1.5061 -0.4248
  246MOL0     H33888   5.540   2.173   1.390 -2.5651 -1.1430  1.8823
  246MOL0     H33889   5.550   2.075   1.673  3.4776 -1.0417 -1.3332
  246MOL0     H33890   5.456   2.004   1.556 -1.1460 -0.0292  1.6199
  246MOL0     H33891   5.421   2.306   1.608  1.9885 -0.1859 -1.4273
  246MOL0     H33892   5.323   2.202   1.508  0.8705  1.2144 -1.4344
  246MOL0     H33893   5.310   2.241   1.808  2.1343 -0.2174  0.0011
  246MOL0     H33894   5.305   2.074   1.745  0.6262  0.3020 -0.2894
  246MOL0     H33895   5.125   2.277   1.623 -1.7644 -1.3711 -0.5621
  246MOL0     H33896   5.116   2.114   1.592 -2.0010  1.7443 -0.1768
  246MOL0     H33897   4.964   2.364   1.819 -1.6606 -0.4717 -1.6482
  246MOL0     H33898   4.680   2.218   2.005  0.0472  1.1034  1.8927
  246MOL0     H33899   4.736   2.350   1.895  0.8551  1.6129  0.3387
  246MOL0     H33900   4.709   2.423   2.117 -1.6867 -1.2852 -1.6873
  246MOL0     H33901   4.818   2.292   2.182  1.4079  0.1505 -0.0262
  246MOL0     H33902   4.939   2.511   2.176  1.2386 -1.3390  0.5220
  246MOL0     H33903   5.003   2.413   2.050 -1.1029 -1.1494  0.5089
  246MOL0     H33904   4.869   2.538   1.875  2.3141 -0.1119 -0.2687
  246MOL0     H33905   4.786   2.622   2.003 -0.6238 -2.3566  0.2537
  246MOL0     H33906   4.997   2.831   1.775  0.0636 -1.1741  4.1451
  246MOL0     H33907   5.251   2.915   1.554  1.1493 -1.6380  1.9262
  246MOL0     H33908   5.081   2.951   1.597  0.0944 -0.6455  0.4287
  246MOL0     H33909   5.113   2.834   1.471  1.6080  1.0503 -0.8100
  246MOL0     H33910   5.445   2.388   1.284 -0.2754 -0.2930  0.8561
  246MOL0     H33911   5.627   2.389   1.131 -2.0133  2.2059 -2.5785
  246MOL0     H33912   5.929   2.343   1.181  1.4150 -2.5520 -2.5230
  246MOL0     H33913   5.831   2.377   1.043  0.2144 -0.3638  0.4507
  246MOL0     H33914   6.115   2.495   1.110 -0.2471  4.0033 -0.9430
  246MOL0     H33915   6.074   2.350   1.007 -2.0810 -1.8220  1.4551
  246MOL0     H33916   6.006   2.655   0.950 -0.0430  0.6574 -1.1360
  246MOL0     H33917   5.946   2.525   0.848 -1.3849  2.3723 -0.8742
  246MOL0     H33918   6.173   2.461   0.787  2.4363 -0.8517  1.8241
  246MOL0     H33919   6.249   2.565   0.905  0.6730  1.0918 -0.7580
  246MOL0     H33920   6.151   2.772   0.763 -0.1339 -0.1158  0.7252
  246MOL0     H33921   6.284   2.675   0.726  0.2285 -0.1610  1.0399
  246MOL0     H33922   6.129   2.532   0.566  0.5445  1.1427 -1.7698
  246MOL0     H33923   6.138   2.702   0.533 -3.0205  1.6680  1.4750
  246MOL0     H33924   5.933   2.733   0.526 -0.4574 -1.9360 -1.9059
  246MOL0     H33925   5.900   2.645   0.679  0.1490 -0.4317 -0.3544
  246MOL0     H33926   5.917   2.439   0.560 -0.0515  0.3095  0.1965
  246MOL0     H33927   5.963   2.527   0.406  0.6135 -0.6869  0.0440
  246MOL0     H33928   5.826   2.687   1.376 -1.1187  0.5102  0.3484
  246MOL0     H33929   5.641   2.675   1.539 -0.1935 -2.2829  2.0306
  246MOL0     H33930   5.337   2.469   1.736 -0.2878  0.6500  1.1620
  246MOL0     H33931   5.191   2.468   1.929  1.4345  0.0554  1.3347
  246MOL0     H33932   6.070   1.794   1.081  0.0679  1.5989 -0.8720
  246MOL0     H33933   6.283   1.701   1.101 -1.7022 -1.4198  2.2622
  246MOL0     H33934   6.628   1.596   1.306 -0.3158  2.4951  1.6572
  246MOL0     H33935   6.842   1.469   1.350 -0.1110 -0.7552  0.1805
  246MOL0     H33936   7.264   1.500   1.239 -1.6472 -1.7145 -0.9556
  246MOL0     H33937   7.193   1.601   1.118 -3.5474 -2.6609 -0.3625
  246MOL0     H33938   7.256   1.666   1.419  1.0443  0.0708 -0.4317
  246MOL0     H33939   7.172   1.781   1.314 -0.4552  0.3576 -2.3521
  246MOL0     H33940   7.447   1.648   1.277 -0.9628 -1.0638 -1.2738
  246MOL0     H33941   7.367   1.754   1.163 -1.6341  0.0827  0.5803
  246MOL0     H33942   7.541   1.888   1.283 -0.7175  0.7137 -1.2782
  246MOL0     H33943   7.492   1.827   1.435 -1.3430 -1.6320 -0.0886
  246MOL0     H33944   7.244   2.170   1.357  0.5812  0.8363  2.1749
  246MOL0     H33945   7.049   1.770   1.126 -0.9617 -1.4943 -2.1217
  246MOL0     H33946   6.868   1.924   0.983  1.2688  0.2676  1.1431
  246MOL0     H33947   6.772   2.010   1.100  0.2006  0.7259  1.0044
  246MOL0     H33948   6.951   1.989   1.122 -1.3754  1.0936  3.5523
  247MOL0     O33949   2.837  10.454   1.579  0.3891 -0.1637 -0.3423
  247MOL0     C33950   2.866  10.419   1.468  0.8363 -0.3486 -0.7835
  247MOL0     O33951   2.987  10.457   1.402  0.2627  0.5724  0.2529
  247MOL0     C33952   3.070  10.536   1.476 -0.3572  0.5426 -1.0034
  247MOL0     C33953   3.164  10.482   1.557  0.5365  0.6127  0.4220
  247MOL0     C33954   3.250  10.563   1.632 -0.3665  0.5698 -0.2240
  247MOL0     C33955   3.253  10.699   1.617 -0.1573  0.1627  0.5971
  247MOL0     O33956   3.353  10.765   1.683 -0.4403 -0.0152 -0.3927
  247MOL0     C33957   3.484  10.726   1.639  0.2751 -0.1903 -0.3500
  247MOL0     C33958   3.571  10.675   1.766 -0.1840  1.1035 -0.0639
  247MOL0     C33959   3.701  10.641   1.716 -0.0944 -0.3364 -0.3859
  247MOL0     C33960   3.790  10.627   1.837  0.0106  0.9725 -0.3648
  247MOL0     C33961   3.932  10.571   1.817  0.1802  0.0620  0.0401
  247MOL0     C33962   4.008  10.573   1.950 -0.0502  0.2646 -0.3618
  247MOL0     C33963   4.156  10.556   1.932 -0.0131 -0.7574 -1.2682
  247MOL0     C33964   4.192  10.412   1.894  0.2935 -0.2576 -0.2085
  247MOL0     N33965   4.188  10.307   2.007 -0.4005  0.9350  0.1937
  247MOL0     C33966   4.275  10.286   2.112 -0.3974 -0.1709 -0.3392
  247MOL0     C33967   4.241  10.172   2.172 -0.1265 -0.0769 -0.4049
  247MOL0     C33968   4.303  10.112   2.299 -0.0846 -0.1791 -0.2718
  247MOL0     C33969   4.428  10.188   2.358 -0.2497 -0.7433  0.7283
  247MOL0     C33970   4.436  10.149   2.500 -0.7024 -0.0269 -0.0118
  247MOL0     C33971   4.555  10.216   2.570  0.8314 -0.8801  0.6997
  247MOL0     O33972   4.553  10.358   2.564  0.2333 -0.4368  0.5389
  247MOL0     C33973   4.444  10.415   2.629 -0.2020  0.4456  0.3224
  247MOL0     C33974   4.430  10.409   2.764  0.0063 -0.2942 -0.2385
  247MOL0     C33975   4.309  10.452   2.832  0.1423  0.0871  0.9993
  247MOL0     C33976   4.304  10.415   2.982 -0.0010  0.0112 -0.0772
  247MOL0     C33977   4.205  10.515   2.763 -0.2496 -0.6698  0.2183
  247MOL0     C33978   4.096  10.593   2.827  0.1331 -0.1803 -0.4729
  247MOL0     O33979   4.037  10.686   2.742  0.0601 -0.0420 -0.3425
  247MOL0     C33980   3.928  10.766   2.771 -0.0338  0.4137 -0.1253
  247MOL0     C33981   3.903  10.820   2.898 -0.7117 -0.1721  0.4277
  247MOL0     C33982   3.798  10.907   2.918 -0.6661 -0.4250  0.3838
  247MOL0     C33983   3.709  10.944   2.812 -0.0343  0.1303  0.1010
  247MOL0     O33984   3.590  11.015   2.836 -0.9598  0.0564 -0.3136
  247MOL0     C33985   3.546  11.104   2.737  0.0456  0.6884  0.3493
  247MOL0     C33986   3.451  11.205   2.786  0.6051 -0.5192 -0.3121
  247MOL0     C33987   3.314  11.138   2.806  0.5015 -0.4412  0.1267
  247MOL0     C33988   3.218  11.242   2.874 -0.0125  0.5255 -0.1402
  247MOL0     C33989   3.072  11.198   2.889 -0.2779  0.3424  0.4371
  247MOL0     C33990   2.987  11.299   2.968 -1.0131  0.1950  0.0607
  247MOL0     C33991   2.835  11.251   2.987 -0.7168  1.1417  0.0805
  247MOL0     C33992   2.840  11.121   3.067  0.2741  1.1857 -0.3997
  247MOL0    Cl33993   2.672  11.055   3.074  0.2726 -0.0255 -0.2790
  247MOL0     C33994   3.733  10.895   2.679  0.2367  0.3318  0.5567
  247MOL0     C33995   3.837  10.800   2.663 -0.8482 -0.7939  0.2691
  247MOL0     O33996   4.053  10.570   2.939 -0.3106  0.3139  0.1312
  247MOL0     C33997   4.226  10.530   2.624 -1.0402 -1.0694  0.5185
  247MOL0     C33998   4.339  10.475   2.554 -0.1910  0.3775 -0.0520
  247MOL0     N33999   4.123  10.129   2.107 -0.0298 -0.0742  0.1531
  247MOL0     N34000   4.090  10.213   2.013  0.7562 -0.5761 -0.2572
  247MOL0     C34001   3.156  10.751   1.526  0.5653  0.0781 -0.5022
  247MOL0     C34002   3.069  10.664   1.453 -0.4762 -0.6191 -0.9470
  247MOL0     C34003   2.786  10.322   1.395 -0.5425 -0.2780  0.3627
  247MOL0     C34004   2.710  10.229   1.449  0.7897 -0.5642 -0.5199
  247MOL0     C34005   2.645  10.131   1.370 -0.2729 -0.1355  0.3387
  247MOL0     C34006   2.659  10.133   1.234  0.3859 -0.1151  0.2673
  247MOL0     O34007   2.600  10.034   1.157 -0.0696 -0.0803 -0.0694
  247MOL0     C34008   2.610  10.030   1.021 -0.8699  0.6547 -0.0744
  247MOL0     C34009   2.545   9.907   0.959 -0.6997 -0.5638 -1.3346
  247MOL0     C34010   2.539   9.902   0.800 -0.0593 -0.0786 -0.0818
  247MOL0     C34011   2.469   9.780   0.745 -0.1892  0.2442 -0.3837
  247MOL0     C34012   2.518   9.646   0.771 -0.3287 -0.9675 -0.1052
  247MOL0     C34013   2.567   9.537   0.803 -0.3225  0.6095 -0.6199
  247MOL0     C34014   2.735  10.225   1.175 -0.1012 -1.2548 -0.4434
  247MOL0     C34015   2.790  10.331   1.249 -2.0776  0.0306 -0.1931
  247MOL0     C34016   2.865  10.440   1.167  0.0499  0.1417 -0.1545
  247MOL0     H34017   3.167  10.374   1.557 -0.9271  0.5508  0.5421
  247MOL0     H34018   3.327  10.511   1.686 -1.8879 -3.7905 -1.8480
  247MOL0     H34019   3.531  10.813   1.592  0.8247  0.0950  0.6838
  247MOL0     H34020   3.478  10.651   1.559  2.2638  1.0516 -1.7443
  247MOL0     H34021   3.574  10.758   1.838  3.5605  1.0620 -0.0163
  247MOL0     H34022   3.516  10.595   1.816  2.6834 -0.8668  0.1756
  247MOL0     H34023   3.703  10.555   1.649  2.1991 -1.0033  0.4405
  247MOL0     H34024   3.734  10.726   1.656  1.3027 -0.3630  0.3017
  247MOL0     H34025   3.812  10.730   1.869  3.0550 -0.0258  1.2174
  247MOL0     H34026   3.739  10.570   1.915  3.2219 -0.9145  0.5355
  247MOL0     H34027   3.986  10.634   1.746  1.3046  0.8609  1.5540
  247MOL0     H34028   3.926  10.472   1.772 -0.2578  0.7893 -1.5673
  247MOL0     H34029   3.987  10.669   1.997  1.1111  0.4431 -0.1685
  247MOL0     H34030   3.973  10.489   2.012  0.5870  0.7139  0.6439
  247MOL0     H34031   4.195  10.575   2.033 -2.8692 -2.4378  0.3161
  247MOL0     H34032   4.198  10.629   1.863  1.0751 -1.5661 -1.4900
  247MOL0     H34033   4.126  10.371   1.818 -0.1748 -0.2608  0.1919
  247MOL0     H34034   4.291  10.417   1.847  0.0594  1.6170 -0.5653
  247MOL0     H34035   4.351  10.359   2.137 -1.6242  2.2454 -3.0445
  247MOL0     H34036   4.337  10.012   2.271 -0.1796  0.1480 -1.6374
  247MOL0     H34037   4.227  10.112   2.377  1.0152 -1.5096  0.8530
  247MOL0     H34038   4.523  10.166   2.308 -1.1679 -0.3236 -1.2571
  247MOL0     H34039   4.415  10.296   2.353 -1.5140 -0.8864  0.5572
  247MOL0     H34040   4.343  10.174   2.554 -0.6047  0.0188  0.1375
  247MOL0     H34041   4.451  10.042   2.515  1.7696  0.1533 -0.8396
  247MOL0     H34042   4.553  10.177   2.673 -3.8061 -0.1121  1.1280
  247MOL0     H34043   4.651  10.186   2.528  1.4409  2.4763 -0.6322
  247MOL0     H34044   4.506  10.355   2.819 -0.1071 -1.1131 -0.8774
  247MOL0     H34045   4.303  10.500   3.050  1.9541 -2.1041  2.8354
  247MOL0     H34046   4.394  10.354   2.994  1.2554  1.9630  0.7918
  247MOL0     H34047   4.215  10.352   2.989 -1.7238  1.9978 -2.4273
  247MOL0     H34048   3.966  10.809   2.986  0.8913  0.7330 -0.5608
  247MOL0     H34049   3.769  10.946   3.015 -1.4559 -0.0089 -0.0107
  247MOL0     H34050   3.631  11.162   2.699  1.3404 -0.8769  0.7616
  247MOL0     H34051   3.505  11.047   2.653  1.9169  2.7478 -2.1210
  247MOL0     H34052   3.502  11.262   2.865  2.9280  0.3443 -2.2930
  247MOL0     H34053   3.436  11.273   2.702  2.0111 -1.4720 -1.4004
  247MOL0     H34054   3.332  11.059   2.879  0.1878 -0.1574  0.5128
  247MOL0     H34055   3.266  11.100   2.715 -1.4899  0.3264  0.8047
  247MOL0     H34056   3.232  11.330   2.809  0.2896 -1.6092 -3.1971
  247MOL0     H34057   3.253  11.270   2.973  2.8863 -1.0371 -0.6040
  247MOL0     H34058   3.025  11.190   2.791 -3.0050  3.1577  1.3429
  247MOL0     H34059   3.081  11.096   2.929  0.1039  0.9985  2.1182
  247MOL0     H34060   2.989  11.397   2.919  1.4380 -0.0996 -0.5896
  247MOL0     H34061   3.020  11.326   3.068 -0.1473 -2.0116  0.4332
  247MOL0     H34062   2.786  11.232   2.891 -5.3087  0.7791  2.2181
  247MOL0     H34063   2.782  11.333   3.037 -2.2371  0.5551 -0.4984
  247MOL0     H34064   2.900  11.137   3.158 -0.0835  1.1781 -0.1630
  247MOL0     H34065   2.895  11.045   3.010  0.1898  0.1923  0.7999
  247MOL0     H34066   3.651  10.902   2.608 -1.8688  1.4916  2.9498
  247MOL0     H34067   3.855  10.763   2.563 -4.0412 -0.0486 -0.6922
  247MOL0     H34068   4.155  10.581   2.560 -2.2682 -0.7929  2.0507
  247MOL0     H34069   4.352  10.467   2.447 -1.7794 -1.8361 -0.1475
  247MOL0     H34070   3.137  10.857   1.511 -2.0221 -0.4114 -1.1016
  247MOL0     H34071   2.987  10.706   1.395 -3.1954 -1.4165  2.0690
  247MOL0     H34072   2.689  10.245   1.554  1.2718  2.9467 -0.8057
  247MOL0     H34073   2.568  10.065   1.410  1.4874 -0.7947  2.8576
  247MOL0     H34074   2.563  10.112   0.967 -0.1358 -0.8265 -3.1630
  247MOL0     H34075   2.715  10.026   0.991 -0.3201 -3.4437  1.6419
  247MOL0     H34076   2.451   9.886   1.012  0.4692  1.5625  1.8939
  247MOL0     H34077   2.613   9.827   0.991  0.0168  0.2396 -0.7965
  247MOL0     H34078   2.478   9.983   0.758  0.4061  0.7858  0.8661
  247MOL0     H34079   2.642   9.907   0.765  0.0496  0.4371  0.2947
  247MOL0     H34080   2.455   9.801   0.638 -1.3106  4.4335  0.3969
  247MOL0     H34081   2.370   9.769   0.791 -0.2683 -3.2262 -1.0874
  247MOL0     H34082   2.605   9.440   0.826  4.2474  1.4855 -3.3736
  247MOL0     H34083   2.752  10.233   1.068 -0.7115 -1.6599 -0.5709
  247MOL0     H34084   2.860  10.534   1.223 -0.0584  0.9778 -1.5014
  247MOL0     H34085   2.972  10.423   1.154 -0.2173 -1.5422 -0.4064
  247MOL0     H34086   2.813  10.445   1.070  0.9394  0.7890 -0.6117
  248MOL0     O34087   5.918   6.403   2.624  0.1328  0.2850 -0.9105
  248MOL0     C34088   5.801   6.383   2.632 -0.4206 -0.1089 -0.2089
  248MOL0     O34089   5.720   6.451   2.716 -0.5440 -0.5508 -0.3929
  248MOL0     C34090   5.762   6.558   2.799  0.0655  0.5594  0.1999
  248MOL0     C34091   5.690   6.572   2.909  0.1203  0.2467 -0.6771
  248MOL0     C34092   5.714   6.677   3.000 -0.7014  0.2665 -0.5515
  248MOL0     C34093   5.813   6.771   2.972 -0.0361  0.6349  0.5314
  248MOL0     O34094   5.838   6.883   3.045  0.2025 -0.1717  0.0614
  248MOL0     C34095   5.739   6.930   3.132  0.2694 -0.6816 -0.2395
  248MOL0     C34096   5.820   7.049   3.186  0.0683  0.6481  0.0056
  248MOL0     C34097   5.921   6.999   3.290 -0.1136  1.0104 -0.3927
  248MOL0     C34098   5.999   7.125   3.343 -0.1403 -0.5009  0.3029
  248MOL0     C34099   5.907   7.219   3.420 -0.9333  0.8325 -0.1617
  248MOL0     C34100   5.889   7.163   3.552 -0.0300 -0.0194 -0.1678
  248MOL0     C34101   5.802   7.253   3.646 -0.3715 -0.1858 -0.1687
  248MOL0     C34102   5.653   7.260   3.618  0.5537  0.1079  0.1949
  248MOL0     N34103   5.572   7.324   3.723 -0.0149  0.3604 -0.2071
  248MOL0     C34104   5.513   7.445   3.721 -0.2288  0.0550  0.1321
  248MOL0     C34105   5.408   7.427   3.799  0.0876 -0.8703 -0.7465
  248MOL0     C34106   5.295   7.520   3.817 -0.3997 -0.7571 -0.8525
  248MOL0     C34107   5.210   7.489   3.937  0.1179 -0.4989  1.3554
  248MOL0     C34108   5.096   7.598   3.937  1.0240  0.2082  0.2901
  248MOL0     C34109   4.974   7.565   4.038 -0.5488  1.0284  0.2602
  248MOL0     O34110   4.919   7.424   4.023  0.0329 -0.5966  0.8260
  248MOL0     C34111   4.829   7.381   4.120  0.0120  0.5288 -0.3652
  248MOL0     C34112   4.822   7.242   4.125 -1.0306 -0.0033 -0.4788
  248MOL0     C34113   4.735   7.179   4.219 -0.4282  0.5416  0.2350
  248MOL0     C34114   4.752   7.031   4.243  0.3482 -0.1256 -0.2332
  248MOL0     C34115   4.632   7.255   4.285  0.0479 -0.3492  0.7585
  248MOL0     C34116   4.521   7.202   4.362  0.9309 -0.1314 -0.0451
  248MOL0     O34117   4.472   7.279   4.470 -0.2869 -0.2813 -0.2233
  248MOL0     C34118   4.382   7.227   4.556 -0.1121  0.3374 -0.4975
  248MOL0     C34119   4.245   7.218   4.530  0.2293  0.0547 -0.2555
  248MOL0     C34120   4.162   7.149   4.618  0.7719 -0.5214  0.0172
  248MOL0     C34121   4.203   7.097   4.734  0.2584 -0.2111  0.1096
  248MOL0     O34122   4.103   7.036   4.819 -0.5612 -0.1517 -0.0453
  248MOL0     C34123   4.144   7.007   4.958 -0.2032 -0.1386 -0.1135
  248MOL0     C34124   4.042   6.907   5.030  0.8935  0.3423  0.4825
  248MOL0     C34125   4.033   6.933   5.182 -0.1582 -1.0907  0.3361
  248MOL0     C34126   3.913   6.852   5.229  0.1782 -0.6518 -0.2381
  248MOL0     C34127   3.877   6.877   5.371  0.3618 -0.4213 -0.0353
  248MOL0     C34128   3.808   6.755   5.431 -0.5138 -0.3416 -0.4863
  248MOL0     C34129   3.892   6.631   5.469 -0.5111  0.0592 -0.4930
  248MOL0     C34130   4.001   6.666   5.571  0.6734  0.1730 -0.5119
  248MOL0    Cl34131   4.025   6.530   5.671 -0.1164 -0.1548 -0.3749
  248MOL0     C34132   4.342   7.109   4.772  0.2843 -0.5441  0.0209
  248MOL0     C34133   4.427   7.181   4.683  0.6140  0.5137 -0.3455
  248MOL0     O34134   4.470   7.092   4.328 -0.4286  0.9875 -0.0288
  248MOL0     C34135   4.634   7.395   4.273  0.5946  1.1761  0.6272
  248MOL0     C34136   4.737   7.451   4.192  0.2818  0.0131  0.5730
  248MOL0     N34137   5.420   7.310   3.864  0.4001  0.0119  0.2364
  248MOL0     N34138   5.511   7.243   3.809 -0.1474  0.5452  0.4062
  248MOL0     C34139   5.900   6.749   2.857  0.4222  0.0253  0.6210
  248MOL0     C34140   5.867   6.643   2.774  0.8839 -0.2069  0.9011
  248MOL0     C34141   5.737   6.297   2.529  0.2991  0.0076  0.0445
  248MOL0     C34142   5.597   6.304   2.500  0.8673 -1.0086 -0.4318
  248MOL0     C34143   5.535   6.224   2.405 -0.4642 -0.1398 -0.3103
  248MOL0     C34144   5.611   6.133   2.326 -0.1673  0.0170  0.2350
  248MOL0     O34145   5.553   6.051   2.230  1.0602  0.9593 -0.2114
  248MOL0     C34146   5.414   6.017   2.258  0.4275 -0.7023 -0.0392
  248MOL0     C34147   5.355   5.916   2.157 -0.0022  0.0537  0.0088
  248MOL0     C34148   5.227   5.846   2.218  0.7318 -0.7257  0.5789
  248MOL0     C34149   5.112   5.944   2.256 -0.5888  0.9831 -0.4136
  248MOL0     C34150   5.110   6.067   2.175  0.6289 -0.4399  0.5079
  248MOL0     C34151   5.086   6.165   2.107 -0.8964  0.8758 -0.4055
  248MOL0     C34152   5.753   6.138   2.342 -0.4707 -0.5037 -0.3063
  248MOL0     C34153   5.815   6.217   2.443  1.2091 -0.7577  0.7511
  248MOL0     C34154   5.959   6.193   2.450 -0.8768  0.3443 -0.9812
  248MOL0     H34155   5.612   6.499   2.926  2.1293 -2.5227 -2.6828
  248MOL0     H34156   5.662   6.687   3.094 -0.6908 -0.4619 -0.4595
  248MOL0     H34157   5.719   6.859   3.213  2.3039 -2.4250 -1.1633
  248MOL0     H34158   5.649   6.962   3.078  2.5082  2.6661 -2.3674
  248MOL0     H34159   5.863   7.103   3.101  1.2425  0.3410  0.3902
  248MOL0     H34160   5.736   7.107   3.226 -2.3678 -3.4130  1.4299
  248MOL0     H34161   5.865   6.936   3.359 -1.6774  1.4217 -1.2365
  248MOL0     H34162   5.986   6.934   3.230  0.2629  0.5967  0.4552
  248MOL0     H34163   6.077   7.090   3.412 -0.3312 -1.3344  0.1154
  248MOL0     H34164   6.054   7.172   3.261  2.1929 -1.8793  0.9920
  248MOL0     H34165   5.812   7.239   3.370 -1.0246  1.3064  0.1971
  248MOL0     H34166   5.961   7.313   3.414  0.1013  0.1644 -2.3274
  248MOL0     H34167   5.845   7.063   3.558 -0.6515  0.3123  1.1713
  248MOL0     H34168   5.987   7.159   3.601  0.0906 -2.9665 -0.4493
  248MOL0     H34169   5.838   7.356   3.653  1.6044 -0.9670  2.4761
  248MOL0     H34170   5.823   7.213   3.745  2.4034  0.8799 -0.2251
  248MOL0     H34171   5.631   7.317   3.527 -1.3169 -3.1026 -1.5172
  248MOL0     H34172   5.614   7.163   3.587  1.4283 -0.2290  0.1381
  248MOL0     H34173   5.538   7.537   3.667 -2.5154  1.5826  1.5134
  248MOL0     H34174   5.232   7.515   3.727 -4.3639  2.2742  1.4484
  248MOL0     H34175   5.335   7.621   3.820 -3.9474  0.7612  0.3589
  248MOL0     H34176   5.176   7.386   3.925 -1.4043  0.0257  0.9012
  248MOL0     H34177   5.266   7.506   4.030  2.5509 -0.6399 -0.0015
  248MOL0     H34178   5.138   7.697   3.952 -2.9370  1.9274  1.2177
  248MOL0     H34179   5.063   7.587   3.833  1.9049  0.1381  0.0133
  248MOL0     H34180   5.018   7.582   4.136  1.8757  0.4760 -0.6570
  248MOL0     H34181   4.892   7.635   4.019  0.3074  2.2878  1.0856
  248MOL0     H34182   4.891   7.194   4.056  0.8571  1.6195  0.1708
  248MOL0     H34183   4.704   6.981   4.159  1.4512 -0.3675 -0.7459
  248MOL0     H34184   4.722   6.988   4.339  1.5885 -1.4661 -0.4049
  248MOL0     H34185   4.857   7.004   4.228  0.4293  0.4953 -0.8043
  248MOL0     H34186   4.193   7.263   4.447 -0.0970 -1.5202 -0.9494
  248MOL0     H34187   4.059   7.121   4.596  0.7367 -1.6101  1.4193
  248MOL0     H34188   4.238   6.951   4.950  0.0262  0.4365 -1.7829
  248MOL0     H34189   4.171   7.097   5.014  1.9089 -0.1415 -1.0167
  248MOL0     H34190   3.942   6.921   4.988  1.8767  3.1611 -1.1883
  248MOL0     H34191   4.069   6.802   5.014  4.2920  1.2366 -0.4629
  248MOL0     H34192   4.020   7.041   5.197  0.8706 -0.5855 -1.9358
  248MOL0     H34193   4.120   6.892   5.232  1.7064  0.1746 -1.6696
  248MOL0     H34194   3.928   6.748   5.200 -0.5254 -0.1951 -2.4225
  248MOL0     H34195   3.828   6.885   5.169  0.3270 -1.4355 -0.8940
  248MOL0     H34196   3.950   6.919   5.441 -1.2030  0.1867  1.3185
  248MOL0     H34197   3.804   6.958   5.361  2.6612  1.4269 -4.6272
  248MOL0     H34198   3.728   6.729   5.360 -1.1993  3.4055 -1.3055
  248MOL0     H34199   3.748   6.783   5.518 -0.0950  0.3029 -0.3947
  248MOL0     H34200   3.947   6.585   5.387  2.6634 -1.1892  2.1063
  248MOL0     H34201   3.822   6.561   5.517 -0.3728 -0.7248 -1.4102
  248MOL0     H34202   3.969   6.743   5.643  2.5783  1.1227 -0.6133
  248MOL0     H34203   4.102   6.688   5.537  1.7180 -2.0834  0.9354
  248MOL0     H34204   4.380   7.058   4.861 -1.5026 -0.8924  0.6149
  248MOL0     H34205   4.529   7.194   4.717  0.1100  1.1686  0.9627
  248MOL0     H34206   4.567   7.459   4.330  0.6651  2.2295 -0.4345
  248MOL0     H34207   4.755   7.558   4.185 -0.4699  0.4662  3.9144
  248MOL0     H34208   5.980   6.815   2.827 -2.1770  2.2461 -1.9911
  248MOL0     H34209   5.932   6.639   2.688  0.9594 -0.3512  0.9646
  248MOL0     H34210   5.537   6.382   2.546  0.4280 -1.6928  0.1878
  248MOL0     H34211   5.428   6.237   2.399 -0.8573 -0.6110  3.4675
  248MOL0     H34212   5.403   5.978   2.360  2.6113  0.3206  0.6297
  248MOL0     H34213   5.354   6.107   2.239 -2.8742 -2.6848  0.1350
  248MOL0     H34214   5.427   5.837   2.133  0.0512  1.3888 -5.3907
  248MOL0     H34215   5.340   5.957   2.057 -2.3177 -1.3952 -0.2978
  248MOL0     H34216   5.190   5.781   2.138  5.2002 -3.0523  0.0926
  248MOL0     H34217   5.245   5.777   2.300  0.9529 -2.2146 -0.6834
  248MOL0     H34218   5.119   5.968   2.363 -2.0983 -1.4387  0.3232
  248MOL0     H34219   5.016   5.893   2.241 -0.2743  0.5872 -1.1014
  248MOL0     H34220   5.062   6.258   2.058 -0.5708 -0.2958 -2.9264
  248MOL0     H34221   5.821   6.085   2.276  0.5241  0.3199  0.0369
  248MOL0     H34222   5.984   6.167   2.554  0.7037 -2.7452 -1.9843
  248MOL0     H34223   5.990   6.104   2.394 -3.0462 -1.0402 -0.1197
  248MOL0     H34224   6.021   6.281   2.431 -1.6228  1.5927  1.8315
  249MOL0     O34225  11.123   1.826   5.991  0.1746  0.1577  0.0484
  249MOL0     C34226  11.063   1.725   6.018 -0.7981  0.3897  0.1242
  249MOL0     O34227  11.081   1.654   6.124 -0.1953  0.0730  0.0848
  249MOL0     C34228  11.140   1.715   6.229 -0.9099 -0.2048 -0.2523
  249MOL0     C34229  11.280   1.734   6.239  0.3783  0.5940  0.4038
  249MOL0     C34230  11.335   1.806   6.352  0.6725 -0.2170 -0.5659
  249MOL0     C34231  11.248   1.869   6.444 -0.4004  0.4314  0.0326
  249MOL0     O34232  11.293   1.943   6.547 -0.2203  0.3390 -0.4478
  249MOL0     C34233  11.424   1.914   6.596 -0.5270  0.3634 -1.2638
  249MOL0     C34234  11.433   2.008   6.724  0.6096  0.0011 -0.4044
  249MOL0     C34235  11.572   1.999   6.801 -0.0328 -0.5611 -1.1861
  249MOL0     C34236  11.570   2.084   6.929 -0.5982  0.4879 -0.2272
  249MOL0     C34237  11.702   2.057   7.011  0.2853  0.4036 -0.8692
  249MOL0     C34238  11.678   1.942   7.115  0.3734 -1.1599 -0.2373
  249MOL0     C34239  11.774   1.956   7.244 -0.3601  0.5266  0.7658
  249MOL0     C34240  11.913   1.891   7.227 -0.2181  0.0237  0.2924
  249MOL0     N34241  11.999   1.947   7.334 -0.2090  0.9769  0.9861
  249MOL0     C34242  11.982   1.926   7.470  0.4821  0.8898  0.2044
  249MOL0     C34243  12.054   2.021   7.529 -0.1165  0.5812 -0.0563
  249MOL0     C34244  12.037   2.056   7.679  0.5703 -0.2477 -0.0645
  249MOL0     C34245  12.163   2.123   7.738 -1.3660 -0.1351 -0.2854
  249MOL0     C34246  12.151   2.186   7.870 -0.3165 -0.5092  0.0128
  249MOL0     C34247  12.277   2.241   7.941 -0.0554  0.8131 -0.2485
  249MOL0     O34248  12.243   2.305   8.067  0.4615  0.2741 -0.1045
  249MOL0     C34249  12.342   2.305   8.166 -0.0561 -0.1165  0.3922
  249MOL0     C34250  12.316   2.330   8.299 -0.2509 -0.4615 -0.3606
  249MOL0     C34251  12.415   2.314   8.393  0.4082  0.2142 -0.3434
  249MOL0     C34252  12.357   2.320   8.534 -0.1832  0.6933 -0.4642
  249MOL0     C34253  12.554   2.321   8.362 -0.6661 -0.6787  0.0586
  249MOL0     C34254  12.664   2.339   8.461  0.6572 -0.0202  0.4484
  249MOL0     O34255  12.768   2.422   8.426 -0.2139  0.5203  0.1560
  249MOL0     C34256  12.879   2.448   8.504  0.0208 -0.5440 -0.0720
  249MOL0     C34257  12.954   2.563   8.464 -0.9032  0.2037 -0.0225
  249MOL0     C34258  13.058   2.610   8.538  0.2928 -0.8096 -0.5150
  249MOL0     C34259  13.094   2.543   8.659  0.1867 -0.3458  0.1972
  249MOL0     O34260  13.196   2.600   8.722 -0.6074  0.0822 -0.1645
  249MOL0     C34261  13.268   2.531   8.826 -0.1422  0.5398  0.1261
  249MOL0     C34262  13.408   2.591   8.832  0.6627 -0.4303 -0.5977
  249MOL0     C34263  13.472   2.535   8.962 -0.6798 -0.3639  1.0768
  249MOL0     C34264  13.557   2.637   9.032  0.4729  0.2659  0.2479
  249MOL0     C34265  13.674   2.695   8.937 -0.4833  0.1998 -0.5299
  249MOL0     C34266  13.760   2.793   9.026  0.0245  0.1665  0.0740
  249MOL0     C34267  13.872   2.861   8.953 -0.6007  0.7317  0.6767
  249MOL0     C34268  13.849   3.009   8.919 -0.8834  0.4612 -0.2528
  249MOL0    Cl34269  13.712   3.016   8.809  0.1588  0.4781  0.3293
  249MOL0     C34270  13.019   2.435   8.702 -0.0168  0.1187  0.1401
  249MOL0     C34271  12.911   2.388   8.627 -1.2057 -0.5213  0.4932
  249MOL0     O34272  12.662   2.248   8.540  0.7100 -0.0070  0.1280
  249MOL0     C34273  12.582   2.323   8.227  0.3529  0.2750  0.1502
  249MOL0     C34274  12.485   2.305   8.131  0.6179  0.2984 -0.6016
  249MOL0     N34275  12.126   2.089   7.434 -0.5286  0.1037  0.4380
  249MOL0     N34276  12.101   2.036   7.316  0.4392 -0.6462  0.8894
  249MOL0     C34277  11.115   1.872   6.418  1.0081 -0.7327  0.2001
  249MOL0     C34278  11.060   1.792   6.319  0.9821  0.8337 -0.6828
  249MOL0     C34279  10.962   1.665   5.917 -0.6292  0.1201  0.5512
  249MOL0     C34280  10.910   1.539   5.944  0.5203  0.0798  0.4870
  249MOL0     C34281  10.806   1.483   5.863  0.5740 -0.6357 -0.2937
  249MOL0     C34282  10.760   1.552   5.747  0.5130  0.5857 -0.2222
  249MOL0     O34283  10.668   1.499   5.660 -0.5691  0.1558 -0.3175
  249MOL0     C34284  10.545   1.465   5.720 -0.3418 -0.6677 -0.1210
  249MOL0     C34285  10.481   1.362   5.640  0.2637 -0.0377 -0.0641
  249MOL0     C34286  10.444   1.229   5.714 -0.3706 -0.5626  0.3328
  249MOL0     C34287  10.433   1.100   5.620 -0.2729 -0.8989 -1.0445
  249MOL0     C34288  10.329   1.123   5.522 -0.2953 -0.1068  0.2560
  249MOL0     C34289  10.248   1.150   5.437 -0.2326 -0.5465 -0.0015
  249MOL0     C34290  10.833   1.669   5.710  0.0530  0.2804 -0.1179
  249MOL0     C34291  10.928   1.729   5.797  0.2045 -0.4325  0.4922
  249MOL0     C34292  10.987   1.861   5.749 -0.1048  0.4254 -0.6975
  249MOL0     H34293  11.345   1.691   6.165 -0.8330 -1.9568  0.7077
  249MOL0     H34294  11.443   1.816   6.359  1.0316 -2.7811 -1.3049
  249MOL0     H34295  11.511   1.952   6.542  0.9839  1.5800  1.7917
  249MOL0     H34296  11.434   1.809   6.627  1.3903 -0.1218 -3.2701
  249MOL0     H34297  11.412   2.108   6.686 -0.5997 -1.6311 -4.4802
  249MOL0     H34298  11.348   1.980   6.788  2.2886  1.4682  2.7022
  249MOL0     H34299  11.581   1.897   6.838 -0.6461 -0.3807 -0.5250
  249MOL0     H34300  11.649   2.031   6.730 -0.2705  2.8049 -0.0839
  249MOL0     H34301  11.572   2.187   6.893  0.7263 -0.0010 -1.6776
  249MOL0     H34302  11.480   2.060   6.985  1.4047 -1.9662  2.2820
  249MOL0     H34303  11.718   2.151   7.064  1.3554  0.7234 -1.7312
  249MOL0     H34304  11.783   2.039   6.939 -1.2746 -1.6658 -2.2431
  249MOL0     H34305  11.579   1.964   7.155 -0.4088  1.2264 -3.0479
  249MOL0     H34306  11.688   1.842   7.072 -0.9105 -1.3615 -0.0877
  249MOL0     H34307  11.726   1.906   7.329 -1.2908  0.7368  0.3736
  249MOL0     H34308  11.780   2.060   7.275 -1.0835 -0.0140  2.8774
  249MOL0     H34309  11.915   1.782   7.228  1.4850  0.0231  1.3984
  249MOL0     H34310  11.960   1.925   7.134  0.0397 -1.6044 -0.2027
  249MOL0     H34311  11.919   1.850   7.515  1.2059 -0.0476 -0.3264
  249MOL0     H34312  12.012   1.957   7.718 -2.2912 -0.9536 -3.1720
  249MOL0     H34313  11.955   2.127   7.694  0.9569 -0.3273  3.3107
  249MOL0     H34314  12.238   2.047   7.759  0.8726  2.6116  2.6996
  249MOL0     H34315  12.195   2.194   7.661 -0.8543  0.0886  0.1236
  249MOL0     H34316  12.079   2.268   7.872 -0.2227 -0.4359  1.0698
  249MOL0     H34317  12.112   2.112   7.940  0.4520 -0.9016  0.0432
  249MOL0     H34318  12.339   2.153   7.962 -2.3556 -0.6298  0.9648
  249MOL0     H34319  12.326   2.312   7.874  2.0960 -0.4445 -0.1199
  249MOL0     H34320  12.215   2.354   8.330 -0.4235 -2.5104  0.8553
  249MOL0     H34321  12.270   2.254   8.528  0.5177 -0.1842 -1.3202
  249MOL0     H34322  12.321   2.418   8.568 -2.2113 -0.0828 -0.1923
  249MOL0     H34323  12.427   2.283   8.609 -1.4040  0.2855  0.5044
  249MOL0     H34324  12.921   2.616   8.376 -3.5919 -0.5466  0.4548
  249MOL0     H34325  13.115   2.694   8.499 -1.1165 -0.6965 -2.4741
  249MOL0     H34326  13.216   2.525   8.922 -0.3724 -3.0766 -0.0877
  249MOL0     H34327  13.277   2.425   8.800 -0.1757  0.5897 -0.0880
  249MOL0     H34328  13.456   2.574   8.735 -1.9947 -0.5221 -1.9851
  249MOL0     H34329  13.398   2.699   8.845 -1.1773 -0.8954  2.7688
  249MOL0     H34330  13.540   2.457   8.927  0.4123  2.4769 -4.1626
  249MOL0     H34331  13.402   2.485   9.030 -2.2364 -0.1770 -0.3414
  249MOL0     H34332  13.603   2.602   9.124 -1.2671 -1.8614  0.3691
  249MOL0     H34333  13.499   2.726   9.060 -0.1831  0.1977 -0.8035
  249MOL0     H34334  13.749   2.625   8.900  2.4056  2.9491 -0.3177
  249MOL0     H34335  13.622   2.744   8.854 -4.1901 -1.2218  0.7288
  249MOL0     H34336  13.801   2.730   9.106 -1.8386  1.6121  2.3250
  249MOL0     H34337  13.694   2.872   9.063  1.3508  1.7862 -0.9025
  249MOL0     H34338  13.913   2.819   8.861  0.4667  4.9673 -1.0154
  249MOL0     H34339  13.953   2.853   9.025  0.8335 -2.9659 -1.1025
  249MOL0     H34340  13.937   3.050   8.870  1.9152 -4.1062  0.4403
  249MOL0     H34341  13.839   3.063   9.014  1.9096  1.0018 -0.1902
  249MOL0     H34342  13.049   2.396   8.799 -1.4229  1.2496  1.0698
  249MOL0     H34343  12.842   2.318   8.675 -4.5741  3.0132  1.3110
  249MOL0     H34344  12.681   2.342   8.186 -0.9771 -0.0825 -3.6096
  249MOL0     H34345  12.512   2.327   8.028 -0.3416  0.6204 -0.7990
  249MOL0     H34346  11.046   1.925   6.483 -0.9189 -1.9348 -0.7874
  249MOL0     H34347  10.954   1.792   6.298  0.9267 -1.2520 -0.5575
  249MOL0     H34348  10.933   1.487   6.036 -0.4559 -0.4305  0.4596
  249MOL0     H34349  10.749   1.392   5.877 -1.5514  0.7801  0.8626
  249MOL0     H34350  10.548   1.436   5.826 -0.6826 -1.3291 -0.2839
  249MOL0     H34351  10.487   1.557   5.715 -0.6072 -0.8533 -0.4207
  249MOL0     H34352  10.554   1.337   5.562  2.4410  4.2913  0.2754
  249MOL0     H34353  10.390   1.405   5.597  0.0515 -2.4998 -2.3820
  249MOL0     H34354  10.519   1.208   5.791  0.6744  2.0935  0.1435
  249MOL0     H34355  10.360   1.244   5.783  0.0299 -0.7588  0.8750
  249MOL0     H34356  10.390   1.020   5.681 -1.9233  0.9524  0.3586
  249MOL0     H34357  10.531   1.078   5.576  1.3818  1.0594  1.3605
  249MOL0     H34358  10.173   1.160   5.362  0.4044 -0.3580 -0.6240
  249MOL0     H34359  10.816   1.721   5.616  0.6467  1.7270  0.5419
  249MOL0     H34360  10.952   1.894   5.650 -1.5202  0.0913 -0.3287
  249MOL0     H34361  10.951   1.947   5.805 -0.5986 -0.8559  1.0484
  249MOL0     H34362  11.096   1.858   5.755 -0.2128 -0.9323  2.8006
  250MOL0     O34363   0.567   4.734   4.618  0.1751  0.2126  0.1062
  250MOL0     C34364   0.597   4.704   4.728 -0.7467 -0.3788 -1.0410
  250MOL0     O34365   0.665   4.790   4.816 -0.6815 -0.0313  0.7204
  250MOL0     C34366   0.772   4.860   4.756  0.6083  0.8134  0.4085
  250MOL0     C34367   0.869   4.780   4.683  0.6068 -0.6809  0.1831
  250MOL0     C34368   0.980   4.843   4.619  0.6423 -0.3982 -0.3261
  250MOL0     C34369   0.991   4.983   4.626  0.3360 -0.4552 -1.4338
  250MOL0     O34370   1.086   5.068   4.567 -0.5878 -1.1459 -0.3430
  250MOL0     C34371   1.206   5.014   4.516 -0.5665 -0.2025  0.4869
  250MOL0     C34372   1.310   5.133   4.524  0.0967 -0.9177  0.2041
  250MOL0     C34373   1.258   5.267   4.459  1.1756  0.0630  0.9439
  250MOL0     C34374   1.357   5.317   4.356  0.8084  0.1190  0.2914
  250MOL0     C34375   1.479   5.381   4.422 -0.6315  0.4997 -0.3310
  250MOL0     C34376   1.463   5.470   4.547  0.0405 -0.3366  0.5973
  250MOL0     C34377   1.588   5.536   4.607  0.3751  0.3468  0.0376
  250MOL0     C34378   1.653   5.633   4.511  0.8570 -0.3563  0.0028
  250MOL0     N34379   1.763   5.582   4.443 -0.6130 -0.0569  0.1120
  250MOL0     C34380   1.850   5.659   4.377 -0.0106  0.1745  0.9171
  250MOL0     C34381   1.951   5.584   4.334 -0.1313  0.7328 -0.8945
  250MOL0     C34382   2.079   5.635   4.284 -0.1302 -0.9918 -0.5986
  250MOL0     C34383   2.195   5.654   4.392 -0.2583  0.8967 -0.6157
  250MOL0     C34384   2.307   5.746   4.346  0.9699  0.2053 -0.8135
  250MOL0     C34385   2.392   5.779   4.467 -0.6526 -0.0391 -0.3175
  250MOL0     O34386   2.487   5.892   4.449 -0.4301  0.8509 -0.4135
  250MOL0     C34387   2.597   5.877   4.371  0.2049 -1.1845 -0.3039
  250MOL0     C34388   2.664   5.757   4.343 -0.2051  0.5828  0.3746
  250MOL0     C34389   2.784   5.748   4.272 -0.9430 -0.5272 -0.5264
  250MOL0     C34390   2.869   5.615   4.273 -0.7636  0.6082  0.6905
  250MOL0     C34391   2.831   5.865   4.201 -0.2631  0.4126 -0.7320
  250MOL0     C34392   2.957   5.879   4.133  1.0495  0.4865  0.0033
  250MOL0     O34393   3.022   5.996   4.136 -0.2319 -0.0191 -0.6272
  250MOL0     C34394   3.158   5.971   4.158 -1.3943  0.4402  0.3054
  250MOL0     C34395   3.246   6.079   4.127 -0.5920 -0.5690  0.5160
  250MOL0     C34396   3.386   6.080   4.161 -0.0331  0.7955  0.7950
  250MOL0     C34397   3.437   5.974   4.235  0.6114  0.0564 -0.7916
  250MOL0     O34398   3.563   5.988   4.289  0.0502 -0.0849 -0.4392
  250MOL0     C34399   3.567   5.955   4.429  0.7178 -0.2713  0.6224
  250MOL0     C34400   3.525   6.070   4.525 -0.6041 -0.9837 -0.2706
  250MOL0     C34401   3.641   6.177   4.535 -0.1540 -0.1452  0.6366
  250MOL0     C34402   3.716   6.130   4.656  0.9162 -0.6886 -0.4783
  250MOL0     C34403   3.848   6.210   4.662 -0.2318 -0.3791 -0.7791
  250MOL0     C34404   3.910   6.190   4.804 -1.6469  0.2840  0.8400
  250MOL0     C34405   4.051   6.256   4.802 -0.0434  0.2440 -0.1363
  250MOL0     C34406   4.103   6.272   4.950  0.0088 -0.3672  0.0015
  250MOL0    Cl34407   4.093   6.110   5.019  0.1468  0.3650 -0.2430
  250MOL0     C34408   3.350   5.863   4.255 -0.3501  0.0875 -0.6250
  250MOL0     C34409   3.215   5.867   4.232  0.4946  0.4014 -0.6888
  250MOL0     O34410   2.993   5.785   4.054 -0.5426  0.3538  0.4412
  250MOL0     C34411   2.759   5.983   4.230  0.5891  0.1086  0.0183
  250MOL0     C34412   2.651   5.992   4.318 -0.5296  0.0085 -0.3145
  250MOL0     N34413   1.921   5.456   4.377  0.9583  0.8145  0.0445
  250MOL0     N34414   1.802   5.453   4.428 -1.0867  0.3658 -0.2762
  250MOL0     C34415   0.884   5.056   4.682  0.1741  0.0026 -1.0824
  250MOL0     C34416   0.775   4.999   4.744  0.2555 -0.7255  0.1253
  250MOL0     C34417   0.534   4.579   4.781  0.4575  0.0986 -0.2392
  250MOL0     C34418   0.505   4.473   4.684  0.5304  0.4480  0.2753
  250MOL0     C34419   0.438   4.357   4.716 -0.2930  0.1629 -0.3738
  250MOL0     C34420   0.409   4.334   4.851  0.9693  0.4728 -1.0377
  250MOL0     O34421   0.357   4.211   4.886 -0.3619  0.6746  0.2891
  250MOL0     C34422   0.216   4.186   4.855  0.4462 -0.1347 -0.1282
  250MOL0     C34423   0.114   4.159   4.961 -0.1468 -0.8668 -0.6870
  250MOL0     C34424  -0.024   4.139   4.892 -0.2400  1.1640 -0.4533
  250MOL0     C34425  -0.128   4.136   5.016 -0.1695  0.3917  0.0227
  250MOL0     C34426  -0.263   4.153   4.954 -0.4309 -0.5900 -0.9811
  250MOL0     C34427  -0.372   4.172   4.921  0.2779 -0.7359 -0.8258
  250MOL0     C34428   0.423   4.432   4.946 -0.0386 -0.3378  0.2812
  250MOL0     C34429   0.482   4.556   4.911 -0.4421 -0.2592  0.3829
  250MOL0     C34430   0.473   4.667   5.013 -0.5752 -0.6491  0.6479
  250MOL0     H34431   0.855   4.673   4.666 -2.0659 -0.4619  0.5366
  250MOL0     H34432   1.063   4.787   4.579  0.6024 -1.8438  1.4885
  250MOL0     H34433   1.198   4.973   4.415 -1.7384 -0.7966  0.8126
  250MOL0     H34434   1.240   4.939   4.588 -1.1409 -0.3916  0.5599
  250MOL0     H34435   1.319   5.160   4.629 -2.7964 -0.3149  0.3706
  250MOL0     H34436   1.402   5.105   4.472 -0.6216 -0.9355 -1.1021
  250MOL0     H34437   1.170   5.252   4.396  1.3152  1.9575  0.2439
  250MOL0     H34438   1.232   5.341   4.535  3.1145  2.5567 -0.6567
  250MOL0     H34439   1.376   5.236   4.284 -0.1548  0.6074 -0.5459
  250MOL0     H34440   1.311   5.401   4.303  3.2596  2.0238  0.9689
  250MOL0     H34441   1.542   5.434   4.351  1.9407 -1.7368  0.1304
  250MOL0     H34442   1.543   5.298   4.453  1.4196  2.3621  0.6946
  250MOL0     H34443   1.384   5.543   4.524  0.2627  0.9487  3.4468
  250MOL0     H34444   1.427   5.402   4.624  0.8580 -1.4633  0.0184
  250MOL0     H34445   1.649   5.457   4.653  0.6839  1.6296  1.9567
  250MOL0     H34446   1.551   5.590   4.695  1.4809  4.6837 -1.9064
  250MOL0     H34447   1.575   5.680   4.451 -0.2953  0.8248  2.2763
  250MOL0     H34448   1.687   5.710   4.581 -4.8195  0.1325  2.8203
  250MOL0     H34449   1.852   5.767   4.371 -0.0980  0.3075  2.9125
  250MOL0     H34450   2.061   5.736   4.244 -0.6600 -0.9715 -0.3236
  250MOL0     H34451   2.113   5.568   4.205 -1.9117 -2.4899 -0.1652
  250MOL0     H34452   2.145   5.695   4.481 -2.1907  1.1627 -1.7760
  250MOL0     H34453   2.232   5.555   4.422 -0.8860 -0.0457 -2.7464
  250MOL0     H34454   2.359   5.706   4.258  0.3823 -0.4199 -0.8929
  250MOL0     H34455   2.256   5.831   4.299 -0.0325 -0.6330 -1.2949
  250MOL0     H34456   2.323   5.821   4.541 -0.9160  1.7554 -1.5220
  250MOL0     H34457   2.433   5.687   4.510 -3.5185 -1.1894  0.1788
  250MOL0     H34458   2.636   5.662   4.387  0.8291  0.4344  0.7390
  250MOL0     H34459   2.836   5.550   4.354  0.8844 -0.1798  0.7645
  250MOL0     H34460   2.975   5.629   4.297 -0.4189  0.0043 -0.4300
  250MOL0     H34461   2.854   5.575   4.172  0.8020  1.9776 -0.1291
  250MOL0     H34462   3.206   6.151   4.057  2.0313  0.3316 -0.1707
  250MOL0     H34463   3.438   6.173   4.142  0.6083  0.9442  3.0305
  250MOL0     H34464   3.520   5.860   4.452  3.0245 -1.5007  0.5684
  250MOL0     H34465   3.671   5.927   4.450  0.7573 -0.8045 -0.2497
  250MOL0     H34466   3.438   6.116   4.477 -1.5396 -1.6202  0.7753
  250MOL0     H34467   3.497   6.024   4.620 -0.5084 -2.6529 -1.0159
  250MOL0     H34468   3.592   6.274   4.549 -0.6550 -0.1399 -0.9585
  250MOL0     H34469   3.698   6.184   4.441 -1.8292  0.2971 -0.3903
  250MOL0     H34470   3.743   6.024   4.650 -0.1765 -1.0769  1.0752
  250MOL0     H34471   3.662   6.149   4.749  2.7368 -0.2751  0.5583
  250MOL0     H34472   3.907   6.170   4.579  1.7244  0.4881  0.1322
  250MOL0     H34473   3.827   6.317   4.653  1.2669 -0.1195 -1.4578
  250MOL0     H34474   3.913   6.081   4.797 -1.4251  0.4006 -2.9624
  250MOL0     H34475   3.853   6.224   4.892 -0.8451  2.0260  0.7246
  250MOL0     H34476   4.043   6.356   4.757 -0.8380  0.1207 -0.2738
  250MOL0     H34477   4.118   6.196   4.740 -2.3389  0.1371 -2.6461
  250MOL0     H34478   4.043   6.345   5.006  0.8810 -0.8772  1.6745
  250MOL0     H34479   4.209   6.297   4.957 -0.4047  1.2791  1.3337
  250MOL0     H34480   3.383   5.780   4.317 -3.5584 -0.4846  0.5256
  250MOL0     H34481   3.150   5.786   4.261 -0.8010  1.4133 -0.6709
  250MOL0     H34482   2.797   6.074   4.183 -1.6965  0.9839 -0.2657
  250MOL0     H34483   2.613   6.093   4.328  1.0968  0.7364 -1.0592
  250MOL0     H34484   0.898   5.163   4.669  2.7099 -0.1598 -0.1282
  250MOL0     H34485   0.697   5.067   4.781 -1.2861 -2.1452 -0.3985
  250MOL0     H34486   0.544   4.484   4.584 -0.2086  0.6290  0.0002
  250MOL0     H34487   0.419   4.278   4.643 -0.4819  0.8924 -1.1266
  250MOL0     H34488   0.186   4.262   4.781  1.3848  2.3713  1.9176
  250MOL0     H34489   0.222   4.087   4.808 -0.0072 -1.5017  2.5443
  250MOL0     H34490   0.107   4.248   5.024  2.1138 -0.9920 -0.1970
  250MOL0     H34491   0.145   4.080   5.030  3.3481  0.2629 -0.7523
  250MOL0     H34492  -0.045   4.219   4.820  1.7399  2.0891 -0.0507
  250MOL0     H34493  -0.025   4.038   4.848 -0.4727  1.5708 -1.4015
  250MOL0     H34494  -0.098   4.217   5.084  3.8046 -1.2269  0.5038
  250MOL0     H34495  -0.122   4.041   5.070  3.7832 -1.3621 -2.9907
  250MOL0     H34496  -0.474   4.194   4.895  0.4961  3.0702  0.8214
  250MOL0     H34497   0.382   4.405   5.043 -0.5820 -1.6889 -0.2903
  250MOL0     H34498   0.568   4.670   5.067 -1.6629  0.5766  2.6064
  250MOL0     H34499   0.449   4.762   4.964  0.7389 -0.2415  0.7573
  250MOL0     H34500   0.400   4.657   5.093 -0.6869  1.1287  0.8054
  251MOL0     O34501   3.120   7.686   0.721  0.3589 -0.5766 -0.3522
  251MOL0     C34502   3.087   7.737   0.616 -1.1531 -0.0337  0.0823
  251MOL0     O34503   3.175   7.759   0.510 -0.0247 -0.2417  0.0347
  251MOL0     C34504   3.315   7.737   0.528 -0.6036 -0.5888 -0.0097
  251MOL0     C34505   3.391   7.826   0.595  0.0886  0.1109  0.0442
  251MOL0     C34506   3.522   7.797   0.643  0.3261  0.3879  0.4603
  251MOL0     C34507   3.583   7.672   0.612 -0.1168  0.6362  0.1253
  251MOL0     O34508   3.710   7.643   0.658 -0.1252 -0.0761 -0.9925
  251MOL0     C34509   3.804   7.569   0.578  0.3955  0.3802 -0.4904
  251MOL0     C34510   3.866   7.632   0.455  0.3203 -0.2092 -0.5061
  251MOL0     C34511   3.989   7.694   0.518 -0.2394 -0.5246 -0.3724
  251MOL0     C34512   4.074   7.774   0.410  0.3033 -0.3746  0.3394
  251MOL0     C34513   4.210   7.840   0.449 -0.6480  0.0500 -0.3513
  251MOL0     C34514   4.333   7.754   0.491  0.2505 -0.7122 -0.1017
  251MOL0     C34515   4.370   7.642   0.392 -0.4900  0.0192  0.0539
  251MOL0     C34516   4.433   7.696   0.262 -0.4037 -0.0780 -0.3084
  251MOL0     N34517   4.580   7.696   0.278  0.3259  0.1358  0.0300
  251MOL0     C34518   4.661   7.589   0.296 -0.0590 -0.5190  0.2706
  251MOL0     C34519   4.779   7.642   0.318  0.2903  0.2597 -0.3372
  251MOL0     C34520   4.905   7.562   0.340 -0.2523  0.1050  0.3506
  251MOL0     C34521   5.037   7.631   0.304 -0.5266 -0.0184  0.0939
  251MOL0     C34522   5.168   7.569   0.369  0.6495 -0.1535  0.7552
  251MOL0     C34523   5.209   7.443   0.282 -0.3791 -0.5558 -0.1939
  251MOL0     O34524   5.261   7.477   0.147  0.7776  0.1506 -0.0072
  251MOL0     C34525   5.384   7.523   0.131  0.3724 -0.6011  0.2668
  251MOL0     C34526   5.431   7.526  -0.002  0.1752  0.4049 -0.0644
  251MOL0     C34527   5.566   7.535  -0.039 -0.4579 -0.0136 -0.4305
  251MOL0     C34528   5.595   7.511  -0.191  0.2927 -0.1499  0.0137
  251MOL0     C34529   5.659   7.544   0.064 -0.1467  0.2105  0.2114
  251MOL0     C34530   5.811   7.547   0.045 -0.3020 -0.7558  0.3469
  251MOL0     O34531   5.882   7.623   0.127  0.1668 -0.9412  0.6117
  251MOL0     C34532   6.023   7.646   0.120  0.1302 -0.0475  1.2433
  251MOL0     C34533   6.069   7.709   0.230 -0.5136 -0.3332 -0.5010
  251MOL0     C34534   6.204   7.748   0.245 -0.3031  0.4157  0.9278
  251MOL0     C34535   6.297   7.706   0.147  1.0418 -0.1958  0.3532
  251MOL0     O34536   6.429   7.742   0.153 -0.8118 -0.6443 -0.1308
  251MOL0     C34537   6.517   7.654   0.221 -0.7953 -1.1552 -0.6054
  251MOL0     C34538   6.631   7.743   0.269 -0.5369  0.2166 -0.5318
  251MOL0     C34539   6.742   7.653   0.330  0.6091 -1.3992  0.4000
  251MOL0     C34540   6.844   7.726   0.416  0.2300 -1.3128  0.4721
  251MOL0     C34541   6.938   7.627   0.487 -0.0785  0.0072 -1.2344
  251MOL0     C34542   6.908   7.596   0.631 -1.0144  0.8338  0.1307
  251MOL0     C34543   6.794   7.496   0.639  0.4494  0.0570 -0.0228
  251MOL0     C34544   6.773   7.444   0.782  0.1290 -0.6260 -0.3347
  251MOL0    Cl34545   6.622   7.346   0.797 -0.2140  0.6431 -0.2724
  251MOL0     C34546   6.251   7.642   0.035  0.5591 -0.6911  0.1937
  251MOL0     C34547   6.111   7.617   0.020 -0.2161  0.5275 -0.7876
  251MOL0     O34548   5.862   7.462  -0.023  0.1286  0.3880  0.0700
  251MOL0     C34549   5.608   7.552   0.193  0.3973 -0.1400 -0.4065
  251MOL0     C34550   5.479   7.548   0.226 -0.3861  0.6267  0.2892
  251MOL0     N34551   4.770   7.781   0.329 -0.4134  0.0740  0.0887
  251MOL0     N34552   4.650   7.810   0.305  0.2285 -0.0456  0.5817
  251MOL0     C34553   3.506   7.583   0.530 -0.9767 -1.1719 -0.6162
  251MOL0     C34554   3.380   7.614   0.487  0.0524 -0.8019  0.2026
  251MOL0     C34555   2.956   7.784   0.597 -0.4419  0.1518  0.5369
  251MOL0     C34556   2.895   7.855   0.707 -1.0694 -0.2325 -0.2046
  251MOL0     C34557   2.777   7.924   0.687  0.0705 -0.0373  0.2822
  251MOL0     C34558   2.712   7.907   0.562 -0.1594 -0.0150 -0.3768
  251MOL0     O34559   2.588   7.960   0.529 -0.3545 -0.2976  0.0245
  251MOL0     C34560   2.524   8.051   0.626 -0.9819  0.6256  0.9757
  251MOL0     C34561   2.594   8.182   0.633  0.1024 -0.3623 -0.6920
  251MOL0     C34562   2.555   8.282   0.522 -0.9591  0.2930  0.8404
  251MOL0     C34563   2.583   8.210   0.387  0.5521  0.3710  0.0605
  251MOL0     C34564   2.599   8.304   0.283 -0.1685  0.3296  0.1414
  251MOL0     C34565   2.619   8.401   0.219 -0.1002  0.1675 -0.9102
  251MOL0     C34566   2.763   7.834   0.460  0.3694  0.2500 -0.2384
  251MOL0     C34567   2.881   7.766   0.477 -0.8071  0.5447 -0.5604
  251MOL0     C34568   2.935   7.693   0.353 -0.7590 -0.0984 -0.3990
  251MOL0     H34569   3.352   7.923   0.625  2.3243  0.8643  0.7539
  251MOL0     H34570   3.574   7.866   0.709 -0.5628 -0.5821  2.2706
  251MOL0     H34571   3.758   7.480   0.532  1.5686 -0.9331  0.7763
  251MOL0     H34572   3.871   7.529   0.654 -1.2661 -3.6682 -0.9011
  251MOL0     H34573   3.878   7.554   0.379 -4.0325 -2.4057  0.7355
  251MOL0     H34574   3.793   7.706   0.421 -1.3972 -0.7857  1.7044
  251MOL0     H34575   3.971   7.771   0.594  0.3979  0.7019 -1.4219
  251MOL0     H34576   4.062   7.623   0.556 -0.4487 -0.2047  0.6896
  251MOL0     H34577   4.086   7.725   0.313 -0.8643 -0.5423  0.2624
  251MOL0     H34578   4.005   7.856   0.387  0.5832  0.0035  0.8220
  251MOL0     H34579   4.189   7.906   0.534 -2.9543 -1.8477  0.6852
  251MOL0     H34580   4.249   7.901   0.367 -4.4060  2.6282 -0.4646
  251MOL0     H34581   4.420   7.820   0.495  0.3628 -0.8624 -0.0374
  251MOL0     H34582   4.313   7.713   0.590 -1.7598 -0.1224 -0.2204
  251MOL0     H34583   4.280   7.583   0.373 -0.4179 -0.4409  1.0859
  251MOL0     H34584   4.431   7.567   0.444 -0.7839 -0.2387  0.0327
  251MOL0     H34585   4.408   7.626   0.181  0.1704 -0.2317 -0.3582
  251MOL0     H34586   4.394   7.791   0.225  1.7984  0.5716 -1.1657
  251MOL0     H34587   4.637   7.483   0.288 -3.1790 -0.1445  2.7426
  251MOL0     H34588   4.885   7.471   0.284 -2.1366  0.3312  0.5709
  251MOL0     H34589   4.906   7.540   0.447 -0.0218  1.1529  0.5775
  251MOL0     H34590   5.042   7.645   0.196 -2.6857 -0.0951 -0.0702
  251MOL0     H34591   5.032   7.737   0.331 -1.4217  0.4238 -1.6303
  251MOL0     H34592   5.245   7.646   0.353  0.9462 -0.0107  2.6821
  251MOL0     H34593   5.152   7.550   0.475 -2.9148 -0.7515  0.2276
  251MOL0     H34594   5.289   7.383   0.327 -2.1738 -3.2377 -0.3506
  251MOL0     H34595   5.124   7.377   0.267 -2.5685  2.0401  0.0252
  251MOL0     H34596   5.350   7.516  -0.074  0.8162  2.7335 -1.2147
  251MOL0     H34597   5.595   7.402  -0.202  0.1369 -0.5538  2.9949
  251MOL0     H34598   5.690   7.554  -0.223 -0.8152  1.3121 -1.4594
  251MOL0     H34599   5.518   7.554  -0.255 -0.7306  0.1299  1.3755
  251MOL0     H34600   6.008   7.740   0.313 -1.2180 -0.7735 -0.8402
  251MOL0     H34601   6.250   7.805   0.324  1.2647  2.8824 -1.5754
  251MOL0     H34602   6.480   7.607   0.313  1.9101 -4.3129 -0.9441
  251MOL0     H34603   6.552   7.576   0.153  1.5097  0.3520 -1.2446
  251MOL0     H34604   6.663   7.803   0.184 -0.2829  1.8936  0.7100
  251MOL0     H34605   6.602   7.806   0.353  2.9605  1.4141 -0.0809
  251MOL0     H34606   6.785   7.612   0.238  0.3109  0.5809 -0.6763
  251MOL0     H34607   6.697   7.566   0.379 -2.4942  1.1136  2.4540
  251MOL0     H34608   6.803   7.802   0.483 -1.4824 -1.6723 -0.1268
  251MOL0     H34609   6.903   7.784   0.344  1.7911 -1.2877  1.6942
  251MOL0     H34610   6.933   7.536   0.425 -1.7762  1.0359 -2.7023
  251MOL0     H34611   7.038   7.669   0.495 -0.7598  1.3606  1.0334
  251MOL0     H34612   6.903   7.689   0.688  2.4934  1.2955 -0.0918
  251MOL0     H34613   7.000   7.545   0.662  1.0184  2.8284 -2.1955
  251MOL0     H34614   6.792   7.416   0.565  0.7897 -0.9499  1.0300
  251MOL0     H34615   6.699   7.546   0.616 -1.5949 -3.2952  0.4780
  251MOL0     H34616   6.760   7.526   0.854 -2.3202 -0.9450 -0.3199
  251MOL0     H34617   6.868   7.394   0.800  1.3111  0.9981 -1.7939
  251MOL0     H34618   6.317   7.613  -0.047  0.0825 -0.9795 -0.0914
  251MOL0     H34619   6.072   7.579  -0.074  3.0401 -1.2808 -1.5443
  251MOL0     H34620   5.688   7.567   0.265  1.9963 -2.3660 -1.5983
  251MOL0     H34621   5.437   7.549   0.327 -1.9196 -1.8460 -0.2590
  251MOL0     H34622   3.545   7.485   0.504 -0.5178 -1.4031  0.8317
  251MOL0     H34623   3.321   7.539   0.434 -1.9639  0.4430  0.5706
  251MOL0     H34624   2.959   7.857   0.795  0.8068  2.0044 -1.5005
  251MOL0     H34625   2.730   7.984   0.764 -1.3179  0.6031 -1.0193
  251MOL0     H34626   2.416   8.059   0.605 -0.3767  3.4547 -1.7350
  251MOL0     H34627   2.535   8.004   0.724  1.5950  0.8810  0.8761
  251MOL0     H34628   2.702   8.171   0.645  0.1279  0.0282 -0.5348
  251MOL0     H34629   2.564   8.230   0.727  1.7325  1.0677 -0.8399
  251MOL0     H34630   2.448   8.305   0.517 -1.2793 -1.3634 -1.2704
  251MOL0     H34631   2.600   8.381   0.535 -0.4758  0.2090 -0.1113
  251MOL0     H34632   2.498   8.147   0.358  2.0452 -0.9562 -1.6338
  251MOL0     H34633   2.675   8.151   0.399  0.0813 -0.1357  1.4214
  251MOL0     H34634   2.601   8.497   0.175  0.1779  0.5064 -0.2953
  251MOL0     H34635   2.706   7.829   0.368 -0.5759  4.1559 -0.0183
  251MOL0     H34636   3.043   7.680   0.360 -0.9712 -1.5241  0.8801
  251MOL0     H34637   2.899   7.590   0.361  2.3123 -1.1861  0.8486
  251MOL0     H34638   2.902   7.738   0.259  1.6693 -1.6491 -2.0925
  252MOL0     O34639   6.366   1.809   3.582 -0.3682  0.0102 -0.0007
  252MOL0     C34640   6.446   1.844   3.500 -0.4662  0.1722  0.1738
  252MOL0     O34641   6.570   1.799   3.482  0.7555 -0.6791  0.7054
  252MOL0     C34642   6.607   1.682   3.547 -0.5396 -0.2844  0.7842
  252MOL0     C34643   6.718   1.680   3.627 -0.1819 -0.1725 -0.9271
  252MOL0     C34644   6.759   1.554   3.683 -0.5956 -0.0779 -0.5429
  252MOL0     C34645   6.695   1.431   3.659 -0.5444  0.1128 -0.3984
  252MOL0     O34646   6.718   1.307   3.720 -0.0136  0.6419  0.3312
  252MOL0     C34647   6.680   1.292   3.862 -0.5724  0.6193 -0.0482
  252MOL0     C34648   6.533   1.260   3.875  1.0431 -0.2610  0.2792
  252MOL0     C34649   6.487   1.186   4.000  0.3229  0.2012 -0.5280
  252MOL0     C34650   6.332   1.178   4.018 -1.5314  0.6414 -0.0087
  252MOL0     C34651   6.276   1.128   4.151  0.6554  0.1503 -0.5525
  252MOL0     C34652   6.337   0.987   4.190  0.2883 -0.0336 -0.4672
  252MOL0     C34653   6.297   0.939   4.331  1.5730  0.2198  0.7720
  252MOL0     C34654   6.372   1.023   4.444  1.1540  1.0296  0.3035
  252MOL0     N34655   6.521   1.035   4.429 -0.1534 -0.0475 -0.0602
  252MOL0     C34656   6.606   0.929   4.425  0.5220 -0.4264 -0.3691
  252MOL0     C34657   6.717   0.978   4.381  0.3437 -0.6196  0.2632
  252MOL0     C34658   6.838   0.895   4.330 -0.9098 -0.3331 -0.1634
  252MOL0     C34659   6.846   0.889   4.178  0.2184  0.2649 -0.7458
  252MOL0     C34660   6.846   1.020   4.108 -0.4629  0.2562  0.1127
  252MOL0     C34661   6.973   1.112   4.125 -0.4841  0.1629 -0.8325
  252MOL0     O34662   6.954   1.234   4.055  0.3163  0.9194 -0.1761
  252MOL0     C34663   7.068   1.304   4.018 -0.2487  0.2363  0.0614
  252MOL0     C34664   7.066   1.390   3.909 -0.2056  0.5125 -0.4476
  252MOL0     C34665   7.179   1.462   3.869 -0.2758  0.2528  0.2294
  252MOL0     C34666   7.180   1.505   3.732  0.5272 -0.0765  0.0622
  252MOL0     C34667   7.300   1.453   3.947 -0.1342 -0.3232  0.1864
  252MOL0     C34668   7.431   1.520   3.905  0.2862  0.5227  0.1553
  252MOL0     O34669   7.469   1.485   3.777  0.0245  0.0937 -0.2198
  252MOL0     C34670   7.594   1.515   3.734  0.5106  0.0204  0.4980
  252MOL0     C34671   7.677   1.618   3.781  0.1463  0.3558  0.0805
  252MOL0     C34672   7.809   1.624   3.753  0.5096 -0.3193 -0.9614
  252MOL0     C34673   7.864   1.532   3.660 -0.6410  0.2339  1.1311
  252MOL0     O34674   8.001   1.522   3.639  0.8700 -0.0961 -0.0646
  252MOL0     C34675   8.085   1.632   3.682  1.1626  0.0805  0.1100
  252MOL0     C34676   8.230   1.602   3.662 -0.5827  0.2401  0.1490
  252MOL0     C34677   8.269   1.586   3.509  0.2626 -0.0407  0.1134
  252MOL0     C34678   8.394   1.499   3.503 -0.4161 -0.4330 -0.2632
  252MOL0     C34679   8.438   1.506   3.361  0.3227  0.1663  0.0398
  252MOL0     C34680   8.540   1.393   3.339  0.5086  0.3491  0.1176
  252MOL0     C34681   8.634   1.408   3.216  0.4115 -0.4913  0.9814
  252MOL0     C34682   8.542   1.424   3.078  0.6107 -0.6400 -1.0428
  252MOL0    Cl34683   8.445   1.268   3.045 -0.1542  0.6182  0.2886
  252MOL0     C34684   7.779   1.438   3.601  0.2874 -0.5834  0.0687
  252MOL0     C34685   7.640   1.433   3.639  0.7248  0.3710 -0.2233
  252MOL0     O34686   7.497   1.568   3.992 -0.2196  0.2574  0.1555
  252MOL0     C34687   7.300   1.372   4.058 -0.1045 -0.9649  0.1604
  252MOL0     C34688   7.185   1.298   4.094 -0.0908  1.2249  0.3899
  252MOL0     N34689   6.712   1.116   4.385 -0.2712 -0.4088 -0.4966
  252MOL0     N34690   6.592   1.144   4.416 -0.0500  0.2936  0.3281
  252MOL0     C34691   6.595   1.434   3.562 -0.3142 -0.3104 -0.0787
  252MOL0     C34692   6.555   1.560   3.510 -0.6678  0.2766  0.4273
  252MOL0     C34693   6.390   1.951   3.412 -0.3790 -0.8643  0.9926
  252MOL0     C34694   6.456   2.076   3.411  0.9705 -0.1987 -0.5388
  252MOL0     C34695   6.407   2.178   3.335 -0.2941 -0.1865  0.9723
  252MOL0     C34696   6.293   2.167   3.261  0.3107  0.6595  0.0732
  252MOL0     O34697   6.223   2.261   3.192  0.0449  0.0056 -0.0092
  252MOL0     C34698   6.289   2.385   3.160 -0.4400 -0.8334 -0.6486
  252MOL0     C34699   6.224   2.447   3.035  0.0266  0.0708  0.1106
  252MOL0     C34700   6.302   2.569   2.990 -0.2192  0.2694  0.6836
  252MOL0     C34701   6.223   2.633   2.879 -0.1185 -0.4454  0.0682
  252MOL0     C34702   6.284   2.761   2.826 -0.1984  0.0217 -0.0821
  252MOL0     C34703   6.332   2.864   2.783 -0.3946  0.4068  0.3898
  252MOL0     C34704   6.231   2.043   3.256 -1.0345  0.4920  0.2491
  252MOL0     C34705   6.276   1.935   3.331 -0.3714 -0.0804  0.6866
  252MOL0     C34706   6.205   1.808   3.330  0.2057  0.5733 -0.0143
  252MOL0     H34707   6.785   1.765   3.636  2.2477 -1.8647 -1.8697
  252MOL0     H34708   6.853   1.571   3.735  0.2562 -2.0310 -1.3209
  252MOL0     H34709   6.709   1.380   3.919  0.4124 -0.4680  1.1815
  252MOL0     H34710   6.737   1.208   3.902  0.1244  0.1338 -1.9305
  252MOL0     H34711   6.484   1.356   3.858  2.9984  0.7242 -0.0748
  252MOL0     H34712   6.506   1.192   3.794 -1.1825  0.5114  0.2907
  252MOL0     H34713   6.520   1.082   3.998  0.2258  0.1716 -0.5534
  252MOL0     H34714   6.530   1.228   4.092 -1.3834  3.0840 -0.9201
  252MOL0     H34715   6.300   1.282   4.009  1.3885  1.6067 -0.4877
  252MOL0     H34716   6.298   1.123   3.930  2.4647  1.4244 -2.3433
  252MOL0     H34717   6.166   1.123   4.150  0.4842  1.7568  2.0330
  252MOL0     H34718   6.302   1.194   4.234  1.1925 -2.4028  1.4644
  252MOL0     H34719   6.305   0.904   4.127 -1.7865 -0.6952  1.3466
  252MOL0     H34720   6.446   0.994   4.175  0.1161  2.8845 -0.8569
  252MOL0     H34721   6.316   0.832   4.339  1.6012  0.3359  3.0021
  252MOL0     H34722   6.191   0.959   4.350  1.6755  1.4472  0.1408
  252MOL0     H34723   6.324   1.120   4.456 -0.2292  0.0702  3.7632
  252MOL0     H34724   6.358   0.973   4.540  0.3539 -1.5911 -1.0439
  252MOL0     H34725   6.569   0.827   4.434  0.9470 -0.5336  0.2953
  252MOL0     H34726   6.848   0.797   4.376  2.7203 -1.9728 -3.8503
  252MOL0     H34727   6.928   0.950   4.358 -1.3701 -0.5089  1.7312
  252MOL0     H34728   6.938   0.840   4.144  0.9805  2.5989 -2.3118
  252MOL0     H34729   6.770   0.820   4.142  2.8106 -1.3788 -3.6317
  252MOL0     H34730   6.827   0.990   4.004  1.3096 -1.9135  0.3343
  252MOL0     H34731   6.760   1.076   4.145  0.0365  0.1149  1.5288
  252MOL0     H34732   6.975   1.142   4.231  0.8575  0.2194 -0.8603
  252MOL0     H34733   7.061   1.055   4.093  0.2659  1.7174 -1.6287
  252MOL0     H34734   6.974   1.402   3.853 -1.5248 -1.3866  1.1653
  252MOL0     H34735   7.079   1.526   3.697  0.8923  0.2832 -0.8328
  252MOL0     H34736   7.233   1.434   3.667  0.6346  1.6343 -1.8417
  252MOL0     H34737   7.240   1.596   3.716  0.3895 -0.3405 -2.4695
  252MOL0     H34738   7.635   1.696   3.844  3.6743  4.3644 -1.9936
  252MOL0     H34739   7.856   1.708   3.802 -0.5223  2.9355 -5.0036
  252MOL0     H34740   8.060   1.724   3.629 -0.6412 -0.0374  0.6710
  252MOL0     H34741   8.064   1.649   3.788 -1.9236  1.1725 -0.5848
  252MOL0     H34742   8.289   1.685   3.702  2.8341 -1.7980 -0.2777
  252MOL0     H34743   8.251   1.514   3.724  1.0491  0.3727 -0.1814
  252MOL0     H34744   8.293   1.684   3.465 -0.9012  0.8889  1.4466
  252MOL0     H34745   8.183   1.551   3.452  0.5729 -1.7043  0.6297
  252MOL0     H34746   8.377   1.395   3.533 -0.4494 -0.7487 -1.3492
  252MOL0     H34747   8.473   1.538   3.567 -0.9060  1.3706 -0.6997
  252MOL0     H34748   8.347   1.481   3.306  1.1807 -0.7103 -1.0512
  252MOL0     H34749   8.486   1.597   3.323  3.2966 -1.4089 -0.2864
  252MOL0     H34750   8.494   1.294   3.346  2.7679 -0.6487  2.3612
  252MOL0     H34751   8.597   1.386   3.432 -0.7032  1.6895  0.9966
  252MOL0     H34752   8.702   1.323   3.205  2.5169  1.3310 -1.1254
  252MOL0     H34753   8.702   1.494   3.229  2.1021 -1.4662 -0.8912
  252MOL0     H34754   8.605   1.444   2.991 -0.1681 -0.1995 -1.5191
  252MOL0     H34755   8.472   1.507   3.092  0.6021 -0.8583  0.3298
  252MOL0     H34756   7.816   1.371   3.525 -2.8867 -0.4146 -1.8186
  252MOL0     H34757   7.570   1.362   3.596  1.0777  0.3771 -0.8115
  252MOL0     H34758   7.380   1.388   4.130  2.0793 -1.0805 -2.1040
  252MOL0     H34759   7.186   1.231   4.180  0.5151 -0.2547 -0.7373
  252MOL0     H34760   6.541   1.344   3.536 -3.7635  1.4188  0.5846
  252MOL0     H34761   6.489   1.540   3.426  1.5546 -1.5534 -1.0157
  252MOL0     H34762   6.543   2.097   3.472  0.4077 -0.4322  0.3649
  252MOL0     H34763   6.462   2.271   3.348  2.0744 -1.0561 -1.6990
  252MOL0     H34764   6.271   2.460   3.237 -0.0137 -0.9554 -0.4323
  252MOL0     H34765   6.395   2.376   3.137  0.0211  0.4674  0.8087
  252MOL0     H34766   6.117   2.456   3.053  0.0390  1.6359 -0.4115
  252MOL0     H34767   6.226   2.377   2.951  1.2769  1.2758 -0.9108
  252MOL0     H34768   6.314   2.634   3.076  3.8076 -1.1615  1.4316
  252MOL0     H34769   6.396   2.530   2.948 -0.8343  0.6332 -1.1390
  252MOL0     H34770   6.122   2.648   2.919  0.2368 -1.2108  1.3309
  252MOL0     H34771   6.207   2.566   2.794  2.1902 -0.9448 -0.0404
  252MOL0     H34772   6.376   2.955   2.746 -2.1303  1.2057  0.1628
  252MOL0     H34773   6.141   2.022   3.199 -1.0571 -0.7870  0.7135
  252MOL0     H34774   6.269   1.721   3.345 -1.2267 -0.4222  0.5691
  252MOL0     H34775   6.128   1.804   3.408 -2.1901 -1.4713 -2.2753
  252MOL0     H34776   6.155   1.786   3.235  2.6756 -1.7937 -0.8807
  253MOL0     O34777   3.066   2.802   5.981 -0.1027 -0.3299 -0.6094
  253MOL0     C34778   3.152   2.782   5.897  0.2767 -0.9939 -0.9241
  253MOL0     O34779   3.132   2.721   5.774 -0.0063 -0.0045 -0.7226
  253MOL0     C34780   3.014   2.683   5.729 -0.6769  0.8131 -0.6740
  253MOL0     C34781   2.899   2.769   5.736  0.7871  0.4066  0.3604
  253MOL0     C34782   2.785   2.741   5.667  0.3313 -0.7673 -0.1932
  253MOL0     C34783   2.763   2.622   5.603 -0.2913  0.4468  0.0600
  253MOL0     O34784   2.646   2.598   5.548 -0.0248 -0.9062 -0.4327
  253MOL0     C34785   2.607   2.466   5.511 -0.1749 -0.2662  0.5201
  253MOL0     C34786   2.458   2.458   5.467 -0.3799 -0.4516 -0.9802
  253MOL0     C34787   2.378   2.482   5.594  0.2830 -0.3484 -0.0520
  253MOL0     C34788   2.225   2.502   5.565 -0.5546 -0.4339  0.8860
  253MOL0     C34789   2.150   2.484   5.700  0.5040  0.0397 -0.8527
  253MOL0     C34790   2.112   2.624   5.759 -0.3859 -0.3620  0.6398
  253MOL0     C34791   2.002   2.597   5.864 -0.1707  0.9005  0.3966
  253MOL0     C34792   1.978   2.726   5.943 -0.2888 -0.1396  0.2825
  253MOL0     N34793   2.099   2.754   6.027  0.7975 -0.6392 -0.3077
  253MOL0     C34794   2.132   2.882   6.068 -0.0546  0.1410 -0.0381
  253MOL0     C34795   2.251   2.870   6.119  0.9537  0.4962  0.4234
  253MOL0     C34796   2.346   2.979   6.156 -0.8794 -0.8509 -0.0760
  253MOL0     C34797   2.342   3.004   6.309  0.3276  0.5621 -0.9171
  253MOL0     C34798   2.447   3.111   6.332 -0.4644  0.0771  0.7996
  253MOL0     C34799   2.418   3.176   6.467  0.3325 -0.2773 -0.1903
  253MOL0     O34800   2.426   3.072   6.561 -0.9859  0.2522 -0.2250
  253MOL0     C34801   2.520   3.087   6.653 -0.0860 -0.5720 -0.7283
  253MOL0     C34802   2.498   3.186   6.748  0.2262 -0.3290 -0.3708
  253MOL0     C34803   2.587   3.216   6.857  0.4088  0.8114  0.4488
  253MOL0     C34804   2.557   3.335   6.946  0.1889  0.5864  0.4118
  253MOL0     C34805   2.700   3.132   6.868  0.9590 -0.3453  0.0006
  253MOL0     C34806   2.795   3.146   6.977 -0.2834  0.1076  0.1175
  253MOL0     O34807   2.839   3.277   6.991 -0.6794 -0.5250  0.9969
  253MOL0     C34808   2.930   3.322   7.091 -0.3462  0.0861  0.0514
  253MOL0     C34809   2.915   3.323   7.231  0.2305 -0.4783  0.2903
  253MOL0     C34810   3.013   3.372   7.321 -0.4063 -0.8096 -1.1507
  253MOL0     C34811   3.136   3.415   7.266 -0.4086 -0.4301 -0.6587
  253MOL0     O34812   3.217   3.489   7.341 -0.4296  0.1181  0.3565
  253MOL0     C34813   3.359   3.516   7.317 -0.2602 -0.2546  0.2496
  253MOL0     C34814   3.423   3.559   7.452 -0.5494  0.0779  0.4933
  253MOL0     C34815   3.451   3.448   7.547 -0.4582  0.6259  0.0724
  253MOL0     C34816   3.530   3.516   7.655  0.5169  0.9694  0.0974
  253MOL0     C34817   3.572   3.406   7.757  0.6858 -0.0645  0.3122
  253MOL0     C34818   3.633   3.467   7.879  0.3065  0.3903 -0.0533
  253MOL0     C34819   3.658   3.365   7.982 -1.2814  0.4923 -0.4666
  253MOL0     C34820   3.726   3.434   8.101  0.6939  0.1711 -0.5701
  253MOL0    Cl34821   3.888   3.499   8.071 -0.2329 -0.0368  0.2676
  253MOL0     C34822   3.161   3.399   7.130  0.0490  0.8771 -0.3723
  253MOL0     C34823   3.057   3.354   7.053 -0.6810  0.4555  0.8455
  253MOL0     O34824   2.834   3.043   7.032 -0.3005 -0.0852 -0.2102
  253MOL0     C34825   2.721   3.034   6.772 -0.2588  0.4728 -0.4188
  253MOL0     C34826   2.635   3.010   6.666 -0.2661  0.7135 -0.8068
  253MOL0     N34827   2.284   2.733   6.135  0.1097  0.1277 -0.1126
  253MOL0     N34828   2.190   2.662   6.075 -0.3877  1.0823 -0.6996
  253MOL0     C34829   2.872   2.530   5.600  0.0409  0.6274  0.3437
  253MOL0     C34830   2.995   2.558   5.662 -0.1278 -0.2335  0.2154
  253MOL0     C34831   3.285   2.825   5.937 -0.3090  0.2482  0.4384
  253MOL0     C34832   3.301   2.861   6.074 -0.5376 -1.0658 -0.5185
  253MOL0     C34833   3.425   2.909   6.125  1.4832 -0.0465  0.4309
  253MOL0     C34834   3.537   2.927   6.040  0.0832 -0.2488  0.4164
  253MOL0     O34835   3.642   3.006   6.076  0.0414 -0.6076 -0.0124
  253MOL0     C34836   3.702   2.959   6.196 -0.0634  0.1763 -0.1846
  253MOL0     C34837   3.814   3.052   6.229 -0.0281  0.7633 -0.1868
  253MOL0     C34838   3.939   2.983   6.292  0.1045  0.2035 -0.1617
  253MOL0     C34839   4.019   2.911   6.189  0.8958  0.1382 -0.4446
  253MOL0     C34840   4.052   2.981   6.071  0.3067  0.8614 -0.6177
  253MOL0     C34841   4.092   3.029   5.962  0.4940  0.0687 -0.3619
  253MOL0     C34842   3.520   2.887   5.907  0.3576  0.6647  0.3452
  253MOL0     C34843   3.401   2.827   5.855 -0.1175 -0.3303 -0.0295
  253MOL0     C34844   3.412   2.798   5.702 -0.3408  0.4453 -0.7082
  253MOL0     H34845   2.900   2.858   5.799 -1.8641 -1.2217  2.9976
  253MOL0     H34846   2.706   2.815   5.669 -2.0303 -3.0384 -2.4850
  253MOL0     H34847   2.622   2.404   5.600 -1.2243 -1.1329  0.1076
  253MOL0     H34848   2.670   2.426   5.431 -2.1061 -1.7529 -0.3220
  253MOL0     H34849   2.435   2.530   5.389 -1.3369  0.6455  0.2718
  253MOL0     H34850   2.451   2.357   5.425  2.3989 -1.1901  0.0555
  253MOL0     H34851   2.397   2.406   5.671 -1.0106 -0.3160  0.3272
  253MOL0     H34852   2.410   2.573   5.647  0.0161 -0.0274 -0.4424
  253MOL0     H34853   2.201   2.597   5.516  0.7635  0.3884  1.7451
  253MOL0     H34854   2.205   2.422   5.494 -0.7442 -1.9364  2.5645
  253MOL0     H34855   2.209   2.417   5.763  3.6151  1.1648 -2.3969
  253MOL0     H34856   2.056   2.435   5.672 -0.7156  1.6882  0.1744
  253MOL0     H34857   2.196   2.683   5.798  0.4329 -0.4162 -0.9451
  253MOL0     H34858   2.062   2.680   5.680 -0.6870  0.3133  1.3002
  253MOL0     H34859   2.036   2.515   5.928 -1.5557  0.1770  0.2432
  253MOL0     H34860   1.912   2.572   5.808  1.6171 -0.3179 -2.1129
  253MOL0     H34861   1.963   2.814   5.880  0.4417  0.3517  0.7769
  253MOL0     H34862   1.888   2.711   6.003 -0.6937  2.9888  0.6257
  253MOL0     H34863   2.080   2.975   6.047  0.5486  0.6159  0.5422
  253MOL0     H34864   2.318   3.072   6.105  0.1347 -0.0570  0.7746
  253MOL0     H34865   2.448   2.954   6.127  0.7378  0.5444  3.7590
  253MOL0     H34866   2.243   3.042   6.334  1.0824  0.1337  3.6740
  253MOL0     H34867   2.368   2.916   6.368  1.9986  1.6983  0.1581
  253MOL0     H34868   2.550   3.076   6.339 -0.1106  1.2059  1.5803
  253MOL0     H34869   2.434   3.190   6.257 -0.3846 -0.4157  0.2672
  253MOL0     H34870   2.481   3.262   6.492  1.4917 -0.2011 -3.0186
  253MOL0     H34871   2.316   3.214   6.456  1.3481  3.4714  1.6535
  253MOL0     H34872   2.410   3.248   6.743  0.4899 -0.0058 -1.3988
  253MOL0     H34873   2.462   3.386   6.929 -0.5387 -0.0210  2.4012
  253MOL0     H34874   2.628   3.417   6.929 -0.6888  0.9296 -2.0266
  253MOL0     H34875   2.562   3.298   7.048  0.3547 -2.6117 -0.6428
  253MOL0     H34876   2.811   3.299   7.251 -0.5043  1.8694 -0.3220
  253MOL0     H34877   2.985   3.399   7.422 -1.7684  1.2368 -2.0110
  253MOL0     H34878   3.411   3.425   7.285  1.5988  1.6233 -2.4479
  253MOL0     H34879   3.357   3.598   7.245  1.1782  0.7088  1.2603
  253MOL0     H34880   3.512   3.603   7.406 -1.4192  0.4000 -0.9267
  253MOL0     H34881   3.356   3.632   7.498  0.5266 -0.0687  2.4036
  253MOL0     H34882   3.507   3.372   7.491  0.3372  0.0594  1.5831
  253MOL0     H34883   3.366   3.410   7.604 -0.1172  1.5454  1.2209
  253MOL0     H34884   3.468   3.588   7.709  1.1671  2.5590 -1.1826
  253MOL0     H34885   3.614   3.572   7.612 -0.8516  3.3013  0.2853
  253MOL0     H34886   3.493   3.337   7.788  0.9046 -1.5766 -2.1974
  253MOL0     H34887   3.648   3.341   7.713  1.0733  1.7138 -1.8428
  253MOL0     H34888   3.577   3.554   7.914  0.9365  0.6268  0.3793
  253MOL0     H34889   3.725   3.513   7.841 -0.2473  2.2846  0.8057
  253MOL0     H34890   3.720   3.284   7.944 -1.3196  2.5760 -6.0050
  253MOL0     H34891   3.558   3.328   8.004 -0.7515  1.4603  4.8063
  253MOL0     H34892   3.732   3.363   8.184 -3.5221  2.0022  1.6430
  253MOL0     H34893   3.662   3.519   8.128  1.3731  0.6214 -0.3603
  253MOL0     H34894   3.250   3.442   7.086 -0.0690  0.3152 -1.1851
  253MOL0     H34895   3.074   3.359   6.946 -0.8736  0.6542  0.8250
  253MOL0     H34896   2.816   2.981   6.772  1.2445  3.0010 -1.8667
  253MOL0     H34897   2.642   2.922   6.604 -0.6037 -1.0896  1.5514
  253MOL0     H34898   2.861   2.432   5.556 -0.5284  1.5147 -1.5691
  253MOL0     H34899   3.067   2.478   5.678 -0.3384 -0.4851 -0.0727
  253MOL0     H34900   3.219   2.860   6.145  1.7537  1.7150  2.4672
  253MOL0     H34901   3.430   2.934   6.231 -0.5745  0.0119  0.5467
  253MOL0     H34902   3.630   2.966   6.278 -3.3573  0.9042 -2.9008
  253MOL0     H34903   3.739   2.860   6.168  0.0838  0.2776 -0.3450
  253MOL0     H34904   3.773   3.129   6.295 -0.8081  1.2359 -1.2052
  253MOL0     H34905   3.857   3.105   6.144  0.8050 -0.2405 -0.3995
  253MOL0     H34906   3.995   3.054   6.354  1.0398  0.8263 -1.6744
  253MOL0     H34907   3.899   2.901   6.353  0.4135  0.6119  0.5960
  253MOL0     H34908   3.964   2.822   6.157  0.0927 -0.4834  2.3868
  253MOL0     H34909   4.114   2.876   6.229 -0.2225  0.1604  2.4437
  253MOL0     H34910   4.116   3.074   5.868  0.4049  0.3928 -0.2322
  253MOL0     H34911   3.597   2.905   5.833  1.7299 -1.2603  1.2211
  253MOL0     H34912   3.504   2.833   5.655  1.3367 -0.8586  1.3907
  253MOL0     H34913   3.407   2.691   5.683  2.5696  0.1478 -0.3147
  253MOL0     H34914   3.324   2.838   5.651 -0.1654 -1.5561 -2.7469
  254MOL0     O34915   1.822   6.161   2.777 -0.3462 -0.2282  0.0889
  254MOL0     C34916   1.907   6.149   2.864 -0.4636  0.6215 -0.0520
  254MOL0     O34917   2.038   6.138   2.838 -0.2044 -0.2580  0.6876
  254MOL0     C34918   2.082   6.129   2.713  0.3272  0.4392  0.9743
  254MOL0     C34919   2.159   6.015   2.680  0.5906 -0.3113  1.1666
  254MOL0     C34920   2.214   5.991   2.543  0.2383  0.0652 -0.2716
  254MOL0     C34921   2.176   6.088   2.445  0.3079 -0.0248 -0.1747
  254MOL0     O34922   2.231   6.071   2.321  0.1130  0.0071 -0.1833
  254MOL0     C34923   2.275   6.185   2.247 -0.1857  0.0649 -0.3773
  254MOL0     C34924   2.342   6.145   2.114  0.2463 -0.5839 -0.5032
  254MOL0     C34925   2.393   6.275   2.042 -0.2759 -0.1325  0.2970
  254MOL0     C34926   2.505   6.230   1.939  0.7088  0.0505  0.1454
  254MOL0     C34927   2.539   6.358   1.860 -0.1828 -0.4026  0.2530
  254MOL0     C34928   2.667   6.328   1.765 -0.0116 -0.1942 -1.1134
  254MOL0     C34929   2.696   6.434   1.665 -0.4964  0.3835  0.4837
  254MOL0     C34930   2.795   6.400   1.546 -0.8065 -0.2569 -0.1375
  254MOL0     N34931   2.807   6.509   1.454  0.0905 -0.6987 -0.8291
  254MOL0     C34932   2.878   6.623   1.491  0.7240  0.3850 -0.1738
  254MOL0     C34933   2.875   6.694   1.377 -0.5364 -0.3927 -0.2701
  254MOL0     C34934   2.940   6.830   1.347 -0.3766 -0.1122  0.2882
  254MOL0     C34935   3.067   6.814   1.258  0.1737 -0.0528 -1.2063
  254MOL0     C34936   3.180   6.893   1.315  0.1683 -0.9731  0.8612
  254MOL0     C34937   3.312   6.856   1.241 -0.5262 -0.3040  0.0002
  254MOL0     O34938   3.356   6.726   1.270  0.3925  0.4058 -0.4584
  254MOL0     C34939   3.493   6.700   1.264  0.6648  0.5626 -0.1524
  254MOL0     C34940   3.573   6.749   1.163 -0.2410 -0.4536 -0.9913
  254MOL0     C34941   3.715   6.723   1.149  0.7564 -0.6616  0.0411
  254MOL0     C34942   3.805   6.768   1.029  0.3642 -0.5773 -0.4873
  254MOL0     C34943   3.765   6.641   1.246 -0.3919  0.0722 -0.6144
  254MOL0     C34944   3.910   6.603   1.256 -0.2212 -0.0247  0.0922
  254MOL0     O34945   3.938   6.484   1.298 -0.6234  0.5496  0.5238
  254MOL0     C34946   4.052   6.410   1.265  0.0291 -0.2357 -0.4664
  254MOL0     C34947   4.075   6.292   1.347  0.4652 -0.4239  0.4725
  254MOL0     C34948   4.193   6.218   1.323 -0.0499 -0.4915  0.2065
  254MOL0     C34949   4.276   6.245   1.212  0.4951  0.6174 -0.0663
  254MOL0     O34950   4.376   6.151   1.196 -0.0964 -0.2358  0.9206
  254MOL0     C34951   4.482   6.176   1.105 -0.6085 -0.3366  0.5717
  254MOL0     C34952   4.444   6.137   0.949 -1.1042  0.4067 -0.8562
  254MOL0     C34953   4.559   6.152   0.846  0.1430  0.1558 -0.9235
  254MOL0     C34954   4.683   6.084   0.900 -0.0392  1.0335  0.4617
  254MOL0     C34955   4.681   5.930   0.904  0.6481  0.0990  0.2514
  254MOL0     C34956   4.802   5.877   0.968  0.3241  0.0549  0.0647
  254MOL0     C34957   4.830   5.732   0.929 -0.3689  0.3903 -0.2290
  254MOL0     C34958   4.849   5.649   1.059 -0.3284 -0.2768 -0.7503
  254MOL0    Cl34959   4.885   5.475   1.014 -0.2107 -0.5283 -0.4294
  254MOL0     C34960   4.248   6.354   1.131  0.0159  0.3808 -0.9227
  254MOL0     C34961   4.136   6.426   1.152  0.3899 -0.0646 -0.7585
  254MOL0     O34962   3.989   6.692   1.241 -0.6673 -0.5340 -0.6984
  254MOL0     C34963   3.683   6.574   1.336 -0.0765 -0.6103 -0.2513
  254MOL0     C34964   3.551   6.601   1.335 -0.1138  0.6199  0.1050
  254MOL0     N34965   2.811   6.627   1.277 -0.7655  0.3685  0.7622
  254MOL0     N34966   2.768   6.514   1.322 -0.1873 -0.3533 -0.1024
  254MOL0     C34967   2.100   6.205   2.484  0.6939  0.0751  0.6147
  254MOL0     C34968   2.052   6.222   2.614  0.1278  0.7163 -0.7070
  254MOL0     C34969   1.862   6.145   3.010 -0.0621  1.2389 -1.1394
  254MOL0     C34970   1.735   6.201   3.035 -0.2384  0.2290  0.3336
  254MOL0     C34971   1.671   6.203   3.160  0.3889  0.2573  1.0551
  254MOL0     C34972   1.748   6.151   3.267  0.3637  0.1242  0.3096
  254MOL0     O34973   1.698   6.169   3.397 -0.6564 -0.5127  1.0341
  254MOL0     C34974   1.784   6.157   3.513  0.7653 -1.0125  0.1922
  254MOL0     C34975   1.803   6.020   3.575 -0.7590  0.2823  0.2454
  254MOL0     C34976   1.678   5.970   3.638  0.1964  0.7408  0.8872
  254MOL0     C34977   1.700   5.945   3.791 -0.1489 -0.4141 -0.9881
  254MOL0     C34978   1.710   6.065   3.873 -0.4980 -0.5712  1.3448
  254MOL0     C34979   1.693   6.156   3.940 -0.6315 -1.2837 -0.1183
  254MOL0     C34980   1.880   6.098   3.255  0.3805  0.1243  0.3879
  254MOL0     C34981   1.932   6.097   3.123 -0.2054  0.0564 -0.3564
  254MOL0     C34982   2.057   6.018   3.093 -0.4421 -0.8715 -0.2326
  254MOL0     H34983   2.175   5.944   2.761  3.5628 -0.2539  0.7257
  254MOL0     H34984   2.276   5.910   2.507  1.3059  2.0727 -3.3815
  254MOL0     H34985   2.349   6.241   2.306  1.6614  2.5502 -4.6293
  254MOL0     H34986   2.193   6.254   2.226 -1.0602 -0.6786  0.5004
  254MOL0     H34987   2.420   6.069   2.127  0.1029 -0.3530  2.2467
  254MOL0     H34988   2.260   6.099   2.058 -2.9167  4.1632 -0.4212
  254MOL0     H34989   2.317   6.334   1.990  1.4644  0.6679 -1.4500
  254MOL0     H34990   2.417   6.350   2.118 -2.0862  1.2964 -0.4605
  254MOL0     H34991   2.591   6.175   1.978  1.4335 -0.9261 -2.6124
  254MOL0     H34992   2.450   6.164   1.872  0.7754  0.1881 -0.0439
  254MOL0     H34993   2.553   6.433   1.938 -0.3909  1.8386 -1.7549
  254MOL0     H34994   2.450   6.389   1.805  0.1961  0.4602  0.1143
  254MOL0     H34995   2.750   6.312   1.834  0.1965  1.0504 -1.0572
  254MOL0     H34996   2.649   6.234   1.711 -1.4840  0.2897 -1.5252
  254MOL0     H34997   2.735   6.522   1.717 -0.3263  2.2260 -2.5145
  254MOL0     H34998   2.605   6.468   1.613 -1.0162 -2.6852 -0.8310
  254MOL0     H34999   2.890   6.376   1.596 -0.4644 -1.3407 -1.2586
  254MOL0     H35000   2.760   6.308   1.499 -3.0402  1.6647 -2.5039
  254MOL0     H35001   2.928   6.649   1.584 -4.6323  1.6141  2.7924
  254MOL0     H35002   2.963   6.882   1.440 -2.5130 -0.4592  1.0455
  254MOL0     H35003   2.866   6.896   1.301 -0.1865  1.9162  2.6675
  254MOL0     H35004   3.089   6.707   1.248 -0.8312 -0.3185 -0.7878
  254MOL0     H35005   3.047   6.852   1.157  0.4969  1.1313 -0.8428
  254MOL0     H35006   3.165   7.001   1.302  1.9697 -0.8522 -0.5192
  254MOL0     H35007   3.207   6.877   1.420 -2.4209 -0.6097  1.6650
  254MOL0     H35008   3.310   6.874   1.133  1.9168  1.5974  0.1890
  254MOL0     H35009   3.388   6.922   1.285 -1.7873 -0.8002  3.1538
  254MOL0     H35010   3.524   6.828   1.106  2.7457 -0.1128 -3.3404
  254MOL0     H35011   3.841   6.684   0.970 -1.3648 -2.5189  1.0229
  254MOL0     H35012   3.895   6.817   1.066 -0.0010  0.5550 -1.0672
  254MOL0     H35013   3.755   6.834   0.958 -2.2575 -2.5743 -0.6550
  254MOL0     H35014   4.003   6.254   1.419 -0.5782 -0.8214 -0.7564
  254MOL0     H35015   4.211   6.125   1.377  0.1054  0.4421  1.8194
  254MOL0     H35016   4.511   6.282   1.113 -1.9768 -0.0515  2.3589
  254MOL0     H35017   4.573   6.122   1.134  1.2162  2.1607 -0.0662
  254MOL0     H35018   4.402   6.035   0.947 -3.2979  1.2519 -0.9575
  254MOL0     H35019   4.358   6.199   0.921  0.8544  2.9830 -1.4439
  254MOL0     H35020   4.602   6.253   0.847 -1.4652  0.9087  1.3441
  254MOL0     H35021   4.523   6.115   0.750  0.1123  1.0187 -1.2534
  254MOL0     H35022   4.719   6.128   0.994  0.9348 -1.4993  1.3602
  254MOL0     H35023   4.754   6.107   0.820  0.5581  0.5254  0.8367
  254MOL0     H35024   4.589   5.889   0.946 -0.5389 -1.0909 -3.1489
  254MOL0     H35025   4.669   5.896   0.800  1.3101 -3.1062  1.1328
  254MOL0     H35026   4.786   5.886   1.076  0.5407 -0.7120  0.1638
  254MOL0     H35027   4.894   5.931   0.944  0.8529 -0.8607 -0.0079
  254MOL0     H35028   4.912   5.710   0.860 -1.9952 -1.6538 -1.6413
  254MOL0     H35029   4.751   5.689   0.867  2.3644 -3.9886 -1.1878
  254MOL0     H35030   4.762   5.642   1.126  0.3771  2.0617  0.5108
  254MOL0     H35031   4.919   5.686   1.135 -1.9128 -0.2172  0.7267
  254MOL0     H35032   4.318   6.389   1.056  4.2062 -0.1131  2.3740
  254MOL0     H35033   4.114   6.507   1.084 -0.0432  0.3275 -0.1659
  254MOL0     H35034   3.718   6.519   1.423 -2.1101 -3.3872 -1.0593
  254MOL0     H35035   3.491   6.532   1.393  0.7079  0.0058  0.2546
  254MOL0     H35036   2.072   6.291   2.423 -3.9722 -0.7633  1.1649
  254MOL0     H35037   2.001   6.316   2.633 -0.1453  0.5496 -0.6092
  254MOL0     H35038   1.676   6.221   2.945 -2.4657 -1.8558  1.2315
  254MOL0     H35039   1.573   6.248   3.169  0.5278  1.2716 -1.6402
  254MOL0     H35040   1.883   6.199   3.492  0.4649 -0.3177  0.1530
  254MOL0     H35041   1.740   6.219   3.591  0.8178 -0.3889 -0.2704
  254MOL0     H35042   1.882   6.018   3.652  0.1759 -1.3972 -0.7001
  254MOL0     H35043   1.833   5.955   3.493 -0.1367 -0.9473  1.3978
  254MOL0     H35044   1.597   6.041   3.621 -1.0866  0.0261  3.4500
  254MOL0     H35045   1.646   5.873   3.599 -0.4045  1.0912  0.4903
  254MOL0     H35046   1.786   5.879   3.805 -0.2093 -0.2366  0.4330
  254MOL0     H35047   1.614   5.897   3.840 -1.3048  1.6340 -0.8917
  254MOL0     H35048   1.687   6.241   4.005 -1.2186 -0.5828 -1.0660
  254MOL0     H35049   1.940   6.065   3.339 -0.2847  0.6841  1.0962
  254MOL0     H35050   2.150   6.076   3.096 -3.2252  4.1895 -0.4799
  254MOL0     H35051   2.077   5.945   3.172 -0.3740  0.6707  1.2451
  254MOL0     H35052   2.046   5.968   2.997 -1.9506  1.5041 -1.3925
  255MOL0     O35053   8.172   3.941   6.066  0.4824  0.3416  0.4934
  255MOL0     C35054   8.096   3.849   6.033  0.0875  0.6474  0.6761
  255MOL0     O35055   8.024   3.776   6.121 -0.1111 -0.2239 -0.1366
  255MOL0     C35056   8.081   3.758   6.248 -0.2774  0.0908  0.3098
  255MOL0     C35057   8.211   3.770   6.289  0.6215  0.7908 -0.4820
  255MOL0     C35058   8.250   3.745   6.424 -0.5307 -0.3298 -0.1689
  255MOL0     C35059   8.151   3.706   6.513 -0.4694  0.2956  0.4803
  255MOL0     O35060   8.171   3.673   6.638  0.2065 -0.5379  0.1373
  255MOL0     C35061   8.266   3.573   6.672  0.0139 -0.2086 -0.3148
  255MOL0     C35062   8.276   3.564   6.821 -0.5098 -0.6233 -0.1672
  255MOL0     C35063   8.139   3.551   6.899 -0.1461  0.0347 -0.2710
  255MOL0     C35064   8.040   3.664   6.915 -0.3266 -1.1897  0.1031
  255MOL0     C35065   7.926   3.625   7.025  1.1569 -0.5000  0.8145
  255MOL0     C35066   7.806   3.551   6.960 -0.1900 -0.6136  0.5067
  255MOL0     C35067   7.736   3.630   6.850 -0.4235 -0.1292 -0.2750
  255MOL0     C35068   7.624   3.543   6.798  0.7666  0.0278 -0.2927
  255MOL0     N35069   7.677   3.452   6.697 -0.0422  0.2038  0.1100
  255MOL0     C35070   7.714   3.492   6.573 -0.6149  0.0613  0.4997
  255MOL0     C35071   7.767   3.391   6.510 -0.1068 -0.0578  0.6990
  255MOL0     C35072   7.823   3.367   6.370 -0.4968 -0.2502  0.2731
  255MOL0     C35073   7.742   3.443   6.271  0.7564 -0.6100 -0.9204
  255MOL0     C35074   7.819   3.449   6.137 -0.1377  0.1472 -0.5776
  255MOL0     C35075   7.824   3.322   6.063 -0.2905 -0.3911 -1.2864
  255MOL0     O35076   7.696   3.290   6.013 -0.2309  0.4528 -0.6004
  255MOL0     C35077   7.666   3.158   5.997 -0.5418  0.2033 -0.0163
  255MOL0     C35078   7.535   3.132   5.970 -0.4818  0.2492 -1.1306
  255MOL0     C35079   7.487   3.003   5.958 -0.1021  0.0430 -0.3161
  255MOL0     C35080   7.339   2.990   5.956  0.3401  0.4748 -0.0049
  255MOL0     C35081   7.581   2.893   5.967 -0.5478 -0.2915  0.7067
  255MOL0     C35082   7.544   2.747   5.944  0.5640  0.6040  0.3987
  255MOL0     O35083   7.643   2.657   5.932  0.8636  0.3426  0.1138
  255MOL0     C35084   7.643   2.550   5.837  0.3699  0.2097 -0.0064
  255MOL0     C35085   7.771   2.500   5.811  0.7249  0.2698  0.8631
  255MOL0     C35086   7.778   2.400   5.719  0.6580 -0.0127 -0.1883
  255MOL0     C35087   7.664   2.348   5.643 -0.4766 -0.5949 -0.5868
  255MOL0     O35088   7.672   2.254   5.549 -0.9660 -0.0193 -0.8057
  255MOL0     C35089   7.789   2.200   5.493 -0.7739 -0.3203  0.1353
  255MOL0     C35090   7.754   2.099   5.395 -0.0520 -0.2313  0.4357
  255MOL0     C35091   7.881   2.058   5.312  0.2619 -0.0492 -0.7438
  255MOL0     C35092   7.905   2.171   5.210  0.4376  0.0738  0.3937
  255MOL0     C35093   8.013   2.132   5.115  0.3764 -0.7035  0.3686
  255MOL0     C35094   8.151   2.141   5.181  0.4433 -0.1351  0.6293
  255MOL0     C35095   8.195   2.286   5.205 -0.8235 -0.0113 -0.0574
  255MOL0     C35096   8.311   2.272   5.314  0.5703  0.7802  0.1132
  255MOL0    Cl35097   8.455   2.197   5.243 -0.2096 -0.3458  0.3714
  255MOL0     C35098   7.541   2.405   5.669 -0.3710  0.8562  0.6135
  255MOL0     C35099   7.535   2.506   5.765 -0.3968  0.6047  0.8028
  255MOL0     O35100   7.421   2.715   5.956 -0.0189 -0.4586 -0.0038
  255MOL0     C35101   7.725   2.921   5.980 -0.8947  0.4060  0.5894
  255MOL0     C35102   7.767   3.053   6.012 -0.6572  0.3457  1.2092
  255MOL0     N35103   7.757   3.283   6.600  0.0322  0.0269  0.1677
  255MOL0     N35104   7.702   3.317   6.710 -0.6226 -0.0988  0.6802
  255MOL0     C35105   8.015   3.710   6.483  0.2366 -0.1720  0.2368
  255MOL0     C35106   7.987   3.734   6.346 -0.1489 -0.0190 -1.0932
  255MOL0     C35107   8.071   3.808   5.884  0.3166 -0.0760 -0.4866
  255MOL0     C35108   7.994   3.693   5.869  0.1824  0.5470  0.5307
  255MOL0     C35109   8.000   3.629   5.741 -0.0081  0.2889 -0.1069
  255MOL0     C35110   8.053   3.687   5.624  0.2707 -0.4319  0.1870
  255MOL0     O35111   8.056   3.632   5.500 -0.7084  0.1695  0.0170
  255MOL0     C35112   8.026   3.495   5.481 -0.2102 -0.7102 -0.8264
  255MOL0     C35113   8.076   3.472   5.340  0.1639 -0.2830 -0.1138
  255MOL0     C35114   8.053   3.333   5.292  0.2202 -0.1293 -0.9255
  255MOL0     C35115   8.138   3.308   5.161  0.3952  0.0862 -0.0670
  255MOL0     C35116   8.098   3.401   5.050  1.4783  0.2114 -0.0243
  255MOL0     C35117   8.058   3.463   4.948 -0.3854  0.2450 -0.1318
  255MOL0     C35118   8.121   3.807   5.640  0.4801 -0.0132  0.2789
  255MOL0     C35119   8.127   3.869   5.765  0.3032 -0.8028 -0.4365
  255MOL0     C35120   8.187   4.001   5.777  0.2493 -0.0381 -0.2865
  255MOL0     H35121   8.292   3.799   6.223  1.4289 -0.8412 -0.2639
  255MOL0     H35122   8.352   3.739   6.459 -1.3341 -3.6336  2.1275
  255MOL0     H35123   8.368   3.591   6.637  0.4762 -0.4784  0.8337
  255MOL0     H35124   8.229   3.475   6.641 -0.5517 -0.3085  0.6243
  255MOL0     H35125   8.336   3.474   6.835  2.5224  0.9741 -1.6983
  255MOL0     H35126   8.351   3.641   6.840  0.0206  0.4663 -5.1214
  255MOL0     H35127   8.084   3.464   6.862 -0.9184 -0.7751  2.5374
  255MOL0     H35128   8.166   3.524   7.001  1.3802  1.5588 -0.2161
  255MOL0     H35129   8.098   3.751   6.946 -1.0380 -1.4276  2.2307
  255MOL0     H35130   7.989   3.688   6.821  1.5431 -3.2562 -1.5830
  255MOL0     H35131   7.876   3.716   7.062 -0.8240 -1.1251 -0.1797
  255MOL0     H35132   7.964   3.563   7.106  1.5833 -0.3924  0.6975
  255MOL0     H35133   7.847   3.458   6.920  0.6807 -0.0305  0.0231
  255MOL0     H35134   7.727   3.535   7.035 -0.6943  1.6935  0.5562
  255MOL0     H35135   7.795   3.661   6.763  0.0910 -0.4071 -0.0277
  255MOL0     H35136   7.690   3.716   6.901  0.1017 -0.6182  1.0750
  255MOL0     H35137   7.572   3.488   6.876 -0.3762  2.5601  0.8277
  255MOL0     H35138   7.545   3.602   6.750 -0.6801 -0.6701  1.1733
  255MOL0     H35139   7.708   3.599   6.553  0.8062 -0.2967 -2.3438
  255MOL0     H35140   7.816   3.260   6.350  0.3824 -0.5522  1.4761
  255MOL0     H35141   7.929   3.395   6.365  0.0797 -2.3292 -0.4026
  255MOL0     H35142   7.638   3.409   6.269 -0.0582  1.7077 -0.9408
  255MOL0     H35143   7.731   3.545   6.308  0.9180 -1.0648  0.4265
  255MOL0     H35144   7.764   3.520   6.074  0.2132  2.7771  1.8528
  255MOL0     H35145   7.904   3.504   6.178 -2.0162  2.8558 -0.0737
  255MOL0     H35146   7.896   3.343   5.983 -1.2869 -0.0444 -2.1228
  255MOL0     H35147   7.856   3.243   6.132 -1.3866  0.0625 -0.2282
  255MOL0     H35148   7.474   3.222   5.967 -0.8963 -0.0437 -1.7207
  255MOL0     H35149   7.297   2.947   6.047 -0.0314  0.4178 -0.2020
  255MOL0     H35150   7.313   2.920   5.876  0.0620  2.9383 -2.1875
  255MOL0     H35151   7.281   3.075   5.920  0.7283 -0.2176 -2.5050
  255MOL0     H35152   7.852   2.533   5.875 -0.5407  3.0753  1.1691
  255MOL0     H35153   7.871   2.353   5.687  0.3087 -0.8635  0.0220
  255MOL0     H35154   7.854   2.279   5.456 -3.5442  2.2502  0.3686
  255MOL0     H35155   7.840   2.152   5.578 -0.5908 -0.4405 -0.0405
  255MOL0     H35156   7.731   2.007   5.450 -0.1567 -1.8433 -2.1049
  255MOL0     H35157   7.672   2.125   5.328  0.0687  1.3892  0.8821
  255MOL0     H35158   7.868   1.965   5.256  0.2452  0.4144 -1.5356
  255MOL0     H35159   7.965   2.046   5.381 -0.5270  2.6302  0.8084
  255MOL0     H35160   7.923   2.271   5.252  0.3865  0.7651 -1.1585
  255MOL0     H35161   7.806   2.183   5.166 -0.8508  0.7966  3.2410
  255MOL0     H35162   7.997   2.031   5.077  1.2382 -0.2435 -1.3117
  255MOL0     H35163   8.005   2.196   5.027 -1.8800 -1.7568 -0.2679
  255MOL0     H35164   8.229   2.096   5.119 -0.3181 -3.0027  1.5704
  255MOL0     H35165   8.154   2.082   5.273 -3.5243  2.4169  2.6642
  255MOL0     H35166   8.114   2.346   5.247  0.2810 -0.4900  2.9450
  255MOL0     H35167   8.234   2.334   5.114  0.6158  3.1560  2.0486
  255MOL0     H35168   8.274   2.211   5.397  0.0478  1.3048  0.2700
  255MOL0     H35169   8.325   2.375   5.347  1.6955  0.6192  0.2002
  255MOL0     H35170   7.460   2.358   5.615  0.6177 -0.0429 -0.1487
  255MOL0     H35171   7.441   2.559   5.776 -0.3304  0.8316  0.3050
  255MOL0     H35172   7.795   2.840   5.960 -0.7145  0.3588  1.3890
  255MOL0     H35173   7.872   3.063   6.037 -0.4178 -1.5256  1.0867
  255MOL0     H35174   7.939   3.693   6.558  0.8858 -5.2289  0.1218
  255MOL0     H35175   7.879   3.746   6.337 -0.0684  1.8700 -0.0017
  255MOL0     H35176   7.942   3.644   5.950  1.3278 -0.4294  0.6972
  255MOL0     H35177   7.960   3.528   5.731 -0.5481  0.3705  1.1295
  255MOL0     H35178   8.075   3.427   5.551 -1.5907  0.2816  1.1780
  255MOL0     H35179   7.918   3.482   5.494 -0.9130  2.6143 -2.2362
  255MOL0     H35180   8.185   3.484   5.346  0.0106  0.4858  3.3955
  255MOL0     H35181   8.020   3.542   5.279 -2.1660  0.0448  2.2333
  255MOL0     H35182   8.094   3.257   5.359 -1.6305 -0.7606 -0.4552
  255MOL0     H35183   7.951   3.299   5.272  1.7506 -4.7703 -2.0323
  255MOL0     H35184   8.132   3.205   5.127  0.3226  0.7054 -2.0475
  255MOL0     H35185   8.244   3.330   5.180  1.2410 -2.2270 -1.7081
  255MOL0     H35186   8.025   3.523   4.866 -1.7032  0.9031  0.8408
  255MOL0     H35187   8.169   3.846   5.551 -0.9506 -1.1285 -1.0407
  255MOL0     H35188   8.118   4.071   5.826  0.3543  0.4488 -0.8186
  255MOL0     H35189   8.281   4.001   5.832 -0.0478 -1.6029  0.2502
  255MOL0     H35190   8.204   4.043   5.677  0.3925 -0.2336 -0.3422
  256MOL0     O35191   3.945   5.443   1.417  0.0811 -0.1619  0.0876
  256MOL0     C35192   3.903   5.507   1.320  0.1759  0.1821  0.4017
  256MOL0     O35193   3.870   5.445   1.197  0.9611  0.4526  0.2127
  256MOL0     C35194   3.833   5.314   1.191 -0.2394  0.7203  0.6232
  256MOL0     C35195   3.905   5.222   1.114 -0.1961 -0.5017 -0.1775
  256MOL0     C35196   3.862   5.095   1.092 -0.2659  0.4839 -0.3392
  256MOL0     C35197   3.761   5.031   1.162  0.5868 -0.3587  0.1411
  256MOL0     O35198   3.732   4.899   1.129 -0.0029  0.6625 -0.5010
  256MOL0     C35199   3.618   4.839   1.197  0.0184 -0.0274  0.0761
  256MOL0     C35200   3.581   4.701   1.135  0.0906  0.5887  0.6317
  256MOL0     C35201   3.437   4.659   1.172  0.5040  0.2026 -0.5988
  256MOL0     C35202   3.406   4.516   1.123 -0.0949  0.4364 -0.0706
  256MOL0     C35203   3.265   4.470   1.132 -0.1948 -0.0874  0.1992
  256MOL0     C35204   3.161   4.565   1.064 -0.2614  1.2078  0.5351
  256MOL0     C35205   3.018   4.501   1.066  0.8000 -0.0742  0.0464
  256MOL0     C35206   2.992   4.359   1.021  0.7674 -0.5490 -0.1857
  256MOL0     N35207   3.033   4.359   0.886 -0.4441  0.4062 -0.0570
  256MOL0     C35208   3.151   4.299   0.841 -0.3222 -0.3873 -0.3384
  256MOL0     C35209   3.165   4.343   0.712 -1.7593  0.4320 -0.9454
  256MOL0     C35210   3.271   4.298   0.612 -0.0794 -0.2565  0.3159
  256MOL0     C35211   3.378   4.401   0.593 -0.4721 -0.1183  0.4141
  256MOL0     C35212   3.474   4.426   0.720  0.5740  0.5140 -0.4153
  256MOL0     C35213   3.553   4.292   0.760  0.0399 -0.0617  0.2044
  256MOL0     O35214   3.580   4.277   0.898  0.1308  0.0110 -0.1863
  256MOL0     C35215   3.683   4.342   0.963 -0.8449 -0.7806  0.4237
  256MOL0     C35216   3.759   4.445   0.913  0.2149 -0.3169  0.1944
  256MOL0     C35217   3.864   4.510   0.980  0.9040 -0.3547 -0.4346
  256MOL0     C35218   3.939   4.619   0.902  0.3874  0.5395  0.0667
  256MOL0     C35219   3.900   4.456   1.107 -0.1363  0.3961  0.1656
  256MOL0     C35220   3.995   4.517   1.189 -0.2176  0.3973 -0.1672
  256MOL0     O35221   4.067   4.427   1.257  0.4570  0.4342  0.8024
  256MOL0     C35222   4.194   4.471   1.286  0.1509 -0.4404 -0.0626
  256MOL0     C35223   4.220   4.576   1.376 -0.0258  0.3463 -0.1297
  256MOL0     C35224   4.347   4.610   1.407 -0.5813  0.1286  0.1578
  256MOL0     C35225   4.459   4.550   1.356  0.4621  0.4405 -0.1670
  256MOL0     O35226   4.590   4.569   1.386 -0.1750 -0.1093 -0.7100
  256MOL0     C35227   4.649   4.689   1.352  0.2307 -0.4197  0.0568
  256MOL0     C35228   4.800   4.665   1.389 -0.4745  0.1813  0.3202
  256MOL0     C35229   4.863   4.552   1.293  0.8598  0.5819  0.0699
  256MOL0     C35230   5.013   4.538   1.319 -0.5718 -0.1856 -0.5445
  256MOL0     C35231   5.093   4.651   1.238 -0.2146  0.2821 -0.5795
  256MOL0     C35232   5.222   4.692   1.300 -0.0043  0.3711 -0.2656
  256MOL0     C35233   5.206   4.741   1.446  0.3536  0.3053 -0.0246
  256MOL0     C35234   5.337   4.814   1.474 -0.3518 -0.7546  0.3986
  256MOL0    Cl35235   5.313   4.977   1.394  0.3494  0.2261  0.4416
  256MOL0     C35236   4.437   4.460   1.252  0.6241 -0.2057  0.5775
  256MOL0     C35237   4.306   4.413   1.222  0.5117  0.4610  0.0778
  256MOL0     O35238   3.984   4.640   1.210 -0.3771  0.3735  0.0243
  256MOL0     C35239   3.817   4.354   1.157 -0.4601  0.1612  0.1857
  256MOL0     C35240   3.708   4.300   1.089 -0.2837  0.2771  0.8739
  256MOL0     N35241   3.052   4.403   0.670  0.1410  0.2855  0.7079
  256MOL0     N35242   2.971   4.414   0.780  0.4928  0.9986 -0.1481
  256MOL0     C35243   3.692   5.117   1.249  1.8308  0.0779  0.5001
  256MOL0     C35244   3.722   5.258   1.263 -0.4022 -0.0448  0.1118
  256MOL0     C35245   3.874   5.657   1.337  0.1176  0.0452 -0.2352
  256MOL0     C35246   3.907   5.718   1.461 -1.1540 -0.4042 -0.1036
  256MOL0     C35247   3.878   5.848   1.492  0.0501  0.0053 -0.1054
  256MOL0     C35248   3.814   5.930   1.399 -0.4492  0.5495  0.5323
  256MOL0     O35249   3.790   6.060   1.429  0.2840 -0.0226  0.1868
  256MOL0     C35250   3.760   6.100   1.563  0.1420 -0.6274 -0.7828
  256MOL0     C35251   3.689   6.237   1.544  0.0502 -0.4922 -0.5230
  256MOL0     C35252   3.537   6.231   1.510 -1.0192 -0.4333  0.9819
  256MOL0     C35253   3.436   6.258   1.617  0.0058 -0.5924 -0.1550
  256MOL0     C35254   3.431   6.144   1.712  0.4740 -0.4823  0.2264
  256MOL0     C35255   3.426   6.050   1.792 -0.2755  0.2134  0.5702
  256MOL0     C35256   3.804   5.885   1.270  0.9224 -0.2658  0.3768
  256MOL0     C35257   3.821   5.748   1.235  0.4337 -0.4186 -0.0816
  256MOL0     C35258   3.779   5.713   1.095 -0.4224 -0.0644 -0.2807
  256MOL0     H35259   3.994   5.258   1.064 -0.3669 -2.3369 -1.9378
  256MOL0     H35260   3.917   5.048   1.011 -0.5272  1.6249 -1.2054
  256MOL0     H35261   3.532   4.904   1.177  0.5756  0.9121  0.6273
  256MOL0     H35262   3.636   4.833   1.304 -0.5559 -0.1811  0.1633
  256MOL0     H35263   3.598   4.709   1.027  3.9666 -0.3064  1.0377
  256MOL0     H35264   3.648   4.624   1.172  0.8173 -0.7759 -3.0378
  256MOL0     H35265   3.406   4.670   1.276 -0.0812 -0.6288 -0.6790
  256MOL0     H35266   3.373   4.733   1.125 -0.9578  1.1969  2.6746
  256MOL0     H35267   3.428   4.515   1.016  2.6318  2.9387  0.3095
  256MOL0     H35268   3.469   4.450   1.184 -1.8390 -0.2319  1.0841
  256MOL0     H35269   3.235   4.473   1.237 -0.4246  0.8811  0.1201
  256MOL0     H35270   3.256   4.368   1.095  0.0388  0.5343 -1.6880
  256MOL0     H35271   3.150   4.661   1.114 -1.3495  0.9779  0.7789
  256MOL0     H35272   3.193   4.579   0.960 -3.1711  1.2387 -0.4520
  256MOL0     H35273   2.958   4.568   1.003  1.3682 -0.8414 -1.3535
  256MOL0     H35274   2.971   4.519   1.163  0.8690 -1.3679  0.3335
  256MOL0     H35275   3.049   4.276   1.062  2.7099  0.5582 -0.5084
  256MOL0     H35276   2.887   4.328   1.021  0.6968 -0.4556  1.8860
  256MOL0     H35277   3.227   4.253   0.904  0.4544  2.1291  0.7026
  256MOL0     H35278   3.215   4.299   0.517 -2.4214 -1.3981  1.6021
  256MOL0     H35279   3.314   4.199   0.630  1.9244  0.0737 -2.0968
  256MOL0     H35280   3.448   4.370   0.515  2.4759  2.7821  1.6534
  256MOL0     H35281   3.341   4.502   0.570  1.9631  0.9834  0.9845
  256MOL0     H35282   3.542   4.505   0.684 -0.3088  0.3934 -2.4608
  256MOL0     H35283   3.427   4.462   0.812 -0.5339 -1.9666  0.0599
  256MOL0     H35284   3.491   4.203   0.746  2.3496 -2.0128  1.5727
  256MOL0     H35285   3.641   4.274   0.697 -2.3037 -5.3906 -2.1926
  256MOL0     H35286   3.736   4.486   0.815 -2.2253  0.1959  0.9227
  256MOL0     H35287   3.967   4.595   0.799  0.4946  1.9743 -0.2622
  256MOL0     H35288   4.036   4.636   0.950 -0.8106  1.2132  2.4049
  256MOL0     H35289   3.883   4.713   0.907 -2.0319 -0.7072 -1.6354
  256MOL0     H35290   4.140   4.628   1.429  0.7416  0.8231  0.5937
  256MOL0     H35291   4.362   4.686   1.484 -0.1475  0.2037  0.0008
  256MOL0     H35292   4.616   4.717   1.251 -1.8100 -0.0495  0.7806
  256MOL0     H35293   4.599   4.771   1.404 -1.5467 -2.3809  1.6161
  256MOL0     H35294   4.846   4.762   1.367 -0.0821 -0.2746 -0.9647
  256MOL0     H35295   4.814   4.644   1.496 -1.2965 -3.0481 -0.0950
  256MOL0     H35296   4.855   4.589   1.191  1.3651  3.1904  0.9122
  256MOL0     H35297   4.815   4.454   1.296 -0.0673  0.9962  3.3791
  256MOL0     H35298   5.032   4.434   1.294 -0.2442 -0.6754  1.5951
  256MOL0     H35299   5.037   4.545   1.425 -0.7200 -0.3292 -0.5013
  256MOL0     H35300   5.110   4.631   1.132 -2.3779 -0.2655 -0.8553
  256MOL0     H35301   5.018   4.730   1.233  0.2758  0.7839 -0.0916
  256MOL0     H35302   5.253   4.772   1.232 -2.7962  0.9375 -0.9700
  256MOL0     H35303   5.292   4.607   1.303 -1.0304 -0.4795  0.0560
  256MOL0     H35304   5.179   4.659   1.512 -0.4312 -1.4791 -2.4270
  256MOL0     H35305   5.120   4.809   1.448  1.3875  1.6482  0.6032
  256MOL0     H35306   5.421   4.755   1.437 -0.8810 -0.5777 -1.1728
  256MOL0     H35307   5.352   4.832   1.581 -0.8368  2.1382  0.0571
  256MOL0     H35308   4.521   4.401   1.216 -0.7027 -2.3460  0.7873
  256MOL0     H35309   4.283   4.330   1.157 -2.2354  0.4015  0.9799
  256MOL0     H35310   3.840   4.315   1.256  0.5396  0.0218 -0.0828
  256MOL0     H35311   3.651   4.213   1.122 -0.1082 -0.9308 -1.7015
  256MOL0     H35312   3.617   5.082   1.319  1.3613  1.5071  0.7290
  256MOL0     H35313   3.673   5.336   1.321  1.9224  1.7528 -0.1730
  256MOL0     H35314   3.960   5.672   1.543  1.5501  0.7976 -1.0475
  256MOL0     H35315   3.885   5.873   1.597 -0.4753  3.5470 -0.7836
  256MOL0     H35316   3.694   6.030   1.615  0.0762 -0.3724 -0.5200
  256MOL0     H35317   3.855   6.104   1.617 -0.5648 -1.1735  0.5415
  256MOL0     H35318   3.747   6.297   1.473 -1.0383  1.4201  0.1278
  256MOL0     H35319   3.699   6.295   1.636 -0.3560 -0.0507 -0.7542
  256MOL0     H35320   3.523   6.315   1.442  2.3104 -1.3630 -1.1533
  256MOL0     H35321   3.518   6.141   1.451  0.4760  0.4470 -0.9591
  256MOL0     H35322   3.335   6.270   1.578 -1.3300 -3.5056  2.0148
  256MOL0     H35323   3.464   6.352   1.666 -0.4807 -0.9130  0.7580
  256MOL0     H35324   3.434   5.960   1.848  1.7009 -0.2746 -0.4120
  256MOL0     H35325   3.768   5.965   1.205  3.6887  2.1422  1.5471
  256MOL0     H35326   3.744   5.804   1.046 -1.3541 -0.5167 -0.4724
  256MOL0     H35327   3.865   5.687   1.033  2.3544  3.0671  1.8612
  256MOL0     H35328   3.702   5.635   1.099  1.7993 -2.3568  1.7832
  257MOL0     O35329   8.736  10.037   2.880 -0.1790  0.0710  0.0775
  257MOL0     C35330   8.817  10.068   2.974  0.8175 -0.4667  0.0622
  257MOL0     O35331   8.942  10.015   3.001 -0.5801  0.3150 -0.0830
  257MOL0     C35332   8.996   9.905   2.931 -0.9641 -0.2354 -0.4007
  257MOL0     C35333   9.089   9.833   3.011 -0.6426  0.0482 -0.9468
  257MOL0     C35334   9.148   9.720   2.969 -0.7993 -0.3374 -0.7473
  257MOL0     C35335   9.133   9.683   2.832  0.0676 -0.3220  0.1984
  257MOL0     O35336   9.210   9.586   2.776 -0.6296 -0.0110 -0.5351
  257MOL0     C35337   9.272   9.606   2.646  0.5405 -0.0086  0.2659
  257MOL0     C35338   9.390   9.506   2.648 -1.0951 -0.2738 -0.0392
  257MOL0     C35339   9.336   9.362   2.652 -0.2293  0.4221 -1.1015
  257MOL0     C35340   9.451   9.269   2.704 -0.0847 -0.9984  0.2637
  257MOL0     C35341   9.532   9.249   2.582  0.7842  0.3904 -0.6914
  257MOL0     C35342   9.654   9.158   2.613 -0.4819  0.2178 -0.6688
  257MOL0     C35343   9.755   9.204   2.722  0.7526  0.1704 -0.0426
  257MOL0     C35344   9.825   9.338   2.683  0.1589 -0.1146 -0.1964
  257MOL0     N35345   9.929   9.369   2.777  0.8630 -0.2580  0.8200
  257MOL0     C35346   9.914   9.443   2.891  0.9476 -0.4601  0.2980
  257MOL0     C35347  10.036   9.462   2.942  0.0060  0.0364  0.0038
  257MOL0     C35348  10.083   9.525   3.061  0.0548 -0.4151 -0.1002
  257MOL0     C35349  10.174   9.650   3.023 -0.2952 -0.5074 -0.1399
  257MOL0     C35350  10.191   9.728   3.158  1.2344 -0.7892 -0.4329
  257MOL0     C35351  10.244   9.868   3.135  0.0118  0.4463 -0.9174
  257MOL0     O35352  10.301   9.929   3.247 -0.3271  0.7390 -0.2210
  257MOL0     C35353  10.423   9.883   3.296  0.0471  0.9113  0.0376
  257MOL0     C35354  10.431   9.864   3.435 -0.3402 -0.4877  0.0511
  257MOL0     C35355  10.545   9.802   3.503 -0.2560  0.7490 -0.7911
  257MOL0     C35356  10.548   9.802   3.654  0.0374 -0.5282  0.0965
  257MOL0     C35357  10.660   9.777   3.428 -0.5076 -0.0066  0.5277
  257MOL0     C35358  10.797   9.763   3.490  0.4398  0.7209  0.0763
  257MOL0     O35359  10.827   9.808   3.615  0.7098  0.9989 -0.4270
  257MOL0     C35360  10.955   9.813   3.666  0.0593 -0.0633  0.3083
  257MOL0     C35361  11.069   9.826   3.579  0.3559 -0.6313  0.0989
  257MOL0     C35362  11.193   9.840   3.636 -0.4273 -0.8953  0.2539
  257MOL0     C35363  11.210   9.829   3.781 -0.1439 -0.8901 -0.2384
  257MOL0     O35364  11.331   9.851   3.841 -0.5705 -0.3355  0.1516
  257MOL0     C35365  11.460   9.839   3.769  0.4868 -0.1087 -0.3245
  257MOL0     C35366  11.581   9.860   3.869  0.4505 -0.2310  0.3749
  257MOL0     C35367  11.724   9.867   3.803  0.3287 -0.4213  0.4926
  257MOL0     C35368  11.819   9.878   3.914  0.4089 -0.1232 -0.4006
  257MOL0     C35369  11.953   9.827   3.860 -0.3257  0.0036  0.4663
  257MOL0     C35370  12.068   9.851   3.959  0.7167  0.0102 -0.8108
  257MOL0     C35371  12.195   9.786   3.900 -0.4602  0.7050 -0.3472
  257MOL0     C35372  12.320   9.869   3.940 -0.2346  0.3112  0.5237
  257MOL0    Cl35373  12.346   9.865   4.110  0.0780 -0.6065 -0.1416
  257MOL0     C35374  11.096   9.813   3.861  0.9828  0.3051  0.5456
  257MOL0     C35375  10.968   9.805   3.803  0.2122  0.3756 -1.0826
  257MOL0     O35376  10.864   9.693   3.421 -0.6105 -0.2575 -0.1821
  257MOL0     C35377  10.656   9.789   3.286  1.1324  0.4387 -0.5840
  257MOL0     C35378  10.536   9.835   3.227  0.5020 -0.0731  1.0531
  257MOL0     N35379  10.128   9.379   2.867 -0.4088 -0.8579 -0.3757
  257MOL0     N35380  10.062   9.325   2.771 -0.0249 -0.2283 -0.1771
  257MOL0     C35381   9.044   9.754   2.746 -0.0429  0.3496 -0.7407
  257MOL0     C35382   8.979   9.870   2.793 -0.2285  0.0977 -0.5787
  257MOL0     C35383   8.741  10.152   3.064 -0.1837 -1.1910 -0.0510
  257MOL0     C35384   8.644  10.244   3.016 -0.3738  1.2889 -0.5538
  257MOL0     C35385   8.564  10.313   3.109  0.1789  0.6872 -0.5128
  257MOL0     C35386   8.578  10.291   3.250  0.6710  0.0027 -0.0661
  257MOL0     O35387   8.474  10.339   3.329 -0.4331 -0.3527 -0.1276
  257MOL0     C35388   8.451  10.275   3.456 -0.0062  0.1174 -0.7928
  257MOL0     C35389   8.343  10.360   3.519 -0.0225 -0.5324 -0.3036
  257MOL0     C35390   8.297  10.310   3.654  0.2747 -0.9563  0.0496
  257MOL0     C35391   8.221  10.181   3.661 -0.0940  0.9758  0.1888
  257MOL0     C35392   8.089  10.185   3.598  0.1238 -0.5341  0.5347
  257MOL0     C35393   7.980  10.187   3.542 -0.3443 -0.1018 -0.4046
  257MOL0     C35394   8.687  10.226   3.295 -0.1433  0.0079  0.2628
  257MOL0     C35395   8.762  10.137   3.201  0.4404 -0.2835 -0.1863
  257MOL0     C35396   8.838  10.032   3.277 -0.5976  0.2752 -0.2712
  257MOL0     H35397   9.108   9.857   3.115 -1.3723  0.2748 -0.8646
  257MOL0     H35398   9.224   9.669   3.027 -0.1425  0.8197 -0.5693
  257MOL0     H35399   9.309   9.706   2.624  0.7857  0.4184  2.4275
  257MOL0     H35400   9.208   9.576   2.562  0.8165  0.5947 -0.1603
  257MOL0     H35401   9.448   9.520   2.556  0.3828 -0.8600  0.7839
  257MOL0     H35402   9.456   9.533   2.730 -2.5078  1.7189  0.5278
  257MOL0     H35403   9.263   9.340   2.730 -0.0782 -0.1381 -1.1165
  257MOL0     H35404   9.305   9.317   2.558 -1.1198  0.5828 -0.8870
  257MOL0     H35405   9.499   9.319   2.789  0.8901 -0.2051 -0.7217
  257MOL0     H35406   9.408   9.172   2.729  1.3612 -1.7730 -0.1474
  257MOL0     H35407   9.557   9.347   2.539 -2.4586  1.5525 -0.2003
  257MOL0     H35408   9.471   9.200   2.507 -0.9725 -0.4580  1.2005
  257MOL0     H35409   9.622   9.058   2.645 -4.1932  1.8542  1.3126
  257MOL0     H35410   9.703   9.145   2.516 -0.7384  0.4871 -0.8370
  257MOL0     H35411   9.832   9.126   2.733 -0.8156 -1.1668  2.6032
  257MOL0     H35412   9.718   9.196   2.825  3.8883 -2.4993  1.0591
  257MOL0     H35413   9.865   9.328   2.582  1.8182 -0.1858  0.4368
  257MOL0     H35414   9.753   9.420   2.690  0.6474  0.3691 -0.7978
  257MOL0     H35415   9.827   9.502   2.921  0.2364 -1.3713  0.0833
  257MOL0     H35416  10.143   9.450   3.113  0.1504 -0.4262 -0.2240
  257MOL0     H35417   9.999   9.558   3.122 -0.2499 -0.6530 -0.3872
  257MOL0     H35418  10.272   9.623   2.983 -0.4798  1.4660 -2.0851
  257MOL0     H35419  10.129   9.714   2.946 -0.7962 -0.7518 -0.0510
  257MOL0     H35420  10.091   9.752   3.195  1.1498 -1.7131 -0.0297
  257MOL0     H35421  10.255   9.679   3.233  0.7756 -0.3409  0.2617
  257MOL0     H35422  10.322   9.867   3.058 -1.3745  2.5200 -2.4580
  257MOL0     H35423  10.159   9.927   3.099 -1.3981  0.2556  1.8565
  257MOL0     H35424  10.340   9.876   3.492 -1.2055 -1.8739 -0.9760
  257MOL0     H35425  10.447   9.790   3.693 -0.6538  4.0928  0.1682
  257MOL0     H35426  10.584   9.898   3.691  0.8875  0.3412 -2.6968
  257MOL0     H35427  10.610   9.720   3.693 -0.8791 -2.1885 -1.7317
  257MOL0     H35428  11.064   9.848   3.472 -0.0233  0.7096  0.3822
  257MOL0     H35429  11.272   9.842   3.561 -0.6434  3.0311 -0.0709
  257MOL0     H35430  11.471   9.734   3.738 -0.3989 -1.0890  2.3941
  257MOL0     H35431  11.457   9.910   3.686 -1.4998  1.5238  1.0232
  257MOL0     H35432  11.556   9.940   3.939 -0.2389 -0.1489  0.0380
  257MOL0     H35433  11.584   9.767   3.926 -1.2440 -1.5941 -1.6316
  257MOL0     H35434  11.742   9.947   3.731  0.1762  1.2680  2.2470
  257MOL0     H35435  11.751   9.775   3.751  3.4822  1.3343 -1.2399
  257MOL0     H35436  11.797   9.811   3.998  0.8036 -2.6858 -2.2423
  257MOL0     H35437  11.815   9.980   3.955  0.3370  0.1108 -0.9906
  257MOL0     H35438  11.948   9.721   3.836  1.5624  0.0557 -0.3297
  257MOL0     H35439  11.972   9.872   3.762 -1.8583  3.9005  1.7410
  257MOL0     H35440  12.038   9.787   4.043 -0.5803 -0.0388 -1.2821
  257MOL0     H35441  12.077   9.953   3.998  1.2254 -0.4004  0.1538
  257MOL0     H35442  12.194   9.777   3.791 -1.3790 -0.9030 -0.2247
  257MOL0     H35443  12.214   9.687   3.942  2.3263  0.6435 -1.5811
  257MOL0     H35444  12.304   9.973   3.909  2.4414  0.1641 -1.6547
  257MOL0     H35445  12.409   9.826   3.893 -0.9951  0.1714 -0.8434
  257MOL0     H35446  11.086   9.810   3.969 -2.8555 -0.1677  0.3245
  257MOL0     H35447  10.881   9.779   3.861  0.8359  1.8288  0.5855
  257MOL0     H35448  10.749   9.775   3.232  0.7873  1.0574 -1.3698
  257MOL0     H35449  10.526   9.836   3.119 -2.1727  2.3137  1.2069
  257MOL0     H35450   9.016   9.714   2.649  0.9779 -1.0357 -0.4940
  257MOL0     H35451   8.920   9.922   2.718 -0.0941  1.0294 -0.0588
  257MOL0     H35452   8.629  10.257   2.909 -2.4897  3.2150 -0.1028
  257MOL0     H35453   8.497  10.389   3.069  0.0245 -0.2113 -2.0309
  257MOL0     H35454   8.421  10.173   3.431  3.1431 -0.7404 -1.5301
  257MOL0     H35455   8.541  10.270   3.519 -0.0489 -1.0405 -0.7974
  257MOL0     H35456   8.260  10.378   3.450 -0.7190 -1.8307  0.1545
  257MOL0     H35457   8.393  10.455   3.539  6.1610 -3.5062  0.6984
  257MOL0     H35458   8.390  10.296   3.709  0.2983  2.3131  1.0352
  257MOL0     H35459   8.236  10.395   3.685  0.0694 -1.2805  0.5551
  257MOL0     H35460   8.211  10.156   3.767  1.1611  2.9143  0.8215
  257MOL0     H35461   8.283  10.098   3.623 -0.3671 -1.2816  4.1208
  257MOL0     H35462   7.878  10.168   3.515 -0.7870  0.3928  0.8575
  257MOL0     H35463   8.689  10.222   3.403 -0.7227 -2.4010  0.2654
  257MOL0     H35464   8.940  10.071   3.289  0.3508 -2.5866  2.4815
  257MOL0     H35465   8.796  10.004   3.374 -0.4931 -1.8928 -0.8089
  257MOL0     H35466   8.841   9.941   3.217 -1.0163 -0.8956  1.4004
  258MOL0     O35467   8.686  11.221   9.454  0.1010  0.6006  0.0139
  258MOL0     C35468   8.787  11.179   9.525  0.4648 -0.2633  0.6773
  258MOL0     O35469   8.916  11.190   9.482  0.2822 -0.1258  0.8870
  258MOL0     C35470   8.941  11.217   9.347 -0.2461  0.0040  0.2736
  258MOL0     C35471   8.869  11.305   9.268  0.5352  0.5967 -0.5233
  258MOL0     C35472   8.903  11.334   9.137  0.4498 -1.4437 -0.0454
  258MOL0     C35473   9.016  11.278   9.082 -0.3743  0.6262 -0.0627
  258MOL0     O35474   9.073  11.298   8.958 -0.0327  0.0741 -1.1898
  258MOL0     C35475   9.002  11.366   8.858  0.1917 -0.7222  0.0569
  258MOL0     C35476   9.012  11.521   8.876 -0.0955  0.3885 -0.1264
  258MOL0     C35477   9.152  11.576   8.876 -0.7654  0.8363  0.5057
  258MOL0     C35478   9.159  11.722   8.900  0.6336  0.3843  0.3699
  258MOL0     C35479   9.297  11.784   8.944  0.8336  0.2643 -0.1701
  258MOL0     C35480   9.398  11.793   8.831  0.2262 -0.1272  0.5124
  258MOL0     C35481   9.404  11.919   8.735  0.3356  0.2829  0.8403
  258MOL0     C35482   9.458  12.050   8.798 -0.4867 -0.3287  0.3162
  258MOL0     N35483   9.595  12.039   8.841 -0.2946 -0.8130 -0.5851
  258MOL0     C35484   9.709  12.023   8.771  0.4418  0.5647  0.5189
  258MOL0     C35485   9.790  11.958   8.861 -0.8839 -0.7606  0.1215
  258MOL0     C35486   9.934  11.895   8.821  0.2653 -0.3611 -0.6413
  258MOL0     C35487  10.021  11.904   8.944  0.4218 -0.5618 -1.0346
  258MOL0     C35488  10.170  11.927   8.914  0.5098  0.7262 -0.4987
  258MOL0     C35489  10.244  11.896   9.039 -1.4953 -0.0185 -0.7519
  258MOL0     O35490  10.380  11.857   9.008  0.4817 -0.0921 -0.0256
  258MOL0     C35491  10.477  11.955   8.988  0.0494  0.0374 -0.1925
  258MOL0     C35492  10.449  12.090   8.963  0.6185  0.0415  0.1633
  258MOL0     C35493  10.551  12.183   8.938 -0.4635  0.5066  0.0893
  258MOL0     C35494  10.494  12.328   8.910 -0.0553  1.6964  0.1915
  258MOL0     C35495  10.689  12.137   8.937 -0.0391 -0.4325 -0.5347
  258MOL0     C35496  10.796  12.239   8.908 -0.2611 -0.3379 -0.7441
  258MOL0     O35497  10.919  12.189   8.894  1.0102  0.2752 -0.4381
  258MOL0     C35498  11.017  12.281   8.860 -0.6517 -0.2966  0.7123
  258MOL0     C35499  11.026  12.346   8.733  0.3759 -0.9388 -0.3599
  258MOL0     C35500  11.138  12.435   8.720  0.1244  0.4503  0.1246
  258MOL0     C35501  11.233  12.449   8.820  0.5247  0.5196  0.2512
  258MOL0     O35502  11.351  12.514   8.798  0.3119  0.1661  0.0158
  258MOL0     C35503  11.354  12.613   8.692  0.8215  0.2732 -0.5105
  258MOL0     C35504  11.430  12.734   8.722  0.1654 -0.1173  0.2107
  258MOL0     C35505  11.558  12.697   8.791  0.2717  1.5062 -0.2239
  258MOL0     C35506  11.624  12.814   8.848  0.7858  1.0159 -0.5362
  258MOL0     C35507  11.761  12.788   8.906  0.5710 -0.2207  0.4302
  258MOL0     C35508  11.815  12.923   8.946  0.2361 -0.3414 -0.4192
  258MOL0     C35509  11.947  12.907   9.035  0.5735 -0.1435  1.0836
  258MOL0     C35510  11.997  13.043   9.094  0.1896  0.0673  0.4605
  258MOL0    Cl35511  12.043  13.154   8.968  0.0179  0.6146  0.2585
  258MOL0     C35512  11.209  12.391   8.946  0.2757  0.5331  0.0060
  258MOL0     C35513  11.102  12.306   8.962  0.4736  0.1066 -0.0615
  258MOL0     O35514  10.767  12.359   8.918 -0.1416  0.2822 -0.3124
  258MOL0     C35515  10.714  12.007   8.966 -0.3616  0.8490  1.1397
  258MOL0     C35516  10.608  11.917   8.985 -0.3399  0.5235  0.2341
  258MOL0     N35517   9.725  11.935   8.979  0.2133 -0.5360 -0.0943
  258MOL0     N35518   9.616  12.002   8.968 -0.0594 -0.0658  0.3988
  258MOL0     C35519   9.079  11.179   9.162  0.7205  0.5362  0.7009
  258MOL0     C35520   9.043  11.147   9.291  1.4980 -0.5903  0.2666
  258MOL0     C35521   8.773  11.153   9.669  0.0848  0.0178 -0.6064
  258MOL0     C35522   8.887  11.116   9.746 -0.2856  0.2078  0.4228
  258MOL0     C35523   8.888  11.109   9.885 -0.5162  0.6910 -0.0127
  258MOL0     C35524   8.771  11.138   9.957  0.5721  0.1499  0.9163
  258MOL0     O35525   8.748  11.123  10.093 -0.9714  0.2635  0.0568
  258MOL0     C35526   8.871  11.109  10.166  0.2581  0.9427 -0.3239
  258MOL0     C35527   8.855  11.133  10.314  0.4064 -0.6342 -0.1553
  258MOL0     C35528   8.988  11.107  10.392  0.4803 -0.3096  0.2226
  258MOL0     C35529   9.094  11.220  10.396  1.0614  0.0024  0.2053
  258MOL0     C35530   9.057  11.335  10.476 -0.9550  0.1522  0.2146
  258MOL0     C35531   9.008  11.423  10.540  0.2154 -0.4986 -0.1512
  258MOL0     C35532   8.659  11.169   9.877  0.0036 -1.6444 -1.0726
  258MOL0     C35533   8.655  11.163   9.740 -0.2708  0.3386  0.3079
  258MOL0     C35534   8.520  11.168   9.691 -0.7561 -0.3665  0.0934
  258MOL0     H35535   8.793  11.374   9.303 -0.4207 -0.0309 -1.3079
  258MOL0     H35536   8.863  11.426   9.096  2.7375 -0.3739 -0.0172
  258MOL0     H35537   8.897  11.337   8.860 -0.0757 -0.0991 -2.2934
  258MOL0     H35538   9.054  11.338   8.766 -0.1026 -1.2564  0.0545
  258MOL0     H35539   8.954  11.564   8.793  0.8245  1.1835 -0.3725
  258MOL0     H35540   8.970  11.543   8.974  0.2650 -1.0623  0.3785
  258MOL0     H35541   9.205  11.525   8.957 -2.6023  0.6492  1.6421
  258MOL0     H35542   9.187  11.549   8.776  2.3020  2.6184  0.9807
  258MOL0     H35543   9.140  11.774   8.806  1.1660  0.3494  0.2408
  258MOL0     H35544   9.077  11.750   8.968 -1.7632 -3.5121 -0.6204
  258MOL0     H35545   9.343  11.722   9.021  1.4910  1.5015  0.4542
  258MOL0     H35546   9.272  11.882   8.985 -2.2402 -1.0983  1.5244
  258MOL0     H35547   9.495  11.779   8.880 -0.9574  0.7097  3.3430
  258MOL0     H35548   9.375  11.708   8.766 -0.5560  0.1733  0.3846
  258MOL0     H35549   9.304  11.935   8.693  0.7852 -0.6169 -0.6529
  258MOL0     H35550   9.467  11.889   8.650 -2.4550  0.9492 -1.6338
  258MOL0     H35551   9.447  12.135   8.729 -2.5213 -0.6302  0.2181
  258MOL0     H35552   9.399  12.074   8.887  0.2448 -0.9018  0.9642
  258MOL0     H35553   9.709  12.047   8.665 -4.8354  0.7525  0.2898
  258MOL0     H35554   9.975  11.957   8.740 -0.7744  0.7485 -0.3394
  258MOL0     H35555   9.939  11.793   8.781  0.7643 -0.5049 -0.2253
  258MOL0     H35556   9.987  11.989   9.004 -2.0578 -2.6435  0.7381
  258MOL0     H35557  10.005  11.813   9.002  1.8478  0.0356  0.3795
  258MOL0     H35558  10.188  11.858   8.830 -0.5861 -1.6683  1.1178
  258MOL0     H35559  10.189  12.029   8.880  0.7454  0.9028  0.1557
  258MOL0     H35560  10.258  11.981   9.106  0.4340 -0.9892  0.1545
  258MOL0     H35561  10.198  11.812   9.092 -0.4189  0.8955  1.7737
  258MOL0     H35562  10.349  12.131   8.974 -0.3341 -2.4296  1.3439
  258MOL0     H35563  10.386  12.337   8.915 -0.0592  1.4364  0.7488
  258MOL0     H35564  10.537  12.369   8.818 -1.3038  0.6272 -0.8963
  258MOL0     H35565  10.534  12.387   8.994  0.2240 -0.4238  1.6188
  258MOL0     H35566  10.957  12.343   8.649  0.3776  2.4765 -0.6343
  258MOL0     H35567  11.148  12.478   8.621 -0.6888 -2.2296 -1.2278
  258MOL0     H35568  11.406  12.577   8.603  1.2118 -0.4374 -0.0052
  258MOL0     H35569  11.252  12.642   8.665  0.0510 -0.6079  1.2767
  258MOL0     H35570  11.458  12.794   8.635 -1.1678  2.7898  1.6269
  258MOL0     H35571  11.360  12.803   8.771 -2.9040 -2.7352 -0.1111
  258MOL0     H35572  11.634  12.670   8.718  1.9285  2.3461  1.1308
  258MOL0     H35573  11.543  12.621   8.867  0.9875  0.0697 -1.4740
  258MOL0     H35574  11.561  12.861   8.925  2.0574 -0.0194  1.2202
  258MOL0     H35575  11.634  12.893   8.773 -0.6008  2.3838  0.6340
  258MOL0     H35576  11.761  12.714   8.987 -4.6155  0.0718  1.0339
  258MOL0     H35577  11.824  12.749   8.825 -0.8196 -1.8845  0.0808
  258MOL0     H35578  11.746  12.986   9.003 -2.1109 -2.2205 -1.0295
  258MOL0     H35579  11.847  12.981   8.859  4.9115 -1.5049  0.2900
  258MOL0     H35580  12.031  12.874   8.973  2.6552 -0.1903  3.7729
  258MOL0     H35581  11.931  12.833   9.114  3.1381 -0.3889  1.4524
  258MOL0     H35582  12.088  13.028   9.153  2.2356 -1.2277 -2.7485
  258MOL0     H35583  11.915  13.087   9.150 -0.9789 -0.1333 -1.0425
  258MOL0     H35584  11.289  12.393   9.020  1.8091 -0.2298 -1.5359
  258MOL0     H35585  11.093  12.240   9.048  0.0319 -0.8289 -0.8073
  258MOL0     H35586  10.815  11.970   8.948 -1.6497 -2.0906 -0.7419
  258MOL0     H35587  10.632  11.812   8.997 -1.5175  0.0801 -1.0510
  258MOL0     H35588   9.160  11.124   9.116  0.4956  1.6427 -1.1024
  258MOL0     H35589   9.093  11.073   9.352 -0.9665  0.7394  4.3794
  258MOL0     H35590   8.977  11.084   9.695 -1.0879  0.6391 -1.3250
  258MOL0     H35591   8.986  11.077   9.920 -0.1046  3.9342  2.2677
  258MOL0     H35592   8.906  11.007  10.146 -1.4521  0.4108 -0.7621
  258MOL0     H35593   8.949  11.176  10.127 -2.1520  3.2616 -1.4480
  258MOL0     H35594   8.775  11.065  10.348 -1.0597  0.8332 -0.5583
  258MOL0     H35595   8.832  11.236  10.342  2.0238 -0.3833  0.3501
  258MOL0     H35596   8.956  11.092  10.495  0.1064  0.2383  0.1906
  258MOL0     H35597   9.033  11.013  10.359  1.8146 -0.0737  1.2910
  258MOL0     H35598   9.122  11.251  10.295  0.9521  2.6902  0.9406
  258MOL0     H35599   9.178  11.172  10.448  0.9009 -0.4267  0.0782
  258MOL0     H35600   8.960  11.500  10.596  0.0114 -1.2109  0.6846
  258MOL0     H35601   8.574  11.188   9.942  1.1799 -1.0124  0.3249
  258MOL0     H35602   8.489  11.272   9.680  3.5297  1.2421  1.3715
  258MOL0     H35603   8.508  11.123   9.591 -1.6492 -1.3035  0.5986
  258MOL0     H35604   8.442  11.118   9.748 -0.2985 -0.6173  0.5059
  259MOL0     O35605   3.615   6.524   9.930  0.1065  0.6658  0.1912
  259MOL0     C35606   3.694   6.520  10.020  0.0274 -0.2161  0.2139
  259MOL0     O35607   3.675   6.481  10.153  0.2895 -0.0815  0.9323
  259MOL0     C35608   3.573   6.415  10.201  0.4401 -0.4483 -1.1699
  259MOL0     C35609   3.504   6.453  10.314  0.6101  0.1957 -0.1301
  259MOL0     C35610   3.422   6.363  10.381  0.2351 -0.3731 -0.1118
  259MOL0     C35611   3.384   6.239  10.323  0.2406 -0.7218  0.1408
  259MOL0     O35612   3.305   6.156  10.388  0.1085 -0.3185  0.0085
  259MOL0     C35613   3.324   6.010  10.374  0.2997  0.1027  0.0553
  259MOL0     C35614   3.250   5.940  10.477  0.0450  0.4892  0.2748
  259MOL0     C35615   3.255   5.792  10.467  0.0836  0.0777  0.0476
  259MOL0     C35616   3.174   5.732  10.573  0.2764  0.9258  0.0521
  259MOL0     C35617   3.168   5.581  10.556 -0.5423 -0.3867 -0.1480
  259MOL0     C35618   3.055   5.512  10.646  0.9260  0.2300  0.1254
  259MOL0     C35619   3.073   5.353  10.637 -0.5147  0.3307 -0.1855
  259MOL0     C35620   2.954   5.271  10.683 -0.1321 -0.3790  0.0848
  259MOL0     N35621   2.928   5.291  10.830 -0.6941 -0.0009 -0.1371
  259MOL0     C35622   2.987   5.224  10.942  0.1574  0.5120 -0.3726
  259MOL0     C35623   2.938   5.293  11.048  0.7483 -0.7651 -0.2860
  259MOL0     C35624   3.003   5.276  11.185  0.7247 -0.7989  0.4145
  259MOL0     C35625   3.144   5.347  11.201  0.7497  0.0617 -0.0239
  259MOL0     C35626   3.196   5.306  11.339  0.0343  0.3327 -0.0436
  259MOL0     C35627   3.340   5.357  11.364 -1.3563  1.0833 -0.3862
  259MOL0     O35628   3.426   5.329  11.246  0.0327  0.3897  0.0743
  259MOL0     C35629   3.560   5.350  11.250  0.3594  0.6211 -0.5555
  259MOL0     C35630   3.636   5.420  11.353  0.8744 -0.8281  0.9215
  259MOL0     C35631   3.772   5.426  11.353 -0.9758  0.3044 -0.4836
  259MOL0     C35632   3.832   5.482  11.484 -0.4493  0.0644 -0.5115
  259MOL0     C35633   3.841   5.365  11.249  0.1909 -0.1621  0.5609
  259MOL0     C35634   3.996   5.348  11.242  0.7226 -0.6241 -0.2313
  259MOL0     O35635   4.063   5.338  11.118 -0.3305 -0.1664 -0.4537
  259MOL0     C35636   4.198   5.333  11.135 -0.1878  0.8948  0.0348
  259MOL0     C35637   4.270   5.220  11.153  0.6414  0.2737  1.2010
  259MOL0     C35638   4.413   5.222  11.166 -0.0940  0.0485  1.0843
  259MOL0     C35639   4.479   5.344  11.148  0.5609 -0.9333  0.7681
  259MOL0     O35640   4.613   5.372  11.153  0.0385 -0.6567 -0.5967
  259MOL0     C35641   4.696   5.300  11.248  0.3501 -0.5929 -0.4854
  259MOL0     C35642   4.727   5.385  11.368 -0.2144  0.4912 -0.4600
  259MOL0     C35643   4.828   5.323  11.464 -0.3385  0.6602  0.9842
  259MOL0     C35644   4.889   5.423  11.566  0.5660 -0.6708 -0.6097
  259MOL0     C35645   4.789   5.428  11.684 -1.5615 -0.5739 -0.5557
  259MOL0     C35646   4.814   5.550  11.769  0.3921 -0.4550  0.2505
  259MOL0     C35647   4.698   5.556  11.876  0.1154  0.3519 -0.2757
  259MOL0     C35648   4.708   5.685  11.959 -0.1473 -0.0462 -0.5323
  259MOL0    Cl35649   4.572   5.725  12.071 -0.0071 -0.2064 -0.2719
  259MOL0     C35650   4.406   5.465  11.142 -0.2520  0.0511 -0.2155
  259MOL0     C35651   4.267   5.460  11.135 -0.0223  0.3319 -0.1531
  259MOL0     O35652   4.058   5.342  11.349 -0.0101  0.0668 -0.7835
  259MOL0     C35653   3.773   5.301  11.145  0.8349  0.3474 -0.2509
  259MOL0     C35654   3.631   5.292  11.148 -0.6126  0.3643 -0.7826
  259MOL0     N35655   2.866   5.402  11.008 -0.4589  0.4543 -0.0260
  259MOL0     N35656   2.870   5.398  10.883 -0.2873  0.2848 -0.0322
  259MOL0     C35657   3.444   6.204  10.203 -0.5491 -0.0435  0.5653
  259MOL0     C35658   3.535   6.293  10.144 -0.5065 -0.4323 -0.1410
  259MOL0     C35659   3.818   6.595   9.987  0.7672  0.7789  0.2010
  259MOL0     C35660   3.863   6.674  10.087  0.7148 -0.0410 -0.4113
  259MOL0     C35661   3.980   6.755  10.075  0.1195 -0.7898  0.1208
  259MOL0     C35662   4.058   6.732   9.960 -0.0216 -0.4982  0.0455
  259MOL0     O35663   4.167   6.810   9.942  0.1790  0.1879 -0.8861
  259MOL0     C35664   4.229   6.838   9.819  1.2711 -0.6235  0.7165
  259MOL0     C35665   4.342   6.735   9.791  0.5619  0.5557 -1.3774
  259MOL0     C35666   4.404   6.726   9.650  0.1383  0.3695 -0.2625
  259MOL0     C35667   4.532   6.794   9.636  1.1379  0.5603 -0.1895
  259MOL0     C35668   4.519   6.932   9.657 -0.2300  0.0181  0.7303
  259MOL0     C35669   4.510   7.049   9.659 -0.0494 -0.0679  0.3944
  259MOL0     C35670   4.015   6.651   9.859  0.4737 -0.6674  0.4705
  259MOL0     C35671   3.894   6.581   9.868  0.4955  0.3017 -0.8103
  259MOL0     C35672   3.850   6.501   9.746  0.5308  0.1620 -0.4831
  259MOL0     H35673   3.541   6.542  10.364  1.6520 -0.9506  1.2263
  259MOL0     H35674   3.389   6.394  10.480  3.7186 -1.3146  1.5010
  259MOL0     H35675   3.432   5.990  10.373  0.0921 -1.1403 -1.4365
  259MOL0     H35676   3.292   5.974  10.275 -0.3887 -0.5825  0.5156
  259MOL0     H35677   3.274   5.975  10.577  0.0076  0.0088  0.4537
  259MOL0     H35678   3.146   5.973  10.466  0.2969  1.5641  1.0473
  259MOL0     H35679   3.219   5.756  10.371  1.0505  0.6092 -0.5313
  259MOL0     H35680   3.359   5.757  10.470 -0.0824 -0.4439 -0.3202
  259MOL0     H35681   3.220   5.749  10.670 -0.0224 -3.3430  1.1350
  259MOL0     H35682   3.071   5.768  10.562 -0.1097  0.1200  0.9134
  259MOL0     H35683   3.261   5.542  10.598 -1.3586  0.4537  2.7069
  259MOL0     H35684   3.161   5.557  10.450  0.1469  3.9344 -1.3410
  259MOL0     H35685   3.060   5.535  10.753 -0.1075 -0.6888  0.3953
  259MOL0     H35686   2.961   5.536  10.596  2.6406 -0.2168 -3.6249
  259MOL0     H35687   3.158   5.323  10.699 -1.6131  0.0976  1.2896
  259MOL0     H35688   3.097   5.330  10.533 -0.0059 -0.2650  0.0598
  259MOL0     H35689   2.864   5.288  10.623  0.4826  1.1043 -0.4672
  259MOL0     H35690   2.981   5.166  10.672 -0.6559 -0.3966 -1.2182
  259MOL0     H35691   3.066   5.151  10.954 -2.1276 -1.9491  0.5883
  259MOL0     H35692   3.007   5.173  11.224  1.0419  0.3665  3.8426
  259MOL0     H35693   2.933   5.330  11.249 -2.1350 -0.0653 -3.0261
  259MOL0     H35694   3.203   5.315  11.114 -1.3331 -0.7070 -1.2186
  259MOL0     H35695   3.142   5.456  11.201 -0.2615  0.0572 -0.6760
  259MOL0     H35696   3.115   5.352  11.397 -1.2719  0.8426 -2.1565
  259MOL0     H35697   3.191   5.198  11.354  2.3430  0.0380 -0.9567
  259MOL0     H35698   3.348   5.466  11.374  2.4262  0.8666  0.7915
  259MOL0     H35699   3.392   5.322  11.454 -0.5602  1.1124 -0.8223
  259MOL0     H35700   3.584   5.472  11.433  2.5561  0.6785  1.0936
  259MOL0     H35701   3.870   5.392  11.532  1.3606  1.4257  0.7602
  259MOL0     H35702   3.763   5.531  11.553  0.5349 -0.5110  0.9208
  259MOL0     H35703   3.908   5.559  11.463 -1.2677  0.5702 -1.7612
  259MOL0     H35704   4.214   5.128  11.140 -0.5617  1.3219 -2.1452
  259MOL0     H35705   4.466   5.128  11.174  0.6247  0.2861 -0.5250
  259MOL0     H35706   4.657   5.203  11.280  1.2643 -0.5490  0.8692
  259MOL0     H35707   4.791   5.268  11.204  0.3774 -1.9054  0.4619
  259MOL0     H35708   4.777   5.476  11.334 -1.0191  1.0240 -0.2280
  259MOL0     H35709   4.636   5.409  11.424 -1.8079 -2.6401 -1.4984
  259MOL0     H35710   4.913   5.286  11.405 -2.8796 -1.8321 -1.4102
  259MOL0     H35711   4.794   5.240  11.526 -1.4230  1.0061  0.8686
  259MOL0     H35712   4.914   5.527  11.542 -1.1339 -0.4256 -1.4408
  259MOL0     H35713   4.991   5.395  11.594  1.3430  1.6517 -0.8605
  259MOL0     H35714   4.690   5.415  11.639 -1.7532 -0.4335 -0.1869
  259MOL0     H35715   4.803   5.340  11.747 -0.2563 -1.3730 -1.9034
  259MOL0     H35716   4.804   5.637  11.702  1.1796 -1.6400 -1.4747
  259MOL0     H35717   4.911   5.560  11.819 -0.4163  3.0086  1.4342
  259MOL0     H35718   4.711   5.475  11.949 -1.5792  0.7989  0.5716
  259MOL0     H35719   4.601   5.546  11.828 -0.2353 -1.9942  0.7771
  259MOL0     H35720   4.720   5.773  11.896  0.7117 -1.0757 -1.8565
  259MOL0     H35721   4.805   5.683  12.010 -0.5761  4.0868  0.7713
  259MOL0     H35722   4.447   5.566  11.145 -2.2239  0.8995  1.6868
  259MOL0     H35723   4.215   5.555  11.134  1.8209  1.4053 -1.3193
  259MOL0     H35724   3.828   5.244  11.071 -1.8763  0.8500 -2.8254
  259MOL0     H35725   3.567   5.240  11.077 -0.8019  2.0902 -1.9331
  259MOL0     H35726   3.424   6.112  10.150  0.2039 -0.1102  0.3875
  259MOL0     H35727   3.583   6.272  10.049  1.9273  0.6378  0.7642
  259MOL0     H35728   3.803   6.678  10.177 -1.9138 -3.6818 -1.7611
  259MOL0     H35729   4.025   6.832  10.137  0.3968  0.5968 -1.7082
  259MOL0     H35730   4.155   6.838   9.739  0.0087 -0.3788  1.8576
  259MOL0     H35731   4.273   6.937   9.834  1.2394 -0.3746 -0.6896
  259MOL0     H35732   4.305   6.637   9.823  2.0796 -0.1282 -1.6554
  259MOL0     H35733   4.428   6.762   9.853  1.3050 -1.3099 -1.5361
  259MOL0     H35734   4.417   6.617   9.645  0.6887  0.3450  1.3009
  259MOL0     H35735   4.323   6.752   9.581 -0.3418 -0.2477  0.0493
  259MOL0     H35736   4.554   6.791   9.528 -0.5653  3.0195 -0.6968
  259MOL0     H35737   4.607   6.759   9.708  0.0569  3.2452  2.4501
  259MOL0     H35738   4.518   7.156   9.670 -0.8578  0.3026 -1.9242
  259MOL0     H35739   4.078   6.640   9.772 -1.0624 -1.7206 -0.5797
  259MOL0     H35740   3.823   6.398   9.768 -2.8206  1.0572  0.1120
  259MOL0     H35741   3.756   6.542   9.710  0.0580 -0.4934 -0.0240
  259MOL0     H35742   3.931   6.503   9.673  0.6980 -1.0838 -0.3478
  260MOL0     O35743   8.216  10.061   7.090 -0.2484  0.1395  0.3782
  260MOL0     C35744   8.168  10.030   6.984 -1.0875 -0.2232  0.0900
  260MOL0     O35745   8.031  10.023   6.954 -0.1792  0.0882  0.1597
  260MOL0     C35746   7.944  10.059   7.052 -0.4632 -0.3264 -0.6356
  260MOL0     C35747   7.955  10.195   7.105 -0.4699  0.7394 -0.1420
  260MOL0     C35748   7.855  10.239   7.196 -0.9132 -0.4189 -0.1368
  260MOL0     C35749   7.749  10.155   7.244  0.5096 -0.3839  0.0963
  260MOL0     O35750   7.651  10.196   7.324  0.3884 -0.9699  0.3020
  260MOL0     C35751   7.686  10.258   7.445 -0.1803  0.1038  0.7506
  260MOL0     C35752   7.574  10.309   7.524  0.1433  0.5860 -0.2597
  260MOL0     C35753   7.455  10.392   7.458  0.5553  0.2722  0.0343
  260MOL0     C35754   7.465  10.544   7.465 -0.3612 -0.9055  0.7477
  260MOL0     C35755   7.582  10.596   7.367  1.2193 -0.0454  0.9031
  260MOL0     C35756   7.529  10.599   7.224 -0.7124  1.6222 -0.4388
  260MOL0     C35757   7.638  10.665   7.137  0.0883 -0.1759  0.4100
  260MOL0     C35758   7.584  10.687   6.991  0.2614  0.1889 -0.2894
  260MOL0     N35759   7.613  10.821   6.923 -0.5267  0.8682  1.0287
  260MOL0     C35760   7.653  10.832   6.795  0.4475 -0.6354  0.6258
  260MOL0     C35761   7.675  10.969   6.772  0.8470 -0.7223  0.5734
  260MOL0     C35762   7.761  11.040   6.668  0.3219 -0.0296  0.4452
  260MOL0     C35763   7.887  10.953   6.669 -0.3708  0.4491  0.0130
  260MOL0     C35764   7.970  10.958   6.796 -0.0879  0.0253  0.1078
  260MOL0     C35765   8.074  10.846   6.766 -1.0246 -0.0872 -0.0370
  260MOL0     O35766   8.156  10.888   6.649  0.4561  0.0254 -0.0320
  260MOL0     C35767   8.284  10.839   6.634 -0.0045 -0.3938  0.2760
  260MOL0     C35768   8.352  10.878   6.516  0.7058 -0.5493 -0.0718
  260MOL0     C35769   8.474  10.825   6.484 -0.4662  0.2149 -0.1025
  260MOL0     C35770   8.525  10.869   6.352 -0.7844  0.6120 -0.2017
  260MOL0     C35771   8.532  10.742   6.580 -0.6052 -0.2886 -0.2223
  260MOL0     C35772   8.661  10.681   6.543 -0.2453  0.8869 -0.4659
  260MOL0     O35773   8.719  10.697   6.422  0.7297  0.0823 -0.0756
  260MOL0     C35774   8.799  10.605   6.359  0.2268  0.3450  1.3966
  260MOL0     C35775   8.886  10.514   6.416 -0.3399  0.0551 -0.1354
  260MOL0     C35776   8.964  10.422   6.341 -0.7306 -0.6864 -1.1025
  260MOL0     C35777   8.969  10.423   6.201 -1.1942 -0.2603 -0.1305
  260MOL0     O35778   9.049  10.341   6.118 -0.2310  0.0493 -0.3380
  260MOL0     C35779   9.178  10.296   6.176  0.2910 -0.3246 -0.3558
  260MOL0     C35780   9.269  10.424   6.176 -0.5299 -0.0555 -0.0480
  260MOL0     C35781   9.400  10.417   6.244 -0.6675  0.0577 -0.4573
  260MOL0     C35782   9.461  10.547   6.292 -1.1575 -0.0606  0.7443
  260MOL0     C35783   9.521  10.619   6.177 -0.1302 -0.1839  0.1665
  260MOL0     C35784   9.585  10.752   6.223  0.5292  0.4629 -0.7637
  260MOL0     C35785   9.494  10.849   6.298 -0.4148  0.1273 -0.3695
  260MOL0     C35786   9.554  10.981   6.319 -0.4234  1.2422  0.8330
  260MOL0    Cl35787   9.434  11.103   6.356  0.0660  0.2489  0.0145
  260MOL0     C35788   8.874  10.504   6.133  0.1434 -0.3999 -0.5550
  260MOL0     C35789   8.796  10.607   6.214 -0.5580  0.0120  0.7821
  260MOL0     O35790   8.719  10.617   6.632 -0.2592 -0.5929 -0.2562
  260MOL0     C35791   8.479  10.718   6.699  0.2875  0.0010  0.3845
  260MOL0     C35792   8.353  10.763   6.720  0.5346 -0.3845 -0.4572
  260MOL0     N35793   7.631  11.033   6.882  0.4193 -0.4611 -0.2785
  260MOL0     N35794   7.595  10.948   6.965  0.3314  0.3380 -0.2935
  260MOL0     C35795   7.735  10.033   7.179 -0.1367 -0.1034 -0.9470
  260MOL0     C35796   7.831   9.988   7.084 -0.6651 -0.6196 -0.2225
  260MOL0     C35797   8.265  10.011   6.871 -1.3974 -0.1055  0.5145
  260MOL0     C35798   8.213   9.993   6.744  0.3371  0.4712  0.3795
  260MOL0     C35799   8.291   9.943   6.640 -0.1829 -0.4782  0.2416
  260MOL0     C35800   8.426   9.916   6.658  0.2481 -0.6013  0.0531
  260MOL0     O35801   8.494   9.870   6.553 -0.0346  0.7210 -0.1958
  260MOL0     C35802   8.636   9.888   6.544 -1.0705  0.6010  0.4011
  260MOL0     C35803   8.690   9.851   6.403 -0.0184  0.6273 -1.4656
  260MOL0     C35804   8.843   9.865   6.412  0.3156 -1.1787  0.5814
  260MOL0     C35805   8.886  10.016   6.389  0.4319  0.6167  0.0508
  260MOL0     C35806   8.837  10.069   6.257  0.6858 -0.1408  0.8596
  260MOL0     C35807   8.774  10.115   6.160  0.1714 -0.2676  0.1371
  260MOL0     C35808   8.477   9.940   6.776 -0.7115  0.1008 -0.4069
  260MOL0     C35809   8.407   9.986   6.888  0.6458  0.8889 -0.1596
  260MOL0     C35810   8.486  10.011   7.015  0.1075  0.3336  0.1779
  260MOL0     H35811   8.045  10.247   7.073  0.8284  1.2531  3.8338
  260MOL0     H35812   7.864  10.345   7.217 -1.8427 -0.0947 -1.2356
  260MOL0     H35813   7.760  10.336   7.426  1.9078 -1.5519  1.6461
  260MOL0     H35814   7.744  10.186   7.504  0.1658 -1.1542 -1.0411
  260MOL0     H35815   7.524  10.214   7.543 -1.4820  0.9539 -2.3063
  260MOL0     H35816   7.609  10.360   7.614 -0.6738 -1.2700  1.1669
  260MOL0     H35817   7.445  10.359   7.354 -4.3082  0.1120  0.3452
  260MOL0     H35818   7.358  10.360   7.496 -0.0533  0.7762 -1.0466
  260MOL0     H35819   7.368  10.590   7.443 -0.5732 -2.2650 -1.3816
  260MOL0     H35820   7.480  10.574   7.570 -0.4178 -2.3377  1.1825
  260MOL0     H35821   7.669  10.530   7.371  2.8013  1.5831 -2.4833
  260MOL0     H35822   7.621  10.698   7.379  0.6583  0.5585 -1.6972
  260MOL0     H35823   7.493  10.504   7.181 -0.2911  1.4339 -0.3775
  260MOL0     H35824   7.451  10.675   7.222  0.0879  2.4376 -1.5038
  260MOL0     H35825   7.730  10.606   7.143  0.5237  0.4134 -0.2995
  260MOL0     H35826   7.658  10.768   7.170 -3.8882  0.4783  1.3203
  260MOL0     H35827   7.627  10.602   6.936  0.3299 -2.0834  2.9389
  260MOL0     H35828   7.477  10.670   7.000  0.3401 -0.1609  0.0116
  260MOL0     H35829   7.685  10.744   6.740  1.5657 -0.0475  0.3080
  260MOL0     H35830   7.784  11.141   6.702  1.4367  0.1308 -0.7022
  260MOL0     H35831   7.720  11.059   6.569  0.3174 -0.9426  0.2594
  260MOL0     H35832   7.868  10.847   6.648 -1.6986  0.3787  1.3983
  260MOL0     H35833   7.948  10.983   6.583 -1.8569  2.1197 -0.5105
  260MOL0     H35834   8.008  11.060   6.807 -4.0773  1.9887 -2.0707
  260MOL0     H35835   7.914  10.919   6.882 -1.4651 -0.8385 -1.1298
  260MOL0     H35836   8.140  10.840   6.853  1.2485  0.9854 -1.5861
  260MOL0     H35837   8.035  10.745   6.747 -0.1196 -0.4172 -0.2091
  260MOL0     H35838   8.301  10.946   6.449  0.2252  0.0319  0.8661
  260MOL0     H35839   8.529  10.790   6.276 -3.5632  0.7246 -0.5564
  260MOL0     H35840   8.626  10.910   6.361  1.3811 -3.1858 -3.4508
  260MOL0     H35841   8.460  10.947   6.312 -2.6301 -0.5414  0.4599
  260MOL0     H35842   8.909  10.499   6.521  2.7215 -1.3987 -0.8839
  260MOL0     H35843   9.029  10.346   6.383 -0.0544 -0.2521 -1.3568
  260MOL0     H35844   9.160  10.243   6.270  0.9981  0.4187  0.2165
  260MOL0     H35845   9.228  10.231   6.104  3.0576  1.9127 -0.6165
  260MOL0     H35846   9.276  10.457   6.071 -2.3825  0.5702 -0.0149
  260MOL0     H35847   9.209  10.495   6.233 -2.6910 -1.0605 -0.9668
  260MOL0     H35848   9.474  10.367   6.181  2.3890  1.5073  1.7200
  260MOL0     H35849   9.384  10.349   6.327 -1.8436 -1.5541 -1.9482
  260MOL0     H35850   9.550  10.525   6.352 -1.7369  0.2809  1.7625
  260MOL0     H35851   9.389  10.617   6.336  0.8823  4.4078 -2.2858
  260MOL0     H35852   9.591  10.550   6.129 -0.6546 -1.6079  1.3318
  260MOL0     H35853   9.438  10.650   6.113 -1.9707 -0.6418  2.1917
  260MOL0     H35854   9.627  10.801   6.135  1.2185 -0.6722 -1.0915
  260MOL0     H35855   9.668  10.732   6.292 -0.8103  0.8471  1.0413
  260MOL0     H35856   9.486  10.798   6.394  0.4700  0.6663 -0.0006
  260MOL0     H35857   9.400  10.846   6.242  1.3223 -2.7373 -3.4620
  260MOL0     H35858   9.599  11.017   6.226 -1.8649  1.8200  0.3327
  260MOL0     H35859   9.636  10.983   6.391  0.2664 -1.8838  0.2855
  260MOL0     H35860   8.856  10.488   6.027  0.8974  3.0217 -1.3309
  260MOL0     H35861   8.736  10.677   6.157  1.7862  0.7898 -0.8919
  260MOL0     H35862   8.527  10.653   6.771 -1.2974 -0.9001  0.6653
  260MOL0     H35863   8.305  10.732   6.813 -1.5663  0.8063 -1.0782
  260MOL0     H35864   7.647   9.980   7.213 -0.5776  1.4057  0.3955
  260MOL0     H35865   7.815   9.889   7.043  0.8362 -0.8858 -0.2380
  260MOL0     H35866   8.109  10.005   6.716 -0.0349 -1.1181  0.9500
  260MOL0     H35867   8.252   9.914   6.543  0.5505 -0.9477  0.0804
  260MOL0     H35868   8.671   9.990   6.565  1.3929 -0.3242  1.1989
  260MOL0     H35869   8.686   9.825   6.618 -1.6094 -4.2573 -2.9248
  260MOL0     H35870   8.645   9.925   6.336 -1.9531  0.4169 -0.4618
  260MOL0     H35871   8.656   9.752   6.371 -0.8290 -0.3944  2.0973
  260MOL0     H35872   8.873   9.825   6.509 -1.3958  1.7720  2.4799
  260MOL0     H35873   8.894   9.801   6.339  0.4217  0.5024 -0.8828
  260MOL0     H35874   8.993  10.033   6.403  0.6310 -0.5346  0.0179
  260MOL0     H35875   8.831  10.070   6.467  1.9147  0.3908  1.2818
  260MOL0     H35876   8.720  10.157   6.078 -1.4272  0.9328  1.7260
  260MOL0     H35877   8.585   9.936   6.779 -0.6376 -1.4524 -2.6278
  260MOL0     H35878   8.587   9.968   7.020  1.7223  3.7784  0.8387
  260MOL0     H35879   8.486  10.120   7.026 -0.4167  0.1349  3.0556
  260MOL0     H35880   8.426   9.978   7.100 -3.1468  0.2229 -2.0010
  261MOL0     O35881   5.429   5.388  11.005  0.5287 -0.0599  0.0679
  261MOL0     C35882   5.377   5.416  10.902  0.2544 -0.7469  1.0336
  261MOL0     O35883   5.455   5.424  10.785 -0.7724  0.4908 -0.1967
  261MOL0     C35884   5.589   5.397  10.794  0.2213  0.5723 -0.3770
  261MOL0     C35885   5.649   5.264  10.782  0.9536 -0.1392 -0.6622
  261MOL0     C35886   5.782   5.238  10.790  1.0454 -0.9689 -0.6944
  261MOL0     C35887   5.868   5.339  10.825  0.8984  0.0337  0.0024
  261MOL0     O35888   6.000   5.300  10.836 -0.9492 -0.2294 -0.5011
  261MOL0     C35889   6.101   5.406  10.829  0.2302  1.9521  0.5649
  261MOL0     C35890   6.158   5.425  10.971  0.4397 -0.1718 -0.0622
  261MOL0     C35891   6.227   5.296  11.014 -0.4330  0.1646 -0.2217
  261MOL0     C35892   6.274   5.320  11.161  0.2696 -0.2424  0.6003
  261MOL0     C35893   6.365   5.206  11.202  0.2887  0.2225 -0.1012
  261MOL0     C35894   6.442   5.235  11.327  0.0373  0.1549 -0.0414
  261MOL0     C35895   6.555   5.135  11.346  0.1343  0.0690  0.0100
  261MOL0     C35896   6.630   5.143  11.473 -0.3303 -1.2818  0.9539
  261MOL0     N35897   6.694   5.274  11.490  1.2479 -0.3060 -0.4544
  261MOL0     C35898   6.659   5.367  11.582  1.1923  0.7643 -0.3454
  261MOL0     C35899   6.737   5.474  11.551 -0.4032  0.2137 -0.9554
  261MOL0     C35900   6.755   5.604  11.622  0.4864 -0.4955 -0.3656
  261MOL0     C35901   6.902   5.645  11.664  0.2356  0.5095 -0.2890
  261MOL0     C35902   6.908   5.764  11.764 -0.5792  0.0330  0.5498
  261MOL0     C35903   6.846   5.739  11.903 -0.3671 -0.0665  0.3792
  261MOL0     O35904   6.897   5.639  11.979  0.2221 -0.2607  0.6629
  261MOL0     C35905   7.005   5.675  12.059  0.2187 -0.7516 -0.4666
  261MOL0     C35906   7.138   5.646  12.018  0.7808 -0.3120 -0.2194
  261MOL0     C35907   7.246   5.678  12.098 -0.4258  0.3749 -0.3460
  261MOL0     C35908   7.373   5.615  12.044 -0.3514 -0.2979 -0.1637
  261MOL0     C35909   7.228   5.747  12.226  0.6222 -0.0375  0.3904
  261MOL0     C35910   7.335   5.805  12.313 -0.2372  0.4420 -0.0512
  261MOL0     O35911   7.464   5.794  12.266  1.0553  0.2761  0.1396
  261MOL0     C35912   7.559   5.883  12.319  1.0095  0.2834 -0.0453
  261MOL0     C35913   7.577   6.010  12.258 -0.7749 -0.1431 -0.2218
  261MOL0     C35914   7.674   6.095  12.309 -0.6301 -0.2431  0.5151
  261MOL0     C35915   7.752   6.064  12.424  0.5178  0.5664  1.1598
  261MOL0     O35916   7.849   6.134  12.479  0.0866 -0.0422  0.3387
  261MOL0     C35917   7.873   6.260  12.417  0.3932 -0.2718  0.5901
  261MOL0     C35918   7.982   6.327  12.500 -0.3731 -0.1728 -0.1182
  261MOL0     C35919   8.119   6.260  12.492 -0.4156  0.2415 -0.3465
  261MOL0     C35920   8.217   6.306  12.386  0.2907 -0.5194 -0.8610
  261MOL0     C35921   8.345   6.217  12.373 -0.4558 -0.5329 -0.6934
  261MOL0     C35922   8.447   6.255  12.481 -0.2000  0.1831  0.6657
  261MOL0     C35923   8.586   6.214  12.444 -0.2260  0.7906 -1.2115
  261MOL0     C35924   8.611   6.074  12.392  0.0441  0.3120 -0.4276
  261MOL0    Cl35925   8.581   6.059  12.217  0.2206 -0.0597 -0.0447
  261MOL0     C35926   7.729   5.937  12.480  0.6735  1.1565  0.4512
  261MOL0     C35927   7.631   5.843  12.434  0.4089 -0.1450  0.6535
  261MOL0     O35928   7.301   5.857  12.416  0.7696  0.3565 -0.4850
  261MOL0     C35929   7.095   5.767  12.268  0.8954  0.2308 -0.2256
  261MOL0     C35930   6.988   5.729  12.185 -0.2102 -0.8332 -0.0156
  261MOL0     N35931   6.829   5.439  11.451  0.5319 -0.7286 -1.1074
  261MOL0     N35932   6.809   5.320  11.425  1.3848 -0.3570 -0.1841
  261MOL0     C35933   5.816   5.474  10.849  0.0599 -0.9986 -0.6853
  261MOL0     C35934   5.680   5.499  10.819 -0.1669  0.2403  0.7409
  261MOL0     C35935   5.234   5.429  10.879  0.2903  0.1186  0.7801
  261MOL0     C35936   5.183   5.433  10.749 -0.2477  0.3719  0.1021
  261MOL0     C35937   5.052   5.461  10.716  0.2189 -0.3275  0.1438
  261MOL0     C35938   4.959   5.484  10.820 -0.3708  0.5964 -0.3992
  261MOL0     O35939   4.822   5.509  10.810  0.2158 -0.0425  0.1683
  261MOL0     C35940   4.767   5.522  10.678 -0.6279 -0.9997  0.6385
  261MOL0     C35941   4.777   5.663  10.635  0.8007  0.4343  0.1573
  261MOL0     C35942   4.646   5.709  10.551 -0.4451  0.0616 -0.2040
  261MOL0     C35943   4.535   5.764  10.638 -0.6873  1.1461  0.4341
  261MOL0     C35944   4.447   5.660  10.699 -0.1598 -0.6351  0.0858
  261MOL0     C35945   4.386   5.559  10.738  0.5585  0.6248 -0.0106
  261MOL0     C35946   5.008   5.474  10.955  1.0942 -0.2865 -0.6886
  261MOL0     C35947   5.141   5.453  10.984 -0.3176 -0.8092  0.2325
  261MOL0     C35948   5.191   5.496  11.121 -0.3517 -0.4457  1.6558
  261MOL0     H35949   5.576   5.190  10.752  2.2969 -1.4509 -0.8232
  261MOL0     H35950   5.824   5.141  10.765  3.1381 -0.4049  0.3706
  261MOL0     H35951   6.070   5.499  10.779 -1.4249  2.4300  2.3450
  261MOL0     H35952   6.177   5.367  10.762  0.5496  0.3847  1.7918
  261MOL0     H35953   6.234   5.503  10.965  0.3166 -0.1469 -2.6035
  261MOL0     H35954   6.084   5.449  11.047  0.9690  0.3129  0.3078
  261MOL0     H35955   6.159   5.211  11.025  1.1562 -0.9092  2.1530
  261MOL0     H35956   6.313   5.268  10.953 -0.7083  1.4512 -1.2310
  261MOL0     H35957   6.333   5.410  11.178  0.5682 -0.1872 -0.6120
  261MOL0     H35958   6.186   5.331  11.224 -2.0495  1.4096 -2.6293
  261MOL0     H35959   6.429   5.184  11.116  1.0178  0.0853  0.4669
  261MOL0     H35960   6.308   5.113  11.210  0.0735  0.3524 -0.1007
  261MOL0     H35961   6.472   5.340  11.326 -0.4642  0.3020 -0.0893
  261MOL0     H35962   6.368   5.221  11.406  0.5101  0.1365  0.4043
  261MOL0     H35963   6.628   5.142  11.265 -0.6715 -3.0403 -1.1282
  261MOL0     H35964   6.522   5.031  11.342  1.4210 -0.3295 -0.6225
  261MOL0     H35965   6.565   5.126  11.560 -1.6659 -0.3429  0.1770
  261MOL0     H35966   6.694   5.055  11.468  0.4691 -0.6519 -1.0818
  261MOL0     H35967   6.577   5.360  11.653  2.2580  2.8386  1.2423
  261MOL0     H35968   6.697   5.599  11.715  0.8269 -3.4334 -0.2279
  261MOL0     H35969   6.715   5.683  11.559 -1.0042 -1.6143 -0.8667
  261MOL0     H35970   6.955   5.565  11.717 -3.3011 -0.2843  2.3591
  261MOL0     H35971   6.958   5.672  11.574 -1.2154  0.1052 -1.3443
  261MOL0     H35972   7.013   5.792  11.761 -1.0000  1.7211 -2.1483
  261MOL0     H35973   6.852   5.845  11.716 -0.4870 -0.4662 -0.4309
  261MOL0     H35974   6.863   5.836  11.951  4.9054  1.2832 -3.2696
  261MOL0     H35975   6.740   5.715  11.890 -0.9462  1.9800  0.9735
  261MOL0     H35976   7.140   5.595  11.922 -2.9932 -2.0125  0.3861
  261MOL0     H35977   7.362   5.537  11.969 -0.9277 -0.3741 -0.0117
  261MOL0     H35978   7.432   5.569  12.124 -1.0512 -2.5583 -0.8726
  261MOL0     H35979   7.427   5.694  11.992  2.6845 -0.8519  1.8875
  261MOL0     H35980   7.521   6.038  12.169 -0.7377  0.3273 -0.0972
  261MOL0     H35981   7.703   6.186  12.257  1.3001 -0.4867  1.0641
  261MOL0     H35982   7.900   6.239  12.313  1.4254  1.1336  0.5438
  261MOL0     H35983   7.780   6.318  12.423  0.9490  1.3069 -3.3110
  261MOL0     H35984   7.984   6.430  12.462  2.1078 -0.1599 -0.0854
  261MOL0     H35985   7.944   6.337  12.602  0.2100 -1.0562  0.1875
  261MOL0     H35986   8.097   6.154  12.479  0.2010 -0.4577  3.3596
  261MOL0     H35987   8.180   6.284  12.580 -0.6946  2.7965 -0.7786
  261MOL0     H35988   8.240   6.410  12.413 -1.8266 -1.1473  4.5051
  261MOL0     H35989   8.158   6.329  12.297 -0.5195  3.9112  0.5490
  261MOL0     H35990   8.321   6.110  12.383 -2.1767 -0.1371 -0.1712
  261MOL0     H35991   8.391   6.237  12.276 -1.6104 -1.1081 -1.3876
  261MOL0     H35992   8.417   6.218  12.580 -2.0341  0.7538  0.3714
  261MOL0     H35993   8.463   6.363  12.484  1.5301 -0.0347  0.0954
  261MOL0     H35994   8.656   6.235  12.524  1.9318  1.0591 -3.0772
  261MOL0     H35995   8.617   6.286  12.368  2.1820  2.1813  0.9552
  261MOL0     H35996   8.557   6.001  12.453  1.8490  0.7699  1.8680
  261MOL0     H35997   8.716   6.044  12.391  0.2273  0.9319 -1.7087
  261MOL0     H35998   7.790   5.919  12.568  2.6443 -1.5572 -1.2995
  261MOL0     H35999   7.608   5.746  12.478 -0.8191 -0.2256 -0.1188
  261MOL0     H36000   7.070   5.809  12.365  2.0334  0.2186  0.0891
  261MOL0     H36001   6.889   5.762  12.213 -0.5218 -1.9156  0.1735
  261MOL0     H36002   5.869   5.561  10.887 -1.8348 -1.4057  3.4127
  261MOL0     H36003   5.633   5.595  10.837  1.8566  0.9408  2.6471
  261MOL0     H36004   5.245   5.413  10.663 -1.7607  2.9694 -1.7261
  261MOL0     H36005   5.027   5.450  10.611 -3.9221 -2.7647  1.1610
  261MOL0     H36006   4.816   5.452  10.610 -0.1398  0.6543 -0.7794
  261MOL0     H36007   4.663   5.490  10.694 -1.0412  0.1661  0.3505
  261MOL0     H36008   4.861   5.665  10.564  0.3464 -0.6991 -0.4384
  261MOL0     H36009   4.798   5.731  10.718 -0.0198 -0.7374  1.3611
  261MOL0     H36010   4.684   5.786  10.483  0.5853 -2.3503 -2.5260
  261MOL0     H36011   4.597   5.634  10.489 -2.4109 -1.4456  2.9169
  261MOL0     H36012   4.473   5.834  10.580  0.5874  1.7258 -0.2581
  261MOL0     H36013   4.582   5.814  10.723 -0.2719 -0.3317  1.1030
  261MOL0     H36014   4.334   5.476  10.782  0.8991  1.3803  1.9345
  261MOL0     H36015   4.939   5.478  11.039 -1.3365 -0.9935 -2.5621
  261MOL0     H36016   5.237   5.406  11.164 -0.7850 -1.0329  0.9118
  261MOL0     H36017   5.264   5.573  11.096  1.1114 -2.9713 -2.8654
  261MOL0     H36018   5.113   5.532  11.189 -0.3228 -1.0185  2.0031
  262MOL0     O36019   3.258   8.526   4.851 -0.1371  0.6936 -0.3173
  262MOL0     C36020   3.202   8.607   4.925 -1.0206  0.0826  0.1687
  262MOL0     O36021   3.277   8.697   5.001 -0.8271  0.6441 -0.1778
  262MOL0     C36022   3.410   8.674   5.022 -0.8396  0.0162  0.9569
  262MOL0     C36023   3.452   8.555   5.085 -0.1246 -0.8465  0.2431
  262MOL0     C36024   3.586   8.526   5.094 -0.1723  0.2488 -0.3848
  262MOL0     C36025   3.683   8.614   5.048 -0.6199  0.1407 -0.5506
  262MOL0     O36026   3.821   8.592   5.038  0.8068  0.5172  0.7741
  262MOL0     C36027   3.875   8.496   5.125 -0.7036 -0.4855 -0.7924
  262MOL0     C36028   4.030   8.534   5.124 -0.1429 -0.4815 -0.4698
  262MOL0     C36029   4.096   8.504   5.268 -0.4731  0.3451  0.4465
  262MOL0     C36030   4.197   8.382   5.275 -0.4366 -0.3082 -0.1705
  262MOL0     C36031   4.328   8.420   5.207 -0.0633 -0.1835 -0.2800
  262MOL0     C36032   4.434   8.315   5.243  0.1910  0.8980  0.3796
  262MOL0     C36033   4.565   8.330   5.161 -0.3141  0.3755  0.1291
  262MOL0     C36034   4.672   8.233   5.213 -0.1354  0.2868 -0.1765
  262MOL0     N36035   4.745   8.178   5.099  0.4327 -1.7086  0.6174
  262MOL0     C36036   4.839   8.258   5.036  0.3023 -0.8621 -0.4241
  262MOL0     C36037   4.896   8.182   4.942  0.0111 -0.4236 -0.0924
  262MOL0     C36038   5.010   8.201   4.847 -1.0932 -0.3745 -0.5649
  262MOL0     C36039   5.130   8.265   4.924  0.3223 -0.2756  0.1738
  262MOL0     C36040   5.223   8.173   4.998  0.6183 -0.5665 -0.8195
  262MOL0     C36041   5.317   8.266   5.087  0.4959  0.5384  0.5534
  262MOL0     O36042   5.377   8.375   5.027 -0.2046  0.2907  0.3665
  262MOL0     C36043   5.507   8.371   4.960 -0.2679 -1.0339 -0.6922
  262MOL0     C36044   5.600   8.270   4.978 -0.3428  1.0245 -0.7352
  262MOL0     C36045   5.729   8.273   4.928  0.0290 -0.0079 -0.1239
  262MOL0     C36046   5.817   8.168   4.991  0.1453  0.0899  0.0317
  262MOL0     C36047   5.767   8.378   4.844 -0.5520 -0.7877 -1.2762
  262MOL0     C36048   5.907   8.400   4.784  0.7987  0.4738 -0.1197
  262MOL0     O36049   5.938   8.519   4.736 -1.4777 -0.4557  0.1533
  262MOL0     C36050   6.074   8.530   4.703 -0.5672 -0.4200 -0.3103
  262MOL0     C36051   6.108   8.489   4.572  0.6361 -0.5111 -0.3596
  262MOL0     C36052   6.250   8.501   4.538 -0.4721  0.3960  0.1607
  262MOL0     C36053   6.343   8.534   4.632  0.6327  0.0967 -0.2743
  262MOL0     O36054   6.477   8.522   4.595  0.1546  0.3312  0.2164
  262MOL0     C36055   6.557   8.638   4.626 -1.2074  0.0984  0.8427
  262MOL0     C36056   6.673   8.644   4.524 -0.1145  0.1387 -0.3961
  262MOL0     C36057   6.751   8.522   4.536  0.1710  0.5635  0.7396
  262MOL0     C36058   6.895   8.544   4.482  0.7568 -0.0920  0.6520
  262MOL0     C36059   6.985   8.415   4.499  0.1531  0.3933  0.0022
  262MOL0     C36060   7.122   8.463   4.461 -0.4039  0.1875  0.2153
  262MOL0     C36061   7.233   8.354   4.466  0.7844 -0.1175 -0.0998
  262MOL0     C36062   7.375   8.383   4.401 -0.2035  0.4771 -0.5048
  262MOL0    Cl36063   7.346   8.428   4.223  0.3995 -0.1818  0.0183
  262MOL0     C36064   6.300   8.578   4.760 -0.0342  0.1631  0.0953
  262MOL0     C36065   6.173   8.567   4.800  0.0092 -0.3029  0.9140
  262MOL0     O36066   5.982   8.298   4.780  0.1428  0.1659 -0.3703
  262MOL0     C36067   5.669   8.482   4.815 -0.2807  0.0010 -0.1172
  262MOL0     C36068   5.545   8.484   4.886  0.0645 -0.0564 -0.3539
  262MOL0     N36069   4.827   8.058   4.937  0.3241 -0.3487 -0.6562
  262MOL0     N36070   4.733   8.059   5.029 -0.6194  0.0347  0.3047
  262MOL0     C36071   3.641   8.740   5.005  0.3199 -0.1841 -0.5673
  262MOL0     C36072   3.505   8.768   4.997 -0.9069  0.2826  0.5820
  262MOL0     C36073   3.058   8.604   4.933  0.0633  0.0593  0.9335
  262MOL0     C36074   3.001   8.642   5.052 -0.6457 -0.6492 -0.3054
  262MOL0     C36075   2.866   8.626   5.069 -0.1144  0.6930  0.0487
  262MOL0     C36076   2.779   8.584   4.975 -0.3572 -0.8622  1.1112
  262MOL0     O36077   2.646   8.571   5.008  0.4089  0.0542 -0.3840
  262MOL0     C36078   2.582   8.469   4.922 -0.2924  0.6638 -0.4532
  262MOL0     C36079   2.450   8.424   4.991 -0.0789 -1.0329  0.7474
  262MOL0     C36080   2.466   8.353   5.117  0.2013  0.2318 -0.1174
  262MOL0     C36081   2.337   8.296   5.174 -0.1019  0.1252 -0.3805
  262MOL0     C36082   2.364   8.184   5.272  0.1593  0.3419 -0.6977
  262MOL0     C36083   2.395   8.087   5.339  0.5497  1.2611 -1.2136
  262MOL0     C36084   2.832   8.567   4.845 -0.4947 -0.7407 -1.1367
  262MOL0     C36085   2.969   8.577   4.821  0.3384  0.1182  0.0339
  262MOL0     C36086   3.015   8.556   4.676 -0.2589  0.8232  0.9263
  262MOL0     H36087   3.377   8.479   5.107  0.3696 -0.6438  2.9178
  262MOL0     H36088   3.603   8.428   5.138 -1.7182  1.0764  2.2952
  262MOL0     H36089   3.854   8.395   5.087 -2.7009  0.6735 -2.9842
  262MOL0     H36090   3.831   8.508   5.224 -0.1116 -1.9479 -0.3172
  262MOL0     H36091   4.087   8.486   5.043 -1.3892 -1.5844 -0.7202
  262MOL0     H36092   4.033   8.640   5.096 -0.8037 -0.0216  1.1188
  262MOL0     H36093   4.148   8.593   5.305 -3.3779  1.8920  1.0742
  262MOL0     H36094   4.011   8.483   5.333 -4.3142  1.7566 -3.6530
  262MOL0     H36095   4.213   8.369   5.382 -2.0924 -0.0207  0.1391
  262MOL0     H36096   4.152   8.286   5.249 -0.0442 -0.9206  1.3505
  262MOL0     H36097   4.370   8.518   5.231 -1.8238  1.1300 -2.2299
  262MOL0     H36098   4.313   8.424   5.099  0.6419 -2.7757 -0.5302
  262MOL0     H36099   4.459   8.337   5.347  0.6278  2.0720  0.0516
  262MOL0     H36100   4.388   8.216   5.235 -1.4484  1.7454 -1.6528
  262MOL0     H36101   4.595   8.435   5.161  1.4178 -0.0509 -1.6353
  262MOL0     H36102   4.546   8.306   5.056  1.0370  2.4246 -0.6411
  262MOL0     H36103   4.743   8.283   5.280  0.5862 -3.8484  2.5734
  262MOL0     H36104   4.626   8.152   5.270 -0.7410  1.0954  0.5203
  262MOL0     H36105   4.862   8.356   5.077 -1.6510 -1.1352  1.4475
  262MOL0     H36106   4.989   8.264   4.759 -2.0332 -1.5800 -1.2298
  262MOL0     H36107   5.039   8.108   4.799  1.1601 -1.8392  3.2170
  262MOL0     H36108   5.191   8.317   4.849  1.1322 -1.9561 -0.3946
  262MOL0     H36109   5.084   8.339   4.990 -0.7083 -1.0335  0.3347
  262MOL0     H36110   5.154   8.117   5.063  1.3217  1.0471  1.4454
  262MOL0     H36111   5.281   8.100   4.942 -0.6246 -5.0407  3.1036
  262MOL0     H36112   5.254   8.311   5.165  0.4522  0.4975  0.5416
  262MOL0     H36113   5.381   8.201   5.148  2.2324 -0.7009 -2.3491
  262MOL0     H36114   5.570   8.189   5.044  0.3221  0.3127 -1.2862
  262MOL0     H36115   5.767   8.109   5.069 -3.6974  2.2227 -0.5871
  262MOL0     H36116   5.907   8.218   5.030  1.1282 -1.8899  0.4380
  262MOL0     H36117   5.850   8.103   4.910 -1.4922 -1.0772  0.2538
  262MOL0     H36118   6.036   8.460   4.496  0.3930 -2.0869  0.4343
  262MOL0     H36119   6.296   8.480   4.442  2.1716  0.7106  1.2617
  262MOL0     H36120   6.496   8.728   4.615 -1.3261  0.0450  1.0739
  262MOL0     H36121   6.592   8.638   4.729  0.8718 -2.5323  0.2494
  262MOL0     H36122   6.647   8.673   4.421  4.3841  1.5553 -1.3908
  262MOL0     H36123   6.736   8.728   4.555 -0.4600 -0.0503  0.8476
  262MOL0     H36124   6.700   8.436   4.491 -1.7044  2.4458 -0.8877
  262MOL0     H36125   6.759   8.504   4.644 -1.5010  0.6502  0.9050
  262MOL0     H36126   6.935   8.628   4.540  0.9113  1.1270 -1.1705
  262MOL0     H36127   6.892   8.559   4.374 -0.1343 -0.0523  0.6766
  262MOL0     H36128   6.987   8.371   4.600  0.4654  1.7866  0.6168
  262MOL0     H36129   6.958   8.339   4.425  1.4307  1.0380 -1.1537
  262MOL0     H36130   7.151   8.537   4.537 -1.8651 -0.2038  1.1991
  262MOL0     H36131   7.119   8.500   4.359 -0.3640 -0.3601  0.0110
  262MOL0     H36132   7.188   8.276   4.404 -3.3147 -0.0515  2.4676
  262MOL0     H36133   7.233   8.311   4.566 -2.4094 -1.4704 -0.5669
  262MOL0     H36134   7.456   8.310   4.410 -1.1857 -0.6442 -0.6937
  262MOL0     H36135   7.429   8.467   4.446 -0.6860  2.0754 -2.7266
  262MOL0     H36136   6.368   8.616   4.836 -1.7616  0.6034  1.4937
  262MOL0     H36137   6.147   8.592   4.902 -1.3591 -0.5884  0.6431
  262MOL0     H36138   5.699   8.558   4.744 -1.2627 -0.2083 -0.7717
  262MOL0     H36139   5.482   8.571   4.878 -0.7632 -0.6525 -0.3831
  262MOL0     H36140   3.707   8.815   4.963 -0.4807  1.0262  0.2929
  262MOL0     H36141   3.467   8.856   4.946  0.5184  0.1356 -0.8059
  262MOL0     H36142   3.061   8.683   5.133 -0.8677  0.8507 -0.8658
  262MOL0     H36143   2.818   8.634   5.166  0.1760 -1.5176  0.4209
  262MOL0     H36144   2.569   8.506   4.820 -0.4341 -1.4179 -1.2243
  262MOL0     H36145   2.648   8.383   4.916 -0.5216  0.5594 -1.7395
  262MOL0     H36146   2.385   8.368   4.923 -0.6970  0.8564 -0.3102
  262MOL0     H36147   2.394   8.517   5.008  0.2983 -0.3427 -1.4301
  262MOL0     H36148   2.537   8.271   5.108 -0.3371 -0.3433  0.7205
  262MOL0     H36149   2.486   8.430   5.192 -3.2687  0.9285  0.2914
  262MOL0     H36150   2.279   8.266   5.086 -1.0437 -1.4474  0.7378
  262MOL0     H36151   2.285   8.381   5.218  3.1867  1.4651  1.2912
  262MOL0     H36152   2.415   8.006   5.406 -0.8003  2.5178  0.8251
  262MOL0     H36153   2.765   8.539   4.764 -1.0291 -2.5576 -0.1095
  262MOL0     H36154   3.045   8.452   4.663  1.1317  1.5339 -2.5869
  262MOL0     H36155   2.944   8.579   4.596  0.9371  1.7768  0.1014
  262MOL0     H36156   3.100   8.622   4.656 -1.7732  1.4568 -5.9380
  263MOL0     O36157   6.856   9.353   4.642  0.5010  1.0138  0.5201
  263MOL0     C36158   6.965   9.311   4.664  0.3294 -0.4066  0.4010
  263MOL0     O36159   7.079   9.346   4.588  0.7502 -0.4761  0.0677
  263MOL0     C36160   7.089   9.458   4.501 -0.8980 -0.2003 -0.5042
  263MOL0     C36161   7.207   9.459   4.429  0.3210 -0.1818  0.8104
  263MOL0     C36162   7.237   9.552   4.335 -0.1286  0.1524  0.9661
  263MOL0     C36163   7.135   9.644   4.302  0.3118 -0.3278 -0.9490
  263MOL0     O36164   7.167   9.737   4.213  0.5048  0.8184  0.2660
  263MOL0     C36165   7.234   9.848   4.274 -0.1817 -0.1077 -0.5138
  263MOL0     C36166   7.320   9.914   4.169  0.6618  0.8793  0.3148
  263MOL0     C36167   7.258   9.958   4.042 -0.7110  0.5532  0.2555
  263MOL0     C36168   7.361  10.046   3.973 -0.1760 -0.1491  0.1862
  263MOL0     C36169   7.288  10.120   3.861 -0.2993 -1.0170 -0.3661
  263MOL0     C36170   7.202  10.247   3.921 -0.5326  0.4295 -0.4383
  263MOL0     C36171   7.172  10.342   3.810 -0.1516  0.3610 -0.0507
  263MOL0     C36172   7.291  10.425   3.771 -0.0559 -0.4584  0.0953
  263MOL0     N36173   7.252  10.507   3.653 -0.3381 -0.2472  0.4046
  263MOL0     C36174   7.252  10.467   3.521  0.8116 -0.5677  0.7121
  263MOL0     C36175   7.218  10.581   3.455  0.0629 -0.3986 -0.5689
  263MOL0     C36176   7.233  10.606   3.303 -0.0024 -0.0472 -0.4192
  263MOL0     C36177   7.098  10.634   3.227 -0.2816 -0.1412 -0.2798
  263MOL0     C36178   6.999  10.516   3.226  0.0944 -0.4255 -1.1594
  263MOL0     C36179   6.851  10.554   3.218  0.2390  0.0391 -0.3946
  263MOL0     O36180   6.799  10.577   3.352 -0.3451  1.0217  0.1396
  263MOL0     C36181   6.776  10.466   3.428 -0.1324  0.2038 -1.0879
  263MOL0     C36182   6.705  10.353   3.391  0.6101 -0.5727 -1.1514
  263MOL0     C36183   6.681  10.251   3.484 -0.2629  0.5401 -0.1720
  263MOL0     C36184   6.595  10.139   3.432  1.0455 -0.2186 -0.0015
  263MOL0     C36185   6.742  10.260   3.615 -0.2429  0.1101  0.1918
  263MOL0     C36186   6.721  10.158   3.726  0.4618 -0.6620  0.4243
  263MOL0     O36187   6.793  10.171   3.836 -0.3089 -0.3894 -0.3409
  263MOL0     C36188   6.780  10.074   3.934  1.0278  0.0115  0.6288
  263MOL0     C36189   6.661  10.067   4.010  1.4267 -0.1471  1.7253
  263MOL0     C36190   6.633   9.967   4.081 -0.6311  0.1280 -0.0452
  263MOL0     C36191   6.736   9.862   4.101 -0.0184  0.0533  0.2123
  263MOL0     O36192   6.735   9.760   4.195 -0.7117 -0.5969  0.1252
  263MOL0     C36193   6.596   9.714   4.202 -1.0574  0.2713 -0.5400
  263MOL0     C36194   6.596   9.594   4.292  0.7417  0.4135 -0.1787
  263MOL0     C36195   6.680   9.480   4.230  0.0117 -0.9128  0.6871
  263MOL0     C36196   6.676   9.350   4.316 -0.4440  0.3398  0.0427
  263MOL0     C36197   6.783   9.262   4.253  0.2300 -0.0219  0.0161
  263MOL0     C36198   6.798   9.142   4.344  0.1124 -0.6757 -0.3538
  263MOL0     C36199   6.945   9.089   4.326 -0.0978 -0.6954  0.2608
  263MOL0     C36200   6.947   8.949   4.404 -1.4675  0.0745  0.7828
  263MOL0    Cl36201   7.120   8.885   4.396  0.1457  0.1776  0.0192
  263MOL0     C36202   6.856   9.871   4.038  0.1349  0.3139  0.5866
  263MOL0     C36203   6.870   9.978   3.956 -0.6556 -0.2399  0.3522
  263MOL0     O36204   6.640  10.070   3.703 -0.3856  0.3423 -0.1893
  263MOL0     C36205   6.836  10.368   3.642 -0.6625 -0.4566  0.1221
  263MOL0     C36206   6.853  10.463   3.547  0.2282  0.2925  0.4474
  263MOL0     N36207   7.164  10.672   3.546  0.0039  0.5679  0.5863
  263MOL0     N36208   7.191  10.626   3.660  0.5639 -1.0526 -0.0316
  263MOL0     C36209   7.009   9.647   4.363  0.4015  0.0309 -0.1728
  263MOL0     C36210   6.988   9.555   4.465  0.4311 -0.2722  0.4408
  263MOL0     C36211   7.002   9.228   4.786 -1.0253 -0.0028 -0.4234
  263MOL0     C36212   7.115   9.140   4.777 -0.0854  0.6533 -0.4630
  263MOL0     C36213   7.165   9.071   4.881 -0.8086 -0.0203 -0.3585
  263MOL0     C36214   7.102   9.083   5.017  0.5550 -1.0506 -0.0100
  263MOL0     O36215   7.151   9.025   5.136  0.3976  0.1679  1.3116
  263MOL0     C36216   7.132   8.888   5.139 -0.1002  1.1745  0.7805
  263MOL0     C36217   6.999   8.828   5.184  0.7145 -0.4228 -0.2072
  263MOL0     C36218   6.977   8.868   5.323  0.7254 -0.7780 -0.4336
  263MOL0     C36219   6.832   8.853   5.357  0.6656 -0.1969  0.7648
  263MOL0     C36220   6.743   8.949   5.295  0.2660  0.1997 -0.4420
  263MOL0     C36221   6.680   9.024   5.222 -0.9743 -0.2417 -0.4908
  263MOL0     C36222   6.996   9.171   5.027 -0.0549 -1.2337  0.1231
  263MOL0     C36223   6.945   9.246   4.919  0.4264 -0.3573 -0.3620
  263MOL0     C36224   6.833   9.333   4.960  0.7958  0.1164 -1.0368
  263MOL0     H36225   7.284   9.387   4.454  0.9789  0.2419  0.0186
  263MOL0     H36226   7.331   9.576   4.285 -1.6384  1.6392 -1.3607
  263MOL0     H36227   7.280   9.818   4.368  0.0280 -1.7570 -1.1062
  263MOL0     H36228   7.164   9.920   4.316 -1.3455 -2.7078  2.3814
  263MOL0     H36229   7.374   9.989   4.226  1.7904 -1.4949  2.5995
  263MOL0     H36230   7.391   9.835   4.143 -0.5280  0.2847 -1.3103
  263MOL0     H36231   7.247   9.867   3.983  1.6074  1.9371 -2.6258
  263MOL0     H36232   7.155   9.993   4.049 -1.5532 -1.9348  1.3250
  263MOL0     H36233   7.410  10.119   4.038 -0.5411  2.3595 -2.1830
  263MOL0     H36234   7.442   9.986   3.931 -0.6861  0.2073 -1.3573
  263MOL0     H36235   7.216  10.055   3.810 -0.8301  0.8616 -2.1326
  263MOL0     H36236   7.354  10.149   3.779 -1.9191  1.9736 -0.7681
  263MOL0     H36237   7.102  10.211   3.947 -0.5879  0.2550 -0.8769
  263MOL0     H36238   7.253  10.293   4.005 -0.4112  0.9962 -0.8224
  263MOL0     H36239   7.091  10.411   3.835 -0.9474 -0.6977  0.3711
  263MOL0     H36240   7.136  10.276   3.731  4.6076 -1.3979 -1.0746
  263MOL0     H36241   7.314  10.494   3.852  0.1030 -1.7618  1.2018
  263MOL0     H36242   7.380  10.367   3.748  1.7659  1.9320  0.7429
  263MOL0     H36243   7.295  10.375   3.481 -2.1943 -0.5297 -3.1899
  263MOL0     H36244   7.291  10.526   3.257  0.3122  0.0665 -0.2270
  263MOL0     H36245   7.304  10.687   3.286  3.5704 -2.7663  0.2423
  263MOL0     H36246   7.063  10.720   3.284  0.0856  1.5060 -2.4039
  263MOL0     H36247   7.125  10.667   3.126  1.9726 -0.8555  0.0174
  263MOL0     H36248   7.031  10.454   3.142  3.3923 -0.9601  0.3530
  263MOL0     H36249   7.005  10.454   3.315 -3.5550 -0.0596 -0.5259
  263MOL0     H36250   6.839  10.649   3.165 -1.4184 -0.2585 -0.6126
  263MOL0     H36251   6.788  10.476   3.174 -0.4172  1.1293 -1.4498
  263MOL0     H36252   6.670  10.355   3.288  1.3970  1.4572 -1.4299
  263MOL0     H36253   6.643  10.041   3.422 -2.0928 -1.8620 -0.3879
  263MOL0     H36254   6.546  10.165   3.337 -0.4918 -0.2438  0.7490
  263MOL0     H36255   6.512  10.139   3.504 -0.8834  2.9735 -1.9717
  263MOL0     H36256   6.584  10.142   3.993  0.7590 -0.5253  2.9391
  263MOL0     H36257   6.536   9.952   4.128 -0.8826  1.2378 -0.1738
  263MOL0     H36258   6.518   9.784   4.235 -2.2945 -1.6728  0.8664
  263MOL0     H36259   6.569   9.681   4.101  1.4138 -0.0497 -1.1562
  263MOL0     H36260   6.632   9.618   4.392 -1.1827  1.3432  0.3403
  263MOL0     H36261   6.495   9.554   4.308  0.7116  0.5371 -0.0631
  263MOL0     H36262   6.785   9.507   4.217  1.6714 -5.8391  1.8140
  263MOL0     H36263   6.638   9.466   4.130 -0.4004  2.8534  0.2072
  263MOL0     H36264   6.578   9.305   4.299 -0.2807  0.9469 -3.3163
  263MOL0     H36265   6.703   9.360   4.421  1.5580 -0.7634 -0.3124
  263MOL0     H36266   6.759   9.218   4.155 -2.8136 -1.8494  1.4618
  263MOL0     H36267   6.874   9.322   4.249 -1.1777  2.1564 -1.8153
  263MOL0     H36268   6.727   9.061   4.324 -0.6815 -0.0552 -0.1077
  263MOL0     H36269   6.785   9.180   4.446  1.8101  1.0705 -0.7275
  263MOL0     H36270   7.022   9.152   4.370  0.5311 -2.7786  2.3543
  263MOL0     H36271   6.957   9.075   4.218 -2.9321  1.5082 -0.4785
  263MOL0     H36272   6.893   8.871   4.349  0.8090  0.4861 -2.3071
  263MOL0     H36273   6.920   8.942   4.510 -1.3983 -0.7277  0.7554
  263MOL0     H36274   6.935   9.809   4.078  0.1107  1.0144  1.7616
  263MOL0     H36275   6.967   9.991   3.911 -0.3815 -0.8067  0.7568
  263MOL0     H36276   6.889  10.390   3.734  0.2244  1.2345 -0.7353
  263MOL0     H36277   6.912  10.550   3.575 -0.5852  0.7219  0.8367
  263MOL0     H36278   6.931   9.719   4.338 -0.0403 -1.2890 -2.8203
  263MOL0     H36279   6.891   9.554   4.514  0.1467  3.1613  0.2041
  263MOL0     H36280   7.157   9.116   4.680  1.3031 -3.1081  0.8497
  263MOL0     H36281   7.257   9.014   4.876 -0.3123  0.8216 -1.1344
  263MOL0     H36282   7.150   8.840   5.042 -0.6255  2.5986 -0.0553
  263MOL0     H36283   7.200   8.843   5.212 -1.1943  2.0649  2.4046
  263MOL0     H36284   6.998   8.719   5.173  0.3826 -0.4636  0.1974
  263MOL0     H36285   6.926   8.868   5.113  0.7238  0.4554  0.2527
  263MOL0     H36286   7.028   8.803   5.395 -0.4634  0.7463  1.9137
  263MOL0     H36287   7.012   8.968   5.353  0.5038 -1.0323  0.7323
  263MOL0     H36288   6.823   8.869   5.465 -0.6797  0.7646  0.5360
  263MOL0     H36289   6.816   8.750   5.323  0.7166 -0.1751  0.6752
  263MOL0     H36290   6.619   9.082   5.155  2.9316  1.4193 -2.9461
  263MOL0     H36291   6.970   9.180   5.132  0.9080 -2.7994  0.5298
  263MOL0     H36292   6.870   9.430   4.994  0.4245  0.2526 -1.0193
  263MOL0     H36293   6.767   9.341   4.873 -1.2322 -0.6611  0.3700
  263MOL0     H36294   6.773   9.293   5.041  0.3241  0.8542 -1.0166
  264MOL0     O36295   1.412   7.549   6.056 -0.2257  0.9278 -0.5041
  264MOL0     C36296   1.411   7.436   6.008  0.2176 -0.1342  0.1049
  264MOL0     O36297   1.493   7.335   6.041  0.0738  0.1155  0.6895
  264MOL0     C36298   1.565   7.350   6.158  0.8631  0.4232  0.1226
  264MOL0     C36299   1.698   7.412   6.157  0.6225  0.3981 -0.2915
  264MOL0     C36300   1.755   7.450   6.281 -0.2607 -0.0870 -0.1159
  264MOL0     C36301   1.704   7.413   6.402 -0.3723  0.4633 -0.5481
  264MOL0     O36302   1.762   7.428   6.523  0.1252 -0.4743 -0.0866
  264MOL0     C36303   1.856   7.532   6.533 -0.1895  0.9029 -0.1520
  264MOL0     C36304   1.904   7.542   6.681  0.2128 -0.4508 -0.9148
  264MOL0     C36305   1.813   7.628   6.771  0.1118  0.8135 -0.1719
  264MOL0     C36306   1.811   7.566   6.912 -0.3978  0.3700 -0.9799
  264MOL0     C36307   1.749   7.663   7.013 -0.4455  0.9091  0.9062
  264MOL0     C36308   1.705   7.590   7.139 -0.1207  0.0985  0.3759
  264MOL0     C36309   1.735   7.673   7.263 -0.4874 -0.2959 -1.6187
  264MOL0     C36310   1.677   7.815   7.266  0.5639  0.2362  0.2302
  264MOL0     N36311   1.708   7.898   7.386  1.3169  0.0881 -0.3308
  264MOL0     C36312   1.682   7.850   7.509  0.2773 -0.6062  0.3168
  264MOL0     C36313   1.727   7.953   7.596 -0.7966  0.7416 -1.0509
  264MOL0     C36314   1.729   7.960   7.746 -0.0020  0.1257  0.7618
  264MOL0     C36315   1.581   7.915   7.783  1.0342  0.9035  0.4262
  264MOL0     C36316   1.556   7.930   7.937  0.0364 -0.2606 -0.3259
  264MOL0     C36317   1.414   7.882   7.970 -0.2155  0.6328 -0.2886
  264MOL0     O36318   1.316   7.968   7.910  0.2250  0.6982  0.2682
  264MOL0     C36319   1.195   7.920   7.903 -0.1958 -0.2043 -0.2550
  264MOL0     C36320   1.116   7.896   8.011  0.1018 -0.1082  0.1639
  264MOL0     C36321   0.984   7.844   7.999  0.0853  0.3376 -0.2314
  264MOL0     C36322   0.894   7.844   8.117  0.4310 -0.2641 -1.1502
  264MOL0     C36323   0.933   7.806   7.875 -0.3450 -0.5587 -0.6769
  264MOL0     C36324   0.808   7.741   7.840 -0.6098 -1.0172  0.1850
  264MOL0     O36325   0.784   7.633   7.906 -0.1211 -0.1766  0.2477
  264MOL0     C36326   0.664   7.567   7.888 -0.1115 -0.2860 -0.1568
  264MOL0     C36327   0.591   7.550   7.765 -0.8739 -0.6984  0.8024
  264MOL0     C36328   0.488   7.458   7.752 -0.0325  0.5508  0.4436
  264MOL0     C36329   0.448   7.391   7.870  0.3619 -0.9514 -0.4307
  264MOL0     O36330   0.350   7.297   7.876 -0.3039  0.0482  0.1933
  264MOL0     C36331   0.308   7.229   7.759  0.5351 -0.7219 -0.6067
  264MOL0     C36332   0.220   7.114   7.797 -0.2322  0.1241 -0.0990
  264MOL0     C36333   0.114   7.081   7.690 -0.2378 -0.3862 -0.1635
  264MOL0     C36334   0.063   6.941   7.693 -0.2879  0.1402  0.4214
  264MOL0     C36335  -0.062   6.909   7.611  0.1016 -1.3938  0.0766
  264MOL0     C36336  -0.060   6.775   7.541  0.2651  0.1702 -0.4832
  264MOL0     C36337  -0.154   6.763   7.417 -0.3449 -0.0413  0.5926
  264MOL0     C36338  -0.302   6.783   7.450  0.2828 -0.7241  1.0801
  264MOL0    Cl36339  -0.364   6.641   7.551 -0.2149 -0.4180 -0.0146
  264MOL0     C36340   0.510   7.418   7.986 -0.7634 -0.2292 -0.0759
  264MOL0     C36341   0.622   7.498   7.999  0.3850  0.2762  0.1168
  264MOL0     O36342   0.749   7.801   7.755 -0.1859  1.2271 -0.2255
  264MOL0     C36343   1.020   7.830   7.759  0.3428  0.2639 -1.2040
  264MOL0     C36344   1.147   7.885   7.772  0.8972 -0.2230  0.1880
  264MOL0     N36345   1.783   8.050   7.522 -0.2412  0.1047  0.2405
  264MOL0     N36346   1.775   8.019   7.398 -0.0585  0.3066  1.0276
  264MOL0     C36347   1.581   7.346   6.401 -0.3142  0.4194 -0.7978
  264MOL0     C36348   1.510   7.314   6.283  0.0182 -0.9248 -0.2586
  264MOL0     C36349   1.301   7.404   5.915  0.3174  0.3017  0.6858
  264MOL0     C36350   1.321   7.284   5.839  0.8213 -0.0233 -0.4700
  264MOL0     C36351   1.234   7.239   5.739  0.0160 -0.9129  0.0451
  264MOL0     C36352   1.124   7.326   5.701 -0.3798 -0.1598 -0.1029
  264MOL0     O36353   1.039   7.292   5.596  0.2969 -0.4109 -0.1675
  264MOL0     C36354   1.033   7.161   5.534  0.5399  0.4442  0.3944
  264MOL0     C36355   0.889   7.126   5.490 -0.1048  0.6471  0.5112
  264MOL0     C36356   0.823   7.247   5.427 -0.4105  0.5372 -0.2006
  264MOL0     C36357   0.681   7.211   5.375 -0.2871  0.3908 -1.1459
  264MOL0     C36358   0.582   7.204   5.485 -0.4315 -0.1684  0.3046
  264MOL0     C36359   0.497   7.185   5.571 -0.5348 -0.5762 -0.9088
  264MOL0     C36360   1.108   7.442   5.769 -0.4105 -0.4806 -0.0204
  264MOL0     C36361   1.198   7.496   5.870 -0.5802  0.0672  0.8656
  264MOL0     C36362   1.176   7.630   5.921 -0.2099 -1.3513  0.5980
  264MOL0     H36363   1.750   7.434   6.065  1.1924 -1.1265 -0.3782
  264MOL0     H36364   1.849   7.503   6.269 -0.4106  0.5164  1.1847
  264MOL0     H36365   1.815   7.627   6.500  2.8701  1.8397 -1.6609
  264MOL0     H36366   1.943   7.517   6.468 -1.2375  4.1522 -2.5265
  264MOL0     H36367   1.908   7.439   6.718 -1.7769 -0.2916 -0.1190
  264MOL0     H36368   2.005   7.581   6.693  0.6292 -1.6909 -0.1993
  264MOL0     H36369   1.833   7.733   6.793  0.3036  0.4167  1.7136
  264MOL0     H36370   1.711   7.629   6.730  0.2410  1.3426 -0.4877
  264MOL0     H36371   1.753   7.474   6.905  1.1240 -0.7246 -0.0289
  264MOL0     H36372   1.912   7.538   6.944 -1.6220 -1.9201  1.2735
  264MOL0     H36373   1.660   7.708   6.967  0.1722  0.3643 -0.9260
  264MOL0     H36374   1.823   7.743   7.024 -1.9501  2.6736 -0.9562
  264MOL0     H36375   1.599   7.564   7.137  0.4284 -2.3883 -1.2668
  264MOL0     H36376   1.761   7.497   7.152 -0.1189  0.1916  1.0505
  264MOL0     H36377   1.843   7.689   7.276 -1.3811  5.7324  2.4831
  264MOL0     H36378   1.699   7.618   7.349  4.1393 -2.9442 -1.0420
  264MOL0     H36379   1.717   7.861   7.175 -0.0604 -0.0327 -0.1885
  264MOL0     H36380   1.568   7.800   7.261  0.9208 -2.5242 -0.8351
  264MOL0     H36381   1.636   7.756   7.538 -0.0473 -0.6895 -0.4516
  264MOL0     H36382   1.757   8.058   7.785 -1.5289 -0.1399  2.7271
  264MOL0     H36383   1.793   7.889   7.799 -2.3671 -2.3957  0.4645
  264MOL0     H36384   1.503   7.969   7.728  2.0813  0.1900 -1.8575
  264MOL0     H36385   1.571   7.813   7.746 -0.5081  2.3057 -3.6435
  264MOL0     H36386   1.629   7.862   7.982 -1.2012 -1.2778  0.2059
  264MOL0     H36387   1.592   8.027   7.975  0.6312 -1.5305  2.6373
  264MOL0     H36388   1.415   7.775   7.945  3.2252  0.5271 -0.2757
  264MOL0     H36389   1.396   7.875   8.078  5.0085 -0.6406  0.8143
  264MOL0     H36390   1.149   7.914   8.113  0.1468 -0.4026  0.1996
  264MOL0     H36391   0.789   7.828   8.092 -0.0271 -1.8277  1.3780
  264MOL0     H36392   0.896   7.936   8.176 -0.5468 -0.8648 -0.1483
  264MOL0     H36393   0.928   7.765   8.185  5.2230  2.5548  0.2572
  264MOL0     H36394   0.599   7.614   7.678 -2.3772  0.1902  1.2687
  264MOL0     H36395   0.436   7.439   7.659  5.0658 -1.9270 -2.3770
  264MOL0     H36396   0.251   7.297   7.695 -1.0574 -2.9722 -1.7053
  264MOL0     H36397   0.397   7.190   7.708  0.8000  0.0292 -0.7281
  264MOL0     H36398   0.283   7.025   7.807 -0.1251 -0.0071 -1.6564
  264MOL0     H36399   0.168   7.144   7.889 -0.7331  3.4017 -1.3209
  264MOL0     H36400   0.163   7.085   7.592  1.7149  0.4239  0.8063
  264MOL0     H36401   0.031   7.152   7.696  0.0117 -0.1940  1.4183
  264MOL0     H36402   0.053   6.913   7.798 -0.9992 -1.6566 -0.0739
  264MOL0     H36403   0.146   6.884   7.650  1.0082  1.1631  1.5116
  264MOL0     H36404  -0.157   6.918   7.664  0.4754  0.4509  0.5158
  264MOL0     H36405  -0.058   6.992   7.540 -0.2228 -0.9984  0.5098
  264MOL0     H36406  -0.083   6.688   7.603  5.8449 -1.0932  0.3114
  264MOL0     H36407   0.044   6.754   7.515 -0.2240 -0.7072 -1.8343
  264MOL0     H36408  -0.144   6.665   7.370 -2.8774 -0.7367  1.2929
  264MOL0     H36409  -0.112   6.833   7.345  1.2145  2.0459  3.3731
  264MOL0     H36410  -0.360   6.783   7.357  2.2862  0.3741 -0.2384
  264MOL0     H36411  -0.311   6.879   7.502 -0.8447 -1.2009  1.8151
  264MOL0     H36412   0.478   7.360   8.072 -1.5638 -0.4352 -0.5101
  264MOL0     H36413   0.683   7.502   8.089  2.8268  0.4454 -1.4406
  264MOL0     H36414   0.982   7.799   7.662  1.1749 -0.2567 -1.3772
  264MOL0     H36415   1.196   7.902   7.676 -0.9874 -1.1317 -0.9983
  264MOL0     H36416   1.549   7.315   6.500  2.0971  0.0676 -0.0464
  264MOL0     H36417   1.415   7.261   6.277 -0.5253 -0.0930  0.6065
  264MOL0     H36418   1.411   7.226   5.855  2.2538  2.6235  2.0323
  264MOL0     H36419   1.251   7.147   5.684 -2.2756 -1.4288  0.1096
  264MOL0     H36420   1.103   7.151   5.451 -0.0027  0.0154 -0.0153
  264MOL0     H36421   1.061   7.081   5.603  0.6533 -1.3300 -1.6190
  264MOL0     H36422   0.823   7.088   5.568  0.2103 -3.9674 -1.1289
  264MOL0     H36423   0.893   7.045   5.416  1.2102  1.7483 -0.6925
  264MOL0     H36424   0.815   7.321   5.507  0.5023 -2.0981  2.5156
  264MOL0     H36425   0.880   7.282   5.340 -0.0366 -1.1293 -0.6484
  264MOL0     H36426   0.675   7.117   5.320  0.2625 -0.6774  0.5379
  264MOL0     H36427   0.650   7.298   5.317  1.0563  0.4675 -1.7771
  264MOL0     H36428   0.419   7.156   5.639  1.1186 -3.8479 -0.2379
  264MOL0     H36429   1.023   7.496   5.729  0.1583 -0.9530 -1.9771
  264MOL0     H36430   1.189   7.644   6.028  1.1919  5.0935 -0.0168
  264MOL0     H36431   1.243   7.704   5.876 -1.4960 -0.9150 -0.6914
  264MOL0     H36432   1.078   7.673   5.903  1.1252  1.0475 -1.7075
  265MOL0     O36433   5.125   5.024  11.042  0.0693 -0.1999 -0.1516
  265MOL0     C36434   5.130   5.055  10.918  0.1814 -0.0208 -0.6061
  265MOL0     O36435   5.242   5.059  10.839  0.3450  0.8155 -0.1836
  265MOL0     C36436   5.342   4.972  10.877 -0.4717 -0.4709  0.4648
  265MOL0     C36437   5.432   5.003  10.979  0.2932 -0.7957  0.2643
  265MOL0     C36438   5.530   4.907  11.012  0.5422  0.4924  0.3298
  265MOL0     C36439   5.546   4.787  10.936 -0.2409 -0.6888 -0.6861
  265MOL0     O36440   5.640   4.693  10.970 -0.2927 -0.3120 -0.6606
  265MOL0     C36441   5.588   4.559  10.983 -0.3649 -0.8002 -0.3640
  265MOL0     C36442   5.634   4.508  11.119 -0.2666 -0.0502  0.0909
  265MOL0     C36443   5.564   4.570  11.236 -0.3383  0.7716 -0.8453
  265MOL0     C36444   5.647   4.549  11.367  0.6457 -0.0649  0.2822
  265MOL0     C36445   5.781   4.627  11.378 -0.1727  0.2706  0.0571
  265MOL0     C36446   5.842   4.597  11.523 -0.6339 -0.1201  0.4665
  265MOL0     C36447   5.783   4.659  11.647  1.1873  0.3954 -0.4431
  265MOL0     C36448   5.708   4.788  11.619  0.3988  0.4617 -0.9290
  265MOL0     N36449   5.654   4.838  11.753 -0.0760 -0.7929  0.1967
  265MOL0     C36450   5.542   4.787  11.812  0.2401 -0.8279  0.4500
  265MOL0     C36451   5.535   4.840  11.931 -0.2466  0.3951 -0.2963
  265MOL0     C36452   5.438   4.814  12.038 -0.4446 -0.8361  0.4524
  265MOL0     C36453   5.477   4.701  12.137 -0.7228 -0.3934  0.8819
  265MOL0     C36454   5.429   4.567  12.085 -0.0518 -0.2674 -0.0126
  265MOL0     C36455   5.279   4.543  12.100  0.0527 -0.3729  0.1878
  265MOL0     O36456   5.260   4.400  12.081 -0.3483 -0.2861 -0.3507
  265MOL0     C36457   5.135   4.358  12.049  0.1445 -1.4376  0.5261
  265MOL0     C36458   5.127   4.222  12.047 -0.3078  0.0548  0.2242
  265MOL0     C36459   5.001   4.156  12.032 -0.0953 -0.7174  0.6980
  265MOL0     C36460   5.004   4.002  12.062 -0.1359 -0.4000 -0.3473
  265MOL0     C36461   4.886   4.237  12.010 -0.2479 -0.1284  0.1713
  265MOL0     C36462   4.755   4.173  11.953 -0.4985 -0.7411 -0.2185
  265MOL0     O36463   4.636   4.253  11.955  0.0010  0.8024  1.3272
  265MOL0     C36464   4.521   4.189  11.905  0.4808 -0.0484  0.4974
  265MOL0     C36465   4.454   4.232  11.786 -0.3631 -0.5513  0.3693
  265MOL0     C36466   4.332   4.164  11.752 -0.3225 -0.3426 -0.1533
  265MOL0     C36467   4.273   4.066  11.827  0.5367  0.6956  0.1016
  265MOL0     O36468   4.158   3.989  11.796 -0.5964  0.3666  0.3556
  265MOL0     C36469   4.077   4.037  11.687 -0.5036 -0.6107  0.1897
  265MOL0     C36470   3.967   3.941  11.663 -0.2171 -0.0525 -0.4839
  265MOL0     C36471   3.886   3.989  11.543 -0.2885  0.6608  0.2522
  265MOL0     C36472   3.761   3.908  11.518 -0.2551 -0.4179 -0.1611
  265MOL0     C36473   3.683   3.984  11.408  0.2317 -0.2173  0.1239
  265MOL0     C36474   3.745   3.969  11.272 -0.5947 -0.1185 -0.4659
  265MOL0     C36475   3.770   4.097  11.192 -0.1131 -0.8720 -0.0769
  265MOL0     C36476   3.638   4.164  11.143 -0.6062  0.6444  0.2731
  265MOL0    Cl36477   3.526   4.040  11.089  0.5261 -0.2303 -0.2585
  265MOL0     C36478   4.342   4.025  11.938  0.5122 -0.2097 -0.1394
  265MOL0     C36479   4.461   4.088  11.979  0.4631  0.6259  0.6321
  265MOL0     O36480   4.765   4.059  11.918 -0.0841  0.2432 -0.5705
  265MOL0     C36481   4.896   4.376  12.025  0.0828  0.0793  0.2400
  265MOL0     C36482   5.017   4.436  12.054  0.0240  0.0492  0.4240
  265MOL0     N36483   5.642   4.926  11.951 -0.2902  0.0072 -0.0480
  265MOL0     N36484   5.716   4.924  11.845 -0.1115 -0.9864  0.8605
  265MOL0     C36485   5.468   4.769  10.827 -0.3851 -0.8146 -0.2809
  265MOL0     C36486   5.354   4.854  10.805  0.2797  0.3376 -0.1014
  265MOL0     C36487   4.998   5.113  10.852  0.0980 -0.2724  0.1935
  265MOL0     C36488   4.907   5.177  10.935  0.7099  0.2230 -0.0343
  265MOL0     C36489   4.774   5.213  10.889  0.1125  0.1441 -0.3723
  265MOL0     C36490   4.740   5.190  10.755  0.8582 -1.3303 -1.5296
  265MOL0     O36491   4.616   5.238  10.724 -0.1229 -0.2030 -0.5269
  265MOL0     C36492   4.550   5.170  10.622  0.2752  0.2703  0.5019
  265MOL0     C36493   4.410   5.215  10.616  0.1830 -0.0973  0.6338
  265MOL0     C36494   4.326   5.175  10.737 -0.5042  1.2435  0.1719
  265MOL0     C36495   4.189   5.226  10.705 -0.0336  0.4018 -0.1824
  265MOL0     C36496   4.116   5.161  10.597  0.6182  0.0675 -0.3615
  265MOL0     C36497   4.061   5.125  10.494 -0.0829 -0.4157 -0.4266
  265MOL0     C36498   4.839   5.135  10.677  0.1887 -0.1125 -0.3018
  265MOL0     C36499   4.963   5.094  10.720 -0.2859 -0.1518  0.9247
  265MOL0     C36500   5.064   5.067  10.612 -0.1193  0.2314 -0.0610
  265MOL0     H36501   5.432   5.099  11.031  0.9918 -0.4672 -0.3229
  265MOL0     H36502   5.596   4.907  11.099  0.3037  1.3094  0.5230
  265MOL0     H36503   5.635   4.490  10.912 -1.2419 -2.2853  0.4563
  265MOL0     H36504   5.480   4.549  10.978 -0.6313  1.1402  0.7151
  265MOL0     H36505   5.618   4.400  11.126 -2.1784  0.1414 -0.7263
  265MOL0     H36506   5.740   4.528  11.137  0.1205 -2.4190  0.8101
  265MOL0     H36507   5.540   4.677  11.230 -1.2335  0.6527  0.1355
  265MOL0     H36508   5.470   4.517  11.256  0.2152  0.4769  1.2452
  265MOL0     H36509   5.583   4.581  11.449  0.8531  1.1700 -0.0151
  265MOL0     H36510   5.668   4.442  11.376 -1.6022 -0.4200  1.9256
  265MOL0     H36511   5.772   4.736  11.373  1.2791  0.3943 -0.4100
  265MOL0     H36512   5.845   4.590  11.298  0.9326  0.4820  0.8222
  265MOL0     H36513   5.857   4.489  11.536 -2.1669 -0.2204  1.5644
  265MOL0     H36514   5.945   4.632  11.508 -0.1596 -2.0797 -1.4106
  265MOL0     H36515   5.855   4.679  11.726  0.4079  0.9260  0.1510
  265MOL0     H36516   5.728   4.579  11.698  2.8754 -0.5222 -0.0082
  265MOL0     H36517   5.771   4.863  11.570 -0.1139  0.8700 -0.9696
  265MOL0     H36518   5.631   4.768  11.544  1.9747 -0.9616 -2.2699
  265MOL0     H36519   5.477   4.705  11.781 -0.8735 -1.4937  4.0751
  265MOL0     H36520   5.340   4.793  11.994 -1.0202  1.9772  0.2338
  265MOL0     H36521   5.421   4.905  12.096 -0.2123  0.2108 -1.0734
  265MOL0     H36522   5.586   4.707  12.140 -0.8322  2.8907  3.0983
  265MOL0     H36523   5.435   4.724  12.235  1.4087 -0.0245  1.7485
  265MOL0     H36524   5.458   4.560  11.980  0.4354  1.6147 -0.0413
  265MOL0     H36525   5.478   4.490  12.146  1.6920  1.7181  1.2669
  265MOL0     H36526   5.262   4.572  12.204  3.8381  0.8023  0.6662
  265MOL0     H36527   5.221   4.611  12.036  1.7064  0.6987 -0.2430
  265MOL0     H36528   5.214   4.157  12.049 -1.1567 -1.1268  0.2063
  265MOL0     H36529   5.078   3.980  12.140 -0.2389  1.5848  0.3631
  265MOL0     H36530   5.032   3.949  11.971 -1.7524 -3.3871  0.7275
  265MOL0     H36531   4.910   3.960  12.100 -0.5805  1.3304  0.5767
  265MOL0     H36532   4.484   4.323  11.735  1.6290 -0.9269  0.7978
  265MOL0     H36533   4.282   4.202  11.664 -1.5473 -3.8673 -1.1186
  265MOL0     H36534   4.037   4.134  11.718 -1.5076 -1.3819  1.3793
  265MOL0     H36535   4.147   4.037  11.602  1.8175 -2.9240  1.9278
  265MOL0     H36536   4.002   3.839  11.649  0.0943 -0.4268  2.4157
  265MOL0     H36537   3.906   3.946  11.754  1.5760  4.8986  0.7311
  265MOL0     H36538   3.949   3.985  11.454 -0.0694  2.0739  0.3175
  265MOL0     H36539   3.872   4.098  11.546  0.8271  0.9592 -2.4777
  265MOL0     H36540   3.697   3.903  11.607  0.5722 -0.7805  0.4340
  265MOL0     H36541   3.779   3.807  11.482 -0.7770 -1.3035  1.9470
  265MOL0     H36542   3.579   3.949  11.401  0.3592 -1.5725  3.2188
  265MOL0     H36543   3.676   4.089  11.437  3.0259 -0.6031  2.8016
  265MOL0     H36544   3.691   3.890  11.220 -0.2673  0.4038 -1.6321
  265MOL0     H36545   3.844   3.925  11.286 -0.1260  1.4161  1.5913
  265MOL0     H36546   3.830   4.086  11.101  0.6923  2.2622 -0.0574
  265MOL0     H36547   3.825   4.174  11.246 -2.1878 -0.1357  1.1179
  265MOL0     H36548   3.669   4.245  11.076 -0.1153 -0.2159 -0.5539
  265MOL0     H36549   3.597   4.209  11.234  1.6481 -0.9570  2.2061
  265MOL0     H36550   4.300   3.947  12.001 -0.0328  2.0138  2.4269
  265MOL0     H36551   4.518   4.056  12.066  2.1802  3.3742  0.6346
  265MOL0     H36552   4.805   4.435  12.016 -2.2468 -3.0783  1.1078
  265MOL0     H36553   5.010   4.544  12.064 -1.3303 -0.1774  2.7680
  265MOL0     H36554   5.491   4.689  10.757  3.7885  0.1725 -0.3051
  265MOL0     H36555   5.288   4.832  10.722  2.5987  0.9099 -2.2011
  265MOL0     H36556   4.937   5.203  11.036  1.8425 -0.1187 -0.2676
  265MOL0     H36557   4.712   5.251  10.970  1.3502  1.7107 -0.0853
  265MOL0     H36558   4.599   5.183  10.525  3.3390 -1.1423  1.7309
  265MOL0     H36559   4.554   5.061  10.637 -0.4561  0.5831  3.6253
  265MOL0     H36560   4.369   5.175  10.522 -2.2870  2.7396  0.3652
  265MOL0     H36561   4.417   5.322  10.596  0.5439 -0.5772 -2.3895
  265MOL0     H36562   4.326   5.069  10.762 -1.7400  1.2795  0.4092
  265MOL0     H36563   4.351   5.230  10.828 -3.1035 -0.3800  2.0009
  265MOL0     H36564   4.190   5.334  10.691  2.1918  0.5710  0.7224
  265MOL0     H36565   4.135   5.209  10.799  0.7587 -2.0283 -0.0832
  265MOL0     H36566   4.047   5.110  10.389 -1.6491 -0.1092 -0.2869
  265MOL0     H36567   4.818   5.127  10.571  3.5702  0.9986 -1.1818
  265MOL0     H36568   5.013   5.060  10.516  2.6535 -1.2137 -1.5608
  265MOL0     H36569   5.152   5.133  10.613  0.7718 -0.8792 -1.3503
  265MOL0     H36570   5.118   4.972  10.617  1.4829  1.0179 -1.6325
  266MOL0     O36571   2.915   5.987   5.566 -0.4461  0.1881 -0.4333
  266MOL0     C36572   2.894   6.062   5.663 -0.3235  0.1037  0.3368
  266MOL0     O36573   2.983   6.094   5.765  0.4875  0.0726  0.1182
  266MOL0     C36574   3.081   6.000   5.787 -0.0289 -1.3551  0.7126
  266MOL0     C36575   3.200   6.057   5.832  0.1376 -0.1710 -0.3912
  266MOL0     C36576   3.318   5.980   5.848  0.2845  0.8420 -0.1001
  266MOL0     C36577   3.317   5.848   5.829  0.4290 -0.2850  0.0377
  266MOL0     O36578   3.428   5.765   5.856 -0.0893  0.0299 -0.3591
  266MOL0     C36579   3.560   5.813   5.815 -0.1415 -0.4264 -0.2591
  266MOL0     C36580   3.636   5.691   5.753  0.6107 -0.0942 -0.4768
  266MOL0     C36581   3.669   5.573   5.844 -0.2628 -0.3307 -0.6563
  266MOL0     C36582   3.770   5.616   5.959  0.2619  1.2029  0.3136
  266MOL0     C36583   3.916   5.661   5.901 -0.0399 -0.1855 -0.2858
  266MOL0     C36584   3.983   5.545   5.819  1.2243 -0.0203 -0.4900
  266MOL0     C36585   4.132   5.557   5.798  0.9271 -0.3114 -0.6815
  266MOL0     C36586   4.176   5.464   5.688 -0.5613  1.1641  0.4127
  266MOL0     N36587   4.325   5.454   5.688 -0.2893  0.0584  0.4516
  266MOL0     C36588   4.401   5.537   5.614  1.0264  0.1066  0.9264
  266MOL0     C36589   4.529   5.504   5.640 -0.2280  0.3862 -0.1031
  266MOL0     C36590   4.657   5.567   5.585  0.2947 -0.7162 -0.7029
  266MOL0     C36591   4.794   5.491   5.586 -0.2257 -0.1320 -0.0238
  266MOL0     C36592   4.868   5.502   5.449 -0.2897 -0.6591  0.3363
  266MOL0     C36593   5.016   5.467   5.476 -0.0571 -0.0608  0.4073
  266MOL0     O36594   5.085   5.594   5.486  0.4511  0.2853 -0.0425
  266MOL0     C36595   5.222   5.592   5.486 -0.2812  0.1817  0.2826
  266MOL0     C36596   5.276   5.713   5.451  0.3043  0.4935 -0.4099
  266MOL0     C36597   5.414   5.732   5.437 -0.3112  0.3713  0.1462
  266MOL0     C36598   5.457   5.875   5.384 -0.5875  0.2456  0.4501
  266MOL0     C36599   5.507   5.625   5.467  0.1905 -0.1802  0.2112
  266MOL0     C36600   5.643   5.636   5.452 -0.2499 -0.0839 -1.0119
  266MOL0     O36601   5.727   5.542   5.519  0.2965  0.1266  0.2359
  266MOL0     C36602   5.863   5.562   5.519 -1.1038 -0.7506  0.3116
  266MOL0     C36603   5.946   5.496   5.429  0.4311 -0.0831  0.2382
  266MOL0     C36604   6.082   5.530   5.408  0.7459  0.3547  0.7391
  266MOL0     C36605   6.141   5.621   5.500  0.3446 -0.6222 -0.4286
  266MOL0     O36606   6.274   5.661   5.493  0.2111  0.1234 -0.3033
  266MOL0     C36607   6.339   5.653   5.363  0.1527  0.6195 -1.0514
  266MOL0     C36608   6.469   5.718   5.372 -0.6998 -0.3565 -0.2048
  266MOL0     C36609   6.469   5.874   5.381  0.4161 -0.6443 -0.1984
  266MOL0     C36610   6.621   5.938   5.379 -0.6417  0.4280 -0.0410
  266MOL0     C36611   6.615   6.094   5.362  0.4629 -0.3096 -0.1878
  266MOL0     C36612   6.754   6.155   5.356 -0.2065  0.8845  0.4303
  266MOL0     C36613   6.832   6.127   5.491 -0.7917 -0.9209  0.5002
  266MOL0     C36614   6.918   6.242   5.539 -0.6150  0.5834  0.0993
  266MOL0    Cl36615   6.971   6.190   5.702 -0.2770 -0.4282  0.2888
  266MOL0     C36616   6.060   5.677   5.599  0.3046 -0.8415 -1.6411
  266MOL0     C36617   5.922   5.658   5.601 -0.5972 -0.1038  0.4054
  266MOL0     O36618   5.684   5.726   5.386 -0.1166  0.0457 -0.3364
  266MOL0     C36619   5.452   5.504   5.505 -0.3025  0.0089  0.1826
  266MOL0     C36620   5.309   5.487   5.508 -0.7691  0.1394 -0.0252
  266MOL0     N36621   4.521   5.397   5.730  0.8280  0.5425  0.4375
  266MOL0     N36622   4.394   5.369   5.766 -0.2315 -0.0991 -0.0726
  266MOL0     C36623   3.192   5.795   5.800  0.3111  0.4971  0.6718
  266MOL0     C36624   3.076   5.861   5.777  0.3581 -0.7309  1.2105
  266MOL0     C36625   2.782   6.157   5.644 -0.2315 -1.3595 -0.3392
  266MOL0     C36626   2.793   6.287   5.690 -0.0323 -0.1768 -0.0267
  266MOL0     C36627   2.695   6.384   5.673 -0.4353 -0.1544  0.1028
  266MOL0     C36628   2.575   6.342   5.615 -0.2234  0.1179  0.2676
  266MOL0     O36629   2.464   6.428   5.613 -0.6839 -1.6038  0.2011
  266MOL0     C36630   2.473   6.520   5.507  0.1666  0.3624 -0.7189
  266MOL0     C36631   2.366   6.617   5.540 -1.2091 -0.5417  0.3198
  266MOL0     C36632   2.362   6.716   5.425 -0.3999  0.3122 -0.1217
  266MOL0     C36633   2.251   6.815   5.471  0.4542  0.9642  0.4656
  266MOL0     C36634   2.228   6.919   5.370  0.1344  0.8979 -0.1880
  266MOL0     C36635   2.219   7.004   5.293  0.8479  0.6646 -0.8232
  266MOL0     C36636   2.571   6.213   5.554 -1.0840 -0.8715  0.0790
  266MOL0     C36637   2.668   6.121   5.573  0.0787 -0.8027  0.1707
  266MOL0     C36638   2.648   5.991   5.501 -0.5035  0.6007 -1.2194
  266MOL0     H36639   3.199   6.163   5.855 -1.3708 -0.3888  0.7612
  266MOL0     H36640   3.411   6.022   5.885  0.5880 -1.1079  1.5194
  266MOL0     H36641   3.612   5.859   5.900 -0.8481  0.3485 -0.2387
  266MOL0     H36642   3.558   5.889   5.737  1.0350 -3.3360 -3.3641
  266MOL0     H36643   3.574   5.659   5.669 -0.6994 -0.7784  0.7090
  266MOL0     H36644   3.726   5.736   5.709  1.2162  0.5506  1.3298
  266MOL0     H36645   3.577   5.537   5.892  1.6869 -0.4655  3.4513
  266MOL0     H36646   3.711   5.491   5.785 -0.0555 -0.8916  0.2383
  266MOL0     H36647   3.716   5.687   6.022  0.3546  0.0279  1.7744
  266MOL0     H36648   3.779   5.529   6.024 -1.7066  1.9848  1.7031
  266MOL0     H36649   3.977   5.686   5.988 -0.6494  0.7723 -0.1176
  266MOL0     H36650   3.920   5.753   5.842  0.3789 -1.5767 -2.5573
  266MOL0     H36651   3.961   5.458   5.883 -0.8670  0.1384 -0.9227
  266MOL0     H36652   3.939   5.544   5.719 -0.7219 -1.1128  0.3206
  266MOL0     H36653   4.192   5.547   5.889  2.6665 -2.2720 -1.9420
  266MOL0     H36654   4.161   5.660   5.774  0.2374  0.1495  0.3818
  266MOL0     H36655   4.134   5.364   5.699  0.4213  0.6322 -0.4509
  266MOL0     H36656   4.137   5.508   5.596 -1.0803 -1.0270 -0.4773
  266MOL0     H36657   4.384   5.615   5.541 -0.3790 -1.1458 -0.1412
  266MOL0     H36658   4.662   5.668   5.626 -3.0122  0.6934 -3.3333
  266MOL0     H36659   4.623   5.584   5.483 -1.5679 -0.4591 -0.0613
  266MOL0     H36660   4.855   5.520   5.672 -1.1977 -0.6123  0.8509
  266MOL0     H36661   4.767   5.385   5.591  1.9589 -0.7719 -0.6740
  266MOL0     H36662   4.827   5.433   5.374 -0.2427 -1.5151  1.0777
  266MOL0     H36663   4.868   5.608   5.421  1.9106 -0.6664  0.1012
  266MOL0     H36664   5.035   5.412   5.568  0.9658 -0.7696 -0.2052
  266MOL0     H36665   5.052   5.412   5.389  1.5226  0.9146  0.3974
  266MOL0     H36666   5.208   5.794   5.430  1.0384  2.9767  5.1527
  266MOL0     H36667   5.370   5.939   5.398 -2.4147 -1.5594 -1.9218
  266MOL0     H36668   5.481   5.861   5.278  2.6097  0.0751  1.0785
  266MOL0     H36669   5.550   5.910   5.431  0.8857 -1.9322 -0.6821
  266MOL0     H36670   5.911   5.424   5.355 -0.0693 -0.7938  1.1455
  266MOL0     H36671   6.143   5.477   5.336 -0.9349 -3.1489  1.6694
  266MOL0     H36672   6.360   5.549   5.337  4.3022  1.2441 -0.8724
  266MOL0     H36673   6.281   5.705   5.286 -0.6104  2.9026  0.9435
  266MOL0     H36674   6.522   5.687   5.462 -0.4336 -1.2877 -0.6673
  266MOL0     H36675   6.532   5.694   5.286  0.3420  2.0146 -0.1979
  266MOL0     H36676   6.418   5.912   5.469 -0.6194 -1.1773 -0.5533
  266MOL0     H36677   6.406   5.910   5.299  0.1306  0.3935  0.4618
  266MOL0     H36678   6.663   5.885   5.293 -0.7379  1.0295 -0.4699
  266MOL0     H36679   6.672   5.904   5.469  0.0054 -1.4468 -1.0491
  266MOL0     H36680   6.575   6.106   5.261  0.0280  0.5960  0.0841
  266MOL0     H36681   6.553   6.128   5.446  2.8156  2.2761  0.6645
  266MOL0     H36682   6.756   6.261   5.331  2.1140  0.8935  0.3978
  266MOL0     H36683   6.813   6.099   5.283 -0.3978  0.6075  0.4878
  266MOL0     H36684   6.886   6.032   5.489  0.1242 -0.4543  1.5873
  266MOL0     H36685   6.757   6.125   5.571 -1.9915 -0.5778 -0.5929
  266MOL0     H36686   6.852   6.329   5.538  0.1564  1.1831  0.2943
  266MOL0     H36687   7.001   6.268   5.473 -2.4079  3.4371 -1.2208
  266MOL0     H36688   6.112   5.737   5.673 -1.5155  0.9417 -1.7221
  266MOL0     H36689   5.876   5.722   5.676  0.1016  2.3921 -1.1732
  266MOL0     H36690   5.506   5.414   5.532  0.6821  0.6423  0.3787
  266MOL0     H36691   5.267   5.390   5.531 -0.4637 -0.1581 -0.6842
  266MOL0     H36692   3.184   5.688   5.784 -0.2551  0.9308 -2.7946
  266MOL0     H36693   2.978   5.818   5.759 -0.2032  0.5447  1.1466
  266MOL0     H36694   2.882   6.321   5.742 -1.9250  2.8701  1.4528
  266MOL0     H36695   2.697   6.483   5.717 -0.4275 -0.1695  0.1367
  266MOL0     H36696   2.575   6.560   5.509  1.1947 -2.0726 -1.5586
  266MOL0     H36697   2.470   6.473   5.409 -0.1309 -2.0242  0.3637
  266MOL0     H36698   2.404   6.653   5.636  1.2982 -2.9977  0.3859
  266MOL0     H36699   2.269   6.574   5.566 -0.6790  0.2941  4.2973
  266MOL0     H36700   2.459   6.761   5.400  0.3492 -0.6680  0.9036
  266MOL0     H36701   2.325   6.667   5.336 -0.0934 -0.5555  0.2206
  266MOL0     H36702   2.283   6.870   5.561  1.6712  0.1395  0.5690
  266MOL0     H36703   2.158   6.760   5.484  2.8619 -3.9404 -0.6205
  266MOL0     H36704   2.205   7.078   5.217  1.3406  2.0469  0.3827
  266MOL0     H36705   2.482   6.193   5.494 -2.7636 -2.7721  2.9605
  266MOL0     H36706   2.548   5.983   5.458 -0.0015 -0.1755 -2.3178
  266MOL0     H36707   2.721   5.979   5.420  0.5018 -1.5682 -0.0963
  266MOL0     H36708   2.663   5.907   5.569  0.7055  0.2563 -1.8698
  267MOL0     O36709   4.481   7.687  10.242  0.1183 -0.2668  0.4242
  267MOL0     C36710   4.420   7.791  10.207  0.1505  0.9811 -0.9223
  267MOL0     O36711   4.414   7.909  10.283  0.1365  0.4664 -0.2515
  267MOL0     C36712   4.475   7.927  10.405  0.4152  0.5704 -0.2987
  267MOL0     C36713   4.450   8.045  10.473 -0.4732 -0.0308  0.2611
  267MOL0     C36714   4.536   8.094  10.567  0.7293  0.3642 -0.8087
  267MOL0     C36715   4.632   8.021  10.635  1.2852  0.3368  0.1796
  267MOL0     O36716   4.706   8.087  10.724  0.4064  0.8393 -0.7795
  267MOL0     C36717   4.811   8.023  10.803 -0.3071 -0.7273 -0.7082
  267MOL0     C36718   4.859   8.114  10.924  0.4066  0.4665  0.4390
  267MOL0     C36719   4.981   8.055  11.000 -0.9634  0.6188  0.0993
  267MOL0     C36720   5.001   8.132  11.133 -0.4209  0.9302  0.4026
  267MOL0     C36721   5.098   8.240  11.098 -0.4561 -0.8448 -1.3007
  267MOL0     C36722   5.073   8.373  11.182  0.2535  0.1721  0.6673
  267MOL0     C36723   4.938   8.431  11.152 -0.1323  0.2924  0.6293
  267MOL0     C36724   4.943   8.556  11.068 -0.7258 -0.5162 -0.6278
  267MOL0     N36725   4.813   8.570  11.011  0.3705 -0.2081 -0.0394
  267MOL0     C36726   4.689   8.541  11.075 -0.7511  0.2306 -0.3449
  267MOL0     C36727   4.596   8.618  11.006  0.8588  0.3273 -0.1182
  267MOL0     C36728   4.452   8.632  11.054  0.1846 -0.9205 -0.5030
  267MOL0     C36729   4.335   8.618  10.945 -0.2319  0.1422  0.0591
  267MOL0     C36730   4.314   8.478  10.877  0.6032 -0.0608 -0.7228
  267MOL0     C36731   4.187   8.495  10.798 -0.2796  0.0704 -0.1678
  267MOL0     O36732   4.178   8.381  10.711  0.1030  0.3766 -0.4676
  267MOL0     C36733   4.057   8.345  10.653 -0.7918  0.4908 -0.0878
  267MOL0     C36734   4.044   8.220  10.589 -0.2102  0.0756  0.0769
  267MOL0     C36735   3.936   8.186  10.514  0.4530  0.3192 -0.1517
  267MOL0     C36736   3.940   8.052  10.449 -0.3572  0.7278  0.6198
  267MOL0     C36737   3.829   8.270  10.502  0.0444 -0.2214  0.4924
  267MOL0     C36738   3.711   8.251  10.410 -0.0843  0.2490 -0.2922
  267MOL0     O36739   3.599   8.324  10.438 -0.7992  0.7757  0.2520
  267MOL0     C36740   3.490   8.324  10.347  0.2394 -0.2329 -0.7527
  267MOL0     C36741   3.364   8.341  10.402 -0.2436 -0.3505 -0.8323
  267MOL0     C36742   3.253   8.342  10.324 -0.0062  0.1169 -0.3963
  267MOL0     C36743   3.255   8.336  10.190  0.1748  0.3706  0.4649
  267MOL0     O36744   3.134   8.325  10.122 -0.5930  0.5385 -0.5729
  267MOL0     C36745   3.139   8.284   9.985 -0.0113 -0.7410 -0.1632
  267MOL0     C36746   2.991   8.257   9.945  0.4589  0.0233 -0.4713
  267MOL0     C36747   2.935   8.133  10.016  0.3781 -0.8396 -0.9688
  267MOL0     C36748   2.781   8.127  10.018  0.6775 -0.1844 -0.6127
  267MOL0     C36749   2.728   7.984  10.044  0.3308 -0.2222  0.7192
  267MOL0     C36750   2.742   7.874   9.931 -0.4440  0.4497  0.5614
  267MOL0     C36751   2.659   7.912   9.799  0.0939 -1.0949 -0.2867
  267MOL0     C36752   2.642   7.789   9.717 -0.4356 -0.1907 -0.7637
  267MOL0    Cl36753   2.490   7.798   9.637  0.7651 -0.0119 -0.1872
  267MOL0     C36754   3.387   8.328  10.127 -0.1359 -0.0284  1.5802
  267MOL0     C36755   3.498   8.314  10.204  0.1925 -0.4219 -0.7926
  267MOL0     O36756   3.728   8.192  10.305  0.6010 -0.1488 -0.7977
  267MOL0     C36757   3.829   8.389  10.591  0.0804 -0.3932  0.6725
  267MOL0     C36758   3.945   8.428  10.657  0.0668 -1.1538  0.2730
  267MOL0     N36759   4.660   8.683  10.903 -0.5522  0.4930 -0.3177
  267MOL0     N36760   4.789   8.651  10.906 -0.5574  0.4781 -0.6285
  267MOL0     C36761   4.641   7.892  10.581 -1.2352 -1.3494 -0.5104
  267MOL0     C36762   4.570   7.846  10.468 -0.3203 -0.3180 -0.4526
  267MOL0     C36763   4.359   7.812  10.075  0.7927 -0.1490 -0.4774
  267MOL0     C36764   4.293   7.935  10.056  0.2636 -0.4673 -0.2983
  267MOL0     C36765   4.242   7.967   9.932  0.2671  0.3182 -0.0926
  267MOL0     C36766   4.244   7.877   9.824 -0.3034 -0.2295 -0.2344
  267MOL0     O36767   4.198   7.907   9.699  0.5681  0.4983  0.7524
  267MOL0     C36768   4.060   7.944   9.696 -0.1577 -0.9793 -0.2524
  267MOL0     C36769   3.989   7.892   9.573  0.7295  0.1970 -0.5535
  267MOL0     C36770   3.826   7.914   9.583 -1.1795 -0.5326 -0.5662
  267MOL0     C36771   3.746   7.851   9.463 -0.1515 -0.1690 -0.2853
  267MOL0     C36772   3.799   7.892   9.340 -0.3843 -0.5129  1.1095
  267MOL0     C36773   3.835   7.931   9.232 -0.0090 -0.3278  0.1921
  267MOL0     C36774   4.310   7.755   9.845  0.3933 -0.2437  0.8499
  267MOL0     C36775   4.354   7.714   9.972 -0.2284 -0.1057  0.7464
  267MOL0     C36776   4.403   7.575   9.990  0.3976 -0.4672  0.2644
  267MOL0     H36777   4.393   8.124  10.424 -0.0421  1.3183  1.8292
  267MOL0     H36778   4.526   8.200  10.588 -1.3539 -0.3096  2.2163
  267MOL0     H36779   4.902   7.992  10.750 -1.1032 -3.3100 -0.7000
  267MOL0     H36780   4.768   7.931  10.843 -0.4694  0.6844  2.6382
  267MOL0     H36781   4.874   8.216  10.888 -2.3655  0.5869 -0.6432
  267MOL0     H36782   4.776   8.124  10.995 -1.3787  0.7366 -1.5634
  267MOL0     H36783   4.964   7.948  11.016 -0.1391  0.6599  1.3567
  267MOL0     H36784   5.075   8.057  10.944  0.7394  1.1380  2.7722
  267MOL0     H36785   4.914   8.156  11.194  0.2123 -2.3925  2.9422
  267MOL0     H36786   5.052   8.060  11.198  0.6419  2.4661  1.3446
  267MOL0     H36787   5.091   8.273  10.994 -1.7962  1.7258 -0.4921
  267MOL0     H36788   5.195   8.198  11.126 -0.7197  0.3692  1.8829
  267MOL0     H36789   5.069   8.353  11.290 -2.3646  0.5401  0.7081
  267MOL0     H36790   5.154   8.446  11.167 -0.6021  0.5064 -3.6092
  267MOL0     H36791   4.881   8.460  11.241  1.1336  2.6284  0.7759
  267MOL0     H36792   4.886   8.352  11.097  1.2668 -1.2575  1.4403
  267MOL0     H36793   4.964   8.640  11.135 -1.7691 -1.0600  0.4167
  267MOL0     H36794   5.017   8.559  10.987 -1.1753 -0.2822 -1.0350
  267MOL0     H36795   4.675   8.491  11.170 -1.2989 -0.5396 -0.8198
  267MOL0     H36796   4.442   8.731  11.099  0.0313  0.1142 -2.6957
  267MOL0     H36797   4.424   8.560  11.131  0.1468  0.2981  0.6645
  267MOL0     H36798   4.241   8.652  10.991 -1.1972 -1.6252 -0.5043
  267MOL0     H36799   4.359   8.701  10.879  2.0704  1.6729  2.6017
  267MOL0     H36800   4.401   8.463  10.812  2.1141  2.6368  0.5131
  267MOL0     H36801   4.308   8.401  10.954 -0.7928 -0.0295 -0.7806
  267MOL0     H36802   4.099   8.497  10.862 -0.7904  2.0674 -0.8697
  267MOL0     H36803   4.189   8.585  10.735  2.5933  1.0176  1.1401
  267MOL0     H36804   4.137   8.163  10.591  1.2597  2.2901  2.5812
  267MOL0     H36805   3.845   7.997  10.450 -0.3606  0.7155 -0.1324
  267MOL0     H36806   4.012   7.983  10.494 -1.7082 -2.0607 -1.1616
  267MOL0     H36807   3.965   8.078  10.346 -0.6276  1.1362  0.6574
  267MOL0     H36808   3.360   8.347  10.510 -1.3706 -0.5268 -0.8516
  267MOL0     H36809   3.165   8.339  10.388  1.6238  2.7228  2.2399
  267MOL0     H36810   3.184   8.362   9.922  0.7466 -0.3086  0.8820
  267MOL0     H36811   3.189   8.189   9.965  2.7213  1.1070 -3.1923
  267MOL0     H36812   2.937   8.346   9.976 -0.2408  0.2320 -2.1850
  267MOL0     H36813   2.991   8.249   9.836  3.2586 -1.4607 -0.4785
  267MOL0     H36814   2.971   8.139  10.119  1.9008  0.7586 -1.5388
  267MOL0     H36815   2.971   8.037   9.978  1.5788 -0.6026 -0.4538
  267MOL0     H36816   2.750   8.160   9.918 -3.8502 -0.5621  0.4620
  267MOL0     H36817   2.733   8.193  10.090  1.4709  0.8758 -1.0423
  267MOL0     H36818   2.776   7.952  10.137 -2.5162  4.3791  4.2574
  267MOL0     H36819   2.623   7.993  10.075  0.6991  2.1667  1.5234
  267MOL0     H36820   2.690   7.788   9.974  1.0588 -0.8877 -0.1925
  267MOL0     H36821   2.846   7.852   9.909 -0.7015  0.7671 -1.1377
  267MOL0     H36822   2.714   7.995   9.754  0.2618 -0.7664  0.5109
  267MOL0     H36823   2.561   7.956   9.822  0.6250  0.4304 -0.8034
  267MOL0     H36824   2.649   7.699   9.778 -0.4030  1.2734  1.5242
  267MOL0     H36825   2.729   7.790   9.651  1.4125  0.3501  1.5491
  267MOL0     H36826   3.410   8.315  10.021  0.4363  1.5021  1.4888
  267MOL0     H36827   3.593   8.314  10.151  0.5007  0.1344 -0.2501
  267MOL0     H36828   3.750   8.459  10.565  0.6013  0.8954  2.3325
  267MOL0     H36829   3.944   8.532  10.689 -2.1084 -0.5664 -1.3964
  267MOL0     H36830   4.710   7.816  10.618 -1.4499 -1.1767  0.2608
  267MOL0     H36831   4.601   7.747  10.437  0.0108  0.8271 -4.2518
  267MOL0     H36832   4.297   8.022  10.120 -1.2330 -1.5337  1.3156
  267MOL0     H36833   4.185   8.059   9.925 -0.2585 -0.0723 -1.2118
  267MOL0     H36834   4.011   7.903   9.785 -1.2054 -1.0014 -0.8229
  267MOL0     H36835   4.059   8.053   9.700  2.4701 -0.9311  1.5176
  267MOL0     H36836   4.005   7.784   9.574 -0.3400  0.0277 -0.1492
  267MOL0     H36837   4.025   7.927   9.476 -1.0804  0.1217 -1.2999
  267MOL0     H36838   3.792   7.877   9.680 -1.4130 -2.0317 -1.1859
  267MOL0     H36839   3.793   8.019   9.582 -3.4356 -1.1604  0.6812
  267MOL0     H36840   3.643   7.877   9.486  0.2913  0.9605  0.5134
  267MOL0     H36841   3.756   7.742   9.454  0.6075 -0.1098 -0.2308
  267MOL0     H36842   3.861   7.947   9.129 -2.1291  0.5724 -0.2581
  267MOL0     H36843   4.327   7.689   9.761 -0.5932  1.8235 -1.0641
  267MOL0     H36844   4.507   7.589  10.020 -0.3893  1.4620  2.4138
  267MOL0     H36845   4.350   7.535  10.077 -0.3133  2.8929  1.5498
  267MOL0     H36846   4.371   7.519   9.901 -0.3437  1.8515 -1.0183
  268MOL0     O36847   3.130   6.928   1.690  0.2205 -0.1554 -0.1014
  268MOL0     C36848   3.125   7.047   1.720 -0.2215  0.1135 -0.8738
  268MOL0     O36849   3.190   7.143   1.655  0.6682  0.0575 -0.2393
  268MOL0     C36850   3.296   7.111   1.580  0.1350 -0.1956  0.5383
  268MOL0     C36851   3.399   7.025   1.625 -0.6555  0.0461 -0.0374
  268MOL0     C36852   3.527   7.018   1.563  0.0232 -0.5900  0.6346
  268MOL0     C36853   3.540   7.090   1.439  0.1205 -0.2363  0.4510
  268MOL0     O36854   3.635   7.079   1.345  0.2408  0.3293  0.0257
  268MOL0     C36855   3.767   7.060   1.398  0.5641  0.6855  0.7182
  268MOL0     C36856   3.866   7.128   1.310 -1.1145 -0.2642  0.0572
  268MOL0     C36857   4.008   7.082   1.353 -0.0528 -0.0372 -0.6585
  268MOL0     C36858   4.119   7.143   1.265 -0.1105  0.1071  0.2833
  268MOL0     C36859   4.262   7.079   1.287  0.4017  0.8331  1.0085
  268MOL0     C36860   4.347   7.064   1.159 -0.0109 -0.0511 -0.7644
  268MOL0     C36861   4.291   6.982   1.047  0.2356 -0.1269  0.9557
  268MOL0     C36862   4.255   6.843   1.093  0.8391  0.7796 -0.5371
  268MOL0     N36863   4.270   6.746   0.985 -0.0877  0.6060 -0.3433
  268MOL0     C36864   4.154   6.707   0.922 -0.1459  0.4326  0.1128
  268MOL0     C36865   4.196   6.616   0.829 -0.3540 -0.4649  0.4021
  268MOL0     C36866   4.105   6.542   0.727 -0.3625  0.6220  0.2708
  268MOL0     C36867   4.019   6.636   0.637  0.3718 -0.2366 -0.6420
  268MOL0     C36868   3.974   6.571   0.506  0.3757 -0.3697 -0.3899
  268MOL0     C36869   3.888   6.451   0.527  0.2626 -0.7937  0.6539
  268MOL0     O36870   3.806   6.445   0.642 -0.4011  0.0887 -0.6385
  268MOL0     C36871   3.698   6.360   0.620  0.0373  0.2918 -0.8164
  268MOL0     C36872   3.709   6.223   0.588  0.4192 -0.2465  0.0397
  268MOL0     C36873   3.597   6.143   0.580 -0.7075  0.0669  0.9543
  268MOL0     C36874   3.625   6.003   0.543  0.2174 -0.7986 -0.2083
  268MOL0     C36875   3.471   6.191   0.607 -1.1681  0.0545  0.2322
  268MOL0     C36876   3.339   6.116   0.595 -0.1996  0.6303 -0.5398
  268MOL0     O36877   3.234   6.180   0.643 -0.0745  0.3826  0.3234
  268MOL0     C36878   3.104   6.125   0.630 -0.2470 -0.6314 -0.4936
  268MOL0     C36879   3.004   6.208   0.684 -1.0908  0.2149  0.0899
  268MOL0     C36880   2.873   6.167   0.681 -0.2724 -0.4148  0.1733
  268MOL0     C36881   2.829   6.044   0.623 -0.5264  0.2560 -1.2984
  268MOL0     O36882   2.703   6.006   0.618  0.5051  0.5345 -0.2006
  268MOL0     C36883   2.643   5.951   0.737  0.8224  0.0017 -0.4930
  268MOL0     C36884   2.520   6.043   0.768 -0.1533  0.4315  0.5021
  268MOL0     C36885   2.449   5.979   0.898 -0.9841  0.5160 -0.2543
  268MOL0     C36886   2.361   6.083   0.964 -0.4226 -0.1401  0.0206
  268MOL0     C36887   2.259   6.030   1.069 -0.5276 -0.2711 -0.3271
  268MOL0     C36888   2.180   6.146   1.118 -0.5278 -0.5692  0.7573
  268MOL0     C36889   2.052   6.100   1.183  0.4121  0.1120 -1.0100
  268MOL0     C36890   2.070   6.001   1.305 -0.3517  0.1845  0.8384
  268MOL0    Cl36891   1.925   5.992   1.405  0.0903  0.7737  0.1779
  268MOL0     C36892   2.930   5.956   0.571  0.0321 -0.6351 -0.7402
  268MOL0     C36893   3.063   6.000   0.581  0.5336 -0.5582  0.4863
  268MOL0     O36894   3.343   6.005   0.548 -0.6073  0.3308  0.5861
  268MOL0     C36895   3.467   6.329   0.637  0.3258  0.1179 -0.6617
  268MOL0     C36896   3.578   6.411   0.643 -0.0009 -0.3238 -0.7173
  268MOL0     N36897   4.340   6.615   0.826 -0.1616  0.1138  0.3859
  268MOL0     N36898   4.376   6.679   0.931  0.4938 -0.5547  0.2080
  268MOL0     C36899   3.430   7.168   1.395 -0.1512 -1.0295  0.0693
  268MOL0     C36900   3.313   7.189   1.468 -0.0546  0.0611  0.1683
  268MOL0     C36901   3.004   7.083   1.806 -1.1255 -0.0856 -0.4067
  268MOL0     C36902   2.944   7.205   1.781  0.1406  0.5068 -1.0050
  268MOL0     C36903   2.825   7.236   1.851  0.0481 -0.4483 -0.1489
  268MOL0     C36904   2.779   7.163   1.962 -0.2736 -0.2360 -0.3660
  268MOL0     O36905   2.675   7.199   2.046  0.1019 -0.1930  0.9475
  268MOL0     C36906   2.548   7.245   1.992  0.6174  0.1266 -0.1565
  268MOL0     C36907   2.456   7.127   1.969 -0.3517  0.1707  0.3362
  268MOL0     C36908   2.310   7.157   1.932  0.2987  0.4149 -0.4154
  268MOL0     C36909   2.237   7.196   2.058  0.8706  0.8706 -0.6549
  268MOL0     C36910   2.103   7.242   2.037 -0.8879 -0.1626  0.3578
  268MOL0     C36911   1.988   7.283   2.044 -0.2451 -0.1658  0.2632
  268MOL0     C36912   2.845   7.045   1.985 -0.1854  0.9409 -0.6306
  268MOL0     C36913   2.955   6.999   1.907 -1.0013 -0.2915  0.5203
  268MOL0     C36914   3.013   6.866   1.947 -0.5814 -0.0579 -0.0371
  268MOL0     H36915   3.376   6.951   1.701 -1.0634 -2.3413 -2.3270
  268MOL0     H36916   3.602   6.960   1.615  0.4197 -0.5194  0.1447
  268MOL0     H36917   3.794   6.955   1.412  1.8916  0.9495  0.2608
  268MOL0     H36918   3.779   7.090   1.503 -0.0237 -3.8352  2.3029
  268MOL0     H36919   3.850   7.114   1.202  1.0649 -1.5643 -0.1681
  268MOL0     H36920   3.851   7.236   1.318  1.4077  0.0364  1.6624
  268MOL0     H36921   4.020   7.104   1.460 -3.6911  0.6436 -0.2526
  268MOL0     H36922   4.025   6.975   1.340  0.0716  0.0593 -1.3062
  268MOL0     H36923   4.094   7.125   1.160  2.7453 -0.3291 -0.4226
  268MOL0     H36924   4.114   7.251   1.282  0.3464 -0.2517  3.1519
  268MOL0     H36925   4.257   6.981   1.337 -1.9582 -0.6521 -1.8463
  268MOL0     H36926   4.316   7.132   1.366  0.6971  0.8656  0.7882
  268MOL0     H36927   4.363   7.167   1.125 -1.7532  0.7988  0.7573
  268MOL0     H36928   4.444   7.032   1.196 -1.4821 -1.4400  2.2828
  268MOL0     H36929   4.369   6.985   0.970  1.8795 -0.3999  2.5398
  268MOL0     H36930   4.208   7.039   1.004  1.5115  2.8069  2.1519
  268MOL0     H36931   4.322   6.811   1.172 -1.0801 -1.8684  0.1790
  268MOL0     H36932   4.153   6.851   1.132 -0.3007 -0.3153 -3.0107
  268MOL0     H36933   4.050   6.735   0.936  0.0456  0.4946  1.5992
  268MOL0     H36934   4.045   6.476   0.790  2.7287 -1.3723  1.3361
  268MOL0     H36935   4.174   6.469   0.682  1.1828  0.2209  3.0995
  268MOL0     H36936   3.929   6.656   0.695 -0.1988 -1.0600 -1.2100
  268MOL0     H36937   4.073   6.728   0.614  0.2552 -0.3707 -1.4942
  268MOL0     H36938   3.921   6.652   0.455  0.9764  1.2256  1.4128
  268MOL0     H36939   4.054   6.544   0.437  0.5157 -3.3900  0.7831
  268MOL0     H36940   3.835   6.435   0.432  0.0864  0.5892  0.4997
  268MOL0     H36941   3.961   6.370   0.518  4.1623  2.5157 -1.2679
  268MOL0     H36942   3.809   6.183   0.575  0.6088 -0.0990  0.9865
  268MOL0     H36943   3.576   5.933   0.610  0.7180  0.4480  1.5442
  268MOL0     H36944   3.732   5.977   0.546  1.1445  2.5148 -0.5165
  268MOL0     H36945   3.579   5.988   0.445 -1.0804  3.8296 -0.5457
  268MOL0     H36946   3.038   6.309   0.701  0.8205  0.3769 -3.5931
  268MOL0     H36947   2.802   6.244   0.709  0.2551  0.0474  0.2777
  268MOL0     H36948   2.614   5.849   0.712  2.7457 -0.7687  0.2416
  268MOL0     H36949   2.710   5.957   0.824 -1.7096  3.1626  1.4751
  268MOL0     H36950   2.543   6.148   0.786  0.1026  0.5968 -0.7260
  268MOL0     H36951   2.461   6.044   0.676  0.1117  3.0691  0.2823
  268MOL0     H36952   2.518   5.931   0.968 -0.7005 -0.7934 -1.3946
  268MOL0     H36953   2.387   5.897   0.861  0.0383  0.4850 -2.0011
  268MOL0     H36954   2.293   6.128   0.892 -2.1496  2.0920  2.8554
  268MOL0     H36955   2.419   6.152   1.025 -0.7917  0.5789 -0.4352
  268MOL0     H36956   2.193   5.958   1.020  0.0215  0.8085 -2.8756
  268MOL0     H36957   2.307   5.980   1.153 -1.7261  2.8147  2.3864
  268MOL0     H36958   2.158   6.220   1.041  3.1842 -0.3989 -0.3060
  268MOL0     H36959   2.241   6.210   1.183 -1.8261  0.7694  0.7238
  268MOL0     H36960   1.979   6.055   1.115 -2.2051 -1.1882  2.3889
  268MOL0     H36961   1.988   6.181   1.217  0.0622 -0.4182 -0.3856
  268MOL0     H36962   2.150   6.040   1.369  3.7038 -3.3094 -1.5640
  268MOL0     H36963   2.111   5.902   1.283  0.8046  1.2501 -2.4227
  268MOL0     H36964   2.905   5.859   0.530 -0.6952 -0.2828 -1.1504
  268MOL0     H36965   3.132   5.944   0.518 -2.7244 -0.2662 -3.7806
  268MOL0     H36966   3.373   6.379   0.661  1.2176  0.9768  1.2753
  268MOL0     H36967   3.560   6.507   0.690 -1.6339 -1.8549  2.1241
  268MOL0     H36968   3.441   7.218   1.299  2.9107 -1.4474  0.1100
  268MOL0     H36969   3.243   7.269   1.450 -0.0192  0.2422  0.8346
  268MOL0     H36970   2.980   7.288   1.722 -1.9656  2.7222  0.6145
  268MOL0     H36971   2.781   7.330   1.818 -2.3793 -1.0536  1.1319
  268MOL0     H36972   2.498   7.311   2.064  2.6497  0.8968  0.5991
  268MOL0     H36973   2.552   7.292   1.894 -2.3402  0.7113 -0.1063
  268MOL0     H36974   2.451   7.058   2.053 -1.7825  0.0305  0.1701
  268MOL0     H36975   2.497   7.075   1.881 -2.8527 -0.7610 -0.3917
  268MOL0     H36976   2.299   7.240   1.861 -3.1047  0.0067 -0.4921
  268MOL0     H36977   2.268   7.070   1.882 -0.5275  0.1829  0.6558
  268MOL0     H36978   2.282   7.275   2.118  3.5544 -1.6372  0.8854
  268MOL0     H36979   2.232   7.107   2.122  0.5432 -0.3286 -2.2889
  268MOL0     H36980   1.895   7.334   2.058 -0.4163  0.4971 -2.6183
  268MOL0     H36981   2.797   6.989   2.064  0.5020  1.5548  0.2392
  268MOL0     H36982   2.991   6.777   1.888  4.3801 -2.3240  1.0450
  268MOL0     H36983   3.122   6.876   1.949 -0.1155 -3.8448  0.0397
  268MOL0     H36984   2.997   6.838   2.051  2.2931 -4.0810 -0.4278
  269MOL0     O36985  10.901   6.343   1.746  0.2186  0.8602 -0.2431
  269MOL0     C36986  10.876   6.272   1.837  0.3727  0.8035 -0.1855
  269MOL0     O36987  10.969   6.194   1.904 -0.2553  0.5794 -0.4146
  269MOL0     C36988  11.090   6.178   1.845 -0.3041  0.2746 -0.6969
  269MOL0     C36989  11.219   6.215   1.888  0.3041  0.5799  0.2221
  269MOL0     C36990  11.330   6.188   1.806 -0.0954 -0.8549 -0.3308
  269MOL0     C36991  11.314   6.104   1.690 -0.9833 -0.6164  0.1851
  269MOL0     O36992  11.415   6.067   1.610  0.2875 -0.1554  0.4064
  269MOL0     C36993  11.545   6.033   1.654  0.1680 -0.1034  0.1556
  269MOL0     C36994  11.663   6.126   1.601 -0.4514  0.3167 -0.6674
  269MOL0     C36995  11.800   6.106   1.671 -0.0319 -0.1387  0.2833
  269MOL0     C36996  11.923   6.187   1.614  0.3613 -0.0207 -0.2837
  269MOL0     C36997  12.053   6.157   1.690  0.0222 -0.6688  0.3848
  269MOL0     C36998  12.187   6.196   1.611  0.0824 -0.2636  0.0487
  269MOL0     C36999  12.308   6.190   1.707  0.2039  0.6804 -0.1036
  269MOL0     C37000  12.374   6.050   1.725 -0.4307 -0.6130  0.0442
  269MOL0     N37001  12.494   6.062   1.802 -0.0835  0.8865  1.1462
  269MOL0     C37002  12.610   6.122   1.763 -0.8418  0.3485  0.7758
  269MOL0     C37003  12.697   6.109   1.864  0.4219 -0.5250 -0.9809
  269MOL0     C37004  12.844   6.151   1.885  0.3670 -0.2442 -0.4790
  269MOL0     C37005  12.914   6.049   1.986 -0.0962  0.3263  0.6698
  269MOL0     C37006  12.941   5.917   1.916  0.1339  0.0781 -0.3190
  269MOL0     C37007  13.027   5.830   2.010 -0.2658  0.7858 -0.1958
  269MOL0     O37008  13.065   5.704   1.945  0.7086 -0.6888 -0.4063
  269MOL0     C37009  13.176   5.709   1.866 -0.9461  0.2372  0.3776
  269MOL0     C37010  13.167   5.700   1.722  0.0215 -0.2799 -0.2674
  269MOL0     C37011  13.277   5.672   1.649  0.3073  0.0906  0.5847
  269MOL0     C37012  13.260   5.655   1.503 -0.2842  0.3455  1.3664
  269MOL0     C37013  13.398   5.663   1.714  0.0372  0.3569 -0.3974
  269MOL0     C37014  13.526   5.654   1.637  0.4412 -1.0665 -0.1305
  269MOL0     O37015  13.536   5.605   1.511 -0.0520  0.1107  1.0575
  269MOL0     C37016  13.669   5.571   1.477  0.1008  0.3435 -0.5479
  269MOL0     C37017  13.718   5.441   1.503 -0.3642  0.3499 -0.5377
  269MOL0     C37018  13.845   5.400   1.471 -1.2533 -0.2401  0.4769
  269MOL0     C37019  13.933   5.494   1.402  0.0470  0.8098 -0.5345
  269MOL0     O37020  14.060   5.462   1.395  0.9230 -0.1462 -0.0010
  269MOL0     C37021  14.158   5.560   1.349 -0.0711  0.3612 -0.4731
  269MOL0     C37022  14.305   5.516   1.387 -0.5599  0.2400  0.2367
  269MOL0     C37023  14.410   5.628   1.356 -0.0396 -0.7012 -0.2629
  269MOL0     C37024  14.555   5.579   1.387  0.6151  1.3068 -0.2327
  269MOL0     C37025  14.653   5.695   1.381 -0.8564 -0.5411  0.7811
  269MOL0     C37026  14.790   5.654   1.403 -0.2147  0.8693  0.1919
  269MOL0     C37027  14.876   5.781   1.404  0.1845 -0.4233 -0.1380
  269MOL0     C37028  15.018   5.754   1.463 -1.1293 -0.4787 -0.4076
  269MOL0    Cl37029  15.038   5.664   1.626  0.0311  0.3658  0.3595
  269MOL0     C37030  13.879   5.617   1.358 -0.6074 -0.0288  0.3137
  269MOL0     C37031  13.752   5.656   1.402 -0.6400  1.2780 -0.1753
  269MOL0     O37032  13.616   5.716   1.690  0.5702 -0.1447 -0.0087
  269MOL0     C37033  13.411   5.682   1.851  0.3204  0.5827  0.0288
  269MOL0     C37034  13.297   5.690   1.934  0.3900  0.3549 -0.6861
  269MOL0     N37035  12.626   6.056   1.972  1.0612  0.8862  0.9948
  269MOL0     N37036  12.504   6.023   1.931 -0.7841  0.5210  1.0220
  269MOL0     C37037  11.193   6.058   1.655  0.8675  0.1440  0.1921
  269MOL0     C37038  11.082   6.091   1.735 -0.5130 -0.1971 -0.7142
  269MOL0     C37039  10.740   6.280   1.888  0.3738  0.5316  0.0215
  269MOL0     C37040  10.712   6.330   2.010  0.2532 -1.2137 -0.0469
  269MOL0     C37041  10.577   6.324   2.066 -0.4641 -0.0156  0.8423
  269MOL0     C37042  10.471   6.275   1.986 -0.0058 -0.0379 -0.0751
  269MOL0     O37043  10.336   6.286   2.028  0.3587 -0.8201 -0.1941
  269MOL0     C37044  10.237   6.294   1.928  0.2478  0.2900 -0.4483
  269MOL0     C37045  10.110   6.377   1.977  0.5381  0.6881 -0.8583
  269MOL0     C37046  10.159   6.493   2.065  0.3816  1.0158 -0.4270
  269MOL0     C37047  10.240   6.594   1.985 -0.4663  0.4096 -0.4666
  269MOL0     C37048  10.181   6.664   1.867  0.7468  0.2945  0.0679
  269MOL0     C37049  10.117   6.702   1.769 -0.4663  0.0449  0.6059
  269MOL0     C37050  10.503   6.224   1.853 -0.2617 -0.2720 -0.4258
  269MOL0     C37051  10.638   6.224   1.804 -0.0923  0.0288 -0.3202
  269MOL0     C37052  10.680   6.173   1.664  0.6342 -0.5395  0.5662
  269MOL0     H37053  11.242   6.271   1.978  1.2425  1.9365 -0.8209
  269MOL0     H37054  11.424   6.234   1.834 -2.0658  1.6478  2.8978
  269MOL0     H37055  11.573   5.935   1.615 -1.7910 -0.0983 -1.4684
  269MOL0     H37056  11.539   6.027   1.763 -1.4779  1.6849  0.2358
  269MOL0     H37057  11.669   6.107   1.493 -1.3506  3.0318 -1.2708
  269MOL0     H37058  11.635   6.230   1.622  0.4949  0.5155 -0.3560
  269MOL0     H37059  11.778   6.127   1.777  1.1767 -0.4339  0.6009
  269MOL0     H37060  11.837   6.004   1.672 -1.0825 -0.6298 -2.6509
  269MOL0     H37061  11.940   6.155   1.511  0.6214 -2.8664  0.5481
  269MOL0     H37062  11.905   6.294   1.629  2.1615 -0.0057  2.5453
  269MOL0     H37063  12.055   6.051   1.720 -1.3954 -0.4232  1.4518
  269MOL0     H37064  12.047   6.224   1.776 -2.4809  1.1213 -1.0902
  269MOL0     H37065  12.207   6.126   1.529 -1.9133 -1.4585  0.5180
  269MOL0     H37066  12.170   6.299   1.578  0.6303  0.8648  2.9343
  269MOL0     H37067  12.285   6.217   1.810  0.1318 -2.5803  0.8413
  269MOL0     H37068  12.399   6.247   1.685  1.7284 -1.8969 -0.9124
  269MOL0     H37069  12.296   5.982   1.761 -1.2482  0.7141  0.9052
  269MOL0     H37070  12.385   6.007   1.625  0.4464 -2.6360  0.9471
  269MOL0     H37071  12.635   6.164   1.666  3.0854 -2.4160  0.3670
  269MOL0     H37072  12.856   6.251   1.929 -1.6606 -0.2532  0.1919
  269MOL0     H37073  12.905   6.149   1.794  2.7158  2.0137  0.8981
  269MOL0     H37074  13.008   6.097   2.014 -0.5066  3.0947 -2.1299
  269MOL0     H37075  12.845   6.039   2.070 -2.5050  0.0454 -1.2040
  269MOL0     H37076  12.848   5.864   1.897 -1.3405  1.8797  1.4290
  269MOL0     H37077  12.996   5.929   1.822  1.1790  0.0222  0.2589
  269MOL0     H37078  13.117   5.882   2.043 -0.1200  0.6906 -0.4365
  269MOL0     H37079  12.962   5.805   2.094  2.3869  1.5142  2.2295
  269MOL0     H37080  13.070   5.717   1.678  0.3736  3.5305  0.0505
  269MOL0     H37081  13.159   5.680   1.470  0.4053  0.8637 -0.4605
  269MOL0     H37082  13.282   5.553   1.471  0.3596  1.6205 -2.7913
  269MOL0     H37083  13.327   5.719   1.445 -0.3072  0.0747  1.0387
  269MOL0     H37084  13.648   5.380   1.559  0.8684  1.8099  2.8685
  269MOL0     H37085  13.892   5.308   1.503 -2.1268 -0.0787  2.3035
  269MOL0     H37086  14.153   5.579   1.241 -0.6155 -1.7395 -0.8706
  269MOL0     H37087  14.146   5.654   1.403  1.0748  1.1493 -1.5467
  269MOL0     H37088  14.315   5.489   1.492 -0.5809 -0.2673  0.1140
  269MOL0     H37089  14.321   5.432   1.319  1.8269 -1.3711  2.6128
  269MOL0     H37090  14.385   5.694   1.440  2.9371 -1.3178  1.2534
  269MOL0     H37091  14.404   5.679   1.260 -1.0626  0.4429  0.3698
  269MOL0     H37092  14.595   5.501   1.322 -1.0783 -0.4184  0.7140
  269MOL0     H37093  14.566   5.527   1.482  1.4496  2.3232  0.2449
  269MOL0     H37094  14.662   5.740   1.281 -0.0451 -0.3795  0.9266
  269MOL0     H37095  14.631   5.777   1.450 -0.8167  0.5508 -0.4675
  269MOL0     H37096  14.829   5.581   1.331  1.6397  0.5297  1.4674
  269MOL0     H37097  14.790   5.619   1.506 -1.7882  0.2198  0.0142
  269MOL0     H37098  14.832   5.850   1.478  0.0000 -2.1383  1.4297
  269MOL0     H37099  14.883   5.833   1.308  2.3758 -0.3659 -0.0012
  269MOL0     H37100  15.074   5.848   1.467  0.4014 -1.3702 -0.2474
  269MOL0     H37101  15.070   5.695   1.387  2.2212  0.7382  0.7634
  269MOL0     H37102  13.946   5.682   1.303  5.2909 -4.9453  0.6304
  269MOL0     H37103  13.726   5.757   1.371  1.5316  1.1312 -2.8962
  269MOL0     H37104  13.507   5.689   1.901 -0.5921  0.2599  1.9187
  269MOL0     H37105  13.292   5.687   2.042 -0.9631  0.9838 -0.7167
  269MOL0     H37106  11.171   5.997   1.568  0.2252  1.8939 -0.9257
  269MOL0     H37107  10.987   6.058   1.696 -0.4975  0.4733 -1.3429
  269MOL0     H37108  10.783   6.392   2.063  1.7647 -0.4682 -2.7419
  269MOL0     H37109  10.562   6.367   2.165 -1.6728 -0.1383  0.7321
  269MOL0     H37110  10.281   6.344   1.842 -1.2045  1.4937 -0.5244
  269MOL0     H37111  10.208   6.195   1.891 -1.9108  0.3183  0.9826
  269MOL0     H37112  10.045   6.307   2.031  0.7529  1.4789  0.4524
  269MOL0     H37113  10.051   6.403   1.888  0.3169 -0.5033 -1.0824
  269MOL0     H37114  10.078   6.541   2.120 -0.2838 -0.5947  0.0478
  269MOL0     H37115  10.220   6.449   2.144  0.2954  1.4055 -0.1392
  269MOL0     H37116  10.331   6.545   1.948 -1.2109  1.0289 -3.3284
  269MOL0     H37117  10.270   6.672   2.056 -1.5660  0.4133  0.0149
  269MOL0     H37118  10.051   6.721   1.686 -0.7456  4.5887  1.5929
  269MOL0     H37119  10.427   6.195   1.780  0.1482  3.6574 -2.6802
  269MOL0     H37120  10.687   6.261   1.600  2.2329 -1.2795 -0.3369
  269MOL0     H37121  10.777   6.130   1.640  1.0130  1.8819 -2.9084
  269MOL0     H37122  10.606   6.102   1.625 -3.5405  0.4170  5.6204
  270MOL0     O37123   6.567   0.279   3.472  0.2549 -0.2863 -0.0966
  270MOL0     C37124   6.544   0.168   3.532  0.0332 -0.1383  0.7637
  270MOL0     O37125   6.636   0.058   3.519  0.7977 -0.3841 -0.5587
  270MOL0     C37126   6.756   0.088   3.460 -1.0604 -0.8086 -0.3511
  270MOL0     C37127   6.797   0.009   3.353 -0.0695 -0.4285  0.0669
  270MOL0     C37128   6.913   0.038   3.285 -0.5527 -0.0692  0.1275
  270MOL0     C37129   7.009   0.140   3.331  0.3403  0.6289  0.0990
  270MOL0     O37130   7.142   0.154   3.287 -0.0531 -0.4006  0.1854
  270MOL0     C37131   7.209   0.060   3.195  0.5753 -0.0067 -0.3224
  270MOL0     C37132   7.351   0.085   3.188 -0.4380 -0.4422  0.3230
  270MOL0     C37133   7.374   0.219   3.116 -0.0806 -0.1175 -0.2821
  270MOL0     C37134   7.366   0.201   2.959 -0.1038  0.1735  0.9412
  270MOL0     C37135   7.443   0.320   2.887 -0.2212 -0.4778  0.2852
  270MOL0     C37136   7.404   0.338   2.739 -0.6223  0.4878  0.2037
  270MOL0     C37137   7.458   0.465   2.674  0.3147  0.5268  0.3196
  270MOL0     C37138   7.444   0.455   2.525  0.0306 -0.2038 -0.3023
  270MOL0     N37139   7.536   0.353   2.468  0.2390  0.5369 -0.2198
  270MOL0     C37140   7.515   0.299   2.348 -0.4781 -0.2371 -0.3153
  270MOL0     C37141   7.616   0.211   2.336  0.0014  0.6594  0.5122
  270MOL0     C37142   7.658   0.131   2.213 -0.5879  0.6869  0.6311
  270MOL0     C37143   7.776   0.200   2.146  0.3664 -0.9814 -0.3675
  270MOL0     C37144   7.789   0.132   2.016 -0.0679  0.6099  0.7095
  270MOL0     C37145   7.910   0.189   1.937 -0.6271 -0.2257  0.1006
  270MOL0     O37146   7.919   0.122   1.807  0.2647 -0.2843 -0.2507
  270MOL0     C37147   7.997   0.176   1.704  0.0665  0.3909 -0.9725
  270MOL0     C37148   8.068   0.296   1.712 -1.3440  0.6580 -0.3097
  270MOL0     C37149   8.149   0.351   1.613  0.0887  0.7111  0.5699
  270MOL0     C37150   8.247   0.461   1.658 -0.0052  0.4743  0.0736
  270MOL0     C37151   8.159   0.277   1.494 -0.4106  0.1709  0.1993
  270MOL0     C37152   8.252   0.310   1.382 -0.3970  0.3836  0.2660
  270MOL0     O37153   8.216   0.257   1.257  0.1268 -0.5903  0.0223
  270MOL0     C37154   8.316   0.256   1.161 -0.5530 -0.1583  0.6047
  270MOL0     C37155   8.397   0.138   1.149  0.3144 -0.3273  0.4055
  270MOL0     C37156   8.495   0.124   1.051 -0.1517  0.2256 -1.0602
  270MOL0     C37157   8.518   0.219   0.953 -0.3776  0.1122  0.7210
  270MOL0     O37158   8.610   0.220   0.854 -0.4228  0.1099  0.0568
  270MOL0     C37159   8.719   0.134   0.871 -0.4675  0.3144 -0.7677
  270MOL0     C37160   8.812   0.162   0.747 -0.0914  0.0375  0.5532
  270MOL0     C37161   8.755   0.102   0.622 -0.5026  0.4138 -0.4291
  270MOL0     C37162   8.846   0.093   0.499 -0.0336 -0.2715 -0.1872
  270MOL0     C37163   8.946  -0.026   0.489 -0.5257 -1.0839  0.6728
  270MOL0     C37164   9.020  -0.051   0.356 -0.3784  0.3251 -0.2252
  270MOL0     C37165   9.118  -0.166   0.370  0.5218 -0.8047 -0.7673
  270MOL0     C37166   9.132  -0.242   0.238 -0.1655  0.2895 -0.6374
  270MOL0    Cl37167   9.273  -0.360   0.249 -0.2659  0.2454 -0.1796
  270MOL0     C37168   8.416   0.319   0.942 -0.3324 -0.2027  1.0937
  270MOL0     C37169   8.322   0.342   1.044  0.3179 -0.4873 -0.5759
  270MOL0     O37170   8.366   0.358   1.400  0.3901  0.5261 -0.0734
  270MOL0     C37171   8.084   0.155   1.486 -1.0725 -0.1549  1.0921
  270MOL0     C37172   8.005   0.105   1.584 -0.1578 -0.0010 -0.4925
  270MOL0     N37173   7.672   0.185   2.458  0.2078  0.0973 -0.3904
  270MOL0     N37174   7.638   0.278   2.533  0.1826 -0.3330  0.7023
  270MOL0     C37175   6.973   0.214   3.442  1.0601  0.1657 -0.3205
  270MOL0     C37176   6.848   0.187   3.505 -0.1460 -0.0283 -0.8465
  270MOL0     C37177   6.411   0.154   3.589 -0.8817  0.3704  0.3675
  270MOL0     C37178   6.371   0.023   3.625 -0.3564 -1.0899  0.3886
  270MOL0     C37179   6.253  -0.003   3.694  0.5754  0.7087 -0.1671
  270MOL0     C37180   6.157   0.091   3.712  0.5686  0.1211 -0.0591
  270MOL0     O37181   6.042   0.052   3.767  0.3050 -0.3855 -0.1491
  270MOL0     C37182   5.946   0.148   3.819  0.2125 -0.3896 -0.1259
  270MOL0     C37183   5.815   0.086   3.871 -1.3828  0.1984 -0.1639
  270MOL0     C37184   5.724   0.182   3.942  0.4172 -0.9101 -0.9114
  270MOL0     C37185   5.604   0.105   3.997 -0.0996 -0.4785 -0.2731
  270MOL0     C37186   5.501   0.204   4.036 -0.8754 -0.0475  0.2475
  270MOL0     C37187   5.417   0.283   4.066 -0.4426  0.3594  0.7347
  270MOL0     C37188   6.185   0.225   3.665  0.8159  0.3023 -0.0669
  270MOL0     C37189   6.307   0.253   3.601  0.2424 -0.5790  0.0287
  270MOL0     C37190   6.353   0.397   3.590  0.6721 -0.7885 -1.0737
  270MOL0     H37191   6.746  -0.078   3.312 -1.3263  0.1806  0.3182
  270MOL0     H37192   6.927  -0.027   3.199  1.4109  0.9404 -0.3776
  270MOL0     H37193   7.154   0.049   3.101 -1.2095  0.6385  0.5941
  270MOL0     H37194   7.208  -0.042   3.233  1.2510 -0.5297 -1.6353
  270MOL0     H37195   7.386   0.087   3.292  0.9628 -3.6099  0.0216
  270MOL0     H37196   7.401   0.007   3.130 -1.1313 -2.3895  2.1800
  270MOL0     H37197   7.305   0.289   3.163 -0.5355 -1.0975  0.5529
  270MOL0     H37198   7.477   0.250   3.130 -0.0520 -0.7082  0.9147
  270MOL0     H37199   7.413   0.105   2.935  1.8694  1.3212 -0.1248
  270MOL0     H37200   7.262   0.203   2.926  0.1485  1.6834  0.1469
  270MOL0     H37201   7.552   0.316   2.897  0.0404  1.1047 -1.4143
  270MOL0     H37202   7.422   0.413   2.941 -1.7737  1.6037 -3.5021
  270MOL0     H37203   7.456   0.255   2.691  0.0616 -0.1870  2.0132
  270MOL0     H37204   7.298   0.316   2.725 -0.9117 -0.8647  3.6209
  270MOL0     H37205   7.559   0.491   2.707 -0.0535 -0.2278  2.1842
  270MOL0     H37206   7.401   0.547   2.718  0.5604  2.0633 -2.0573
  270MOL0     H37207   7.337   0.453   2.502 -0.3560 -2.3589  1.3868
  270MOL0     H37208   7.468   0.547   2.470 -1.0545 -1.2742 -2.7159
  270MOL0     H37209   7.446   0.321   2.267  0.8614  0.4846 -1.3023
  270MOL0     H37210   7.577   0.113   2.141 -0.2518 -2.2636  0.8764
  270MOL0     H37211   7.693   0.037   2.257 -0.8221 -0.0948 -0.7874
  270MOL0     H37212   7.755   0.306   2.133 -2.7104 -1.4457  0.0808
  270MOL0     H37213   7.871   0.193   2.200  0.0729 -0.7009  0.1944
  270MOL0     H37214   7.819   0.027   2.017  0.5669  0.7148 -1.5051
  270MOL0     H37215   7.699   0.149   1.956 -0.2271  3.3608  1.5962
  270MOL0     H37216   7.901   0.297   1.921 -0.1865 -0.2982 -0.7259
  270MOL0     H37217   8.009   0.175   1.982 -0.3059 -1.3914 -0.8947
  270MOL0     H37218   8.049   0.354   1.801  0.5789 -1.3674  1.5498
  270MOL0     H37219   8.242   0.540   1.582  2.5308 -0.9107 -1.6901
  270MOL0     H37220   8.350   0.426   1.668  0.8447  2.8565  0.1919
  270MOL0     H37221   8.208   0.503   1.750 -0.8973  2.3261 -1.0951
  270MOL0     H37222   8.384   0.052   1.214 -2.0430 -1.0226 -0.8568
  270MOL0     H37223   8.548   0.029   1.049  0.8312  0.7563 -0.4479
  270MOL0     H37224   8.771   0.156   0.964 -1.3019 -2.6464  0.5096
  270MOL0     H37225   8.685   0.030   0.877 -2.1557  0.9046  0.6347
  270MOL0     H37226   8.819   0.267   0.719 -3.3051  0.5207  1.2093
  270MOL0     H37227   8.911   0.122   0.770  0.1580  1.8122  2.9620
  270MOL0     H37228   8.683   0.181   0.598 -0.7180  0.2374 -0.3650
  270MOL0     H37229   8.717   0.000   0.639  3.4887 -1.0542  0.6916
  270MOL0     H37230   8.904   0.186   0.500  1.4318 -1.1566  0.0962
  270MOL0     H37231   8.795   0.102   0.403  1.6550  2.7202 -0.9648
  270MOL0     H37232   9.020  -0.005   0.567 -1.5024 -2.9677  2.1979
  270MOL0     H37233   8.891  -0.112   0.527 -1.4714 -2.3936 -3.1572
  270MOL0     H37234   9.052   0.048   0.321 -1.9537  0.8728 -0.1762
  270MOL0     H37235   8.945  -0.087   0.286  0.6104 -0.6990 -0.7963
  270MOL0     H37236   9.089  -0.227   0.456  1.1983  0.1117  0.1468
  270MOL0     H37237   9.209  -0.120   0.410 -1.4577  3.1423 -0.2484
  270MOL0     H37238   9.159  -0.178   0.153  1.6548 -2.3467 -2.2064
  270MOL0     H37239   9.039  -0.291   0.208 -0.8297  1.1439 -0.0355
  270MOL0     H37240   8.407   0.387   0.858  0.9453 -0.9021  0.3670
  270MOL0     H37241   8.242   0.415   1.035  0.9204  0.5099  1.5390
  270MOL0     H37242   8.079   0.094   1.396 -0.0374 -1.1917  1.7161
  270MOL0     H37243   7.963   0.007   1.566 -1.4359 -0.5773  4.2923
  270MOL0     H37244   7.040   0.285   3.490 -0.4253  1.7611 -0.5297
  270MOL0     H37245   6.818   0.241   3.595  2.8641  0.7453 -0.1889
  270MOL0     H37246   6.435  -0.063   3.611  1.0164  0.0784 -0.9448
  270MOL0     H37247   6.227  -0.105   3.720 -0.6930  0.0350 -3.5320
  270MOL0     H37248   5.987   0.204   3.904  1.1180  0.0275 -0.8182
  270MOL0     H37249   5.922   0.225   3.745 -3.2175 -3.2942 -2.3542
  270MOL0     H37250   5.853   0.005   3.935  3.1129  1.2268 -1.2040
  270MOL0     H37251   5.761   0.036   3.789  1.1078  0.5896 -2.1720
  270MOL0     H37252   5.765   0.240   4.025 -0.7505  0.6014 -1.3531
  270MOL0     H37253   5.682   0.251   3.869  0.8339 -0.4349 -0.7002
  270MOL0     H37254   5.628   0.049   4.089  0.4049 -0.8617 -0.6322
  270MOL0     H37255   5.562   0.039   3.921 -0.4355  1.0952 -1.4888
  270MOL0     H37256   5.337   0.352   4.084 -1.5131 -0.1644 -1.6096
  270MOL0     H37257   6.125   0.311   3.691  0.9185  0.2766  0.2689
  270MOL0     H37258   6.262   0.456   3.607  1.0509 -0.8868  1.7699
  270MOL0     H37259   6.431   0.417   3.664  2.1319  1.6354 -3.1095
  270MOL0     H37260   6.397   0.419   3.493  2.9284 -2.1636 -0.4369
  271MOL0     O37261   0.872   1.659   1.728  0.6927 -0.1451 -0.1698
  271MOL0     C37262   0.798   1.628   1.822  0.1822 -0.5536  0.1479
  271MOL0     O37263   0.804   1.678   1.946 -0.2312  0.7630 -0.5422
  271MOL0     C37264   0.905   1.763   2.000 -0.3668 -0.2707 -0.5931
  271MOL0     C37265   0.916   1.796   2.137  1.2877  1.0517 -0.3475
  271MOL0     C37266   1.015   1.879   2.198 -0.4347 -0.4490  0.7609
  271MOL0     C37267   1.108   1.951   2.126  0.5875 -0.0103 -0.3311
  271MOL0     O37268   1.183   2.042   2.195 -0.6560  0.9314  0.5458
  271MOL0     C37269   1.308   2.082   2.141 -0.0387  0.1361 -0.0498
  271MOL0     C37270   1.375   2.155   2.257  0.5192  0.2785 -0.0306
  271MOL0     C37271   1.495   2.221   2.197 -0.6225  0.2484 -0.1338
  271MOL0     C37272   1.564   2.312   2.298  0.6910 -0.0401 -0.5476
  271MOL0     C37273   1.687   2.364   2.234 -0.1850 -0.4776  0.6012
  271MOL0     C37274   1.743   2.480   2.310 -0.8824 -0.4940  0.6967
  271MOL0     C37275   1.681   2.620   2.275  0.5689  0.6919 -0.4468
  271MOL0     C37276   1.775   2.723   2.212 -0.5148  0.2134 -0.1228
  271MOL0     N37277   1.887   2.759   2.302  0.3083 -0.7268 -0.2759
  271MOL0     C37278   2.007   2.696   2.298  0.0980 -0.7092 -0.6684
  271MOL0     C37279   2.089   2.777   2.375 -0.1394  0.2289 -0.2129
  271MOL0     C37280   2.228   2.767   2.414  0.3968  0.6486  1.6389
  271MOL0     C37281   2.265   2.849   2.537 -0.2196 -0.6424  0.0315
  271MOL0     C37282   2.392   2.802   2.615 -0.6622 -0.2855 -0.5498
  271MOL0     C37283   2.405   2.650   2.639  0.3212 -0.1390 -0.1465
  271MOL0     O37284   2.521   2.631   2.723  0.2560 -0.1665  0.2079
  271MOL0     C37285   2.648   2.644   2.659  0.4640  0.7248  0.4306
  271MOL0     C37286   2.746   2.730   2.712  0.0707  0.0067 -0.4715
  271MOL0     C37287   2.871   2.745   2.663  0.0277  0.2690  0.6438
  271MOL0     C37288   2.959   2.858   2.729 -1.0327  0.3275 -0.2479
  271MOL0     C37289   2.912   2.665   2.552  0.0138 -0.0656  0.0535
  271MOL0     C37290   3.044   2.680   2.493  0.2256  0.0471  0.2072
  271MOL0     O37291   3.051   2.647   2.356 -0.3693  0.0288 -1.3242
  271MOL0     C37292   3.165   2.663   2.279 -0.3001 -0.3849 -1.1363
  271MOL0     C37293   3.283   2.591   2.310  1.2632  0.2169 -0.6469
  271MOL0     C37294   3.394   2.591   2.228 -0.6932 -0.8092  0.8547
  271MOL0     C37295   3.386   2.654   2.111  0.7434 -0.4906  1.0875
  271MOL0     O37296   3.498   2.634   2.026  0.6139  0.3521  0.7489
  271MOL0     C37297   3.470   2.661   1.881 -0.1467  0.4296 -0.5947
  271MOL0     C37298   3.579   2.582   1.808 -0.9440  0.4874  0.1738
  271MOL0     C37299   3.706   2.674   1.798  0.3330  0.8767 -0.4383
  271MOL0     C37300   3.826   2.584   1.770 -0.8055 -0.6165  0.5263
  271MOL0     C37301   3.952   2.673   1.762 -0.1115 -1.0389  0.1944
  271MOL0     C37302   4.071   2.616   1.691 -0.4105  0.2416  0.2669
  271MOL0     C37303   4.156   2.739   1.641  0.1750  0.1107  0.9851
  271MOL0     C37304   4.269   2.701   1.545  0.5167 -0.4154  0.6486
  271MOL0    Cl37305   4.369   2.835   1.472  0.4475  0.0360  0.0782
  271MOL0     C37306   3.276   2.740   2.082 -0.6310 -0.1791  0.1484
  271MOL0     C37307   3.166   2.733   2.167  0.5183 -0.3828 -0.5424
  271MOL0     O37308   3.139   2.718   2.561 -0.7727  0.4619  0.6221
  271MOL0     C37309   2.813   2.572   2.495 -0.6495 -0.2728 -0.8050
  271MOL0     C37310   2.684   2.566   2.555  0.2043 -0.0908  0.0877
  271MOL0     N37311   2.014   2.890   2.414 -0.1870  0.5201  0.5006
  271MOL0     N37312   1.892   2.873   2.372  0.5742 -0.0962  1.5837
  271MOL0     C37313   1.116   1.906   1.986  0.3182 -0.7247  0.0405
  271MOL0     C37314   1.022   1.819   1.930  0.6819 -0.8626  0.1249
  271MOL0     C37315   0.702   1.517   1.803  0.1485 -1.1281  1.0906
  271MOL0     C37316   0.739   1.411   1.704 -0.5663  0.1792  0.2495
  271MOL0     C37317   0.648   1.308   1.677  0.4961 -0.7558  0.1619
  271MOL0     C37318   0.524   1.287   1.744 -0.7625  0.0509  0.3039
  271MOL0     O37319   0.432   1.187   1.721 -0.4368 -0.2158  0.1319
  271MOL0     C37320   0.481   1.084   1.645 -0.0416 -0.1042 -0.1063
  271MOL0     C37321   0.372   0.974   1.651  0.1913 -0.5792  0.3538
  271MOL0     C37322   0.400   0.850   1.568  0.2131 -0.1217 -0.8832
  271MOL0     C37323   0.306   0.745   1.604 -0.5930  0.7084  0.6228
  271MOL0     C37324   0.273   0.641   1.502 -0.4060 -0.8273  0.5479
  271MOL0     C37325   0.243   0.558   1.413 -0.2911 -0.5838  0.8591
  271MOL0     C37326   0.485   1.392   1.827 -0.4500  0.8693 -0.0639
  271MOL0     C37327   0.568   1.500   1.861  0.6089  0.3045 -0.9152
  271MOL0     C37328   0.512   1.614   1.947  0.8349 -0.2785 -0.2670
  271MOL0     H37329   0.835   1.748   2.190  1.5332 -1.0403 -1.7457
  271MOL0     H37330   0.998   1.888   2.305 -0.4680 -1.5748  0.8565
  271MOL0     H37331   1.297   2.151   2.057  0.4655 -0.2613 -0.4435
  271MOL0     H37332   1.362   1.995   2.104 -0.2350  0.0519 -0.1397
  271MOL0     H37333   1.308   2.230   2.302 -2.0075  0.3822 -3.5242
  271MOL0     H37334   1.401   2.088   2.339  1.2759  0.0093 -0.4811
  271MOL0     H37335   1.568   2.150   2.157  0.8655  0.9391  1.1964
  271MOL0     H37336   1.459   2.276   2.110 -1.8160 -2.3648 -1.3964
  271MOL0     H37337   1.482   2.371   2.340 -1.7732 -3.6874  0.3313
  271MOL0     H37338   1.602   2.250   2.380  0.1656  0.9618  0.4780
  271MOL0     H37339   1.664   2.410   2.138 -1.7776  2.0910  2.1128
  271MOL0     H37340   1.767   2.290   2.220 -0.4189 -0.8366  1.1212
  271MOL0     H37341   1.736   2.452   2.416 -0.9496 -0.0131  0.8219
  271MOL0     H37342   1.849   2.486   2.284 -1.1727  1.0385 -0.2603
  271MOL0     H37343   1.657   2.659   2.374 -1.9297  1.6939 -1.3844
  271MOL0     H37344   1.592   2.607   2.213 -0.2055 -0.7246  0.9011
  271MOL0     H37345   1.817   2.681   2.119 -1.7695  0.2019 -0.7132
  271MOL0     H37346   1.718   2.813   2.187 -1.4258  0.2785  1.9933
  271MOL0     H37347   2.026   2.598   2.255 -0.9344 -1.9821  1.5620
  271MOL0     H37348   2.293   2.781   2.327  1.6707 -5.0887  1.2473
  271MOL0     H37349   2.234   2.660   2.437 -0.9964  0.0147 -0.6315
  271MOL0     H37350   2.267   2.957   2.519  1.0788 -0.8812 -1.4697
  271MOL0     H37351   2.174   2.836   2.596 -0.7648 -1.3085 -0.9202
  271MOL0     H37352   2.483   2.845   2.571 -1.0911  0.9854 -0.2249
  271MOL0     H37353   2.380   2.854   2.711  2.8057  1.9379 -1.1488
  271MOL0     H37354   2.309   2.617   2.679 -0.9716  2.8027 -0.5597
  271MOL0     H37355   2.402   2.590   2.547 -1.0678 -1.1461  0.5180
  271MOL0     H37356   2.723   2.783   2.804 -1.8763 -1.1154 -0.2433
  271MOL0     H37357   2.900   2.912   2.803  0.1553 -1.1145  1.8468
  271MOL0     H37358   3.010   2.925   2.659 -2.0486  0.1216 -1.2134
  271MOL0     H37359   3.036   2.815   2.794 -0.5065  1.2858 -0.2056
  271MOL0     H37360   3.287   2.533   2.402 -0.2614 -1.0944 -1.3490
  271MOL0     H37361   3.482   2.535   2.258  1.4751  2.8618  1.8829
  271MOL0     H37362   3.370   2.632   1.849 -1.7693  3.6390  1.0345
  271MOL0     H37363   3.479   2.768   1.859  0.9097  0.4605 -0.0401
  271MOL0     H37364   3.609   2.491   1.861  0.9378  1.1153  0.2589
  271MOL0     H37365   3.553   2.562   1.704  2.7227  1.6510 -1.1609
  271MOL0     H37366   3.710   2.722   1.896 -1.6548  0.3718 -0.0577
  271MOL0     H37367   3.700   2.746   1.716 -1.3345  0.9545 -0.2823
  271MOL0     H37368   3.823   2.530   1.675  2.1328 -0.7409  0.4224
  271MOL0     H37369   3.836   2.503   1.844  1.7083  0.2980  1.2828
  271MOL0     H37370   3.912   2.755   1.702  0.5279 -0.3700  0.6673
  271MOL0     H37371   3.992   2.709   1.857 -1.5237 -1.5750  1.0316
  271MOL0     H37372   4.050   2.545   1.610 -0.7710 -2.6550  2.7122
  271MOL0     H37373   4.124   2.550   1.760 -0.5065 -0.5018 -0.3590
  271MOL0     H37374   4.207   2.791   1.723  2.0770 -0.0843 -0.0220
  271MOL0     H37375   4.096   2.814   1.589  1.3388 -0.3636 -1.1527
  271MOL0     H37376   4.213   2.661   1.460 -2.3440  1.7113  1.3667
  271MOL0     H37377   4.328   2.627   1.600  1.5287  0.2590  0.5113
  271MOL0     H37378   3.290   2.801   1.993 -0.6107 -3.9068 -2.6820
  271MOL0     H37379   3.078   2.792   2.144  1.1484 -0.2249 -2.8357
  271MOL0     H37380   2.840   2.506   2.413 -1.5325 -1.7445  0.0381
  271MOL0     H37381   2.603   2.504   2.516  0.0791 -1.5079  2.4452
  271MOL0     H37382   1.194   1.949   1.923  2.1384 -3.3472  0.3393
  271MOL0     H37383   1.022   1.796   1.824 -3.8047 -1.0131 -0.0281
  271MOL0     H37384   0.835   1.415   1.653 -1.4437  1.1100 -1.4174
  271MOL0     H37385   0.677   1.241   1.596  1.2254 -1.5240  1.0409
  271MOL0     H37386   0.504   1.121   1.544 -4.1582 -2.8248 -2.3248
  271MOL0     H37387   0.580   1.051   1.677 -0.1820  0.9625  1.5152
  271MOL0     H37388   0.272   1.012   1.627  0.5075  1.4646  2.0022
  271MOL0     H37389   0.363   0.935   1.753 -0.5429 -0.1902  0.4406
  271MOL0     H37390   0.400   0.861   1.459  0.8956 -1.6749 -1.0727
  271MOL0     H37391   0.503   0.819   1.590  0.0677 -0.2779 -0.4333
  271MOL0     H37392   0.216   0.802   1.631 -1.7195 -0.2681 -0.9126
  271MOL0     H37393   0.342   0.683   1.687  0.7350 -1.8989 -1.7359
  271MOL0     H37394   0.226   0.482   1.339 -1.0903 -0.1242  0.5485
  271MOL0     H37395   0.386   1.374   1.869 -0.8095 -0.9250 -1.5065
  271MOL0     H37396   0.409   1.593   1.977  0.3635  1.6194 -0.4667
  271MOL0     H37397   0.565   1.627   2.042 -3.4131  1.2086  2.1742
  271MOL0     H37398   0.520   1.709   1.894  0.5154 -1.4047 -2.4364
  272MOL0     O37399   9.753   2.853   2.361  0.4254  0.6908 -0.5656
  272MOL0     C37400   9.718   2.882   2.247 -1.1310  0.3803  0.7642
  272MOL0     O37401   9.769   2.980   2.173 -0.1036  0.6057  0.2220
  272MOL0     C37402   9.835   3.084   2.231  1.1422 -0.9246 -0.5976
  272MOL0     C37403   9.751   3.197   2.268  0.1064  0.3177  0.4986
  272MOL0     C37404   9.815   3.311   2.325 -0.1531  0.1159  0.1666
  272MOL0     C37405   9.948   3.317   2.355 -0.3569  0.2127  0.2280
  272MOL0     O37406  10.006   3.415   2.429 -0.2492  0.2017  0.2677
  272MOL0     C37407   9.974   3.545   2.397 -0.4085 -0.4539  0.2456
  272MOL0     C37408  10.095   3.633   2.428 -0.3171 -0.5444  0.4678
  272MOL0     C37409  10.196   3.627   2.312 -0.1271  0.1374  0.5669
  272MOL0     C37410  10.325   3.702   2.348 -0.0315 -0.5592  0.0060
  272MOL0     C37411  10.304   3.847   2.385 -0.0398  0.2275 -0.6224
  272MOL0     C37412  10.440   3.892   2.420  0.3394 -0.0469  1.4650
  272MOL0     C37413  10.533   3.915   2.299  0.4526 -0.0530  0.6443
  272MOL0     C37414  10.644   4.019   2.329  0.1881 -0.1715 -0.7360
  272MOL0     N37415  10.703   4.069   2.203 -0.4056  0.0263  0.2562
  272MOL0     C37416  10.648   4.148   2.106 -1.2957  0.2042  0.0146
  272MOL0     C37417  10.740   4.156   2.006  0.2705  0.5297 -0.0138
  272MOL0     C37418  10.706   4.230   1.881 -0.5710 -0.6541 -0.2046
  272MOL0     C37419  10.807   4.200   1.776 -0.2000  0.0689 -0.9213
  272MOL0     C37420  10.752   4.247   1.642 -0.4807  0.5680  0.9724
  272MOL0     C37421  10.875   4.305   1.564 -0.3003 -0.2633  0.0968
  272MOL0     O37422  10.895   4.437   1.619  0.2154  0.0176  0.3961
  272MOL0     C37423  10.923   4.547   1.542  0.2356  0.9367 -0.6230
  272MOL0     C37424  11.058   4.583   1.504  0.4288  0.3732 -0.2918
  272MOL0     C37425  11.081   4.704   1.437 -0.0760  0.1167 -0.9564
  272MOL0     C37426  11.223   4.750   1.397 -0.4540  0.8945 -0.4251
  272MOL0     C37427  10.982   4.804   1.432  0.3201 -0.8160  0.7078
  272MOL0     C37428  10.999   4.940   1.364  0.7999 -0.6500  0.2435
  272MOL0     O37429  10.876   4.989   1.333 -0.4415 -0.2055 -0.1369
  272MOL0     C37430  10.860   5.108   1.261  0.0142  0.5411 -0.1913
  272MOL0     C37431  10.959   5.175   1.183  0.0035  0.0773 -0.1396
  272MOL0     C37432  10.929   5.291   1.120 -1.3472 -1.6180 -0.4496
  272MOL0     C37433  10.808   5.361   1.133  0.0845 -0.2287 -0.4600
  272MOL0     O37434  10.770   5.481   1.066 -0.7326  0.3312 -0.4894
  272MOL0     C37435  10.869   5.565   0.996  0.1322 -0.3487 -1.0781
  272MOL0     C37436  10.818   5.697   0.954  0.9481 -0.3623  0.0336
  272MOL0     C37437  10.709   5.752   1.047 -0.1246  0.8283  0.5678
  272MOL0     C37438  10.661   5.883   0.986 -0.0036 -0.2795  0.2280
  272MOL0     C37439  10.547   5.941   1.066  0.3279 -0.2441 -0.2382
  272MOL0     C37440  10.590   5.992   1.202  0.0884 -0.4455 -0.7517
  272MOL0     C37441  10.487   6.036   1.312  0.4181  0.0837  0.7368
  272MOL0     C37442  10.380   6.129   1.253 -0.0551 -0.4333 -0.2335
  272MOL0    Cl37443  10.247   6.139   1.365 -0.2128 -0.0483 -0.3491
  272MOL0     C37444  10.708   5.287   1.205  0.1396 -0.5425  0.6663
  272MOL0     C37445  10.730   5.163   1.269  0.3514  0.2401 -0.0749
  272MOL0     O37446  11.099   5.003   1.344 -0.2231  0.0021  0.0324
  272MOL0     C37447  10.854   4.767   1.480  0.5355  0.2747 -0.5865
  272MOL0     C37448  10.820   4.634   1.522 -0.0749 -0.6188  0.3184
  272MOL0     N37449  10.848   4.083   2.042 -0.1187  0.1687  0.3055
  272MOL0     N37450  10.829   4.032   2.160  0.8618  0.3041  1.1025
  272MOL0     C37451  10.019   3.208   2.338 -0.4040  0.4208 -0.1028
  272MOL0     C37452   9.964   3.091   2.267 -0.5352  0.2828  0.4149
  272MOL0     C37453   9.603   2.807   2.187  0.6440 -0.1870  0.0848
  272MOL0     C37454   9.535   2.869   2.078 -0.0564  0.9280  0.2562
  272MOL0     C37455   9.419   2.825   2.028 -0.2749  0.5058  0.5921
  272MOL0     C37456   9.370   2.702   2.067  0.7410  0.0620 -0.0224
  272MOL0     O37457   9.252   2.645   2.021 -1.1975  0.5164  0.2958
  272MOL0     C37458   9.181   2.728   1.927 -0.6478 -0.2399 -0.6525
  272MOL0     C37459   9.068   2.641   1.864 -1.0922  0.8155 -0.4910
  272MOL0     C37460   8.958   2.726   1.800  0.0640  0.5585 -0.0683
  272MOL0     C37461   8.846   2.640   1.740 -0.7437 -0.6341  1.0477
  272MOL0     C37462   8.753   2.718   1.656  0.1092  0.4732  0.7000
  272MOL0     C37463   8.671   2.788   1.595 -0.6447  0.1609  0.3911
  272MOL0     C37464   9.434   2.637   2.165 -0.8790  0.0692  1.5038
  272MOL0     C37465   9.551   2.686   2.227  0.0795  1.2143  0.2565
  272MOL0     C37466   9.602   2.599   2.336  1.2062  0.2976 -0.1394
  272MOL0     H37467   9.643   3.190   2.252  0.2885 -1.7327 -0.0918
  272MOL0     H37468   9.746   3.378   2.373 -0.0315 -2.8964  5.2594
  272MOL0     H37469   9.893   3.586   2.459  0.3405  1.2822  0.1457
  272MOL0     H37470   9.957   3.562   2.291  1.2139 -1.2724 -0.1798
  272MOL0     H37471  10.060   3.736   2.420  2.8371  0.4896 -2.4361
  272MOL0     H37472  10.138   3.611   2.527 -1.2593 -0.0494  0.9994
  272MOL0     H37473  10.227   3.525   2.289  3.0513  0.9935  0.5123
  272MOL0     H37474  10.157   3.683   2.227  0.3686  1.9522  1.4840
  272MOL0     H37475  10.365   3.659   2.440  2.5060 -0.1150 -0.7978
  272MOL0     H37476  10.399   3.692   2.267  1.4795 -1.2677  1.4171
  272MOL0     H37477  10.234   3.863   2.468 -1.9741  0.2007 -2.1615
  272MOL0     H37478  10.266   3.893   2.293  1.1707  2.4860 -0.0513
  272MOL0     H37479  10.428   3.993   2.462 -0.8191  1.1365 -1.4490
  272MOL0     H37480  10.502   3.844   2.497  2.1884  2.0500  1.3891
  272MOL0     H37481  10.467   3.965   2.228  0.2478 -0.6948  0.3701
  272MOL0     H37482  10.565   3.820   2.256 -4.7472 -1.3956 -1.0036
  272MOL0     H37483  10.599   4.109   2.371 -0.4503 -0.6575 -0.3765
  272MOL0     H37484  10.722   3.978   2.394 -1.3556 -2.5726 -0.3063
  272MOL0     H37485  10.553   4.200   2.098 -0.8743  1.0399  0.3777
  272MOL0     H37486  10.709   4.332   1.919  0.4918 -0.5205 -0.6222
  272MOL0     H37487  10.614   4.196   1.833  0.4412 -1.1532 -1.8553
  272MOL0     H37488  10.908   4.239   1.794  0.3281 -1.3525 -0.6685
  272MOL0     H37489  10.815   4.091   1.776  0.5009  0.1163 -1.5349
  272MOL0     H37490  10.727   4.162   1.579  1.8916 -0.3440  1.1697
  272MOL0     H37491  10.673   4.323   1.650 -1.3891 -0.2939  0.3491
  272MOL0     H37492  10.973   4.260   1.581 -0.5076 -0.0277  2.2294
  272MOL0     H37493  10.855   4.308   1.457 -2.2900 -0.1878  0.4350
  272MOL0     H37494  11.132   4.507   1.524  0.2708  0.5885  1.2795
  272MOL0     H37495  11.222   4.793   1.297 -0.5358 -0.9909 -1.2669
  272MOL0     H37496  11.284   4.660   1.389 -1.3110 -0.4089  4.3257
  272MOL0     H37497  11.266   4.815   1.474 -0.5004  0.0617  0.3260
  272MOL0     H37498  11.054   5.129   1.156  0.4616  0.1708  1.2281
  272MOL0     H37499  11.011   5.335   1.063 -1.9945  1.2292  0.6768
  272MOL0     H37500  10.959   5.580   1.057 -1.1604 -0.3297  0.9042
  272MOL0     H37501  10.894   5.516   0.902  1.9110  2.8776 -2.4672
  272MOL0     H37502  10.899   5.771   0.955  0.8338 -0.1974 -1.0686
  272MOL0     H37503  10.772   5.698   0.854  0.2996 -0.0791  0.3285
  272MOL0     H37504  10.756   5.761   1.145  0.1768 -3.8041  1.0883
  272MOL0     H37505  10.621   5.687   1.054 -1.5489  2.6759  0.8661
  272MOL0     H37506  10.633   5.860   0.883  1.4346 -2.0805  0.1937
  272MOL0     H37507  10.740   5.958   0.973  0.1562 -0.6319 -0.8801
  272MOL0     H37508  10.499   6.021   1.009 -0.0907  3.0789  4.2637
  272MOL0     H37509  10.475   5.859   1.080  1.6517 -2.1699 -3.5618
  272MOL0     H37510  10.656   6.079   1.191 -0.8494  0.7292  1.9589
  272MOL0     H37511  10.650   5.911   1.244 -0.9632 -0.8195  0.0826
  272MOL0     H37512  10.533   6.091   1.395  1.7715 -0.9415  0.7044
  272MOL0     H37513  10.437   5.947   1.351  1.3699 -0.3753  0.9386
  272MOL0     H37514  10.331   6.078   1.169 -1.2531 -2.1548  1.4249
  272MOL0     H37515  10.426   6.225   1.229  2.4449 -1.3699  0.4041
  272MOL0     H37516  10.612   5.337   1.202 -0.2503 -1.3319 -1.5245
  272MOL0     H37517  10.655   5.113   1.329  0.9769 -1.9558 -1.0123
  272MOL0     H37518  10.764   4.827   1.476  1.0221  0.9915 -4.1028
  272MOL0     H37519  10.719   4.601   1.545 -0.3895 -2.4032 -3.0627
  272MOL0     H37520  10.121   3.195   2.373  0.1374 -2.0992 -2.2181
  272MOL0     H37521  10.025   3.004   2.246  1.9659  2.1083 -0.2520
  272MOL0     H37522   9.559   2.966   2.035  2.1981  0.6724  0.8326
  272MOL0     H37523   9.374   2.893   1.956  2.1583  1.5727 -0.0412
  272MOL0     H37524   9.132   2.815   1.972 -1.5966 -1.0395 -0.0880
  272MOL0     H37525   9.248   2.753   1.844  0.9673 -2.0005  0.0396
  272MOL0     H37526   9.027   2.581   1.946 -0.5167 -0.4457 -1.1030
  272MOL0     H37527   9.102   2.572   1.787  0.4787  1.3075 -0.2653
  272MOL0     H37528   8.911   2.788   1.877 -1.9137 -1.3525  0.3708
  272MOL0     H37529   8.990   2.796   1.723 -0.2987  1.0281  0.2026
  272MOL0     H37530   8.796   2.606   1.830  0.7584  0.4761  2.3645
  272MOL0     H37531   8.882   2.555   1.680 -1.6495 -0.8020  0.7329
  272MOL0     H37532   8.608   2.858   1.545 -1.2498 -0.6730 -0.0275
  272MOL0     H37533   9.399   2.536   2.184 -2.1299 -0.1100 -1.2506
  272MOL0     H37534   9.540   2.511   2.356 -0.2785  1.4789  0.6187
  272MOL0     H37535   9.700   2.565   2.302 -0.0400 -1.9384 -1.7475
  272MOL0     H37536   9.624   2.643   2.434  0.0055 -0.5744  0.5538
  273MOL0     O37537   2.652   6.162  10.623 -0.1130 -0.2134  0.3924
  273MOL0     C37538   2.700   6.051  10.617  0.1627  0.3653 -0.3713
  273MOL0     O37539   2.805   6.013  10.536  0.8784 -0.3185  0.0675
  273MOL0     C37540   2.847   6.114  10.460 -0.1656  1.3628 -0.0133
  273MOL0     C37541   2.797   6.125  10.323 -0.3409  0.5162 -0.2110
  273MOL0     C37542   2.852   6.217  10.238  0.3307 -0.5327 -0.5944
  273MOL0     C37543   2.961   6.294  10.276 -0.1468  0.7298 -0.0297
  273MOL0     O37544   3.003   6.364  10.166  0.5003 -0.0948 -0.1949
  273MOL0     C37545   3.142   6.372  10.139 -0.4978 -0.0350 -0.4164
  273MOL0     C37546   3.144   6.465  10.027 -0.0114 -0.4461  0.2363
  273MOL0     C37547   3.279   6.486   9.956 -0.8627 -0.3020  0.3501
  273MOL0     C37548   3.257   6.581   9.834  0.5474  0.2581 -0.6836
  273MOL0     C37549   3.377   6.609   9.750 -0.0384 -0.4480 -0.2657
  273MOL0     C37550   3.328   6.687   9.624  0.6408  0.2154  0.4123
  273MOL0     C37551   3.436   6.767   9.553  0.3661 -0.8227  0.3473
  273MOL0     C37552   3.508   6.885   9.633  0.2611 -0.2150 -0.3207
  273MOL0     N37553   3.617   6.929   9.555  0.1357  0.0453  0.4029
  273MOL0     C37554   3.744   6.870   9.549  0.2367  0.8202 -0.5667
  273MOL0     C37555   3.817   6.960   9.480 -0.0971 -0.1932  0.8629
  273MOL0     C37556   3.970   6.939   9.448  0.6101  0.1434 -0.1573
  273MOL0     C37557   3.984   6.851   9.326  0.6106 -0.2317  0.6464
  273MOL0     C37558   4.058   6.923   9.203  0.6785 -0.6114  0.5727
  273MOL0     C37559   4.204   6.968   9.228 -0.0716 -0.3243 -0.0312
  273MOL0     O37560   4.253   7.043   9.118  1.0363 -0.3152 -0.5349
  273MOL0     C37561   4.386   7.070   9.112 -0.0236 -0.9327 -0.1689
  273MOL0     C37562   4.483   7.058   9.217  0.5599 -1.4903 -0.5108
  273MOL0     C37563   4.619   7.092   9.204  0.2576  0.1661  0.6180
  273MOL0     C37564   4.713   7.055   9.310 -0.1076 -0.8123 -0.6161
  273MOL0     C37565   4.662   7.152   9.085  0.9953 -1.5870  0.0371
  273MOL0     C37566   4.792   7.221   9.067 -1.2438  0.4965  0.5209
  273MOL0     O37567   4.832   7.235   8.942 -0.2201  0.5863 -0.0502
  273MOL0     C37568   4.937   7.322   8.930  0.3428 -0.1098 -0.3118
  273MOL0     C37569   4.914   7.454   8.874  0.2813  1.0325 -0.1608
  273MOL0     C37570   5.022   7.543   8.873 -0.1614 -0.2625 -0.1236
  273MOL0     C37571   5.151   7.514   8.928  0.3582 -0.0692  0.2937
  273MOL0     O37572   5.233   7.623   8.932 -0.5941  0.4606  0.2046
  273MOL0     C37573   5.367   7.611   8.993 -0.0725  0.0363 -0.7541
  273MOL0     C37574   5.426   7.744   8.992 -0.1832  0.3362  0.3926
  273MOL0     C37575   5.568   7.736   9.049  0.0932  0.4223 -0.2065
  273MOL0     C37576   5.638   7.875   9.039  0.2616  0.8751  0.3242
  273MOL0     C37577   5.789   7.884   9.067 -0.3879  0.7402 -0.6195
  273MOL0     C37578   5.831   8.019   9.037 -0.3852  0.4528 -0.6222
  273MOL0     C37579   5.985   8.007   9.011 -0.0237 -0.6099 -0.2504
  273MOL0     C37580   6.026   8.152   8.993 -0.0555 -0.5413 -0.2580
  273MOL0    Cl37581   5.965   8.219   8.843 -0.1945  0.5723 -0.0050
  273MOL0     C37582   5.164   7.386   8.980  0.2154 -1.2504  0.5428
  273MOL0     C37583   5.065   7.285   8.980  0.4631 -0.2131 -0.2557
  273MOL0     O37584   4.836   7.283   9.162 -0.4832 -0.5018 -0.7671
  273MOL0     C37585   4.561   7.168   8.988  0.1312 -0.3483  0.7101
  273MOL0     C37586   4.429   7.124   8.990 -1.1010 -0.3755 -0.2448
  273MOL0     N37587   3.737   7.072   9.439 -0.6390  0.2181 -0.0533
  273MOL0     N37588   3.614   7.047   9.486  0.0780  0.3416  0.4606
  273MOL0     C37589   3.009   6.292  10.405 -0.3347  0.4844  0.3348
  273MOL0     C37590   2.947   6.200  10.501 -0.4746 -0.3428 -0.7595
  273MOL0     C37591   2.629   5.948  10.702  0.2586 -0.5597 -0.7203
  273MOL0     C37592   2.499   5.970  10.755  1.0987 -0.6570  0.3402
  273MOL0     C37593   2.424   5.885  10.835 -0.5280 -0.2097  0.9741
  273MOL0     C37594   2.476   5.764  10.862  0.1655  0.8217  0.1688
  273MOL0     O37595   2.398   5.685  10.940  0.1086 -0.2799  0.2698
  273MOL0     C37596   2.452   5.570  11.006 -1.0178 -0.3746 -0.0045
  273MOL0     C37597   2.355   5.521  11.109  0.2935 -0.1314 -0.2028
  273MOL0     C37598   2.322   5.625  11.215  0.4070 -0.7972 -0.5534
  273MOL0     C37599   2.180   5.623  11.272  0.8140 -0.1584 -0.0364
  273MOL0     C37600   2.160   5.733  11.369  0.8817 -0.1320  0.7597
  273MOL0     C37601   2.129   5.816  11.454  0.1950  0.5331  0.3863
  273MOL0     C37602   2.613   5.735  10.812  0.6618  0.0680 -0.1467
  273MOL0     C37603   2.687   5.821  10.735  0.3402 -0.3306  0.2943
  273MOL0     C37604   2.824   5.780  10.701 -0.1714  0.4138 -0.1352
  273MOL0     H37605   2.711   6.066  10.294  2.5937 -5.3503  1.3117
  273MOL0     H37606   2.796   6.253  10.152 -0.7357  2.9253  1.3479
  273MOL0     H37607   3.196   6.278  10.123  0.4005  0.1203  1.4283
  273MOL0     H37608   3.202   6.426  10.213  2.8388 -1.6136 -1.7426
  273MOL0     H37609   3.067   6.436   9.955 -0.6373  0.1509  0.6487
  273MOL0     H37610   3.109   6.565  10.054 -0.4736  0.2082 -2.5114
  273MOL0     H37611   3.365   6.526  10.011  0.8864 -0.4271 -2.1303
  273MOL0     H37612   3.310   6.387   9.922 -2.9245 -1.0623  0.4961
  273MOL0     H37613   3.176   6.548   9.769  0.6987  0.3242 -0.9061
  273MOL0     H37614   3.231   6.678   9.878  2.5744 -0.0739  1.4490
  273MOL0     H37615   3.448   6.527   9.733  0.5178 -0.6359  2.4960
  273MOL0     H37616   3.440   6.680   9.804  2.7128 -0.7285 -2.8459
  273MOL0     H37617   3.282   6.611   9.559 -2.0900  0.5699  1.7947
  273MOL0     H37618   3.241   6.750   9.645  0.6727  0.0091  1.1772
  273MOL0     H37619   3.401   6.804   9.456  1.5233 -1.0344 -0.1722
  273MOL0     H37620   3.517   6.694   9.541  1.6560  0.6492 -0.1347
  273MOL0     H37621   3.433   6.962   9.651 -3.0154 -3.2290 -0.0251
  273MOL0     H37622   3.537   6.844   9.730 -1.3704  0.8324  0.6573
  273MOL0     H37623   3.785   6.777   9.587  1.0007  0.6864 -1.6954
  273MOL0     H37624   4.016   6.892   9.535  1.3424 -1.3046 -1.2911
  273MOL0     H37625   4.020   7.034   9.427 -1.9057  1.0674 -2.5273
  273MOL0     H37626   4.030   6.755   9.351  1.6821 -0.1380 -0.8138
  273MOL0     H37627   3.885   6.825   9.287  1.6814  0.5189 -2.9311
  273MOL0     H37628   4.054   6.851   9.121 -0.8948  1.2359 -1.1019
  273MOL0     H37629   3.997   7.001   9.157 -0.8506 -1.6867  0.7036
  273MOL0     H37630   4.213   7.026   9.320  0.0234 -0.2329 -0.0975
  273MOL0     H37631   4.256   6.871   9.230 -1.1632 -0.9701 -1.3824
  273MOL0     H37632   4.460   7.023   9.317  1.9399  2.0367  1.2259
  273MOL0     H37633   4.735   7.144   9.370 -4.0397  0.3468 -0.6033
  273MOL0     H37634   4.802   7.006   9.270 -0.0059 -1.8937  0.8263
  273MOL0     H37635   4.669   6.971   9.364  2.3366 -1.7334  0.0750
  273MOL0     H37636   4.812   7.478   8.848 -0.4232 -0.3383  1.2103
  273MOL0     H37637   5.018   7.642   8.828  1.1577 -0.7658 -1.4343
  273MOL0     H37638   5.365   7.579   9.098  0.8758 -1.7737 -1.2455
  273MOL0     H37639   5.431   7.544   8.935  0.0408  2.0994 -3.1715
  273MOL0     H37640   5.423   7.784   8.891  2.1002 -1.1338 -0.3211
  273MOL0     H37641   5.366   7.809   9.056 -2.7750 -1.0973 -0.4166
  273MOL0     H37642   5.620   7.669   8.980  3.3070  2.7092 -0.2221
  273MOL0     H37643   5.561   7.683   9.145 -2.0784  0.0938 -0.4821
  273MOL0     H37644   5.590   7.950   9.103 -0.0422 -0.9672  2.3793
  273MOL0     H37645   5.631   7.909   8.935 -0.1423 -2.3553 -0.8272
  273MOL0     H37646   5.813   7.852   9.169 -2.2654  1.3822  0.0717
  273MOL0     H37647   5.837   7.819   8.994 -0.6185 -1.2340  0.8850
  273MOL0     H37648   5.819   8.078   9.128 -0.2066 -1.3520  0.6189
  273MOL0     H37649   5.776   8.055   8.949 -0.2824 -1.2903 -1.4415
  273MOL0     H37650   6.003   7.935   8.931 -0.8821 -1.1969  0.0754
  273MOL0     H37651   6.044   7.969   9.095  2.4966  2.0379 -0.6617
  273MOL0     H37652   6.134   8.154   8.974 -0.2821  0.6267 -1.6332
  273MOL0     H37653   5.994   8.211   9.080  2.3986  3.0971 -1.5862
  273MOL0     H37654   5.262   7.366   9.023  1.0872  1.0727 -0.2040
  273MOL0     H37655   5.091   7.185   9.013 -0.0304  0.4579  2.3446
  273MOL0     H37656   4.600   7.227   8.905  1.4389  0.4971  1.8920
  273MOL0     H37657   4.357   7.128   8.909  0.8813 -1.2502 -2.1854
  273MOL0     H37658   3.096   6.350  10.433  0.4129 -0.7875  0.6697
  273MOL0     H37659   2.977   6.196  10.605 -2.1429  0.9237 -0.1863
  273MOL0     H37660   2.462   6.069  10.729 -1.4919 -1.6989 -0.1509
  273MOL0     H37661   2.324   5.908  10.872 -0.7263 -1.2631  1.1286
  273MOL0     H37662   2.460   5.482  10.942 -0.9899  0.7423 -1.5931
  273MOL0     H37663   2.549   5.589  11.053 -2.3280 -0.5324  2.9913
  273MOL0     H37664   2.399   5.440  11.167 -2.1798 -2.4196 -1.2772
  273MOL0     H37665   2.274   5.484  11.046  0.9327 -1.9889 -0.0008
  273MOL0     H37666   2.386   5.611  11.302  1.4855 -3.2443 -1.6623
  273MOL0     H37667   2.334   5.722  11.165 -1.6360 -2.0086 -3.6557
  273MOL0     H37668   2.163   5.524  11.315 -2.9658  1.3078  2.2360
  273MOL0     H37669   2.104   5.631  11.194 -1.8483 -1.4393  2.2880
  273MOL0     H37670   2.119   5.900  11.520  0.9744  1.2623 -0.4021
  273MOL0     H37671   2.666   5.641  10.826  4.1884  1.9197  0.1799
  273MOL0     H37672   2.895   5.858  10.730  0.1163  0.3923 -0.7571
  273MOL0     H37673   2.850   5.691  10.758 -1.2727 -1.0827 -1.8406
  273MOL0     H37674   2.831   5.765  10.593  0.2664  1.0880 -0.2085
  274MOL0     O37675   0.372   5.076   4.113 -0.0091  0.7572  1.0609
  274MOL0     C37676   0.387   5.069   3.994  0.0300 -0.6929 -0.5096
  274MOL0     O37677   0.377   4.959   3.923  0.2706 -0.3747  0.9173
  274MOL0     C37678   0.376   4.834   3.976  0.2173 -0.3189 -0.2510
  274MOL0     C37679   0.439   4.741   3.896 -0.2969  0.1902 -0.3223
  274MOL0     C37680   0.413   4.604   3.927 -0.8065 -0.6744  0.1705
  274MOL0     C37681   0.348   4.553   4.042  0.6277  0.3672 -0.6802
  274MOL0     O37682   0.351   4.419   4.069  0.1300 -0.3015  0.2900
  274MOL0     C37683   0.286   4.368   4.180 -0.2352  0.5412  0.4411
  274MOL0     C37684   0.340   4.225   4.220 -0.4010 -0.8648 -0.0734
  274MOL0     C37685   0.459   4.230   4.317  0.4814  0.4343  0.3043
  274MOL0     C37686   0.568   4.330   4.267 -0.2345 -0.1642 -0.2507
  274MOL0     C37687   0.688   4.302   4.352  0.4507  0.5398  0.7052
  274MOL0     C37688   0.821   4.356   4.295  0.3468 -0.4543  0.0624
  274MOL0     C37689   0.929   4.350   4.398  0.0974 -1.0174  1.0064
  274MOL0     C37690   1.065   4.372   4.335 -0.1730  0.2564 -0.0682
  274MOL0     N37691   1.144   4.245   4.316 -0.2604 -0.2458  0.0321
  274MOL0     C37692   1.097   4.121   4.271  0.6911  0.0581  0.1749
  274MOL0     C37693   1.204   4.034   4.293  0.4733 -0.1530  0.3642
  274MOL0     C37694   1.197   3.889   4.251 -0.3497  0.1850 -0.7035
  274MOL0     C37695   1.246   3.870   4.105 -0.2231  0.0870 -1.0026
  274MOL0     C37696   1.268   3.724   4.051 -0.5103  0.2005 -0.0215
  274MOL0     C37697   1.140   3.649   4.016  0.5994 -0.0195 -0.7533
  274MOL0     O37698   1.164   3.514   3.974 -0.4937  0.1788 -0.0495
  274MOL0     C37699   1.054   3.437   3.931 -1.1456  0.1559  0.7459
  274MOL0     C37700   1.055   3.379   3.804  0.2544 -0.1974 -0.6112
  274MOL0     C37701   0.944   3.305   3.760  0.0968 -1.1426  0.1006
  274MOL0     C37702   0.960   3.223   3.629 -0.1992 -0.4491 -0.4786
  274MOL0     C37703   0.823   3.310   3.840  0.0551 -0.0573 -0.4411
  274MOL0     C37704   0.697   3.245   3.806  0.2022  0.5780 -0.0589
  274MOL0     O37705   0.696   3.148   3.712 -0.2027  0.1108  0.0825
  274MOL0     C37706   0.590   3.086   3.667 -0.5133  0.4191  0.2387
  274MOL0     C37707   0.627   3.018   3.554  0.8067 -0.3564 -0.4609
  274MOL0     C37708   0.529   2.949   3.478  0.8975 -1.1198 -0.0200
  274MOL0     C37709   0.402   2.921   3.533  0.0956 -0.4107 -0.7902
  274MOL0     O37710   0.308   2.847   3.468 -0.1889  0.1728 -0.0349
  274MOL0     C37711   0.273   2.734   3.548  0.6227  0.1837 -0.7195
  274MOL0     C37712   0.157   2.665   3.480  0.0566  0.5155  0.0651
  274MOL0     C37713   0.150   2.516   3.520  0.2618 -0.6073 -0.1602
  274MOL0     C37714   0.053   2.434   3.446  0.8811  0.2168 -0.1558
  274MOL0     C37715   0.004   2.296   3.510  0.3308 -0.9653 -0.2228
  274MOL0     C37716  -0.050   2.204   3.395 -0.1130 -0.3747 -0.0512
  274MOL0     C37717   0.052   2.143   3.297  1.4135  0.2712 -0.5999
  274MOL0     C37718   0.011   2.019   3.221  0.4452  0.3642  0.0023
  274MOL0    Cl37719  -0.069   1.896   3.339 -0.0833 -0.1304 -0.4921
  274MOL0     C37720   0.376   2.973   3.660 -0.3360  0.1871  0.3159
  274MOL0     C37721   0.472   3.050   3.726  0.3035 -0.0283  0.3136
  274MOL0     O37722   0.591   3.288   3.861  0.1974 -0.8657 -0.7184
  274MOL0     C37723   0.825   3.383   3.957 -0.5262 -0.3374  0.8912
  274MOL0     C37724   0.943   3.435   4.008 -1.0270 -0.5390  0.0016
  274MOL0     N37725   1.304   4.094   4.357 -0.1963 -1.5499 -0.5493
  274MOL0     N37726   1.271   4.228   4.368  0.1618  0.9743  0.3051
  274MOL0     C37727   0.287   4.654   4.124 -1.0502  0.4701 -0.0181
  274MOL0     C37728   0.296   4.791   4.091  0.4933  0.1780  0.1536
  274MOL0     C37729   0.432   5.191   3.927 -0.1401  0.5018  0.4103
  274MOL0     C37730   0.431   5.183   3.789 -0.4054 -0.2540  0.7159
  274MOL0     C37731   0.457   5.292   3.700  0.3150  0.7671 -0.2137
  274MOL0     C37732   0.486   5.415   3.756  0.2404 -0.5916 -0.4504
  274MOL0     O37733   0.522   5.513   3.666 -0.5910  0.7724  0.3218
  274MOL0     C37734   0.612   5.619   3.697 -0.4221  0.0308 -0.2222
  274MOL0     C37735   0.743   5.567   3.656  0.0294 -0.2671 -0.5815
  274MOL0     C37736   0.846   5.663   3.717  0.1302 -0.2440 -0.9672
  274MOL0     C37737   1.001   5.634   3.684  1.0397  0.6284 -1.2043
  274MOL0     C37738   1.095   5.740   3.704 -0.5299  0.0635  0.0399
  274MOL0     C37739   1.190   5.817   3.724  0.1379  0.3178 -0.2509
  274MOL0     C37740   0.484   5.433   3.892 -0.0544  0.5414 -0.0629
  274MOL0     C37741   0.445   5.330   3.973 -0.0219  0.6900  0.5379
  274MOL0     C37742   0.427   5.369   4.123 -0.8582 -0.0920  0.7129
  274MOL0     H37743   0.496   4.777   3.811 -0.4389 -2.4013 -1.6048
  274MOL0     H37744   0.474   4.535   3.869  1.0090 -1.1203  2.4439
  274MOL0     H37745   0.179   4.354   4.163 -0.0523 -2.8485  1.3444
  274MOL0     H37746   0.298   4.439   4.263  0.9976 -0.2682  0.9951
  274MOL0     H37747   0.265   4.161   4.268  2.8875 -3.2629  2.3614
  274MOL0     H37748   0.369   4.167   4.132  2.1418  0.0512  0.0948
  274MOL0     H37749   0.424   4.261   4.416 -2.6876  1.3115 -0.9600
  274MOL0     H37750   0.504   4.130   4.319  1.3298  0.7463 -1.5425
  274MOL0     H37751   0.594   4.306   4.163 -1.4442 -1.2458 -0.3198
  274MOL0     H37752   0.551   4.437   4.286  0.0910 -0.0534 -0.5736
  274MOL0     H37753   0.694   4.195   4.371 -1.9406  0.3365  0.6757
  274MOL0     H37754   0.674   4.347   4.450 -0.7153 -0.0069  0.8065
  274MOL0     H37755   0.848   4.293   4.209 -1.6325 -1.0644 -0.1603
  274MOL0     H37756   0.806   4.459   4.260  1.1296 -1.0437 -2.1593
  274MOL0     H37757   0.914   4.259   4.457  0.4664 -1.2043  0.8145
  274MOL0     H37758   0.911   4.434   4.467 -2.5173 -0.3844 -0.3475
  274MOL0     H37759   1.047   4.423   4.240 -0.7583  2.3426  1.1152
  274MOL0     H37760   1.121   4.446   4.392 -0.7547  2.8502 -2.6033
  274MOL0     H37761   0.994   4.104   4.242 -0.0724  1.2157  2.0193
  274MOL0     H37762   1.093   3.859   4.264 -0.2724  0.3693  0.4150
  274MOL0     H37763   1.256   3.826   4.318 -0.1202 -0.7584 -1.7652
  274MOL0     H37764   1.183   3.926   4.036 -1.3444 -0.5700 -0.5379
  274MOL0     H37765   1.337   3.928   4.085 -0.6697  0.4071 -2.1568
  274MOL0     H37766   1.330   3.728   3.961  0.5975 -1.4599  0.6319
  274MOL0     H37767   1.331   3.665   4.118 -0.4419  1.5356  1.1437
  274MOL0     H37768   1.096   3.649   4.116  2.0775  0.7401 -0.0669
  274MOL0     H37769   1.066   3.692   3.949 -4.4200 -5.8407  0.1215
  274MOL0     H37770   1.139   3.387   3.735  0.1770 -0.6745 -0.7624
  274MOL0     H37771   1.059   3.241   3.585 -0.1069  1.2333  0.3237
  274MOL0     H37772   0.887   3.261   3.557 -0.8587  1.0521  0.9233
  274MOL0     H37773   0.939   3.116   3.638 -0.2395 -0.3821  0.2165
  274MOL0     H37774   0.727   3.026   3.514  0.2010 -1.5622 -2.3538
  274MOL0     H37775   0.544   2.902   3.382 -1.6349 -0.2087 -0.9458
  274MOL0     H37776   0.369   2.683   3.537  1.3740  1.6612 -1.2139
  274MOL0     H37777   0.243   2.754   3.651 -1.9984 -0.7356 -1.2255
  274MOL0     H37778   0.063   2.719   3.496  0.9502  2.8434 -1.7774
  274MOL0     H37779   0.164   2.662   3.370 -0.6702 -2.3247  0.0172
  274MOL0     H37780   0.136   2.515   3.629 -0.3358  1.5816 -0.1709
  274MOL0     H37781   0.249   2.475   3.499  1.0352 -0.3400  2.5103
  274MOL0     H37782   0.068   2.425   3.338 -0.1073 -3.4527 -0.1092
  274MOL0     H37783  -0.045   2.482   3.444  0.1676 -1.0402  1.7775
  274MOL0     H37784   0.086   2.258   3.571 -0.2027  2.2612  2.8766
  274MOL0     H37785  -0.085   2.312   3.572 -0.1361 -1.3183 -0.7901
  274MOL0     H37786  -0.129   2.258   3.342  2.8281  4.3710 -0.1009
  274MOL0     H37787  -0.096   2.122   3.451 -1.1727  0.5523  0.4657
  274MOL0     H37788   0.142   2.110   3.350  1.6295 -2.7356 -2.5652
  274MOL0     H37789   0.075   2.215   3.218  0.2944  1.1730 -0.1277
  274MOL0     H37790   0.093   1.960   3.178 -0.5886 -2.5667  1.7384
  274MOL0     H37791  -0.063   2.042   3.144 -0.0105 -2.2715 -0.4488
  274MOL0     H37792   0.288   2.955   3.721 -0.3291  2.0466  0.9453
  274MOL0     H37793   0.447   3.088   3.825  2.9228  3.8311 -0.2496
  274MOL0     H37794   0.739   3.387   4.023 -1.0433 -0.6968  0.2469
  274MOL0     H37795   0.956   3.471   4.110 -0.1968 -2.0443  0.4600
  274MOL0     H37796   0.223   4.635   4.209  1.0048 -2.3005  1.0547
  274MOL0     H37797   0.238   4.864   4.146  0.8188 -0.4600  1.3732
  274MOL0     H37798   0.403   5.089   3.743  1.5172 -0.9290  0.8580
  274MOL0     H37799   0.467   5.272   3.594  0.7675  0.2752 -0.0851
  274MOL0     H37800   0.581   5.711   3.647  0.5481  1.0780  1.0011
  274MOL0     H37801   0.616   5.644   3.804  0.6547 -2.4444  0.3999
  274MOL0     H37802   0.758   5.566   3.547 -2.2033  1.2832 -0.9658
  274MOL0     H37803   0.749   5.465   3.695 -1.2733 -0.1783 -0.1097
  274MOL0     H37804   0.821   5.763   3.680 -1.8733 -0.9333 -1.6378
  274MOL0     H37805   0.826   5.656   3.825 -1.3038 -5.8634 -1.3094
  274MOL0     H37806   0.995   5.611   3.577  0.8251 -1.7494 -0.7490
  274MOL0     H37807   1.035   5.549   3.744  1.3126 -0.0754 -2.3186
  274MOL0     H37808   1.280   5.871   3.744 -0.2378  1.0197 -0.4077
  274MOL0     H37809   0.500   5.528   3.942 -2.2458 -0.5750  3.1103
  274MOL0     H37810   0.459   5.285   4.185 -0.7526 -0.3593  0.2961
  274MOL0     H37811   0.478   5.460   4.157 -3.4938  0.8884  2.3435
  274MOL0     H37812   0.320   5.383   4.143 -1.0525 -0.9090  0.2857
  275MOL0     O37813   4.205   7.131   2.560 -0.5011  0.1093  0.0274
  275MOL0     C37814   4.173   7.242   2.569 -0.3508  0.1542 -0.2821
  275MOL0     O37815   4.078   7.286   2.654  0.6868 -0.6114 -0.1793
  275MOL0     C37816   4.028   7.202   2.754 -0.5308  0.6284  0.7079
  275MOL0     C37817   4.083   7.196   2.883 -1.0635  0.4845  0.3143
  275MOL0     C37818   4.041   7.106   2.982 -0.4371 -0.3719 -0.1905
  275MOL0     C37819   3.961   7.002   2.954  0.4413  0.2317  0.4057
  275MOL0     O37820   3.929   6.907   3.041  0.6261 -0.3829 -1.0546
  275MOL0     C37821   4.028   6.868   3.136  0.6336  0.0165  0.0509
  275MOL0     C37822   4.008   6.726   3.192 -0.1892  0.5679  0.2232
  275MOL0     C37823   4.115   6.702   3.302  0.1943  0.5151 -0.0083
  275MOL0     C37824   4.141   6.553   3.321  0.3371  0.1140 -0.4011
  275MOL0     C37825   4.019   6.491   3.394  0.2367 -0.7600 -0.3700
  275MOL0     C37826   4.048   6.347   3.406  0.1074  0.2992 -0.4875
  275MOL0     C37827   3.933   6.279   3.472  0.6938 -0.1681 -1.0944
  275MOL0     C37828   3.957   6.129   3.509 -0.5828  0.0850  1.0795
  275MOL0     N37829   3.937   6.030   3.408 -0.2908 -0.7557  0.7823
  275MOL0     C37830   3.848   5.927   3.406 -0.1236  1.1543 -0.2942
  275MOL0     C37831   3.888   5.833   3.309 -0.8398 -0.7001 -0.0340
  275MOL0     C37832   3.839   5.702   3.264 -0.2213 -0.6222 -0.4666
  275MOL0     C37833   3.738   5.710   3.156 -0.1687  0.4552 -0.4877
  275MOL0     C37834   3.789   5.757   3.017 -0.8568  0.1113 -0.7805
  275MOL0     C37835   3.931   5.710   2.967  0.7906 -0.1673 -0.6361
  275MOL0     O37836   3.953   5.571   2.946  0.8317  0.3521 -0.5561
  275MOL0     C37837   3.852   5.501   2.903 -0.1953  0.9182  0.3210
  275MOL0     C37838   3.758   5.534   2.797 -0.7611  0.0407  0.1599
  275MOL0     C37839   3.672   5.444   2.740  0.7131  0.1357 -0.2279
  275MOL0     C37840   3.578   5.516   2.645 -0.3615 -0.0627  0.2701
  275MOL0     C37841   3.656   5.317   2.783 -0.6553 -0.2065 -0.4108
  275MOL0     C37842   3.568   5.207   2.723 -0.2003 -0.4976  0.2706
  275MOL0     O37843   3.558   5.095   2.795  0.3768 -0.7881  0.5564
  275MOL0     C37844   3.471   5.007   2.740  0.2258 -0.2975  0.2146
  275MOL0     C37845   3.332   5.040   2.758 -1.3321  0.1282 -0.2472
  275MOL0     C37846   3.236   4.966   2.700  0.3147  0.4241  0.2605
  275MOL0     C37847   3.272   4.845   2.625 -0.3549 -0.9000 -0.2985
  275MOL0     O37848   3.175   4.768   2.579  0.2549  0.4581 -0.6431
  275MOL0     C37849   3.124   4.810   2.455  0.5227  0.5013 -0.2676
  275MOL0     C37850   3.020   4.719   2.399 -0.7314 -0.1933 -0.0394
  275MOL0     C37851   3.083   4.586   2.360 -0.3502 -0.1674 -1.0267
  275MOL0     C37852   2.995   4.513   2.263  0.3171  0.5953  0.5454
  275MOL0     C37853   3.071   4.392   2.218  0.2456  0.5031  0.2363
  275MOL0     C37854   3.161   4.407   2.093  0.6857 -0.6232  0.4063
  275MOL0     C37855   3.239   4.279   2.054  0.1699 -0.0741  0.5074
  275MOL0     C37856   3.355   4.293   1.952 -0.3526 -0.6378  0.6163
  275MOL0    Cl37857   3.302   4.359   1.776 -0.0976 -0.4786  0.4953
  275MOL0     C37858   3.404   4.817   2.609 -0.9859  0.8092 -0.7857
  275MOL0     C37859   3.508   4.901   2.663  0.0307  0.4850 -0.4154
  275MOL0     O37860   3.525   5.226   2.611  0.4141  0.5695  0.5282
  275MOL0     C37861   3.734   5.283   2.896 -0.3072  0.0681  0.5216
  275MOL0     C37862   3.840   5.366   2.944 -0.0847 -0.2781 -0.3286
  275MOL0     N37863   4.007   5.888   3.255  0.5685  0.1728  0.3763
  275MOL0     N37864   4.026   5.999   3.306  0.6637 -0.4668  0.7400
  275MOL0     C37865   3.895   7.009   2.827 -0.1209 -0.4152  0.0626
  275MOL0     C37866   3.927   7.108   2.733 -0.6627  0.1730  0.3506
  275MOL0     C37867   4.240   7.339   2.480 -1.1243  1.0969  0.3154
  275MOL0     C37868   4.238   7.323   2.339 -0.1365  0.7067 -1.0457
  275MOL0     C37869   4.295   7.422   2.266  0.8321  0.5701  0.0741
  275MOL0     C37870   4.373   7.521   2.323  0.4662  0.2190 -0.1287
  275MOL0     O37871   4.425   7.615   2.242 -0.0775  0.0531  0.7559
  275MOL0     C37872   4.566   7.632   2.241 -0.8609 -0.3768  0.1647
  275MOL0     C37873   4.620   7.620   2.094 -0.4971  0.5081 -1.1819
  275MOL0     C37874   4.585   7.475   2.030  0.3960 -0.0953  0.3207
  275MOL0     C37875   4.596   7.477   1.871 -0.1223 -0.5341 -0.9002
  275MOL0     C37876   4.506   7.579   1.812 -0.1575  0.7549  0.1936
  275MOL0     C37877   4.416   7.656   1.790 -0.4890 -0.7060  1.5954
  275MOL0     C37878   4.396   7.514   2.457 -1.2001  1.2301  1.2047
  275MOL0     C37879   4.325   7.426   2.541 -0.3140 -0.9014 -0.4185
  275MOL0     C37880   4.352   7.445   2.688 -0.1026 -0.6225 -1.1174
  275MOL0     H37881   4.155   7.272   2.912  0.7532 -1.6859  1.8270
  275MOL0     H37882   4.076   7.113   3.084  0.0416 -0.3897 -0.3513
  275MOL0     H37883   4.019   6.941   3.217 -0.6125  0.6357 -0.6383
  275MOL0     H37884   4.126   6.883   3.089  0.2032 -0.4598 -1.0158
  275MOL0     H37885   3.905   6.718   3.227 -0.7570  0.5433 -1.3592
  275MOL0     H37886   4.012   6.650   3.114 -2.2169  1.6404 -1.0048
  275MOL0     H37887   4.213   6.744   3.275 -1.2705  3.0546 -1.7893
  275MOL0     H37888   4.079   6.747   3.395 -3.9844 -1.3629 -0.5160
  275MOL0     H37889   4.136   6.496   3.227 -0.7707 -3.7459  1.8000
  275MOL0     H37890   4.237   6.532   3.370 -0.7543 -0.1584  1.6914
  275MOL0     H37891   3.933   6.506   3.329 -0.0638  0.9921  0.3899
  275MOL0     H37892   4.002   6.541   3.489  0.4976  0.1890 -0.8139
  275MOL0     H37893   4.061   6.298   3.309 -4.9139 -5.9240  1.2855
  275MOL0     H37894   4.141   6.334   3.464  2.1254  0.5782 -3.4426
  275MOL0     H37895   3.843   6.274   3.410  2.1662 -1.3783 -3.2321
  275MOL0     H37896   3.908   6.338   3.561  0.5873 -1.3649 -0.3020
  275MOL0     H37897   4.064   6.130   3.530 -0.3470 -1.1509  0.0814
  275MOL0     H37898   3.900   6.108   3.600 -2.3634  1.9365  0.4634
  275MOL0     H37899   3.773   5.909   3.482  1.1960 -2.3043  0.3712
  275MOL0     H37900   3.799   5.637   3.343 -0.3186  1.2743  1.1203
  275MOL0     H37901   3.929   5.653   3.225 -0.1726  1.6999 -3.6958
  275MOL0     H37902   3.686   5.615   3.145 -0.0785  0.3135  0.2726
  275MOL0     H37903   3.668   5.789   3.188  0.4257 -0.6419  4.2692
  275MOL0     H37904   3.712   5.747   2.939 -0.5251  0.2148 -1.1214
  275MOL0     H37905   3.806   5.865   3.018  0.8926 -0.1413 -1.0805
  275MOL0     H37906   3.959   5.772   2.881 -0.1122  0.3605 -0.5650
  275MOL0     H37907   4.004   5.748   3.039  0.5714  1.2574 -1.1221
  275MOL0     H37908   3.780   5.632   2.754 -0.6955 -0.7840 -1.7602
  275MOL0     H37909   3.475   5.480   2.650 -0.8509  1.3578  1.3190
  275MOL0     H37910   3.615   5.484   2.548  1.7521 -0.1512  1.0465
  275MOL0     H37911   3.578   5.624   2.662  0.3153 -0.0080 -0.0445
  275MOL0     H37912   3.296   5.122   2.819 -3.7688 -1.5344  0.6793
  275MOL0     H37913   3.132   4.986   2.725  0.1968  1.5579 -1.0319
  275MOL0     H37914   3.069   4.904   2.467 -0.4233 -0.2636  2.2724
  275MOL0     H37915   3.205   4.840   2.389 -1.2755 -1.6987 -3.7561
  275MOL0     H37916   2.934   4.710   2.466 -0.5311 -2.5143  0.0015
  275MOL0     H37917   2.996   4.769   2.305  3.4475  1.6490 -0.3447
  275MOL0     H37918   3.099   4.522   2.448  1.5555  1.4506 -0.1348
  275MOL0     H37919   3.182   4.614   2.324 -0.0975  1.7871  0.9722
  275MOL0     H37920   2.963   4.568   2.174 -1.5449 -0.7617  0.3119
  275MOL0     H37921   2.906   4.479   2.317 -0.1763 -0.1864 -0.7245
  275MOL0     H37922   3.128   4.345   2.299  1.3703 -1.9893 -1.8817
  275MOL0     H37923   2.993   4.320   2.191  2.1976 -2.1326  1.1981
  275MOL0     H37924   3.238   4.482   2.112 -0.2878  0.5691 -0.2929
  275MOL0     H37925   3.096   4.452   2.017 -1.8378 -1.0779  2.1716
  275MOL0     H37926   3.164   4.212   2.010 -0.1590  0.0382  0.8924
  275MOL0     H37927   3.274   4.222   2.140  1.0984 -3.4945 -1.9302
  275MOL0     H37928   3.407   4.199   1.933  1.5949  0.8667 -2.0177
  275MOL0     H37929   3.425   4.362   2.000 -1.6276  2.5369 -1.7641
  275MOL0     H37930   3.423   4.734   2.541 -0.3317  0.2509  0.0503
  275MOL0     H37931   3.608   4.877   2.627 -0.4825 -2.3733 -0.1456
  275MOL0     H37932   3.729   5.188   2.947  0.8782  0.0396  0.6073
  275MOL0     H37933   3.908   5.335   3.022  0.4584  3.3128  0.8332
  275MOL0     H37934   3.808   6.948   2.806 -0.7466  0.3485  0.3647
  275MOL0     H37935   3.877   7.111   2.637  2.4330  2.5774 -1.3720
  275MOL0     H37936   4.176   7.243   2.299 -1.3936  1.4961 -0.7510
  275MOL0     H37937   4.270   7.426   2.160 -4.6778  0.9136  1.1131
  275MOL0     H37938   4.586   7.735   2.274 -2.0988 -0.1051  0.1514
  275MOL0     H37939   4.621   7.556   2.296 -0.8619 -0.4155  0.1124
  275MOL0     H37940   4.729   7.634   2.093 -0.5751  1.4405  0.2670
  275MOL0     H37941   4.578   7.702   2.035 -1.3179  1.7223  0.9530
  275MOL0     H37942   4.651   7.398   2.069 -0.4532 -0.4790  1.0142
  275MOL0     H37943   4.486   7.442   2.063  1.2805 -2.5204  0.6829
  275MOL0     H37944   4.566   7.375   1.846  2.9341 -1.3732 -1.4890
  275MOL0     H37945   4.698   7.489   1.833 -0.5604  0.8168 -1.6869
  275MOL0     H37946   4.330   7.715   1.767  0.7865  0.1667 -1.4657
  275MOL0     H37947   4.474   7.583   2.490 -1.0909  2.2393 -0.9564
  275MOL0     H37948   4.453   7.478   2.713 -0.7794 -0.3513  1.5554
  275MOL0     H37949   4.281   7.518   2.728  0.5522 -1.1600  1.1624
  275MOL0     H37950   4.320   7.355   2.742  2.2871 -1.0780 -0.3611
  276MOL0     O37951   4.259   8.453   8.179  0.0260 -0.4860 -0.3570
  276MOL0     C37952   4.187   8.524   8.109  0.6828 -0.2410 -0.0829
  276MOL0     O37953   4.215   8.651   8.071  0.9782 -0.2135 -0.0923
  276MOL0     C37954   4.341   8.685   8.053 -0.5511  0.5274  0.5557
  276MOL0     C37955   4.366   8.737   7.923 -0.6741  0.9012 -0.6091
  276MOL0     C37956   4.502   8.765   7.885  0.6864  0.4647 -0.7407
  276MOL0     C37957   4.607   8.741   7.979  0.1379  0.7758  0.5063
  276MOL0     O37958   4.734   8.759   7.940 -0.7256  0.0393 -0.3613
  276MOL0     C37959   4.783   8.664   7.846 -0.4234 -0.2473  0.1137
  276MOL0     C37960   4.934   8.666   7.858  0.2148 -0.6389  0.1099
  276MOL0     C37961   4.989   8.808   7.814  0.2974  1.5297 -0.1518
  276MOL0     C37962   5.095   8.792   7.693 -0.4851  0.6948  0.5413
  276MOL0     C37963   5.161   8.924   7.669 -0.3477  0.0593  0.0748
  276MOL0     C37964   5.232   8.939   7.530  0.9475 -0.3534 -0.4889
  276MOL0     C37965   5.357   8.851   7.518 -0.0537 -0.1573 -0.5437
  276MOL0     C37966   5.343   8.703   7.476  0.7194  0.6936 -0.3896
  276MOL0     N37967   5.373   8.688   7.336 -0.0308  0.1575  0.0624
  276MOL0     C37968   5.310   8.753   7.229  0.0878  0.9989 -0.2402
  276MOL0     C37969   5.394   8.727   7.117  0.7424  0.0901 -0.6628
  276MOL0     C37970   5.377   8.778   6.981  0.2975 -0.4929  0.0576
  276MOL0     C37971   5.254   8.725   6.892 -0.4029 -0.4065  0.5729
  276MOL0     C37972   5.244   8.809   6.767 -0.3076  0.2078 -0.6457
  276MOL0     C37973   5.166   8.734   6.658 -0.8013  0.5092  0.7819
  276MOL0     O37974   5.035   8.679   6.698  0.2029  0.1867 -0.3764
  276MOL0     C37975   4.935   8.695   6.607 -0.5570 -0.8552  0.0197
  276MOL0     C37976   4.807   8.712   6.662 -0.4626 -0.4479 -0.3017
  276MOL0     C37977   4.701   8.750   6.578  0.3125 -0.6959 -0.1250
  276MOL0     C37978   4.572   8.779   6.655  0.0819  0.6031 -0.9787
  276MOL0     C37979   4.710   8.748   6.439 -0.6179 -0.1354  0.1834
  276MOL0     C37980   4.603   8.800   6.342 -0.5477 -0.1933 -1.2939
  276MOL0     O37981   4.485   8.824   6.401 -0.4581 -0.1254  0.0227
  276MOL0     C37982   4.379   8.883   6.333  0.5959  0.6956  0.5884
  276MOL0     C37983   4.253   8.821   6.368  0.1773  0.3769  0.4728
  276MOL0     C37984   4.128   8.871   6.322 -0.1693  0.2836  0.1176
  276MOL0     C37985   4.135   8.976   6.229 -0.4271  0.6480 -0.4324
  276MOL0     O37986   4.014   9.011   6.184 -0.6769  0.0771 -0.4444
  276MOL0     C37987   4.011   9.118   6.094  1.2202  0.1305  0.9584
  276MOL0     C37988   3.865   9.148   6.059  0.5019 -0.3881  0.8202
  276MOL0     C37989   3.784   9.192   6.186 -0.8700 -0.0985 -0.3049
  276MOL0     C37990   3.649   9.255   6.148 -0.3867  0.4760 -0.1503
  276MOL0     C37991   3.547   9.274   6.263  0.2182 -0.2085 -0.3328
  276MOL0     C37992   3.418   9.343   6.230  0.7558 -0.9845 -0.8036
  276MOL0     C37993   3.341   9.387   6.357  0.1389  0.0015 -0.3211
  276MOL0     C37994   3.281   9.261   6.439  0.1693  0.5299  0.4122
  276MOL0    Cl37995   3.174   9.313   6.582 -0.4403 -0.2875 -0.2803
  276MOL0     C37996   4.259   9.040   6.186  0.0777  0.1221 -0.6451
  276MOL0     C37997   4.378   8.987   6.237  0.8392  0.3691 -0.0373
  276MOL0     O37998   4.628   8.816   6.222 -0.3442  0.1453 -0.4280
  276MOL0     C37999   4.833   8.715   6.388 -0.2256 -0.0364  0.1823
  276MOL0     C38000   4.943   8.679   6.473  0.0660  0.5547 -0.1309
  276MOL0     N38001   5.497   8.641   7.156  0.9147 -0.1864  0.0963
  276MOL0     N38002   5.484   8.625   7.287  0.0449 -0.2606  0.6560
  276MOL0     C38003   4.577   8.711   8.107 -0.2707 -0.7544  0.0838
  276MOL0     C38004   4.441   8.687   8.145 -0.4953 -0.1160  0.4866
  276MOL0     C38005   4.064   8.458   8.070  0.3466  0.5353  0.0094
  276MOL0     C38006   3.982   8.402   8.162 -0.1922 -0.1193 -0.6988
  276MOL0     C38007   3.867   8.333   8.124 -0.1872  0.4972 -0.6349
  276MOL0     C38008   3.832   8.308   7.993  0.6175 -0.3128  0.9921
  276MOL0     O38009   3.712   8.248   7.947 -0.2826 -0.1517 -0.5896
  276MOL0     C38010   3.594   8.233   8.031 -0.7683 -0.6408  0.1549
  276MOL0     C38011   3.488   8.160   7.954 -0.4036  0.3648 -0.0464
  276MOL0     C38012   3.355   8.159   8.035 -0.7847  0.9155 -0.0595
  276MOL0     C38013   3.242   8.119   7.936 -0.7284  0.1575  0.0558
  276MOL0     C38014   3.275   7.991   7.871  0.1974  0.1435  1.2518
  276MOL0     C38015   3.311   7.906   7.798  0.3254 -0.0248  0.3913
  276MOL0     C38016   3.920   8.363   7.892  0.3586 -0.9115 -0.4261
  276MOL0     C38017   4.024   8.446   7.934  0.2020 -0.4685  0.0617
  276MOL0     C38018   4.102   8.517   7.823  0.0664  0.6014  0.3609
  276MOL0     H38019   4.291   8.742   7.844 -1.0783 -2.3544 -0.5431
  276MOL0     H38020   4.525   8.797   7.784 -1.7141 -2.7846 -2.5096
  276MOL0     H38021   4.755   8.686   7.742 -1.8012 -1.5782  0.1551
  276MOL0     H38022   4.757   8.560   7.870  0.5208 -0.1895  1.4430
  276MOL0     H38023   4.966   8.629   7.956 -0.8269  0.0973  0.7403
  276MOL0     H38024   4.969   8.591   7.786 -1.2129 -0.4184 -0.8557
  276MOL0     H38025   4.912   8.880   7.785  0.9665  1.9048 -1.0294
  276MOL0     H38026   5.043   8.856   7.897 -0.5581  0.2457  1.2057
  276MOL0     H38027   5.165   8.714   7.724 -0.1617  0.9620  0.4755
  276MOL0     H38028   5.035   8.753   7.610 -0.4782 -0.3004  0.9855
  276MOL0     H38029   5.228   8.947   7.753 -2.1458  0.2480  1.5037
  276MOL0     H38030   5.077   8.993   7.657 -1.4634 -1.2526  0.1224
  276MOL0     H38031   5.145   8.918   7.468 -0.4163  0.6590  0.9990
  276MOL0     H38032   5.261   9.042   7.510  0.2429  0.2355  1.3383
  276MOL0     H38033   5.410   8.845   7.613 -1.6585 -3.2731  0.3034
  276MOL0     H38034   5.415   8.903   7.441 -2.7614  2.7038 -0.8741
  276MOL0     H38035   5.407   8.644   7.542 -0.1890  0.5880  0.4262
  276MOL0     H38036   5.242   8.671   7.503  1.8830  0.9094  5.7457
  276MOL0     H38037   5.228   8.824   7.232 -0.1255  0.8057 -1.1726
  276MOL0     H38038   5.464   8.749   6.922 -0.2596 -1.6125 -0.2462
  276MOL0     H38039   5.369   8.887   6.973 -0.0611 -0.6092 -1.4119
  276MOL0     H38040   5.277   8.623   6.859  0.4155  0.2031 -0.8098
  276MOL0     H38041   5.159   8.731   6.945 -1.0523 -0.8341 -0.5064
  276MOL0     H38042   5.200   8.907   6.791  1.1171  1.2139 -1.8971
  276MOL0     H38043   5.344   8.835   6.731 -0.7587  2.0505 -0.6829
  276MOL0     H38044   5.158   8.793   6.567  0.1261  1.0318  1.0285
  276MOL0     H38045   5.237   8.652   6.644  1.2321  1.7971  2.7754
  276MOL0     H38046   4.793   8.708   6.770  2.5716  2.5831  0.3657
  276MOL0     H38047   4.585   8.766   6.762  1.2248 -0.5029 -1.2385
  276MOL0     H38048   4.492   8.705   6.639  0.3333 -1.3299  4.6119
  276MOL0     H38049   4.543   8.884   6.648 -0.9597  0.3035 -1.3526
  276MOL0     H38050   4.249   8.744   6.444 -0.9119 -1.9263 -1.7522
  276MOL0     H38051   4.040   8.827   6.367 -0.0260  1.7759  1.9184
  276MOL0     H38052   4.047   9.207   6.146 -0.1181  1.1482  0.2021
  276MOL0     H38053   4.060   9.106   5.997  0.9691  0.9839  0.7175
  276MOL0     H38054   3.863   9.229   5.985  1.4236 -1.1089 -0.0257
  276MOL0     H38055   3.821   9.060   6.012  0.0919  1.0415 -1.6753
  276MOL0     H38056   3.825   9.277   6.240 -0.6880  1.0967 -2.2401
  276MOL0     H38057   3.770   9.104   6.249 -0.7109 -1.1384 -1.6565
  276MOL0     H38058   3.600   9.196   6.070 -0.4012  1.5234 -0.9593
  276MOL0     H38059   3.651   9.356   6.105  1.6841  0.6535  0.2940
  276MOL0     H38060   3.528   9.173   6.301  1.7286 -0.2995  0.2375
  276MOL0     H38061   3.601   9.339   6.333 -0.0943 -0.8179  0.4826
  276MOL0     H38062   3.352   9.284   6.166 -0.5070  0.2658 -0.6970
  276MOL0     H38063   3.436   9.434   6.173  0.5367 -0.6343 -0.3236
  276MOL0     H38064   3.261   9.455   6.326 -1.2427 -0.6504  1.5923
  276MOL0     H38065   3.404   9.443   6.427 -1.1914 -1.7481  2.4861
  276MOL0     H38066   3.367   9.202   6.474  1.2078  1.0201 -1.1939
  276MOL0     H38067   3.230   9.201   6.362  1.7229 -0.1944 -0.1104
  276MOL0     H38068   4.262   9.128   6.123 -1.6565  1.9357  1.5828
  276MOL0     H38069   4.473   9.032   6.210  0.5004 -0.2796 -2.5192
  276MOL0     H38070   4.851   8.718   6.281  3.3356 -1.3522  0.6152
  276MOL0     H38071   5.035   8.655   6.420 -0.8238 -1.8155 -0.7643
  276MOL0     H38072   4.666   8.700   8.168 -0.7322  0.1615  0.9382
  276MOL0     H38073   4.429   8.649   8.246  2.7526 -0.7754  0.7633
  276MOL0     H38074   3.987   8.432   8.266 -0.2618 -1.4486 -0.2882
  276MOL0     H38075   3.812   8.292   8.208  0.4787  1.3458  0.2367
  276MOL0     H38076   3.621   8.199   8.131 -0.7690 -0.2000  0.3058
  276MOL0     H38077   3.556   8.335   8.043 -2.4957 -1.2686  0.3574
  276MOL0     H38078   3.524   8.061   7.925  1.8399  0.1809  2.8704
  276MOL0     H38079   3.475   8.219   7.863  2.1669  0.3306 -0.5211
  276MOL0     H38080   3.354   8.087   8.118 -3.1500  2.1965  1.1181
  276MOL0     H38081   3.330   8.256   8.078  1.2105  1.7238 -0.6088
  276MOL0     H38082   3.223   8.195   7.859 -2.4594 -0.1517  0.1282
  276MOL0     H38083   3.147   8.107   7.990 -0.7552  1.1163  0.2545
  276MOL0     H38084   3.350   7.833   7.729  2.2649 -0.8360  2.2262
  276MOL0     H38085   3.898   8.354   7.786  1.5480 -0.2623 -0.7397
  276MOL0     H38086   4.205   8.479   7.822  1.3920  3.7905 -0.6977
  276MOL0     H38087   4.052   8.500   7.727  3.3880  2.0949 -1.8380
  276MOL0     H38088   4.121   8.625   7.828  0.2726  0.6174 -0.5192
  277MOL0     O38089  10.180   2.153  10.090  0.3388 -0.1840  0.7101
  277MOL0     C38090  10.159   2.187  10.202  0.8072 -0.6511  0.1341
  277MOL0     O38091  10.245   2.167  10.301  0.0438 -0.1402 -1.0159
  277MOL0     C38092  10.374   2.139  10.259 -0.0771 -0.2400  0.0139
  277MOL0     C38093  10.422   2.015  10.214  0.4787 -0.3678 -0.6708
  277MOL0     C38094  10.558   1.977  10.206 -0.2719 -1.0237  0.8781
  277MOL0     C38095  10.657   2.079  10.214 -0.1932 -0.1786 -0.2602
  277MOL0     O38096  10.788   2.072  10.166  0.0557  0.5927 -0.1099
  277MOL0     C38097  10.852   1.940  10.155 -0.4253  0.2419 -0.0075
  277MOL0     C38098  11.000   1.960  10.161  0.5367 -0.2351  0.6588
  277MOL0     C38099  11.059   2.059  10.051  0.0553  0.2312 -0.0013
  277MOL0     C38100  11.210   2.087  10.065 -0.1639 -1.5969  0.4076
  277MOL0     C38101  11.260   2.185   9.953  0.2392 -0.3706 -0.2413
  277MOL0     C38102  11.238   2.330   9.999  0.1550  0.8373  0.2893
  277MOL0     C38103  11.236   2.425   9.875  0.1219 -0.8032  0.4835
  277MOL0     C38104  11.383   2.450   9.798  0.9815 -0.5917 -0.1861
  277MOL0     N38105  11.384   2.547   9.687  0.3936 -0.2991  0.2164
  277MOL0     C38106  11.318   2.519   9.568 -0.0410 -0.7789  1.2737
  277MOL0     C38107  11.333   2.637   9.491  0.5581 -0.4535 -0.3526
  277MOL0     C38108  11.273   2.671   9.356 -0.2754 -0.5497 -0.1496
  277MOL0     C38109  11.341   2.600   9.244 -0.1524  0.8051 -0.0774
  277MOL0     C38110  11.477   2.663   9.198  0.6112  0.3483 -0.3564
  277MOL0     C38111  11.497   2.674   9.045  0.0872 -0.2542 -0.1181
  277MOL0     O38112  11.581   2.786   9.016 -0.0678  0.9888 -0.2692
  277MOL0     C38113  11.625   2.823   8.893 -0.3381  0.6631 -0.7358
  277MOL0     C38114  11.686   2.948   8.877  0.3959 -0.3469 -0.3653
  277MOL0     C38115  11.751   2.986   8.760  0.8461 -0.0790  0.3474
  277MOL0     C38116  11.829   3.111   8.764 -0.1752 -0.0855  0.3181
  277MOL0     C38117  11.768   2.895   8.652  0.1648  0.3732  0.3081
  277MOL0     C38118  11.801   2.933   8.512 -0.6260  0.3278 -0.0788
  277MOL0     O38119  11.814   2.824   8.423  0.1042 -0.2383 -0.0275
  277MOL0     C38120  11.836   2.854   8.288 -0.3655 -0.3788  0.1828
  277MOL0     C38121  11.742   2.938   8.212 -0.3406 -0.3158 -0.7561
  277MOL0     C38122  11.755   2.967   8.078 -0.1130  0.4628 -0.3843
  277MOL0     C38123  11.862   2.905   8.013  0.6354  0.0916  0.6883
  277MOL0     O38124  11.893   2.901   7.874 -0.2938 -0.2082 -0.5988
  277MOL0     C38125  11.783   2.955   7.790  0.3334 -0.1847  0.5836
  277MOL0     C38126  11.668   2.857   7.798  0.5572  0.8626 -0.7690
  277MOL0     C38127  11.574   2.876   7.682 -0.9504  0.2433  0.7029
  277MOL0     C38128  11.465   2.775   7.684  0.1712  0.2236  0.5381
  277MOL0     C38129  11.383   2.796   7.555 -0.1633 -0.8323 -0.0013
  277MOL0     C38130  11.248   2.716   7.543 -0.3973 -0.1711 -0.3776
  277MOL0     C38131  11.281   2.590   7.460  0.0637  0.5324  0.5843
  277MOL0     C38132  11.152   2.509   7.412  0.0284  0.8366 -0.1899
  277MOL0    Cl38133  11.052   2.599   7.286  0.1464  0.2028  0.4032
  277MOL0     C38134  11.966   2.840   8.092 -0.0770 -0.3901  0.5879
  277MOL0     C38135  11.953   2.807   8.226  0.3080 -0.3007  0.5128
  277MOL0     O38136  11.821   3.051   8.485 -0.6863  0.9131  1.3311
  277MOL0     C38137  11.716   2.766   8.674 -0.2994 -0.1578 -0.2345
  277MOL0     C38138  11.666   2.727   8.798 -0.6702 -0.1077 -0.2411
  277MOL0     N38139  11.403   2.725   9.572  0.4151 -0.0313 -0.1567
  277MOL0     N38140  11.442   2.662   9.689 -0.6667  0.5135  0.3550
  277MOL0     C38141  10.608   2.214  10.236  0.3357 -0.0684 -0.8775
  277MOL0     C38142  10.472   2.233  10.263  0.0357 -0.4021  0.1911
  277MOL0     C38143  10.036   2.271  10.235  0.7308  0.0400  0.5386
  277MOL0     C38144  10.012   2.301  10.371 -0.5823 -0.3944  0.9174
  277MOL0     C38145   9.897   2.376  10.409  0.5801 -0.4549  0.2872
  277MOL0     C38146   9.807   2.423  10.316 -0.5873 -0.6327  0.7455
  277MOL0     O38147   9.701   2.498  10.365  0.1000 -0.2568  0.3717
  277MOL0     C38148   9.608   2.556  10.270 -0.4479 -0.2159  0.1288
  277MOL0     C38149   9.486   2.460  10.240 -0.6390  0.2388 -0.4089
  277MOL0     C38150   9.396   2.522  10.138  0.0258 -0.7952  0.4689
  277MOL0     C38151   9.316   2.644  10.196  0.7285  0.2621 -0.2859
  277MOL0     C38152   9.228   2.707  10.097  0.5467  0.0477 -0.4288
  277MOL0     C38153   9.146   2.747  10.016 -0.4562 -0.1388 -1.3361
  277MOL0     C38154   9.835   2.398  10.176 -0.9390  0.1752 -0.6816
  277MOL0     C38155   9.952   2.334  10.136 -0.2058  0.6786  0.9256
  277MOL0     C38156   9.980   2.327   9.984 -0.4890  0.2271 -0.2593
  277MOL0     H38157  10.358   1.927  10.213  0.8819 -0.7340  1.2473
  277MOL0     H38158  10.576   1.874  10.177 -0.9302 -0.8833 -0.0740
  277MOL0     H38159  10.816   1.892  10.064  2.7283  2.1795 -2.4879
  277MOL0     H38160  10.822   1.882  10.243  0.7500 -1.7311 -0.8604
  277MOL0     H38161  11.034   1.988  10.261  0.9814 -2.5026  1.1919
  277MOL0     H38162  11.030   1.857  10.139  0.0154  0.0085 -1.4611
  277MOL0     H38163  11.057   2.007   9.955  1.3414 -2.5602  1.3645
  277MOL0     H38164  11.012   2.156  10.034  3.6665  1.8616 -1.9580
  277MOL0     H38165  11.229   2.142  10.157 -2.1961  1.1707 -0.6761
  277MOL0     H38166  11.259   1.991  10.045  0.7558 -0.8733 -1.0641
  277MOL0     H38167  11.208   2.171   9.858  1.0726 -1.5550 -0.5481
  277MOL0     H38168  11.366   2.163   9.940  0.5033  0.4392  0.4293
  277MOL0     H38169  11.141   2.337  10.051  0.4010  3.6021  0.5101
  277MOL0     H38170  11.319   2.357  10.066  1.7642  1.5864 -1.8621
  277MOL0     H38171  11.213   2.529   9.901  3.2204  0.3690 -0.9508
  277MOL0     H38172  11.168   2.399   9.794  1.9764  2.8648 -2.6287
  277MOL0     H38173  11.464   2.487   9.861  3.1293 -2.0619 -1.9251
  277MOL0     H38174  11.414   2.355   9.753 -1.4163 -1.2948 -0.4758
  277MOL0     H38175  11.268   2.430   9.529 -0.9406  1.8473 -4.6723
  277MOL0     H38176  11.276   2.780   9.345 -0.2268 -0.6265 -0.9656
  277MOL0     H38177  11.167   2.644   9.344 -0.7605  0.5471  1.3028
  277MOL0     H38178  11.353   2.497   9.280  1.3708  1.9620  3.0886
  277MOL0     H38179  11.281   2.591   9.153  3.3209 -1.0873 -2.4201
  277MOL0     H38180  11.472   2.762   9.244 -2.7404 -0.1344  0.5445
  277MOL0     H38181  11.561   2.609   9.242 -0.2538 -1.6294 -1.0311
  277MOL0     H38182  11.535   2.580   9.002 -1.8541 -0.6259 -1.1297
  277MOL0     H38183  11.400   2.689   8.996  0.1913 -0.0731 -0.2729
  277MOL0     H38184  11.684   3.026   8.953  1.3329 -1.1352  0.4972
  277MOL0     H38185  11.780   3.179   8.694 -4.2424 -2.6993  0.3138
  277MOL0     H38186  11.930   3.099   8.724 -1.4340  0.5624 -3.4567
  277MOL0     H38187  11.823   3.170   8.856 -0.6508  1.7806 -0.8570
  277MOL0     H38188  11.653   2.971   8.263  0.6300  1.8114 -0.3164
  277MOL0     H38189  11.678   3.034   8.040  0.6014  1.0855 -0.7709
  277MOL0     H38190  11.751   3.053   7.827 -1.6058 -0.8745  0.9000
  277MOL0     H38191  11.813   2.955   7.685 -4.9851 -0.9679 -1.2391
  277MOL0     H38192  11.716   2.759   7.788 -0.6414  0.4207 -2.5898
  277MOL0     H38193  11.613   2.867   7.892  3.3600 -0.3836  1.1297
  277MOL0     H38194  11.624   2.867   7.585 -1.0048  2.7582  0.3686
  277MOL0     H38195  11.544   2.981   7.693  0.4049  0.5203  2.1088
  277MOL0     H38196  11.406   2.790   7.775 -0.1237  1.3292  0.1800
  277MOL0     H38197  11.502   2.672   7.694 -1.1107 -0.4741 -1.2820
  277MOL0     H38198  11.358   2.902   7.541 -1.5526 -0.8761  1.8896
  277MOL0     H38199  11.452   2.779   7.471  1.1375 -2.4020  1.3194
  277MOL0     H38200  11.175   2.779   7.492 -0.3145  0.4602  0.2686
  277MOL0     H38201  11.210   2.692   7.643 -0.8744  0.5348 -0.3814
  277MOL0     H38202  11.344   2.519   7.515  0.4148  0.6588  0.3502
  277MOL0     H38203  11.347   2.617   7.377 -0.0995 -0.7025  0.0270
  277MOL0     H38204  11.102   2.463   7.498  1.4640 -2.5345 -0.9877
  277MOL0     H38205  11.182   2.423   7.352 -2.0418  0.4599 -0.7619
  277MOL0     H38206  12.041   2.792   8.030  0.7791  0.4171  0.9709
  277MOL0     H38207  12.018   2.730   8.268  2.7463  0.7314 -1.1331
  277MOL0     H38208  11.707   2.691   8.596 -0.5791  1.0819 -1.4263
  277MOL0     H38209  11.636   2.622   8.805  0.3453 -0.4173 -0.3423
  277MOL0     H38210  10.679   2.296  10.244  1.0534 -0.7217 -0.3664
  277MOL0     H38211  10.443   2.337  10.277  1.1990  0.1801 -1.4416
  277MOL0     H38212  10.080   2.272  10.450 -1.0358 -1.4886  0.9221
  277MOL0     H38213   9.894   2.410  10.512  0.7163  0.4217  0.0096
  277MOL0     H38214   9.565   2.642  10.322 -1.1711 -0.4535 -0.0602
  277MOL0     H38215   9.650   2.602  10.180 -2.9829  0.5416 -0.7646
  277MOL0     H38216   9.426   2.445  10.329  0.6497 -3.0840  0.0157
  277MOL0     H38217   9.522   2.360  10.214  3.0280  1.0312  0.9269
  277MOL0     H38218   9.436   2.554  10.042 -2.0930 -0.7821 -0.4683
  277MOL0     H38219   9.321   2.449  10.107 -1.7710  1.2512 -0.2386
  277MOL0     H38220   9.390   2.723  10.211  1.9864 -0.9826  0.4563
  277MOL0     H38221   9.271   2.608  10.290  0.3705 -2.1370 -1.2907
  277MOL0     H38222   9.080   2.784   9.941 -0.3168  0.7006 -1.0525
  277MOL0     H38223   9.772   2.436  10.096 -1.1711  0.9292 -0.1435
  277MOL0     H38224   9.960   2.227   9.946  0.5384 -0.3604  0.6870
  277MOL0     H38225   9.913   2.399   9.936 -3.6027  0.5295  3.9534
  277MOL0     H38226  10.084   2.344   9.954 -0.1600  1.1475  1.2885
  278MOL0     O38227  10.023   5.583  10.122  0.4131  0.1556  0.6886
  278MOL0     C38228   9.911   5.623  10.094 -0.2622 -1.1562  0.3338
  278MOL0     O38229   9.886   5.677   9.972  0.0902 -0.2906 -0.7929
  278MOL0     C38230  10.003   5.702   9.893 -0.3716  0.2910 -0.4609
  278MOL0     C38231  10.084   5.813   9.910  0.3742 -0.3121 -1.1801
  278MOL0     C38232  10.193   5.829   9.829  1.0054 -0.0876  0.2411
  278MOL0     C38233  10.224   5.731   9.736  0.6679 -0.8911  1.4670
  278MOL0     O38234  10.319   5.769   9.649  0.3752  0.1237  0.6354
  278MOL0     C38235  10.369   5.688   9.548 -0.2522  0.2754 -0.5527
  278MOL0     C38236  10.472   5.580   9.600  0.0589 -0.4154  1.0643
  278MOL0     C38237  10.573   5.523   9.505 -0.6682  0.0768 -0.6367
  278MOL0     C38238  10.605   5.379   9.553 -0.0610 -0.5320 -0.4560
  278MOL0     C38239  10.711   5.332   9.462 -0.2410 -0.0622  0.0983
  278MOL0     C38240  10.770   5.201   9.485 -0.1186 -0.3533  0.4202
  278MOL0     C38241  10.885   5.175   9.396 -0.5931  0.2857  0.3364
  278MOL0     C38242  10.850   5.136   9.254  0.6252  0.1556  0.3919
  278MOL0     N38243  10.964   5.118   9.163  0.6500 -1.5829 -0.7067
  278MOL0     C38244  11.071   5.196   9.161 -0.2138  0.3236 -0.1450
  278MOL0     C38245  11.154   5.150   9.063  0.6079  0.0997 -0.3868
  278MOL0     C38246  11.292   5.207   9.032  0.4205  0.0850 -0.0505
  278MOL0     C38247  11.395   5.130   9.110  0.7288 -0.5194 -0.5826
  278MOL0     C38248  11.363   5.104   9.260 -1.1578  0.3170  0.8866
  278MOL0     C38249  11.461   5.007   9.327  0.1477 -0.0664  0.5640
  278MOL0     O38250  11.426   4.970   9.456 -0.7021  0.5447 -0.0931
  278MOL0     C38251  11.446   4.838   9.499 -0.0928 -0.1915  0.0486
  278MOL0     C38252  11.348   4.796   9.590 -0.8746  0.0653 -0.0986
  278MOL0     C38253  11.351   4.674   9.655 -0.1103  0.4893  0.2756
  278MOL0     C38254  11.231   4.639   9.745 -0.1459 -0.7653 -0.1464
  278MOL0     C38255  11.467   4.594   9.640 -0.5697 -0.5337 -0.5588
  278MOL0     C38256  11.487   4.468   9.714 -0.0102 -0.7387  0.2718
  278MOL0     O38257  11.606   4.395   9.690 -0.5685  0.0222 -0.3672
  278MOL0     C38258  11.606   4.254   9.709 -0.0888 -0.1886 -0.3483
  278MOL0     C38259  11.724   4.193   9.751 -0.1674  0.8445 -0.5060
  278MOL0     C38260  11.713   4.048   9.747 -0.4962  0.1673  0.0004
  278MOL0     C38261  11.600   3.975   9.726 -0.3564 -1.2391  0.3694
  278MOL0     O38262  11.607   3.839   9.738  0.0660  0.5991  0.1143
  278MOL0     C38263  11.498   3.755   9.700  1.2491 -0.6577  0.3457
  278MOL0     C38264  11.535   3.614   9.703 -0.7891  0.5290  0.0272
  278MOL0     C38265  11.629   3.551   9.604 -0.1784  0.5426 -0.1996
  278MOL0     C38266  11.572   3.568   9.462  0.0502 -1.3735 -0.1753
  278MOL0     C38267  11.633   3.470   9.356  0.2512  0.4186 -1.4096
  278MOL0     C38268  11.786   3.475   9.322 -0.0341  0.3931 -0.0300
  278MOL0     C38269  11.823   3.380   9.211 -0.7491 -0.5590 -0.2994
  278MOL0     C38270  11.853   3.241   9.254  0.2972 -0.1468 -0.5058
  278MOL0    Cl38271  11.878   3.142   9.100  0.2998  0.3793  0.1590
  278MOL0     C38272  11.484   4.050   9.698 -0.5358 -0.0947  1.0648
  278MOL0     C38273  11.485   4.187   9.686  0.0452  0.3969 -0.8427
  278MOL0     O38274  11.400   4.436   9.793 -0.3766  0.4378  0.0331
  278MOL0     C38275  11.574   4.638   9.549 -0.0275  1.2132  0.2384
  278MOL0     C38276  11.560   4.761   9.479 -0.6913  1.2561 -0.3404
  278MOL0     N38277  11.083   5.045   8.997 -0.2331 -0.5896 -0.7933
  278MOL0     N38278  10.971   5.032   9.056  0.5960 -0.1801 -0.2635
  278MOL0     C38279  10.143   5.621   9.719 -0.0729 -0.1101  0.3785
  278MOL0     C38280  10.028   5.614   9.796 -0.8085 -0.1803  0.7389
  278MOL0     C38281   9.792   5.603  10.177  0.8080  0.4567 -0.2301
  278MOL0     C38282   9.817   5.570  10.311 -0.2679  0.5303 -0.4041
  278MOL0     C38283   9.714   5.571  10.406 -0.0870  0.5545 -0.6322
  278MOL0     C38284   9.590   5.624  10.364 -0.4025 -0.0693  0.4918
  278MOL0     O38285   9.484   5.656  10.450 -0.0023 -0.2409 -0.0252
  278MOL0     C38286   9.508   5.649  10.587 -0.5643 -0.4555 -0.5077
  278MOL0     C38287   9.409   5.751  10.653  0.2241 -0.2105  0.1292
  278MOL0     C38288   9.417   5.756  10.808 -0.0006 -0.3116 -0.9664
  278MOL0     C38289   9.549   5.818  10.864  0.1690  0.0737  0.2353
  278MOL0     C38290   9.531   5.802  11.007 -0.1060 -0.7801 -0.7697
  278MOL0     C38291   9.511   5.784  11.128  0.2136  0.5581 -1.2069
  278MOL0     C38292   9.556   5.646  10.228  0.0338  0.4731 -0.3631
  278MOL0     C38293   9.658   5.628  10.133  0.8568 -0.1289  0.4458
  278MOL0     C38294   9.606   5.623   9.993  0.1529 -0.0365 -0.3614
  278MOL0     H38295  10.051   5.877   9.992 -3.8288 -2.7162 -0.6877
  278MOL0     H38296  10.260   5.911   9.853  1.7102 -0.8967  1.1572
  278MOL0     H38297  10.423   5.755   9.481 -1.3784  0.4362 -1.3370
  278MOL0     H38298  10.291   5.644   9.485 -1.4659 -0.2498  1.2377
  278MOL0     H38299  10.515   5.637   9.682 -4.3758  5.6395 -0.1319
  278MOL0     H38300  10.404   5.498   9.627 -1.6164 -0.4227 -2.5092
  278MOL0     H38301  10.554   5.528   9.397  2.9592 -0.7682 -1.4472
  278MOL0     H38302  10.665   5.580   9.511  0.3003 -1.4826  0.1091
  278MOL0     H38303  10.635   5.369   9.658  1.0770 -1.0779 -0.8200
  278MOL0     H38304  10.524   5.307   9.535  2.7296 -4.3982  1.0270
  278MOL0     H38305  10.789   5.408   9.471 -0.2439  0.0003 -0.3413
  278MOL0     H38306  10.663   5.327   9.363  1.0110 -2.0663 -0.4745
  278MOL0     H38307  10.800   5.205   9.590  1.0116  0.0723  0.0996
  278MOL0     H38308  10.697   5.122   9.465  0.7066 -0.7325 -1.3173
  278MOL0     H38309  10.937   5.085   9.428 -1.2408 -0.8889 -1.7079
  278MOL0     H38310  10.958   5.257   9.395  2.0427 -1.9347 -0.1029
  278MOL0     H38311  10.786   5.048   9.251 -1.6188  1.7274 -1.7135
  278MOL0     H38312  10.783   5.213   9.213  1.1913  0.9844  0.9933
  278MOL0     H38313  11.090   5.279   9.228 -0.1287  0.8166 -0.7720
  278MOL0     H38314  11.291   5.312   9.061  0.6437 -0.4716  2.1938
  278MOL0     H38315  11.311   5.189   8.926  0.8923  2.2010 -0.3611
  278MOL0     H38316  11.410   5.033   9.063 -0.2662 -1.5630  1.1776
  278MOL0     H38317  11.489   5.188   9.116 -1.5374  3.3952  1.4275
  278MOL0     H38318  11.366   5.203   9.306  0.5350  0.5795  0.2816
  278MOL0     H38319  11.262   5.063   9.265 -0.4547 -1.5107  0.9662
  278MOL0     H38320  11.458   4.915   9.268  0.7294  0.1987  0.1085
  278MOL0     H38321  11.566   5.036   9.315  0.2006 -0.8549 -1.2709
  278MOL0     H38322  11.270   4.871   9.599 -2.3814 -0.6553 -4.4397
  278MOL0     H38323  11.251   4.645   9.853 -2.4758 -1.6020  0.4060
  278MOL0     H38324  11.183   4.542   9.730 -2.1231 -0.2852  2.2476
  278MOL0     H38325  11.150   4.706   9.716  0.3059 -0.5934 -1.0491
  278MOL0     H38326  11.812   4.250   9.779  0.3790  0.0265 -0.5203
  278MOL0     H38327  11.807   3.995   9.761 -0.1739  1.0330  1.3013
  278MOL0     H38328  11.428   3.769   9.782  2.0599 -4.4764  1.8900
  278MOL0     H38329  11.445   3.794   9.613 -1.0147 -1.6881  1.1923
  278MOL0     H38330  11.574   3.578   9.799  3.0356  0.6865 -1.3008
  278MOL0     H38331  11.436   3.569   9.689  0.2034 -1.3302 -1.6781
  278MOL0     H38332  11.655   3.447   9.625 -1.6927 -0.3852 -2.4937
  278MOL0     H38333  11.724   3.603   9.621 -0.1790 -0.0249  1.8484
  278MOL0     H38334  11.595   3.669   9.427 -2.3271 -0.4889  0.6078
  278MOL0     H38335  11.462   3.567   9.456  0.0473  1.1219 -3.9220
  278MOL0     H38336  11.617   3.368   9.393  2.1479  0.5195 -0.1561
  278MOL0     H38337  11.575   3.496   9.267 -1.0121 -1.1676 -1.1009
  278MOL0     H38338  11.840   3.459   9.415 -1.2439 -1.7924  0.3758
  278MOL0     H38339  11.802   3.580   9.296 -0.3387  0.1109 -1.4668
  278MOL0     H38340  11.923   3.410   9.179  0.9175 -1.0888  3.8439
  278MOL0     H38341  11.752   3.384   9.127  0.0108  1.9693 -0.9244
  278MOL0     H38342  11.768   3.203   9.312  1.2714 -1.6919 -0.0445
  278MOL0     H38343  11.937   3.250   9.323 -0.4661  0.7458  0.3459
  278MOL0     H38344  11.392   4.001   9.669  0.6807 -0.4850 -2.7426
  278MOL0     H38345  11.395   4.234   9.647  0.4746  1.3289 -0.7601
  278MOL0     H38346  11.661   4.576   9.532  0.0686  0.6079  2.5261
  278MOL0     H38347  11.645   4.788   9.417 -1.7907 -0.8355 -2.9520
  278MOL0     H38348  10.163   5.548   9.641 -1.3396  0.0496 -0.1300
  278MOL0     H38349   9.961   5.530   9.780  1.2771 -1.5486 -1.5084
  278MOL0     H38350   9.917   5.556  10.351  0.2751  5.5374  0.6571
  278MOL0     H38351   9.745   5.552  10.508  1.5362  0.4629 -1.1112
  278MOL0     H38352   9.493   5.551  10.633  0.4284 -0.5920 -0.4504
  278MOL0     H38353   9.605   5.690  10.616 -1.2216  0.1384  0.9279
  278MOL0     H38354   9.306   5.721  10.631  0.0565  0.9074 -0.7072
  278MOL0     H38355   9.432   5.847  10.606  0.8989 -2.6053 -5.1156
  278MOL0     H38356   9.340   5.827  10.840 -0.5008 -1.0560 -0.4759
  278MOL0     H38357   9.389   5.655  10.841 -2.7191  1.6129  3.3969
  278MOL0     H38358   9.543   5.926  10.847 -2.5080 -0.4765 -4.0918
  278MOL0     H38359   9.642   5.774  10.827  0.3481  0.9602 -0.3970
  278MOL0     H38360   9.504   5.770  11.234  0.0430 -0.5271 -1.3516
  278MOL0     H38361   9.453   5.670  10.203 -0.6598 -0.2773  1.5747
  278MOL0     H38362   9.662   5.544   9.941 -0.3297 -1.4949  1.2432
  278MOL0     H38363   9.499   5.605   9.987 -0.2848  2.5256 -1.5432
  278MOL0     H38364   9.626   5.722   9.951 -2.0855  0.3771 -0.5583
  279MOL0     O38365   7.777   2.166   1.977  0.1043  0.0701 -0.5045
  279MOL0     C38366   7.831   2.058   1.979  0.0862  0.5003 -0.4535
  279MOL0     O38367   7.953   2.029   2.038 -0.4522  0.4712  0.1798
  279MOL0     C38368   8.041   2.132   2.060 -0.0970  0.1935 -0.4998
  279MOL0     C38369   8.071   2.228   1.963 -0.4018  0.2237  0.5349
  279MOL0     C38370   8.165   2.344   1.991  0.8213  1.4422  0.7051
  279MOL0     C38371   8.218   2.352   2.125  0.1977 -0.1495  0.9378
  279MOL0     O38372   8.306   2.456   2.163  0.6174 -0.4972  0.1649
  279MOL0     C38373   8.281   2.527   2.289 -0.3027 -0.3291 -0.7286
  279MOL0     C38374   8.363   2.655   2.290  1.0671 -0.6655  0.0215
  279MOL0     C38375   8.289   2.780   2.245 -0.4291 -0.6730 -0.0791
  279MOL0     C38376   8.290   2.904   2.344  0.0807 -0.2671 -0.0600
  279MOL0     C38377   8.438   2.955   2.355 -0.0623 -0.0953  0.0342
  279MOL0     C38378   8.446   3.097   2.409 -0.7447  0.0076  0.7050
  279MOL0     C38379   8.355   3.140   2.519  0.2347 -0.5237 -0.2319
  279MOL0     C38380   8.386   3.067   2.652 -0.5770 -0.2459  0.1617
  279MOL0     N38381   8.529   3.081   2.688  0.3220 -0.2673 -0.2898
  279MOL0     C38382   8.616   2.980   2.699  0.7160 -0.8169 -0.9073
  279MOL0     C38383   8.729   3.036   2.738  0.6236  0.6162 -0.0018
  279MOL0     C38384   8.842   2.964   2.792  0.2929 -0.2612  0.7600
  279MOL0     C38385   8.945   2.917   2.690  0.1350  0.9992  0.0352
  279MOL0     C38386   9.020   2.796   2.747 -1.1689  1.1857  0.4480
  279MOL0     C38387   8.940   2.662   2.745 -0.5146  0.1803  0.2985
  279MOL0     O38388   8.837   2.651   2.841  0.8752  0.0628 -0.1614
  279MOL0     C38389   8.710   2.627   2.793  0.6527 -0.1299  0.4274
  279MOL0     C38390   8.607   2.652   2.881  0.7164  0.4301  0.6950
  279MOL0     C38391   8.480   2.663   2.852  0.3086  0.7969  0.7040
  279MOL0     C38392   8.389   2.718   2.955  0.6091  0.0288  0.2041
  279MOL0     C38393   8.437   2.623   2.720  0.7069 -0.3961 -0.5732
  279MOL0     C38394   8.296   2.625   2.679 -0.5453  0.1236  0.2984
  279MOL0     O38395   8.252   2.496   2.654  0.4060 -0.0840  0.2320
  279MOL0     C38396   8.112   2.473   2.665  0.0084  0.2482  0.8388
  279MOL0     C38397   8.045   2.428   2.552 -0.3487  0.3593 -0.1750
  279MOL0     C38398   7.912   2.401   2.544  0.5415 -0.2125 -0.7197
  279MOL0     C38399   7.837   2.423   2.663 -0.0315  0.0350  0.4208
  279MOL0     O38400   7.701   2.393   2.669  0.3727  0.1890 -0.3613
  279MOL0     C38401   7.614   2.421   2.561 -0.8535  0.5813 -0.0295
  279MOL0     C38402   7.513   2.305   2.537 -0.2186 -1.0753 -0.3168
  279MOL0     C38403   7.572   2.200   2.443 -0.3373 -0.4991  0.1204
  279MOL0     C38404   7.481   2.084   2.417 -0.1114 -0.1760 -0.5022
  279MOL0     C38405   7.542   1.981   2.321 -0.7593  0.2211 -0.3978
  279MOL0     C38406   7.427   1.906   2.249  0.3186 -0.1620  0.3490
  279MOL0     C38407   7.468   1.795   2.146 -0.4213 -0.5567 -0.3888
  279MOL0     C38408   7.596   1.733   2.172  0.3828 -0.2728 -0.0434
  279MOL0    Cl38409   7.614   1.640   2.328  0.0703 -0.1708 -0.0413
  279MOL0     C38410   7.907   2.483   2.777  0.7039 -0.6466  0.1302
  279MOL0     C38411   8.043   2.506   2.771 -0.5162  0.4724  0.0404
  279MOL0     O38412   8.235   2.729   2.689  0.1639 -0.5263 -0.1745
  279MOL0     C38413   8.531   2.585   2.627  0.4646  0.2454 -0.6836
  279MOL0     C38414   8.666   2.588   2.659  0.6840  0.0567  0.0182
  279MOL0     N38415   8.712   3.173   2.759 -0.3145 -0.2448  0.7393
  279MOL0     N38416   8.585   3.191   2.739 -0.4289  0.3214  0.1300
  279MOL0     C38417   8.180   2.254   2.218  1.3342  0.3112 -0.2754
  279MOL0     C38418   8.097   2.148   2.189  0.6901  0.4948  1.0395
  279MOL0     C38419   7.763   1.942   1.911 -0.8344  0.5212 -0.8467
  279MOL0     C38420   7.829   1.815   1.924  0.4555  1.3206  0.1516
  279MOL0     C38421   7.755   1.704   1.874 -0.1063  0.6890 -0.5533
  279MOL0     C38422   7.638   1.706   1.808  1.2469 -0.3786  0.6006
  279MOL0     O38423   7.592   1.583   1.756 -0.0411  0.0002 -0.1257
  279MOL0     C38424   7.472   1.573   1.686  0.5348  0.2185  0.5954
  279MOL0     C38425   7.352   1.573   1.784 -0.1179 -0.4430  0.0267
  279MOL0     C38426   7.224   1.577   1.709  0.1569  0.4318  0.3255
  279MOL0     C38427   7.102   1.516   1.791 -0.3829 -0.2640 -0.4069
  279MOL0     C38428   7.107   1.372   1.791 -0.3568 -0.1299 -0.2474
  279MOL0     C38429   7.125   1.249   1.775  0.1024  0.1884 -0.0328
  279MOL0     C38430   7.576   1.830   1.799  0.3451  0.4179  0.3336
  279MOL0     C38431   7.630   1.946   1.847  0.2089 -0.3314  0.2658
  279MOL0     C38432   7.540   2.059   1.824 -0.3885  0.0115 -0.1845
  279MOL0     H38433   8.046   2.203   1.860  3.5210  0.4214 -0.6442
  279MOL0     H38434   8.205   2.408   1.913  0.5338  3.2438  1.9740
  279MOL0     H38435   8.340   2.479   2.368  0.1351  2.5451  0.8198
  279MOL0     H38436   8.176   2.543   2.313 -0.4476 -2.4086  0.2473
  279MOL0     H38437   8.402   2.670   2.391 -1.1469 -1.0637  1.0064
  279MOL0     H38438   8.450   2.642   2.226  2.6668 -0.7776  2.1126
  279MOL0     H38439   8.327   2.815   2.149 -1.5704 -0.5700 -0.5114
  279MOL0     H38440   8.183   2.758   2.228 -0.1084 -0.5688 -2.5922
  279MOL0     H38441   8.223   2.978   2.300 -0.1521  0.4748  1.4805
  279MOL0     H38442   8.251   2.879   2.443 -2.8717 -1.6895 -1.4504
  279MOL0     H38443   8.495   2.948   2.263  1.1843  1.4828  0.6401
  279MOL0     H38444   8.487   2.887   2.426  0.7454 -0.8429 -1.2125
  279MOL0     H38445   8.551   3.125   2.421 -0.9788  1.6923 -0.6906
  279MOL0     H38446   8.409   3.160   2.327 -0.9080 -1.6857 -0.5925
  279MOL0     H38447   8.247   3.136   2.499 -0.1348  3.1835  0.2132
  279MOL0     H38448   8.378   3.245   2.540  0.2076 -0.7729  1.1286
  279MOL0     H38449   8.337   3.113   2.738  1.7214  0.9203  0.9268
  279MOL0     H38450   8.360   2.962   2.638  1.2216 -0.5466 -1.3120
  279MOL0     H38451   8.583   2.877   2.689  1.0011 -0.7706 -2.5721
  279MOL0     H38452   8.802   2.887   2.860  1.4752 -0.3869  1.3312
  279MOL0     H38453   8.888   3.045   2.849 -0.8810  0.0720  1.2749
  279MOL0     H38454   8.885   2.883   2.605 -1.9202  2.9366  0.6258
  279MOL0     H38455   9.020   2.988   2.653  2.1282 -2.0691 -2.2971
  279MOL0     H38456   9.109   2.768   2.691 -1.8408  0.3975 -0.2523
  279MOL0     H38457   9.056   2.806   2.850 -1.4456 -3.6458  1.2560
  279MOL0     H38458   8.894   2.650   2.646  0.0858  2.4452 -0.3019
  279MOL0     H38459   9.014   2.584   2.766  2.1546  2.4244 -0.2655
  279MOL0     H38460   8.649   2.671   2.979  0.0836 -0.8767  1.2493
  279MOL0     H38461   8.349   2.814   2.921  1.6293  0.6385  0.6891
  279MOL0     H38462   8.439   2.739   3.050 -2.8977 -1.9297  2.7277
  279MOL0     H38463   8.303   2.657   2.981  0.4543  0.6946  1.3290
  279MOL0     H38464   8.103   2.412   2.461  0.7266  1.3969  0.3041
  279MOL0     H38465   7.878   2.366   2.447 -0.8869 -0.0741 -0.2864
  279MOL0     H38466   7.561   2.515   2.577 -0.3525  0.6849  1.1582
  279MOL0     H38467   7.676   2.435   2.471 -1.8185  0.0003 -0.8061
  279MOL0     H38468   7.486   2.257   2.632 -0.7296 -0.1821  0.0012
  279MOL0     H38469   7.427   2.354   2.492 -0.2261  1.3117  2.0673
  279MOL0     H38470   7.658   2.163   2.498 -1.6961 -0.2123  2.5641
  279MOL0     H38471   7.603   2.248   2.350  2.8607 -2.2023  0.1832
  279MOL0     H38472   7.382   2.121   2.389  0.2905  1.5874  0.2704
  279MOL0     H38473   7.469   2.017   2.504 -1.3362  0.4177 -0.1868
  279MOL0     H38474   7.598   2.031   2.242 -1.0030  0.6946 -0.2782
  279MOL0     H38475   7.598   1.912   2.385 -0.4215  1.0950  0.2626
  279MOL0     H38476   7.359   1.975   2.198  0.1162 -0.4803  0.1869
  279MOL0     H38477   7.380   1.858   2.335  3.2359 -0.5651  1.8586
  279MOL0     H38478   7.477   1.842   2.048 -0.0176 -0.9428 -0.5427
  279MOL0     H38479   7.381   1.729   2.140  0.1463 -1.3974  0.4203
  279MOL0     H38480   7.678   1.805   2.178 -0.0224  0.1002  1.5783
  279MOL0     H38481   7.612   1.656   2.096 -0.7842 -0.5079 -0.0689
  279MOL0     H38482   7.854   2.515   2.866  1.0022  1.2251 -0.3374
  279MOL0     H38483   8.096   2.545   2.857 -3.9658  0.8392  2.1671
  279MOL0     H38484   8.496   2.552   2.530 -0.3016  0.3616 -0.4576
  279MOL0     H38485   8.737   2.561   2.582  2.3856 -1.0539  1.8750
  279MOL0     H38486   8.236   2.241   2.310  2.0625 -3.5387 -1.0754
  279MOL0     H38487   8.068   2.074   2.263 -0.9521  1.7310  1.6981
  279MOL0     H38488   7.923   1.803   1.977 -0.4299 -1.9275  1.1964
  279MOL0     H38489   7.809   1.612   1.895 -0.7233  0.6311  0.8761
  279MOL0     H38490   7.467   1.666   1.628 -0.5517 -0.3804 -0.3154
  279MOL0     H38491   7.483   1.490   1.616  3.8920  2.8954 -2.4079
  279MOL0     H38492   7.365   1.653   1.858  0.2842 -0.6494  0.1785
  279MOL0     H38493   7.357   1.481   1.842  0.6124  0.3056  1.1795
  279MOL0     H38494   7.200   1.682   1.689  4.3794  1.1668 -1.8806
  279MOL0     H38495   7.235   1.525   1.613  1.9576  1.3904 -0.0293
  279MOL0     H38496   7.007   1.548   1.746 -0.7859  0.5401  0.9575
  279MOL0     H38497   7.090   1.550   1.894 -1.6236  0.5280 -0.7852
  279MOL0     H38498   7.135   1.143   1.762  0.7845  0.1402  0.7931
  279MOL0     H38499   7.484   1.829   1.741 -0.1302  1.6164  1.0286
  279MOL0     H38500   7.542   2.134   1.904 -0.3016  0.6810 -0.8055
  279MOL0     H38501   7.578   2.116   1.739  0.9153 -1.0253 -0.3280
  279MOL0     H38502   7.436   2.029   1.807 -0.5581 -0.3955  1.4243
  280MOL0     O38503   4.946   4.277  10.329 -0.0042 -0.0025 -0.2484
  280MOL0     C38504   4.972   4.173  10.276 -0.3656 -0.0008 -0.1209
  280MOL0     O38505   4.888   4.067  10.279 -0.5197  0.3600  0.0832
  280MOL0     C38506   4.755   4.071  10.321 -0.4508 -0.3472 -0.4686
  280MOL0     C38507   4.665   4.173  10.286 -0.1804  0.0472  0.6172
  280MOL0     C38508   4.531   4.162  10.329 -0.1585  0.2588  0.7439
  280MOL0     C38509   4.482   4.049  10.394 -0.1748  0.5913  0.2502
  280MOL0     O38510   4.348   4.046  10.430  0.4817 -0.0051 -0.9393
  280MOL0     C38511   4.283   3.919  10.448 -0.2508 -0.5122 -0.0392
  280MOL0     C38512   4.131   3.940  10.438  0.2953 -0.5159 -0.4628
  280MOL0     C38513   4.062   3.806  10.451 -0.1888 -0.0372  0.9191
  280MOL0     C38514   3.921   3.820  10.400 -0.5071 -0.0644 -0.7068
  280MOL0     C38515   3.839   3.703  10.463  0.3178 -0.4365 -0.0470
  280MOL0     C38516   3.691   3.724  10.413 -0.0649  0.3629  0.5460
  280MOL0     C38517   3.605   3.595  10.451 -0.0900  0.5957  0.7788
  280MOL0     C38518   3.458   3.594  10.413  0.1199 -0.6439 -0.3128
  280MOL0     N38519   3.387   3.719  10.424 -0.1532 -0.6709  0.4086
  280MOL0     C38520   3.338   3.786  10.534 -0.9119  1.3475  1.1824
  280MOL0     C38521   3.285   3.894  10.485  0.0348  0.3108  0.6924
  280MOL0     C38522   3.240   4.018  10.554  0.0031 -0.0402  1.1766
  280MOL0     C38523   3.352   4.121  10.584 -0.1132  0.1217  0.4874
  280MOL0     C38524   3.428   4.087  10.715 -1.2178 -0.1359  0.1332
  280MOL0     C38525   3.558   4.167  10.730  0.2695 -0.1232 -0.0555
  280MOL0     O38526   3.673   4.141  10.650  0.1786  0.2427  0.3656
  280MOL0     C38527   3.774   4.085  10.724 -0.4897  0.2100 -0.4591
  280MOL0     C38528   3.764   3.958  10.773 -0.8045 -0.3775  0.5604
  280MOL0     C38529   3.865   3.905  10.852  0.5469  0.7586 -0.1817
  280MOL0     C38530   3.850   3.760  10.909 -0.0345  0.3516 -0.4890
  280MOL0     C38531   3.987   3.979  10.867  0.1280  0.3294  0.9040
  280MOL0     C38532   4.099   3.933  10.947  0.6807 -1.1742  0.0786
  280MOL0     O38533   4.221   3.927  10.884 -0.0685  0.1616  0.3540
  280MOL0     C38534   4.336   3.892  10.961 -0.2761  0.5556  0.1009
  280MOL0     C38535   4.338   3.790  11.062  0.5969 -0.0363 -0.2148
  280MOL0     C38536   4.456   3.756  11.133  0.1940  0.1276 -0.7967
  280MOL0     C38537   4.573   3.828  11.092 -0.5635  0.6500 -0.7174
  280MOL0     O38538   4.691   3.789  11.146  0.3508 -0.5186  0.2612
  280MOL0     C38539   4.720   3.863  11.266 -0.1383 -0.1504  1.2022
  280MOL0     C38540   4.758   4.009  11.227 -0.7071 -0.4788  0.2534
  280MOL0     C38541   4.834   4.099  11.327 -0.3320 -0.6302  0.1246
  280MOL0     C38542   4.874   4.236  11.263 -0.2674 -0.1331  0.2917
  280MOL0     C38543   4.987   4.313  11.337 -0.2151  0.3219  0.0671
  280MOL0     C38544   5.039   4.431  11.264 -0.1361 -0.4297  0.3924
  280MOL0     C38545   5.113   4.396  11.130  0.0324  0.5798  0.7347
  280MOL0     C38546   5.214   4.287  11.151  0.0538 -0.8286  0.6884
  280MOL0    Cl38547   5.306   4.269  10.991  0.4451  0.2193 -0.0682
  280MOL0     C38548   4.572   3.921  10.992 -0.0850  0.2686 -0.7984
  280MOL0     C38549   4.455   3.953  10.923  0.4401  0.1904  0.8530
  280MOL0     O38550   4.075   3.905  11.065 -0.3494 -0.2367  0.8537
  280MOL0     C38551   4.001   4.106  10.813  0.3892 -0.1005 -0.8621
  280MOL0     C38552   3.892   4.151  10.738  0.3412  0.2773 -0.4669
  280MOL0     N38553   3.271   3.882  10.358 -0.3021  0.0572 -0.4557
  280MOL0     N38554   3.342   3.784  10.313  0.8178 -0.1359 -0.7776
  280MOL0     C38555   4.571   3.942  10.417 -0.7258 -0.0413  0.2399
  280MOL0     C38556   4.708   3.954  10.383 -0.6155  0.0442  0.1592
  280MOL0     C38557   5.103   4.158  10.209 -0.1143  0.3133 -0.0754
  280MOL0     C38558   5.206   4.242  10.233 -0.5826  0.2467  0.1683
  280MOL0     C38559   5.328   4.242  10.166 -0.0100 -0.0769 -0.2275
  280MOL0     C38560   5.356   4.143  10.077  0.1583 -0.7672  0.3720
  280MOL0     O38561   5.477   4.140  10.004  0.6166  0.0381 -0.3805
  280MOL0     C38562   5.584   4.222  10.045  0.3527 -0.0663  0.3572
  280MOL0     C38563   5.715   4.183   9.969  0.3409  0.5436  0.4359
  280MOL0     C38564   5.715   4.251   9.832 -0.2570 -0.7421 -0.0950
  280MOL0     C38565   5.845   4.235   9.765 -0.5017  0.2080 -0.4292
  280MOL0     C38566   5.827   4.307   9.640 -0.1762 -0.3504 -0.4964
  280MOL0     C38567   5.815   4.354   9.530  0.0137  0.9732  0.5778
  280MOL0     C38568   5.255   4.047  10.050 -0.9253 -0.1254  0.0707
  280MOL0     C38569   5.128   4.051  10.119  0.3760 -0.6658  0.7330
  280MOL0     C38570   5.045   3.934  10.091  0.2072  0.6501 -0.3815
  280MOL0     H38571   4.701   4.263  10.238 -0.6252  0.3702  0.8741
  280MOL0     H38572   4.467   4.247  10.305 -1.4502 -0.3684  1.8577
  280MOL0     H38573   4.305   3.880  10.548 -2.6242  0.4814  0.9664
  280MOL0     H38574   4.317   3.848  10.372 -0.1293  0.2586 -0.7206
  280MOL0     H38575   4.084   3.995  10.520 -0.2020 -0.9969 -0.4231
  280MOL0     H38576   4.098   3.985  10.344 -0.8015 -1.5215 -0.5809
  280MOL0     H38577   4.103   3.722  10.394 -0.5135 -0.6577  1.5782
  280MOL0     H38578   4.064   3.781  10.558  1.2666  2.8623  1.6782
  280MOL0     H38579   3.882   3.917  10.431  1.0127  1.1668 -2.4545
  280MOL0     H38580   3.926   3.813  10.291  1.1672 -3.0516 -0.5666
  280MOL0     H38581   3.848   3.700  10.572  2.7161 -1.7726 -0.2070
  280MOL0     H38582   3.878   3.605  10.433  0.0061 -0.1238 -1.5275
  280MOL0     H38583   3.648   3.815  10.456  0.9601  1.3337 -0.4481
  280MOL0     H38584   3.693   3.736  10.305 -0.7376  1.5200  0.6471
  280MOL0     H38585   3.605   3.578  10.559 -1.3980 -0.7118  0.6072
  280MOL0     H38586   3.639   3.512  10.388  1.1279  0.8822  1.0369
  280MOL0     H38587   3.457   3.578  10.305  1.3433  0.9869 -0.6084
  280MOL0     H38588   3.411   3.513  10.470  0.6598 -0.0865  0.9881
  280MOL0     H38589   3.349   3.759  10.638 -2.0576 -1.2833  0.6979
  280MOL0     H38590   3.183   3.992  10.643 -0.1083 -0.1393  1.0771
  280MOL0     H38591   3.164   4.054  10.484 -1.1229 -2.4671  1.0654
  280MOL0     H38592   3.403   4.120  10.487 -2.9815 -2.2155 -1.1609
  280MOL0     H38593   3.300   4.216  10.597 -0.3950  0.2400 -1.2335
  280MOL0     H38594   3.368   4.097  10.806  0.3966 -1.7479  1.4491
  280MOL0     H38595   3.455   3.981  10.706  0.9903  0.5495 -3.2407
  280MOL0     H38596   3.522   4.266  10.700 -0.3912 -0.4385 -0.3235
  280MOL0     H38597   3.592   4.177  10.834 -0.4669 -0.1264  0.1890
  280MOL0     H38598   3.675   3.896  10.768  0.1494 -1.9284  1.5147
  280MOL0     H38599   3.914   3.687  10.859 -0.5349 -1.1745  1.0045
  280MOL0     H38600   3.747   3.723  10.899  0.4339 -1.8766  1.8821
  280MOL0     H38601   3.888   3.757  11.011 -0.2230  1.5779 -0.3667
  280MOL0     H38602   4.245   3.741  11.087 -0.2910  0.0469 -3.1100
  280MOL0     H38603   4.447   3.674  11.203 -0.4664  0.1917 -0.8011
  280MOL0     H38604   4.634   3.864  11.333 -0.1366  0.8519  1.1933
  280MOL0     H38605   4.806   3.819  11.317 -0.2142 -0.5760  0.9709
  280MOL0     H38606   4.822   4.001  11.139  1.0028 -2.6069  1.5945
  280MOL0     H38607   4.667   4.065  11.202 -1.0673 -1.1830 -0.0780
  280MOL0     H38608   4.926   4.051  11.362  0.2683 -1.0955 -1.9521
  280MOL0     H38609   4.768   4.112  11.414 -0.1925 -0.1666  0.1608
  280MOL0     H38610   4.787   4.301  11.268  0.3640  0.6891  0.7291
  280MOL0     H38611   4.900   4.224  11.157  1.3405 -2.9369  0.8991
  280MOL0     H38612   4.936   4.360  11.421  1.5403  2.3924  0.0430
  280MOL0     H38613   5.064   4.246  11.378  1.9764  0.9519 -2.6937
  280MOL0     H38614   5.104   4.479  11.337  0.1112  1.8187 -1.1763
  280MOL0     H38615   4.971   4.512  11.235 -1.3502 -1.7014 -0.4637
  280MOL0     H38616   5.151   4.493  11.096 -0.0509  0.1629 -0.5687
  280MOL0     H38617   5.048   4.352  11.054  3.0494 -1.4886 -0.8569
  280MOL0     H38618   5.164   4.193  11.174 -4.7143  0.7998 -1.5801
  280MOL0     H38619   5.279   4.315  11.234 -0.2850 -0.1588  0.7352
  280MOL0     H38620   4.655   3.980  10.952 -0.1022 -0.0497 -1.3168
  280MOL0     H38621   4.450   4.033  10.849 -0.9448  1.0001  1.7858
  280MOL0     H38622   4.094   4.162  10.821  0.5694 -0.4379 -0.5078
  280MOL0     H38623   3.896   4.251  10.697 -0.2106  0.3861 -0.2593
  280MOL0     H38624   4.526   3.858  10.469 -1.2699 -0.7019 -1.2510
  280MOL0     H38625   4.771   3.865  10.388  2.3860  1.7892 -2.6707
  280MOL0     H38626   5.185   4.325  10.300 -3.1073 -1.0773  1.1653
  280MOL0     H38627   5.399   4.318  10.197 -1.6676  1.3618  0.2561
  280MOL0     H38628   5.569   4.328  10.019  0.8437  0.3774  1.7827
  280MOL0     H38629   5.602   4.219  10.153 -0.5878 -1.2708  0.4985
  280MOL0     H38630   5.741   4.078   9.950  0.3012  1.0062 -2.7873
  280MOL0     H38631   5.798   4.223  10.028  2.4637 -3.0866  0.2171
  280MOL0     H38632   5.643   4.197   9.769 -1.0072  0.3273 -0.1897
  280MOL0     H38633   5.685   4.356   9.838  2.5038  0.3235 -2.4545
  280MOL0     H38634   5.875   4.131   9.752 -0.0738 -0.0708  2.2605
  280MOL0     H38635   5.921   4.278   9.831  0.0056 -0.7651 -0.3678
  280MOL0     H38636   5.809   4.401   9.434 -0.8623  0.1179  0.1961
  280MOL0     H38637   5.289   3.968   9.984 -1.1370  1.1525 -1.6593
  280MOL0     H38638   5.010   3.884  10.182  0.2613  0.4765 -0.4562
  280MOL0     H38639   4.958   3.946  10.026 -2.7572 -0.9357  2.9301
  280MOL0     H38640   5.102   3.861  10.034 -0.5477 -0.8631  0.7033
  281MOL0     O38641   3.394   9.092   3.681  0.3771  0.0470 -0.3122
  281MOL0     C38642   3.295   9.075   3.615 -0.1007 -0.8143 -0.1122
  281MOL0     O38643   3.281   8.988   3.511  0.7532  0.0366 -0.4789
  281MOL0     C38644   3.403   8.965   3.451  1.1940 -0.5565  0.0480
  281MOL0     C38645   3.444   8.836   3.474  0.7944 -0.7727  0.6346
  281MOL0     C38646   3.581   8.796   3.435 -0.0845  0.2443 -0.3953
  281MOL0     C38647   3.668   8.886   3.374 -0.4703 -0.1631  0.7748
  281MOL0     O38648   3.791   8.857   3.329  0.4531 -0.4776  0.2524
  281MOL0     C38649   3.871   8.765   3.388  0.1516 -0.1970 -0.5689
  281MOL0     C38650   3.914   8.793   3.535  0.2200  0.5255  0.0836
  281MOL0     C38651   3.953   8.938   3.560  0.4792 -0.7034  0.0542
  281MOL0     C38652   3.978   8.970   3.710 -0.3453  0.6924 -0.6366
  281MOL0     C38653   3.855   8.954   3.803 -0.2796  0.0721 -1.0484
  281MOL0     C38654   3.743   9.057   3.772 -0.2341  0.6573  0.0057
  281MOL0     C38655   3.801   9.197   3.798 -0.3616  0.6223  0.1133
  281MOL0     C38656   3.687   9.286   3.832 -0.0242  0.2813 -0.3200
  281MOL0     N38657   3.697   9.348   3.967 -0.1190 -0.2062 -0.5938
  281MOL0     C38658   3.618   9.317   4.077 -0.8372  0.0394 -1.1429
  281MOL0     C38659   3.655   9.407   4.172  0.3450 -0.6276  0.1579
  281MOL0     C38660   3.618   9.414   4.317 -1.3585 -0.0709 -0.3839
  281MOL0     C38661   3.470   9.361   4.338  0.6678 -0.4039 -0.6551
  281MOL0     C38662   3.436   9.356   4.489 -1.2053  0.3573  0.1988
  281MOL0     C38663   3.285   9.334   4.507  0.0897 -0.0609 -0.9517
  281MOL0     O38664   3.228   9.455   4.486 -0.2627 -0.1149  0.0592
  281MOL0     C38665   3.106   9.476   4.543  0.9244 -0.2442 -0.5567
  281MOL0     C38666   3.004   9.386   4.572  0.6336  0.7695 -0.2397
  281MOL0     C38667   2.890   9.428   4.645  0.9540 -0.4873  0.6903
  281MOL0     C38668   2.790   9.317   4.673  0.2219 -0.4075 -0.1315
  281MOL0     C38669   2.868   9.565   4.686 -0.3183  1.3046 -0.0276
  281MOL0     C38670   2.753   9.620   4.758  0.6107  0.5147  0.1381
  281MOL0     O38671   2.695   9.727   4.701  0.1219  0.3675 -0.2342
  281MOL0     C38672   2.579   9.785   4.742  0.8190 -0.4355 -0.6010
  281MOL0     C38673   2.515   9.771   4.874 -0.4257 -0.0692 -0.2773
  281MOL0     C38674   2.392   9.827   4.902 -0.4245 -0.7938  0.2756
  281MOL0     C38675   2.336   9.910   4.804  0.9226 -1.2841 -0.4584
  281MOL0     O38676   2.213   9.967   4.836  0.7351  0.1441 -0.4362
  281MOL0     C38677   2.183  10.021   4.965  0.4297 -1.0147  0.0788
  281MOL0     C38678   2.260  10.158   4.990  0.3755 -0.3253 -0.2241
  281MOL0     C38679   2.242  10.272   4.879 -0.0474  0.4710 -0.3127
  281MOL0     C38680   2.298  10.412   4.920 -0.6048  1.0156  0.3093
  281MOL0     C38681   2.231  10.516   4.837  0.9743 -0.2457 -0.0979
  281MOL0     C38682   2.233  10.488   4.685 -0.4512  0.8310 -0.4309
  281MOL0     C38683   2.220  10.612   4.599 -0.3241  0.5416 -0.3453
  281MOL0     C38684   2.096  10.691   4.597 -0.2714  0.2756  0.0357
  281MOL0    Cl38685   1.980  10.628   4.481 -0.0745 -0.1483 -0.0948
  281MOL0     C38686   2.394   9.928   4.679 -1.1882 -0.7406  0.5674
  281MOL0     C38687   2.514   9.863   4.646  0.7001 -0.3440  0.6529
  281MOL0     O38688   2.708   9.548   4.851 -0.0096 -0.3338  0.1859
  281MOL0     C38689   2.967   9.658   4.643  0.9639  0.8136 -0.0226
  281MOL0     C38690   3.081   9.609   4.576  0.9332  0.5464 -1.2763
  281MOL0     N38691   3.754   9.486   4.116  0.0066 -1.0999 -0.0193
  281MOL0     N38692   3.785   9.444   4.007  0.5341  0.7347 -0.3523
  281MOL0     C38693   3.617   9.018   3.349  0.0051 -0.2025  0.0642
  281MOL0     C38694   3.488   9.059   3.389 -0.7780  0.2648  0.2492
  281MOL0     C38695   3.168   9.137   3.661 -0.0461 -0.2353 -0.3796
  281MOL0     C38696   3.049   9.078   3.621 -0.4118 -0.0871  0.0792
  281MOL0     C38697   2.930   9.139   3.645 -0.5757  0.7080  0.5075
  281MOL0     C38698   2.911   9.260   3.707  0.1959  0.0207 -0.4268
  281MOL0     O38699   2.790   9.332   3.724  0.4620 -0.4568 -0.4481
  281MOL0     C38700   2.668   9.274   3.678  0.7383  0.3059  0.7802
  281MOL0     C38701   2.560   9.378   3.697  0.4711 -0.2752 -0.1785
  281MOL0     C38702   2.516   9.399   3.840 -0.3579  0.9598  0.6971
  281MOL0     C38703   2.442   9.534   3.856 -0.0257 -0.3527  0.6300
  281MOL0     C38704   2.308   9.534   3.803  0.5710 -0.2315  0.5727
  281MOL0     C38705   2.191   9.541   3.762 -0.3104  0.6102 -0.5352
  281MOL0     C38706   3.036   9.314   3.757  0.1697 -0.0727  0.1402
  281MOL0     C38707   3.162   9.262   3.726  0.9594 -0.2817  0.0080
  281MOL0     C38708   3.277   9.346   3.770 -0.1884 -0.2582 -0.3461
  281MOL0     H38709   3.376   8.775   3.532 -0.3264 -0.4606 -0.3240
  281MOL0     H38710   3.615   8.694   3.449 -1.6247 -0.0351  1.9148
  281MOL0     H38711   3.961   8.778   3.327  0.7900 -0.9548  0.1827
  281MOL0     H38712   3.829   8.665   3.370 -0.4659  0.2190 -1.5335
  281MOL0     H38713   3.825   8.769   3.595  0.0023  2.1196  0.4280
  281MOL0     H38714   3.996   8.730   3.571  1.6121  0.1042 -3.4474
  281MOL0     H38715   4.049   8.947   3.507 -0.3608 -1.0766 -1.5932
  281MOL0     H38716   3.884   9.013   3.520  0.7991 -0.5241 -0.1683
  281MOL0     H38717   4.054   8.906   3.757 -0.4741  0.5574 -0.6097
  281MOL0     H38718   4.015   9.073   3.710 -2.5778  1.5603  0.4064
  281MOL0     H38719   3.883   8.982   3.905  0.2984  1.5754 -1.5962
  281MOL0     H38720   3.811   8.854   3.801  2.7226 -1.6098  2.7115
  281MOL0     H38721   3.710   9.050   3.668  0.3479 -1.9512 -0.0693
  281MOL0     H38722   3.659   9.037   3.838  0.6931  2.6928  1.9148
  281MOL0     H38723   3.851   9.247   3.714 -0.5635  0.0228 -0.3724
  281MOL0     H38724   3.871   9.193   3.881  1.0159 -0.4884 -1.0542
  281MOL0     H38725   3.685   9.375   3.768 -2.2426  2.4526  2.5213
  281MOL0     H38726   3.594   9.231   3.816 -1.5460  3.1275 -2.3352
  281MOL0     H38727   3.551   9.232   4.087 -0.1812 -0.5335 -1.5065
  281MOL0     H38728   3.613   9.519   4.349  1.6569 -0.6158  2.4648
  281MOL0     H38729   3.697   9.357   4.367 -0.5544  0.5877 -0.8704
  281MOL0     H38730   3.395   9.419   4.284  0.7205  1.6295  1.2859
  281MOL0     H38731   3.469   9.264   4.288 -2.1024  0.2883 -2.1896
  281MOL0     H38732   3.485   9.263   4.520 -3.2973 -0.5613  0.9887
  281MOL0     H38733   3.481   9.437   4.547 -1.7491  0.1375  0.9540
  281MOL0     H38734   3.254   9.269   4.424  2.0225 -0.3099 -1.5133
  281MOL0     H38735   3.265   9.294   4.607  1.5657  1.4977  0.0235
  281MOL0     H38736   3.005   9.282   4.542 -3.2737  0.8504 -1.1588
  281MOL0     H38737   2.798   9.220   4.622  0.6945 -1.8296  2.4392
  281MOL0     H38738   2.695   9.361   4.642  0.5303 -1.3535 -2.6778
  281MOL0     H38739   2.784   9.306   4.782  0.1431  1.7223  0.1149
  281MOL0     H38740   2.567   9.716   4.952 -0.6402  2.1726  1.5737
  281MOL0     H38741   2.341   9.824   4.997 -0.5810  0.8694  0.2705
  281MOL0     H38742   2.075  10.042   4.966  0.7977  1.1146  1.5279
  281MOL0     H38743   2.199   9.955   5.050 -1.9918 -0.3155  1.1590
  281MOL0     H38744   2.221  10.195   5.086  1.5444  2.6696 -0.7736
  281MOL0     H38745   2.368  10.143   4.993  0.4102 -0.4231 -1.6494
  281MOL0     H38746   2.136  10.268   4.851  0.4302  0.4072 -2.1957
  281MOL0     H38747   2.296  10.256   4.786  3.1264  1.7357  1.1516
  281MOL0     H38748   2.405  10.420   4.902 -0.3463 -3.9760 -2.0579
  281MOL0     H38749   2.279  10.432   5.026 -0.5793 -2.7159  1.1291
  281MOL0     H38750   2.126  10.530   4.864  1.7334  1.6531  2.1802
  281MOL0     H38751   2.275  10.614   4.859 -2.1628  1.4862 -0.9115
  281MOL0     H38752   2.149  10.418   4.674 -1.0709  1.4231  0.3492
  281MOL0     H38753   2.325  10.437   4.654 -1.2721 -2.1215  1.5444
  281MOL0     H38754   2.248  10.588   4.496  0.1335 -1.2008  0.1576
  281MOL0     H38755   2.295  10.682   4.637 -0.5983 -0.9769  3.4088
  281MOL0     H38756   2.110  10.790   4.551  2.3902  0.0448  0.2487
  281MOL0     H38757   2.044  10.706   4.693  0.8925  3.9414  0.2731
  281MOL0     H38758   2.336   9.990   4.611  0.7412 -0.1331 -0.5902
  281MOL0     H38759   2.552   9.873   4.545  1.8699 -1.8079  0.9069
  281MOL0     H38760   2.970   9.767   4.641 -1.1020  0.9465  1.6239
  281MOL0     H38761   3.148   9.687   4.540  1.0825 -0.3200 -2.9976
  281MOL0     H38762   3.679   9.089   3.296 -2.1587  1.3908 -0.4382
  281MOL0     H38763   3.468   9.163   3.366  2.1658  1.0382  0.7078
  281MOL0     H38764   3.049   8.973   3.592 -1.0498 -1.1895  3.5768
  281MOL0     H38765   2.849   9.071   3.619 -1.0877  1.3289  0.4779
  281MOL0     H38766   2.662   9.255   3.571 -2.5849  3.1745  0.2970
  281MOL0     H38767   2.652   9.181   3.733  0.5064 -1.1134 -1.5906
  281MOL0     H38768   2.466   9.342   3.654  0.0837  1.4494 -0.8555
  281MOL0     H38769   2.594   9.467   3.644  1.4015 -0.8383 -0.5569
  281MOL0     H38770   2.461   9.307   3.864 -1.3015  1.2743 -0.2288
  281MOL0     H38771   2.606   9.390   3.902  1.6557  0.2563 -2.1043
  281MOL0     H38772   2.501   9.612   3.807 -0.6233  1.4943  2.7016
  281MOL0     H38773   2.436   9.548   3.964  0.2517 -1.2696  0.7727
  281MOL0     H38774   2.086   9.558   3.751 -0.4996 -0.8808 -1.3510
  281MOL0     H38775   3.042   9.408   3.811 -1.7668  2.9832 -4.3542
  281MOL0     H38776   3.373   9.329   3.721  0.2370  0.6796  0.1484
  281MOL0     H38777   3.249   9.444   3.731  0.1384 -1.0768 -2.7782
  281MOL0     H38778   3.282   9.341   3.879  0.7833 -3.5910 -0.4131
  282MOL0     O38779   5.315   9.061   1.279  0.0549 -0.9678 -0.1817
  282MOL0     C38780   5.357   9.106   1.174 -0.5963  0.2991  0.2859
  282MOL0     O38781   5.291   9.170   1.080 -0.2909 -0.2573  0.6861
  282MOL0     C38782   5.176   9.230   1.121 -0.4090 -0.3263 -0.1877
  282MOL0     C38783   5.160   9.369   1.101  0.1036 -0.6002  0.1852
  282MOL0     C38784   5.036   9.433   1.115 -0.3576 -0.3287 -0.1205
  282MOL0     C38785   4.932   9.353   1.155  0.2068 -0.2222  0.1628
  282MOL0     O38786   4.813   9.423   1.163  0.7202 -0.4493 -0.1001
  282MOL0     C38787   4.778   9.460   1.297 -0.2897  0.3201 -0.2970
  282MOL0     C38788   4.705   9.597   1.316 -0.4692  0.6454 -0.6757
  282MOL0     C38789   4.805   9.714   1.297 -0.6857 -0.1243  0.4184
  282MOL0     C38790   4.895   9.738   1.437 -0.4334  0.5933  0.7001
  282MOL0     C38791   5.036   9.808   1.418  0.1730  0.1613 -0.1120
  282MOL0     C38792   5.131   9.713   1.351 -0.6003  0.3022  0.9119
  282MOL0     C38793   5.281   9.769   1.348  0.1953 -0.1107 -0.0748
  282MOL0     C38794   5.331   9.797   1.481 -0.3259 -0.6332 -0.6637
  282MOL0     N38795   5.458   9.874   1.487 -0.0453 -0.5814  1.3783
  282MOL0     C38796   5.574   9.828   1.546 -0.5228  0.2910 -0.2506
  282MOL0     C38797   5.655   9.939   1.559  0.8300 -0.3409  0.4639
  282MOL0     C38798   5.794   9.933   1.602  0.2124  0.6707 -1.1076
  282MOL0     C38799   5.903   9.942   1.492  0.5437 -0.0578  0.4910
  282MOL0     C38800   5.885  10.067   1.398 -0.8920  0.1397  0.1352
  282MOL0     C38801   5.998  10.085   1.297  0.7843 -0.5581 -0.5877
  282MOL0     O38802   6.129  10.096   1.356  0.1290  0.5109  0.4444
  282MOL0     C38803   6.146  10.197   1.439 -0.0851 -0.1466  0.9570
  282MOL0     C38804   6.213  10.175   1.565  0.7245 -0.2931 -0.3245
  282MOL0     C38805   6.237  10.287   1.654  0.7309  0.0063 -0.9158
  282MOL0     C38806   6.323  10.258   1.773  0.2998  0.5722  0.5349
  282MOL0     C38807   6.161  10.408   1.628 -0.2249  0.2849 -0.6685
  282MOL0     C38808   6.165  10.520   1.715 -0.3929  0.3847 -0.2649
  282MOL0     O38809   6.289  10.570   1.765  0.7512  0.7224  0.4529
  282MOL0     C38810   6.300  10.681   1.838  1.0479  0.8992  0.6623
  282MOL0     C38811   6.275  10.814   1.775 -1.1800  0.8439 -1.2780
  282MOL0     C38812   6.272  10.927   1.854  0.9606 -0.1387  0.7556
  282MOL0     C38813   6.311  10.921   1.988  0.9062 -0.1247 -0.7701
  282MOL0     O38814   6.300  11.024   2.082 -0.4536 -0.0412 -0.0449
  282MOL0     C38815   6.248  11.153   2.042  1.2139 -0.9660  0.7083
  282MOL0     C38816   6.301  11.249   2.148  0.3754  0.5223 -0.2536
  282MOL0     C38817   6.245  11.398   2.140 -0.2179 -0.2333 -0.3858
  282MOL0     C38818   6.104  11.390   2.189  0.0370  0.0485 -0.6482
  282MOL0     C38819   6.032  11.518   2.191 -0.4370 -1.2583  0.1398
  282MOL0     C38820   6.101  11.637   2.257  0.1016  0.3598 -0.8648
  282MOL0     C38821   6.116  11.620   2.409  0.7208 -0.2195 -0.4825
  282MOL0     C38822   5.987  11.654   2.473 -0.4281  0.9321 -0.3754
  282MOL0    Cl38823   5.960  11.837   2.490 -0.0809 -0.0604  0.3221
  282MOL0     C38824   6.355  10.797   2.040 -0.2456  0.3945  0.7614
  282MOL0     C38825   6.348  10.677   1.974  0.2148  0.1768  1.0317
  282MOL0     O38826   6.050  10.570   1.730 -0.6498 -0.5364  0.4214
  282MOL0     C38827   6.095  10.425   1.504  0.0520  0.1369 -0.4400
  282MOL0     C38828   6.098  10.328   1.402  0.3727  0.3754  0.3017
  282MOL0     N38829   5.580  10.041   1.505 -0.2294 -0.5195  0.2570
  282MOL0     N38830   5.469  10.012   1.453  0.0279  0.3480  0.2332
  282MOL0     C38831   4.941   9.219   1.178  0.3324  0.5185 -0.4281
  282MOL0     C38832   5.062   9.158   1.156  0.1232 -0.6331 -0.1970
  282MOL0     C38833   5.496   9.065   1.146  0.0924  0.4061 -0.3567
  282MOL0     C38834   5.521   9.000   1.020  0.5067  0.1259 -0.3017
  282MOL0     C38835   5.636   8.937   0.995 -0.9589 -0.2223 -0.1219
  282MOL0     C38836   5.740   8.925   1.090 -0.2737  1.1217 -0.0013
  282MOL0     O38837   5.864   8.863   1.061 -0.4723  0.0294 -0.2177
  282MOL0     C38838   5.891   8.799   0.931  0.0512 -0.0448 -0.1421
  282MOL0     C38839   6.002   8.699   0.961 -1.1145 -0.7947 -0.2919
  282MOL0     C38840   6.119   8.774   1.029 -0.5278 -0.2344  0.9833
  282MOL0     C38841   6.255   8.734   0.980 -0.3890  0.8129  0.5623
  282MOL0     C38842   6.362   8.823   1.027  0.3980  0.2754  0.3825
  282MOL0     C38843   6.448   8.894   1.048 -0.3076 -0.7358  0.1001
  282MOL0     C38844   5.723   8.999   1.210  0.5858  0.1224  0.5041
  282MOL0     C38845   5.601   9.062   1.235 -0.9887  0.0908  0.2501
  282MOL0     C38846   5.591   9.145   1.357 -0.0431  1.6398  0.8600
  282MOL0     H38847   5.236   9.440   1.071 -0.1574 -0.4013 -0.0069
  282MOL0     H38848   5.029   9.539   1.092  2.4939 -0.3419 -1.4862
  282MOL0     H38849   4.869   9.473   1.355 -1.3222  0.6802  1.2988
  282MOL0     H38850   4.733   9.376   1.350 -0.4881  0.1617 -0.7104
  282MOL0     H38851   4.619   9.616   1.251 -3.3374  2.0010  3.1181
  282MOL0     H38852   4.671   9.600   1.420  1.1832  0.1235 -0.0937
  282MOL0     H38853   4.867   9.688   1.211  3.6368 -1.9404  3.7388
  282MOL0     H38854   4.759   9.811   1.272  0.3530  0.2538 -0.0891
  282MOL0     H38855   4.825   9.788   1.505 -2.5353 -0.6964 -0.4020
  282MOL0     H38856   4.904   9.642   1.490 -1.0592  0.5422  0.7285
  282MOL0     H38857   5.067   9.848   1.515 -0.7587  0.6504 -0.0040
  282MOL0     H38858   5.011   9.891   1.351 -1.8639  0.4401  0.9264
  282MOL0     H38859   5.131   9.612   1.392  0.9342  0.4648  1.3735
  282MOL0     H38860   5.105   9.711   1.244 -0.0408  3.5803  0.6196
  282MOL0     H38861   5.284   9.858   1.284 -5.1342 -0.9830 -2.0552
  282MOL0     H38862   5.352   9.706   1.294  0.8224 -0.8051  1.4949
  282MOL0     H38863   5.272   9.858   1.550  1.8436  0.8047 -0.0008
  282MOL0     H38864   5.353   9.700   1.527  2.2747  1.0581  2.0066
  282MOL0     H38865   5.600   9.734   1.593  2.4889  1.9577  1.7381
  282MOL0     H38866   5.804   9.832   1.644  0.4695  1.5515  1.0945
  282MOL0     H38867   5.819  10.013   1.672 -1.1536  1.3928 -1.4291
  282MOL0     H38868   6.002   9.953   1.536  1.3451  0.7126 -1.4031
  282MOL0     H38869   5.904   9.859   1.421 -0.8198 -0.3416  0.7735
  282MOL0     H38870   5.793  10.053   1.342 -0.1773  2.4453 -1.8120
  282MOL0     H38871   5.868  10.159   1.456 -0.3828  1.4666 -1.7221
  282MOL0     H38872   5.997  10.000   1.227  1.2785  0.2474 -1.6033
  282MOL0     H38873   5.977  10.171   1.233 -0.2619 -0.4591 -0.1327
  282MOL0     H38874   6.249  10.077   1.591  0.2490 -0.0335  1.4793
  282MOL0     H38875   6.282  10.310   1.860 -0.2766  0.1028  0.5496
  282MOL0     H38876   6.431  10.272   1.764  0.2006  2.8965  2.0415
  282MOL0     H38877   6.321  10.151   1.792  2.1415  0.6672  1.5369
  282MOL0     H38878   6.260  10.822   1.668  0.7563  0.0437 -1.6444
  282MOL0     H38879   6.234  11.018   1.808 -0.9999  0.6212  3.6067
  282MOL0     H38880   6.295  11.183   1.948  0.2239  2.4193  1.1699
  282MOL0     H38881   6.139  11.148   2.043  1.1267  0.4892 -0.0900
  282MOL0     H38882   6.280  11.195   2.241  2.4100 -2.6641 -1.4687
  282MOL0     H38883   6.410  11.245   2.144  0.7292  3.1734  2.9026
  282MOL0     H38884   6.251  11.433   2.037  2.8939  2.9228  0.6664
  282MOL0     H38885   6.300  11.474   2.197  2.1546 -0.5451 -2.1031
  282MOL0     H38886   6.090  11.347   2.288 -1.1234 -0.4174 -0.9981
  282MOL0     H38887   6.046  11.334   2.114 -1.5499  1.4406 -0.5030
  282MOL0     H38888   6.011  11.552   2.090  1.6010  1.3524  0.4673
  282MOL0     H38889   5.934  11.511   2.239 -0.7937  3.0659  0.4468
  282MOL0     H38890   6.031  11.720   2.242 -0.3995  0.0426 -0.3060
  282MOL0     H38891   6.200  11.664   2.219  0.8284  0.1547  0.7875
  282MOL0     H38892   6.177  11.702   2.450  0.3114  0.6244 -1.5124
  282MOL0     H38893   6.155  11.521   2.434 -1.0776 -1.1521 -1.2592
  282MOL0     H38894   5.993  11.617   2.576 -0.4683  0.3811 -0.5688
  282MOL0     H38895   5.903  11.595   2.436  1.6062 -2.1996 -0.3783
  282MOL0     H38896   6.404  10.805   2.137 -1.0453  0.7639  1.1509
  282MOL0     H38897   6.381  10.587   2.026 -0.6764 -0.5948  0.3170
  282MOL0     H38898   6.049  10.521   1.479 -2.1927  0.5386  4.2456
  282MOL0     H38899   6.052  10.343   1.304 -0.7635  0.4295  0.8242
  282MOL0     H38900   4.849   9.166   1.198 -0.4342  1.0554 -2.3181
  282MOL0     H38901   5.082   9.052   1.169  0.3494 -0.4283  1.4034
  282MOL0     H38902   5.432   8.987   0.959  1.1927 -3.1621 -0.8236
  282MOL0     H38903   5.627   8.895   0.896 -4.1238  0.9402 -0.4376
  282MOL0     H38904   5.804   8.743   0.896 -0.1663 -0.6664  1.3392
  282MOL0     H38905   5.919   8.870   0.852 -2.0090  0.3442 -0.5670
  282MOL0     H38906   6.019   8.629   0.879 -1.2464 -1.5563  0.3250
  282MOL0     H38907   5.959   8.632   1.036 -3.1883  0.7382 -0.0091
  282MOL0     H38908   6.102   8.882   1.022  1.6128  0.0558 -1.4601
  282MOL0     H38909   6.115   8.736   1.131  2.4766 -1.8840  0.6085
  282MOL0     H38910   6.263   8.734   0.871  0.3895 -0.0484  0.6046
  282MOL0     H38911   6.290   8.639   1.020 -0.2722  1.4001  1.9143
  282MOL0     H38912   6.526   8.962   1.076 -1.6830  0.1349  2.1672
  282MOL0     H38913   5.813   8.999   1.271  3.2429  0.2000 -3.0635
  282MOL0     H38914   5.688   9.146   1.408  1.3885  1.0823 -1.6521
  282MOL0     H38915   5.554   9.246   1.339 -1.5265  0.6917 -2.0366
  282MOL0     H38916   5.513   9.106   1.423  0.1530  0.0497  0.1946
  283MOL0     O38917   9.239  11.465   0.773 -0.0568 -0.6291 -0.1648
  283MOL0     C38918   9.267  11.349   0.762 -0.7288 -0.1424 -0.7820
  283MOL0     O38919   9.185  11.247   0.782 -0.2845  0.1549 -0.2102
  283MOL0     C38920   9.065  11.249   0.845  0.4318  1.0586 -0.1616
  283MOL0     C38921   8.987  11.136   0.833  0.1790 -0.1598  0.3679
  283MOL0     C38922   8.858  11.128   0.895  0.0445  0.2347  0.3345
  283MOL0     C38923   8.817  11.222   0.990 -0.4047 -0.7501 -0.4616
  283MOL0     O38924   8.711  11.236   1.065  0.0610  0.5098 -0.1087
  283MOL0     C38925   8.626  11.116   1.065 -0.3740  0.4877 -0.3861
  283MOL0     C38926   8.521  11.139   1.170 -0.5477  0.3011  0.6765
  283MOL0     C38927   8.410  11.230   1.108 -0.5315  0.4652 -0.1729
  283MOL0     C38928   8.282  11.243   1.195  0.5186 -0.5204 -0.5875
  283MOL0     C38929   8.183  11.125   1.186 -0.1247  0.3915  0.2412
  283MOL0     C38930   8.074  11.129   1.289  0.6627 -0.3495 -0.1244
  283MOL0     C38931   8.004  10.995   1.286  0.3762  0.5182  0.1729
  283MOL0     C38932   8.069  10.890   1.376 -0.6069  0.0575  0.3191
  283MOL0     N38933   8.013  10.871   1.511  0.3324  0.3529 -0.7590
  283MOL0     C38934   7.967  10.976   1.589  0.7937 -0.3520  0.6059
  283MOL0     C38935   7.931  10.916   1.700  0.2043 -0.3488  0.4808
  283MOL0     C38936   7.879  10.981   1.820  0.1216 -0.9008 -1.2426
  283MOL0     C38937   7.994  11.021   1.912 -0.1478  0.6747 -0.0219
  283MOL0     C38938   8.104  11.114   1.851  0.1850 -0.4097 -0.7598
  283MOL0     C38939   8.049  11.232   1.772 -0.5302  0.1421 -0.9253
  283MOL0     O38940   8.153  11.300   1.706 -0.9284 -0.3557  0.6434
  283MOL0     C38941   8.233  11.395   1.765 -0.6250  0.1711 -0.2843
  283MOL0     C38942   8.242  11.430   1.896  0.4273 -0.4129 -0.9436
  283MOL0     C38943   8.325  11.541   1.934 -0.5041  0.5336  0.7038
  283MOL0     C38944   8.331  11.575   2.077 -0.3009 -0.4600 -0.6800
  283MOL0     C38945   8.402  11.610   1.832  0.0691  0.1750 -0.6377
  283MOL0     C38946   8.496  11.722   1.856 -0.3573  0.3103 -0.4744
  283MOL0     O38947   8.587  11.748   1.752  0.0140  0.1391 -0.0571
  283MOL0     C38948   8.694  11.834   1.769 -0.4519 -0.0018 -0.4402
  283MOL0     C38949   8.705  11.944   1.691  1.0688 -0.3229 -0.0278
  283MOL0     C38950   8.812  12.032   1.702 -0.1086  0.2874  0.0252
  283MOL0     C38951   8.898  12.016   1.817 -0.0980 -0.0020  0.0421
  283MOL0     O38952   9.009  12.097   1.845 -0.0295 -0.4252 -0.1693
  283MOL0     C38953   9.005  12.239   1.798  0.3052 -0.6263 -0.1692
  283MOL0     C38954   9.117  12.333   1.860 -0.1218 -0.0773 -0.1240
  283MOL0     C38955   9.134  12.464   1.791  0.7162 -0.4689  0.4294
  283MOL0     C38956   9.207  12.569   1.875  0.7840 -0.1661  0.0856
  283MOL0     C38957   9.246  12.681   1.780  0.5114  0.1466 -0.3110
  283MOL0     C38958   9.331  12.786   1.858  0.5476  0.3325  0.5801
  283MOL0     C38959   9.316  12.907   1.761  1.2869 -0.1631  0.3951
  283MOL0     C38960   9.398  13.027   1.829 -0.1294 -0.0947  0.0581
  283MOL0    Cl38961   9.290  13.120   1.934 -0.2362  0.1124  0.0275
  283MOL0     C38962   8.887  11.907   1.895  0.1114 -0.0836  0.0637
  283MOL0     C38963   8.785  11.816   1.874  0.7972  0.2417 -1.1207
  283MOL0     O38964   8.486  11.787   1.960  0.0619  0.2316 -0.0920
  283MOL0     C38965   8.380  11.575   1.697  0.4029 -0.7282 -0.6867
  283MOL0     C38966   8.298  11.469   1.665 -0.3242  1.3316 -0.1512
  283MOL0     N38967   7.957  10.780   1.692 -0.3869 -0.3842 -0.0335
  283MOL0     N38968   8.013  10.756   1.583 -0.0775  0.0129  0.8203
  283MOL0     C38969   8.902  11.328   1.014  0.5219 -0.1732 -0.0186
  283MOL0     C38970   9.030  11.336   0.952 -0.1646  0.6370  0.5362
  283MOL0     C38971   9.401  11.320   0.706  0.0623  0.9158 -0.4948
  283MOL0     C38972   9.418  11.191   0.645 -0.3367 -0.2758  0.2737
  283MOL0     C38973   9.541  11.159   0.581 -1.0041  0.0540 -0.0323
  283MOL0     C38974   9.656  11.239   0.581 -0.2916 -1.2803  0.4375
  283MOL0     O38975   9.761  11.200   0.506 -0.7347 -0.0452 -0.1277
  283MOL0     C38976   9.873  11.285   0.496 -0.9517 -0.5153 -0.2025
  283MOL0     C38977   9.971  11.275   0.618 -0.2967 -0.1867  0.1700
  283MOL0     C38978  10.053  11.154   0.623 -0.8954 -0.5974  0.4999
  283MOL0     C38979  10.180  11.180   0.545  0.3858  0.3225 -0.2683
  283MOL0     C38980  10.280  11.074   0.550 -0.1241  0.3609 -0.6101
  283MOL0     C38981  10.362  10.983   0.558  0.0429 -0.4914 -0.0071
  283MOL0     C38982   9.644  11.357   0.657 -0.3366  0.0266  0.6418
  283MOL0     C38983   9.519  11.400   0.718  0.1512 -0.3250  0.4708
  283MOL0     C38984   9.525  11.531   0.805 -0.2569 -0.3498  0.1667
  283MOL0     H38985   9.025  11.063   0.762  2.6955  0.1506  1.3059
  283MOL0     H38986   8.800  11.038   0.877 -0.0337  0.7173 -2.2687
  283MOL0     H38987   8.691  11.031   1.090  1.0579  2.1440  1.9258
  283MOL0     H38988   8.581  11.085   0.970 -1.8696 -0.1051  0.4778
  283MOL0     H38989   8.486  11.044   1.212  0.6896 -0.0392  0.9683
  283MOL0     H38990   8.560  11.195   1.255  0.0592 -1.4624  1.6163
  283MOL0     H38991   8.452  11.329   1.087  0.2378  0.0053 -0.8424
  283MOL0     H38992   8.391  11.181   1.013 -2.3618 -1.7968  1.2395
  283MOL0     H38993   8.310  11.264   1.299 -2.2942 -0.5989  0.2799
  283MOL0     H38994   8.228  11.331   1.158 -0.6940 -1.4973 -1.2398
  283MOL0     H38995   8.246  11.036   1.189 -0.2241  0.2999 -0.3897
  283MOL0     H38996   8.145  11.136   1.084  1.6948  3.9540 -0.2075
  283MOL0     H38997   8.136  11.145   1.378  0.9322 -0.0269 -0.3672
  283MOL0     H38998   8.003  11.210   1.272  2.1972  0.7337 -1.6284
  283MOL0     H38999   7.992  10.966   1.181  1.9012  3.3557 -0.9027
  283MOL0     H39000   7.899  11.006   1.315 -0.2647 -2.4541 -0.6554
  283MOL0     H39001   8.055  10.798   1.320 -4.1726  2.4343 -3.2926
  283MOL0     H39002   8.178  10.900   1.376 -0.3026 -2.5696  0.5816
  283MOL0     H39003   7.966  11.083   1.569  3.8401 -0.1129  1.2801
  283MOL0     H39004   7.800  10.924   1.869  0.5322 -0.1449  0.3519
  283MOL0     H39005   7.819  11.067   1.791 -1.7348 -2.0712 -1.0413
  283MOL0     H39006   7.947  11.077   1.992 -0.9632  0.4555 -0.3374
  283MOL0     H39007   8.047  10.933   1.951  1.0976  1.7670  0.8485
  283MOL0     H39008   8.153  11.152   1.942 -0.4956  1.0059 -0.9656
  283MOL0     H39009   8.176  11.054   1.794  0.7792 -1.1689  0.7245
  283MOL0     H39010   7.965  11.214   1.705 -3.0089 -0.6535  2.1291
  283MOL0     H39011   8.011  11.294   1.854 -0.0125 -1.0159  0.2397
  283MOL0     H39012   8.181  11.387   1.975  0.4128  1.0410 -0.1376
  283MOL0     H39013   8.430  11.578   2.124  0.1981 -3.0692 -1.4129
  283MOL0     H39014   8.272  11.507   2.141 -0.5138 -0.3735 -0.7837
  283MOL0     H39015   8.280  11.669   2.099  0.2559  0.0907 -1.6918
  283MOL0     H39016   8.630  11.956   1.614  1.0320 -1.4489 -0.1840
  283MOL0     H39017   8.822  12.128   1.652 -1.0675  0.8387  0.8547
  283MOL0     H39018   9.009  12.227   1.690  0.0699  0.5580 -0.3270
  283MOL0     H39019   8.905  12.281   1.817 -0.4522 -1.0440 -2.8931
  283MOL0     H39020   9.097  12.354   1.965  4.3880  2.4183  0.4636
  283MOL0     H39021   9.217  12.290   1.854  1.0924  2.4229  0.7066
  283MOL0     H39022   9.035  12.495   1.757  0.4802 -2.6571 -1.0962
  283MOL0     H39023   9.193  12.453   1.699 -1.8892  2.1566 -1.7318
  283MOL0     H39024   9.289  12.512   1.918 -0.2186 -2.0383 -0.3793
  283MOL0     H39025   9.150  12.611   1.959  3.0505  1.5420  0.8747
  283MOL0     H39026   9.299  12.641   1.694  1.7066 -0.6529  0.7571
  283MOL0     H39027   9.153  12.734   1.756  1.4734  1.0285 -2.3198
  283MOL0     H39028   9.436  12.760   1.875  1.3499  2.5900 -0.5064
  283MOL0     H39029   9.296  12.811   1.958  2.5145 -1.5844  1.8645
  283MOL0     H39030   9.209  12.930   1.750  0.7519 -2.2601  0.7103
  283MOL0     H39031   9.361  12.864   1.671  2.0006 -0.4892  0.9017
  283MOL0     H39032   9.420  13.090   1.742  0.5801 -0.4389 -0.0194
  283MOL0     H39033   9.488  12.994   1.882 -1.5038 -4.0206  0.2704
  283MOL0     H39034   8.961  11.886   1.972  0.8565 -0.3388 -0.7062
  283MOL0     H39035   8.769  11.737   1.947  0.4389 -0.6586 -2.1433
  283MOL0     H39036   8.427  11.618   1.610  0.9374 -0.7542 -0.4148
  283MOL0     H39037   8.297  11.442   1.560  1.4207  0.2207  0.0677
  283MOL0     H39038   8.885  11.389   1.102  0.8867  0.0504 -0.1003
  283MOL0     H39039   9.092  11.410   1.002 -0.8040  0.9150  0.9314
  283MOL0     H39040   9.329  11.130   0.629 -2.1958  2.5964 -1.4469
  283MOL0     H39041   9.538  11.070   0.519 -0.1795 -0.1706  0.2345
  283MOL0     H39042   9.928  11.251   0.408 -0.1871 -0.8627  0.4032
  283MOL0     H39043   9.852  11.388   0.467  3.1627  0.3236 -0.8230
  283MOL0     H39044   9.913  11.262   0.710 -0.3989 -3.2425 -0.2214
  283MOL0     H39045  10.029  11.367   0.613  1.2195 -0.7633  3.9538
  283MOL0     H39046  10.073  11.145   0.730 -1.3118 -0.2894  0.6062
  283MOL0     H39047   9.992  11.073   0.584 -0.7722  0.6817 -2.6615
  283MOL0     H39048  10.235  11.259   0.596  0.6125 -0.0202  0.0276
  283MOL0     H39049  10.152  11.202   0.442  1.5579 -0.5466 -0.8012
  283MOL0     H39050  10.449  10.923   0.542  0.8568  0.0613  2.0710
  283MOL0     H39051   9.731  11.417   0.683 -1.4106  2.4199 -0.9494
  283MOL0     H39052   9.622  11.580   0.816 -0.9473  0.9131  0.8633
  283MOL0     H39053   9.458  11.607   0.766  1.0366  0.5727 -0.3001
  283MOL0     H39054   9.493  11.519   0.909  2.2684  1.1899  1.2199
  284MOL0     O39055   1.004   7.200   0.791 -0.5013  0.9723 -0.6023
  284MOL0     C39056   1.116   7.247   0.812  0.7573 -0.8007  1.3584
  284MOL0     O39057   1.145   7.340   0.907 -0.2187  0.0897 -0.4965
  284MOL0     C39058   1.038   7.381   0.989  0.1486 -0.5969  0.2889
  284MOL0     C39059   0.995   7.514   0.984 -1.0232  0.0294 -0.2445
  284MOL0     C39060   0.873   7.549   1.046 -0.2296 -0.0991  0.4480
  284MOL0     C39061   0.796   7.457   1.121  0.3039  0.3177  0.0392
  284MOL0     O39062   0.686   7.483   1.198  0.4644  0.0234  1.3713
  284MOL0     C39063   0.657   7.625   1.205 -0.4114 -0.3009  1.3371
  284MOL0     C39064   0.544   7.659   1.300 -0.2332 -1.2772 -0.4668
  284MOL0     C39065   0.405   7.636   1.244 -0.5600 -0.9400 -0.5604
  284MOL0     C39066   0.368   7.486   1.261 -0.0927  0.5119  0.7942
  284MOL0     C39067   0.328   7.423   1.127  0.4005 -0.0309  0.1761
  284MOL0     C39068   0.306   7.272   1.154 -1.2415  0.5604 -0.0040
  284MOL0     C39069   0.315   7.190   1.024 -0.0145 -0.5353 -0.4042
  284MOL0     C39070   0.268   7.052   1.023  0.4489 -0.0753 -0.4649
  284MOL0     N39071   0.258   7.002   1.158 -0.0367 -0.9845 -0.3858
  284MOL0     C39072   0.149   7.010   1.240 -0.1250  0.2767  0.8655
  284MOL0     C39073   0.176   6.954   1.359  0.5680 -0.3801 -0.1403
  284MOL0     C39074   0.089   6.933   1.476 -0.8261 -0.0360 -0.2276
  284MOL0     C39075   0.125   7.030   1.595 -0.1147 -0.1622  0.0840
  284MOL0     C39076   0.150   7.182   1.568  0.2529  0.7985 -0.1863
  284MOL0     C39077   0.293   7.230   1.544  0.0501  0.6036  0.6140
  284MOL0     O39078   0.378   7.171   1.648 -0.4649  1.0890 -0.2445
  284MOL0     C39079   0.517   7.169   1.647  0.5979 -0.2063  0.0339
  284MOL0     C39080   0.582   7.114   1.754 -0.0708 -1.3328 -0.4789
  284MOL0     C39081   0.721   7.091   1.751  0.7297  0.2894 -0.0825
  284MOL0     C39082   0.781   7.014   1.874  0.3109  0.5052 -0.2347
  284MOL0     C39083   0.790   7.135   1.636 -0.8741 -0.1823 -0.9405
  284MOL0     C39084   0.935   7.120   1.619 -0.8776  0.2254 -0.1442
  284MOL0     O39085   0.981   7.191   1.520 -0.3146 -0.0361  0.7300
  284MOL0     C39086   1.103   7.181   1.465  0.2477  0.0510  0.1320
  284MOL0     C39087   1.135   7.287   1.381  0.1670 -0.1578  0.4819
  284MOL0     C39088   1.251   7.297   1.310 -0.1587  0.0038 -0.7110
  284MOL0     C39089   1.341   7.180   1.311 -0.1456 -0.0807  0.4602
  284MOL0     O39090   1.463   7.187   1.249 -0.5415 -0.1446  0.4218
  284MOL0     C39091   1.468   7.160   1.109  0.1764  0.2893 -0.3182
  284MOL0     C39092   1.612   7.169   1.058 -0.3338  0.0260 -0.3053
  284MOL0     C39093   1.706   7.078   1.129 -0.7551  0.8466 -0.2030
  284MOL0     C39094   1.847   7.091   1.071 -0.8277  0.2852  0.9287
  284MOL0     C39095   1.949   7.008   1.147 -0.4806 -0.3877  0.8231
  284MOL0     C39096   2.092   7.047   1.104 -0.4745  0.2461  0.4728
  284MOL0     C39097   2.122   7.004   0.962  0.0832 -0.3526  0.1635
  284MOL0     C39098   2.274   6.999   0.931 -0.2076  0.4858 -0.0343
  284MOL0    Cl39099   2.352   6.891   1.047 -0.4255  0.2722 -0.0879
  284MOL0     C39100   1.304   7.064   1.394  0.2257 -0.5411  0.5509
  284MOL0     C39101   1.184   7.065   1.465 -0.4753  0.1757 -0.1925
  284MOL0     O39102   0.998   7.038   1.683  0.7727 -0.1964  0.2792
  284MOL0     C39103   0.722   7.184   1.529  0.2037  0.8885 -0.5954
  284MOL0     C39104   0.582   7.206   1.535 -0.0816  0.4988 -0.5113
  284MOL0     N39105   0.304   6.893   1.351 -0.3755 -0.1773  0.0526
  284MOL0     N39106   0.350   6.926   1.228  0.3622 -0.6035 -0.6334
  284MOL0     C39107   0.851   7.327   1.136  0.1509  1.0205  0.8957
  284MOL0     C39108   0.969   7.288   1.061  0.3727 -1.1553 -0.4611
  284MOL0     C39109   1.215   7.243   0.693 -0.5286 -0.3889  0.2927
  284MOL0     C39110   1.357   7.251   0.728  0.2053  0.5155 -0.0335
  284MOL0     C39111   1.462   7.244   0.638  1.0039  0.8448 -0.0642
  284MOL0     C39112   1.429   7.231   0.504 -0.8951  0.6557 -0.4190
  284MOL0     O39113   1.528   7.235   0.414  0.0348  0.0495 -0.3275
  284MOL0     C39114   1.554   7.114   0.349  0.1824  0.5077 -0.0514
  284MOL0     C39115   1.672   7.124   0.253  0.2617  0.0224 -0.0700
  284MOL0     C39116   1.798   7.121   0.337 -0.2070 -0.1417  0.9899
  284MOL0     C39117   1.916   7.099   0.248  0.4529 -0.3180 -0.1822
  284MOL0     C39118   1.940   7.206   0.145 -0.0893  0.9706  0.7136
  284MOL0     C39119   1.974   7.285   0.065 -0.7780 -0.4453  1.6499
  284MOL0     C39120   1.293   7.224   0.466 -0.1748  0.0270 -0.1983
  284MOL0     C39121   1.195   7.225   0.556  1.0738 -0.7803  1.1748
  284MOL0     C39122   1.054   7.233   0.488  0.4241 -0.6418 -0.4375
  284MOL0     H39123   1.062   7.590   0.943 -1.1003  0.1281 -0.1869
  284MOL0     H39124   0.849   7.653   1.028 -2.7209 -0.9462 -2.0263
  284MOL0     H39125   0.636   7.666   1.106  0.6313 -0.9885  0.8131
  284MOL0     H39126   0.743   7.680   1.243 -1.4141  1.9417  0.5053
  284MOL0     H39127   0.559   7.610   1.397 -2.5472  2.6609  2.1586
  284MOL0     H39128   0.558   7.766   1.319  1.7713 -1.6901  0.7154
  284MOL0     H39129   0.335   7.702   1.296 -2.0856 -0.7387 -2.7476
  284MOL0     H39130   0.395   7.671   1.142  2.1617  2.3183  0.1367
  284MOL0     H39131   0.458   7.437   1.298  1.0664  0.9786 -1.2318
  284MOL0     H39132   0.282   7.472   1.327 -0.7077  0.0793 -0.0779
  284MOL0     H39133   0.412   7.427   1.057 -0.7893  1.0716 -1.2614
  284MOL0     H39134   0.238   7.472   1.090  0.9475  2.3511  1.8036
  284MOL0     H39135   0.393   7.232   1.207 -0.6356  0.3658 -1.1116
  284MOL0     H39136   0.214   7.262   1.211 -3.0246 -0.4839 -2.8499
  284MOL0     H39137   0.418   7.205   0.991  0.4250 -0.8639  0.7581
  284MOL0     H39138   0.248   7.255   0.967  0.1658  1.4868  1.5469
  284MOL0     H39139   0.167   7.043   0.983  0.2850  0.1592 -0.1128
  284MOL0     H39140   0.339   6.995   0.963  0.9700 -0.5620  0.5763
  284MOL0     H39141   0.065   7.077   1.222 -1.1804 -0.7731  1.7279
  284MOL0     H39142   0.092   6.830   1.513  0.1611  0.9201  2.6435
  284MOL0     H39143  -0.013   6.947   1.439 -1.1485 -0.0684  0.6116
  284MOL0     H39144   0.040   7.032   1.663 -0.0272 -3.0247  0.3865
  284MOL0     H39145   0.209   6.985   1.649 -0.5394 -1.3014 -0.1789
  284MOL0     H39146   0.086   7.206   1.483 -4.8157 -0.9767  2.6785
  284MOL0     H39147   0.108   7.232   1.656  0.6240 -2.1920  1.8541
  284MOL0     H39148   0.332   7.209   1.444  3.5645  0.4837  1.8624
  284MOL0     H39149   0.304   7.337   1.565 -2.7922  0.5803  2.8535
  284MOL0     H39150   0.516   7.102   1.839 -0.6441 -0.6037 -0.8097
  284MOL0     H39151   0.711   7.010   1.958  0.1307  1.9330 -0.3008
  284MOL0     H39152   0.871   7.066   1.906  1.9425 -0.9275 -2.1426
  284MOL0     H39153   0.820   6.915   1.848  0.1844 -0.5948  3.2994
  284MOL0     H39154   1.059   7.364   1.382 -0.6546 -0.8475  3.8930
  284MOL0     H39155   1.256   7.382   1.243 -2.7549 -1.2451 -2.6743
  284MOL0     H39156   1.420   7.063   1.089 -1.3183  0.4922  1.8835
  284MOL0     H39157   1.406   7.238   1.064 -1.0214  1.0440  2.4455
  284MOL0     H39158   1.611   7.151   0.950  1.0978 -2.1635 -0.0025
  284MOL0     H39159   1.654   7.269   1.072  0.6444 -0.3550 -0.4284
  284MOL0     H39160   1.657   6.981   1.118  0.3308  0.3176 -0.4626
  284MOL0     H39161   1.715   7.102   1.236  0.0818 -1.0050  0.1858
  284MOL0     H39162   1.877   7.196   1.066  2.0656 -0.5151 -0.6077
  284MOL0     H39163   1.850   7.045   0.972 -1.3313 -0.8976  1.4467
  284MOL0     H39164   1.939   7.025   1.255  0.4950  3.5701  0.4177
  284MOL0     H39165   1.928   6.902   1.130  1.2875 -0.8263  1.1814
  284MOL0     H39166   2.164   6.995   1.167 -0.6423 -1.0767 -0.3850
  284MOL0     H39167   2.119   7.153   1.108 -2.2062  0.9271 -2.4335
  284MOL0     H39168   2.073   7.072   0.893 -0.5434 -1.0751 -0.1181
  284MOL0     H39169   2.089   6.902   0.938  4.4090 -2.3878  1.6754
  284MOL0     H39170   2.328   7.094   0.945 -1.9400  1.3618  1.0046
  284MOL0     H39171   2.298   6.957   0.833 -2.2684 -2.4242  0.5815
  284MOL0     H39172   1.375   6.983   1.394 -1.1210 -1.7833  1.4446
  284MOL0     H39173   1.176   6.973   1.522  0.2782 -0.6261 -1.3296
  284MOL0     H39174   0.768   7.200   1.432 -1.9643  1.0684 -1.6293
  284MOL0     H39175   0.533   7.236   1.443 -0.1029  1.4326 -0.2055
  284MOL0     H39176   0.795   7.248   1.185  0.6450  0.2746  0.2852
  284MOL0     H39177   0.995   7.183   1.057  2.0871 -0.7454 -3.3032
  284MOL0     H39178   1.388   7.264   0.831  2.8895 -0.2015 -0.6909
  284MOL0     H39179   1.567   7.258   0.662  0.7209  1.4505  0.8503
  284MOL0     H39180   1.572   7.027   0.413  0.4360  1.5493  1.3445
  284MOL0     H39181   1.466   7.086   0.291  0.1855  0.5663 -0.0840
  284MOL0     H39182   1.668   7.223   0.207 -0.8921  0.3538  0.7061
  284MOL0     H39183   1.685   7.055   0.169 -0.4791 -1.6025  1.0945
  284MOL0     H39184   1.806   7.211   0.397 -2.5437  0.6178  0.2723
  284MOL0     H39185   1.804   7.032   0.401  3.1807 -0.2667  0.6998
  284MOL0     H39186   1.905   7.001   0.201 -0.3641 -0.4385  0.2356
  284MOL0     H39187   2.005   7.084   0.310 -0.1701 -0.9285  0.5896
  284MOL0     H39188   1.992   7.363  -0.006 -0.0233  2.3376  4.6534
  284MOL0     H39189   1.270   7.218   0.360 -1.3695 -1.8565  0.1203
  284MOL0     H39190   1.063   7.208   0.382  1.3999 -1.4801 -0.1692
  284MOL0     H39191   0.986   7.157   0.527 -0.4362  1.7920  3.3606
  284MOL0     H39192   1.007   7.331   0.502 -0.3715 -1.1207  0.3362
  285MOL0     O39193  10.482   4.723   6.574 -0.1901 -0.3314 -0.5405
  285MOL0     C39194  10.368   4.756   6.558  0.0398  0.1317 -0.0990
  285MOL0     O39195  10.326   4.823   6.447  0.3471  0.3434 -0.5442
  285MOL0     C39196  10.409   4.817   6.338 -0.6468  0.2503  0.1797
  285MOL0     C39197  10.419   4.696   6.268  0.1510 -0.7942 -0.1395
  285MOL0     C39198  10.491   4.680   6.151 -0.6095  0.3857  0.0882
  285MOL0     C39199  10.565   4.791   6.104  0.4760  0.5949  0.7144
  285MOL0     O39200  10.628   4.784   5.981 -0.2517 -0.0156  0.2363
  285MOL0     C39201  10.770   4.786   5.979  0.2348  0.2532 -0.5602
  285MOL0     C39202  10.808   4.802   5.831 -0.3273  0.1831  0.3065
  285MOL0     C39203  10.776   4.673   5.744 -0.8313 -0.1567  0.7596
  285MOL0     C39204  10.819   4.700   5.598 -0.4903 -0.1828  0.5919
  285MOL0     C39205  10.856   4.570   5.523  0.3562  0.0878 -0.6474
  285MOL0     C39206  10.982   4.505   5.591  0.3672  0.4171  0.7152
  285MOL0     C39207  11.049   4.404   5.497 -0.1715  0.8613 -0.4254
  285MOL0     C39208  11.154   4.319   5.584  0.2342 -0.7306 -0.1383
  285MOL0     N39209  11.262   4.274   5.496 -0.3974  0.4149 -0.2575
  285MOL0     C39210  11.323   4.152   5.496 -0.2404 -0.5255 -0.1263
  285MOL0     C39211  11.433   4.160   5.416 -0.5465  0.3759 -0.0410
  285MOL0     C39212  11.527   4.045   5.399 -0.2710 -0.1539 -0.0573
  285MOL0     C39213  11.610   4.021   5.521 -0.2741  0.3634 -0.9877
  285MOL0     C39214  11.687   3.889   5.517  0.3396 -0.5129  0.0021
  285MOL0     C39215  11.844   3.919   5.506 -0.1460  0.4567 -0.6377
  285MOL0     O39216  11.914   3.806   5.543  0.1644  0.0431  0.4903
  285MOL0     C39217  12.053   3.801   5.528  0.3322 -0.0614  1.2979
  285MOL0     C39218  12.144   3.905   5.516 -0.3418  0.2231 -0.0557
  285MOL0     C39219  12.285   3.879   5.508  0.6410  0.7558 -0.0741
  285MOL0     C39220  12.371   3.999   5.476 -1.1086 -0.1544 -1.0830
  285MOL0     C39221  12.339   3.749   5.511  0.5955  0.0722  0.6781
  285MOL0     C39222  12.475   3.713   5.484  0.4828 -0.4907 -0.6590
  285MOL0     O39223  12.485   3.618   5.388  0.2441  0.3083 -0.2392
  285MOL0     C39224  12.605   3.555   5.372  0.4977 -0.1828 -0.1767
  285MOL0     C39225  12.637   3.450   5.460  0.2859  0.4943  0.3429
  285MOL0     C39226  12.751   3.371   5.439  0.2483 -0.0417  0.4485
  285MOL0     C39227  12.841   3.414   5.350  0.3715  0.5916  1.3971
  285MOL0     O39228  12.956   3.346   5.326  0.7339 -0.3416  0.1534
  285MOL0     C39229  13.004   3.278   5.439 -0.1304 -0.0589  0.6428
  285MOL0     C39230  13.153   3.243   5.428 -0.5008  0.9298  0.5704
  285MOL0     C39231  13.213   3.151   5.531 -0.1095 -0.4328  0.0474
  285MOL0     C39232  13.356   3.118   5.474  0.2235 -0.3053 -0.3594
  285MOL0     C39233  13.454   3.044   5.570 -0.0662  0.4598 -0.3668
  285MOL0     C39234  13.537   3.143   5.648 -0.1545 -0.1847  0.0102
  285MOL0     C39235  13.631   3.090   5.764 -0.3371 -0.5601 -0.1850
  285MOL0     C39236  13.767   3.024   5.713  0.7181  0.2320 -0.1628
  285MOL0    Cl39237  13.758   2.875   5.620  0.1342 -0.2929 -0.2150
  285MOL0     C39238  12.811   3.516   5.265 -0.7075 -0.2680  0.1948
  285MOL0     C39239  12.698   3.599   5.280  0.2585 -0.6858  0.3378
  285MOL0     O39240  12.569   3.779   5.531  0.3500  0.1557  0.9731
  285MOL0     C39241  12.236   3.646   5.521 -0.0880  0.3091 -0.9993
  285MOL0     C39242  12.098   3.670   5.535  0.8158 -0.3464 -0.2801
  285MOL0     N39243  11.427   4.282   5.351 -0.4565 -0.4637  0.3869
  285MOL0     N39244  11.340   4.348   5.406  0.1231 -0.7110 -0.4754
  285MOL0     C39245  10.560   4.910   6.175  0.6885 -0.3241  0.1028
  285MOL0     C39246  10.481   4.925   6.290 -0.3742  0.0647  0.9070
  285MOL0     C39247  10.273   4.746   6.671 -0.4498  0.3512  0.5678
  285MOL0     C39248  10.338   4.754   6.792  0.0093  0.0500  0.3674
  285MOL0     C39249  10.272   4.767   6.907  0.3007  0.0275 -0.8041
  285MOL0     C39250  10.136   4.750   6.916  0.9734 -0.1825  1.0839
  285MOL0     O39251  10.058   4.741   7.027  0.2392  0.7587  0.0882
  285MOL0     C39252  10.129   4.733   7.157 -0.0977  0.0544  0.6910
  285MOL0     C39253  10.188   4.590   7.172  0.4483  0.8520 -0.6603
  285MOL0     C39254  10.086   4.483   7.139 -0.8937  0.1233  0.8895
  285MOL0     C39255  10.148   4.344   7.130 -0.2211  0.6275 -0.4076
  285MOL0     C39256  10.213   4.305   7.264 -0.0952  0.0082 -0.9797
  285MOL0     C39257  10.268   4.267   7.366  0.0136  0.7115  0.6167
  285MOL0     C39258  10.070   4.735   6.792  0.4297  0.1616  0.1091
  285MOL0     C39259  10.135   4.736   6.663 -0.3013 -0.0964  0.3619
  285MOL0     C39260  10.065   4.724   6.530 -0.7998  0.4510  0.3473
  285MOL0     H39261  10.347   4.617   6.289 -0.5495  0.0631  0.7726
  285MOL0     H39262  10.473   4.583   6.105  0.7724 -1.1799  2.6086
  285MOL0     H39263  10.808   4.694   6.023 -1.4284 -1.2988 -2.1920
  285MOL0     H39264  10.810   4.872   6.033  2.4323  0.7163 -2.7390
  285MOL0     H39265  10.756   4.890   5.791  1.5687  2.1641  1.9651
  285MOL0     H39266  10.914   4.827   5.828  0.0417 -1.3279  0.3257
  285MOL0     H39267  10.826   4.587   5.790 -1.4285 -0.9378 -0.0372
  285MOL0     H39268  10.670   4.648   5.749 -0.8779  0.3101  3.3043
  285MOL0     H39269  10.738   4.754   5.548 -0.8213  2.2545  3.4623
  285MOL0     H39270  10.908   4.765   5.594 -0.9049  0.3337 -0.7751
  285MOL0     H39271  10.888   4.595   5.421  0.1347  0.7147 -0.5673
  285MOL0     H39272  10.774   4.498   5.516 -0.8032  1.3685 -0.7681
  285MOL0     H39273  11.049   4.586   5.622 -2.0230  1.4748  3.5169
  285MOL0     H39274  10.954   4.457   5.685 -2.3325  1.6193  0.6078
  285MOL0     H39275  11.098   4.448   5.410 -1.1439 -3.0182 -3.2115
  285MOL0     H39276  10.975   4.331   5.463  3.6618 -2.8689 -1.5169
  285MOL0     H39277  11.201   4.377   5.664 -0.8437  1.6750 -1.1343
  285MOL0     H39278  11.108   4.228   5.622  1.0874 -1.7604 -1.4361
  285MOL0     H39279  11.291   4.068   5.556  1.1322 -0.9706  0.0215
  285MOL0     H39280  11.601   4.066   5.321 -2.0723 -1.2139 -2.1700
  285MOL0     H39281  11.481   3.949   5.373  1.6405 -1.6167  1.6664
  285MOL0     H39282  11.669   4.112   5.541  1.9145 -0.1479 -4.2950
  285MOL0     H39283  11.530   4.008   5.594 -1.1839  2.8710 -1.4210
  285MOL0     H39284  11.660   3.829   5.604 -3.1087  0.4378 -0.2456
  285MOL0     H39285  11.665   3.834   5.425  1.2706 -0.4467 -0.2724
  285MOL0     H39286  11.869   3.970   5.412 -4.4442  2.8259 -0.7589
  285MOL0     H39287  11.847   3.997   5.582 -1.8321 -1.2171  1.2445
  285MOL0     H39288  12.113   4.009   5.512 -0.3207  0.2623 -5.0516
  285MOL0     H39289  12.320   4.094   5.491 -0.5531 -0.3786  3.9355
  285MOL0     H39290  12.387   3.976   5.370 -0.6662  1.8401 -1.4811
  285MOL0     H39291  12.462   4.004   5.536 -0.2432  0.5344 -2.4240
  285MOL0     H39292  12.564   3.415   5.532 -0.8956 -1.2603 -1.5909
  285MOL0     H39293  12.759   3.284   5.503  3.1157 -0.8279 -0.8103
  285MOL0     H39294  12.992   3.331   5.534 -0.6618 -1.7455  1.5577
  285MOL0     H39295  12.965   3.176   5.442 -1.2822  0.3431  0.0928
  285MOL0     H39296  13.167   3.199   5.329  2.0118  1.2100  0.7353
  285MOL0     H39297  13.199   3.342   5.431  0.3483  0.5343  3.2026
  285MOL0     H39298  13.150   3.062   5.536 -0.6668 -0.1789 -1.8002
  285MOL0     H39299  13.210   3.190   5.633  3.4886 -2.2307  1.0140
  285MOL0     H39300  13.408   3.209   5.443  1.8451 -0.1851  2.4094
  285MOL0     H39301  13.343   3.051   5.388 -0.5843  0.3033 -0.7215
  285MOL0     H39302  13.407   2.976   5.642  0.2349  0.9596  0.3149
  285MOL0     H39303  13.529   2.995   5.508  0.2687  0.0099  0.3766
  285MOL0     H39304  13.463   3.214   5.687 -0.3395 -0.3477 -0.0448
  285MOL0     H39305  13.607   3.191   5.579  0.1718 -2.6768 -1.5255
  285MOL0     H39306  13.586   3.004   5.815 -1.8772 -1.1173 -2.3364
  285MOL0     H39307  13.658   3.174   5.829 -0.2786  2.0576 -3.3498
  285MOL0     H39308  13.825   3.014   5.806 -0.9498  1.1706  1.0369
  285MOL0     H39309  13.809   3.105   5.653 -1.9525 -0.3535 -3.0849
  285MOL0     H39310  12.879   3.557   5.191 -1.2173  0.4295  0.1076
  285MOL0     H39311  12.670   3.678   5.210 -3.5455 -1.7992  0.3994
  285MOL0     H39312  12.266   3.542   5.527  1.0243  0.6886  0.2694
  285MOL0     H39313  12.033   3.586   5.552 -0.0283 -0.1930 -2.3823
  285MOL0     H39314  10.612   5.001   6.146  1.2256 -0.6076  0.1779
  285MOL0     H39315  10.476   5.019   6.344 -1.5188  2.7264 -3.3268
  285MOL0     H39316  10.445   4.758   6.807  0.0845  0.2008 -0.1766
  285MOL0     H39317  10.331   4.769   6.998  1.3899 -0.0721 -1.4895
  285MOL0     H39318  10.203   4.814   7.165 -0.5024  0.4033  0.9818
  285MOL0     H39319  10.066   4.752   7.245 -1.2222 -0.2570 -0.0258
  285MOL0     H39320  10.221   4.580   7.276 -0.1712  0.2928 -0.5144
  285MOL0     H39321  10.275   4.581   7.107  1.2194  0.0572  0.4536
  285MOL0     H39322  10.005   4.488   7.212 -0.4215  1.0973  1.3670
  285MOL0     H39323  10.037   4.496   7.042 -2.9914  1.8955  2.0823
  285MOL0     H39324  10.221   4.330   7.050  1.0624  1.0663  0.6451
  285MOL0     H39325  10.064   4.274   7.116 -1.1574  1.7986 -0.8241
  285MOL0     H39326  10.333   4.246   7.449 -0.3328  1.6320  1.1421
  285MOL0     H39327   9.963   4.721   6.795  0.2950  0.4854 -1.9063
  285MOL0     H39328  10.111   4.642   6.473 -2.5631 -0.5307  0.2858
  285MOL0     H39329   9.961   4.696   6.549 -1.6623  0.1300 -3.7719
  285MOL0     H39330  10.071   4.819   6.476  1.0864  0.0581 -0.2236
  286MOL0     O39331   2.954   5.073   0.258 -0.1379  0.5054  0.0329
  286MOL0     C39332   2.868   5.099   0.343  0.1762 -0.0440  0.2230
  286MOL0     O39333   2.811   5.220   0.373  0.2301 -0.3660 -0.0123
  286MOL0     C39334   2.806   5.316   0.273 -0.0353 -0.2473 -0.1520
  286MOL0     C39335   2.801   5.283   0.132 -0.5512  0.2094  0.4960
  286MOL0     C39336   2.788   5.377   0.031  0.2828 -0.1684 -0.4290
  286MOL0     C39337   2.789   5.512   0.074 -1.0394  0.2167  0.1224
  286MOL0     O39338   2.782   5.617  -0.012  0.1180 -0.2286  0.4275
  286MOL0     C39339   2.791   5.599  -0.158 -0.1366  0.6181  0.1616
  286MOL0     C39340   2.781   5.722  -0.248  0.3726  0.8421  0.4960
  286MOL0     C39341   2.902   5.808  -0.255  0.2033  0.1898 -0.1686
  286MOL0     C39342   3.028   5.740  -0.324  0.0882 -0.2693 -0.5030
  286MOL0     C39343   3.132   5.839  -0.378  0.2417 -0.0637 -0.3270
  286MOL0     C39344   3.275   5.788  -0.356 -0.3781  0.7581 -0.0068
  286MOL0     C39345   3.300   5.688  -0.469  1.2506  0.0894  0.2407
  286MOL0     C39346   3.435   5.623  -0.468 -0.6317 -0.2996 -0.8208
  286MOL0     N39347   3.470   5.529  -0.576  0.6338  0.4818  0.2912
  286MOL0     C39348   3.538   5.555  -0.690 -0.3826 -0.1682  0.6698
  286MOL0     C39349   3.539   5.438  -0.759  0.7052 -0.3848 -1.3819
  286MOL0     C39350   3.616   5.405  -0.882  0.6177 -0.0917 -0.3928
  286MOL0     C39351   3.735   5.318  -0.855 -0.7235  0.5010  1.2610
  286MOL0     C39352   3.865   5.390  -0.836 -0.2007  0.4319  1.1036
  286MOL0     C39353   3.927   5.439  -0.969 -0.3525 -0.4462  0.4047
  286MOL0     O39354   4.048   5.515  -0.941  0.2095  0.5254 -0.6895
  286MOL0     C39355   4.135   5.539  -1.047  0.2531 -0.4609  0.1488
  286MOL0     C39356   4.162   5.453  -1.157 -0.8499  0.1210  0.2959
  286MOL0     C39357   4.262   5.476  -1.252  0.6053 -0.4595 -0.3781
  286MOL0     C39358   4.281   5.369  -1.360  0.0324  0.0153 -0.5102
  286MOL0     C39359   4.336   5.594  -1.243 -0.0723  0.3833 -1.2558
  286MOL0     C39360   4.452   5.629  -1.320  0.1862  0.1532  0.1265
  286MOL0     O39361   4.505   5.743  -1.289  0.2534  0.7840  0.2341
  286MOL0     C39362   4.631   5.790  -1.305 -0.1209  0.0944 -0.8379
  286MOL0     C39363   4.747   5.724  -1.345 -0.0481 -0.1758 -0.6491
  286MOL0     C39364   4.866   5.788  -1.353  0.3339 -0.9593 -0.9686
  286MOL0     C39365   4.877   5.925  -1.306 -0.2513 -0.1908 -0.4565
  286MOL0     O39366   5.003   5.984  -1.311  0.3131  0.0953  0.1642
  286MOL0     C39367   5.029   6.047  -1.438  0.2095 -0.8272  0.7888
  286MOL0     C39368   5.161   6.112  -1.416  0.6002 -0.9368 -0.5866
  286MOL0     C39369   5.155   6.220  -1.306 -0.7179 -0.1034  0.1569
  286MOL0     C39370   5.039   6.319  -1.311  0.4615 -0.1637 -0.3748
  286MOL0     C39371   5.057   6.437  -1.217  0.2548 -0.4173  1.0047
  286MOL0     C39372   5.036   6.579  -1.281 -1.0078 -0.0617  0.0672
  286MOL0     C39373   5.059   6.707  -1.200 -0.0065 -0.6097  0.0638
  286MOL0     C39374   4.919   6.777  -1.171 -0.6243 -0.1936  0.3640
  286MOL0    Cl39375   4.810   6.662  -1.087  0.3902  0.1099  0.0394
  286MOL0     C39376   4.761   5.992  -1.260  1.1668  0.6686  0.3569
  286MOL0     C39377   4.642   5.921  -1.272 -0.4358 -0.3039  0.1834
  286MOL0     O39378   4.499   5.545  -1.399 -0.0925  0.3451 -0.2536
  286MOL0     C39379   4.304   5.689  -1.134  0.8628  0.0650  1.1556
  286MOL0     C39380   4.210   5.654  -1.040 -0.5223  1.0318 -0.9705
  286MOL0     N39381   3.465   5.345  -0.679 -0.2427  0.4708  0.0144
  286MOL0     N39382   3.433   5.394  -0.570 -0.5203 -0.5139 -0.6639
  286MOL0     C39383   2.780   5.549   0.211  0.9849 -0.2964 -0.5161
  286MOL0     C39384   2.780   5.452   0.311 -0.1598  0.9624 -0.1118
  286MOL0     C39385   2.807   4.983   0.431 -1.6093 -1.2702  0.1522
  286MOL0     C39386   2.682   5.007   0.494  0.5190 -0.0194  0.4074
  286MOL0     C39387   2.617   4.914   0.576  0.4542  0.1969  0.3352
  286MOL0     C39388   2.671   4.789   0.599  0.5653  0.1742  0.0593
  286MOL0     O39389   2.611   4.707   0.690 -0.0421  0.3584  0.2995
  286MOL0     C39390   2.666   4.584   0.718 -0.0714  0.4770  0.1105
  286MOL0     C39391   2.597   4.501   0.827 -0.1987 -0.4295  0.3628
  286MOL0     C39392   2.621   4.563   0.964  0.3199  0.2077 -0.5221
  286MOL0     C39393   2.584   4.492   1.093  0.4948 -0.3370 -0.0153
  286MOL0     C39394   2.628   4.558   1.211  0.2888 -0.1956 -0.1847
  286MOL0     C39395   2.660   4.610   1.318  0.0913 -0.1673 -0.8120
  286MOL0     C39396   2.796   4.759   0.528 -0.0564  0.1140 -0.4294
  286MOL0     C39397   2.857   4.851   0.442 -0.1828 -0.0703  0.1830
  286MOL0     C39398   2.989   4.809   0.385 -1.0925 -0.1079 -0.3015
  286MOL0     H39399   2.805   5.180   0.099  0.9169  0.1757  0.7019
  286MOL0     H39400   2.768   5.349  -0.072 -2.6238  2.5387 -0.7512
  286MOL0     H39401   2.707   5.534  -0.181  0.0631  0.3045  0.3172
  286MOL0     H39402   2.884   5.545  -0.175  0.1514  0.7926  1.0961
  286MOL0     H39403   2.771   5.686  -0.351 -0.8060  0.0121  0.8795
  286MOL0     H39404   2.687   5.773  -0.225 -1.2731 -0.8410 -1.9779
  286MOL0     H39405   2.865   5.889  -0.318  0.7204 -0.0639 -0.8042
  286MOL0     H39406   2.926   5.831  -0.151  2.3081 -2.4883  0.0406
  286MOL0     H39407   3.068   5.664  -0.256  1.1705 -1.2365 -2.1330
  286MOL0     H39408   2.992   5.680  -0.408 -2.4835  1.0987 -0.4704
  286MOL0     H39409   3.103   5.931  -0.327 -4.4159  0.6359 -3.6533
  286MOL0     H39410   3.109   5.860  -0.483 -0.8781 -2.7406 -0.7101
  286MOL0     H39411   3.347   5.870  -0.360  0.9901 -0.4610 -1.5867
  286MOL0     H39412   3.294   5.749  -0.256  0.9237  0.3548 -0.3941
  286MOL0     H39413   3.284   5.731  -0.568  0.6489  1.4016  0.8948
  286MOL0     H39414   3.221   5.613  -0.463 -0.2621  1.7457  2.6940
  286MOL0     H39415   3.506   5.705  -0.479  1.1474 -1.5180  0.8447
  286MOL0     H39416   3.455   5.580  -0.369  0.7174  0.5886 -0.6894
  286MOL0     H39417   3.593   5.642  -0.724  0.8573 -1.2791 -0.3170
  286MOL0     H39418   3.635   5.497  -0.938  1.3569 -1.2210 -2.0814
  286MOL0     H39419   3.559   5.343  -0.952  1.2820  0.2582 -1.2595
  286MOL0     H39420   3.727   5.256  -0.765  1.2223 -0.2544  0.9694
  286MOL0     H39421   3.748   5.246  -0.937 -2.3845  0.5473  0.9314
  286MOL0     H39422   3.837   5.471  -0.767 -0.3234  0.5208  0.9525
  286MOL0     H39423   3.929   5.318  -0.785  1.9417  3.5637  3.2531
  286MOL0     H39424   3.944   5.364  -1.047  1.7225  1.2098 -0.8675
  286MOL0     H39425   3.858   5.508  -1.019 -0.1245  0.1112  0.8415
  286MOL0     H39426   4.093   5.375  -1.188 -1.2756  1.3516 -2.0168
  286MOL0     H39427   4.268   5.421  -1.456 -0.9607 -2.2432 -1.6809
  286MOL0     H39428   4.205   5.290  -1.359  0.3089 -0.4191 -3.6525
  286MOL0     H39429   4.377   5.319  -1.350  0.0235  0.3741  1.9053
  286MOL0     H39430   4.735   5.622  -1.381 -2.0907 -0.4424  0.6620
  286MOL0     H39431   4.955   5.739  -1.392  1.7352  3.2947 -3.8623
  286MOL0     H39432   5.032   5.977  -1.522  1.6309  1.2297 -1.0088
  286MOL0     H39433   4.950   6.116  -1.470  0.7411 -0.4699  0.2094
  286MOL0     H39434   5.236   6.035  -1.397  0.7206 -0.9765 -1.1881
  286MOL0     H39435   5.198   6.158  -1.508 -2.0503 -1.4380 -2.0298
  286MOL0     H39436   5.247   6.279  -1.314 -0.2754 -1.0028 -4.5519
  286MOL0     H39437   5.161   6.171  -1.208 -3.1257  1.6641  1.3026
  286MOL0     H39438   4.948   6.273  -1.272  0.2304  1.5332  1.1937
  286MOL0     H39439   5.033   6.352  -1.415  0.6538  0.6125 -0.1473
  286MOL0     H39440   4.994   6.419  -1.130  0.2993  0.7524  1.2866
  286MOL0     H39441   5.157   6.432  -1.173 -0.0486  0.8480  1.8766
  286MOL0     H39442   4.941   6.587  -1.334 -1.7055  1.7504  1.5067
  286MOL0     H39443   5.108   6.594  -1.362 -2.3252  1.7005 -0.8252
  286MOL0     H39444   5.120   6.779  -1.256 -1.1092  1.5265  1.4706
  286MOL0     H39445   5.109   6.688  -1.104  3.4635 -2.0973 -1.8635
  286MOL0     H39446   4.865   6.823  -1.254  0.8659  4.2752  1.5987
  286MOL0     H39447   4.949   6.858  -1.105 -0.1664  0.5537 -0.7282
  286MOL0     H39448   4.761   6.097  -1.232 -1.5718  0.5051  1.2586
  286MOL0     H39449   4.544   5.965  -1.255 -1.2745 -0.3949 -3.4936
  286MOL0     H39450   4.338   5.792  -1.136 -0.9893  0.7219  1.4654
  286MOL0     H39451   4.194   5.722  -0.958  1.7703  2.3019 -1.4792
  286MOL0     H39452   2.760   5.654   0.229  3.3569  0.0621  0.5424
  286MOL0     H39453   2.746   5.471   0.413  0.8193  0.3201  0.3506
  286MOL0     H39454   2.633   5.104   0.502 -0.2888 -0.5629  2.7184
  286MOL0     H39455   2.520   4.938   0.620  0.0652  1.6393 -1.2137
  286MOL0     H39456   2.665   4.522   0.628 -4.7664 -0.1780  0.3606
  286MOL0     H39457   2.773   4.595   0.739 -0.4436 -0.5731  3.1241
  286MOL0     H39458   2.638   4.399   0.826  2.3071  0.4929  1.5211
  286MOL0     H39459   2.491   4.488   0.804  0.6348  0.3568 -5.3406
  286MOL0     H39460   2.729   4.566   0.981  0.2323  0.1933  0.0767
  286MOL0     H39461   2.588   4.667   0.959 -0.3755  0.0135 -0.1666
  286MOL0     H39462   2.629   4.392   1.092  2.1593  0.3244  1.5277
  286MOL0     H39463   2.475   4.484   1.098  0.4745 -1.0882 -1.3509
  286MOL0     H39464   2.678   4.656   1.413 -1.5804  2.9815 -1.8547
  286MOL0     H39465   2.842   4.662   0.538  0.7690  0.6733  1.6219
  286MOL0     H39466   3.069   4.818   0.459 -0.7515 -0.4335 -0.6251
  286MOL0     H39467   2.987   4.705   0.352 -2.5375  0.3320 -1.7290
  286MOL0     H39468   3.025   4.863   0.296 -0.0590 -1.2098 -0.5776
  287MOL0     O39469   4.322  10.812   6.106  0.4374  0.0614 -0.5347
  287MOL0     C39470   4.221  10.879   6.131  0.7623  0.8471 -0.4574
  287MOL0     O39471   4.207  11.019   6.122  0.0361  0.1390  0.6877
  287MOL0     C39472   4.324  11.099   6.096  0.9869 -0.7010 -0.1636
  287MOL0     C39473   4.457  11.061   6.115  1.1936 -0.2198 -0.2124
  287MOL0     C39474   4.558  11.150   6.099 -0.5678  0.1586  0.2979
  287MOL0     C39475   4.532  11.278   6.045 -0.2142 -0.7466 -0.8488
  287MOL0     O39476   4.633  11.368   6.039 -0.3458 -0.0479  0.1305
  287MOL0     C39477   4.639  11.427   5.906 -0.2564  0.2011  0.1829
  287MOL0     C39478   4.779  11.464   5.892 -0.6013 -0.2385 -0.4152
  287MOL0     C39479   4.797  11.512   5.743 -0.8875 -0.0673  0.3879
  287MOL0     C39480   4.944  11.548   5.699  0.3812  1.3314 -0.5716
  287MOL0     C39481   4.935  11.578   5.544 -1.1388 -0.9543  0.7106
  287MOL0     C39482   5.074  11.619   5.498  0.5583 -0.2003  0.7170
  287MOL0     C39483   5.078  11.591   5.349 -0.2213 -0.1044 -0.4286
  287MOL0     C39484   5.203  11.667   5.291  1.4078 -0.8678 -0.3511
  287MOL0     N39485   5.219  11.652   5.143  0.2724 -0.0531 -0.4098
  287MOL0     C39486   5.138  11.702   5.046  0.3558  0.0717 -0.7528
  287MOL0     C39487   5.179  11.648   4.933  0.2135 -0.7565 -0.2731
  287MOL0     C39488   5.121  11.675   4.803 -0.1946  1.1890 -0.4278
  287MOL0     C39489   4.968  11.684   4.797  0.2010 -0.0614  0.0990
  287MOL0     C39490   4.909  11.543   4.813 -0.3049  0.0523  0.1624
  287MOL0     C39491   4.759  11.531   4.763 -1.0816  0.6312 -0.5833
  287MOL0     O39492   4.667  11.610   4.836 -0.2756 -0.0587  0.1240
  287MOL0     C39493   4.536  11.598   4.799  0.2227 -0.1729  0.2121
  287MOL0     C39494   4.445  11.683   4.869  0.2825  0.1293 -0.6160
  287MOL0     C39495   4.302  11.671   4.857  0.5075 -0.1146  0.0171
  287MOL0     C39496   4.225  11.771   4.938  0.0624 -0.2106 -0.0739
  287MOL0     C39497   4.251  11.569   4.769 -0.7215  0.3174  1.2248
  287MOL0     C39498   4.111  11.549   4.739 -0.2942 -0.0804 -0.2212
  287MOL0     O39499   4.085  11.450   4.649  0.4546 -0.0542  0.5480
  287MOL0     C39500   3.968  11.397   4.653  0.8624  0.5207  1.1299
  287MOL0     C39501   3.935  11.275   4.712 -0.1064 -0.5547 -0.1461
  287MOL0     C39502   3.802  11.219   4.715  0.4450  0.4854  0.5700
  287MOL0     C39503   3.698  11.284   4.652 -0.2122  0.2567  0.5119
  287MOL0     O39504   3.573  11.226   4.649 -0.2555  0.0149 -0.6045
  287MOL0     C39505   3.461  11.322   4.618 -0.6877  0.3973 -0.4534
  287MOL0     C39506   3.345  11.330   4.721 -1.2536  0.3586  1.4014
  287MOL0     C39507   3.223  11.415   4.661 -0.3041 -0.1015 -0.0143
  287MOL0     C39508   3.118  11.453   4.762 -0.0668  0.1960  0.9315
  287MOL0     C39509   2.989  11.507   4.698 -0.6289  1.0359 -0.3130
  287MOL0     C39510   2.894  11.530   4.814 -0.0867  0.9240 -0.0464
  287MOL0     C39511   2.749  11.556   4.761 -0.3437 -0.2337 -0.1308
  287MOL0     C39512   2.716  11.710   4.773  0.7299  0.9258 -0.1550
  287MOL0    Cl39513   2.570  11.750   4.677  0.5000 -0.0075  0.1574
  287MOL0     C39514   3.732  11.411   4.587 -0.1170 -0.8445 -0.7983
  287MOL0     C39515   3.864  11.460   4.580 -0.2655 -0.3501 -0.2276
  287MOL0     O39516   4.029  11.619   4.796  1.3454  0.3227 -0.7257
  287MOL0     C39517   4.340  11.486   4.702  0.9344 -0.7022  0.3779
  287MOL0     C39518   4.478  11.498   4.714  0.7166 -0.3552 -0.5604
  287MOL0     N39519   5.279  11.563   4.961  0.1658  0.1218 -0.8926
  287MOL0     N39520   5.298  11.555   5.089 -0.1129 -0.1225 -0.1553
  287MOL0     C39521   4.403  11.301   5.996  0.2488 -0.4536  0.1206
  287MOL0     C39522   4.298  11.217   6.032 -0.3482  0.7307  0.4357
  287MOL0     C39523   4.100  10.818   6.182  0.9266  0.3250  0.3546
  287MOL0     C39524   4.040  10.715   6.109 -0.1400  0.3942 -0.2841
  287MOL0     C39525   3.912  10.667   6.148 -0.8958  1.0716  0.3749
  287MOL0     C39526   3.841  10.724   6.246  0.9162 -0.0234  0.1323
  287MOL0     O39527   3.716  10.664   6.261  0.4427  0.3117 -0.2319
  287MOL0     C39528   3.656  10.696   6.394  0.5061  0.2908  0.2879
  287MOL0     C39529   3.534  10.607   6.417  0.2329  0.4138  0.3630
  287MOL0     C39530   3.554  10.468   6.469  0.3875 -0.4813 -0.8907
  287MOL0     C39531   3.626  10.370   6.382 -0.4267 -0.0056 -1.0963
  287MOL0     C39532   3.553  10.347   6.255  0.4062 -0.3129  0.3324
  287MOL0     C39533   3.479  10.325   6.166  0.1872 -0.3010  0.3663
  287MOL0     C39534   3.894  10.837   6.313  0.4098  0.2616  1.0509
  287MOL0     C39535   4.026  10.870   6.290  0.8402 -1.5927  0.3382
  287MOL0     C39536   4.066  10.993   6.378 -0.0076  0.0610 -0.0205
  287MOL0     H39537   4.482  10.963   6.155 -0.3985  0.2819  2.2307
  287MOL0     H39538   4.655  11.114   6.130  0.0332  1.7586  0.3617
  287MOL0     H39539   4.578  11.517   5.904  1.1092  1.1537 -1.9008
  287MOL0     H39540   4.590  11.368   5.827 -2.8438  0.0149  1.7914
  287MOL0     H39541   4.800  11.548   5.959 -1.3652  1.6886 -2.4596
  287MOL0     H39542   4.836  11.374   5.918 -0.4520  0.1070  0.4694
  287MOL0     H39543   4.770  11.433   5.672  0.1497 -0.2994  0.2326
  287MOL0     H39544   4.734  11.599   5.725 -0.0513  0.8606  1.7841
  287MOL0     H39545   4.985  11.631   5.756 -0.1086  2.1181 -1.3373
  287MOL0     H39546   5.004  11.457   5.713 -1.9956 -0.3909 -0.8799
  287MOL0     H39547   4.869  11.660   5.515  3.3032  2.7776  0.0162
  287MOL0     H39548   4.905  11.487   5.492 -1.9161  0.2903 -1.1365
  287MOL0     H39549   5.094  11.724   5.518  0.2248 -0.1329  0.6881
  287MOL0     H39550   5.155  11.564   5.548  0.0260 -1.2871  0.4225
  287MOL0     H39551   5.000  11.647   5.295 -1.3888 -1.7179 -0.4760
  287MOL0     H39552   5.071  11.486   5.320  0.3843  0.2249 -1.8273
  287MOL0     H39553   5.207  11.774   5.313 -0.6732 -0.9315  0.6368
  287MOL0     H39554   5.282  11.620   5.349  0.2540 -0.5099  1.5859
  287MOL0     H39555   5.043  11.753   5.055  0.5432  0.1080  2.1613
  287MOL0     H39556   5.160  11.604   4.729  2.3410 -0.1483  2.0199
  287MOL0     H39557   5.166  11.771   4.774  2.1348  0.0442 -0.8766
  287MOL0     H39558   4.915  11.753   4.864 -1.2507  0.9231 -1.9587
  287MOL0     H39559   4.947  11.728   4.699  3.3057 -0.3887 -0.8214
  287MOL0     H39560   4.959  11.471   4.748  0.0404  1.3818 -1.0915
  287MOL0     H39561   4.925  11.503   4.914  3.8114 -0.8903 -0.6726
  287MOL0     H39562   4.751  11.550   4.655  1.3782 -1.4158 -1.2267
  287MOL0     H39563   4.734  11.425   4.770  1.8275 -0.1625 -0.9362
  287MOL0     H39564   4.483  11.752   4.944 -1.7022 -1.7279  2.3234
  287MOL0     H39565   4.140  11.727   4.990 -0.5781 -2.3890 -2.7691
  287MOL0     H39566   4.197  11.852   4.870  1.7918 -0.9749 -1.7704
  287MOL0     H39567   4.298  11.808   5.011  3.5875 -2.8127 -1.9741
  287MOL0     H39568   4.016  11.221   4.760 -1.1311 -0.1907  2.1162
  287MOL0     H39569   3.795  11.116   4.749 -0.1442 -0.2163 -1.5276
  287MOL0     H39570   3.481  11.430   4.611  0.4224  0.4580  2.4235
  287MOL0     H39571   3.414  11.290   4.524  1.7691  1.5859 -2.1976
  287MOL0     H39572   3.309  11.229   4.740  1.1918 -0.6230  1.1258
  287MOL0     H39573   3.372  11.378   4.816  0.3225  4.1251 -0.7188
  287MOL0     H39574   3.165  11.357   4.588  0.6459 -0.5345 -0.4459
  287MOL0     H39575   3.264  11.509   4.622 -1.3263  0.5933  0.5632
  287MOL0     H39576   3.155  11.532   4.828 -2.8247 -0.8856  4.0142
  287MOL0     H39577   3.107  11.359   4.816 -1.2053 -1.1217 -1.4550
  287MOL0     H39578   3.014  11.602   4.650  0.2097  0.6335 -0.6882
  287MOL0     H39579   2.955  11.433   4.625  0.9959 -0.7247  0.6113
  287MOL0     H39580   2.930  11.611   4.878 -0.0381  1.4130 -0.6806
  287MOL0     H39581   2.887  11.438   4.873  1.9033  0.7657  0.0014
  287MOL0     H39582   2.668  11.500   4.809  0.1285 -1.1701 -0.4146
  287MOL0     H39583   2.751  11.529   4.655 -0.3338 -0.3569 -0.0991
  287MOL0     H39584   2.802  11.767   4.738  1.5186 -0.2435 -0.2035
  287MOL0     H39585   2.698  11.733   4.878 -0.1211 -1.0627  0.1929
  287MOL0     H39586   3.670  11.473   4.523 -0.8053  1.2200  1.6649
  287MOL0     H39587   3.870  11.550   4.520 -3.7949  0.7147  0.8077
  287MOL0     H39588   4.306  11.418   4.624  1.4473  3.3456 -3.8461
  287MOL0     H39589   4.548  11.430   4.666  1.8230  0.6131 -0.3774
  287MOL0     H39590   4.385  11.398   5.951  2.8968  0.1233  0.1185
  287MOL0     H39591   4.194  11.242   6.011 -1.4831 -1.0916  3.2722
  287MOL0     H39592   4.091  10.666   6.027 -0.6893 -0.2863 -0.2310
  287MOL0     H39593   3.875  10.581   6.093  1.6682  1.1305 -1.6131
  287MOL0     H39594   3.719  10.701   6.483 -1.2660 -1.3236  1.7115
  287MOL0     H39595   3.632  10.799   6.367  2.4791  1.1354  1.5458
  287MOL0     H39596   3.479  10.592   6.323 -0.5825  0.9483  0.7422
  287MOL0     H39597   3.463  10.660   6.481  0.2827  4.3768 -2.4857
  287MOL0     H39598   3.600  10.473   6.568 -1.5744 -0.4006  0.0709
  287MOL0     H39599   3.454  10.430   6.492  0.1837  1.5452  2.1451
  287MOL0     H39600   3.629  10.275   6.437 -1.0128  1.2727  1.2396
  287MOL0     H39601   3.730  10.399   6.363 -0.0144 -0.1961  0.7002
  287MOL0     H39602   3.411  10.319   6.084 -0.1630  1.5641  0.4834
  287MOL0     H39603   3.835  10.896   6.382 -1.8340  1.4686 -1.7170
  287MOL0     H39604   4.046  10.990   6.486 -0.5047 -2.7313 -0.1080
  287MOL0     H39605   4.174  11.011   6.388  0.3139 -1.1974 -0.9091
  287MOL0     H39606   4.017  11.086   6.349 -1.4209 -1.4807 -2.8972
  288MOL0     O39607  10.217   0.505  11.107  0.3692  0.5148 -0.1081
  288MOL0     C39608  10.197   0.621  11.125  0.6139 -0.3904 -0.2121
  288MOL0     O39609  10.289   0.726  11.111 -0.2434  0.1459  0.3085
  288MOL0     C39610  10.422   0.679  11.105 -0.6554 -0.1611 -0.2268
  288MOL0     C39611  10.491   0.642  11.220 -0.0155  0.2145 -0.6283
  288MOL0     C39612  10.623   0.590  11.211  0.2113 -0.2484 -0.3881
  288MOL0     C39613  10.683   0.573  11.095 -0.5831  0.1487  0.2577
  288MOL0     O39614  10.813   0.537  11.100 -0.9514  0.4385 -0.2500
  288MOL0     C39615  10.908   0.644  11.063  0.5330 -0.2408  0.0795
  288MOL0     C39616  11.054   0.600  11.076  1.0416  1.1158 -0.2159
  288MOL0     C39617  11.148   0.715  11.035 -0.4191  0.1769 -0.0176
  288MOL0     C39618  11.281   0.702  11.098 -0.5900  0.6516  0.0949
  288MOL0     C39619  11.363   0.579  11.061  0.0068 -0.1175 -0.0703
  288MOL0     C39620  11.493   0.563  11.155  0.1756 -0.3956  0.3298
  288MOL0     C39621  11.589   0.676  11.130 -0.6288  0.2910  0.0275
  288MOL0     C39622  11.743   0.644  11.120  0.2408  0.3985  0.4100
  288MOL0     N39623  11.760   0.543  11.013  0.1235  0.4698  0.0795
  288MOL0     C39624  11.768   0.409  11.036  0.2714  0.4503  0.8205
  288MOL0     C39625  11.784   0.344  10.918  0.9164  0.2708  0.2059
  288MOL0     C39626  11.789   0.197  10.895 -0.3545 -0.3687 -0.3075
  288MOL0     C39627  11.648   0.139  10.853  0.8280  0.6794  0.3972
  288MOL0     C39628  11.559   0.129  10.972 -0.4788  0.1676  0.6693
  288MOL0     C39629  11.441   0.040  10.938  0.6992  0.6252 -0.1992
  288MOL0     O39630  11.341   0.113  10.873 -0.0961 -0.1063  1.0465
  288MOL0     C39631  11.245   0.027  10.818  0.1227 -0.1088 -0.2097
  288MOL0     C39632  11.270  -0.017  10.686  0.6270  0.4994 -0.1900
  288MOL0     C39633  11.189  -0.111  10.625  0.3882 -0.6810 -0.2121
  288MOL0     C39634  11.220  -0.155  10.488  0.5299 -0.2420 -0.1454
  288MOL0     C39635  11.069  -0.150  10.688  0.6081 -0.2044  0.0026
  288MOL0     C39636  10.965  -0.236  10.618  1.5323  0.5966 -0.2672
  288MOL0     O39637  10.896  -0.329  10.696  0.1526  0.3703  0.4134
  288MOL0     C39638  10.962  -0.414  10.775  0.2003  0.3149 -0.6719
  288MOL0     C39639  11.103  -0.429  10.793 -0.6605 -0.3435 -0.5213
  288MOL0     C39640  11.150  -0.533  10.886 -0.7545 -0.8516  0.3964
  288MOL0     C39641  11.064  -0.616  10.952  0.1429  1.2799  0.3048
  288MOL0     O39642  11.122  -0.710  11.034 -0.3418  0.1698  0.4240
  288MOL0     C39643  11.038  -0.799  11.108 -0.3765 -0.0647 -0.1091
  288MOL0     C39644  11.125  -0.878  11.200 -0.5210 -0.3118 -0.4179
  288MOL0     C39645  11.034  -0.949  11.296 -0.1765 -0.1693 -1.0185
  288MOL0     C39646  11.078  -0.909  11.444  0.2836 -0.3222 -0.6180
  288MOL0     C39647  10.988  -0.956  11.561 -0.1576  0.4770  0.2589
  288MOL0     C39648  11.035  -0.886  11.688 -0.2584  0.4116  0.4052
  288MOL0     C39649  10.922  -0.882  11.794  0.5858 -0.0267 -0.1582
  288MOL0     C39650  10.906  -1.019  11.860 -0.6614 -0.1288  0.6597
  288MOL0    Cl39651  10.769  -1.008  11.982  0.7452 -0.8511 -0.6402
  288MOL0     C39652  10.929  -0.590  10.942  0.3399 -0.3019  0.0121
  288MOL0     C39653  10.876  -0.492  10.858  0.9308  0.3244  0.3575
  288MOL0     O39654  10.932  -0.204  10.504 -0.2643  0.0853  0.4171
  288MOL0     C39655  11.043  -0.107  10.818  0.2114 -0.3973 -1.5508
  288MOL0     C39656  11.134  -0.023  10.881  0.7727  1.2374 -0.4954
  288MOL0     N39657  11.795   0.449  10.820 -0.7455  0.2297  0.0650
  288MOL0     N39658  11.772   0.566  10.880  0.0219  0.7761  0.6988
  288MOL0     C39659  10.617   0.622  10.977 -0.1810  0.1085 -0.6224
  288MOL0     C39660  10.490   0.675  10.980  0.0095  0.8954  0.7763
  288MOL0     C39661  10.052   0.654  11.128 -0.7385 -0.0364 -0.2335
  288MOL0     C39662  10.000   0.777  11.058 -0.3318 -0.6478  0.0288
  288MOL0     C39663   9.869   0.796  11.041  0.3518  0.5926 -1.4421
  288MOL0     C39664   9.779   0.695  11.070 -0.0192  0.2437 -0.2577
  288MOL0     O39665   9.643   0.721  11.055  0.2140 -0.0381 -0.4990
  288MOL0     C39666   9.610   0.731  10.914  0.3645  0.5310  0.0250
  288MOL0     C39667   9.551   0.598  10.880  0.4292 -0.5477  0.1548
  288MOL0     C39668   9.405   0.591  10.928 -0.6588 -0.0468 -0.8846
  288MOL0     C39669   9.304   0.554  10.822 -0.0326  0.2108 -0.4569
  288MOL0     C39670   9.160   0.538  10.876 -0.9194  0.1584 -0.9525
  288MOL0     C39671   9.053   0.507  10.926  1.0419  0.0469  0.6551
  288MOL0     C39672   9.819   0.582  11.144 -0.1544  0.4463  0.5415
  288MOL0     C39673   9.955   0.556  11.162  0.4637 -0.5585  0.0071
  288MOL0     C39674   9.988   0.442  11.256  0.0160  0.0603  0.4582
  288MOL0     H39675  10.444   0.656  11.316  0.0828 -1.2791 -0.3306
  288MOL0     H39676  10.673   0.544  11.296 -2.1752  0.2641  1.3817
  288MOL0     H39677  10.890   0.735  11.121  1.1873 -1.4521  2.3313
  288MOL0     H39678  10.884   0.666  10.959 -2.1199 -2.6160  0.0761
  288MOL0     H39679  11.074   0.579  11.181  1.0385  0.6927 -0.2976
  288MOL0     H39680  11.060   0.510  11.013 -0.4617  1.8517 -1.4617
  288MOL0     H39681  11.171   0.702  10.929 -1.0702  2.3764 -0.4785
  288MOL0     H39682  11.099   0.812  11.041 -3.1493 -1.1267  0.3740
  288MOL0     H39683  11.331   0.797  11.079 -2.5235  1.9435  1.1347
  288MOL0     H39684  11.263   0.695  11.205  2.5700 -1.0167  0.6570
  288MOL0     H39685  11.404   0.594  10.960  0.1332 -0.4270 -0.0650
  288MOL0     H39686  11.299   0.491  11.071  3.6796 -3.1597 -1.0882
  288MOL0     H39687  11.457   0.550  11.257 -2.9300 -0.2803 -0.6529
  288MOL0     H39688  11.534   0.468  11.120  2.3039  0.1220  1.2503
  288MOL0     H39689  11.583   0.749  11.211  2.4732  3.1479 -2.0678
  288MOL0     H39690  11.560   0.728  11.039  0.4553  3.5247  1.3907
  288MOL0     H39691  11.791   0.741  11.104  1.1786  0.3689  2.6671
  288MOL0     H39692  11.780   0.604  11.215 -0.3561 -0.8195  0.1398
  288MOL0     H39693  11.744   0.360  11.130  0.1219  1.1962  1.1788
  288MOL0     H39694  11.817   0.142  10.986 -0.6504  0.5748  0.3766
  288MOL0     H39695  11.849   0.180  10.805  0.1747 -0.1250 -0.0037
  288MOL0     H39696  11.602   0.197  10.772 -1.4696 -1.9038 -0.3400
  288MOL0     H39697  11.660   0.044  10.801 -4.1245  0.2266 -0.4573
  288MOL0     H39698  11.616   0.066  11.041 -1.2026 -3.1042 -1.5023
  288MOL0     H39699  11.535   0.229  11.009  2.2706  1.8428 -1.6848
  288MOL0     H39700  11.471  -0.051  10.886 -0.1787 -0.6146  1.3864
  288MOL0     H39701  11.396   0.014  11.035 -1.6587 -1.7547 -1.7945
  288MOL0     H39702  11.363   0.014  10.641 -0.2465 -0.2419 -2.6792
  288MOL0     H39703  11.177  -0.084  10.416 -0.6152 -1.2970 -0.5331
  288MOL0     H39704  11.179  -0.253  10.461  2.8478 -0.8881 -1.5840
  288MOL0     H39705  11.328  -0.161  10.480  0.7551  1.8366  0.5668
  288MOL0     H39706  11.183  -0.372  10.747  3.0885 -1.3163  3.9643
  288MOL0     H39707  11.256  -0.555  10.893 -0.4195  0.8273  0.9845
  288MOL0     H39708  10.961  -0.746  11.165 -3.3799 -2.9605 -1.1250
  288MOL0     H39709  10.976  -0.864  11.046 -2.6050 -3.0185  4.6029
  288MOL0     H39710  11.190  -0.949  11.149 -0.8910 -1.1343  0.2238
  288MOL0     H39711  11.189  -0.803  11.248 -1.3744 -0.2089  0.6149
  288MOL0     H39712  11.052  -1.057  11.286  0.1137  0.1142 -4.9155
  288MOL0     H39713  10.927  -0.925  11.298 -0.6211 -2.0263  0.5808
  288MOL0     H39714  11.077  -0.800  11.438 -1.8103 -0.3066 -1.0306
  288MOL0     H39715  11.178  -0.946  11.466  0.0209  0.3362  2.1038
  288MOL0     H39716  10.888  -0.918  11.538 -0.3391  0.6102  1.2434
  288MOL0     H39717  11.000  -1.064  11.571  3.3080  0.6422 -0.6259
  288MOL0     H39718  11.055  -0.780  11.671 -0.1280  0.0147 -2.4868
  288MOL0     H39719  11.125  -0.928  11.732  0.8013  1.9179 -0.2562
  288MOL0     H39720  10.831  -0.836  11.754  0.4100 -0.1879  0.0503
  288MOL0     H39721  10.940  -0.804  11.870 -2.8959  2.2816 -1.4398
  288MOL0     H39722  10.998  -1.051  11.908  1.2918  1.1356 -1.9901
  288MOL0     H39723  10.890  -1.106  11.796  0.2055 -1.2314  1.8960
  288MOL0     H39724  10.860  -0.648  11.002 -0.7945  1.6989  0.7206
  288MOL0     H39725  10.768  -0.493  10.844  1.1565 -0.3917 -1.9065
  288MOL0     H39726  10.941  -0.112  10.856  1.0824 -2.1099  0.7967
  288MOL0     H39727  11.100  -0.004  10.982 -2.6259 -1.7946 -0.8604
  288MOL0     H39728  10.656   0.620  10.876  1.2908  3.0065 -0.2115
  288MOL0     H39729  10.438   0.716  10.893 -0.8646  1.5313  1.5826
  288MOL0     H39730  10.065   0.850  11.012 -2.0397  1.3550  0.6678
  288MOL0     H39731   9.821   0.887  11.006  0.0727  1.9096  1.9342
  288MOL0     H39732   9.554   0.821  10.889 -1.8202 -0.6022  0.6449
  288MOL0     H39733   9.701   0.730  10.852 -0.2479 -4.3369 -1.2368
  288MOL0     H39734   9.611   0.511  10.909  1.0719 -0.8644 -2.0151
  288MOL0     H39735   9.550   0.586  10.772  0.7958 -2.2636  0.3073
  288MOL0     H39736   9.408   0.524  11.014  0.8228  1.6361  0.4540
  288MOL0     H39737   9.376   0.690  10.964  0.3167  0.2352 -0.8222
  288MOL0     H39738   9.336   0.464  10.770 -0.6379  0.7142 -1.7544
  288MOL0     H39739   9.315   0.637  10.751  1.2127  2.3015  2.0055
  288MOL0     H39740   8.957   0.479  10.964  1.2524 -1.1178  0.3917
  288MOL0     H39741   9.737   0.515  11.168  1.9113 -2.6448 -0.2924
  288MOL0     H39742  10.075   0.464  11.318  0.5177 -1.6603  0.4208
  288MOL0     H39743   9.917   0.423  11.337  1.0383  0.3795  1.4487
  288MOL0     H39744  10.009   0.361  11.186  0.8219  0.7742 -0.1482
  289MOL0     O39745  11.385  10.836   8.133 -0.0614  0.7367  0.2366
  289MOL0     C39746  11.329  10.925   8.065 -0.4447 -0.3898 -0.3781
  289MOL0     O39747  11.387  11.058   8.059 -0.3065  0.2282  0.3953
  289MOL0     C39748  11.482  11.080   8.149 -0.1111  0.3678 -0.0795
  289MOL0     C39749  11.446  11.098   8.288  0.5892  0.3614  0.0989
  289MOL0     C39750  11.550  11.124   8.379 -0.0966  1.2098 -0.1983
  289MOL0     C39751  11.681  11.123   8.344  0.2427  0.0093  0.8552
  289MOL0     O39752  11.769  11.137   8.449 -0.3788 -0.7876 -0.6591
  289MOL0     C39753  11.907  11.174   8.425  0.5792 -0.5250  0.1112
  289MOL0     C39754  12.003  11.053   8.387  0.3748 -0.0234 -0.2286
  289MOL0     C39755  12.153  11.097   8.425  0.2681  0.6287 -0.1699
  289MOL0     C39756  12.223  11.146   8.301 -0.2463 -0.1130 -0.1993
  289MOL0     C39757  12.370  11.150   8.314  0.8260  0.4654 -0.0785
  289MOL0     C39758  12.426  11.255   8.205  0.5188  0.4382 -0.1956
  289MOL0     C39759  12.580  11.257   8.207 -0.0556  0.6841  0.0448
  289MOL0     C39760  12.631  11.358   8.100 -0.0276 -0.6318 -0.0586
  289MOL0     N39761  12.591  11.495   8.134 -0.3846 -0.7985  0.3248
  289MOL0     C39762  12.476  11.557   8.087  0.3106 -0.0854 -1.2336
  289MOL0     C39763  12.506  11.689   8.110 -0.2592  0.7705 -0.5906
  289MOL0     C39764  12.433  11.814   8.073  0.3662  0.5485  0.9706
  289MOL0     C39765  12.327  11.857   8.183  0.1266  0.4937  0.2490
  289MOL0     C39766  12.270  12.000   8.167  0.7560 -0.6645  0.2522
  289MOL0     C39767  12.370  12.109   8.165  0.6574  0.0950  0.4486
  289MOL0     O39768  12.426  12.123   8.294 -0.0453  0.4887  0.2545
  289MOL0     C39769  12.549  12.181   8.318 -0.5632  0.2571 -0.0937
  289MOL0     C39770  12.622  12.145   8.430 -0.6062  0.1678  0.1061
  289MOL0     C39771  12.741  12.210   8.469 -0.0267  0.7746  0.6637
  289MOL0     C39772  12.794  12.172   8.604 -0.3132  0.4979 -0.0338
  289MOL0     C39773  12.793  12.317   8.386  0.3006  0.4438  0.5614
  289MOL0     C39774  12.908  12.400   8.417  0.4005  0.5653 -0.0240
  289MOL0     O39775  12.944  12.395   8.543  0.2676  0.0614  0.2005
  289MOL0     C39776  13.067  12.446   8.577  0.4595 -0.3499 -0.6064
  289MOL0     C39777  13.185  12.404   8.515  0.1951 -0.3266  0.4798
  289MOL0     C39778  13.312  12.435   8.562 -0.0499 -0.2752 -0.7136
  289MOL0     C39779  13.323  12.491   8.692 -0.1547 -0.8387  0.4131
  289MOL0     O39780  13.445  12.509   8.733 -0.4849  0.8080  0.2544
  289MOL0     C39781  13.480  12.605   8.832  0.4661 -0.1620  0.3492
  289MOL0     C39782  13.631  12.650   8.827  0.9424  0.4742  0.0008
  289MOL0     C39783  13.713  12.523   8.808 -0.0531  0.1362  0.6412
  289MOL0     C39784  13.860  12.544   8.808  0.2902  0.0722 -0.4471
  289MOL0     C39785  13.941  12.413   8.774  0.2803 -0.0559  1.5035
  289MOL0     C39786  14.099  12.441   8.778  0.2219  0.4255  0.0639
  289MOL0     C39787  14.185  12.307   8.768  0.1660 -0.3906 -0.0665
  289MOL0     C39788  14.194  12.218   8.888 -0.4135 -1.0208 -1.4467
  289MOL0    Cl39789  14.284  12.072   8.846 -0.2662 -0.8190 -0.6179
  289MOL0     C39790  13.207  12.523   8.758 -0.4286 -0.1570  0.1237
  289MOL0     C39791  13.083  12.505   8.701 -0.5793 -0.2177 -0.4058
  289MOL0     O39792  12.953  12.480   8.337  0.1561 -0.2399 -0.1999
  289MOL0     C39793  12.715  12.347   8.273 -0.3694  0.1213  0.4963
  289MOL0     C39794  12.603  12.279   8.243 -0.9775 -0.4020  0.1380
  289MOL0     N39795  12.638  11.697   8.158 -0.4258  1.0243  0.2332
  289MOL0     N39796  12.686  11.584   8.174 -0.2912  1.1020  0.6145
  289MOL0     C39797  11.714  11.105   8.209 -0.0353  0.0559  0.6110
  289MOL0     C39798  11.618  11.092   8.109 -0.0488  0.5355  0.1945
  289MOL0     C39799  11.203  10.892   7.993  0.1259 -0.4997 -0.5413
  289MOL0     C39800  11.128  11.000   7.936  0.5664 -0.2236  0.3987
  289MOL0     C39801  11.015  10.984   7.858 -0.0679 -0.2217 -1.1976
  289MOL0     C39802  10.966  10.861   7.838  1.0671  0.1302 -0.1944
  289MOL0     O39803  10.844  10.834   7.776 -0.3047 -0.4954 -0.0559
  289MOL0     C39804  10.760  10.941   7.712  0.5462 -0.6953 -0.4521
  289MOL0     C39805  10.672  11.036   7.799  0.5071 -0.1203  0.1690
  289MOL0     C39806  10.612  10.968   7.928 -0.4281  0.5441  0.2717
  289MOL0     C39807  10.519  10.844   7.893 -0.2447  0.1957 -0.7600
  289MOL0     C39808  10.439  10.858   7.774 -0.6076  0.9198  0.0294
  289MOL0     C39809  10.386  10.880   7.673 -0.4937 -0.7047  0.2906
  289MOL0     C39810  11.036  10.749   7.898 -0.5013  0.3107  0.3077
  289MOL0     C39811  11.147  10.770   7.970 -0.5673  0.6448  0.0809
  289MOL0     C39812  11.207  10.637   8.032  0.1602  0.6770  0.5333
  289MOL0     H39813  11.343  11.067   8.306 -0.1192 -0.8696 -4.6986
  289MOL0     H39814  11.517  11.131   8.482 -2.2322  1.0688 -0.8312
  289MOL0     H39815  11.959  11.222   8.508  0.7463 -0.6876  0.1019
  289MOL0     H39816  11.908  11.256   8.352 -1.9087 -0.8791 -0.4067
  289MOL0     H39817  11.978  10.971   8.456 -1.6574  0.2757 -0.5419
  289MOL0     H39818  11.984  11.014   8.287 -2.3704 -3.0965  1.2771
  289MOL0     H39819  12.147  11.170   8.506 -0.9816 -0.1971  0.5189
  289MOL0     H39820  12.200  11.010   8.472 -0.5203  1.9539  3.4017
  289MOL0     H39821  12.194  11.095   8.209 -3.0438 -0.0680  0.5630
  289MOL0     H39822  12.186  11.248   8.297 -0.9236 -0.3515 -0.1023
  289MOL0     H39823  12.408  11.049   8.303  0.4480  0.1277  1.4630
  289MOL0     H39824  12.401  11.194   8.410 -0.8025  0.9421  0.2757
  289MOL0     H39825  12.398  11.227   8.104  2.9676 -0.5034 -0.6891
  289MOL0     H39826  12.387  11.356   8.222  1.5579  0.9890 -0.9590
  289MOL0     H39827  12.609  11.155   8.183 -1.1027  0.1769  0.8761
  289MOL0     H39828  12.637  11.280   8.297 -0.0240 -1.3556  0.5863
  289MOL0     H39829  12.738  11.346   8.080 -0.1488  1.3805 -2.4191
  289MOL0     H39830  12.586  11.348   8.000  1.3570  3.6672 -1.3205
  289MOL0     H39831  12.387  11.518   8.040 -0.4941  0.0646  0.0913
  289MOL0     H39832  12.390  11.806   7.973  0.8095  2.1108  0.6238
  289MOL0     H39833  12.505  11.896   8.059 -0.7732  1.7086  1.6618
  289MOL0     H39834  12.247  11.782   8.179  0.4275  0.2454 -2.3182
  289MOL0     H39835  12.368  11.836   8.283 -0.1640 -0.9737  0.0801
  289MOL0     H39836  12.197  12.002   8.086 -0.4653  1.0678  1.3189
  289MOL0     H39837  12.213  12.014   8.259 -0.2740  3.9760 -0.8261
  289MOL0     H39838  12.439  12.087   8.083 -0.4884 -3.1040  0.2133
  289MOL0     H39839  12.331  12.209   8.142  1.9767  0.4400 -0.4051
  289MOL0     H39840  12.580  12.061   8.486  2.2375 -2.0012 -0.7916
  289MOL0     H39841  12.738  12.085   8.639 -0.3718 -0.7649 -2.9566
  289MOL0     H39842  12.776  12.250   8.678 -1.1078 -0.6969  1.0778
  289MOL0     H39843  12.901  12.153   8.613 -0.5003 -0.2222  0.9022
  289MOL0     H39844  13.175  12.356   8.418 -1.6391  2.6483 -0.9556
  289MOL0     H39845  13.403  12.401   8.513  0.1085  0.3626 -0.8821
  289MOL0     H39846  13.414  12.690   8.810 -1.4596 -1.3561  1.1997
  289MOL0     H39847  13.457  12.570   8.933 -2.1326  0.2292 -0.0172
  289MOL0     H39848  13.638  12.718   8.741 -1.9133  1.7302  0.6510
  289MOL0     H39849  13.665  12.701   8.917  2.1787  0.6112 -0.5279
  289MOL0     H39850  13.685  12.471   8.715 -0.3281 -0.0107  0.8036
  289MOL0     H39851  13.687  12.449   8.885 -0.0938  0.2289  0.7170
  289MOL0     H39852  13.899  12.586   8.901 -0.6135  1.3192 -0.6157
  289MOL0     H39853  13.886  12.625   8.739  1.1383  1.4634  1.4267
  289MOL0     H39854  13.914  12.331   8.842 -4.6590 -0.6308 -0.7193
  289MOL0     H39855  13.920  12.382   8.672 -1.6478 -0.3227  1.9463
  289MOL0     H39856  14.125  12.496   8.869 -1.4913  0.3320  0.6409
  289MOL0     H39857  14.120  12.504   8.691 -0.7747 -0.4752 -0.8577
  289MOL0     H39858  14.287  12.347   8.758 -0.7056  2.1570  0.5743
  289MOL0     H39859  14.163  12.243   8.682 -0.7250  1.1002 -0.9985
  289MOL0     H39860  14.094  12.190   8.923  0.6169 -2.7755  0.2894
  289MOL0     H39861  14.244  12.273   8.968 -1.3761 -0.8868 -0.9308
  289MOL0     H39862  13.223  12.569   8.856  0.6837 -0.5794  0.1587
  289MOL0     H39863  12.995  12.534   8.758  1.2148 -0.8576  2.9614
  289MOL0     H39864  12.735  12.440   8.220 -2.6544  0.6964  0.5462
  289MOL0     H39865  12.558  12.324   8.155 -1.5724  0.0221  0.6494
  289MOL0     H39866  11.816  11.094   8.172 -0.3476  4.2014 -2.1220
  289MOL0     H39867  11.653  11.082   8.007  1.3992  1.7471  0.5424
  289MOL0     H39868  11.158  11.100   7.969  2.4614 -1.0493  1.3344
  289MOL0     H39869  10.962  11.074   7.830 -3.1048 -1.3530  0.4722
  289MOL0     H39870  10.822  11.005   7.648 -1.3643 -0.0680 -1.7573
  289MOL0     H39871  10.682  10.908   7.643 -1.0024 -1.6108  1.6442
  289MOL0     H39872  10.599  11.086   7.736  1.4474 -0.0757 -0.9108
  289MOL0     H39873  10.735  11.115   7.841 -1.2628 -0.7709  4.6485
  289MOL0     H39874  10.698  10.942   7.991 -0.6482 -1.7903 -0.2985
  289MOL0     H39875  10.543  11.039   7.974  0.4021  0.6561  1.4001
  289MOL0     H39876  10.455  10.813   7.976  0.2692  4.1447  1.3298
  289MOL0     H39877  10.585  10.757   7.878 -1.3435 -0.8455  0.2531
  289MOL0     H39878  10.342  10.923   7.585  0.1864 -0.2278  0.1770
  289MOL0     H39879  10.991  10.650   7.892 -1.5734  0.7884  0.0999
  289MOL0     H39880  11.174  10.544   7.986  0.7382  0.7374 -0.0239
  289MOL0     H39881  11.316  10.629   8.025 -0.0553 -1.8668 -0.8873
  289MOL0     H39882  11.176  10.640   8.137  2.3762  1.9614  1.2188
  290MOL0     O39883   9.175   2.847   0.512 -0.1335  0.3538 -0.4477
  290MOL0     C39884   9.136   2.883   0.399 -0.2109  0.6282 -0.5247
  290MOL0     O39885   9.223   2.942   0.307 -0.4616 -0.4370 -0.4081
  290MOL0     C39886   9.363   2.954   0.319 -0.7082  0.2139  0.0065
  290MOL0     C39887   9.450   2.900   0.411  0.4689 -0.8058 -0.0385
  290MOL0     C39888   9.594   2.908   0.395  0.8994 -0.4545 -0.4269
  290MOL0     C39889   9.648   2.997   0.303 -0.0287 -0.2255  0.0297
  290MOL0     O39890   9.779   2.989   0.298 -0.6731  0.4574  0.2327
  290MOL0     C39891   9.843   3.099   0.243  0.6438 -0.7261 -0.4761
  290MOL0     C39892   9.996   3.072   0.258  0.0096 -0.0018 -0.8724
  290MOL0     C39893  10.080   3.193   0.221 -0.3714 -0.4411  0.5421
  290MOL0     C39894  10.223   3.184   0.287  0.1565  0.0681 -0.0995
  290MOL0     C39895  10.308   3.306   0.268  0.5729  0.3746  0.4190
  290MOL0     C39896  10.420   3.282   0.165  0.2167  1.1436 -0.0608
  290MOL0     C39897  10.502   3.412   0.158  0.5358  0.0034 -0.4598
  290MOL0     C39898  10.610   3.397   0.049  0.0873  0.0478 -0.2606
  290MOL0     N39899  10.688   3.282   0.079 -0.4360 -0.3003  0.4442
  290MOL0     C39900  10.786   3.270   0.177 -0.5263 -0.6192  0.6689
  290MOL0     C39901  10.830   3.143   0.165  0.9740 -0.3152 -0.7535
  290MOL0     C39902  10.925   3.069   0.263 -0.0976 -0.0178  0.2754
  290MOL0     C39903  11.068   3.075   0.215  0.3424 -0.1189  0.3550
  290MOL0     C39904  11.146   2.963   0.291  0.1136  0.4308  0.0655
  290MOL0     C39905  11.287   2.956   0.228  0.4804 -0.0028 -1.2608
  290MOL0     O39906  11.279   2.923   0.086  0.8943 -0.2929  0.2983
  290MOL0     C39907  11.397   2.893   0.023  0.0830  0.1914  0.3343
  290MOL0     C39908  11.509   2.825   0.072 -0.1440  0.5286  0.5372
  290MOL0     C39909  11.616   2.783  -0.008 -0.1018  0.0454 -0.3857
  290MOL0     C39910  11.718   2.695   0.063  0.2710  0.0222  0.1856
  290MOL0     C39911  11.618   2.823  -0.148 -0.2293 -0.0513 -0.3481
  290MOL0     C39912  11.738   2.813  -0.244  0.1401  0.1527 -0.0338
  290MOL0     O39913  11.721   2.857  -0.371  0.2907  0.0574  0.5294
  290MOL0     C39914  11.824   2.876  -0.454  0.2614  0.0110  0.1686
  290MOL0     C39915  11.955   2.918  -0.416 -0.1378  0.2186 -0.4742
  290MOL0     C39916  12.056   2.936  -0.509  0.0931 -0.5596 -0.3941
  290MOL0     C39917  12.035   2.910  -0.642  0.1744 -0.1526  0.2177
  290MOL0     O39918  12.141   2.931  -0.734  0.1472  0.2396 -0.3994
  290MOL0     C39919  12.111   3.006  -0.861  1.6295 -0.0255 -0.2088
  290MOL0     C39920  12.246   3.044  -0.928  0.1373  1.8014  0.0955
  290MOL0     C39921  12.304   2.939  -1.023  0.2608 -0.3451  1.1117
  290MOL0     C39922  12.371   2.824  -0.936  0.1120  0.1612 -0.1385
  290MOL0     C39923  12.489   2.765  -1.000 -0.0696  1.0507 -0.4196
  290MOL0     C39924  12.617   2.859  -1.021 -0.2486  0.0453  0.8386
  290MOL0     C39925  12.736   2.775  -1.062 -0.3806 -0.3424  0.0097
  290MOL0     C39926  12.859   2.824  -0.975 -0.3961  0.4276  0.5519
  290MOL0    Cl39927  12.996   2.737  -1.043 -0.5556 -0.0837 -0.4564
  290MOL0     C39928  11.911   2.854  -0.680  0.1620  0.4858 -0.7240
  290MOL0     C39929  11.800   2.848  -0.591 -0.1435  0.1673 -0.2706
  290MOL0     O39930  11.843   2.765  -0.200 -0.2540  0.1582 -0.1280
  290MOL0     C39931  11.506   2.896  -0.193 -0.2326  0.0892  1.0477
  290MOL0     C39932  11.402   2.928  -0.112 -0.4159 -0.1966 -0.4073
  290MOL0     N39933  10.770   3.086   0.052  0.3849 -0.6274 -0.1127
  290MOL0     N39934  10.681   3.168   0.004 -1.0425  0.5266 -0.2071
  290MOL0     C39935   9.560   3.069   0.219  0.4031 -0.4992 -1.1659
  290MOL0     C39936   9.418   3.039   0.231  0.3083 -0.1689  1.2095
  290MOL0     C39937   9.004   2.857   0.351  0.1661  1.0814  0.5012
  290MOL0     C39938   8.934   2.953   0.281 -0.3396  0.0199 -0.3045
  290MOL0     C39939   8.809   2.920   0.228 -0.4345 -0.1428  0.6918
  290MOL0     C39940   8.746   2.794   0.259 -1.1914 -0.5029 -0.6118
  290MOL0     O39941   8.620   2.767   0.219 -0.0961  0.4265  0.2049
  290MOL0     C39942   8.594   2.767   0.078  0.1316 -0.5135  0.7431
  290MOL0     C39943   8.692   2.686  -0.007 -0.1520  0.2075  0.5647
  290MOL0     C39944   8.691   2.538   0.034  0.2140  0.2217  0.9999
  290MOL0     C39945   8.579   2.466  -0.035 -1.0019 -0.4013 -0.1738
  290MOL0     C39946   8.553   2.328   0.009  0.4732 -0.0675  0.8482
  290MOL0     C39947   8.521   2.221   0.052 -0.5603 -0.4528  0.2351
  290MOL0     C39948   8.815   2.709   0.337  0.2169  0.0559  0.8664
  290MOL0     C39949   8.935   2.731   0.395 -0.4146  1.1763 -0.2778
  290MOL0     C39950   9.003   2.621   0.479  0.5151 -0.7447  1.2958
  290MOL0     H39951   9.405   2.835   0.486  2.0406 -0.2605  1.4428
  290MOL0     H39952   9.655   2.842   0.456  0.6071  0.3002  0.7095
  290MOL0     H39953   9.816   3.187   0.302 -0.4810  0.5431 -2.7275
  290MOL0     H39954   9.821   3.122   0.138  2.9759 -0.9499 -1.0760
  290MOL0     H39955  10.012   3.043   0.362  0.0929 -1.4402 -1.2656
  290MOL0     H39956  10.023   2.990   0.191  1.0032 -0.5246  0.1260
  290MOL0     H39957  10.091   3.198   0.112  0.7518  0.0616  0.6648
  290MOL0     H39958  10.030   3.280   0.264 -1.8990 -0.8007 -0.4322
  290MOL0     H39959  10.219   3.159   0.394 -0.1817  2.3027  0.4599
  290MOL0     H39960  10.264   3.096   0.235  1.2540  0.4711  0.0549
  290MOL0     H39961  10.355   3.337   0.362  0.3840  1.4548  0.1751
  290MOL0     H39962  10.247   3.392   0.240  0.0438  0.3292  1.3724
  290MOL0     H39963  10.482   3.198   0.197 -0.0020  0.6491 -0.9107
  290MOL0     H39964  10.383   3.269   0.062  0.0255  0.2084  0.1188
  290MOL0     H39965  10.539   3.438   0.258 -1.3287  0.8657  0.0607
  290MOL0     H39966  10.429   3.484   0.121 -1.0187 -0.6341  1.2167
  290MOL0     H39967  10.555   3.375  -0.043  1.2343 -2.9507 -0.3408
  290MOL0     H39968  10.673   3.485   0.034  2.4785 -1.6535 -0.8516
  290MOL0     H39969  10.810   3.343   0.254  0.0712 -0.2354  0.1223
  290MOL0     H39970  10.884   2.968   0.263 -1.2623  0.4350 -0.4445
  290MOL0     H39971  10.919   3.118   0.361  0.4602 -0.3185  0.4678
  290MOL0     H39972  11.073   3.053   0.108 -3.3682 -2.7022  0.5342
  290MOL0     H39973  11.117   3.172   0.229  0.4385 -0.0488 -0.4194
  290MOL0     H39974  11.161   2.988   0.396  0.7431  0.7365 -0.0944
  290MOL0     H39975  11.099   2.864   0.286 -0.7473  0.6825  2.3247
  290MOL0     H39976  11.350   3.046   0.233  0.4486  0.1708 -3.1837
  290MOL0     H39977  11.350   2.880   0.276  2.2820  1.5002 -1.1272
  290MOL0     H39978  11.512   2.788   0.174 -1.5636 -1.0619  0.0503
  290MOL0     H39979  11.699   2.589   0.049 -0.1288  0.0688  0.3596
  290MOL0     H39980  11.711   2.730   0.167  0.4310  3.6788 -0.8979
  290MOL0     H39981  11.824   2.709   0.040  1.3533 -2.5030  3.0134
  290MOL0     H39982  11.976   2.947  -0.314 -1.7809 -1.1565  0.3276
  290MOL0     H39983  12.159   2.957  -0.482  0.7603 -3.3819 -0.3966
  290MOL0     H39984  12.056   2.949  -0.936  1.6132 -0.6490  0.2724
  290MOL0     H39985  12.060   3.097  -0.826  1.5693 -0.3121  0.4701
  290MOL0     H39986  12.224   3.134  -0.987 -3.6353  2.1253  1.7146
  290MOL0     H39987  12.323   3.071  -0.855 -1.5974 -0.3770  2.9432
  290MOL0     H39988  12.377   2.980  -1.092  0.2233  3.2645  2.9810
  290MOL0     H39989  12.231   2.896  -1.092 -0.0897  0.6020  0.8800
  290MOL0     H39990  12.291   2.750  -0.935 -0.6659  0.9506 -1.0954
  290MOL0     H39991  12.399   2.861  -0.837  2.0456  1.1548 -1.0080
  290MOL0     H39992  12.525   2.699  -0.921 -3.5594  0.7686  1.1312
  290MOL0     H39993  12.470   2.706  -1.091  0.3388  0.8742 -0.3907
  290MOL0     H39994  12.633   2.896  -0.920 -0.7132  0.5490  0.7320
  290MOL0     H39995  12.613   2.946  -1.086 -0.3650 -0.9102 -0.4863
  290MOL0     H39996  12.766   2.790  -1.166  1.3548  1.0561  0.6535
  290MOL0     H39997  12.711   2.670  -1.048 -0.7778 -0.5406 -1.9271
  290MOL0     H39998  12.854   2.801  -0.868 -1.2847 -0.5883  0.3037
  290MOL0     H39999  12.869   2.933  -0.983 -2.6319  0.6884  0.8094
  290MOL0     H40000  11.900   2.825  -0.784  3.2833 -0.6454 -0.8576
  290MOL0     H40001  11.710   2.797  -0.624  0.6609 -0.5003 -1.5208
  290MOL0     H40002  11.508   2.916  -0.299 -0.3757  0.7056  1.1570
  290MOL0     H40003  11.315   2.981  -0.149 -1.1129  0.5062  2.0678
  290MOL0     H40004   9.581   3.146   0.145  2.2949 -0.7884 -0.9740
  290MOL0     H40005   9.347   3.100   0.176  1.1123  2.2053  2.6381
  290MOL0     H40006   8.977   3.052   0.268 -0.9294  0.3598  0.2859
  290MOL0     H40007   8.755   2.994   0.169  0.5123 -0.5933 -0.8116
  290MOL0     H40008   8.500   2.717   0.053  0.0622 -0.3583  0.6895
  290MOL0     H40009   8.590   2.862   0.024 -0.3928  0.4015  2.3115
  290MOL0     H40010   8.791   2.723   0.021 -0.4750  0.0275  2.0638
  290MOL0     H40011   8.670   2.706  -0.112 -1.7814 -1.1849  0.5986
  290MOL0     H40012   8.763   2.486  -0.029 -1.8321  0.1350 -1.4101
  290MOL0     H40013   8.705   2.519   0.141  1.4746  3.7565  1.5893
  290MOL0     H40014   8.585   2.468  -0.144 -0.1752 -1.5766 -0.1784
  290MOL0     H40015   8.490   2.527  -0.017 -0.1991  0.2441  1.9718
  290MOL0     H40016   8.485   2.127   0.088 -2.5480  0.5719  1.1139
  290MOL0     H40017   8.774   2.610   0.355  0.8085 -0.1289  1.2564
  290MOL0     H40018   8.928   2.553   0.520 -0.7302  0.8784  1.8654
  290MOL0     H40019   9.079   2.573   0.416 -0.2838  2.4523 -2.5574
  290MOL0     H40020   9.051   2.667   0.566  0.1269  2.7439 -0.1707
  291MOL0     O40021   0.628   4.571   2.165  0.8460 -0.0075  0.2857
  291MOL0     C40022   0.611   4.610   2.279  0.4315 -0.1329 -0.1909
  291MOL0     O40023   0.705   4.614   2.380  0.7497 -0.1439 -0.1288
  291MOL0     C40024   0.823   4.543   2.355  0.8149  0.6791 -0.5688
  291MOL0     C40025   0.919   4.607   2.276 -0.5172 -0.9700  0.0141
  291MOL0     C40026   1.031   4.535   2.224  0.2825  0.3765  0.3900
  291MOL0     C40027   1.050   4.404   2.282  0.6530 -0.6292  0.6873
  291MOL0     O40028   1.160   4.326   2.258  0.6634 -0.4610  0.0030
  291MOL0     C40029   1.287   4.398   2.248  0.7810 -0.6343  0.1881
  291MOL0     C40030   1.396   4.293   2.266 -0.0093  0.7670 -0.4567
  291MOL0     C40031   1.516   4.337   2.341  0.0004 -0.1113  0.8374
  291MOL0     C40032   1.493   4.367   2.487  1.4509  0.2533  0.6786
  291MOL0     C40033   1.614   4.429   2.550  0.8766 -0.3009 -0.2116
  291MOL0     C40034   1.743   4.345   2.583 -0.1426  0.7698 -1.1435
  291MOL0     C40035   1.713   4.213   2.648 -0.1937  0.1487 -0.5587
  291MOL0     C40036   1.848   4.142   2.679 -0.2968  0.4990 -0.9524
  291MOL0     N40037   1.815   4.003   2.707  0.2240 -0.0543  0.6261
  291MOL0     C40038   1.769   3.957   2.828  0.2549  0.6334 -1.3221
  291MOL0     C40039   1.718   3.837   2.808  0.7503  0.2924  0.1188
  291MOL0     C40040   1.661   3.749   2.914  0.6928 -0.3727 -0.8992
  291MOL0     C40041   1.512   3.697   2.898  0.0827  0.3202 -0.6213
  291MOL0     C40042   1.472   3.618   2.778 -0.5170 -0.1181 -1.1802
  291MOL0     C40043   1.349   3.537   2.790 -0.1861 -0.2060  1.0135
  291MOL0     O40044   1.249   3.628   2.835  0.5345  0.1781  0.1940
  291MOL0     C40045   1.133   3.571   2.884 -0.8679 -0.4898  0.6676
  291MOL0     C40046   1.036   3.671   2.922 -0.2776  0.0107  0.1056
  291MOL0     C40047   0.915   3.639   2.989 -0.5763  0.8214  0.6379
  291MOL0     C40048   0.834   3.753   3.044 -0.5864 -0.7887  0.3936
  291MOL0     C40049   0.882   3.499   2.991  1.2384 -0.3485 -0.4313
  291MOL0     C40050   0.743   3.447   3.050 -0.7980  0.2537  0.2437
  291MOL0     O40051   0.724   3.316   3.057 -0.3009 -0.2933  1.0499
  291MOL0     C40052   0.599   3.273   3.091  0.4546  0.2126  0.1329
  291MOL0     C40053   0.559   3.239   3.220  0.0756 -0.1721  0.1372
  291MOL0     C40054   0.425   3.198   3.242 -0.2076 -0.0799 -0.2183
  291MOL0     C40055   0.335   3.183   3.136  0.2147  0.7839  0.1367
  291MOL0     O40056   0.212   3.137   3.191 -0.8053 -0.5082  0.2182
  291MOL0     C40057   0.103   3.124   3.098  0.3146 -0.1545  0.6701
  291MOL0     C40058   0.009   3.023   3.166  0.0160  0.0326  0.4702
  291MOL0     C40059  -0.127   3.086   3.222  0.5360 -0.2484 -0.7836
  291MOL0     C40060  -0.204   2.969   3.273  0.2622  0.4086 -1.3417
  291MOL0     C40061  -0.352   3.008   3.327 -0.2709  0.4079  0.4699
  291MOL0     C40062  -0.440   2.891   3.361 -0.9952  0.2034  0.1407
  291MOL0     C40063  -0.586   2.939   3.346 -0.4776  0.5468 -0.1813
  291MOL0     C40064  -0.690   2.841   3.378  0.2705  0.1791  0.2074
  291MOL0    Cl40065  -0.691   2.854   3.564  0.3146 -0.3566  0.2138
  291MOL0     C40066   0.370   3.225   3.005  0.1695 -0.2538 -0.7511
  291MOL0     C40067   0.507   3.263   2.987 -0.0379 -0.6849 -0.4687
  291MOL0     O40068   0.670   3.532   3.087 -0.3132 -0.6050  0.8151
  291MOL0     C40069   0.969   3.410   2.941  0.2669  0.3203  0.5161
  291MOL0     C40070   1.097   3.437   2.888 -0.4991  0.3380 -0.7754
  291MOL0     N40071   1.726   3.811   2.675  0.5987  0.2812  0.2846
  291MOL0     N40072   1.778   3.906   2.612 -0.5454 -0.3128 -1.1012
  291MOL0     C40073   0.959   4.356   2.373 -0.0813  0.2436 -0.0283
  291MOL0     C40074   0.846   4.418   2.417 -0.2929  0.2752 -0.0625
  291MOL0     C40075   0.479   4.673   2.307 -0.0388  0.2865 -0.2495
  291MOL0     C40076   0.403   4.717   2.197 -0.0784 -0.0835  0.3274
  291MOL0     C40077   0.278   4.780   2.210 -0.1015  0.4764  0.0103
  291MOL0     C40078   0.223   4.796   2.335  0.3024 -0.7024  0.6351
  291MOL0     O40079   0.100   4.850   2.363  0.1441 -0.6738  0.1583
  291MOL0     C40080   0.003   4.888   2.265  0.0542  0.0584 -0.3628
  291MOL0     C40081  -0.136   4.896   2.330  0.5434 -0.3237  0.4202
  291MOL0     C40082  -0.242   4.931   2.221  0.6046 -0.4553  0.9237
  291MOL0     C40083  -0.376   4.947   2.279  0.8836 -0.2778  0.4430
  291MOL0     C40084  -0.390   5.074   2.347 -0.2093  0.0681  0.0625
  291MOL0     C40085  -0.418   5.188   2.396 -0.2366 -0.4472 -0.1584
  291MOL0     C40086   0.293   4.763   2.439  0.4047 -0.5633 -0.4342
  291MOL0     C40087   0.413   4.697   2.436 -0.1746  0.3942  0.0328
  291MOL0     C40088   0.493   4.663   2.562  0.8336  0.4643 -0.3737
  291MOL0     H40089   0.891   4.703   2.233 -0.8591 -0.6650  0.8914
  291MOL0     H40090   1.093   4.579   2.147 -0.4591 -1.1393 -1.1292
  291MOL0     H40091   1.295   4.474   2.326 -1.5776 -1.2334  1.0891
  291MOL0     H40092   1.289   4.455   2.154  1.8769 -1.2704 -0.2017
  291MOL0     H40093   1.363   4.200   2.313 -0.0028  0.4524 -1.0626
  291MOL0     H40094   1.425   4.266   2.164  3.6019  1.2924  0.2723
  291MOL0     H40095   1.597   4.263   2.337  2.1043  2.0960  0.1427
  291MOL0     H40096   1.543   4.426   2.283  4.2308 -0.6447  1.6697
  291MOL0     H40097   1.404   4.431   2.494  0.8700 -0.2982 -1.1465
  291MOL0     H40098   1.464   4.276   2.541  0.5121 -0.7724 -1.4372
  291MOL0     H40099   1.589   4.477   2.645  2.1280  2.2322 -1.0926
  291MOL0     H40100   1.650   4.514   2.492 -3.6810  1.3271 -1.0734
  291MOL0     H40101   1.804   4.324   2.495  0.2898 -1.0981 -0.4618
  291MOL0     H40102   1.795   4.414   2.650 -3.8711  1.4514  1.3624
  291MOL0     H40103   1.651   4.153   2.581  0.8498 -0.9117 -0.6004
  291MOL0     H40104   1.652   4.229   2.737 -0.7055 -1.2839 -0.6271
  291MOL0     H40105   1.911   4.138   2.589  2.9389  0.5049  1.1713
  291MOL0     H40106   1.897   4.188   2.765  1.1764 -0.1714 -1.4102
  291MOL0     H40107   1.766   4.014   2.920  2.5965  0.7288 -1.2572
  291MOL0     H40108   1.659   3.809   3.005 -1.5842 -3.3569  1.2013
  291MOL0     H40109   1.724   3.660   2.921  1.2159 -0.0247 -1.1131
  291MOL0     H40110   1.491   3.638   2.988 -0.2752  2.4855  0.7945
  291MOL0     H40111   1.435   3.775   2.896 -0.7648 -0.4920 -0.8720
  291MOL0     H40112   1.481   3.676   2.686  0.8986 -1.5777 -2.0253
  291MOL0     H40113   1.552   3.543   2.768 -1.5272 -1.1597 -1.6439
  291MOL0     H40114   1.316   3.484   2.700  2.0150 -1.5918  0.9302
  291MOL0     H40115   1.367   3.464   2.870  2.0734  0.5468  1.2783
  291MOL0     H40116   1.053   3.777   2.910 -1.3631  0.4699  2.2947
  291MOL0     H40117   0.867   3.855   3.021 -2.3148  0.0875  1.5826
  291MOL0     H40118   0.827   3.759   3.153  0.1263 -4.5260  0.7757
  291MOL0     H40119   0.734   3.745   3.002 -0.1362 -3.2910 -0.3865
  291MOL0     H40120   0.635   3.239   3.297  2.3049 -0.8435 -1.9236
  291MOL0     H40121   0.388   3.162   3.338 -1.7515  0.3292 -0.6385
  291MOL0     H40122   0.059   3.224   3.089  0.2420 -0.3520 -2.1306
  291MOL0     H40123   0.121   3.091   2.995  0.9257 -3.0659  1.6161
  291MOL0     H40124  -0.007   2.937   3.099 -0.3751  0.5718 -0.1421
  291MOL0     H40125   0.057   2.997   3.260 -1.1515 -3.6022  0.2219
  291MOL0     H40126  -0.178   3.134   3.138 -0.7094  1.6139  0.9547
  291MOL0     H40127  -0.097   3.165   3.291  0.6076  0.3542 -1.4856
  291MOL0     H40128  -0.143   2.912   3.344  1.4774  1.8934 -1.1526
  291MOL0     H40129  -0.222   2.904   3.187  2.3047 -0.1819 -1.3637
  291MOL0     H40130  -0.342   3.075   3.413  1.6491  1.5232 -0.5520
  291MOL0     H40131  -0.393   3.064   3.242 -0.7775 -2.2543 -1.1489
  291MOL0     H40132  -0.407   2.863   3.461  0.8785 -2.5616 -1.1164
  291MOL0     H40133  -0.417   2.812   3.288 -0.9612  1.0739 -0.8220
  291MOL0     H40134  -0.601   2.954   3.238  2.2059  0.3091 -0.6623
  291MOL0     H40135  -0.608   3.030   3.403 -0.5201 -1.6201  3.5068
  291MOL0     H40136  -0.651   2.743   3.350  0.5774  0.1262  0.8066
  291MOL0     H40137  -0.790   2.853   3.335 -0.0306 -2.4050  0.0055
  291MOL0     H40138   0.283   3.219   2.941 -0.3401  0.6127 -0.1636
  291MOL0     H40139   0.539   3.282   2.885 -0.0180 -0.3017 -0.3935
  291MOL0     H40140   0.942   3.305   2.928 -2.7442  1.1070 -0.2103
  291MOL0     H40141   1.168   3.361   2.858  1.9126  2.8094 -1.7203
  291MOL0     H40142   0.976   4.256   2.413 -0.1244  0.7654  1.3268
  291MOL0     H40143   0.770   4.377   2.483 -0.4947  0.0065 -0.4567
  291MOL0     H40144   0.442   4.718   2.096 -2.7370  2.1102 -0.7722
  291MOL0     H40145   0.232   4.832   2.127  0.6904  0.7166 -0.2961
  291MOL0     H40146   0.043   4.982   2.226  1.3993 -0.3962 -0.1328
  291MOL0     H40147  -0.005   4.814   2.185 -1.5422  0.1296 -0.2906
  291MOL0     H40148  -0.135   4.979   2.402  1.4570  1.2427 -1.2964
  291MOL0     H40149  -0.166   4.802   2.377 -1.0069 -1.0163 -1.7751
  291MOL0     H40150  -0.199   5.024   2.182 -1.9385  0.1050 -0.7759
  291MOL0     H40151  -0.242   4.860   2.138  1.5643 -0.2748  0.7582
  291MOL0     H40152  -0.401   4.857   2.335  1.8125  0.4293  2.0510
  291MOL0     H40153  -0.445   4.957   2.195  0.7012  1.8258  0.7783
  291MOL0     H40154  -0.436   5.289   2.427 -0.8103 -1.4563  3.2269
  291MOL0     H40155   0.239   4.776   2.532 -0.6441 -1.0488 -0.9560
  291MOL0     H40156   0.435   4.709   2.643 -1.5737 -0.7933 -1.2863
  291MOL0     H40157   0.499   4.555   2.575  2.5551  0.7282  1.4585
  291MOL0     H40158   0.591   4.713   2.561  1.6054 -0.9549 -2.2541
  292MOL0     O40159   6.458   6.755   0.850  0.1832 -0.3424  0.2651
  292MOL0     C40160   6.541   6.676   0.796  0.1442  0.6468 -0.4561
  292MOL0     O40161   6.507   6.576   0.719  0.3917  0.2808 -0.5351
  292MOL0     C40162   6.386   6.509   0.728 -0.4313 -0.5680  0.0236
  292MOL0     C40163   6.310   6.513   0.840 -0.0453 -0.4628 -0.1674
  292MOL0     C40164   6.179   6.457   0.839  0.3913 -0.7382 -0.1189
  292MOL0     C40165   6.142   6.369   0.737 -0.0992 -0.9048  0.4004
  292MOL0     O40166   6.018   6.312   0.711 -0.2137 -0.2773  0.0797
  292MOL0     C40167   5.915   6.324   0.809  0.2845  0.0163  0.4818
  292MOL0     C40168   5.790   6.308   0.723 -0.2904  0.3718 -0.3322
  292MOL0     C40169   5.665   6.311   0.808 -0.3371 -0.1597 -0.3188
  292MOL0     C40170   5.537   6.302   0.743 -0.2290  0.2709  0.0876
  292MOL0     C40171   5.486   6.423   0.665 -0.3528  0.2114  0.5966
  292MOL0     C40172   5.337   6.420   0.628  1.1153 -0.4263  0.5687
  292MOL0     C40173   5.296   6.285   0.563  0.5018  0.6653  1.1489
  292MOL0     C40174   5.170   6.293   0.486  0.0901  0.1837  0.4877
  292MOL0     N40175   5.193   6.368   0.358  0.3452  0.4999 -0.5945
  292MOL0     C40176   5.250   6.318   0.244 -0.4035  0.1400  1.0776
  292MOL0     C40177   5.266   6.428   0.164 -0.0670  0.0136 -0.5628
  292MOL0     C40178   5.324   6.421   0.021 -0.0712 -0.5967 -0.2390
  292MOL0     C40179   5.410   6.549  -0.007 -0.3139 -0.7380 -0.5931
  292MOL0     C40180   5.490   6.538  -0.142  0.1142 -1.0667 -0.5770
  292MOL0     C40181   5.603   6.644  -0.153 -0.0539 -0.8553 -0.5287
  292MOL0     O40182   5.701   6.626  -0.045  0.7718  0.1180 -0.1918
  292MOL0     C40183   5.806   6.710  -0.051 -0.1650  0.5153  0.2996
  292MOL0     C40184   5.884   6.725  -0.167 -0.2218  0.1138 -0.3411
  292MOL0     C40185   6.010   6.782  -0.167  0.1734  0.6140 -0.9741
  292MOL0     C40186   6.089   6.801  -0.285 -0.1125 -0.4577  1.0911
  292MOL0     C40187   6.060   6.825  -0.036  0.5579 -0.7191  0.5088
  292MOL0     C40188   6.195   6.884  -0.021 -0.6345  0.2676 -0.1756
  292MOL0     O40189   6.210   7.004   0.057 -0.0529  0.3912 -0.0766
  292MOL0     C40190   6.326   7.082   0.042 -0.0097  0.1783 -0.5743
  292MOL0     C40191   6.399   7.109   0.161  0.2483 -0.1586  0.4783
  292MOL0     C40192   6.511   7.195   0.163 -0.0323  0.9274  1.1419
  292MOL0     C40193   6.547   7.262   0.047  0.3064 -0.6851  0.2805
  292MOL0     O40194   6.648   7.350   0.047 -0.9138 -0.0672  0.1703
  292MOL0     C40195   6.763   7.323   0.124  1.2147  0.4051  0.1288
  292MOL0     C40196   6.877   7.370   0.040  0.5424 -0.3440  0.1850
  292MOL0     C40197   7.018   7.367   0.107 -0.3354  0.6443 -0.1153
  292MOL0     C40198   7.110   7.469   0.043 -0.8882 -1.6192  0.0662
  292MOL0     C40199   7.243   7.478   0.125 -0.0815 -0.3315  0.1446
  292MOL0     C40200   7.233   7.585   0.238  0.1201  0.7042  0.8266
  292MOL0     C40201   7.359   7.573   0.322  1.1898 -0.4401 -0.0857
  292MOL0     C40202   7.459   7.683   0.277 -0.6161 -1.7028  0.4006
  292MOL0    Cl40203   7.415   7.848   0.345  0.0194  0.1704 -0.2077
  292MOL0     C40204   6.457   7.259  -0.069 -0.0040 -1.0081 -0.0007
  292MOL0     C40205   6.355   7.157  -0.075  0.3545  0.2973 -1.1376
  292MOL0     O40206   6.288   6.819  -0.068 -0.5005 -0.1746  0.9804
  292MOL0     C40207   5.982   6.838   0.079 -0.0657  0.5258  0.0230
  292MOL0     C40208   5.854   6.766   0.072  0.6919 -0.5894 -0.8519
  292MOL0     N40209   5.202   6.537   0.222 -0.0660  1.3627  0.0509
  292MOL0     N40210   5.159   6.495   0.339 -0.7384  0.0960 -0.2714
  292MOL0     C40211   6.222   6.359   0.624 -0.6642  0.1080  0.2159
  292MOL0     C40212   6.350   6.417   0.632 -0.1308 -1.0045 -0.0508
  292MOL0     C40213   6.687   6.709   0.792  0.0129 -0.3356 -1.1412
  292MOL0     C40214   6.761   6.683   0.681  0.1035 -0.8244 -0.8605
  292MOL0     C40215   6.894   6.730   0.671 -0.4581 -0.9224 -0.4612
  292MOL0     C40216   6.965   6.781   0.781  0.9745 -0.1445 -1.1960
  292MOL0     O40217   7.097   6.822   0.778 -0.3507  0.0405  0.0419
  292MOL0     C40218   7.154   6.874   0.654  0.4525 -0.4028  0.0875
  292MOL0     C40219   7.260   6.768   0.590 -0.3075  0.1792 -0.2498
  292MOL0     C40220   7.220   6.613   0.576 -0.7019 -0.5388 -0.5529
  292MOL0     C40221   7.347   6.535   0.538 -0.2094 -0.0995 -0.7425
  292MOL0     C40222   7.384   6.521   0.396  0.6146  0.8299  0.0537
  292MOL0     C40223   7.411   6.497   0.279 -0.8427 -0.3888 -0.8409
  292MOL0     C40224   6.894   6.798   0.901 -0.1313  0.5785 -0.5128
  292MOL0     C40225   6.759   6.763   0.913 -0.2490 -1.2625  0.0504
  292MOL0     C40226   6.685   6.789   1.044 -0.0272 -0.2227 -0.1076
  292MOL0     H40227   6.344   6.572   0.925  1.5677 -0.0295 -1.0719
  292MOL0     H40228   6.113   6.467   0.924  3.2480 -0.6020  2.2676
  292MOL0     H40229   5.928   6.420   0.859  3.0358  1.9108 -3.4033
  292MOL0     H40230   5.924   6.230   0.864 -1.5864 -1.2193 -1.1871
  292MOL0     H40231   5.794   6.384   0.644  1.1064  1.9535  1.1628
  292MOL0     H40232   5.800   6.211   0.673  1.1497  0.4554 -0.2459
  292MOL0     H40233   5.662   6.233   0.885 -3.1265  0.7900  0.6509
  292MOL0     H40234   5.663   6.407   0.859 -3.2041 -0.4397  0.2705
  292MOL0     H40235   5.546   6.226   0.664 -2.0347  2.0980 -2.0163
  292MOL0     H40236   5.457   6.267   0.808  0.8681 -1.9215  0.3608
  292MOL0     H40237   5.543   6.428   0.572  1.3056 -1.1899  1.4722
  292MOL0     H40238   5.504   6.520   0.712  2.7465  0.6616 -1.1862
  292MOL0     H40239   5.277   6.432   0.718  1.7952 -0.0063  0.9740
  292MOL0     H40240   5.306   6.509   0.572  0.4436  0.8540  2.8797
  292MOL0     H40241   5.299   6.194   0.623  0.7775 -0.1961 -0.1431
  292MOL0     H40242   5.373   6.268   0.488 -0.0606  0.8033  0.5330
  292MOL0     H40243   5.119   6.198   0.469 -2.2930  1.1906  1.5855
  292MOL0     H40244   5.096   6.354   0.539 -1.2596 -0.3873 -0.6939
  292MOL0     H40245   5.292   6.222   0.217 -0.2167  0.8373 -1.3687
  292MOL0     H40246   5.240   6.413  -0.049 -2.5570 -0.8023  2.5483
  292MOL0     H40247   5.379   6.326   0.027 -1.3266 -1.2597  1.7846
  292MOL0     H40248   5.343   6.635  -0.006  0.3424 -0.1820  1.8970
  292MOL0     H40249   5.486   6.552   0.072 -1.3974 -0.6453  0.4593
  292MOL0     H40250   5.527   6.435  -0.145  0.2520 -1.1291  1.5698
  292MOL0     H40251   5.416   6.543  -0.222  0.3476 -0.7650 -0.7772
  292MOL0     H40252   5.652   6.637  -0.250  1.9598 -0.2943  0.3992
  292MOL0     H40253   5.553   6.740  -0.135  1.5421 -0.4653  2.4908
  292MOL0     H40254   5.844   6.692  -0.262 -0.8955  0.9030 -0.3444
  292MOL0     H40255   6.168   6.729  -0.305  0.6772  0.0434  2.2509
  292MOL0     H40256   6.139   6.898  -0.290  2.3718 -1.7383 -0.9314
  292MOL0     H40257   6.021   6.798  -0.371  1.5726 -0.0769 -0.2974
  292MOL0     H40258   6.374   7.054   0.251 -0.0516 -0.9257 -0.0626
  292MOL0     H40259   6.557   7.210   0.260 -0.6670  0.7644  1.4719
  292MOL0     H40260   6.765   7.380   0.217 -0.8094  0.3804  0.2318
  292MOL0     H40261   6.765   7.214   0.139  0.8118  0.6880  2.7275
  292MOL0     H40262   6.893   7.306  -0.047  1.6506 -2.3238  1.7538
  292MOL0     H40263   6.847   7.465  -0.005 -0.2484  0.0489  1.4764
  292MOL0     H40264   7.060   7.266   0.095 -1.9982 -0.1424  0.4741
  292MOL0     H40265   7.005   7.389   0.213 -2.9323  1.2210 -0.4949
  292MOL0     H40266   7.057   7.564   0.036  1.2137 -0.3958 -0.0048
  292MOL0     H40267   7.125   7.433  -0.059 -3.7139  0.2765 -1.1403
  292MOL0     H40268   7.277   7.383   0.167  5.2129  1.6684  1.1443
  292MOL0     H40269   7.324   7.511   0.059  1.6910 -2.7214  0.9897
  292MOL0     H40270   7.152   7.560   0.307  0.9531 -0.5240  1.4087
  292MOL0     H40271   7.230   7.688   0.200 -1.0943 -0.0221 -1.1865
  292MOL0     H40272   7.405   7.474   0.336 -0.5675 -0.9567  3.0114
  292MOL0     H40273   7.322   7.604   0.421  1.5118 -1.1419  0.2630
  292MOL0     H40274   7.462   7.690   0.168  0.6510  0.7645  0.5190
  292MOL0     H40275   7.557   7.645   0.307 -0.0812 -1.5577 -1.0714
  292MOL0     H40276   6.475   7.322  -0.155 -0.2654 -1.9858 -0.7784
  292MOL0     H40277   6.297   7.153  -0.166 -1.0577  2.4996 -0.4080
  292MOL0     H40278   6.024   6.878   0.170 -1.4012 -1.5582  1.6534
  292MOL0     H40279   5.812   6.732   0.166  2.7183 -0.3950  0.1988
  292MOL0     H40280   6.203   6.291   0.541  3.8333  2.1631 -2.9198
  292MOL0     H40281   6.414   6.415   0.544 -1.0076 -0.6520 -0.7132
  292MOL0     H40282   6.707   6.657   0.591 -0.8999  5.0166 -2.4100
  292MOL0     H40283   6.927   6.726   0.568 -2.0350  0.1526 -1.0477
  292MOL0     H40284   7.085   6.904   0.574 -0.9989  1.2058  1.8198
  292MOL0     H40285   7.198   6.971   0.679 -1.0562  0.9385 -2.1350
  292MOL0     H40286   7.355   6.785   0.642  0.6567  1.4930 -2.3184
  292MOL0     H40287   7.283   6.796   0.487  3.5079  1.7525  0.8480
  292MOL0     H40288   7.179   6.578   0.671  0.5951 -1.4685 -0.2974
  292MOL0     H40289   7.140   6.611   0.502  0.3092  0.2265 -1.7062
  292MOL0     H40290   7.346   6.441   0.595 -1.9997  2.3422  3.7763
  292MOL0     H40291   7.434   6.590   0.574  0.8514 -1.2990 -1.3822
  292MOL0     H40292   7.448   6.475   0.181  3.0595  0.4423  0.2760
  292MOL0     H40293   6.957   6.824   0.986 -0.7800 -1.4294  0.6497
  292MOL0     H40294   6.749   6.810   1.130  0.9173 -0.9738 -0.6023
  292MOL0     H40295   6.615   6.872   1.028 -0.2347 -0.7387 -2.2579
  292MOL0     H40296   6.621   6.702   1.065  1.6397 -1.1584  1.3666
  293MOL0     O40297   1.133   0.824   8.928 -0.2565 -0.2971 -0.5567
  293MOL0     C40298   1.095   0.890   9.025 -0.7476 -0.0252 -0.5395
  293MOL0     O40299   1.176   0.941   9.132  0.3253 -0.6736  0.2808
  293MOL0     C40300   1.315   0.939   9.130 -0.5781  0.1120  0.0614
  293MOL0     C40301   1.400   0.933   9.024 -1.0641  0.2861  0.5089
  293MOL0     C40302   1.547   0.928   9.049  0.8387  0.4559 -0.6250
  293MOL0     C40303   1.599   0.925   9.179 -0.2656 -1.3374  0.8216
  293MOL0     O40304   1.735   0.928   9.195  0.3944  0.1386 -0.1029
  293MOL0     C40305   1.789   0.946   9.330 -0.3473  0.0799 -0.1006
  293MOL0     C40306   1.944   0.941   9.338  0.6154  0.0974 -0.3480
  293MOL0     C40307   2.023   0.997   9.222  0.1039 -0.0367  0.5037
  293MOL0     C40308   2.171   1.025   9.254  0.1653  0.6362 -0.2955
  293MOL0     C40309   2.254   0.900   9.308  0.0559 -1.0584 -0.3481
  293MOL0     C40310   2.270   0.800   9.192  0.1673  0.3035  0.1215
  293MOL0     C40311   2.406   0.733   9.177 -0.1760 -0.3351  0.1202
  293MOL0     C40312   2.430   0.627   9.295  0.3180  0.9514 -0.5555
  293MOL0     N40313   2.539   0.535   9.257 -0.1765 -0.7437  0.2223
  293MOL0     C40314   2.532   0.403   9.210  0.1106 -0.1485  1.4036
  293MOL0     C40315   2.665   0.374   9.177 -0.1956  0.4264  0.0069
  293MOL0     C40316   2.729   0.239   9.128  0.2459 -0.5205  0.0974
  293MOL0     C40317   2.649   0.118   9.173 -0.4308 -0.1057 -0.3694
  293MOL0     C40318   2.711  -0.007   9.112  0.6755  1.8871 -0.3958
  293MOL0     C40319   2.857  -0.030   9.147 -0.7024 -0.4525  0.4458
  293MOL0     O40320   2.889  -0.172   9.133  0.6592 -0.1531 -0.6332
  293MOL0     C40321   3.014  -0.214   9.149 -0.5929 -0.3685 -0.3565
  293MOL0     C40322   3.111  -0.137   9.202 -0.4879 -1.1457 -0.7185
  293MOL0     C40323   3.241  -0.182   9.240  0.4465 -0.3939  0.4607
  293MOL0     C40324   3.327  -0.080   9.301 -1.0231  0.3796 -0.5754
  293MOL0     C40325   3.272  -0.316   9.214  0.4981  0.2890  0.4470
  293MOL0     C40326   3.410  -0.380   9.228 -0.1724 -0.2756 -0.2980
  293MOL0     O40327   3.506  -0.320   9.307  0.5968  0.4143  0.4228
  293MOL0     C40328   3.619  -0.387   9.320 -0.5408 -0.1522  0.6042
  293MOL0     C40329   3.689  -0.357   9.436  0.1018 -0.1271 -0.2813
  293MOL0     C40330   3.828  -0.397   9.451  0.2073  0.1913  0.2966
  293MOL0     C40331   3.894  -0.457   9.340  0.6329 -0.8650  0.8211
  293MOL0     O40332   4.027  -0.488   9.342  0.0498  0.6109  0.4084
  293MOL0     C40333   4.084  -0.560   9.456 -0.0652  0.8848 -0.1530
  293MOL0     C40334   4.214  -0.482   9.497 -0.0487  0.4294  0.2954
  293MOL0     C40335   4.286  -0.546   9.615  0.2991 -0.6657  0.1408
  293MOL0     C40336   4.410  -0.468   9.654 -1.0276 -0.1319  0.0126
  293MOL0     C40337   4.445  -0.490   9.805 -0.2313 -0.5966 -0.2135
  293MOL0     C40338   4.368  -0.398   9.908  0.2424 -0.4095 -0.0919
  293MOL0     C40339   4.403  -0.424  10.054  0.7996 -0.1447  0.6531
  293MOL0     C40340   4.381  -0.304  10.145  0.3397 -0.5706 -0.1317
  293MOL0    Cl40341   4.429  -0.355  10.313  0.0700 -0.0264 -0.5884
  293MOL0     C40342   3.829  -0.467   9.216 -0.1736 -0.1262  0.1709
  293MOL0     C40343   3.689  -0.445   9.210 -0.1951  1.1424  0.3498
  293MOL0     O40344   3.409  -0.497   9.195  0.1203 -0.0639  1.2120
  293MOL0     C40345   3.169  -0.396   9.145 -0.6415  0.8798  0.0053
  293MOL0     C40346   3.042  -0.348   9.115 -0.9343 -0.5586  0.4506
  293MOL0     N40347   2.738   0.483   9.227  0.2154  0.0536  0.0184
  293MOL0     N40348   2.666   0.579   9.273  0.4818 -0.0292 -1.0415
  293MOL0     C40349   1.505   0.942   9.281  0.0658  0.2109 -0.1850
  293MOL0     C40350   1.366   0.952   9.258 -0.7091  1.1261 -0.4669
  293MOL0     C40351   0.948   0.890   9.067 -0.7907 -0.3931 -0.3762
  293MOL0     C40352   0.860   0.970   8.996 -0.2932  0.3773  0.7456
  293MOL0     C40353   0.720   0.968   9.020  0.1974 -0.6085  0.1131
  293MOL0     C40354   0.668   0.887   9.126  0.0282 -1.2037  0.5655
  293MOL0     O40355   0.532   0.872   9.147 -0.9062  0.2581  0.9091
  293MOL0     C40356   0.446   0.988   9.121 -0.1155  0.0477 -0.2040
  293MOL0     C40357   0.296   0.970   9.157 -0.2968  0.7729  0.0729
  293MOL0     C40358   0.244   0.852   9.072  0.8180 -0.4125 -0.5491
  293MOL0     C40359   0.088   0.845   9.044  0.0519 -0.3939 -0.8126
  293MOL0     C40360   0.007   0.851   9.164 -0.5364 -1.1198  0.2211
  293MOL0     C40361  -0.064   0.857   9.262 -0.3950  0.0604 -0.3842
  293MOL0     C40362   0.757   0.818   9.206 -0.3276  0.2540  0.0819
  293MOL0     C40363   0.897   0.817   9.175  0.8135 -0.1807 -0.2548
  293MOL0     C40364   0.992   0.742   9.272  0.6193 -0.5790 -0.1766
  293MOL0     H40365   1.363   0.943   8.923 -2.6620 -0.1866  1.0239
  293MOL0     H40366   1.610   0.922   8.960  0.4177  2.2053 -1.0827
  293MOL0     H40367   1.753   0.869   9.399  0.0977  1.3004  1.5674
  293MOL0     H40368   1.760   1.041   9.376  0.3267 -0.0035  0.5265
  293MOL0     H40369   1.977   0.999   9.425  0.2121 -0.5605  0.2546
  293MOL0     H40370   1.960   0.835   9.358 -2.2247 -0.5219 -0.8428
  293MOL0     H40371   2.020   0.926   9.140 -2.2150  0.8589 -0.2663
  293MOL0     H40372   1.975   1.093   9.197 -0.2808 -0.1100  0.9316
  293MOL0     H40373   2.214   1.064   9.161 -0.6624  0.5351 -0.7209
  293MOL0     H40374   2.156   1.101   9.331 -2.9487 -0.1501 -0.0124
  293MOL0     H40375   2.211   0.859   9.400 -1.3091  2.4050  0.7549
  293MOL0     H40376   2.351   0.942   9.334  0.3021 -2.0343  0.3530
  293MOL0     H40377   2.190   0.727   9.211  0.8276 -1.6749 -3.8388
  293MOL0     H40378   2.255   0.848   9.095  2.2142  0.2557 -0.2634
  293MOL0     H40379   2.490   0.803   9.177 -1.3652  1.2701  2.8851
  293MOL0     H40380   2.403   0.678   9.082 -3.6152 -0.3019  0.0663
  293MOL0     H40381   2.436   0.663   9.398 -1.2631 -4.8626  2.0303
  293MOL0     H40382   2.340   0.565   9.306  2.1265 -1.4775  1.7250
  293MOL0     H40383   2.445   0.343   9.187  1.4601 -1.1237 -1.6665
  293MOL0     H40384   2.834   0.234   9.160  0.7920 -0.3122 -1.5793
  293MOL0     H40385   2.743   0.258   9.021 -0.0606  2.3209  0.4873
  293MOL0     H40386   2.649   0.106   9.282 -2.9420 -2.6435 -0.5369
  293MOL0     H40387   2.548   0.130   9.133 -0.8485 -2.5422 -0.1952
  293MOL0     H40388   2.664  -0.095   9.157  0.8864  1.1585 -1.5659
  293MOL0     H40389   2.704  -0.013   9.003 -0.5668 -3.2027 -0.3046
  293MOL0     H40390   2.919   0.030   9.080 -2.0603  0.5695  0.0531
  293MOL0     H40391   2.872   0.014   9.245 -0.5129  1.4476 -0.3865
  293MOL0     H40392   3.080  -0.037   9.229  2.1073 -0.3599 -0.3271
  293MOL0     H40393   3.317  -0.086   9.410 -1.0711 -1.0137 -0.6391
  293MOL0     H40394   3.301   0.025   9.281 -0.6023  0.9544  1.6538
  293MOL0     H40395   3.432  -0.085   9.274 -0.1659  3.0879  1.7593
  293MOL0     H40396   3.637  -0.303   9.514 -0.3547 -1.0250  0.0530
  293MOL0     H40397   3.896  -0.358   9.525  1.3055  0.4202 -0.7952
  293MOL0     H40398   4.007  -0.566   9.534 -1.5342 -1.7938 -1.6587
  293MOL0     H40399   4.110  -0.661   9.424  0.6645  1.0553 -0.1250
  293MOL0     H40400   4.285  -0.455   9.418 -1.2276 -0.0192 -0.9467
  293MOL0     H40401   4.171  -0.390   9.538 -0.0662  2.1077 -3.1099
  293MOL0     H40402   4.305  -0.652   9.595  0.4784 -0.3598 -1.3639
  293MOL0     H40403   4.215  -0.553   9.698  0.2374  0.0983  0.1615
  293MOL0     H40404   4.394  -0.360   9.647 -3.6047 -0.5134 -0.7199
  293MOL0     H40405   4.493  -0.510   9.596 -0.0917 -0.9276  1.8166
  293MOL0     H40406   4.439  -0.595   9.836 -2.4169 -0.2052  0.8532
  293MOL0     H40407   4.552  -0.471   9.817 -0.2334  0.5964 -1.8428
  293MOL0     H40408   4.259  -0.407   9.899  0.2253  0.2709 -0.5788
  293MOL0     H40409   4.390  -0.296   9.877  0.4621 -0.4628 -0.1123
  293MOL0     H40410   4.503  -0.469  10.060  0.6882 -0.2648  2.1952
  293MOL0     H40411   4.331  -0.500  10.084 -0.0903  0.8836  1.1759
  293MOL0     H40412   4.282  -0.259  10.148  0.9593  0.8344  0.1582
  293MOL0     H40413   4.444  -0.218  10.119  0.3290 -0.0233  1.5293
  293MOL0     H40414   3.888  -0.498   9.130  2.8308  1.8706  1.3279
  293MOL0     H40415   3.651  -0.454   9.108  0.7180  0.1945  0.0658
  293MOL0     H40416   3.190  -0.499   9.117 -3.9324 -0.0353  0.5441
  293MOL0     H40417   2.975  -0.422   9.071  1.9136 -2.6458 -0.6861
  293MOL0     H40418   1.534   0.943   9.386  0.5026  2.3060 -0.2744
  293MOL0     H40419   1.288   0.970   9.331 -0.3480 -0.3131  0.2975
  293MOL0     H40420   0.888   1.030   8.910  0.3394  0.1691  0.8072
  293MOL0     H40421   0.654   1.032   8.961 -0.2600 -0.1033  1.1397
  293MOL0     H40422   0.475   1.073   9.183  0.2675  0.3636 -0.8125
  293MOL0     H40423   0.458   1.020   9.017  0.8774  3.1221  0.7583
  293MOL0     H40424   0.234   1.058   9.137  1.1651  1.2492 -2.8532
  293MOL0     H40425   0.287   0.944   9.263  3.9730 -0.9804  0.1794
  293MOL0     H40426   0.294   0.871   8.977 -0.4063  1.6625 -0.8477
  293MOL0     H40427   0.272   0.755   9.114 -1.2460 -0.9993 -0.3713
  293MOL0     H40428   0.070   0.754   8.986 -1.5361  0.9737 -2.6076
  293MOL0     H40429   0.040   0.927   8.989 -5.3253  0.2931  4.0028
  293MOL0     H40430  -0.130   0.852   9.347 -1.4786  2.0591 -1.0467
  293MOL0     H40431   0.725   0.753   9.287 -1.4122  1.4725  0.6675
  293MOL0     H40432   1.033   0.819   9.338  1.3805 -0.1238 -1.1597
  293MOL0     H40433   0.945   0.656   9.321 -0.4783 -0.2000 -0.5413
  293MOL0     H40434   1.078   0.705   9.214  0.8825 -0.3394  0.0587
  294MOL0     O40435   3.854   0.159   1.435  0.1060  0.4280  0.1157
  294MOL0     C40436   3.780   0.181   1.338 -0.3525 -0.2529 -0.4500
  294MOL0     O40437   3.804   0.155   1.203 -0.8537  0.2568  0.5230
  294MOL0     C40438   3.930   0.117   1.168  0.2335  0.7502 -0.7877
  294MOL0     C40439   4.045   0.193   1.187  0.1420 -0.3668 -0.0987
  294MOL0     C40440   4.162   0.136   1.143 -0.5850  0.3871 -0.6616
  294MOL0     C40441   4.164   0.014   1.062  0.7774 -0.7457 -0.3311
  294MOL0     O40442   4.274  -0.054   1.021  0.8947 -0.8441  0.4513
  294MOL0     C40443   4.399   0.014   1.033 -0.2804 -0.0548  0.0178
  294MOL0     C40444   4.496  -0.066   0.951 -0.2539  0.4143  0.3557
  294MOL0     C40445   4.507  -0.222   0.971 -0.6085 -0.1664  1.1936
  294MOL0     C40446   4.643  -0.269   0.911 -0.3775 -0.5349  0.4863
  294MOL0     C40447   4.640  -0.408   0.871  0.0775  0.1843  0.7064
  294MOL0     C40448   4.774  -0.465   0.839 -0.2358 -0.5057  0.0157
  294MOL0     C40449   4.854  -0.496   0.960  0.0316 -0.2229  0.8311
  294MOL0     C40450   5.000  -0.542   0.934  0.2649 -0.3834  0.5985
  294MOL0     N40451   5.082  -0.513   1.047  0.3734 -0.2699 -0.1736
  294MOL0     C40452   5.086  -0.591   1.159  0.5781  0.1293  0.0388
  294MOL0     C40453   5.151  -0.514   1.250  0.7149  0.2675 -0.1470
  294MOL0     C40454   5.169  -0.540   1.392 -0.1514 -0.7193  0.3295
  294MOL0     C40455   5.294  -0.622   1.423  0.3877  0.6217 -0.1426
  294MOL0     C40456   5.320  -0.614   1.576 -0.2024  0.2838 -0.7263
  294MOL0     C40457   5.438  -0.705   1.618  0.0504 -0.6659 -0.2602
  294MOL0     O40458   5.401  -0.835   1.584  0.0310  0.4296 -0.1996
  294MOL0     C40459   5.483  -0.923   1.652  0.7394 -0.5639 -0.5624
  294MOL0     C40460   5.415  -1.046   1.694 -0.6217  0.8375 -0.7018
  294MOL0     C40461   5.485  -1.149   1.769  0.4944 -0.6927 -0.0635
  294MOL0     C40462   5.419  -1.285   1.769  0.0397 -0.1020 -0.2990
  294MOL0     C40463   5.617  -1.128   1.818 -1.1099 -0.4802 -0.1657
  294MOL0     C40464   5.708  -1.228   1.888  0.6743  0.1538  0.0256
  294MOL0     O40465   5.837  -1.191   1.908  0.7175  0.8092  0.2771
  294MOL0     C40466   5.918  -1.291   1.960 -0.1645  0.5477  0.3827
  294MOL0     C40467   5.904  -1.344   2.090 -0.7381 -0.3085 -0.6580
  294MOL0     C40468   5.977  -1.455   2.127 -0.0833 -0.0503 -1.1000
  294MOL0     C40469   6.073  -1.510   2.045  0.1503  0.2243  0.7165
  294MOL0     O40470   6.157  -1.601   2.108 -0.7670 -0.2534 -0.3658
  294MOL0     C40471   6.300  -1.601   2.074  0.2065  0.2507  0.3208
  294MOL0     C40472   6.377  -1.734   2.120  0.5240 -0.6538 -0.2897
  294MOL0     C40473   6.524  -1.709   2.111 -0.2537 -0.6531  0.0268
  294MOL0     C40474   6.601  -1.843   2.119 -1.0861 -0.6617 -0.4228
  294MOL0     C40475   6.750  -1.841   2.085 -0.6717  0.4929 -0.2093
  294MOL0     C40476   6.829  -1.763   2.191  1.4989 -0.0134 -0.0531
  294MOL0     C40477   6.975  -1.785   2.178 -0.2742  0.4767 -0.4737
  294MOL0     C40478   7.020  -1.764   2.031  0.7885 -0.2321  0.2653
  294MOL0    Cl40479   7.203  -1.748   2.030 -0.1792  0.0254 -0.3688
  294MOL0     C40480   6.084  -1.464   1.910  0.7618  0.3226 -0.7454
  294MOL0     C40481   6.010  -1.348   1.876 -0.9598  0.1175  0.2584
  294MOL0     O40482   5.656  -1.337   1.921 -0.1046  0.3371 -0.0925
  294MOL0     C40483   5.680  -1.009   1.778  0.2170 -0.5870  1.0519
  294MOL0     C40484   5.614  -0.910   1.698 -0.4368  0.7007 -0.7199
  294MOL0     N40485   5.183  -0.397   1.191 -0.4385  1.1734  1.2434
  294MOL0     N40486   5.126  -0.396   1.077  0.0731  0.1547  0.3969
  294MOL0     C40487   4.044  -0.055   1.044 -0.1171 -0.8938  0.1832
  294MOL0     C40488   3.929  -0.005   1.099 -0.0877 -0.9140  0.3735
  294MOL0     C40489   3.646   0.204   1.380 -0.6422 -0.5361 -0.6364
  294MOL0     C40490   3.628   0.291   1.484 -0.2211  0.1095 -0.4477
  294MOL0     C40491   3.496   0.308   1.540  0.2709  0.9004 -0.2722
  294MOL0     C40492   3.388   0.253   1.473  0.2017  0.1250  0.3166
  294MOL0     O40493   3.254   0.285   1.501  0.0275 -0.1378 -0.6101
  294MOL0     C40494   3.235   0.377   1.600 -0.0043 -0.0897 -0.8643
  294MOL0     C40495   3.092   0.410   1.631  0.4131  0.0510 -0.8787
  294MOL0     C40496   3.070   0.457   1.780 -0.6866  0.6964  0.3728
  294MOL0     C40497   2.935   0.495   1.836  0.4598 -0.3024  0.5465
  294MOL0     C40498   2.949   0.573   1.957 -0.2665 -0.1517  0.0740
  294MOL0     C40499   2.958   0.634   2.069 -0.1943  0.2925  0.6642
  294MOL0     C40500   3.405   0.165   1.361  0.0385 -0.1092 -0.7435
  294MOL0     C40501   3.536   0.125   1.326  0.7164  0.0321 -0.0253
  294MOL0     C40502   3.542   0.004   1.233 -0.1199  0.6125 -0.8294
  294MOL0     H40503   4.036   0.288   1.239 -0.3603  0.0564 -0.9528
  294MOL0     H40504   4.252   0.191   1.173 -0.4333 -0.9440  1.5386
  294MOL0     H40505   4.437   0.003   1.135 -0.9113 -0.5103  0.2095
  294MOL0     H40506   4.401   0.116   0.993  1.3981 -0.8171 -2.0131
  294MOL0     H40507   4.472  -0.046   0.847 -1.2682  3.2104  1.0462
  294MOL0     H40508   4.595  -0.023   0.970  0.3948 -0.3003 -1.2140
  294MOL0     H40509   4.502  -0.263   1.073  0.5423 -1.4319  0.7737
  294MOL0     H40510   4.430  -0.269   0.910 -0.7188 -0.7777  1.7879
  294MOL0     H40511   4.654  -0.207   0.822  0.7607 -0.8246  0.4103
  294MOL0     H40512   4.722  -0.246   0.984 -0.4231  0.8027  0.1361
  294MOL0     H40513   4.581  -0.423   0.780  1.1114  0.2690  0.0014
  294MOL0     H40514   4.599  -0.483   0.940 -0.9160  1.5487  1.6467
  294MOL0     H40515   4.767  -0.555   0.777  2.5489 -1.0373  0.3190
  294MOL0     H40516   4.821  -0.391   0.774  0.5902  1.5315  2.7357
  294MOL0     H40517   4.804  -0.572   1.021  2.4527 -0.5877  2.4698
  294MOL0     H40518   4.866  -0.404   1.017 -1.9118  1.7282 -1.6564
  294MOL0     H40519   5.003  -0.651   0.921  2.3374 -0.3390  0.3604
  294MOL0     H40520   5.036  -0.499   0.840 -3.3721 -0.1599 -0.8426
  294MOL0     H40521   5.043  -0.687   1.188 -0.3172  0.8381  1.1601
  294MOL0     H40522   5.084  -0.587   1.441 -0.6576 -1.4438 -1.1810
  294MOL0     H40523   5.189  -0.440   1.431  2.2990  0.7511 -3.9832
  294MOL0     H40524   5.276  -0.726   1.394  0.8891  0.3850  0.3817
  294MOL0     H40525   5.388  -0.589   1.378 -0.0832  0.5786 -1.2101
  294MOL0     H40526   5.351  -0.511   1.598  0.2879 -0.2777  1.4435
  294MOL0     H40527   5.234  -0.646   1.636  1.3120  3.1899  3.4383
  294MOL0     H40528   5.532  -0.667   1.575 -0.5291  3.5904  1.7307
  294MOL0     H40529   5.447  -0.701   1.727 -3.5916 -1.9338  0.2125
  294MOL0     H40530   5.316  -1.066   1.655 -0.9742 -1.5856  1.2640
  294MOL0     H40531   5.484  -1.373   1.759 -0.8746 -0.5567 -3.1458
  294MOL0     H40532   5.353  -1.290   1.682 -1.7215 -1.0713  1.0207
  294MOL0     H40533   5.362  -1.296   1.862  0.7993 -2.7330 -0.0536
  294MOL0     H40534   5.837  -1.294   2.159  0.2605 -0.4773  0.4706
  294MOL0     H40535   5.985  -1.494   2.228  2.1715 -1.3451 -1.7110
  294MOL0     H40536   6.329  -1.577   1.972  1.5753 -2.6563 -0.0912
  294MOL0     H40537   6.329  -1.508   2.125  0.2889 -0.3883  1.4874
  294MOL0     H40538   6.338  -1.756   2.220 -1.0846  0.9735 -0.4969
  294MOL0     H40539   6.359  -1.815   2.049 -0.6319 -1.7239  1.1475
  294MOL0     H40540   6.544  -1.645   2.198 -3.8525  2.1476 -0.9705
  294MOL0     H40541   6.544  -1.654   2.019 -1.5958  0.1250  0.1773
  294MOL0     H40542   6.553  -1.922   2.060 -0.8265 -1.1006 -0.0456
  294MOL0     H40543   6.595  -1.878   2.223 -1.9676  1.4301  0.2885
  294MOL0     H40544   6.795  -1.940   2.068  0.1674  1.0449 -1.2938
  294MOL0     H40545   6.759  -1.798   1.985  0.0994  2.0592  0.5040
  294MOL0     H40546   6.787  -1.788   2.289 -0.9084  0.1297 -0.9685
  294MOL0     H40547   6.803  -1.658   2.177  0.5004 -0.4702 -1.9603
  294MOL0     H40548   7.004  -1.887   2.206  1.2657  1.1862  0.6356
  294MOL0     H40549   7.016  -1.716   2.252 -1.1532  0.5905 -0.0810
  294MOL0     H40550   6.965  -1.680   1.988 -0.8371 -2.6429 -2.7498
  294MOL0     H40551   6.998  -1.855   1.973 -1.6902  0.4850 -0.0473
  294MOL0     H40552   6.144  -1.515   1.836 -2.5243 -2.6634 -1.6095
  294MOL0     H40553   6.027  -1.323   1.772 -3.8539 -2.6680 -1.0606
  294MOL0     H40554   5.783  -0.984   1.797 -0.1116  0.5509  1.4133
  294MOL0     H40555   5.672  -0.828   1.657 -0.6691  0.8812 -0.6890
  294MOL0     H40556   4.031  -0.154   1.003  0.1472 -1.4430  1.3777
  294MOL0     H40557   3.839  -0.065   1.085  0.0334 -0.6243 -2.0497
  294MOL0     H40558   3.719   0.326   1.531  1.8437  1.0979 -4.6708
  294MOL0     H40559   3.485   0.362   1.633 -0.8540 -0.0036  0.1401
  294MOL0     H40560   3.270   0.323   1.688  2.7808  1.0439 -1.1805
  294MOL0     H40561   3.291   0.471   1.588 -2.0026  1.3226  0.1387
  294MOL0     H40562   3.041   0.316   1.607 -0.1375  0.8017 -2.9517
  294MOL0     H40563   3.069   0.491   1.560  1.3213  0.9968 -0.1171
  294MOL0     H40564   3.118   0.383   1.844 -0.9089 -0.0980 -0.3533
  294MOL0     H40565   3.139   0.542   1.784  2.4604 -1.7517  1.5919
  294MOL0     H40566   2.876   0.408   1.866  0.7618  0.1108  2.4651
  294MOL0     H40567   2.882   0.553   1.760 -0.7041 -0.8459  0.9145
  294MOL0     H40568   2.963   0.681   2.164 -0.4828 -2.6748  2.2744
  294MOL0     H40569   3.321   0.117   1.311  1.7565 -1.9671 -2.0140
  294MOL0     H40570   3.458  -0.064   1.249 -0.8571  2.0082  1.7273
  294MOL0     H40571   3.549   0.032   1.128  1.7639 -2.4655 -1.6492
  294MOL0     H40572   3.637  -0.045   1.257  0.3753  1.4109 -1.1129
  295MOL0     O40573   2.040   3.913   8.512  0.2965  0.4276 -0.1733
  295MOL0     C40574   1.983   4.006   8.467 -0.5333 -0.9867 -0.3888
  295MOL0     O40575   2.009   4.133   8.510  0.7848 -0.7606 -0.1137
  295MOL0     C40576   2.039   4.141   8.652 -0.1812 -0.2973  0.7274
  295MOL0     C40577   2.140   4.235   8.686  0.1005  0.2210 -0.3630
  295MOL0     C40578   2.181   4.257   8.820  1.2853 -0.2303 -0.0571
  295MOL0     C40579   2.115   4.185   8.924 -0.0744 -0.4504 -0.4704
  295MOL0     O40580   2.147   4.216   9.057  0.4723  0.6296  0.2941
  295MOL0     C40581   2.042   4.227   9.158  0.5082 -0.2836  0.6913
  295MOL0     C40582   2.069   4.346   9.253  0.6133 -0.1337 -0.0572
  295MOL0     C40583   2.033   4.486   9.202  0.7579 -0.5047 -0.1700
  295MOL0     C40584   2.076   4.583   9.305 -0.2513  0.3002  0.0132
  295MOL0     C40585   2.049   4.734   9.265  1.3389 -0.1012 -0.2572
  295MOL0     C40586   2.044   4.835   9.378 -0.3238  0.3938 -0.7800
  295MOL0     C40587   2.175   4.848   9.460  0.4885  0.7330  0.2396
  295MOL0     C40588   2.191   4.986   9.522 -0.6813  0.9357 -0.1275
  295MOL0     N40589   2.330   5.011   9.554 -0.2183 -0.7408  0.2297
  295MOL0     C40590   2.400   5.118   9.495 -0.2441 -0.0305 -0.5908
  295MOL0     C40591   2.517   5.119   9.559  0.2487 -0.7033  0.2186
  295MOL0     C40592   2.623   5.231   9.547 -0.1693  0.1398  0.1276
  295MOL0     C40593   2.741   5.208   9.458 -0.5577 -1.0978  0.2140
  295MOL0     C40594   2.838   5.328   9.457 -0.5901 -1.0150  0.4270
  295MOL0     C40595   2.977   5.302   9.387  0.4351 -0.0496  0.7808
  295MOL0     O40596   3.049   5.203   9.455 -1.0132  0.0874  0.5675
  295MOL0     C40597   3.153   5.160   9.377  0.4220  0.9348 -0.4384
  295MOL0     C40598   3.178   5.025   9.401 -0.2237 -1.4988 -0.2150
  295MOL0     C40599   3.292   4.952   9.354  0.0481  1.2011 -1.1293
  295MOL0     C40600   3.285   4.803   9.400  0.3843 -0.7107  1.0804
  295MOL0     C40601   3.386   5.019   9.270  0.3892  0.7445 -0.3659
  295MOL0     C40602   3.503   4.961   9.200 -0.1207 -0.0814 -0.8342
  295MOL0     O40603   3.534   5.018   9.086  0.7839  0.3752 -0.1012
  295MOL0     C40604   3.663   5.028   9.058 -0.0967 -1.0754  0.1591
  295MOL0     C40605   3.714   5.157   9.057  0.5754  0.4072 -0.0377
  295MOL0     C40606   3.846   5.178   9.013  1.0897  0.1716  0.6395
  295MOL0     C40607   3.927   5.080   8.969 -0.4736  0.8851  1.0479
  295MOL0     O40608   4.059   5.103   8.922  1.0187  0.3496 -0.2674
  295MOL0     C40609   4.093   5.244   8.912 -0.0205 -0.2772 -0.7313
  295MOL0     C40610   4.235   5.259   8.854 -0.5590 -0.5006 -0.7181
  295MOL0     C40611   4.262   5.411   8.833  0.1587  0.1169  0.0571
  295MOL0     C40612   4.361   5.437   8.721  0.1186 -0.5204  0.6659
  295MOL0     C40613   4.416   5.589   8.737 -0.3910 -0.0294  0.5859
  295MOL0     C40614   4.513   5.625   8.633 -0.6818 -0.1596  0.1603
  295MOL0     C40615   4.541   5.776   8.631 -0.0788 -0.1503 -0.1365
  295MOL0     C40616   4.625   5.799   8.505 -0.4616 -0.2490 -0.3291
  295MOL0    Cl40617   4.656   5.974   8.468  0.3859  0.4891 -0.5749
  295MOL0     C40618   3.875   4.949   8.971  0.3722  0.2181 -0.3649
  295MOL0     C40619   3.747   4.925   9.022  0.9924  0.2260  0.6377
  295MOL0     O40620   3.570   4.875   9.262  0.3443  0.5513  0.0787
  295MOL0     C40621   3.354   5.154   9.247 -0.3505  0.8992  0.2880
  295MOL0     C40622   3.238   5.224   9.287  0.0513 -0.3131  0.3105
  295MOL0     N40623   2.505   5.028   9.666  0.0688 -0.0998  0.0651
  295MOL0     N40624   2.406   4.956   9.652 -0.1190  0.8721 -0.4438
  295MOL0     C40625   2.010   4.090   8.885  0.7113 -0.7046 -0.5710
  295MOL0     C40626   1.972   4.074   8.750 -0.0028 -0.4133  0.1349
  295MOL0     C40627   1.891   3.996   8.355 -0.4754  0.5001  0.6241
  295MOL0     C40628   1.871   4.109   8.270 -0.3815  0.9631 -0.0215
  295MOL0     C40629   1.783   4.108   8.165 -0.4310 -0.8698  0.3727
  295MOL0     C40630   1.724   3.993   8.122 -0.3708  0.1192  0.7716
  295MOL0     O40631   1.651   3.967   8.007  0.9036  0.5778 -0.0781
  295MOL0     C40632   1.624   4.072   7.925 -0.9199 -0.6251  0.2399
  295MOL0     C40633   1.550   4.031   7.806 -0.2797 -0.1223 -0.5327
  295MOL0     C40634   1.395   4.032   7.816 -0.1446 -0.0349 -0.8531
  295MOL0     C40635   1.339   4.168   7.867  0.7480 -0.6249 -0.3974
  295MOL0     C40636   1.386   4.288   7.786  0.1315 -0.1592 -0.0684
  295MOL0     C40637   1.426   4.379   7.722 -0.1989  0.0610  0.5324
  295MOL0     C40638   1.758   3.877   8.199  0.1210  0.1947  0.4041
  295MOL0     C40639   1.831   3.879   8.318  0.3042  0.2414  0.0512
  295MOL0     C40640   1.826   3.755   8.403  0.7102  0.0540 -0.2923
  295MOL0     H40641   2.194   4.288   8.608 -1.1047  2.7387  0.4036
  295MOL0     H40642   2.261   4.315   8.866  0.2141 -0.1835  1.8245
  295MOL0     H40643   2.027   4.139   9.222  1.6203 -0.4971  0.6754
  295MOL0     H40644   1.949   4.230   9.101  0.6891 -0.9345  0.3510
  295MOL0     H40645   2.009   4.339   9.343 -2.2378  1.0173 -1.7421
  295MOL0     H40646   2.172   4.326   9.286  0.2995 -0.5616  0.6697
  295MOL0     H40647   2.098   4.500   9.115 -0.7259  1.8774 -0.9893
  295MOL0     H40648   1.926   4.502   9.190  0.7590 -0.5009 -0.1740
  295MOL0     H40649   2.032   4.542   9.396  2.0558 -1.4167  0.4461
  295MOL0     H40650   2.182   4.569   9.324 -0.5626 -1.7383  0.3967
  295MOL0     H40651   1.946   4.742   9.230  0.9311  0.5694  1.0310
  295MOL0     H40652   2.132   4.762   9.200  1.8238 -0.8083  0.0411
  295MOL0     H40653   2.026   4.933   9.332 -2.5797  0.9904  1.2240
  295MOL0     H40654   1.963   4.808   9.446 -0.7525  0.7430 -1.1462
  295MOL0     H40655   2.253   4.839   9.384  2.6320  0.1195  2.3831
  295MOL0     H40656   2.189   4.769   9.534  1.7370  1.0940  0.3989
  295MOL0     H40657   2.153   5.071   9.465  0.8964  1.7202 -0.0603
  295MOL0     H40658   2.145   4.974   9.621  0.9737 -1.4257  0.4276
  295MOL0     H40659   2.372   5.205   9.436 -0.6738  1.3263  1.4956
  295MOL0     H40660   2.651   5.255   9.650 -0.7377 -0.4334  0.4225
  295MOL0     H40661   2.561   5.314   9.513 -1.3811 -0.4799  0.7390
  295MOL0     H40662   2.797   5.129   9.509  2.0201  0.3386 -0.2721
  295MOL0     H40663   2.712   5.171   9.359 -0.8525  0.0776 -0.1548
  295MOL0     H40664   2.789   5.404   9.396  2.4562 -1.0351 -2.3793
  295MOL0     H40665   2.865   5.364   9.556 -0.6073 -0.2990  0.1795
  295MOL0     H40666   2.954   5.274   9.284  1.8299 -0.1920  0.4925
  295MOL0     H40667   3.035   5.395   9.384 -0.9757  0.8541  0.1054
  295MOL0     H40668   3.105   4.990   9.474 -2.0523 -0.6690 -1.5627
  295MOL0     H40669   3.262   4.798   9.507 -0.0011 -1.2130  0.9764
  295MOL0     H40670   3.377   4.752   9.370  0.7386  1.3291 -1.7474
  295MOL0     H40671   3.202   4.745   9.357 -0.5822 -1.0101  3.2492
  295MOL0     H40672   3.645   5.231   9.095 -4.9574 -2.7134 -2.8157
  295MOL0     H40673   3.874   5.281   9.033  1.5811  0.1900 -0.0626
  295MOL0     H40674   4.012   5.288   8.853  0.5742 -1.0583 -2.1866
  295MOL0     H40675   4.092   5.286   9.013 -0.7453 -0.0058 -0.8451
  295MOL0     H40676   4.309   5.217   8.924 -2.9427 -1.1332  1.5803
  295MOL0     H40677   4.246   5.201   8.762  1.4931 -3.5694  1.2649
  295MOL0     H40678   4.302   5.456   8.924  1.3172  3.1148 -1.7893
  295MOL0     H40679   4.173   5.470   8.811  0.9144  1.3276  0.1216
  295MOL0     H40680   4.322   5.415   8.621 -0.5503  1.3693  0.4687
  295MOL0     H40681   4.441   5.365   8.739 -1.8367 -2.6607  1.3847
  295MOL0     H40682   4.337   5.665   8.730 -0.4724 -0.0041  1.6597
  295MOL0     H40683   4.462   5.598   8.836  4.0678  0.3485 -1.2513
  295MOL0     H40684   4.472   5.594   8.536  0.1571  0.9195 -0.5598
  295MOL0     H40685   4.605   5.567   8.646  1.4603  1.6446 -4.7673
  295MOL0     H40686   4.610   5.800   8.712 -3.6998  1.8293  2.6622
  295MOL0     H40687   4.453   5.842   8.638 -2.1425 -2.7265 -0.2832
  295MOL0     H40688   4.581   5.750   8.417  1.5457 -3.5400  0.3355
  295MOL0     H40689   4.725   5.760   8.523 -0.5431 -0.7654 -0.9563
  295MOL0     H40690   3.947   4.873   8.943  0.7621  0.7225 -0.7575
  295MOL0     H40691   3.705   4.826   9.038 -1.8937  0.9198 -1.7772
  295MOL0     H40692   3.419   5.218   9.188  0.4108  2.5649  2.8026
  295MOL0     H40693   3.247   5.331   9.268  5.1879 -0.6608 -0.8486
  295MOL0     H40694   1.968   4.029   8.964  0.3114 -2.2803 -1.9533
  295MOL0     H40695   1.892   4.012   8.712 -0.1672  1.5739 -3.0693
  295MOL0     H40696   1.918   4.204   8.294 -0.5439  0.9182  0.4790
  295MOL0     H40697   1.760   4.200   8.112  0.7188  0.4851  2.1159
  295MOL0     H40698   1.589   4.161   7.977  0.8952  0.3573 -0.1269
  295MOL0     H40699   1.720   4.101   7.881 -1.2895 -0.5651 -0.5420
  295MOL0     H40700   1.591   3.937   7.769 -0.8997 -0.7092  0.2214
  295MOL0     H40701   1.587   4.100   7.730 -1.3049 -1.1882 -2.0594
  295MOL0     H40702   1.352   4.025   7.716  1.5879  0.2587 -1.6547
  295MOL0     H40703   1.358   3.944   7.870  0.7241 -1.0254 -1.8219
  295MOL0     H40704   1.342   4.195   7.973 -1.6578  2.4129 -0.9423
  295MOL0     H40705   1.230   4.166   7.852  0.0786 -1.4604  3.4509
  295MOL0     H40706   1.456   4.472   7.679 -0.5606 -0.0543  0.0202
  295MOL0     H40707   1.706   3.788   8.163 -0.5267  0.4343  0.7284
  295MOL0     H40708   1.923   3.706   8.412 -0.4284 -2.1099  0.7680
  295MOL0     H40709   1.774   3.777   8.497  0.4780  2.4675 -0.9034
  295MOL0     H40710   1.764   3.676   8.360  1.3895 -2.1279  2.4862
  296MOL0     O40711   1.274   4.133   6.981 -0.0920  0.5215 -0.0901
  296MOL0     C40712   1.219   4.054   7.063 -0.1407  0.1847  0.1935
  296MOL0     O40713   1.283   3.947   7.132 -0.0652  0.2155  0.5927
  296MOL0     C40714   1.421   3.928   7.152  1.0411 -0.4957 -0.4576
  296MOL0     C40715   1.525   4.018   7.113  0.0713  0.6292  0.9322
  296MOL0     C40716   1.658   3.989   7.139 -0.5328 -0.0142  0.3046
  296MOL0     C40717   1.697   3.867   7.204  1.2542 -0.3500  0.9798
  296MOL0     O40718   1.832   3.854   7.217  0.8434  0.0653 -0.0239
  296MOL0     C40719   1.890   3.768   7.319  0.2070 -0.4727 -0.0864
  296MOL0     C40720   1.861   3.835   7.453 -0.2632  1.2988 -0.5120
  296MOL0     C40721   1.966   3.791   7.562  0.8887  0.7257  0.1043
  296MOL0     C40722   1.941   3.892   7.689 -0.4657  0.3701 -0.4198
  296MOL0     C40723   2.059   3.857   7.785  0.4180  1.1413 -0.6179
  296MOL0     C40724   2.054   3.951   7.901  0.9726 -0.0064 -0.2834
  296MOL0     C40725   2.186   3.953   7.983  0.0316  0.3736 -0.0785
  296MOL0     C40726   2.192   4.096   8.051 -0.5913  0.5353  0.3025
  296MOL0     N40727   2.291   4.114   8.164 -0.6716 -0.0494 -0.2426
  296MOL0     C40728   2.422   4.122   8.143 -0.0821 -0.0143 -0.0746
  296MOL0     C40729   2.477   4.169   8.257 -0.1724 -0.1494  0.2423
  296MOL0     C40730   2.622   4.208   8.286  0.0542 -0.2398 -0.2626
  296MOL0     C40731   2.665   4.354   8.266  0.4801  0.7724 -0.1601
  296MOL0     C40732   2.594   4.449   8.357 -0.2059  1.3958  0.4872
  296MOL0     C40733   2.665   4.581   8.364  0.3236  0.1451 -0.3096
  296MOL0     O40734   2.781   4.555   8.445 -0.0066  0.1312  0.0117
  296MOL0     C40735   2.912   4.592   8.414  0.2170 -0.9497 -0.1247
  296MOL0     C40736   3.004   4.522   8.487  0.6825  0.6197  0.3615
  296MOL0     C40737   3.145   4.539   8.462  0.3788 -0.7254  0.0203
  296MOL0     C40738   3.249   4.468   8.555  0.0422  0.0869  0.4834
  296MOL0     C40739   3.186   4.656   8.375  1.0874  0.4624 -0.0949
  296MOL0     C40740   3.329   4.687   8.350 -0.0377  0.1376 -0.1523
  296MOL0     O40741   3.346   4.767   8.241 -0.2660 -0.3223  0.5572
  296MOL0     C40742   3.474   4.806   8.206  0.6000  0.7491 -0.2215
  296MOL0     C40743   3.516   4.790   8.074  0.1502 -0.8546  0.4798
  296MOL0     C40744   3.639   4.824   8.020 -0.3268  0.3563  1.0722
  296MOL0     C40745   3.733   4.883   8.105 -0.0727 -0.2752  0.0672
  296MOL0     O40746   3.854   4.914   8.043 -1.1937 -0.3024 -0.2161
  296MOL0     C40747   3.918   5.040   8.070 -0.4346  0.0889  0.4865
  296MOL0     C40748   3.822   5.161   8.058  0.2606  0.5730  0.0491
  296MOL0     C40749   3.906   5.291   8.035 -0.2055 -0.5289  0.6479
  296MOL0     C40750   3.821   5.417   8.065 -0.1869 -0.6581  0.3657
  296MOL0     C40751   3.907   5.547   8.049  0.0251  0.4110 -0.2142
  296MOL0     C40752   3.900   5.608   7.909 -0.7405  0.4642  0.2699
  296MOL0     C40753   3.959   5.755   7.902 -1.3987 -0.2745 -0.0389
  296MOL0     C40754   3.857   5.859   7.943 -0.5881 -0.3271 -0.3956
  296MOL0    Cl40755   3.818   5.862   8.108  0.6318 -0.2290 -0.2213
  296MOL0     C40756   3.693   4.908   8.235 -1.1790  1.4522 -0.6428
  296MOL0     C40757   3.572   4.863   8.285 -0.9310  0.5869  0.2381
  296MOL0     O40758   3.417   4.654   8.432  0.0956  1.2549 -0.0113
  296MOL0     C40759   3.084   4.729   8.307  0.9954 -0.4340 -0.8506
  296MOL0     C40760   2.948   4.689   8.324 -0.8396 -0.8481 -0.0093
  296MOL0     N40761   2.370   4.186   8.344 -0.3757  0.7362  0.0126
  296MOL0     N40762   2.262   4.141   8.293 -0.0212  0.1386 -0.5937
  296MOL0     C40763   1.600   3.766   7.237 -0.2131  0.3708 -0.0128
  296MOL0     C40764   1.465   3.806   7.222 -0.1113 -0.5955 -0.4327
  296MOL0     C40765   1.067   4.044   7.060 -1.4395  0.6013  0.1500
  296MOL0     C40766   1.013   3.917   7.088  0.7232  0.9505  0.3960
  296MOL0     C40767   0.880   3.908   7.113  0.7132  0.1134  0.0528
  296MOL0     C40768   0.796   4.018   7.092 -0.9892  0.0566  0.6263
  296MOL0     O40769   0.662   4.004   7.118 -0.3341 -0.5124  0.2206
  296MOL0     C40770   0.620   3.924   7.222 -0.7476  1.3665  0.6924
  296MOL0     C40771   0.479   3.954   7.266  0.0200  0.5854 -1.0746
  296MOL0     C40772   0.370   3.947   7.164  0.9924 -0.9420  0.5227
  296MOL0     C40773   0.351   3.820   7.078 -0.8844 -0.2477  0.3135
  296MOL0     C40774   0.341   3.706   7.162 -0.2935  0.7231  0.7823
  296MOL0     C40775   0.323   3.611   7.237 -0.1159 -1.0420 -0.9871
  296MOL0     C40776   0.849   4.142   7.047  0.9357 -0.1586 -0.0286
  296MOL0     C40777   0.987   4.157   7.037  0.1770 -0.3493  0.8983
  296MOL0     C40778   1.038   4.287   6.973 -0.1307 -0.2192  0.2764
  296MOL0     H40779   1.506   4.107   7.053  1.1767 -0.5731 -1.3499
  296MOL0     H40780   1.740   4.055   7.110 -0.1862  0.2619  1.8290
  296MOL0     H40781   1.998   3.755   7.304  0.1176 -2.9694  0.8421
  296MOL0     H40782   1.846   3.669   7.304 -0.4526  0.1462 -2.6933
  296MOL0     H40783   1.865   3.944   7.455  0.8433  1.3105  2.6530
  296MOL0     H40784   1.761   3.800   7.479 -0.3833  0.9766 -1.3763
  296MOL0     H40785   1.956   3.683   7.574 -0.2015  0.6286 -1.3832
  296MOL0     H40786   2.066   3.817   7.526 -0.0404 -0.0047 -3.3983
  296MOL0     H40787   1.948   4.001   7.681 -1.6970  0.4768 -0.1872
  296MOL0     H40788   1.840   3.886   7.730  0.3029 -0.9009  1.3902
  296MOL0     H40789   2.156   3.868   7.736  0.4873 -0.6040 -0.9426
  296MOL0     H40790   2.045   3.755   7.821 -0.8680  1.0843 -1.2446
  296MOL0     H40791   2.035   4.047   7.852  0.7517  0.6944  1.1486
  296MOL0     H40792   1.966   3.927   7.961 -0.2950 -0.5899 -2.2498
  296MOL0     H40793   2.272   3.943   7.916  0.2985 -0.9067  0.4360
  296MOL0     H40794   2.181   3.870   8.054 -0.1427 -2.2242 -2.8884
  296MOL0     H40795   2.224   4.172   7.979 -0.9179  0.9211  0.5655
  296MOL0     H40796   2.096   4.117   8.098 -0.6948  0.2338  0.2270
  296MOL0     H40797   2.475   4.102   8.050 -1.6247 -0.9138 -0.7997
  296MOL0     H40798   2.673   4.153   8.206  0.2003  1.4025 -1.3500
  296MOL0     H40799   2.660   4.161   8.378  0.7821 -4.5799 -2.5001
  296MOL0     H40800   2.773   4.368   8.276  0.2789  1.6835  1.1666
  296MOL0     H40801   2.638   4.378   8.163  1.5174 -2.7403 -1.3748
  296MOL0     H40802   2.498   4.472   8.311  1.1135  2.8881 -1.7018
  296MOL0     H40803   2.569   4.392   8.448  1.0371  1.5674  0.9597
  296MOL0     H40804   2.689   4.612   8.261 -2.0312 -2.6027 -1.8283
  296MOL0     H40805   2.608   4.652   8.424 -0.5392 -0.6582 -0.1555
  296MOL0     H40806   2.983   4.446   8.561  1.3313  0.5592  0.4902
  296MOL0     H40807   3.273   4.542   8.632 -0.3432  0.0866  0.6060
  296MOL0     H40808   3.349   4.452   8.514  1.5483  2.6073  2.8086
  296MOL0     H40809   3.205   4.378   8.599  1.0539 -3.3056 -4.5234
  296MOL0     H40810   3.450   4.745   8.000  2.7357 -1.0177 -1.8883
  296MOL0     H40811   3.658   4.791   7.918  0.6984  0.1364  1.3264
  296MOL0     H40812   3.963   5.052   8.169  1.6870  2.2580 -0.6522
  296MOL0     H40813   4.000   5.048   7.999  0.9824 -0.7372  1.9462
  296MOL0     H40814   3.762   5.134   7.971  0.9044 -0.6287 -0.0469
  296MOL0     H40815   3.755   5.168   8.144 -2.0373 -1.1818 -1.5027
  296MOL0     H40816   3.930   5.292   7.928  0.0110  1.8956  0.6533
  296MOL0     H40817   3.999   5.301   8.093  0.1383  1.0810 -0.1201
  296MOL0     H40818   3.790   5.402   8.169 -2.0114  1.4944  0.2074
  296MOL0     H40819   3.731   5.434   8.005 -1.2625  1.6076  2.4675
  296MOL0     H40820   3.872   5.606   8.135  0.7922  0.5440  0.0116
  296MOL0     H40821   4.009   5.532   8.085  1.1287  4.6567 -0.9596
  296MOL0     H40822   3.797   5.623   7.874 -0.9381  0.1940  0.7250
  296MOL0     H40823   3.954   5.553   7.831  0.3509  0.6014  0.9057
  296MOL0     H40824   4.008   5.765   7.804 -1.0765  4.9511  0.3850
  296MOL0     H40825   4.034   5.758   7.981 -2.9624  1.0288  1.4670
  296MOL0     H40826   3.770   5.852   7.877 -0.9144 -1.3368  0.1191
  296MOL0     H40827   3.896   5.959   7.923  0.4236 -0.7539 -0.6375
  296MOL0     H40828   3.767   4.964   8.290 -0.1669  1.1316 -1.6279
  296MOL0     H40829   3.541   4.895   8.384  1.1767  0.3137  1.0404
  296MOL0     H40830   3.103   4.817   8.246  0.5789  2.2497  2.6108
  296MOL0     H40831   2.864   4.741   8.279  1.3986 -0.4827 -4.2727
  296MOL0     H40832   1.644   3.673   7.271  0.2642  0.1928 -1.0839
  296MOL0     H40833   1.386   3.735   7.246 -0.5846  0.1145  0.1612
  296MOL0     H40834   1.065   3.822   7.098 -3.6634 -2.0520 -1.9421
  296MOL0     H40835   0.828   3.817   7.143  0.5848 -0.2583 -1.2705
  296MOL0     H40836   0.622   3.817   7.202  1.9793  1.4730 -0.0485
  296MOL0     H40837   0.688   3.927   7.307  0.6120  0.0386 -0.3016
  296MOL0     H40838   0.482   4.056   7.305 -0.1477  0.6024 -1.1074
  296MOL0     H40839   0.444   3.889   7.347 -0.8177  0.3750 -1.5946
  296MOL0     H40840   0.273   3.963   7.212 -0.3822 -0.2381 -2.3018
  296MOL0     H40841   0.378   4.029   7.092 -2.7763 -1.0967 -0.2610
  296MOL0     H40842   0.443   3.797   7.024 -1.6787 -2.5716 -0.1553
  296MOL0     H40843   0.269   3.834   7.006 -2.3661  3.6400  2.4490
  296MOL0     H40844   0.319   3.527   7.302 -1.3572 -1.1102 -1.1404
  296MOL0     H40845   0.784   4.225   7.022 -0.6860 -1.4181 -0.1350
  296MOL0     H40846   1.118   4.326   7.036  0.3858  0.9546 -1.0364
  296MOL0     H40847   1.070   4.264   6.871  2.5081 -0.6090  1.1182
  296MOL0     H40848   0.965   4.368   6.970  0.1761  0.1442  1.9290
  297MOL0     O40849  11.172   3.542   3.718 -0.9211  0.1384 -0.3542
  297MOL0     C40850  11.156   3.439   3.782  0.0078  0.6539  0.6361
  297MOL0     O40851  11.254   3.352   3.813  0.1367  0.3048 -0.0713
  297MOL0     C40852  11.373   3.369   3.742  0.2110 -0.1273 -0.2817
  297MOL0     C40853  11.466   3.470   3.786 -0.0891  0.0250 -0.0149
  297MOL0     C40854  11.588   3.481   3.723  0.5474  0.1302 -0.2063
  297MOL0     C40855  11.630   3.385   3.625  0.0502  0.2387  0.0293
  297MOL0     O40856  11.751   3.384   3.565  0.0097 -0.3309  0.1856
  297MOL0     C40857  11.863   3.460   3.623 -0.3368 -0.0367  0.1795
  297MOL0     C40858  11.990   3.437   3.544  1.1151  0.0034  0.1701
  297MOL0     C40859  12.087   3.558   3.556 -0.7133 -1.0490 -0.1866
  297MOL0     C40860  12.225   3.549   3.484  0.0354  0.9518  0.2408
  297MOL0     C40861  12.327   3.648   3.532  0.5288  0.3545  0.1973
  297MOL0     C40862  12.467   3.617   3.493  0.5435 -0.0540  0.3047
  297MOL0     C40863  12.554   3.703   3.584  0.6695 -0.5354  0.8280
  297MOL0     C40864  12.525   3.856   3.571  0.3210  0.6376 -0.4539
  297MOL0     N40865  12.646   3.931   3.612 -0.0913 -0.4450  0.2274
  297MOL0     C40866  12.737   3.989   3.524 -0.0269  0.1254  0.8813
  297MOL0     C40867  12.842   4.021   3.596  0.0794  0.2336 -0.6987
  297MOL0     C40868  12.962   4.079   3.530 -0.2506 -0.3678 -0.5890
  297MOL0     C40869  12.970   4.231   3.565  0.0597 -0.0741  0.4847
  297MOL0     C40870  13.091   4.312   3.507  0.3500  0.5022 -0.2172
  297MOL0     C40871  13.226   4.287   3.580  0.2387  0.7147 -0.3697
  297MOL0     O40872  13.330   4.347   3.503 -0.4034 -0.6141 -0.3427
  297MOL0     C40873  13.421   4.430   3.554  0.2645 -0.0608  0.0197
  297MOL0     C40874  13.535   4.450   3.478 -0.5752  0.0434 -0.6465
  297MOL0     C40875  13.640   4.528   3.524 -0.0791 -0.0332  0.7349
  297MOL0     C40876  13.764   4.536   3.431 -0.7941  0.2637 -0.4891
  297MOL0     C40877  13.627   4.601   3.643 -0.2529  0.1136  0.2984
  297MOL0     C40878  13.735   4.684   3.691 -0.2552 -0.0566  0.2473
  297MOL0     O40879  13.861   4.629   3.711 -0.3393 -0.4298 -0.5120
  297MOL0     C40880  13.963   4.724   3.735  0.5140  0.7119  0.2314
  297MOL0     C40881  13.987   4.847   3.682 -0.3542 -1.0192 -0.6240
  297MOL0     C40882  14.087   4.920   3.744 -0.2488 -0.9580  1.5416
  297MOL0     C40883  14.164   4.877   3.859  0.1615  0.1980  0.4475
  297MOL0     O40884  14.268   4.951   3.896 -0.3014  0.5278  0.1811
  297MOL0     C40885  14.320   4.955   4.032 -0.2196  0.5332  0.6466
  297MOL0     C40886  14.403   5.079   4.033  0.6393 -0.8980 -0.3979
  297MOL0     C40887  14.443   5.120   4.178  0.3816 -0.5636  0.7781
  297MOL0     C40888  14.521   5.249   4.178  0.6619  0.1675 -0.0921
  297MOL0     C40889  14.589   5.270   4.309 -0.2539 -0.1549 -0.1434
  297MOL0     C40890  14.487   5.270   4.428  0.5771  0.2858  0.3691
  297MOL0     C40891  14.560   5.329   4.548  0.3893 -0.4982  0.0366
  297MOL0     C40892  14.481   5.322   4.685  0.2712 -0.2242  0.0435
  297MOL0    Cl40893  14.306   5.343   4.646 -0.4071 -0.2834 -0.0996
  297MOL0     C40894  14.133   4.758   3.910  0.0939  0.5468 -0.4494
  297MOL0     C40895  14.039   4.678   3.839 -0.9224 -0.6938 -0.6610
  297MOL0     O40896  13.704   4.798   3.722  0.8908  0.1515 -0.6793
  297MOL0     C40897  13.510   4.592   3.722 -0.6590  0.2022 -0.2272
  297MOL0     C40898  13.409   4.507   3.672  0.4202  0.7406  0.5840
  297MOL0     N40899  12.831   3.978   3.724  0.4950  0.1714 -0.6300
  297MOL0     N40900  12.711   3.921   3.733  0.1773  0.1333  0.6745
  297MOL0     C40901  11.539   3.288   3.588  0.1477  0.5684 -0.4208
  297MOL0     C40902  11.416   3.277   3.647 -0.1664 -0.5789  0.1760
  297MOL0     C40903  11.018   3.399   3.835  0.0216 -0.4928  0.1204
  297MOL0     C40904  10.941   3.499   3.898 -0.2596  0.6578 -0.2189
  297MOL0     C40905  10.826   3.467   3.951  0.3125  0.4378 -0.0380
  297MOL0     C40906  10.780   3.328   3.948  0.5148 -0.0840  0.1842
  297MOL0     O40907  10.672   3.281   4.023  0.4686 -0.0110  0.2380
  297MOL0     C40908  10.584   3.376   4.080  0.0522 -0.5584  0.4929
  297MOL0     C40909  10.458   3.306   4.137 -0.2809  0.3067 -0.0375
  297MOL0     C40910  10.474   3.178   4.214 -0.4813 -0.6416  0.0513
  297MOL0     C40911  10.369   3.170   4.321  0.0224 -0.1712 -0.3539
  297MOL0     C40912  10.228   3.150   4.286 -0.0333  0.6194 -0.6649
  297MOL0     C40913  10.110   3.113   4.280  0.5916  0.3352  0.2171
  297MOL0     C40914  10.852   3.231   3.879  0.0868  0.0713 -0.6865
  297MOL0     C40915  10.970   3.267   3.823  0.2059  0.6425 -0.9957
  297MOL0     C40916  11.041   3.159   3.739 -0.0885  0.2869 -0.1488
  297MOL0     H40917  11.428   3.540   3.859 -5.9067  0.6492 -3.0329
  297MOL0     H40918  11.651   3.567   3.741  3.4611 -1.2145 -2.9727
  297MOL0     H40919  11.882   3.426   3.725 -0.1558  0.3093  0.2637
  297MOL0     H40920  11.839   3.567   3.614  0.1580 -0.0593 -1.8078
  297MOL0     H40921  12.045   3.349   3.578 -0.3177 -0.7704  0.5696
  297MOL0     H40922  11.955   3.428   3.441 -0.0570  2.5797  0.2668
  297MOL0     H40923  12.040   3.648   3.515  0.0882 -0.9052 -0.8090
  297MOL0     H40924  12.116   3.561   3.661 -0.2792 -0.1171 -0.3264
  297MOL0     H40925  12.273   3.451   3.487 -1.9541 -0.0648  1.1895
  297MOL0     H40926  12.201   3.567   3.379  0.8535 -1.1480 -0.3567
  297MOL0     H40927  12.307   3.647   3.639 -0.6331 -2.5091  0.0544
  297MOL0     H40928  12.303   3.746   3.491  2.5512 -0.0130 -2.1211
  297MOL0     H40929  12.492   3.512   3.511  3.1058  0.4287 -0.1651
  297MOL0     H40930  12.479   3.647   3.389 -0.8387  0.7027  0.3420
  297MOL0     H40931  12.662   3.692   3.576  1.8141  5.5487  2.6570
  297MOL0     H40932  12.523   3.673   3.684 -0.0446 -4.6773 -0.4338
  297MOL0     H40933  12.482   3.884   3.474  1.8076 -0.2379 -1.4059
  297MOL0     H40934  12.447   3.890   3.640 -2.8531 -0.7479 -3.0770
  297MOL0     H40935  12.711   3.996   3.418  0.6592 -3.2352  0.3589
  297MOL0     H40936  12.965   4.081   3.421  0.8939  1.1383 -0.5497
  297MOL0     H40937  13.048   4.023   3.567  0.9393  0.7256 -1.6314
  297MOL0     H40938  12.881   4.282   3.527  0.2518  0.3174  0.5576
  297MOL0     H40939  12.968   4.235   3.675 -1.5820 -1.2701  0.5463
  297MOL0     H40940  13.101   4.282   3.402 -1.0825  1.5259 -0.6729
  297MOL0     H40941  13.068   4.419   3.506  2.6420  1.0593 -0.4206
  297MOL0     H40942  13.211   4.328   3.681  0.5247 -3.0100  1.3421
  297MOL0     H40943  13.237   4.179   3.588  0.9557  0.7946 -0.2081
  297MOL0     H40944  13.540   4.400   3.381  0.4980  1.6946 -1.5014
  297MOL0     H40945  13.843   4.468   3.466  0.3491  2.0944  0.6329
  297MOL0     H40946  13.815   4.632   3.434 -0.3571  0.0598 -1.1622
  297MOL0     H40947  13.746   4.508   3.327 -2.2034 -0.1331 -0.1524
  297MOL0     H40948  13.935   4.892   3.599  2.0710 -0.1356 -1.7435
  297MOL0     H40949  14.112   5.016   3.700 -0.9497 -3.1410 -4.6621
  297MOL0     H40950  14.239   4.955   4.105 -1.0009 -1.7325 -0.0980
  297MOL0     H40951  14.384   4.868   4.052  1.1149  1.2146 -0.4776
  297MOL0     H40952  14.495   5.077   3.973  0.8682  2.1869 -0.2931
  297MOL0     H40953  14.343   5.160   3.990 -1.7427 -1.6886  1.2295
  297MOL0     H40954  14.503   5.044   4.230 -0.6223 -0.5096  2.0741
  297MOL0     H40955  14.348   5.123   4.231 -1.2628 -3.6833 -1.6275
  297MOL0     H40956  14.442   5.324   4.163 -0.7786 -0.8701  1.7929
  297MOL0     H40957  14.598   5.243   4.102  0.2596  0.3499 -0.5181
  297MOL0     H40958  14.673   5.200   4.306 -1.2542 -1.3848 -1.1709
  297MOL0     H40959  14.622   5.374   4.304 -2.1742  0.4490 -2.2998
  297MOL0     H40960  14.463   5.164   4.440 -4.7295  1.2124  0.4350
  297MOL0     H40961  14.403   5.333   4.394 -0.9941 -2.3211 -0.8857
  297MOL0     H40962  14.579   5.436   4.536 -1.7687 -0.2205 -1.4052
  297MOL0     H40963  14.654   5.275   4.568 -0.1165 -0.1666  4.4825
  297MOL0     H40964  14.512   5.397   4.759  0.1361  0.5585 -0.6723
  297MOL0     H40965  14.504   5.223   4.725  0.8312 -0.8782 -1.7833
  297MOL0     H40966  14.171   4.708   3.998 -3.3607 -1.2263  0.2173
  297MOL0     H40967  14.032   4.574   3.872 -1.0950 -1.2508 -2.3604
  297MOL0     H40968  13.502   4.651   3.813  4.1545 -0.6161  0.9843
  297MOL0     H40969  13.321   4.510   3.735  0.6665  0.2806  0.9651
  297MOL0     H40970  11.583   3.223   3.514  2.4939 -0.5505  1.7674
  297MOL0     H40971  11.337   3.208   3.619  0.6699 -1.3587 -0.3317
  297MOL0     H40972  10.984   3.599   3.902 -0.1404  0.5788  2.6598
  297MOL0     H40973  10.774   3.551   3.995  0.5955  0.7946 -0.3810
  297MOL0     H40974  10.640   3.423   4.161  0.5772 -1.2696  0.5516
  297MOL0     H40975  10.552   3.459   4.018 -2.2552  0.2436  2.6221
  297MOL0     H40976  10.380   3.283   4.064  0.6383  1.0924 -1.2975
  297MOL0     H40977  10.413   3.377   4.208  1.9134  0.6824  1.0728
  297MOL0     H40978  10.465   3.092   4.147  1.7313 -0.8387 -0.0623
  297MOL0     H40979  10.571   3.179   4.265  0.2130 -2.0045 -1.1659
  297MOL0     H40980  10.374   3.267   4.373  4.8202  1.1473 -2.6994
  297MOL0     H40981  10.397   3.088   4.388 -0.4194  0.7312  0.9917
  297MOL0     H40982  10.007   3.087   4.269  0.3070  1.5891 -0.1571
  297MOL0     H40983  10.814   3.130   3.872 -3.0592  1.0577  0.6018
  297MOL0     H40984  11.112   3.113   3.807 -1.0750 -1.4168 -0.2185
  297MOL0     H40985  10.995   3.065   3.708  1.8377 -0.7503  0.0097
  297MOL0     H40986  11.074   3.206   3.646 -2.9655 -0.0041 -1.4447
  298MOL0     O40987   9.662  11.194   9.668 -0.8361  0.4932 -0.0986
  298MOL0     C40988   9.617  11.308   9.693  1.1633  0.3634 -0.2297
  298MOL0     O40989   9.648  11.414   9.618  0.6481 -0.4654 -0.1677
  298MOL0     C40990   9.727  11.406   9.509  0.1652  0.1218  0.5396
  298MOL0     C40991   9.670  11.345   9.396 -0.0646  0.0326 -0.6881
  298MOL0     C40992   9.752  11.309   9.285  0.5236 -0.1924  0.2304
  298MOL0     C40993   9.890  11.340   9.289 -0.0925 -0.1549 -0.2771
  298MOL0     O40994   9.956  11.337   9.165 -0.0343  0.5064 -0.2803
  298MOL0     C40995  10.077  11.417   9.139  0.3410 -0.5420  0.9519
  298MOL0     C40996  10.115  11.395   8.995  0.0353 -0.1438  0.0284
  298MOL0     C40997  10.227  11.484   8.952 -0.3192  0.8315 -0.5801
  298MOL0     C40998  10.234  11.494   8.799 -0.1449 -0.0306  0.5465
  298MOL0     C40999  10.341  11.595   8.776 -0.1057  0.1228  0.6658
  298MOL0     C41000  10.389  11.601   8.630 -0.7666 -0.2334  0.6539
  298MOL0     C41001  10.449  11.475   8.569  0.9363 -0.1543  1.3655
  298MOL0     C41002  10.567  11.415   8.648 -0.7551 -0.7960  0.4667
  298MOL0     N41003  10.671  11.519   8.665 -0.2404 -1.0789 -0.3151
  298MOL0     C41004  10.720  11.575   8.785  0.3116 -0.6642 -0.5870
  298MOL0     C41005  10.850  11.618   8.752  0.5089 -0.1723  0.5270
  298MOL0     C41006  10.946  11.665   8.851  0.2208 -0.1789 -0.3470
  298MOL0     C41007  11.035  11.771   8.781 -0.7468 -0.0333  0.4773
  298MOL0     C41008  11.136  11.834   8.882  0.0758 -0.7874  0.4795
  298MOL0     C41009  11.208  11.949   8.820 -0.3057  0.0121 -0.2275
  298MOL0     O41010  11.307  11.893   8.735  0.0247  0.5179 -0.0322
  298MOL0     C41011  11.423  11.973   8.719  0.7053 -0.0133  0.2309
  298MOL0     C41012  11.543  11.933   8.760  0.3984 -0.3058  1.3755
  298MOL0     C41013  11.659  12.023   8.768  0.6192 -0.3438  0.8157
  298MOL0     C41014  11.784  11.965   8.809  0.4169 -0.0389 -0.1273
  298MOL0     C41015  11.649  12.152   8.706  0.5471  0.8225  0.8766
  298MOL0     C41016  11.760  12.247   8.689 -1.3186  0.4799  0.2586
  298MOL0     O41017  11.724  12.368   8.634  0.3562  0.4741 -0.2286
  298MOL0     C41018  11.808  12.472   8.612 -0.2893 -0.3358 -0.3522
  298MOL0     C41019  11.909  12.507   8.707 -0.3608 -0.7135 -0.5938
  298MOL0     C41020  12.000  12.614   8.677 -0.1291  0.0852  0.3144
  298MOL0     C41021  11.999  12.691   8.560 -0.0723 -0.0488 -1.1660
  298MOL0     O41022  12.079  12.803   8.558  0.1682  0.6099  0.3449
  298MOL0     C41023  12.100  12.877   8.439  0.0379 -0.0370  0.2554
  298MOL0     C41024  11.993  12.988   8.426 -0.0074 -0.1829  0.1945
  298MOL0     C41025  11.966  13.059   8.567  0.0120 -0.2341 -0.7882
  298MOL0     C41026  11.895  13.198   8.564 -0.2558  0.7010 -0.5347
  298MOL0     C41027  11.776  13.229   8.468  0.3593  0.0368 -0.0497
  298MOL0     C41028  11.640  13.172   8.511  1.1785  0.5331 -0.6508
  298MOL0     C41029  11.544  13.149   8.390 -0.3022 -0.1379  0.1059
  298MOL0     C41030  11.394  13.137   8.404  0.0092  0.0137  0.1153
  298MOL0    Cl41031  11.343  13.013   8.525  0.0909 -0.4301 -0.1219
  298MOL0     C41032  11.894  12.659   8.471 -0.5137  0.0318  0.2084
  298MOL0     C41033  11.806  12.549   8.490  0.1077  0.3099 -0.6706
  298MOL0     O41034  11.873  12.212   8.718  0.1827  0.1418  0.2519
  298MOL0     C41035  11.518  12.184   8.659 -0.0010 -0.1601 -0.0831
  298MOL0     C41036  11.407  12.103   8.675 -0.9507  0.1987 -0.2733
  298MOL0     N41037  10.865  11.605   8.614  0.7632 -0.5217  0.0723
  298MOL0     N41038  10.755  11.551   8.561 -0.1839  0.5773  0.8330
  298MOL0     C41039   9.947  11.394   9.407 -0.7048 -0.0010 -0.1112
  298MOL0     C41040   9.863  11.420   9.514 -0.5307 -1.0288 -0.1542
  298MOL0     C41041   9.512  11.317   9.802 -0.1342 -0.1564  0.1385
  298MOL0     C41042   9.406  11.409   9.783 -0.1969 -0.4241  0.6861
  298MOL0     C41043   9.298  11.414   9.872  0.1312  0.7152  0.5454
  298MOL0     C41044   9.287  11.330   9.981  0.4896  0.5522  1.1998
  298MOL0     O41045   9.195  11.333  10.072  0.1422  0.2960 -0.2841
  298MOL0     C41046   9.074  11.425  10.056 -0.6547  0.2113 -0.5853
  298MOL0     C41047   9.117  11.546  10.129  0.2365 -0.1453 -0.2760
  298MOL0     C41048   8.996  11.637  10.161 -0.2924 -0.2079 -0.3481
  298MOL0     C41049   9.035  11.762  10.240  0.7847 -1.0106  0.1123
  298MOL0     C41050   8.976  11.887  10.188 -0.3644  0.0064  0.2697
  298MOL0     C41051   8.932  11.978  10.124 -0.7500  1.3334  0.4914
  298MOL0     C41052   9.396  11.241  10.005 -0.1052  0.3360 -0.5673
  298MOL0     C41053   9.505  11.227   9.916 -0.6507 -0.6142  0.6529
  298MOL0     C41054   9.617  11.138   9.959  0.2161 -0.1648 -0.4638
  298MOL0     H41055   9.566  11.316   9.386  0.4134 -1.6781 -1.0691
  298MOL0     H41056   9.705  11.279   9.192  0.6166  2.3473 -0.7371
  298MOL0     H41057  10.161  11.398   9.206 -0.3589 -0.6944  1.8114
  298MOL0     H41058  10.061  11.524   9.151  2.8898 -0.0375  0.3806
  298MOL0     H41059  10.139  11.289   8.992 -0.9014 -0.3733  0.5020
  298MOL0     H41060  10.024  11.412   8.937 -0.6476  2.1191  1.6012
  298MOL0     H41061  10.206  11.586   8.984 -3.6634  0.6039 -1.6329
  298MOL0     H41062  10.319  11.438   8.989 -0.7891 -0.8192 -1.3651
  298MOL0     H41063  10.243  11.392   8.762 -0.0511 -1.2878  3.7230
  298MOL0     H41064  10.140  11.538   8.764 -0.5253 -0.7118  0.6984
  298MOL0     H41065  10.430  11.574   8.838  0.9015 -2.3158 -1.4605
  298MOL0     H41066  10.291  11.692   8.788  0.0308  0.4682 -1.2682
  298MOL0     H41067  10.308  11.635   8.565 -1.3985 -1.8052  0.5704
  298MOL0     H41068  10.466  11.678   8.620  0.4571 -1.4696  0.3882
  298MOL0     H41069  10.478  11.486   8.464 -1.8317 -0.1110  0.5191
  298MOL0     H41070  10.367  11.404   8.556 -0.7525  1.6535  1.6641
  298MOL0     H41071  10.536  11.381   8.747 -0.0995 -2.6474  0.0871
  298MOL0     H41072  10.619  11.336   8.592  0.4880  1.2699 -1.4921
  298MOL0     H41073  10.692  11.571   8.890  1.6378  1.2108 -0.1019
  298MOL0     H41074  11.000  11.589   8.908  1.3992  0.8014 -0.1130
  298MOL0     H41075  10.894  11.714   8.933 -0.9263 -3.4031  1.0003
  298MOL0     H41076  11.098  11.730   8.701  0.0817  1.6343  0.2384
  298MOL0     H41077  10.965  11.841   8.734 -0.2053  0.2272  0.0549
  298MOL0     H41078  11.091  11.879   8.970  1.0595 -0.9192  1.0612
  298MOL0     H41079  11.209  11.756   8.905 -1.2352 -1.9338  0.8661
  298MOL0     H41080  11.146  12.027   8.775  0.1923  0.8293  0.4707
  298MOL0     H41081  11.255  11.990   8.910  1.2227 -1.0623 -0.5001
  298MOL0     H41082  11.556  11.834   8.804  1.9780 -2.2279 -2.8881
  298MOL0     H41083  11.847  11.949   8.720  0.2409 -1.4827 -0.0193
  298MOL0     H41084  11.773  11.866   8.853  0.5173  0.5924  1.3918
  298MOL0     H41085  11.825  12.031   8.885  0.7158  0.2680 -0.5482
  298MOL0     H41086  11.926  12.447   8.796  2.7877  2.4724  1.1957
  298MOL0     H41087  12.088  12.612   8.740 -0.5493 -0.5207  0.9025
  298MOL0     H41088  12.196  12.928   8.443  0.9074 -1.7025  1.6544
  298MOL0     H41089  12.090  12.825   8.343 -1.3302  1.9541 -0.7461
  298MOL0     H41090  12.041  13.068   8.369  0.4737  0.2208  1.1489
  298MOL0     H41091  11.896  12.955   8.387 -0.5060  0.1936  1.0880
  298MOL0     H41092  12.060  13.063   8.622 -0.1217 -2.8682 -0.2201
  298MOL0     H41093  11.902  12.988   8.621 -1.3983 -0.0426 -2.1478
  298MOL0     H41094  11.965  13.274   8.529  0.6701 -0.5281 -1.4260
  298MOL0     H41095  11.854  13.223   8.662 -0.3716  0.6758 -0.5779
  298MOL0     H41096  11.783  13.337   8.451  1.7730  0.1358  1.0531
  298MOL0     H41097  11.800  13.183   8.371 -0.1567 -0.9178  0.2666
  298MOL0     H41098  11.591  13.235   8.586  0.6146 -1.1894  0.4730
  298MOL0     H41099  11.656  13.074   8.556  0.5417  1.3647  1.5225
  298MOL0     H41100  11.569  13.049   8.353 -1.4436 -0.7243  0.8727
  298MOL0     H41101  11.575  13.228   8.321 -2.5186  2.3681  1.7872
  298MOL0     H41102  11.354  13.108   8.306  2.0429  0.0255 -0.7926
  298MOL0     H41103  11.358  13.233   8.439  0.2530 -0.0722  0.6116
  298MOL0     H41104  11.875  12.718   8.382 -1.8948  2.1866  1.8464
  298MOL0     H41105  11.723  12.533   8.422 -0.1160  0.6347 -0.4814
  298MOL0     H41106  11.502  12.282   8.615 -0.4541 -0.2749 -0.1801
  298MOL0     H41107  11.310  12.141   8.645 -0.6369  0.7875 -0.5457
  298MOL0     H41108  10.053  11.415   9.410 -1.0288  1.8021 -0.2833
  298MOL0     H41109   9.912  11.437   9.609  0.1512 -3.1026 -0.0927
  298MOL0     H41110   9.400  11.478   9.699 -1.3870  1.1087  1.9713
  298MOL0     H41111   9.229  11.494   9.851  2.3026  2.6624  0.4567
  298MOL0     H41112   9.054  11.436   9.949 -0.8683  0.8153 -0.4883
  298MOL0     H41113   8.980  11.391  10.099  0.0501  0.1744  0.9903
  298MOL0     H41114   9.199  11.593  10.074  1.2464  0.0713  1.3240
  298MOL0     H41115   9.158  11.523  10.228  2.3997  1.3106 -0.7692
  298MOL0     H41116   8.940  11.656  10.070  0.3946  0.7793 -0.5896
  298MOL0     H41117   8.935  11.589  10.239  3.1458  0.3433  3.0090
  298MOL0     H41118   9.145  11.764  10.242  0.9000  2.4095 -1.7929
  298MOL0     H41119   9.002  11.758  10.344 -1.0907 -1.1512 -0.4635
  298MOL0     H41120   8.883  12.056  10.069 -3.4206 -0.4605  0.1475
  298MOL0     H41121   9.384  11.179  10.093 -2.2369 -2.2375 -2.5409
  298MOL0     H41122   9.707  11.194   9.931  0.1651 -0.4362 -1.1904
  298MOL0     H41123   9.611  11.133  10.068 -0.3741  1.1900 -0.4054
  298MOL0     H41124   9.613  11.046   9.901 -1.1227 -1.6209  1.8146
  299MOL0     O41125   1.870   1.025   0.171 -0.1865  0.3228  0.1728
  299MOL0     C41126   1.808   0.924   0.152 -0.4671  0.1105  0.2381
  299MOL0     O41127   1.853   0.800   0.134 -0.0957 -0.0074 -1.0139
  299MOL0     C41128   1.987   0.787   0.097 -0.7337  0.6223 -0.3765
  299MOL0     C41129   2.063   0.682   0.151 -0.1293  0.1889 -1.0306
  299MOL0     C41130   2.196   0.667   0.114 -0.1598 -0.2012 -0.2150
  299MOL0     C41131   2.251   0.751   0.016 -0.3407  0.1932 -0.5518
  299MOL0     O41132   2.384   0.764  -0.011  0.4108 -0.1686  0.0340
  299MOL0     C41133   2.481   0.669   0.037  0.8756 -0.4177 -0.5158
  299MOL0     C41134   2.620   0.704  -0.016  0.1351  0.7381 -0.0793
  299MOL0     C41135   2.690   0.797   0.084 -0.7191 -0.9256 -0.2191
  299MOL0     C41136   2.773   0.708   0.173 -0.0574 -0.3564 -0.1579
  299MOL0     C41137   2.854   0.795   0.273 -0.1832  0.2886  0.8405
  299MOL0     C41138   2.932   0.709   0.373 -0.2902  0.4918  0.4119
  299MOL0     C41139   3.077   0.682   0.342 -0.3117 -0.5619  0.2972
  299MOL0     C41140   3.145   0.587   0.441 -0.1769 -0.4502 -0.0827
  299MOL0     N41141   3.276   0.540   0.401 -0.1265  0.0785 -0.0962
  299MOL0     C41142   3.379   0.524   0.485  0.0848 -0.6736 -0.2876
  299MOL0     C41143   3.474   0.472   0.409 -0.1920 -0.1985  0.7184
  299MOL0     C41144   3.598   0.411   0.463 -0.3301  0.0315 -0.2875
  299MOL0     C41145   3.689   0.384   0.352 -0.4437  0.0664 -0.2598
  299MOL0     C41146   3.819   0.346   0.405 -0.6431 -0.0561  0.6753
  299MOL0     C41147   3.925   0.331   0.292 -0.4077 -1.0928 -0.6566
  299MOL0     O41148   3.974   0.456   0.241 -0.0079  0.3780  0.4181
  299MOL0     C41149   4.091   0.436   0.169  0.6638 -0.3256  0.4719
  299MOL0     C41150   4.194   0.520   0.199  0.1377 -0.2895 -0.3501
  299MOL0     C41151   4.319   0.519   0.136 -0.4301  0.1282 -0.4730
  299MOL0     C41152   4.428   0.588   0.210  0.2630 -0.2956 -0.3926
  299MOL0     C41153   4.346   0.448   0.015  0.0159  0.7804 -0.3343
  299MOL0     C41154   4.478   0.438  -0.060  0.2413 -0.9158 -0.8404
  299MOL0     O41155   4.475   0.342  -0.154  0.9894 -0.9918  0.0483
  299MOL0     C41156   4.553   0.352  -0.262 -0.8928  0.1446 -1.3068
  299MOL0     C41157   4.647   0.256  -0.296  0.2003  0.1818  0.1273
  299MOL0     C41158   4.728   0.251  -0.412 -0.0880 -0.2795 -0.3507
  299MOL0     C41159   4.721   0.362  -0.497 -0.7279 -0.0972 -0.0413
  299MOL0     O41160   4.788   0.390  -0.613  0.0541 -0.3227  0.0976
  299MOL0     C41161   4.928   0.347  -0.609 -0.5963 -0.0298 -0.0065
  299MOL0     C41162   5.005   0.423  -0.506 -1.2452 -0.6959 -0.2496
  299MOL0     C41163   5.158   0.402  -0.500  0.4855  0.4501  0.1293
  299MOL0     C41164   5.221   0.426  -0.637 -1.3572 -0.3917  0.0934
  299MOL0     C41165   5.379   0.434  -0.630 -0.2074 -0.2208  0.8480
  299MOL0     C41166   5.453   0.455  -0.769  0.6030  1.0370 -0.0497
  299MOL0     C41167   5.594   0.499  -0.749 -0.4673  0.5265 -0.7464
  299MOL0     C41168   5.651   0.563  -0.882 -1.3945  0.3596 -0.0278
  299MOL0    Cl41169   5.827   0.615  -0.856 -0.0657  0.4188 -0.7449
  299MOL0     C41170   4.629   0.465  -0.465  0.8908 -0.5414 -0.5875
  299MOL0     C41171   4.541   0.464  -0.349  0.1805 -0.3962  1.1932
  299MOL0     O41172   4.573   0.504  -0.024 -0.5280 -0.1819 -0.3479
  299MOL0     C41173   4.241   0.357  -0.018  0.3376  0.4782  0.1539
  299MOL0     C41174   4.116   0.353   0.059 -0.3076  0.3534 -0.8365
  299MOL0     N41175   3.429   0.461   0.272 -0.0654 -0.3170 -0.3924
  299MOL0     N41176   3.314   0.504   0.277  0.1629 -0.3336  0.7987
  299MOL0     C41177   2.172   0.835  -0.057  0.2130  0.1568  0.6807
  299MOL0     C41178   2.036   0.850  -0.019  0.4677 -0.3541  0.3554
  299MOL0     C41179   1.660   0.942   0.161 -0.7204 -0.0333 -0.0651
  299MOL0     C41180   1.603   1.070   0.153 -0.3243  1.1200 -0.4742
  299MOL0     C41181   1.468   1.094   0.152  0.0155  0.3200 -0.7219
  299MOL0     C41182   1.376   0.988   0.180  0.0848  0.0618  0.9038
  299MOL0     O41183   1.234   0.997   0.185 -0.4466 -0.3510 -0.0323
  299MOL0     C41184   1.172   1.124   0.173 -0.6351 -0.3108 -0.3301
  299MOL0     C41185   1.033   1.098   0.245 -0.0200 -0.2861 -0.6147
  299MOL0     C41186   0.956   1.233   0.234 -0.0111 -0.5191 -0.9872
  299MOL0     C41187   0.814   1.217   0.280 -0.0427  0.1938 -0.4554
  299MOL0     C41188   0.731   1.333   0.238  0.4555  0.2161  0.0665
  299MOL0     C41189   0.659   1.431   0.208  0.3388 -0.8867 -0.0610
  299MOL0     C41190   1.433   0.864   0.216 -0.1159  0.8997  0.4702
  299MOL0     C41191   1.576   0.837   0.216  0.3352  0.8173  0.2275
  299MOL0     C41192   1.625   0.698   0.251 -0.3273 -0.1744  0.7633
  299MOL0     H41193   2.019   0.613   0.223  2.2598  0.9367  1.2909
  299MOL0     H41194   2.250   0.595   0.174 -1.7296 -0.9154  0.3959
  299MOL0     H41195   2.454   0.568   0.002  0.6569  0.0442 -1.7524
  299MOL0     H41196   2.473   0.681   0.145  0.3106  0.9846 -0.6972
  299MOL0     H41197   2.677   0.611  -0.024 -2.6701 -1.0628 -0.2880
  299MOL0     H41198   2.599   0.742  -0.116 -0.5167 -2.0306 -1.0839
  299MOL0     H41199   2.753   0.856   0.017 -0.0222 -4.5852 -3.1108
  299MOL0     H41200   2.616   0.858   0.137 -1.8604 -1.8187 -0.7442
  299MOL0     H41201   2.705   0.650   0.236  0.5326 -0.7844  0.0985
  299MOL0     H41202   2.839   0.642   0.116  0.9983 -1.3521  2.0585
  299MOL0     H41203   2.790   0.865   0.328 -0.0029  0.0449  1.3728
  299MOL0     H41204   2.931   0.855   0.224  0.3568 -0.6447  0.5163
  299MOL0     H41205   2.942   0.758   0.471  1.8075 -2.1661  1.6393
  299MOL0     H41206   2.870   0.622   0.396  1.4662 -0.7511  0.6607
  299MOL0     H41207   3.141   0.770   0.338 -2.0284  0.9098  2.7218
  299MOL0     H41208   3.070   0.628   0.247  0.5105  2.0324 -1.3538
  299MOL0     H41209   3.157   0.642   0.535  0.3561  0.6852 -0.7923
  299MOL0     H41210   3.084   0.499   0.463  1.0887 -1.2664  0.2989
  299MOL0     H41211   3.394   0.537   0.592 -1.7213 -0.0696 -0.0609
  299MOL0     H41212   3.580   0.317   0.515  0.5349 -0.0166 -0.0637
  299MOL0     H41213   3.628   0.482   0.540 -0.4446  0.5789 -0.7331
  299MOL0     H41214   3.643   0.313   0.282  2.1040  1.8049 -4.0275
  299MOL0     H41215   3.700   0.476   0.294  0.8877  1.3939  1.9395
  299MOL0     H41216   3.869   0.412   0.477 -1.8140  0.5529  0.9447
  299MOL0     H41217   3.816   0.245   0.447 -0.2322 -2.4601 -4.3405
  299MOL0     H41218   4.012   0.277   0.331  1.0146  1.0207 -0.7004
  299MOL0     H41219   3.882   0.289   0.201 -2.0823 -2.0575  0.5437
  299MOL0     H41220   4.185   0.581   0.289  2.7217 -1.7349  1.0219
  299MOL0     H41221   4.519   0.528   0.222  0.2678 -1.0775 -3.4165
  299MOL0     H41222   4.406   0.629   0.309  0.9238 -3.4719  1.2068
  299MOL0     H41223   4.452   0.669   0.141 -0.3686 -0.2141 -0.5277
  299MOL0     H41224   4.662   0.176  -0.224 -1.1480 -0.3888 -0.1747
  299MOL0     H41225   4.809   0.179  -0.419  1.3165  0.9924  1.7094
  299MOL0     H41226   4.938   0.238  -0.603 -0.4866 -0.1002 -1.1813
  299MOL0     H41227   4.951   0.375  -0.713 -2.0824  1.2409 -0.0334
  299MOL0     H41228   4.974   0.527  -0.506 -1.3993 -0.5182  4.6173
  299MOL0     H41229   4.966   0.383  -0.412 -2.2387  0.2423 -0.2419
  299MOL0     H41230   5.180   0.301  -0.463 -0.8510  0.8066  2.0151
  299MOL0     H41231   5.206   0.467  -0.426  2.4789  0.6405 -1.2402
  299MOL0     H41232   5.187   0.523  -0.673 -1.9810 -0.4395  0.5424
  299MOL0     H41233   5.194   0.349  -0.709 -2.7806 -1.0937  1.3113
  299MOL0     H41234   5.408   0.517  -0.565 -2.9637  1.3993  0.1737
  299MOL0     H41235   5.415   0.339  -0.590  1.2142  0.0352  0.2248
  299MOL0     H41236   5.396   0.527  -0.828 -0.6821 -0.3543 -0.5905
  299MOL0     H41237   5.466   0.354  -0.808  0.1605  0.3098  1.5705
  299MOL0     H41238   5.657   0.416  -0.716 -0.0430  0.4849 -1.6226
  299MOL0     H41239   5.605   0.571  -0.667  0.5765  2.4539 -2.4954
  299MOL0     H41240   5.593   0.650  -0.912  1.2647  2.1031 -0.4013
  299MOL0     H41241   5.657   0.494  -0.967  1.4612 -4.0199  3.2503
  299MOL0     H41242   4.613   0.551  -0.529 -1.9136 -1.4804 -1.2746
  299MOL0     H41243   4.474   0.545  -0.326  0.8365  0.9078 -1.1385
  299MOL0     H41244   4.250   0.287  -0.100 -4.5165  0.2113 -0.4459
  299MOL0     H41245   4.036   0.294   0.016  1.5854 -1.6329 -1.8515
  299MOL0     H41246   2.213   0.911  -0.122 -1.9694  1.3407  0.5975
  299MOL0     H41247   1.977   0.930  -0.064  4.6736  1.6518 -2.1575
  299MOL0     H41248   1.661   1.160   0.137  2.0528 -0.0618  1.0050
  299MOL0     H41249   1.429   1.193   0.132  1.2099  0.9884  0.1435
  299MOL0     H41250   1.218   1.207   0.228 -0.0642 -1.4244  0.9284
  299MOL0     H41251   1.164   1.157   0.069  0.9268 -1.1905 -0.7639
  299MOL0     H41252   1.034   1.072   0.351 -2.1954 -1.6145 -0.8554
  299MOL0     H41253   0.966   1.031   0.192 -2.9181  1.3584  0.7326
  299MOL0     H41254   1.016   1.305   0.291  1.4367 -2.7480  0.4557
  299MOL0     H41255   0.949   1.272   0.131  0.6922 -1.1389 -1.2785
  299MOL0     H41256   0.813   1.222   0.390  0.6212  2.2383 -0.4945
  299MOL0     H41257   0.767   1.121   0.257  2.5000 -0.9426 -1.2399
  299MOL0     H41258   0.598   1.519   0.196  1.8371  0.1239 -0.6097
  299MOL0     H41259   1.373   0.779   0.248  2.0818 -0.7789  0.3799
  299MOL0     H41260   1.705   0.707   0.325  3.6863 -1.3363 -3.0236
  299MOL0     H41261   1.547   0.639   0.300  1.6844 -2.3207  1.5910
  299MOL0     H41262   1.658   0.651   0.158 -0.5037  2.6675 -0.8497
  300MOL0     O41263   7.784   0.163   6.016  0.2237 -0.0500 -0.1310
  300MOL0     C41264   7.702   0.209   6.098 -0.3007 -0.4542  0.1675
  300MOL0     O41265   7.743   0.293   6.203  0.2845  0.5654 -0.1807
  300MOL0     C41266   7.881   0.315   6.212 -0.2018 -0.1221  0.0511
  300MOL0     C41267   7.956   0.254   6.316 -0.1130  0.9146  0.0663
  300MOL0     C41268   8.092   0.285   6.337  0.0254 -0.1217  0.5754
  300MOL0     C41269   8.156   0.376   6.249  0.3882  0.8221 -2.0532
  300MOL0     O41270   8.277   0.426   6.271  0.3149  0.3296 -0.0149
  300MOL0     C41271   8.383   0.350   6.336 -0.3591  0.0330  0.3632
  300MOL0     C41272   8.460   0.256   6.237 -0.1533  0.3656 -0.2490
  300MOL0     C41273   8.562   0.344   6.166  0.2540  0.6509 -0.2489
  300MOL0     C41274   8.613   0.260   6.045  0.6626 -0.1872  0.6159
  300MOL0     C41275   8.682   0.344   5.944 -0.4537 -0.5686 -0.4669
  300MOL0     C41276   8.745   0.259   5.834 -0.4563 -0.1141 -0.9027
  300MOL0     C41277   8.876   0.180   5.884 -0.6421 -1.4278 -1.0793
  300MOL0     C41278   8.938   0.111   5.760  0.0183 -0.8256  0.2292
  300MOL0     N41279   9.052   0.031   5.803 -0.0746 -0.7230 -0.3798
  300MOL0     C41280   9.186   0.060   5.785 -0.1049 -0.6897 -0.3505
  300MOL0     C41281   9.262  -0.047   5.807 -0.0460 -0.4809 -0.6012
  300MOL0     C41282   9.411  -0.065   5.796 -0.2059  0.2929 -0.1396
  300MOL0     C41283   9.464  -0.138   5.923  0.4420 -0.3715  0.5257
  300MOL0     C41284   9.452  -0.052   6.056 -0.7647  0.2409 -0.8550
  300MOL0     C41285   9.537  -0.110   6.174 -0.2066  0.6230  0.4382
  300MOL0     O41286   9.665  -0.072   6.129  0.0761 -0.7998  0.3227
  300MOL0     C41287   9.779  -0.113   6.182 -0.1170  0.3094 -0.7855
  300MOL0     C41288   9.788  -0.194   6.303  0.2511 -0.2928 -0.4735
  300MOL0     C41289   9.924  -0.228   6.356  0.7909 -0.1424  0.8519
  300MOL0     C41290   9.918  -0.326   6.473 -0.9169  0.7930 -0.0298
  300MOL0     C41291  10.038  -0.157   6.304 -0.8945  0.1591 -0.0312
  300MOL0     C41292  10.173  -0.181   6.367  0.2282  0.5625  0.7223
  300MOL0     O41293  10.274  -0.168   6.280  0.1816  0.1222  0.2618
  300MOL0     C41294  10.399  -0.185   6.331 -0.7135 -0.8701  0.3976
  300MOL0     C41295  10.491  -0.273   6.265  0.4266  0.2393  0.2485
  300MOL0     C41296  10.629  -0.261   6.285 -1.3679  0.5455  0.5398
  300MOL0     C41297  10.681  -0.174   6.378 -0.2446 -0.0616  1.0666
  300MOL0     O41298  10.814  -0.168   6.415 -0.9869  0.3354 -0.5132
  300MOL0     C41299  10.919  -0.236   6.339 -0.9336  0.3776 -0.1171
  300MOL0     C41300  11.043  -0.200   6.424  0.3342  0.3323 -0.5450
  300MOL0     C41301  11.180  -0.241   6.346 -0.9719  0.5507 -0.0897
  300MOL0     C41302  11.299  -0.235   6.454 -0.4058 -0.1806  0.3687
  300MOL0     C41303  11.445  -0.236   6.404  1.2375  0.4962 -0.6021
  300MOL0     C41304  11.541  -0.207   6.517 -0.0495 -0.4089 -0.6504
  300MOL0     C41305  11.687  -0.247   6.481  0.2551  0.4683 -0.4093
  300MOL0     C41306  11.789  -0.179   6.571 -0.0745 -0.6247 -0.3710
  300MOL0    Cl41307  11.844  -0.308   6.680  0.2244  0.5264  0.6996
  300MOL0     C41308  10.592  -0.085   6.441 -0.4963  0.4752  0.1798
  300MOL0     C41309  10.454  -0.093   6.415  0.2923  0.9456 -0.1639
  300MOL0     O41310  10.183  -0.218   6.486 -0.2973 -0.5583  0.5351
  300MOL0     C41311  10.017  -0.073   6.197 -0.2625 -1.0383 -0.2643
  300MOL0     C41312   9.895  -0.058   6.136  0.4456 -0.4256 -0.3187
  300MOL0     N41313   9.172  -0.146   5.843  0.0254 -0.4650  0.3722
  300MOL0     N41314   9.050  -0.106   5.821 -0.2272 -0.1976  0.0979
  300MOL0     C41315   8.091   0.415   6.134  0.1550 -0.1182 -0.5294
  300MOL0     C41316   7.956   0.395   6.121  0.0532  0.2569  0.1410
  300MOL0     C41317   7.558   0.177   6.082  0.0287  0.4792  0.3881
  300MOL0     C41318   7.466   0.234   6.180 -0.3933  0.6570  0.2786
  300MOL0     C41319   7.326   0.223   6.172  0.0761  0.5900 -0.0776
  300MOL0     C41320   7.272   0.166   6.061  0.9831 -0.7440  0.9329
  300MOL0     O41321   7.136   0.158   6.061 -0.5795  0.9353  0.2224
  300MOL0     C41322   7.076   0.161   5.927 -0.0481 -0.3370 -0.7098
  300MOL0     C41323   6.923   0.169   5.957  0.4292 -0.1207 -0.9884
  300MOL0     C41324   6.849   0.040   5.993 -0.1243 -0.0753  0.2568
  300MOL0     C41325   6.704   0.071   6.055 -0.2349 -0.0563  0.1494
  300MOL0     C41326   6.642  -0.057   6.093  0.2972 -0.0889 -0.0524
  300MOL0     C41327   6.579  -0.154   6.126  0.1125 -0.9011  0.0927
  300MOL0     C41328   7.353   0.106   5.965 -0.3653 -0.3104  0.0476
  300MOL0     C41329   7.498   0.105   5.978  0.0391 -0.4459 -0.1181
  300MOL0     C41330   7.580   0.047   5.872  0.2905 -0.0371  0.6744
  300MOL0     H41331   7.894   0.190   6.378  0.3451 -0.0998 -0.5048
  300MOL0     H41332   8.136   0.252   6.431 -2.6018 -0.0338  1.9306
  300MOL0     H41333   8.337   0.282   6.408  1.5843  1.4852  3.2041
  300MOL0     H41334   8.450   0.411   6.398  0.4322 -0.9005  0.4465
  300MOL0     H41335   8.512   0.180   6.296 -0.8395  2.2715  3.0745
  300MOL0     H41336   8.400   0.204   6.162 -1.2370  0.1750  0.7192
  300MOL0     H41337   8.508   0.434   6.133 -0.3504  1.4308  2.6390
  300MOL0     H41338   8.638   0.369   6.240  0.4609 -0.6470 -0.0043
  300MOL0     H41339   8.684   0.183   6.077  1.0289 -1.7886 -3.4949
  300MOL0     H41340   8.538   0.189   6.008 -1.7798  1.4220  2.1178
  300MOL0     H41341   8.759   0.402   5.996 -0.6647 -1.4408  0.8476
  300MOL0     H41342   8.611   0.413   5.897  0.9652 -0.6638 -2.9107
  300MOL0     H41343   8.665   0.197   5.792 -2.2481  2.2760 -1.2111
  300MOL0     H41344   8.764   0.329   5.753 -3.3852  0.5936 -1.0875
  300MOL0     H41345   8.846   0.110   5.963  0.0003  1.0291  1.5084
  300MOL0     H41346   8.951   0.251   5.919 -0.8888 -0.1289 -3.0352
  300MOL0     H41347   8.871   0.037   5.714  0.7161 -1.4171  0.1427
  300MOL0     H41348   8.950   0.197   5.694 -1.0704 -0.6105  0.2926
  300MOL0     H41349   9.225   0.157   5.755 -1.6191 -0.5220 -1.8672
  300MOL0     H41350   9.462   0.029   5.773 -0.3887  0.5482  0.4946
  300MOL0     H41351   9.440  -0.124   5.708  0.3751  0.4165 -0.0333
  300MOL0     H41352   9.412  -0.231   5.946  1.1178  0.0653  4.6774
  300MOL0     H41353   9.570  -0.158   5.903  0.7128  1.1061  0.3698
  300MOL0     H41354   9.497   0.047   6.043 -2.0688  0.7132 -1.9703
  300MOL0     H41355   9.349  -0.038   6.090 -1.4014 -1.6572 -1.8662
  300MOL0     H41356   9.506  -0.069   6.270  0.8366  2.3336  0.0961
  300MOL0     H41357   9.536  -0.219   6.179  2.0482  0.5294 -0.1238
  300MOL0     H41358   9.710  -0.261   6.340  1.3588 -0.9462  0.7909
  300MOL0     H41359   9.826  -0.384   6.482 -0.4017 -0.2756 -1.3962
  300MOL0     H41360   9.920  -0.266   6.565  0.4699 -0.9884  1.1687
  300MOL0     H41361  10.004  -0.392   6.484 -2.6025 -1.7506 -1.1991
  300MOL0     H41362  10.449  -0.362   6.219 -1.9782  1.0616  0.7312
  300MOL0     H41363  10.685  -0.346   6.247 -1.2972  0.1079  1.6085
  300MOL0     H41364  10.896  -0.343   6.344  4.5371 -1.3264 -2.9377
  300MOL0     H41365  10.921  -0.213   6.232 -1.1259 -2.7255 -0.8964
  300MOL0     H41366  11.048  -0.091   6.428 -2.5609  0.6971 -2.9300
  300MOL0     H41367  11.039  -0.241   6.525  1.2558  0.8405 -0.2889
  300MOL0     H41368  11.193  -0.184   6.254  0.7365 -2.0317 -1.5747
  300MOL0     H41369  11.176  -0.343   6.308 -4.1345  1.5521 -2.9094
  300MOL0     H41370  11.286  -0.313   6.529 -1.1277  0.8233  1.3165
  300MOL0     H41371  11.289  -0.135   6.499 -0.3228  0.6364 -1.3417
  300MOL0     H41372  11.455  -0.337   6.362  0.6924  0.5944 -0.9783
  300MOL0     H41373  11.465  -0.159   6.329 -1.1770  1.9812  0.1511
  300MOL0     H41374  11.511  -0.263   6.606  1.5329 -0.2604  0.0062
  300MOL0     H41375  11.544  -0.100   6.539 -1.5858 -0.0630 -1.9354
  300MOL0     H41376  11.707  -0.225   6.376 -0.3890  0.1354 -0.6093
  300MOL0     H41377  11.697  -0.355   6.499 -1.7110  0.4378  0.7520
  300MOL0     H41378  11.739  -0.096   6.622 -2.7852 -2.1493 -0.3637
  300MOL0     H41379  11.874  -0.134   6.518 -0.3234  1.4876  0.9459
  300MOL0     H41380  10.642  -0.013   6.504  0.1900 -2.1859  2.9211
  300MOL0     H41381  10.388  -0.015   6.453 -0.2438 -0.0243  0.9545
  300MOL0     H41382  10.095  -0.014   6.150  0.2426 -0.9053  0.7011
  300MOL0     H41383   9.882   0.005   6.049  3.6449 -0.4852 -0.9738
  300MOL0     H41384   8.141   0.468   6.054  0.7729 -0.3642 -0.3190
  300MOL0     H41385   7.903   0.446   6.041 -1.4195  0.5328  1.2262
  300MOL0     H41386   7.508   0.284   6.266 -0.0116 -1.2940  1.2748
  300MOL0     H41387   7.264   0.261   6.253  0.1595  1.1503 -0.2742
  300MOL0     H41388   7.102   0.249   5.868 -2.6065 -0.0180 -1.4830
  300MOL0     H41389   7.095   0.074   5.863 -1.4945 -0.2196 -1.3440
  300MOL0     H41390   6.876   0.199   5.863  1.1828 -0.9366 -1.6492
  300MOL0     H41391   6.909   0.254   6.024  0.1603  0.9874 -2.4036
  300MOL0     H41392   6.847  -0.020   5.902 -0.8961  0.8784 -0.3829
  300MOL0     H41393   6.912  -0.004   6.070  2.8166  2.7336 -0.3410
  300MOL0     H41394   6.636   0.131   5.995  1.3036 -0.8572 -2.6202
  300MOL0     H41395   6.711   0.132   6.145 -2.0478 -1.0751  1.0237
  300MOL0     H41396   6.532  -0.240   6.169 -0.4651 -1.4266 -1.5062
  300MOL0     H41397   7.312   0.044   5.887 -0.2286  1.4678 -1.5002
  300MOL0     H41398   7.663  -0.015   5.907 -1.4547 -2.5935  0.5625
  300MOL0     H41399   7.513  -0.013   5.809  1.1312  0.2488 -0.5365
  300MOL0     H41400   7.623   0.126   5.810 -0.9583 -0.3891 -0.6899
  301MOL0     O41401   5.815   2.344   2.872 -0.1826 -0.2111 -0.8545
  301MOL0     C41402   5.830   2.375   2.988  0.7336  0.7819 -0.0554
  301MOL0     O41403   5.899   2.297   3.078 -0.1996 -0.2505 -0.0019
  301MOL0     C41404   5.937   2.171   3.047 -0.0622  1.4447  0.2575
  301MOL0     C41405   5.890   2.070   3.126 -0.5680  0.1094  0.0967
  301MOL0     C41406   5.902   1.936   3.085 -0.2673 -0.5507  0.2075
  301MOL0     C41407   5.979   1.901   2.974 -0.2863  0.0002  0.0088
  301MOL0     O41408   5.988   1.763   2.954 -0.1538 -0.4035 -0.1234
  301MOL0     C41409   6.008   1.716   2.820  0.4909 -0.0391 -0.4595
  301MOL0     C41410   5.999   1.564   2.814  0.2048 -0.1301  0.3474
  301MOL0     C41411   6.014   1.510   2.668 -0.3553 -1.5682 -0.0185
  301MOL0     C41412   6.005   1.354   2.668  0.1459 -0.6286  0.1444
  301MOL0     C41413   6.004   1.285   2.537  0.3550 -0.2654  0.5615
  301MOL0     C41414   5.876   1.310   2.450 -0.0736 -0.2872  0.3403
  301MOL0     C41415   5.740   1.245   2.485  0.1022 -0.1048 -1.5838
  301MOL0     C41416   5.750   1.099   2.519  0.5743 -1.0796 -0.1435
  301MOL0     N41417   5.614   1.057   2.561  0.2344  0.8063 -0.4173
  301MOL0     C41418   5.515   1.050   2.474 -0.6559  0.6306 -0.1021
  301MOL0     C41419   5.413   0.999   2.546 -0.8945  0.5002 -0.5624
  301MOL0     C41420   5.288   0.959   2.480 -0.0868  0.8296  0.4917
  301MOL0     C41421   5.182   1.070   2.446 -0.4871 -1.0504 -0.8731
  301MOL0     C41422   5.179   1.173   2.564 -0.2821  0.1128  0.1492
  301MOL0     C41423   5.058   1.270   2.585  0.2025  0.6782  0.5293
  301MOL0     O41424   5.017   1.335   2.462  0.0118  0.3680  0.0696
  301MOL0     C41425   5.074   1.452   2.432 -0.4213 -0.9180  0.3792
  301MOL0     C41426   5.045   1.487   2.302  0.2476 -0.4303  0.1087
  301MOL0     C41427   5.110   1.592   2.241 -0.0194  0.2202 -0.0996
  301MOL0     C41428   5.081   1.602   2.099 -0.0880 -0.2891 -0.1320
  301MOL0     C41429   5.204   1.670   2.309 -0.5879 -1.5993 -0.1834
  301MOL0     C41430   5.275   1.800   2.255  0.4971 -0.1187  0.2741
  301MOL0     O41431   5.270   1.838   2.134 -0.1457 -0.1305  0.0344
  301MOL0     C41432   5.362   1.930   2.096  0.3216  0.2196  0.6298
  301MOL0     C41433   5.327   2.066   2.107  0.4097  0.0502 -0.5900
  301MOL0     C41434   5.410   2.171   2.061 -0.0494  0.7665 -0.1583
  301MOL0     C41435   5.530   2.137   1.991 -0.2855  0.2291  0.3088
  301MOL0     O41436   5.620   2.223   1.926 -0.3691 -0.3516  0.5637
  301MOL0     C41437   5.615   2.364   1.946  0.1277 -0.6655  0.2754
  301MOL0     C41438   5.677   2.428   1.818  0.0977  0.0968  0.5303
  301MOL0     C41439   5.802   2.363   1.783 -0.7148 -0.2158 -0.0386
  301MOL0     C41440   5.865   2.436   1.668 -0.2648 -0.0943  0.8895
  301MOL0     C41441   6.005   2.376   1.628  0.6845  0.8237  0.2298
  301MOL0     C41442   6.074   2.457   1.516  0.3707  1.6691  0.3865
  301MOL0     C41443   6.162   2.572   1.576  0.2475  0.1318  0.2681
  301MOL0     C41444   6.224   2.659   1.467 -0.3381  0.6370  0.2253
  301MOL0    Cl41445   6.340   2.765   1.548  0.4061  0.2561 -0.0260
  301MOL0     C41446   5.559   2.003   1.977  0.1081 -0.5610  0.8635
  301MOL0     C41447   5.475   1.897   2.030 -1.0588 -0.0623 -0.3972
  301MOL0     O41448   5.355   1.854   2.341  0.2490 -0.2268  0.0167
  301MOL0     C41449   5.231   1.634   2.448 -0.0622  0.2203 -1.0383
  301MOL0     C41450   5.168   1.522   2.510 -0.4819  0.0366  0.0216
  301MOL0     N41451   5.452   0.988   2.677  1.0906 -0.1589  0.1474
  301MOL0     N41452   5.567   1.031   2.687  0.9802  0.1712  0.4460
  301MOL0     C41453   6.035   2.003   2.894  1.2113 -0.4640 -0.4955
  301MOL0     C41454   6.010   2.144   2.924 -0.7346 -0.6528 -0.1703
  301MOL0     C41455   5.752   2.491   3.051 -0.1574 -0.9522  0.6212
  301MOL0     C41456   5.800   2.548   3.167 -0.5974 -0.8503  0.1606
  301MOL0     C41457   5.742   2.669   3.219 -0.0257  0.7664  0.3636
  301MOL0     C41458   5.640   2.731   3.151 -0.0758  0.3478 -0.2686
  301MOL0     O41459   5.593   2.847   3.195 -0.4330  0.1910 -0.4088
  301MOL0     C41460   5.655   2.969   3.146 -0.2784  0.1927 -0.4090
  301MOL0     C41461   5.539   3.060   3.092  0.2097 -0.4730  0.1744
  301MOL0     C41462   5.410   3.069   3.184 -1.0557  0.9678 -0.2230
  301MOL0     C41463   5.440   3.141   3.320 -0.2231  0.6782  0.5529
  301MOL0     C41464   5.334   3.228   3.372  0.1821 -0.2271  0.5762
  301MOL0     C41465   5.237   3.289   3.420 -0.0664 -0.0588  0.0613
  301MOL0     C41466   5.589   2.677   3.035  0.2334  0.3704  0.5015
  301MOL0     C41467   5.643   2.562   2.977 -0.7196 -0.7804 -0.5143
  301MOL0     C41468   5.579   2.510   2.844 -0.5224 -0.0089  0.0276
  301MOL0     H41469   5.840   2.094   3.219  1.6645  0.8972  1.1586
  301MOL0     H41470   5.850   1.856   3.136 -1.0637  0.1184  0.4592
  301MOL0     H41471   6.108   1.741   2.783 -0.2543  3.3763 -0.4956
  301MOL0     H41472   5.935   1.762   2.753  1.0818  0.8369 -0.5123
  301MOL0     H41473   6.061   1.521   2.893 -1.4723 -2.7662  0.3649
  301MOL0     H41474   5.900   1.528   2.844  1.1055 -1.5163  1.8425
  301MOL0     H41475   5.931   1.551   2.611 -0.7309 -0.0415  1.5552
  301MOL0     H41476   6.106   1.552   2.627 -0.7445 -0.2705  0.3835
  301MOL0     H41477   6.086   1.323   2.735 -0.1638 -1.7239  0.0330
  301MOL0     H41478   5.919   1.318   2.725  1.9501 -1.8630  2.2331
  301MOL0     H41479   6.020   1.180   2.562  0.7795 -0.3604 -0.0922
  301MOL0     H41480   6.095   1.316   2.485  0.8400  1.5300  2.3567
  301MOL0     H41481   5.859   1.417   2.442  0.4974 -0.3133 -3.8601
  301MOL0     H41482   5.907   1.287   2.347  1.9358 -0.1432  0.8597
  301MOL0     H41483   5.681   1.262   2.395 -0.1350 -0.8262 -1.5714
  301MOL0     H41484   5.677   1.294   2.560 -0.3692 -0.7091 -1.5831
  301MOL0     H41485   5.782   1.043   2.431  0.0749  1.5679 -2.1384
  301MOL0     H41486   5.809   1.089   2.611  1.7347 -0.4884 -0.8092
  301MOL0     H41487   5.534   1.060   2.368  3.9097 -2.2523  0.1627
  301MOL0     H41488   5.232   0.885   2.537  0.6880 -0.6756 -0.6275
  301MOL0     H41489   5.320   0.911   2.387  1.2472  0.0994  1.2890
  301MOL0     H41490   5.202   1.117   2.349 -6.5474  1.6961 -1.2245
  301MOL0     H41491   5.081   1.029   2.441 -2.3888  2.5793  2.3571
  301MOL0     H41492   5.172   1.111   2.654  1.8778  0.8777  0.9056
  301MOL0     H41493   5.269   1.234   2.565  0.3307 -0.7270 -1.4018
  301MOL0     H41494   4.970   1.209   2.609  1.3185 -0.4174  1.9687
  301MOL0     H41495   5.058   1.333   2.675  0.6701 -0.2463  1.1844
  301MOL0     H41496   4.973   1.433   2.241 -0.4550 -0.2857  0.7978
  301MOL0     H41497   4.983   1.559   2.080 -0.0043 -1.0751  1.0952
  301MOL0     H41498   5.154   1.547   2.039 -0.9924  0.5325 -2.0595
  301MOL0     H41499   5.079   1.707   2.069  0.5834 -0.2830 -0.1689
  301MOL0     H41500   5.232   2.083   2.157  0.7563  0.0074  0.0912
  301MOL0     H41501   5.394   2.277   2.074 -1.0780  1.0022 -2.8659
  301MOL0     H41502   5.512   2.398   1.960  0.0114 -0.1237 -1.5680
  301MOL0     H41503   5.679   2.396   2.029  5.2445 -0.7313 -3.2055
  301MOL0     H41504   5.607   2.426   1.734  3.4865  1.3609 -2.5489
  301MOL0     H41505   5.690   2.534   1.842  0.3929  0.0232  0.6938
  301MOL0     H41506   5.779   2.261   1.751 -1.8276  0.2414 -0.7705
  301MOL0     H41507   5.868   2.374   1.869 -0.3959  2.5752 -0.5511
  301MOL0     H41508   5.872   2.542   1.691  1.0086 -0.2279  1.2081
  301MOL0     H41509   5.804   2.421   1.578  3.5022  0.3369 -1.9884
  301MOL0     H41510   6.074   2.371   1.714  1.7237 -3.5518 -0.6104
  301MOL0     H41511   5.986   2.272   1.598  0.1181  0.9578  0.1141
  301MOL0     H41512   6.002   2.486   1.438  0.3949  0.7161 -0.0109
  301MOL0     H41513   6.137   2.379   1.472 -2.0793  0.8648 -2.0835
  301MOL0     H41514   6.251   2.534   1.627  0.5376 -0.6315 -0.7692
  301MOL0     H41515   6.098   2.631   1.643 -1.1102 -1.3705  0.3528
  301MOL0     H41516   6.148   2.723   1.421  0.7678  2.4500  0.8313
  301MOL0     H41517   6.265   2.596   1.387 -0.7129  0.4267  0.1922
  301MOL0     H41518   5.656   1.984   1.931 -0.3690  0.9243 -0.8813
  301MOL0     H41519   5.503   1.795   2.011 -1.1883  0.2607 -2.4719
  301MOL0     H41520   5.313   1.689   2.493  0.7321 -1.3422 -0.5038
  301MOL0     H41521   5.204   1.479   2.602 -2.2448  1.5642  1.5207
  301MOL0     H41522   6.100   1.958   2.820 -1.7217 -1.8820 -2.4068
  301MOL0     H41523   6.057   2.223   2.866 -1.0094  1.4920  2.3724
  301MOL0     H41524   5.887   2.509   3.220 -2.0462 -0.7740  2.7812
  301MOL0     H41525   5.781   2.704   3.315  1.1683  1.8065 -0.4699
  301MOL0     H41526   5.696   3.026   3.230  0.9740 -0.4382 -0.5767
  301MOL0     H41527   5.723   2.949   3.063 -2.2945  0.8181 -2.2887
  301MOL0     H41528   5.497   3.018   2.999 -2.2597  0.2474  0.8743
  301MOL0     H41529   5.580   3.159   3.073  4.1632 -1.7200  1.3822
  301MOL0     H41530   5.330   3.128   3.139  0.1783  3.5291  0.6982
  301MOL0     H41531   5.370   2.970   3.206  5.3277 -2.4824 -1.6909
  301MOL0     H41532   5.521   3.212   3.304  0.6516  0.1262  2.3554
  301MOL0     H41533   5.471   3.061   3.388 -1.8353 -1.4704 -1.0832
  301MOL0     H41534   5.145   3.325   3.463  0.2009 -0.0688  0.6492
  301MOL0     H41535   5.503   2.723   2.987 -1.5172  0.1200  3.1553
  301MOL0     H41536   5.552   2.405   2.858 -0.3524  0.1141  1.4239
  301MOL0     H41537   5.500   2.578   2.811 -0.8352 -1.4130 -2.2846
  301MOL0     H41538   5.655   2.516   2.766  1.6593  0.8443  2.0530
  302MOL0     O41539   7.385   3.926   7.366 -1.0007  0.0729 -0.5319
  302MOL0     C41540   7.267   3.959   7.345  0.7679  0.1361  0.7939
  302MOL0     O41541   7.213   4.086   7.358  0.6509 -0.6853  0.2045
  302MOL0     C41542   7.295   4.160   7.436 -0.1244  0.2456  0.3348
  302MOL0     C41543   7.294   4.165   7.574 -0.8844  0.2748  0.0587
  302MOL0     C41544   7.396   4.227   7.649  0.5853  0.0339 -0.1669
  302MOL0     C41545   7.504   4.293   7.585  0.2499  0.3173 -0.4942
  302MOL0     O41546   7.600   4.362   7.650  0.6295  0.4602 -0.1250
  302MOL0     C41547   7.730   4.317   7.614 -0.0431  0.0192  0.1916
  302MOL0     C41548   7.788   4.442   7.558  0.8056 -0.6926  0.4586
  302MOL0     C41549   7.915   4.409   7.482 -0.3185  0.0861 -0.6502
  302MOL0     C41550   8.022   4.348   7.587 -0.5191  0.2185  0.7592
  302MOL0     C41551   8.172   4.352   7.558 -0.2947  0.6546 -0.2511
  302MOL0     C41552   8.242   4.281   7.668 -0.8663 -0.2950  0.2851
  302MOL0     C41553   8.392   4.302   7.646 -0.5552 -0.2348 -0.3803
  302MOL0     C41554   8.476   4.222   7.754  0.0468  0.1950 -0.4374
  302MOL0     N41555   8.624   4.251   7.754  0.5741 -0.6988  0.0560
  302MOL0     C41556   8.718   4.162   7.717 -0.6027 -0.1693  0.1826
  302MOL0     C41557   8.838   4.220   7.739  0.8068  0.7153 -0.7377
  302MOL0     C41558   8.972   4.156   7.736 -0.0808  0.1848 -0.1418
  302MOL0     C41559   8.977   4.029   7.817 -0.4972  0.1411  0.6053
  302MOL0     C41560   9.119   3.989   7.856 -0.2809 -0.4539  0.2253
  302MOL0     C41561   9.118   3.846   7.897 -0.4164 -0.8785  0.1927
  302MOL0     O41562   9.047   3.845   8.027 -0.3110  0.7308  0.2391
  302MOL0     C41563   9.044   3.727   8.093 -0.1085  0.3635 -0.3511
  302MOL0     C41564   8.930   3.700   8.169 -0.2631 -0.8251  0.8178
  302MOL0     C41565   8.926   3.591   8.253 -0.8583 -0.2416 -0.8445
  302MOL0     C41566   8.807   3.582   8.340 -0.3145 -0.1114  0.5396
  302MOL0     C41567   9.039   3.500   8.260 -0.9820 -0.5297 -0.0122
  302MOL0     C41568   9.068   3.395   8.355  1.1689 -1.1272  0.5743
  302MOL0     O41569   9.169   3.314   8.334 -0.8123 -0.2227  0.2438
  302MOL0     C41570   9.224   3.250   8.446  0.8193 -0.6520 -0.3489
  302MOL0     C41571   9.257   3.112   8.447  0.0226  0.1413 -1.0112
  302MOL0     C41572   9.335   3.054   8.543 -0.4325  0.5616  0.1615
  302MOL0     C41573   9.359   3.123   8.659 -0.5751  0.2071 -0.0426
  302MOL0     O41574   9.433   3.084   8.767  1.3139 -0.5135 -0.2642
  302MOL0     C41575   9.503   2.960   8.757  0.2509 -0.0273  0.1318
  302MOL0     C41576   9.603   2.954   8.872 -0.2219  0.4533 -0.8194
  302MOL0     C41577   9.645   2.812   8.892  0.1756 -1.1152  0.7320
  302MOL0     C41578   9.769   2.811   8.969 -0.9422  0.1818 -0.2339
  302MOL0     C41579   9.820   2.665   8.995  0.3522  0.0879  0.1585
  302MOL0     C41580   9.956   2.672   9.067 -0.5985 -0.2752 -0.5516
  302MOL0     C41581  10.025   2.535   9.107  0.6733  0.4511  0.0300
  302MOL0     C41582  10.163   2.555   9.154 -0.5573  1.3282 -0.0320
  302MOL0    Cl41583  10.146   2.610   9.330 -0.1774 -0.2433 -0.3424
  302MOL0     C41584   9.316   3.252   8.669 -0.2166 -0.3577  0.0142
  302MOL0     C41585   9.259   3.321   8.559 -0.4817  0.0501  0.6625
  302MOL0     O41586   8.983   3.384   8.447 -0.0208 -0.9665  0.2957
  302MOL0     C41587   9.141   3.522   8.168 -0.8180 -0.1826 -0.0881
  302MOL0     C41588   9.148   3.633   8.086 -0.8358  1.0160  0.5374
  302MOL0     N41589   8.810   4.345   7.796 -0.6081 -0.0678  0.0401
  302MOL0     N41590   8.678   4.360   7.810  0.1141 -0.2389 -0.4969
  302MOL0     C41591   7.505   4.291   7.440 -0.8380  0.0544  0.1429
  302MOL0     C41592   7.393   4.234   7.368 -1.0074 -0.3322 -0.2136
  302MOL0     C41593   7.167   3.865   7.302 -0.5981 -0.0167 -0.6849
  302MOL0     C41594   7.040   3.880   7.359  0.1570  0.5490 -0.1321
  302MOL0     C41595   6.936   3.783   7.335 -0.3509 -0.4288  0.7019
  302MOL0     C41596   6.964   3.673   7.260  0.6780  0.4233  1.5714
  302MOL0     O41597   6.861   3.595   7.223  0.2000  0.4996  0.1445
  302MOL0     C41598   6.879   3.486   7.134  0.4673 -1.0410  0.8915
  302MOL0     C41599   6.739   3.469   7.079 -0.3822  0.1468  0.1457
  302MOL0     C41600   6.685   3.597   7.014  0.4939 -0.2254 -0.8197
  302MOL0     C41601   6.566   3.555   6.919  0.0948 -0.6166  0.1340
  302MOL0     C41602   6.498   3.681   6.875 -0.2994 -0.9243 -0.1600
  302MOL0     C41603   6.448   3.786   6.841 -0.1938 -0.3503 -0.6146
  302MOL0     C41604   7.097   3.654   7.218  0.2734  0.3658  0.6897
  302MOL0     C41605   7.194   3.747   7.236 -0.3618  0.9492 -0.6224
  302MOL0     C41606   7.329   3.712   7.177  0.2513  0.4196 -0.2324
  302MOL0     H41607   7.227   4.091   7.616 -0.6477 -0.8716 -1.4648
  302MOL0     H41608   7.377   4.245   7.755 -1.8840  1.3875 -0.7652
  302MOL0     H41609   7.740   4.230   7.549  1.0452 -0.0445  0.4134
  302MOL0     H41610   7.786   4.288   7.704 -0.7966 -2.3818 -0.0292
  302MOL0     H41611   7.721   4.491   7.487  2.7585  0.1848 -0.8668
  302MOL0     H41612   7.800   4.515   7.639  1.8669 -1.6704  1.2141
  302MOL0     H41613   7.897   4.340   7.399  0.1504 -0.1711 -0.5418
  302MOL0     H41614   7.962   4.503   7.453  0.7514  0.7750  2.8335
  302MOL0     H41615   8.014   4.406   7.680  0.0747  2.0060 -0.2481
  302MOL0     H41616   7.991   4.247   7.613  0.1900  0.0701  1.0566
  302MOL0     H41617   8.204   4.456   7.551  0.6574  0.3953  0.0380
  302MOL0     H41618   8.198   4.293   7.469 -0.5502 -2.4309  1.5712
  302MOL0     H41619   8.212   4.320   7.766  1.9756  1.3309  0.6427
  302MOL0     H41620   8.237   4.173   7.655  3.2095 -0.7928  1.5429
  302MOL0     H41621   8.414   4.404   7.676  3.3780 -0.6245 -1.3765
  302MOL0     H41622   8.422   4.282   7.543 -1.2332  0.6267 -0.7534
  302MOL0     H41623   8.424   4.262   7.841  2.2514  1.0392  0.5595
  302MOL0     H41624   8.455   4.114   7.749 -0.6214  0.2667  0.5144
  302MOL0     H41625   8.702   4.058   7.690  2.3407 -0.0289 -2.6833
  302MOL0     H41626   9.044   4.231   7.769  1.5874 -1.4092  0.0643
  302MOL0     H41627   9.003   4.137   7.632 -0.2134  0.9172 -0.3159
  302MOL0     H41628   8.917   4.030   7.909 -0.9340 -0.3202  0.3312
  302MOL0     H41629   8.943   3.942   7.761 -0.8554  0.9302 -0.4345
  302MOL0     H41630   9.190   4.010   7.776  1.2266 -1.5815  1.2092
  302MOL0     H41631   9.143   4.052   7.942  0.1429 -1.5266  0.9195
  302MOL0     H41632   9.067   3.785   7.822 -3.4025  0.7555  0.7162
  302MOL0     H41633   9.221   3.810   7.902  1.4058  3.0853 -2.8273
  302MOL0     H41634   8.853   3.776   8.173  2.1556  1.7516  1.6958
  302MOL0     H41635   8.774   3.478   8.346 -1.8736  0.3890  1.3652
  302MOL0     H41636   8.730   3.652   8.306 -0.0684  0.9605  2.0892
  302MOL0     H41637   8.841   3.613   8.439  2.3948  2.9364 -1.1831
  302MOL0     H41638   9.234   3.049   8.361  1.0695  0.2078 -1.3505
  302MOL0     H41639   9.353   2.947   8.537 -1.5684  0.1818  2.5208
  302MOL0     H41640   9.435   2.874   8.762  0.8695 -0.5544 -0.4151
  302MOL0     H41641   9.555   2.958   8.661 -1.4780  1.2828 -0.8884
  302MOL0     H41642   9.687   3.022   8.853 -1.6815  2.4315 -0.6026
  302MOL0     H41643   9.551   2.983   8.963  3.0542  0.0689  1.3504
  302MOL0     H41644   9.656   2.768   8.792  0.1756  2.1469 -0.8327
  302MOL0     H41645   9.568   2.756   8.947 -1.2590  1.8691  1.9709
  302MOL0     H41646   9.764   2.859   9.067 -0.0256  0.1864 -0.1746
  302MOL0     H41647   9.852   2.863   8.919 -0.4873  0.5907  0.9211
  302MOL0     H41648   9.757   2.589   9.042  1.0055 -1.9164 -2.0602
  302MOL0     H41649   9.850   2.642   8.893  0.7177  5.3164 -1.2249
  302MOL0     H41650   9.947   2.723   9.164 -1.7478 -1.0563 -0.2146
  302MOL0     H41651  10.027   2.726   9.004 -1.4748 -0.2096 -1.4961
  302MOL0     H41652  10.023   2.459   9.028 -3.0935 -0.0902  0.4661
  302MOL0     H41653   9.977   2.501   9.199  0.8277  0.4242  0.0991
  302MOL0     H41654  10.209   2.629   9.089 -1.4971  0.1061 -2.1707
  302MOL0     H41655  10.213   2.458   9.158 -3.4515 -0.3168 -0.1569
  302MOL0     H41656   9.350   3.315   8.751  2.0506  0.2535 -1.2953
  302MOL0     H41657   9.233   3.427   8.562  0.0462  0.2917 -1.3957
  302MOL0     H41658   9.228   3.457   8.167  0.7451  1.8021  0.5138
  302MOL0     H41659   9.237   3.634   8.025 -0.4156 -2.9828  0.8240
  302MOL0     H41660   7.580   4.338   7.377 -0.1202  1.6276  2.0521
  302MOL0     H41661   7.392   4.226   7.259  1.9617 -0.5802 -0.2875
  302MOL0     H41662   7.009   3.967   7.417 -1.6298 -0.1935  0.1101
  302MOL0     H41663   6.840   3.799   7.383  0.8122 -0.0571  3.0449
  302MOL0     H41664   6.951   3.502   7.053  0.5179 -1.8933  0.7671
  302MOL0     H41665   6.919   3.394   7.177 -0.5952 -1.0422  1.9244
  302MOL0     H41666   6.679   3.450   7.168  1.2635 -2.0413  0.8662
  302MOL0     H41667   6.734   3.389   7.004  3.9636  1.7700 -2.2484
  302MOL0     H41668   6.661   3.662   7.098 -0.9592 -1.1173 -0.5095
  302MOL0     H41669   6.751   3.663   6.958  1.3759 -0.1207  0.2986
  302MOL0     H41670   6.494   3.499   6.980  1.2072 -4.2885 -1.6776
  302MOL0     H41671   6.604   3.494   6.837  2.7178 -1.2523  1.7126
  302MOL0     H41672   6.403   3.879   6.815  0.1206 -0.0333 -0.0430
  302MOL0     H41673   7.116   3.567   7.155 -1.4354  1.2278 -1.1448
  302MOL0     H41674   7.371   3.628   7.232  0.1095 -0.7868 -1.8945
  302MOL0     H41675   7.310   3.676   7.075 -0.6093 -2.3516  0.8391
  302MOL0     H41676   7.400   3.795   7.170  0.5059  0.2730  0.5536
  303MOL0     O41677   6.301   4.253   2.534 -0.0614  0.1190 -0.5590
  303MOL0     C41678   6.210   4.167   2.535 -0.6096  0.8847  0.7003
  303MOL0     O41679   6.232   4.029   2.547  0.0815 -0.6874  0.4601
  303MOL0     C41680   6.346   3.982   2.602  0.7974 -0.1894 -0.6671
  303MOL0     C41681   6.468   3.997   2.529  0.6997 -0.3427 -0.4697
  303MOL0     C41682   6.595   3.948   2.574  0.4804  0.2929 -0.1128
  303MOL0     C41683   6.595   3.877   2.691 -0.5258  0.1142 -0.4044
  303MOL0     O41684   6.720   3.836   2.739 -0.2761  0.2530  0.5500
  303MOL0     C41685   6.728   3.745   2.845  0.4593 -0.7876  1.2775
  303MOL0     C41686   6.833   3.644   2.821 -0.2674  0.8042 -0.1055
  303MOL0     C41687   6.857   3.548   2.943 -0.5041 -0.3613  0.0396
  303MOL0     C41688   6.977   3.455   2.942 -0.3934 -1.4583  0.7867
  303MOL0     C41689   6.966   3.342   3.037  0.5555  0.4386  0.0277
  303MOL0     C41690   6.913   3.363   3.182  0.1680  0.1365  0.1490
  303MOL0     C41691   7.008   3.448   3.276  0.2905 -0.0984 -0.0002
  303MOL0     C41692   6.928   3.505   3.402 -0.0627  0.2906 -0.4837
  303MOL0     N41693   7.016   3.565   3.500  0.1036  0.1058 -0.2777
  303MOL0     C41694   6.981   3.663   3.593  0.1925 -0.3588  0.3865
  303MOL0     C41695   7.091   3.696   3.664 -0.6053  0.3591 -0.2823
  303MOL0     C41696   7.101   3.790   3.774  0.8316 -0.4058 -0.3304
  303MOL0     C41697   6.995   3.909   3.765 -0.5466 -0.2060 -0.0863
  303MOL0     C41698   6.984   4.000   3.895 -0.2936 -0.3095 -0.1855
  303MOL0     C41699   7.061   4.132   3.883  0.5959  0.8999 -0.2239
  303MOL0     O41700   7.204   4.105   3.866  0.7424  0.6275 -0.4124
  303MOL0     C41701   7.268   4.072   3.987  0.6272 -0.3436  0.3480
  303MOL0     C41702   7.332   3.948   4.019  0.3219  0.1158  0.2344
  303MOL0     C41703   7.393   3.921   4.140 -0.7975  0.1902  0.0340
  303MOL0     C41704   7.451   3.781   4.151  0.3351 -0.4143  0.1575
  303MOL0     C41705   7.393   4.033   4.236  0.4361  0.5486  0.2200
  303MOL0     C41706   7.472   4.028   4.360 -0.6289 -0.4883 -0.6480
  303MOL0     O41707   7.510   4.149   4.396 -0.5220  0.6529  0.1478
  303MOL0     C41708   7.605   4.169   4.495 -0.3846 -0.5186 -0.0431
  303MOL0     C41709   7.692   4.279   4.481 -0.0389  0.4343 -1.1393
  303MOL0     C41710   7.803   4.304   4.564 -0.1292 -0.8411 -0.1524
  303MOL0     C41711   7.812   4.236   4.687 -0.1393 -0.3594  0.1121
  303MOL0     O41712   7.896   4.275   4.792 -0.0690  0.3065  0.1658
  303MOL0     C41713   8.012   4.349   4.769 -0.6375  0.1149 -0.3894
  303MOL0     C41714   8.093   4.368   4.895  0.8136  0.7341 -0.1701
  303MOL0     C41715   8.022   4.466   4.988  0.0599  0.9750 -0.3118
  303MOL0     C41716   8.082   4.452   5.129  0.9757  0.2996 -0.1551
  303MOL0     C41717   7.993   4.549   5.212 -0.3236 -0.1868 -0.1012
  303MOL0     C41718   8.020   4.545   5.361 -0.6102  0.5975  1.6498
  303MOL0     C41719   7.935   4.626   5.452 -0.3979  0.0181  0.5461
  303MOL0     C41720   7.971   4.614   5.603  0.3141 -0.1360  0.6782
  303MOL0    Cl41721   8.148   4.655   5.640 -0.1831  0.5106 -0.6860
  303MOL0     C41722   7.724   4.130   4.713 -0.3867  1.0891 -1.0752
  303MOL0     C41723   7.627   4.094   4.617 -0.0680  0.1332 -0.2684
  303MOL0     O41724   7.507   3.922   4.405  0.6811  0.4642 -0.0151
  303MOL0     C41725   7.327   4.153   4.212 -0.4193  0.0237 -0.4622
  303MOL0     C41726   7.271   4.175   4.088 -0.7796  0.8173 -0.1337
  303MOL0     N41727   7.191   3.619   3.606  0.3397 -0.0691  0.1443
  303MOL0     N41728   7.150   3.541   3.513  0.4694  0.1055 -0.6539
  303MOL0     C41729   6.469   3.848   2.759  0.3570 -0.3320 -0.5070
  303MOL0     C41730   6.343   3.904   2.714 -0.5201  0.1427 -0.1809
  303MOL0     C41731   6.082   4.204   2.472  0.8538 -0.0255 -0.5066
  303MOL0     C41732   6.015   4.105   2.396  0.2582 -1.0612 -0.4946
  303MOL0     C41733   5.893   4.144   2.332  1.2149  0.1108  0.2985
  303MOL0     C41734   5.833   4.268   2.358  0.3436 -0.6850 -0.0655
  303MOL0     O41735   5.708   4.306   2.306 -0.1513  0.3056  0.2090
  303MOL0     C41736   5.623   4.200   2.252 -0.5693 -0.4493  0.2863
  303MOL0     C41737   5.648   4.188   2.101  0.6551  0.0023  0.0593
  303MOL0     C41738   5.577   4.069   2.037  0.2031  0.0760  0.2246
  303MOL0     C41739   5.593   4.077   1.880  0.3197  0.4660  0.0724
  303MOL0     C41740   5.497   4.167   1.808  0.1505 -0.4322  0.3216
  303MOL0     C41741   5.427   4.238   1.733 -0.5195 -1.2691 -0.2554
  303MOL0     C41742   5.905   4.367   2.427 -0.0971 -0.0184 -0.6597
  303MOL0     C41743   6.030   4.338   2.488 -0.0268  0.8471  0.0970
  303MOL0     C41744   6.110   4.450   2.562 -0.1323  0.4122  0.4586
  303MOL0     H41745   6.451   4.055   2.439 -0.7941 -0.3174 -0.1985
  303MOL0     H41746   6.687   3.975   2.522  0.7524  1.8995  1.1320
  303MOL0     H41747   6.635   3.689   2.858  1.0296 -1.5183  2.3304
  303MOL0     H41748   6.758   3.792   2.939  1.0682 -0.4810  0.9378
  303MOL0     H41749   6.822   3.579   2.733  2.6951  0.7838 -0.5579
  303MOL0     H41750   6.928   3.692   2.795 -0.2737 -0.1132 -2.0717
  303MOL0     H41751   6.857   3.602   3.038 -1.0432 -0.0728 -0.1231
  303MOL0     H41752   6.770   3.481   2.947 -0.1847 -0.7183  1.7278
  303MOL0     H41753   6.993   3.418   2.840  1.0912 -1.5008  1.0125
  303MOL0     H41754   7.069   3.509   2.965 -0.9889  0.0433 -0.2403
  303MOL0     H41755   7.062   3.292   3.055  0.5387  0.2260 -0.4518
  303MOL0     H41756   6.888   3.278   2.996 -0.7747  1.7986  0.3620
  303MOL0     H41757   6.811   3.402   3.184 -0.4683 -1.4488  0.2856
  303MOL0     H41758   6.896   3.264   3.225 -0.4693 -0.1621 -0.7608
  303MOL0     H41759   7.053   3.530   3.220  1.4764 -1.5698 -1.2996
  303MOL0     H41760   7.085   3.375   3.304  0.8829  0.8333  0.8524
  303MOL0     H41761   6.865   3.588   3.368 -2.1358  0.1555  2.6030
  303MOL0     H41762   6.865   3.427   3.445  1.1605 -1.4705 -1.7570
  303MOL0     H41763   6.880   3.702   3.583  1.0679  1.4614 -4.6231
  303MOL0     H41764   7.205   3.826   3.775  1.6191 -2.5534 -0.4875
  303MOL0     H41765   7.091   3.732   3.865 -0.4480  1.6544  0.9208
  303MOL0     H41766   7.020   3.968   3.676 -1.3931 -0.9307 -0.8279
  303MOL0     H41767   6.892   3.874   3.756 -0.6064 -0.1488  0.3345
  303MOL0     H41768   6.885   4.042   3.914  0.3940  3.8696 -3.9897
  303MOL0     H41769   7.017   3.950   3.986  0.3382  0.6259  0.1080
  303MOL0     H41770   7.017   4.180   3.795  1.0530  0.5408 -0.6562
  303MOL0     H41771   7.044   4.200   3.967 -1.0829 -2.1198  2.0941
  303MOL0     H41772   7.338   3.882   3.933 -0.2689  1.5518 -0.9646
  303MOL0     H41773   7.558   3.781   4.174  0.8314 -1.6213 -1.8478
  303MOL0     H41774   7.455   3.730   4.054  0.2843 -0.3915  0.1432
  303MOL0     H41775   7.394   3.718   4.220 -1.6912  0.8741 -0.2605
  303MOL0     H41776   7.674   4.345   4.397 -0.7944 -1.0015 -2.1501
  303MOL0     H41777   7.862   4.393   4.547 -1.1261  0.1169  1.1715
  303MOL0     H41778   8.079   4.284   4.711  1.0532 -1.3520  2.9350
  303MOL0     H41779   7.987   4.440   4.714  0.0284  0.3312 -0.3424
  303MOL0     H41780   8.094   4.271   4.946 -3.1669  2.1896  3.2165
  303MOL0     H41781   8.196   4.394   4.871  1.6598 -1.1459  1.1804
  303MOL0     H41782   7.915   4.444   4.995  0.7032 -2.2214  1.4455
  303MOL0     H41783   8.040   4.562   4.939  2.4035 -1.4824 -4.9156
  303MOL0     H41784   8.185   4.491   5.127  1.1422 -0.0882  0.5387
  303MOL0     H41785   8.067   4.352   5.168  0.7630  0.8978  1.3648
  303MOL0     H41786   8.027   4.649   5.182  1.7686 -1.1489 -1.1008
  303MOL0     H41787   7.889   4.532   5.183 -0.0919  0.6386 -1.5461
  303MOL0     H41788   8.125   4.575   5.373 -0.0794 -0.3196 -0.3364
  303MOL0     H41789   8.022   4.439   5.387  3.7502 -0.5587 -1.9756
  303MOL0     H41790   7.830   4.614   5.425 -0.2797 -0.6419  0.3511
  303MOL0     H41791   7.954   4.733   5.441  4.0737 -0.7866 -1.9882
  303MOL0     H41792   7.953   4.508   5.623 -1.3537 -0.1551 -0.7514
  303MOL0     H41793   7.903   4.666   5.672 -1.4982 -2.6550  0.9209
  303MOL0     H41794   7.728   4.086   4.812 -2.5662  2.0346 -0.5060
  303MOL0     H41795   7.565   4.005   4.628 -1.0170  0.4435 -2.5660
  303MOL0     H41796   7.321   4.238   4.279 -2.1768  0.4453 -1.0984
  303MOL0     H41797   7.242   4.268   4.039 -1.4892 -0.0153 -1.3288
  303MOL0     H41798   6.465   3.802   2.857 -0.7134  0.1795 -0.2972
  303MOL0     H41799   6.255   3.875   2.770 -0.6297 -2.6127 -1.6231
  303MOL0     H41800   6.054   4.004   2.391  2.7369 -0.2289  0.5351
  303MOL0     H41801   5.843   4.065   2.276  1.1462 -0.3583  1.0058
  303MOL0     H41802   5.629   4.105   2.306 -2.8653 -1.6633 -1.4296
  303MOL0     H41803   5.523   4.241   2.269 -0.8706 -0.4783 -1.2568
  303MOL0     H41804   5.755   4.170   2.088  1.5043  1.5222  3.6279
  303MOL0     H41805   5.625   4.277   2.042  1.7496 -0.8315 -1.7014
  303MOL0     H41806   5.625   3.978   2.077 -0.2476 -0.5220 -0.5710
  303MOL0     H41807   5.474   4.059   2.072 -0.1973 -1.2660 -1.2122
  303MOL0     H41808   5.577   3.974   1.845 -3.2816  1.9425 -3.4015
  303MOL0     H41809   5.695   4.106   1.856  0.9062 -0.3229  1.4946
  303MOL0     H41810   5.362   4.300   1.673 -0.1423  0.5038  1.0718
  303MOL0     H41811   5.857   4.464   2.428  0.9406  0.5141  0.5175
  303MOL0     H41812   6.046   4.537   2.578  0.6185  1.0838 -0.0987
  303MOL0     H41813   6.144   4.417   2.660  3.2218  0.8923 -0.4062
  303MOL0     H41814   6.206   4.478   2.519  0.1214  0.3279  0.9671
  304MOL0     O41815   9.453   8.601   2.250 -0.4077 -0.3567  0.2804
  304MOL0     C41816   9.508   8.711   2.266  0.0121  0.4410  1.0735
  304MOL0     O41817   9.452   8.832   2.247 -0.2783 -0.3949 -0.1185
  304MOL0     C41818   9.342   8.846   2.164 -0.2795 -0.1033 -0.0816
  304MOL0     C41819   9.228   8.905   2.220 -0.2164 -0.3728 -0.2870
  304MOL0     C41820   9.112   8.930   2.135  0.4800  0.2990 -0.6587
  304MOL0     C41821   9.114   8.891   1.997  0.5764  0.0396 -0.0612
  304MOL0     O41822   9.005   8.894   1.909  0.5759  0.2774 -0.0104
  304MOL0     C41823   8.905   8.988   1.938 -0.7679 -0.0261  0.7691
  304MOL0     C41824   8.795   8.987   1.842 -0.4954 -0.2295  0.4944
  304MOL0     C41825   8.854   8.996   1.697  0.4489 -1.0041 -0.6049
  304MOL0     C41826   8.859   8.859   1.629  1.1185 -0.2773 -0.0225
  304MOL0     C41827   8.960   8.839   1.507  0.4453 -0.1345  0.1356
  304MOL0     C41828   8.960   8.693   1.457  0.3077 -0.3992  0.1920
  304MOL0     C41829   9.051   8.674   1.340  0.3559 -0.3893  0.5809
  304MOL0     C41830   9.019   8.545   1.268 -0.2141 -0.6598  1.2824
  304MOL0     N41831   9.063   8.422   1.341 -0.5123 -0.2882  0.4192
  304MOL0     C41832   9.187   8.382   1.339  0.0189 -0.6973 -0.4216
  304MOL0     C41833   9.170   8.255   1.377 -0.5016 -0.3027  0.1959
  304MOL0     C41834   9.277   8.156   1.349 -0.1900  0.2179 -0.2151
  304MOL0     C41835   9.407   8.199   1.416 -0.2590  0.8081  0.7268
  304MOL0     C41836   9.480   8.078   1.484 -0.3928 -0.6194  1.0443
  304MOL0     C41837   9.607   8.115   1.555 -0.2782  0.0879 -0.4141
  304MOL0     O41838   9.713   8.172   1.480  0.0279  0.8304  0.1253
  304MOL0     C41839   9.833   8.202   1.553  0.0572  0.0470  0.3412
  304MOL0     C41840   9.847   8.198   1.693 -0.1909 -0.6818 -0.5012
  304MOL0     C41841   9.971   8.236   1.756 -0.4389 -0.0136 -0.0654
  304MOL0     C41842   9.979   8.202   1.910  0.9608 -0.4804  0.2759
  304MOL0     C41843  10.075   8.291   1.680  0.4568 -0.8685 -0.3475
  304MOL0     C41844  10.193   8.362   1.742 -0.7310 -0.0983 -0.5484
  304MOL0     O41845  10.274   8.430   1.655  0.1409  0.5332  0.4005
  304MOL0     C41846  10.388   8.504   1.684  0.0306  0.6555 -0.3719
  304MOL0     C41847  10.459   8.505   1.799 -0.2717 -0.3735 -0.2225
  304MOL0     C41848  10.579   8.583   1.813  1.0535 -0.6704 -0.3867
  304MOL0     C41849  10.627   8.661   1.705 -0.2597  0.1345  0.4388
  304MOL0     O41850  10.749   8.722   1.727 -0.2214  0.8128 -0.4228
  304MOL0     C41851  10.774   8.844   1.662  0.0363 -1.3276  0.9744
  304MOL0     C41852  10.911   8.895   1.708  0.6750  1.0101  0.1977
  304MOL0     C41853  11.015   8.786   1.687  0.5992 -0.0609 -0.6531
  304MOL0     C41854  11.147   8.866   1.687  0.1136 -0.4764 -0.6590
  304MOL0     C41855  11.270   8.775   1.682 -0.0133 -0.9912  0.3956
  304MOL0     C41856  11.400   8.859   1.648  0.1145 -0.3164  0.8249
  304MOL0     C41857  11.528   8.777   1.621  0.4208  0.3598 -0.0304
  304MOL0     C41858  11.523   8.720   1.478  0.4793 -0.2426  0.3710
  304MOL0    Cl41859  11.675   8.625   1.452  0.5005 -0.3721  0.0361
  304MOL0     C41860  10.546   8.658   1.582 -1.2818  0.5014  0.1733
  304MOL0     C41861  10.434   8.579   1.576 -0.4848 -0.2141 -0.5688
  304MOL0     O41862  10.221   8.334   1.855  0.2751  0.3121 -0.1308
  304MOL0     C41863  10.052   8.295   1.551 -0.1761 -0.3533  0.5625
  304MOL0     C41864   9.944   8.247   1.482 -0.1175 -0.4687 -0.5324
  304MOL0     N41865   9.045   8.231   1.430  0.4941  0.1082  0.0432
  304MOL0     N41866   8.974   8.327   1.398 -0.4102 -1.3889  0.1608
  304MOL0     C41867   9.224   8.827   1.955 -0.3116  0.0657  0.7714
  304MOL0     C41868   9.337   8.801   2.034 -0.4395 -0.4619  0.2679
  304MOL0     C41869   9.646   8.704   2.305  0.2570 -0.1902 -0.3843
  304MOL0     C41870   9.689   8.606   2.397 -0.1154  0.8844  0.8104
  304MOL0     C41871   9.811   8.589   2.445 -0.1580 -0.3466  0.7762
  304MOL0     C41872   9.910   8.684   2.409 -1.2988 -0.3417  0.1236
  304MOL0     O41873  10.045   8.684   2.446 -1.4311  0.4365  0.4114
  304MOL0     C41874  10.114   8.560   2.474  0.7941 -0.0246  1.3311
  304MOL0     C41875  10.168   8.515   2.333  0.8694 -0.4955 -0.1720
  304MOL0     C41876  10.283   8.608   2.295 -0.6544 -0.5418  0.0113
  304MOL0     C41877  10.343   8.542   2.175  0.0309  0.4230 -0.1336
  304MOL0     C41878  10.490   8.515   2.184 -0.4147 -0.7607 -0.5583
  304MOL0     C41879  10.606   8.501   2.192 -1.0299 -0.5766  0.2534
  304MOL0     C41880   9.875   8.792   2.329 -0.3604  0.3579  0.0023
  304MOL0     C41881   9.743   8.811   2.284 -0.9284 -0.1494  0.2828
  304MOL0     C41882   9.719   8.936   2.212 -0.3279 -0.0808 -0.2740
  304MOL0     H41883   9.227   8.933   2.325  3.0705 -2.0497  0.3306
  304MOL0     H41884   9.025   8.970   2.185 -0.5042 -1.1143 -1.1629
  304MOL0     H41885   8.951   9.087   1.933  0.7342 -0.7643 -1.3587
  304MOL0     H41886   8.866   8.975   2.039  1.3425  1.4379  1.8351
  304MOL0     H41887   8.755   8.886   1.854  0.9571 -0.7512  1.1977
  304MOL0     H41888   8.726   9.069   1.865  2.0754  2.0150  0.7655
  304MOL0     H41889   8.799   9.065   1.632  0.4155 -2.6659 -2.4102
  304MOL0     H41890   8.957   9.030   1.713 -0.8588  2.5488  1.5523
  304MOL0     H41891   8.869   8.785   1.710  0.0437  1.1010  1.4338
  304MOL0     H41892   8.756   8.839   1.598  1.2254 -1.9959  0.6153
  304MOL0     H41893   9.061   8.878   1.524  2.2281 -3.8661 -0.5859
  304MOL0     H41894   8.922   8.904   1.428  3.7742  3.9605  1.5744
  304MOL0     H41895   9.002   8.633   1.539 -3.1424  2.0510  4.1347
  304MOL0     H41896   8.858   8.654   1.451  0.6905 -1.5008  0.5908
  304MOL0     H41897   9.149   8.675   1.388  0.7583 -2.4878 -0.1002
  304MOL0     H41898   9.043   8.754   1.265 -1.0650 -3.3634 -2.7361
  304MOL0     H41899   8.911   8.535   1.255 -0.1440  0.4500 -0.4214
  304MOL0     H41900   9.055   8.554   1.165 -1.2803  0.8328  1.0084
  304MOL0     H41901   9.278   8.428   1.300 -0.0025  4.1316  4.0909
  304MOL0     H41902   9.292   8.152   1.241  2.2581 -0.6987  0.1007
  304MOL0     H41903   9.258   8.053   1.381 -0.0535  0.3531  0.3171
  304MOL0     H41904   9.474   8.253   1.348 -0.7452 -0.0119 -0.4337
  304MOL0     H41905   9.383   8.270   1.495  2.9419  1.6707  1.0690
  304MOL0     H41906   9.410   8.048   1.563  1.7453  0.9372  3.7131
  304MOL0     H41907   9.492   8.004   1.404 -3.6375  0.6645 -0.8016
  304MOL0     H41908   9.586   8.190   1.630  1.0834  0.1154 -0.0263
  304MOL0     H41909   9.640   8.025   1.608  0.0199  0.6673  0.4006
  304MOL0     H41910   9.763   8.166   1.753 -0.3143  2.0845  0.9662
  304MOL0     H41911   9.997   8.295   1.965 -0.1016 -1.1436  1.8060
  304MOL0     H41912  10.066   8.138   1.931  0.8817 -0.3104  1.1447
  304MOL0     H41913   9.886   8.154   1.941 -0.0668  0.1409 -1.6737
  304MOL0     H41914  10.423   8.451   1.886  2.1924 -0.6622  0.7059
  304MOL0     H41915  10.629   8.574   1.910 -1.3544 -2.4870  0.8018
  304MOL0     H41916  10.785   8.825   1.555 -3.3098 -2.9228  0.7962
  304MOL0     H41917  10.696   8.915   1.691  0.0383 -1.0451  0.2850
  304MOL0     H41918  10.943   8.968   1.634 -0.9405  0.3520 -1.2448
  304MOL0     H41919  10.918   8.934   1.809  4.0729  2.8483 -0.6058
  304MOL0     H41920  11.011   8.737   1.589  5.6421 -2.9365  0.2315
  304MOL0     H41921  11.014   8.711   1.766  2.3659 -1.7568 -2.1429
  304MOL0     H41922  11.158   8.937   1.769  1.8384  1.1647 -2.2094
  304MOL0     H41923  11.141   8.928   1.597 -1.9150 -0.7147 -0.7306
  304MOL0     H41924  11.276   8.727   1.780 -0.1076 -0.6127  0.5886
  304MOL0     H41925  11.241   8.696   1.612 -1.5955  0.8310 -1.0960
  304MOL0     H41926  11.410   8.929   1.732 -0.4275  0.6641  0.1009
  304MOL0     H41927  11.386   8.916   1.556 -0.2584 -0.3290  0.8695
  304MOL0     H41928  11.531   8.686   1.682  0.0977  1.5160  1.7801
  304MOL0     H41929  11.613   8.840   1.651 -1.6859  2.1783  2.5932
  304MOL0     H41930  11.523   8.810   1.417  0.3419  2.0683  3.5058
  304MOL0     H41931  11.440   8.651   1.460  0.0917 -0.0828  1.4549
  304MOL0     H41932  10.589   8.716   1.501  1.6573  0.0540  1.2910
  304MOL0     H41933  10.357   8.589   1.501 -0.2068 -0.3678 -0.8779
  304MOL0     H41934  10.135   8.333   1.492 -0.7218 -1.3199 -0.8931
  304MOL0     H41935   9.947   8.249   1.373  0.9583 -1.4002 -0.5375
  304MOL0     H41936   9.237   8.808   1.849  1.2267  3.7543  0.1184
  304MOL0     H41937   9.421   8.751   1.986  0.4834  2.3255 -1.2878
  304MOL0     H41938   9.622   8.527   2.428  0.9999 -0.8972 -1.0861
  304MOL0     H41939   9.842   8.500   2.498  3.3435  0.7764  0.8590
  304MOL0     H41940  10.191   8.578   2.548  1.3689 -0.4026  0.8397
  304MOL0     H41941  10.046   8.481   2.509  0.4413 -0.2064  0.3045
  304MOL0     H41942  10.088   8.502   2.259  0.8798  0.6297 -0.4096
  304MOL0     H41943  10.211   8.418   2.357  0.1226 -0.2010  2.7030
  304MOL0     H41944  10.239   8.703   2.262  1.7134  0.1542 -1.3661
  304MOL0     H41945  10.352   8.625   2.378 -1.6764 -1.1068  1.0066
  304MOL0     H41946  10.324   8.593   2.081 -2.1194  0.0727  0.0753
  304MOL0     H41947  10.289   8.449   2.155  2.8233 -1.1778 -0.7487
  304MOL0     H41948  10.710   8.481   2.205 -0.1341  3.5658  0.8858
  304MOL0     H41949   9.946   8.873   2.313  0.5635 -0.4570 -0.1749
  304MOL0     H41950   9.812   8.993   2.205  0.8662 -1.9796 -0.8625
  304MOL0     H41951   9.680   8.918   2.111 -0.5773  3.0205 -0.8242
  304MOL0     H41952   9.651   8.998   2.270 -0.6362 -2.1919  1.7718
  305MOL0     O41953   6.857   8.910   9.199  0.0771  0.6572  0.0269
  305MOL0     C41954   6.863   8.879   9.320  0.5248  0.4888 -0.2097
  305MOL0     O41955   6.968   8.906   9.401 -0.7027  0.6219  0.2961
  305MOL0     C41956   7.096   8.901   9.360  0.0573 -0.5230 -0.9815
  305MOL0     C41957   7.148   8.853   9.236  0.0275 -1.3276 -0.1046
  305MOL0     C41958   7.283   8.867   9.213 -0.9099 -0.5939  0.7171
  305MOL0     C41959   7.371   8.914   9.308  0.3176 -0.0247  0.9460
  305MOL0     O41960   7.496   8.918   9.254 -0.2425 -0.1302 -0.7146
  305MOL0     C41961   7.597   8.952   9.351  0.2201  0.1932 -0.1318
  305MOL0     C41962   7.731   8.938   9.277  0.9379  0.7193  0.1507
  305MOL0     C41963   7.854   8.978   9.363 -0.0570  0.0235  0.4408
  305MOL0     C41964   7.862   9.120   9.403  0.0638 -0.1371 -0.0894
  305MOL0     C41965   7.979   9.144   9.501  0.3734  0.6410 -0.1843
  305MOL0     C41966   7.989   9.285   9.557 -0.1254  1.0573  0.9011
  305MOL0     C41967   8.096   9.371   9.482  0.6746  0.4442 -0.3613
  305MOL0     C41968   8.237   9.307   9.487 -0.4027  0.7868  0.5496
  305MOL0     N41969   8.292   9.269   9.621 -0.0852 -0.1751  0.4504
  305MOL0     C41970   8.255   9.159   9.702  0.5218 -0.2787 -0.3340
  305MOL0     C41971   8.343   9.158   9.805  0.1716  0.1802 -0.3366
  305MOL0     C41972   8.343   9.058   9.926 -0.3237  0.5627  1.3072
  305MOL0     C41973   8.205   8.983   9.957 -0.2615  0.2924  0.1516
  305MOL0     C41974   8.096   9.079  10.013 -0.5660 -0.2057  0.8401
  305MOL0     C41975   7.973   9.005  10.034 -0.9532  0.9236 -0.6036
  305MOL0     O41976   7.915   8.978   9.906 -0.2637 -0.2142  0.3583
  305MOL0     C41977   7.825   8.877   9.894 -0.6418  0.5786  1.1310
  305MOL0     C41978   7.794   8.817   9.772 -0.4359 -1.1217  0.2433
  305MOL0     C41979   7.704   8.709   9.737  0.1292 -0.8738  0.5704
  305MOL0     C41980   7.678   8.665   9.595  0.1117 -0.2905  0.8304
  305MOL0     C41981   7.629   8.663   9.851  0.5489 -0.2805  0.2976
  305MOL0     C41982   7.524   8.563   9.847 -0.9202 -0.0881  0.5435
  305MOL0     O41983   7.428   8.571   9.939  0.1362 -0.3158 -0.4587
  305MOL0     C41984   7.301   8.512   9.919  0.3037  0.3543  0.3642
  305MOL0     C41985   7.238   8.442  10.020 -0.2152  0.7979  0.6937
  305MOL0     C41986   7.111   8.390  10.009 -0.4644 -0.0835  0.2156
  305MOL0     C41987   7.040   8.405   9.887 -0.7058  0.8894 -0.6398
  305MOL0     O41988   6.927   8.340   9.858  0.6988 -0.0881  0.1918
  305MOL0     C41989   6.838   8.291   9.966  0.0450 -0.4712  0.2088
  305MOL0     C41990   6.696   8.238   9.902 -0.0986 -0.4205  0.2025
  305MOL0     C41991   6.719   8.119   9.804  0.2323  0.3809  0.3151
  305MOL0     C41992   6.580   8.059   9.779  0.2724  0.1237  0.6185
  305MOL0     C41993   6.590   7.960   9.665 -0.3716  0.9064 -0.8354
  305MOL0     C41994   6.466   7.917   9.601  0.4642 -0.1219  0.5275
  305MOL0     C41995   6.464   7.783   9.524 -0.2541 -0.1039  0.4452
  305MOL0     C41996   6.322   7.758   9.470  0.0698  0.2775  0.9390
  305MOL0    Cl41997   6.300   7.828   9.316  0.1624 -0.5174  0.1551
  305MOL0     C41998   7.100   8.463   9.779  0.6893  0.4700 -0.2198
  305MOL0     C41999   7.230   8.517   9.794  0.4714 -0.1887  0.4930
  305MOL0     O42000   7.523   8.474   9.764  0.5970 -0.1094  0.7740
  305MOL0     C42001   7.662   8.713   9.986 -0.6958  0.5122  0.2774
  305MOL0     C42002   7.758   8.819  10.006 -0.4258  0.4564  0.0374
  305MOL0     N42003   8.439   9.259   9.784 -0.8823 -0.1610  0.1344
  305MOL0     N42004   8.398   9.329   9.681 -0.4607  0.2112 -1.0317
  305MOL0     C42005   7.329   8.940   9.435  0.4805 -0.3514  0.0530
  305MOL0     C42006   7.188   8.947   9.460  0.4679  0.4481  0.4212
  305MOL0     C42007   6.750   8.812   9.396  0.1199 -0.2197 -0.1271
  305MOL0     C42008   6.621   8.843   9.346 -0.8291 -0.5582 -0.7770
  305MOL0     C42009   6.504   8.804   9.402 -0.1280  0.0075 -0.2408
  305MOL0     C42010   6.507   8.740   9.528  0.7703  0.4700  0.0785
  305MOL0     O42011   6.395   8.700   9.612 -0.8910 -0.1884 -0.1374
  305MOL0     C42012   6.263   8.710   9.559 -0.1781  0.1569 -0.3661
  305MOL0     C42013   6.180   8.630   9.664  0.2610 -0.9595 -0.5378
  305MOL0     C42014   6.143   8.741   9.768  0.6281 -0.0486  1.1270
  305MOL0     C42015   6.079   8.700   9.896  0.7045 -0.5894 -1.1919
  305MOL0     C42016   5.938   8.682   9.849 -0.6708  0.4290  0.7425
  305MOL0     C42017   5.836   8.673   9.784  0.1451  0.3787 -1.3403
  305MOL0     C42018   6.630   8.703   9.577 -0.6480  0.4449 -0.2822
  305MOL0     C42019   6.757   8.737   9.512  0.2809  0.3724 -1.1376
  305MOL0     C42020   6.885   8.702   9.590  0.7096  0.4476  0.2774
  305MOL0     H42021   7.082   8.830   9.153 -0.7591  2.9280 -0.8664
  305MOL0     H42022   7.317   8.831   9.116  1.7717  0.8114  1.0366
  305MOL0     H42023   7.594   8.887   9.439  0.1301 -0.0519 -0.3134
  305MOL0     H42024   7.573   9.048   9.398 -0.8293 -1.4167  2.8955
  305MOL0     H42025   7.735   8.833   9.245 -1.2802  0.8284 -0.6819
  305MOL0     H42026   7.734   8.997   9.185 -0.0040  1.6566  0.6989
  305MOL0     H42027   7.898   8.909   9.435 -0.0680  1.2438  1.6562
  305MOL0     H42028   7.938   8.956   9.298 -0.5897  2.8518 -1.3742
  305MOL0     H42029   7.878   9.185   9.316 -0.0302 -1.0131 -0.7693
  305MOL0     H42030   7.765   9.152   9.442 -1.0209  1.7759 -3.8303
  305MOL0     H42031   8.069   9.099   9.457 -0.6820  0.9378 -2.8579
  305MOL0     H42032   7.961   9.085   9.591  2.2654  0.9080  0.4368
  305MOL0     H42033   7.897   9.344   9.552  0.2925  1.6576 -0.0773
  305MOL0     H42034   8.026   9.280   9.659  2.6357 -3.0151 -0.0737
  305MOL0     H42035   8.087   9.468   9.533  0.2555 -1.3074  3.2509
  305MOL0     H42036   8.079   9.372   9.374  0.2304  3.1958 -0.3323
  305MOL0     H42037   8.242   9.219   9.423  1.7338  2.1270 -1.2718
  305MOL0     H42038   8.309   9.384   9.455  1.6780 -0.7084  1.3934
  305MOL0     H42039   8.163   9.101   9.692 -0.2299  0.8073  0.0221
  305MOL0     H42040   8.364   9.108  10.021 -1.2824  0.0677  1.7890
  305MOL0     H42041   8.423   8.988   9.898 -1.9195 -0.1962 -1.8103
  305MOL0     H42042   8.168   8.929   9.870  2.0559 -3.1535  1.1244
  305MOL0     H42043   8.224   8.901  10.026 -0.8449 -1.6759 -1.9143
  305MOL0     H42044   8.124   9.115  10.113  0.2775  1.3655  0.0837
  305MOL0     H42045   8.081   9.166   9.949  1.2875  0.6831  1.5142
  305MOL0     H42046   7.986   8.915  10.095 -3.0661  0.6157 -0.5446
  305MOL0     H42047   7.913   9.082  10.082 -1.2333  1.4052 -1.6988
  305MOL0     H42048   7.841   8.863   9.685  1.6206 -1.8947  0.8667
  305MOL0     H42049   7.699   8.559   9.580  2.4954  0.3090 -0.6234
  305MOL0     H42050   7.738   8.721   9.524 -1.4553  1.2961  0.6748
  305MOL0     H42051   7.572   8.680   9.573 -0.1190  1.3238  2.7451
  305MOL0     H42052   7.295   8.429  10.112  1.1088 -0.1791 -0.2118
  305MOL0     H42053   7.075   8.330  10.092 -1.1382  0.6440  0.4633
  305MOL0     H42054   6.894   8.210  10.014 -0.1492 -0.7340 -0.0032
  305MOL0     H42055   6.815   8.368  10.041 -2.2671 -1.1397  0.2633
  305MOL0     H42056   6.627   8.216   9.984 -0.3766  0.0309  0.0896
  305MOL0     H42057   6.665   8.323   9.841 -0.3875  2.4239  3.9905
  305MOL0     H42058   6.790   8.042   9.837 -0.4916 -0.1988  0.5429
  305MOL0     H42059   6.750   8.158   9.706 -0.7006 -1.6760 -0.8633
  305MOL0     H42060   6.507   8.136   9.754  0.6168 -0.2044 -1.5884
  305MOL0     H42061   6.541   8.012   9.870  1.5534  1.1708  1.7594
  305MOL0     H42062   6.648   7.998   9.580  0.3034  0.6527 -0.4958
  305MOL0     H42063   6.651   7.875   9.699  1.4873  2.1322 -0.9770
  305MOL0     H42064   6.424   7.996   9.539 -0.7594 -2.0454 -1.2241
  305MOL0     H42065   6.399   7.902   9.686  1.7599  1.7131  1.9676
  305MOL0     H42066   6.477   7.711   9.605 -1.0544  1.8202  2.3679
  305MOL0     H42067   6.551   7.776   9.457 -0.1173 -2.6860  0.7839
  305MOL0     H42068   6.240   7.788   9.536 -2.2609 -3.0908 -0.1663
  305MOL0     H42069   6.312   7.649   9.466 -0.8462  0.1470  4.2710
  305MOL0     H42070   7.043   8.462   9.687  0.0037 -3.7406  0.0532
  305MOL0     H42071   7.272   8.571   9.711 -0.0786 -1.6424 -0.7857
  305MOL0     H42072   7.609   8.677  10.074 -1.5955  1.5798  0.1920
  305MOL0     H42073   7.773   8.846  10.110  0.4615  1.7528 -0.4080
  305MOL0     H42074   7.399   8.977   9.509  0.5759  1.0168 -0.6775
  305MOL0     H42075   7.144   8.971   9.557 -3.3214  3.5053 -1.7593
  305MOL0     H42076   6.615   8.892   9.250  0.4549 -2.2073 -1.7650
  305MOL0     H42077   6.411   8.827   9.351  0.4142  2.3512 -0.2613
  305MOL0     H42078   6.226   8.813   9.553 -0.3194  0.2650  1.5439
  305MOL0     H42079   6.251   8.660   9.463 -0.2428 -0.8640  0.1616
  305MOL0     H42080   6.229   8.545   9.713 -0.8427 -1.4362 -0.2111
  305MOL0     H42081   6.090   8.591   9.615 -0.8399  2.7328 -1.7875
  305MOL0     H42082   6.225   8.807   9.798 -0.1707  1.2650  0.5439
  305MOL0     H42083   6.077   8.812   9.717 -0.4865 -2.0446 -0.3569
  305MOL0     H42084   6.078   8.777   9.974 -0.7979 -1.3739 -0.3866
  305MOL0     H42085   6.124   8.606   9.930  1.7656  0.6023  0.8724
  305MOL0     H42086   5.756   8.653   9.715 -1.1126  0.9255 -0.0927
  305MOL0     H42087   6.630   8.645   9.669 -2.0270  0.8354 -0.0154
  305MOL0     H42088   6.950   8.643   9.526 -0.6028 -1.7078  0.8272
  305MOL0     H42089   6.929   8.791   9.635 -0.9709  2.1852 -1.2787
  305MOL0     H42090   6.856   8.634   9.670 -2.2079 -0.2188 -1.1795
  306MOL0     O42091  11.397   7.923   1.205 -0.4349 -0.7083 -0.3826
  306MOL0     C42092  11.424   8.043   1.189 -0.3885  0.2871 -0.2311
  306MOL0     O42093  11.539   8.098   1.122 -0.0701  0.7276  0.3307
  306MOL0     C42094  11.639   8.016   1.073  0.3790 -0.3109 -0.3726
  306MOL0     C42095  11.612   7.899   0.995 -0.3183 -1.1136 -0.0720
  306MOL0     C42096  11.720   7.828   0.940 -0.1205  0.0897  0.2456
  306MOL0     C42097  11.851   7.862   0.969  0.0021 -0.4624 -0.2137
  306MOL0     O42098  11.957   7.794   0.910  0.2270  0.3733  0.0871
  306MOL0     C42099  11.938   7.675   0.833  0.6269  0.1354  0.4840
  306MOL0     C42100  12.071   7.609   0.811 -0.7635 -0.2844 -0.1519
  306MOL0     C42101  12.042   7.466   0.770 -0.4866  0.1210  0.3840
  306MOL0     C42102  12.168   7.377   0.759  0.9412 -0.1696  0.7705
  306MOL0     C42103  12.133   7.229   0.732 -0.2581 -0.2740  0.0444
  306MOL0     C42104  11.999   7.201   0.662 -0.0324  0.4634  0.0046
  306MOL0     C42105  11.979   7.051   0.663  0.1133  0.9609 -0.5188
  306MOL0     C42106  12.011   6.975   0.534 -0.1432 -0.2951  0.2743
  306MOL0     N42107  12.153   6.982   0.494  0.4473  0.1282 -0.2462
  306MOL0     C42108  12.253   6.909   0.546 -0.0039  0.6944  0.0409
  306MOL0     C42109  12.354   6.925   0.462 -0.4253 -0.2860 -0.1809
  306MOL0     C42110  12.479   6.845   0.479 -0.5228 -0.7850  0.3938
  306MOL0     C42111  12.572   6.829   0.361  0.0275 -0.8124  0.4608
  306MOL0     C42112  12.696   6.744   0.390 -0.0554  0.0789  0.8741
  306MOL0     C42113  12.814   6.792   0.305  0.1284  1.0468 -0.1610
  306MOL0     O42114  12.929   6.722   0.361  0.4727 -0.5433 -0.2635
  306MOL0     C42115  13.053   6.728   0.298 -0.2128 -0.7372  0.0397
  306MOL0     C42116  13.076   6.797   0.180  0.2063  0.6783  0.7565
  306MOL0     C42117  13.203   6.796   0.116  0.1417 -0.5503  0.2436
  306MOL0     C42118  13.206   6.857  -0.029 -0.4177 -0.5461  0.5950
  306MOL0     C42119  13.305   6.721   0.168 -0.0303  0.0001 -1.4076
  306MOL0     C42120  13.448   6.721   0.121 -0.7870 -0.1056  0.3057
  306MOL0     O42121  13.534   6.625   0.176  0.3824  1.0138  0.0175
  306MOL0     C42122  13.640   6.587   0.092 -0.5760 -0.5769 -0.2780
  306MOL0     C42123  13.769   6.580   0.143  0.3328 -0.1980  0.2244
  306MOL0     C42124  13.877   6.542   0.058  0.3468  0.4600  0.5672
  306MOL0     C42125  13.847   6.508  -0.075  0.3230  0.0145 -0.2472
  306MOL0     O42126  13.936   6.463  -0.175  0.4166  0.0847  0.2700
  306MOL0     C42127  14.071   6.452  -0.139  0.1536  0.3370 -0.5340
  306MOL0     C42128  14.141   6.582  -0.175  0.0069  0.6406 -0.4159
  306MOL0     C42129  14.139   6.629  -0.318 -0.4539 -0.6897  0.7346
  306MOL0     C42130  14.255   6.725  -0.352  0.2635 -0.0657 -0.8383
  306MOL0     C42131  14.241   6.772  -0.498 -0.4799 -0.2639  0.0152
  306MOL0     C42132  14.323   6.890  -0.523  0.0665  0.4143 -0.0207
  306MOL0     C42133  14.472   6.839  -0.539  0.6241 -0.5430 -0.4956
  306MOL0     C42134  14.555   6.973  -0.548 -0.0280  0.0531  0.4769
  306MOL0    Cl42135  14.722   6.922  -0.501  0.0801 -0.4405 -0.1605
  306MOL0     C42136  13.714   6.511  -0.120  0.0703 -0.5795  0.1514
  306MOL0     C42137  13.607   6.546  -0.036 -0.9719 -0.1218 -0.4223
  306MOL0     O42138  13.487   6.819   0.060 -0.6473 -0.4354  0.4188
  306MOL0     C42139  13.283   6.664   0.294 -0.3498 -0.1000 -0.5868
  306MOL0     C42140  13.158   6.672   0.364  0.7026 -0.1062  0.7212
  306MOL0     N42141  12.321   7.009   0.358 -0.5480 -0.1349 -0.0404
  306MOL0     N42142  12.196   7.032   0.374 -0.1553  0.0670  0.7095
  306MOL0     C42143  11.881   7.982   1.041 -0.3695 -1.5042 -0.0686
  306MOL0     C42144  11.773   8.059   1.090  0.1897  0.5299 -0.6961
  306MOL0     C42145  11.331   8.132   1.258  0.2935  0.1889 -0.4614
  306MOL0     C42146  11.193   8.088   1.288 -0.8828 -0.4057 -1.2759
  306MOL0     C42147  11.105   8.173   1.352  1.1614 -0.1604 -0.0363
  306MOL0     C42148  11.138   8.303   1.385  0.2739  0.2259  0.3219
  306MOL0     O42149  11.053   8.401   1.431  0.0678 -0.3171 -0.0080
  306MOL0     C42150  10.912   8.386   1.448 -0.0304  0.2187 -0.5381
  306MOL0     C42151  10.892   8.417   1.591 -0.5750  0.7736 -0.1634
  306MOL0     C42152  10.937   8.311   1.691  0.5407 -0.1407  0.5995
  306MOL0     C42153  11.088   8.310   1.724 -0.1819 -0.1072  0.8953
  306MOL0     C42154  11.106   8.336   1.871  0.1515 -0.7420 -0.1579
  306MOL0     C42155  11.117   8.367   1.981 -0.3917  0.7941  0.3027
  306MOL0     C42156  11.264   8.344   1.363 -0.3941  0.1671  0.1400
  306MOL0     C42157  11.364   8.261   1.301  0.3012  0.6949  0.4965
  306MOL0     C42158  11.499   8.322   1.287 -0.3044 -0.4206  0.5660
  306MOL0     H42159  11.506   7.881   0.979 -0.9055  2.3846 -0.8033
  306MOL0     H42160  11.701   7.758   0.860 -0.8968  2.1308 -1.4425
  306MOL0     H42161  11.897   7.709   0.738 -1.5928  0.0223  1.3382
  306MOL0     H42162  11.859   7.609   0.869 -0.5000  0.8603 -0.5713
  306MOL0     H42163  12.122   7.657   0.727  1.0017 -1.5859  0.1398
  306MOL0     H42164  12.131   7.632   0.900 -1.1483  3.7082 -0.7279
  306MOL0     H42165  11.967   7.426   0.839  0.0189  0.6343  1.2465
  306MOL0     H42166  12.008   7.465   0.666 -1.0501 -3.9864  0.4297
  306MOL0     H42167  12.230   7.408   0.674  1.6663 -1.0643  0.9470
  306MOL0     H42168  12.234   7.391   0.845  1.8014 -1.7998  0.4190
  306MOL0     H42169  12.129   7.173   0.826 -0.1111  0.1651  0.3152
  306MOL0     H42170  12.217   7.185   0.678  0.2050  3.2083 -2.3894
  306MOL0     H42171  11.918   7.254   0.712  0.2456 -1.0364  2.1736
  306MOL0     H42172  12.010   7.229   0.557 -0.7479 -2.1103 -0.8253
  306MOL0     H42173  11.880   7.024   0.701 -0.4388 -0.2501 -2.6524
  306MOL0     H42174  12.050   7.006   0.733 -0.6534  0.8883  0.2304
  306MOL0     H42175  11.985   6.869   0.527  0.4008 -0.3288 -2.4713
  306MOL0     H42176  11.951   7.015   0.451  1.8748  0.6759 -0.7917
  306MOL0     H42177  12.254   6.843   0.633 -1.3839 -0.0694 -0.4809
  306MOL0     H42178  12.452   6.748   0.522  1.1226 -1.3671  0.1992
  306MOL0     H42179  12.544   6.886   0.557  0.7085  0.6094 -1.2867
  306MOL0     H42180  12.518   6.772   0.285 -2.2139  1.1802  0.4668
  306MOL0     H42181  12.592   6.934   0.337 -0.0702 -0.3021  2.4897
  306MOL0     H42182  12.720   6.776   0.492 -1.1103  0.8719  0.8916
  306MOL0     H42183  12.678   6.636   0.386  2.5713 -0.4456  1.1805
  306MOL0     H42184  12.798   6.756   0.202  0.8923  0.8685 -0.2234
  306MOL0     H42185  12.829   6.900   0.301 -0.2518  1.0753 -1.1931
  306MOL0     H42186  12.995   6.845   0.126 -0.6514 -2.4366 -0.9434
  306MOL0     H42187  13.253   6.782  -0.094 -0.8093 -0.7900  0.5945
  306MOL0     H42188  13.270   6.946  -0.028  0.5657 -1.1825 -0.8197
  306MOL0     H42189  13.105   6.888  -0.058 -0.5585 -1.3525  0.2126
  306MOL0     H42190  13.781   6.621   0.243 -0.8778  1.8973 -0.4169
  306MOL0     H42191  13.977   6.536   0.099 -0.3720 -2.0303  2.2110
  306MOL0     H42192  14.086   6.417  -0.037 -3.3104 -0.6120 -0.2103
  306MOL0     H42193  14.121   6.373  -0.197  1.2853 -0.3234  1.2824
  306MOL0     H42194  14.119   6.657  -0.099 -1.0673 -0.7959  0.7515
  306MOL0     H42195  14.246   6.557  -0.155 -0.6717 -0.6354  2.0191
  306MOL0     H42196  14.050   6.684  -0.349 -1.0528 -2.1632 -0.2719
  306MOL0     H42197  14.145   6.541  -0.382 -1.7523 -0.2109 -0.0842
  306MOL0     H42198  14.348   6.669  -0.336  0.8148  1.1218  0.3073
  306MOL0     H42199  14.265   6.802  -0.275  0.4708 -1.1682  0.2694
  306MOL0     H42200  14.276   6.691  -0.563  1.5467  1.6596 -1.4057
  306MOL0     H42201  14.138   6.794  -0.527  0.4853  2.1067 -1.8895
  306MOL0     H42202  14.313   6.958  -0.438 -1.8475 -0.5414  0.5765
  306MOL0     H42203  14.294   6.940  -0.616 -1.1647 -1.8183 -0.9057
  306MOL0     H42204  14.479   6.783  -0.633  2.5866  1.5092 -1.6725
  306MOL0     H42205  14.496   6.774  -0.455 -1.7033 -0.8061  0.0120
  306MOL0     H42206  14.525   7.049  -0.476  0.6387 -0.3717  1.2167
  306MOL0     H42207  14.559   7.002  -0.654 -0.8685 -2.6518 -0.3693
  306MOL0     H42208  13.700   6.490  -0.225  1.2695 -0.4344 -0.0421
  306MOL0     H42209  13.502   6.538  -0.065 -1.7456 -3.5214  2.6596
  306MOL0     H42210  13.359   6.607   0.347 -2.9701 -3.6432 -0.3159
  306MOL0     H42211  13.142   6.625   0.460  4.4761  0.2190  1.6725
  306MOL0     H42212  11.983   8.014   1.064 -0.8876  1.7969 -1.8068
  306MOL0     H42213  11.786   8.144   1.156 -0.3257  0.2971 -0.2893
  306MOL0     H42214  11.160   7.992   1.248 -2.8451 -1.0612  1.5748
  306MOL0     H42215  11.009   8.133   1.384  0.9605  0.7206  0.4940
  306MOL0     H42216  10.851   8.457   1.392 -0.1052 -0.0311 -0.7784
  306MOL0     H42217  10.882   8.284   1.422  1.9929 -1.0755  1.8332
  306MOL0     H42218  10.788   8.438   1.615 -0.7405  1.7807 -1.6761
  306MOL0     H42219  10.956   8.504   1.605  3.5294 -2.1168  1.0083
  306MOL0     H42220  10.871   8.344   1.771 -1.7822  1.1521 -1.6959
  306MOL0     H42221  10.910   8.208   1.663  0.4684 -0.3356  1.3610
  306MOL0     H42222  11.132   8.388   1.661  1.8190 -2.8588 -1.3796
  306MOL0     H42223  11.137   8.220   1.685 -1.9234 -1.2541  1.2371
  306MOL0     H42224  11.113   8.412   2.078  1.0624  0.4112  0.5614
  306MOL0     H42225  11.290   8.448   1.374  3.5551 -0.8868  2.8766
  306MOL0     H42226  11.515   8.342   1.181 -0.3409 -0.2640  0.5906
  306MOL0     H42227  11.496   8.414   1.345 -1.4567  0.5353 -0.9236
  306MOL0     H42228  11.581   8.252   1.310 -1.3549 -1.3614  1.5980
  307MOL0     O42229   3.331   8.532   8.084  0.0169 -0.2699 -0.2559
  307MOL0     C42230   3.250   8.564   7.991  0.2118 -1.1825  0.1202
  307MOL0     O42231   3.283   8.568   7.856 -0.1871  0.1096  0.1304
  307MOL0     C42232   3.411   8.537   7.802  0.1319  0.1268 -0.8006
  307MOL0     C42233   3.531   8.560   7.869  0.2064 -0.4873  0.1051
  307MOL0     C42234   3.651   8.533   7.811 -0.5861  0.0169  0.3867
  307MOL0     C42235   3.653   8.501   7.674 -0.4053  0.3305  0.0668
  307MOL0     O42236   3.767   8.499   7.600  0.6169  0.0785 -0.3640
  307MOL0     C42237   3.818   8.633   7.588  0.0208 -0.4111  0.3284
  307MOL0     C42238   3.881   8.654   7.453  0.2225  0.2319 -0.4441
  307MOL0     C42239   3.781   8.692   7.338  0.7820  0.3280 -0.1782
  307MOL0     C42240   3.857   8.775   7.239  0.2258  0.7303  0.5196
  307MOL0     C42241   3.774   8.790   7.110  0.4676 -0.3651 -0.9929
  307MOL0     C42242   3.864   8.874   7.011 -0.0719  0.5323  0.5889
  307MOL0     C42243   3.937   8.774   6.924 -0.5910  0.6368  0.2955
  307MOL0     C42244   3.856   8.745   6.795 -0.1232 -0.4691 -0.6289
  307MOL0     N42245   3.815   8.866   6.725  0.3500  0.2428 -0.0254
  307MOL0     C42246   3.890   8.957   6.648  0.1609 -0.6122  0.2527
  307MOL0     C42247   3.806   9.060   6.631  0.0291 -0.3669 -0.1862
  307MOL0     C42248   3.819   9.201   6.567 -0.3355  0.2020 -0.2267
  307MOL0     C42249   3.907   9.289   6.666  0.8771  1.1587  0.0383
  307MOL0     C42250   3.852   9.333   6.813  0.4430  0.2261  0.2577
  307MOL0     C42251   3.975   9.396   6.885  0.3170 -0.3451 -0.9661
  307MOL0     O42252   4.022   9.506   6.803 -0.0360  0.5367  0.3736
  307MOL0     C42253   4.156   9.551   6.821 -0.1133 -0.1517 -0.1966
  307MOL0     C42254   4.228   9.527   6.944 -0.3803  0.4629 -0.3660
  307MOL0     C42255   4.355   9.588   6.958  0.1601  0.7129  0.3628
  307MOL0     C42256   4.418   9.567   7.093  0.8192 -0.5457 -0.0740
  307MOL0     C42257   4.413   9.657   6.856 -0.5584  0.7387  0.2395
  307MOL0     C42258   4.557   9.692   6.867 -0.8340  0.0319  0.0976
  307MOL0     O42259   4.595   9.804   6.799  0.1118  0.2109  0.5832
  307MOL0     C42260   4.727   9.825   6.783 -0.4073  0.5150  0.0849
  307MOL0     C42261   4.816   9.869   6.885  0.0488 -0.9029  0.2767
  307MOL0     C42262   4.952   9.906   6.845  0.1970 -0.6979 -0.5218
  307MOL0     C42263   4.984   9.907   6.713  1.0878  0.5784  0.1860
  307MOL0     O42264   5.097   9.969   6.672  0.3271  0.1685  0.0338
  307MOL0     C42265   5.218   9.914   6.728  0.1841  0.7746 -1.0165
  307MOL0     C42266   5.335  10.004   6.667 -0.7978  1.3018  0.1694
  307MOL0     C42267   5.342  10.149   6.720 -0.3662  0.3113  0.2270
  307MOL0     C42268   5.473  10.225   6.696 -0.4571  0.0651 -0.6618
  307MOL0     C42269   5.519  10.231   6.547 -0.3249 -1.5196 -0.1707
  307MOL0     C42270   5.630  10.339   6.532 -0.7368 -0.4561  0.5806
  307MOL0     C42271   5.763  10.300   6.616  0.3921 -0.3189  0.4865
  307MOL0     C42272   5.887  10.373   6.563  1.2595  0.4371 -0.5569
  307MOL0    Cl42273   5.897  10.519   6.654 -0.1068 -0.2553 -0.0674
  307MOL0     C42274   4.901   9.850   6.613  0.8501 -0.0409  0.5393
  307MOL0     C42275   4.775   9.802   6.651  0.0104  0.4479 -0.8993
  307MOL0     O42276   4.628   9.597   6.895 -0.6899 -0.8112  0.7075
  307MOL0     C42277   4.339   9.688   6.742 -0.3106  0.7852  1.0503
  307MOL0     C42278   4.210   9.641   6.727 -0.4328  0.5233  0.1621
  307MOL0     N42279   3.684   9.021   6.682  0.5262 -0.6256  0.2240
  307MOL0     N42280   3.686   8.905   6.738  0.6292 -0.5068 -0.0459
  307MOL0     C42281   3.532   8.475   7.607 -0.2564 -0.6010  0.3781
  307MOL0     C42282   3.411   8.501   7.673 -0.2679 -0.0261  0.0106
  307MOL0     C42283   3.116   8.607   8.041  0.6531  0.1148 -0.2825
  307MOL0     C42284   3.099   8.674   8.162 -0.1798 -0.3638 -1.0180
  307MOL0     C42285   2.975   8.705   8.212 -0.0380 -0.9668  0.4153
  307MOL0     C42286   2.854   8.674   8.153  0.1626  0.3620 -0.0402
  307MOL0     O42287   2.728   8.686   8.210 -0.8441 -0.0905 -0.6294
  307MOL0     C42288   2.720   8.784   8.313 -0.2632 -0.6978  0.6325
  307MOL0     C42289   2.582   8.843   8.320  1.0710  1.1784 -0.7315
  307MOL0     C42290   2.546   8.949   8.212  0.0502  0.9304 -0.1525
  307MOL0     C42291   2.644   9.069   8.197 -0.1966 -0.7944 -0.2410
  307MOL0     C42292   2.755   9.039   8.097  0.1653 -0.4944  0.1248
  307MOL0     C42293   2.848   9.020   8.027  0.1023  0.1067  0.0932
  307MOL0     C42294   2.871   8.589   8.032  0.2653 -0.3148 -0.3513
  307MOL0     C42295   2.997   8.553   7.980  0.5986 -0.0953 -0.1658
  307MOL0     C42296   3.002   8.464   7.859 -0.0913  1.2587  0.2509
  307MOL0     H42297   3.534   8.579   7.976  2.1995 -1.4848  0.2576
  307MOL0     H42298   3.746   8.543   7.863 -1.2875 -0.7233  1.8872
  307MOL0     H42299   3.892   8.648   7.668  0.2085 -1.5539  0.3811
  307MOL0     H42300   3.736   8.703   7.605 -3.2640 -3.5886 -1.2618
  307MOL0     H42301   3.951   8.737   7.466 -1.1954  2.1098 -3.6124
  307MOL0     H42302   3.936   8.561   7.432 -0.5469 -0.7617  1.6845
  307MOL0     H42303   3.756   8.599   7.286  1.9710  1.2049 -2.4429
  307MOL0     H42304   3.697   8.739   7.390  2.2313  1.5507  1.1657
  307MOL0     H42305   3.895   8.871   7.275 -0.5178  1.3798 -0.3869
  307MOL0     H42306   3.946   8.716   7.212 -1.5018 -1.7647 -0.1058
  307MOL0     H42307   3.684   8.850   7.125 -0.7233 -2.4833  1.0572
  307MOL0     H42308   3.744   8.692   7.071 -1.2046  0.0289 -0.7815
  307MOL0     H42309   3.804   8.948   6.958  0.5721  1.1241  0.6706
  307MOL0     H42310   3.935   8.944   7.056  0.0070  1.3960 -0.8237
  307MOL0     H42311   3.946   8.677   6.973 -1.4725 -0.3757 -1.4527
  307MOL0     H42312   4.039   8.809   6.907  0.7574 -1.2154  3.6532
  307MOL0     H42313   3.925   8.695   6.726  1.7023  0.7408  0.2595
  307MOL0     H42314   3.766   8.687   6.816 -1.4547  0.7782 -2.5322
  307MOL0     H42315   3.991   8.937   6.614 -0.7206 -1.9734 -1.7329
  307MOL0     H42316   3.719   9.246   6.564 -0.7079  0.1332  4.0593
  307MOL0     H42317   3.870   9.202   6.471  1.3730  2.0494  0.6547
  307MOL0     H42318   4.002   9.237   6.683  0.8121  0.3986 -1.6585
  307MOL0     H42319   3.940   9.374   6.607  2.0865  1.4175  1.0471
  307MOL0     H42320   3.762   9.394   6.821  2.1406  2.7583  1.3456
  307MOL0     H42321   3.819   9.246   6.870 -0.8933  1.3736  1.3011
  307MOL0     H42322   3.959   9.433   6.987  0.8640  0.0560 -1.0200
  307MOL0     H42323   4.065   9.337   6.901  1.3433  1.4205  0.1691
  307MOL0     H42324   4.184   9.472   7.026  2.2359 -2.6766 -0.8562
  307MOL0     H42325   4.348   9.547   7.174  1.6727 -3.2971  0.1180
  307MOL0     H42326   4.482   9.653   7.113  0.1348  0.4575 -1.9483
  307MOL0     H42327   4.476   9.474   7.084  2.0550  0.1773  0.1903
  307MOL0     H42328   4.783   9.887   6.986  0.8896  3.5115 -0.0596
  307MOL0     H42329   5.025   9.956   6.908  0.4936 -0.0738 -1.3472
  307MOL0     H42330   5.231   9.916   6.836  0.4908 -1.2984 -0.9786
  307MOL0     H42331   5.231   9.807   6.709  0.7299  0.1874  2.1096
  307MOL0     H42332   5.429   9.958   6.698 -1.6809 -1.9503 -1.4438
  307MOL0     H42333   5.322  10.008   6.558  0.1516  2.9598  0.0932
  307MOL0     H42334   5.336  10.143   6.829 -3.0125 -3.7155  0.0647
  307MOL0     H42335   5.257  10.211   6.691 -1.5231 -0.3811  1.9450
  307MOL0     H42336   5.541  10.175   6.766 -0.6150  0.6910 -0.0398
  307MOL0     H42337   5.453  10.324   6.739  1.3457 -0.6980  2.1810
  307MOL0     H42338   5.553  10.134   6.512 -0.7024 -0.9886 -2.0906
  307MOL0     H42339   5.433  10.269   6.492  0.7355 -0.2366 -1.0309
  307MOL0     H42340   5.591  10.435   6.566  2.1987  1.1257 -0.1943
  307MOL0     H42341   5.646  10.354   6.425  1.2750 -0.8885  0.7828
  307MOL0     H42342   5.777  10.193   6.595 -2.3127 -0.4814 -0.9236
  307MOL0     H42343   5.740  10.317   6.722  1.2174 -1.0989  0.8130
  307MOL0     H42344   5.868  10.388   6.456  0.8702 -1.8093 -0.8555
  307MOL0     H42345   5.981  10.317   6.569 -0.4125 -2.4729  0.9783
  307MOL0     H42346   4.931   9.850   6.509  2.5999 -0.8978  1.0112
  307MOL0     H42347   4.723   9.744   6.576 -1.2161  0.2844  0.0481
  307MOL0     H42348   4.378   9.749   6.662 -2.2292  1.5748  0.6443
  307MOL0     H42349   4.155   9.654   6.634  0.5869 -1.4531 -0.7788
  307MOL0     H42350   3.545   8.460   7.501  1.6740  1.8613  0.1764
  307MOL0     H42351   3.317   8.494   7.619 -0.4311  0.7136  0.1849
  307MOL0     H42352   3.190   8.703   8.214  0.0349  3.9788 -3.3754
  307MOL0     H42353   2.984   8.758   8.306  4.2939 -0.2079 -0.2172
  307MOL0     H42354   2.726   8.747   8.415 -1.1331  1.0915  1.3753
  307MOL0     H42355   2.790   8.865   8.287  0.3844 -2.6227 -5.2294
  307MOL0     H42356   2.572   8.884   8.421  1.0360 -0.4204 -0.0610
  307MOL0     H42357   2.515   8.757   8.321 -0.4920  2.3236  1.0576
  307MOL0     H42358   2.555   8.902   8.114  1.0740 -0.9703  0.7768
  307MOL0     H42359   2.442   8.977   8.227 -0.4434 -0.7750 -0.1161
  307MOL0     H42360   2.688   9.089   8.295 -2.9491 -2.6624  1.5431
  307MOL0     H42361   2.586   9.157   8.170 -0.6603 -1.5029 -1.7032
  307MOL0     H42362   2.938   9.021   7.969 -1.9253 -0.6692 -3.3638
  307MOL0     H42363   2.779   8.555   7.986  0.6649 -2.0386  0.0518
  307MOL0     H42364   2.900   8.454   7.821 -0.7613  1.4264  1.9333
  307MOL0     H42365   3.065   8.501   7.778 -0.0823 -0.7232 -0.7006
  307MOL0     H42366   3.039   8.364   7.883  2.0705  2.0761  0.5530
  308MOL0     O42367   2.736  10.026   5.906 -0.4210  0.5709  0.5611
  308MOL0     C42368   2.617  10.068   5.882 -0.5102 -0.0417  0.1520
  308MOL0     O42369   2.586  10.166   5.793  0.0449 -0.2151  0.5167
  308MOL0     C42370   2.701  10.218   5.725 -0.3162 -0.2897  0.2467
  308MOL0     C42371   2.770  10.326   5.769  1.4780 -0.8940 -0.7676
  308MOL0     C42372   2.875  10.366   5.694 -0.0764 -0.3704  0.1989
  308MOL0     C42373   2.921  10.304   5.576  0.1010 -0.2574 -1.0598
  308MOL0     O42374   3.019  10.349   5.499 -0.5427 -0.0222 -0.0100
  308MOL0     C42375   3.142  10.364   5.571 -0.2922  0.2250  0.6386
  308MOL0     C42376   3.176  10.511   5.569  0.0099 -0.5457  0.6217
  308MOL0     C42377   3.236  10.563   5.431 -0.4886 -0.0763  0.3298
  308MOL0     C42378   3.391  10.552   5.429 -0.4431  0.1830  0.5823
  308MOL0     C42379   3.456  10.572   5.293  0.6906  0.4137 -0.4937
  308MOL0     C42380   3.604  10.558   5.307 -0.0999  0.7782  0.2927
  308MOL0     C42381   3.675  10.571   5.174  0.0664  0.1818 -0.1756
  308MOL0     C42382   3.694  10.439   5.108  0.1148 -1.3268 -0.5725
  308MOL0     N42383   3.805  10.367   5.182  0.5172 -0.6816 -0.4832
  308MOL0     C42384   3.939  10.396   5.179 -0.3202 -0.1158 -0.9900
  308MOL0     C42385   3.997  10.323   5.271  0.1134  1.0576 -0.1310
  308MOL0     C42386   4.142  10.306   5.303 -0.1901  0.3332  0.7987
  308MOL0     C42387   4.205  10.200   5.213  0.7804 -0.7773  1.0179
  308MOL0     C42388   4.324  10.135   5.265 -0.2595 -0.2980 -0.1287
  308MOL0     C42389   4.371  10.006   5.185 -0.6336  0.9613  0.3618
  308MOL0     O42390   4.402  10.043   5.050 -0.1887  0.1984  0.3712
  308MOL0     C42391   4.466   9.948   4.976  0.6300  1.0633  0.6056
  308MOL0     C42392   4.569   9.984   4.887 -0.5359  0.2839  0.5356
  308MOL0     C42393   4.647   9.901   4.805 -0.2818  0.2537  0.2043
  308MOL0     C42394   4.775   9.954   4.740 -0.3480  0.5837  0.1369
  308MOL0     C42395   4.620   9.757   4.832 -0.6780 -0.2006 -0.6084
  308MOL0     C42396   4.704   9.645   4.777  0.3477 -0.0060 -0.0689
  308MOL0     O42397   4.697   9.524   4.841 -0.7928  0.0773 -0.3459
  308MOL0     C42398   4.802   9.433   4.821 -0.5267 -0.9677  0.4070
  308MOL0     C42399   4.877   9.382   4.932  0.4729 -0.4012 -0.2232
  308MOL0     C42400   4.962   9.269   4.919 -0.0981 -0.5458  0.6083
  308MOL0     C42401   4.975   9.209   4.795  0.3080 -0.6459  0.7440
  308MOL0     O42402   5.049   9.087   4.799  0.1904 -0.2744  0.3184
  308MOL0     C42403   5.103   9.038   4.678  0.1264  0.9756  0.3692
  308MOL0     C42404   5.235   9.115   4.647  0.0783 -0.7763 -0.4963
  308MOL0     C42405   5.298   9.074   4.515  0.6884 -0.0130  0.1221
  308MOL0     C42406   5.368   8.941   4.540  0.5808 -0.1043 -0.9159
  308MOL0     C42407   5.441   8.886   4.422  0.3304 -0.8261  0.5927
  308MOL0     C42408   5.577   8.967   4.400  0.0058  0.2307  0.9532
  308MOL0     C42409   5.666   8.895   4.301  0.1368 -0.1838 -0.2132
  308MOL0     C42410   5.778   8.794   4.360 -0.2856 -0.0011  0.4521
  308MOL0    Cl42411   5.696   8.680   4.465 -0.3846  0.4239 -0.2737
  308MOL0     C42412   4.913   9.269   4.682  0.4865 -0.3648  0.0256
  308MOL0     C42413   4.818   9.371   4.693  0.8317 -0.5375  0.2502
  308MOL0     O42414   4.792   9.677   4.704 -0.0797 -0.5269 -0.4797
  308MOL0     C42415   4.518   9.714   4.926  0.1618 -0.0920 -0.5634
  308MOL0     C42416   4.441   9.808   4.994  0.0831  1.1035  1.0622
  308MOL0     N42417   3.897  10.252   5.328 -0.0281 -0.1587  1.2440
  308MOL0     N42418   3.785  10.261   5.260  0.2531  0.1893  0.5327
  308MOL0     C42419   2.843  10.203   5.527  0.5122  0.6074 -0.3345
  308MOL0     C42420   2.734  10.153   5.602 -0.3363 -0.4749 -0.4834
  308MOL0     C42421   2.495  10.001   5.942  0.4431 -0.2123  0.5356
  308MOL0     C42422   2.367  10.037   5.881 -0.0025  0.3748 -0.2466
  308MOL0     C42423   2.249   9.981   5.923  0.0703  0.4420 -0.2608
  308MOL0     C42424   2.233   9.899   6.033 -0.5086 -0.0385  0.9719
  308MOL0     O42425   2.122   9.828   6.051  0.2232  0.3909  0.8645
  308MOL0     C42426   2.029   9.891   6.133  0.9285  0.6143 -0.4446
  308MOL0     C42427   1.945   9.980   6.043  0.9093  0.4007 -0.7660
  308MOL0     C42428   1.806  10.023   6.114 -0.4109  0.5168  0.7190
  308MOL0     C42429   1.708  10.099   6.017  0.3586  0.0183 -0.4639
  308MOL0     C42430   1.774  10.204   5.935 -0.3797 -0.0367 -0.4315
  308MOL0     C42431   1.850  10.275   5.865 -0.0596 -0.7587  0.9074
  308MOL0     C42432   2.351   9.858   6.095 -0.0028  0.0193  1.0115
  308MOL0     C42433   2.484   9.912   6.048 -0.2829  0.4258 -0.2341
  308MOL0     C42434   2.609   9.872   6.130 -0.3703 -0.0817  0.3197
  308MOL0     H42435   2.745  10.359   5.869  0.6012 -4.1520  0.2214
  308MOL0     H42436   2.936  10.453   5.718 -0.8670  0.0541  0.6789
  308MOL0     H42437   3.219  10.307   5.518 -1.1275  0.3957 -0.8036
  308MOL0     H42438   3.130  10.328   5.674 -2.4706  1.1026  0.7328
  308MOL0     H42439   3.090  10.571   5.599  0.5679 -1.0636  3.5595
  308MOL0     H42440   3.256  10.524   5.643  0.4823 -0.1553  0.0530
  308MOL0     H42441   3.198  10.500   5.350  0.4955 -0.8617  0.4548
  308MOL0     H42442   3.200  10.663   5.403  0.7826  1.1553  2.7879
  308MOL0     H42443   3.434  10.633   5.489  1.2425 -0.3729  0.1901
  308MOL0     H42444   3.425  10.455   5.467  0.7082  0.2175 -0.3195
  308MOL0     H42445   3.425  10.672   5.261 -6.6297 -1.1167  0.1032
  308MOL0     H42446   3.426  10.494   5.222  4.6038 -1.9029  0.1037
  308MOL0     H42447   3.634  10.643   5.369  0.6810  0.1918  0.7356
  308MOL0     H42448   3.627  10.463   5.355  0.2751  0.8707  0.2995
  308MOL0     H42449   3.767  10.630   5.182 -0.1825  0.5237  0.1928
  308MOL0     H42450   3.603  10.637   5.124  2.6276  2.4060 -1.1900
  308MOL0     H42451   3.599  10.385   5.109 -0.3372 -0.5809 -1.5647
  308MOL0     H42452   3.715  10.460   5.003  0.4043  0.7927 -0.1268
  308MOL0     H42453   3.989  10.458   5.106  1.2392  0.9832  0.9395
  308MOL0     H42454   4.132  10.285   5.409  1.4370  1.2159  1.1459
  308MOL0     H42455   4.200  10.398   5.297 -0.5923  0.5165 -1.1162
  308MOL0     H42456   4.129  10.125   5.187 -0.0799 -0.4126  2.3751
  308MOL0     H42457   4.228  10.242   5.114 -2.3712  2.4185  1.4377
  308MOL0     H42458   4.412  10.196   5.245  0.2325 -1.2889 -1.1159
  308MOL0     H42459   4.317  10.130   5.374  0.2068 -0.8083 -0.1149
  308MOL0     H42460   4.453   9.958   5.240  0.0115  1.4943 -0.1135
  308MOL0     H42461   4.291   9.932   5.181  0.7542 -0.5686 -2.9199
  308MOL0     H42462   4.584  10.092   4.888  1.2719  0.0746  1.6240
  308MOL0     H42463   4.868   9.914   4.781 -0.5544 -1.7116 -1.4790
  308MOL0     H42464   4.782  10.063   4.745  2.1129  0.5467 -1.0090
  308MOL0     H42465   4.774   9.915   4.637 -1.1902  1.5141 -0.2307
  308MOL0     H42466   4.885   9.436   5.025  1.8071 -0.1910 -0.4378
  308MOL0     H42467   5.030   9.233   4.995  1.9691 -1.5648 -1.5738
  308MOL0     H42468   5.116   8.933   4.706 -2.6701  0.6756  0.8576
  308MOL0     H42469   5.041   9.031   4.587  1.2486 -0.9146 -0.2979
  308MOL0     H42470   5.199   9.217   4.633  0.8074 -0.2717  1.0950
  308MOL0     H42471   5.319   9.115   4.717  0.5563 -2.4051 -1.0077
  308MOL0     H42472   5.357   9.162   4.487 -1.1063  0.6386 -1.9265
  308MOL0     H42473   5.216   9.070   4.443  0.2379 -0.5531  0.6559
  308MOL0     H42474   5.304   8.856   4.565  1.6201 -1.3099 -2.1691
  308MOL0     H42475   5.438   8.948   4.623 -0.8826 -2.1071  0.5704
  308MOL0     H42476   5.458   8.780   4.442  0.0710 -1.0097 -0.1180
  308MOL0     H42477   5.380   8.882   4.331 -0.9172 -0.4413  1.3904
  308MOL0     H42478   5.635   8.963   4.493  2.4513 -0.0153 -0.4931
  308MOL0     H42479   5.565   9.067   4.356 -0.0183 -1.3116 -2.9317
  308MOL0     H42480   5.722   8.965   4.237 -0.6123  0.1068 -0.5578
  308MOL0     H42481   5.606   8.823   4.244  0.1707 -0.3817 -0.0018
  308MOL0     H42482   5.853   8.851   4.414 -0.0382 -0.5425  0.6843
  308MOL0     H42483   5.833   8.740   4.283  1.1247  3.6660 -1.3762
  308MOL0     H42484   4.937   9.222   4.587  0.6572  0.8793 -0.5691
  308MOL0     H42485   4.767   9.413   4.606 -1.6574 -2.4992  0.6784
  308MOL0     H42486   4.505   9.606   4.935 -1.8381  0.1130 -0.4563
  308MOL0     H42487   4.358   9.769   5.052 -1.5977 -1.5871 -2.7482
  308MOL0     H42488   2.870  10.155   5.434  3.1121 -0.6952  0.9950
  308MOL0     H42489   2.686  10.060   5.572  1.0535 -0.8216 -1.7331
  308MOL0     H42490   2.347  10.099   5.795  0.9550  0.9784 -0.0562
  308MOL0     H42491   2.161   9.991   5.861  0.2869 -1.5159 -0.9536
  308MOL0     H42492   1.965   9.810   6.171  0.8264 -0.3734 -2.5735
  308MOL0     H42493   2.072   9.942   6.219  1.6254 -0.9193  0.1592
  308MOL0     H42494   1.934   9.925   5.949  2.2320 -2.5147  0.6493
  308MOL0     H42495   2.003  10.071   6.026  0.9627  0.6881  0.7478
  308MOL0     H42496   1.759   9.933   6.155 -0.0513  1.0156  2.2821
  308MOL0     H42497   1.839  10.080   6.202  1.0158 -0.5981  0.9313
  308MOL0     H42498   1.631  10.146   6.079  0.3135 -1.0029  0.2740
  308MOL0     H42499   1.667  10.023   5.950 -0.8366  1.2409 -1.1612
  308MOL0     H42500   1.907  10.334   5.797 -0.3129 -2.5623 -0.9914
  308MOL0     H42501   2.336   9.784   6.173 -2.9313  0.7123  1.2112
  308MOL0     H42502   2.666   9.955   6.172  0.3306  0.0477 -0.8274
  308MOL0     H42503   2.586   9.818   6.223  0.4813 -1.1227 -0.0422
  308MOL0     H42504   2.675   9.821   6.059  0.4403  1.0593  0.2200
  309MOL0     O42505  11.036   1.075   6.584  0.6639 -0.1258 -0.2009
  309MOL0     C42506  10.935   1.074   6.512  1.5745 -1.5208 -1.2931
  309MOL0     O42507  10.892   0.972   6.432 -0.0325  0.0947  0.7636
  309MOL0     C42508  10.963   0.849   6.443  0.0364 -0.0364  0.4703
  309MOL0     C42509  10.949   0.761   6.546 -0.0265 -0.1374 -0.2035
  309MOL0     C42510  11.008   0.637   6.540 -0.2178  0.0267 -0.1098
  309MOL0     C42511  11.081   0.597   6.424 -0.2521 -0.1181  0.4119
  309MOL0     O42512  11.151   0.477   6.436 -0.8847 -0.2434 -0.4605
  309MOL0     C42513  11.249   0.437   6.336 -0.4956  0.2180 -0.5381
  309MOL0     C42514  11.307   0.297   6.368  0.2978 -0.4364  0.2468
  309MOL0     C42515  11.438   0.270   6.281 -0.3702 -0.7922  0.2883
  309MOL0     C42516  11.484   0.120   6.273 -0.6037 -0.2526 -0.8007
  309MOL0     C42517  11.594   0.109   6.175 -0.3078 -0.6291 -0.5880
  309MOL0     C42518  11.728   0.175   6.217  0.3732 -0.3812  0.4516
  309MOL0     C42519  11.794   0.114   6.345 -0.3272 -0.5195 -0.0572
  309MOL0     C42520  11.919   0.204   6.388  0.3470  0.0249 -0.4025
  309MOL0     N42521  11.983   0.150   6.505 -0.4042  0.2127  0.4567
  309MOL0     C42522  12.086   0.054   6.505 -0.0153 -0.2943  0.8975
  309MOL0     C42523  12.109   0.036   6.635  0.2839 -0.3277 -0.3968
  309MOL0     C42524  12.227  -0.047   6.686 -0.2173  0.4817 -0.7592
  309MOL0     C42525  12.193  -0.130   6.812  0.1294  0.2008 -0.2969
  309MOL0     C42526  12.267  -0.263   6.826 -1.2054 -0.2313  0.8843
  309MOL0     C42527  12.418  -0.241   6.851 -0.1091  0.5547  0.6687
  309MOL0     O42528  12.469  -0.364   6.907 -0.0550 -0.7047 -0.7441
  309MOL0     C42529  12.603  -0.367   6.942 -0.4324 -1.1956  0.8934
  309MOL0     C42530  12.699  -0.266   6.914 -0.1219 -0.7499 -1.1609
  309MOL0     C42531  12.837  -0.284   6.946  0.6025  0.6601  0.0250
  309MOL0     C42532  12.928  -0.168   6.922 -0.3728  0.2803 -0.0349
  309MOL0     C42533  12.875  -0.403   7.012 -0.4846 -0.7905  0.3586
  309MOL0     C42534  13.017  -0.443   7.038  0.2333  0.3445 -0.5945
  309MOL0     O42535  13.027  -0.586   7.046  0.4686 -0.6481 -0.5006
  309MOL0     C42536  13.151  -0.647   7.039  0.2560 -0.7199 -0.0183
  309MOL0     C42537  13.158  -0.788   7.066 -0.4366 -0.2849  0.5343
  309MOL0     C42538  13.288  -0.854   7.066  0.1094 -0.4401  0.4657
  309MOL0     C42539  13.406  -0.789   7.040  0.2450 -0.0660 -0.0434
  309MOL0     O42540  13.525  -0.841   7.071  0.6367 -0.0353 -0.1715
  309MOL0     C42541  13.583  -0.794   7.194  0.3535  0.9061 -0.4398
  309MOL0     C42542  13.544  -0.872   7.330  0.7800 -0.0037  0.6284
  309MOL0     C42543  13.586  -0.802   7.462 -0.2249  0.0146 -0.2730
  309MOL0     C42544  13.504  -0.881   7.568 -0.0136  0.0985  0.1332
  309MOL0     C42545  13.541  -0.845   7.711 -0.1624 -0.1534 -0.0887
  309MOL0     C42546  13.683  -0.881   7.755 -0.2483  0.7798  0.6693
  309MOL0     C42547  13.721  -0.816   7.887  0.0975  0.1354  0.4542
  309MOL0     C42548  13.720  -0.659   7.881 -0.4099  0.0804 -1.0270
  309MOL0    Cl42549  13.857  -0.602   7.781 -0.1011 -0.6213 -0.2536
  309MOL0     C42550  13.395  -0.650   7.002  0.4721 -0.6122 -0.0879
  309MOL0     C42551  13.269  -0.586   6.998 -0.8624 -0.4200  0.0652
  309MOL0     O42552  13.101  -0.359   7.073  0.4299 -0.1361 -0.9268
  309MOL0     C42553  12.780  -0.487   7.066 -0.5037 -0.3566 -0.1307
  309MOL0     C42554  12.648  -0.472   7.029 -0.6810 -0.1285  0.4685
  309MOL0     N42555  12.028   0.120   6.707  0.0562 -1.1387 -0.9428
  309MOL0     N42556  11.958   0.186   6.628 -0.0524 -0.2542 -0.2551
  309MOL0     C42557  11.095   0.697   6.322  0.1397  0.0882  0.4056
  309MOL0     C42558  11.042   0.824   6.332 -0.2705  0.0632  0.3150
  309MOL0     C42559  10.857   1.209   6.496  0.1938  1.0955 -0.5156
  309MOL0     C42560  10.757   1.208   6.399 -0.1642 -0.0859  0.5338
  309MOL0     C42561  10.681   1.314   6.370 -0.9155 -0.5305  0.1646
  309MOL0     C42562  10.687   1.438   6.442 -0.2876  0.5946 -1.7476
  309MOL0     O42563  10.617   1.558   6.414 -0.3523 -0.0088 -0.9400
  309MOL0     C42564  10.509   1.541   6.327  0.2098 -0.4249  1.1005
  309MOL0     C42565  10.436   1.674   6.303 -0.2663  0.6325  0.2087
  309MOL0     C42566  10.514   1.777   6.222 -0.3206  1.0632 -0.4739
  309MOL0     C42567  10.532   1.744   6.068 -0.4167  1.0280 -0.3982
  309MOL0     C42568  10.608   1.856   6.008  0.5406 -0.1436 -0.2894
  309MOL0     C42569  10.646   1.959   5.956  0.7972 -0.4069 -0.3185
  309MOL0     C42570  10.789   1.444   6.534  0.3322  0.7743  0.1983
  309MOL0     C42571  10.872   1.333   6.560 -0.2114  0.2550 -0.3469
  309MOL0     C42572  10.973   1.354   6.672  0.2238  0.3809  0.0673
  309MOL0     H42573  10.881   0.785   6.627  1.7180 -0.6639  1.4764
  309MOL0     H42574  11.004   0.570   6.625 -0.1194  1.3750  1.0042
  309MOL0     H42575  11.342   0.495   6.336  0.7544 -1.6752  1.3589
  309MOL0     H42576  11.197   0.433   6.240 -1.4070 -0.5776 -0.0264
  309MOL0     H42577  11.342   0.305   6.471 -0.3697  2.3165  0.3337
  309MOL0     H42578  11.238   0.213   6.357  1.8469 -1.6069 -1.0129
  309MOL0     H42579  11.426   0.309   6.180 -0.9638  0.8000  0.9480
  309MOL0     H42580  11.516   0.335   6.321  1.5990 -2.2059 -1.0798
  309MOL0     H42581  11.517   0.099   6.376  1.6521  2.0889 -0.9451
  309MOL0     H42582  11.400   0.055   6.247 -0.6759 -0.2352 -0.6194
  309MOL0     H42583  11.560   0.157   6.083 -1.3058 -2.1671 -1.0400
  309MOL0     H42584  11.617   0.004   6.155 -1.4759 -0.8430 -0.8493
  309MOL0     H42585  11.793   0.178   6.129 -0.9354  2.7317 -0.5723
  309MOL0     H42586  11.726   0.284   6.229  3.6776  0.0127 -1.3634
  309MOL0     H42587  11.831   0.012   6.329 -2.9166 -2.0746  2.8456
  309MOL0     H42588  11.720   0.123   6.425 -1.6065 -0.0673 -1.2471
  309MOL0     H42589  11.992   0.211   6.306  0.4126 -0.9912 -0.4406
  309MOL0     H42590  11.890   0.304   6.420 -0.1078 -0.4660  0.7531
  309MOL0     H42591  12.135   0.005   6.421  0.6796  0.9271  0.5711
  309MOL0     H42592  12.302   0.025   6.721 -1.0577  0.6749  0.7552
  309MOL0     H42593  12.262  -0.120   6.613 -2.7787 -3.4040  1.4918
  309MOL0     H42594  12.194  -0.070   6.903 -0.6146  0.8934 -0.7270
  309MOL0     H42595  12.088  -0.155   6.796 -0.2744  2.1565 -1.0621
  309MOL0     H42596  12.229  -0.311   6.916 -0.2578 -0.9713  0.8997
  309MOL0     H42597  12.254  -0.325   6.737 -2.3403  1.2787 -0.0758
  309MOL0     H42598  12.469  -0.232   6.754 -1.9502 -1.6674 -0.6046
  309MOL0     H42599  12.450  -0.157   6.913  0.4310  0.6996  0.2081
  309MOL0     H42600  12.662  -0.172   6.876 -0.5754 -0.7551 -0.7429
  309MOL0     H42601  13.012  -0.200   6.860 -1.5871  1.2831 -2.2851
  309MOL0     H42602  12.965  -0.141   7.022 -0.6700 -0.6003  0.3264
  309MOL0     H42603  12.890  -0.078   6.874  3.4895  1.3249 -1.4834
  309MOL0     H42604  13.067  -0.844   7.086 -0.6703  0.0415  0.4012
  309MOL0     H42605  13.297  -0.958   7.095 -0.0594 -0.7204 -0.4418
  309MOL0     H42606  13.689  -0.816   7.183  0.6727  1.5714  1.0685
  309MOL0     H42607  13.572  -0.686   7.209 -0.2389  1.2109 -2.6523
  309MOL0     H42608  13.438  -0.894   7.320  1.0481 -1.0414 -0.1189
  309MOL0     H42609  13.589  -0.971   7.336 -3.5038 -2.0681  2.7189
  309MOL0     H42610  13.554  -0.698   7.448  1.1834  0.1715 -2.9271
  309MOL0     H42611  13.693  -0.805   7.484 -0.3146 -0.2562  0.1276
  309MOL0     H42612  13.516  -0.990   7.558 -1.9034 -0.1225 -0.1888
  309MOL0     H42613  13.397  -0.868   7.551  0.0587 -2.7748 -3.9262
  309MOL0     H42614  13.520  -0.738   7.719 -1.6650 -0.4803  0.8670
  309MOL0     H42615  13.465  -0.886   7.779 -0.8061  0.9229 -0.1349
  309MOL0     H42616  13.757  -0.859   7.679  0.4513  3.7499  2.0399
  309MOL0     H42617  13.684  -0.989   7.769 -1.9006  0.6090 -0.2113
  309MOL0     H42618  13.820  -0.849   7.920  0.9231  2.0824  0.0777
  309MOL0     H42619  13.649  -0.841   7.966 -1.2453  0.7663 -0.5234
  309MOL0     H42620  13.726  -0.618   7.983 -2.2841  1.6966 -1.5173
  309MOL0     H42621  13.630  -0.613   7.840 -1.8922  0.4664  2.2712
  309MOL0     H42622  13.481  -0.586   6.990  0.4054 -0.5241 -0.0973
  309MOL0     H42623  13.272  -0.485   6.959 -0.1709 -0.2766  0.4673
  309MOL0     H42624  12.809  -0.571   7.128 -0.9180 -2.9776 -3.2583
  309MOL0     H42625  12.568  -0.544   7.040 -2.3281  1.2342 -1.7209
  309MOL0     H42626  11.158   0.667   6.238  0.4971  2.2139 -0.1257
  309MOL0     H42627  11.061   0.897   6.254  4.7085  1.5342  2.5202
  309MOL0     H42628  10.740   1.119   6.339  2.4445  0.1205 -0.6570
  309MOL0     H42629  10.625   1.318   6.277 -1.3790  0.9481  0.4880
  309MOL0     H42630  10.548   1.500   6.234 -1.1563  0.7714 -0.0578
  309MOL0     H42631  10.437   1.469   6.368  1.1077 -1.5447  0.7480
  309MOL0     H42632  10.398   1.714   6.397 -3.1008  0.9307 -0.9857
  309MOL0     H42633  10.343   1.657   6.249  0.4186  1.4465 -1.2861
  309MOL0     H42634  10.466   1.874   6.239 -1.8753 -0.1552  2.8316
  309MOL0     H42635  10.616   1.772   6.261 -1.2477 -2.0126  1.9376
  309MOL0     H42636  10.432   1.728   6.028 -1.0903  1.5907  0.9892
  309MOL0     H42637  10.586   1.649   6.063 -2.9767 -0.7280  2.3001
  309MOL0     H42638  10.678   2.041   5.895  0.1975  0.5182  0.5740
  309MOL0     H42639  10.824   1.539   6.572  0.3510  1.3972 -1.3052
  309MOL0     H42640  10.953   1.271   6.740 -3.2896  1.2947  0.3572
  309MOL0     H42641  11.073   1.341   6.630  0.9187 -2.4159  2.2896
  309MOL0     H42642  10.951   1.451   6.718  1.4669  1.9747 -2.4693
  310MOL0     O42643   1.021  10.316   4.003  0.6246 -0.3380  0.3251
  310MOL0     C42644   0.947  10.384   4.080  0.0340  0.7731 -0.2785
  310MOL0     O42645   0.953  10.376   4.219  0.2387 -0.4382  0.2057
  310MOL0     C42646   1.034  10.284   4.280  0.0464  0.6257  0.2337
  310MOL0     C42647   1.157  10.305   4.330 -0.2377  0.3045  0.1373
  310MOL0     C42648   1.216  10.211   4.417 -0.1364  0.0855 -0.9345
  310MOL0     C42649   1.166  10.083   4.433 -0.2813 -0.0753  0.1817
  310MOL0     O42650   1.211   9.984   4.518  1.1708 -0.5229 -1.1615
  310MOL0     C42651   1.332  10.017   4.591 -0.0584 -1.1661 -0.1477
  310MOL0     C42652   1.355   9.906   4.694  0.0625  0.0518  0.0195
  310MOL0     C42653   1.353   9.763   4.627 -0.6365  0.4946  0.7082
  310MOL0     C42654   1.466   9.680   4.687 -0.0334 -0.3043 -0.0550
  310MOL0     C42655   1.515   9.563   4.601  0.9769 -0.4836 -0.9728
  310MOL0     C42656   1.639   9.495   4.669 -0.8230  0.3089  0.4225
  310MOL0     C42657   1.707   9.370   4.597 -0.2455  0.1555  0.3558
  310MOL0     C42658   1.849   9.353   4.658  0.7357 -0.4643 -0.1944
  310MOL0     N42659   1.919   9.228   4.626 -0.8482  0.0071  0.1452
  310MOL0     C42660   1.913   9.164   4.504 -0.3059 -0.2262  0.1043
  310MOL0     C42661   1.968   9.047   4.515  0.3682 -0.0838 -0.3911
  310MOL0     C42662   1.988   8.937   4.419 -0.2356  0.0866 -0.2359
  310MOL0     C42663   1.889   8.823   4.453  0.1817 -0.4471  0.6053
  310MOL0     C42664   1.907   8.704   4.361  1.0392 -0.0294 -0.8772
  310MOL0     C42665   2.030   8.615   4.405  0.6168 -0.0485  0.8515
  310MOL0     O42666   2.040   8.497   4.325 -0.4690  0.5204 -0.4943
  310MOL0     C42667   2.122   8.500   4.217 -0.1361 -0.4566 -0.1596
  310MOL0     C42668   2.252   8.464   4.218 -0.5023  0.1250  0.2786
  310MOL0     C42669   2.334   8.478   4.103  0.1509  0.4359 -0.9543
  310MOL0     C42670   2.476   8.439   4.119 -0.3460 -0.7621  0.0487
  310MOL0     C42671   2.268   8.526   3.984  0.3543  0.6371 -0.6611
  310MOL0     C42672   2.343   8.541   3.858 -0.5172  0.3339 -0.0793
  310MOL0     O42673   2.260   8.530   3.750  0.0198 -0.3970 -0.6872
  310MOL0     C42674   2.287   8.540   3.614 -0.3823 -0.0979  0.0907
  310MOL0     C42675   2.179   8.530   3.528  0.1562 -0.2415  0.1423
  310MOL0     C42676   2.195   8.541   3.384  0.3805 -0.9418  0.2108
  310MOL0     C42677   2.325   8.554   3.329  0.3237 -0.7410  0.8675
  310MOL0     O42678   2.339   8.546   3.195 -0.4372 -0.1723  0.5777
  310MOL0     C42679   2.286   8.430   3.121  0.0346  0.3104  0.2353
  310MOL0     C42680   2.380   8.427   3.002  0.1279  0.4782 -0.3276
  310MOL0     C42681   2.342   8.547   2.900 -0.4111  0.5964 -0.2182
  310MOL0     C42682   2.439   8.558   2.784 -1.0448  0.7744 -0.6844
  310MOL0     C42683   2.405   8.650   2.669 -0.2472  0.7444  0.0486
  310MOL0     C42684   2.393   8.801   2.704  0.3293  0.2049 -0.0912
  310MOL0     C42685   2.413   8.892   2.585 -0.6314 -0.3919 -0.0243
  310MOL0     C42686   2.309   8.900   2.474 -0.3946  0.1403 -0.1099
  310MOL0    Cl42687   2.374   8.999   2.330 -0.3797  0.3204  0.1314
  310MOL0     C42688   2.433   8.565   3.418 -0.2076 -0.5494 -0.6696
  310MOL0     C42689   2.420   8.560   3.556  0.5171  1.2208  1.1935
  310MOL0     O42690   2.469   8.566   3.851 -0.1085 -0.3385 -0.0276
  310MOL0     C42691   2.139   8.565   3.990 -0.2246  0.3309  0.2541
  310MOL0     C42692   2.066   8.550   4.103  0.2181 -0.2174  0.7567
  310MOL0     N42693   1.999   9.031   4.654  0.7721  0.7494  0.1575
  310MOL0     N42694   1.970   9.136   4.712  0.0403 -0.5830 -0.2405
  310MOL0     C42695   1.044  10.064   4.374  0.1036  0.4133 -0.2611
  310MOL0     C42696   0.974  10.163   4.306 -0.5459 -0.3005  0.8277
  310MOL0     C42697   0.845  10.467   4.011 -0.0715  0.1588  1.0501
  310MOL0     C42698   0.889  10.568   3.927  0.0283 -0.2636  0.0548
  310MOL0     C42699   0.793  10.664   3.868 -0.0227  0.1547  0.1325
  310MOL0     C42700   0.659  10.650   3.910  0.0646  0.6690  0.9771
  310MOL0     O42701   0.559  10.734   3.867 -0.7118 -0.3385  0.8293
  310MOL0     C42702   0.591  10.830   3.762  0.2254  0.2867  0.0702
  310MOL0     C42703   0.483  10.931   3.734 -0.0135  0.2147  0.1041
  310MOL0     C42704   0.366  10.858   3.661 -0.4007 -0.4730 -1.2869
  310MOL0     C42705   0.243  10.940   3.657 -0.2014  0.4579  0.0512
  310MOL0     C42706   0.125  10.853   3.621  0.1359  0.5961 -0.3611
  310MOL0     C42707   0.026  10.779   3.603  0.5752 -0.0079  0.1872
  310MOL0     C42708   0.617  10.543   4.000 -0.0770  0.5415  0.4763
  310MOL0     C42709   0.709  10.453   4.052 -0.1406 -0.3658 -0.3781
  310MOL0     C42710   0.668  10.341   4.142  0.4768  0.1684 -0.7088
  310MOL0     H42711   1.217  10.394   4.313 -0.5751  0.3725 -0.7708
  310MOL0     H42712   1.315  10.233   4.456  0.7022 -1.5115 -2.0578
  310MOL0     H42713   1.311  10.098   4.662 -1.3927 -2.3005  0.8086
  310MOL0     H42714   1.406  10.037   4.513 -2.5945  0.4093 -2.3267
  310MOL0     H42715   1.456   9.927   4.730  0.3126 -2.8072  1.2889
  310MOL0     H42716   1.283   9.914   4.775 -2.1769 -0.0540 -1.8528
  310MOL0     H42717   1.257   9.713   4.645 -0.0837 -1.4854 -1.3392
  310MOL0     H42718   1.366   9.781   4.520  0.9456  3.1567  1.2482
  310MOL0     H42719   1.553   9.738   4.719  0.0515 -1.4753  2.0107
  310MOL0     H42720   1.430   9.629   4.777  0.9017 -0.5077  0.2102
  310MOL0     H42721   1.540   9.611   4.506 -5.4305  2.7993 -1.5386
  310MOL0     H42722   1.438   9.486   4.589  1.5641 -0.9128 -2.1875
  310MOL0     H42723   1.713   9.576   4.670  0.0059 -0.3900 -1.1731
  310MOL0     H42724   1.618   9.466   4.772 -1.2424  0.7040  0.4524
  310MOL0     H42725   1.696   9.390   4.490 -2.2932 -0.8080  0.3308
  310MOL0     H42726   1.645   9.280   4.611 -1.5294  1.1798  1.5519
  310MOL0     H42727   1.920   9.432   4.633  2.3540 -1.2089  1.7726
  310MOL0     H42728   1.841   9.355   4.767  0.7454 -0.8174 -0.1857
  310MOL0     H42729   1.871   9.211   4.416  0.2247 -1.9035 -1.0807
  310MOL0     H42730   2.089   8.897   4.431 -0.6915 -1.1731 -0.3774
  310MOL0     H42731   1.982   8.981   4.319 -0.4049 -0.4522 -0.4674
  310MOL0     H42732   1.895   8.791   4.558  2.5421  2.5677  1.5651
  310MOL0     H42733   1.786   8.859   4.439 -0.3393 -1.2848  2.0731
  310MOL0     H42734   1.810   8.655   4.355  2.1913 -2.3783 -1.2961
  310MOL0     H42735   1.921   8.744   4.260 -0.0801 -0.1701 -1.0968
  310MOL0     H42736   2.120   8.675   4.387 -1.6210  3.5448  0.6118
  310MOL0     H42737   2.024   8.592   4.512  1.8200 -0.0974  0.9141
  310MOL0     H42738   2.296   8.436   4.313 -1.6702  0.3155  0.8923
  310MOL0     H42739   2.522   8.402   4.027  1.8305 -2.1127  1.5993
  310MOL0     H42740   2.486   8.363   4.198 -1.1815 -0.8437  0.0888
  310MOL0     H42741   2.529   8.525   4.158 -1.8411 -0.3575  1.3042
  310MOL0     H42742   2.078   8.508   3.560 -0.6515  2.0064 -0.6574
  310MOL0     H42743   2.121   8.523   3.307  1.1401  2.1753 -1.4105
  310MOL0     H42744   2.274   8.339   3.179 -0.9845 -0.7992 -1.6051
  310MOL0     H42745   2.186   8.456   3.086 -0.8760  1.4963  3.3582
  310MOL0     H42746   2.486   8.431   3.026  0.0714  0.4172 -0.0654
  310MOL0     H42747   2.361   8.328   2.958  0.5594  0.1792  0.1500
  310MOL0     H42748   2.339   8.645   2.949  0.2230  1.5389 -1.9574
  310MOL0     H42749   2.248   8.521   2.850  0.8918  1.8590 -3.6681
  310MOL0     H42750   2.450   8.458   2.740 -1.2095  0.1157  0.6972
  310MOL0     H42751   2.543   8.571   2.817 -1.7256  1.0636  1.5449
  310MOL0     H42752   2.485   8.653   2.595  0.5361 -0.1772  0.8172
  310MOL0     H42753   2.314   8.620   2.617  1.7250 -3.0511 -1.6181
  310MOL0     H42754   2.474   8.820   2.775  0.2602  0.7258 -0.1516
  310MOL0     H42755   2.299   8.827   2.752 -0.3190 -2.1320  0.0640
  310MOL0     H42756   2.507   8.858   2.541  0.5837 -1.2552  3.0072
  310MOL0     H42757   2.425   8.995   2.619  2.2348 -0.8920  0.7244
  310MOL0     H42758   2.222   8.938   2.529  0.6765 -1.4449  2.8855
  310MOL0     H42759   2.297   8.798   2.434 -1.1858  0.2641 -0.1993
  310MOL0     H42760   2.535   8.581   3.385  0.2532  0.4785  1.1222
  310MOL0     H42761   2.517   8.563   3.604  2.6079 -3.2696 -2.0029
  310MOL0     H42762   2.086   8.598   3.901 -0.4629  1.7116  0.8955
  310MOL0     H42763   1.962   8.581   4.096  0.4761  0.3095 -1.7792
  310MOL0     H42764   0.997   9.967   4.385 -0.6727  0.7041 -0.8978
  310MOL0     H42765   0.874  10.125   4.285 -1.3998  1.9415  0.5275
  310MOL0     H42766   0.998  10.565   3.919 -0.0359 -2.6911 -0.8382
  310MOL0     H42767   0.826  10.751   3.813  2.6449  0.2813  1.7822
  310MOL0     H42768   0.679  10.891   3.785  0.7497 -0.4312 -0.0169
  310MOL0     H42769   0.636  10.781   3.676  2.3566  0.9256  0.7581
  310MOL0     H42770   0.514  11.007   3.662 -1.0831  1.7985  1.2477
  310MOL0     H42771   0.463  10.982   3.829  2.7187  0.9436  0.3815
  310MOL0     H42772   0.407  10.839   3.561  2.3902  2.4927 -0.8510
  310MOL0     H42773   0.344  10.763   3.710 -3.1848  0.1085 -1.2898
  310MOL0     H42774   0.250  11.031   3.596 -1.2629  0.9257  0.5938
  310MOL0     H42775   0.230  10.979   3.758 -0.7898 -2.3298  1.1257
  310MOL0     H42776  -0.068  10.732   3.581  0.7104 -1.1921  1.9845
  310MOL0     H42777   0.514  10.547   4.033 -0.6532  1.3170 -1.3153
  310MOL0     H42778   0.732  10.253   4.134  0.2852  0.1860 -3.4277
  310MOL0     H42779   0.663  10.375   4.245  2.2513  0.3710 -0.6531
  310MOL0     H42780   0.571  10.304   4.110  0.7013  0.7823 -2.1962
  311MOL0     O42781  10.325   3.980   3.831 -0.4259  0.2760  0.9020
  311MOL0     C42782  10.271   4.087   3.863 -0.4140 -0.3563  0.1203
  311MOL0     O42783  10.322   4.208   3.848 -0.0694  0.6962  0.2465
  311MOL0     C42784  10.431   4.230   3.761 -0.6443  0.7522 -0.3250
  311MOL0     C42785  10.467   4.154   3.652 -0.1593 -0.0116  0.1330
  311MOL0     C42786  10.579   4.191   3.575 -0.7250 -0.4676  0.3440
  311MOL0     C42787  10.655   4.305   3.600  0.6843 -0.4547  0.4667
  311MOL0     O42788  10.764   4.332   3.519  0.4220  0.2076  0.4859
  311MOL0     C42789  10.737   4.435   3.422  0.6603 -0.2932 -1.1424
  311MOL0     C42790  10.755   4.579   3.486 -0.2592  1.1887  0.6774
  311MOL0     C42791  10.880   4.589   3.569  0.1771 -0.8731 -0.4053
  311MOL0     C42792  10.880   4.723   3.634  0.7390 -0.4416 -0.0263
  311MOL0     C42793  11.011   4.735   3.712 -0.4671  0.9555 -0.1655
  311MOL0     C42794  11.022   4.882   3.765  0.5376  0.1959  0.0775
  311MOL0     C42795  11.159   4.925   3.772 -0.2861 -0.5194 -0.3337
  311MOL0     C42796  11.186   5.043   3.867  0.0218  0.3885 -0.1328
  311MOL0     N42797  11.327   5.093   3.853 -0.0129 -0.4309  0.3981
  311MOL0     C42798  11.359   5.218   3.794 -0.2260  0.2185 -0.2404
  311MOL0     C42799  11.494   5.218   3.819  0.1636 -0.0034  0.4051
  311MOL0     C42800  11.578   5.335   3.767 -0.4764 -0.0594  0.4143
  311MOL0     C42801  11.556   5.368   3.618  0.0640 -0.3634  0.8636
  311MOL0     C42802  11.600   5.259   3.528 -0.5720  1.1340 -0.0202
  311MOL0     C42803  11.526   5.253   3.398 -0.2606 -0.1102  0.4474
  311MOL0     O42804  11.387   5.226   3.413 -0.2571 -0.4877 -1.0416
  311MOL0     C42805  11.334   5.144   3.318 -0.8549  0.4460  0.8079
  311MOL0     C42806  11.305   5.010   3.357 -0.1535 -0.1317 -0.3871
  311MOL0     C42807  11.224   4.921   3.282  0.3198  0.0786 -0.4586
  311MOL0     C42808  11.196   4.789   3.352 -0.0677  0.2100  0.4430
  311MOL0     C42809  11.159   4.966   3.162 -0.1282  0.0397  0.5298
  311MOL0     C42810  11.046   4.896   3.104  1.0796  0.0937 -0.2235
  311MOL0     O42811  11.013   4.953   2.981  0.0840  0.1397  0.3145
  311MOL0     C42812  10.903   4.903   2.910  0.5061  0.0765 -0.2109
  311MOL0     C42813  10.927   4.852   2.783 -0.7864  0.8174 -0.6156
  311MOL0     C42814  10.830   4.799   2.700 -0.7590 -0.2747  0.2078
  311MOL0     C42815  10.702   4.785   2.747 -0.0907 -0.5901 -0.1661
  311MOL0     O42816  10.617   4.699   2.680  0.2635 -0.7052  0.2036
  311MOL0     C42817  10.479   4.718   2.722 -0.6779  0.2310  0.0564
  311MOL0     C42818  10.385   4.624   2.648  0.1506  0.3061  0.2939
  311MOL0     C42819  10.240   4.625   2.707 -0.1924  0.3126 -0.2534
  311MOL0     C42820  10.156   4.751   2.682  0.4447 -0.0956 -0.1033
  311MOL0     C42821  10.007   4.719   2.726 -0.1745 -0.0246  0.4657
  311MOL0     C42822   9.991   4.691   2.876 -0.0559 -0.8597 -0.3436
  311MOL0     C42823   9.847   4.675   2.912  0.5304  0.2126 -0.2214
  311MOL0     C42824   9.796   4.530   2.867 -0.0665  0.2839  0.0135
  311MOL0    Cl42825   9.892   4.415   2.967 -0.5443 -0.4133  0.3114
  311MOL0     C42826  10.667   4.846   2.871 -0.8846 -0.5189  0.3023
  311MOL0     C42827  10.770   4.910   2.950  0.8844 -0.1143 -0.2080
  311MOL0     O42828  10.986   4.800   3.157 -0.1560 -0.4416 -0.6072
  311MOL0     C42829  11.211   5.083   3.116 -0.2544 -0.8838  0.7750
  311MOL0     C42830  11.293   5.177   3.188  0.5504 -0.0084 -0.2210
  311MOL0     N42831  11.539   5.117   3.898  0.6181  0.3446 -0.7292
  311MOL0     N42832  11.439   5.031   3.904  0.5294 -0.4922  0.3856
  311MOL0     C42833  10.629   4.378   3.718 -0.4849 -0.8585  0.2046
  311MOL0     C42834  10.517   4.344   3.791 -0.8826 -0.7724 -0.3151
  311MOL0     C42835  10.150   4.066   3.937 -0.5859 -0.2731  0.9352
  311MOL0     C42836  10.149   3.972   4.044 -0.2548  0.0816  0.3862
  311MOL0     C42837  10.041   3.948   4.115 -0.4077  0.4342  0.4275
  311MOL0     C42838   9.917   4.015   4.090 -0.4712  0.2790  0.1857
  311MOL0     O42839   9.807   3.990   4.169  0.4959  0.5610  0.6438
  311MOL0     C42840   9.681   3.955   4.099  0.4981 -1.0510  0.7029
  311MOL0     C42841   9.692   3.819   4.032  0.2511 -0.2920 -0.2525
  311MOL0     C42842   9.551   3.785   3.971 -0.4508 -0.1071  0.5938
  311MOL0     C42843   9.570   3.645   3.906  0.2386 -0.1759  0.0582
  311MOL0     C42844   9.435   3.595   3.870  0.0011  0.1392 -0.1674
  311MOL0     C42845   9.317   3.583   3.852 -0.0865  0.1795  0.4759
  311MOL0     C42846   9.921   4.120   3.998  0.0858  0.1739  0.0207
  311MOL0     C42847  10.032   4.145   3.913 -0.4019  0.7597 -0.5169
  311MOL0     C42848  10.022   4.246   3.800 -0.1576  0.6325  0.6725
  311MOL0     H42849  10.397   4.079   3.618 -1.0648  0.8827 -0.0001
  311MOL0     H42850  10.610   4.131   3.491  1.2253 -1.1860  1.4936
  311MOL0     H42851  10.634   4.421   3.389  0.2446 -0.5451  0.1887
  311MOL0     H42852  10.797   4.423   3.331 -0.2372  2.8118 -2.2487
  311MOL0     H42853  10.758   4.644   3.398  1.4067 -1.2933 -1.2497
  311MOL0     H42854  10.669   4.602   3.550 -1.5487  0.1954 -0.6207
  311MOL0     H42855  10.891   4.506   3.640 -3.4225 -3.1422 -2.1913
  311MOL0     H42856  10.971   4.589   3.507 -0.0992 -3.6615 -0.9219
  311MOL0     H42857  10.875   4.795   3.551  1.6074 -1.1868 -0.7469
  311MOL0     H42858  10.800   4.728   3.708  2.0121  0.8268  1.3512
  311MOL0     H42859  11.093   4.735   3.641  0.2919 -0.8744  0.6535
  311MOL0     H42860  11.029   4.654   3.783 -1.0502  1.7581  0.9379
  311MOL0     H42861  10.975   4.954   3.696  0.3479  1.4420  1.4651
  311MOL0     H42862  10.974   4.888   3.863 -1.7375 -0.1704 -0.9415
  311MOL0     H42863  11.195   4.952   3.672 -0.0592  0.2691 -0.0417
  311MOL0     H42864  11.217   4.835   3.796 -0.0656 -1.0684 -2.6873
  311MOL0     H42865  11.126   5.130   3.837 -0.0447  0.0218 -1.1212
  311MOL0     H42866  11.168   5.015   3.971  3.3315  0.2533  0.4911
  311MOL0     H42867  11.304   5.295   3.742 -0.8203 -0.0612 -0.0399
  311MOL0     H42868  11.686   5.326   3.784 -0.4715  0.3398  0.6065
  311MOL0     H42869  11.555   5.421   3.831  2.8809  0.6339  0.8806
  311MOL0     H42870  11.449   5.386   3.602  0.9280  2.7419 -2.8876
  311MOL0     H42871  11.608   5.457   3.583 -1.0529 -0.9193 -2.6464
  311MOL0     H42872  11.704   5.277   3.498 -0.9540 -0.2997 -2.4945
  311MOL0     H42873  11.594   5.159   3.572 -2.5279  1.4431  0.5047
  311MOL0     H42874  11.557   5.347   3.351  2.0997 -1.7617 -1.5738
  311MOL0     H42875  11.567   5.183   3.325 -1.0827  0.3064 -0.4302
  311MOL0     H42876  11.359   4.978   3.445 -0.6598 -0.5910 -0.2344
  311MOL0     H42877  11.252   4.769   3.444 -1.2519  3.5337  2.0355
  311MOL0     H42878  11.201   4.703   3.285 -2.1343  0.4667 -0.0926
  311MOL0     H42879  11.091   4.795   3.381 -0.5966  0.1790 -1.3338
  311MOL0     H42880  11.031   4.846   2.754 -0.1567 -5.5847  1.3256
  311MOL0     H42881  10.862   4.770   2.600  2.1328  2.2953  0.2337
  311MOL0     H42882  10.473   4.695   2.829 -1.7178  0.3358  0.0363
  311MOL0     H42883  10.451   4.819   2.690 -0.2260  0.3588  0.0649
  311MOL0     H42884  10.377   4.649   2.542 -2.4590  0.4618  0.4671
  311MOL0     H42885  10.427   4.525   2.663  0.5289  0.3498 -0.4344
  311MOL0     H42886  10.257   4.608   2.814  2.5978 -1.4390 -0.8717
  311MOL0     H42887  10.191   4.534   2.671 -0.2785  1.2069 -2.5483
  311MOL0     H42888  10.151   4.770   2.575 -0.6632  2.8110  0.3777
  311MOL0     H42889  10.205   4.835   2.731  1.3750 -1.0080  0.5727
  311MOL0     H42890   9.944   4.806   2.704  0.6083  0.9685  1.9745
  311MOL0     H42891   9.976   4.637   2.662  0.5574 -0.3260  0.4819
  311MOL0     H42892  10.032   4.785   2.913 -0.9727  1.1883 -3.9836
  311MOL0     H42893  10.054   4.614   2.921 -0.1243 -0.0821  1.1192
  311MOL0     H42894   9.789   4.745   2.851  0.6480 -1.8079 -2.8682
  311MOL0     H42895   9.826   4.687   3.019 -0.9410  0.1559 -0.4792
  311MOL0     H42896   9.836   4.503   2.769  3.4577 -2.6869  2.0154
  311MOL0     H42897   9.690   4.505   2.880  0.1938 -0.5356  0.5858
  311MOL0     H42898  10.571   4.841   2.921 -0.2367 -1.5857  1.4908
  311MOL0     H42899  10.737   4.957   3.043 -2.0639  0.3407 -1.3541
  311MOL0     H42900  11.181   5.122   3.020 -0.1911 -0.0740  1.0705
  311MOL0     H42901  11.325   5.274   3.152 -1.2368  0.1814 -1.3986
  311MOL0     H42902  10.693   4.463   3.742  1.1390 -2.1952  0.7430
  311MOL0     H42903  10.512   4.394   3.887  5.4526  3.4893 -1.6606
  311MOL0     H42904  10.243   3.924   4.066  1.9263  3.7116 -0.1066
  311MOL0     H42905  10.043   3.872   4.193  0.1812  0.5321  0.5126
  311MOL0     H42906   9.599   3.945   4.170 -1.4486  0.0607 -1.2657
  311MOL0     H42907   9.644   4.031   4.029  0.1680 -2.4794 -0.7371
  311MOL0     H42908   9.715   3.743   4.107 -0.9862 -1.0703 -0.6265
  311MOL0     H42909   9.771   3.811   3.956  0.2160  0.6687 -0.4009
  311MOL0     H42910   9.470   3.791   4.044 -0.9392  1.3661 -0.0221
  311MOL0     H42911   9.531   3.861   3.895  1.8332  0.8802  0.8792
  311MOL0     H42912   9.623   3.567   3.961  0.7164  0.7661  0.9967
  311MOL0     H42913   9.622   3.650   3.810  0.6496 -3.5390 -0.0079
  311MOL0     H42914   9.210   3.587   3.843 -0.2097 -0.9508  1.1727
  311MOL0     H42915   9.835   4.182   3.974  0.6584  0.0777 -2.4862
  311MOL0     H42916  10.070   4.340   3.828 -0.0376  1.0631 -0.8689
  311MOL0     H42917  10.066   4.209   3.707 -1.4013 -2.4188  1.1839
  311MOL0     H42918   9.915   4.259   3.785 -0.1861 -0.7599 -0.5181
  312MOL0     O42919   0.396   7.273   7.403  0.2857 -0.1265  0.3075
  312MOL0     C42920   0.330   7.177   7.370 -0.2997  1.3205 -0.3419
  312MOL0     O42921   0.357   7.049   7.402 -1.0344  0.4658  0.1014
  312MOL0     C42922   0.474   7.014   7.468  0.6783 -0.5792 -0.3637
  312MOL0     C42923   0.461   6.918   7.565 -0.0598  0.0958 -0.2109
  312MOL0     C42924   0.574   6.875   7.638  0.6269 -0.0971 -0.4467
  312MOL0     C42925   0.703   6.932   7.614  0.1718 -1.1770  0.6341
  312MOL0     O42926   0.818   6.903   7.691  0.3645 -0.0956  0.1797
  312MOL0     C42927   0.797   6.877   7.835 -0.3937 -0.0322  0.0737
  312MOL0     C42928   0.764   6.998   7.928  0.9378  0.1396 -0.5128
  312MOL0     C42929   0.868   7.111   7.904  0.4488 -0.4116 -0.7082
  312MOL0     C42930   0.869   7.221   8.008 -0.0370 -0.3950 -0.2372
  312MOL0     C42931   0.915   7.351   7.940 -0.0978 -0.5583 -0.3894
  312MOL0     C42932   1.063   7.349   7.915 -0.4136  0.3519 -0.0175
  312MOL0     C42933   1.094   7.490   7.856  1.0521  0.4623 -0.2277
  312MOL0     C42934   1.241   7.527   7.859  0.3964  0.4129 -0.2180
  312MOL0     N42935   1.295   7.543   7.726  0.4264 -1.0487  0.6297
  312MOL0     C42936   1.263   7.450   7.621  0.2945  0.3192  0.3127
  312MOL0     C42937   1.347   7.501   7.527 -0.8329 -0.2675  0.1832
  312MOL0     C42938   1.373   7.432   7.391 -0.0465  0.0265  0.1744
  312MOL0     C42939   1.260   7.456   7.289 -0.4758 -0.6350 -0.3154
  312MOL0     C42940   1.302   7.411   7.148 -0.1789 -0.6278 -0.8209
  312MOL0     C42941   1.194   7.433   7.041 -0.4615  0.4156  0.2542
  312MOL0     O42942   1.080   7.368   7.093  0.3267  0.4444  0.3508
  312MOL0     C42943   0.968   7.346   7.014  0.6762 -0.4930  0.1270
  312MOL0     C42944   0.955   7.393   6.881  0.4555 -0.4293 -0.1154
  312MOL0     C42945   0.844   7.355   6.795 -0.0486 -0.6471  0.3363
  312MOL0     C42946   0.864   7.374   6.646  0.5873 -0.1320  0.6650
  312MOL0     C42947   0.729   7.292   6.857  0.2958 -0.5213  0.4772
  312MOL0     C42948   0.597   7.255   6.805  0.0680 -0.3252 -0.3248
  312MOL0     O42949   0.492   7.237   6.899 -0.7687  0.3338  0.8318
  312MOL0     C42950   0.369   7.213   6.848 -0.2987  0.0584 -0.2350
  312MOL0     C42951   0.299   7.309   6.776 -0.4254  0.8300  0.0821
  312MOL0     C42952   0.175   7.289   6.730  0.3992  0.7216 -0.6921
  312MOL0     C42953   0.114   7.164   6.745  0.7923 -0.1441  0.3284
  312MOL0     O42954  -0.012   7.128   6.693  0.1101  0.4175  0.0218
  312MOL0     C42955  -0.105   7.235   6.703 -0.3747  0.0525 -0.7067
  312MOL0     C42956  -0.256   7.192   6.696 -0.7495  0.8712 -0.2968
  312MOL0     C42957  -0.351   7.301   6.651  0.8761 -0.2331 -0.2415
  312MOL0     C42958  -0.495   7.247   6.620  0.6397  0.3336 -0.1913
  312MOL0     C42959  -0.617   7.347   6.633 -0.8570 -0.3416 -0.7305
  312MOL0     C42960  -0.594   7.461   6.524 -0.1011 -0.1668  0.9822
  312MOL0     C42961  -0.660   7.593   6.561 -0.3721  0.3553  0.1844
  312MOL0     C42962  -0.790   7.613   6.495  1.0898  0.6182 -1.0387
  312MOL0    Cl42963  -0.908   7.489   6.534 -0.4766 -0.0068 -0.0762
  312MOL0     C42964   0.182   7.059   6.813  0.0492 -0.6855  0.0784
  312MOL0     C42965   0.309   7.086   6.870  0.9081 -0.3719 -0.1854
  312MOL0     O42966   0.582   7.248   6.684  0.8130  0.5265 -0.5689
  312MOL0     C42967   0.741   7.261   6.997 -0.0484  0.2902  0.5424
  312MOL0     C42968   0.855   7.291   7.068 -0.0398  0.0739  0.8577
  312MOL0     N42969   1.415   7.613   7.565  0.1444 -0.1302 -0.6378
  312MOL0     N42970   1.389   7.637   7.686  0.1149 -0.9015  0.6361
  312MOL0     C42971   0.708   7.038   7.510 -0.5159 -0.9762 -1.6828
  312MOL0     C42972   0.593   7.068   7.439 -0.9369  0.0915  0.1128
  312MOL0     C42973   0.190   7.199   7.316 -0.5229 -0.1150 -0.4167
  312MOL0     C42974   0.127   7.311   7.366  0.5304  0.5067 -0.3439
  312MOL0     C42975  -0.014   7.329   7.358  0.0167  0.7588  0.2223
  312MOL0     C42976  -0.098   7.232   7.291  0.0474 -0.1462 -0.2378
  312MOL0     O42977  -0.234   7.251   7.289  0.5595 -0.4711  0.5209
  312MOL0     C42978  -0.307   7.180   7.186 -0.2755 -0.4082  0.0854
  312MOL0     C42979  -0.457   7.207   7.199  0.0867  0.1766  0.4170
  312MOL0     C42980  -0.521   7.125   7.305  0.2971 -0.6299 -0.2498
  312MOL0     C42981  -0.507   7.191   7.450 -0.0503 -0.5749  0.0655
  312MOL0     C42982  -0.539   7.092   7.548  0.0751  0.1380 -0.2466
  312MOL0     C42983  -0.581   7.019   7.639 -0.2123 -0.7282  0.7290
  312MOL0     C42984  -0.032   7.121   7.240 -0.9018 -0.2455 -0.0661
  312MOL0     C42985   0.108   7.104   7.251 -0.1704  0.6884  1.3930
  312MOL0     C42986   0.182   6.997   7.176 -0.0744  0.2051 -0.9310
  312MOL0     H42987   0.366   6.865   7.576 -0.0900  0.4978  1.7709
  312MOL0     H42988   0.553   6.806   7.719  0.2551  0.7490  0.2016
  312MOL0     H42989   0.891   6.839   7.878 -0.5048 -0.1486  0.2138
  312MOL0     H42990   0.722   6.801   7.854  0.7484 -1.2054  0.0259
  312MOL0     H42991   0.660   7.028   7.915  0.4777 -1.8214 -1.6406
  312MOL0     H42992   0.773   6.956   8.028  1.5293 -0.6916 -0.9054
  312MOL0     H42993   0.966   7.063   7.899  1.5510  1.3294  1.8689
  312MOL0     H42994   0.847   7.152   7.805 -0.8916 -0.0482 -0.2872
  312MOL0     H42995   0.771   7.243   8.051 -0.1095  0.5740 -0.8638
  312MOL0     H42996   0.931   7.190   8.092  1.5138  3.1730  0.1035
  312MOL0     H42997   0.881   7.426   8.012  1.6412  0.1047 -0.2042
  312MOL0     H42998   0.861   7.373   7.848 -0.9173  2.8972  0.7612
  312MOL0     H42999   1.121   7.330   8.005 -0.9071  2.6376  0.8600
  312MOL0     H43000   1.097   7.280   7.838 -0.4768  0.0546  0.2226
  312MOL0     H43001   1.039   7.561   7.919 -0.2953 -0.2712 -0.5285
  312MOL0     H43002   1.043   7.504   7.760 -1.1496 -3.0269  0.2611
  312MOL0     H43003   1.251   7.625   7.907 -0.4288  0.4631 -0.1471
  312MOL0     H43004   1.301   7.451   7.910 -0.8632 -0.5817 -0.1713
  312MOL0     H43005   1.184   7.376   7.616 -0.3784  1.0617 -0.4393
  312MOL0     H43006   1.402   7.328   7.407  2.8512  0.7107 -0.0813
  312MOL0     H43007   1.467   7.476   7.355  0.5184 -0.8896  0.5099
  312MOL0     H43008   1.167   7.405   7.317 -1.8287  1.4878 -0.7456
  312MOL0     H43009   1.245   7.564   7.283 -0.6448 -0.6929 -0.9730
  312MOL0     H43010   1.386   7.475   7.118 -2.5554  3.4425  0.4808
  312MOL0     H43011   1.331   7.306   7.137  1.0019 -0.2843 -1.1495
  312MOL0     H43012   1.168   7.539   7.025 -0.4067 -0.0015 -3.3831
  312MOL0     H43013   1.223   7.383   6.948  0.4980 -0.0749  0.8092
  312MOL0     H43014   1.035   7.438   6.823  0.8181 -2.6784 -1.4881
  312MOL0     H43015   0.848   7.480   6.623 -1.4156 -0.2357  1.4016
  312MOL0     H43016   0.800   7.312   6.583  1.2456 -0.6683  0.5100
  312MOL0     H43017   0.967   7.348   6.623  1.3948  0.7504  2.9421
  312MOL0     H43018   0.336   7.409   6.757 -2.4348  1.0661 -3.3018
  312MOL0     H43019   0.128   7.376   6.683 -1.8997  1.3293  2.3977
  312MOL0     H43020  -0.091   7.282   6.800 -1.0156  0.8245 -0.9721
  312MOL0     H43021  -0.081   7.304   6.622 -0.5253 -0.5284 -1.2571
  312MOL0     H43022  -0.274   7.114   6.621 -1.0294  1.3020 -0.6803
  312MOL0     H43023  -0.284   7.153   6.795  0.3234  2.5416  0.7053
  312MOL0     H43024  -0.314   7.350   6.560  0.9906  0.1291  0.0013
  312MOL0     H43025  -0.353   7.377   6.729 -0.3385  1.2479 -1.6231
  312MOL0     H43026  -0.514   7.166   6.691 -0.7443 -1.4720 -2.4783
  312MOL0     H43027  -0.505   7.197   6.523  0.2435  0.8506 -0.4249
  312MOL0     H43028  -0.711   7.293   6.615 -1.8010  0.2712  1.8928
  312MOL0     H43029  -0.624   7.382   6.736  2.0723 -0.2727 -0.4656
  312MOL0     H43030  -0.646   7.423   6.435  1.9417 -1.4969  0.2946
  312MOL0     H43031  -0.488   7.471   6.503 -0.3121 -1.2040 -0.7974
  312MOL0     H43032  -0.588   7.674   6.545 -1.5744  1.2066 -1.1561
  312MOL0     H43033  -0.691   7.593   6.666 -1.1101 -4.9921  0.2472
  312MOL0     H43034  -0.792   7.609   6.386  0.4856 -0.5478 -1.0013
  312MOL0     H43035  -0.840   7.707   6.523 -0.5396 -0.1801 -1.1231
  312MOL0     H43036   0.117   6.974   6.826 -1.5156 -0.2678 -3.7268
  312MOL0     H43037   0.362   7.023   6.942  1.2517 -0.0320 -0.1389
  312MOL0     H43038   0.668   7.212   7.061  0.2490 -1.4983 -0.4167
  312MOL0     H43039   0.876   7.253   7.168  0.0708 -1.2260  0.3569
  312MOL0     H43040   0.799   7.097   7.498  1.1048 -3.0335 -0.1563
  312MOL0     H43041   0.607   7.134   7.354  1.7637  1.2702  1.3407
  312MOL0     H43042   0.193   7.381   7.416 -0.7178  1.7904 -0.4348
  312MOL0     H43043  -0.058   7.412   7.411 -0.8395  1.5496 -1.6556
  312MOL0     H43044  -0.271   7.214   7.089 -0.5632 -4.9170 -1.8203
  312MOL0     H43045  -0.291   7.072   7.198  0.9222 -0.2638 -0.0984
  312MOL0     H43046  -0.504   7.188   7.102 -3.5635  1.8142  1.6956
  312MOL0     H43047  -0.479   7.313   7.216 -1.3162  0.8837 -4.3225
  312MOL0     H43048  -0.620   7.120   7.257  2.0997 -0.0424 -4.5151
  312MOL0     H43049  -0.477   7.025   7.306  2.6663  0.2421  3.9159
  312MOL0     H43050  -0.592   7.259   7.460 -0.5370 -0.7670 -2.1597
  312MOL0     H43051  -0.410   7.234   7.478 -0.8983  2.2295 -0.9111
  312MOL0     H43052  -0.620   6.958   7.719 -2.9513  0.8341  0.7225
  312MOL0     H43053  -0.086   7.045   7.184 -0.2859 -2.2281  1.8557
  312MOL0     H43054   0.124   6.965   7.089  1.7031 -1.8737 -1.4350
  312MOL0     H43055   0.282   7.025   7.142 -0.6535  2.9384 -0.6258
  312MOL0     H43056   0.183   6.921   7.254 -1.2080 -0.2434 -1.3308
  313MOL0     O43057   4.255   4.311   4.091  0.2707 -0.4676  0.1258
  313MOL0     C43058   4.223   4.252   3.984  0.9551  0.1830  0.8067
  313MOL0     O43059   4.308   4.193   3.895  1.1222  0.0309 -0.0554
  313MOL0     C43060   4.436   4.236   3.878  0.0165 -0.1121 -0.4959
  313MOL0     C43061   4.547   4.176   3.934  0.4698 -0.8919  0.3824
  313MOL0     C43062   4.677   4.230   3.920 -0.5342  0.4267 -0.1337
  313MOL0     C43063   4.693   4.336   3.833  0.8331  0.8026 -0.4346
  313MOL0     O43064   4.822   4.381   3.814  0.1294  0.0137 -1.0803
  313MOL0     C43065   4.859   4.520   3.837  0.5859  0.2982  0.7112
  313MOL0     C43066   4.989   4.523   3.920 -0.5397  0.2572 -0.1593
  313MOL0     C43067   5.108   4.513   3.819  0.8171 -0.5397  0.6602
  313MOL0     C43068   5.249   4.540   3.874  0.0909 -0.4694 -0.4610
  313MOL0     C43069   5.360   4.481   3.783  0.4632  0.6498 -0.1541
  313MOL0     C43070   5.499   4.504   3.849  0.5165 -0.4508  0.8028
  313MOL0     C43071   5.609   4.470   3.746  0.2552  0.4098 -0.2122
  313MOL0     C43072   5.750   4.505   3.793 -0.4117 -0.1962  0.2049
  313MOL0     N43073   5.842   4.475   3.683  0.6090 -0.0833 -0.1113
  313MOL0     C43074   5.946   4.392   3.706 -0.5991 -0.2660  1.1345
  313MOL0     C43075   6.000   4.373   3.581 -0.2942  0.2781  0.5917
  313MOL0     C43076   6.116   4.281   3.560  0.0843 -0.2683 -0.8489
  313MOL0     C43077   6.076   4.179   3.464  0.4262  0.1519  0.5031
  313MOL0     C43078   5.959   4.083   3.502 -0.9544  0.2719 -0.7933
  313MOL0     C43079   5.945   3.981   3.386  0.1885  0.6331 -0.2071
  313MOL0     O43080   5.830   3.902   3.393 -0.7071 -0.0478 -0.4774
  313MOL0     C43081   5.727   3.901   3.303  0.1719  0.4191 -0.6814
  313MOL0     C43082   5.701   3.999   3.203 -0.3077 -0.2016 -0.8091
  313MOL0     C43083   5.581   4.002   3.130 -0.5825 -0.9151 -0.1176
  313MOL0     C43084   5.575   4.116   3.034 -0.2680 -0.6837 -0.0844
  313MOL0     C43085   5.484   3.899   3.150  0.1677 -0.0428 -0.1379
  313MOL0     C43086   5.358   3.884   3.074  0.4677  0.4884 -0.9617
  313MOL0     O43087   5.286   3.773   3.111 -0.0235  0.1295  0.6401
  313MOL0     C43088   5.160   3.745   3.059 -0.7172  0.2163  0.2513
  313MOL0     C43089   5.059   3.847   3.032  0.0463  0.6109 -0.1269
  313MOL0     C43090   4.932   3.815   2.992  0.1782  0.4091 -0.6383
  313MOL0     C43091   4.909   3.680   2.951 -0.6884 -0.2089  0.6886
  313MOL0     O43092   4.785   3.629   2.914  0.5592  0.5903 -0.2157
  313MOL0     C43093   4.677   3.725   2.911 -0.8748 -0.6144  1.3287
  313MOL0     C43094   4.545   3.662   2.871  0.9320  0.1621 -0.3716
  313MOL0     C43095   4.431   3.773   2.879 -0.4323  0.0014  0.2719
  313MOL0     C43096   4.312   3.704   2.803 -0.0233 -0.5006  0.7193
  313MOL0     C43097   4.181   3.779   2.819 -0.7401 -0.1591 -0.4094
  313MOL0     C43098   4.192   3.917   2.742 -0.7395  0.2369 -0.0645
  313MOL0     C43099   4.059   4.003   2.751  0.2366  0.4682  0.3663
  313MOL0     C43100   3.923   3.933   2.738 -0.2173 -0.8093 -0.8332
  313MOL0    Cl43101   3.787   4.038   2.744  0.4303  0.1550  0.6474
  313MOL0     C43102   5.009   3.582   2.968  0.5774 -1.6849 -0.1694
  313MOL0     C43103   5.130   3.611   3.036 -0.8377 -0.9202 -0.1722
  313MOL0     O43104   5.324   3.969   2.997  0.2842 -0.4026 -0.5839
  313MOL0     C43105   5.518   3.799   3.244  0.0000  0.7117  0.3555
  313MOL0     C43106   5.632   3.802   3.323 -0.2558  0.0983  0.7508
  313MOL0     N43107   5.931   4.451   3.489  0.6408 -0.1687  0.2385
  313MOL0     N43108   5.834   4.514   3.554 -0.8015  0.2799  0.8229
  313MOL0     C43109   4.584   4.405   3.779  0.2281 -0.2791  0.6635
  313MOL0     C43110   4.459   4.341   3.791 -0.3157 -0.2070  0.7225
  313MOL0     C43111   4.077   4.218   3.966  0.0153 -0.2594  0.1433
  313MOL0     C43112   4.046   4.095   3.898 -0.1975 -0.1569  0.2340
  313MOL0     C43113   3.920   4.030   3.906  0.8635 -0.0025 -0.5945
  313MOL0     C43114   3.813   4.104   3.960 -0.6139 -0.1638  0.7782
  313MOL0     O43115   3.683   4.056   3.955  0.0538 -0.3301  0.7224
  313MOL0     C43116   3.646   3.958   3.854  1.0274  0.0612 -0.3036
  313MOL0     C43117   3.514   3.982   3.797  0.7161  0.4562 -0.7673
  313MOL0     C43118   3.471   3.870   3.696 -0.1326  0.1362 -0.4268
  313MOL0     C43119   3.374   3.772   3.760  0.1107 -0.3972 -0.2929
  313MOL0     C43120   3.325   3.674   3.657  0.4856 -0.2632  0.0051
  313MOL0     C43121   3.283   3.598   3.570  0.8109 -0.0968  0.6394
  313MOL0     C43122   3.835   4.233   4.010  0.5164  1.3333 -0.0461
  313MOL0     C43123   3.963   4.292   4.009  0.2439  0.3465 -0.3632
  313MOL0     C43124   3.971   4.429   4.068  0.2458 -0.6502  0.7816
  313MOL0     H43125   4.536   4.075   3.970 -1.6410 -1.0433 -0.5426
  313MOL0     H43126   4.761   4.177   3.964  0.2392  1.7862  0.0879
  313MOL0     H43127   4.787   4.578   3.895  1.5879  1.0990  1.1917
  313MOL0     H43128   4.880   4.562   3.738  4.3352 -2.3755  0.1334
  313MOL0     H43129   4.990   4.624   3.960  0.6516 -0.5285  1.9348
  313MOL0     H43130   4.989   4.443   3.995 -0.6236 -2.5433 -2.8989
  313MOL0     H43131   5.099   4.411   3.780 -0.6371 -0.6542  1.2398
  313MOL0     H43132   5.084   4.577   3.734  0.3930 -1.6529 -0.0932
  313MOL0     H43133   5.251   4.649   3.871  0.4953 -0.4169  0.9510
  313MOL0     H43134   5.255   4.501   3.976 -0.7618 -0.3780 -0.3615
  313MOL0     H43135   5.343   4.536   3.690 -2.4090  1.5873  0.8059
  313MOL0     H43136   5.337   4.375   3.784  0.6787  0.5360  3.0287
  313MOL0     H43137   5.510   4.609   3.879  0.3523 -0.2850  0.2956
  313MOL0     H43138   5.514   4.444   3.939 -3.6378 -3.3476 -0.1544
  313MOL0     H43139   5.585   4.515   3.649  0.3430 -1.4376 -1.1241
  313MOL0     H43140   5.601   4.361   3.742 -1.9786  0.4367  1.6868
  313MOL0     H43141   5.754   4.613   3.809 -1.7847 -0.3038  1.4975
  313MOL0     H43142   5.777   4.454   3.886 -0.1346 -0.0870  0.1851
  313MOL0     H43143   5.977   4.339   3.795 -0.0656 -1.8084  0.0832
  313MOL0     H43144   6.142   4.243   3.659 -0.8895  0.0585 -0.4448
  313MOL0     H43145   6.203   4.334   3.520 -2.1946  4.1651 -0.5829
  313MOL0     H43146   6.060   4.222   3.364  0.0596 -4.5179 -1.7270
  313MOL0     H43147   6.165   4.120   3.440  0.1738  0.2526 -0.7778
  313MOL0     H43148   5.983   4.028   3.594 -0.0686  1.3763 -0.3437
  313MOL0     H43149   5.863   4.135   3.512 -1.3174 -0.4023 -0.7028
  313MOL0     H43150   5.947   4.019   3.283 -0.3584 -2.9263 -1.6837
  313MOL0     H43151   6.027   3.909   3.389  0.4688  0.9790  0.7430
  313MOL0     H43152   5.780   4.072   3.190 -0.6906  0.1613 -1.1420
  313MOL0     H43153   5.489   4.183   3.046  2.2210  2.5637  1.2721
  313MOL0     H43154   5.580   4.088   2.929 -0.2816  1.0852 -0.5904
  313MOL0     H43155   5.660   4.184   3.051 -0.1191 -0.7116 -0.6881
  313MOL0     H43156   5.075   3.949   3.065 -0.1590  1.4663 -2.4338
  313MOL0     H43157   4.848   3.883   2.982 -1.9769 -2.0609 -0.5794
  313MOL0     H43158   4.662   3.771   3.009  0.4838 -0.4387  1.4746
  313MOL0     H43159   4.696   3.797   2.831 -2.1961 -1.8078 -0.1199
  313MOL0     H43160   4.542   3.608   2.776  1.5663  0.5146 -0.5992
  313MOL0     H43161   4.533   3.586   2.948 -1.5265  3.5184  2.8855
  313MOL0     H43162   4.475   3.856   2.821 -1.3587 -1.8356 -3.3785
  313MOL0     H43163   4.400   3.807   2.978  1.1023  1.5422  0.2664
  313MOL0     H43164   4.298   3.602   2.840 -0.0498 -0.2906  1.2962
  313MOL0     H43165   4.344   3.697   2.699 -1.8903  1.4280 -0.0323
  313MOL0     H43166   4.100   3.720   2.774 -1.2277  0.2650 -0.0988
  313MOL0     H43167   4.167   3.803   2.925 -0.3498 -1.4389 -0.0411
  313MOL0     H43168   4.205   3.888   2.637 -3.2628 -1.9429  0.1116
  313MOL0     H43169   4.281   3.974   2.772 -0.4208 -0.5286  0.4717
  313MOL0     H43170   4.071   4.083   2.678  0.1326 -0.6393 -0.9222
  313MOL0     H43171   4.064   4.056   2.847  0.7750 -1.0886  1.2428
  313MOL0     H43172   3.928   3.867   2.825  1.1468 -1.8318 -1.6541
  313MOL0     H43173   3.920   3.869   2.649 -0.7414 -1.4971 -0.3288
  313MOL0     H43174   4.987   3.476   2.959 -0.2222 -1.5165 -0.3343
  313MOL0     H43175   5.201   3.536   3.069 -0.3490  0.0376  1.0646
  313MOL0     H43176   5.448   3.720   3.264  0.1756 -0.1174 -2.0044
  313MOL0     H43177   5.648   3.723   3.395  0.9260 -1.5508 -1.1963
  313MOL0     H43178   4.594   4.485   3.706  1.4294  0.2101  1.3258
  313MOL0     H43179   4.378   4.388   3.736  0.7902 -0.0951 -0.8581
  313MOL0     H43180   4.131   4.047   3.851  0.1024 -0.0492  0.6522
  313MOL0     H43181   3.909   3.927   3.872 -1.3464  0.8282 -2.6966
  313MOL0     H43182   3.714   3.966   3.769 -0.3877 -0.4927 -1.5366
  313MOL0     H43183   3.654   3.865   3.911  1.3170  0.8416  0.9758
  313MOL0     H43184   3.509   4.081   3.752  1.1126  0.4052 -0.9269
  313MOL0     H43185   3.444   3.991   3.880  0.3882 -0.1032 -0.9754
  313MOL0     H43186   3.405   3.921   3.625 -0.2803 -1.5521 -1.5558
  313MOL0     H43187   3.549   3.816   3.642  2.1699  1.6382  1.2408
  313MOL0     H43188   3.284   3.827   3.789 -0.1329 -0.2917 -1.2246
  313MOL0     H43189   3.428   3.726   3.843  0.7970  1.6659  0.4488
  313MOL0     H43190   3.222   3.544   3.500 -0.0205  0.8715  0.5923
  313MOL0     H43191   3.749   4.272   4.063  0.1662 -0.4787  0.8040
  313MOL0     H43192   4.009   4.427   4.171 -1.0269 -1.7909  1.2679
  313MOL0     H43193   4.034   4.498   4.012  1.1460 -3.7075 -2.3113
  313MOL0     H43194   3.868   4.466   4.078 -0.1505 -1.5615  0.2403
  314MOL0     O43195   3.062  11.318   7.354  0.6836  0.4752 -0.9538
  314MOL0     C43196   3.048  11.436   7.398 -1.4280 -0.0025 -0.5409
  314MOL0     O43197   3.149  11.517   7.443 -0.9227 -0.3056  0.0635
  314MOL0     C43198   3.276  11.464   7.453  1.0585 -0.2401 -0.1735
  314MOL0     C43199   3.302  11.336   7.506  0.2345  0.0863 -0.4295
  314MOL0     C43200   3.434  11.296   7.517  0.2527 -0.1925  0.0285
  314MOL0     C43201   3.543  11.374   7.472  0.0550  0.3325  0.2797
  314MOL0     O43202   3.669  11.330   7.487 -0.6213  0.3523  0.9797
  314MOL0     C43203   3.746  11.404   7.582 -0.5753 -0.8929 -1.5299
  314MOL0     C43204   3.884  11.340   7.608 -0.6144 -0.2288  0.8084
  314MOL0     C43205   3.961  11.328   7.478 -0.3609  1.1230 -0.6160
  314MOL0     C43206   3.986  11.467   7.405  0.4177  0.3732  0.4162
  314MOL0     C43207   4.111  11.450   7.324  0.3623 -0.3797 -0.6962
  314MOL0     C43208   4.136  11.591   7.253 -0.3740 -0.7528  0.0702
  314MOL0     C43209   4.251  11.585   7.168  0.0397  0.6448 -0.3076
  314MOL0     C43210   4.385  11.582   7.243 -0.1504 -0.2734 -0.2553
  314MOL0     N43211   4.500  11.566   7.155  0.1313  0.4734 -0.0944
  314MOL0     C43212   4.552  11.674   7.085 -0.1462 -0.8759 -0.3458
  314MOL0     C43213   4.636  11.614   6.995 -0.8069 -0.2642 -0.2457
  314MOL0     C43214   4.714  11.692   6.878 -0.4064  0.7000 -0.0605
  314MOL0     C43215   4.827  11.775   6.928 -0.2504 -0.1188  0.1318
  314MOL0     C43216   4.919  11.807   6.820  0.0580 -1.3597  0.4906
  314MOL0     C43217   5.007  11.690   6.783 -0.7436  0.4756  0.8811
  314MOL0     O43218   5.126  11.746   6.725  0.4528 -0.3707 -0.4186
  314MOL0     C43219   5.203  11.668   6.640  0.0992  0.4182  0.2218
  314MOL0     C43220   5.290  11.731   6.553 -0.6725  0.7273 -0.6938
  314MOL0     C43221   5.383  11.662   6.469 -0.3925 -0.0551  0.3580
  314MOL0     C43222   5.491  11.737   6.396 -0.2052  0.1498  0.3742
  314MOL0     C43223   5.381  11.517   6.462 -0.3452 -0.0243 -0.3320
  314MOL0     C43224   5.468  11.425   6.389 -0.1509  0.2562  0.7412
  314MOL0     O43225   5.465  11.300   6.432  0.1431  0.0767  0.1061
  314MOL0     C43226   5.549  11.201   6.390 -0.0023 -0.4203 -0.7937
  314MOL0     C43227   5.685  11.226   6.378  0.0637 -0.2172 -0.6496
  314MOL0     C43228   5.772  11.116   6.348 -0.4032 -0.1655 -0.4189
  314MOL0     C43229   5.714  10.993   6.314  1.0342 -0.5410 -0.3180
  314MOL0     O43230   5.781  10.879   6.303  0.0960  0.1845 -0.0183
  314MOL0     C43231   5.921  10.867   6.303 -0.5665 -0.0160 -0.4503
  314MOL0     C43232   5.960  10.731   6.358  0.2338 -0.5745  0.0696
  314MOL0     C43233   6.099  10.700   6.301  0.8662 -0.3872 -0.2778
  314MOL0     C43234   6.166  10.573   6.375  0.0727 -0.1343  0.3865
  314MOL0     C43235   6.293  10.514   6.308  0.2129  0.0566  0.4317
  314MOL0     C43236   6.262  10.462   6.165 -0.2229 -0.0423  0.5333
  314MOL0     C43237   6.384  10.403   6.103 -0.6907 -0.2486  0.4189
  314MOL0     C43238   6.357  10.374   5.957 -0.4230 -0.7094  0.2246
  314MOL0    Cl43239   6.492  10.283   5.884  0.2899  0.0009 -0.4879
  314MOL0     C43240   5.573  10.983   6.322  0.0293  0.9511 -0.1536
  314MOL0     C43241   5.488  11.081   6.365 -0.5402 -0.6204 -1.2934
  314MOL0     O43242   5.538  11.457   6.293 -0.2455 -0.4822  0.4177
  314MOL0     C43243   5.278  11.460   6.540 -1.6155  0.2039 -0.0638
  314MOL0     C43244   5.190  11.530   6.626  0.2958 -0.4572 -0.3988
  314MOL0     N43245   4.637  11.474   7.013  0.0909 -0.0695  0.0587
  314MOL0     N43246   4.556  11.445   7.112  0.9195 -0.2187  0.3167
  314MOL0     C43247   3.515  11.490   7.397  0.9887 -0.6425  0.3691
  314MOL0     C43248   3.376  11.539   7.389 -0.9639 -0.0271 -0.7181
  314MOL0     C43249   2.911  11.491   7.394  0.1071  0.4083  0.6667
  314MOL0     C43250   2.805  11.391   7.401  0.5205 -0.0403 -0.0273
  314MOL0     C43251   2.670  11.437   7.408 -0.1877  0.9513 -1.2545
  314MOL0     C43252   2.633  11.565   7.402 -0.6614 -0.8684  0.4158
  314MOL0     O43253   2.499  11.596   7.408 -0.0636  0.3319 -0.1412
  314MOL0     C43254   2.444  11.711   7.339 -0.0232 -0.6470  0.4653
  314MOL0     C43255   2.451  11.699   7.187  0.3868 -0.4013  0.2026
  314MOL0     C43256   2.399  11.566   7.126 -0.1815 -0.2246  0.4798
  314MOL0     C43257   2.249  11.562   7.113 -0.6854  0.4568  0.0744
  314MOL0     C43258   2.219  11.637   7.000  0.1186  0.3205 -0.2133
  314MOL0     C43259   2.195  11.704   6.901 -0.3363  0.9140 -0.5176
  314MOL0     C43260   2.738  11.660   7.388 -1.0002  0.7881  0.3643
  314MOL0     C43261   2.874  11.629   7.379 -0.5255  1.0069 -0.1877
  314MOL0     C43262   2.986  11.731   7.351 -0.3638  0.9715 -0.3050
  314MOL0     H43263   3.218  11.275   7.539 -0.5580 -0.3126 -2.9459
  314MOL0     H43264   3.462  11.202   7.565 -0.8966 -1.3095 -1.4001
  314MOL0     H43265   3.692  11.399   7.677  2.3763 -2.1362  0.2447
  314MOL0     H43266   3.763  11.504   7.541 -1.3164  1.7031  3.6514
  314MOL0     H43267   3.938  11.401   7.681 -1.3696  0.1337  1.0701
  314MOL0     H43268   3.861  11.240   7.645 -4.4272 -0.7001 -2.1732
  314MOL0     H43269   4.055  11.274   7.491  1.5602  3.6856 -2.7163
  314MOL0     H43270   3.904  11.257   7.417 -0.2343 -1.2844  1.8627
  314MOL0     H43271   3.894  11.479   7.348 -1.2248  1.7724  3.1517
  314MOL0     H43272   3.988  11.546   7.481 -2.4241 -0.5710  1.5901
  314MOL0     H43273   4.105  11.364   7.257 -0.7141 -2.2924  1.7138
  314MOL0     H43274   4.196  11.438   7.392  1.3541 -2.3194 -2.1461
  314MOL0     H43275   4.054  11.626   7.190  0.5669  1.3851 -0.0507
  314MOL0     H43276   4.147  11.665   7.333 -0.0538  2.6114 -2.8487
  314MOL0     H43277   4.243  11.678   7.112 -2.8021  0.1864 -0.8226
  314MOL0     H43278   4.238  11.509   7.091 -0.2211 -1.5181  1.7372
  314MOL0     H43279   4.388  11.672   7.306 -0.1676 -0.0939 -0.5091
  314MOL0     H43280   4.382  11.490   7.301  1.2503 -1.3478 -1.7964
  314MOL0     H43281   4.515  11.776   7.097 -2.0455 -1.6811  1.1517
  314MOL0     H43282   4.643  11.758   6.827 -2.1401  0.4742  1.8908
  314MOL0     H43283   4.758  11.612   6.818  1.8824  1.6175  0.3119
  314MOL0     H43284   4.786  11.865   6.975 -1.9913 -1.3261  1.0679
  314MOL0     H43285   4.873  11.731   7.017 -1.7779  0.3278  1.2025
  314MOL0     H43286   4.870  11.843   6.729  0.8422  2.6095  1.4231
  314MOL0     H43287   4.978  11.890   6.860  3.9806 -1.7494 -3.6665
  314MOL0     H43288   5.029  11.638   6.876  1.5329  3.2424  2.0475
  314MOL0     H43289   4.952  11.625   6.714 -0.3956  1.2198 -0.1240
  314MOL0     H43290   5.282  11.839   6.560  1.2893  0.8896 -0.1394
  314MOL0     H43291   5.508  11.704   6.293 -2.8533 -2.9106  0.7526
  314MOL0     H43292   5.587  11.728   6.448 -0.1870 -1.1675  0.1484
  314MOL0     H43293   5.469  11.842   6.380 -0.6770 -0.1219 -0.8400
  314MOL0     H43294   5.720  11.327   6.397 -2.5958  1.2075 -2.6128
  314MOL0     H43295   5.876  11.127   6.379  0.2818 -3.5408 -1.0172
  314MOL0     H43296   5.949  10.881   6.199 -0.6521  1.2589 -0.3143
  314MOL0     H43297   5.972  10.939   6.368  0.2734 -0.2844 -0.7988
  314MOL0     H43298   5.971  10.736   6.467  0.9055 -1.8791  0.0815
  314MOL0     H43299   5.883  10.657   6.337 -0.0650 -0.2852  0.1474
  314MOL0     H43300   6.160  10.791   6.308  3.9724 -2.3314 -0.2055
  314MOL0     H43301   6.088  10.671   6.196 -3.6429  0.4691 -0.2251
  314MOL0     H43302   6.085  10.500   6.383  1.9862 -2.4480  0.2003
  314MOL0     H43303   6.192  10.597   6.479  0.0013 -1.6252  0.7834
  314MOL0     H43304   6.366  10.594   6.295 -0.9863  1.2859  1.0479
  314MOL0     H43305   6.349  10.439   6.364 -0.0415  1.1522  2.2241
  314MOL0     H43306   6.239  10.544   6.096 -0.3724 -0.9126 -0.4542
  314MOL0     H43307   6.181  10.389   6.155 -0.4153  0.4516 -2.0491
  314MOL0     H43308   6.412  10.314   6.159 -2.6913  0.8959  3.4920
  314MOL0     H43309   6.473  10.464   6.118 -1.2471  0.3096  1.5345
  314MOL0     H43310   6.344  10.465   5.899  0.5668 -2.2917 -2.6443
  314MOL0     H43311   6.259  10.327   5.943 -2.9353  3.2334  2.6179
  314MOL0     H43312   5.538  10.882   6.305 -0.0235  1.1942 -1.6216
  314MOL0     H43313   5.383  11.063   6.383  0.1741 -1.3759  3.4022
  314MOL0     H43314   5.268  11.352   6.537 -1.2478  0.1184  1.2064
  314MOL0     H43315   5.122  11.470   6.685  0.5085  0.1578  0.4867
  314MOL0     H43316   3.591  11.549   7.347  0.5520 -1.9636 -2.0097
  314MOL0     H43317   3.345  11.628   7.336 -0.8048 -0.1646 -1.0437
  314MOL0     H43318   2.808  11.284   7.419 -0.8229 -0.1094 -0.0816
  314MOL0     H43319   2.595  11.360   7.416  1.1629 -0.4638 -1.7574
  314MOL0     H43320   2.337  11.726   7.360 -0.4765 -2.4348 -0.3671
  314MOL0     H43321   2.499  11.800   7.369 -0.2872 -0.0131 -0.8554
  314MOL0     H43322   2.559  11.704   7.170  0.2339 -3.2161 -2.6384
  314MOL0     H43323   2.401  11.786   7.144  4.2046  1.0178 -1.8497
  314MOL0     H43324   2.451  11.550   7.032  2.4494 -1.5208  2.0403
  314MOL0     H43325   2.438  11.479   7.181 -1.5241  0.0971  2.0279
  314MOL0     H43326   2.199  11.595   7.205 -1.1016  0.1002 -0.0210
  314MOL0     H43327   2.226  11.456   7.098 -1.6864  0.5314  0.9113
  314MOL0     H43328   2.169  11.758   6.812  0.3705  2.0246 -0.0643
  314MOL0     H43329   2.710  11.764   7.376 -2.3587  0.2014 -2.6373
  314MOL0     H43330   3.022  11.713   7.250 -1.3081  1.9086 -0.8315
  314MOL0     H43331   2.954  11.836   7.351 -1.4457  0.6607 -1.0324
  314MOL0     H43332   3.071  11.732   7.419  0.8745 -0.2092 -1.7973
  315MOL0     O43333   4.658   4.911   3.388  0.2710  0.3253  0.4835
  315MOL0     C43334   4.692   4.944   3.276 -0.2451 -0.1619  0.4136
  315MOL0     O43335   4.818   4.985   3.248  0.7714  0.4470  0.1918
  315MOL0     C43336   4.912   5.023   3.339 -0.0020 -0.6472  0.3401
  315MOL0     C43337   5.017   5.091   3.276  0.2396  0.3800 -0.1370
  315MOL0     C43338   5.123   5.152   3.353 -0.3499 -0.0022  0.8819
  315MOL0     C43339   5.122   5.136   3.490 -0.4009 -0.4807 -0.5710
  315MOL0     O43340   5.231   5.200   3.550 -0.5197  0.4306  0.1073
  315MOL0     C43341   5.298   5.116   3.648  0.6525 -0.3200  0.0822
  315MOL0     C43342   5.447   5.149   3.628  0.3562  0.0713  0.0585
  315MOL0     C43343   5.503   5.274   3.695  0.0500  1.2974 -0.4797
  315MOL0     C43344   5.651   5.282   3.672  0.0328 -0.7176  0.0483
  315MOL0     C43345   5.715   5.413   3.713  0.0126  1.7648 -0.2657
  315MOL0     C43346   5.868   5.385   3.699 -0.0302 -0.3270  0.2572
  315MOL0     C43347   5.950   5.511   3.715  0.1828  0.0567 -0.3162
  315MOL0     C43348   6.093   5.465   3.689  0.1224  0.5414 -0.7691
  315MOL0     N43349   6.181   5.579   3.682 -0.3519 -0.5422 -0.2596
  315MOL0     C43350   6.252   5.632   3.783  0.6089  0.8675 -0.4146
  315MOL0     C43351   6.319   5.733   3.735 -0.3922 -0.0382  0.1216
  315MOL0     C43352   6.407   5.833   3.820  0.6141 -0.5182  0.4217
  315MOL0     C43353   6.554   5.821   3.773  0.9498 -0.3183 -0.1745
  315MOL0     C43354   6.650   5.912   3.851  0.1351  0.5819  0.9069
  315MOL0     C43355   6.685   5.855   3.988  0.0402 -0.7095 -0.6279
  315MOL0     O43356   6.797   5.924   4.049  0.4812  0.2535 -0.0966
  315MOL0     C43357   6.848   5.877   4.169 -0.1390  0.3584  0.0714
  315MOL0     C43358   6.808   5.752   4.228 -0.1504  0.7418 -0.5497
  315MOL0     C43359   6.871   5.710   4.349  0.2922  0.1121  0.0770
  315MOL0     C43360   6.839   5.572   4.404 -0.5288  0.5554 -0.0529
  315MOL0     C43361   6.965   5.801   4.414 -0.4617  0.2495  0.8298
  315MOL0     C43362   7.033   5.776   4.540  0.4775 -0.4999 -0.0003
  315MOL0     O43363   7.160   5.830   4.538 -0.3519  0.3583 -0.4007
  315MOL0     C43364   7.222   5.867   4.653  0.3052  0.8281  0.9541
  315MOL0     C43365   7.245   5.761   4.750  0.9766 -0.7990  0.1379
  315MOL0     C43366   7.315   5.792   4.859 -0.0647 -0.2948 -0.2858
  315MOL0     C43367   7.351   5.924   4.886  0.2180 -0.2085 -0.2404
  315MOL0     O43368   7.414   5.946   5.005 -0.3165 -0.2531 -0.4979
  315MOL0     C43369   7.539   6.028   4.997 -0.5925  0.1125  0.2837
  315MOL0     C43370   7.664   5.946   5.042  0.3730 -0.0842  0.1888
  315MOL0     C43371   7.698   5.828   4.950 -0.0791  0.4563 -0.0053
  315MOL0     C43372   7.787   5.723   5.022  1.1284  0.5549 -0.8186
  315MOL0     C43373   7.796   5.605   4.946 -0.1966 -0.5597 -0.1032
  315MOL0     C43374   7.894   5.513   5.010 -0.3954  0.1232  0.2748
  315MOL0     C43375   8.039   5.535   4.974 -1.0479 -0.1488  0.1822
  315MOL0     C43376   8.135   5.439   5.054 -0.1359  0.1581  0.1288
  315MOL0    Cl43377   8.288   5.468   4.978 -0.3652 -0.4557 -0.3112
  315MOL0     C43378   7.333   6.027   4.792  0.2909 -0.2286  0.1314
  315MOL0     C43379   7.258   5.998   4.675 -0.8619 -0.8051 -0.0619
  315MOL0     O43380   6.976   5.711   4.631 -0.0460 -0.9173 -0.1305
  315MOL0     C43381   7.012   5.924   4.350  0.8915  0.9724  0.6677
  315MOL0     C43382   6.952   5.952   4.227 -0.7460  0.0031  0.6560
  315MOL0     N43383   6.293   5.746   3.599 -0.2035 -0.0461  0.7167
  315MOL0     N43384   6.214   5.643   3.571  0.4624 -0.1174  0.3672
  315MOL0     C43385   5.025   5.061   3.554  0.3698  0.2865 -0.0476
  315MOL0     C43386   4.914   5.010   3.480  0.1032  0.5616  0.4931
  315MOL0     C43387   4.601   4.924   3.166  0.8650 -0.2678  0.2953
  315MOL0     C43388   4.650   4.922   3.032  0.5978  0.2669 -0.3029
  315MOL0     C43389   4.560   4.909   2.927 -0.6074  1.2087  0.0206
  315MOL0     C43390   4.424   4.887   2.935 -0.1968 -0.9185  0.1881
  315MOL0     O43391   4.350   4.887   2.819 -0.2022 -0.3831  0.8198
  315MOL0     C43392   4.208   4.904   2.823  1.0133  0.8951  0.2068
  315MOL0     C43393   4.158   4.960   2.695 -0.2102  0.6861 -1.0987
  315MOL0     C43394   4.000   4.951   2.670 -0.0652  0.4049  1.0425
  315MOL0     C43395   3.925   5.055   2.754 -0.0165 -0.1301  0.2851
  315MOL0     C43396   3.910   5.001   2.892 -0.2770 -0.1720  0.6646
  315MOL0     C43397   3.886   4.939   2.993 -0.7196  0.0887 -0.0548
  315MOL0     C43398   4.377   4.880   3.063  0.2794  0.2804 -0.2235
  315MOL0     C43399   4.455   4.899   3.177  0.3347 -0.8916  1.2844
  315MOL0     C43400   4.372   4.929   3.304  0.0269  0.7564 -0.2304
  315MOL0     H43401   5.026   5.088   3.168  1.3085  0.9583 -0.0757
  315MOL0     H43402   5.194   5.221   3.308 -1.5957  1.3592  0.9171
  315MOL0     H43403   5.281   5.009   3.630 -1.6203 -0.1006  0.6017
  315MOL0     H43404   5.258   5.144   3.746  0.6575  0.6675 -0.1874
  315MOL0     H43405   5.492   5.065   3.680  0.8961  1.8668  2.6717
  315MOL0     H43406   5.466   5.154   3.520  1.6865 -1.0119  0.2183
  315MOL0     H43407   5.460   5.361   3.646 -0.4441 -0.7012 -3.8854
  315MOL0     H43408   5.479   5.269   3.802 -1.9331  0.3399 -0.9217
  315MOL0     H43409   5.704   5.200   3.721  0.9257 -0.3353 -0.2534
  315MOL0     H43410   5.673   5.278   3.565  2.4891  0.1276  0.4595
  315MOL0     H43411   5.686   5.446   3.814 -0.9512 -2.4670  1.0256
  315MOL0     H43412   5.688   5.498   3.650 -2.4956  0.6907 -0.7206
  315MOL0     H43413   5.901   5.311   3.773  2.5585  0.3199 -0.1610
  315MOL0     H43414   5.881   5.344   3.598  0.3740 -1.3261  0.6937
  315MOL0     H43415   5.937   5.554   3.815 -1.8654  2.7245 -1.5908
  315MOL0     H43416   5.920   5.587   3.642 -2.8580 -0.3438  0.3794
  315MOL0     H43417   6.124   5.394   3.766 -0.1708  0.5055 -0.6848
  315MOL0     H43418   6.099   5.397   3.603  6.4223 -2.4323  1.3736
  315MOL0     H43419   6.268   5.586   3.880 -1.6386  0.8839  0.0113
  315MOL0     H43420   6.391   5.815   3.927 -2.0040  1.3732  0.4479
  315MOL0     H43421   6.372   5.933   3.793  2.7915 -0.1042 -1.1685
  315MOL0     H43422   6.584   5.716   3.786 -0.1943 -1.0740 -2.8621
  315MOL0     H43423   6.546   5.853   3.668 -0.6128 -1.6775 -0.5243
  315MOL0     H43424   6.741   5.913   3.789 -0.9304 -3.9653 -1.0890
  315MOL0     H43425   6.600   6.006   3.876 -1.8835 -0.2878  0.3137
  315MOL0     H43426   6.599   5.861   4.054 -0.2711 -0.8986 -1.0111
  315MOL0     H43427   6.717   5.751   3.980  1.7769 -0.5123  2.3351
  315MOL0     H43428   6.728   5.687   4.193 -0.1963 -1.6094  3.3469
  315MOL0     H43429   6.930   5.527   4.446 -0.0860  0.4061 -1.1393
  315MOL0     H43430   6.803   5.502   4.329  2.2299 -2.4852  1.2085
  315MOL0     H43431   6.765   5.573   4.485 -0.6015  2.0765 -0.1126
  315MOL0     H43432   7.203   5.663   4.732  0.6266 -0.3618 -1.6763
  315MOL0     H43433   7.327   5.717   4.937 -1.7586 -3.0298 -2.4670
  315MOL0     H43434   7.572   6.057   4.897  0.0101 -0.3098  0.3542
  315MOL0     H43435   7.527   6.119   5.056 -1.8199 -0.3055  0.7135
  315MOL0     H43436   7.747   6.017   5.054  0.2024  0.5247 -1.7975
  315MOL0     H43437   7.630   5.898   5.134 -0.1276  0.7237  0.4323
  315MOL0     H43438   7.744   5.853   4.854  0.1137  0.0831 -0.0126
  315MOL0     H43439   7.598   5.785   4.940 -0.8292  1.9372  0.7733
  315MOL0     H43440   7.737   5.692   5.114 -2.2407 -3.4885 -3.6460
  315MOL0     H43441   7.888   5.764   5.033  1.5147 -0.5543 -0.0847
  315MOL0     H43442   7.696   5.562   4.933  0.6050 -1.9440 -2.4252
  315MOL0     H43443   7.825   5.626   4.842 -2.5233  1.0108 -0.4982
  315MOL0     H43444   7.877   5.416   4.963 -0.1909  0.8567 -1.3710
  315MOL0     H43445   7.863   5.494   5.114  0.3539 -1.5395  0.2300
  315MOL0     H43446   8.063   5.637   5.004  3.5287 -0.9134 -0.1898
  315MOL0     H43447   8.052   5.516   4.867  1.1379 -0.5518  0.4870
  315MOL0     H43448   8.099   5.336   5.049  0.1337  0.0706 -0.0678
  315MOL0     H43449   8.139   5.465   5.160 -1.0537  2.8156 -0.4023
  315MOL0     H43450   7.360   6.129   4.819 -1.3418  0.6084 -1.1666
  315MOL0     H43451   7.244   6.082   4.607  1.2375 -0.5952 -0.3195
  315MOL0     H43452   7.088   5.997   4.374  0.8959  1.1984  0.0019
  315MOL0     H43453   6.992   6.038   4.174  4.1145 -1.5940  1.2319
  315MOL0     H43454   5.041   5.051   3.661  2.5755  0.7609 -0.2833
  315MOL0     H43455   4.836   4.959   3.535  0.2150  2.5123  2.6077
  315MOL0     H43456   4.755   4.938   3.009  1.5151 -2.1632  1.7025
  315MOL0     H43457   4.595   4.923   2.826 -0.5577  2.1137  0.1520
  315MOL0     H43458   4.150   4.820   2.862 -0.6738  2.1090  0.3977
  315MOL0     H43459   4.190   4.974   2.905 -0.6305  0.1938  0.4865
  315MOL0     H43460   4.211   4.910   2.613  0.1505 -2.6718  0.9525
  315MOL0     H43461   4.178   5.066   2.707  0.0599  0.3761  2.0377
  315MOL0     H43462   3.991   4.977   2.564 -3.9720 -4.9119 -0.3774
  315MOL0     H43463   3.956   4.851   2.672 -1.0736  0.7108 -1.8082
  315MOL0     H43464   3.834   5.083   2.700  2.4256  1.0971 -3.5625
  315MOL0     H43465   3.978   5.151   2.752  1.5654 -0.9880 -1.3966
  315MOL0     H43466   3.863   4.875   3.076 -1.5438 -0.3439 -0.6007
  315MOL0     H43467   4.269   4.871   3.075  0.7453 -1.3510  4.5669
  315MOL0     H43468   4.359   4.835   3.359 -0.2755  0.4529 -0.8101
  315MOL0     H43469   4.436   4.985   3.372 -0.5059  2.2363 -0.9174
  315MOL0     H43470   4.281   4.988   3.290 -0.8136 -0.5704 -0.5998
  316MOL0     O43471   2.906  10.659   2.548  0.4547  0.0795  0.1525
  316MOL0     C43472   2.883  10.715   2.661  0.5595 -0.6056 -0.0260
  316MOL0     O43473   2.973  10.782   2.735  0.2137 -0.0135  0.4976
  316MOL0     C43474   3.089  10.814   2.662 -0.8793 -0.3330 -0.4775
  316MOL0     C43475   3.095  10.916   2.557  0.2393  0.0761 -0.4475
  316MOL0     C43476   3.213  10.931   2.479  0.3476  0.5386 -0.2778
  316MOL0     C43477   3.328  10.846   2.510 -0.0614 -0.9660  0.2854
  316MOL0     O43478   3.449  10.854   2.444  0.3260 -0.4727  0.3443
  316MOL0     C43479   3.433  10.861   2.298 -0.5743 -0.8006 -0.6573
  316MOL0     C43480   3.570  10.824   2.241 -0.3601  1.0207 -0.7970
  316MOL0     C43481   3.562  10.700   2.143  0.2138 -0.3824  0.3824
  316MOL0     C43482   3.521  10.573   2.206  0.3775  0.4695  0.1343
  316MOL0     C43483   3.506  10.468   2.098 -0.6575  0.2166 -0.4718
  316MOL0     C43484   3.480  10.323   2.159  0.3995  0.2506 -0.4695
  316MOL0     C43485   3.494  10.221   2.047 -1.2173  0.1382 -0.5105
  316MOL0     C43486   3.371  10.221   1.944 -0.3458  0.7970 -0.6895
  316MOL0     N43487   3.414  10.224   1.807 -0.5365 -0.3321  0.2765
  316MOL0     C43488   3.369  10.156   1.695 -0.4890 -0.6281 -0.8234
  316MOL0     C43489   3.433  10.225   1.595  0.9021 -0.2397  0.7000
  316MOL0     C43490   3.430  10.191   1.449  0.2952 -0.0460  0.3699
  316MOL0     C43491   3.439  10.038   1.431 -0.2097 -0.9568 -0.1337
  316MOL0     C43492   3.432   9.988   1.284 -0.9320 -0.0538 -0.5979
  316MOL0     C43493   3.565   9.955   1.230 -0.0073 -0.7986  0.1412
  316MOL0     O43494   3.621   9.844   1.291  0.2694  0.2439 -0.1017
  316MOL0     C43495   3.750   9.803   1.257 -0.7340  0.1665  0.2058
  316MOL0     C43496   3.831   9.717   1.336  0.3131 -0.0826  0.2932
  316MOL0     C43497   3.961   9.685   1.313  0.5471 -0.4033 -0.8004
  316MOL0     C43498   4.023   9.598   1.419  0.0466 -0.3593 -0.4003
  316MOL0     C43499   4.019   9.734   1.189 -0.0130  0.4242  0.5936
  316MOL0     C43500   4.170   9.717   1.158  0.0359  0.8624 -0.3209
  316MOL0     O43501   4.220   9.756   1.038 -0.3845  0.5892  0.4994
  316MOL0     C43502   4.362   9.738   1.012  0.2037  0.3627  1.0977
  316MOL0     C43503   4.426   9.842   0.937 -0.0286  0.0750  0.7470
  316MOL0     C43504   4.553   9.820   0.881 -0.9426  0.7580  0.0765
  316MOL0     C43505   4.621   9.700   0.901 -0.0219 -0.3106  0.6821
  316MOL0     O43506   4.739   9.679   0.838 -0.5098 -0.4690 -0.2338
  316MOL0     C43507   4.852   9.710   0.913  0.0479  0.3439 -0.0396
  316MOL0     C43508   4.869   9.866   0.923 -0.5153  0.6245  0.2642
  316MOL0     C43509   5.007   9.893   0.966 -0.6764 -0.6041  0.4495
  316MOL0     C43510   5.010  10.022   1.048 -0.0750 -0.5135  0.7765
  316MOL0     C43511   5.154  10.034   1.095  0.4690  0.5879 -0.2360
  316MOL0     C43512   5.174  10.120   1.219 -0.1754 -0.0340  0.4079
  316MOL0     C43513   5.094  10.254   1.198  0.6322  0.1674  0.7280
  316MOL0     C43514   5.152  10.365   1.284 -1.0684 -0.0117  0.2031
  316MOL0    Cl43515   5.042  10.518   1.272  0.1668 -0.1761  0.0675
  316MOL0     C43516   4.562   9.599   0.981  0.1650  0.2967  0.4670
  316MOL0     C43517   4.431   9.621   1.033 -0.2172 -0.2347 -0.5748
  316MOL0     O43518   4.240   9.677   1.253 -0.0582  0.1371  0.5276
  316MOL0     C43519   3.942   9.816   1.101  0.1808 -0.1856  0.5118
  316MOL0     C43520   3.817   9.860   1.141  0.2986 -0.4051 -0.1359
  316MOL0     N43521   3.513  10.319   1.643 -0.1974 -0.0499  0.1287
  316MOL0     N43522   3.507  10.317   1.771  0.7361 -0.8491 -1.3135
  316MOL0     C43523   3.318  10.753   2.615  0.1107  0.5432  0.1953
  316MOL0     C43524   3.196  10.737   2.687 -1.0983  0.3201 -0.1278
  316MOL0     C43525   2.767  10.664   2.735  0.5867  0.0261  0.4054
  316MOL0     C43526   2.761  10.524   2.759  0.0610  0.0935  0.3681
  316MOL0     C43527   2.660  10.461   2.830 -0.1301  0.2027 -0.2622
  316MOL0     C43528   2.558  10.541   2.887 -0.4340  0.2968  0.0901
  316MOL0     O43529   2.455  10.476   2.942  0.2095 -0.8767  0.0872
  316MOL0     C43530   2.332  10.542   2.983  0.7735 -0.1339 -0.1681
  316MOL0     C43531   2.207  10.449   3.032  0.4896  0.1476  0.8576
  316MOL0     C43532   2.242  10.363   3.151 -0.0178  0.8230 -0.0471
  316MOL0     C43533   2.106  10.314   3.213 -0.2538 -0.2826 -0.2304
  316MOL0     C43534   2.046  10.427   3.284 -0.3538 -0.2756 -0.5091
  316MOL0     C43535   1.979  10.521   3.322  0.8855  0.4635 -1.3514
  316MOL0     C43536   2.567  10.684   2.868 -0.1210  0.6186  0.2754
  316MOL0     C43537   2.669  10.748   2.796 -0.2588 -0.0742 -0.4090
  316MOL0     C43538   2.672  10.894   2.775  0.8434 -0.8608  0.6832
  316MOL0     H43539   3.016  10.989   2.538  1.0501  1.9553  2.6317
  316MOL0     H43540   3.206  11.015   2.410 -4.2922  1.8243  1.3736
  316MOL0     H43541   3.411  10.961   2.259  1.1092  0.2794  0.9826
  316MOL0     H43542   3.351  10.794   2.267 -0.7668 -0.0090 -1.9498
  316MOL0     H43543   3.615  10.909   2.189  0.6249  1.7298  1.1138
  316MOL0     H43544   3.649  10.788   2.307  0.2576  0.9060 -1.5754
  316MOL0     H43545   3.491  10.733   2.066  0.9597  1.1657  0.3147
  316MOL0     H43546   3.662  10.676   2.106  1.0605 -1.4414  3.1019
  316MOL0     H43547   3.598  10.533   2.272  0.3678 -1.1156 -0.7797
  316MOL0     H43548   3.425  10.584   2.258 -0.8905 -1.1978 -1.7377
  316MOL0     H43549   3.597  10.471   2.037 -1.3376  0.6692 -1.4879
  316MOL0     H43550   3.421  10.485   2.031 -2.6415 -3.1924  0.9190
  316MOL0     H43551   3.547  10.298   2.241 -2.3542  0.5928  2.0366
  316MOL0     H43552   3.377  10.328   2.197 -0.1310  0.4993 -1.8426
  316MOL0     H43553   3.495  10.123   2.096 -0.8201  0.2535 -0.2829
  316MOL0     H43554   3.590  10.230   1.994  0.7657 -1.9140  2.4490
  316MOL0     H43555   3.333  10.118   1.942  0.8377  0.3494 -1.7867
  316MOL0     H43556   3.291  10.291   1.967  1.3978  1.9905  2.3376
  316MOL0     H43557   3.305  10.069   1.700  1.3313 -1.9427  1.0074
  316MOL0     H43558   3.523  10.222   1.401 -0.1538  0.9677  0.1295
  316MOL0     H43559   3.339  10.229   1.400  0.0475 -0.8006  0.2300
  316MOL0     H43560   3.512   9.986   1.494 -2.0404 -2.0448  1.1855
  316MOL0     H43561   3.354   9.992   1.482 -0.5941 -0.6791 -0.5153
  316MOL0     H43562   3.355   9.910   1.277  0.0085 -1.0642 -0.0914
  316MOL0     H43563   3.382  10.065   1.224 -1.6226 -1.0171 -1.2960
  316MOL0     H43564   3.566   9.944   1.121  1.0541 -0.2023  0.0782
  316MOL0     H43565   3.624  10.044   1.253  2.2115 -1.4058 -2.6255
  316MOL0     H43566   3.779   9.669   1.419  1.9462 -2.4237  0.0451
  316MOL0     H43567   4.103   9.648   1.475 -0.1717 -0.7089  0.2360
  316MOL0     H43568   4.036   9.501   1.371 -1.9512 -1.9324  2.0112
  316MOL0     H43569   3.953   9.584   1.502  0.0175  1.1701 -0.1399
  316MOL0     H43570   4.383   9.941   0.924 -1.7322 -0.5954  1.0051
  316MOL0     H43571   4.606   9.906   0.843  1.5152 -0.4416  0.5670
  316MOL0     H43572   4.852   9.646   1.002  1.0326 -2.3529 -1.8170
  316MOL0     H43573   4.936   9.669   0.856 -0.4332 -1.6575  0.5865
  316MOL0     H43574   4.865   9.911   0.823  3.6761 -1.9386 -1.3029
  316MOL0     H43575   4.795   9.916   0.985 -0.2127  1.2258  0.1408
  316MOL0     H43576   5.072   9.904   0.879 -2.8821  1.5855 -1.0577
  316MOL0     H43577   5.039   9.811   1.032 -0.0548  0.2958  1.2914
  316MOL0     H43578   4.938  10.015   1.130  0.8962 -0.9223  1.6285
  316MOL0     H43579   4.983  10.099   0.975 -1.6583 -1.9196 -0.1825
  316MOL0     H43580   5.207   9.943   1.122  0.3925  0.7339  0.4304
  316MOL0     H43581   5.213  10.075   1.013  1.1742  2.3883  1.1223
  316MOL0     H43582   5.281  10.136   1.238 -0.1512 -0.2416  0.4474
  316MOL0     H43583   5.138  10.070   1.309 -0.3343 -0.9807 -0.1677
  316MOL0     H43584   4.986  10.237   1.207  0.4509 -0.7921 -2.0931
  316MOL0     H43585   5.119  10.282   1.095  1.0705  0.7248  0.9810
  316MOL0     H43586   5.254  10.396   1.258 -1.1164  0.9666  1.1001
  316MOL0     H43587   5.168  10.328   1.386 -0.5366 -1.7703 -0.4746
  316MOL0     H43588   4.612   9.506   1.005  0.1775 -0.2136 -1.3422
  316MOL0     H43589   4.395   9.543   1.100 -1.2626 -1.3562 -2.3521
  316MOL0     H43590   3.979   9.860   1.009  2.6477 -0.6624  1.2124
  316MOL0     H43591   3.761   9.926   1.075 -1.3329  1.5499  2.9319
  316MOL0     H43592   3.398  10.687   2.647  1.4037  1.9257 -0.0487
  316MOL0     H43593   3.190  10.660   2.763  0.0507  1.0773  0.7772
  316MOL0     H43594   2.829  10.456   2.708 -2.1779 -1.5179 -0.6053
  316MOL0     H43595   2.646  10.354   2.841  1.8486  0.0396  1.2128
  316MOL0     H43596   2.350  10.598   3.075 -0.4621 -1.0913  0.6848
  316MOL0     H43597   2.302  10.607   2.899  0.3518 -1.4138 -1.0435
  316MOL0     H43598   2.180  10.388   2.946  2.1763  0.7955 -0.1836
  316MOL0     H43599   2.127  10.519   3.057  0.7977  1.0750 -0.6648
  316MOL0     H43600   2.299  10.275   3.120 -3.6754 -2.2171  1.0307
  316MOL0     H43601   2.303  10.420   3.221  0.9001 -0.1001 -0.0740
  316MOL0     H43602   2.125  10.232   3.283  0.3636 -0.0630 -0.1288
  316MOL0     H43603   2.039  10.282   3.132  0.5515  2.7712 -2.2836
  316MOL0     H43604   1.921  10.604   3.359  0.7697  0.1958 -0.9165
  316MOL0     H43605   2.484  10.747   2.897 -1.2328 -0.4250 -0.5833
  316MOL0     H43606   2.615  10.946   2.853  2.1220  3.0378 -0.7423
  316MOL0     H43607   2.768  10.946   2.777 -0.4849  1.7232  0.5462
  316MOL0     H43608   2.614  10.925   2.688  1.4657  2.3906  1.3201
  317MOL0     O43609   7.676   5.880   3.608 -0.0737 -0.1649 -0.6634
  317MOL0     C43610   7.585   5.811   3.652 -0.3468 -0.5215  0.9105
  317MOL0     O43611   7.597   5.735   3.761  0.3092  0.1434 -0.0593
  317MOL0     C43612   7.720   5.708   3.811 -1.0559  0.2088 -0.2509
  317MOL0     C43613   7.780   5.796   3.897 -0.1027 -1.1585 -0.3127
  317MOL0     C43614   7.915   5.781   3.943  0.3345 -0.0341 -0.1432
  317MOL0     C43615   7.982   5.669   3.906 -0.2881 -0.2879  0.7675
  317MOL0     O43616   8.112   5.652   3.957  1.0195  0.1033  0.4305
  317MOL0     C43617   8.140   5.523   4.000  0.3698 -0.4715 -0.0999
  317MOL0     C43618   8.245   5.553   4.111 -1.1037  0.1904 -0.3913
  317MOL0     C43619   8.314   5.433   4.186  1.4121 -0.6683  0.5121
  317MOL0     C43620   8.208   5.360   4.282  0.1591 -0.3644 -0.0743
  317MOL0     C43621   8.273   5.245   4.349 -0.2339  0.0152 -0.3555
  317MOL0     C43622   8.291   5.119   4.251 -0.1296 -0.9142 -0.4119
  317MOL0     C43623   8.324   4.991   4.322 -0.2164 -0.2688  0.2706
  317MOL0     C43624   8.433   5.001   4.439 -0.0207  0.4722  1.2803
  317MOL0     N43625   8.440   4.883   4.524  0.2030 -0.0550 -0.1629
  317MOL0     C43626   8.565   4.848   4.559 -0.4612  0.4666 -0.5217
  317MOL0     C43627   8.536   4.755   4.659  0.1359 -0.9789 -1.0406
  317MOL0     C43628   8.627   4.685   4.767  0.4159 -0.2873  0.9359
  317MOL0     C43629   8.646   4.771   4.889 -0.9914 -0.3499  0.3450
  317MOL0     C43630   8.707   4.704   5.016 -0.2491  0.4836 -0.0419
  317MOL0     C43631   8.849   4.653   5.012 -0.5469  0.6827 -0.9559
  317MOL0     O43632   8.889   4.629   5.148 -0.4305 -1.2426 -0.2605
  317MOL0     C43633   9.023   4.612   5.168  0.4832  0.1043 -0.3570
  317MOL0     C43634   9.055   4.593   5.303  0.6575 -0.6422 -0.5845
  317MOL0     C43635   9.188   4.586   5.353  0.4029  0.2455  0.1242
  317MOL0     C43636   9.210   4.564   5.500  0.1870  0.7786  0.0976
  317MOL0     C43637   9.293   4.605   5.251  0.2974 -0.5254 -0.5030
  317MOL0     C43638   9.443   4.602   5.288 -0.4302  0.0142  0.3110
  317MOL0     O43639   9.487   4.518   5.382 -0.7265 -0.1093 -0.0323
  317MOL0     C43640   9.624   4.486   5.391 -0.0440  0.6884 -0.1063
  317MOL0     C43641   9.665   4.460   5.529 -0.3759  0.8741 -0.5213
  317MOL0     C43642   9.793   4.412   5.553 -0.1327 -0.1303 -0.4631
  317MOL0     C43643   9.885   4.389   5.450 -0.2321 -0.0063 -0.1113
  317MOL0     O43644  10.015   4.363   5.465  0.6791  0.9515  0.1515
  317MOL0     C43645  10.044   4.228   5.509 -1.3582  0.2967 -0.5128
  317MOL0     C43646  10.022   4.102   5.423  0.9338 -0.9113 -0.2383
  317MOL0     C43647   9.868   4.071   5.405  1.1180  0.4480  0.5480
  317MOL0     C43648   9.845   3.917   5.366  0.3693 -0.3878  0.2161
  317MOL0     C43649   9.706   3.903   5.310  0.0126 -1.4329  0.6651
  317MOL0     C43650   9.697   3.790   5.201  0.0406 -0.2377  0.3831
  317MOL0     C43651   9.649   3.646   5.259 -0.0061  0.1991  1.0149
  317MOL0     C43652   9.729   3.595   5.378  0.9323  0.0342  0.1005
  317MOL0    Cl43653   9.683   3.437   5.442  0.2622 -0.0161 -0.1128
  317MOL0     C43654   9.840   4.414   5.324 -0.4463  0.1481 -0.1869
  317MOL0     C43655   9.715   4.469   5.288 -0.5615  0.0222  0.2665
  317MOL0     O43656   9.511   4.688   5.236 -0.0438  0.6264  0.0395
  317MOL0     C43657   9.255   4.640   5.121  0.1108 -0.5499  0.1606
  317MOL0     C43658   9.124   4.632   5.079 -0.7134  0.6844  0.0117
  317MOL0     N43659   8.396   4.736   4.668 -0.8363  0.3305 -0.7772
  317MOL0     N43660   8.338   4.811   4.580 -0.2824  0.0774 -0.1392
  317MOL0     C43661   7.926   5.575   3.822  1.3340 -0.0744 -0.0949
  317MOL0     C43662   7.787   5.598   3.772  0.0189  0.6530  0.6985
  317MOL0     C43663   7.461   5.791   3.578 -0.0022  0.2909  0.8419
  317MOL0     C43664   7.359   5.709   3.641  0.0456  0.0633  0.6900
  317MOL0     C43665   7.237   5.673   3.578  0.7196 -1.0703 -1.1259
  317MOL0     C43666   7.203   5.726   3.460 -0.5909 -0.0513 -1.1371
  317MOL0     O43667   7.089   5.684   3.403  0.4003  0.5070 -0.2980
  317MOL0     C43668   7.083   5.696   3.266  0.9917  0.8862  0.1793
  317MOL0     C43669   6.978   5.593   3.214  0.0948 -0.7708 -0.4171
  317MOL0     C43670   6.831   5.634   3.255 -0.6151  0.2264 -0.4325
  317MOL0     C43671   6.717   5.547   3.200  0.1520  0.4354  0.9725
  317MOL0     C43672   6.734   5.407   3.243  1.2748  1.0960  1.1372
  317MOL0     C43673   6.755   5.288   3.263  1.5104 -0.0734 -1.3737
  317MOL0     C43674   7.291   5.824   3.400 -0.1503 -0.0378  0.0082
  317MOL0     C43675   7.416   5.862   3.458 -1.2350 -0.3398 -0.0335
  317MOL0     C43676   7.496   5.979   3.398  0.0731 -0.0557 -0.9366
  317MOL0     H43677   7.718   5.878   3.932  0.8564 -1.2379  1.7707
  317MOL0     H43678   7.961   5.860   4.001  0.5151  0.1425 -0.5204
  317MOL0     H43679   8.166   5.454   3.919  0.0565 -0.5436 -0.1421
  317MOL0     H43680   8.052   5.477   4.046  0.1912 -0.8525 -0.8000
  317MOL0     H43681   8.323   5.607   4.056  2.6065 -2.8450  1.4419
  317MOL0     H43682   8.207   5.630   4.179  0.2552  1.2587 -0.7772
  317MOL0     H43683   8.345   5.351   4.119  0.2529  0.5422 -1.6152
  317MOL0     H43684   8.401   5.475   4.238  1.3277  0.1559  0.0039
  317MOL0     H43685   8.158   5.417   4.361 -2.2383 -3.0174  0.4739
  317MOL0     H43686   8.125   5.326   4.220 -0.6671 -0.6367  1.1412
  317MOL0     H43687   8.204   5.207   4.424  0.1222 -2.1638 -1.0594
  317MOL0     H43688   8.368   5.271   4.397 -0.8708  0.4926  0.6642
  317MOL0     H43689   8.199   5.099   4.195  0.5177 -1.7189 -1.2306
  317MOL0     H43690   8.369   5.132   4.175 -0.5916  0.8773 -0.6232
  317MOL0     H43691   8.362   4.918   4.250 -0.0369 -0.9999  1.0891
  317MOL0     H43692   8.236   4.951   4.374 -0.0303  0.8009  1.4719
  317MOL0     H43693   8.528   5.028   4.392  0.7893  2.2905  3.7017
  317MOL0     H43694   8.405   5.084   4.505  1.5831  1.1830  1.1302
  317MOL0     H43695   8.660   4.891   4.529  1.0205 -1.8577  0.5212
  317MOL0     H43696   8.726   4.659   4.729 -0.5068  0.8959 -2.7296
  317MOL0     H43697   8.559   4.601   4.788 -0.5967 -0.1537 -1.4369
  317MOL0     H43698   8.710   4.855   4.863 -2.1520  0.2142 -0.7755
  317MOL0     H43699   8.548   4.801   4.928 -1.0213  0.6988 -0.5175
  317MOL0     H43700   8.701   4.781   5.093  2.8140 -1.0960  1.9911
  317MOL0     H43701   8.644   4.619   5.044  0.4844  0.7242  2.5309
  317MOL0     H43702   8.852   4.565   4.948  1.8469  1.3160 -1.8207
  317MOL0     H43703   8.914   4.726   4.962  3.1172 -1.2541  0.6029
  317MOL0     H43704   8.972   4.572   5.370 -1.2732 -0.1412 -2.7133
  317MOL0     H43705   9.241   4.660   5.543  1.1332 -0.4421  2.2747
  317MOL0     H43706   9.283   4.484   5.515 -0.6249 -0.0688 -0.3979
  317MOL0     H43707   9.121   4.520   5.546  1.2542  0.7813  2.2585
  317MOL0     H43708   9.606   4.485   5.617 -0.0863  2.1097 -0.6519
  317MOL0     H43709   9.828   4.405   5.656  0.5225 -0.2041 -0.6835
  317MOL0     H43710  10.146   4.217   5.548 -1.9847 -0.6943  0.9300
  317MOL0     H43711   9.981   4.207   5.596 -1.2086  0.2099 -0.4243
  317MOL0     H43712  10.072   4.111   5.326 -0.2831 -2.0556 -1.0080
  317MOL0     H43713  10.048   4.010   5.477 -2.9421 -0.8043  2.2299
  317MOL0     H43714   9.832   4.133   5.322 -1.9509 -1.1993  0.5155
  317MOL0     H43715   9.809   4.093   5.494  0.1134  2.3487 -0.5026
  317MOL0     H43716   9.857   3.844   5.446  1.9349 -1.7826 -1.2062
  317MOL0     H43717   9.922   3.880   5.297 -2.3875 -0.9498 -2.7856
  317MOL0     H43718   9.638   3.902   5.395  1.2635 -0.0212  1.7378
  317MOL0     H43719   9.695   3.996   5.253  2.1582 -0.0100  2.4054
  317MOL0     H43720   9.794   3.793   5.151 -0.4142  1.7409 -0.4997
  317MOL0     H43721   9.620   3.825   5.131  3.0236 -1.1486 -3.7558
  317MOL0     H43722   9.665   3.582   5.171  1.9781 -1.1275  2.2480
  317MOL0     H43723   9.544   3.638   5.287  0.1373 -0.1233  1.4595
  317MOL0     H43724   9.723   3.672   5.456 -1.3886  2.8153 -2.5575
  317MOL0     H43725   9.831   3.576   5.344  1.9529  2.0766  1.7743
  317MOL0     H43726   9.908   4.410   5.240 -0.5982 -0.1520 -0.3011
  317MOL0     H43727   9.703   4.502   5.185  0.5491 -0.6346 -0.0848
  317MOL0     H43728   9.324   4.658   5.039 -0.3124 -2.6249 -0.7295
  317MOL0     H43729   9.114   4.657   4.974 -0.4576 -1.1551 -0.4825
  317MOL0     H43730   7.978   5.485   3.788 -0.8262 -1.4575  0.0917
  317MOL0     H43731   7.747   5.520   3.708  1.6782  0.1058  0.2805
  317MOL0     H43732   7.395   5.674   3.737  3.6255  0.5588 -0.3197
  317MOL0     H43733   7.163   5.611   3.627  1.6058  0.7001  2.8224
  317MOL0     H43734   7.051   5.797   3.236  0.6487  1.2665  1.7239
  317MOL0     H43735   7.173   5.676   3.208 -0.7740 -0.3193 -2.3133
  317MOL0     H43736   6.988   5.496   3.264 -1.8683 -0.2432  1.1553
  317MOL0     H43737   6.984   5.581   3.106 -2.3840  1.8538 -0.9787
  317MOL0     H43738   6.827   5.656   3.362  1.6446  3.1842 -0.8382
  317MOL0     H43739   6.821   5.728   3.200  3.4549 -0.0486 -2.0006
  317MOL0     H43740   6.719   5.560   3.091 -1.2825  1.0032  0.9929
  317MOL0     H43741   6.622   5.589   3.235 -0.6318 -2.8918  3.2974
  317MOL0     H43742   6.761   5.182   3.277 -2.1768 -0.4378 -1.5976
  317MOL0     H43743   7.264   5.882   3.312 -1.1907 -2.4101 -1.3568
  317MOL0     H43744   7.583   5.931   3.352 -0.6939  0.1280 -2.6582
  317MOL0     H43745   7.436   6.034   3.325  1.4962  1.1856 -1.2120
  317MOL0     H43746   7.532   6.039   3.482 -0.2739 -1.8455  0.5558
  318MOL0     O43747   7.181   7.092   6.202 -0.5499  0.2978 -0.2257
  318MOL0     C43748   7.238   7.186   6.145  0.1869 -0.0875  0.1431
  318MOL0     O43749   7.317   7.278   6.196 -0.4743  0.5856 -0.6379
  318MOL0     C43750   7.341   7.263   6.328 -0.2089  0.9085 -0.8343
  318MOL0     C43751   7.244   7.277   6.430 -0.1160  0.5691 -0.0946
  318MOL0     C43752   7.292   7.257   6.560 -0.0043 -0.2879  0.4124
  318MOL0     C43753   7.422   7.214   6.601 -0.7715  0.8675 -0.5160
  318MOL0     O43754   7.459   7.175   6.728  0.2182 -0.6550  0.2319
  318MOL0     C43755   7.359   7.197   6.829 -0.1005  0.6867  0.2499
  318MOL0     C43756   7.419   7.133   6.958  0.0142  0.0870 -0.2436
  318MOL0     C43757   7.337   7.156   7.078 -0.9842 -0.1988  0.7079
  318MOL0     C43758   7.205   7.066   7.085  1.1403  0.2519  0.3931
  318MOL0     C43759   7.224   6.910   7.064 -0.1435  0.8509  0.7587
  318MOL0     C43760   7.344   6.840   7.137  0.0186  0.7811 -0.6175
  318MOL0     C43761   7.298   6.813   7.279  0.2850 -0.4656 -0.2137
  318MOL0     C43762   7.397   6.729   7.361  0.6682  0.2216  0.2977
  318MOL0     N43763   7.385   6.587   7.326 -0.6372  0.9626  0.6878
  318MOL0     C43764   7.492   6.530   7.259  0.1847 -0.2498 -0.9299
  318MOL0     C43765   7.444   6.408   7.218 -0.1451  0.1116  0.2676
  318MOL0     C43766   7.499   6.303   7.122 -0.1502  1.1329 -0.5619
  318MOL0     C43767   7.500   6.340   6.980  0.0265  0.0500  0.2380
  318MOL0     C43768   7.500   6.226   6.870 -0.1261 -0.4605 -0.1129
  318MOL0     C43769   7.368   6.155   6.858  0.1041  0.0218 -0.0849
  318MOL0     O43770   7.337   6.075   6.973 -0.4675  0.1713  0.0557
  318MOL0     C43771   7.201   6.068   6.989 -0.6044  0.0211 -0.8734
  318MOL0     C43772   7.121   6.174   7.028  0.0998 -0.4572  0.0799
  318MOL0     C43773   6.987   6.166   7.064  0.3140  0.8405  0.0606
  318MOL0     C43774   6.908   6.288   7.113 -0.0256 -0.2323 -0.0088
  318MOL0     C43775   6.923   6.041   7.035 -0.0966  0.0919 -0.4060
  318MOL0     C43776   6.772   6.012   7.045  0.6279  0.0823  0.1834
  318MOL0     O43777   6.732   5.887   7.080  0.5659  0.8715 -0.0946
  318MOL0     C43778   6.604   5.867   7.093  1.0485 -0.7358 -0.2699
  318MOL0     C43779   6.524   5.866   6.978  0.0590  0.5825  0.3269
  318MOL0     C43780   6.390   5.840   6.983  0.6489  0.3918  0.6990
  318MOL0     C43781   6.321   5.817   7.104 -0.0744  0.0606 -0.3220
  318MOL0     O43782   6.189   5.803   7.093 -0.6049 -0.5194  0.1234
  318MOL0     C43783   6.107   5.773   7.212  1.1718  0.0488  0.3569
  318MOL0     C43784   5.959   5.776   7.167  0.0118 -0.3935  0.3886
  318MOL0     C43785   5.903   5.669   7.068 -0.1019  0.5708  0.1436
  318MOL0     C43786   5.756   5.689   7.070  0.2405  0.2694  0.0559
  318MOL0     C43787   5.678   5.582   6.994  0.0089 -0.1399  0.2357
  318MOL0     C43788   5.524   5.617   7.003 -0.1447 -0.6100 -0.3163
  318MOL0     C43789   5.472   5.591   6.866 -0.0620  0.9402  0.4683
  318MOL0     C43790   5.315   5.609   6.866  0.0452 -0.0034  0.5488
  318MOL0    Cl43791   5.236   5.503   6.982  0.1140 -0.1927 -0.4019
  318MOL0     C43792   6.400   5.820   7.219 -0.3511  0.3351 -0.5176
  318MOL0     C43793   6.539   5.851   7.215 -0.2916 -0.5410 -1.2178
  318MOL0     O43794   6.703   6.103   6.996  0.1403  0.2595 -0.3625
  318MOL0     C43795   6.999   5.933   6.988  0.8723 -0.1506  0.0718
  318MOL0     C43796   7.140   5.941   6.973 -1.0868  0.2380  0.5533
  318MOL0     N43797   7.317   6.393   7.267  0.0886 -0.1045  0.4223
  318MOL0     N43798   7.280   6.494   7.336 -0.0525  0.1887  0.4234
  318MOL0     C43799   7.516   7.189   6.497 -0.4228  0.0201  0.1493
  318MOL0     C43800   7.472   7.208   6.362 -0.0905  0.5996  0.0509
  318MOL0     C43801   7.240   7.179   5.999 -0.2764 -0.3281 -0.2441
  318MOL0     C43802   7.358   7.223   5.936  0.0513 -1.4815 -0.9048
  318MOL0     C43803   7.372   7.203   5.802 -0.0822  0.5102  0.4480
  318MOL0     C43804   7.277   7.156   5.714  1.0961 -0.8970 -0.3829
  318MOL0     O43805   7.294   7.131   5.580  0.2630 -0.4205 -0.2401
  318MOL0     C43806   7.406   7.208   5.513 -0.0919  0.3408  0.4798
  318MOL0     C43807   7.389   7.356   5.487 -0.0027 -0.2135  0.5324
  318MOL0     C43808   7.263   7.389   5.411  0.1007  0.3909 -0.1433
  318MOL0     C43809   7.184   7.498   5.498 -0.7678 -0.4154 -0.0302
  318MOL0     C43810   7.057   7.515   5.431 -0.5967  0.8343  0.5028
  318MOL0     C43811   6.973   7.535   5.346 -0.2643 -0.2778  0.4823
  318MOL0     C43812   7.156   7.113   5.779 -0.1561  0.1867  0.6155
  318MOL0     C43813   7.138   7.119   5.916  0.3170 -0.2910  0.6336
  318MOL0     C43814   7.004   7.069   5.974 -0.2521 -0.0659  0.8999
  318MOL0     H43815   7.145   7.299   6.392  0.3080  0.1495 -1.5075
  318MOL0     H43816   7.215   7.261   6.636 -0.4722 -0.7460 -0.0330
  318MOL0     H43817   7.275   7.137   6.794 -0.6023  1.6384 -0.2385
  318MOL0     H43818   7.319   7.298   6.841 -2.8871 -0.4022  0.8127
  318MOL0     H43819   7.443   7.030   6.932  0.6865 -0.2077  1.3968
  318MOL0     H43820   7.515   7.182   6.977 -1.2011  1.8081  2.0702
  318MOL0     H43821   7.394   7.136   7.170 -0.6224  0.2589  0.5819
  318MOL0     H43822   7.307   7.261   7.082 -0.8329 -0.1488  0.5279
  318MOL0     H43823   7.154   7.086   7.180  1.0097  2.7473 -0.1485
  318MOL0     H43824   7.127   7.095   7.015  0.7104  1.1545  1.2235
  318MOL0     H43825   7.252   6.900   6.959  1.4113  0.5394  1.1694
  318MOL0     H43826   7.135   6.847   7.066 -0.7103  1.4785 -1.6450
  318MOL0     H43827   7.374   6.745   7.093  0.7125 -0.4754  2.2930
  318MOL0     H43828   7.430   6.907   7.139 -1.7178  3.1008  0.7706
  318MOL0     H43829   7.207   6.753   7.285 -1.5815  1.5775 -4.3346
  318MOL0     H43830   7.273   6.903   7.337  0.5836 -2.0026  2.4943
  318MOL0     H43831   7.498   6.762   7.338  0.5780  1.9814  2.1560
  318MOL0     H43832   7.384   6.749   7.468 -1.5462  2.5756 -0.2986
  318MOL0     H43833   7.593   6.566   7.243 -0.3690  0.3960 -3.4513
  318MOL0     H43834   7.435   6.217   7.140  3.3757 -1.5265  0.4598
  318MOL0     H43835   7.594   6.266   7.162 -1.1472 -3.6137 -1.9693
  318MOL0     H43836   7.414   6.407   6.966  2.3907  3.3794  0.4916
  318MOL0     H43837   7.594   6.394   6.966  0.7023 -0.0891  3.4270
  318MOL0     H43838   7.536   6.269   6.775 -1.1717  2.8555  0.8331
  318MOL0     H43839   7.572   6.148   6.897 -2.4571 -2.2584  1.2664
  318MOL0     H43840   7.293   6.224   6.820  1.9016  1.3773 -1.3789
  318MOL0     H43841   7.377   6.093   6.768 -0.1880  3.4035 -2.6500
  318MOL0     H43842   7.154   6.277   7.024 -0.0750 -0.4226 -1.9824
  318MOL0     H43843   6.839   6.317   7.033  0.4481  2.3177  0.4008
  318MOL0     H43844   6.974   6.373   7.134 -1.4521  0.9947 -0.2640
  318MOL0     H43845   6.856   6.269   7.207 -3.1826 -1.0989 -1.7941
  318MOL0     H43846   6.560   5.881   6.876 -2.4515  1.3022 -0.5307
  318MOL0     H43847   6.336   5.826   6.890  1.5202 -0.1782  0.2644
  318MOL0     H43848   6.126   5.674   7.255 -1.5505 -0.6408  0.1568
  318MOL0     H43849   6.122   5.855   7.284 -1.5118  3.2928 -2.4206
  318MOL0     H43850   5.896   5.774   7.256 -2.1614 -0.9226 -1.0932
  318MOL0     H43851   5.950   5.872   7.115  0.1785 -1.2978 -1.3924
  318MOL0     H43852   5.926   5.564   7.091 -1.5471  0.4726  1.2381
  318MOL0     H43853   5.946   5.689   6.969  1.1907 -0.4862  0.4541
  318MOL0     H43854   5.733   5.786   7.026 -0.1739 -0.7752 -2.1787
  318MOL0     H43855   5.721   5.697   7.174 -0.5397  0.9171 -0.2480
  318MOL0     H43856   5.717   5.586   6.892 -1.6218  0.9067 -0.3967
  318MOL0     H43857   5.701   5.484   7.038 -1.3314  0.0122  1.3802
  318MOL0     H43858   5.512   5.722   7.030 -0.1555 -0.2371 -1.6926
  318MOL0     H43859   5.469   5.555   7.074 -1.8735  0.7105 -0.4305
  318MOL0     H43860   5.489   5.484   6.855  0.3377  0.9811  0.6809
  318MOL0     H43861   5.523   5.641   6.783  3.3466 -2.9394 -0.0719
  318MOL0     H43862   5.275   5.601   6.765 -3.1816  2.5143  1.4575
  318MOL0     H43863   5.291   5.713   6.890 -1.1162 -0.3114  0.7964
  318MOL0     H43864   6.379   5.795   7.323  3.5661 -1.5275  0.0096
  318MOL0     H43865   6.598   5.858   7.305 -2.2584 -1.7860  0.2488
  318MOL0     H43866   6.948   5.838   6.977  0.6191 -0.0851  0.6625
  318MOL0     H43867   7.186   5.846   6.951 -2.1965 -0.0643 -0.6127
  318MOL0     H43868   7.613   7.145   6.516 -0.6193 -0.7078 -0.4932
  318MOL0     H43869   7.531   7.190   6.273  0.1661 -0.2032  0.3725
  318MOL0     H43870   7.444   7.237   6.001  0.1608 -3.3587 -0.5907
  318MOL0     H43871   7.468   7.238   5.765 -2.1135  2.6188 -3.4958
  318MOL0     H43872   7.498   7.194   5.572  0.1917  2.1685  0.5472
  318MOL0     H43873   7.420   7.162   5.415  0.0835 -0.1000  0.7093
  318MOL0     H43874   7.471   7.397   5.427 -0.0785  0.6847  1.0174
  318MOL0     H43875   7.392   7.413   5.581  0.2682  1.2169 -0.3071
  318MOL0     H43876   7.288   7.443   5.319 -0.2070  0.5271 -0.1496
  318MOL0     H43877   7.205   7.299   5.391  0.2398 -0.6120  3.4189
  318MOL0     H43878   7.227   7.598   5.498  0.1188 -0.7825 -0.1756
  318MOL0     H43879   7.166   7.463   5.600  1.7914 -4.0390 -0.6061
  318MOL0     H43880   6.896   7.557   5.275 -0.4719 -1.2635  0.3879
  318MOL0     H43881   7.087   7.073   5.705 -0.0200 -0.9526  1.0885
  318MOL0     H43882   7.032   6.991   6.045 -0.8046 -0.9039  0.2278
  318MOL0     H43883   6.934   7.142   6.017 -0.2563  0.2236  0.4092
  318MOL0     H43884   6.942   7.020   5.898 -1.3476 -1.4458  2.5896
  319MOL0     O43885   1.662   0.926   9.916  0.3503 -0.5621 -0.4184
  319MOL0     C43886   1.619   0.947   9.804 -1.2361 -0.5946 -0.5209
  319MOL0     O43887   1.694   0.935   9.687  0.0778 -0.3243 -0.5567
  319MOL0     C43888   1.833   0.942   9.687 -0.1570  0.6435 -0.3721
  319MOL0     C43889   1.914   1.047   9.741  0.6976 -0.8739  0.2337
  319MOL0     C43890   2.054   1.046   9.735  0.1853 -0.3304  0.3984
  319MOL0     C43891   2.127   0.938   9.675  0.3213  0.5934  0.1002
  319MOL0     O43892   2.256   0.943   9.659 -0.4841  0.1010  0.0823
  319MOL0     C43893   2.335   0.822   9.676  0.7369 -0.0648 -0.1337
  319MOL0     C43894   2.457   0.867   9.764 -0.0330 -0.0689 -0.3773
  319MOL0     C43895   2.555   0.753   9.794  0.1233  0.0221 -0.7986
  319MOL0     C43896   2.605   0.665   9.671 -0.0279 -0.4013  0.4020
  319MOL0     C43897   2.711   0.561   9.720 -0.3111 -0.2559 -0.1557
  319MOL0     C43898   2.769   0.476   9.600  0.9811  0.0548 -0.2239
  319MOL0     C43899   2.829   0.340   9.645  0.6293 -0.0047  0.1574
  319MOL0     C43900   2.868   0.271   9.519 -0.2900 -0.0969  0.3213
  319MOL0     N43901   2.988   0.199   9.541 -1.3896  0.8485  0.2973
  319MOL0     C43902   3.044   0.145   9.657  0.0331 -0.5902 -0.1035
  319MOL0     C43903   3.159   0.092   9.624 -0.4488  1.3681  0.1405
  319MOL0     C43904   3.263   0.030   9.712  0.6399 -0.3169  0.2726
  319MOL0     C43905   3.347   0.130   9.775  0.3253 -0.1352 -0.7137
  319MOL0     C43906   3.461   0.071   9.867 -0.0451 -0.9998  1.3010
  319MOL0     C43907   3.422  -0.026   9.977  0.6925 -0.5114 -0.8955
  319MOL0     O43908   3.424  -0.154   9.915 -0.0658  0.6850 -0.5367
  319MOL0     C43909   3.553  -0.215   9.894  0.3011 -0.3669 -0.0138
  319MOL0     C43910   3.678  -0.159   9.936  0.5144 -0.1755  0.7987
  319MOL0     C43911   3.795  -0.231   9.917  0.3733 -0.2637  0.3728
  319MOL0     C43912   3.923  -0.156   9.958  0.0947  0.1852  0.5834
  319MOL0     C43913   3.802  -0.345   9.843  0.6772 -0.1147 -0.3231
  319MOL0     C43914   3.919  -0.432   9.823  0.7664 -0.2443  0.3762
  319MOL0     O43915   3.889  -0.559   9.797 -0.1546  0.4997  0.0553
  319MOL0     C43916   3.983  -0.659   9.804 -0.4605  0.1778 -0.3414
  319MOL0     C43917   3.968  -0.763   9.708  1.0573  0.5332  0.4507
  319MOL0     C43918   4.046  -0.876   9.713 -0.6696 -0.2349 -0.8496
  319MOL0     C43919   4.155  -0.882   9.808 -0.3039 -0.8118 -0.2324
  319MOL0     O43920   4.251  -0.976   9.826  0.1141 -0.3144  0.2532
  319MOL0     C43921   4.223  -1.101   9.773 -0.1125 -0.4118  0.4925
  319MOL0     C43922   4.322  -1.200   9.829 -0.3670 -0.0397  0.4095
  319MOL0     C43923   4.279  -1.341   9.792  0.8644 -0.2477 -0.2367
  319MOL0     C43924   4.178  -1.409   9.884 -0.0934  0.3328  0.6977
  319MOL0     C43925   4.209  -1.552   9.872 -0.1369  0.2375  0.1693
  319MOL0     C43926   4.145  -1.636   9.981 -0.8171  0.3673 -0.2780
  319MOL0     C43927   4.156  -1.786   9.940  0.4619  0.1520 -0.4491
  319MOL0     C43928   4.077  -1.872  10.037 -0.6279  0.1107 -0.5550
  319MOL0    Cl43929   3.913  -1.821  10.088  0.1035  0.2587 -0.1796
  319MOL0     C43930   4.161  -0.781   9.908  0.0358 -0.0564 -0.1786
  319MOL0     C43931   4.083  -0.666   9.902  0.1467  0.0362 -1.0635
  319MOL0     O43932   4.031  -0.382   9.830 -0.3707  0.3146  0.2112
  319MOL0     C43933   3.679  -0.395   9.791  0.1243  0.0094 -0.6283
  319MOL0     C43934   3.559  -0.338   9.821 -0.5098 -0.6236 -0.3388
  319MOL0     N43935   3.181   0.107   9.487  0.6959 -0.3644  0.0290
  319MOL0     N43936   3.083   0.182   9.445  0.9401  0.6467  0.3983
  319MOL0     C43937   2.046   0.832   9.629 -0.5183  0.3265  0.8808
  319MOL0     C43938   1.903   0.831   9.636 -1.2220 -0.4443 -0.1358
  319MOL0     C43939   1.477   0.929   9.794  0.4880  0.5381 -0.6396
  319MOL0     C43940   1.425   0.849   9.691  0.2942 -0.4658 -0.3602
  319MOL0     C43941   1.288   0.822   9.683  0.8783 -0.0181 -0.4437
  319MOL0     C43942   1.196   0.871   9.767 -0.4670  0.2896  0.2150
  319MOL0     O43943   1.065   0.849   9.772 -0.0806 -0.3905  0.1263
  319MOL0     C43944   1.018   0.747   9.677 -0.1662  0.8434 -0.0204
  319MOL0     C43945   0.866   0.744   9.659 -0.0815 -0.1858 -0.4488
  319MOL0     C43946   0.804   0.605   9.633  0.1051  0.5772  0.7737
  319MOL0     C43947   0.653   0.615   9.599 -0.6441  0.6121 -0.2616
  319MOL0     C43948   0.577   0.669   9.705 -0.0621  0.8901  0.6878
  319MOL0     C43949   0.516   0.710   9.799  0.2149  0.0812 -0.2968
  319MOL0     C43950   1.247   0.944   9.874  0.0312 -0.2507 -0.3478
  319MOL0     C43951   1.386   0.974   9.893  0.9055  0.3309 -0.2149
  319MOL0     C43952   1.426   1.053  10.012  0.6526  0.8043  0.3069
  319MOL0     H43953   1.857   1.129   9.783 -2.0784  1.3008 -6.4259
  319MOL0     H43954   2.119   1.125   9.770 -0.5007  2.0495 -3.1916
  319MOL0     H43955   2.371   0.766   9.589 -0.5639 -1.6489  0.2916
  319MOL0     H43956   2.284   0.750   9.741  2.6106 -2.7148 -1.4289
  319MOL0     H43957   2.513   0.943   9.708  0.5768  1.0665  1.6671
  319MOL0     H43958   2.432   0.913   9.860 -0.0438  0.1896 -0.5030
  319MOL0     H43959   2.643   0.791   9.849  1.3480 -3.0200 -0.4536
  319MOL0     H43960   2.507   0.682   9.862  1.9090 -0.4283  0.0744
  319MOL0     H43961   2.522   0.606   9.630  1.9628 -2.8929 -0.3443
  319MOL0     H43962   2.646   0.736   9.598  0.2534 -1.0223 -0.0547
  319MOL0     H43963   2.660   0.498   9.793  1.0024 -0.2626  0.7973
  319MOL0     H43964   2.801   0.604   9.765  0.1925  1.0378 -2.2276
  319MOL0     H43965   2.688   0.450   9.530  0.3430  0.2450  0.4315
  319MOL0     H43966   2.845   0.538   9.552  2.9972 -1.0462  1.3643
  319MOL0     H43967   2.752   0.281   9.694  0.5643  1.1377  1.5112
  319MOL0     H43968   2.908   0.364   9.717  2.7731 -2.7712 -1.0992
  319MOL0     H43969   2.789   0.205   9.481  0.3842 -1.6583  1.5047
  319MOL0     H43970   2.892   0.344   9.441  0.7304 -0.8334 -0.0722
  319MOL0     H43971   3.003   0.145   9.757  2.0630 -2.0093  0.8116
  319MOL0     H43972   3.322  -0.046   9.662  1.6419 -1.5979  3.1608
  319MOL0     H43973   3.211  -0.029   9.788 -1.2309  2.8726  1.6775
  319MOL0     H43974   3.398   0.189   9.699  0.9022 -1.7564 -1.6226
  319MOL0     H43975   3.286   0.198   9.835  2.8036 -0.7023  2.8010
  319MOL0     H43976   3.540   0.030   9.805  1.3721 -3.4589  4.4200
  319MOL0     H43977   3.508   0.157   9.915 -5.6157  2.8998  0.8618
  319MOL0     H43978   3.483  -0.006  10.065  0.4722  1.2087 -1.0980
  319MOL0     H43979   3.318  -0.006  10.006  0.5468  2.1384 -2.8621
  319MOL0     H43980   3.689  -0.066   9.990  0.7871  0.8464 -0.9561
  319MOL0     H43981   3.998  -0.223  10.002  0.7957  1.2460  1.0401
  319MOL0     H43982   3.904  -0.074  10.028 -1.7726  2.1172 -1.9882
  319MOL0     H43983   3.970  -0.106   9.873  3.0089 -0.8208  1.4893
  319MOL0     H43984   3.877  -0.764   9.649  0.9468 -1.1018  0.5865
  319MOL0     H43985   4.034  -0.961   9.648 -1.1569 -1.1861  0.4399
  319MOL0     H43986   4.121  -1.126   9.805 -0.4688  0.2473 -0.0931
  319MOL0     H43987   4.222  -1.087   9.664 -0.8828 -0.3876  0.4937
  319MOL0     H43988   4.413  -1.183   9.771 -0.1889 -0.5399  0.5379
  319MOL0     H43989   4.328  -1.197   9.938 -1.0764 -2.4525  0.5821
  319MOL0     H43990   4.373  -1.396   9.790  1.6683  1.0531  0.3997
  319MOL0     H43991   4.234  -1.323   9.694  3.2721  1.1485 -1.1537
  319MOL0     H43992   4.077  -1.378   9.855 -0.4306 -0.6673  0.7604
  319MOL0     H43993   4.196  -1.386   9.990  1.5916 -1.3904  0.8424
  319MOL0     H43994   4.179  -1.588   9.773  2.1193 -1.1100 -0.1173
  319MOL0     H43995   4.315  -1.564   9.896 -0.8698 -1.6830  2.9217
  319MOL0     H43996   4.041  -1.604   9.996 -1.1778 -1.3337  1.2000
  319MOL0     H43997   4.198  -1.611  10.074 -0.4882 -1.9968  0.2541
  319MOL0     H43998   4.256  -1.830   9.940 -0.7136 -2.7758  0.7593
  319MOL0     H43999   4.112  -1.810   9.843 -1.0759  1.1215 -0.0273
  319MOL0     H44000   4.144  -1.862  10.123  0.4327 -0.7698 -1.2523
  319MOL0     H44001   4.067  -1.974  10.000 -3.4472  0.1682 -0.2285
  319MOL0     H44002   4.251  -0.791   9.968 -1.4237 -1.3733  1.9309
  319MOL0     H44003   4.095  -0.584   9.973  2.5157 -1.3072  0.1898
  319MOL0     H44004   3.659  -0.489   9.740 -0.2590 -0.9665  1.2289
  319MOL0     H44005   3.469  -0.386   9.784 -0.7159 -1.1555  0.7815
  319MOL0     H44006   2.076   0.742   9.576 -3.4917  1.2804 -2.8567
  319MOL0     H44007   1.855   0.735   9.620  0.6313 -1.6252  0.9332
  319MOL0     H44008   1.500   0.817   9.619  1.5289  1.8397 -0.2006
  319MOL0     H44009   1.253   0.757   9.603  0.0352  0.5431 -0.5514
  319MOL0     H44010   1.064   0.769   9.581  1.6508 -1.3653  0.2690
  319MOL0     H44011   1.060   0.651   9.708 -1.6922 -0.8422 -2.7820
  319MOL0     H44012   0.820   0.811   9.586  0.8365  0.0892 -0.7916
  319MOL0     H44013   0.834   0.785   9.755 -1.2345  0.5418 -1.1369
  319MOL0     H44014   0.852   0.559   9.546  0.5215  0.7112  0.9298
  319MOL0     H44015   0.820   0.534   9.715 -1.0114 -0.3695  0.1937
  319MOL0     H44016   0.613   0.515   9.582  0.1475 -0.0697  1.5857
  319MOL0     H44017   0.649   0.662   9.501 -0.0285 -0.6209 -0.8995
  319MOL0     H44018   0.446   0.721   9.879 -3.8198  0.4028 -3.5467
  319MOL0     H44019   1.174   0.979   9.947 -1.2920 -0.8907 -1.3338
  319MOL0     H44020   1.475   0.983  10.080 -0.6444  1.0624  1.5701
  319MOL0     H44021   1.508   1.118   9.978  1.1069 -0.6871 -1.6245
  319MOL0     H44022   1.340   1.099  10.062 -1.2019  0.8123 -2.6878
  320MOL0     O44023   2.881   1.865   3.260 -0.6122 -0.0559 -0.3695
  320MOL0     C44024   2.808   1.960   3.277  0.0808 -0.0640 -0.5267
  320MOL0     O44025   2.850   2.089   3.290  0.3865 -0.2989 -1.1145
  320MOL0     C44026   2.982   2.103   3.300  0.5373  0.2697 -0.2378
  320MOL0     C44027   3.055   2.108   3.423 -0.0957  0.8811 -0.1043
  320MOL0     C44028   3.196   2.120   3.418 -0.1222 -0.3752  0.0824
  320MOL0     C44029   3.267   2.128   3.303 -0.2611  0.1438  0.4837
  320MOL0     O44030   3.401   2.136   3.291  0.3925 -0.1008 -0.3251
  320MOL0     C44031   3.474   2.110   3.401  0.1580  0.3605 -1.2744
  320MOL0     C44032   3.615   2.061   3.379  0.6533 -0.6571  0.1257
  320MOL0     C44033   3.707   2.168   3.311  0.5815 -0.3532  0.8912
  320MOL0     C44034   3.849   2.121   3.277 -0.2709  0.1443 -0.3602
  320MOL0     C44035   3.930   2.227   3.209 -0.1238  0.4654 -0.5700
  320MOL0     C44036   4.073   2.171   3.152  0.9440 -0.3843 -0.5115
  320MOL0     C44037   4.063   2.069   3.043 -1.5843 -0.2347 -0.3111
  320MOL0     C44038   4.211   2.047   2.975 -0.2251  0.0347  0.3115
  320MOL0     N44039   4.250   2.167   2.896  0.4420 -0.2250  0.5444
  320MOL0     C44040   4.176   2.209   2.781 -0.8633 -0.5483 -0.0670
  320MOL0     C44041   4.221   2.330   2.751 -0.1359 -0.3662  0.0407
  320MOL0     C44042   4.173   2.419   2.646  0.7426  0.3411  0.7925
  320MOL0     C44043   4.046   2.500   2.669 -0.8124  0.3091  1.0133
  320MOL0     C44044   3.968   2.541   2.543  0.0830  0.3272 -0.3212
  320MOL0     C44045   3.821   2.563   2.565 -0.4133 -0.2030 -0.4130
  320MOL0     O44046   3.755   2.447   2.610 -0.0677 -0.1162  0.0855
  320MOL0     C44047   3.622   2.435   2.657 -0.7621  0.6697 -0.3794
  320MOL0     C44048   3.578   2.318   2.708 -0.7964  0.5994 -0.6161
  320MOL0     C44049   3.450   2.302   2.767 -0.5295 -0.7851  0.8891
  320MOL0     C44050   3.423   2.159   2.810  0.6652  0.3552 -0.1053
  320MOL0     C44051   3.361   2.418   2.782 -0.5875 -0.5717  0.2355
  320MOL0     C44052   3.226   2.392   2.833  0.9274 -0.1885  0.1307
  320MOL0     O44053   3.164   2.503   2.870 -0.0272 -0.4933  0.0913
  320MOL0     C44054   3.052   2.491   2.943 -0.1593 -0.9241  0.2280
  320MOL0     C44055   3.059   2.476   3.077 -0.1011  1.0327 -0.8942
  320MOL0     C44056   2.938   2.455   3.149 -0.4006  0.9339  0.4627
  320MOL0     C44057   2.812   2.442   3.078 -0.6486 -1.0795 -0.5895
  320MOL0     O44058   2.693   2.433   3.135 -0.7175  0.1896 -0.3687
  320MOL0     C44059   2.665   2.441   3.279  0.0754  0.1644 -0.5419
  320MOL0     C44060   2.516   2.417   3.288 -0.4389 -0.3016 -0.0664
  320MOL0     C44061   2.457   2.397   3.431 -0.0661  0.4660  0.7841
  320MOL0     C44062   2.392   2.255   3.430 -0.9856  0.2644  0.4317
  320MOL0     C44063   2.324   2.224   3.556 -0.3519 -0.1120  0.0006
  320MOL0     C44064   2.417   2.205   3.678 -0.2800 -0.6200 -0.5814
  320MOL0     C44065   2.527   2.102   3.674 -0.2498 -0.0066  0.0268
  320MOL0     C44066   2.637   2.114   3.782  0.3477  0.5549 -0.6966
  320MOL0    Cl44067   2.587   2.156   3.946  0.2082 -0.2408  0.0187
  320MOL0     C44068   2.813   2.449   2.938 -0.8003 -0.3842 -0.2401
  320MOL0     C44069   2.933   2.485   2.872 -0.7268  0.0771  0.9017
  320MOL0     O44070   3.179   2.281   2.839  0.0088  0.1225  0.3910
  320MOL0     C44071   3.409   2.541   2.732  0.1935 -0.2099 -0.5288
  320MOL0     C44072   3.534   2.540   2.666  0.0881  0.6698  0.1566
  320MOL0     N44073   4.310   2.376   2.846 -0.0697  0.1138 -0.3525
  320MOL0     N44074   4.319   2.279   2.935 -0.6697 -0.9195 -0.7947
  320MOL0     C44075   3.190   2.132   3.184 -0.1735 -0.2714  0.2112
  320MOL0     C44076   3.051   2.127   3.187  0.2564 -0.2974  0.2082
  320MOL0     C44077   2.663   1.944   3.280 -0.5979 -0.0154  0.4496
  320MOL0     C44078   2.610   1.857   3.378  0.4258  0.0932 -0.1596
  320MOL0     C44079   2.470   1.845   3.374 -0.4926  0.8214 -0.5345
  320MOL0     C44080   2.388   1.902   3.282 -1.1283 -0.0186  0.2228
  320MOL0     O44081   2.259   1.863   3.301 -0.7211 -0.1122 -0.2016
  320MOL0     C44082   2.176   1.860   3.184 -0.3384  0.0757  0.1251
  320MOL0     C44083   2.185   1.720   3.128 -0.8173 -0.0139  0.0791
  320MOL0     C44084   2.110   1.619   3.224  0.3635 -0.6582 -0.2983
  320MOL0     C44085   2.147   1.474   3.199 -0.3049  0.3993  0.2239
  320MOL0     C44086   2.072   1.376   3.276 -0.4702 -0.5545 -0.3152
  320MOL0     C44087   2.006   1.299   3.344  0.6107 -0.7779 -0.4022
  320MOL0     C44088   2.448   1.979   3.178  0.5728 -0.6254 -0.6827
  320MOL0     C44089   2.586   2.004   3.183 -0.2046  0.6853  0.9682
  320MOL0     C44090   2.655   2.084   3.072  0.1655  0.0442  0.5513
  320MOL0     H44091   2.989   2.106   3.508  1.8422  0.2260  1.4742
  320MOL0     H44092   3.245   2.132   3.514  0.3141  1.9684 -0.3705
  320MOL0     H44093   3.431   2.027   3.456  0.3824  1.1128  0.0781
  320MOL0     H44094   3.470   2.201   3.461 -0.2561  0.2359 -1.1106
  320MOL0     H44095   3.651   2.020   3.474  0.8177  0.5896  0.6143
  320MOL0     H44096   3.607   1.971   3.318  0.4305 -0.8559  0.4438
  320MOL0     H44097   3.648   2.194   3.223  0.4666 -0.1484  1.0292
  320MOL0     H44098   3.719   2.257   3.374  0.1955  0.6639 -0.4267
  320MOL0     H44099   3.894   2.098   3.374  0.1026  0.9954 -0.3184
  320MOL0     H44100   3.850   2.030   3.217  1.9946  0.2819 -0.6068
  320MOL0     H44101   3.946   2.321   3.262 -1.4522  2.6555 -3.7126
  320MOL0     H44102   3.871   2.263   3.124 -2.6928  2.2933  1.8079
  320MOL0     H44103   4.128   2.259   3.116 -0.1460 -0.4680 -2.4763
  320MOL0     H44104   4.134   2.126   3.231  2.3650  0.1477 -1.2632
  320MOL0     H44105   3.995   2.110   2.968  1.0143  3.8098 -0.7340
  320MOL0     H44106   4.015   1.978   3.083 -2.0174 -0.1637 -0.6575
  320MOL0     H44107   4.285   2.043   3.056  1.2621  1.2597 -0.9335
  320MOL0     H44108   4.197   1.959   2.912 -2.1903 -0.1697  0.9600
  320MOL0     H44109   4.103   2.151   2.725 -1.0330 -1.4266  1.0296
  320MOL0     H44110   4.168   2.367   2.550 -1.3592 -0.2289  1.1679
  320MOL0     H44111   4.256   2.491   2.645  0.5146  0.6050  0.2654
  320MOL0     H44112   3.986   2.433   2.732 -4.8494  3.2109  0.6374
  320MOL0     H44113   4.074   2.585   2.732  0.3782 -0.2240  1.2343
  320MOL0     H44114   4.011   2.633   2.504  0.0929 -0.4014 -2.1522
  320MOL0     H44115   3.977   2.460   2.470  1.5676 -1.4017  1.6270
  320MOL0     H44116   3.813   2.644   2.638 -0.2138 -0.5089 -0.0473
  320MOL0     H44117   3.780   2.583   2.466 -3.0374 -1.3665  0.3341
  320MOL0     H44118   3.634   2.227   2.692 -0.4547 -0.1008  3.5071
  320MOL0     H44119   3.372   2.150   2.906  1.4275  1.2722  0.4016
  320MOL0     H44120   3.517   2.103   2.815  0.5094  0.1995  3.2201
  320MOL0     H44121   3.363   2.112   2.732  2.6598 -1.4399 -0.6594
  320MOL0     H44122   3.158   2.491   3.120  1.8563  3.1821 -5.4509
  320MOL0     H44123   2.940   2.449   3.257  0.9618 -2.5238  0.3684
  320MOL0     H44124   2.727   2.368   3.333  0.7444  1.7926  0.9886
  320MOL0     H44125   2.690   2.544   3.304 -1.8368  1.0118 -1.9541
  320MOL0     H44126   2.468   2.507   3.249  0.6357 -1.2427 -4.0093
  320MOL0     H44127   2.495   2.331   3.224  1.0097  0.1542 -1.1878
  320MOL0     H44128   2.395   2.484   3.458  2.1331  1.6317  2.4049
  320MOL0     H44129   2.536   2.397   3.507  0.9861 -1.7519 -0.2360
  320MOL0     H44130   2.483   2.197   3.411 -1.0488  0.8629 -2.1448
  320MOL0     H44131   2.327   2.226   3.347 -0.5451  2.5267 -0.7832
  320MOL0     H44132   2.247   2.298   3.581  1.4128  1.6538  0.4306
  320MOL0     H44133   2.266   2.132   3.544 -2.2036  1.0422 -0.2049
  320MOL0     H44134   2.351   2.194   3.764  0.0209  1.7593  0.0404
  320MOL0     H44135   2.467   2.302   3.690 -1.5979  0.2354 -1.6598
  320MOL0     H44136   2.567   2.098   3.572  2.4267 -4.3964  0.9762
  320MOL0     H44137   2.474   2.007   3.685 -0.3445 -0.3260 -2.4389
  320MOL0     H44138   2.706   2.191   3.749  1.8029 -0.6940 -0.6930
  320MOL0     H44139   2.692   2.020   3.789 -0.5863  0.1355  2.2690
  320MOL0     H44140   2.713   2.439   2.896 -0.7409 -2.1066 -0.0360
  320MOL0     H44141   2.948   2.495   2.765  0.2969 -1.5903  0.8490
  320MOL0     H44142   3.341   2.623   2.714 -2.6255 -2.5618 -1.3976
  320MOL0     H44143   3.551   2.638   2.621  1.0884  1.1218  1.4357
  320MOL0     H44144   3.243   2.150   3.091 -1.2203  0.4239 -0.2772
  320MOL0     H44145   2.997   2.146   3.095 -1.1896 -0.2559  1.0244
  320MOL0     H44146   2.665   1.807   3.457 -0.5779 -0.1300  0.4043
  320MOL0     H44147   2.424   1.784   3.452 -3.4689 -0.1214 -2.8134
  320MOL0     H44148   2.071   1.888   3.200 -0.3076  1.5854 -1.9843
  320MOL0     H44149   2.215   1.934   3.115  0.3175  1.8540  2.2817
  320MOL0     H44150   2.291   1.695   3.121 -0.9083 -0.2395 -0.4900
  320MOL0     H44151   2.143   1.708   3.028  0.1393 -3.0794 -0.0778
  320MOL0     H44152   2.139   1.640   3.327 -3.0434 -0.6562  0.7855
  320MOL0     H44153   2.002   1.634   3.229  0.5561  0.3841  1.6667
  320MOL0     H44154   2.252   1.459   3.226  0.7177 -0.4538 -3.6042
  320MOL0     H44155   2.134   1.463   3.090 -1.8413  0.3105  0.3890
  320MOL0     H44156   1.953   1.227   3.402  0.4694 -0.1419  0.2658
  320MOL0     H44157   2.383   2.021   3.102  0.0604  1.7967  0.9646
  320MOL0     H44158   2.679   2.187   3.099 -2.7724  0.7363  0.9346
  320MOL0     H44159   2.758   2.048   3.066  0.6116  1.2758  0.5508
  320MOL0     H44160   2.602   2.081   2.976 -0.5354  0.1132  0.9272
  321MOL0     O44161  10.316   8.066   8.849  0.8604  0.0325  0.4190
  321MOL0     C44162  10.340   7.947   8.826 -0.7861 -0.6261 -0.0610
  321MOL0     O44163  10.467   7.886   8.835 -0.1034 -0.2812  0.2942
  321MOL0     C44164  10.560   7.957   8.902  0.5665 -0.9762  0.0358
  321MOL0     C44165  10.684   7.944   8.857 -0.3117  0.0913 -0.9395
  321MOL0     C44166  10.781   8.011   8.924 -0.5738  0.6436  0.8276
  321MOL0     C44167  10.773   8.080   9.039 -0.0406  0.1173  0.1280
  321MOL0     O44168  10.876   8.130   9.109  0.2406 -0.4443  0.8911
  321MOL0     C44169  10.954   8.050   9.193 -0.3051  1.0768 -0.3306
  321MOL0     C44170  11.069   8.135   9.259 -0.8231 -0.2052  0.0331
  321MOL0     C44171  11.186   8.162   9.162 -1.5622 -0.5848  0.5902
  321MOL0     C44172  11.149   8.205   9.018  1.2338 -0.8288 -0.6109
  321MOL0     C44173  11.252   8.295   8.951 -1.0385 -0.3317  0.7989
  321MOL0     C44174  11.195   8.328   8.807 -0.0641  0.2352 -0.9639
  321MOL0     C44175  11.306   8.394   8.722  0.6123 -0.2320 -0.0780
  321MOL0     C44176  11.436   8.305   8.688  0.2411 -0.0821 -0.0672
  321MOL0     N44177  11.559   8.351   8.758  0.0783  0.2260  0.5344
  321MOL0     C44178  11.606   8.485   8.758 -0.0629  0.2368 -0.0999
  321MOL0     C44179  11.690   8.486   8.865 -1.1921 -1.0278 -0.0588
  321MOL0     C44180  11.782   8.600   8.914  0.4064  0.6937 -0.4412
  321MOL0     C44181  11.904   8.626   8.822  0.3580 -0.2981 -0.9631
  321MOL0     C44182  11.992   8.503   8.792 -0.0990 -0.1359  0.8095
  321MOL0     C44183  12.078   8.458   8.919  1.2758 -0.7997  0.0430
  321MOL0     O44184  12.186   8.375   8.872 -0.2256 -0.1103  0.5321
  321MOL0     C44185  12.286   8.382   8.956 -1.0163 -0.1537  0.0758
  321MOL0     C44186  12.416   8.407   8.904 -0.1518  0.0300  0.4466
  321MOL0     C44187  12.529   8.408   8.984 -0.1908 -0.3609 -0.9450
  321MOL0     C44188  12.661   8.432   8.929  0.0673  0.0031  0.3490
  321MOL0     C44189  12.508   8.389   9.124 -0.1860 -1.2847 -0.2481
  321MOL0     C44190  12.621   8.395   9.213  0.2169  0.6766 -0.0709
  321MOL0     O44191  12.716   8.487   9.190 -0.4183  0.3857  0.1590
  321MOL0     C44192  12.819   8.511   9.281  0.2372  0.1238 -0.2155
  321MOL0     C44193  12.824   8.640   9.333  0.1809 -0.1455 -0.4338
  321MOL0     C44194  12.927   8.676   9.427  0.7279 -0.9394  0.7588
  321MOL0     C44195  13.031   8.585   9.461 -0.8860 -0.2925  0.2460
  321MOL0     O44196  13.138   8.626   9.539 -0.6220  0.5782 -0.1501
  321MOL0     C44197  13.132   8.752   9.603 -0.0974  0.6013 -0.1207
  321MOL0     C44198  13.259   8.774   9.691 -0.0677 -0.0486  0.8933
  321MOL0     C44199  13.284   8.652   9.786  0.3474 -0.2043  0.2188
  321MOL0     C44200  13.416   8.676   9.874  1.2432 -0.3693  0.0420
  321MOL0     C44201  13.455   8.557   9.948  0.6103  0.9708  0.8314
  321MOL0     C44202  13.566   8.597  10.045  0.0251  0.9569  0.2552
  321MOL0     C44203  13.596   8.495  10.157 -0.1637  0.1940 -0.2952
  321MOL0     C44204  13.682   8.548  10.273  0.7705 -0.8163 -0.8048
  321MOL0    Cl44205  13.704   8.420  10.387 -0.1625 -0.3119  0.1084
  321MOL0     C44206  13.015   8.453   9.412  0.3162 -0.2906 -1.2089
  321MOL0     C44207  12.911   8.417   9.324 -0.9098 -0.8265  0.0260
  321MOL0     O44208  12.616   8.318   9.314 -0.1603 -0.4199  0.8608
  321MOL0     C44209  12.381   8.369   9.175  0.1912  0.3261  0.4851
  321MOL0     C44210  12.276   8.358   9.087  0.4822  0.3733  0.8335
  321MOL0     N44211  11.732   8.353   8.891  0.7785 -0.0958  0.0873
  321MOL0     N44212  11.635   8.275   8.849 -0.0892 -0.2312  0.2885
  321MOL0     C44213  10.644   8.080   9.091  0.3204 -0.1661 -0.9540
  321MOL0     C44214  10.538   8.033   9.011  0.2090 -0.1585 -0.9852
  321MOL0     C44215  10.227   7.858   8.772 -0.1613 -0.4610 -0.8510
  321MOL0     C44216  10.259   7.724   8.735  0.4374 -0.2554  0.3302
  321MOL0     C44217  10.178   7.643   8.656  0.2043  0.1417 -0.7391
  321MOL0     C44218  10.056   7.686   8.610  0.6511 -0.1571 -0.5594
  321MOL0     O44219   9.965   7.609   8.543 -0.7106 -0.1233 -0.6850
  321MOL0     C44220   9.931   7.661   8.415 -0.6640  0.5279  0.4462
  321MOL0     C44221   9.801   7.727   8.428  0.7396 -0.0448  0.2838
  321MOL0     C44222   9.681   7.636   8.431 -0.0791  0.1414  0.7091
  321MOL0     C44223   9.560   7.706   8.486  0.0565 -0.6709 -0.1695
  321MOL0     C44224   9.496   7.784   8.379 -0.2440 -0.5043 -0.0552
  321MOL0     C44225   9.454   7.854   8.289  0.5016 -0.3367 -0.7797
  321MOL0     C44226  10.012   7.815   8.671  0.7227  0.1629  0.2403
  321MOL0     C44227  10.094   7.899   8.742 -0.1361  0.6412 -0.0736
  321MOL0     C44228  10.056   8.034   8.789  0.3965  0.0808 -0.6428
  321MOL0     H44229  10.724   7.886   8.775 -1.2567 -0.8785 -0.7266
  321MOL0     H44230  10.878   7.995   8.877 -1.5838 -0.8990 -0.8751
  321MOL0     H44231  11.002   7.960   9.153 -0.1855  0.3685  1.3347
  321MOL0     H44232  10.883   8.020   9.271 -0.8255 -1.7490 -1.7469
  321MOL0     H44233  11.027   8.233   9.284 -0.3688  0.1337 -0.5038
  321MOL0     H44234  11.115   8.089   9.346  1.0459 -1.9872 -1.7704
  321MOL0     H44235  11.252   8.241   9.202  0.9135 -0.4094 -3.3170
  321MOL0     H44236  11.253   8.075   9.155 -1.2526 -0.6297  2.9790
  321MOL0     H44237  11.142   8.104   8.977  1.7424 -1.8140  1.5639
  321MOL0     H44238  11.053   8.257   9.019  1.9272  0.6263  2.3104
  321MOL0     H44239  11.348   8.244   8.945  0.7190  2.7834 -4.0504
  321MOL0     H44240  11.272   8.387   9.007  0.2124  1.8177 -2.7726
  321MOL0     H44241  11.153   8.237   8.762 -2.1024 -0.0508  1.3301
  321MOL0     H44242  11.112   8.399   8.818  0.3317  0.8679 -1.9153
  321MOL0     H44243  11.336   8.487   8.771 -1.1799  1.0048 -1.2219
  321MOL0     H44244  11.254   8.414   8.628 -0.7682 -1.1036  0.4614
  321MOL0     H44245  11.410   8.203   8.716 -0.4555  0.2850  0.6878
  321MOL0     H44246  11.449   8.304   8.580  1.2619 -2.3427  0.0397
  321MOL0     H44247  11.582   8.565   8.689  0.5855 -0.1379 -0.7806
  321MOL0     H44248  11.803   8.567   9.016 -0.0321  2.0202  0.0978
  321MOL0     H44249  11.715   8.686   8.922 -2.4360 -1.3657 -0.5889
  321MOL0     H44250  11.859   8.660   8.729 -0.8179  2.1821  0.4086
  321MOL0     H44251  11.960   8.715   8.851 -0.8481  0.3540 -0.5990
  321MOL0     H44252  11.937   8.419   8.748 -1.5738  0.5084  1.3521
  321MOL0     H44253  12.061   8.533   8.713 -2.3517 -1.0290 -1.6369
  321MOL0     H44254  12.104   8.553   8.967 -1.0437 -0.0968  0.0295
  321MOL0     H44255  12.006   8.409   8.985 -0.0347  1.0253  0.0443
  321MOL0     H44256  12.411   8.422   8.796  0.3600  1.3179  0.5895
  321MOL0     H44257  12.671   8.431   8.821 -0.6943  0.0820  0.2718
  321MOL0     H44258  12.731   8.359   8.972  0.6596  0.5514  0.3168
  321MOL0     H44259  12.692   8.532   8.960 -2.0814  1.0529 -0.7322
  321MOL0     H44260  12.746   8.709   9.300  0.3930 -0.3887 -1.4732
  321MOL0     H44261  12.934   8.782   9.449 -0.7012 -0.9287  1.2685
  321MOL0     H44262  13.132   8.840   9.538  1.1811  0.1575 -0.7475
  321MOL0     H44263  13.051   8.761   9.676 -1.3438  1.5342 -1.5489
  321MOL0     H44264  13.342   8.788   9.621 -1.5032  0.3456 -0.7978
  321MOL0     H44265  13.237   8.864   9.748  2.8175  0.5791  1.1726
  321MOL0     H44266  13.284   8.565   9.721 -3.1307  0.9934 -1.6439
  321MOL0     H44267  13.207   8.642   9.863 -0.8077 -4.5708 -1.2451
  321MOL0     H44268  13.387   8.754   9.945  0.2986 -0.1433 -0.5788
  321MOL0     H44269  13.490   8.715   9.803 -1.2804  2.2724 -1.3452
  321MOL0     H44270  13.371   8.521  10.008 -0.2021  0.4600 -0.5594
  321MOL0     H44271  13.487   8.485   9.873 -0.7229  1.2176 -0.0221
  321MOL0     H44272  13.536   8.689  10.097 -0.6625  1.6936 -1.3781
  321MOL0     H44273  13.656   8.627   9.991 -0.0869 -1.2862 -1.2816
  321MOL0     H44274  13.652   8.408  10.120  1.0893  0.9499 -0.2297
  321MOL0     H44275  13.499   8.464  10.196 -2.2461  3.6595 -2.2116
  321MOL0     H44276  13.635   8.636  10.320  0.3754  1.1162 -4.4762
  321MOL0     H44277  13.780   8.574  10.232  1.3997  1.3785  1.7754
  321MOL0     H44278  13.095   8.385   9.438 -1.1778 -1.1710  1.4488
  321MOL0     H44279  12.895   8.319   9.280  0.1954 -1.0915  0.1986
  321MOL0     H44280  12.376   8.351   9.282 -0.5577  1.9314  0.7431
  321MOL0     H44281  12.175   8.330   9.116 -0.6477  0.5717 -2.4499
  321MOL0     H44282  10.624   8.119   9.190 -3.2170 -1.0361 -1.2022
  321MOL0     H44283  10.443   8.053   9.060 -0.0928 -1.8832 -0.7952
  321MOL0     H44284  10.357   7.679   8.752 -0.2470 -1.8913  0.1521
  321MOL0     H44285  10.214   7.542   8.638 -1.3597 -0.6389  0.2281
  321MOL0     H44286   9.999   7.743   8.389  2.9164 -3.0677 -3.1147
  321MOL0     H44287   9.931   7.579   8.342 -2.2022 -0.2857  1.3072
  321MOL0     H44288   9.786   7.781   8.334 -2.0167  0.0796  0.6967
  321MOL0     H44289   9.802   7.803   8.507 -4.1469  2.3580 -1.5664
  321MOL0     H44290   9.669   7.591   8.332  1.4800 -0.5490  0.8156
  321MOL0     H44291   9.695   7.547   8.493 -0.6025 -0.3144  0.1776
  321MOL0     H44292   9.587   7.769   8.571 -3.6355  2.4047 -0.9695
  321MOL0     H44293   9.490   7.635   8.531  0.5109 -1.1510 -0.2213
  321MOL0     H44294   9.414   7.925   8.219 -0.7373 -2.0205 -1.8507
  321MOL0     H44295   9.912   7.855   8.671  0.4318 -0.3649  2.9085
  321MOL0     H44296  10.106   8.102   8.721 -0.0432  2.0107  0.8692
  321MOL0     H44297   9.948   8.053   8.778 -0.1937 -2.8975 -0.8183
  321MOL0     H44298  10.084   8.044   8.894  1.0093 -1.3426 -0.6458
  322MOL0     O44299   3.610   2.817   0.786  1.0167 -0.5135 -0.7032
  322MOL0     C44300   3.527   2.889   0.728 -1.0220 -0.2828 -0.8978
  322MOL0     O44301   3.541   2.948   0.606 -0.1357  0.6595  1.0142
  322MOL0     C44302   3.657   2.909   0.541  0.4263 -0.1382  0.4469
  322MOL0     C44303   3.736   3.009   0.483  1.2061 -0.4275 -0.0392
  322MOL0     C44304   3.852   2.973   0.412 -0.6397  1.7470  0.7144
  322MOL0     C44305   3.899   2.843   0.408 -0.0954 -0.0372  0.0801
  322MOL0     O44306   4.024   2.808   0.368  0.3515  0.1775  0.3063
  322MOL0     C44307   4.137   2.899   0.366 -0.3062 -0.1312  0.2474
  322MOL0     C44308   4.150   2.987   0.240  0.7080 -0.0352  1.1851
  322MOL0     C44309   4.208   2.937   0.112  0.0526  0.3682 -0.4958
  322MOL0     C44310   4.358   2.901   0.134 -0.5025 -0.3008 -0.3447
  322MOL0     C44311   4.425   2.889  -0.002 -0.1102 -0.5818 -0.0425
  322MOL0     C44312   4.573   2.863   0.028  0.1740 -0.1745  0.5177
  322MOL0     C44313   4.637   2.820  -0.103 -0.1824 -0.1709 -0.3408
  322MOL0     C44314   4.790   2.798  -0.076 -0.4483 -0.3553 -0.2227
  322MOL0     N44315   4.852   2.784  -0.206 -0.3229 -0.3123 -0.1309
  322MOL0     C44316   4.844   2.666  -0.280 -1.0643 -0.7190 -0.0534
  322MOL0     C44317   4.900   2.707  -0.398 -0.4285  0.9659 -1.1357
  322MOL0     C44318   4.930   2.614  -0.516 -0.5247 -0.5579 -0.1338
  322MOL0     C44319   5.031   2.500  -0.510  0.5581 -1.5562  0.2600
  322MOL0     C44320   5.064   2.438  -0.651 -0.4623  0.2486  0.2649
  322MOL0     C44321   4.945   2.369  -0.716 -0.4239  0.5895 -0.3838
  322MOL0     O44322   4.899   2.279  -0.611 -0.0467 -0.8720  0.1955
  322MOL0     C44323   4.802   2.187  -0.641 -0.1181 -0.7921 -0.5484
  322MOL0     C44324   4.767   2.096  -0.537  0.4276  0.1825  0.4473
  322MOL0     C44325   4.666   2.003  -0.554  0.0546  1.0088 -0.2622
  322MOL0     C44326   4.644   1.903  -0.432 -0.3107  0.0724  0.0752
  322MOL0     C44327   4.611   1.981  -0.685  0.2774  0.7197 -0.2330
  322MOL0     C44328   4.529   1.859  -0.716  0.3075 -0.4732  0.5800
  322MOL0     O44329   4.419   1.881  -0.795 -0.2359  0.7256  0.9861
  322MOL0     C44330   4.332   1.788  -0.839  0.3127 -0.0305  0.4194
  322MOL0     C44331   4.383   1.677  -0.911 -0.6267 -0.3734 -0.1302
  322MOL0     C44332   4.305   1.564  -0.940 -0.6965  0.5705  0.5246
  322MOL0     C44333   4.164   1.561  -0.904 -0.1759  0.2588 -0.2175
  322MOL0     O44334   4.084   1.453  -0.930 -0.2871  0.7009  0.2171
  322MOL0     C44335   4.148   1.329  -0.881 -0.2667  0.0684  0.3763
  322MOL0     C44336   4.100   1.275  -0.746 -0.0914  0.5263 -0.9824
  322MOL0     C44337   3.947   1.243  -0.750  0.3340  0.7416  0.1882
  322MOL0     C44338   3.914   1.247  -0.598  0.1848 -0.3797  0.7178
  322MOL0     C44339   3.793   1.159  -0.564  0.8909 -0.4537 -0.6542
  322MOL0     C44340   3.745   1.179  -0.425  0.1640 -0.0780  0.3280
  322MOL0     C44341   3.667   1.051  -0.385  0.1589 -0.3989 -0.2279
  322MOL0     C44342   3.587   1.076  -0.265  0.1318  0.1989  0.8780
  322MOL0    Cl44343   3.700   1.115  -0.134  0.2831 -0.1437  0.3934
  322MOL0     C44344   4.112   1.674  -0.846 -0.3043 -0.1978  0.1603
  322MOL0     C44345   4.194   1.785  -0.811 -0.1901 -0.3265 -0.3921
  322MOL0     O44346   4.559   1.758  -0.660  0.5649  0.1612 -0.4009
  322MOL0     C44347   4.644   2.068  -0.789  0.3007 -0.2385 -0.0970
  322MOL0     C44348   4.742   2.173  -0.764  0.8906  0.5396 -0.2967
  322MOL0     N44349   4.937   2.837  -0.385  0.6734  0.0811  0.3886
  322MOL0     N44350   4.916   2.885  -0.272  0.5650  0.3847 -0.9930
  322MOL0     C44351   3.818   2.744   0.469 -0.0484 -0.5042 -0.1464
  322MOL0     C44352   3.690   2.773   0.521 -0.2228 -0.6225  0.8691
  322MOL0     C44353   3.403   2.929   0.804 -0.9882  0.6156  0.0744
  322MOL0     C44354   3.304   3.001   0.741  0.6534 -0.4957  0.1261
  322MOL0     C44355   3.184   3.037   0.796  0.3330 -0.2208 -0.6483
  322MOL0     C44356   3.154   2.991   0.933  0.1344  0.5318  0.0590
  322MOL0     O44357   3.032   3.006   1.003 -0.2074  0.4785 -0.1317
  322MOL0     C44358   2.917   3.067   0.927 -0.2130  0.4013 -0.6790
  322MOL0     C44359   2.926   3.225   0.907 -0.2188  0.4664  0.0097
  322MOL0     C44360   2.832   3.251   0.788 -1.3354  0.0422  0.0673
  322MOL0     C44361   2.684   3.240   0.833 -1.2021 -0.6260 -0.0746
  322MOL0     C44362   2.608   3.319   0.746  0.4806  0.3811  0.0325
  322MOL0     C44363   2.557   3.397   0.665  0.0011  0.1583  0.6974
  322MOL0     C44364   3.258   2.934   0.999 -0.0302 -0.4664 -0.7822
  322MOL0     C44365   3.378   2.898   0.943 -0.2234  0.9343 -0.1096
  322MOL0     C44366   3.480   2.835   1.038 -0.7296 -0.4753  1.1195
  322MOL0     H44367   3.700   3.111   0.483 -3.0835 -1.5990  3.8505
  322MOL0     H44368   3.910   3.053   0.366 -0.3935  1.9569  1.3766
  322MOL0     H44369   4.228   2.838   0.367 -1.0167 -1.3172 -1.4357
  322MOL0     H44370   4.135   2.969   0.450  1.7794 -0.8455  0.9457
  322MOL0     H44371   4.049   3.019   0.213  0.6403 -0.0883  1.3800
  322MOL0     H44372   4.205   3.078   0.264  0.8103  0.1377  0.3561
  322MOL0     H44373   4.159   2.840   0.098 -0.1557  0.4263 -0.1864
  322MOL0     H44374   4.194   3.007   0.029  1.4900  2.2263  0.7402
  322MOL0     H44375   4.407   2.978   0.194 -0.2782 -1.7584  1.4050
  322MOL0     H44376   4.364   2.811   0.196  1.0735  0.7636  1.1116
  322MOL0     H44377   4.416   2.984  -0.055  1.9299  0.0238  0.6050
  322MOL0     H44378   4.380   2.805  -0.056  0.3721 -0.9897  0.1789
  322MOL0     H44379   4.623   2.954   0.063 -1.3301  0.6414  0.6171
  322MOL0     H44380   4.581   2.777   0.095  0.1994 -0.0406  0.6857
  322MOL0     H44381   4.624   2.909  -0.165 -1.7801  2.2278  3.0854
  322MOL0     H44382   4.586   2.736  -0.150  0.5034 -0.1229 -1.1852
  322MOL0     H44383   4.826   2.884  -0.020 -2.5378 -0.0306  0.7124
  322MOL0     H44384   4.794   2.709  -0.013 -0.9918  1.0838  1.9394
  322MOL0     H44385   4.844   2.573  -0.224  0.5901  1.5158  4.1154
  322MOL0     H44386   4.955   2.681  -0.598 -3.8325 -1.6297 -2.1880
  322MOL0     H44387   4.833   2.572  -0.544  0.6099 -2.9783 -0.7561
  322MOL0     H44388   5.126   2.544  -0.480 -0.5160  0.5096  0.7873
  322MOL0     H44389   4.998   2.424  -0.438  1.7726  0.0560  2.6602
  322MOL0     H44390   5.093   2.521  -0.717 -1.3260  0.2557 -0.1083
  322MOL0     H44391   5.146   2.366  -0.650 -0.1232  0.5608 -1.6157
  322MOL0     H44392   4.876   2.449  -0.746  1.5554  2.2020 -0.8936
  322MOL0     H44393   4.976   2.324  -0.811 -0.2629 -1.2036  0.4802
  322MOL0     H44394   4.814   2.113  -0.440  1.0542 -0.2781  0.2277
  322MOL0     H44395   4.645   1.957  -0.337  0.6015 -1.5642  1.0230
  322MOL0     H44396   4.715   1.821  -0.422 -2.9794 -2.1680  1.8313
  322MOL0     H44397   4.545   1.861  -0.447 -0.2525 -0.9719  2.2946
  322MOL0     H44398   4.491   1.674  -0.924 -0.6790 -0.4432 -0.5620
  322MOL0     H44399   4.350   1.482  -0.994  0.8707  1.4321  0.4594
  322MOL0     H44400   4.124   1.257  -0.960  2.5562  1.3132 -1.8053
  322MOL0     H44401   4.256   1.345  -0.879 -0.4803  2.3283 -1.6618
  322MOL0     H44402   4.159   1.188  -0.715 -3.8175 -1.3516  1.7046
  322MOL0     H44403   4.109   1.352  -0.669 -0.5038 -1.4364  1.1700
  322MOL0     H44404   3.925   1.141  -0.785 -4.0390 -0.1408  4.3302
  322MOL0     H44405   3.891   1.315  -0.810  1.6021  0.1684 -1.7795
  322MOL0     H44406   3.899   1.349  -0.561  1.7364 -0.5161  1.8262
  322MOL0     H44407   4.005   1.213  -0.549  3.3055  3.5476 -1.7159
  322MOL0     H44408   3.711   1.187  -0.632  0.4364  0.3079  0.1897
  322MOL0     H44409   3.814   1.051  -0.568  2.1112 -0.2612  0.1532
  322MOL0     H44410   3.676   1.262  -0.442 -0.6631 -0.6385  0.8351
  322MOL0     H44411   3.827   1.187  -0.354  0.6322  1.3083 -0.3512
  322MOL0     H44412   3.737   0.968  -0.369 -0.9693 -1.8625 -2.2970
  322MOL0     H44413   3.598   1.032  -0.468 -1.5695  0.7764  0.8916
  322MOL0     H44414   3.533   0.987  -0.234  0.1911  0.5449  1.9953
  322MOL0     H44415   3.515   1.158  -0.271  0.1560  0.4395  3.1908
  322MOL0     H44416   4.009   1.665  -0.815 -0.2506 -3.1092 -0.2417
  322MOL0     H44417   4.161   1.876  -0.760 -0.3067  0.4895 -1.8786
  322MOL0     H44418   4.588   2.066  -0.882 -0.8171 -1.8181  0.5839
  322MOL0     H44419   4.768   2.249  -0.837  0.2385  2.0674  0.9973
  322MOL0     H44420   3.849   2.641   0.452  0.4778 -0.5462  0.9772
  322MOL0     H44421   3.629   2.688   0.550  1.3436 -1.8862  0.6025
  322MOL0     H44422   3.315   3.029   0.637 -0.3627 -1.9654 -0.4120
  322MOL0     H44423   3.112   3.086   0.730  1.0492  2.0589  0.1863
  322MOL0     H44424   2.915   3.018   0.829 -0.4708  0.5134 -0.7291
  322MOL0     H44425   2.832   3.043   0.991  1.8940  0.2767  2.2698
  322MOL0     H44426   3.030   3.252   0.888  1.3092 -2.2719  3.4601
  322MOL0     H44427   2.901   3.277   1.001  1.3740  0.0348  0.7047
  322MOL0     H44428   2.851   3.355   0.760  0.9097 -0.3181  0.0961
  322MOL0     H44429   2.853   3.189   0.700  1.1700  2.5080 -1.2350
  322MOL0     H44430   2.661   3.273   0.935 -1.1915 -1.5818  0.2514
  322MOL0     H44431   2.657   3.134   0.835  2.9393 -1.8376  0.0920
  322MOL0     H44432   2.497   3.450   0.593  1.3277 -2.2497 -2.4371
  322MOL0     H44433   3.231   2.895   1.096  0.3212 -0.6843 -0.7698
  322MOL0     H44434   3.576   2.886   1.034 -0.5977 -0.7898 -0.1704
  322MOL0     H44435   3.449   2.850   1.142 -0.2039  2.3729  0.9533
  322MOL0     H44436   3.492   2.729   1.013  2.1292 -0.1651  0.8228
  323MOL0     O44437  11.262   7.428   6.978 -0.1390 -0.4957 -0.3694
  323MOL0     C44438  11.300   7.520   7.047  0.1250 -0.2513  0.2363
  323MOL0     O44439  11.220   7.594   7.125 -0.9883  1.0546  0.1281
  323MOL0     C44440  11.084   7.592   7.132  0.5957  0.0641 -0.3039
  323MOL0     C44441  11.029   7.617   7.266  0.1430 -0.4043  0.1683
  323MOL0     C44442  10.893   7.617   7.287 -0.1312  0.6171 -0.9939
  323MOL0     C44443  10.800   7.588   7.191  0.1803 -0.1212  0.4500
  323MOL0     O44444  10.660   7.573   7.192 -0.4557  0.2771  0.4851
  323MOL0     C44445  10.594   7.617   7.312  0.8530  0.6514 -0.0970
  323MOL0     C44446  10.447   7.606   7.290  0.0120 -0.1263  0.0460
  323MOL0     C44447  10.361   7.556   7.405  0.8802 -0.2484 -0.1050
  323MOL0     C44448  10.231   7.535   7.346  0.9317  0.4066 -0.2871
  323MOL0     C44449  10.122   7.500   7.453 -0.6940  0.6633  0.1036
  323MOL0     C44450   9.982   7.482   7.391  0.2078 -0.5581  0.2626
  323MOL0     C44451   9.869   7.507   7.500 -1.2481  0.3195 -0.2393
  323MOL0     C44452   9.797   7.636   7.514 -0.0214  0.2147  0.2161
  323MOL0     N44453   9.882   7.757   7.525  0.3667 -0.0993 -0.5031
  323MOL0     C44454   9.962   7.805   7.425 -0.3054 -1.4461 -0.4675
  323MOL0     C44455   9.978   7.940   7.463  0.6279  0.0658 -0.1210
  323MOL0     C44456  10.046   8.048   7.391  0.1627 -0.4732  0.4557
  323MOL0     C44457  10.194   8.066   7.419  0.0310  0.0780  0.7176
  323MOL0     C44458  10.259   7.926   7.386 -0.5466 -0.8954  0.1789
  323MOL0     C44459  10.420   7.954   7.393  0.2098  0.3018  0.2926
  323MOL0     O44460  10.481   8.008   7.276 -0.1204  0.3392 -0.0279
  323MOL0     C44461  10.608   8.047   7.280 -0.4220  0.3538  0.1156
  323MOL0     C44462  10.659   8.114   7.168 -0.2460  0.1118 -0.6186
  323MOL0     C44463  10.795   8.141   7.152 -0.0705  0.7265 -0.5819
  323MOL0     C44464  10.838   8.191   7.018  0.6484 -0.6914 -0.4103
  323MOL0     C44465  10.886   8.108   7.253  0.2970  0.1172  0.6163
  323MOL0     C44466  11.034   8.126   7.245 -0.9585  0.5509  0.0367
  323MOL0     O44467  11.106   8.070   7.341  0.9269  0.0835  0.0439
  323MOL0     C44468  11.239   8.098   7.356  0.4123  0.3100  0.2895
  323MOL0     C44469  11.276   8.230   7.373 -0.3623  0.3260 -0.9310
  323MOL0     C44470  11.409   8.255   7.392  0.2582 -0.8582 -0.1850
  323MOL0     C44471  11.507   8.150   7.398  0.6836 -0.1136  0.1448
  323MOL0     O44472  11.642   8.172   7.421  0.4714 -0.3126 -0.5065
  323MOL0     C44473  11.687   8.308   7.380  0.7530  0.2839 -0.8944
  323MOL0     C44474  11.828   8.276   7.348 -0.1805  0.3437 -0.4765
  323MOL0     C44475  11.903   8.387   7.277  0.3152 -0.4438  0.3796
  323MOL0     C44476  12.042   8.347   7.228  0.1652  0.0573 -0.2943
  323MOL0     C44477  12.093   8.439   7.119 -0.6440  0.2511  0.6025
  323MOL0     C44478  12.233   8.390   7.080  0.0587  0.5703 -0.0838
  323MOL0     C44479  12.304   8.485   6.978  0.3936  0.5464 -0.5159
  323MOL0     C44480  12.435   8.534   7.018 -0.2169  0.2196  0.0892
  323MOL0    Cl44481  12.419   8.650   7.144 -0.1504 -0.1331  0.0763
  323MOL0     C44482  11.464   8.015   7.397  0.3709 -0.7951 -0.4727
  323MOL0     C44483  11.327   7.988   7.376  0.4927 -0.5757  1.1630
  323MOL0     O44484  11.082   8.203   7.157 -0.2422  0.0124 -0.6896
  323MOL0     C44485  10.834   8.032   7.365 -0.4131  0.0356 -0.2928
  323MOL0     C44486  10.700   7.998   7.370 -0.5377  0.5762  0.2017
  323MOL0     N44487   9.941   7.951   7.596 -0.2340 -0.0461 -0.4720
  323MOL0     N44488   9.886   7.844   7.626  0.0504  0.1965 -0.4227
  323MOL0     C44489  10.846   7.566   7.062  0.7102 -0.0705  0.8091
  323MOL0     C44490  10.987   7.564   7.030  0.2346  0.3039  0.2984
  323MOL0     C44491  11.443   7.550   7.051 -0.6739  0.0499  0.3372
  323MOL0     C44492  11.542   7.443   7.030  1.5021  0.9037  0.1400
  323MOL0     C44493  11.679   7.467   7.042  0.5061  0.1242  0.5696
  323MOL0     C44494  11.726   7.593   7.062  0.2575  0.0958 -0.3412
  323MOL0     O44495  11.857   7.618   7.087  0.5526  0.0466  0.7304
  323MOL0     C44496  11.957   7.517   7.069 -0.3108 -1.4577  0.8352
  323MOL0     C44497  12.102   7.574   7.097 -0.2953 -0.0167  0.2351
  323MOL0     C44498  12.136   7.530   7.245 -1.0340 -0.5864 -0.6495
  323MOL0     C44499  12.279   7.564   7.291  0.4674  0.2186 -0.2523
  323MOL0     C44500  12.298   7.468   7.399 -0.0625  1.0607  0.5988
  323MOL0     C44501  12.294   7.400   7.500 -0.2896 -0.4420  1.0310
  323MOL0     C44502  11.630   7.699   7.065 -0.4806  0.0556 -0.0356
  323MOL0     C44503  11.492   7.684   7.059  0.6824  0.1141  0.2352
  323MOL0     C44504  11.398   7.804   7.077  0.3401  0.4824  1.1249
  323MOL0     H44505  11.092   7.643   7.350 -2.0842 -0.4053  1.9399
  323MOL0     H44506  10.856   7.621   7.388  1.7646  1.0742 -0.2649
  323MOL0     H44507  10.615   7.724   7.321  1.0652  0.6529 -0.5616
  323MOL0     H44508  10.626   7.557   7.397 -2.4898 -1.9026 -0.4207
  323MOL0     H44509  10.404   7.704   7.267 -0.8178 -0.6688 -0.7702
  323MOL0     H44510  10.432   7.547   7.199  1.6096  0.8887 -0.9355
  323MOL0     H44511  10.398   7.467   7.457  1.0552 -1.9981 -3.0262
  323MOL0     H44512  10.368   7.636   7.479  0.7849 -1.1487  0.9065
  323MOL0     H44513  10.204   7.620   7.283 -1.9087 -0.6996 -0.7052
  323MOL0     H44514  10.232   7.440   7.291 -2.9153  0.2605 -0.3403
  323MOL0     H44515  10.124   7.570   7.537 -1.8342  0.3784  0.3810
  323MOL0     H44516  10.144   7.403   7.499 -0.8553  1.4136  1.8396
  323MOL0     H44517   9.977   7.553   7.308  0.1370 -1.4787 -0.5466
  323MOL0     H44518   9.974   7.381   7.348 -0.2534 -1.1728  1.7245
  323MOL0     H44519   9.912   7.492   7.600  2.0656 -1.7628 -1.8163
  323MOL0     H44520   9.798   7.426   7.480  0.0446 -1.0727  0.6240
  323MOL0     H44521   9.734   7.653   7.426 -0.5696 -0.7446  0.4076
  323MOL0     H44522   9.733   7.625   7.602  0.1473 -1.4616  0.1673
  323MOL0     H44523   9.985   7.754   7.332  0.1527 -0.4913 -0.8932
  323MOL0     H44524  10.010   8.147   7.423  1.4657 -0.8232  3.3712
  323MOL0     H44525  10.025   8.021   7.288 -4.4745 -3.2375  1.8406
  323MOL0     H44526  10.217   8.150   7.353 -1.1400 -1.2805 -1.5731
  323MOL0     H44527  10.210   8.099   7.522 -0.2727  4.0144 -0.3611
  323MOL0     H44528  10.223   7.849   7.455  0.4710  2.0267  4.3777
  323MOL0     H44529  10.251   7.887   7.284  3.6258  0.2350 -0.7801
  323MOL0     H44530  10.429   8.027   7.475  3.2316 -0.5160  0.8096
  323MOL0     H44531  10.461   7.857   7.421 -0.5279 -0.4946 -1.3139
  323MOL0     H44532  10.583   8.147   7.099  2.5933  2.1711 -3.0264
  323MOL0     H44533  10.877   8.102   6.968 -1.7574 -1.9544 -0.1597
  323MOL0     H44534  10.918   8.266   7.017  1.9585 -2.0226 -2.1147
  323MOL0     H44535  10.757   8.218   6.950  1.3056  1.6945 -0.3524
  323MOL0     H44536  11.200   8.305   7.354 -0.2068  0.4055 -1.2564
  323MOL0     H44537  11.440   8.359   7.396 -0.0345 -0.8130  1.8474
  323MOL0     H44538  11.642   8.359   7.294 -1.6962  2.3778  1.4750
  323MOL0     H44539  11.673   8.388   7.453  1.7673  0.0910 -0.4766
  323MOL0     H44540  11.872   8.239   7.441 -0.6060  1.8016  0.3415
  323MOL0     H44541  11.828   8.195   7.274  1.3275  1.1184 -1.3888
  323MOL0     H44542  11.919   8.479   7.334 -0.1758  2.0279 -3.1334
  323MOL0     H44543  11.848   8.430   7.193  1.9758  4.3887  1.4091
  323MOL0     H44544  12.045   8.240   7.207 -1.0088 -0.0972  0.2379
  323MOL0     H44545  12.110   8.370   7.311 -0.4431  1.0741 -0.0536
  323MOL0     H44546  12.029   8.425   7.032  1.3992 -0.4189 -0.8673
  323MOL0     H44547  12.121   8.539   7.156  1.6265  0.5379 -1.5920
  323MOL0     H44548  12.224   8.291   7.033 -1.2292 -1.1578  3.4332
  323MOL0     H44549  12.293   8.374   7.170  1.1857  0.2383 -0.8696
  323MOL0     H44550  12.243   8.574   6.960 -2.8028 -1.8030 -2.3284
  323MOL0     H44551  12.315   8.436   6.881  1.2926 -1.2407  0.4406
  323MOL0     H44552  12.474   8.587   6.930 -2.0728 -1.4633 -1.8250
  323MOL0     H44553  12.507   8.459   7.053  0.0846 -0.1495 -1.2799
  323MOL0     H44554  11.542   7.939   7.404  1.3970  0.1152 -1.5541
  323MOL0     H44555  11.287   7.888   7.370 -0.1387 -0.6124  4.3254
  323MOL0     H44556  10.901   7.994   7.440 -1.0038 -1.4929 -0.4862
  323MOL0     H44557  10.668   7.949   7.461  1.2772 -1.0730  0.0125
  323MOL0     H44558  10.776   7.552   6.981  1.7272 -0.3600 -0.0423
  323MOL0     H44559  11.017   7.528   6.932  0.5794 -2.1950  1.2445
  323MOL0     H44560  11.504   7.343   7.010  2.0976  1.4746 -4.9881
  323MOL0     H44561  11.750   7.385   7.039  0.7145  0.1859 -4.6847
  323MOL0     H44562  11.943   7.430   7.134 -1.6373 -0.8155  1.4542
  323MOL0     H44563  11.946   7.493   6.963 -0.8923  1.1430  0.2505
  323MOL0     H44564  12.108   7.682   7.079 -0.2827 -0.0894 -0.1941
  323MOL0     H44565  12.170   7.520   7.031 -0.4728 -1.6904  1.3544
  323MOL0     H44566  12.068   7.583   7.313  1.1679  0.6120  0.7239
  323MOL0     H44567  12.118   7.422   7.253 -0.7974 -0.5811  0.0167
  323MOL0     H44568  12.283   7.671   7.313 -6.3705  0.8980 -0.2097
  323MOL0     H44569  12.342   7.537   7.206 -1.6399 -0.8449 -1.5831
  323MOL0     H44570  12.288   7.350   7.595 -3.6829 -4.8011 -1.1459
  323MOL0     H44571  11.658   7.801   7.091  0.5112 -0.5870  1.5465
  323MOL0     H44572  11.386   7.825   7.183 -0.6325  0.7754  0.9638
  323MOL0     H44573  11.439   7.898   7.037 -1.7375 -0.5787 -4.4190
  323MOL0     H44574  11.304   7.796   7.022  1.9041 -1.5108 -1.5227
  324MOL0     O44575  10.817   3.592   6.562  0.8381 -0.0928 -0.3575
  324MOL0     C44576  10.762   3.564   6.673  0.8945  0.2840  0.3488
  324MOL0     O44577  10.818   3.570   6.800 -0.6652  0.3748 -0.2128
  324MOL0     C44578  10.939   3.629   6.808 -0.0361  0.4481  0.8793
  324MOL0     C44579  10.960   3.759   6.769  0.2731 -0.3730 -0.4877
  324MOL0     C44580  11.083   3.825   6.774 -0.4242  0.4383 -0.1385
  324MOL0     C44581  11.193   3.769   6.840 -0.2617 -0.3351  0.2100
  324MOL0     O44582  11.319   3.823   6.862 -0.1467  0.2322  0.1085
  324MOL0     C44583  11.365   3.934   6.784 -0.4324  0.2785  0.2202
  324MOL0     C44584  11.464   4.016   6.864 -0.0549 -0.1478 -0.0932
  324MOL0     C44585  11.421   4.046   7.010 -0.1739  0.5402 -0.3487
  324MOL0     C44586  11.487   4.181   7.058  0.1716 -0.6805 -0.4073
  324MOL0     C44587  11.459   4.223   7.203 -0.2784 -0.8195 -0.2534
  324MOL0     C44588  11.501   4.372   7.235  0.1795  0.0621  0.3110
  324MOL0     C44589  11.464   4.413   7.377 -0.0255  0.5821 -1.2299
  324MOL0     C44590  11.321   4.459   7.382 -1.2678 -0.2889 -0.3622
  324MOL0     N44591  11.303   4.586   7.307  0.3841 -0.3392 -0.1214
  324MOL0     C44592  11.367   4.713   7.313  0.3813 -0.5152 -0.0608
  324MOL0     C44593  11.297   4.799   7.242  0.1988 -0.2848 -0.4424
  324MOL0     C44594  11.327   4.949   7.229  0.6139 -0.1686  0.1546
  324MOL0     C44595  11.370   4.967   7.081  0.2468 -0.5801 -0.7667
  324MOL0     C44596  11.505   4.912   7.046 -0.0078 -0.6383 -0.2625
  324MOL0     C44597  11.617   4.981   7.116 -0.9810  0.4076 -0.3522
  324MOL0     O44598  11.720   4.891   7.077 -0.0118  0.3320  0.3336
  324MOL0     C44599  11.850   4.934   7.102  0.0211 -0.0562 -0.2164
  324MOL0     C44600  11.947   4.869   7.035 -0.2298  1.1690 -0.6400
  324MOL0     C44601  12.085   4.899   7.054  0.7463 -0.4092  0.4831
  324MOL0     C44602  12.169   4.804   6.981  0.8708  0.0147  0.7757
  324MOL0     C44603  12.127   5.011   7.135  0.1507  0.0560  0.2679
  324MOL0     C44604  12.268   5.055   7.149  0.4766  0.6606  0.5503
  324MOL0     O44605  12.356   5.019   7.047 -0.2574 -0.4231 -0.5037
  324MOL0     C44606  12.491   5.040   7.058 -0.4923 -0.1819  1.7159
  324MOL0     C44607  12.556   5.055   6.929 -1.1377  0.3621  0.7039
  324MOL0     C44608  12.693   5.085   6.912  0.6692  0.2329  0.6653
  324MOL0     C44609  12.766   5.101   7.028 -0.1938  0.8629  0.2348
  324MOL0     O44610  12.901   5.132   6.999  0.6391 -0.1258  0.7889
  324MOL0     C44611  12.979   5.187   7.112  0.8283 -0.0981  0.1520
  324MOL0     C44612  13.092   5.275   7.069 -0.1545  0.7219 -0.8302
  324MOL0     C44613  13.188   5.335   7.184 -0.6850  0.2824 -0.2999
  324MOL0     C44614  13.113   5.400   7.306  0.5336 -1.2958 -0.0148
  324MOL0     C44615  13.208   5.496   7.390 -1.3677  0.0099  0.0476
  324MOL0     C44616  13.122   5.549   7.504  0.1489  0.2876  1.0223
  324MOL0     C44617  13.072   5.686   7.481 -0.3627 -0.4259  0.4864
  324MOL0     C44618  12.920   5.700   7.507  0.3240  0.6423 -0.5262
  324MOL0    Cl44619  12.878   5.643   7.670 -0.2195 -0.2249  0.0468
  324MOL0     C44620  12.707   5.084   7.158 -1.6319  0.0876  0.5563
  324MOL0     C44621  12.571   5.051   7.165  0.4118  0.0744 -0.0574
  324MOL0     O44622  12.298   5.127   7.250  0.7233  0.4013  0.1825
  324MOL0     C44623  12.027   5.075   7.204  0.1773  0.0603  0.2359
  324MOL0     C44624  11.893   5.030   7.198  0.8229 -1.4595  0.1055
  324MOL0     N44625  11.194   4.729   7.186 -0.2516 -0.6471 -0.3913
  324MOL0     N44626  11.205   4.603   7.218  0.1720  0.6942  0.0559
  324MOL0     C44627  11.183   3.643   6.894  0.5319  0.2653  0.2003
  324MOL0     C44628  11.054   3.570   6.872  0.0311 -1.0591 -0.3297
  324MOL0     C44629  10.620   3.542   6.667  0.1363 -0.9087 -0.0669
  324MOL0     C44630  10.538   3.606   6.766 -0.8302 -0.0482  0.5120
  324MOL0     C44631  10.400   3.608   6.757  0.8653  0.9875  0.6890
  324MOL0     C44632  10.338   3.539   6.648  0.7939  0.4956 -0.8847
  324MOL0     O44633  10.200   3.524   6.630 -0.4126 -0.3326 -0.1215
  324MOL0     C44634  10.115   3.617   6.687 -0.3276  0.1986 -0.0257
  324MOL0     C44635   9.970   3.581   6.658 -0.2302  0.2100  0.2254
  324MOL0     C44636   9.921   3.455   6.727  0.2819 -0.7679  0.4431
  324MOL0     C44637   9.795   3.386   6.673  0.5167  0.9494  0.2933
  324MOL0     C44638   9.671   3.452   6.705 -0.0698  0.0519  0.3448
  324MOL0     C44639   9.563   3.497   6.740  0.4139 -0.3528 -0.1432
  324MOL0     C44640  10.417   3.469   6.554  0.6229 -0.3460 -0.2665
  324MOL0     C44641  10.554   3.472   6.566 -0.4554  1.0967  0.1880
  324MOL0     C44642  10.642   3.380   6.478 -0.5687  0.1049 -0.1957
  324MOL0     H44643  10.869   3.801   6.729 -2.4187 -2.6247  2.7203
  324MOL0     H44644  11.096   3.923   6.729  1.7888 -0.3050 -1.2760
  324MOL0     H44645  11.277   3.997   6.771 -1.2421 -1.0214 -0.9406
  324MOL0     H44646  11.413   3.907   6.690 -0.3475  2.6347 -0.4642
  324MOL0     H44647  11.564   3.972   6.872 -0.5906 -1.1176  1.6678
  324MOL0     H44648  11.477   4.104   6.800  2.3315 -2.5091 -3.1798
  324MOL0     H44649  11.313   4.060   7.013 -0.0055  2.0810 -0.6663
  324MOL0     H44650  11.447   3.960   7.072  2.6356  2.1866  1.0194
  324MOL0     H44651  11.594   4.197   7.045  0.3093  2.5990  3.0680
  324MOL0     H44652  11.438   4.263   7.005  2.8720  2.7115  1.8860
  324MOL0     H44653  11.516   4.158   7.270  3.1544  1.7922 -0.4004
  324MOL0     H44654  11.351   4.209   7.215 -0.5756  0.3293 -1.3497
  324MOL0     H44655  11.609   4.393   7.239  0.1581 -0.0092  1.9719
  324MOL0     H44656  11.460   4.436   7.156  3.5822 -0.7147 -2.3226
  324MOL0     H44657  11.545   4.480   7.408 -0.8774  1.1472 -0.1543
  324MOL0     H44658  11.475   4.321   7.434 -3.0491  1.1869  0.5581
  324MOL0     H44659  11.251   4.381   7.353 -1.7883  0.0758 -0.0982
  324MOL0     H44660  11.296   4.476   7.488  1.2971 -0.9473  0.4353
  324MOL0     H44661  11.458   4.735   7.369 -0.6538 -0.7696  1.8199
  324MOL0     H44662  11.406   4.987   7.294  0.7739 -1.3575  0.6740
  324MOL0     H44663  11.241   5.010   7.259  1.7160  0.4358  2.2293
  324MOL0     H44664  11.290   4.924   7.020 -1.0381 -0.9911  1.1238
  324MOL0     H44665  11.364   5.073   7.054  0.9948 -0.3269  0.0171
  324MOL0     H44666  11.500   4.803   7.056  2.5715 -0.9577 -1.4959
  324MOL0     H44667  11.521   4.936   6.940 -1.8197  1.7886 -0.0674
  324MOL0     H44668  11.645   5.082   7.084  1.6486  1.0030  3.1973
  324MOL0     H44669  11.611   4.978   7.225  0.2864  1.4626 -0.2294
  324MOL0     H44670  11.912   4.794   6.965  1.8318  1.2458 -1.8511
  324MOL0     H44671  12.270   4.795   7.022  1.2574 -1.6964 -0.4576
  324MOL0     H44672  12.178   4.840   6.878 -0.7228  1.1633  0.9948
  324MOL0     H44673  12.121   4.706   6.982 -0.1530  0.4946  1.8467
  324MOL0     H44674  12.504   5.042   6.834  0.8567  2.2148 -0.7411
  324MOL0     H44675  12.741   5.088   6.815 -2.4580  1.4638 -1.0140
  324MOL0     H44676  12.920   5.242   7.186  0.9340 -0.7411  0.7214
  324MOL0     H44677  13.003   5.090   7.158  0.0557 -1.8682 -2.9163
  324MOL0     H44678  13.151   5.208   7.007  0.4667  1.4835 -1.0771
  324MOL0     H44679  13.058   5.356   7.003 -0.6674  1.2765  0.0852
  324MOL0     H44680  13.257   5.408   7.140  0.2998  0.1381  0.9390
  324MOL0     H44681  13.252   5.254   7.220 -1.6065 -1.3296 -2.0885
  324MOL0     H44682  13.088   5.318   7.374  2.8532 -1.6416  0.5106
  324MOL0     H44683  13.022   5.451   7.274  0.2255 -1.2772  0.8669
  324MOL0     H44684  13.293   5.445   7.437 -1.4298 -1.1626 -1.0588
  324MOL0     H44685  13.246   5.575   7.325 -0.7480  0.7543  1.2795
  324MOL0     H44686  13.178   5.550   7.597 -0.8248 -0.5416  1.6449
  324MOL0     H44687  13.042   5.477   7.528 -0.2662 -0.3270 -1.7851
  324MOL0     H44688  13.107   5.721   7.383  2.7265 -0.8367  1.3556
  324MOL0     H44689  13.118   5.752   7.555  1.3971 -1.0259 -0.0280
  324MOL0     H44690  12.871   5.639   7.431  2.8705  3.4778 -4.8586
  324MOL0     H44691  12.884   5.803   7.508  0.3478  0.6521 -0.6550
  324MOL0     H44692  12.756   5.097   7.254 -1.0052 -1.5164  0.4805
  324MOL0     H44693  12.525   5.047   7.263  1.2977 -0.7507  0.3564
  324MOL0     H44694  12.040   5.158   7.273 -2.6296 -0.5591  1.6664
  324MOL0     H44695  11.820   5.073   7.266  1.9241 -0.7123  0.8321
  324MOL0     H44696  11.259   3.598   6.956  0.9700  0.7431  0.0168
  324MOL0     H44697  11.049   3.469   6.911  3.3281 -1.0384  0.4217
  324MOL0     H44698  10.584   3.657   6.850 -0.5320 -0.5721  0.6740
  324MOL0     H44699  10.347   3.663   6.834  0.4296  0.5918  0.6742
  324MOL0     H44700  10.124   3.612   6.795  2.9591 -0.8983 -0.2593
  324MOL0     H44701  10.127   3.716   6.642  0.7453 -0.8467 -2.2154
  324MOL0     H44702   9.958   3.580   6.549  1.9095  1.4354 -0.0711
  324MOL0     H44703   9.902   3.651   6.708 -1.0578 -1.1781  1.1216
  324MOL0     H44704  10.001   3.384   6.703  2.1873  0.6243  2.3448
  324MOL0     H44705   9.911   3.471   6.835  0.6483 -2.2041  0.7165
  324MOL0     H44706   9.778   3.287   6.717 -3.3877  1.5959  0.6007
  324MOL0     H44707   9.801   3.371   6.565  0.8372 -1.1878  0.5569
  324MOL0     H44708   9.463   3.522   6.770 -0.8734 -1.3432 -3.2056
  324MOL0     H44709  10.366   3.431   6.466 -0.3473 -0.3795  0.3028
  324MOL0     H44710  10.689   3.426   6.391 -2.9336 -0.1896 -1.7037
  324MOL0     H44711  10.721   3.339   6.542 -1.0006  0.6918  0.7328
  324MOL0     H44712  10.577   3.299   6.445  1.1791 -1.1980 -0.5943
  325MOL0     O44713   8.466   7.094   2.380  0.2150 -0.4776 -0.2035
  325MOL0     C44714   8.408   6.989   2.383  0.1991  0.2257  0.4399
  325MOL0     O44715   8.465   6.865   2.381 -0.0174  1.0559  0.8681
  325MOL0     C44716   8.591   6.847   2.333  0.4559 -1.3470  0.0150
  325MOL0     C44717   8.674   6.748   2.383 -0.0520 -0.2347 -0.4369
  325MOL0     C44718   8.810   6.738   2.343 -0.3767 -0.3122  0.0765
  325MOL0     C44719   8.854   6.815   2.235 -0.0101 -0.0488  0.5645
  325MOL0     O44720   8.989   6.825   2.194 -0.0688  0.1101 -0.2477
  325MOL0     C44721   9.097   6.795   2.284 -0.7982 -0.4248  0.0280
  325MOL0     C44722   9.212   6.880   2.221  0.1042 -0.2117  0.7170
  325MOL0     C44723   9.334   6.895   2.316  0.1245 -0.3696 -0.3517
  325MOL0     C44724   9.401   6.756   2.308 -0.6149 -1.4528 -0.2806
  325MOL0     C44725   9.518   6.738   2.406 -0.2440  0.8395  0.2293
  325MOL0     C44726   9.634   6.831   2.371  1.4926 -1.0885  0.0952
  325MOL0     C44727   9.692   6.907   2.497  0.7692  0.6653  0.9287
  325MOL0     C44728   9.816   6.988   2.446 -0.1531 -0.3747 -0.3778
  325MOL0     N44729   9.935   6.906   2.434 -0.6001 -0.1501  0.3846
  325MOL0     C44730  10.018   6.864   2.532  0.6205 -0.0095 -0.1468
  325MOL0     C44731  10.105   6.780   2.475  0.8760 -0.1788 -0.1389
  325MOL0     C44732  10.215   6.713   2.550 -1.0818  0.1379  0.4016
  325MOL0     C44733  10.184   6.570   2.585 -0.5172 -0.4612  0.0425
  325MOL0     C44734  10.270   6.507   2.697  0.4627 -0.4231  1.0763
  325MOL0     C44735  10.201   6.527   2.830  0.8032  0.5325 -0.1928
  325MOL0     O44736  10.071   6.464   2.841 -0.0780  0.5756 -0.0762
  325MOL0     C44737   9.959   6.535   2.843 -0.1728  0.5132 -0.3637
  325MOL0     C44738   9.857   6.472   2.771  0.2292 -0.4445  0.5729
  325MOL0     C44739   9.726   6.531   2.755  0.5861 -1.9853  0.6130
  325MOL0     C44740   9.607   6.452   2.696  0.4786  0.2711 -0.0222
  325MOL0     C44741   9.708   6.668   2.810 -0.7044  0.2050  0.4528
  325MOL0     C44742   9.580   6.739   2.804  0.0069  0.2876  0.5323
  325MOL0     O44743   9.463   6.658   2.831 -0.0887 -0.1598  0.0010
  325MOL0     C44744   9.337   6.709   2.819  0.7674  0.2981  0.6707
  325MOL0     C44745   9.297   6.829   2.867  0.0836 -0.2335 -0.7422
  325MOL0     C44746   9.176   6.884   2.850  0.1017  0.3471  0.7146
  325MOL0     C44747   9.071   6.806   2.807  0.2086 -0.2536  0.0138
  325MOL0     O44748   8.939   6.851   2.809 -0.2126 -0.0785 -0.3526
  325MOL0     C44749   8.921   6.992   2.802  0.5845  0.1583  0.4278
  325MOL0     C44750   8.779   7.010   2.742 -0.0817 -0.0855  1.2811
  325MOL0     C44751   8.674   6.972   2.841  0.1925  0.2586 -0.5355
  325MOL0     C44752   8.533   6.993   2.791 -0.6256  0.7744 -0.1520
  325MOL0     C44753   8.415   6.944   2.881  0.2043  0.6805 -0.1888
  325MOL0     C44754   8.278   6.958   2.809  0.1024  0.2545  0.0373
  325MOL0     C44755   8.162   6.945   2.907  0.6874 -1.0993 -0.0497
  325MOL0     C44756   8.028   6.979   2.846  0.5489  0.6571  0.0899
  325MOL0    Cl44757   7.907   6.894   2.953 -0.2783 -0.1744 -0.1609
  325MOL0     C44758   9.103   6.667   2.781 -0.0256 -0.5933 -0.2575
  325MOL0     C44759   9.232   6.624   2.778 -0.2295 -0.3890  0.2869
  325MOL0     O44760   9.574   6.859   2.774 -0.7971 -0.3111 -0.0414
  325MOL0     C44761   9.813   6.727   2.884 -0.3518 -0.2481  1.0323
  325MOL0     C44762   9.934   6.655   2.901  1.2822  0.2583  0.3805
  325MOL0     N44763  10.092   6.791   2.342 -0.4590 -0.7237 -0.1730
  325MOL0     N44764  10.000   6.881   2.312  0.1218  0.1713 -0.6091
  325MOL0     C44765   8.762   6.892   2.169 -0.2688 -0.4991 -0.1034
  325MOL0     C44766   8.637   6.922   2.216  0.2478  0.4532 -0.2105
  325MOL0     C44767   8.261   6.992   2.408  0.1836  0.0077  0.5902
  325MOL0     C44768   8.193   6.868   2.429  0.1261  1.1987 -1.1214
  325MOL0     C44769   8.058   6.857   2.423  0.5660 -0.2365  0.3935
  325MOL0     C44770   7.977   6.965   2.420 -0.1911 -0.4546  0.1904
  325MOL0     O44771   7.839   6.935   2.422  0.1287 -0.1711 -0.8737
  325MOL0     C44772   7.757   7.041   2.375 -0.3395 -0.6040 -0.4188
  325MOL0     C44773   7.624   6.979   2.316  0.7447 -0.4675  0.4354
  325MOL0     C44774   7.644   6.862   2.224  0.8816  0.0049  0.6451
  325MOL0     C44775   7.507   6.817   2.155 -0.4151  0.2367 -0.7504
  325MOL0     C44776   7.544   6.695   2.076 -0.2152  0.1528 -0.7826
  325MOL0     C44777   7.583   6.608   2.002  0.3867  0.6499 -0.3595
  325MOL0     C44778   8.040   7.090   2.400 -0.4134 -0.2480 -0.2273
  325MOL0     C44779   8.179   7.112   2.396 -0.8018 -1.3428  0.4690
  325MOL0     C44780   8.235   7.252   2.364 -0.1121  0.6113 -0.0471
  325MOL0     H44781   8.640   6.684   2.465 -1.9133 -1.9061 -2.3820
  325MOL0     H44782   8.876   6.664   2.388  0.0855 -2.0972 -3.1726
  325MOL0     H44783   9.125   6.691   2.302  5.4881  1.0681  1.1531
  325MOL0     H44784   9.082   6.838   2.384 -3.5318  1.4227 -1.0355
  325MOL0     H44785   9.249   6.836   2.128 -1.7135 -1.1975  0.4107
  325MOL0     H44786   9.189   6.982   2.188  1.1904 -0.1027  0.2812
  325MOL0     H44787   9.399   6.976   2.282  0.9110  0.6083  3.0916
  325MOL0     H44788   9.304   6.922   2.417 -1.0244  3.7884 -1.6118
  325MOL0     H44789   9.332   6.676   2.335 -0.5112 -1.1572  0.9055
  325MOL0     H44790   9.445   6.735   2.210 -0.5158 -4.4635  0.3073
  325MOL0     H44791   9.556   6.635   2.403  2.7621  1.8577 -0.9061
  325MOL0     H44792   9.479   6.755   2.507  1.5394 -1.5706  1.4256
  325MOL0     H44793   9.709   6.772   2.317 -0.1085 -3.6359  0.5169
  325MOL0     H44794   9.607   6.911   2.301  0.1278 -4.8377 -4.0694
  325MOL0     H44795   9.722   6.836   2.574 -2.7413  0.4594  2.2386
  325MOL0     H44796   9.618   6.969   2.548 -1.3535 -0.6095 -0.4738
  325MOL0     H44797   9.790   7.027   2.347 -3.1629 -0.9189  0.1134
  325MOL0     H44798   9.830   7.066   2.521  0.0344 -2.6658  2.1475
  325MOL0     H44799   9.996   6.882   2.636 -1.8339 -1.9246 -0.2188
  325MOL0     H44800  10.239   6.769   2.641 -2.3331  1.3571  0.0160
  325MOL0     H44801  10.300   6.691   2.485  0.1983 -0.5406  2.2126
  325MOL0     H44802  10.077   6.553   2.604 -0.1529  0.1645  3.1025
  325MOL0     H44803  10.200   6.508   2.496 -1.0269  0.2679 -0.5743
  325MOL0     H44804  10.291   6.405   2.664  0.7950  0.0670 -0.3236
  325MOL0     H44805  10.373   6.545   2.693  2.0626 -4.3810  0.6316
  325MOL0     H44806  10.270   6.489   2.907 -1.3921 -1.6015  0.8460
  325MOL0     H44807  10.191   6.635   2.847  1.7388  0.7814 -1.1077
  325MOL0     H44808   9.872   6.378   2.719  1.4668 -0.7218  1.3677
  325MOL0     H44809   9.649   6.366   2.642  1.4294  0.5018  0.3262
  325MOL0     H44810   9.551   6.517   2.629  0.8940  0.4710 -0.1739
  325MOL0     H44811   9.539   6.410   2.771  2.5135  0.5878  2.1161
  325MOL0     H44812   9.373   6.885   2.922 -1.3607  1.4238 -0.3225
  325MOL0     H44813   9.166   6.991   2.865  1.8345  0.6131  0.1805
  325MOL0     H44814   8.924   7.039   2.901  0.9486  0.8383  0.1028
  325MOL0     H44815   8.985   7.041   2.728 -1.8564 -1.2435 -2.8589
  325MOL0     H44816   8.768   7.115   2.714  2.1111 -0.7915 -2.9122
  325MOL0     H44817   8.763   6.954   2.650 -1.8787 -0.8066  1.9889
  325MOL0     H44818   8.691   7.031   2.932 -1.6213 -2.7060  1.9389
  325MOL0     H44819   8.682   6.869   2.876 -1.8593  0.4024  0.5241
  325MOL0     H44820   8.514   6.932   2.703 -3.1484  1.0573  0.1210
  325MOL0     H44821   8.517   7.098   2.767  1.2767  0.7000 -1.9808
  325MOL0     H44822   8.429   6.837   2.900  5.1542  0.8303 -1.6523
  325MOL0     H44823   8.407   6.984   2.982  0.9730  2.8427 -0.9355
  325MOL0     H44824   8.264   6.870   2.745 -0.1107 -0.0369  0.4871
  325MOL0     H44825   8.264   7.048   2.748 -3.3967 -1.4677 -2.0294
  325MOL0     H44826   8.170   7.019   2.987 -2.0819 -1.5845  0.7880
  325MOL0     H44827   8.155   6.847   2.955  0.8715 -1.0683  0.0414
  325MOL0     H44828   8.016   6.954   2.741 -2.1002  5.4665 -1.0679
  325MOL0     H44829   8.008   7.087   2.849 -1.6784  0.2955  3.0230
  325MOL0     H44830   9.022   6.599   2.757 -0.7421 -0.5002  1.7245
  325MOL0     H44831   9.263   6.526   2.742  0.7856  0.7490 -2.1860
  325MOL0     H44832   9.799   6.825   2.929  0.7007  0.2853  0.2630
  325MOL0     H44833  10.002   6.709   2.967 -0.0076  2.6035 -0.1106
  325MOL0     H44834   8.801   6.964   2.098  1.0675  0.1236  1.2134
  325MOL0     H44835   8.595   7.014   2.177  0.6390  0.5455 -0.4205
  325MOL0     H44836   8.255   6.779   2.432  0.2455  1.3019  0.2858
  325MOL0     H44837   8.014   6.758   2.418 -2.6237  1.0963 -0.7008
  325MOL0     H44838   7.723   7.105   2.457  1.9711  1.7884 -1.1980
  325MOL0     H44839   7.805   7.101   2.297  0.3087 -0.4629  0.0788
  325MOL0     H44840   7.577   7.069   2.274 -0.7564 -0.8042  1.3152
  325MOL0     H44841   7.549   6.940   2.386 -1.5312  0.7338 -1.2059
  325MOL0     H44842   7.719   6.891   2.151  1.0501  2.6772  1.7668
  325MOL0     H44843   7.699   6.779   2.269 -0.0973 -1.3320 -0.5147
  325MOL0     H44844   7.486   6.903   2.092  2.8609  1.2893 -0.6098
  325MOL0     H44845   7.427   6.791   2.224 -0.3902 -3.4402 -1.8984
  325MOL0     H44846   7.616   6.540   1.925  1.4646  0.7809 -0.0333
  325MOL0     H44847   7.981   7.179   2.377  0.8865  0.4848 -0.8133
  325MOL0     H44848   8.270   7.241   2.261 -0.3993  4.0527 -0.6324
  325MOL0     H44849   8.162   7.334   2.357  1.3524  2.3556  3.3015
  325MOL0     H44850   8.314   7.283   2.432  0.8137 -0.6945 -0.4942
  326MOL0     O44851   2.529   3.745   8.952 -0.3485 -0.1664  0.3189
  326MOL0     C44852   2.469   3.848   8.993  0.7089  0.1137  0.4998
  326MOL0     O44853   2.338   3.859   8.989  0.1801 -0.0101 -0.2237
  326MOL0     C44854   2.247   3.772   8.933  0.8036 -0.1324  0.9418
  326MOL0     C44855   2.168   3.817   8.823 -0.3844 -0.2782 -0.0274
  326MOL0     C44856   2.057   3.741   8.784 -1.2233 -0.6469 -0.1651
  326MOL0     C44857   2.036   3.611   8.838  0.1793  0.4255 -0.2781
  326MOL0     O44858   1.943   3.523   8.800  0.6343  0.2102 -0.7009
  326MOL0     C44859   1.843   3.560   8.705 -0.2823 -0.1931 -0.8690
  326MOL0     C44860   1.741   3.446   8.700  0.0290  0.1009 -0.4678
  326MOL0     C44861   1.652   3.449   8.577 -0.1307 -0.3382 -0.3014
  326MOL0     C44862   1.518   3.365   8.575 -0.1113  0.1274  0.4216
  326MOL0     C44863   1.434   3.381   8.452  0.5952 -1.1159 -0.8351
  326MOL0     C44864   1.308   3.298   8.449  0.6500  0.5406 -0.6201
  326MOL0     C44865   1.330   3.141   8.477  0.2605 -0.0443 -0.1467
  326MOL0     C44866   1.443   3.072   8.397  0.5175  0.7595  0.0402
  326MOL0     N44867   1.399   3.062   8.260 -0.0561 -0.3070  0.7018
  326MOL0     C44868   1.436   3.154   8.165 -0.3979 -0.6826 -0.6126
  326MOL0     C44869   1.392   3.106   8.044 -0.9147  0.8193  0.4189
  326MOL0     C44870   1.410   3.164   7.900  0.4290 -0.1147 -0.6249
  326MOL0     C44871   1.298   3.255   7.852  0.6681  0.4519 -0.0725
  326MOL0     C44872   1.292   3.387   7.922  0.0493 -0.4545 -0.0592
  326MOL0     C44873   1.177   3.468   7.869  0.6126  1.0723 -0.2413
  326MOL0     O44874   1.222   3.548   7.758 -0.4894 -0.3110 -0.2332
  326MOL0     C44875   1.142   3.546   7.651  0.4710 -0.2122 -0.4791
  326MOL0     C44876   1.188   3.512   7.528 -0.0512  0.3894  0.6918
  326MOL0     C44877   1.107   3.506   7.408 -0.5739 -0.5064 -0.4368
  326MOL0     C44878   1.182   3.493   7.287  0.3366 -0.2822  0.9361
  326MOL0     C44879   0.974   3.535   7.424  0.2656 -0.3155  0.1211
  326MOL0     C44880   0.875   3.545   7.310  0.5148 -0.4270  0.7732
  326MOL0     O44881   0.910   3.490   7.185 -0.1605 -0.2833 -0.4975
  326MOL0     C44882   0.838   3.509   7.075 -0.9537  0.3339 -0.1280
  326MOL0     C44883   0.708   3.541   7.071  0.9194 -1.3328  0.6335
  326MOL0     C44884   0.637   3.561   6.949  0.0820  0.7753 -0.0754
  326MOL0     C44885   0.699   3.519   6.831  0.6264  0.2353 -0.5572
  326MOL0     O44886   0.621   3.506   6.716  0.5232 -0.2780 -0.3162
  326MOL0     C44887   0.680   3.544   6.593  0.2394  0.0685  0.6745
  326MOL0     C44888   0.574   3.635   6.533  0.9091  0.0193  0.0588
  326MOL0     C44889   0.522   3.751   6.632 -0.5513 -0.0111 -0.0303
  326MOL0     C44890   0.640   3.839   6.674 -0.2559 -0.3714  1.7293
  326MOL0     C44891   0.604   3.939   6.783 -0.2037  0.6829 -0.3630
  326MOL0     C44892   0.494   4.046   6.750 -0.4606  0.2326 -0.7563
  326MOL0     C44893   0.521   4.130   6.621 -0.9733  0.2175 -0.6172
  326MOL0     C44894   0.392   4.174   6.553 -0.7585  0.4140 -0.8522
  326MOL0    Cl44895   0.297   4.025   6.510  0.1655  0.2893 -0.1638
  326MOL0     C44896   0.833   3.477   6.837 -0.4760 -0.6147  0.0199
  326MOL0     C44897   0.903   3.491   6.956 -0.4806  0.3282 -0.3319
  326MOL0     O44898   0.775   3.611   7.338 -0.4547 -0.8355  0.3379
  326MOL0     C44899   0.925   3.548   7.555  0.0668  0.3209  0.4038
  326MOL0     C44900   1.004   3.560   7.663 -0.4447  0.7145 -0.4721
  326MOL0     N44901   1.337   2.984   8.067  0.0003 -0.1050  0.7461
  326MOL0     N44902   1.339   2.958   8.197  0.8337  0.6911 -0.2935
  326MOL0     C44903   2.120   3.568   8.938  0.8552  0.3646 -1.0989
  326MOL0     C44904   2.221   3.646   8.985 -0.1232  0.2758 -0.2207
  326MOL0     C44905   2.549   3.957   9.052 -0.1431 -1.0004 -0.2132
  326MOL0     C44906   2.478   4.071   9.092 -0.2022  0.3189 -0.6941
  326MOL0     C44907   2.550   4.184   9.147 -0.6413 -0.1327  0.4449
  326MOL0     C44908   2.684   4.194   9.138  0.1655 -0.4724  0.7519
  326MOL0     O44909   2.742   4.304   9.199 -0.0327 -0.3501  0.0155
  326MOL0     C44910   2.881   4.331   9.178  0.0953  0.2755  0.1757
  326MOL0     C44911   2.923   4.447   9.268  0.6129 -0.0098  0.4663
  326MOL0     C44912   2.854   4.578   9.227  0.1493 -1.7159 -1.4839
  326MOL0     C44913   2.892   4.682   9.334  0.1533 -0.9364  0.2260
  326MOL0     C44914   2.790   4.784   9.357 -0.4577  0.2155  0.0437
  326MOL0     C44915   2.693   4.851   9.379  0.2326  0.4585  1.8319
  326MOL0     C44916   2.758   4.087   9.078  0.1852  0.4706  0.7576
  326MOL0     C44917   2.691   3.967   9.049  0.3869  0.6083 -0.5523
  326MOL0     C44918   2.787   3.855   9.004  0.7708 -0.1294 -0.4499
  326MOL0     H44919   2.196   3.909   8.772  2.3109  1.2332  3.7236
  326MOL0     H44920   1.988   3.792   8.718 -0.0692 -0.9076 -1.6239
  326MOL0     H44921   1.895   3.566   8.609 -1.7884  0.2440 -1.6738
  326MOL0     H44922   1.798   3.658   8.720  1.2867  0.7864 -2.2672
  326MOL0     H44923   1.785   3.347   8.714  0.8932  0.2740 -1.8217
  326MOL0     H44924   1.674   3.452   8.787 -1.0908 -1.9465 -1.1179
  326MOL0     H44925   1.628   3.554   8.559  0.3938 -0.1395  0.1361
  326MOL0     H44926   1.711   3.417   8.491 -0.5420 -1.3041 -0.2391
  326MOL0     H44927   1.550   3.261   8.579  1.5571  0.5887 -0.1540
  326MOL0     H44928   1.464   3.395   8.665  2.0253 -0.3052  1.9175
  326MOL0     H44929   1.497   3.367   8.364  3.0773  0.4566  0.5833
  326MOL0     H44930   1.417   3.489   8.443  1.4239 -0.6863  1.8553
  326MOL0     H44931   1.249   3.339   8.531  2.0945  1.3773  0.0364
  326MOL0     H44932   1.268   3.309   8.348  0.3148 -0.4864 -0.6156
  326MOL0     H44933   1.236   3.089   8.456  1.2125 -1.1063 -2.1141
  326MOL0     H44934   1.349   3.122   8.583 -0.4877 -0.2629 -0.0475
  326MOL0     H44935   1.545   3.113   8.404  0.6504  0.5482 -0.6302
  326MOL0     H44936   1.448   2.968   8.430  2.6742  0.5628 -0.7225
  326MOL0     H44937   1.486   3.250   8.178  0.5428 -1.5655  5.2667
  326MOL0     H44938   1.424   3.086   7.826  2.8416 -0.4101  0.0514
  326MOL0     H44939   1.502   3.223   7.907  1.2106 -1.5042  2.8891
  326MOL0     H44940   1.314   3.269   7.744  3.0642 -3.1785 -0.3598
  326MOL0     H44941   1.203   3.206   7.872 -0.5562  2.9586  0.6291
  326MOL0     H44942   1.276   3.369   8.029  1.0257 -2.3413 -0.1874
  326MOL0     H44943   1.382   3.447   7.902  0.9231 -1.8240 -0.4224
  326MOL0     H44944   1.105   3.392   7.838  0.1083  0.0615  3.0138
  326MOL0     H44945   1.134   3.536   7.943  0.7153 -0.2202  1.0710
  326MOL0     H44946   1.295   3.495   7.526  0.0693  1.2051 -0.8212
  326MOL0     H44947   1.159   3.574   7.217 -0.6268 -0.7042  0.7480
  326MOL0     H44948   1.147   3.398   7.246 -0.9469 -0.3885  2.1834
  326MOL0     H44949   1.289   3.503   7.307  0.6312  1.3469 -1.1426
  326MOL0     H44950   0.651   3.568   7.159  1.9449  0.0035  0.9144
  326MOL0     H44951   0.536   3.597   6.932 -0.3936 -0.7187 -0.5461
  326MOL0     H44952   0.774   3.599   6.606  0.1815  0.8552 -1.7127
  326MOL0     H44953   0.703   3.472   6.515 -0.1945  1.5715 -0.8945
  326MOL0     H44954   0.613   3.678   6.441 -2.2526 -2.1115 -2.4983
  326MOL0     H44955   0.488   3.575   6.502  0.4190  0.9382 -0.3620
  326MOL0     H44956   0.471   3.710   6.720  0.7510  1.4684  1.4787
  326MOL0     H44957   0.447   3.815   6.584 -0.4163  0.2925  0.1645
  326MOL0     H44958   0.675   3.890   6.584 -2.2910 -0.6841  0.6916
  326MOL0     H44959   0.722   3.781   6.719  0.4285 -0.1233  0.8311
  326MOL0     H44960   0.572   3.883   6.871 -0.0546  0.0414 -0.7137
  326MOL0     H44961   0.697   3.987   6.816 -1.5357  2.9673  0.3082
  326MOL0     H44962   0.492   4.122   6.829 -2.4051 -0.0494 -0.4801
  326MOL0     H44963   0.396   4.000   6.761 -0.4816  0.7537  1.8680
  326MOL0     H44964   0.585   4.076   6.550 -0.0503 -1.6879  1.5293
  326MOL0     H44965   0.567   4.225   6.649 -2.0031  1.2735 -2.3566
  326MOL0     H44966   0.418   4.225   6.460  0.6775 -1.4010 -1.5218
  326MOL0     H44967   0.347   4.246   6.622 -1.1701 -2.4906  2.1720
  326MOL0     H44968   0.890   3.444   6.751  2.9687 -0.4651  2.0466
  326MOL0     H44969   1.010   3.478   6.963 -0.2126  2.9233  2.0405
  326MOL0     H44970   0.818   3.551   7.573 -0.0207  0.2373 -0.0840
  326MOL0     H44971   0.951   3.575   7.756  0.5966 -3.9267  1.1359
  326MOL0     H44972   2.110   3.464   8.967 -1.1131  1.6052  3.6616
  326MOL0     H44973   2.295   3.609   9.056  1.0155 -0.3689 -1.6961
  326MOL0     H44974   2.371   4.067   9.108 -0.4214 -0.6750 -2.1583
  326MOL0     H44975   2.496   4.271   9.184  0.9929  2.2175 -2.2483
  326MOL0     H44976   2.931   4.239   9.210 -2.7726 -1.1422  1.0043
  326MOL0     H44977   2.888   4.350   9.071  0.0812  2.2226  0.4935
  326MOL0     H44978   3.031   4.465   9.260  0.1742  2.6995 -0.7394
  326MOL0     H44979   2.903   4.420   9.372  4.3150 -0.3445  1.2259
  326MOL0     H44980   2.895   4.608   9.130 -0.9154 -0.4084 -1.5628
  326MOL0     H44981   2.746   4.563   9.234  0.5305 -4.1837  0.2623
  326MOL0     H44982   2.989   4.724   9.306  1.2682 -2.8834  0.9396
  326MOL0     H44983   2.904   4.626   9.427  1.1639 -1.0555  0.0407
  326MOL0     H44984   2.600   4.903   9.392 -0.0819 -0.2545  2.4570
  326MOL0     H44985   2.866   4.085   9.069  0.0119 -1.1239 -2.0070
  326MOL0     H44986   2.774   3.826   8.899  0.9074  3.5897 -1.6621
  326MOL0     H44987   2.892   3.885   9.014  0.6760  0.0221  0.0897
  326MOL0     H44988   2.776   3.767   9.067  1.4315  0.3853  0.3967
  327MOL0     O44989   3.098   0.853   7.801 -0.3744  0.2417 -0.4204
  327MOL0     C44990   2.994   0.820   7.858 -0.7096  0.1025 -0.1228
  327MOL0     O44991   2.995   0.723   7.952 -0.0836  0.1457 -0.0858
  327MOL0     C44992   3.107   0.685   8.012  0.7756  0.3117 -0.2913
  327MOL0     C44993   3.114   0.549   8.042  0.1531  0.0594 -0.1234
  327MOL0     C44994   3.224   0.495   8.113  0.2061 -0.3517 -0.3426
  327MOL0     C44995   3.323   0.586   8.157 -0.4675  0.6071 -0.2531
  327MOL0     O44996   3.448   0.555   8.215  0.3915  0.2889  0.0091
  327MOL0     C44997   3.478   0.432   8.281  0.2045  0.1778 -0.0197
  327MOL0     C44998   3.585   0.451   8.394 -0.6097 -0.1772 -0.1606
  327MOL0     C44999   3.725   0.477   8.325 -0.3576  0.2987  0.4479
  327MOL0     C45000   3.831   0.540   8.421  0.1325 -0.4841  0.5614
  327MOL0     C45001   3.962   0.580   8.350  0.3142  0.1089  0.0532
  327MOL0     C45002   4.038   0.447   8.318 -0.6455 -0.6098 -0.3505
  327MOL0     C45003   4.126   0.466   8.192 -1.0072  0.3692  1.0173
  327MOL0     C45004   4.227   0.347   8.197 -0.5180 -0.1067 -0.1393
  327MOL0     N45005   4.346   0.368   8.112  0.7295 -0.0607  0.3453
  327MOL0     C45006   4.377   0.308   7.991 -0.4976 -0.9785 -0.5603
  327MOL0     C45007   4.491   0.369   7.958  0.3747  0.4108 -0.6044
  327MOL0     C45008   4.562   0.330   7.832  0.1456 -0.4602 -1.3174
  327MOL0     C45009   4.661   0.218   7.855  0.3372 -0.0316  0.4109
  327MOL0     C45010   4.806   0.253   7.894  0.1782 -0.7595  0.8673
  327MOL0     C45011   4.897   0.156   7.832 -0.1731 -0.1735  0.6007
  327MOL0     O45012   4.875   0.024   7.877 -0.4606  0.2518 -0.7661
  327MOL0     C45013   4.933  -0.072   7.798 -0.1063  0.4428 -0.5452
  327MOL0     C45014   5.021  -0.055   7.690  0.7708  0.3929 -0.2547
  327MOL0     C45015   5.071  -0.165   7.613 -0.1328 -0.4004 -0.8649
  327MOL0     C45016   5.156  -0.132   7.496  0.7868  0.2009  0.4301
  327MOL0     C45017   5.038  -0.295   7.657 -0.3015  1.4622 -0.4940
  327MOL0     C45018   5.084  -0.415   7.585  0.0917 -0.4528  0.0714
  327MOL0     O45019   5.093  -0.522   7.656 -0.5283 -0.1613 -0.0336
  327MOL0     C45020   5.120  -0.648   7.600  1.0632  0.8749 -0.3218
  327MOL0     C45021   5.008  -0.729   7.574 -0.0263  0.5023  0.5737
  327MOL0     C45022   5.030  -0.862   7.519  1.1525  0.6565 -0.9283
  327MOL0     C45023   5.154  -0.898   7.493 -0.4921  0.1439  0.0389
  327MOL0     O45024   5.198  -1.015   7.439  0.1164  0.5810 -0.4971
  327MOL0     C45025   5.111  -1.088   7.350  0.7561 -0.1408  0.9996
  327MOL0     C45026   5.125  -1.245   7.370  0.6575 -1.5010  0.5290
  327MOL0     C45027   5.272  -1.293   7.364  0.3182 -0.0161 -0.4414
  327MOL0     C45028   5.361  -1.219   7.262  0.6494 -0.7043 -0.2509
  327MOL0     C45029   5.485  -1.290   7.218  0.2603 -0.4773  0.4464
  327MOL0     C45030   5.548  -1.215   7.102  0.7958 -0.8914  0.5591
  327MOL0     C45031   5.687  -1.256   7.071  0.5422 -0.5249  0.3977
  327MOL0     C45032   5.775  -1.142   7.021  0.1672  0.1403  0.0454
  327MOL0    Cl45033   5.916  -1.212   6.951 -0.3693 -0.1383 -0.7244
  327MOL0     C45034   5.262  -0.821   7.526 -0.7461 -0.2235 -1.1452
  327MOL0     C45035   5.249  -0.693   7.574  0.6678 -0.8689 -0.1329
  327MOL0     O45036   5.118  -0.408   7.470 -0.1869 -0.4172  0.7049
  327MOL0     C45037   4.965  -0.310   7.774  1.0539  0.0486 -1.6613
  327MOL0     C45038   4.903  -0.207   7.833  0.3958  0.6114  0.3085
  327MOL0     N45039   4.540   0.445   8.057  0.0695 -0.1586 -0.3904
  327MOL0     N45040   4.447   0.449   8.154 -0.0060  1.1671 -0.1920
  327MOL0     C45041   3.306   0.726   8.134  0.0261  0.2355 -0.4279
  327MOL0     C45042   3.194   0.777   8.068 -0.0186 -0.2498  0.7772
  327MOL0     C45043   2.863   0.872   7.813  0.6075 -0.2423 -0.4144
  327MOL0     C45044   2.753   0.798   7.849  1.2865  0.4615  0.0362
  327MOL0     C45045   2.623   0.830   7.792  1.5719 -0.2322  0.8275
  327MOL0     C45046   2.608   0.936   7.697 -0.2774  0.7219 -0.0953
  327MOL0     O45047   2.481   0.935   7.648 -0.2578 -0.0784  0.4572
  327MOL0     C45048   2.436   1.053   7.587 -0.1157 -0.6809 -0.1079
  327MOL0     C45049   2.291   1.089   7.634 -0.0027  0.6188 -0.5675
  327MOL0     C45050   2.265   1.227   7.594  1.8995 -0.9009 -0.1149
  327MOL0     C45051   2.252   1.255   7.443  0.0074 -0.3004  0.3334
  327MOL0     C45052   2.168   1.151   7.380 -0.5783  0.5805 -0.5902
  327MOL0     C45053   2.072   1.091   7.337  0.2756  0.1780  0.5860
  327MOL0     C45054   2.724   1.013   7.658  0.1565 -0.5799  0.4471
  327MOL0     C45055   2.852   0.977   7.716  0.4881  0.3639 -0.4601
  327MOL0     C45056   2.965   1.075   7.685  0.0484 -0.3822 -0.3219
  327MOL0     H45057   3.036   0.484   8.004 -0.8335  1.8294 -1.2989
  327MOL0     H45058   3.212   0.389   8.135  0.8631  0.0770  2.3385
  327MOL0     H45059   3.513   0.353   8.214 -2.3437  1.3204 -2.9291
  327MOL0     H45060   3.394   0.384   8.331  1.6102 -2.0041  0.3727
  327MOL0     H45061   3.548   0.529   8.462 -2.3883 -1.2483  0.1611
  327MOL0     H45062   3.593   0.351   8.437  0.3946 -0.4670 -1.0035
  327MOL0     H45063   3.759   0.381   8.284 -0.3484  0.6762 -0.4691
  327MOL0     H45064   3.711   0.540   8.237  0.6551  0.0556  0.0996
  327MOL0     H45065   3.790   0.632   8.466  2.2795  0.6220  0.4207
  327MOL0     H45066   3.845   0.469   8.503 -2.1969 -1.9731 -0.2313
  327MOL0     H45067   4.029   0.637   8.415 -0.5106 -3.2749  4.3670
  327MOL0     H45068   3.937   0.642   8.264 -1.8381  1.3385  1.4702
  327MOL0     H45069   4.094   0.417   8.407  0.2043  2.8066  0.3765
  327MOL0     H45070   3.968   0.363   8.308 -2.6482  0.8646  0.7364
  327MOL0     H45071   4.177   0.563   8.192 -0.7271  0.2275  0.4146
  327MOL0     H45072   4.061   0.462   8.104 -0.4420  1.2735  0.5421
  327MOL0     H45073   4.269   0.332   8.297  1.2997  1.1214 -0.6716
  327MOL0     H45074   4.168   0.261   8.165 -1.2986 -0.1126  1.2423
  327MOL0     H45075   4.317   0.241   7.931 -0.2540 -0.8938 -0.9056
  327MOL0     H45076   4.609   0.418   7.786  1.2292  0.7462  1.7883
  327MOL0     H45077   4.483   0.293   7.766 -1.9652 -0.1357  0.8795
  327MOL0     H45078   4.616   0.141   7.919 -0.1420  0.7088  0.9919
  327MOL0     H45079   4.664   0.176   7.754 -1.2667 -0.0179  0.3335
  327MOL0     H45080   4.828   0.357   7.867 -3.0979  0.2150  1.4706
  327MOL0     H45081   4.813   0.250   8.003 -0.4507 -1.9849  0.8922
  327MOL0     H45082   4.883   0.159   7.723  0.8833 -2.7605  0.3068
  327MOL0     H45083   5.001   0.186   7.840 -0.3798  0.1370  2.5899
  327MOL0     H45084   5.048   0.042   7.649 -2.4468  1.1282 -0.9146
  327MOL0     H45085   5.182  -0.025   7.495 -2.2219  1.0596 -1.7692
  327MOL0     H45086   5.115  -0.161   7.398  1.0665 -0.8400  0.6121
  327MOL0     H45087   5.251  -0.185   7.502 -0.0938 -1.3107  1.7607
  327MOL0     H45088   4.911  -0.688   7.598  0.0546  1.1637 -0.1729
  327MOL0     H45089   4.945  -0.929   7.529  0.9313  1.1522  0.9208
  327MOL0     H45090   5.007  -1.057   7.355 -0.0931 -2.7588  4.4694
  327MOL0     H45091   5.140  -1.064   7.248 -1.5755 -2.2567 -0.2805
  327MOL0     H45092   5.080  -1.262   7.468 -0.4946  0.2367  0.3531
  327MOL0     H45093   5.067  -1.295   7.292 -0.4563 -0.4024  0.6092
  327MOL0     H45094   5.269  -1.399   7.339 -1.9237 -0.1135  0.0410
  327MOL0     H45095   5.304  -1.272   7.467  0.7531  0.8583 -0.7430
  327MOL0     H45096   5.391  -1.119   7.295 -1.3785  0.7938 -2.5909
  327MOL0     H45097   5.302  -1.209   7.170 -1.3852  0.1418  1.0844
  327MOL0     H45098   5.544  -1.308   7.309 -0.5216 -0.2995  0.9902
  327MOL0     H45099   5.457  -1.387   7.174 -1.8808 -0.7147  2.1880
  327MOL0     H45100   5.558  -1.114   7.141  0.1290 -1.3033  1.8443
  327MOL0     H45101   5.482  -1.209   7.014 -1.3411 -1.9204  1.9951
  327MOL0     H45102   5.688  -1.343   7.005  0.6117 -0.0441 -0.2407
  327MOL0     H45103   5.736  -1.297   7.160  0.9035 -0.4782  0.2231
  327MOL0     H45104   5.800  -1.068   7.099 -0.2039  1.4143 -1.0056
  327MOL0     H45105   5.721  -1.087   6.944 -1.7803 -0.5845  0.8358
  327MOL0     H45106   5.365  -0.852   7.518 -0.1428  1.7248 -1.5373
  327MOL0     H45107   5.327  -0.622   7.599 -0.3509  0.2089  0.0719
  327MOL0     H45108   4.942  -0.413   7.798  2.6339 -0.2159 -1.1697
  327MOL0     H45109   4.841  -0.222   7.920  2.3892 -0.7680  1.5800
  327MOL0     H45110   3.393   0.780   8.170 -0.4003  0.4536  0.2973
  327MOL0     H45111   3.169   0.882   8.054 -0.6337 -0.3280  1.2635
  327MOL0     H45112   2.757   0.707   7.909 -0.8494  0.7957  0.7793
  327MOL0     H45113   2.541   0.764   7.817 -1.0879  2.7780  0.6613
  327MOL0     H45114   2.501   1.139   7.604 -1.4485 -0.1175  2.7149
  327MOL0     H45115   2.425   1.040   7.479 -1.8251  1.8306 -0.3309
  327MOL0     H45116   2.287   1.089   7.744  1.4938 -2.4416 -0.4186
  327MOL0     H45117   2.215   1.017   7.603  1.4614 -1.6314  0.8034
  327MOL0     H45118   2.172   1.263   7.640  1.7338 -0.3343 -0.8725
  327MOL0     H45119   2.338   1.294   7.639  1.3843 -0.9956  0.8778
  327MOL0     H45120   2.347   1.260   7.391  1.6213  1.3865  3.1675
  327MOL0     H45121   2.202   1.352   7.431 -0.9401 -0.7995  0.1583
  327MOL0     H45122   1.989   1.039   7.293  0.3127 -0.1729  0.9269
  327MOL0     H45123   2.721   1.084   7.576  0.7465  0.1257  1.0218
  327MOL0     H45124   2.934   1.165   7.630  0.7466 -0.6941 -1.2679
  327MOL0     H45125   2.984   1.114   7.785 -0.9451 -0.0200 -0.2668
  327MOL0     H45126   3.041   1.023   7.626  0.3911 -0.3655  0.0982
  328MOL0     O45127   9.123   4.177   8.273 -0.8801  0.0159 -0.1199
  328MOL0     C45128   9.029   4.216   8.204  0.1931 -0.2360  0.1927
  328MOL0     O45129   9.027   4.312   8.109 -0.4979  0.1293 -0.1752
  328MOL0     C45130   9.138   4.378   8.062  0.0411  0.6032 -0.3981
  328MOL0     C45131   9.265   4.375   8.105 -0.3006 -0.7397  0.2156
  328MOL0     C45132   9.360   4.448   8.035 -0.1782 -0.8385 -0.2919
  328MOL0     C45133   9.326   4.531   7.923  0.2749 -0.8781  0.0627
  328MOL0     O45134   9.416   4.595   7.834 -0.4334  0.2918  0.0699
  328MOL0     C45135   9.446   4.729   7.869 -0.2195 -0.3221 -0.2124
  328MOL0     C45136   9.517   4.747   8.002 -0.3059 -0.1341 -0.1822
  328MOL0     C45137   9.653   4.671   7.995  0.1012 -0.6863  0.8623
  328MOL0     C45138   9.729   4.701   8.117 -0.0847  0.2251 -0.9333
  328MOL0     C45139   9.867   4.638   8.114  0.7922  0.1635 -0.2248
  328MOL0     C45140   9.959   4.658   8.240  0.4535 -0.1286 -0.8568
  328MOL0     C45141  10.076   4.569   8.230  0.1448 -0.2501  0.2343
  328MOL0     C45142  10.172   4.594   8.110 -0.4041  0.1926 -0.7146
  328MOL0     N45143  10.215   4.736   8.115 -0.0590 -0.4442  0.4251
  328MOL0     C45144  10.223   4.832   8.013 -0.1952 -0.5235 -0.0296
  328MOL0     C45145  10.285   4.943   8.064  0.2231  0.3515 -0.8281
  328MOL0     C45146  10.344   5.055   7.984  0.1864  0.8037  0.4486
  328MOL0     C45147  10.463   5.106   8.054  0.1678 -0.2889  0.5670
  328MOL0     C45148  10.551   5.204   7.974  0.5018  0.0456 -0.6883
  328MOL0     C45149  10.671   5.252   8.049  0.3907  0.2794 -0.0182
  328MOL0     O45150  10.759   5.334   7.968  0.0827  0.5321  0.1278
  328MOL0     C45151  10.862   5.398   8.023 -0.1792 -0.4318 -0.3706
  328MOL0     C45152  10.937   5.340   8.125 -0.7139 -0.4994  0.4487
  328MOL0     C45153  11.043   5.415   8.183  0.1668  0.7425  0.9131
  328MOL0     C45154  11.124   5.334   8.284  0.3097  0.4356 -0.0583
  328MOL0     C45155  11.068   5.547   8.156 -0.9533  0.0985  0.5824
  328MOL0     C45156  11.164   5.639   8.221  0.5784 -0.0777  0.0143
  328MOL0     O45157  11.223   5.586   8.332 -0.0829 -0.2007  0.1235
  328MOL0     C45158  11.334   5.647   8.392  0.4469 -0.1294  0.2965
  328MOL0     C45159  11.326   5.774   8.446  0.7182 -0.2454 -0.3445
  328MOL0     C45160  11.424   5.830   8.519  0.1029  0.5869 -0.2237
  328MOL0     C45161  11.552   5.765   8.533  0.8102 -0.5425 -0.2958
  328MOL0     O45162  11.649   5.817   8.620  0.5379 -0.8604 -0.0006
  328MOL0     C45163  11.750   5.737   8.685  0.1838  0.3438 -0.6583
  328MOL0     C45164  11.720   5.687   8.822 -0.2883 -0.3224 -0.0592
  328MOL0     C45165  11.703   5.811   8.910 -0.1277 -0.6086  0.1348
  328MOL0     C45166  11.602   5.790   9.022 -0.4752 -0.3094  0.0913
  328MOL0     C45167  11.601   5.920   9.111  0.2742  0.6399 -0.5761
  328MOL0     C45168  11.518   6.038   9.059 -0.5296 -0.6453 -1.1901
  328MOL0     C45169  11.517   6.153   9.157  0.2977  0.5626 -0.3460
  328MOL0     C45170  11.440   6.272   9.102 -1.0562 -0.0472 -1.0776
  328MOL0    Cl45171  11.523   6.325   8.945 -0.2583  0.3202 -0.3923
  328MOL0     C45172  11.568   5.648   8.463 -0.4480 -0.1893  0.3089
  328MOL0     C45173  11.462   5.584   8.390 -0.6082 -0.8490  0.1472
  328MOL0     O45174  11.179   5.750   8.182  0.3201  0.0829  1.1225
  328MOL0     C45175  10.996   5.600   8.044 -0.1683  0.3899 -1.0866
  328MOL0     C45176  10.898   5.526   7.983  0.3787  0.2193  0.3536
  328MOL0     N45177  10.296   4.918   8.197 -0.0048  0.4597  0.2084
  328MOL0     N45178  10.255   4.798   8.229 -0.3209 -0.4863  0.6065
  328MOL0     C45179   9.196   4.537   7.887  0.1210 -0.0812 -0.5779
  328MOL0     C45180   9.106   4.463   7.961  1.0455  0.0255  0.6557
  328MOL0     C45181   8.896   4.167   8.233  0.1674 -0.0521 -0.0254
  328MOL0     C45182   8.806   4.180   8.127 -0.5316  0.1478  0.3983
  328MOL0     C45183   8.677   4.127   8.147 -0.2191  0.4762 -0.0330
  328MOL0     C45184   8.642   4.049   8.249  1.2526 -0.7221 -0.0762
  328MOL0     O45185   8.523   3.976   8.245  0.3610 -0.8384  0.1294
  328MOL0     C45186   8.485   3.885   8.351 -0.4809  0.4538  0.7166
  328MOL0     C45187   8.380   3.783   8.304 -0.0026  0.6418 -0.3018
  328MOL0     C45188   8.290   3.718   8.418 -0.7267 -0.1507 -0.7121
  328MOL0     C45189   8.357   3.602   8.496  0.2624  0.5217  0.7566
  328MOL0     C45190   8.400   3.486   8.414 -1.0379  0.2403 -0.0471
  328MOL0     C45191   8.427   3.392   8.340 -0.2412 -0.9201 -0.2170
  328MOL0     C45192   8.728   4.045   8.355  0.1091  0.2881 -0.0690
  328MOL0     C45193   8.862   4.094   8.349  0.1024  0.6078 -0.0824
  328MOL0     C45194   8.952   4.080   8.478  0.0839 -0.0388 -0.7172
  328MOL0     H45195   9.305   4.303   8.175  1.9491 -2.3565 -2.5128
  328MOL0     H45196   9.464   4.440   8.064 -0.0598 -0.4227 -0.5849
  328MOL0     H45197   9.351   4.783   7.879  0.7664  1.1355  2.3651
  328MOL0     H45198   9.495   4.779   7.785  0.8724  3.4433  2.4053
  328MOL0     H45199   9.514   4.855   8.014  0.2828 -0.1944  0.6114
  328MOL0     H45200   9.462   4.698   8.084 -0.1853  1.0472  0.6246
  328MOL0     H45201   9.640   4.563   7.982 -0.7326 -0.3580 -1.5697
  328MOL0     H45202   9.705   4.711   7.907  2.1706 -0.8924  1.9233
  328MOL0     H45203   9.740   4.806   8.144  1.6877 -0.3213  0.7264
  328MOL0     H45204   9.678   4.653   8.201  1.7638 -1.4940 -0.6903
  328MOL0     H45205   9.911   4.688   8.028 -0.4932 -0.5697 -1.3548
  328MOL0     H45206   9.862   4.531   8.093  0.5876 -0.0199  0.6727
  328MOL0     H45207   9.992   4.760   8.262 -0.8553  0.1083  0.1273
  328MOL0     H45208   9.898   4.624   8.324 -0.4665  2.0637 -0.5861
  328MOL0     H45209  10.044   4.465   8.231  0.9622 -0.5078  0.5699
  328MOL0     H45210  10.141   4.578   8.318  0.0294  1.5744  0.1715
  328MOL0     H45211  10.269   4.545   8.115 -0.0174  0.6355 -2.7685
  328MOL0     H45212  10.120   4.574   8.015 -1.2908  3.7428 -1.1132
  328MOL0     H45213  10.200   4.811   7.909 -1.7270 -3.0225  0.7205
  328MOL0     H45214  10.265   5.130   7.976  0.2612  0.9703  1.1971
  328MOL0     H45215  10.367   5.024   7.881  0.6628 -1.1356  1.0857
  328MOL0     H45216  10.420   5.155   8.142 -0.1374 -0.0378  0.2829
  328MOL0     H45217  10.516   5.020   8.097 -3.2880 -1.2932  3.3887
  328MOL0     H45218  10.575   5.143   7.886 -0.6969 -0.5243 -0.6377
  328MOL0     H45219  10.494   5.295   7.950  0.0228  0.6037  2.2198
  328MOL0     H45220  10.630   5.305   8.135  1.1001 -0.0461  0.5317
  328MOL0     H45221  10.735   5.170   8.085  1.4183  0.7231 -0.7615
  328MOL0     H45222  10.915   5.236   8.144 -0.7829 -0.3329  1.3029
  328MOL0     H45223  11.081   5.354   8.383  0.3547  3.8531 -0.6117
  328MOL0     H45224  11.228   5.367   8.286  1.0995 -1.8894  0.8824
  328MOL0     H45225  11.123   5.226   8.265 -0.0864  0.3863  0.2395
  328MOL0     H45226  11.233   5.831   8.441  0.2389 -1.0511 -0.8635
  328MOL0     H45227  11.389   5.929   8.545 -0.7132  0.7749 -1.9066
  328MOL0     H45228  11.772   5.650   8.622  0.6098  0.0807 -0.1587
  328MOL0     H45229  11.845   5.791   8.691  2.1009 -2.8906  3.7252
  328MOL0     H45230  11.639   5.614   8.824 -0.9836  0.4378  1.4318
  328MOL0     H45231  11.815   5.645   8.854  0.9647 -0.3586 -3.4085
  328MOL0     H45232  11.669   5.898   8.853  3.6200  0.0978 -1.2497
  328MOL0     H45233  11.802   5.833   8.950 -0.2839  1.7622 -0.6134
  328MOL0     H45234  11.631   5.705   9.084 -1.2578 -1.0806 -0.5692
  328MOL0     H45235  11.501   5.784   8.980  0.0130  0.6388 -1.2707
  328MOL0     H45236  11.556   5.890   9.207  2.8297 -1.7740  0.0165
  328MOL0     H45237  11.707   5.939   9.127  0.8333 -1.7239 -1.0087
  328MOL0     H45238  11.419   5.997   9.039 -1.0557 -0.3135  0.5118
  328MOL0     H45239  11.562   6.074   8.966  1.1177  1.7146  0.3844
  328MOL0     H45240  11.623   6.177   9.171  0.5530  0.6781 -2.1716
  328MOL0     H45241  11.472   6.123   9.252  1.2956  0.6862  0.1793
  328MOL0     H45242  11.426   6.358   9.168 -1.1304  0.3152 -1.5593
  328MOL0     H45243  11.338   6.244   9.074 -0.8640 -0.0118 -1.8334
  328MOL0     H45244  11.662   5.593   8.465 -0.0694  0.4612  0.6765
  328MOL0     H45245  11.469   5.484   8.350  2.5033 -0.2469 -1.1339
  328MOL0     H45246  11.012   5.703   8.014  0.1929  0.5472 -0.3635
  328MOL0     H45247  10.836   5.557   7.899 -1.3766 -1.2852  1.0182
  328MOL0     H45248   9.151   4.579   7.797  2.0153  2.1204 -0.5768
  328MOL0     H45249   9.003   4.473   7.927  0.3543 -0.1921  2.5844
  328MOL0     H45250   8.821   4.237   8.037 -3.6546  0.9573  0.2736
  328MOL0     H45251   8.619   4.131   8.055 -0.1418 -1.1588 -0.1733
  328MOL0     H45252   8.575   3.840   8.393  0.7953  1.5236 -0.7953
  328MOL0     H45253   8.444   3.946   8.433  1.2353  2.0870  0.4241
  328MOL0     H45254   8.429   3.701   8.251 -0.1133 -0.1795  0.8280
  328MOL0     H45255   8.304   3.838   8.247 -0.6266  0.9295  0.7729
  328MOL0     H45256   8.263   3.794   8.491  0.0230 -2.1612  1.8112
  328MOL0     H45257   8.204   3.666   8.373  1.0302 -1.3517 -2.8677
  328MOL0     H45258   8.289   3.562   8.573 -1.4872 -1.0882 -1.4929
  328MOL0     H45259   8.452   3.636   8.540  0.9325 -1.4512  0.9802
  328MOL0     H45260   8.452   3.312   8.273  2.0911 -0.4909  0.0667
  328MOL0     H45261   8.702   3.995   8.447 -1.6350 -1.4077 -1.4189
  328MOL0     H45262   9.047   4.031   8.455  0.0698 -1.4981  1.8787
  328MOL0     H45263   8.967   4.180   8.519 -0.7598 -0.5753  1.0294
  328MOL0     H45264   8.906   4.029   8.563  1.1268 -0.9730 -0.6821
  329MOL0     O45265   8.038   4.516   7.136 -0.0077 -1.1363 -0.4151
  329MOL0     C45266   8.034   4.407   7.077  0.3130 -0.5283  0.8709
  329MOL0     O45267   8.143   4.336   7.029 -0.4238 -0.5789  0.5816
  329MOL0     C45268   8.265   4.406   7.019  1.1043  0.6855  0.3402
  329MOL0     C45269   8.383   4.338   7.054  0.5919 -0.4897 -0.6773
  329MOL0     C45270   8.502   4.394   7.037 -0.8626  0.0172 -0.1545
  329MOL0     C45271   8.513   4.525   6.972 -0.5316  0.1561  0.2312
  329MOL0     O45272   8.627   4.606   6.958 -0.6562  0.3770 -0.6479
  329MOL0     C45273   8.754   4.544   6.932  0.6319 -0.6760 -0.2405
  329MOL0     C45274   8.853   4.660   6.956 -0.4069  0.6330 -0.4353
  329MOL0     C45275   8.819   4.788   6.887 -0.9054  0.0073  0.4199
  329MOL0     C45276   8.909   4.917   6.904  0.7249  0.0393  0.8486
  329MOL0     C45277   8.903   5.020   6.792 -0.2164 -0.2998 -0.4318
  329MOL0     C45278   8.760   5.077   6.773  0.0601  0.1278  0.4995
  329MOL0     C45279   8.745   5.198   6.683  0.8860 -0.1170 -0.2687
  329MOL0     C45280   8.809   5.330   6.746 -0.7547 -0.2914 -0.2335
  329MOL0     N45281   8.720   5.397   6.853  0.2678  0.1836  0.1988
  329MOL0     C45282   8.586   5.421   6.853 -0.1863  0.4147 -0.6086
  329MOL0     C45283   8.562   5.487   6.972 -0.8037 -0.2000 -1.0022
  329MOL0     C45284   8.427   5.538   7.017 -0.0630 -0.3883  0.3363
  329MOL0     C45285   8.317   5.417   7.032  0.5317 -0.2596 -1.0191
  329MOL0     C45286   8.367   5.285   7.105 -0.4472  0.0424  1.3410
  329MOL0     C45287   8.247   5.215   7.169 -0.5368  0.2469 -0.5577
  329MOL0     O45288   8.182   5.286   7.275  0.6653  1.0416  0.6911
  329MOL0     C45289   8.063   5.227   7.320 -0.1426 -0.5869 -1.2245
  329MOL0     C45290   8.018   5.096   7.311  0.1882  0.0515  0.0232
  329MOL0     C45291   7.898   5.048   7.359 -0.2287 -0.8283  1.1206
  329MOL0     C45292   7.865   4.904   7.344 -0.2140  0.7039 -0.7295
  329MOL0     C45293   7.810   5.140   7.425  0.0270 -0.1959 -0.0115
  329MOL0     C45294   7.676   5.100   7.483  0.3729 -0.4037  0.9255
  329MOL0     O45295   7.640   4.969   7.483  0.3674 -0.7978 -0.6357
  329MOL0     C45296   7.541   4.924   7.571 -0.2127 -0.9010 -0.7604
  329MOL0     C45297   7.513   4.979   7.697 -0.1406  0.8766  1.2392
  329MOL0     C45298   7.413   4.926   7.784 -0.4762 -0.1801  0.3393
  329MOL0     C45299   7.342   4.817   7.743  0.0281 -0.1078 -0.7174
  329MOL0     O45300   7.254   4.764   7.834  0.4964 -0.0358 -0.0300
  329MOL0     C45301   7.242   4.614   7.821  0.4438  0.1801 -0.4876
  329MOL0     C45302   7.152   4.546   7.921  0.1979  0.4599  0.5243
  329MOL0     C45303   7.006   4.575   7.901 -0.2744  0.2916  0.1829
  329MOL0     C45304   6.923   4.498   8.008  0.7666 -0.2084 -0.4188
  329MOL0     C45305   6.777   4.561   8.010 -1.1820  0.1772 -0.1309
  329MOL0     C45306   6.690   4.475   8.113 -0.1178 -0.3386 -0.4950
  329MOL0     C45307   6.535   4.496   8.096 -0.2104  0.0769  1.1598
  329MOL0     C45308   6.469   4.420   7.970 -0.8926 -0.0129 -0.6332
  329MOL0    Cl45309   6.288   4.428   7.984 -0.9088 -0.1850  0.1499
  329MOL0     C45310   7.370   4.755   7.618  0.2965  0.1312  0.0715
  329MOL0     C45311   7.467   4.819   7.533  0.5014  0.1621 -0.8550
  329MOL0     O45312   7.611   5.188   7.540 -0.1816  0.1941  0.6188
  329MOL0     C45313   7.853   5.274   7.443  0.4171  0.5593  0.2504
  329MOL0     C45314   7.983   5.311   7.399  0.3620 -0.5804  0.3255
  329MOL0     N45315   8.684   5.505   7.033 -0.1923 -0.3940  0.8682
  329MOL0     N45316   8.776   5.448   6.967 -0.0967 -0.0229 -0.8658
  329MOL0     C45317   8.396   4.587   6.935  0.5490  0.3197  0.5638
  329MOL0     C45318   8.269   4.523   6.947 -0.8505 -0.8765 -0.5309
  329MOL0     C45319   7.897   4.353   7.054  0.4987  1.0872 -0.2748
  329MOL0     C45320   7.795   4.452   7.039  0.2339  0.6085  0.2832
  329MOL0     C45321   7.667   4.400   7.017 -0.3482 -0.1363 -0.2108
  329MOL0     C45322   7.635   4.264   7.015  0.3665 -0.1604 -0.6590
  329MOL0     O45323   7.499   4.236   7.016 -0.1702 -0.1659  0.7981
  329MOL0     C45324   7.441   4.103   6.998 -0.8102  0.2383  0.0355
  329MOL0     C45325   7.293   4.122   6.976 -0.8131  0.8175 -0.1150
  329MOL0     C45326   7.252   4.215   6.866 -0.1519 -0.2418 -0.5320
  329MOL0     C45327   7.293   4.163   6.729  0.1700 -0.3144  0.6317
  329MOL0     C45328   7.231   4.237   6.616  0.4465 -0.0457 -0.4744
  329MOL0     C45329   7.189   4.303   6.523  0.8288  0.1888 -0.3155
  329MOL0     C45330   7.730   4.166   7.043 -0.0239 -0.1488  0.3025
  329MOL0     C45331   7.863   4.210   7.059 -0.8173 -0.2541  1.0881
  329MOL0     C45332   7.971   4.106   7.085  0.1305  0.2750  0.5024
  329MOL0     H45333   8.360   4.244   7.103 -1.1374  0.3731  0.2618
  329MOL0     H45334   8.593   4.344   7.070 -1.1413  0.4006  1.2495
  329MOL0     H45335   8.771   4.520   6.827  2.4989  1.6758 -0.5874
  329MOL0     H45336   8.776   4.461   7.000 -1.0945  1.0963  2.6912
  329MOL0     H45337   8.887   4.680   7.058 -0.0320 -1.6243 -0.0541
  329MOL0     H45338   8.949   4.632   6.910 -0.3689 -1.9896  1.0507
  329MOL0     H45339   8.820   4.755   6.783  3.3414  1.5312 -0.2154
  329MOL0     H45340   8.716   4.823   6.903  0.1110  2.8770  1.4614
  329MOL0     H45341   8.878   4.960   7.000 -0.3154 -1.7936  1.3956
  329MOL0     H45342   9.009   4.872   6.905  0.0162 -1.7992 -1.5249
  329MOL0     H45343   8.937   4.972   6.700  0.0099 -0.0880 -0.4610
  329MOL0     H45344   8.972   5.104   6.810  1.4517 -2.1292  2.5273
  329MOL0     H45345   8.700   4.993   6.736  1.0872 -1.0422  1.3615
  329MOL0     H45346   8.713   5.094   6.870  0.1098  2.5346  0.1487
  329MOL0     H45347   8.637   5.215   6.679  0.8529 -0.4929 -1.0296
  329MOL0     H45348   8.782   5.194   6.580 -0.5635  5.3457 -1.3192
  329MOL0     H45349   8.908   5.308   6.786 -0.7606 -1.9919 -1.0549
  329MOL0     H45350   8.822   5.399   6.662  2.0559  0.1686  0.4880
  329MOL0     H45351   8.519   5.390   6.773  1.1280  0.1457 -1.6332
  329MOL0     H45352   8.395   5.613   6.944  5.1437  1.4756 -0.4730
  329MOL0     H45353   8.442   5.579   7.117 -1.8551  0.0412  0.4521
  329MOL0     H45354   8.237   5.456   7.096 -1.0707 -0.7793 -2.6244
  329MOL0     H45355   8.274   5.405   6.933  0.5760  3.3272 -1.5928
  329MOL0     H45356   8.413   5.226   7.026 -3.2265 -1.0702  0.4158
  329MOL0     H45357   8.444   5.303   7.180  0.1036 -0.2566  0.8498
  329MOL0     H45358   8.184   5.195   7.082 -0.3137  1.2765 -0.9811
  329MOL0     H45359   8.282   5.121   7.212 -0.5700 -0.6533 -2.4148
  329MOL0     H45360   8.086   5.024   7.268 -0.5928  1.3031 -3.7220
  329MOL0     H45361   7.775   4.893   7.284 -0.0546 -0.3723 -0.7902
  329MOL0     H45362   7.852   4.865   7.446  0.3393  0.4090 -0.7681
  329MOL0     H45363   7.938   4.841   7.293 -1.6213 -0.2790 -1.5900
  329MOL0     H45364   7.563   5.062   7.746  2.0543 -0.5571  1.5913
  329MOL0     H45365   7.405   4.971   7.882 -4.1414 -1.0564  0.5665
  329MOL0     H45366   7.200   4.584   7.725 -2.2171 -0.1452  0.7014
  329MOL0     H45367   7.342   4.574   7.841 -0.4914 -1.8573  0.4197
  329MOL0     H45368   7.161   4.441   7.893  1.1584  0.9084 -0.9268
  329MOL0     H45369   7.178   4.573   8.024 -0.0745  1.0610  0.4401
  329MOL0     H45370   6.971   4.531   7.807 -0.2330 -0.4695  0.5175
  329MOL0     H45371   6.984   4.682   7.903  0.1619  0.3789  0.3773
  329MOL0     H45372   6.968   4.515   8.106 -0.8202  0.5834  0.2063
  329MOL0     H45373   6.920   4.392   7.983  0.1933 -0.7814  1.8486
  329MOL0     H45374   6.786   4.667   8.035 -0.0913 -0.2317  1.4282
  329MOL0     H45375   6.730   4.554   7.912  1.1893  0.7844 -1.3703
  329MOL0     H45376   6.729   4.509   8.210 -1.4305  1.8109 -0.6606
  329MOL0     H45377   6.707   4.369   8.095 -1.2832 -0.3956 -1.3716
  329MOL0     H45378   6.522   4.601   8.070  0.3740 -0.0732  0.2018
  329MOL0     H45379   6.481   4.484   8.190  0.9804  0.8182  1.9641
  329MOL0     H45380   6.503   4.316   7.975  0.2576  0.3285 -1.0827
  329MOL0     H45381   6.497   4.451   7.869 -1.9734  5.1974  0.4084
  329MOL0     H45382   7.321   4.669   7.573 -2.1046  0.6803  1.4779
  329MOL0     H45383   7.490   4.766   7.441  1.5420 -1.1475  0.1137
  329MOL0     H45384   7.791   5.347   7.494 -2.9973 -0.8003 -1.5896
  329MOL0     H45385   8.012   5.413   7.423  1.0345 -0.9986  1.3636
  329MOL0     H45386   8.408   4.685   6.889 -0.3213 -0.4258 -1.3223
  329MOL0     H45387   8.181   4.586   6.935  0.1283  1.5625  3.1765
  329MOL0     H45388   7.817   4.558   7.031 -1.7128  0.9577 -0.9008
  329MOL0     H45389   7.577   4.457   6.996 -0.4903  0.0309  0.7691
  329MOL0     H45390   7.492   4.054   6.915  0.3976  0.5054  0.5998
  329MOL0     H45391   7.453   4.041   7.088  1.6276 -1.3418 -1.2668
  329MOL0     H45392   7.260   4.161   7.072  1.4592 -2.5721  2.2839
  329MOL0     H45393   7.266   4.016   6.966  1.6659  0.2557 -1.7627
  329MOL0     H45394   7.144   4.227   6.873 -0.2787 -1.6033  0.1334
  329MOL0     H45395   7.291   4.315   6.887  2.3435 -1.5581  1.7246
  329MOL0     H45396   7.264   4.058   6.722 -0.3083 -0.1090 -0.7738
  329MOL0     H45397   7.398   4.184   6.710 -0.7401  3.3273 -1.3127
  329MOL0     H45398   7.168   4.376   6.448 -0.6309  1.6419  1.4048
  329MOL0     H45399   7.700   4.063   7.058  1.4032 -0.2900  2.7424
  329MOL0     H45400   8.035   4.083   7.000  0.2052 -3.4366  1.4189
  329MOL0     H45401   8.037   4.133   7.168 -1.2199 -0.3332  1.8220
  329MOL0     H45402   7.922   4.012   7.113 -0.3014 -0.3665 -2.1739
  330MOL0     O45403  10.775   9.048   3.395 -0.3034 -0.6840  0.5367
  330MOL0     C45404  10.755   9.170   3.390  1.5207 -0.3767 -0.1366
  330MOL0     O45405  10.857   9.260   3.392  0.1845 -0.5202  0.0425
  330MOL0     C45406  10.984   9.206   3.367  0.4795 -0.1753  0.0426
  330MOL0     C45407  11.040   9.102   3.445 -0.8637 -0.8821  0.0275
  330MOL0     C45408  11.174   9.061   3.409 -0.8454  0.4825  0.8542
  330MOL0     C45409  11.247   9.111   3.302 -0.3298  0.4802 -0.4754
  330MOL0     O45410  11.381   9.081   3.278 -0.2321  0.9435 -0.0358
  330MOL0     C45411  11.432   8.952   3.306 -0.1634  1.2790 -0.5802
  330MOL0     C45412  11.476   8.884   3.173  0.2136 -0.4627 -0.3289
  330MOL0     C45413  11.607   8.940   3.129  0.4030 -0.0233  0.7407
  330MOL0     C45414  11.726   8.875   3.190 -0.5536 -0.7708 -0.5252
  330MOL0     C45415  11.859   8.970   3.179  0.3120 -0.0167  0.2067
  330MOL0     C45416  11.890   9.018   3.037  0.5384  0.6245  0.3231
  330MOL0     C45417  11.962   8.888   2.972 -0.8569 -0.0465  0.1528
  330MOL0     C45418  12.118   8.889   2.972  0.1725 -0.2264 -0.0156
  330MOL0     N45419  12.171   8.750   2.950  0.4175 -0.0056  0.0005
  330MOL0     C45420  12.232   8.664   3.032  1.0578  0.0484  0.1628
  330MOL0     C45421  12.240   8.546   2.965  0.8645  0.9688 -0.0163
  330MOL0     C45422  12.290   8.409   3.015  0.0897 -0.3281 -0.3958
  330MOL0     C45423  12.445   8.403   3.040 -0.0714 -0.5766 -0.8316
  330MOL0     C45424  12.541   8.375   2.918  0.1049  0.2019  0.3006
  330MOL0     C45425  12.556   8.487   2.815 -0.1895 -0.1460 -0.0921
  330MOL0     O45426  12.684   8.470   2.747 -0.0867  0.0650 -0.0935
  330MOL0     C45427  12.707   8.366   2.654  0.5465  0.1160 -0.2140
  330MOL0     C45428  12.600   8.276   2.618 -0.6374 -0.4216  0.5218
  330MOL0     C45429  12.619   8.163   2.533  0.1948  0.4604  0.0373
  330MOL0     C45430  12.513   8.080   2.488 -0.3741 -0.6538 -0.1222
  330MOL0     C45431  12.755   8.144   2.479 -0.5372 -0.7836 -0.2076
  330MOL0     C45432  12.797   8.040   2.385 -0.3973  0.0649  0.6807
  330MOL0     O45433  12.890   8.066   2.291  0.2568  0.0384  1.3518
  330MOL0     C45434  12.932   7.963   2.211 -0.9014  0.0814 -0.2702
  330MOL0     C45435  12.860   7.890   2.114  0.6241  0.4049 -0.6637
  330MOL0     C45436  12.922   7.788   2.038  0.1013  0.0365  0.6872
  330MOL0     C45437  13.063   7.768   2.046 -0.2662  0.4920  0.1501
  330MOL0     O45438  13.134   7.672   1.968  0.1536 -0.2924 -0.0774
  330MOL0     C45439  13.076   7.542   1.966  0.3567  0.0892 -0.3813
  330MOL0     C45440  13.069   7.469   2.104 -0.1218  0.5646  0.5131
  330MOL0     C45441  12.967   7.355   2.090 -0.4508  0.3727  0.5364
  330MOL0     C45442  12.965   7.268   2.213 -0.2933  0.2728  1.4792
  330MOL0     C45443  12.862   7.163   2.191  0.8970 -0.1655  0.7510
  330MOL0     C45444  12.872   7.058   2.305 -1.2477 -0.7411  0.2096
  330MOL0     C45445  12.777   6.940   2.279 -0.2684 -0.4981 -0.2125
  330MOL0     C45446  12.794   6.821   2.378  1.0184  0.6106 -0.1108
  330MOL0    Cl45447  12.719   6.878   2.535  0.1947 -0.2551 -0.2593
  330MOL0     C45448  13.134   7.842   2.134 -0.8621  0.6624  1.0646
  330MOL0     C45449  13.073   7.934   2.218 -0.2004 -0.4758  0.8001
  330MOL0     O45450  12.758   7.927   2.413  1.0177 -0.2159 -0.5814
  330MOL0     C45451  12.856   8.236   2.525  0.2575  1.6057 -0.2816
  330MOL0     C45452  12.835   8.339   2.613  0.2915 -0.5330 -0.4795
  330MOL0     N45453  12.198   8.568   2.834  0.3514  0.1403  0.2318
  330MOL0     N45454  12.156   8.694   2.829  0.4973  0.5737  0.8643
  330MOL0     C45455  11.191   9.221   3.241 -0.6195  0.1905  0.2149
  330MOL0     C45456  11.058   9.258   3.262  0.0675  0.5460 -0.2810
  330MOL0     C45457  10.614   9.220   3.387 -0.0457  0.3780 -0.2563
  330MOL0     C45458  10.601   9.355   3.352 -0.1251 -0.2402 -0.8656
  330MOL0     C45459  10.476   9.416   3.356  0.0522 -0.2472 -0.1342
  330MOL0     C45460  10.357   9.347   3.382 -0.0795  0.4829 -0.4493
  330MOL0     O45461  10.244   9.425   3.386  0.0868 -0.3014  0.0593
  330MOL0     C45462  10.125   9.370   3.440  0.0802  0.2683 -0.2377
  330MOL0     C45463  10.003   9.476   3.432  0.7748  0.4025  0.0205
  330MOL0     C45464  10.047   9.620   3.466 -0.6545  0.8690 -0.7881
  330MOL0     C45465  10.061   9.625   3.624 -0.6406 -0.2479 -0.7144
  330MOL0     C45466   9.933   9.645   3.695 -0.1706 -0.0107  1.0750
  330MOL0     C45467   9.831   9.662   3.745  0.1881 -0.3819  0.2118
  330MOL0     C45468  10.364   9.208   3.406  0.0801 -0.5024  0.0192
  330MOL0     C45469  10.493   9.143   3.416  0.8385 -0.2154  0.0188
  330MOL0     C45470  10.492   8.994   3.454 -0.5529  0.3040  0.4273
  330MOL0     H45471  11.006   9.060   3.539  1.7490 -0.8386  1.0832
  330MOL0     H45472  11.226   8.985   3.466  1.7920  1.5162 -0.0486
  330MOL0     H45473  11.355   8.893   3.356 -1.6096  2.7121 -1.0135
  330MOL0     H45474  11.512   8.959   3.379  1.6819  1.1147 -2.4987
  330MOL0     H45475  11.486   8.777   3.192  0.7788 -0.2162  0.8729
  330MOL0     H45476  11.391   8.878   3.104 -0.0731 -1.8097  0.1243
  330MOL0     H45477  11.608   8.938   3.020 -1.2675  2.2056  0.6188
  330MOL0     H45478  11.599   9.047   3.150  1.2541  0.4452 -1.1762
  330MOL0     H45479  11.708   8.852   3.295  1.4100  2.0332  0.5343
  330MOL0     H45480  11.739   8.786   3.128  0.5124  1.9877 -4.6572
  330MOL0     H45481  11.948   8.918   3.216 -0.6356 -1.2269  0.8557
  330MOL0     H45482  11.846   9.057   3.243 -0.4866 -2.1518  3.1203
  330MOL0     H45483  11.804   9.044   2.975 -1.0633 -0.6763  1.8928
  330MOL0     H45484  11.949   9.110   3.031  0.9015  0.3393 -0.7955
  330MOL0     H45485  11.935   8.876   2.866  0.2121  1.4832 -0.3366
  330MOL0     H45486  11.932   8.793   3.016 -3.0984 -0.4975 -2.1183
  330MOL0     H45487  12.153   8.967   2.903 -1.5948  2.1140  1.5781
  330MOL0     H45488  12.155   8.930   3.066  1.7155  3.0351 -1.8742
  330MOL0     H45489  12.256   8.671   3.138 -3.9206  2.8859  1.4170
  330MOL0     H45490  12.262   8.336   2.938 -0.9879 -0.5389  0.1871
  330MOL0     H45491  12.244   8.377   3.109 -0.1251  1.7826  0.2598
  330MOL0     H45492  12.483   8.497   3.082  3.5418 -2.0160 -0.4728
  330MOL0     H45493  12.463   8.329   3.119 -2.0174  0.4500  0.6562
  330MOL0     H45494  12.636   8.340   2.959  1.2754  1.2581 -1.3819
  330MOL0     H45495  12.501   8.288   2.866 -0.2847 -0.1264  1.1329
  330MOL0     H45496  12.470   8.489   2.747 -0.2624 -0.3254 -0.0068
  330MOL0     H45497  12.556   8.580   2.872 -2.0951 -0.0577 -0.1440
  330MOL0     H45498  12.500   8.309   2.644 -1.9093 -2.5102 -1.3010
  330MOL0     H45499  12.525   7.987   2.545  0.2044  0.0316  0.9028
  330MOL0     H45500  12.527   8.062   2.381 -1.8998 -1.2965 -0.2535
  330MOL0     H45501  12.418   8.131   2.506  1.3198  2.6971  0.0190
  330MOL0     H45502  12.762   7.925   2.081  1.4497  1.2546 -2.3113
  330MOL0     H45503  12.867   7.744   1.955  0.4632  2.3036 -0.8521
  330MOL0     H45504  12.977   7.552   1.919  0.6512  0.3754 -0.9516
  330MOL0     H45505  13.126   7.476   1.895 -1.7204  0.2527 -2.1037
  330MOL0     H45506  13.161   7.415   2.123 -1.1694 -1.0716  1.1124
  330MOL0     H45507  13.042   7.546   2.176  1.7662  1.8334 -0.0621
  330MOL0     H45508  12.999   7.294   2.004  2.2559  1.3869  0.7336
  330MOL0     H45509  12.869   7.399   2.074 -1.1444 -1.3991 -0.4422
  330MOL0     H45510  12.936   7.331   2.297  0.6645  1.8756  0.6724
  330MOL0     H45511  13.062   7.221   2.234 -0.6839 -0.9704  0.6588
  330MOL0     H45512  12.764   7.213   2.188  0.8681 -0.2708 -0.8373
  330MOL0     H45513  12.870   7.115   2.093 -1.3154 -0.1835  0.5230
  330MOL0     H45514  12.852   7.100   2.404 -1.7243 -0.3495 -0.0488
  330MOL0     H45515  12.974   7.019   2.295 -2.1594 -2.8641 -1.8501
  330MOL0     H45516  12.812   6.903   2.182  0.6627 -0.2163  0.0020
  330MOL0     H45517  12.673   6.972   2.271 -0.5511 -1.5203 -0.8046
  330MOL0     H45518  12.898   6.794   2.395  0.7538  0.0302  0.6825
  330MOL0     H45519  12.742   6.734   2.338  0.4673  0.3610  1.1010
  330MOL0     H45520  13.239   7.814   2.141 -1.0957 -0.0276  2.0400
  330MOL0     H45521  13.142   7.985   2.283 -0.9120 -0.2604  1.3905
  330MOL0     H45522  12.955   8.219   2.485  0.0669 -2.1952  0.4595
  330MOL0     H45523  12.912   8.402   2.655 -2.6101  1.5800  2.1360
  330MOL0     H45524  11.255   9.279   3.175  0.4727 -0.3854  0.7360
  330MOL0     H45525  11.014   9.337   3.203 -0.9795 -0.9556 -1.6147
  330MOL0     H45526  10.691   9.410   3.328  0.4562 -0.9259 -0.3341
  330MOL0     H45527  10.461   9.523   3.346 -1.3668 -0.4205 -0.1197
  330MOL0     H45528  10.091   9.278   3.392 -0.4320  0.1408  0.3650
  330MOL0     H45529  10.141   9.334   3.542  3.0641 -1.0929 -1.0770
  330MOL0     H45530   9.920   9.433   3.490 -0.4796  1.5895 -0.8204
  330MOL0     H45531   9.958   9.477   3.332 -0.9051  0.1989  0.7249
  330MOL0     H45532  10.143   9.644   3.419  0.6815  1.8712  2.1930
  330MOL0     H45533   9.968   9.689   3.436 -3.1006 -0.6617  1.6889
  330MOL0     H45534  10.126   9.700   3.670  1.7471 -3.0207  0.8291
  330MOL0     H45535  10.123   9.536   3.641  1.3153  1.2326  0.2759
  330MOL0     H45536   9.734   9.674   3.789 -0.5043 -0.8794 -1.1140
  330MOL0     H45537  10.270   9.155   3.412 -0.0361 -0.2465  0.5613
  330MOL0     H45538  10.544   8.983   3.550 -0.3331 -5.0338 -0.0468
  330MOL0     H45539  10.387   8.962   3.456 -1.6183  3.1215 -2.3380
  330MOL0     H45540  10.531   8.938   3.369  1.7122  1.5703  0.5500
  331MOL0     O45541   6.220   2.524   3.621  0.2238 -0.1155  0.3008
  331MOL0     C45542   6.250   2.407   3.598  0.4044  0.2424  0.6379
  331MOL0     O45543   6.375   2.358   3.603  0.1588  0.8026  0.2295
  331MOL0     C45544   6.484   2.437   3.582  0.9303 -0.7687 -0.3502
  331MOL0     C45545   6.591   2.429   3.671  0.2172  0.6412 -0.3311
  331MOL0     C45546   6.691   2.521   3.666 -0.4221 -0.2289 -1.2799
  331MOL0     C45547   6.704   2.624   3.575 -1.1930  0.1443  0.9945
  331MOL0     O45548   6.813   2.709   3.564  0.0780 -0.6121  0.2451
  331MOL0     C45549   6.833   2.803   3.670 -0.8792  0.4926  0.1919
  331MOL0     C45550   6.922   2.907   3.614  1.1135 -0.4593  0.1402
  331MOL0     C45551   7.072   2.863   3.599 -0.0356  0.6520  0.3681
  331MOL0     C45552   7.155   2.922   3.714  0.3292 -0.7529  0.4102
  331MOL0     C45553   7.302   2.875   3.719  1.0176  0.8592 -0.1240
  331MOL0     C45554   7.377   2.915   3.836 -0.2252 -0.5588 -0.6919
  331MOL0     C45555   7.527   2.872   3.841  0.4700 -0.3249  0.9262
  331MOL0     C45556   7.615   2.925   3.733  0.6321  0.5605 -0.0153
  331MOL0     N45557   7.755   2.909   3.753  0.0283  0.1740 -0.2041
  331MOL0     C45558   7.839   2.925   3.859 -0.5024 -0.8323  0.4613
  331MOL0     C45559   7.966   2.898   3.817 -0.4880  0.3000 -0.4567
  331MOL0     C45560   8.081   2.935   3.898 -0.5041 -0.3349  0.1034
  331MOL0     C45561   8.168   3.047   3.833  0.4119  0.2402 -0.0917
  331MOL0     C45562   8.259   2.997   3.727 -0.2722 -0.1609 -0.5909
  331MOL0     C45563   8.401   2.940   3.775  0.6145  0.4170  0.4080
  331MOL0     O45564   8.499   3.039   3.807  0.4137 -0.3747 -0.0243
  331MOL0     C45565   8.627   2.994   3.809  0.0911 -0.0568  0.1025
  331MOL0     C45566   8.686   2.896   3.729  0.7645 -0.7752 -0.3236
  331MOL0     C45567   8.806   2.840   3.760 -1.1489  0.3970  0.3261
  331MOL0     C45568   8.846   2.721   3.675 -1.0404  0.0285  0.6289
  331MOL0     C45569   8.883   2.902   3.866 -0.6517 -0.5949 -0.3493
  331MOL0     C45570   9.020   2.853   3.899  0.6923  0.4036 -0.1986
  331MOL0     O45571   9.091   2.793   3.800  0.2147 -0.3990  0.3135
  331MOL0     C45572   9.204   2.724   3.832  0.9692  0.5440 -0.6945
  331MOL0     C45573   9.328   2.781   3.864  0.0256 -1.0338 -0.2296
  331MOL0     C45574   9.425   2.697   3.911 -0.9897 -0.4840  1.0105
  331MOL0     C45575   9.412   2.557   3.901 -0.5568  0.5121 -0.0373
  331MOL0     O45576   9.507   2.463   3.952 -0.3621 -1.0427  0.2438
  331MOL0     C45577   9.644   2.492   3.919 -0.0350  0.2517 -0.2763
  331MOL0     C45578   9.746   2.407   3.996  1.1174  0.1227 -0.3183
  331MOL0     C45579   9.869   2.416   3.910 -1.0962  0.6001  0.6894
  331MOL0     C45580   9.983   2.355   3.989 -0.4225 -0.0482  0.0826
  331MOL0     C45581  10.128   2.396   3.944  0.0461 -0.0220  0.2963
  331MOL0     C45582  10.186   2.301   3.840  0.4864  0.8832  0.7577
  331MOL0     C45583  10.328   2.334   3.793 -0.3734 -0.5941 -0.3908
  331MOL0     C45584  10.424   2.316   3.916 -0.1562  0.3193  0.3541
  331MOL0    Cl45585  10.588   2.309   3.840  0.4507 -0.1845  0.5270
  331MOL0     C45586   9.294   2.500   3.867  0.2792  0.5883 -0.2848
  331MOL0     C45587   9.189   2.587   3.841 -0.5182  0.2686 -0.2303
  331MOL0     O45588   9.052   2.848   4.016 -0.2551 -0.1245 -0.3022
  331MOL0     C45589   8.829   3.002   3.942  0.6757  0.0465 -0.2958
  331MOL0     C45590   8.698   3.046   3.918  0.0587  0.6533  0.3540
  331MOL0     N45591   7.961   2.868   3.684 -0.0962 -0.6277 -0.3989
  331MOL0     N45592   7.837   2.867   3.650  0.5493  0.0475 -0.1379
  331MOL0     C45593   6.606   2.618   3.471 -0.4463 -0.0655 -1.2660
  331MOL0     C45594   6.494   2.531   3.480 -0.8200 -0.1117 -0.3290
  331MOL0     C45595   6.138   2.316   3.578 -0.1225  0.6378 -0.6203
  331MOL0     C45596   6.170   2.179   3.585  0.0111  0.3139  0.2292
  331MOL0     C45597   6.072   2.077   3.551 -0.3434 -0.2993  0.3631
  331MOL0     C45598   5.948   2.114   3.515 -0.5713 -0.7980  0.0938
  331MOL0     O45599   5.841   2.031   3.477 -0.4041  0.8555 -0.7797
  331MOL0     C45600   5.837   1.889   3.516  0.8043 -0.6673 -0.4816
  331MOL0     C45601   5.699   1.839   3.482  0.9482  0.3265 -0.0006
  331MOL0     C45602   5.676   1.698   3.536 -0.7382  0.8485 -0.0796
  331MOL0     C45603   5.699   1.594   3.430  0.0114 -0.2681 -0.1404
  331MOL0     C45604   5.598   1.584   3.324 -0.3723 -0.3471  0.3492
  331MOL0     C45605   5.507   1.582   3.241 -0.4162  1.0530  0.4768
  331MOL0     C45606   5.914   2.246   3.509  0.2908  0.0283 -0.3890
  331MOL0     C45607   6.007   2.353   3.535 -0.0476  0.7935 -0.1096
  331MOL0     C45608   5.953   2.498   3.530 -0.3136  0.5447  0.7881
  331MOL0     H45609   6.579   2.365   3.758  0.9274 -1.5234 -1.7313
  331MOL0     H45610   6.777   2.506   3.730 -1.0180 -1.4590 -0.7260
  331MOL0     H45611   6.873   2.748   3.755  1.0132 -1.6178 -1.9417
  331MOL0     H45612   6.735   2.847   3.695 -0.3883  1.2302  0.8529
  331MOL0     H45613   6.882   2.935   3.516 -0.3232 -1.5628  0.3659
  331MOL0     H45614   6.917   2.997   3.675 -3.0274 -1.1028  1.0424
  331MOL0     H45615   7.077   2.754   3.596 -0.9515  0.4836  2.7704
  331MOL0     H45616   7.117   2.900   3.506 -1.2570  1.8967  0.2395
  331MOL0     H45617   7.151   3.032   3.714  1.7266 -0.6857  1.3026
  331MOL0     H45618   7.105   2.889   3.805 -0.2924  1.7160  1.0360
  331MOL0     H45619   7.344   2.927   3.632  3.0493 -1.5667 -0.7130
  331MOL0     H45620   7.299   2.766   3.711 -0.6353  0.1199  5.9259
  331MOL0     H45621   7.380   3.024   3.849 -1.0410 -0.5023 -0.8924
  331MOL0     H45622   7.329   2.871   3.924  2.2222  2.2010  2.2603
  331MOL0     H45623   7.532   2.763   3.845  0.8255 -0.3415  0.1376
  331MOL0     H45624   7.572   2.903   3.936 -1.3048  3.2619  0.7711
  331MOL0     H45625   7.598   2.858   3.649 -0.6984 -0.9322  1.3820
  331MOL0     H45626   7.588   3.026   3.701 -2.2752  0.0138  0.3988
  331MOL0     H45627   7.810   2.965   3.955  3.4284  1.9748  0.7215
  331MOL0     H45628   8.138   2.842   3.909 -1.6992 -0.8319  3.2103
  331MOL0     H45629   8.042   2.967   3.995  1.2097  2.3299  0.0354
  331MOL0     H45630   8.109   3.133   3.798 -0.9683 -0.5459  0.2476
  331MOL0     H45631   8.228   3.078   3.919 -1.9925  0.0737  1.7381
  331MOL0     H45632   8.209   2.912   3.681 -2.7081  0.4225  0.8428
  331MOL0     H45633   8.271   3.074   3.650 -0.8340 -1.3663 -1.9198
  331MOL0     H45634   8.399   2.879   3.866 -1.9133  1.3776  1.0955
  331MOL0     H45635   8.432   2.868   3.699 -0.0287  0.3387  0.2137
  331MOL0     H45636   8.632   2.861   3.642  1.2272 -0.7381 -0.6306
  331MOL0     H45637   8.897   2.643   3.732  1.6279  1.1112 -0.1523
  331MOL0     H45638   8.915   2.748   3.594 -3.1118 -1.6074 -1.8517
  331MOL0     H45639   8.756   2.675   3.631 -2.1263  0.1621  2.6004
  331MOL0     H45640   9.343   2.888   3.855  1.1719 -1.2071 -0.4767
  331MOL0     H45641   9.519   2.739   3.946  1.2897 -3.0467 -1.5716
  331MOL0     H45642   9.644   2.482   3.810 -0.9832  0.1958 -0.2793
  331MOL0     H45643   9.671   2.596   3.940 -2.0082  0.5728  0.9468
  331MOL0     H45644   9.759   2.447   4.097  1.2177 -1.1448  0.1894
  331MOL0     H45645   9.713   2.303   4.000  2.0655 -0.3959 -3.5297
  331MOL0     H45646   9.889   2.521   3.888 -0.8340 -0.0085 -2.4397
  331MOL0     H45647   9.861   2.367   3.812 -4.1411  1.3040  0.4890
  331MOL0     H45648   9.982   2.246   3.988  0.2053 -0.0621  0.7510
  331MOL0     H45649   9.978   2.381   4.095  1.4523  0.6755  0.0354
  331MOL0     H45650  10.128   2.501   3.915 -2.2645 -0.0268  0.0444
  331MOL0     H45651  10.189   2.387   4.034 -2.0506  1.2499  1.9430
  331MOL0     H45652  10.120   2.329   3.757  0.0585  0.2808  0.8869
  331MOL0     H45653  10.172   2.194   3.859 -0.5360  0.9635  0.5161
  331MOL0     H45654  10.335   2.440   3.767 -2.1627  0.5803  3.2263
  331MOL0     H45655  10.356   2.258   3.719  0.1850  0.3138 -1.1294
  331MOL0     H45656  10.413   2.220   3.967  1.2496 -1.2412 -2.0559
  331MOL0     H45657  10.427   2.391   3.995  2.3923 -2.4603  3.1489
  331MOL0     H45658   9.271   2.394   3.871 -4.3410  1.3308 -1.8539
  331MOL0     H45659   9.092   2.544   3.820 -0.2670 -1.5731  2.0366
  331MOL0     H45660   8.883   3.043   4.027 -0.0711 -0.3730  0.3933
  331MOL0     H45661   8.651   3.128   3.973 -3.8747 -0.2297 -1.3401
  331MOL0     H45662   6.617   2.673   3.378 -0.6760 -1.4638 -2.1442
  331MOL0     H45663   6.429   2.540   3.394 -1.5454  0.4307  0.2597
  331MOL0     H45664   6.273   2.150   3.599 -0.0298 -0.6325 -1.2667
  331MOL0     H45665   6.096   1.971   3.558  0.9218  0.0400  1.7775
  331MOL0     H45666   5.907   1.819   3.470 -0.3596 -1.6256 -0.8623
  331MOL0     H45667   5.855   1.887   3.623 -1.0304 -0.0183 -0.1154
  331MOL0     H45668   5.682   1.845   3.374 -1.1051  1.8655  0.3545
  331MOL0     H45669   5.624   1.902   3.529  0.4472 -1.2791  1.4786
  331MOL0     H45670   5.750   1.683   3.615 -0.4755 -0.8819 -0.6014
  331MOL0     H45671   5.575   1.689   3.578 -0.8081  4.2691  0.8103
  331MOL0     H45672   5.714   1.494   3.471  0.8280 -0.4962 -0.9431
  331MOL0     H45673   5.796   1.625   3.389  0.0194  0.4658  0.3989
  331MOL0     H45674   5.432   1.580   3.165  1.6224  0.6220 -1.6364
  331MOL0     H45675   5.810   2.272   3.490 -0.3173 -2.5272 -1.0401
  331MOL0     H45676   6.006   2.550   3.450  0.5894 -4.1483 -2.0278
  331MOL0     H45677   5.848   2.492   3.499 -0.4078 -1.7659  1.3957
  331MOL0     H45678   5.968   2.548   3.626 -0.6219 -1.3519  1.8551
  332MOL0     O45679   3.325  10.180   5.869  0.5832 -0.0440 -0.3222
  332MOL0     C45680   3.341  10.133   5.759  0.9194  0.6333  0.0360
  332MOL0     O45681   3.441  10.167   5.674  0.4849 -0.1749 -0.5029
  332MOL0     C45682   3.556  10.244   5.698  0.9534 -0.0362  0.5473
  332MOL0     C45683   3.633  10.285   5.592 -0.6241  0.1668 -0.8020
  332MOL0     C45684   3.742  10.370   5.610 -0.0881  1.6105  0.8810
  332MOL0     C45685   3.770  10.426   5.739 -0.3927 -0.6944 -0.0001
  332MOL0     O45686   3.875  10.511   5.763  0.4310 -0.3300  0.1564
  332MOL0     C45687   4.004  10.490   5.702  0.3780 -0.4004 -0.9476
  332MOL0     C45688   4.108  10.586   5.766  0.7907  0.0861  0.1947
  332MOL0     C45689   4.235  10.589   5.687 -0.1624  0.7828 -0.5663
  332MOL0     C45690   4.350  10.646   5.759 -0.0056 -0.8173 -0.3021
  332MOL0     C45691   4.478  10.669   5.675  0.0944  0.6350  0.4649
  332MOL0     C45692   4.528  10.540   5.604 -0.2877 -0.2094 -0.4321
  332MOL0     C45693   4.660  10.560   5.520  0.1181 -0.0502  0.3840
  332MOL0     C45694   4.641  10.476   5.388 -0.5689 -0.5650 -0.0146
  332MOL0     N45695   4.626  10.332   5.419 -0.4477 -0.4600 -0.5525
  332MOL0     C45696   4.726  10.241   5.382 -0.0321  0.5694 -1.4089
  332MOL0     C45697   4.671  10.124   5.418 -0.5379 -0.8852 -0.3977
  332MOL0     C45698   4.719   9.988   5.374  0.2363 -0.5942 -1.0055
  332MOL0     C45699   4.810   9.995   5.253 -0.1772 -0.5166  0.2601
  332MOL0     C45700   4.809   9.854   5.187 -0.5591 -0.3534  0.1877
  332MOL0     C45701   4.894   9.854   5.055 -1.0567  0.2320  0.4126
  332MOL0     O45702   5.035   9.858   5.091 -0.9644  0.6119  0.7591
  332MOL0     C45703   5.144   9.795   5.027  0.5050  0.0700  0.5998
  332MOL0     C45704   5.128   9.711   4.917  0.0967  0.8538  0.2167
  332MOL0     C45705   5.239   9.641   4.854  0.6556  0.4549  0.6628
  332MOL0     C45706   5.194   9.549   4.748 -0.0712 -0.0508  0.4328
  332MOL0     C45707   5.369   9.660   4.906 -0.3638 -1.5320 -0.2813
  332MOL0     C45708   5.487   9.591   4.848  0.0235 -0.8957  0.3003
  332MOL0     O45709   5.611   9.637   4.902 -0.2057  0.4432  0.0069
  332MOL0     C45710   5.716   9.538   4.893  0.0177 -0.1546  0.6109
  332MOL0     C45711   5.835   9.564   4.834  0.3756  0.5268  0.0030
  332MOL0     C45712   5.947   9.481   4.832  0.3093  0.2430  0.4380
  332MOL0     C45713   5.928   9.361   4.895  0.3712 -0.7076  0.8147
  332MOL0     O45714   6.035   9.273   4.898 -0.2573 -0.2594  0.0668
  332MOL0     C45715   6.030   9.156   4.964 -0.4192  0.2759  0.1077
  332MOL0     C45716   6.167   9.100   4.919 -0.6060  0.2994  0.0090
  332MOL0     C45717   6.186   8.959   4.972  0.2594 -0.8196 -0.1177
  332MOL0     C45718   6.231   8.937   5.123  0.0061 -0.3303  1.1052
  332MOL0     C45719   6.268   8.784   5.127 -0.2496 -0.7069  0.8149
  332MOL0     C45720   6.271   8.734   5.272  0.3611  0.5457  0.4495
  332MOL0     C45721   6.277   8.578   5.268  0.1044  0.7934  0.7611
  332MOL0     C45722   6.411   8.508   5.262 -0.3305 -0.2534 -0.1539
  332MOL0    Cl45723   6.516   8.562   5.388 -0.4230  0.5175 -0.1740
  332MOL0     C45724   5.809   9.332   4.965 -0.3553  0.2178 -0.7278
  332MOL0     C45725   5.706   9.423   4.962  0.2229  0.5483  0.1334
  332MOL0     O45726   5.475   9.499   4.768  0.5409  0.8651  0.5684
  332MOL0     C45727   5.380   9.748   5.015 -0.3517  0.6696 -0.5149
  332MOL0     C45728   5.269   9.806   5.074  0.1118 -0.2528  0.1530
  332MOL0     N45729   4.547  10.149   5.480  0.4378  0.7930 -0.0291
  332MOL0     N45730   4.526  10.273   5.482 -0.0431 -0.3772  0.5999
  332MOL0     C45731   3.702  10.375   5.846 -0.4213  0.1473 -0.3555
  332MOL0     C45732   3.596  10.284   5.822  0.1591 -0.0756  0.0825
  332MOL0     C45733   3.248  10.042   5.682  0.6485  0.6408  0.4457
  332MOL0     C45734   3.302   9.952   5.586  0.2704 -0.2610  0.4494
  332MOL0     C45735   3.208   9.866   5.524  0.0819  1.4285 -0.0268
  332MOL0     C45736   3.072   9.868   5.550 -0.2281 -0.6680  0.2846
  332MOL0     O45737   2.991   9.777   5.486  1.2150  0.5593 -0.0057
  332MOL0     C45738   2.995   9.638   5.531  0.1168 -0.2613  0.3033
  332MOL0     C45739   2.998   9.607   5.681 -0.0355  0.2996 -0.1410
  332MOL0     C45740   2.873   9.626   5.758  0.3956  0.0248 -0.3559
  332MOL0     C45741   2.894   9.636   5.908  0.2671  0.5351 -0.3314
  332MOL0     C45742   2.968   9.526   5.979 -0.1523  1.1184  0.9287
  332MOL0     C45743   3.042   9.448   6.035  0.0084 -0.5038  0.0795
  332MOL0     C45744   3.013   9.955   5.646 -0.1855  0.1784  0.1232
  332MOL0     C45745   3.105  10.038   5.711 -0.5469 -0.0936  0.4260
  332MOL0     C45746   3.050  10.111   5.833  0.1495 -0.3367 -1.0006
  332MOL0     H45747   3.608  10.242   5.496 -1.1014 -1.7485  0.1376
  332MOL0     H45748   3.803  10.400   5.526  0.0585 -0.8359  0.0560
  332MOL0     H45749   3.995  10.511   5.595 -1.6707 -0.2099 -0.7846
  332MOL0     H45750   4.027  10.386   5.728 -1.8159 -0.5385  0.7883
  332MOL0     H45751   4.062  10.684   5.786  0.9523 -0.4297  3.6796
  332MOL0     H45752   4.118  10.547   5.867 -0.1187 -3.2155 -0.8755
  332MOL0     H45753   4.255  10.484   5.660  1.2087  1.1608 -1.1385
  332MOL0     H45754   4.222  10.644   5.593  2.4269  2.7333  0.0894
  332MOL0     H45755   4.330  10.736   5.818  4.0571 -2.0703  3.5418
  332MOL0     H45756   4.367  10.569   5.836 -1.7154 -2.5936 -1.5960
  332MOL0     H45757   4.549  10.701   5.752  1.8527  1.3700 -1.3844
  332MOL0     H45758   4.462  10.736   5.590 -2.8118 -1.0602 -0.4915
  332MOL0     H45759   4.537  10.457   5.675 -3.7631  0.4299  0.9687
  332MOL0     H45760   4.444  10.505   5.545 -0.5286  0.5717 -0.5691
  332MOL0     H45761   4.752  10.528   5.570  1.1601 -0.5019 -1.7350
  332MOL0     H45762   4.677  10.667   5.503 -1.8515  0.1157 -0.7970
  332MOL0     H45763   4.549  10.525   5.353  0.0640  1.7943  1.3863
  332MOL0     H45764   4.709  10.510   5.309 -2.4036  0.8718 -1.0713
  332MOL0     H45765   4.817  10.270   5.330  2.0385 -0.9768  1.1221
  332MOL0     H45766   4.631   9.928   5.348 -3.0234  1.9973  2.8508
  332MOL0     H45767   4.764   9.938   5.460 -1.5339 -1.4417 -0.5236
  332MOL0     H45768   4.780  10.067   5.176  1.7251 -1.0293 -1.0469
  332MOL0     H45769   4.915  10.009   5.280 -0.6033 -0.0485  1.7682
  332MOL0     H45770   4.846   9.787   5.265 -2.8497 -0.8564  0.9265
  332MOL0     H45771   4.708   9.823   5.160  0.3478 -1.0524 -2.8244
  332MOL0     H45772   4.864   9.769   4.994 -1.4387 -0.4134  1.4609
  332MOL0     H45773   4.878   9.949   5.003 -2.2838 -0.7377 -1.0649
  332MOL0     H45774   5.025   9.702   4.884 -0.5355  2.2969  1.6622
  332MOL0     H45775   5.236   9.586   4.654  0.1345 -0.0280  0.5319
  332MOL0     H45776   5.086   9.537   4.739  0.0105  0.3718 -1.4174
  332MOL0     H45777   5.232   9.449   4.771 -4.1686 -2.0969 -0.8374
  332MOL0     H45778   5.827   9.657   4.779  0.0438  0.7741  0.4604
  332MOL0     H45779   6.041   9.491   4.779  0.0204 -1.7621 -0.5339
  332MOL0     H45780   6.024   9.171   5.073  1.9770 -1.4692  0.5619
  332MOL0     H45781   5.944   9.098   4.931 -0.0167 -0.9805  1.1679
  332MOL0     H45782   6.166   9.105   4.809 -2.4285  2.1227  0.0614
  332MOL0     H45783   6.253   9.163   4.945 -0.3973  0.1782 -0.3793
  332MOL0     H45784   6.265   8.907   4.917  0.0476 -0.6279 -0.6121
  332MOL0     H45785   6.091   8.905   4.959 -0.9273  0.6524  1.8549
  332MOL0     H45786   6.150   8.952   5.195 -2.5791 -6.9275  0.2248
  332MOL0     H45787   6.321   8.989   5.157 -0.3842 -0.6503  2.6898
  332MOL0     H45788   6.194   8.725   5.071  0.9644 -0.2578 -1.3816
  332MOL0     H45789   6.362   8.767   5.075 -0.3244  0.4947  0.2622
  332MOL0     H45790   6.181   8.764   5.327 -0.4146  0.8476 -0.9418
  332MOL0     H45791   6.360   8.781   5.316  0.4699 -0.0591  0.8928
  332MOL0     H45792   6.239   8.545   5.170  2.6836 -1.1193  0.3018
  332MOL0     H45793   6.218   8.531   5.348 -0.3036 -2.5563 -1.2987
  332MOL0     H45794   6.455   8.527   5.164  2.4334 -2.3806  0.5763
  332MOL0     H45795   6.402   8.399   5.263  2.3708 -0.5680  1.3048
  332MOL0     H45796   5.798   9.235   5.012 -0.1733 -0.5870 -2.2669
  332MOL0     H45797   5.623   9.400   5.027  0.1543  0.9107  0.1736
  332MOL0     H45798   5.474   9.773   5.062 -0.9741  2.6266 -0.2146
  332MOL0     H45799   5.287   9.872   5.158  0.0397  2.1607 -1.6086
  332MOL0     H45800   3.728  10.416   5.943  1.4279  1.0277 -1.1768
  332MOL0     H45801   3.548  10.244   5.910 -0.4969 -0.6218 -0.5155
  332MOL0     H45802   3.409   9.939   5.572  0.3609  1.3285 -0.6961
  332MOL0     H45803   3.246   9.789   5.457 -3.0724 -0.7682  0.5017
  332MOL0     H45804   2.916   9.574   5.490 -2.4245  1.8054  1.6447
  332MOL0     H45805   3.082   9.589   5.488 -0.1885 -1.5678  1.1117
  332MOL0     H45806   3.070   9.673   5.729 -1.8305  2.6343 -0.4881
  332MOL0     H45807   3.020   9.500   5.690 -2.0479 -0.1185  0.2670
  332MOL0     H45808   2.821   9.716   5.724 -1.7259 -1.4101 -1.0973
  332MOL0     H45809   2.814   9.538   5.732  0.0234 -0.0510  0.7070
  332MOL0     H45810   2.793   9.637   5.950 -0.0315  0.0961 -1.0213
  332MOL0     H45811   2.952   9.727   5.931 -1.0342  1.3514 -0.1638
  332MOL0     H45812   3.103   9.373   6.080 -1.3434 -1.7321 -0.0839
  332MOL0     H45813   2.907   9.955   5.670 -0.4046  0.9816 -0.7875
  332MOL0     H45814   3.064  10.064   5.931 -2.1438  1.9352  0.5799
  332MOL0     H45815   3.087  10.214   5.837  0.3127 -0.4116 -0.3864
  332MOL0     H45816   2.941  10.115   5.823  0.2262  0.5070 -1.6283
  333MOL0     O45817   5.952   9.944   9.949 -0.3024 -0.4287 -0.2362
  333MOL0     C45818   5.915  10.027   9.870 -0.6695 -1.1421  0.3885
  333MOL0     O45819   5.793  10.034   9.817 -0.5839 -0.0575 -0.6237
  333MOL0     C45820   5.694   9.941   9.846  0.2320  0.4957  0.2785
  333MOL0     C45821   5.705   9.810   9.789  0.0624  0.4855  0.5894
  333MOL0     C45822   5.600   9.713   9.818  0.0555 -0.6477  0.3253
  333MOL0     C45823   5.491   9.752   9.907  0.8850  0.4166 -0.2852
  333MOL0     O45824   5.386   9.664   9.940 -0.8800  0.0265  0.1704
  333MOL0     C45825   5.359   9.550   9.851 -0.4400  0.7080 -1.2495
  333MOL0     C45826   5.251   9.469   9.931 -0.2129 -0.2096 -0.4285
  333MOL0     C45827   5.169   9.372   9.845 -0.0176 -0.0914 -0.5217
  333MOL0     C45828   5.102   9.262   9.932 -0.0429 -0.3012  1.4586
  333MOL0     C45829   5.005   9.174   9.845 -0.0342 -0.7248 -0.8506
  333MOL0     C45830   4.880   9.257   9.810 -0.1971  0.3191 -0.5829
  333MOL0     C45831   4.763   9.170   9.757 -0.0191 -0.2351 -0.2468
  333MOL0     C45832   4.795   9.126   9.619 -0.6304  0.4012 -0.1947
  333MOL0     N45833   4.715   9.029   9.550  0.0842 -0.1056 -0.7442
  333MOL0     C45834   4.758   8.925   9.475 -0.2166 -0.5344  0.4386
  333MOL0     C45835   4.644   8.870   9.416  0.0282  1.0102 -0.2308
  333MOL0     C45836   4.637   8.764   9.317 -0.2365 -0.2857 -0.4596
  333MOL0     C45837   4.663   8.635   9.378 -0.3092 -0.0964 -0.0505
  333MOL0     C45838   4.703   8.530   9.272 -0.8270 -0.8415 -0.4020
  333MOL0     C45839   4.725   8.382   9.322 -0.1934  0.5309 -0.4539
  333MOL0     O45840   4.746   8.375   9.467  0.5523 -0.1801  0.7415
  333MOL0     C45841   4.882   8.379   9.510 -0.1633  0.7567  0.1966
  333MOL0     C45842   4.994   8.315   9.456  0.2672  0.2637  0.7141
  333MOL0     C45843   5.112   8.294   9.524  0.2826 -0.7215  0.7635
  333MOL0     C45844   5.221   8.217   9.459  0.3023  0.2341 -0.8871
  333MOL0     C45845   5.138   8.362   9.643 -0.1225 -0.2164 -0.5961
  333MOL0     C45846   5.272   8.351   9.715  0.6513  0.0620 -0.7286
  333MOL0     O45847   5.390   8.324   9.643 -0.4903  0.2170 -0.2111
  333MOL0     C45848   5.502   8.302   9.712  0.4522 -0.2814 -0.7131
  333MOL0     C45849   5.568   8.180   9.696 -0.1283  0.6295 -1.6759
  333MOL0     C45850   5.680   8.147   9.783 -0.5553 -0.7413 -0.3508
  333MOL0     C45851   5.732   8.242   9.874  0.4509 -0.4756 -0.1242
  333MOL0     O45852   5.835   8.202   9.962 -0.1693  0.4143 -0.4144
  333MOL0     C45853   5.925   8.297  10.015  0.2281 -0.0714 -0.1124
  333MOL0     C45854   6.038   8.314   9.914 -0.3279  0.4302 -0.4242
  333MOL0     C45855   6.101   8.185   9.866 -0.4656 -0.5130 -0.6597
  333MOL0     C45856   6.206   8.212   9.756  0.6247 -0.0080  0.5316
  333MOL0     C45857   6.136   8.212   9.618  0.1904  0.9294 -0.9077
  333MOL0     C45858   6.051   8.090   9.587 -0.4604 -0.0798  0.4877
  333MOL0     C45859   6.066   8.042   9.440 -0.2755 -0.4391 -0.4876
  333MOL0     C45860   5.987   7.907   9.427 -0.3693  0.4729  0.1055
  333MOL0    Cl45861   5.816   7.945   9.411 -0.1928  0.1061 -0.1964
  333MOL0     C45862   5.671   8.368   9.881 -0.1530 -0.3644 -1.0443
  333MOL0     C45863   5.555   8.393   9.805  0.1640 -0.4692 -0.3902
  333MOL0     O45864   5.260   8.377   9.834 -0.4189 -0.4789 -0.5944
  333MOL0     C45865   5.024   8.442   9.691  0.2679  0.1976 -0.2510
  333MOL0     C45866   4.900   8.445   9.625 -0.2420 -0.7034  0.0256
  333MOL0     N45867   4.541   8.941   9.465 -0.5101 -0.1041  0.0318
  333MOL0     N45868   4.581   9.041   9.540  0.2528  0.0870  0.1487
  333MOL0     C45869   5.492   9.875   9.972 -1.3096 -0.6495 -0.2671
  333MOL0     C45870   5.592   9.967   9.943 -0.2342 -0.5683 -0.4033
  333MOL0     C45871   6.008  10.122   9.815 -0.6209  0.2249  0.3264
  333MOL0     C45872   5.953  10.253   9.798 -0.4408 -0.2149 -0.2691
  333MOL0     C45873   6.034  10.357   9.757  0.7627 -0.3288 -0.4132
  333MOL0     C45874   6.161  10.335   9.706  0.2612 -0.1231  0.8752
  333MOL0     O45875   6.248  10.425   9.653  0.2204 -0.0864 -0.6354
  333MOL0     C45876   6.237  10.564   9.690 -0.6719  0.1021 -0.6464
  333MOL0     C45877   6.322  10.654   9.608 -1.0660 -0.0480  0.5833
  333MOL0     C45878   6.469  10.655   9.655 -0.1989  0.0395 -0.9307
  333MOL0     C45879   6.538  10.519   9.636  0.0121 -0.0016 -0.0289
  333MOL0     C45880   6.685  10.533   9.670 -0.2590 -0.0041  0.2076
  333MOL0     C45881   6.803  10.544   9.689 -0.3841  0.0088 -0.7675
  333MOL0     C45882   6.219  10.208   9.730  0.1263 -0.2040 -0.3781
  333MOL0     C45883   6.144  10.098   9.790 -0.3074  0.5942  0.4171
  333MOL0     C45884   6.215   9.972   9.808 -0.8148 -0.7859  0.5781
  333MOL0     H45885   5.784   9.778   9.722 -1.2817  1.2032 -1.4210
  333MOL0     H45886   5.591   9.616   9.769 -1.7400 -0.1705 -0.3660
  333MOL0     H45887   5.447   9.487   9.839 -0.8781 -0.1977  0.0143
  333MOL0     H45888   5.332   9.579   9.749 -1.7227  5.7047  0.1956
  333MOL0     H45889   5.290   9.419  10.020 -4.1808 -1.5997  0.7822
  333MOL0     H45890   5.175   9.541   9.964 -1.1495  0.4342 -3.5703
  333MOL0     H45891   5.089   9.420   9.788 -1.6053 -1.0099  0.8509
  333MOL0     H45892   5.225   9.313   9.772 -0.0495  1.6302 -2.0080
  333MOL0     H45893   5.178   9.195   9.975  1.4382  1.5936  1.9544
  333MOL0     H45894   5.057   9.312  10.018  3.1920  2.2388  1.8773
  333MOL0     H45895   4.962   9.099   9.912 -3.0411  1.2623 -0.4053
  333MOL0     H45896   5.056   9.122   9.763 -1.1299 -1.6358 -0.9848
  333MOL0     H45897   4.857   9.313   9.901 -0.0572  1.3789 -1.1814
  333MOL0     H45898   4.900   9.332   9.732  0.8288  0.6506 -0.0177
  333MOL0     H45899   4.672   9.231   9.754  0.9079  1.3302  1.4804
  333MOL0     H45900   4.751   9.083   9.822  2.2218  0.6256  1.4668
  333MOL0     H45901   4.794   9.214   9.555  0.4454  0.8112  0.3264
  333MOL0     H45902   4.897   9.086   9.627 -0.7762 -0.1958 -1.1393
  333MOL0     H45903   4.860   8.905   9.446 -0.7530  0.0571 -2.0361
  333MOL0     H45904   4.709   8.800   9.243  2.4726 -1.7903  1.2448
  333MOL0     H45905   4.540   8.769   9.267 -0.3740 -2.4989 -0.4823
  333MOL0     H45906   4.739   8.645   9.456 -3.1885  2.4680  2.6944
  333MOL0     H45907   4.579   8.603   9.442  1.2866  0.9477  2.7222
  333MOL0     H45908   4.624   8.525   9.196 -0.7539 -0.7664 -0.4832
  333MOL0     H45909   4.793   8.572   9.225 -2.3214  2.0474 -0.8980
  333MOL0     H45910   4.631   8.326   9.311  0.7277 -1.2415  0.2677
  333MOL0     H45911   4.799   8.335   9.257 -0.0996 -0.7875  0.5512
  333MOL0     H45912   4.984   8.280   9.354 -0.7136 -0.4497  1.0343
  333MOL0     H45913   5.290   8.291   9.418 -1.6375  2.6809  0.0373
  333MOL0     H45914   5.177   8.158   9.377  0.8251 -1.9378  0.3178
  333MOL0     H45915   5.268   8.148   9.529 -2.7544 -1.0341  0.1203
  333MOL0     H45916   5.525   8.106   9.630 -0.6949  2.2563 -3.2112
  333MOL0     H45917   5.718   8.046   9.777  0.9125 -0.1969 -0.5030
  333MOL0     H45918   5.876   8.391  10.040 -2.6112 -1.0798 -1.4782
  333MOL0     H45919   5.968   8.268  10.112  0.5014  0.0676 -0.1894
  333MOL0     H45920   6.008   8.367   9.824 -1.0697 -2.0714 -1.7341
  333MOL0     H45921   6.124   8.366   9.960  0.0435  1.2914 -2.0364
  333MOL0     H45922   6.026   8.114   9.829  0.8756 -1.5148 -1.5302
  333MOL0     H45923   6.157   8.142   9.949  1.4649 -0.7336 -2.0052
  333MOL0     H45924   6.289   8.142   9.742  2.4887  2.2674 -0.5469
  333MOL0     H45925   6.255   8.309   9.773 -1.7964  1.0506  1.8931
  333MOL0     H45926   6.072   8.297   9.594  0.0338  1.0722 -0.0130
  333MOL0     H45927   6.217   8.221   9.545  0.8934  0.9934 -0.1396
  333MOL0     H45928   5.948   8.124   9.601 -0.1519  0.3478  1.9991
  333MOL0     H45929   6.078   8.003   9.648 -0.7489 -0.2346  0.3979
  333MOL0     H45930   6.173   8.031   9.418  0.0730  2.2240 -0.4596
  333MOL0     H45931   6.037   8.117   9.366  0.7915 -0.7292 -1.2348
  333MOL0     H45932   6.004   7.831   9.504 -0.4195  0.5035  0.1467
  333MOL0     H45933   6.022   7.848   9.341  0.3999  0.9834  0.0665
  333MOL0     H45934   5.711   8.440   9.952  3.3429 -2.1062 -1.0309
  333MOL0     H45935   5.515   8.494   9.815  2.8772  0.7275 -0.7367
  333MOL0     H45936   5.041   8.502   9.780  2.5050  0.7519 -0.9842
  333MOL0     H45937   4.814   8.485   9.677  0.1749 -1.1224  1.0710
  333MOL0     H45938   5.418   9.912  10.042  0.4691  0.2998  1.1912
  333MOL0     H45939   5.572  10.063   9.989 -2.4366  0.2592 -2.8236
  333MOL0     H45940   5.849  10.264   9.827 -0.9521 -3.1399 -0.6598
  333MOL0     H45941   5.991  10.457   9.755 -0.8297 -0.9780 -0.4077
  333MOL0     H45942   6.137  10.604   9.668  0.5674  3.5572 -0.6890
  333MOL0     H45943   6.276  10.568   9.792  0.2394 -1.5321 -0.8978
  333MOL0     H45944   6.298  10.760   9.618 -1.6115 -0.2841  2.1355
  333MOL0     H45945   6.317  10.626   9.503  1.3141 -0.4788  0.5397
  333MOL0     H45946   6.533  10.727   9.602  0.8086  0.2534  0.5133
  333MOL0     H45947   6.472  10.673   9.763 -0.4517 -2.8845 -0.3719
  333MOL0     H45948   6.533  10.490   9.530 -3.4794  0.0816 -0.0036
  333MOL0     H45949   6.504  10.424   9.680  1.4370 -2.0931 -3.0459
  333MOL0     H45950   6.904  10.562   9.719 -1.3178  2.5633  1.1976
  333MOL0     H45951   6.324  10.220   9.707  0.3854  2.5369  1.6828
  333MOL0     H45952   6.151   9.885   9.827  0.2461 -1.6118  0.4501
  333MOL0     H45953   6.271   9.963   9.715 -0.5482  0.9325  0.5370
  333MOL0     H45954   6.294   9.971   9.885 -0.0321 -0.5530 -0.2086
  334MOL0     O45955  11.376   0.716   9.621  0.6303  0.5563 -0.0159
  334MOL0     C45956  11.309   0.683   9.721  0.2138  0.5134  0.8399
  334MOL0     O45957  11.344   0.594   9.811 -0.1737  0.8819 -1.0480
  334MOL0     C45958  11.440   0.498   9.775  0.6523 -0.3385  0.1985
  334MOL0     C45959  11.565   0.519   9.709  0.6373 -0.3016 -0.1487
  334MOL0     C45960  11.655   0.415   9.675  0.0045 -0.2952 -0.5746
  334MOL0     C45961  11.622   0.288   9.715  0.1152  0.9218 -0.6799
  334MOL0     O45962  11.700   0.176   9.681  0.0786  0.3874 -0.2165
  334MOL0     C45963  11.828   0.205   9.615  0.4675 -0.7420  0.6793
  334MOL0     C45964  11.919   0.085   9.627 -0.9832  0.4796 -0.6319
  334MOL0     C45965  12.059   0.126   9.593 -0.8287 -0.0357 -0.2608
  334MOL0     C45966  12.128   0.219   9.700  0.7450 -0.6114 -0.2795
  334MOL0     C45967  12.276   0.238   9.697 -1.0118 -0.7721  0.6534
  334MOL0     C45968  12.332   0.265   9.548  0.3534  0.0745 -0.1078
  334MOL0     C45969  12.482   0.278   9.530  0.3124  0.1905 -0.0404
  334MOL0     C45970  12.510   0.350   9.405  0.5500 -0.3808  1.1270
  334MOL0     N45971  12.640   0.420   9.395  0.3309  0.3408 -0.7468
  334MOL0     C45972  12.751   0.385   9.326 -0.0455 -0.6085 -0.1938
  334MOL0     C45973  12.840   0.484   9.347 -0.5152 -0.3812  0.0639
  334MOL0     C45974  12.990   0.492   9.311  0.2319 -0.2657  0.5624
  334MOL0     C45975  13.084   0.479   9.430 -0.3816  0.9842  0.1173
  334MOL0     C45976  13.215   0.540   9.389 -0.4907  0.4281 -0.0196
  334MOL0     C45977  13.293   0.470   9.283 -0.0358  0.1168 -0.0237
  334MOL0     O45978  13.328   0.336   9.320  0.4706 -0.0314  0.4967
  334MOL0     C45979  13.440   0.310   9.388 -1.3498  0.8124  0.5035
  334MOL0     C45980  13.469   0.177   9.389  1.1122  0.4180  0.2780
  334MOL0     C45981  13.582   0.125   9.457 -0.4472  0.8487  1.0132
  334MOL0     C45982  13.618  -0.020   9.467 -0.7358  0.1876  0.2837
  334MOL0     C45983  13.684   0.209   9.506 -0.5174 -1.0320  0.6242
  334MOL0     C45984  13.815   0.177   9.576 -0.5773 -0.1015  0.3655
  334MOL0     O45985  13.834   0.052   9.628  0.0188  0.0802 -0.8085
  334MOL0     C45986  13.961   0.002   9.617 -0.1058  0.4753  0.1509
  334MOL0     C45987  13.998  -0.069   9.502 -0.1490  0.6716  0.4003
  334MOL0     C45988  14.137  -0.110   9.498  0.0215 -0.9516  0.1586
  334MOL0     C45989  14.224  -0.110   9.608  0.7058  0.8714  0.9528
  334MOL0     O45990  14.334  -0.190   9.611  0.4337  0.0813  0.1116
  334MOL0     C45991  14.420  -0.199   9.497 -0.1691 -0.6836  0.4748
  334MOL0     C45992  14.557  -0.249   9.541  0.2795 -0.8279 -0.3762
  334MOL0     C45993  14.548  -0.385   9.603  0.3102  1.0338  0.3226
  334MOL0     C45994  14.686  -0.450   9.608 -0.2427 -0.0315  0.1404
  334MOL0     C45995  14.678  -0.605   9.636 -0.2465 -0.3317  0.1622
  334MOL0     C45996  14.804  -0.680   9.605  0.4964  0.3275 -0.3083
  334MOL0     C45997  14.863  -0.669   9.468  0.6078  0.3896  0.2907
  334MOL0     C45998  14.949  -0.785   9.423 -0.9323 -0.0975 -0.4643
  334MOL0    Cl45999  15.104  -0.790   9.495 -0.6941  0.3321  0.0038
  334MOL0     C46000  14.183  -0.049   9.717 -0.3115 -0.0625  0.0275
  334MOL0     C46001  14.051   0.007   9.731 -0.7142  0.2491  0.2877
  334MOL0     O46002  13.909   0.253   9.558  0.3155 -0.0586  0.2996
  334MOL0     C46003  13.651   0.346   9.496 -0.4087  0.0879 -0.4847
  334MOL0     C46004  13.530   0.395   9.441  0.6092 -0.7530 -0.4386
  334MOL0     N46005  12.783   0.573   9.436  0.0676 -0.1764  1.1547
  334MOL0     N46006  12.663   0.534   9.463  0.1976 -0.1598  0.1496
  334MOL0     C46007  11.494   0.265   9.778  1.4665 -0.0098  0.1577
  334MOL0     C46008  11.405   0.368   9.803 -0.9225  0.5169  0.2694
  334MOL0     C46009  11.159   0.733   9.730 -0.7029  0.1597  0.4727
  334MOL0     C46010  11.060   0.646   9.768 -0.0515  1.3768 -0.0860
  334MOL0     C46011  10.931   0.685   9.786 -0.0540 -0.0456  0.4817
  334MOL0     C46012  10.888   0.821   9.756  0.6317  0.6049 -0.0133
  334MOL0     O46013  10.759   0.865   9.776 -0.5304  0.6957  0.7458
  334MOL0     C46014  10.705   0.961   9.681  0.4693  0.1437  0.6397
  334MOL0     C46015  10.553   0.984   9.691 -0.1596  1.0040 -0.0865
  334MOL0     C46016  10.465   0.856   9.676 -0.8072 -0.7357 -0.2551
  334MOL0     C46017  10.323   0.895   9.637 -0.2302  0.6953 -0.0010
  334MOL0     C46018  10.233   0.792   9.673 -0.2725 -0.4683 -0.3091
  334MOL0     C46019  10.156   0.707   9.712  0.1894  0.7966 -0.2959
  334MOL0     C46020  10.988   0.909   9.701 -0.4892  0.0102  0.3659
  334MOL0     C46021  11.123   0.865   9.696  0.7241  0.4643 -0.0160
  334MOL0     C46022  11.230   0.959   9.649 -1.1369  0.4549  0.1593
  334MOL0     H46023  11.597   0.620   9.686 -2.7782  0.5087 -2.1635
  334MOL0     H46024  11.746   0.451   9.628 -0.0786 -0.9858 -1.2714
  334MOL0     H46025  11.877   0.289   9.666 -1.1392  1.0573 -0.6189
  334MOL0     H46026  11.808   0.223   9.509  0.0136 -1.8297  0.5654
  334MOL0     H46027  11.912   0.051   9.730  0.7177  1.1897 -0.2536
  334MOL0     H46028  11.880   0.008   9.560 -0.2945 -0.4015 -0.0336
  334MOL0     H46029  12.123   0.037   9.598 -0.1165  0.4178 -1.0472
  334MOL0     H46030  12.059   0.174   9.494  1.9585  3.3653  1.1381
  334MOL0     H46031  12.090   0.321   9.695 -2.8989 -1.6254  2.5181
  334MOL0     H46032  12.099   0.183   9.800  0.0338 -1.7501 -0.8686
  334MOL0     H46033  12.325   0.153   9.745 -0.9819 -0.6841  0.7802
  334MOL0     H46034  12.303   0.329   9.752 -0.1754 -1.7526  1.9270
  334MOL0     H46035  12.296   0.176   9.496  3.5612 -1.4778  0.0742
  334MOL0     H46036  12.272   0.342   9.498  0.0107 -2.1239 -3.3290
  334MOL0     H46037  12.543   0.188   9.536 -1.6074 -1.1029  3.4197
  334MOL0     H46038  12.516   0.329   9.621 -0.5587 -1.2953  1.1855
  334MOL0     H46039  12.512   0.288   9.315  4.3218  0.3174  0.5484
  334MOL0     H46040  12.431   0.424   9.387 -0.6166 -2.5566 -5.1288
  334MOL0     H46041  12.774   0.295   9.270  1.8982 -0.1738 -0.1787
  334MOL0     H46042  13.000   0.584   9.252 -1.9311  0.8489  1.7862
  334MOL0     H46043  13.005   0.404   9.249 -2.2144  0.2236 -0.8973
  334MOL0     H46044  13.054   0.524   9.526  2.0678  0.7818  1.0451
  334MOL0     H46045  13.109   0.377   9.462  1.7781  1.5578  0.4269
  334MOL0     H46046  13.203   0.646   9.364 -0.2017  0.3970 -0.3039
  334MOL0     H46047  13.284   0.546   9.474  1.6864 -1.5224 -1.5032
  334MOL0     H46048  13.238   0.478   9.189  0.3382  1.1836 -0.1599
  334MOL0     H46049  13.389   0.518   9.261  0.6402  0.2386  2.7578
  334MOL0     H46050  13.381   0.129   9.347  1.9355  0.2665 -1.3665
  334MOL0     H46051  13.711  -0.043   9.414  1.0530  1.8876  2.4993
  334MOL0     H46052  13.539  -0.076   9.415 -2.1703  0.8875  1.6280
  334MOL0     H46053  13.621  -0.059   9.568  1.0717 -2.7051 -0.7832
  334MOL0     H46054  13.930  -0.068   9.418  1.0135  2.7409 -0.5849
  334MOL0     H46055  14.187  -0.149   9.409  5.4966  0.7073  2.0769
  334MOL0     H46056  14.376  -0.268   9.424  0.9138  0.3320 -1.2347
  334MOL0     H46057  14.428  -0.105   9.442 -1.4729  0.1980  1.7536
  334MOL0     H46058  14.621  -0.248   9.452 -0.5021  0.8735 -0.9536
  334MOL0     H46059  14.607  -0.180   9.609 -2.1561 -0.6209  1.3362
  334MOL0     H46060  14.485  -0.434   9.529 -0.2408  1.5533  0.4446
  334MOL0     H46061  14.500  -0.389   9.701  1.6795 -4.0772  1.0556
  334MOL0     H46062  14.752  -0.395   9.676 -1.0888  1.6786 -0.3598
  334MOL0     H46063  14.738  -0.442   9.512 -1.1636 -0.3756 -0.3936
  334MOL0     H46064  14.650  -0.602   9.741 -0.1909 -0.1853  0.1728
  334MOL0     H46065  14.597  -0.646   9.575 -3.1927 -2.4898  4.9292
  334MOL0     H46066  14.781  -0.785   9.620 -4.0242  1.1767  0.0219
  334MOL0     H46067  14.873  -0.654   9.686 -0.4254 -0.2160  0.6817
  334MOL0     H46068  14.918  -0.576   9.456  1.4905  0.1130  1.8966
  334MOL0     H46069  14.778  -0.663   9.400  0.8319  1.2253  0.0750
  334MOL0     H46070  14.965  -0.769   9.316 -0.0926  0.5709 -0.2520
  334MOL0     H46071  14.903  -0.883   9.437  0.1054 -0.8470 -2.0274
  334MOL0     H46072  14.225  -0.056   9.816  0.8148  2.5668 -0.1666
  334MOL0     H46073  14.021   0.046   9.828 -2.3458 -5.2276  2.3910
  334MOL0     H46074  13.724   0.420   9.528  0.7366 -1.3727  0.3981
  334MOL0     H46075  13.517   0.502   9.424 -0.5836 -0.4752  1.9224
  334MOL0     H46076  11.479   0.161   9.805 -2.7707 -0.1545 -1.9295
  334MOL0     H46077  11.312   0.350   9.856 -1.2221 -2.8240 -1.1645
  334MOL0     H46078  11.092   0.544   9.790  1.0303  1.5441 -0.8289
  334MOL0     H46079  10.862   0.609   9.822  3.1104 -1.8903  3.2699
  334MOL0     H46080  10.750   1.057   9.708 -3.7781  2.3525  0.7713
  334MOL0     H46081  10.731   0.938   9.578  0.8855  0.6119  0.6386
  334MOL0     H46082  10.537   1.059   9.613  1.1638 -1.0649 -2.4844
  334MOL0     H46083  10.533   1.034   9.787  0.0113  0.1169  0.4281
  334MOL0     H46084  10.506   0.785   9.603  0.5497  0.1076 -0.3514
  334MOL0     H46085  10.463   0.808   9.774  0.1789 -1.6137 -0.6451
  334MOL0     H46086  10.316   0.947   9.541  0.4894  1.5778  0.4066
  334MOL0     H46087  10.298   0.972   9.711 -0.4653  1.7386 -1.1292
  334MOL0     H46088  10.091   0.633   9.754  1.4549  1.0607  2.3602
  334MOL0     H46089  10.960   1.009   9.669  0.8503  0.2092 -0.2683
  334MOL0     H46090  11.329   0.969   9.694 -1.4237  2.0752  0.5104
  334MOL0     H46091  11.255   0.930   9.547 -1.7419  1.5026 -0.3072
  334MOL0     H46092  11.195   1.062   9.638  2.7849  2.2698  2.7368
  335MOL0     O46093   0.599   4.408  10.758  0.4221  0.3404 -0.4169
  335MOL0     C46094   0.715   4.451  10.779 -0.7540 -0.3467  0.5542
  335MOL0     O46095   0.741   4.575  10.823 -0.3560 -0.4609  0.1639
  335MOL0     C46096   0.641   4.659  10.845  0.2189 -0.9381 -0.0328
  335MOL0     C46097   0.574   4.648  10.968 -0.6297 -0.6364 -0.3575
  335MOL0     C46098   0.459   4.734  10.984 -0.4891 -0.7808  1.0813
  335MOL0     C46099   0.404   4.807  10.870 -0.1474 -0.0488 -0.1420
  335MOL0     O46100   0.295   4.891  10.882 -0.0220  0.1326 -0.3239
  335MOL0     C46101   0.200   4.854  10.985 -0.6028  0.4238  0.2757
  335MOL0     C46102   0.068   4.917  10.948  0.7518  0.3229  0.0562
  335MOL0     C46103   0.081   5.063  10.933 -0.3007 -0.7028 -0.5057
  335MOL0     C46104  -0.042   5.146  10.919  0.0762  0.0816  0.6309
  335MOL0     C46105  -0.015   5.298  10.904  0.5946 -0.1994 -0.9112
  335MOL0     C46106  -0.119   5.393  10.969 -0.7560 -0.5092  0.4540
  335MOL0     C46107  -0.103   5.408  11.122 -0.1663  0.8737 -0.3065
  335MOL0     C46108  -0.193   5.519  11.179 -0.2320  0.8873 -0.2791
  335MOL0     N46109  -0.148   5.578  11.302 -0.1351 -0.3450 -0.0708
  335MOL0     C46110  -0.123   5.499  11.408  0.4391  0.1670 -0.1822
  335MOL0     C46111  -0.070   5.589  11.497  0.5529  0.1849  0.0613
  335MOL0     C46112  -0.006   5.555  11.623 -1.4571 -0.1910  0.4581
  335MOL0     C46113   0.110   5.449  11.610  0.2170 -0.9033 -0.1762
  335MOL0     C46114   0.191   5.469  11.740 -0.3364  0.3684  0.2108
  335MOL0     C46115   0.285   5.347  11.742 -0.5793  0.0869  0.1166
  335MOL0     O46116   0.386   5.337  11.636 -0.3490  0.2574 -0.2067
  335MOL0     C46117   0.496   5.252  11.663  0.3466 -0.3364  0.5998
  335MOL0     C46118   0.484   5.124  11.629 -0.1121  0.6942 -0.4977
  335MOL0     C46119   0.580   5.037  11.668 -0.3983  0.3587 -0.3935
  335MOL0     C46120   0.582   4.899  11.609  0.0143  0.1246  0.1891
  335MOL0     C46121   0.674   5.074  11.763 -0.4622  0.6544  0.1957
  335MOL0     C46122   0.776   4.976  11.827  0.1784  0.3414 -0.5963
  335MOL0     O46123   0.885   5.034  11.885  0.0536  0.2281 -0.0712
  335MOL0     C46124   0.985   4.955  11.941  0.0298 -0.6129 -0.1549
  335MOL0     C46125   1.064   5.007  12.049  0.0470 -0.4368  0.0698
  335MOL0     C46126   1.177   4.939  12.104  0.6363  0.3025 -0.8398
  335MOL0     C46127   1.222   4.822  12.043  0.3713 -0.2959 -0.4029
  335MOL0     O46128   1.341   4.777  12.100 -0.9211  0.3198  0.2258
  335MOL0     C46129   1.409   4.682  12.021 -0.6934  0.2125 -0.1530
  335MOL0     C46130   1.524   4.624  12.101  0.2506  0.0719  0.3696
  335MOL0     C46131   1.627   4.730  12.136 -1.0575 -0.4116 -0.5109
  335MOL0     C46132   1.749   4.667  12.211 -0.0709  0.5962 -0.7773
  335MOL0     C46133   1.871   4.756  12.210  0.0013 -0.4196 -0.5486
  335MOL0     C46134   1.856   4.900  12.277 -0.7984 -0.0390 -0.3999
  335MOL0     C46135   1.905   4.904  12.427  0.1426 -0.3778  0.5529
  335MOL0     C46136   1.808   4.829  12.517 -0.0494  0.1010  0.0625
  335MOL0    Cl46137   1.880   4.850  12.682  0.7940 -0.2305  0.1378
  335MOL0     C46138   1.146   4.769  11.934 -1.2450 -0.6409 -0.1829
  335MOL0     C46139   1.029   4.823  11.887  0.4906 -1.0639  0.4724
  335MOL0     O46140   0.745   4.857  11.840  0.1594 -0.1997 -0.9343
  335MOL0     C46141   0.679   5.210  11.800  1.1566  1.0903 -0.2177
  335MOL0     C46142   0.587   5.301  11.752 -0.5284 -0.7129 -0.2809
  335MOL0     N46143  -0.056   5.715  11.430  0.3762  0.6195 -0.1946
  335MOL0     N46144  -0.103   5.708  11.313 -0.1203  1.1133 -0.7710
  335MOL0     C46145   0.478   4.813  10.756 -0.0553 -0.2667  0.4495
  335MOL0     C46146   0.593   4.738  10.737 -0.6708  1.7515 -0.0512
  335MOL0     C46147   0.827   4.363  10.754 -0.1940  0.2025  1.5298
  335MOL0     C46148   0.951   4.422  10.717  0.0618  1.0656  0.4567
  335MOL0     C46149   1.052   4.346  10.663 -0.2424 -0.7939 -0.8572
  335MOL0     C46150   1.045   4.206  10.652 -0.3187  0.2438  0.3802
  335MOL0     O46151   1.144   4.136  10.588 -0.3517 -0.7555 -0.4040
  335MOL0     C46152   1.130   3.999  10.558 -0.7746  0.9143 -0.3495
  335MOL0     C46153   1.182   3.986  10.419  0.1994 -0.1583 -0.4103
  335MOL0     C46154   1.334   3.975  10.432  0.1925 -0.0063  0.8663
  335MOL0     C46155   1.391   3.972  10.291 -0.1000 -0.3837  0.4375
  335MOL0     C46156   1.537   3.988  10.282  0.7267  0.4100  0.8050
  335MOL0     C46157   1.656   3.997  10.270  0.3433 -0.3175 -0.4616
  335MOL0     C46158   0.918   4.144  10.685  0.1978 -0.1923 -0.3473
  335MOL0     C46159   0.816   4.216  10.736 -0.2306  0.0314 -0.0596
  335MOL0     C46160   0.678   4.135  10.755  0.0848 -0.4070  0.1793
  335MOL0     H46161   0.634   4.597  11.042  2.6820 -0.0281 -2.4409
  335MOL0     H46162   0.419   4.744  11.085  3.4718  2.7006  2.5996
  335MOL0     H46163   0.243   4.882  11.081  2.1086 -2.6809  0.1329
  335MOL0     H46164   0.179   4.747  10.982  2.7454 -0.3367 -0.0770
  335MOL0     H46165   0.038   4.868  10.854 -3.4297  1.6246  0.4926
  335MOL0     H46166  -0.014   4.885  11.013 -1.8330  0.4116 -2.8731
  335MOL0     H46167   0.146   5.090  11.017 -0.2713 -0.9077 -0.4628
  335MOL0     H46168   0.146   5.085  10.847  0.4726 -0.9453 -0.0011
  335MOL0     H46169  -0.088   5.117  10.825  0.4899  2.1928 -0.2833
  335MOL0     H46170  -0.106   5.129  11.006 -1.2223  0.5070 -0.2287
  335MOL0     H46171   0.009   5.339  10.806  0.1205  1.0548 -0.5199
  335MOL0     H46172   0.073   5.319  10.965 -0.0160  4.4151 -1.3118
  335MOL0     H46173  -0.105   5.494  10.931 -3.1539  1.1760  3.5978
  335MOL0     H46174  -0.220   5.355  10.950 -1.6390  0.3191  3.0984
  335MOL0     H46175  -0.002   5.444  11.141  0.1689 -0.0980 -0.2115
  335MOL0     H46176  -0.116   5.315  11.177 -0.3954  3.0286  3.7298
  335MOL0     H46177  -0.207   5.598  11.105  3.4963 -1.6167 -4.1032
  335MOL0     H46178  -0.296   5.484  11.190 -0.6990  0.8027 -3.7417
  335MOL0     H46179  -0.133   5.391  11.414  0.6834 -0.0077 -2.1475
  335MOL0     H46180  -0.080   5.526  11.698 -2.6296  1.6713  0.0643
  335MOL0     H46181   0.034   5.647  11.666 -2.9324 -0.5309  2.7373
  335MOL0     H46182   0.072   5.348  11.589 -0.8480 -0.8112  1.1678
  335MOL0     H46183   0.176   5.477  11.527  0.1475  2.0181  0.6495
  335MOL0     H46184   0.253   5.557  11.723 -0.6886  0.3129 -1.5796
  335MOL0     H46185   0.132   5.466  11.832  0.7748  0.4008  0.9477
  335MOL0     H46186   0.329   5.336  11.841  0.1902  0.7552 -0.1343
  335MOL0     H46187   0.220   5.262  11.720 -0.0275  0.5659 -4.4286
  335MOL0     H46188   0.399   5.092  11.569 -0.4247  1.1626 -0.3130
  335MOL0     H46189   0.500   4.887  11.537  0.0475  1.0961 -0.0305
  335MOL0     H46190   0.568   4.828  11.691  0.2229  0.1553  0.2504
  335MOL0     H46191   0.675   4.887  11.554  0.7318 -0.1104  1.4237
  335MOL0     H46192   1.043   5.102  12.095  1.6777  0.6006 -1.2175
  335MOL0     H46193   1.238   4.996  12.174 -1.6368  0.6112  1.0360
  335MOL0     H46194   1.346   4.597  11.993  1.5663 -1.3625 -0.7905
  335MOL0     H46195   1.444   4.728  11.928  0.2677  1.8040  0.9400
  335MOL0     H46196   1.484   4.590  12.197 -0.3280 -2.9540 -0.8183
  335MOL0     H46197   1.571   4.540  12.049 -1.6564 -0.7047 -0.1711
  335MOL0     H46198   1.588   4.802  12.208  1.4919  0.4900  0.0776
  335MOL0     H46199   1.656   4.771  12.039  2.2173 -1.0883  0.0686
  335MOL0     H46200   1.779   4.568  12.176  0.8431  0.6483 -0.1819
  335MOL0     H46201   1.723   4.651  12.316  0.1932  2.2691 -0.4354
  335MOL0     H46202   1.943   4.698  12.269 -0.1650  1.1922  1.3268
  335MOL0     H46203   1.903   4.769  12.106 -0.2994  2.0293 -0.3943
  335MOL0     H46204   1.752   4.935  12.280 -0.6682  0.3948  2.4858
  335MOL0     H46205   1.899   4.978  12.213 -2.8784  1.8318  0.3331
  335MOL0     H46206   1.899   5.007  12.463  3.6689  0.4418 -0.7997
  335MOL0     H46207   2.008   4.872  12.440 -0.0325 -0.0260  3.2439
  335MOL0     H46208   1.804   4.724  12.486  0.4160 -0.4694  1.8261
  335MOL0     H46209   1.708   4.872  12.516 -1.3514 -2.6741  0.8803
  335MOL0     H46210   1.190   4.700  11.863  1.1478  1.5982 -1.0472
  335MOL0     H46211   0.980   4.780  11.800 -0.4131  0.3810  0.2245
  335MOL0     H46212   0.749   5.246  11.875  1.2480 -0.1176  0.2984
  335MOL0     H46213   0.589   5.404  11.788 -1.1270 -1.6793  2.7778
  335MOL0     H46214   0.455   4.883  10.676  0.7289 -0.6494 -0.1244
  335MOL0     H46215   0.655   4.751  10.649  2.8390 -0.2417  1.9047
  335MOL0     H46216   0.961   4.530  10.723 -2.6296  1.7805 -3.7397
  335MOL0     H46217   1.139   4.393  10.618 -1.4645  0.7426 -1.7041
  335MOL0     H46218   1.179   3.923  10.620  0.4671 -1.7898 -4.2879
  335MOL0     H46219   1.025   3.970  10.549 -1.9277  2.9872  3.6681
  335MOL0     H46220   1.168   4.076  10.358  1.9404  1.0883  0.9327
  335MOL0     H46221   1.139   3.897  10.373 -0.1619 -2.5010  3.9545
  335MOL0     H46222   1.386   4.064  10.470  1.0331 -0.0200 -0.2029
  335MOL0     H46223   1.368   3.885  10.484 -0.8671 -3.5261 -3.8731
  335MOL0     H46224   1.342   4.047  10.228  1.3807 -0.9602 -1.4767
  335MOL0     H46225   1.358   3.881  10.240  0.1629  1.4496 -3.3597
  335MOL0     H46226   1.762   4.002  10.261  0.3050 -0.0090 -0.7843
  335MOL0     H46227   0.905   4.038  10.667  1.0600 -0.3057 -0.3405
  335MOL0     H46228   0.606   4.149  10.674  0.3973 -1.9837 -0.4080
  335MOL0     H46229   0.691   4.029  10.778 -0.5231 -0.2306  1.4233
  335MOL0     H46230   0.632   4.177  10.845  0.7307  0.4230  0.1310
  336MOL0     O46231   0.982  10.385   6.735 -0.6242  0.3267  0.4652
  336MOL0     C46232   0.894  10.343   6.795 -0.9467 -0.1827 -0.1086
  336MOL0     O46233   0.893  10.344   6.932 -0.0977  0.3097  0.4704
  336MOL0     C46234   0.995  10.393   7.008  0.9550 -0.6637 -1.4221
  336MOL0     C46235   0.967  10.481   7.119 -0.3223  0.6678  1.5162
  336MOL0     C46236   1.068  10.517   7.211 -0.6747  0.2363  0.3326
  336MOL0     C46237   1.205  10.490   7.182 -0.0719 -0.1153 -0.1365
  336MOL0     O46238   1.306  10.528   7.258  0.4949  0.5384  0.8585
  336MOL0     C46239   1.282  10.579   7.393  0.2538 -0.5570 -0.2876
  336MOL0     C46240   1.419  10.629   7.448 -0.0487  0.7112 -0.0662
  336MOL0     C46241   1.481  10.754   7.386 -0.4899 -0.0462 -0.1477
  336MOL0     C46242   1.620  10.773   7.441 -0.9820 -0.3915 -0.2492
  336MOL0     C46243   1.660  10.908   7.425  0.0707  0.4302 -0.2801
  336MOL0     C46244   1.809  10.938   7.461 -0.3759  0.2004 -0.8967
  336MOL0     C46245   1.837  11.072   7.412  0.3992  0.0642 -0.2910
  336MOL0     C46246   1.962  11.137   7.468 -0.3749 -0.0826 -0.3959
  336MOL0     N46247   1.954  11.166   7.614 -0.0801 -0.1055 -0.1143
  336MOL0     C46248   1.880  11.270   7.672 -0.2689  0.0073  0.0707
  336MOL0     C46249   1.905  11.242   7.805 -0.8555  0.4241  0.3346
  336MOL0     C46250   1.858  11.317   7.929  0.5303  0.1779  0.7555
  336MOL0     C46251   1.920  11.274   8.067 -0.2685 -0.8142 -0.4435
  336MOL0     C46252   2.064  11.333   8.085  0.8745 -0.4034  0.3714
  336MOL0     C46253   2.089  11.477   8.090  0.5931  0.5769  0.1380
  336MOL0     O46254   1.999  11.535   8.185 -0.0501  0.7044  0.3205
  336MOL0     C46255   2.026  11.668   8.228 -0.7674 -0.5043  0.1046
  336MOL0     C46256   1.943  11.732   8.321  0.3311  0.2727 -0.0820
  336MOL0     C46257   1.961  11.865   8.358  0.7898 -0.6146 -0.0930
  336MOL0     C46258   1.859  11.915   8.452  0.3507  0.5370 -0.6157
  336MOL0     C46259   2.061  11.946   8.297 -0.5110  0.0507 -0.0846
  336MOL0     C46260   2.102  12.092   8.314  1.1628  0.7315  0.4633
  336MOL0     O46261   2.197  12.148   8.238  0.3575  0.0903  0.1842
  336MOL0     C46262   2.210  12.286   8.237  0.0675 -0.8058  0.6818
  336MOL0     C46263   2.178  12.355   8.118 -0.2410 -0.0317 -0.0762
  336MOL0     C46264   2.207  12.493   8.106  0.5651  0.2328  0.3997
  336MOL0     C46265   2.274  12.560   8.210  0.1236  0.5016 -0.6104
  336MOL0     O46266   2.286  12.700   8.216 -0.0932  0.1487 -0.7983
  336MOL0     C46267   2.327  12.773   8.091 -1.2164  0.1037 -0.7806
  336MOL0     C46268   2.385  12.911   8.112  1.0547  0.7659  0.4839
  336MOL0     C46269   2.527  12.903   8.164  1.0509 -0.1236 -0.0534
  336MOL0     C46270   2.554  13.040   8.224 -0.9075  0.0048  0.0610
  336MOL0     C46271   2.556  13.158   8.129 -0.5297 -0.4464  0.2622
  336MOL0     C46272   2.635  13.273   8.190 -0.0101 -0.1060 -0.5940
  336MOL0     C46273   2.691  13.356   8.087 -0.4244  0.0146  0.4393
  336MOL0     C46274   2.791  13.469   8.125  0.0630 -0.7270  0.1603
  336MOL0    Cl46275   2.956  13.391   8.162  0.5406 -0.1761 -0.4881
  336MOL0     C46276   2.301  12.485   8.326 -0.1111  0.6747 -0.0809
  336MOL0     C46277   2.277  12.347   8.341  0.0542 -0.4981  0.4235
  336MOL0     O46278   2.062  12.136   8.423  0.2760 -0.0650  0.0586
  336MOL0     C46279   2.147  11.875   8.201 -0.3651  0.0162  0.9586
  336MOL0     C46280   2.124  11.743   8.170  0.2546 -0.1596 -0.0065
  336MOL0     N46281   1.977  11.125   7.825  0.1368 -0.1468 -0.0284
  336MOL0     N46282   2.004  11.081   7.708 -0.2544  0.4821 -0.2012
  336MOL0     C46283   1.229  10.405   7.077  0.2461  0.2718  0.8196
  336MOL0     C46284   1.123  10.348   7.000 -0.1086 -1.2026 -0.1462
  336MOL0     C46285   0.762  10.312   6.728  0.7897  0.3132 -0.0827
  336MOL0     C46286   0.665  10.263   6.816  1.0427 -0.5152 -0.3479
  336MOL0     C46287   0.532  10.234   6.767 -0.8348 -0.7456 -0.6104
  336MOL0     C46288   0.505  10.240   6.631 -1.0112  0.0784  0.5422
  336MOL0     O46289   0.380  10.200   6.595 -0.5228  0.6104 -0.4311
  336MOL0     C46290   0.351  10.184   6.457  0.5276 -0.3026 -0.3486
  336MOL0     C46291   0.235  10.087   6.426  0.2543 -0.3574  0.2794
  336MOL0     C46292   0.106  10.111   6.503 -0.8319 -0.0811 -0.6706
  336MOL0     C46293   0.035  10.236   6.448 -0.2695 -0.2252 -0.2275
  336MOL0     C46294  -0.110  10.244   6.493 -0.4137 -0.5894  0.3701
  336MOL0     C46295  -0.222  10.258   6.527  0.8566  0.4397 -0.7491
  336MOL0     C46296   0.610  10.287   6.544 -0.2895 -0.0024 -0.1303
  336MOL0     C46297   0.735  10.309   6.593 -0.0895 -0.6481 -0.1193
  336MOL0     C46298   0.835  10.332   6.486 -0.9375  0.4178 -0.1311
  336MOL0     H46299   0.867  10.519   7.139 -0.7026 -0.1442  1.1745
  336MOL0     H46300   1.045  10.584   7.293  1.0084  0.2340  0.8482
  336MOL0     H46301   1.240  10.504   7.460  1.2446 -0.6370  0.2544
  336MOL0     H46302   1.207  10.658   7.392  0.0175 -0.7751  0.1799
  336MOL0     H46303   1.397  10.639   7.554 -0.9333 -1.8600  0.0810
  336MOL0     H46304   1.483  10.540   7.450 -1.4610 -0.5326 -3.2360
  336MOL0     H46305   1.474  10.745   7.277 -2.1671  0.6024 -0.1251
  336MOL0     H46306   1.422  10.841   7.415  1.8093  0.8658  2.1362
  336MOL0     H46307   1.616  10.758   7.549 -1.4656  0.3761 -0.1506
  336MOL0     H46308   1.699  10.715   7.392  0.2052  1.3375 -0.4764
  336MOL0     H46309   1.600  10.975   7.487 -0.0999 -0.4623  0.5388
  336MOL0     H46310   1.644  10.937   7.321  2.5958 -2.9711 -1.8054
  336MOL0     H46311   1.813  10.927   7.569 -3.2140 -1.6389 -0.8666
  336MOL0     H46312   1.872  10.864   7.411 -0.6966 -1.1083  0.5734
  336MOL0     H46313   1.755  11.142   7.434 -0.8713 -0.3248 -3.3255
  336MOL0     H46314   1.843  11.058   7.304 -0.2761  0.3513 -0.3737
  336MOL0     H46315   2.049  11.073   7.453  0.1865 -0.0684  2.2828
  336MOL0     H46316   1.976  11.231   7.415  1.4949  0.3119  0.6999
  336MOL0     H46317   1.821  11.351   7.632  1.3640  0.0109 -2.4821
  336MOL0     H46318   1.753  11.292   7.948  0.4374  1.0626  1.4846
  336MOL0     H46319   1.873  11.424   7.918  1.2611  0.1097  1.0012
  336MOL0     H46320   1.847  11.297   8.146  1.0901  1.6893  0.1896
  336MOL0     H46321   1.929  11.165   8.064  0.0670 -0.7664 -2.4795
  336MOL0     H46322   2.103  11.290   8.178 -0.0525  1.0039  1.4634
  336MOL0     H46323   2.113  11.296   7.994 -3.7585  2.2184 -3.7086
  336MOL0     H46324   2.194  11.480   8.121  0.6140 -0.7412  0.2445
  336MOL0     H46325   2.073  11.524   7.992 -2.4624 -1.3071 -0.4059
  336MOL0     H46326   1.858  11.676   8.360  0.9379 -1.0817 -0.6446
  336MOL0     H46327   1.898  11.969   8.539 -4.2775  0.8336  1.5887
  336MOL0     H46328   1.810  11.827   8.495  3.5670 -1.9666 -1.6506
  336MOL0     H46329   1.795  11.988   8.402  0.6192  1.2749  0.1015
  336MOL0     H46330   2.145  12.290   8.037  3.2049 -1.3888 -0.5381
  336MOL0     H46331   2.185  12.538   8.010  1.1410 -0.4369 -0.0634
  336MOL0     H46332   2.382  12.702   8.029 -4.7869 -3.7849 -0.0032
  336MOL0     H46333   2.240  12.792   8.028 -1.9341  1.6770  0.6058
  336MOL0     H46334   2.381  12.971   8.020  0.3517 -0.4697 -0.3270
  336MOL0     H46335   2.317  12.961   8.181 -1.6810 -3.1940  0.9899
  336MOL0     H46336   2.605  12.884   8.090 -0.8753 -2.0686 -1.7318
  336MOL0     H46337   2.529  12.838   8.253  4.6644  0.8229  0.7315
  336MOL0     H46338   2.658  13.028   8.259 -0.4464  0.8106 -0.9933
  336MOL0     H46339   2.489  13.067   8.308  0.4125  1.9939  0.5127
  336MOL0     H46340   2.590  13.144   8.026 -0.3827  6.2925 -1.0693
  336MOL0     H46341   2.452  13.191   8.124  0.1614  1.8361 -0.7399
  336MOL0     H46342   2.726  13.233   8.236  1.0199  3.3577  0.7388
  336MOL0     H46343   2.576  13.332   8.261 -2.9386 -2.2271 -1.1195
  336MOL0     H46344   2.602  13.395   8.036 -0.8089 -1.1351  0.2065
  336MOL0     H46345   2.738  13.302   8.005 -2.8902 -2.6168  0.5850
  336MOL0     H46346   2.766  13.520   8.218  1.4020  0.6188 -0.1676
  336MOL0     H46347   2.802  13.543   8.045  0.5337  0.0550  0.9179
  336MOL0     H46348   2.350  12.537   8.407  0.0435  2.1402 -1.0672
  336MOL0     H46349   2.303  12.291   8.431  1.7849  1.1027  0.9768
  336MOL0     H46350   2.227  11.929   8.151  2.1760 -3.4042  0.9454
  336MOL0     H46351   2.195  11.701   8.099 -2.4117 -2.7968 -1.3386
  336MOL0     H46352   1.325  10.360   7.053  0.4800  0.9326  0.4804
  336MOL0     H46353   1.141  10.277   6.920  0.4636 -1.2563  0.0245
  336MOL0     H46354   0.684  10.251   6.922 -0.9827  0.3749  0.1681
  336MOL0     H46355   0.474  10.180   6.841 -0.1780  1.3153  1.5181
  336MOL0     H46356   0.322  10.283   6.421 -2.2983 -0.2225  1.7858
  336MOL0     H46357   0.428  10.129   6.401 -1.2473 -2.6809 -0.6377
  336MOL0     H46358   0.279   9.991   6.456 -2.9564 -1.5787  1.4629
  336MOL0     H46359   0.211  10.090   6.319  1.1143  1.1653  0.1089
  336MOL0     H46360   0.042  10.022   6.509 -1.8874  0.7842  1.8247
  336MOL0     H46361   0.129  10.116   6.609 -4.4449 -0.8836  0.2869
  336MOL0     H46362   0.037  10.247   6.340  0.9613 -1.8085 -0.4032
  336MOL0     H46363   0.084  10.319   6.499 -2.1356  0.7239  0.1268
  336MOL0     H46364  -0.324  10.256   6.562  1.6634  0.1279  1.7580
  336MOL0     H46365   0.590  10.303   6.439  0.7633 -0.2151 -0.3701
  336MOL0     H46366   0.866  10.437   6.484  1.4679 -0.2006  0.6992
  336MOL0     H46367   0.920  10.270   6.518 -1.5188 -0.1563  0.3337
  336MOL0     H46368   0.800  10.302   6.387  3.1167 -1.1386 -1.3049
  337MOL0     O46369   6.251   6.485   9.822 -0.1784  0.3983 -0.1861
  337MOL0     C46370   6.217   6.381   9.881  0.1672 -0.0491 -0.6923
  337MOL0     O46371   6.277   6.332   9.995  0.4210 -0.3778  0.3560
  337MOL0     C46372   6.378   6.400  10.060 -0.5818  0.6299 -0.0912
  337MOL0     C46373   6.373   6.436  10.198 -0.4104  0.2923  0.3045
  337MOL0     C46374   6.482   6.499  10.258  0.3243 -0.1170 -0.0437
  337MOL0     C46375   6.600   6.529  10.185 -0.3528  0.2220 -0.3590
  337MOL0     O46376   6.704   6.592  10.242  0.0573 -0.4088  0.3215
  337MOL0     C46377   6.674   6.661  10.369 -0.3042  0.3481 -0.0077
  337MOL0     C46378   6.792   6.760  10.405  0.1101  0.1031  0.4335
  337MOL0     C46379   6.912   6.677  10.458 -0.1168 -0.5705  0.3261
  337MOL0     C46380   6.896   6.647  10.611 -1.3748  0.3965 -0.3367
  337MOL0     C46381   7.015   6.578  10.677 -0.3650  0.6464  0.3224
  337MOL0     C46382   7.142   6.656  10.668 -0.4051 -0.3740  0.2137
  337MOL0     C46383   7.257   6.612  10.762 -0.3326  0.0044  0.4202
  337MOL0     C46384   7.324   6.487  10.710 -0.9675 -0.2625  0.2414
  337MOL0     N46385   7.425   6.429  10.803  0.5149 -0.4270  0.4928
  337MOL0     C46386   7.411   6.313  10.869 -0.6741 -0.1384  0.9030
  337MOL0     C46387   7.518   6.296  10.952 -0.2536  0.0283  0.6611
  337MOL0     C46388   7.569   6.184  11.038 -0.0231  1.0525  0.4257
  337MOL0     C46389   7.584   6.214  11.187 -0.1350 -0.6482 -0.2742
  337MOL0     C46390   7.713   6.145  11.243  0.7691 -0.0458  0.9353
  337MOL0     C46391   7.751   6.168  11.391  1.0452  0.1712  0.5569
  337MOL0     O46392   7.740   6.307  11.429  0.2192 -0.2210 -0.1832
  337MOL0     C46393   7.736   6.350  11.563 -0.0271 -0.1050 -0.7287
  337MOL0     C46394   7.733   6.256  11.668  0.9113 -0.2700  0.9268
  337MOL0     C46395   7.734   6.296  11.801  0.0538  0.3316 -0.3940
  337MOL0     C46396   7.746   6.199  11.916 -0.6774  0.0981 -0.2483
  337MOL0     C46397   7.760   6.436  11.827 -0.4831  0.2940 -0.5157
  337MOL0     C46398   7.768   6.500  11.968  0.4750 -0.4437  0.4908
  337MOL0     O46399   7.846   6.611  11.971  0.2869 -0.4036 -0.2816
  337MOL0     C46400   7.908   6.646  12.085 -0.7094  1.0624 -0.0573
  337MOL0     C46401   8.010   6.574  12.134  0.1164  0.1397 -0.0431
  337MOL0     C46402   8.086   6.619  12.246  0.9039  0.0130 -0.4561
  337MOL0     C46403   8.053   6.737  12.313  0.6816 -0.4461  0.3775
  337MOL0     O46404   8.113   6.802  12.417  0.5400 -0.1076 -0.2722
  337MOL0     C46405   8.226   6.739  12.475 -0.0403 -0.5092 -0.0619
  337MOL0     C46406   8.181   6.649  12.597 -0.2165 -0.3210  0.6115
  337MOL0     C46407   8.292   6.599  12.678 -0.2050  0.1387 -0.1918
  337MOL0     C46408   8.229   6.505  12.781 -0.4280 -0.8664 -0.8584
  337MOL0     C46409   8.313   6.397  12.836 -0.1210  0.2464 -0.0677
  337MOL0     C46410   8.457   6.422  12.890  0.1835  0.8941 -0.2407
  337MOL0     C46411   8.544   6.296  12.901 -0.0225  0.0948  1.2362
  337MOL0     C46412   8.667   6.313  12.988  0.0670  0.3427 -0.2588
  337MOL0    Cl46413   8.754   6.466  12.935 -0.0501 -0.6465 -0.1988
  337MOL0     C46414   7.945   6.812  12.256  0.1672  0.0832  0.5144
  337MOL0     C46415   7.873   6.768  12.149  0.9052  0.1090  0.6152
  337MOL0     O46416   7.720   6.438  12.065 -0.1779 -0.3070  0.2294
  337MOL0     C46417   7.768   6.525  11.715  0.0152  0.0818  0.8537
  337MOL0     C46418   7.749   6.487  11.588 -0.4389 -0.1182  0.7435
  337MOL0     N46419   7.607   6.402  10.929  1.2153  0.8180  0.8440
  337MOL0     N46420   7.550   6.475  10.835  0.1767  0.4635 -0.4166
  337MOL0     C46421   6.601   6.494  10.047 -0.3117  0.6099 -0.8346
  337MOL0     C46422   6.493   6.429   9.992 -0.1729  0.1887 -0.6867
  337MOL0     C46423   6.091   6.317   9.841  0.8266  0.7290 -0.5757
  337MOL0     C46424   6.020   6.232   9.932 -0.0201 -0.3369 -1.2591
  337MOL0     C46425   5.888   6.189   9.909 -0.5464  0.6675  0.3717
  337MOL0     C46426   5.825   6.212   9.787 -0.8269  0.3048 -0.7312
  337MOL0     O46427   5.694   6.177   9.765  0.2186  0.0508 -0.3655
  337MOL0     C46428   5.681   6.089   9.652 -0.0972  0.2678  0.2093
  337MOL0     C46429   5.558   5.997   9.676 -0.0194 -0.0736  0.5506
  337MOL0     C46430   5.567   5.860   9.600 -0.4769 -0.0090 -0.0021
  337MOL0     C46431   5.442   5.776   9.619  0.2357  0.6916  0.8227
  337MOL0     C46432   5.401   5.752   9.755  0.2076  0.9267  1.3436
  337MOL0     C46433   5.355   5.764   9.864 -0.5540 -0.8374 -0.1314
  337MOL0     C46434   5.908   6.274   9.689 -0.0701  0.1730 -0.3314
  337MOL0     C46435   6.033   6.327   9.711  0.7175 -0.0272 -0.3105
  337MOL0     C46436   6.116   6.373   9.595 -0.0933  1.1884  0.5477
  337MOL0     H46437   6.284   6.402  10.250  0.8130 -0.5896  1.8971
  337MOL0     H46438   6.458   6.512  10.363  0.5652  2.9225 -0.2609
  337MOL0     H46439   6.656   6.584  10.444  1.0897  0.1796  0.1906
  337MOL0     H46440   6.580   6.718  10.367 -2.4955 -2.8257  2.6220
  337MOL0     H46441   6.823   6.821  10.320  1.3423 -0.1902  0.6523
  337MOL0     H46442   6.751   6.835  10.474  1.1821  3.2226 -2.1138
  337MOL0     H46443   6.923   6.585  10.400  3.8124  1.4078 -2.5669
  337MOL0     H46444   7.007   6.733  10.456 -0.6043  0.2910  0.7001
  337MOL0     H46445   6.875   6.743  10.659 -3.9103 -2.0329  4.0824
  337MOL0     H46446   6.807   6.586  10.628 -0.9350 -0.1552  0.0286
  337MOL0     H46447   7.030   6.484  10.624  1.6966  0.5993  0.9222
  337MOL0     H46448   6.994   6.550  10.781  2.6349  0.6958  1.0401
  337MOL0     H46449   7.173   6.645  10.564 -3.0920  1.1573 -0.8399
  337MOL0     H46450   7.110   6.756  10.698 -0.5892 -0.6057  0.8178
  337MOL0     H46451   7.217   6.592  10.862 -1.0274 -2.6757 -0.3084
  337MOL0     H46452   7.332   6.691  10.768  1.0193 -1.2548  0.4926
  337MOL0     H46453   7.250   6.411  10.685  1.8988 -3.0695 -0.3156
  337MOL0     H46454   7.374   6.518  10.617 -1.5549 -3.1462 -1.1349
  337MOL0     H46455   7.328   6.245  10.883  1.3250 -2.4744  2.3913
  337MOL0     H46456   7.658   6.151  10.983 -0.6348  0.3857 -0.1879
  337MOL0     H46457   7.500   6.099  11.040  1.3136 -0.0791  0.5420
  337MOL0     H46458   7.594   6.323  11.193 -0.9019 -0.6445  2.6870
  337MOL0     H46459   7.500   6.176  11.246  1.9241 -2.4393  1.7171
  337MOL0     H46460   7.694   6.041  11.213 -3.2133  0.6318  0.6747
  337MOL0     H46461   7.795   6.185  11.181 -0.8254  0.2750 -1.0743
  337MOL0     H46462   7.676   6.112  11.447 -0.8573 -1.1623 -3.0055
  337MOL0     H46463   7.846   6.118  11.412  1.7522  0.7611 -1.0734
  337MOL0     H46464   7.718   6.150  11.646 -0.1944  0.2363 -0.9822
  337MOL0     H46465   7.844   6.210  11.964 -0.4620  1.2612 -0.9099
  337MOL0     H46466   7.738   6.097  11.878  1.2774 -1.3139  2.7346
  337MOL0     H46467   7.665   6.199  11.989  1.0694 -0.5343  1.7965
  337MOL0     H46468   8.049   6.490  12.077  2.2468  1.1086 -0.1202
  337MOL0     H46469   8.181   6.568  12.262  0.2856 -1.8685 -2.2735
  337MOL0     H46470   8.279   6.683  12.397 -1.2771  0.1172 -1.4135
  337MOL0     H46471   8.290   6.818  12.514 -2.5251  0.7833  1.6825
  337MOL0     H46472   8.129   6.716  12.665 -0.4896 -0.0924  0.1829
  337MOL0     H46473   8.120   6.564  12.564  1.3780 -2.5917  3.1315
  337MOL0     H46474   8.351   6.676  12.728  0.3462 -1.9649  2.6810
  337MOL0     H46475   8.364   6.546  12.615  0.9420  2.4982 -0.9619
  337MOL0     H46476   8.154   6.446  12.728 -0.4429 -0.2678 -1.5161
  337MOL0     H46477   8.184   6.560  12.864 -0.8411 -2.2323 -0.1400
  337MOL0     H46478   8.263   6.353  12.923  1.2609  4.7065  3.3725
  337MOL0     H46479   8.329   6.323  12.757 -1.8079 -0.2103 -0.0328
  337MOL0     H46480   8.449   6.464  12.991  1.5405 -0.0550  0.2907
  337MOL0     H46481   8.510   6.498  12.833  1.4977  0.1619 -0.0223
  337MOL0     H46482   8.572   6.270  12.799 -1.7527  0.8000  0.5438
  337MOL0     H46483   8.476   6.218  12.936  2.1881 -2.9755 -0.8578
  337MOL0     H46484   8.729   6.223  12.983 -1.4210 -0.8199  1.1110
  337MOL0     H46485   8.639   6.315  13.094 -0.9878  4.5005 -0.4571
  337MOL0     H46486   7.911   6.910  12.287 -2.7645 -0.2884 -1.1722
  337MOL0     H46487   7.804   6.832  12.095 -0.8558 -0.8148  1.6404
  337MOL0     H46488   7.790   6.630  11.734  2.4193 -0.2978  0.5328
  337MOL0     H46489   7.750   6.551  11.500  2.8574 -0.1955  0.6255
  337MOL0     H46490   6.691   6.507   9.989  1.4178 -2.1107  1.0290
  337MOL0     H46491   6.506   6.384   9.894 -0.8996 -3.2224  0.6456
  337MOL0     H46492   6.057   6.200  10.029  0.9667 -2.1563 -2.1828
  337MOL0     H46493   5.824   6.138   9.981 -1.2817  2.3804  0.9939
  337MOL0     H46494   5.669   6.135   9.554  1.3429  0.2505  0.0124
  337MOL0     H46495   5.770   6.027   9.641  0.9873  1.8380 -0.1603
  337MOL0     H46496   5.463   6.048   9.658 -1.3522 -1.8761  2.1319
  337MOL0     H46497   5.564   5.966   9.780 -0.3315 -1.6765  0.1171
  337MOL0     H46498   5.565   5.889   9.494 -0.0300 -1.0484 -0.3195
  337MOL0     H46499   5.660   5.805   9.621 -1.7358 -1.9081  0.8907
  337MOL0     H46500   5.468   5.677   9.580  0.7503  1.9141 -2.2099
  337MOL0     H46501   5.365   5.812   9.551  1.2469  1.2179 -0.0778
  337MOL0     H46502   5.318   5.773   9.965  0.0905 -0.6084  0.0888
  337MOL0     H46503   5.875   6.287   9.587  1.7609 -0.4542 -1.0450
  337MOL0     H46504   6.070   6.463   9.555 -0.3278 -0.6347 -3.8790
  337MOL0     H46505   6.222   6.367   9.621  0.0897 -3.5402 -0.2803
  337MOL0     H46506   6.113   6.292   9.521 -2.1419  1.6275  0.0728
  338MOL0     O46507  11.319   0.722   1.365  0.2889  0.3221 -0.2806
  338MOL0     C46508  11.220   0.799   1.373  0.5309  0.6836  0.3408
  338MOL0     O46509  11.095   0.760   1.351  0.1757 -0.1615 -0.5830
  338MOL0     C46510  11.061   0.627   1.366 -0.5387  0.4433 -0.0055
  338MOL0     C46511  11.005   0.584   1.482 -0.8046 -0.2615  0.1207
  338MOL0     C46512  10.959   0.458   1.488  0.7855 -0.1109 -0.6043
  338MOL0     C46513  10.977   0.357   1.389  0.6408 -0.5911  0.2179
  338MOL0     O46514  10.934   0.224   1.409 -0.1042 -0.1102 -0.1278
  338MOL0     C46515  10.975   0.170   1.535  0.0499  0.1477  0.4454
  338MOL0     C46516  10.891   0.053   1.575 -0.4625 -0.7970  0.2130
  338MOL0     C46517  10.868  -0.058   1.465  0.5588  0.4410  0.1726
  338MOL0     C46518  10.738  -0.147   1.491  1.0107 -1.0364  0.7555
  338MOL0     C46519  10.696  -0.196   1.627 -0.4373  0.5272  0.0928
  338MOL0     C46520  10.574  -0.286   1.625 -0.7412 -0.6614 -0.0553
  338MOL0     C46521  10.440  -0.232   1.566 -0.6749  1.0130 -0.6392
  338MOL0     C46522  10.328  -0.332   1.592 -0.0276 -0.1870 -0.2071
  338MOL0     N46523  10.315  -0.371   1.737 -0.0114 -0.2592  1.3327
  338MOL0     C46524  10.250  -0.289   1.824 -0.4595 -0.8057 -0.0955
  338MOL0     C46525  10.204  -0.375   1.918 -0.5403 -0.0548 -0.4441
  338MOL0     C46526  10.119  -0.344   2.039  0.3634 -0.5240 -0.6763
  338MOL0     C46527  10.035  -0.210   2.047 -0.5246  0.0340  0.4237
  338MOL0     C46528   9.929  -0.209   2.153 -0.3652 -0.1013 -0.2591
  338MOL0     C46529   9.976  -0.237   2.293  0.3458  0.1519 -0.4653
  338MOL0     O46530  10.044  -0.121   2.350 -0.3751 -0.0878 -0.3381
  338MOL0     C46531  10.126  -0.152   2.451 -0.0016 -0.2022  0.1824
  338MOL0     C46532  10.101  -0.098   2.578 -0.0348 -0.9455 -0.0779
  338MOL0     C46533  10.190  -0.106   2.685 -0.0087 -0.3513 -0.4155
  338MOL0     C46534  10.135  -0.042   2.813  0.0429 -0.2697 -0.4611
  338MOL0     C46535  10.316  -0.172   2.678  0.5631 -0.5249 -0.0508
  338MOL0     C46536  10.425  -0.160   2.783 -1.0949  0.3323 -0.1387
  338MOL0     O46537  10.538  -0.241   2.753 -0.3001 -0.7485  0.0050
  338MOL0     C46538  10.625  -0.262   2.851  0.1769  0.2437 -0.0405
  338MOL0     C46539  10.587  -0.357   2.942  0.6312 -0.6333 -0.8345
  338MOL0     C46540  10.662  -0.380   3.060  0.7083 -0.0899 -0.1439
  338MOL0     C46541  10.778  -0.301   3.087  0.5552 -0.2129  0.1696
  338MOL0     O46542  10.840  -0.331   3.207 -0.0590 -0.4002 -0.0328
  338MOL0     C46543  10.934  -0.235   3.253  0.5673 -0.2737  0.6022
  338MOL0     C46544  10.991  -0.289   3.385 -0.0982  0.0331 -0.3484
  338MOL0     C46545  11.073  -0.423   3.386  0.0693  0.8780  0.1666
  338MOL0     C46546  11.082  -0.492   3.520 -0.6843 -0.4183  0.9058
  338MOL0     C46547  11.177  -0.425   3.605  0.3274  0.9147 -0.3232
  338MOL0     C46548  11.167  -0.488   3.752 -1.2392  0.6348  0.7514
  338MOL0     C46549  11.261  -0.417   3.848 -0.0699  0.9021 -0.4590
  338MOL0     C46550  11.277  -0.482   3.992  0.6021 -0.4667  0.2646
  338MOL0    Cl46551  11.418  -0.396   4.068 -0.1312 -0.1093  0.6549
  338MOL0     C46552  10.825  -0.218   2.984 -0.1981 -0.7938  0.3166
  338MOL0     C46553  10.745  -0.200   2.864 -0.4094 -0.3672 -0.3341
  338MOL0     O46554  10.414  -0.100   2.892  0.3296  0.2785 -0.0362
  338MOL0     C46555  10.333  -0.240   2.551 -0.7854  0.3505  0.4287
  338MOL0     C46556  10.247  -0.234   2.442  0.1555  0.5460 -0.3949
  338MOL0     N46557  10.239  -0.506   1.877  0.2516  0.1477  0.4000
  338MOL0     N46558  10.306  -0.500   1.774  0.6621 -0.2273  0.1427
  338MOL0     C46559  11.037   0.395   1.274 -0.3018 -0.0278 -0.4987
  338MOL0     C46560  11.075   0.530   1.260  0.2232 -0.1270  0.0885
  338MOL0     C46561  11.256   0.942   1.371 -0.4224 -0.9157  0.3787
  338MOL0     C46562  11.153   1.035   1.337 -0.1562 -1.2016 -0.8844
  338MOL0     C46563  11.163   1.172   1.364  0.6922  0.3917  0.0123
  338MOL0     C46564  11.275   1.224   1.418 -0.2840  0.2139 -1.4363
  338MOL0     O46565  11.258   1.356   1.452 -0.2408 -0.1099  0.1316
  338MOL0     C46566  11.364   1.414   1.526 -0.1604 -0.2282  0.7021
  338MOL0     C46567  11.465   1.471   1.415 -0.5167 -0.1577 -0.2616
  338MOL0     C46568  11.577   1.566   1.474 -0.0691 -0.2616  0.2995
  338MOL0     C46569  11.684   1.491   1.551 -0.4027 -0.2764  0.6481
  338MOL0     C46570  11.749   1.386   1.477  0.4444  0.2859  0.7163
  338MOL0     C46571  11.806   1.294   1.425 -0.2630  0.2525  0.4223
  338MOL0     C46572  11.383   1.135   1.443  0.4600  1.0300 -0.2188
  338MOL0     C46573  11.376   0.999   1.419  0.3136  0.2695 -0.2377
  338MOL0     C46574  11.502   0.923   1.446 -0.7446  0.6249 -0.6596
  338MOL0     H46575  10.982   0.656   1.560  0.0623 -0.3076  0.4393
  338MOL0     H46576  10.936   0.425   1.589 -0.9474 -2.8418 -1.7578
  338MOL0     H46577  10.967   0.235   1.623 -2.7099 -0.8358  1.0032
  338MOL0     H46578  11.079   0.139   1.523 -1.2784 -5.6344  1.0051
  338MOL0     H46579  10.938   0.005   1.661  0.5316  0.8691  0.6537
  338MOL0     H46580  10.793   0.084   1.611  0.1597  0.1005  1.1911
  338MOL0     H46581  10.862  -0.020   1.363  2.3451  0.8561  0.1979
  338MOL0     H46582  10.950  -0.130   1.476  0.5647  0.7558  2.7481
  338MOL0     H46583  10.656  -0.089   1.449  2.3867  0.4405 -0.0039
  338MOL0     H46584  10.747  -0.230   1.420 -1.8528  0.5530 -1.6369
  338MOL0     H46585  10.666  -0.108   1.685 -0.7468  1.3411 -1.2369
  338MOL0     H46586  10.772  -0.264   1.666 -0.5165 -1.0618 -2.3162
  338MOL0     H46587  10.600  -0.375   1.568  0.3789  0.4819 -1.4113
  338MOL0     H46588  10.564  -0.319   1.729 -1.7248  1.1936  0.4819
  338MOL0     H46589  10.451  -0.209   1.460 -1.1126  0.0882 -0.9014
  338MOL0     H46590  10.404  -0.137   1.607 -0.9137  0.3174  0.8193
  338MOL0     H46591  10.232  -0.285   1.569  0.0498  1.2880  2.1546
  338MOL0     H46592  10.345  -0.417   1.525  3.1589  1.0691 -1.1994
  338MOL0     H46593  10.229  -0.182   1.823  0.0329 -0.6878  0.7843
  338MOL0     H46594  10.194  -0.348   2.119  1.6788  2.2410 -1.6644
  338MOL0     H46595  10.044  -0.423   2.044 -0.5763  0.4272  2.2299
  338MOL0     H46596  10.108  -0.134   2.079  2.5352 -2.7245  0.5445
  338MOL0     H46597   9.995  -0.169   1.954 -0.6764 -0.2374  0.3706
  338MOL0     H46598   9.870  -0.116   2.151 -2.6155 -1.3486  2.1469
  338MOL0     H46599   9.858  -0.287   2.126 -0.0813 -1.1199  1.7509
  338MOL0     H46600   9.886  -0.258   2.353  0.4053  2.1435  0.3839
  338MOL0     H46601  10.035  -0.327   2.311 -1.7719 -0.9179  1.8157
  338MOL0     H46602  10.009  -0.040   2.579  2.4171  3.6187 -2.8963
  338MOL0     H46603  10.191   0.041   2.855 -0.5471 -0.4857  0.8088
  338MOL0     H46604  10.133  -0.113   2.896 -2.1999 -2.4289 -2.2086
  338MOL0     H46605  10.033  -0.013   2.785  0.4806 -1.6912 -4.0020
  338MOL0     H46606  10.498  -0.416   2.920  2.9332 -4.3012 -1.1602
  338MOL0     H46607  10.623  -0.440   3.142  0.1807  0.6879  0.1928
  338MOL0     H46608  11.011  -0.242   3.175 -0.2949  2.3913 -0.6121
  338MOL0     H46609  10.900  -0.133   3.268  1.3080 -0.1471  1.5139
  338MOL0     H46610  11.046  -0.207   3.431  1.3746 -0.3604 -1.3332
  338MOL0     H46611  10.902  -0.298   3.448  1.2776 -0.6834  1.5519
  338MOL0     H46612  11.171  -0.391   3.351  1.0312 -2.7633 -0.9027
  338MOL0     H46613  11.035  -0.502   3.320  0.5184 -0.4748  1.4627
  338MOL0     H46614  11.109  -0.597   3.505  1.4111  0.2594 -0.6250
  338MOL0     H46615  10.980  -0.488   3.558 -1.0449 -1.7503  0.1380
  338MOL0     H46616  11.274  -0.457   3.567  2.3304  3.4291  2.3281
  338MOL0     H46617  11.171  -0.317   3.617  1.6945  0.8758  0.9303
  338MOL0     H46618  11.176  -0.597   3.748 -1.3936  0.6249  0.6499
  338MOL0     H46619  11.064  -0.469   3.782 -2.4261 -2.0567 -1.1332
  338MOL0     H46620  11.226  -0.316   3.869 -4.4150 -0.5395  0.1052
  338MOL0     H46621  11.355  -0.426   3.791  1.0197  1.1230  1.2386
  338MOL0     H46622  11.301  -0.587   3.974  2.9601  0.1537 -0.5974
  338MOL0     H46623  11.190  -0.475   4.058  2.1997 -1.7017  2.6404
  338MOL0     H46624  10.909  -0.153   3.006  0.3779 -0.9865 -1.1835
  338MOL0     H46625  10.784  -0.127   2.794 -0.2318 -1.1674 -1.0827
  338MOL0     H46626  10.435  -0.275   2.542 -0.7704 -0.4378  3.0231
  338MOL0     H46627  10.293  -0.289   2.360 -0.1861  0.1056 -0.2921
  338MOL0     H46628  11.062   0.320   1.200 -5.2732 -0.0768 -2.5316
  338MOL0     H46629  11.122   0.548   1.163  1.2907 -0.1667  0.5847
  338MOL0     H46630  11.050   1.007   1.317 -0.9573 -0.7299  2.1544
  338MOL0     H46631  11.078   1.237   1.345 -0.0238 -1.0214 -1.9497
  338MOL0     H46632  11.320   1.490   1.591 -2.6941 -2.5591  1.9190
  338MOL0     H46633  11.425   1.353   1.594  2.1389  1.6797  0.5027
  338MOL0     H46634  11.410   1.524   1.337 -0.9459 -0.0328  0.1174
  338MOL0     H46635  11.521   1.393   1.363  1.3978  1.8361 -1.3757
  338MOL0     H46636  11.629   1.612   1.390 -2.7285 -0.7746 -1.7267
  338MOL0     H46637  11.536   1.648   1.534 -0.3994 -0.0632 -0.1949
  338MOL0     H46638  11.643   1.453   1.645  1.6015  2.7248  2.8959
  338MOL0     H46639  11.753   1.567   1.587  0.9485 -1.4071  0.5236
  338MOL0     H46640  11.847   1.212   1.369  0.6829 -1.3373  3.2459
  338MOL0     H46641  11.480   1.173   1.474  0.8320 -0.6131  0.7927
  338MOL0     H46642  11.532   0.860   1.362 -2.3174 -0.4138 -0.4633
  338MOL0     H46643  11.587   0.989   1.470 -0.7505  1.5383 -2.9367
  338MOL0     H46644  11.492   0.851   1.527 -1.5293  0.2757 -1.0630
  339MOL0     O46645   7.919   1.325   9.673 -0.0906 -0.3510 -0.5566
  339MOL0     C46646   7.860   1.412   9.612  0.6641 -0.9019  0.4540
  339MOL0     O46647   7.904   1.474   9.495  0.3538  0.6785  0.1732
  339MOL0     C46648   8.009   1.423   9.432 -1.0621  0.7801  0.8042
  339MOL0     C46649   8.009   1.432   9.295 -0.4482  0.2872 -0.0473
  339MOL0     C46650   8.113   1.390   9.218 -0.3875 -0.6647  0.4387
  339MOL0     C46651   8.231   1.344   9.273  0.1363 -0.4802  0.0747
  339MOL0     O46652   8.337   1.306   9.189  0.3614 -0.3341  0.2661
  339MOL0     C46653   8.462   1.373   9.223 -0.0816  0.2020 -1.1032
  339MOL0     C46654   8.466   1.524   9.204  0.0834 -0.6172  1.0476
  339MOL0     C46655   8.408   1.569   9.065  0.0409 -0.1500  0.4078
  339MOL0     C46656   8.506   1.566   8.944 -0.1997  0.9890  0.5357
  339MOL0     C46657   8.446   1.641   8.826  0.2111 -0.9666  0.3782
  339MOL0     C46658   8.546   1.634   8.702 -0.1818 -0.0687  0.1677
  339MOL0     C46659   8.492   1.730   8.591 -0.2112 -0.5026 -0.3579
  339MOL0     C46660   8.609   1.763   8.501  0.5432 -0.2388 -0.4716
  339MOL0     N46661   8.669   1.884   8.548 -0.1687  0.0340  0.1150
  339MOL0     C46662   8.740   1.963   8.470  0.7035  0.8155  0.5150
  339MOL0     C46663   8.773   2.072   8.540 -0.1651 -0.4321 -0.1889
  339MOL0     C46664   8.838   2.199   8.493 -0.4765  0.4370  0.9003
  339MOL0     C46665   8.990   2.191   8.475  0.0177  0.4912 -0.2755
  339MOL0     C46666   9.054   2.319   8.424 -0.4603 -0.1310  0.4107
  339MOL0     C46667   9.198   2.285   8.378 -0.3797 -0.1778 -0.3518
  339MOL0     O46668   9.275   2.269   8.499 -0.7732 -0.7483  0.1323
  339MOL0     C46669   9.398   2.228   8.478 -0.3158  0.7271 -0.9152
  339MOL0     C46670   9.453   2.151   8.580 -0.7948  0.6645 -0.3587
  339MOL0     C46671   9.597   2.106   8.577  0.1601 -0.2473 -0.1547
  339MOL0     C46672   9.666   2.045   8.701  1.4328 -0.2522 -0.0217
  339MOL0     C46673   9.666   2.128   8.457 -0.6705 -0.1393 -0.1316
  339MOL0     C46674   9.812   2.087   8.433 -0.1977  0.0356  0.6138
  339MOL0     O46675   9.859   2.153   8.328 -0.4100  1.1182 -0.4019
  339MOL0     C46676   9.990   2.148   8.302  0.2544 -0.2103 -0.1313
  339MOL0     C46677  10.073   2.227   8.372  0.0906  0.7846 -1.3188
  339MOL0     C46678  10.209   2.231   8.343  0.6366  0.2934 -0.4320
  339MOL0     C46679  10.266   2.154   8.243  0.0602 -0.4815 -0.5341
  339MOL0     O46680  10.400   2.175   8.218  0.0236  0.3006  0.0498
  339MOL0     C46681  10.489   2.060   8.229 -0.1426  0.7632 -0.0671
  339MOL0     C46682  10.488   2.021   8.375  0.2058  0.9813  0.2738
  339MOL0     C46683  10.600   1.931   8.427 -0.5142  0.1441  0.8552
  339MOL0     C46684  10.745   1.986   8.429 -0.3991  0.0663  0.2424
  339MOL0     C46685  10.850   1.929   8.330  0.5373  0.5742 -0.0422
  339MOL0     C46686  10.864   1.779   8.359  0.3031 -0.0084 -0.1971
  339MOL0     C46687  10.994   1.721   8.306 -0.2848 -0.6600  0.3845
  339MOL0     C46688  11.019   1.574   8.342 -0.1186  0.3696  0.5228
  339MOL0    Cl46689  10.948   1.452   8.227 -0.0081  0.4041  0.2459
  339MOL0     C46690  10.177   2.069   8.169  0.9887 -0.8003  0.9854
  339MOL0     C46691  10.042   2.073   8.199  0.8066  0.7247  0.3718
  339MOL0     O46692   9.877   2.012   8.508  0.5684  0.0554 -0.5104
  339MOL0     C46693   9.605   2.207   8.359  0.7056 -0.1983  0.3859
  339MOL0     C46694   9.478   2.273   8.375  0.1897  0.9112  0.5526
  339MOL0     N46695   8.729   2.049   8.671 -1.3110  0.2105 -1.1396
  339MOL0     N46696   8.671   1.938   8.670 -0.0683 -0.8199 -0.0097
  339MOL0     C46697   8.238   1.330   9.414  0.1299 -0.0069  1.3560
  339MOL0     C46698   8.127   1.364   9.493 -0.6378  0.4072 -0.6339
  339MOL0     C46699   7.728   1.463   9.659  0.4286 -0.4599 -0.5098
  339MOL0     C46700   7.661   1.554   9.580  0.1942 -0.8355  0.0201
  339MOL0     C46701   7.534   1.607   9.610  0.2649  0.2080 -0.2141
  339MOL0     C46702   7.479   1.583   9.738  1.5613  0.0507  0.8765
  339MOL0     O46703   7.351   1.616   9.767 -0.3190  0.4449  0.1982
  339MOL0     C46704   7.261   1.583   9.662  0.2977  0.4928 -0.6675
  339MOL0     C46705   7.154   1.496   9.722  0.4336 -0.1479 -0.0949
  339MOL0     C46706   7.028   1.570   9.781 -0.0308  0.4950  0.0261
  339MOL0     C46707   6.947   1.651   9.680 -0.1492  0.3881  0.6177
  339MOL0     C46708   6.823   1.696   9.746  0.1098 -0.3358 -0.2647
  339MOL0     C46709   6.721   1.734   9.797 -0.9270 -0.2975  0.1483
  339MOL0     C46710   7.551   1.507   9.825  0.0951 -0.5967  0.6241
  339MOL0     C46711   7.676   1.444   9.788 -0.7384 -0.0123 -0.2742
  339MOL0     C46712   7.753   1.376   9.896  0.5468  0.5397 -0.6208
  339MOL0     H46713   7.925   1.472   9.241 -1.3919 -0.1621  1.0391
  339MOL0     H46714   8.102   1.391   9.110  1.5565 -1.4306  0.2028
  339MOL0     H46715   8.535   1.339   9.149 -1.0395  1.1576 -2.5374
  339MOL0     H46716   8.503   1.344   9.320  4.1810 -1.2968 -3.0919
  339MOL0     H46717   8.412   1.570   9.287 -0.1579  1.7357 -0.3146
  339MOL0     H46718   8.565   1.568   9.218  0.6082 -2.1952  2.7131
  339MOL0     H46719   8.337   1.490   9.038  0.7823  0.1577 -2.9500
  339MOL0     H46720   8.355   1.665   9.070  0.4222  0.0910 -0.1101
  339MOL0     H46721   8.603   1.604   8.978  0.4542 -0.2437  0.1160
  339MOL0     H46722   8.525   1.462   8.914 -2.5845 -0.5345  3.7501
  339MOL0     H46723   8.427   1.740   8.867 -1.7175 -0.9340 -0.4830
  339MOL0     H46724   8.353   1.599   8.786  0.6655 -1.7632  0.1219
  339MOL0     H46725   8.643   1.668   8.739 -0.8776  0.4398  1.6071
  339MOL0     H46726   8.555   1.536   8.655  1.2079  0.1898 -0.1473
  339MOL0     H46727   8.437   1.815   8.632 -1.1167 -1.1967 -0.0961
  339MOL0     H46728   8.406   1.681   8.545 -1.0181  0.4313  0.1175
  339MOL0     H46729   8.678   1.678   8.503 -0.6017 -1.1999 -0.5450
  339MOL0     H46730   8.568   1.775   8.401 -2.9366  0.7056  0.9081
  339MOL0     H46731   8.776   1.942   8.371 -0.5105  1.3739 -0.0692
  339MOL0     H46732   8.817   2.277   8.568 -1.2633 -1.3688  2.6451
  339MOL0     H46733   8.797   2.224   8.395  0.2148  0.6539  0.6580
  339MOL0     H46734   9.040   2.171   8.570  0.6464 -0.0216 -0.7047
  339MOL0     H46735   9.013   2.101   8.417  0.2849 -0.6482  1.5151
  339MOL0     H46736   8.996   2.358   8.340  0.3933  0.9573  0.3183
  339MOL0     H46737   9.056   2.397   8.501 -0.2315  1.5315 -1.2339
  339MOL0     H46738   9.204   2.202   8.307  1.7427  0.3706 -0.9051
  339MOL0     H46739   9.230   2.378   8.330  1.7622 -1.4193 -1.4904
  339MOL0     H46740   9.378   2.131   8.657  1.4946 -1.8054  1.4136
  339MOL0     H46741   9.686   1.940   8.683  1.9619  0.2225 -2.5611
  339MOL0     H46742   9.602   2.046   8.791  1.3327  2.5018 -0.0159
  339MOL0     H46743   9.759   2.097   8.726  1.3900 -0.1144 -0.1424
  339MOL0     H46744  10.032   2.294   8.447 -1.4941 -0.9527 -0.5640
  339MOL0     H46745  10.263   2.299   8.409 -2.4043  0.3672  2.2433
  339MOL0     H46746  10.452   1.983   8.161 -0.9611  1.2246 -0.1668
  339MOL0     H46747  10.590   2.088   8.199  1.0820 -1.3800  1.7653
  339MOL0     H46748  10.507   2.114   8.430 -2.3575  1.6743  0.1470
  339MOL0     H46749  10.384   1.988   8.387 -1.4882  5.1101 -1.1245
  339MOL0     H46750  10.611   1.834   8.377  4.4118  2.3872 -3.4228
  339MOL0     H46751  10.585   1.914   8.534 -3.1312  1.7079  0.8247
  339MOL0     H46752  10.788   1.980   8.530 -0.9128 -2.4819  0.3976
  339MOL0     H46753  10.742   2.095   8.419  3.4598  0.2577 -0.0082
  339MOL0     H46754  10.821   1.938   8.225 -0.2955 -2.2972 -0.1637
  339MOL0     H46755  10.947   1.976   8.344 -0.1084  1.8218  0.3838
  339MOL0     H46756  10.791   1.721   8.301  2.7324 -3.3053 -0.2436
  339MOL0     H46757  10.848   1.763   8.466  0.0104  1.2973 -0.0265
  339MOL0     H46758  11.076   1.785   8.341  1.4442 -2.2831 -0.4721
  339MOL0     H46759  10.995   1.718   8.197  1.1894  0.1469  0.3544
  339MOL0     H46760  10.997   1.550   8.446  0.4440 -1.9507  0.1616
  339MOL0     H46761  11.128   1.566   8.332 -0.1870 -1.1508  0.8352
  339MOL0     H46762  10.201   2.014   8.078  0.2679  1.1999 -0.4740
  339MOL0     H46763   9.966   2.012   8.150 -1.9477  1.3216  3.5660
  339MOL0     H46764   9.648   2.227   8.261  2.7367  0.6141  1.3882
  339MOL0     H46765   9.441   2.341   8.299 -2.6219 -0.7802  0.2716
  339MOL0     H46766   8.318   1.283   9.471 -0.2049  0.5223  2.2703
  339MOL0     H46767   8.146   1.355   9.599 -1.6392  0.5055 -0.4372
  339MOL0     H46768   7.695   1.559   9.477 -1.7561 -0.9939 -0.6778
  339MOL0     H46769   7.486   1.646   9.521  0.9847 -0.6011 -0.9816
  339MOL0     H46770   7.216   1.670   9.614 -1.2695  0.1684  0.1641
  339MOL0     H46771   7.307   1.520   9.585 -2.2146  1.1517 -2.8726
  339MOL0     H46772   7.196   1.431   9.799  0.9059 -2.5210 -2.2205
  339MOL0     H46773   7.109   1.437   9.641  1.9179 -0.7291 -0.5403
  339MOL0     H46774   6.969   1.486   9.821  1.3620 -0.9815 -0.8786
  339MOL0     H46775   7.057   1.631   9.867 -1.4592  0.8419  0.3008
  339MOL0     H46776   6.911   1.596   9.593  1.3096  1.2577 -0.5860
  339MOL0     H46777   7.006   1.738   9.649  1.9358 -1.6063 -1.4051
  339MOL0     H46778   6.642   1.748   9.868  2.1576  3.8206  3.3132
  339MOL0     H46779   7.510   1.484   9.923  1.2244 -3.4721  0.5236
  339MOL0     H46780   7.856   1.413   9.897  1.3436 -1.3261  2.5403
  339MOL0     H46781   7.712   1.390   9.997  0.7990 -0.3157 -0.3884
  339MOL0     H46782   7.745   1.267   9.893  0.7121  0.4086  1.6109
  340MOL0     O46783   8.032   6.767   7.934  0.0111 -0.2418  0.4486
  340MOL0     C46784   7.998   6.689   7.842 -0.4753  0.0674  0.4801
  340MOL0     O46785   8.084   6.614   7.776  0.3609  0.3447  0.2062
  340MOL0     C46786   8.212   6.583   7.815  0.6426 -0.7009  0.0627
  340MOL0     C46787   8.245   6.533   7.943 -0.3905 -0.6887 -0.0621
  340MOL0     C46788   8.379   6.497   7.971  0.4468  0.0667  0.5929
  340MOL0     C46789   8.467   6.497   7.862  0.1255 -0.5315  0.4493
  340MOL0     O46790   8.588   6.445   7.885 -0.5642 -0.2326  0.4054
  340MOL0     C46791   8.708   6.513   7.843 -0.0867  0.1000  0.2528
  340MOL0     C46792   8.761   6.621   7.934  0.7085  0.4945 -0.0238
  340MOL0     C46793   8.863   6.702   7.851 -0.2136 -0.4144  0.5141
  340MOL0     C46794   8.796   6.783   7.741  0.5141  0.6822 -0.6784
  340MOL0     C46795   8.893   6.878   7.681 -0.7737  0.2559 -0.3300
  340MOL0     C46796   9.036   6.827   7.636  0.8410 -0.0243  0.8096
  340MOL0     C46797   9.099   6.949   7.560 -0.7444 -0.4014 -0.8305
  340MOL0     C46798   9.253   6.931   7.538  0.6821  0.5643 -0.1493
  340MOL0     N46799   9.291   6.838   7.429 -0.0051  0.0044  0.9876
  340MOL0     C46800   9.308   6.699   7.428  0.4429  0.5098  0.4341
  340MOL0     C46801   9.347   6.680   7.295  0.2530  0.3303 -0.6118
  340MOL0     C46802   9.385   6.551   7.233 -0.0150  0.5868  0.9845
  340MOL0     C46803   9.514   6.553   7.156  0.3133 -0.7436  0.3845
  340MOL0     C46804   9.635   6.523   7.244  0.0193  0.0297 -0.5603
  340MOL0     C46805   9.775   6.519   7.174 -0.0531  0.5747 -0.0089
  340MOL0     O46806   9.764   6.407   7.090  0.6253  0.0669 -0.1362
  340MOL0     C46807   9.853   6.392   6.985 -0.6279  0.3902  0.0703
  340MOL0     C46808   9.805   6.320   6.872  1.0742 -0.1931  0.4446
  340MOL0     C46809   9.881   6.296   6.753 -0.1583 -0.1675 -0.1085
  340MOL0     C46810   9.828   6.202   6.657  0.1246  0.1571 -0.5365
  340MOL0     C46811  10.010   6.366   6.752 -0.3255  0.2365 -1.0032
  340MOL0     C46812  10.090   6.374   6.619 -0.4290 -0.0643 -0.5271
  340MOL0     O46813  10.035   6.342   6.497 -0.6709  0.3773  0.0314
  340MOL0     C46814  10.122   6.310   6.392  0.7527  0.1017  0.6559
  340MOL0     C46815  10.156   6.401   6.296  0.2547 -0.8028  0.5038
  340MOL0     C46816  10.255   6.376   6.196  0.0042 -0.4463  0.7579
  340MOL0     C46817  10.310   6.253   6.196 -0.9177  0.5553  0.0732
  340MOL0     O46818  10.404   6.226   6.099 -0.3052 -1.2855 -0.4917
  340MOL0     C46819  10.545   6.223   6.142  0.2589  0.7922  0.5212
  340MOL0     C46820  10.622   6.302   6.035  0.6241  1.0969  0.1341
  340MOL0     C46821  10.773   6.286   6.063  0.1615 -0.1938 -0.1014
  340MOL0     C46822  10.848   6.252   5.936 -0.1885  0.4434 -0.5933
  340MOL0     C46823  10.998   6.216   5.975  0.3839 -0.0605  0.1467
  340MOL0     C46824  11.053   6.136   5.864 -0.6545  0.6037  0.3205
  340MOL0     C46825  11.201   6.098   5.881  0.4316  0.1773  0.3847
  340MOL0     C46826  11.289   6.224   5.864  1.1880  0.0079 -1.0409
  340MOL0    Cl46827  11.459   6.185   5.851  0.5739 -0.1371  0.0116
  340MOL0     C46828  10.282   6.156   6.291 -1.1957  0.9381 -1.0491
  340MOL0     C46829  10.185   6.187   6.384  0.6011 -0.7183 -0.2730
  340MOL0     O46830  10.212   6.397   6.634  0.3903  0.2470 -0.6655
  340MOL0     C46831  10.058   6.443   6.866 -0.6777 -0.1467 -1.1652
  340MOL0     C46832   9.982   6.452   6.983  0.6327 -0.4975 -0.0444
  340MOL0     N46833   9.353   6.800   7.228 -0.3765 -0.5691  1.1059
  340MOL0     N46834   9.320   6.897   7.307 -0.0805 -0.4668 -0.1942
  340MOL0     C46835   8.439   6.546   7.741 -0.4255 -1.9806  0.9469
  340MOL0     C46836   8.312   6.598   7.716  0.9735 -0.6427  0.1811
  340MOL0     C46837   7.852   6.675   7.801 -0.2919 -0.1178  0.1711
  340MOL0     C46838   7.813   6.558   7.734 -0.6401 -1.2333 -0.4118
  340MOL0     C46839   7.685   6.539   7.709  0.6706 -0.0732 -0.0183
  340MOL0     C46840   7.583   6.618   7.758  0.4783  0.2847  0.8610
  340MOL0     O46841   7.459   6.582   7.741 -0.1850  0.3706 -0.4490
  340MOL0     C46842   7.362   6.633   7.828  0.8192 -0.4255 -0.1911
  340MOL0     C46843   7.226   6.572   7.780 -0.2440  0.9452  0.5557
  340MOL0     C46844   7.206   6.432   7.848 -0.5776 -0.1314 -1.3595
  340MOL0     C46845   7.071   6.363   7.814 -0.3800 -0.4022 -0.0841
  340MOL0     C46846   7.071   6.321   7.677 -0.6410  0.1685 -0.0219
  340MOL0     C46847   7.104   6.285   7.566  0.3199  0.2347  0.3043
  340MOL0     C46848   7.620   6.745   7.810 -0.0782  0.3891  0.1129
  340MOL0     C46849   7.760   6.776   7.833  1.2998  0.0604  0.0828
  340MOL0     C46850   7.782   6.908   7.903  0.3972  0.5545  0.0153
  340MOL0     H46851   8.170   6.503   8.016  1.9460  0.8682  3.2854
  340MOL0     H46852   8.408   6.464   8.070  0.8781 -3.7612 -0.6129
  340MOL0     H46853   8.706   6.529   7.735 -1.8299 -0.6509  0.1478
  340MOL0     H46854   8.790   6.440   7.852 -1.1653 -1.2250 -0.3479
  340MOL0     H46855   8.676   6.667   7.986 -0.8822  0.6171 -2.5863
  340MOL0     H46856   8.822   6.571   8.009  1.6373  2.2704  0.4505
  340MOL0     H46857   8.921   6.772   7.912  1.2733 -0.6209 -0.5961
  340MOL0     H46858   8.939   6.637   7.806 -0.6553 -0.0548 -0.8140
  340MOL0     H46859   8.777   6.711   7.661 -0.7068  1.0536 -0.7401
  340MOL0     H46860   8.705   6.829   7.781  0.2110  0.7149 -1.3933
  340MOL0     H46861   8.895   6.965   7.747 -0.1307 -0.4686  0.6486
  340MOL0     H46862   8.845   6.916   7.590  0.0195  1.6520 -0.1938
  340MOL0     H46863   9.100   6.806   7.723  1.7985  1.1710  0.4332
  340MOL0     H46864   9.026   6.742   7.569  3.2955 -0.2462  0.6139
  340MOL0     H46865   9.091   7.033   7.629  1.4466  0.9966 -2.1550
  340MOL0     H46866   9.043   6.966   7.468 -1.3577  1.6189 -0.1388
  340MOL0     H46867   9.297   7.029   7.519 -0.4100  1.1141  0.0565
  340MOL0     H46868   9.289   6.884   7.630 -2.0215  1.1690  1.3197
  340MOL0     H46869   9.304   6.621   7.503  1.6509  0.2229  0.2211
  340MOL0     H46870   9.300   6.527   7.169 -0.0630  0.9671  0.9017
  340MOL0     H46871   9.392   6.468   7.304 -2.7434 -0.2587  0.3927
  340MOL0     H46872   9.507   6.473   7.082 -1.2862  0.1109 -0.4474
  340MOL0     H46873   9.514   6.650   7.105 -0.2884 -1.0631 -0.2356
  340MOL0     H46874   9.636   6.593   7.327 -0.0506 -0.4773 -0.1234
  340MOL0     H46875   9.602   6.427   7.284  1.2946  0.3874  1.4991
  340MOL0     H46876   9.798   6.610   7.118 -0.1678 -0.2037 -1.3521
  340MOL0     H46877   9.851   6.491   7.248 -1.3717 -2.5675  0.2687
  340MOL0     H46878   9.706   6.275   6.879  0.0006  1.5443 -2.1720
  340MOL0     H46879   9.734   6.157   6.691 -0.6700  1.2557 -1.2017
  340MOL0     H46880   9.892   6.120   6.624 -0.2374  0.2661 -1.5360
  340MOL0     H46881   9.819   6.259   6.564 -0.0978 -0.3065 -0.8011
  340MOL0     H46882  10.104   6.495   6.305 -1.2559 -1.5889  0.3718
  340MOL0     H46883  10.286   6.447   6.120 -1.2422 -0.4019  0.2569
  340MOL0     H46884  10.565   6.264   6.241  3.7337 -0.8835  0.6745
  340MOL0     H46885  10.579   6.119   6.141 -2.5652 -0.3412 -3.5416
  340MOL0     H46886  10.587   6.253   5.943 -1.8266 -2.3098  2.6179
  340MOL0     H46887  10.585   6.405   6.037 -0.4159  0.7227  2.1919
  340MOL0     H46888  10.796   6.201   6.128  0.4562 -1.5427 -1.8714
  340MOL0     H46889  10.819   6.375   6.106 -2.8954 -0.2291  3.7719
  340MOL0     H46890  10.839   6.330   5.860 -0.6810 -1.8514 -3.0485
  340MOL0     H46891  10.796   6.170   5.885 -0.5780  1.1793 -1.4005
  340MOL0     H46892  11.047   6.312   5.997 -1.4894  0.6366  1.5432
  340MOL0     H46893  10.998   6.152   6.064  0.5548 -0.1343  0.0951
  340MOL0     H46894  11.033   6.191   5.772 -2.7123 -0.1310  0.2726
  340MOL0     H46895  10.999   6.041   5.857 -0.3307  0.4530 -0.1650
  340MOL0     H46896  11.219   6.026   5.801 -1.5135 -0.5305  0.5330
  340MOL0     H46897  11.210   6.057   5.982  0.4127  0.0727  0.3442
  340MOL0     H46898  11.272   6.294   5.947  0.3225 -2.3023  0.8372
  340MOL0     H46899  11.247   6.283   5.782 -1.4893 -0.4077 -0.0511
  340MOL0     H46900  10.331   6.060   6.288 -2.0919  0.4865 -1.6672
  340MOL0     H46901  10.169   6.109   6.458  0.8785  1.4875  2.2493
  340MOL0     H46902  10.156   6.487   6.879 -1.3838  0.8821  1.2524
  340MOL0     H46903  10.022   6.509   7.066  1.9055  0.5655 -1.3300
  340MOL0     H46904   8.509   6.536   7.659  0.0596  0.3140  1.0251
  340MOL0     H46905   8.287   6.638   7.618  2.1832 -2.2026 -0.8233
  340MOL0     H46906   7.890   6.486   7.706 -0.9673 -1.4142 -0.8523
  340MOL0     H46907   7.652   6.449   7.659 -1.7600  1.4109 -1.2799
  340MOL0     H46908   7.377   6.600   7.931 -2.4205  0.5540  0.7234
  340MOL0     H46909   7.363   6.742   7.821 -2.1985 -0.2260  1.2415
  340MOL0     H46910   7.219   6.543   7.675  1.3104 -2.7371  1.3029
  340MOL0     H46911   7.147   6.640   7.814 -0.8884  0.5230 -0.0992
  340MOL0     H46912   7.289   6.377   7.803  1.6878  1.2534  0.8647
  340MOL0     H46913   7.218   6.432   7.957  2.1793  1.4794 -1.5895
  340MOL0     H46914   6.990   6.436   7.815  1.3265  1.6295 -1.2771
  340MOL0     H46915   7.037   6.284   7.882  1.5431 -0.3513  1.0278
  340MOL0     H46916   7.124   6.251   7.466  0.5944  0.5025  0.2683
  340MOL0     H46917   7.542   6.815   7.839 -0.7391  0.4833 -1.7428
  340MOL0     H46918   7.815   6.884   8.004 -1.0526 -1.1570  0.1190
  340MOL0     H46919   7.844   6.981   7.849 -0.8093  2.8378  1.5579
  340MOL0     H46920   7.686   6.956   7.924  0.6507  0.3905  1.6513
  341MOL0     O46921   7.153   3.327   1.401 -0.2770  0.0604 -0.2522
  341MOL0     C46922   7.142   3.411   1.491 -0.2772 -0.7158 -0.2502
  341MOL0     O46923   7.030   3.466   1.539  0.2640  0.0538 -0.5364
  341MOL0     C46924   6.912   3.405   1.498  0.2796 -0.1392  0.0127
  341MOL0     C46925   6.866   3.401   1.371  0.0557  0.0775  0.4309
  341MOL0     C46926   6.740   3.342   1.345 -0.6858 -0.6599  0.6453
  341MOL0     C46927   6.648   3.309   1.447  0.2323 -0.0030  0.2378
  341MOL0     O46928   6.519   3.279   1.428  0.1983 -0.3468 -0.2653
  341MOL0     C46929   6.483   3.239   1.294 -0.0399 -0.2380  0.2053
  341MOL0     C46930   6.345   3.167   1.305  0.7085 -0.2856 -0.0649
  341MOL0     C46931   6.284   3.126   1.170 -0.8120 -0.6702 -0.2095
  341MOL0     C46932   6.146   3.062   1.181 -0.3399 -0.3260 -0.4740
  341MOL0     C46933   6.086   3.040   1.038  0.1610  0.0502 -0.3558
  341MOL0     C46934   5.934   3.033   1.037  0.9544  0.3759  0.0606
  341MOL0     C46935   5.877   2.906   1.122 -0.4654 -0.4860 -0.0630
  341MOL0     C46936   5.731   2.884   1.070 -0.4749  0.2092 -0.8755
  341MOL0     N46937   5.647   2.993   1.107  0.2060  0.5038  0.3073
  341MOL0     C46938   5.585   3.006   1.233 -1.4100  0.3973  0.2811
  341MOL0     C46939   5.523   3.123   1.224 -0.4929 -0.8452 -0.2308
  341MOL0     C46940   5.438   3.176   1.336 -0.2407  0.8532  1.2956
  341MOL0     C46941   5.285   3.182   1.290  0.0566 -0.9261 -0.4913
  341MOL0     C46942   5.237   3.048   1.242  0.1345  0.5789  0.6550
  341MOL0     C46943   5.083   3.025   1.233  0.1419 -0.7313 -0.3318
  341MOL0     O46944   5.022   3.093   1.131  0.7490  0.4097  0.9967
  341MOL0     C46945   4.882   3.109   1.130 -0.6542  0.1730  0.5640
  341MOL0     C46946   4.842   3.203   1.032  0.7801 -0.3805 -0.5821
  341MOL0     C46947   4.704   3.236   1.014  1.1546  0.1303 -0.5765
  341MOL0     C46948   4.671   3.348   0.915  0.3370 -0.8708  0.5140
  341MOL0     C46949   4.604   3.168   1.088 -0.0008  0.6006 -1.2044
  341MOL0     C46950   4.459   3.195   1.075 -0.6056  0.7244  0.8320
  341MOL0     O46951   4.386   3.228   1.190 -0.3658 -0.2044 -0.0442
  341MOL0     C46952   4.250   3.261   1.183 -0.0062  0.1904 -1.3294
  341MOL0     C46953   4.197   3.387   1.140 -0.0896  0.0531  0.2567
  341MOL0     C46954   4.058   3.400   1.115 -0.1708 -0.5816  0.0662
  341MOL0     C46955   3.965   3.300   1.160 -1.5024  0.5470 -0.4516
  341MOL0     O46956   3.831   3.300   1.135 -0.3738 -0.1158 -0.5248
  341MOL0     C46957   3.778   3.410   1.068  0.2052 -0.9069  0.6912
  341MOL0     C46958   3.632   3.382   1.049 -0.5971  0.5429  0.4756
  341MOL0     C46959   3.542   3.353   1.171 -0.1769  0.7256 -0.9673
  341MOL0     C46960   3.493   3.206   1.167  0.6186 -0.0462  0.0875
  341MOL0     C46961   3.402   3.166   1.286  0.8826 -0.1061 -0.2896
  341MOL0     C46962   3.288   3.264   1.296  0.9650  0.3261 -0.0901
  341MOL0     C46963   3.216   3.285   1.164  0.1675 -0.0163  0.3649
  341MOL0     C46964   3.104   3.394   1.188  0.0837  0.1063 -0.1917
  341MOL0    Cl46965   2.973   3.318   1.276  0.1851 -0.6134  0.2626
  341MOL0     C46966   4.023   3.176   1.210  0.2463  0.9806  0.3861
  341MOL0     C46967   4.161   3.156   1.215  0.2097 -0.4149  0.2036
  341MOL0     O46968   4.406   3.164   0.968  0.2369  0.1467  0.8368
  341MOL0     C46969   4.647   3.077   1.193 -0.0168 -0.5272  0.3179
  341MOL0     C46970   4.780   3.048   1.209 -0.6980 -0.2154  0.0426
  341MOL0     N46971   5.544   3.183   1.103  0.3778  0.6663 -1.1121
  341MOL0     N46972   5.615   3.105   1.036 -0.0197 -0.6672  1.6306
  341MOL0     C46973   6.692   3.332   1.577 -0.0244  0.5472  0.2474
  341MOL0     C46974   6.824   3.363   1.601  0.3543  0.2261 -0.4996
  341MOL0     C46975   7.269   3.455   1.552  0.7101  0.9523 -0.2164
  341MOL0     C46976   7.265   3.497   1.691  0.1351 -0.4556  0.6788
  341MOL0     C46977   7.379   3.514   1.765  0.0627  0.4022 -0.1885
  341MOL0     C46978   7.516   3.501   1.710  0.4189  0.5158  0.0481
  341MOL0     O46979   7.624   3.532   1.796 -0.2840 -0.2171 -0.2206
  341MOL0     C46980   7.754   3.542   1.734  1.0368 -0.3653 -0.3371
  341MOL0     C46981   7.862   3.589   1.826 -0.5135  0.1763 -0.4230
  341MOL0     C46982   7.989   3.642   1.751 -0.6848  0.5182 -0.2655
  341MOL0     C46983   8.031   3.779   1.802 -0.5464 -0.2160 -1.0001
  341MOL0     C46984   8.113   3.849   1.711  0.0553  0.2396 -0.4049
  341MOL0     C46985   8.181   3.915   1.631  0.6143 -0.8330  0.2593
  341MOL0     C46986   7.518   3.483   1.572  1.0931  0.3990  0.8934
  341MOL0     C46987   7.398   3.453   1.495 -0.3021 -0.5268 -0.3500
  341MOL0     C46988   7.422   3.425   1.347 -0.1150  0.2899 -0.8884
  341MOL0     H46989   6.917   3.454   1.292 -1.3341  1.6215  0.5304
  341MOL0     H46990   6.710   3.343   1.240 -1.3392 -1.5877  0.8086
  341MOL0     H46991   6.558   3.182   1.238 -0.7123 -2.0301  1.0618
  341MOL0     H46992   6.470   3.324   1.227 -1.3227  1.3096  2.3202
  341MOL0     H46993   6.355   3.074   1.361  1.0053 -0.4847 -0.4392
  341MOL0     H46994   6.277   3.236   1.355  1.1443 -0.2079  0.4292
  341MOL0     H46995   6.275   3.216   1.109  1.5880 -0.8210 -0.8622
  341MOL0     H46996   6.357   3.060   1.123 -0.4090  0.3501 -1.0585
  341MOL0     H46997   6.147   2.973   1.245 -1.1846 -0.4378 -0.6067
  341MOL0     H46998   6.080   3.136   1.228  0.3781  0.8528 -1.2799
  341MOL0     H46999   6.128   2.946   1.000 -1.2532 -0.9555  0.4404
  341MOL0     H47000   6.111   3.117   0.965 -0.6362 -0.6002 -1.3549
  341MOL0     H47001   5.902   3.119   1.096 -0.7022 -0.2481  0.1286
  341MOL0     H47002   5.887   3.036   0.938 -0.4950  1.2875  0.7499
  341MOL0     H47003   5.884   2.924   1.230  1.9369  2.9952 -0.6308
  341MOL0     H47004   5.946   2.825   1.097 -0.4370 -0.0939 -1.2818
  341MOL0     H47005   5.725   2.866   0.962 -3.8695 -1.1741 -0.5756
  341MOL0     H47006   5.698   2.792   1.119  1.3760 -0.1310 -0.1854
  341MOL0     H47007   5.578   2.936   1.315  1.7466 -0.2487  0.1265
  341MOL0     H47008   5.473   3.276   1.362  0.2225 -0.0050  4.3927
  341MOL0     H47009   5.440   3.109   1.423  2.2566 -2.6635 -1.1708
  341MOL0     H47010   5.224   3.200   1.380  1.9703  1.9079  0.3687
  341MOL0     H47011   5.268   3.250   1.207 -1.0701 -1.1054 -0.4315
  341MOL0     H47012   5.290   3.036   1.148 -1.5641  1.7724 -0.5142
  341MOL0     H47013   5.266   2.969   1.312 -0.8347  0.0534  0.4876
  341MOL0     H47014   5.067   2.916   1.236  1.4629 -1.0013 -1.8875
  341MOL0     H47015   5.041   3.050   1.331 -0.1256  1.7974 -1.0398
  341MOL0     H47016   4.918   3.257   0.976  3.7371 -2.3320  1.2638
  341MOL0     H47017   4.563   3.363   0.907  0.7376  3.1595  0.3396
  341MOL0     H47018   4.713   3.319   0.819  2.5775 -2.1547  1.7891
  341MOL0     H47019   4.715   3.441   0.953  1.4907 -1.7175  1.3117
  341MOL0     H47020   4.262   3.469   1.110 -0.2106  0.2160  0.4318
  341MOL0     H47021   4.032   3.495   1.071 -1.0198 -1.0195 -0.4041
  341MOL0     H47022   3.787   3.501   1.129  0.1491 -0.9403  0.7500
  341MOL0     H47023   3.811   3.440   0.968  0.1639  1.7826  1.4097
  341MOL0     H47024   3.586   3.467   0.998 -1.1791 -0.6545 -1.0722
  341MOL0     H47025   3.637   3.290   0.989  4.9285  0.8119  0.0264
  341MOL0     H47026   3.467   3.433   1.179 -0.4955  0.2672  1.6236
  341MOL0     H47027   3.611   3.356   1.256  0.3753  1.1684 -1.4283
  341MOL0     H47028   3.579   3.139   1.165  0.0256 -1.1458  3.5424
  341MOL0     H47029   3.436   3.193   1.075  2.1791  0.9448 -1.0558
  341MOL0     H47030   3.354   3.071   1.262 -0.6625  0.2042  1.3931
  341MOL0     H47031   3.456   3.156   1.381  0.5699  0.7847 -0.0096
  341MOL0     H47032   3.326   3.359   1.333 -0.8692  0.5561  1.3551
  341MOL0     H47033   3.223   3.235   1.379  1.3613  0.8828  0.4223
  341MOL0     H47034   3.175   3.188   1.136  0.8097  0.0390 -0.8785
  341MOL0     H47035   3.285   3.307   1.081  1.8470 -1.4097  1.3232
  341MOL0     H47036   3.077   3.449   1.097  1.5810  0.0305 -0.7154
  341MOL0     H47037   3.151   3.474   1.246 -0.1706  0.7426 -0.8458
  341MOL0     H47038   3.967   3.089   1.243  0.9742 -0.4405 -1.9265
  341MOL0     H47039   4.200   3.063   1.253 -0.5949 -0.1722  1.6814
  341MOL0     H47040   4.570   3.026   1.250  0.2289 -2.0871 -0.6820
  341MOL0     H47041   4.813   2.975   1.282 -0.2127  1.3313  1.4460
  341MOL0     H47042   6.616   3.324   1.653 -0.8261 -1.8020 -0.7164
  341MOL0     H47043   6.855   3.381   1.704 -0.2753  0.4400 -0.3384
  341MOL0     H47044   7.171   3.504   1.743 -0.2580  1.1230 -0.2050
  341MOL0     H47045   7.365   3.537   1.870 -1.9921  0.7453 -0.4763
  341MOL0     H47046   7.776   3.449   1.681 -0.6262  0.3248 -2.3685
  341MOL0     H47047   7.749   3.608   1.647 -0.3014  1.1836  0.8324
  341MOL0     H47048   7.876   3.500   1.888  2.4376  0.3835 -0.6416
  341MOL0     H47049   7.819   3.666   1.891  0.8498  0.7942 -0.2184
  341MOL0     H47050   8.074   3.579   1.781  2.4458  4.5256  0.1244
  341MOL0     H47051   7.973   3.640   1.643 -0.8783 -0.9641 -0.2246
  341MOL0     H47052   8.083   3.755   1.895 -3.1062 -5.4886 -0.5631
  341MOL0     H47053   7.949   3.844   1.835  1.0386 -0.1020  3.4126
  341MOL0     H47054   8.252   3.966   1.569 -1.5338 -0.1090 -1.7624
  341MOL0     H47055   7.615   3.495   1.524  1.0211 -1.1565  0.3193
  341MOL0     H47056   7.339   3.467   1.290 -1.1916 -1.2435 -0.5321
  341MOL0     H47057   7.518   3.464   1.315 -0.1777  2.9887  1.7589
  341MOL0     H47058   7.422   3.316   1.335  0.1233  0.3321 -1.2792
  342MOL0     O47059   7.163   7.631  10.452  0.0429  0.3351  0.1097
  342MOL0     C47060   7.061   7.688  10.463  0.0437 -0.5471  0.0200
  342MOL0     O47061   7.039   7.784  10.556  0.3778 -0.0269  0.0177
  342MOL0     C47062   7.140   7.837  10.635 -0.3378 -0.7849 -0.1585
  342MOL0     C47063   7.128   7.878  10.773  0.8739 -0.5296 -0.6726
  342MOL0     C47064   7.229   7.924  10.849 -0.3744 -0.0827 -0.2862
  342MOL0     C47065   7.350   7.954  10.797 -1.5221  1.0237 -1.0221
  342MOL0     O47066   7.447   8.009  10.883  0.4332  0.2783  0.4377
  342MOL0     C47067   7.556   8.070  10.825  0.0422 -0.3186  0.0081
  342MOL0     C47068   7.687   7.980  10.832  0.5275  0.4317  0.3653
  342MOL0     C47069   7.833   8.045  10.817  0.7130  0.4699 -0.4455
  342MOL0     C47070   7.852   8.165  10.908  0.5187 -0.3309 -0.2470
  342MOL0     C47071   7.992   8.194  10.946  0.2751 -0.5825  0.0790
  342MOL0     C47072   8.080   8.245  10.829 -0.1544 -0.0153 -0.5341
  342MOL0     C47073   8.232   8.245  10.858 -0.2284  0.3146  0.2540
  342MOL0     C47074   8.268   8.346  10.963  0.3636 -0.0017  0.5703
  342MOL0     N47075   8.412   8.358  10.963  0.1572 -0.5362 -0.0442
  342MOL0     C47076   8.482   8.469  10.914  0.2251 -1.1249  0.0723
  342MOL0     C47077   8.612   8.453  10.956 -0.1004  0.7785  0.7368
  342MOL0     C47078   8.726   8.536  10.895  1.1268  0.5624  0.0112
  342MOL0     C47079   8.843   8.448  10.854 -0.5171 -0.0914  0.2555
  342MOL0     C47080   8.939   8.534  10.773  0.0106  0.6681 -0.3828
  342MOL0     C47081   9.036   8.446  10.697  0.7585  0.0156  0.5645
  342MOL0     O47082   9.132   8.400  10.790 -0.5349  0.7899  0.1151
  342MOL0     C47083   9.266   8.425  10.763  0.6003 -0.7118 -0.1957
  342MOL0     C47084   9.313   8.553  10.797 -0.7994 -0.4512  0.5069
  342MOL0     C47085   9.453   8.580  10.768  0.6848 -0.7584  0.1044
  342MOL0     C47086   9.486   8.725  10.786  0.1366 -0.2510 -0.7453
  342MOL0     C47087   9.543   8.474  10.752 -0.2471 -0.2779  0.2677
  342MOL0     C47088   9.696   8.483  10.741 -0.1338  0.2134 -0.5373
  342MOL0     O47089   9.755   8.596  10.794  0.2032  0.1517 -0.1409
  342MOL0     C47090   9.895   8.602  10.810 -0.2684 -0.1597 -0.2526
  342MOL0     C47091   9.996   8.541  10.736 -0.4520  0.8681 -0.4976
  342MOL0     C47092  10.124   8.584  10.732 -0.3029 -0.1770 -0.2560
  342MOL0     C47093  10.162   8.694  10.812 -0.4993 -0.9433  0.2942
  342MOL0     O47094  10.272   8.769  10.792 -0.1307 -0.4925 -0.2711
  342MOL0     C47095  10.368   8.751  10.682 -0.5178 -0.5933 -0.3204
  342MOL0     C47096  10.460   8.880  10.682  0.0489 -1.0823  1.2856
  342MOL0     C47097  10.380   9.010  10.692 -0.7916 -0.5773 -0.1868
  342MOL0     C47098  10.263   9.016  10.582  0.2271 -0.0437  0.3273
  342MOL0     C47099  10.176   9.137  10.613  0.5890 -0.4929 -0.2318
  342MOL0     C47100  10.243   9.281  10.592  0.4279 -0.3334  1.3016
  342MOL0     C47101  10.146   9.393  10.591  0.8481 -0.2579 -0.0956
  342MOL0     C47102  10.212   9.524  10.563  0.0371  0.4995  0.2934
  342MOL0    Cl47103  10.312   9.561  10.707 -0.2473  0.3931  0.4562
  342MOL0     C47104  10.073   8.749  10.897 -0.1076 -0.1314 -0.5754
  342MOL0     C47105   9.941   8.700  10.897  0.3524 -0.0635 -0.1643
  342MOL0     O47106   9.758   8.382  10.709  0.5309  0.0488 -0.3437
  342MOL0     C47107   9.487   8.348  10.732 -0.0450  0.4729 -0.0534
  342MOL0     C47108   9.348   8.322  10.731  0.3323  0.7035  0.3636
  342MOL0     N47109   8.623   8.332  11.025 -0.0337 -0.0505  0.3198
  342MOL0     N47110   8.504   8.285  11.032  0.9105  0.3127 -0.8691
  342MOL0     C47111   7.369   7.922  10.662 -0.2963  0.7319  0.1781
  342MOL0     C47112   7.272   7.860  10.578 -0.6174 -0.4611 -0.6895
  342MOL0     C47113   6.950   7.662  10.372 -0.4572 -0.5212  0.1953
  342MOL0     C47114   6.845   7.760  10.367 -0.2280 -0.4613 -0.1232
  342MOL0     C47115   6.739   7.751  10.280 -0.6497 -0.0357  1.0854
  342MOL0     C47116   6.725   7.641  10.201  0.5762 -0.5193 -0.0682
  342MOL0     O47117   6.607   7.620  10.125 -0.1384 -0.5231 -0.5974
  342MOL0     C47118   6.587   7.720  10.019 -0.0022 -0.3483  0.1449
  342MOL0     C47119   6.457   7.700   9.938 -0.5528 -0.2592 -0.7227
  342MOL0     C47120   6.339   7.774  10.009  0.0134  1.0795  0.2607
  342MOL0     C47121   6.205   7.739   9.940  0.6252 -0.5658 -0.1421
  342MOL0     C47122   6.097   7.827   9.994  0.0786  0.6847 -0.1202
  342MOL0     C47123   6.004   7.885  10.040 -0.2207 -0.2541 -0.0104
  342MOL0     C47124   6.824   7.534  10.208 -0.7287  0.4036  0.2083
  342MOL0     C47125   6.938   7.549  10.289  1.1265  1.1364  0.4302
  342MOL0     C47126   7.028   7.424  10.274 -0.1806 -0.1295  0.1114
  342MOL0     H47127   7.039   7.866  10.834  2.6042 -1.8382  1.7954
  342MOL0     H47128   7.212   7.949  10.953 -1.3732 -4.3339  0.7395
  342MOL0     H47129   7.579   8.158  10.886 -1.7713 -0.5497  1.0780
  342MOL0     H47130   7.538   8.112  10.726 -1.8628 -0.9530  0.0475
  342MOL0     H47131   7.694   7.945  10.935  1.3223  1.7187  0.7843
  342MOL0     H47132   7.685   7.888  10.773  0.6258 -0.6051  1.9185
  342MOL0     H47133   7.910   7.970  10.836  0.2829  0.2475  0.4587
  342MOL0     H47134   7.852   8.066  10.711  1.0896  1.4346 -0.1974
  342MOL0     H47135   7.813   8.254  10.859 -0.2701 -0.6685 -0.2512
  342MOL0     H47136   7.795   8.152  11.001  2.3474 -0.2947  0.9300
  342MOL0     H47137   8.034   8.098  10.978 -3.1059 -3.3400 -2.9789
  342MOL0     H47138   7.998   8.271  11.024 -2.3319  1.2519 -1.4009
  342MOL0     H47139   8.068   8.164  10.756 -1.7053 -0.1328 -0.1757
  342MOL0     H47140   8.053   8.341  10.784  0.5000  0.1801 -0.5188
  342MOL0     H47141   8.277   8.272  10.762  4.5632 -1.8869  1.5609
  342MOL0     H47142   8.265   8.145  10.884  0.2828  1.1446  3.1446
  342MOL0     H47143   8.220   8.443  10.952 -0.1046 -0.3846 -1.0556
  342MOL0     H47144   8.241   8.300  11.059 -1.3092  1.6750  0.9591
  342MOL0     H47145   8.433   8.546  10.856 -0.4062  0.3019  2.3674
  342MOL0     H47146   8.752   8.606  10.975  0.1664  0.1466  0.7041
  342MOL0     H47147   8.689   8.594  10.810  1.8195  3.3380  1.4768
  342MOL0     H47148   8.896   8.412  10.943  1.0976  0.5130 -0.4256
  342MOL0     H47149   8.794   8.367  10.799 -1.1626 -0.7140  1.6839
  342MOL0     H47150   8.882   8.595  10.702 -1.6768 -0.5045 -0.0683
  342MOL0     H47151   8.983   8.606  10.843 -2.5598 -1.4842  3.8337
  342MOL0     H47152   8.975   8.367  10.652 -1.4000  1.8393  0.0924
  342MOL0     H47153   9.091   8.502  10.621 -0.8476  2.5620  1.1413
  342MOL0     H47154   9.249   8.638  10.817  0.2358  0.6038 -0.4484
  342MOL0     H47155   9.399   8.785  10.758 -0.7462 -0.3495  1.5400
  342MOL0     H47156   9.571   8.768  10.734  0.0556  1.1180  0.1993
  342MOL0     H47157   9.498   8.737  10.894  2.4087 -0.0357 -0.9902
  342MOL0     H47158   9.966   8.485  10.648  0.9439  1.7339 -1.5612
  342MOL0     H47159  10.195   8.538  10.664  0.4833 -0.1098  0.5000
  342MOL0     H47160  10.432   8.666  10.709 -0.1208  0.4334  2.2945
  342MOL0     H47161  10.316   8.734  10.587 -0.5425 -2.7562  0.0296
  342MOL0     H47162  10.525   8.873  10.770 -0.0647  0.1270  1.4843
  342MOL0     H47163  10.532   8.892  10.600  0.6772 -0.1384  1.9492
  342MOL0     H47164  10.445   9.097  10.687 -2.1052  0.4326 -0.3726
  342MOL0     H47165  10.339   9.016  10.794  0.1957 -1.0246  0.2427
  342MOL0     H47166  10.207   8.922  10.583 -0.7645  0.4841 -1.2192
  342MOL0     H47167  10.310   9.020  10.483 -0.6468  0.3983 -0.0786
  342MOL0     H47168  10.086   9.125  10.553  0.0874  0.6847  0.2385
  342MOL0     H47169  10.145   9.133  10.718 -0.5313  1.7587 -0.4092
  342MOL0     H47170  10.290   9.278  10.494 -1.0591  1.0931  0.4927
  342MOL0     H47171  10.319   9.295  10.670  1.2594  0.8059  0.3300
  342MOL0     H47172  10.096   9.394  10.688 -3.1834  0.2144 -1.9696
  342MOL0     H47173  10.065   9.380  10.519  0.4035 -0.4015  0.4216
  342MOL0     H47174  10.146   9.611  10.553  2.1346  1.8768 -4.8587
  342MOL0     H47175  10.263   9.509  10.468 -0.6516  1.8544 -0.3229
  342MOL0     H47176  10.102   8.838  10.951  0.2344  0.7382 -2.1308
  342MOL0     H47177   9.865   8.755  10.950 -0.0328 -0.1814 -0.5905
  342MOL0     H47178   9.555   8.264  10.723  0.3874  0.4104  2.6894
  342MOL0     H47179   9.302   8.229  10.701 -1.4782  0.7518  2.7271
  342MOL0     H47180   7.465   7.930  10.612  1.1106  1.4304  2.8233
  342MOL0     H47181   7.284   7.844  10.471  1.0479 -0.8027 -0.4829
  342MOL0     H47182   6.845   7.841  10.439 -5.4036 -1.6060  1.6102
  342MOL0     H47183   6.664   7.829  10.280 -0.9142 -0.2891  1.2993
  342MOL0     H47184   6.599   7.820  10.063 -2.7108 -0.4808  1.3466
  342MOL0     H47185   6.667   7.719   9.943 -2.2386  1.0684 -2.4154
  342MOL0     H47186   6.439   7.593   9.923  1.5647 -0.3979 -2.7550
  342MOL0     H47187   6.475   7.754   9.845  0.3907  0.5250 -0.1054
  342MOL0     H47188   6.341   7.740  10.113 -1.1893  0.0161 -0.0296
  342MOL0     H47189   6.346   7.883  10.010 -0.5363  1.1161  0.5905
  342MOL0     H47190   6.181   7.634   9.960 -1.9390 -0.1145 -0.5519
  342MOL0     H47191   6.220   7.759   9.834  0.0582  2.9539  0.3136
  342MOL0     H47192   5.911   7.935  10.057 -0.2499 -0.4472  0.4182
  342MOL0     H47193   6.807   7.453  10.137  1.5335  0.1983 -0.1672
  342MOL0     H47194   7.005   7.362  10.187  1.7876  0.9125 -1.2374
  342MOL0     H47195   7.128   7.468  10.262 -0.0175  0.3050  2.6416
  342MOL0     H47196   7.014   7.360  10.361 -3.4486 -2.0343 -1.6306
  343MOL0     O47197   7.590   4.941   0.069 -0.6513 -0.1614  0.3904
  343MOL0     C47198   7.709   4.955   0.025  0.1937 -0.2901 -0.2837
  343MOL0     O47199   7.824   4.937   0.092 -0.1685  0.0996 -0.0675
  343MOL0     C47200   7.840   4.926   0.225  0.9873  0.4507 -0.0347
  343MOL0     C47201   7.775   4.820   0.288  0.1758  0.0170  0.2233
  343MOL0     C47202   7.785   4.807   0.429  0.2726  0.3257 -0.2034
  343MOL0     C47203   7.857   4.907   0.503 -0.0885 -0.1518  0.5719
  343MOL0     O47204   7.866   4.882   0.637  0.2771  0.1100  0.1058
  343MOL0     C47205   7.903   4.987   0.723  0.1560  0.2711  0.2390
  343MOL0     C47206   7.874   4.944   0.863 -1.4971  0.5102 -0.0512
  343MOL0     C47207   7.976   4.831   0.910  0.4684  0.3330 -0.4275
  343MOL0     C47208   7.939   4.775   1.056 -0.7508  0.0566 -0.1055
  343MOL0     C47209   8.053   4.690   1.129  0.0766 -0.3563 -0.6509
  343MOL0     C47210   8.081   4.559   1.052 -0.6088 -0.5634  0.7873
  343MOL0     C47211   8.158   4.460   1.137 -0.7641 -0.7708 -0.2599
  343MOL0     C47212   8.293   4.517   1.171  0.5190 -0.5677  0.4183
  343MOL0     N47213   8.390   4.531   1.058 -0.4456  0.4337  0.0641
  343MOL0     C47214   8.497   4.619   1.051  0.5008  0.2547 -0.7976
  343MOL0     C47215   8.564   4.602   0.933  0.5564 -0.5361  0.3702
  343MOL0     C47216   8.685   4.677   0.886  0.1668 -0.0745  1.0175
  343MOL0     C47217   8.728   4.634   0.745  0.4740  0.7706  0.5646
  343MOL0     C47218   8.872   4.663   0.716  0.4418 -0.1005  0.6744
  343MOL0     C47219   8.965   4.572   0.788 -0.3684  0.2737  0.3456
  343MOL0     O47220   9.029   4.475   0.698  0.1215 -0.2807  0.1831
  343MOL0     C47221   9.103   4.372   0.752 -0.5491 -0.3507 -0.3488
  343MOL0     C47222   9.130   4.354   0.892 -0.4875 -0.7595 -0.0635
  343MOL0     C47223   9.217   4.248   0.940 -0.2427 -0.8924 -0.2814
  343MOL0     C47224   9.232   4.242   1.092 -0.2832  1.2321 -0.9673
  343MOL0     C47225   9.267   4.157   0.844 -0.1461  0.2141 -0.1143
  343MOL0     C47226   9.350   4.027   0.869  1.0802 -1.3525 -0.5908
  343MOL0     O47227   9.396   3.966   0.770  0.8093  0.0853  0.4712
  343MOL0     C47228   9.498   3.870   0.790  1.7795 -0.7265 -0.2321
  343MOL0     C47229   9.466   3.730   0.801 -1.0295  0.4753  0.2677
  343MOL0     C47230   9.568   3.635   0.831 -0.3539 -0.3219  1.1607
  343MOL0     C47231   9.707   3.679   0.834  0.5440  0.3519 -0.2486
  343MOL0     O47232   9.815   3.599   0.841  0.8362  0.7363  0.4296
  343MOL0     C47233   9.869   3.588   0.974  0.1865 -0.2547  0.5936
  343MOL0     C47234   9.982   3.488   0.973 -0.4556  0.2468 -0.3404
  343MOL0     C47235  10.059   3.487   1.109  0.1320  0.3936 -0.3129
  343MOL0     C47236  10.205   3.492   1.096 -0.4109  0.2491 -0.6015
  343MOL0     C47237  10.279   3.502   1.235  0.8922  0.2353 -0.4190
  343MOL0     C47238  10.423   3.479   1.231  0.5885 -0.6701  0.3386
  343MOL0     C47239  10.479   3.483   1.373 -0.4526  0.0561 -0.8421
  343MOL0     C47240  10.635   3.506   1.374  0.0554  0.2516 -0.2652
  343MOL0    Cl47241  10.682   3.512   1.543  0.5489  0.1290 -0.3618
  343MOL0     C47242   9.731   3.814   0.815  0.0276  0.0396  0.3330
  343MOL0     C47243   9.633   3.900   0.787 -0.0190 -0.3072  0.5020
  343MOL0     O47244   9.362   3.984   0.990  0.4486 -0.1246 -0.4987
  343MOL0     C47245   9.237   4.178   0.706 -0.6547  0.1214 -0.0213
  343MOL0     C47246   9.157   4.278   0.662 -0.0039  0.4175 -0.4918
  343MOL0     N47247   8.486   4.518   0.855 -0.1838 -0.1152  0.2172
  343MOL0     N47248   8.382   4.476   0.930  0.4789  0.0373  0.0065
  343MOL0     C47249   7.920   5.014   0.439 -1.1202 -1.6384  0.0030
  343MOL0     C47250   7.904   5.029   0.299 -0.0304 -0.0402  0.4019
  343MOL0     C47251   7.730   5.002  -0.112 -0.6120 -0.1887  0.4871
  343MOL0     C47252   7.858   4.997  -0.174  0.0625 -0.0713 -0.7434
  343MOL0     C47253   7.887   5.041  -0.306 -0.5479 -0.8949  0.5306
  343MOL0     C47254   7.780   5.091  -0.385 -0.9175  0.7488  0.0885
  343MOL0     O47255   7.800   5.134  -0.513  0.3637  0.6196  1.0227
  343MOL0     C47256   7.811   5.025  -0.613 -0.7357  0.0945 -0.4514
  343MOL0     C47257   7.894   5.054  -0.739 -0.1234 -0.5491  0.1578
  343MOL0     C47258   8.046   5.085  -0.702  1.2709  0.5159 -0.0285
  343MOL0     C47259   8.130   5.072  -0.819 -0.4396  0.7066 -0.2932
  343MOL0     C47260   8.159   4.932  -0.852  0.2442 -0.4864  0.2590
  343MOL0     C47261   8.179   4.809  -0.845 -0.3137 -0.8901 -0.2822
  343MOL0     C47262   7.654   5.107  -0.331  0.3978 -0.1047 -0.2962
  343MOL0     C47263   7.625   5.066  -0.193  0.1103 -0.0050  0.4810
  343MOL0     C47264   7.472   5.081  -0.156 -0.1198  0.6201 -0.4910
  343MOL0     H47265   7.734   4.740   0.227 -1.4669  0.6706  0.4100
  343MOL0     H47266   7.740   4.722   0.479 -3.6558  0.4190 -3.0518
  343MOL0     H47267   7.842   5.074   0.694 -1.0858 -0.9142 -0.9008
  343MOL0     H47268   8.010   4.998   0.705  0.4256  0.4606  1.8243
  343MOL0     H47269   7.884   5.028   0.931 -2.2872  0.3080  0.3135
  343MOL0     H47270   7.772   4.911   0.883 -2.0787  2.7645  0.9189
  343MOL0     H47271   7.977   4.741   0.848 -0.2768 -0.0454  0.1034
  343MOL0     H47272   8.078   4.867   0.928 -1.0131  2.6656  6.5422
  343MOL0     H47273   7.917   4.855   1.128 -1.9628 -1.0364  0.7876
  343MOL0     H47274   7.850   4.713   1.044  1.5032 -3.9687  1.9035
  343MOL0     H47275   8.016   4.647   1.222  0.0956 -1.4861 -1.1584
  343MOL0     H47276   8.139   4.757   1.146 -0.2637 -0.2698  0.9429
  343MOL0     H47277   7.990   4.516   1.009  1.2266 -0.8132 -3.3835
  343MOL0     H47278   8.148   4.578   0.967 -0.3405 -1.5205  0.7762
  343MOL0     H47279   8.171   4.362   1.092 -0.1104 -1.7304  1.8561
  343MOL0     H47280   8.099   4.459   1.230  0.5469  2.6193  0.7877
  343MOL0     H47281   8.279   4.612   1.224  0.3132 -1.6032  2.3057
  343MOL0     H47282   8.334   4.454   1.250  1.6245 -1.0439 -0.5048
  343MOL0     H47283   8.527   4.686   1.130  3.7990 -0.8780 -0.9142
  343MOL0     H47284   8.773   4.665   0.949  1.6210 -0.1550 -0.9434
  343MOL0     H47285   8.665   4.785   0.889  1.5152  0.2805 -0.8658
  343MOL0     H47286   8.715   4.526   0.741 -1.3891  0.9261  1.1096
  343MOL0     H47287   8.657   4.682   0.676 -1.8916  0.1637  2.4273
  343MOL0     H47288   8.885   4.665   0.608  0.4763 -3.0913  0.5414
  343MOL0     H47289   8.889   4.768   0.741 -0.6047 -0.0234  1.1337
  343MOL0     H47290   9.037   4.635   0.842 -0.9888  1.8267 -0.5751
  343MOL0     H47291   8.904   4.511   0.856  1.5386 -1.0893  0.9317
  343MOL0     H47292   9.084   4.421   0.965  1.4472  0.8068 -0.1891
  343MOL0     H47293   9.219   4.330   1.156  1.8424  0.2189  1.0319
  343MOL0     H47294   9.325   4.201   1.132 -0.1687  2.3250 -0.0437
  343MOL0     H47295   9.145   4.184   1.121 -1.1071  1.8636 -2.0746
  343MOL0     H47296   9.363   3.699   0.783 -0.7831  0.3620 -1.1034
  343MOL0     H47297   9.555   3.529   0.849 -0.3360 -0.7248 -0.9578
  343MOL0     H47298   9.903   3.689   0.998  2.7857 -1.0938  0.7479
  343MOL0     H47299   9.788   3.557   1.041 -1.0217  2.5602  0.5728
  343MOL0     H47300   9.936   3.390   0.952 -0.5801  0.3706 -0.6399
  343MOL0     H47301  10.053   3.521   0.897  1.2643 -0.1288  1.0352
  343MOL0     H47302  10.023   3.393   1.153 -0.6779  0.7490 -0.2004
  343MOL0     H47303  10.019   3.559   1.180 -1.5915  1.1187 -1.9277
  343MOL0     H47304  10.233   3.576   1.032 -2.9972  1.4356 -0.2514
  343MOL0     H47305  10.236   3.396   1.052 -1.5029 -0.8711  0.9708
  343MOL0     H47306  10.267   3.602   1.278 -3.4803  0.5102 -1.7403
  343MOL0     H47307  10.245   3.435   1.315  3.1268  0.6662  0.9519
  343MOL0     H47308  10.471   3.556   1.171 -1.1800 -0.7900 -1.2962
  343MOL0     H47309  10.444   3.382   1.185 -3.1173 -1.1243 -0.7591
  343MOL0     H47310  10.471   3.393   1.436  2.9665 -0.7577 -1.4052
  343MOL0     H47311  10.436   3.568   1.427  1.2677  0.9199 -0.7653
  343MOL0     H47312  10.660   3.597   1.318 -0.8853  0.9267  0.3850
  343MOL0     H47313  10.679   3.416   1.331  1.9708  1.4232 -0.8979
  343MOL0     H47314   9.826   3.866   0.822 -0.2981  0.4019  2.9649
  343MOL0     H47315   9.670   4.000   0.768 -0.6973 -0.3509 -1.2256
  343MOL0     H47316   9.274   4.112   0.627 -0.0210 -2.1931  2.0717
  343MOL0     H47317   9.142   4.294   0.556 -1.6521  0.6866 -0.2447
  343MOL0     H47318   7.981   5.088   0.491 -0.5242 -0.7982 -1.8074
  343MOL0     H47319   7.945   5.111   0.241  0.6398 -0.1098  0.7588
  343MOL0     H47320   7.935   4.957  -0.109  0.9801  1.1571 -1.0550
  343MOL0     H47321   7.988   5.034  -0.346 -0.4071  2.4314  0.0437
  343MOL0     H47322   7.858   4.937  -0.568  3.4461  0.1519 -4.0455
  343MOL0     H47323   7.714   4.996  -0.654 -0.5932 -0.4427 -0.4174
  343MOL0     H47324   7.858   5.141  -0.794 -0.1315 -0.9956 -0.5436
  343MOL0     H47325   7.885   4.971  -0.809  0.5575  1.1787 -2.0917
  343MOL0     H47326   8.043   5.188  -0.666 -2.6618  0.5344  0.0022
  343MOL0     H47327   8.089   5.005  -0.640  0.6516 -0.6344 -1.0191
  343MOL0     H47328   8.222   5.120  -0.786 -0.4383 -0.1793  1.0740
  343MOL0     H47329   8.093   5.117  -0.912  1.3745 -0.6396 -1.7625
  343MOL0     H47330   8.205   4.705  -0.844  1.2625 -0.5379 -1.1847
  343MOL0     H47331   7.583   5.152  -0.399  0.2686  1.5874  0.8832
  343MOL0     H47332   7.435   4.979  -0.170 -4.9924  2.2254 -0.8646
  343MOL0     H47333   7.456   5.113  -0.053 -0.0792 -3.7866  1.1040
  343MOL0     H47334   7.417   5.147  -0.224 -0.7685  1.5296  0.8694
  344MOL0     O47335   9.474   1.951   6.516 -0.4421 -0.1724  0.5788
  344MOL0     C47336   9.475   2.073   6.538  0.6771  0.0000  0.1609
  344MOL0     O47337   9.458   2.179   6.439 -0.1553 -0.0816 -0.2433
  344MOL0     C47338   9.411   2.140   6.316 -0.3870 -0.4586 -0.6701
  344MOL0     C47339   9.277   2.137   6.293  0.4195 -0.6767  0.5271
  344MOL0     C47340   9.235   2.087   6.170 -0.4683  0.1050  0.1400
  344MOL0     C47341   9.323   2.047   6.069  0.0559 -0.6305  0.2486
  344MOL0     O47342   9.259   1.998   5.954  0.4909  0.0811 -0.1042
  344MOL0     C47343   9.338   2.002   5.833  0.3373  0.2426 -0.0375
  344MOL0     C47344   9.385   2.140   5.776  0.2671 -0.7360  0.7695
  344MOL0     C47345   9.290   2.208   5.677  0.2457  0.1095  0.1881
  344MOL0     C47346   9.337   2.342   5.623 -0.4674  0.5590  0.4731
  344MOL0     C47347   9.435   2.323   5.511  0.2624 -0.5172  0.2573
  344MOL0     C47348   9.489   2.460   5.457 -0.2349 -0.5913 -0.2242
  344MOL0     C47349   9.571   2.454   5.327  0.2830  0.2313  0.2934
  344MOL0     C47350   9.621   2.596   5.298  0.2671  0.5432  0.1393
  344MOL0     N47351   9.713   2.583   5.185  0.0549  0.4663 -0.1808
  344MOL0     C47352   9.846   2.583   5.199 -0.9488  1.1245  0.1335
  344MOL0     C47353   9.904   2.611   5.083 -0.3332 -0.8350  0.1195
  344MOL0     C47354  10.050   2.639   5.052 -0.8419 -0.5096  0.5262
  344MOL0     C47355  10.078   2.798   5.056 -0.3779  0.5616 -0.0106
  344MOL0     C47356  10.194   2.836   4.962  0.0296  0.3453 -0.3293
  344MOL0     C47357  10.329   2.760   5.003  0.5643 -0.6410  0.0527
  344MOL0     O47358  10.437   2.801   4.921 -0.0483 -0.1367  0.4242
  344MOL0     C47359  10.548   2.814   4.999  0.0251 -1.4847 -0.5820
  344MOL0     C47360  10.590   2.721   5.100 -0.4602 -0.5143 -0.3596
  344MOL0     C47361  10.705   2.737   5.170 -0.2079  0.0453 -0.0096
  344MOL0     C47362  10.737   2.648   5.285  0.3977  0.0086 -0.1185
  344MOL0     C47363  10.790   2.848   5.141 -0.1708  0.1397  0.9801
  344MOL0     C47364  10.918   2.873   5.196 -0.3979  0.8109  0.6583
  344MOL0     O47365  11.018   2.912   5.111 -0.2485 -0.0635 -1.4427
  344MOL0     C47366  11.140   2.873   5.155 -0.1536  0.3143 -0.1610
  344MOL0     C47367  11.215   2.972   5.227 -0.8535  0.1861 -0.7535
  344MOL0     C47368  11.344   2.925   5.270 -0.9559 -0.2156  0.4790
  344MOL0     C47369  11.391   2.797   5.245  0.2379 -0.3637 -0.0966
  344MOL0     O47370  11.509   2.744   5.283 -0.4667 -0.6792  0.2113
  344MOL0     C47371  11.604   2.833   5.339  0.1251  0.5500  0.3060
  344MOL0     C47372  11.732   2.756   5.375  0.2312 -0.1197 -0.1207
  344MOL0     C47373  11.824   2.848   5.456  0.8359  0.2460  0.7425
  344MOL0     C47374  11.959   2.777   5.468 -0.4146 -0.6129 -0.3084
  344MOL0     C47375  12.065   2.878   5.516 -0.4515  0.0630  0.3635
  344MOL0     C47376  12.208   2.815   5.491  0.0612  0.7288 -0.4303
  344MOL0     C47377  12.314   2.906   5.556 -0.3354 -0.5699  0.3733
  344MOL0     C47378  12.449   2.845   5.552 -0.8858 -0.4912 -0.1290
  344MOL0    Cl47379  12.568   2.954   5.614  0.1939  0.2056  0.1577
  344MOL0     C47380  11.306   2.708   5.174  0.0605  0.6325  0.0644
  344MOL0     C47381  11.184   2.745   5.125  0.8373 -0.5545 -0.3946
  344MOL0     O47382  10.924   2.878   5.319 -0.6429 -0.0097  0.6535
  344MOL0     C47383  10.745   2.933   5.043 -0.3316 -0.7702  0.9523
  344MOL0     C47384  10.635   2.918   4.971  0.3612  0.2174  0.4373
  344MOL0     N47385   9.803   2.635   4.995  0.5995  0.2041  0.0711
  344MOL0     N47386   9.688   2.622   5.056 -0.4485 -0.3370  0.1925
  344MOL0     C47387   9.462   2.054   6.099 -0.4708  0.6573 -0.0275
  344MOL0     C47388   9.505   2.101   6.219  1.0201  0.6135  0.5047
  344MOL0     C47389   9.517   2.107   6.671  0.4023 -0.6323 -0.3086
  344MOL0     C47390   9.591   2.009   6.742  0.4153  0.3175 -0.3677
  344MOL0     C47391   9.640   2.034   6.868  0.1575  0.5374 -0.2235
  344MOL0     C47392   9.606   2.143   6.935 -0.5130 -0.7193  0.4604
  344MOL0     O47393   9.648   2.149   7.061  0.3164  0.0386 -0.4046
  344MOL0     C47394   9.767   2.232   7.057  0.7237  0.7493  0.9803
  344MOL0     C47395   9.849   2.233   7.187  0.5580  0.0562 -0.2950
  344MOL0     C47396   9.942   2.106   7.192  0.0400 -1.1295 -0.1601
  344MOL0     C47397  10.013   2.077   7.330 -0.1802  0.0935  0.4574
  344MOL0     C47398  10.139   2.153   7.337 -0.9022  0.2246 -0.0820
  344MOL0     C47399  10.251   2.199   7.332  1.3302  0.1834  0.8248
  344MOL0     C47400   9.539   2.247   6.860  0.3236 -0.2185  0.0936
  344MOL0     C47401   9.487   2.232   6.726  0.1664 -0.4638  0.0168
  344MOL0     C47402   9.413   2.347   6.672  0.4769 -0.1801  0.5458
  344MOL0     H47403   9.200   2.172   6.361  0.7103  3.1391 -0.8870
  344MOL0     H47404   9.133   2.095   6.133  0.2704  0.7620 -1.9079
  344MOL0     H47405   9.269   1.960   5.760 -0.8889  1.2496  0.4935
  344MOL0     H47406   9.424   1.938   5.855 -0.6760 -0.7412  1.1407
  344MOL0     H47407   9.414   2.207   5.858  0.6787 -0.5835  0.4996
  344MOL0     H47408   9.476   2.116   5.721 -0.0548 -0.7759  0.2556
  344MOL0     H47409   9.271   2.143   5.592 -1.0833  0.6817  0.0203
  344MOL0     H47410   9.198   2.233   5.731  0.0463  1.8612 -0.8876
  344MOL0     H47411   9.243   2.394   5.601 -0.5527  0.9823  1.7532
  344MOL0     H47412   9.394   2.397   5.697  1.1213  0.2937 -0.5035
  344MOL0     H47413   9.380   2.283   5.425  0.2677  4.0863 -2.2097
  344MOL0     H47414   9.513   2.254   5.545 -1.3060 -1.4769  2.1560
  344MOL0     H47415   9.400   2.520   5.435  0.4684  0.5162 -0.1493
  344MOL0     H47416   9.541   2.510   5.540 -0.1249 -0.6349 -0.2673
  344MOL0     H47417   9.512   2.411   5.246 -1.3285  2.3869  0.2428
  344MOL0     H47418   9.655   2.386   5.343  0.3580 -0.0183 -1.0271
  344MOL0     H47419   9.536   2.660   5.271 -2.0948 -3.4981 -3.2614
  344MOL0     H47420   9.663   2.635   5.391 -0.3302 -1.3891  1.2810
  344MOL0     H47421   9.897   2.565   5.293 -2.3998  1.0267  0.9319
  344MOL0     H47422  10.076   2.605   4.951 -0.6012 -2.3963  1.1737
  344MOL0     H47423  10.120   2.585   5.117  1.8747 -0.1750 -1.8707
  344MOL0     H47424   9.988   2.839   5.010 -0.2813 -0.7070 -1.4086
  344MOL0     H47425  10.085   2.831   5.161  1.7689 -2.1161  0.8037
  344MOL0     H47426  10.165   2.805   4.861 -1.3202  0.1945  0.0804
  344MOL0     H47427  10.222   2.942   4.968  1.7993 -0.0405 -1.1531
  344MOL0     H47428  10.329   2.777   5.111 -2.1596  0.1382 -0.0088
  344MOL0     H47429  10.317   2.651   5.007 -2.5287 -0.3588  0.9634
  344MOL0     H47430  10.531   2.633   5.121  1.6980 -1.6768  1.1033
  344MOL0     H47431  10.831   2.596   5.263 -0.2997  0.0756 -3.8815
  344MOL0     H47432  10.660   2.571   5.296  0.4969  0.1792  2.5323
  344MOL0     H47433  10.739   2.698   5.382  2.8148 -2.3242  1.1728
  344MOL0     H47434  11.188   3.075   5.244 -1.7145 -0.6042  4.1761
  344MOL0     H47435  11.401   2.998   5.325 -0.0901  0.3674 -1.1239
  344MOL0     H47436  11.630   2.907   5.262 -1.3330  2.4570  1.5485
  344MOL0     H47437  11.568   2.877   5.432 -2.7752 -3.0224  1.0944
  344MOL0     H47438  11.701   2.671   5.436 -3.3954  1.5295  0.5740
  344MOL0     H47439  11.772   2.716   5.281 -1.3819 -0.6348 -0.6221
  344MOL0     H47440  11.774   2.872   5.550  1.0021  2.7918  0.2313
  344MOL0     H47441  11.842   2.939   5.399 -1.2598  0.7524  0.8144
  344MOL0     H47442  11.985   2.752   5.365 -0.4174  1.5118 -0.8665
  344MOL0     H47443  11.956   2.688   5.531  0.1236 -0.6646 -0.3467
  344MOL0     H47444  12.064   2.968   5.453  0.7638  0.0956  0.3620
  344MOL0     H47445  12.041   2.901   5.620  0.1511  1.1409  0.2850
  344MOL0     H47446  12.229   2.812   5.384  0.7097  0.9243 -0.3123
  344MOL0     H47447  12.213   2.712   5.529 -0.7809  1.1603  0.9309
  344MOL0     H47448  12.298   2.923   5.663 -0.2693  3.3297 -0.0695
  344MOL0     H47449  12.314   3.003   5.505  0.2195 -0.3230  0.8245
  344MOL0     H47450  12.480   2.836   5.448  0.8670 -0.4126  0.3567
  344MOL0     H47451  12.460   2.754   5.611  1.3879  0.5837  1.2137
  344MOL0     H47452  11.348   2.610   5.153 -1.5972 -0.2319  0.6537
  344MOL0     H47453  11.120   2.678   5.068 -0.5213 -0.0545  0.4988
  344MOL0     H47454  10.814   3.010   5.011  0.5949 -0.4634  3.4463
  344MOL0     H47455  10.612   2.991   4.895 -1.5976 -0.8331 -0.0367
  344MOL0     H47456   9.544   2.028   6.033  1.5623  3.0852  1.3395
  344MOL0     H47457   9.610   2.093   6.245  0.6942 -0.2121  1.6274
  344MOL0     H47458   9.625   1.913   6.705  2.2738 -0.6005  3.1777
  344MOL0     H47459   9.701   1.967   6.928 -1.6172 -1.4622 -0.5323
  344MOL0     H47460   9.830   2.209   6.971 -2.9801 -0.2453 -1.7500
  344MOL0     H47461   9.735   2.335   7.042  0.1370  0.4595  0.1126
  344MOL0     H47462   9.783   2.242   7.275  0.3356 -0.7993 -0.3670
  344MOL0     H47463   9.902   2.328   7.201 -1.6035  1.1159  1.6317
  344MOL0     H47464   9.880   2.016   7.178  1.0892 -2.1261  1.3409
  344MOL0     H47465  10.025   2.114   7.121 -0.0913  1.0006 -0.1252
  344MOL0     H47466  10.042   1.971   7.325  0.6910  0.2711  1.5031
  344MOL0     H47467   9.951   2.089   7.419 -1.7311  2.9158 -0.8913
  344MOL0     H47468  10.351   2.234   7.317  0.7144  1.1234 -1.5394
  344MOL0     H47469   9.534   2.344   6.910 -3.1504 -0.8631  1.2780
  344MOL0     H47470   9.423   2.433   6.739 -2.0236 -0.3922  1.2973
  344MOL0     H47471   9.452   2.367   6.572 -0.3694  3.2841  0.7715
  344MOL0     H47472   9.306   2.328   6.656 -0.5676  1.7839  3.9347
  345MOL0     O47473   5.005  11.011   8.702  0.0532 -0.6869 -0.0508
  345MOL0     C47474   4.976  11.089   8.788  1.2869 -0.1052 -0.0423
  345MOL0     O47475   4.978  11.064   8.918 -0.0764  0.3261  0.0317
  345MOL0     C47476   5.052  10.954   8.959 -0.2198 -0.2917 -0.2904
  345MOL0     C47477   5.185  10.959   9.015 -0.6580  0.0261 -0.7629
  345MOL0     C47478   5.248  10.835   9.056 -0.0692 -0.2505 -0.3330
  345MOL0     C47479   5.181  10.713   9.046  0.0479  0.1403  0.0856
  345MOL0     O47480   5.235  10.596   9.094  0.1061  0.2728 -0.1244
  345MOL0     C47481   5.382  10.587   9.100 -0.8640  0.5505 -0.3595
  345MOL0     C47482   5.412  10.451   9.156  0.5059  0.1477  0.8861
  345MOL0     C47483   5.339  10.341   9.093  0.0600  0.2889  0.5636
  345MOL0     C47484   5.406  10.199   9.117  0.1795 -0.2631  0.1423
  345MOL0     C47485   5.354  10.088   9.023  0.8647  0.0206 -0.3331
  345MOL0     C47486   5.422   9.962   9.049 -0.2448 -0.3515 -0.1897
  345MOL0     C47487   5.383   9.841   8.965 -1.3425 -0.8634 -1.0531
  345MOL0     C47488   5.351   9.722   9.057  0.3704 -0.1931 -0.6901
  345MOL0     N47489   5.304   9.619   8.963 -0.2579 -0.9014 -0.4550
  345MOL0     C47490   5.176   9.625   8.906  0.2104  0.1355  0.3896
  345MOL0     C47491   5.158   9.501   8.855 -0.3270  0.3254  0.6649
  345MOL0     C47492   5.038   9.446   8.792  1.0362 -0.0816  0.3522
  345MOL0     C47493   4.947   9.351   8.884  0.5096  0.2355  1.1126
  345MOL0     C47494   4.847   9.274   8.792 -0.0383 -1.2546  0.8082
  345MOL0     C47495   4.756   9.176   8.852 -0.2375 -0.2807  0.2837
  345MOL0     O47496   4.632   9.171   8.784 -0.2119 -0.5789  0.2994
  345MOL0     C47497   4.510   9.140   8.846 -0.0947 -0.5131  0.3025
  345MOL0     C47498   4.391   9.157   8.778  0.1000  0.9418 -0.4747
  345MOL0     C47499   4.265   9.120   8.835  0.0066 -0.2141  0.1310
  345MOL0     C47500   4.137   9.113   8.754 -1.0359 -0.0670  0.2721
  345MOL0     C47501   4.265   9.067   8.972  1.0675  0.2658  0.9126
  345MOL0     C47502   4.133   9.045   9.037  0.5621  0.0520 -0.1230
  345MOL0     O47503   4.094   8.920   9.077 -0.4115 -0.3653 -0.5604
  345MOL0     C47504   4.170   8.810   9.043  0.3695  0.3973 -0.8269
  345MOL0     C47505   4.238   8.730   9.141 -0.9218 -0.1083  0.7772
  345MOL0     C47506   4.318   8.623   9.104  0.0959 -0.0063  0.5072
  345MOL0     C47507   4.324   8.577   8.973 -0.7387  0.8643 -0.2009
  345MOL0     O47508   4.408   8.470   8.953  0.2954 -0.6784 -0.4864
  345MOL0     C47509   4.401   8.398   8.829  0.1702 -0.1157  1.2562
  345MOL0     C47510   4.518   8.299   8.831 -0.0052 -0.2572  0.1797
  345MOL0     C47511   4.511   8.187   8.930 -0.3380 -0.2959 -0.6072
  345MOL0     C47512   4.412   8.081   8.912  0.6899 -0.4346  0.3389
  345MOL0     C47513   4.386   8.000   9.037  0.1863 -0.2393 -0.7556
  345MOL0     C47514   4.303   7.882   9.011  0.1532 -0.0148  0.0002
  345MOL0     C47515   4.245   7.822   9.140  0.5486 -0.1695 -0.5811
  345MOL0     C47516   4.127   7.728   9.108 -0.4261 -1.5149  0.0577
  345MOL0    Cl47517   4.110   7.620   9.239 -0.1283 -0.0321 -0.1821
  345MOL0     C47518   4.259   8.654   8.885  0.9200  1.1006 -0.5474
  345MOL0     C47519   4.181   8.764   8.916  0.6171  0.0659 -0.1097
  345MOL0     O47520   4.067   9.149   9.047 -0.4737  0.7131 -0.8042
  345MOL0     C47521   4.383   9.048   9.040 -1.1317  0.1043 -0.1094
  345MOL0     C47522   4.505   9.071   8.974  0.4741 -0.8564  0.1872
  345MOL0     N47523   5.272   9.427   8.868 -0.6551  0.5616 -0.3935
  345MOL0     N47524   5.362   9.500   8.939  1.0249 -0.1889  0.2793
  345MOL0     C47525   5.045  10.714   8.995 -0.4316 -0.7128 -0.1725
  345MOL0     C47526   4.977  10.834   8.951 -1.4101 -1.0099 -0.4526
  345MOL0     C47527   4.920  11.216   8.733  0.0754 -0.5096  0.0352
  345MOL0     C47528   4.910  11.238   8.596  0.2459  0.6388  0.4148
  345MOL0     C47529   4.859  11.351   8.531 -0.0907 -0.7407 -0.9108
  345MOL0     C47530   4.807  11.452   8.622 -0.5604  0.8616 -0.4853
  345MOL0     O47531   4.756  11.562   8.560 -0.0794  0.0948 -0.4930
  345MOL0     C47532   4.734  11.684   8.632  0.2288 -0.2904  0.1722
  345MOL0     C47533   4.871  11.744   8.670  0.1756 -0.3029 -0.0261
  345MOL0     C47534   4.847  11.866   8.758  0.3263  0.3954 -0.8619
  345MOL0     C47535   4.789  11.849   8.901 -0.5415 -0.9669  0.7116
  345MOL0     C47536   4.772  11.985   8.957 -1.3753  0.4328  0.2668
  345MOL0     C47537   4.746  12.098   8.999 -0.5999  0.4460  0.1440
  345MOL0     C47538   4.818  11.429   8.759 -0.4636 -0.0780 -0.7410
  345MOL0     C47539   4.861  11.312   8.818 -0.4029  0.0415  0.4951
  345MOL0     C47540   4.845  11.297   8.971 -0.3702  0.8055 -0.1985
  345MOL0     H47541   5.220  11.059   9.040  1.6103 -0.2435 -2.5178
  345MOL0     H47542   5.339  10.845   9.115 -1.2713 -0.9298  1.7410
  345MOL0     H47543   5.431  10.663   9.161 -1.4636  2.2493 -1.9125
  345MOL0     H47544   5.424  10.592   8.998  3.1908 -0.4132  1.0532
  345MOL0     H47545   5.522  10.442   9.154  0.4816 -0.0455 -0.1306
  345MOL0     H47546   5.392  10.452   9.264  4.4620 -0.7170  1.7934
  345MOL0     H47547   5.244  10.336   9.146  1.3618 -1.1120  2.9319
  345MOL0     H47548   5.330  10.349   8.984 -0.7012 -3.4236  0.2124
  345MOL0     H47549   5.515  10.211   9.125  0.1160  0.2870  0.2356
  345MOL0     H47550   5.381  10.172   9.220  0.7975 -3.3692 -0.4189
  345MOL0     H47551   5.364  10.126   8.920 -0.1459  2.4967  0.4127
  345MOL0     H47552   5.245  10.083   9.026  0.8679 -3.3427 -1.3872
  345MOL0     H47553   5.528   9.984   9.032 -0.9064  4.3094  0.3914
  345MOL0     H47554   5.412   9.940   9.155  0.4946  0.5282  0.0712
  345MOL0     H47555   5.460   9.820   8.890 -0.7789 -0.1346 -0.6869
  345MOL0     H47556   5.292   9.875   8.914 -2.1806  1.9472  2.0046
  345MOL0     H47557   5.434   9.694   9.123  2.2856  5.5739 -0.1277
  345MOL0     H47558   5.269   9.756   9.121  0.8212  1.4216 -0.9222
  345MOL0     H47559   5.101   9.703   8.909 -0.3716 -0.3813 -0.4411
  345MOL0     H47560   5.055   9.390   8.699  0.0979  2.6009 -1.5739
  345MOL0     H47561   4.976   9.527   8.753  4.7021  0.4641 -5.7441
  345MOL0     H47562   4.992   9.285   8.959  0.9661 -2.1833 -1.1605
  345MOL0     H47563   4.895   9.425   8.945 -0.9598  0.9826 -0.9429
  345MOL0     H47564   4.785   9.347   8.740  0.0101 -1.6427  0.1905
  345MOL0     H47565   4.915   9.223   8.722  3.4049 -1.8495  4.2468
  345MOL0     H47566   4.803   9.078   8.839  0.0715 -0.1957  0.7466
  345MOL0     H47567   4.738   9.206   8.955  0.2738 -2.1717  0.9637
  345MOL0     H47568   4.400   9.192   8.675  0.0550  1.2362 -0.3799
  345MOL0     H47569   4.047   9.146   8.806 -2.1205 -1.1922 -0.8160
  345MOL0     H47570   4.130   9.009   8.722  3.5559  0.1199 -2.1916
  345MOL0     H47571   4.137   9.181   8.668  1.4230 -0.1013  0.1688
  345MOL0     H47572   4.212   8.772   9.237 -0.2630  1.2263  0.3977
  345MOL0     H47573   4.383   8.577   9.178  2.3548  1.6636 -0.3338
  345MOL0     H47574   4.308   8.343   8.814  0.7054 -1.2234  1.9386
  345MOL0     H47575   4.419   8.465   8.744  0.0894 -1.8744 -0.2211
  345MOL0     H47576   4.528   8.265   8.727 -1.1743 -1.8002  0.5545
  345MOL0     H47577   4.613   8.353   8.842  1.8308 -3.5264  1.7944
  345MOL0     H47578   4.482   8.237   9.023 -1.2940 -2.1218  0.1148
  345MOL0     H47579   4.604   8.131   8.940 -0.2978 -0.0366  0.5666
  345MOL0     H47580   4.439   8.018   8.827  0.5522 -1.0491  0.7438
  345MOL0     H47581   4.318   8.120   8.872  0.8686 -3.2727 -3.4321
  345MOL0     H47582   4.480   7.959   9.075  0.2929  1.5924  1.1242
  345MOL0     H47583   4.343   8.064   9.114  0.7322  2.4435 -2.5301
  345MOL0     H47584   4.362   7.810   8.953  2.8652  0.7414  1.6269
  345MOL0     H47585   4.213   7.923   8.965 -0.1313 -1.5110 -0.8329
  345MOL0     H47586   4.206   7.901   9.204  0.9431  0.7465 -1.4361
  345MOL0     H47587   4.321   7.771   9.199 -0.3807 -0.2492  0.5725
  345MOL0     H47588   4.141   7.669   9.017  0.1812 -0.4694 -0.5512
  345MOL0     H47589   4.036   7.784   9.082  1.3648  1.3895 -0.3251
  345MOL0     H47590   4.257   8.628   8.780 -1.3051 -0.2386 -0.2379
  345MOL0     H47591   4.126   8.823   8.843  1.1091  1.0307  0.3002
  345MOL0     H47592   4.383   9.013   9.142 -0.9872 -0.0672 -0.1679
  345MOL0     H47593   4.603   9.046   9.013  0.8396  0.0076 -0.1613
  345MOL0     H47594   4.986  10.624   8.982 -1.7888  0.2188 -0.6066
  345MOL0     H47595   4.880  10.842   8.903 -2.2888  1.9553  1.5365
  345MOL0     H47596   4.963  11.168   8.533  2.3063  1.3190  1.3309
  345MOL0     H47597   4.861  11.369   8.424 -0.4256  2.3572 -0.5022
  345MOL0     H47598   4.694  11.761   8.564 -1.4852 -0.3036  1.0985
  345MOL0     H47599   4.670  11.674   8.720 -0.2819 -0.8378 -0.2544
  345MOL0     H47600   4.909  11.778   8.573  1.1677 -1.3451 -0.0240
  345MOL0     H47601   4.942  11.675   8.715 -0.9619  0.3444  3.0088
  345MOL0     H47602   4.947  11.911   8.759  0.4904  0.0343 -0.4528
  345MOL0     H47603   4.780  11.934   8.705 -0.4178 -0.5557 -1.1661
  345MOL0     H47604   4.854  11.788   8.966 -1.1261 -0.0200  2.2357
  345MOL0     H47605   4.691  11.802   8.910 -0.8273 -0.1299  2.3089
  345MOL0     H47606   4.712  12.198   9.020 -0.9418  0.2616  0.4883
  345MOL0     H47607   4.791  11.515   8.819 -1.4797  0.8796 -2.4874
  345MOL0     H47608   4.785  11.368   9.029 -1.7123  0.0096 -0.5762
  345MOL0     H47609   4.799  11.202   9.001 -0.5153  1.3976  1.5376
  345MOL0     H47610   4.947  11.294   9.010  0.3834  1.5416 -1.9835
  346MOL0     O47611  10.665   3.805   0.565  0.5135  0.4923  0.3459
  346MOL0     C47612  10.717   3.718   0.489 -0.3339 -0.7062 -0.2792
  346MOL0     O47613  10.650   3.640   0.408 -0.3436 -0.7755 -0.3245
  346MOL0     C47614  10.514   3.645   0.406 -0.2259 -0.1885  1.0437
  346MOL0     C47615  10.447   3.582   0.511 -0.1825  0.3567 -0.4904
  346MOL0     C47616  10.311   3.591   0.524  0.5783  1.3953 -0.1825
  346MOL0     C47617  10.241   3.659   0.418  0.8067  0.8352  0.0035
  346MOL0     O47618  10.109   3.673   0.404  0.1172  0.2084  0.0377
  346MOL0     C47619  10.010   3.596   0.482 -0.1214 -0.4478  0.2296
  346MOL0     C47620   9.868   3.643   0.446  0.7546 -1.0943  0.5817
  346MOL0     C47621   9.841   3.796   0.452 -0.0151 -0.0583  0.3610
  346MOL0     C47622   9.692   3.826   0.428  0.3791  0.4571  0.1046
  346MOL0     C47623   9.662   3.972   0.402  0.2454  0.1670  0.6359
  346MOL0     C47624   9.514   3.994   0.364 -0.3312 -0.0619  0.2631
  346MOL0     C47625   9.457   4.136   0.361  0.2233  0.3404 -1.1974
  346MOL0     C47626   9.307   4.145   0.335 -0.1311  0.6476  0.2624
  346MOL0     N47627   9.285   4.125   0.194 -0.1674  0.7934 -0.0440
  346MOL0     C47628   9.314   4.213   0.096  0.7595  0.1549 -0.0001
  346MOL0     C47629   9.290   4.157  -0.025 -0.0079 -0.6742 -1.2230
  346MOL0     C47630   9.304   4.215  -0.164  0.3009 -0.3218 -0.4936
  346MOL0     C47631   9.431   4.153  -0.226 -0.0442 -0.6561 -0.6883
  346MOL0     C47632   9.468   4.207  -0.360 -0.2864  0.4339  0.5750
  346MOL0     C47633   9.612   4.190  -0.407 -0.0045 -0.1041 -0.9521
  346MOL0     O47634   9.629   4.054  -0.421  0.2467 -0.5148 -0.5421
  346MOL0     C47635   9.749   4.010  -0.468  0.0894  0.1597  0.3674
  346MOL0     C47636   9.745   3.890  -0.529  0.0285 -0.4196  0.0653
  346MOL0     C47637   9.858   3.830  -0.596  0.1169 -0.4486 -0.3113
  346MOL0     C47638   9.833   3.698  -0.661  0.7010  0.1658  0.1889
  346MOL0     C47639   9.988   3.897  -0.567 -0.8263  1.1397 -0.6166
  346MOL0     C47640  10.124   3.836  -0.598  0.2600 -0.2011  0.4007
  346MOL0     O47641  10.240   3.891  -0.553  0.3307  0.2895 -0.1096
  346MOL0     C47642  10.334   3.894  -0.650  0.3582  0.1039 -0.2980
  346MOL0     C47643  10.427   3.794  -0.650  0.3548 -0.0626  0.0415
  346MOL0     C47644  10.533   3.800  -0.736  0.3278 -0.5288 -0.0362
  346MOL0     C47645  10.528   3.900  -0.840  0.1580 -0.3389 -0.1679
  346MOL0     O47646  10.623   3.905  -0.939  0.0207  0.3099 -0.3035
  346MOL0     C47647  10.708   3.794  -0.983 -0.7303  0.4683  0.7365
  346MOL0     C47648  10.623   3.684  -1.054 -0.5899 -0.8854 -0.0254
  346MOL0     C47649  10.710   3.582  -1.118  0.3767 -1.4681  0.3863
  346MOL0     C47650  10.791   3.643  -1.239  0.1779  0.8386  0.2087
  346MOL0     C47651  10.854   3.537  -1.326  0.3956  0.6726  1.7332
  346MOL0     C47652  10.914   3.605  -1.446  0.1709  0.4917  0.2170
  346MOL0     C47653  10.971   3.500  -1.540 -0.5636  0.4647  0.6380
  346MOL0     C47654  11.023   3.556  -1.673  0.9108 -0.6140  0.2710
  346MOL0    Cl47655  11.029   3.435  -1.801 -0.2376  0.1318  0.1512
  346MOL0     C47656  10.424   3.997  -0.849  0.3097  0.4806 -0.5993
  346MOL0     C47657  10.325   3.989  -0.752  0.3370  0.1671  1.4166
  346MOL0     O47658  10.118   3.721  -0.648 -0.0376  0.0938 -1.1456
  346MOL0     C47659   9.982   4.018  -0.505 -0.3090  0.1671  0.0630
  346MOL0     C47660   9.872   4.076  -0.457  0.6624  0.2194  0.0024
  346MOL0     N47661   9.239   4.030   0.001  0.0164  0.1103 -0.3127
  346MOL0     N47662   9.233   4.011   0.135 -0.4642  0.4601  0.5493
  346MOL0     C47663  10.311   3.720   0.312  0.0525 -0.0219 -0.7339
  346MOL0     C47664  10.446   3.706   0.302  0.5057  0.4042 -0.2040
  346MOL0     C47665  10.871   3.699   0.480 -0.3770 -0.8537 -0.0760
  346MOL0     C47666  10.933   3.628   0.373  0.1543  0.0477 -0.1021
  346MOL0     C47667  11.073   3.617   0.375  0.2260  0.1393  0.3500
  346MOL0     C47668  11.158   3.691   0.451 -0.6077  0.1091 -0.3721
  346MOL0     O47669  11.297   3.679   0.426 -0.2491 -0.4018  0.5636
  346MOL0     C47670  11.358   3.640   0.551  0.2759  0.5143  0.0612
  346MOL0     C47671  11.500   3.588   0.526 -0.1967  0.4796  0.0029
  346MOL0     C47672  11.576   3.658   0.412 -0.4770  0.0105  0.5695
  346MOL0     C47673  11.727   3.644   0.414  0.5330 -0.3769  0.0494
  346MOL0     C47674  11.793   3.543   0.333  0.0940  0.0607  1.0221
  346MOL0     C47675  11.869   3.471   0.268  0.2758  0.2641  0.1254
  346MOL0     C47676  11.098   3.776   0.549 -0.7835  0.0676 -1.0110
  346MOL0     C47677  10.958   3.773   0.572 -0.5296  0.3239 -0.1557
  346MOL0     C47678  10.903   3.860   0.688  1.0539  0.1005  0.3118
  346MOL0     H47679  10.511   3.538   0.587  2.7959 -1.2849 -3.6265
  346MOL0     H47680  10.274   3.537   0.610 -1.5523 -1.3109 -2.5959
  346MOL0     H47681  10.015   3.608   0.591  1.2173 -0.2250  0.1634
  346MOL0     H47682  10.026   3.489   0.464 -0.1515 -0.0788 -2.3656
  346MOL0     H47683   9.848   3.608   0.344  0.4082 -1.3281  0.7273
  346MOL0     H47684   9.801   3.587   0.512  1.6609 -0.9386  1.6689
  346MOL0     H47685   9.876   3.825   0.552  1.6986  0.6731 -0.4026
  346MOL0     H47686   9.909   3.844   0.380  0.0912  0.9621  1.1193
  346MOL0     H47687   9.643   3.756   0.360  0.4354  1.1527 -0.6655
  346MOL0     H47688   9.650   3.806   0.527 -2.7811 -2.3879 -1.6217
  346MOL0     H47689   9.719   4.002   0.313 -2.4506 -0.2385 -1.3496
  346MOL0     H47690   9.697   4.031   0.487  0.3042  1.1375 -0.0394
  346MOL0     H47691   9.495   3.937   0.272 -0.3316 -0.5180  0.5466
  346MOL0     H47692   9.460   3.943   0.444  1.0223  0.9873  1.9018
  346MOL0     H47693   9.509   4.191   0.283 -1.0115 -0.9110 -2.9959
  346MOL0     H47694   9.468   4.190   0.455 -0.1763 -1.8440  0.1857
  346MOL0     H47695   9.257   4.077   0.404  2.3836 -1.0300  0.5771
  346MOL0     H47696   9.273   4.244   0.369 -3.4856 -0.4545  0.4656
  346MOL0     H47697   9.335   4.317   0.118  1.9160 -0.3516  1.4147
  346MOL0     H47698   9.310   4.324  -0.151 -4.2171  0.0661 -0.2836
  346MOL0     H47699   9.212   4.198  -0.220 -0.9145  2.4738  0.4724
  346MOL0     H47700   9.519   4.167  -0.163  0.2184  1.5783 -1.4865
  346MOL0     H47701   9.420   4.044  -0.231 -1.5937 -0.4878 -1.3634
  346MOL0     H47702   9.399   4.168  -0.436 -0.8249  3.0112 -0.3584
  346MOL0     H47703   9.444   4.314  -0.357 -0.7553  0.4113 -1.2595
  346MOL0     H47704   9.637   4.250  -0.495  1.8474  0.6333  0.0195
  346MOL0     H47705   9.670   4.233  -0.325 -4.5856  1.4577  1.8312
  346MOL0     H47706   9.644   3.851  -0.539 -0.1817 -0.7614  2.7847
  346MOL0     H47707   9.879   3.702  -0.760  2.4949 -2.4456  0.8129
  346MOL0     H47708   9.725   3.681  -0.671  0.6533  0.9492 -0.8262
  346MOL0     H47709   9.882   3.616  -0.608  0.9869 -0.4185 -0.9251
  346MOL0     H47710  10.432   3.707  -0.586  0.4184 -1.4882 -1.8282
  346MOL0     H47711  10.603   3.717  -0.736 -2.0423 -2.6664  0.5137
  346MOL0     H47712  10.771   3.837  -1.061 -1.1135 -2.3603 -1.3067
  346MOL0     H47713  10.758   3.743  -0.900 -1.3200 -2.9784 -0.8367
  346MOL0     H47714  10.557   3.626  -0.989  0.0283  0.1782  1.6096
  346MOL0     H47715  10.568   3.731  -1.137 -0.7501 -3.1777 -1.2842
  346MOL0     H47716  10.649   3.509  -1.173  2.4043 -1.6739 -1.7382
  346MOL0     H47717  10.779   3.543  -1.043  1.5122 -2.6274 -1.2042
  346MOL0     H47718  10.870   3.707  -1.196  0.0874  1.1768 -0.1217
  346MOL0     H47719  10.714   3.697  -1.295 -1.5849 -2.3688 -0.7107
  346MOL0     H47720  10.933   3.486  -1.271  1.1553 -1.7263 -1.2933
  346MOL0     H47721  10.780   3.469  -1.371  2.2566  0.2324 -0.8997
  346MOL0     H47722  11.000   3.662  -1.408  0.4661 -1.7765  3.2725
  346MOL0     H47723  10.844   3.671  -1.499  0.1909  3.1415  3.1716
  346MOL0     H47724  10.887   3.438  -1.574 -0.5018  1.4703 -1.5724
  346MOL0     H47725  11.038   3.431  -1.488 -0.1892  0.4592  0.1559
  346MOL0     H47726  11.117   3.610  -1.658 -0.0114  1.2654 -0.3742
  346MOL0     H47727  10.959   3.638  -1.707  1.7574 -0.2590 -0.5221
  346MOL0     H47728  10.417   4.080  -0.919  1.1343  3.7804  2.9093
  346MOL0     H47729  10.242   4.058  -0.749  1.8118  2.1857 -0.5315
  346MOL0     H47730  10.065   4.068  -0.457 -0.6944 -1.2606  2.3489
  346MOL0     H47731   9.892   4.161  -0.393 -0.4135 -0.0373  0.6989
  346MOL0     H47732  10.270   3.789   0.239  0.1052 -0.2769 -1.0073
  346MOL0     H47733  10.506   3.753   0.225  0.1790 -1.1895 -1.4862
  346MOL0     H47734  10.872   3.575   0.301  2.4490 -0.6464 -1.6401
  346MOL0     H47735  11.107   3.560   0.289 -3.0213 -0.1353 -0.8804
  346MOL0     H47736  11.357   3.730   0.614  1.5283  1.0023 -0.5790
  346MOL0     H47737  11.292   3.568   0.600 -2.5505  1.2551 -2.3611
  346MOL0     H47738  11.511   3.480   0.512  0.4535  0.7448 -1.8173
  346MOL0     H47739  11.555   3.608   0.618  1.4207 -0.1439 -0.7748
  346MOL0     H47740  11.529   3.625   0.319  1.3896 -1.1442 -0.0207
  346MOL0     H47741  11.557   3.765   0.417  0.0055  0.0668  1.5023
  346MOL0     H47742  11.759   3.633   0.518  0.0056  5.6541  1.2079
  346MOL0     H47743  11.761   3.738   0.371  3.9156 -0.6846  1.7509
  346MOL0     H47744  11.939   3.405   0.220  0.0865 -0.2226  0.5165
  346MOL0     H47745  11.157   3.822   0.628 -1.4164 -0.1784 -0.3718
  346MOL0     H47746  10.848   3.805   0.765  0.0189 -2.8853 -2.3312
  346MOL0     H47747  10.991   3.901   0.738  2.7016 -1.4971 -1.1221
  346MOL0     H47748  10.838   3.939   0.650  2.6769  1.5760  0.4612
  347MOL0     O47749   5.461   1.272   1.163  0.4992 -0.3215 -0.1227
  347MOL0     C47750   5.393   1.364   1.114  0.1635  0.6676 -0.3551
  347MOL0     O47751   5.438   1.448   1.022  0.3636 -1.4049  0.0916
  347MOL0     C47752   5.573   1.467   1.011 -0.0092 -0.1896  0.2144
  347MOL0     C47753   5.642   1.549   1.101 -0.4146 -0.9287  0.8257
  347MOL0     C47754   5.772   1.585   1.070  0.5312  0.4326 -0.4270
  347MOL0     C47755   5.838   1.531   0.961  0.3936 -0.6000 -0.3096
  347MOL0     O47756   5.972   1.566   0.946 -0.2731  0.0231 -0.0854
  347MOL0     C47757   6.004   1.606   0.814 -0.6391 -0.1647 -0.0261
  347MOL0     C47758   6.147   1.653   0.824 -0.8821  0.0502  0.5770
  347MOL0     C47759   6.185   1.703   0.688 -0.0462 -0.1326 -0.1114
  347MOL0     C47760   6.249   1.594   0.594 -0.1683 -0.4419 -0.4702
  347MOL0     C47761   6.346   1.646   0.480  0.2642 -0.6858 -0.6307
  347MOL0     C47762   6.273   1.727   0.376  0.2340  0.8829 -0.0366
  347MOL0     C47763   6.365   1.791   0.269  0.2701  0.2268  0.0273
  347MOL0     C47764   6.433   1.906   0.315 -0.7438 -0.1476 -0.7367
  347MOL0     N47765   6.453   1.997   0.207  0.1429  0.6441 -0.2925
  347MOL0     C47766   6.558   1.991   0.117 -0.1164 -0.3272 -0.2547
  347MOL0     C47767   6.542   2.107   0.047  0.7278 -1.2375 -0.7052
  347MOL0     C47768   6.620   2.141  -0.081  0.2695  0.3945  0.2347
  347MOL0     C47769   6.758   2.203  -0.033  0.5705 -0.0508 -0.6399
  347MOL0     C47770   6.737   2.365  -0.033  0.3136  0.2580  0.2763
  347MOL0     C47771   6.872   2.436  -0.014 -0.3801 -0.3392 -0.2042
  347MOL0     O47772   6.900   2.414   0.122  0.8333 -0.3519  0.3021
  347MOL0     C47773   7.018   2.366   0.166  0.1683 -0.6633  0.1208
  347MOL0     C47774   7.027   2.342   0.302  0.0808 -0.0308  0.3747
  347MOL0     C47775   7.143   2.292   0.363 -0.3999 -0.5947  0.4584
  347MOL0     C47776   7.140   2.285   0.507 -0.4883 -0.2748  0.3944
  347MOL0     C47777   7.257   2.257   0.279 -0.4919  0.2058 -0.0179
  347MOL0     C47778   7.386   2.209   0.334 -0.2381  0.1166  0.4258
  347MOL0     O47779   7.431   2.258   0.446 -0.1576 -0.2664 -0.3747
  347MOL0     C47780   7.548   2.210   0.496  0.5586  0.6004  0.5149
  347MOL0     C47781   7.564   2.098   0.572  0.4262  1.1330  0.2273
  347MOL0     C47782   7.684   2.063   0.632 -0.1606 -0.2275  0.3659
  347MOL0     C47783   7.804   2.133   0.597  0.2086  0.3902 -0.0864
  347MOL0     O47784   7.925   2.097   0.648 -0.1546 -0.1013  0.5342
  347MOL0     C47785   7.972   2.193   0.735 -0.2164 -0.7993 -0.6829
  347MOL0     C47786   8.103   2.143   0.804  0.0188 -0.5440  0.0035
  347MOL0     C47787   8.178   2.249   0.889 -0.0352 -0.2048  0.6856
  347MOL0     C47788   8.297   2.187   0.951  0.0754  0.6764  0.0751
  347MOL0     C47789   8.397   2.287   1.008 -0.2035  1.0843 -0.0665
  347MOL0     C47790   8.483   2.361   0.899  0.7908  0.6736 -0.5888
  347MOL0     C47791   8.620   2.290   0.883 -0.0660 -0.4478 -0.4644
  347MOL0     C47792   8.724   2.398   0.854  0.5821  0.2764 -0.3376
  347MOL0    Cl47793   8.868   2.317   0.790 -0.3059  0.0912  0.1758
  347MOL0     C47794   7.794   2.238   0.507 -0.0926 -0.3502  0.2412
  347MOL0     C47795   7.667   2.276   0.450  0.3258 -0.4521 -0.3914
  347MOL0     O47796   7.431   2.107   0.278  0.6818 -0.1312  0.4125
  347MOL0     C47797   7.245   2.277   0.139 -0.3518  1.5214 -0.1282
  347MOL0     C47798   7.129   2.329   0.084  0.2371 -0.1962 -0.0768
  347MOL0     N47799   6.428   2.176   0.089 -0.2610  0.8406 -0.4391
  347MOL0     N47800   6.366   2.106   0.183  0.1156 -0.6953 -0.0594
  347MOL0     C47801   5.762   1.444   0.873 -0.0817  0.6441 -0.4172
  347MOL0     C47802   5.630   1.409   0.904 -0.1125 -0.6502  0.6813
  347MOL0     C47803   5.246   1.390   1.141  0.7486 -0.0135  0.6926
  347MOL0     C47804   5.173   1.473   1.049 -0.0810  0.3776 -0.3582
  347MOL0     C47805   5.037   1.501   1.080 -0.2445  1.2858  0.5309
  347MOL0     C47806   4.969   1.446   1.187 -0.7425  0.9134 -0.0489
  347MOL0     O47807   4.833   1.471   1.202 -0.1098 -0.0016 -0.0328
  347MOL0     C47808   4.757   1.382   1.294 -0.6483  0.3647  0.3590
  347MOL0     C47809   4.609   1.419   1.287  0.6724  0.1151  0.4541
  347MOL0     C47810   4.524   1.315   1.357 -0.6731 -0.3059  0.4085
  347MOL0     C47811   4.558   1.294   1.509  1.1432  0.9233 -0.4229
  347MOL0     C47812   4.446   1.266   1.605  0.5203  0.2598  0.0093
  347MOL0     C47813   4.338   1.242   1.665  0.3789 -0.8550 -0.2202
  347MOL0     C47814   5.044   1.366   1.277 -0.4979 -0.5307 -0.1137
  347MOL0     C47815   5.180   1.330   1.254 -0.2556  0.8208  0.0352
  347MOL0     C47816   5.240   1.244   1.360 -0.9455 -0.5110  1.1571
  347MOL0     H47817   5.591   1.604   1.179  1.0953 -0.2740  1.3936
  347MOL0     H47818   5.817   1.649   1.145  0.0839  0.1645  0.0792
  347MOL0     H47819   5.931   1.678   0.773 -1.1707 -1.7062 -1.9701
  347MOL0     H47820   5.990   1.514   0.757 -1.2913  0.2621 -0.5806
  347MOL0     H47821   6.152   1.736   0.896 -1.8955  1.0190 -0.4393
  347MOL0     H47822   6.206   1.566   0.854  0.2558  1.1541  1.6969
  347MOL0     H47823   6.106   1.757   0.635  2.7726  3.5002 -0.9873
  347MOL0     H47824   6.260   1.781   0.701  0.5302 -0.6704 -0.1810
  347MOL0     H47825   6.315   1.539   0.662 -0.7875  0.8357  1.2586
  347MOL0     H47826   6.171   1.535   0.546 -2.0045  1.1424  0.4212
  347MOL0     H47827   6.392   1.556   0.438  2.6394 -0.9902  2.3046
  347MOL0     H47828   6.426   1.704   0.527  0.8713 -0.4140 -1.9665
  347MOL0     H47829   6.199   1.658   0.334  2.7260 -0.8775 -1.8892
  347MOL0     H47830   6.217   1.810   0.419  2.7273  2.9459 -0.5386
  347MOL0     H47831   6.297   1.824   0.190  1.0424  1.9328  0.0410
  347MOL0     H47832   6.430   1.708   0.237 -0.3850 -0.8946  1.5274
  347MOL0     H47833   6.379   1.965   0.390 -2.9270 -0.5377 -1.9083
  347MOL0     H47834   6.534   1.879   0.346 -2.1867 -3.3109  1.8374
  347MOL0     H47835   6.636   1.916   0.108 -0.8432 -1.0992 -0.1812
  347MOL0     H47836   6.573   2.206  -0.156  1.6266  0.2931 -0.7288
  347MOL0     H47837   6.639   2.050  -0.139 -0.3663  0.3124  0.1441
  347MOL0     H47838   6.806   2.166   0.059  1.1995 -0.0307 -0.9565
  347MOL0     H47839   6.822   2.173  -0.117 -0.1281 -1.2721 -0.7766
  347MOL0     H47840   6.690   2.400  -0.125  1.3177  0.9512  0.0161
  347MOL0     H47841   6.667   2.401   0.043  0.1526  1.0535 -0.2413
  347MOL0     H47842   6.938   2.402  -0.094 -2.0740 -0.5356 -1.5769
  347MOL0     H47843   6.862   2.544  -0.023  0.1235 -0.1008  1.7265
  347MOL0     H47844   6.937   2.358   0.362  1.1272 -0.2830  2.0899
  347MOL0     H47845   7.210   2.205   0.534  0.2377  0.7207  1.5773
  347MOL0     H47846   7.041   2.250   0.541 -0.3009 -0.2862  0.9459
  347MOL0     H47847   7.175   2.373   0.561  0.2198  0.9023 -1.9014
  347MOL0     H47848   7.476   2.040   0.600  0.4639  0.1993 -1.4457
  347MOL0     H47849   7.680   1.982   0.703  0.3945 -1.1462 -0.6258
  347MOL0     H47850   8.000   2.286   0.686 -0.1108 -0.1579  0.5339
  347MOL0     H47851   7.885   2.223   0.795  0.3861  0.0552 -0.2146
  347MOL0     H47852   8.069   2.071   0.880 -2.1176  2.0784  1.7436
  347MOL0     H47853   8.166   2.097   0.728 -0.9473  1.7223 -2.2890
  347MOL0     H47854   8.112   2.291   0.966 -0.8704  0.1414 -0.1943
  347MOL0     H47855   8.221   2.326   0.825 -0.4404 -2.2047 -2.1820
  347MOL0     H47856   8.349   2.133   0.871  0.8749  2.5630 -0.7343
  347MOL0     H47857   8.265   2.121   1.032 -0.8107 -0.2417 -0.9980
  347MOL0     H47858   8.340   2.364   1.061 -1.1467  0.3509  0.0235
  347MOL0     H47859   8.460   2.234   1.080 -5.0430 -2.1297  2.4034
  347MOL0     H47860   8.505   2.462   0.936 -2.2869  0.8451  1.0875
  347MOL0     H47861   8.422   2.361   0.809 -2.2601 -4.3277  1.0910
  347MOL0     H47862   8.617   2.214   0.804 -1.5884  0.3193 -1.1944
  347MOL0     H47863   8.650   2.230   0.969 -1.3904 -3.1909 -1.8008
  347MOL0     H47864   8.756   2.446   0.947  0.7852 -0.2727 -0.1182
  347MOL0     H47865   8.694   2.473   0.780  2.5552  1.8396  0.3417
  347MOL0     H47866   7.886   2.288   0.481 -0.6257  0.5315  0.0127
  347MOL0     H47867   7.680   2.359   0.382  2.0425  0.2531  0.7323
  347MOL0     H47868   7.324   2.250   0.070 -0.2764 -1.5938  1.0186
  347MOL0     H47869   7.119   2.343  -0.023  1.0843 -1.0234 -0.2753
  347MOL0     H47870   5.804   1.394   0.786 -0.6952  1.0067 -0.9373
  347MOL0     H47871   5.570   1.339   0.848 -1.0631 -1.3655  2.5199
  347MOL0     H47872   5.221   1.520   0.963  1.1146  1.6548  0.9613
  347MOL0     H47873   4.995   1.568   1.006  0.0971 -0.3049 -1.1770
  347MOL0     H47874   4.785   1.277   1.280 -1.5903 -0.1339  1.9015
  347MOL0     H47875   4.794   1.405   1.395 -0.9891  3.8623 -0.1736
  347MOL0     H47876   4.571   1.444   1.187 -0.5244 -0.8619  0.6447
  347MOL0     H47877   4.605   1.511   1.346  1.2463  1.1593 -1.0683
  347MOL0     H47878   4.420   1.349   1.354 -0.8770 -0.9486 -0.0644
  347MOL0     H47879   4.547   1.228   1.295  1.1802 -2.0197  3.2760
  347MOL0     H47880   4.617   1.379   1.544  1.4409  0.3384  0.5322
  347MOL0     H47881   4.635   1.217   1.521  0.5590  0.4670  0.4887
  347MOL0     H47882   4.255   1.232   1.732  0.6825  0.5698  0.4176
  347MOL0     H47883   4.992   1.308   1.352 -2.0800 -0.1395 -0.8725
  347MOL0     H47884   5.228   1.139   1.333 -1.3624 -0.2034  0.0849
  347MOL0     H47885   5.349   1.257   1.362 -0.9788 -0.1708  0.8517
  347MOL0     H47886   5.200   1.255   1.461 -2.5306 -4.0904  1.0832
  348MOL0     O47887   7.995   5.400   8.322 -0.7826  0.3784  0.7839
  348MOL0     C47888   7.947   5.406   8.212  0.9163  0.7409 -0.1027
  348MOL0     O47889   7.998   5.461   8.104 -0.9967 -0.2180  0.0031
  348MOL0     C47890   8.105   5.553   8.116 -0.9410 -0.1104 -0.3248
  348MOL0     C47891   8.232   5.537   8.043 -0.1494 -0.3353 -0.3926
  348MOL0     C47892   8.331   5.636   8.043 -0.2471 -0.0152 -0.9716
  348MOL0     C47893   8.328   5.735   8.149  0.0203  0.3749 -0.2762
  348MOL0     O47894   8.434   5.817   8.174  0.1146 -0.1365  0.2051
  348MOL0     C47895   8.543   5.805   8.083 -0.6652  0.2121 -0.1217
  348MOL0     C47896   8.668   5.874   8.127  0.1776 -1.3014 -0.1226
  348MOL0     C47897   8.673   6.027   8.100  0.6041  0.3137 -0.7874
  348MOL0     C47898   8.813   6.076   8.136 -1.1754  0.2826 -0.3249
  348MOL0     C47899   8.810   6.230   8.143 -0.8660 -0.2452 -0.0272
  348MOL0     C47900   8.946   6.286   8.168 -0.4107 -0.5211  0.3661
  348MOL0     C47901   9.044   6.272   8.050  0.8537 -0.3731  1.0540
  348MOL0     C47902   9.182   6.341   8.061  0.1236 -0.3203  0.0066
  348MOL0     N47903   9.177   6.491   8.094  0.0416  0.2320  0.1595
  348MOL0     C47904   9.239   6.557   8.198  0.2624 -0.2310 -0.9592
  348MOL0     C47905   9.207   6.686   8.188  0.3543  0.2733 -0.1291
  348MOL0     C47906   9.228   6.790   8.291  0.6655  0.0469  0.8963
  348MOL0     C47907   9.273   6.926   8.227 -0.3092  0.6312  0.1026
  348MOL0     C47908   9.333   7.029   8.325  0.8690 -0.4153  0.7959
  348MOL0     C47909   9.398   7.148   8.267 -0.5573 -0.0766 -0.1728
  348MOL0     O47910   9.510   7.095   8.191 -0.8470 -0.1854  0.4403
  348MOL0     C47911   9.609   7.180   8.148 -0.1938 -0.3579  0.9126
  348MOL0     C47912   9.587   7.312   8.135 -0.1873  0.3391 -0.4071
  348MOL0     C47913   9.691   7.399   8.090  0.3303  0.3852 -0.7825
  348MOL0     C47914   9.648   7.543   8.060 -0.4053  0.0364  0.7527
  348MOL0     C47915   9.815   7.348   8.048  0.6121 -0.4387 -0.7765
  348MOL0     C47916   9.935   7.438   8.011  0.8393 -0.5000 -0.9635
  348MOL0     O47917   9.944   7.558   8.071 -0.8090 -0.4634  0.0122
  348MOL0     C47918  10.042   7.647   8.023  1.2362 -0.0351  0.3858
  348MOL0     C47919  10.156   7.688   8.097  0.6903  0.5145  0.4452
  348MOL0     C47920  10.261   7.772   8.036  0.5338  0.1426  0.0569
  348MOL0     C47921  10.245   7.810   7.903  0.1957 -0.0434  0.1872
  348MOL0     O47922  10.362   7.855   7.851 -0.3631 -1.5056  0.5632
  348MOL0     C47923  10.341   7.958   7.758 -0.7353 -0.5737 -0.1513
  348MOL0     C47924  10.466   8.050   7.760  0.4102 -0.4197 -0.0641
  348MOL0     C47925  10.486   8.113   7.899  0.6783  0.8607  0.3118
  348MOL0     C47926  10.610   8.196   7.897 -0.9082 -1.2679 -0.0214
  348MOL0     C47927  10.698   8.197   8.025 -0.5217  0.1518  0.1412
  348MOL0     C47928  10.616   8.215   8.152 -0.1936  0.6399  1.0258
  348MOL0     C47929  10.690   8.167   8.274 -0.8185  0.2838  0.0940
  348MOL0     C47930  10.598   8.165   8.392  0.7174  0.0627  0.4126
  348MOL0    Cl47931  10.683   8.101   8.540  0.3339  0.1970  0.3892
  348MOL0     C47932  10.124   7.778   7.835 -0.7424  0.5294 -0.0777
  348MOL0     C47933  10.022   7.701   7.895  0.2213  0.9236 -0.8002
  348MOL0     O47934  10.007   7.392   7.930 -0.0143 -0.0183 -0.1463
  348MOL0     C47935   9.836   7.212   8.065 -0.5667 -1.0091 -0.6128
  348MOL0     C47936   9.741   7.129   8.116  0.0992  0.1355 -1.1948
  348MOL0     N47937   9.130   6.702   8.067 -0.2346 -0.2264  0.0011
  348MOL0     N47938   9.114   6.583   8.014 -0.2920  1.3030  0.4875
  348MOL0     C47939   8.210   5.742   8.223  0.1713 -0.7238 -0.4684
  348MOL0     C47940   8.099   5.664   8.203  0.4847 -0.4127 -0.3026
  348MOL0     C47941   7.817   5.330   8.210 -0.1853  0.1082  0.9962
  348MOL0     C47942   7.819   5.202   8.152 -0.3414  1.1040 -1.0581
  348MOL0     C47943   7.703   5.119   8.154 -0.7407  0.4942  0.3868
  348MOL0     C47944   7.579   5.172   8.194 -0.2412 -0.0674  0.3475
  348MOL0     O47945   7.471   5.094   8.167  0.6397 -0.2398 -0.5330
  348MOL0     C47946   7.367   5.109   8.259 -0.0492 -0.8116 -0.5574
  348MOL0     C47947   7.246   5.023   8.230  0.1688  0.3788 -0.2780
  348MOL0     C47948   7.291   4.874   8.236 -0.4669  0.0255 -0.4612
  348MOL0     C47949   7.166   4.787   8.227 -0.2209  0.2065 -0.6070
  348MOL0     C47950   7.071   4.795   8.331 -0.5209  0.5400 -0.3104
  348MOL0     C47951   6.986   4.798   8.420  0.2418  0.6298  0.6524
  348MOL0     C47952   7.582   5.302   8.252  0.5748 -0.2966  0.7308
  348MOL0     C47953   7.699   5.377   8.269 -0.7980  0.3975 -0.5795
  348MOL0     C47954   7.693   5.513   8.346 -0.4236  0.5909  0.5397
  348MOL0     H47955   8.251   5.453   7.977  2.1771  0.6662 -1.0855
  348MOL0     H47956   8.412   5.612   7.975  0.6412 -0.1497  0.1101
  348MOL0     H47957   8.506   5.844   7.988 -5.1541 -0.2924  1.1714
  348MOL0     H47958   8.574   5.702   8.068 -2.4610 -0.2143 -1.2485
  348MOL0     H47959   8.678   5.853   8.234 -0.5708  1.3075  0.5503
  348MOL0     H47960   8.754   5.825   8.081  1.5971  1.2708 -0.3658
  348MOL0     H47961   8.644   6.046   7.996 -1.2835 -1.4983 -0.6563
  348MOL0     H47962   8.587   6.062   8.157 -0.6816 -2.5021 -0.8554
  348MOL0     H47963   8.857   6.047   8.232  1.3439 -0.4453 -1.6076
  348MOL0     H47964   8.876   6.045   8.052 -2.8292 -2.0258 -0.7967
  348MOL0     H47965   8.751   6.264   8.229  3.8535 -0.2909  3.6278
  348MOL0     H47966   8.769   6.259   8.046  2.1410 -0.6463 -1.5254
  348MOL0     H47967   8.936   6.394   8.173 -0.0363 -0.3553 -1.7838
  348MOL0     H47968   8.989   6.245   8.260  0.3874  3.6104  2.0490
  348MOL0     H47969   8.990   6.318   7.967 -1.5126 -4.2483  0.2235
  348MOL0     H47970   9.065   6.166   8.038 -0.5872 -0.9447  3.0172
  348MOL0     H47971   9.239   6.295   8.143 -0.6305 -1.5309 -0.1178
  348MOL0     H47972   9.224   6.326   7.962  0.0860 -1.9275  0.2147
  348MOL0     H47973   9.279   6.501   8.282  0.2966  0.7837 -0.2791
  348MOL0     H47974   9.314   6.761   8.352  1.0578  1.1827  0.9117
  348MOL0     H47975   9.138   6.798   8.352 -0.3530 -0.9101 -0.4396
  348MOL0     H47976   9.340   6.903   8.143 -2.2840  3.4127 -2.4688
  348MOL0     H47977   9.188   6.978   8.182 -0.6400 -0.4051 -0.4994
  348MOL0     H47978   9.254   7.065   8.392  2.1506 -0.9256  2.6296
  348MOL0     H47979   9.401   6.982   8.396 -2.1338 -0.1128  4.1608
  348MOL0     H47980   9.323   7.184   8.196 -1.6529 -1.4365  0.2487
  348MOL0     H47981   9.419   7.228   8.339 -3.6611  3.6059 -2.9467
  348MOL0     H47982   9.485   7.347   8.146 -0.6164 -0.1515 -2.4346
  348MOL0     H47983   9.679   7.553   7.956  1.8782 -0.3793  1.3155
  348MOL0     H47984   9.705   7.616   8.119 -0.9443 -0.6681  2.1907
  348MOL0     H47985   9.540   7.558   8.062 -0.5824 -0.7658 -0.8852
  348MOL0     H47986  10.170   7.638   8.192 -1.0142 -0.4067  0.2617
  348MOL0     H47987  10.349   7.776   8.099  0.3704  0.3353  0.2779
  348MOL0     H47988  10.329   7.913   7.659  1.0123  0.9151 -1.0967
  348MOL0     H47989  10.248   8.012   7.776  0.6596  1.8857  0.0890
  348MOL0     H47990  10.554   8.005   7.711 -0.3519 -0.0992 -1.8049
  348MOL0     H47991  10.445   8.141   7.703  0.1225  0.2782  1.1300
  348MOL0     H47992  10.487   8.029   7.970  0.5044 -0.7135 -1.4534
  348MOL0     H47993  10.405   8.179   7.932  2.1730  2.5450  0.7209
  348MOL0     H47994  10.582   8.301   7.890  1.4209 -0.5814  0.3091
  348MOL0     H47995  10.670   8.160   7.813 -1.2720 -0.8330 -0.4785
  348MOL0     H47996  10.753   8.102   8.023  2.0204  1.5553 -0.6851
  348MOL0     H47997  10.780   8.269   8.021  0.2199 -0.7259 -1.0587
  348MOL0     H47998  10.518   8.168   8.139 -0.5326  0.3374  4.1386
  348MOL0     H47999  10.604   8.324   8.151 -1.1738  0.5412  1.0792
  348MOL0     H48000  10.783   8.220   8.297 -1.0389  0.3877  0.7672
  348MOL0     H48001  10.713   8.063   8.249  1.7927  0.5010  1.1850
  348MOL0     H48002  10.508   8.105   8.377  0.9747 -0.2780  0.1906
  348MOL0     H48003  10.569   8.268   8.416  1.7748  0.0368  1.9472
  348MOL0     H48004  10.121   7.796   7.728  0.9794 -0.1063 -0.2611
  348MOL0     H48005   9.941   7.674   7.829  1.6301 -2.0088 -1.5067
  348MOL0     H48006   9.937   7.182   8.042  1.2719  3.4372  0.5280
  348MOL0     H48007   9.756   7.023   8.128 -2.6489 -0.2501 -0.5235
  348MOL0     H48008   8.211   5.815   8.304  1.8003  2.4387 -3.1118
  348MOL0     H48009   8.014   5.686   8.267  1.8200 -0.2316  1.4767
  348MOL0     H48010   7.908   5.165   8.101 -1.3433 -4.2367  0.3663
  348MOL0     H48011   7.685   5.016   8.125 -2.8055  0.6702  0.8938
  348MOL0     H48012   7.403   5.086   8.360  1.0033 -1.1211 -0.9870
  348MOL0     H48013   7.334   5.213   8.261  1.3493 -0.3377 -0.9115
  348MOL0     H48014   7.199   5.040   8.133 -0.3947  1.1625  0.1193
  348MOL0     H48015   7.166   5.040   8.303  0.6958 -0.1186  0.4420
  348MOL0     H48016   7.358   4.854   8.153 -0.0247 -2.0323  0.3393
  348MOL0     H48017   7.346   4.858   8.329  1.8110  1.1391 -1.5483
  348MOL0     H48018   7.208   4.686   8.227 -0.2628  0.1709 -2.1571
  348MOL0     H48019   7.124   4.800   8.127  0.0342  0.5433 -0.6695
  348MOL0     H48020   6.902   4.802   8.487 -1.2533  0.1364 -1.0846
  348MOL0     H48021   7.492   5.343   8.297  0.1038  0.4794 -0.8494
  348MOL0     H48022   7.642   5.580   8.276 -0.5127 -0.2718 -0.2307
  348MOL0     H48023   7.637   5.495   8.438 -1.1756 -2.1023 -0.3483
  348MOL0     H48024   7.791   5.561   8.356 -0.6444  2.1777 -3.2651
  349MOL0     O48025   7.487   3.264   9.915  0.2088  0.8411  0.0185
  349MOL0     C48026   7.565   3.298  10.003 -0.1634  0.0742 -0.4347
  349MOL0     O48027   7.657   3.385   9.990 -0.7995  0.6315 -0.7496
  349MOL0     C48028   7.693   3.428   9.862  0.4477 -0.2079 -0.3826
  349MOL0     C48029   7.745   3.343   9.765 -0.4622  0.2240  1.1027
  349MOL0     C48030   7.785   3.401   9.635  0.2102  0.3297  0.0547
  349MOL0     C48031   7.788   3.543   9.617  0.3954 -0.0344  0.1066
  349MOL0     O48032   7.822   3.602   9.495 -0.0683 -0.0728  0.5815
  349MOL0     C48033   7.773   3.728   9.469  0.0675  0.3443  0.0367
  349MOL0     C48034   7.781   3.764   9.320 -0.6086 -0.4624 -0.2330
  349MOL0     C48035   7.922   3.751   9.265 -0.0990  0.3269  0.8502
  349MOL0     C48036   7.928   3.803   9.128  0.7340 -0.2268  0.0293
  349MOL0     C48037   8.069   3.777   9.064  0.7107  0.8050 -0.4634
  349MOL0     C48038   8.103   3.896   8.982  0.3203 -0.1270 -0.4291
  349MOL0     C48039   8.229   3.871   8.915  0.0326 -0.9698 -0.1099
  349MOL0     C48040   8.274   3.995   8.848 -0.0865  0.0222  0.6100
  349MOL0     N48041   8.410   3.968   8.807  0.8082  0.4496  0.1670
  349MOL0     C48042   8.529   3.983   8.880  0.5982  0.3207 -0.0709
  349MOL0     C48043   8.626   3.943   8.798  0.3154 -0.7761 -0.1624
  349MOL0     C48044   8.771   3.938   8.826 -0.1696 -0.1249  0.3118
  349MOL0     C48045   8.810   3.785   8.816 -0.2031  0.6127  0.3791
  349MOL0     C48046   8.962   3.774   8.782 -0.2081 -0.0265  0.0179
  349MOL0     C48047   9.007   3.629   8.781  0.5716 -0.0346 -0.5439
  349MOL0     O48048   9.147   3.609   8.760  0.0993 -0.6944 -0.4239
  349MOL0     C48049   9.218   3.671   8.662  0.3877  0.6401 -1.2622
  349MOL0     C48050   9.357   3.667   8.667  0.1739  0.3328  0.9583
  349MOL0     C48051   9.442   3.696   8.555 -0.0367 -0.5937  0.2386
  349MOL0     C48052   9.585   3.690   8.579 -0.6494  0.1332  0.3484
  349MOL0     C48053   9.392   3.744   8.434 -0.6003  0.7174 -0.1786
  349MOL0     C48054   9.464   3.791   8.315  0.8436 -0.4572 -0.0285
  349MOL0     O48055   9.400   3.772   8.199 -0.2497 -0.4675  0.4349
  349MOL0     C48056   9.441   3.858   8.097  0.1540  0.4691  0.3591
  349MOL0     C48057   9.500   3.808   7.983 -0.0839 -0.0427  0.0666
  349MOL0     C48058   9.531   3.893   7.882  0.0651 -0.6626 -0.0891
  349MOL0     C48059   9.522   4.036   7.887  0.4663 -0.5652 -0.2043
  349MOL0     O48060   9.569   4.102   7.775  0.1341 -0.1327  0.2770
  349MOL0     C48061   9.529   4.235   7.746  0.3821 -0.3229 -0.3357
  349MOL0     C48062   9.383   4.256   7.690  0.1140  0.5182  0.5254
  349MOL0     C48063   9.379   4.303   7.538 -1.0267 -0.7205 -0.6395
  349MOL0     C48064   9.336   4.450   7.509 -0.2738  0.2945 -0.2668
  349MOL0     C48065   9.383   4.478   7.365  1.2553 -0.0090 -0.5114
  349MOL0     C48066   9.323   4.615   7.325  0.5945  0.1408 -0.9694
  349MOL0     C48067   9.347   4.651   7.182 -0.1522 -1.0026  0.6193
  349MOL0     C48068   9.313   4.798   7.150 -0.2734  0.6701  0.2294
  349MOL0    Cl48069   9.138   4.792   7.104  0.5658  0.2564  0.0835
  349MOL0     C48070   9.462   4.082   8.003 -0.7600 -0.6277  0.0604
  349MOL0     C48071   9.420   3.992   8.102 -0.8433  0.0905 -0.1359
  349MOL0     O48072   9.566   3.855   8.331 -0.1089  0.4926  0.1006
  349MOL0     C48073   9.246   3.739   8.422  0.6503  0.4514  0.0710
  349MOL0     C48074   9.169   3.692   8.535  0.5617  0.9499  1.1471
  349MOL0     N48075   8.565   3.919   8.674 -0.5913  0.5370  0.6186
  349MOL0     N48076   8.437   3.926   8.679  0.8853  1.2714  0.4644
  349MOL0     C48077   7.742   3.625   9.723  0.1687  0.0352 -0.3800
  349MOL0     C48078   7.687   3.563   9.829  0.9425  0.2188 -0.2518
  349MOL0     C48079   7.564   3.233  10.138  1.0036  0.2196 -0.1234
  349MOL0     C48080   7.598   3.310  10.252 -0.8704  0.4504  0.1310
  349MOL0     C48081   7.594   3.251  10.381 -0.0038  0.2820 -1.4488
  349MOL0     C48082   7.540   3.124  10.404  0.1985 -0.0911  0.2603
  349MOL0     O48083   7.528   3.071  10.527  0.1937  0.9718 -0.6882
  349MOL0     C48084   7.646   3.100  10.615  0.3021 -0.2454  0.8566
  349MOL0     C48085   7.623   3.033  10.750  1.0231  0.3347 -0.5765
  349MOL0     C48086   7.617   2.879  10.754 -0.6336  0.6209  0.4039
  349MOL0     C48087   7.575   2.825  10.893 -0.0767 -0.4339 -0.3782
  349MOL0     C48088   7.627   2.695  10.928 -0.1907 -0.2131  0.1682
  349MOL0     C48089   7.690   2.591  10.943  0.3237  0.4714  1.5021
  349MOL0     C48090   7.507   3.052  10.292  1.0065 -0.2789 -0.2865
  349MOL0     C48091   7.512   3.103  10.164 -0.5544  0.1092 -0.2630
  349MOL0     C48092   7.464   3.007  10.058 -0.4296  0.2377  0.5521
  349MOL0     H48093   7.764   3.238   9.787 -0.8821 -0.0329  0.2613
  349MOL0     H48094   7.809   3.337   9.551  1.2416  0.5011  0.2050
  349MOL0     H48095   7.821   3.795   9.541  0.0191  0.3211  0.0905
  349MOL0     H48096   7.665   3.715   9.483  0.0759  0.4099  0.1640
  349MOL0     H48097   7.726   3.688   9.264  1.1695 -0.6595 -1.8130
  349MOL0     H48098   7.750   3.867   9.303  0.7475 -0.1718 -1.1139
  349MOL0     H48099   7.984   3.814   9.330 -1.4737  1.0157  1.5118
  349MOL0     H48100   7.968   3.652   9.271  1.4894  0.9303 -0.4490
  349MOL0     H48101   7.857   3.743   9.070  1.2579 -1.7038  0.8672
  349MOL0     H48102   7.894   3.907   9.117 -0.8726 -0.7713 -0.3240
  349MOL0     H48103   8.063   3.686   9.004 -1.6716  0.0159  0.8600
  349MOL0     H48104   8.149   3.756   9.135  2.2858  0.3136 -2.2797
  349MOL0     H48105   8.024   3.912   8.908 -0.7846 -3.1569 -0.0201
  349MOL0     H48106   8.113   3.978   9.054  0.6075 -1.0831  0.6449
  349MOL0     H48107   8.223   3.794   8.837 -3.7922 -2.5654  1.4572
  349MOL0     H48108   8.296   3.856   9.000  0.5571 -1.0203 -0.5333
  349MOL0     H48109   8.209   4.013   8.761  0.4210 -2.3861 -0.3301
  349MOL0     H48110   8.269   4.075   8.923  0.2636  0.9974 -0.3779
  349MOL0     H48111   8.533   3.997   8.988  3.6706 -1.1009  0.0936
  349MOL0     H48112   8.809   3.990   8.915 -0.8764  2.3640 -0.7591
  349MOL0     H48113   8.805   3.996   8.740  0.5079  1.1657  1.4036
  349MOL0     H48114   8.795   3.733   8.911 -0.0602  1.3845  0.8315
  349MOL0     H48115   8.745   3.735   8.744 -3.0997  0.3492  2.9343
  349MOL0     H48116   8.981   3.831   8.691  1.1396 -0.7547 -0.1817
  349MOL0     H48117   9.017   3.822   8.863  0.2468 -0.2079 -0.1816
  349MOL0     H48118   8.962   3.567   8.860 -1.0780 -0.7927 -2.0238
  349MOL0     H48119   8.962   3.581   8.694  1.3914 -1.3108 -0.2920
  349MOL0     H48120   9.389   3.627   8.762 -0.3682 -3.0654 -0.1461
  349MOL0     H48121   9.621   3.629   8.496 -4.9079 -1.4028 -0.6604
  349MOL0     H48122   9.595   3.647   8.679  0.0787  4.2675  2.2642
  349MOL0     H48123   9.629   3.790   8.582  3.3955 -1.4874  1.4414
  349MOL0     H48124   9.507   3.700   7.976 -3.9696 -0.3449 -1.9166
  349MOL0     H48125   9.580   3.853   7.794  0.5387 -2.3531  0.8970
  349MOL0     H48126   9.517   4.311   7.824  0.0226 -0.0206 -0.6837
  349MOL0     H48127   9.609   4.280   7.687 -0.3906  0.8486 -0.5264
  349MOL0     H48128   9.325   4.164   7.697  1.0295 -0.1286 -0.0631
  349MOL0     H48129   9.321   4.321   7.751  0.7120  1.7098 -0.1005
  349MOL0     H48130   9.308   4.239   7.484 -3.8550 -1.0376  3.0139
  349MOL0     H48131   9.484   4.287   7.512  0.1537  5.0894 -0.7987
  349MOL0     H48132   9.388   4.516   7.579 -0.1475 -0.5255  0.4312
  349MOL0     H48133   9.227   4.452   7.517 -0.2975  2.4064 -0.3667
  349MOL0     H48134   9.490   4.498   7.369  0.8547  2.3159 -0.1079
  349MOL0     H48135   9.352   4.395   7.300 -0.8241  1.2695 -1.2544
  349MOL0     H48136   9.354   4.692   7.395 -0.8623 -1.6028  1.7507
  349MOL0     H48137   9.214   4.610   7.338  0.4457  1.7952 -1.3846
  349MOL0     H48138   9.304   4.575   7.117  1.6953 -0.4047 -1.4469
  349MOL0     H48139   9.456   4.646   7.171 -0.3012 -2.4015 -0.6224
  349MOL0     H48140   9.379   4.834   7.071  0.3470 -0.4604  0.2121
  349MOL0     H48141   9.327   4.876   7.227 -1.3305 -0.4026  1.5627
  349MOL0     H48142   9.446   4.188   8.019 -1.2752 -1.0110  2.6633
  349MOL0     H48143   9.359   4.033   8.182 -0.4980 -0.2594  0.3120
  349MOL0     H48144   9.181   3.775   8.343 -1.3690  2.4204  2.4768
  349MOL0     H48145   9.062   3.694   8.522  0.6089  2.2712  0.8159
  349MOL0     H48146   7.749   3.733   9.718  1.3384 -0.0760 -1.6863
  349MOL0     H48147   7.645   3.632   9.902  1.7534 -0.9480  1.3750
  349MOL0     H48148   7.642   3.408  10.241  0.0592  0.0452  0.1687
  349MOL0     H48149   7.628   3.307  10.467  0.6965  0.8782 -2.0908
  349MOL0     H48150   7.740   3.059  10.577  1.0399  0.2114  2.1171
  349MOL0     H48151   7.653   3.207  10.636  1.0105 -0.4182  1.5813
  349MOL0     H48152   7.529   3.072  10.791 -0.3129 -1.7764 -1.4939
  349MOL0     H48153   7.698   3.074  10.818 -0.2198  5.4018 -1.8536
  349MOL0     H48154   7.544   2.848  10.679  1.4276  0.7764 -1.8226
  349MOL0     H48155   7.718   2.849  10.722 -0.5822  1.9892 -0.8054
  349MOL0     H48156   7.466   2.822  10.891 -0.0658 -0.6026 -1.0768
  349MOL0     H48157   7.624   2.887  10.969 -1.3839  0.1474  0.0060
  349MOL0     H48158   7.735   2.498  10.972  0.1636 -0.0600  0.0878
  349MOL0     H48159   7.478   2.949  10.311 -0.5613  0.1009 -0.4905
  349MOL0     H48160   7.432   2.913  10.103  1.6293 -0.6313  0.2985
  349MOL0     H48161   7.372   3.039  10.007  1.2845  0.3622 -2.7142
  349MOL0     H48162   7.539   2.994   9.980 -1.1155  0.2345 -0.1232
  350MOL0     O48163   3.331   0.802   0.608  0.2143 -0.6594 -0.1687
  350MOL0     C48164   3.382   0.786   0.718  0.8223 -0.2982  0.6869
  350MOL0     O48165   3.309   0.745   0.830 -0.0920 -0.6797  0.1365
  350MOL0     C48166   3.184   0.694   0.798  0.4415 -0.4041 -0.1986
  350MOL0     C48167   3.153   0.554   0.785  0.7810  0.7143  0.4342
  350MOL0     C48168   3.029   0.505   0.736 -0.0282  0.2842  0.0536
  350MOL0     C48169   2.925   0.601   0.718  0.5173  0.2876 -0.4645
  350MOL0     O48170   2.807   0.555   0.658  0.1921 -0.6800 -0.6747
  350MOL0     C48171   2.680   0.623   0.700 -0.0359  1.1350 -0.2882
  350MOL0     C48172   2.649   0.717   0.582 -0.1493  0.4386  0.0134
  350MOL0     C48173   2.509   0.787   0.602  0.8971 -0.1109  0.3377
  350MOL0     C48174   2.473   0.859   0.470  0.2900  0.1241  0.4936
  350MOL0     C48175   2.356   0.960   0.485  0.2125 -0.2811  0.7222
  350MOL0     C48176   2.344   1.023   0.348 -0.1762 -0.3988 -0.6194
  350MOL0     C48177   2.202   1.074   0.325  1.3338 -0.1310 -0.3000
  350MOL0     C48178   2.183   1.140   0.192  0.0501 -0.8010  0.3594
  350MOL0     N48179   2.269   1.261   0.189  0.8484 -0.0015  0.3696
  350MOL0     C48180   2.352   1.296   0.083 -0.1503 -0.5229  0.2082
  350MOL0     C48181   2.391   1.427   0.101  1.0433  0.5791 -1.4153
  350MOL0     C48182   2.501   1.506   0.027  0.6687  1.1958 -0.0598
  350MOL0     C48183   2.479   1.516  -0.127  0.6313  0.8170 -0.6312
  350MOL0     C48184   2.573   1.615  -0.192 -0.5586  0.4697 -0.3906
  350MOL0     C48185   2.697   1.539  -0.248 -0.3447 -0.6470  0.2261
  350MOL0     O48186   2.649   1.433  -0.339 -0.6063 -0.2838  0.2661
  350MOL0     C48187   2.593   1.475  -0.453  0.4447  0.5352  0.2500
  350MOL0     C48188   2.446   1.484  -0.463 -0.7786  0.6045 -0.2662
  350MOL0     C48189   2.379   1.509  -0.582 -0.4622 -0.4367 -0.5041
  350MOL0     C48190   2.235   1.512  -0.589 -0.7795 -0.8472 -0.1628
  350MOL0     C48191   2.453   1.529  -0.696  1.2552 -0.5825 -0.9301
  350MOL0     C48192   2.400   1.572  -0.824  0.2320 -0.6225  0.4108
  350MOL0     O48193   2.295   1.500  -0.871  0.1865 -0.2492 -0.0449
  350MOL0     C48194   2.206   1.550  -0.964 -0.1688  0.4039  1.0768
  350MOL0     C48195   2.110   1.458  -1.016  0.1541 -0.2261  0.3328
  350MOL0     C48196   1.999   1.513  -1.096  0.0513 -0.3292  0.1501
  350MOL0     C48197   1.990   1.654  -1.119  0.6750 -0.3243  0.2585
  350MOL0     O48198   1.884   1.690  -1.203  0.0847  0.1071  0.4369
  350MOL0     C48199   1.863   1.832  -1.226 -0.7432  0.0115  1.0005
  350MOL0     C48200   1.737   1.838  -1.316 -0.8615 -0.1795 -0.4669
  350MOL0     C48201   1.718   1.985  -1.368  0.3756 -0.8178 -0.9437
  350MOL0     C48202   1.709   2.105  -1.274  0.0461  0.1469  0.3731
  350MOL0     C48203   1.721   2.231  -1.352  0.2337  0.0616 -0.4425
  350MOL0     C48204   1.710   2.351  -1.258  0.0161  0.6738  0.3252
  350MOL0     C48205   1.696   2.478  -1.337  0.4416 -0.3846 -0.2095
  350MOL0     C48206   1.563   2.544  -1.342  0.0566 -0.7598  0.6266
  350MOL0    Cl48207   1.447   2.423  -1.394  0.2531  0.2616 -0.0397
  350MOL0     C48208   2.085   1.736  -1.065 -0.1211 -0.1300  0.7994
  350MOL0     C48209   2.188   1.685  -0.992  0.1674  0.8758 -0.4458
  350MOL0     O48210   2.466   1.652  -0.894  0.8586 -0.9294  0.0901
  350MOL0     C48211   2.591   1.510  -0.693  0.3939  1.1878  0.5491
  350MOL0     C48212   2.657   1.480  -0.573  0.3271 -0.3611 -0.2349
  350MOL0     N48213   2.320   1.459   0.216  0.5296 -0.1656 -0.1606
  350MOL0     N48214   2.251   1.365   0.271  0.8270 -0.2459  0.6053
  350MOL0     C48215   2.950   0.743   0.739 -0.4046  0.8575  0.4733
  350MOL0     C48216   3.078   0.779   0.784 -0.5025 -0.4810  0.3255
  350MOL0     C48217   3.523   0.798   0.732 -1.0254 -0.9273 -0.8995
  350MOL0     C48218   3.584   0.756   0.854  0.5493 -0.6089  1.3534
  350MOL0     C48219   3.721   0.749   0.876 -0.2294 -0.4852 -0.4751
  350MOL0     C48220   3.813   0.788   0.777  0.4351  0.3098 -0.4685
  350MOL0     O48221   3.948   0.781   0.795 -0.1318 -0.8851 -0.0618
  350MOL0     C48222   4.032   0.726   0.700 -0.1136  0.3429 -0.4155
  350MOL0     C48223   4.170   0.731   0.753 -0.6476 -0.1529  0.6586
  350MOL0     C48224   4.278   0.684   0.657 -0.1592  0.1222  0.4241
  350MOL0     C48225   4.415   0.695   0.725 -0.1634  0.5984 -0.2085
  350MOL0     C48226   4.519   0.639   0.649 -0.1978 -0.3161  0.0053
  350MOL0     C48227   4.603   0.589   0.574 -0.6269  1.1888  0.2918
  350MOL0     C48228   3.754   0.837   0.655  0.7064  1.0733 -0.5239
  350MOL0     C48229   3.619   0.841   0.635  0.0151  0.0187  0.0385
  350MOL0     C48230   3.579   0.891   0.495 -0.6266 -0.4694 -0.7114
  350MOL0     H48231   3.229   0.478   0.797  0.4008  0.2408 -0.0895
  350MOL0     H48232   3.005   0.406   0.698  1.0086 -0.0192  0.1730
  350MOL0     H48233   2.706   0.682   0.788  0.1040 -0.9117  1.1237
  350MOL0     H48234   2.605   0.546   0.723  0.2429  0.6600 -0.9251
  350MOL0     H48235   2.718   0.802   0.584 -1.5712  1.7755  4.2395
  350MOL0     H48236   2.644   0.654   0.492  0.1159  1.3848 -0.6773
  350MOL0     H48237   2.424   0.723   0.627 -0.5309  2.4007  2.2919
  350MOL0     H48238   2.519   0.864   0.679  0.3889  1.5527 -1.1769
  350MOL0     H48239   2.563   0.912   0.440  1.5508 -1.1356  1.8743
  350MOL0     H48240   2.444   0.784   0.395 -0.1142  0.6326  0.1375
  350MOL0     H48241   2.368   1.032   0.567 -1.2469 -1.6021  2.1501
  350MOL0     H48242   2.267   0.904   0.511 -1.6435  1.9072 -0.5007
  350MOL0     H48243   2.417   1.103   0.333 -1.7431  2.0601  3.3047
  350MOL0     H48244   2.352   0.947   0.270  2.6597  0.5716 -1.3899
  350MOL0     H48245   2.165   1.148   0.397 -0.9909  0.1698 -1.7107
  350MOL0     H48246   2.138   0.986   0.327 -0.1911  0.9453  0.2705
  350MOL0     H48247   2.210   1.074   0.109  0.0006  0.5736 -0.7859
  350MOL0     H48248   2.080   1.168   0.165  1.6962  1.9768 -4.1013
  350MOL0     H48249   2.372   1.227   0.002  0.3929 -1.0573  0.7858
  350MOL0     H48250   2.600   1.466   0.051  0.1211 -1.0349 -1.2448
  350MOL0     H48251   2.498   1.608   0.067 -2.0877  1.0676  0.2779
  350MOL0     H48252   2.504   1.415  -0.160  4.1421 -0.3865  4.4853
  350MOL0     H48253   2.376   1.541  -0.155  0.0302 -0.3827  0.3864
  350MOL0     H48254   2.532   1.667  -0.279  1.3306  1.5297 -0.7057
  350MOL0     H48255   2.604   1.690  -0.119 -1.2665 -1.5958  2.1804
  350MOL0     H48256   2.757   1.609  -0.307 -1.6880  0.8379  0.5666
  350MOL0     H48257   2.746   1.487  -0.166 -3.2101 -1.8307  1.3119
  350MOL0     H48258   2.388   1.459  -0.374 -0.4646  2.5493  0.5384
  350MOL0     H48259   2.211   1.455  -0.679  1.3101 -0.0371 -1.2906
  350MOL0     H48260   2.193   1.613  -0.586 -3.3866 -1.7139 -2.6661
  350MOL0     H48261   2.190   1.465  -0.500  0.6913  0.0795  1.1128
  350MOL0     H48262   2.114   1.351  -0.993  3.6150 -0.3619 -0.4364
  350MOL0     H48263   1.923   1.457  -1.150 -3.0079  1.8722  1.8772
  350MOL0     H48264   1.848   1.896  -1.139 -3.3296  1.3278 -0.3066
  350MOL0     H48265   1.931   1.878  -1.298 -3.5387 -0.8834 -2.4975
  350MOL0     H48266   1.753   1.767  -1.398  0.7988  1.5799 -1.7311
  350MOL0     H48267   1.641   1.826  -1.264 -2.1587  0.3255 -2.6280
  350MOL0     H48268   1.629   1.986  -1.430  0.6265  1.5965 -1.3607
  350MOL0     H48269   1.798   1.986  -1.442  0.3818  1.1284 -0.9605
  350MOL0     H48270   1.791   2.109  -1.202 -3.3919  2.7547  4.6460
  350MOL0     H48271   1.609   2.106  -1.229 -0.5164 -0.3970 -0.8188
  350MOL0     H48272   1.823   2.234  -1.392  0.7515  1.3662  0.8797
  350MOL0     H48273   1.651   2.252  -1.433 -0.4116  1.1529  0.3826
  350MOL0     H48274   1.799   2.357  -1.194 -0.4860  0.8216  1.0173
  350MOL0     H48275   1.625   2.334  -1.192 -0.4717 -0.1940 -0.5084
  350MOL0     H48276   1.739   2.459  -1.436 -1.1998  0.1882 -1.0834
  350MOL0     H48277   1.755   2.554  -1.285 -2.1124  0.1720  2.1059
  350MOL0     H48278   1.566   2.630  -1.410 -1.9673 -0.2269  1.1335
  350MOL0     H48279   1.531   2.578  -1.243  0.5002  3.5970 -0.4811
  350MOL0     H48280   2.078   1.844  -1.075  1.4626 -0.0669  0.0937
  350MOL0     H48281   2.258   1.759  -0.954  0.8507  0.1946 -0.3484
  350MOL0     H48282   2.647   1.509  -0.786 -0.5078 -1.6360 -0.0751
  350MOL0     H48283   2.765   1.467  -0.579  0.4084  0.3887 -0.5413
  350MOL0     H48284   2.872   0.818   0.744 -1.3353 -0.1670  2.0370
  350MOL0     H48285   3.100   0.885   0.792  0.1526 -0.2368 -3.1405
  350MOL0     H48286   3.528   0.729   0.942  0.5087 -1.4336  1.0791
  350MOL0     H48287   3.754   0.723   0.976 -1.1608 -1.7456 -0.4725
  350MOL0     H48288   4.000   0.622   0.691 -1.0665  0.5700  0.1373
  350MOL0     H48289   4.022   0.785   0.608  0.4887  0.8608 -0.1480
  350MOL0     H48290   4.184   0.656   0.832 -0.3611 -0.0036  0.7542
  350MOL0     H48291   4.200   0.829   0.793 -0.5348  0.6641 -1.3110
  350MOL0     H48292   4.247   0.583   0.630 -3.3849  0.4975  2.2895
  350MOL0     H48293   4.287   0.751   0.571  1.8462 -0.4692  0.1153
  350MOL0     H48294   4.422   0.643   0.821  1.6117 -1.3361 -1.2991
  350MOL0     H48295   4.433   0.803   0.737  1.3182  0.2179  1.6018
  350MOL0     H48296   4.680   0.548   0.512 -3.6619 -2.7341 -1.3123
  350MOL0     H48297   3.818   0.878   0.577 -0.3922 -2.6885 -3.7390
  350MOL0     H48298   3.556   0.800   0.439  4.1619 -0.6445 -2.9071
  350MOL0     H48299   3.508   0.974   0.502  1.7039  1.6319 -0.2967
  350MOL0     H48300   3.661   0.927   0.432  1.1497 -1.9801  0.6232
  351MOL0     O48301   6.799   1.517   0.409  0.4375 -0.2380  0.7267
  351MOL0     C48302   6.748   1.609   0.477  0.5251  0.7877  0.5625
  351MOL0     O48303   6.743   1.735   0.442  0.5608 -0.1110  0.1414
  351MOL0     C48304   6.820   1.788   0.336  0.1918 -0.9490  0.4610
  351MOL0     C48305   6.823   1.733   0.207  0.2142  0.5482  0.1469
  351MOL0     C48306   6.895   1.795   0.107 -0.4316 -0.6708  1.5508
  351MOL0     C48307   6.956   1.919   0.129  0.3683 -0.7901  1.0896
  351MOL0     O48308   7.042   1.994   0.041 -0.6471  0.4069  0.1232
  351MOL0     C48309   7.055   1.949  -0.099  0.9771  0.0285  0.0695
  351MOL0     C48310   7.172   2.027  -0.155  0.6184 -0.7116  0.2329
  351MOL0     C48311   7.314   1.980  -0.107  0.4339  0.0805  0.0985
  351MOL0     C48312   7.422   2.071  -0.159  0.4924 -0.5969 -0.7882
  351MOL0     C48313   7.551   2.057  -0.084 -0.4509  1.5326  0.6647
  351MOL0     C48314   7.596   1.905  -0.073  1.0449 -0.0356  0.1110
  351MOL0     C48315   7.730   1.881  -0.019 -0.2607  0.4000  0.7535
  351MOL0     C48316   7.757   1.932   0.122 -1.4139  0.7142  0.2092
  351MOL0     N48317   7.900   1.933   0.153  1.0277 -0.7526 -0.2863
  351MOL0     C48318   7.947   1.991   0.265  0.3110 -0.1656  0.5320
  351MOL0     C48319   8.072   1.949   0.270 -0.7259  0.3754 -0.5114
  351MOL0     C48320   8.161   2.007   0.375 -0.5704 -0.1323  0.3308
  351MOL0     C48321   8.278   1.919   0.424  0.6481 -0.6001 -0.3072
  351MOL0     C48322   8.366   1.997   0.523  0.2846 -0.2365 -0.9498
  351MOL0     C48323   8.397   1.913   0.650 -0.0863  0.7870 -0.0381
  351MOL0     O48324   8.466   1.801   0.608  0.2655  0.0041  0.7251
  351MOL0     C48325   8.603   1.777   0.614  0.0824 -1.0731 -0.2131
  351MOL0     C48326   8.688   1.844   0.704  0.1525 -0.4734  1.0325
  351MOL0     C48327   8.829   1.824   0.702 -0.6779  0.1672 -0.3725
  351MOL0     C48328   8.898   1.919   0.796 -0.7703 -0.1325  0.5748
  351MOL0     C48329   8.887   1.738   0.610  0.0177 -0.2268 -0.2003
  351MOL0     C48330   9.035   1.712   0.594 -0.3317 -0.3385 -0.6054
  351MOL0     O48331   9.122   1.803   0.656 -0.4899 -0.1902  1.0694
  351MOL0     C48332   9.260   1.806   0.615 -0.2738 -0.2548  0.6117
  351MOL0     C48333   9.341   1.855   0.707  0.0530  0.2230  0.2098
  351MOL0     C48334   9.472   1.892   0.671  0.1292 -0.3656  0.2331
  351MOL0     C48335   9.525   1.869   0.547  0.2646  0.5858 -0.2025
  351MOL0     O48336   9.655   1.886   0.524 -0.1552 -0.3326  0.2846
  351MOL0     C48337   9.698   1.954   0.407  0.0657  0.2588  0.8964
  351MOL0     C48338   9.774   2.079   0.462 -1.1552 -0.0636 -0.2301
  351MOL0     C48339   9.857   2.148   0.355 -0.7402  0.5183  0.1199
  351MOL0     C48340   9.988   2.197   0.411 -1.0836 -0.7379 -0.2868
  351MOL0     C48341  10.076   2.262   0.303  0.0506 -0.3107  0.3853
  351MOL0     C48342  10.228   2.253   0.336 -1.2373 -0.5937 -0.3398
  351MOL0     C48343  10.263   2.299   0.477  0.5632  0.6572  0.3102
  351MOL0     C48344  10.416   2.319   0.487  0.0853  0.2237  0.4535
  351MOL0    Cl48345  10.510   2.167   0.430  0.1171 -0.1115  0.4157
  351MOL0     C48346   9.437   1.807   0.448  0.1069 -0.2719 -0.6169
  351MOL0     C48347   9.302   1.780   0.482 -0.7283  0.7082  0.4670
  351MOL0     O48348   9.066   1.608   0.538 -0.1739  1.4235  1.1040
  351MOL0     C48349   8.797   1.681   0.517  0.1534  0.3278  0.0827
  351MOL0     C48350   8.655   1.695   0.521  0.2421 -0.0981 -1.0763
  351MOL0     N48351   8.107   1.886   0.152 -0.0566  0.0406 -0.0850
  351MOL0     N48352   7.995   1.860   0.089 -1.2409  0.0481  0.2037
  351MOL0     C48353   6.950   1.972   0.257  0.1932 -0.6391 -0.5855
  351MOL0     C48354   6.874   1.914   0.357  0.3060 -0.5993  0.8726
  351MOL0     C48355   6.680   1.563   0.601 -0.0823 -0.1930 -1.2911
  351MOL0     C48356   6.621   1.433   0.612 -0.0785  0.2681  0.2769
  351MOL0     C48357   6.563   1.386   0.732 -0.1629  0.8217  1.0895
  351MOL0     C48358   6.538   1.476   0.834 -0.3073  0.5368 -0.8782
  351MOL0     O48359   6.438   1.447   0.932  0.1263 -0.5886 -0.2166
  351MOL0     C48360   6.477   1.470   1.068 -0.5895 -0.4984  0.1108
  351MOL0     C48361   6.414   1.357   1.150  0.1555 -0.7050 -0.0187
  351MOL0     C48362   6.264   1.342   1.142 -0.1209  0.1502  0.1248
  351MOL0     C48363   6.192   1.413   1.257  0.0341  0.4503 -0.1205
  351MOL0     C48364   6.046   1.398   1.261 -0.8858  0.0128 -0.1438
  351MOL0     C48365   5.928   1.367   1.250  0.3058  0.6111  0.0579
  351MOL0     C48366   6.587   1.604   0.821 -0.1907  0.5123 -0.1522
  351MOL0     C48367   6.670   1.643   0.715  0.2045  0.1566 -0.6882
  351MOL0     C48368   6.732   1.785   0.731 -0.6306 -0.0503 -0.5681
  351MOL0     H48369   6.776   1.639   0.181 -2.4238  2.1934 -1.5345
  351MOL0     H48370   6.920   1.737   0.018  1.9180  3.0239 -0.4617
  351MOL0     H48371   6.963   1.981  -0.150  0.5741  0.6288  1.1432
  351MOL0     H48372   7.069   1.840  -0.104  1.8134  0.0978  0.6092
  351MOL0     H48373   7.163   2.026  -0.264 -0.0460  3.8042  0.0161
  351MOL0     H48374   7.162   2.132  -0.126  2.5762 -0.6172  0.7304
  351MOL0     H48375   7.317   1.966   0.001  0.5340  3.0927  0.5708
  351MOL0     H48376   7.324   1.883  -0.156  1.9762  0.8035 -1.1068
  351MOL0     H48377   7.433   2.062  -0.268 -0.2189  3.8126 -1.4402
  351MOL0     H48378   7.402   2.177  -0.139 -1.5324 -1.7051  5.0496
  351MOL0     H48379   7.547   2.112   0.011  0.3022 -1.0126  2.3038
  351MOL0     H48380   7.630   2.109  -0.138  0.0700  1.3501  1.2292
  351MOL0     H48381   7.528   1.838  -0.019  2.9778 -2.7993 -0.6745
  351MOL0     H48382   7.576   1.861  -0.171 -0.2466 -0.0738  0.3698
  351MOL0     H48383   7.807   1.930  -0.079  1.4215 -0.6004  2.0002
  351MOL0     H48384   7.753   1.775  -0.031  0.4442  0.4805  1.3045
  351MOL0     H48385   7.717   2.031   0.146 -0.0208  0.8314  2.3799
  351MOL0     H48386   7.706   1.863   0.190 -1.9198 -1.6827 -2.4465
  351MOL0     H48387   7.897   2.047   0.343 -2.0089  0.7574 -1.4749
  351MOL0     H48388   8.098   2.023   0.464  0.1994  0.6571  0.7524
  351MOL0     H48389   8.204   2.099   0.335  0.3013  1.1782  3.8573
  351MOL0     H48390   8.243   1.828   0.473  0.1018 -0.6078 -0.6956
  351MOL0     H48391   8.335   1.884   0.338  0.9482 -0.2913 -0.2365
  351MOL0     H48392   8.461   2.026   0.478  1.4348 -2.6141 -0.2325
  351MOL0     H48393   8.322   2.091   0.555  4.0678  0.7909  1.9488
  351MOL0     H48394   8.456   1.970   0.723  0.1995 -0.2672  0.5682
  351MOL0     H48395   8.309   1.871   0.699  0.9393 -0.9886  0.3682
  351MOL0     H48396   8.645   1.917   0.771 -2.1048 -0.6071 -0.1674
  351MOL0     H48397   8.985   1.963   0.747  1.5963 -3.2688  1.6503
  351MOL0     H48398   8.930   1.866   0.886 -1.6830  0.5605  1.3299
  351MOL0     H48399   8.836   2.004   0.825 -0.6755 -0.2402  1.0961
  351MOL0     H48400   9.292   1.871   0.802 -1.1693 -0.7354 -0.2284
  351MOL0     H48401   9.529   1.952   0.742 -1.1248  0.9613  0.1653
  351MOL0     H48402   9.761   1.887   0.348  1.8017 -0.1744  3.1316
  351MOL0     H48403   9.616   1.991   0.344  1.2968  1.0120 -0.3496
  351MOL0     H48404   9.700   2.149   0.501 -0.2758  0.3288  0.7814
  351MOL0     H48405   9.842   2.048   0.542  2.3268  4.1726 -1.1622
  351MOL0     H48406   9.792   2.222   0.309 -1.4183  0.1024  0.4027
  351MOL0     H48407   9.895   2.070   0.287  3.3237  2.0665  0.2926
  351MOL0     H48408  10.044   2.110   0.446 -0.8330  0.4765  2.6727
  351MOL0     H48409   9.962   2.263   0.494 -3.1061 -0.7051 -0.8927
  351MOL0     H48410  10.055   2.199   0.216  2.6625 -0.6040 -0.1202
  351MOL0     H48411  10.041   2.365   0.288 -2.3458 -1.4101 -2.8382
  351MOL0     H48412  10.300   2.307   0.275  1.8555 -1.3676  2.3685
  351MOL0     H48413  10.261   2.149   0.328  0.1528 -0.1784 -0.1752
  351MOL0     H48414  10.225   2.221   0.544  2.4099 -1.4607 -0.9738
  351MOL0     H48415  10.202   2.383   0.514 -1.2784 -0.0931 -0.8785
  351MOL0     H48416  10.429   2.333   0.595 -1.7126  1.6516  0.5372
  351MOL0     H48417  10.443   2.407   0.428 -0.0460 -1.1204 -1.7070
  351MOL0     H48418   9.468   1.749   0.362 -4.5980 -1.4888 -1.7325
  351MOL0     H48419   9.231   1.730   0.416  0.9164 -1.8301  0.4710
  351MOL0     H48420   8.823   1.615   0.434 -0.1652 -1.5483  1.4051
  351MOL0     H48421   8.593   1.642   0.450 -3.3342 -2.4651  3.3148
  351MOL0     H48422   7.004   2.063   0.282  1.8988 -1.7363 -0.1116
  351MOL0     H48423   6.855   1.957   0.454 -1.4419 -1.2865  0.8664
  351MOL0     H48424   6.626   1.360   0.532 -1.8146 -2.2030  2.2879
  351MOL0     H48425   6.522   1.286   0.745 -0.4162  0.8235  0.3625
  351MOL0     H48426   6.586   1.469   1.061 -0.5730  2.4440 -1.4369
  351MOL0     H48427   6.443   1.567   1.105  1.6581  0.0533  0.8392
  351MOL0     H48428   6.437   1.381   1.254 -1.5292  1.3780 -0.0589
  351MOL0     H48429   6.446   1.258   1.116 -2.6757 -1.7204 -0.0530
  351MOL0     H48430   6.226   1.384   1.048 -0.9111 -1.7787 -0.4519
  351MOL0     H48431   6.245   1.235   1.136  1.3484 -0.2153  1.3756
  351MOL0     H48432   6.211   1.521   1.255 -0.4965  0.5445 -0.1576
  351MOL0     H48433   6.213   1.370   1.356  0.0935  0.3830 -0.1625
  351MOL0     H48434   5.825   1.342   1.233 -0.0760  1.8452  0.4602
  351MOL0     H48435   6.569   1.671   0.905 -6.6882 -0.5136 -0.2307
  351MOL0     H48436   6.829   1.791   0.680 -1.0280 -0.0822 -1.3504
  351MOL0     H48437   6.670   1.854   0.674 -0.6931 -0.6782 -1.2760
  351MOL0     H48438   6.742   1.820   0.834  1.7359 -1.5971 -0.1884
  352MOL0     O48439   4.977   4.313   4.466  0.2617 -0.2312  0.1696
  352MOL0     C48440   4.983   4.222   4.385  0.7599  0.1126  0.4543
  352MOL0     O48441   5.097   4.194   4.312 -0.5439 -0.2535 -0.6059
  352MOL0     C48442   5.212   4.257   4.342 -0.2156  0.4716  0.1097
  352MOL0     C48443   5.252   4.289   4.476 -0.5221  0.8823  1.0506
  352MOL0     C48444   5.369   4.361   4.496 -0.2310 -0.9218  0.3506
  352MOL0     C48445   5.472   4.373   4.397  0.3489  0.3692 -0.2124
  352MOL0     O48446   5.600   4.429   4.404 -0.2844  0.9445 -0.2094
  352MOL0     C48447   5.636   4.492   4.527 -0.1178  0.3242 -0.0824
  352MOL0     C48448   5.676   4.401   4.644  0.2289  0.5453 -0.5844
  352MOL0     C48449   5.817   4.345   4.641 -0.1683  0.3314  0.5062
  352MOL0     C48450   5.913   4.451   4.684 -0.1758 -0.0310 -1.5074
  352MOL0     C48451   6.056   4.408   4.638  0.3057 -0.4955  0.4026
  352MOL0     C48452   6.167   4.490   4.711  0.5272  0.5744 -0.4017
  352MOL0     C48453   6.153   4.643   4.703  0.1845  0.6685 -0.7598
  352MOL0     C48454   6.274   4.740   4.698  0.1340 -0.2156 -0.2335
  352MOL0     N48455   6.384   4.710   4.791 -0.2181  0.3508  0.7804
  352MOL0     C48456   6.469   4.793   4.852 -0.1101 -0.4130  0.0408
  352MOL0     C48457   6.574   4.730   4.896 -0.6515 -0.6692 -0.6497
  352MOL0     C48458   6.694   4.792   4.966 -0.4162  0.1021  0.7095
  352MOL0     C48459   6.816   4.741   4.890 -0.3155  0.0063 -0.7318
  352MOL0     C48460   6.950   4.811   4.929  0.1502  0.3949  0.4574
  352MOL0     C48461   7.003   4.780   5.065 -1.2147  0.2277  0.1357
  352MOL0     O48462   7.124   4.853   5.079  0.1618 -0.3595  0.3248
  352MOL0     C48463   7.211   4.826   5.182 -0.1741  0.1139 -0.3863
  352MOL0     C48464   7.205   4.714   5.271  0.8042  0.6696  0.2689
  352MOL0     C48465   7.298   4.691   5.377  0.4265 -1.1812  0.9690
  352MOL0     C48466   7.286   4.571   5.448 -0.4782  0.8955  0.3232
  352MOL0     C48467   7.400   4.783   5.396 -1.1757 -0.7031 -1.2995
  352MOL0     C48468   7.498   4.766   5.503 -0.6435  0.0141  1.2563
  352MOL0     O48469   7.579   4.876   5.533  0.2638  0.1642  0.2688
  352MOL0     C48470   7.678   4.878   5.636  0.3444 -0.4437 -0.1285
  352MOL0     C48471   7.794   4.954   5.626  0.7338  0.6503  0.1843
  352MOL0     C48472   7.883   4.966   5.730 -0.7049  0.9784  0.2429
  352MOL0     C48473   7.871   4.886   5.846  0.0600  0.3005  0.4449
  352MOL0     O48474   7.979   4.862   5.928 -0.2257  0.3907 -0.4721
  352MOL0     C48475   8.109   4.932   5.905  0.8931  0.1890 -0.4247
  352MOL0     C48476   8.205   4.871   6.002 -0.1878 -0.6048  0.3884
  352MOL0     C48477   8.173   4.884   6.154 -0.2841 -0.4318  0.1425
  352MOL0     C48478   8.057   4.799   6.202  0.0782  0.0673  0.3053
  352MOL0     C48479   8.052   4.749   6.350 -0.7349 -0.0833 -0.3486
  352MOL0     C48480   8.067   4.859   6.458  0.9307  0.0187 -0.2796
  352MOL0     C48481   7.942   4.947   6.479 -0.1758 -0.2519 -0.0124
  352MOL0     C48482   7.817   4.865   6.510  0.2659 -0.1369 -0.8359
  352MOL0    Cl48483   7.829   4.767   6.652  0.5864  0.6766 -0.2835
  352MOL0     C48484   7.761   4.804   5.871  0.5818  0.1185  0.0566
  352MOL0     C48485   7.670   4.798   5.759  0.5101  0.2769 -0.3538
  352MOL0     O48486   7.517   4.655   5.552  0.4667 -0.9242  0.6550
  352MOL0     C48487   7.403   4.897   5.312  0.2621 -0.4845 -0.0765
  352MOL0     C48488   7.311   4.916   5.206 -0.1761  0.5761  0.4437
  352MOL0     N48489   6.563   4.602   4.855 -0.3056  0.1547  0.2726
  352MOL0     N48490   6.444   4.588   4.798 -1.3922  0.6432  0.6522
  352MOL0     C48491   5.436   4.320   4.273  0.4712 -0.4873  0.3773
  352MOL0     C48492   5.307   4.269   4.243  0.5875 -0.6684 -0.2025
  352MOL0     C48493   4.871   4.130   4.354 -0.3106  0.9174 -0.7225
  352MOL0     C48494   4.879   4.033   4.244 -0.6001 -1.2277 -0.9991
  352MOL0     C48495   4.764   3.968   4.189  1.0634  0.9468 -0.9315
  352MOL0     C48496   4.639   3.989   4.254 -0.4200  0.1786  0.0927
  352MOL0     O48497   4.540   3.925   4.188 -0.3715  0.2738 -0.1766
  352MOL0     C48498   4.409   3.976   4.212  1.0558 -0.8671  0.1864
  352MOL0     C48499   4.288   3.890   4.143  0.3537 -0.3586  0.0600
  352MOL0     C48500   4.286   3.748   4.201  0.2398 -0.3090  0.1187
  352MOL0     C48501   4.190   3.674   4.117  0.2941 -0.3105 -0.6191
  352MOL0     C48502   4.193   3.535   4.158 -0.3314  0.5007 -0.9598
  352MOL0     C48503   4.189   3.425   4.215 -0.4562  0.4365  0.2398
  352MOL0     C48504   4.633   4.057   4.377 -0.5400  0.0602 -1.1713
  352MOL0     C48505   4.748   4.129   4.431  0.0338 -0.0682  0.5676
  352MOL0     C48506   4.725   4.201   4.559  0.9442  0.2226 -0.8120
  352MOL0     H48507   5.185   4.257   4.556 -0.8920 -1.5215 -0.1205
  352MOL0     H48508   5.395   4.397   4.595  0.8501 -0.3439 -0.1266
  352MOL0     H48509   5.551   4.553   4.558 -0.9813 -1.1948  0.5894
  352MOL0     H48510   5.718   4.562   4.506 -0.0902  0.5355  0.6999
  352MOL0     H48511   5.668   4.458   4.737 -1.8745  0.6603 -0.7946
  352MOL0     H48512   5.606   4.318   4.659 -1.1525  1.9940  1.6478
  352MOL0     H48513   5.828   4.248   4.690 -0.0344  0.2250  0.2685
  352MOL0     H48514   5.846   4.326   4.537  0.7990  0.7895  0.6792
  352MOL0     H48515   5.884   4.546   4.638  0.5227 -0.1099 -2.1237
  352MOL0     H48516   5.908   4.459   4.793 -0.8742 -3.1953 -1.2143
  352MOL0     H48517   6.060   4.410   4.528 -0.3978 -1.8542  0.3420
  352MOL0     H48518   6.075   4.303   4.661  0.5691 -1.0010 -1.8218
  352MOL0     H48519   6.170   4.460   4.817  1.0271  4.3097  0.7968
  352MOL0     H48520   6.266   4.464   4.672 -1.0326 -0.5898 -3.9861
  352MOL0     H48521   6.086   4.673   4.784 -1.8502  1.7335 -2.7098
  352MOL0     H48522   6.095   4.662   4.612 -1.2398  1.3661  0.2637
  352MOL0     H48523   6.307   4.755   4.595 -0.7539  1.5021 -0.3156
  352MOL0     H48524   6.234   4.841   4.716 -2.1594 -1.0431 -0.2890
  352MOL0     H48525   6.468   4.901   4.863  0.3818 -0.5267  1.3031
  352MOL0     H48526   6.698   4.766   5.072 -0.7224  2.4242  1.3551
  352MOL0     H48527   6.691   4.902   4.970 -0.3480  0.0702  1.9507
  352MOL0     H48528   6.833   4.633   4.902  0.8351  0.1731 -0.7179
  352MOL0     H48529   6.802   4.762   4.783 -1.8101  1.3684 -0.3003
  352MOL0     H48530   7.030   4.783   4.860  0.3809 -0.3138  1.0068
  352MOL0     H48531   6.928   4.917   4.915 -3.1245 -0.1760  0.6568
  352MOL0     H48532   6.925   4.808   5.137 -1.3959  0.6115 -0.2062
  352MOL0     H48533   7.023   4.673   5.081  4.4800  0.9832  0.0644
  352MOL0     H48534   7.115   4.654   5.270 -0.4425  2.4604  0.8501
  352MOL0     H48535   7.209   4.507   5.405  1.0400  0.0614 -1.3133
  352MOL0     H48536   7.266   4.602   5.551 -0.4139  0.9006  0.3345
  352MOL0     H48537   7.377   4.509   5.444  0.1550  1.4358  3.4395
  352MOL0     H48538   7.797   5.015   5.536 -1.2745 -0.9390 -1.0676
  352MOL0     H48539   7.959   5.040   5.705 -0.0528  1.7149  3.8423
  352MOL0     H48540   8.150   4.901   5.809 -0.7617  0.3540 -1.2192
  352MOL0     H48541   8.096   5.040   5.908 -0.5681  0.1004 -1.9830
  352MOL0     H48542   8.204   4.764   5.980 -1.3478 -0.3562 -0.9353
  352MOL0     H48543   8.303   4.916   5.986 -1.3941  2.6113  1.2945
  352MOL0     H48544   8.160   4.989   6.182 -2.1485 -1.0154  1.6754
  352MOL0     H48545   8.264   4.845   6.200  1.3035 -0.5365 -2.8218
  352MOL0     H48546   8.049   4.712   6.136 -1.2303  1.3834 -1.3742
  352MOL0     H48547   7.958   4.842   6.186 -0.7767 -2.5611 -2.3189
  352MOL0     H48548   7.966   4.685   6.369  0.6720 -2.1482 -0.6468
  352MOL0     H48549   8.141   4.688   6.371  0.5166  1.4236 -1.0331
  352MOL0     H48550   8.146   4.933   6.441  1.6192 -0.1463  1.8247
  352MOL0     H48551   8.079   4.818   6.559  0.6325  3.3712  1.2531
  352MOL0     H48552   7.932   5.007   6.388 -0.4872 -1.4377 -0.7815
  352MOL0     H48553   7.955   5.009   6.568  4.5323  1.9735 -1.9077
  352MOL0     H48554   7.798   4.791   6.432  1.4735 -0.4990 -0.8138
  352MOL0     H48555   7.723   4.920   6.524  1.4463  2.0760 -1.1745
  352MOL0     H48556   7.755   4.746   5.963  0.6799  0.9038  0.5660
  352MOL0     H48557   7.588   4.731   5.785  1.3328  0.1949  2.2781
  352MOL0     H48558   7.488   4.963   5.326 -1.2436  1.5536 -0.2055
  352MOL0     H48559   7.321   5.000   5.138  1.0021 -0.6066 -0.9155
  352MOL0     H48560   5.507   4.331   4.192  0.0250 -0.4418 -0.0139
  352MOL0     H48561   5.269   4.249   4.144 -1.6428  2.0387 -0.0465
  352MOL0     H48562   4.976   4.023   4.195  0.2375 -0.4413  0.4277
  352MOL0     H48563   4.759   3.900   4.104 -0.8536  0.3002 -0.3430
  352MOL0     H48564   4.380   3.979   4.318 -3.2534  0.2505 -0.8406
  352MOL0     H48565   4.404   4.079   4.177 -1.6751 -1.8544 -2.9036
  352MOL0     H48566   4.309   3.882   4.036  0.4849  0.1665  0.0431
  352MOL0     H48567   4.188   3.933   4.158  0.4111 -0.9133  2.4248
  352MOL0     H48568   4.387   3.704   4.204  0.1602 -0.5822  3.5572
  352MOL0     H48569   4.246   3.743   4.303 -0.9804 -2.6281 -0.4026
  352MOL0     H48570   4.220   3.685   4.012  0.7165  0.3963 -0.4371
  352MOL0     H48571   4.086   3.706   4.126  0.2331  0.3128 -3.0429
  352MOL0     H48572   4.176   3.328   4.257 -2.9669 -0.0794 -1.5227
  352MOL0     H48573   4.538   4.058   4.431  1.0138  0.1120  1.7397
  352MOL0     H48574   4.620   4.186   4.583  0.6404  0.8477 -1.6905
  352MOL0     H48575   4.788   4.164   4.640  2.6426  2.4845 -0.9986
  352MOL0     H48576   4.747   4.308   4.547  0.7305  0.5527  1.3177
  353MOL0     O48577   5.902   0.545   0.105  0.0098 -0.7950  0.4431
  353MOL0     C48578   5.846   0.555   0.213  0.1851  0.1613 -0.2976
  353MOL0     O48579   5.900   0.624   0.320 -0.0812  0.3930  0.9927
  353MOL0     C48580   6.018   0.689   0.299 -0.5981  0.1458  1.0641
  353MOL0     C48581   6.036   0.822   0.240  0.2694  0.3659  0.3834
  353MOL0     C48582   6.160   0.876   0.225  0.1110  0.9967  0.5102
  353MOL0     C48583   6.272   0.803   0.269 -0.1705  0.0464  0.2132
  353MOL0     O48584   6.400   0.837   0.262 -0.3783  0.0924 -0.3125
  353MOL0     C48585   6.411   0.980   0.271 -0.2685  0.3542  0.1513
  353MOL0     C48586   6.562   1.010   0.262  0.2250  0.4515  0.3042
  353MOL0     C48587   6.565   1.170   0.221 -0.6351  0.9270 -0.3227
  353MOL0     C48588   6.690   1.244   0.241  0.3429 -0.1851 -0.4990
  353MOL0     C48589   6.785   1.191   0.135 -0.4790  0.0421  0.3558
  353MOL0     C48590   6.911   1.283   0.127  0.4885  0.2515  0.2875
  353MOL0     C48591   7.029   1.215   0.055 -0.4490 -0.0175  1.0558
  353MOL0     C48592   7.155   1.296   0.094  0.1630 -0.1953  0.9058
  353MOL0     N48593   7.173   1.408   0.001  0.1572  0.0703  0.3960
  353MOL0     C48594   7.250   1.396  -0.110 -1.3634 -0.4799 -0.3248
  353MOL0     C48595   7.284   1.523  -0.153  0.4456 -0.4765 -0.8828
  353MOL0     C48596   7.359   1.563  -0.274 -0.4522 -0.0795  0.3099
  353MOL0     C48597   7.273   1.549  -0.407 -0.3540  0.2632 -0.5239
  353MOL0     C48598   7.205   1.686  -0.417  1.1356  2.1359  0.5317
  353MOL0     C48599   7.283   1.818  -0.444 -0.2126  0.4030  0.5184
  353MOL0     O48600   7.360   1.811  -0.557 -0.1136 -0.1263  0.3692
  353MOL0     C48601   7.431   1.925  -0.571  0.1557  0.1684  0.1456
  353MOL0     C48602   7.551   1.951  -0.505  0.1290 -0.2097  0.0137
  353MOL0     C48603   7.648   2.053  -0.535  0.2642  0.8008 -0.1090
  353MOL0     C48604   7.762   2.063  -0.440 -0.0520 -0.3921  0.2689
  353MOL0     C48605   7.614   2.140  -0.639  0.1854  0.3435  0.6863
  353MOL0     C48606   7.705   2.249  -0.683 -1.3771 -0.7273  0.7867
  353MOL0     O48607   7.652   2.310  -0.802  0.4648  0.9137 -0.2626
  353MOL0     C48608   7.722   2.408  -0.865  0.1059  0.3826 -0.3975
  353MOL0     C48609   7.855   2.394  -0.917 -0.8215  0.2479  0.6435
  353MOL0     C48610   7.919   2.503  -0.976 -0.5402 -1.2621 -0.4602
  353MOL0     C48611   7.847   2.631  -0.977  0.4226  0.3081 -1.1465
  353MOL0     O48612   7.901   2.749  -1.031 -0.6449 -0.3470  0.2137
  353MOL0     C48613   8.036   2.766  -1.014  0.4717 -0.2835 -0.5342
  353MOL0     C48614   8.077   2.910  -1.005 -0.3857  0.2961 -0.3466
  353MOL0     C48615   8.008   3.000  -1.110 -0.2905 -1.1228  0.0461
  353MOL0     C48616   8.070   3.149  -1.107 -0.4364  1.0949  0.5212
  353MOL0     C48617   7.986   3.245  -1.181 -0.3413 -0.2302 -0.0366
  353MOL0     C48618   8.069   3.335  -1.280  0.0304 -0.0105  0.6714
  353MOL0     C48619   7.978   3.402  -1.381 -0.0096 -0.3822 -0.3091
  353MOL0     C48620   8.043   3.541  -1.425  0.3759 -1.0159 -0.2217
  353MOL0    Cl48621   8.071   3.645  -1.288  0.1130 -0.1404  0.1459
  353MOL0     C48622   7.724   2.638  -0.921  0.7769 -1.3211  0.3335
  353MOL0     C48623   7.654   2.526  -0.871 -0.1713 -0.3185  0.0671
  353MOL0     O48624   7.815   2.279  -0.636  0.0624 -0.2381 -0.3268
  353MOL0     C48625   7.496   2.108  -0.717  0.3506 -0.1133  0.2497
  353MOL0     C48626   7.416   1.996  -0.691 -0.1742  0.2773 -0.4504
  353MOL0     N48627   7.234   1.610  -0.058  0.0356  0.2530  0.6317
  353MOL0     N48628   7.169   1.541   0.031 -0.1009 -0.6038 -0.1000
  353MOL0     C48629   6.259   0.681   0.335  0.2274  0.2127  0.1574
  353MOL0     C48630   6.130   0.622   0.340  0.2619 -0.1279 -0.6923
  353MOL0     C48631   5.721   0.487   0.244  0.4718 -0.8749  0.5803
  353MOL0     C48632   5.660   0.517   0.372  0.6516  0.5347  0.2316
  353MOL0     C48633   5.547   0.462   0.415  0.7211  0.0808 -0.0664
  353MOL0     C48634   5.482   0.356   0.344 -0.2574 -0.2805  0.2697
  353MOL0     O48635   5.372   0.286   0.371  0.8090  0.4443  0.7093
  353MOL0     C48636   5.303   0.330   0.487  0.3124  0.2574 -0.0633
  353MOL0     C48637   5.162   0.262   0.485  0.1545  0.1075 -1.1550
  353MOL0     C48638   5.071   0.301   0.370 -0.2599 -0.7655  0.0291
  353MOL0     C48639   4.931   0.229   0.375  0.7379 -0.2887 -0.1674
  353MOL0     C48640   4.863   0.271   0.254  0.4020  0.2783 -0.3308
  353MOL0     C48641   4.805   0.315   0.152 -0.1223 -0.7212 -0.2798
  353MOL0     C48642   5.546   0.324   0.225  0.5508  0.7341 -0.3854
  353MOL0     C48643   5.658   0.390   0.168  0.3000  1.0247 -0.7756
  353MOL0     C48644   5.687   0.367   0.024  0.1564 -0.7831 -0.3919
  353MOL0     H48645   5.950   0.886   0.222 -0.3512 -1.2616 -3.3944
  353MOL0     H48646   6.172   0.976   0.184  1.6736  0.1586 -1.1686
  353MOL0     H48647   6.364   1.029   0.356 -2.7130  1.1890 -1.5611
  353MOL0     H48648   6.363   1.021   0.181 -1.1539 -4.1194 -1.6844
  353MOL0     H48649   6.613   0.991   0.357  2.2878  1.3043 -0.5653
  353MOL0     H48650   6.618   0.956   0.185 -0.6199 -0.2347  0.1689
  353MOL0     H48651   6.536   1.174   0.116  0.9279  1.6339 -0.7680
  353MOL0     H48652   6.492   1.213   0.290  1.1677 -1.1316  3.1876
  353MOL0     H48653   6.664   1.348   0.220 -0.2125 -0.3243 -0.5174
  353MOL0     H48654   6.738   1.224   0.337  0.2855 -0.1138 -0.4558
  353MOL0     H48655   6.736   1.193   0.037  0.7078  3.0943 -0.3086
  353MOL0     H48656   6.818   1.089   0.154  0.1911  0.0637 -0.6063
  353MOL0     H48657   6.886   1.383   0.090  0.5186 -0.6887 -2.4921
  353MOL0     H48658   6.942   1.300   0.231  0.9145 -1.6312  0.5022
  353MOL0     H48659   7.019   1.223  -0.054  0.1377  1.6685  1.0831
  353MOL0     H48660   7.039   1.114   0.094 -0.2978  0.8014  3.2655
  353MOL0     H48661   7.153   1.329   0.199  3.5758 -2.7206  1.9405
  353MOL0     H48662   7.237   1.226   0.074  0.0211 -0.0965 -0.0571
  353MOL0     H48663   7.283   1.312  -0.171 -0.9960  0.6631 -1.7792
  353MOL0     H48664   7.446   1.498  -0.288  1.2010  2.0393  0.3201
  353MOL0     H48665   7.407   1.659  -0.256 -0.6992  0.2337 -0.6149
  353MOL0     H48666   7.336   1.530  -0.494  1.2111  0.4845  0.4997
  353MOL0     H48667   7.213   1.460  -0.384 -0.4120  0.5148  0.3291
  353MOL0     H48668   7.146   1.672  -0.508  2.7150 -0.7356 -0.1665
  353MOL0     H48669   7.136   1.682  -0.332  1.2439 -1.6124  0.5949
  353MOL0     H48670   7.217   1.905  -0.452  1.3216  1.8561  2.6879
  353MOL0     H48671   7.344   1.837  -0.355  2.0121  1.7263 -1.1758
  353MOL0     H48672   7.579   1.882  -0.426 -3.2557 -2.4225 -0.4885
  353MOL0     H48673   7.739   2.143  -0.369 -0.0522 -0.3212  0.1891
  353MOL0     H48674   7.848   2.094  -0.500 -1.2501  2.9587  0.0924
  353MOL0     H48675   7.790   1.972  -0.386  0.5449  1.2098  2.8918
  353MOL0     H48676   7.913   2.304  -0.902  1.3475  1.3033 -0.8583
  353MOL0     H48677   8.012   2.480  -1.027  1.2610  1.5274  1.3138
  353MOL0     H48678   8.076   2.715  -0.926  2.9600  1.1302 -0.7285
  353MOL0     H48679   8.072   2.701  -1.094 -0.3304 -2.7168  0.9725
  353MOL0     H48680   8.044   2.943  -0.907  0.3839  1.9912 -0.6316
  353MOL0     H48681   8.186   2.913  -1.009  0.0447 -4.7831  0.0877
  353MOL0     H48682   7.900   3.005  -1.097 -0.2783  0.2006 -0.2677
  353MOL0     H48683   8.010   2.954  -1.210 -0.0858 -3.1029  0.9177
  353MOL0     H48684   8.166   3.137  -1.156 -1.8611  1.0795 -2.4742
  353MOL0     H48685   8.078   3.170  -1.000  0.3884  2.1190  0.2647
  353MOL0     H48686   7.906   3.191  -1.232  0.9386 -1.6995 -0.5751
  353MOL0     H48687   7.939   3.311  -1.108  0.0178 -0.2522  0.2171
  353MOL0     H48688   8.129   3.267  -1.341 -2.5155 -1.6639 -0.1791
  353MOL0     H48689   8.135   3.400  -1.223 -0.0872 -0.1109  0.9215
  353MOL0     H48690   7.888   3.429  -1.325  0.0487  0.1665 -0.4714
  353MOL0     H48691   7.969   3.344  -1.473  0.7475  2.5478 -2.3569
  353MOL0     H48692   7.985   3.588  -1.505  0.3068 -0.0957  0.3631
  353MOL0     H48693   8.143   3.518  -1.463  0.5268  2.2151 -2.1233
  353MOL0     H48694   7.656   2.720  -0.943  0.0181 -1.6574  1.3715
  353MOL0     H48695   7.557   2.540  -0.824 -1.4257  0.9877 -2.6368
  353MOL0     H48696   7.461   2.170  -0.799  0.4139 -2.1118 -1.3900
  353MOL0     H48697   7.339   1.964  -0.761 -0.2277  0.6005 -0.5443
  353MOL0     H48698   6.340   0.625   0.381  2.2605  1.3063 -1.8623
  353MOL0     H48699   6.108   0.521   0.372 -1.8073  0.3528 -0.4607
  353MOL0     H48700   5.688   0.596   0.441 -1.1294  1.3752  0.0512
  353MOL0     H48701   5.503   0.488   0.511  1.4527  1.0810  0.0074
  353MOL0     H48702   5.356   0.310   0.581 -1.5978 -1.1493  0.7808
  353MOL0     H48703   5.292   0.438   0.477  0.0377  0.2082 -0.3015
  353MOL0     H48704   5.112   0.295   0.576  0.0704  0.4193 -1.3115
  353MOL0     H48705   5.170   0.153   0.489  1.0462  0.0775 -2.7850
  353MOL0     H48706   5.064   0.410   0.367  2.0543 -0.5663 -0.2472
  353MOL0     H48707   5.123   0.280   0.276  0.4138 -2.5741  0.7695
  353MOL0     H48708   4.869   0.260   0.460  1.4134  1.5604 -0.2924
  353MOL0     H48709   4.949   0.121   0.379  1.6999 -0.2282 -1.8908
  353MOL0     H48710   4.769   0.366   0.065  1.0308  2.8254  1.1645
  353MOL0     H48711   5.501   0.253   0.156  1.8942 -2.6989  2.0284
  353MOL0     H48712   5.783   0.317   0.008  0.5613  0.3190 -1.5349
  353MOL0     H48713   5.617   0.300  -0.028  0.6889 -1.6836  0.0263
  353MOL0     H48714   5.696   0.465  -0.023 -0.4543 -0.1264  0.8132
  354MOL0     O48715   5.751   1.634   8.140  0.7093 -0.3438 -0.4049
  354MOL0     C48716   5.742   1.739   8.085  0.3124 -1.2600 -0.3061
  354MOL0     O48717   5.660   1.838   8.134  0.7785  0.0032 -0.3061
  354MOL0     C48718   5.599   1.813   8.253  0.3625  0.5720  1.0842
  354MOL0     C48719   5.647   1.868   8.383 -0.4146 -0.3131 -0.2157
  354MOL0     C48720   5.589   1.821   8.502 -0.3560 -0.1086  0.0268
  354MOL0     C48721   5.480   1.726   8.497  0.1135 -0.5267  0.3489
  354MOL0     O48722   5.420   1.681   8.606 -0.0578  0.3353 -0.7038
  354MOL0     C48723   5.282   1.683   8.621  0.5003 -0.9118 -0.5193
  354MOL0     C48724   5.232   1.717   8.771 -1.1115  0.7478  0.7215
  354MOL0     C48725   5.077   1.715   8.794 -0.5472  0.2411  0.1281
  354MOL0     C48726   5.050   1.685   8.941 -0.5224 -0.4182  0.4138
  354MOL0     C48727   4.903   1.703   8.972 -0.2785  0.6436  0.0603
  354MOL0     C48728   4.866   1.851   8.988  1.4219  0.1297  0.3719
  354MOL0     C48729   4.716   1.870   8.991  0.7952  0.7907 -0.8591
  354MOL0     C48730   4.642   1.797   9.110  0.4777 -0.1375 -0.2277
  354MOL0     N48731   4.512   1.863   9.124  0.0193  0.3773  0.5926
  354MOL0     C48732   4.389   1.836   9.069 -0.4496 -0.1677 -0.4102
  354MOL0     C48733   4.308   1.920   9.134  0.6499  0.5433  0.2034
  354MOL0     C48734   4.156   1.925   9.092  0.0940  1.2855  0.2517
  354MOL0     C48735   4.078   2.018   9.182  0.2325  0.7253 -0.1032
  354MOL0     C48736   3.930   2.019   9.155 -0.2788  0.7827 -0.4954
  354MOL0     C48737   3.841   2.085   9.261 -0.1351 -0.5145  0.0639
  354MOL0     O48738   3.839   2.227   9.239 -0.5927 -0.7224 -0.0807
  354MOL0     C48739   3.754   2.293   9.154 -0.6498  0.9771  0.5936
  354MOL0     C48740   3.677   2.230   9.054  0.0990  0.5093  0.3381
  354MOL0     C48741   3.606   2.294   8.948 -0.5388 -0.3998  0.1386
  354MOL0     C48742   3.518   2.204   8.862 -0.3214 -1.1670  0.7018
  354MOL0     C48743   3.614   2.439   8.946  0.0080 -0.8013  0.0529
  354MOL0     C48744   3.540   2.530   8.856  0.3386  0.0991 -0.8392
  354MOL0     O48745   3.523   2.498   8.727  0.8242  0.0224  0.5445
  354MOL0     C48746   3.442   2.573   8.642 -0.4955  0.6199 -0.2624
  354MOL0     C48747   3.327   2.519   8.599  1.1537 -0.6838  0.6968
  354MOL0     C48748   3.248   2.594   8.499 -0.7737  0.8519 -0.3972
  354MOL0     C48749   3.281   2.723   8.463  0.1643  0.3578  0.0436
  354MOL0     O48750   3.204   2.788   8.371 -0.2527  0.6340  0.3343
  354MOL0     C48751   3.105   2.709   8.310  1.2373  0.4241  0.1306
  354MOL0     C48752   3.037   2.788   8.203  0.2871 -0.7344 -0.3779
  354MOL0     C48753   2.911   2.723   8.132  0.4478 -0.1480 -0.6057
  354MOL0     C48754   2.834   2.831   8.050 -0.0309 -0.5408  0.8380
  354MOL0     C48755   2.711   2.757   7.995 -0.0684 -0.0574 -0.5352
  354MOL0     C48756   2.619   2.862   7.922  0.1275  0.1377 -0.2806
  354MOL0     C48757   2.515   2.800   7.832  0.1387  0.9736 -0.6879
  354MOL0     C48758   2.568   2.729   7.705  0.4413 -0.3335 -0.2429
  354MOL0    Cl48759   2.421   2.696   7.619  0.0253  0.2345 -0.2107
  354MOL0     C48760   3.398   2.771   8.514  0.1754 -0.5315 -0.7318
  354MOL0     C48761   3.477   2.699   8.602  0.1723 -0.4558 -0.6956
  354MOL0     O48762   3.492   2.634   8.913 -0.4107 -1.0575  0.0657
  354MOL0     C48763   3.684   2.501   9.053 -0.2218  0.7029  0.7702
  354MOL0     C48764   3.756   2.426   9.149  0.4585 -0.3504 -0.6579
  354MOL0     N48765   4.386   1.998   9.222  0.2349 -0.4784  0.0684
  354MOL0     N48766   4.504   1.960   9.218  0.2659 -0.3684 -0.3269
  354MOL0     C48767   5.430   1.681   8.366  0.0072  0.3213 -0.3173
  354MOL0     C48768   5.486   1.723   8.249 -0.6831  0.3180  0.8462
  354MOL0     C48769   5.831   1.774   7.974 -0.6234  0.5010 -0.0673
  354MOL0     C48770   5.832   1.910   7.925 -0.1612  0.6331 -0.7897
  354MOL0     C48771   5.911   1.947   7.817 -1.4024 -0.8243 -0.3744
  354MOL0     C48772   5.992   1.846   7.760 -0.3006 -0.3242 -0.2543
  354MOL0     O48773   6.085   1.874   7.666 -0.2210 -0.3784 -0.4926
  354MOL0     C48774   6.127   2.007   7.639  0.2477  0.7567  0.5967
  354MOL0     C48775   6.243   2.010   7.537 -0.4199  0.1919 -0.0240
  354MOL0     C48776   6.378   1.951   7.592 -0.1265  0.2077 -0.2909
  354MOL0     C48777   6.490   2.019   7.518  0.4740  0.4585 -0.3587
  354MOL0     C48778   6.616   1.947   7.553  0.6374  0.8196  0.0357
  354MOL0     C48779   6.706   1.870   7.579 -0.7586  0.1366 -0.6729
  354MOL0     C48780   5.981   1.718   7.800 -0.0414  0.0342 -0.2776
  354MOL0     C48781   5.904   1.670   7.900 -0.4569 -0.7265 -0.3612
  354MOL0     C48782   5.916   1.533   7.936 -0.9266  0.0374 -0.0698
  354MOL0     H48783   5.719   1.949   8.387 -1.7562  0.9374 -0.4952
  354MOL0     H48784   5.624   1.854   8.600 -1.9968 -1.7639  1.2570
  354MOL0     H48785   5.236   1.588   8.595 -3.6683  0.5341  0.7833
  354MOL0     H48786   5.232   1.762   8.564  1.3604  1.2990  1.5988
  354MOL0     H48787   5.280   1.646   8.840 -0.4215  0.5494  0.0546
  354MOL0     H48788   5.266   1.816   8.804  1.8046  0.5983 -1.4172
  354MOL0     H48789   5.034   1.810   8.763 -2.4279 -0.1637  1.3531
  354MOL0     H48790   5.025   1.635   8.741 -1.0967  1.2422 -0.8732
  354MOL0     H48791   5.069   1.579   8.961  0.0937 -0.8758 -2.1699
  354MOL0     H48792   5.112   1.741   9.012  1.8552 -1.0069 -1.0747
  354MOL0     H48793   4.892   1.661   9.073  1.3919 -0.8675 -0.3408
  354MOL0     H48794   4.836   1.646   8.907 -1.1740  0.9637  0.6696
  354MOL0     H48795   4.912   1.898   9.075  0.3857  0.3667  0.8039
  354MOL0     H48796   4.903   1.904   8.899  1.5739 -1.0543 -0.3001
  354MOL0     H48797   4.666   1.834   8.901 -0.4305  2.1234 -0.7379
  354MOL0     H48798   4.695   1.977   8.984  0.9241  1.0096  1.3019
  354MOL0     H48799   4.626   1.690   9.093 -0.4589  0.2360 -1.9734
  354MOL0     H48800   4.696   1.799   9.205 -0.9488  1.4433  0.5981
  354MOL0     H48801   4.361   1.772   8.986 -0.6829  1.0552 -1.3054
  354MOL0     H48802   4.114   1.824   9.099  2.9990 -0.0273  0.5394
  354MOL0     H48803   4.141   1.969   8.993  1.6815  1.1089 -0.1068
  354MOL0     H48804   4.107   2.007   9.287  2.6129 -1.7764 -0.8958
  354MOL0     H48805   4.108   2.118   9.151 -1.2906  0.8360 -1.3288
  354MOL0     H48806   3.912   2.055   9.054 -1.9147  1.2575 -0.0643
  354MOL0     H48807   3.894   1.917   9.167 -1.1866  0.6916 -3.3568
  354MOL0     H48808   3.736   2.059   9.271  0.6393 -3.3793  2.2129
  354MOL0     H48809   3.892   2.075   9.357 -0.6263  2.2147  0.7074
  354MOL0     H48810   3.659   2.125   9.074 -0.1572  0.9113  2.4187
  354MOL0     H48811   3.524   2.248   8.762 -3.3800  3.6472  2.2810
  354MOL0     H48812   3.416   2.218   8.899 -0.1187 -1.4027  1.3519
  354MOL0     H48813   3.552   2.100   8.862 -0.3187 -1.1701  0.2416
  354MOL0     H48814   3.286   2.420   8.616 -0.6548 -0.1731 -0.3993
  354MOL0     H48815   3.162   2.540   8.461 -0.7705  1.2006 -0.9147
  354MOL0     H48816   3.145   2.622   8.258 -0.0774  0.0645 -0.3222
  354MOL0     H48817   3.032   2.684   8.388 -1.0933 -1.9750 -2.5633
  354MOL0     H48818   3.012   2.886   8.245 -1.1403  0.2550 -3.2453
  354MOL0     H48819   3.109   2.811   8.124 -0.5307 -0.1146 -0.9666
  354MOL0     H48820   2.843   2.692   8.212 -1.2379  1.4237 -1.3499
  354MOL0     H48821   2.939   2.643   8.063  1.7734  1.0916 -1.5544
  354MOL0     H48822   2.892   2.866   7.964 -0.6350  0.5455  0.8535
  354MOL0     H48823   2.794   2.912   8.111  0.4051  0.1901  0.1667
  354MOL0     H48824   2.738   2.672   7.931 -1.2760 -0.2537 -0.8066
  354MOL0     H48825   2.653   2.720   8.080 -0.6393  2.5547  0.2960
  354MOL0     H48826   2.676   2.929   7.857 -0.9149 -0.3813 -1.7656
  354MOL0     H48827   2.564   2.916   8.000 -1.0104 -0.0642 -0.9326
  354MOL0     H48828   2.452   2.879   7.791  1.9378  0.6893 -4.3957
  354MOL0     H48829   2.461   2.727   7.892  0.4748  1.9759  0.8862
  354MOL0     H48830   2.613   2.631   7.727 -1.6602 -1.5103 -0.9235
  354MOL0     H48831   2.641   2.791   7.652  0.3450  0.7299  0.8095
  354MOL0     H48832   3.423   2.874   8.491 -1.2742  0.0239  0.0376
  354MOL0     H48833   3.566   2.749   8.641 -1.5280  1.1339  1.3658
  354MOL0     H48834   3.661   2.605   9.075  1.0987  1.3137 -0.5814
  354MOL0     H48835   3.794   2.492   9.227 -0.8721 -0.7907  0.4023
  354MOL0     H48836   5.343   1.616   8.363  0.7090 -0.6162 -1.0049
  354MOL0     H48837   5.457   1.688   8.150  0.3515 -0.8559  0.9272
  354MOL0     H48838   5.769   1.991   7.960 -0.6323  0.7783 -1.9549
  354MOL0     H48839   5.914   2.047   7.774 -1.5277 -0.1374  1.1677
  354MOL0     H48840   6.047   2.076   7.611  1.1632  2.0677  1.1105
  354MOL0     H48841   6.157   2.058   7.730  0.3532  3.1453 -0.7025
  354MOL0     H48842   6.244   2.113   7.501  1.2268  0.1707 -0.1409
  354MOL0     H48843   6.212   1.950   7.451  3.5956  0.3776 -1.8299
  354MOL0     H48844   6.380   1.970   7.700 -3.5966 -1.0481  0.1603
  354MOL0     H48845   6.375   1.841   7.586 -0.4382  0.1636  0.5225
  354MOL0     H48846   6.501   2.122   7.553  3.6804 -0.5451  2.0767
  354MOL0     H48847   6.473   2.007   7.411 -3.4866 -2.2659  0.3647
  354MOL0     H48848   6.781   1.802   7.612  1.2718  2.6920  0.2841
  354MOL0     H48849   6.035   1.640   7.747 -2.2469 -2.1779  0.5288
  354MOL0     H48850   5.975   1.529   8.028  1.3060  0.7500 -1.4047
  354MOL0     H48851   5.821   1.480   7.949 -0.9697  0.5031  1.7321
  354MOL0     H48852   5.971   1.478   7.859 -2.6379 -2.2193  0.2114
  355MOL0     O48853   3.189  11.351  10.191  0.4169  0.2061  0.2619
  355MOL0     C48854   3.137  11.249  10.231 -0.1958 -0.1841  0.4908
  355MOL0     O48855   3.211  11.140  10.284  0.9782 -0.0344 -1.1131
  355MOL0     C48856   3.351  11.168  10.285  0.8108  1.3588  0.9964
  355MOL0     C48857   3.432  11.136  10.176 -0.0978 -0.3820 -0.5600
  355MOL0     C48858   3.576  11.123  10.195  1.2063 -0.5006 -0.8034
  355MOL0     C48859   3.627  11.153  10.316  0.7670 -0.1390 -0.2056
  355MOL0     O48860   3.754  11.111  10.345 -0.2001  0.9166 -0.3541
  355MOL0     C48861   3.856  11.155  10.249  0.2239  0.3554  0.0275
  355MOL0     C48862   3.988  11.193  10.308  0.5529  0.3749 -0.3290
  355MOL0     C48863   3.982  11.316  10.400  0.0889 -0.4127 -0.0856
  355MOL0     C48864   4.099  11.314  10.490  0.7732  0.2918 -0.1753
  355MOL0     C48865   4.122  11.440  10.579 -0.0309 -0.9218 -0.2313
  355MOL0     C48866   4.109  11.565  10.504 -0.2630 -0.2959 -0.8038
  355MOL0     C48867   4.170  11.694  10.568 -0.2211 -0.1557  0.5669
  355MOL0     C48868   4.308  11.684  10.618 -0.2585 -0.6704  0.2606
  355MOL0     N48869   4.386  11.816  10.605 -0.0567  0.6362 -0.6166
  355MOL0     C48870   4.523  11.833  10.619 -0.4870 -0.1437 -0.5586
  355MOL0     C48871   4.547  11.961  10.578 -0.2129  0.6608  0.8623
  355MOL0     C48872   4.680  12.030  10.564  0.0193 -0.1023  0.7252
  355MOL0     C48873   4.778  11.931  10.493  0.6349  0.2337  0.1273
  355MOL0     C48874   4.899  12.007  10.429 -0.7062 -0.6876  0.8122
  355MOL0     C48875   5.001  12.015  10.536 -0.1771  0.1387  0.7109
  355MOL0     O48876   5.111  12.093  10.497  1.0253  0.4047 -0.2748
  355MOL0     C48877   5.205  12.054  10.406 -0.5958 -0.4746 -0.3319
  355MOL0     C48878   5.201  11.929  10.346  0.3861  0.0056  0.3647
  355MOL0     C48879   5.308  11.892  10.271 -0.1923 -0.1848  0.6437
  355MOL0     C48880   5.311  11.746  10.237 -0.1805 -0.8003  0.7073
  355MOL0     C48881   5.417  11.977  10.252  0.0396 -0.3448 -0.3125
  355MOL0     C48882   5.538  11.942  10.181 -0.1857  0.6549 -0.4195
  355MOL0     O48883   5.581  12.032  10.088  0.1811 -0.0443  0.1139
  355MOL0     C48884   5.690  12.007  10.007  0.0950  0.1531  0.2097
  355MOL0     C48885   5.697  12.083   9.887  0.6784 -0.2305 -0.3589
  355MOL0     C48886   5.789  12.074   9.787  0.5430 -0.8242 -0.3805
  355MOL0     C48887   5.890  11.978   9.805 -0.9076 -0.3094  0.7638
  355MOL0     O48888   5.988  11.954   9.714  0.1876 -0.1958  0.6841
  355MOL0     C48889   6.113  12.022   9.738  0.7774  0.1644  0.7063
  355MOL0     C48890   6.103  12.166   9.693 -0.1741 -0.5663  0.5209
  355MOL0     C48891   6.095  12.172   9.536  0.2601  0.0908 -0.5052
  355MOL0     C48892   6.013  12.288   9.499 -0.7865  0.4055  0.0369
  355MOL0     C48893   6.010  12.306   9.343 -0.1427 -0.0021  0.1758
  355MOL0     C48894   5.957  12.428   9.281  0.7524 -0.1477 -0.9491
  355MOL0     C48895   5.940  12.413   9.129 -0.7012 -0.5733 -0.5869
  355MOL0     C48896   6.075  12.419   9.054 -0.0511  0.3284 -0.0972
  355MOL0    Cl48897   6.090  12.567   8.958  0.1798 -0.0149  0.1588
  355MOL0     C48898   5.900  11.903   9.918 -0.4738  0.5280 -0.2068
  355MOL0     C48899   5.792  11.910  10.015 -0.2489  0.2407 -0.7808
  355MOL0     O48900   5.596  11.828  10.202 -0.2300 -0.0849  0.4930
  355MOL0     C48901   5.409  12.112  10.310  0.0455 -0.1254  0.1348
  355MOL0     C48902   5.308  12.149  10.396 -0.1909  0.7059 -0.3114
  355MOL0     N48903   4.428  12.022  10.552 -0.2645 -0.7140  0.1117
  355MOL0     N48904   4.335  11.933  10.575  0.0163  0.8670 -0.5283
  355MOL0     C48905   3.545  11.183  10.429 -0.0019 -1.2236  0.8152
  355MOL0     C48906   3.411  11.193  10.407  0.1422 -0.6688  0.2115
  355MOL0     C48907   2.987  11.244  10.243  0.9018  0.6399 -0.1567
  355MOL0     C48908   2.926  11.214  10.363  0.1148 -0.3325 -0.1827
  355MOL0     C48909   2.786  11.206  10.376 -0.2750  0.1219 -0.6821
  355MOL0     C48910   2.713  11.237  10.260 -1.1216 -0.1319  0.2084
  355MOL0     O48911   2.576  11.248  10.252  0.0619  0.4187  0.2426
  355MOL0     C48912   2.495  11.232  10.371  0.2057  0.1707 -0.9716
  355MOL0     C48913   2.352  11.272  10.347  0.2713 -0.5321 -0.1844
  355MOL0     C48914   2.343  11.424  10.347  0.2704 -0.4670  0.1104
  355MOL0     C48915   2.203  11.475  10.304 -1.0794 -0.4571 -0.8665
  355MOL0     C48916   2.176  11.467  10.158 -0.1823  0.2237 -0.4475
  355MOL0     C48917   2.156  11.468  10.037  0.1841 -0.4299 -0.0679
  355MOL0     C48918   2.780  11.252  10.137 -0.0927 -0.2685  0.0994
  355MOL0     C48919   2.912  11.252  10.124  0.1711 -0.1408 -0.1401
  355MOL0     C48920   2.975  11.281   9.986 -0.9994 -0.1976  0.0209
  355MOL0     H48921   3.386  11.103  10.084  0.3332 -0.7682 -0.6422
  355MOL0     H48922   3.644  11.077  10.124  0.9094  1.8283 -2.7182
  355MOL0     H48923   3.817  11.238  10.189  0.5949 -0.0142 -0.7311
  355MOL0     H48924   3.861  11.072  10.179 -2.7008  0.4639 -0.4458
  355MOL0     H48925   4.021  11.110  10.371  1.5024  0.3158 -0.8842
  355MOL0     H48926   4.062  11.196  10.227  0.2701 -1.3344 -0.6768
  355MOL0     H48927   3.973  11.400  10.331 -1.1328  0.5510  1.1716
  355MOL0     H48928   3.891  11.315  10.462 -0.4324 -1.4513 -0.8465
  355MOL0     H48929   4.089  11.219  10.542 -3.9989  0.1329 -0.8744
  355MOL0     H48930   4.184  11.302  10.424  1.7899  3.9447  0.2075
  355MOL0     H48931   4.226  11.429  10.611 -0.3720 -1.6854  0.6569
  355MOL0     H48932   4.066  11.448  10.672  0.7795 -0.8398  0.2620
  355MOL0     H48933   4.156  11.550  10.406  1.6951 -0.8101  0.1539
  355MOL0     H48934   4.004  11.588  10.487 -0.5140 -0.2044  0.7511
  355MOL0     H48935   4.111  11.741  10.648 -0.3482 -0.1823  0.4883
  355MOL0     H48936   4.176  11.759  10.481 -1.8830  0.2609  0.7404
  355MOL0     H48937   4.304  11.660  10.725 -3.6132 -0.3376  0.3131
  355MOL0     H48938   4.374  11.617  10.561  0.7222 -0.2072  0.8194
  355MOL0     H48939   4.594  11.755  10.647 -1.5988 -1.7291 -1.9668
  355MOL0     H48940   4.729  12.059  10.658  0.5400  4.0826 -0.6169
  355MOL0     H48941   4.673  12.119  10.501 -0.5718 -1.0228 -0.5709
  355MOL0     H48942   4.799  11.845  10.557 -0.7114 -2.6115 -2.9764
  355MOL0     H48943   4.709  11.889  10.419  1.0304 -0.9558  0.4138
  355MOL0     H48944   4.934  11.947  10.344 -1.7272 -1.3669  0.8475
  355MOL0     H48945   4.858  12.103  10.398  1.0376 -0.7054 -1.8582
  355MOL0     H48946   4.954  12.059  10.624 -0.9512  2.6944 -0.8831
  355MOL0     H48947   5.036  11.913  10.559  0.4444 -0.1175 -1.2458
  355MOL0     H48948   5.126  11.854  10.366 -0.1903  0.2590 -0.7891
  355MOL0     H48949   5.341  11.730  10.133  0.9848  0.4932  0.8055
  355MOL0     H48950   5.212  11.700  10.235 -0.5285 -0.1959 -2.6645
  355MOL0     H48951   5.378  11.688  10.301  2.8147  2.0623  0.4513
  355MOL0     H48952   5.609  12.146   9.879 -1.1679 -1.8657  3.9883
  355MOL0     H48953   5.765  12.120   9.692 -3.7694 -0.6799  0.5668
  355MOL0     H48954   6.138  12.016   9.845 -1.0930 -1.8215  1.0954
  355MOL0     H48955   6.194  11.960   9.699 -2.0892 -1.4095 -3.3461
  355MOL0     H48956   6.026  12.229   9.739  1.1058  1.8120 -0.4193
  355MOL0     H48957   6.191  12.222   9.725 -0.7877 -0.6590  2.4488
  355MOL0     H48958   6.044  12.081   9.503 -0.7705  0.3737  0.2438
  355MOL0     H48959   6.200  12.184   9.508  0.7941 -1.2243  0.8203
  355MOL0     H48960   6.051  12.381   9.542 -0.6156  0.6854 -0.7075
  355MOL0     H48961   5.912  12.279   9.541 -0.8175 -0.0160 -0.1271
  355MOL0     H48962   6.115  12.314   9.312  0.3574  0.4426  1.8930
  355MOL0     H48963   5.962  12.225   9.288  0.5342 -0.4719  0.2757
  355MOL0     H48964   6.015  12.515   9.311 -1.8064  1.0706  0.8794
  355MOL0     H48965   5.857  12.449   9.321  0.2016  1.2076 -2.8873
  355MOL0     H48966   5.874  12.493   9.092 -0.5253  0.5396  1.3888
  355MOL0     H48967   5.882  12.322   9.111  0.0877 -1.5810  1.6983
  355MOL0     H48968   6.091  12.327   8.996  0.8245 -0.2934  1.0971
  355MOL0     H48969   6.155  12.427   9.128 -0.9410  1.9070  0.7255
  355MOL0     H48970   5.969  11.821   9.938  1.9898  2.5614  0.1216
  355MOL0     H48971   5.792  11.829  10.088  1.3590 -0.1200 -1.1275
  355MOL0     H48972   5.498  12.175  10.314 -1.0082  1.5603 -1.3108
  355MOL0     H48973   5.312  12.248  10.440 -3.8592  1.6541 -1.7392
  355MOL0     H48974   3.592  11.190  10.527  2.7187  0.8182 -0.4817
  355MOL0     H48975   3.341  11.207  10.489 -0.9274 -1.4103 -0.5409
  355MOL0     H48976   2.989  11.216  10.452 -1.1049  2.5134  0.7313
  355MOL0     H48977   2.753  11.196  10.479  0.9965 -1.7843 -0.4176
  355MOL0     H48978   2.494  11.128  10.405  0.4222  0.1320 -1.0849
  355MOL0     H48979   2.530  11.300  10.449 -0.4290  1.8644 -2.0987
  355MOL0     H48980   2.286  11.239  10.428 -0.6314 -0.4140 -0.8592
  355MOL0     H48981   2.325  11.237  10.247  1.2296  2.7911 -1.7261
  355MOL0     H48982   2.364  11.457  10.449  0.8669 -0.7817  0.0919
  355MOL0     H48983   2.421  11.475  10.291  1.3349  0.6899  2.4979
  355MOL0     H48984   2.196  11.581  10.331  3.1924 -0.1588 -0.2106
  355MOL0     H48985   2.123  11.425  10.359 -1.5916  1.5322  0.3042
  355MOL0     H48986   2.139  11.468   9.931 -3.1391 -0.6995  0.3572
  355MOL0     H48987   2.722  11.261  10.045 -1.0439 -0.9828  0.6120
  355MOL0     H48988   3.052  11.204   9.978 -1.0187 -0.1569 -0.6592
  355MOL0     H48989   2.900  11.261   9.908 -0.2427 -1.5599 -0.3897
  355MOL0     H48990   3.005  11.386   9.977 -1.9785 -0.0435 -1.9888
  356MOL0     O48991   5.070   9.478   5.912  0.2402  0.2476 -0.1644
  356MOL0     C48992   4.978   9.428   5.852  0.2009 -0.0314  0.0513
  356MOL0     O48993   4.983   9.317   5.775  0.2225 -0.7699 -0.3698
  356MOL0     C48994   5.103   9.255   5.763  0.2155 -0.2372 -0.1753
  356MOL0     C48995   5.226   9.314   5.723  0.6535 -0.4419 -0.1147
  356MOL0     C48996   5.344   9.227   5.710  1.0618  0.3537 -0.7358
  356MOL0     C48997   5.329   9.083   5.715  0.3335 -0.4689  0.0865
  356MOL0     O48998   5.432   9.015   5.666  0.0740 -0.5869 -0.6354
  356MOL0     C48999   5.422   8.871   5.688 -0.1316 -0.4528  0.1619
  356MOL0     C49000   5.554   8.802   5.681 -0.4625  0.6989 -0.2832
  356MOL0     C49001   5.664   8.863   5.763 -0.4572  0.0039  0.5506
  356MOL0     C49002   5.807   8.798   5.749  0.2554 -0.1362  0.5391
  356MOL0     C49003   5.912   8.880   5.830 -0.5859 -0.0436  0.1826
  356MOL0     C49004   6.049   8.810   5.827 -0.2242  0.1411 -0.5453
  356MOL0     C49005   6.158   8.905   5.889  0.7215  0.0621 -0.4288
  356MOL0     C49006   6.121   8.947   6.032 -0.3096 -0.0930  0.0039
  356MOL0     N49007   6.234   9.048   6.052 -0.7298 -0.0944  0.0069
  356MOL0     C49008   6.365   9.022   6.077 -0.9245  0.8110 -1.1021
  356MOL0     C49009   6.414   9.143   6.095 -0.0513 -0.5869 -0.0574
  356MOL0     C49010   6.561   9.189   6.124 -0.2451  0.3385 -0.0090
  356MOL0     C49011   6.631   9.224   5.996  0.3305  0.0845 -0.4275
  356MOL0     C49012   6.759   9.290   6.034 -0.7532 -1.0165 -0.3688
  356MOL0     C49013   6.866   9.269   5.934 -0.3086  0.1809  0.4024
  356MOL0     O49014   6.915   9.135   5.926 -0.4679 -0.2421 -0.4500
  356MOL0     C49015   7.044   9.113   5.980 -0.0012  0.7845  0.3056
  356MOL0     C49016   7.061   9.085   6.117  0.0598 -0.6182  0.3606
  356MOL0     C49017   7.190   9.052   6.166  0.1163  0.4899  0.8034
  356MOL0     C49018   7.192   9.018   6.313 -0.8828  0.4776  0.5178
  356MOL0     C49019   7.302   9.052   6.082  0.8355 -0.2925  0.4780
  356MOL0     C49020   7.435   9.000   6.111 -0.0634  1.1193  0.5631
  356MOL0     O49021   7.518   9.004   6.004 -0.0819 -0.2942  0.2394
  356MOL0     C49022   7.654   8.974   6.025  0.0320  0.1793 -0.0395
  356MOL0     C49023   7.725   9.012   6.150  0.8121 -0.0820 -0.1629
  356MOL0     C49024   7.858   8.982   6.169  0.1074  0.2566 -0.1157
  356MOL0     C49025   7.929   8.901   6.076  0.4880  0.9384  0.7953
  356MOL0     O49026   8.060   8.868   6.105 -0.1532 -0.8027 -0.3663
  356MOL0     C49027   8.119   8.764   6.024  0.1962 -0.1189 -0.9339
  356MOL0     C49028   8.217   8.678   6.110  0.6979  0.2235  0.1066
  356MOL0     C49029   8.338   8.748   6.158 -0.3842 -0.2587 -0.1416
  356MOL0     C49030   8.448   8.659   6.220  0.7029 -0.3838 -0.4041
  356MOL0     C49031   8.566   8.735   6.276 -0.5272  0.7529  0.2033
  356MOL0     C49032   8.531   8.806   6.401 -0.9676 -0.1258 -0.3380
  356MOL0     C49033   8.659   8.872   6.471  0.2174 -1.1487  0.3058
  356MOL0     C49034   8.766   8.772   6.522 -0.9177  0.4048  0.4677
  356MOL0    Cl49035   8.920   8.853   6.565  0.2371 -0.3042  0.1969
  356MOL0     C49036   7.867   8.881   5.951  0.0962  0.1900  0.0534
  356MOL0     C49037   7.733   8.916   5.924 -1.1634 -0.5091 -0.4845
  356MOL0     O49038   7.465   8.942   6.217  0.2652 -0.1019  0.0519
  356MOL0     C49039   7.285   9.103   5.949  0.1406  0.4503 -0.0473
  356MOL0     C49040   7.151   9.128   5.900  0.1061 -0.0231  0.2338
  356MOL0     N49041   6.314   9.237   6.071 -0.2313 -0.1086 -0.2371
  356MOL0     N49042   6.203   9.178   6.041 -1.3808 -0.7605  0.4763
  356MOL0     C49043   5.204   9.033   5.747 -0.2398  0.4362  0.2054
  356MOL0     C49044   5.094   9.112   5.768 -0.1635  0.3493 -0.9516
  356MOL0     C49045   4.835   9.499   5.865 -0.0488  0.7488  0.3214
  356MOL0     C49046   4.733   9.452   5.782 -1.0401 -0.2353  0.4045
  356MOL0     C49047   4.612   9.514   5.787 -0.0597  0.7967  0.2524
  356MOL0     C49048   4.587   9.618   5.881  0.2997 -0.4731  0.3020
  356MOL0     O49049   4.465   9.678   5.863 -0.0128 -0.8404 -0.5127
  356MOL0     C49050   4.436   9.779   5.960  0.0364 -0.0365 -0.4542
  356MOL0     C49051   4.306   9.845   5.896  0.9614 -0.4322 -0.4945
  356MOL0     C49052   4.254   9.954   5.992 -0.1451 -0.1647  0.7276
  356MOL0     C49053   4.143  10.044   5.934 -0.3796 -0.6611 -0.7215
  356MOL0     C49054   4.176  10.114   5.809 -0.2805 -1.0879  0.0499
  356MOL0     C49055   4.213  10.158   5.701  0.6492  0.0862 -0.5164
  356MOL0     C49056   4.693   9.660   5.967  1.1731 -0.4897 -1.2086
  356MOL0     C49057   4.808   9.596   5.969 -0.7792 -0.2335  0.3360
  356MOL0     C49058   4.913   9.649   6.063  0.1483 -0.0033 -1.0260
  356MOL0     H49059   5.225   9.421   5.705 -3.5042 -0.1755  0.6576
  356MOL0     H49060   5.438   9.272   5.680 -0.0795  1.1563 -3.5059
  356MOL0     H49061   5.358   8.824   5.612  0.9530 -0.5282 -0.7242
  356MOL0     H49062   5.384   8.852   5.789 -1.8427  0.2994 -0.2962
  356MOL0     H49063   5.540   8.699   5.716  1.7782  0.3554 -0.2128
  356MOL0     H49064   5.582   8.799   5.575  1.1170 -3.2090  0.0532
  356MOL0     H49065   5.667   8.965   5.723 -0.6588 -0.5502 -0.9214
  356MOL0     H49066   5.633   8.885   5.866 -0.0110  0.5109  0.5835
  356MOL0     H49067   5.801   8.692   5.775  0.8127 -0.5937 -1.1276
  356MOL0     H49068   5.834   8.806   5.644 -0.7439  1.2031  0.3478
  356MOL0     H49069   5.868   8.879   5.930 -0.9921  0.6979  0.0277
  356MOL0     H49070   5.920   8.986   5.801 -2.9219  0.2682  0.4725
  356MOL0     H49071   6.052   8.710   5.872  2.7052  0.5124  0.3378
  356MOL0     H49072   6.081   8.789   5.724 -2.2646  1.7071 -1.5470
  356MOL0     H49073   6.184   8.988   5.823  1.5852 -0.5392 -0.8548
  356MOL0     H49074   6.246   8.842   5.898 -0.5458 -1.5363  1.9355
  356MOL0     H49075   6.023   8.996   6.035 -0.3547 -0.1583 -0.3975
  356MOL0     H49076   6.126   8.859   6.098 -1.8484 -0.7827 -0.7365
  356MOL0     H49077   6.428   8.935   6.092  0.1117  1.4531 -1.6079
  356MOL0     H49078   6.620   9.101   6.153  0.9950  1.0909 -0.1839
  356MOL0     H49079   6.566   9.265   6.203  0.5593  1.0740 -0.7441
  356MOL0     H49080   6.646   9.127   5.947  1.6405 -0.2967  0.6490
  356MOL0     H49081   6.568   9.280   5.927 -2.1249 -1.9469  0.0045
  356MOL0     H49082   6.741   9.394   6.064 -0.0342 -0.7137 -0.9493
  356MOL0     H49083   6.797   9.243   6.125 -0.3957 -0.3963 -0.1886
  356MOL0     H49084   6.835   9.283   5.830  2.7142 -0.8891 -0.7693
  356MOL0     H49085   6.943   9.344   5.958 -1.1282  0.6173  1.8284
  356MOL0     H49086   6.976   9.085   6.184 -0.4497 -0.1334 -0.2763
  356MOL0     H49087   7.241   8.922   6.330  3.3313  2.4535  0.8395
  356MOL0     H49088   7.092   9.018   6.356 -1.1002  0.3725  0.0173
  356MOL0     H49089   7.249   9.088   6.376  1.6644 -0.8298 -0.1900
  356MOL0     H49090   7.673   9.050   6.237  3.1018 -3.2783  2.8850
  356MOL0     H49091   7.903   9.018   6.261 -0.2796  0.8214 -0.1446
  356MOL0     H49092   8.047   8.699   5.974 -1.6253  1.8370 -0.9631
  356MOL0     H49093   8.160   8.816   5.938  0.2424  0.8030 -0.3676
  356MOL0     H49094   8.171   8.628   6.197  2.3760 -0.2515  0.7567
  356MOL0     H49095   8.250   8.593   6.049  1.8068  0.4676  0.3495
  356MOL0     H49096   8.315   8.814   6.242  1.4507  0.9056 -0.5014
  356MOL0     H49097   8.388   8.803   6.078 -0.2814  1.6392  1.1584
  356MOL0     H49098   8.493   8.588   6.149 -0.3850 -1.2100 -0.2809
  356MOL0     H49099   8.392   8.601   6.294 -0.4415  3.7596  2.2727
  356MOL0     H49100   8.634   8.653   6.305  0.7543  1.8258  0.3303
  356MOL0     H49101   8.616   8.800   6.204 -1.8153 -0.8663 -2.3116
  356MOL0     H49102   8.481   8.741   6.474  0.8126 -1.0156  0.1437
  356MOL0     H49103   8.455   8.880   6.376  0.3267  1.2633 -0.3171
  356MOL0     H49104   8.625   8.936   6.553 -2.8381 -3.6147  1.1103
  356MOL0     H49105   8.700   8.948   6.404 -0.9351 -0.5626  0.2368
  356MOL0     H49106   8.799   8.697   6.449  1.3392  2.4118 -0.7059
  356MOL0     H49107   8.722   8.722   6.609  0.3094  0.6812  1.2754
  356MOL0     H49108   7.915   8.839   5.864  2.1065  2.2204  0.1075
  356MOL0     H49109   7.681   8.885   5.834 -4.1552 -0.7978  1.1957
  356MOL0     H49110   7.369   9.125   5.884  1.5041  3.6174  2.5281
  356MOL0     H49111   7.148   9.157   5.795  1.2630  0.8043  0.4161
  356MOL0     H49112   5.199   8.925   5.739  1.1705  0.3997 -0.4486
  356MOL0     H49113   5.002   9.060   5.792  0.9219  0.4737  5.4295
  356MOL0     H49114   4.732   9.381   5.700 -1.3879  1.8449 -1.4857
  356MOL0     H49115   4.535   9.479   5.719 -1.0673  3.0541  0.1412
  356MOL0     H49116   4.408   9.747   6.061 -1.3338  5.1339  1.1201
  356MOL0     H49117   4.513   9.856   5.951  0.6640 -0.3611  1.6551
  356MOL0     H49118   4.227   9.772   5.877  1.9993 -1.6102 -0.4341
  356MOL0     H49119   4.327   9.893   5.801 -1.0928 -1.8952 -1.7655
  356MOL0     H49120   4.215   9.913   6.086  1.5317  0.0492  1.5521
  356MOL0     H49121   4.331  10.030   6.005 -0.2983  0.2825 -0.8541
  356MOL0     H49122   4.109  10.122   6.003  0.2417 -2.1893  1.4428
  356MOL0     H49123   4.053   9.988   5.906 -0.7086  0.5354 -2.2151
  356MOL0     H49124   4.241  10.200   5.606 -1.3437  1.2211 -0.6658
  356MOL0     H49125   4.661   9.732   6.043 -1.7199 -1.9837 -0.8605
  356MOL0     H49126   5.012   9.672   6.023  2.0920 -1.1010  2.6846
  356MOL0     H49127   4.874   9.744   6.102 -0.0717  0.3472 -2.0738
  356MOL0     H49128   4.949   9.576   6.136  1.3668  0.6265 -0.9720
  357MOL0     O49129   7.055   5.389   3.912  0.0333  0.2935  0.0458
  357MOL0     C49130   6.983   5.492   3.894  0.1563 -0.4520 -0.6738
  357MOL0     O49131   7.026   5.624   3.890 -0.0503 -1.0974  0.0558
  357MOL0     C49132   7.139   5.645   3.969  0.3887 -0.0369  0.2615
  357MOL0     C49133   7.233   5.735   3.928  0.0688 -0.1677  0.4393
  357MOL0     C49134   7.343   5.781   4.000 -0.9321 -0.6415 -1.8473
  357MOL0     C49135   7.369   5.720   4.128  0.0061 -0.8294  0.7842
  357MOL0     O49136   7.477   5.740   4.212  0.3883 -0.0814  0.0301
  357MOL0     C49137   7.530   5.877   4.206 -0.4091 -0.5188 -1.0058
  357MOL0     C49138   7.634   5.895   4.318  0.0889 -0.0021  0.1462
  357MOL0     C49139   7.560   5.930   4.454  0.1683 -0.7317  0.7685
  357MOL0     C49140   7.642   5.943   4.582 -0.0645 -0.1246  0.1219
  357MOL0     C49141   7.728   6.076   4.581 -0.9084 -0.1975  0.3500
  357MOL0     C49142   7.744   6.151   4.711  0.1186 -0.0113  0.4771
  357MOL0     C49143   7.864   6.240   4.710  0.7657  0.4877  0.5926
  357MOL0     C49144   7.880   6.304   4.846 -0.2697  0.2090  0.1131
  357MOL0     N49145   7.990   6.405   4.857  0.1314  0.4461  0.0148
  357MOL0     C49146   8.021   6.462   4.981  0.0796  0.2545  0.5008
  357MOL0     C49147   8.145   6.526   4.960  0.4279 -0.0215  0.0703
  357MOL0     C49148   8.222   6.624   5.044  0.2278  0.2233  0.4063
  357MOL0     C49149   8.301   6.730   4.962  0.4192 -0.8289 -0.5540
  357MOL0     C49150   8.337   6.857   5.043  0.3115  0.5465 -0.4107
  357MOL0     C49151   8.220   6.947   5.093 -0.1342  0.6728 -0.0078
  357MOL0     O49152   8.260   7.082   5.079 -0.7593  1.0423 -0.1956
  357MOL0     C49153   8.182   7.168   5.149 -0.4355 -0.3772  1.0141
  357MOL0     C49154   8.188   7.172   5.287 -0.0857  0.2998  0.5763
  357MOL0     C49155   8.100   7.255   5.356 -0.4429  0.7624 -0.7756
  357MOL0     C49156   8.128   7.264   5.509  0.0480  0.3848 -0.2967
  357MOL0     C49157   8.005   7.328   5.299  0.8413 -0.1843  0.6393
  357MOL0     C49158   7.903   7.403   5.368  0.3177  0.0385  0.4029
  357MOL0     O49159   7.888   7.535   5.346  0.1694  0.7671 -0.2691
  357MOL0     C49160   7.764   7.582   5.387 -0.0677 -0.1012  1.3195
  357MOL0     C49161   7.760   7.643   5.513  0.1139 -0.2171 -0.5006
  357MOL0     C49162   7.649   7.716   5.558  0.1754  0.2865  1.2250
  357MOL0     C49163   7.540   7.728   5.468  0.2607 -0.3359  0.6350
  357MOL0     O49164   7.436   7.795   5.525  0.0362  0.1105  0.5050
  357MOL0     C49165   7.401   7.922   5.470 -0.2607  0.6852  0.3520
  357MOL0     C49166   7.358   8.014   5.580  0.3223 -0.1707  0.8561
  357MOL0     C49167   7.243   7.953   5.667 -0.3153  0.8364 -0.3323
  357MOL0     C49168   7.154   8.054   5.741 -0.0271  0.5202  0.3614
  357MOL0     C49169   7.022   7.993   5.803 -0.5220  0.0729 -0.2589
  357MOL0     C49170   6.960   8.093   5.906 -0.3324  0.1476  0.7556
  357MOL0     C49171   6.835   8.035   5.963  0.8479  0.1858  0.2485
  357MOL0     C49172   6.746   8.136   6.031  0.4858  0.2939 -0.9634
  357MOL0    Cl49173   6.671   8.263   5.934  0.4857  0.0930  0.1678
  357MOL0     C49174   7.545   7.675   5.337 -1.0938  0.8333 -0.1390
  357MOL0     C49175   7.654   7.594   5.301 -0.3405  0.1238  0.4711
  357MOL0     O49176   7.837   7.333   5.449  0.1123  0.0070 -0.4276
  357MOL0     C49177   7.998   7.320   5.157  0.7518 -0.0456 -0.6124
  357MOL0     C49178   8.087   7.247   5.080  0.2899 -1.4261 -0.1258
  357MOL0     N49179   8.169   6.500   4.833 -0.5245 -0.0888  0.9932
  357MOL0     N49180   8.085   6.427   4.767  0.0029  0.4760  0.2100
  357MOL0     C49181   7.279   5.620   4.174  0.6683  0.3605 -0.0674
  357MOL0     C49182   7.166   5.587   4.099  0.5413  0.6705  0.7103
  357MOL0     C49183   6.853   5.470   3.830 -1.5498  0.0464 -0.4855
  357MOL0     C49184   6.846   5.489   3.690 -0.7018  0.5808  0.2652
  357MOL0     C49185   6.734   5.462   3.621  0.0919 -0.5581 -0.2953
  357MOL0     C49186   6.625   5.399   3.690 -0.3672 -0.3711 -0.0975
  357MOL0     O49187   6.509   5.355   3.636 -0.6513 -0.3323 -0.1474
  357MOL0     C49188   6.488   5.384   3.499  0.1594 -0.0142 -0.3163
  357MOL0     C49189   6.368   5.307   3.439 -0.3465 -0.4605  0.3875
  357MOL0     C49190   6.358   5.327   3.290 -0.0415 -0.2367 -0.3541
  357MOL0     C49191   6.226   5.283   3.222  0.7994 -0.2605  0.2365
  357MOL0     C49192   6.129   5.393   3.258  0.1256  0.3695  0.1445
  357MOL0     C49193   6.037   5.477   3.286 -0.4708 -0.2211 -0.3516
  357MOL0     C49194   6.633   5.363   3.824  0.2140  0.0227 -0.6574
  357MOL0     C49195   6.748   5.404   3.899  0.2049  0.2677  0.4519
  357MOL0     C49196   6.750   5.364   4.040  0.1432  0.5547  0.2216
  357MOL0     H49197   7.222   5.794   3.837 -1.0598 -1.8715 -0.5956
  357MOL0     H49198   7.408   5.860   3.964 -2.3605  2.0927  1.1013
  357MOL0     H49199   7.453   5.954   4.219  0.3858 -0.0021  1.1699
  357MOL0     H49200   7.579   5.896   4.110  0.1249  3.7464 -0.0834
  357MOL0     H49201   7.710   5.816   4.327 -0.1048 -0.0423  1.7009
  357MOL0     H49202   7.680   5.990   4.294 -0.8814  0.1983 -1.0015
  357MOL0     H49203   7.502   6.018   4.428  1.9482  0.3130  0.1597
  357MOL0     H49204   7.490   5.846   4.463  1.1384 -1.8719 -1.3241
  357MOL0     H49205   7.578   5.952   4.670 -1.1297 -0.4193 -0.6010
  357MOL0     H49206   7.705   5.855   4.599  0.0215 -0.7387 -2.8096
  357MOL0     H49207   7.687   6.149   4.511 -0.0661  1.6734  1.7033
  357MOL0     H49208   7.826   6.054   4.536 -0.4629  0.9026  0.7380
  357MOL0     H49209   7.654   6.209   4.737  1.9103  2.2828  1.9774
  357MOL0     H49210   7.754   6.081   4.794 -1.4514 -2.3850 -1.2091
  357MOL0     H49211   7.854   6.319   4.635 -3.0491 -0.8382 -0.5197
  357MOL0     H49212   7.954   6.180   4.692  0.2051  0.4343 -2.6065
  357MOL0     H49213   7.788   6.362   4.860 -0.0095  0.9822 -1.2070
  357MOL0     H49214   7.897   6.236   4.930  3.4030  1.0092  0.1814
  357MOL0     H49215   7.965   6.444   5.072  0.0919  0.0607  0.4702
  357MOL0     H49216   8.288   6.566   5.109  0.4649 -1.2959 -1.1397
  357MOL0     H49217   8.150   6.678   5.107 -0.2323  0.2251 -0.1094
  357MOL0     H49218   8.383   6.681   4.909  1.8380 -1.5555  2.1292
  357MOL0     H49219   8.227   6.770   4.892 -2.6277 -1.9861  1.7903
  357MOL0     H49220   8.396   6.829   5.131 -0.1749 -2.6734 -0.9834
  357MOL0     H49221   8.403   6.917   4.979  0.6060 -0.3788 -1.0015
  357MOL0     H49222   8.128   6.936   5.034  0.4858  0.4049 -0.9542
  357MOL0     H49223   8.200   6.914   5.195  0.5016  0.9923  0.2264
  357MOL0     H49224   8.268   7.116   5.334 -0.3656  1.7037  2.8633
  357MOL0     H49225   8.106   7.363   5.550 -0.9638  0.6722 -1.4819
  357MOL0     H49226   8.236   7.250   5.521  0.3526  0.4517 -2.5031
  357MOL0     H49227   8.068   7.198   5.572  0.1750  1.3087  0.8197
  357MOL0     H49228   7.852   7.636   5.570  0.2251 -2.4708 -0.8581
  357MOL0     H49229   7.653   7.750   5.661  0.7844  0.5160  1.1317
  357MOL0     H49230   7.485   7.962   5.413 -0.1551  0.2168  0.1764
  357MOL0     H49231   7.321   7.904   5.398  0.9529  0.1691 -0.8997
  357MOL0     H49232   7.435   8.041   5.653 -0.5716  1.0384  1.3946
  357MOL0     H49233   7.324   8.104   5.528 -0.0838 -0.4090  0.7056
  357MOL0     H49234   7.287   7.880   5.735 -0.8075  2.0503  1.3519
  357MOL0     H49235   7.173   7.894   5.607 -5.4767  3.1885  2.6302
  357MOL0     H49236   7.138   8.142   5.677  0.1353  1.5342  1.6639
  357MOL0     H49237   7.222   8.087   5.821  0.0573 -1.2761  1.0879
  357MOL0     H49238   6.945   7.956   5.735 -0.5361  0.2061 -0.3172
  357MOL0     H49239   7.059   7.901   5.849  2.7962  1.0055 -0.8124
  357MOL0     H49240   6.939   8.191   5.860 -0.4654 -0.5755 -0.7810
  357MOL0     H49241   7.031   8.115   5.986 -0.3249 -1.9200  1.3644
  357MOL0     H49242   6.865   7.957   6.034  1.6365  1.7555  1.7166
  357MOL0     H49243   6.776   8.008   5.875  0.4222  0.9833  0.2799
  357MOL0     H49244   6.787   8.185   6.120 -0.3266 -0.4751 -0.1393
  357MOL0     H49245   6.673   8.069   6.077  1.1428  0.5465  0.5267
  357MOL0     H49246   7.460   7.702   5.276 -1.6847 -2.7868 -1.1665
  357MOL0     H49247   7.662   7.553   5.201 -0.9611 -1.8910  1.2003
  357MOL0     H49248   7.925   7.386   5.111  0.8228  0.3982 -0.1017
  357MOL0     H49249   8.073   7.231   4.974  0.3607  0.3291 -0.4205
  357MOL0     H49250   7.288   5.575   4.272 -4.5020  1.0526  1.0372
  357MOL0     H49251   7.096   5.510   4.130 -0.4674  1.7135  1.1102
  357MOL0     H49252   6.940   5.516   3.642  0.1130  0.8535  1.9438
  357MOL0     H49253   6.738   5.487   3.515  1.2344  1.1790  0.1157
  357MOL0     H49254   6.485   5.492   3.479  2.7534 -0.1715 -1.8842
  357MOL0     H49255   6.577   5.352   3.445  0.6285 -0.0913  0.4887
  357MOL0     H49256   6.277   5.334   3.494 -1.4438 -2.9796 -0.0403
  357MOL0     H49257   6.395   5.201   3.446  0.8914 -0.1393  0.7242
  357MOL0     H49258   6.387   5.430   3.267  0.8139 -0.2136  0.7658
  357MOL0     H49259   6.436   5.265   3.245  0.4491 -1.3975  1.9556
  357MOL0     H49260   6.198   5.185   3.261 -0.6550  0.5674  1.3540
  357MOL0     H49261   6.220   5.285   3.112 -5.6734  2.3924  0.2208
  357MOL0     H49262   5.969   5.559   3.296 -0.2481  0.4348 -3.2376
  357MOL0     H49263   6.559   5.301   3.874  1.5455 -0.2504  1.0701
  357MOL0     H49264   6.664   5.307   4.077 -0.1585 -1.3739 -3.0547
  357MOL0     H49265   6.837   5.301   4.054  2.6424  3.7020  0.1002
  357MOL0     H49266   6.753   5.452   4.105 -1.3879 -0.2919  1.5220
  358MOL0     O49267  10.348   3.870   8.331 -0.0983  1.1007 -0.6789
  358MOL0     C49268  10.230   3.823   8.357 -0.5233  0.0062  0.1272
  358MOL0     O49269  10.140   3.779   8.265  0.1920 -0.2548  1.2586
  358MOL0     C49270  10.169   3.808   8.136  0.0430 -0.2140 -0.3789
  358MOL0     C49271  10.256   3.732   8.061 -0.4263  0.7090  0.0074
  358MOL0     C49272  10.290   3.773   7.926 -0.7539 -0.6828 -0.1692
  358MOL0     C49273  10.255   3.895   7.870  0.3886 -0.4708 -0.0333
  358MOL0     O49274  10.266   3.927   7.742  0.4143 -0.9439  0.0066
  358MOL0     C49275  10.176   3.862   7.652  0.6770 -0.3381 -0.4772
  358MOL0     C49276  10.175   3.948   7.523  0.0850 -0.1216  0.4786
  358MOL0     C49277  10.052   3.924   7.435 -0.1887 -0.2836 -0.5880
  358MOL0     C49278   9.929   4.002   7.486  0.0307  0.8996 -0.0974
  358MOL0     C49279   9.839   4.024   7.367  0.2490 -0.2525 -0.4544
  358MOL0     C49280   9.695   4.084   7.402 -0.9190 -0.0087  0.5313
  358MOL0     C49281   9.614   4.123   7.286  0.1061 -0.5900 -0.0078
  358MOL0     C49282   9.689   4.168   7.153 -0.7905 -0.6093 -0.7603
  358MOL0     N49283   9.592   4.243   7.084  0.5867  0.1098 -0.3434
  358MOL0     C49284   9.484   4.194   7.016 -0.4890  0.7027  0.5606
  358MOL0     C49285   9.412   4.297   6.963 -0.1304 -0.1109 -0.0229
  358MOL0     C49286   9.278   4.289   6.887 -0.6893 -0.1335 -0.6501
  358MOL0     C49287   9.187   4.195   6.965 -0.1704  0.4072  0.1608
  358MOL0     C49288   9.051   4.200   6.891  0.7347  0.1702 -0.6029
  358MOL0     C49289   8.948   4.111   6.956  0.4760 -0.7015 -0.5760
  358MOL0     O49290   8.826   4.102   6.870 -0.0044 -0.6100  0.9003
  358MOL0     C49291   8.720   4.040   6.933 -0.4912  0.0402 -0.8062
  358MOL0     C49292   8.591   4.059   6.900  0.1900  0.8060 -0.1541
  358MOL0     C49293   8.472   3.990   6.946 -0.0394 -0.2215 -0.0634
  358MOL0     C49294   8.347   4.036   6.881 -1.2620  0.8753  0.0072
  358MOL0     C49295   8.494   3.890   7.046  0.2354 -0.7812 -0.7513
  358MOL0     C49296   8.388   3.814   7.106  0.1905  0.9713 -0.4361
  358MOL0     O49297   8.415   3.687   7.153  0.3211  0.9123  0.3771
  358MOL0     C49298   8.326   3.611   7.215  0.6542 -0.5040  0.6963
  358MOL0     C49299   8.334   3.475   7.206 -0.3710 -0.4309  0.8909
  358MOL0     C49300   8.242   3.385   7.257  0.3982  0.4565  0.2152
  358MOL0     C49301   8.155   3.434   7.357  0.5118 -0.3326  0.2353
  358MOL0     O49302   8.093   3.354   7.448  0.3073  0.1039 -0.0597
  358MOL0     C49303   8.014   3.243   7.415  0.1768 -0.5942 -0.2119
  358MOL0     C49304   7.992   3.170   7.544 -0.3949 -0.0453  0.9731
  358MOL0     C49305   7.929   3.034   7.518 -0.0720  0.1182  0.6302
  358MOL0     C49306   7.775   3.026   7.495 -0.0197 -0.9654 -0.1396
  358MOL0     C49307   7.744   2.879   7.474 -0.3995  0.2989  0.1035
  358MOL0     C49308   7.610   2.829   7.518  0.3556 -0.1209 -0.0170
  358MOL0     C49309   7.491   2.892   7.445 -0.9119  0.8206  0.1928
  358MOL0     C49310   7.437   3.021   7.494  0.9043  0.5621 -0.3964
  358MOL0    Cl49311   7.277   3.048   7.414  0.4266  0.1922  0.1370
  358MOL0     C49312   8.156   3.570   7.382  0.1316  0.9578  0.2401
  358MOL0     C49313   8.237   3.653   7.312  0.0171 -0.2509 -0.1167
  358MOL0     O49314   8.275   3.869   7.118 -0.6625  0.1145 -0.0378
  358MOL0     C49315   8.625   3.857   7.078  0.4436 -0.6144 -0.8907
  358MOL0     C49316   8.731   3.933   7.032  0.1968 -0.7118 -0.0218
  358MOL0     N49317   9.486   4.411   6.984  1.4991  0.7802 -0.7721
  358MOL0     N49318   9.587   4.380   7.062 -0.1767  1.3637 -0.3278
  358MOL0     C49319  10.168   3.970   7.949 -0.6828  0.9375 -0.3843
  358MOL0     C49320  10.127   3.926   8.070  0.0341 -0.1059  0.2274
  358MOL0     C49321  10.196   3.805   8.500 -0.6797 -0.7828 -0.6484
  358MOL0     C49322  10.291   3.767   8.593 -0.2384 -0.6009 -0.8611
  358MOL0     C49323  10.273   3.745   8.727 -0.8380  0.1909 -0.1347
  358MOL0     C49324  10.150   3.783   8.788 -0.3894  0.8118  0.6894
  358MOL0     O49325  10.114   3.784   8.922 -0.6705 -0.7247  0.1095
  358MOL0     C49326  10.212   3.735   9.016 -0.3930  0.0487  0.4053
  358MOL0     C49327  10.149   3.730   9.157  0.7192  0.4781  1.2837
  358MOL0     C49328  10.011   3.667   9.166  0.6293 -0.1321 -0.3150
  358MOL0     C49329   9.937   3.649   9.299  0.1310  0.2400  0.2265
  358MOL0     C49330  10.013   3.593   9.409 -0.5570 -0.5650 -0.4698
  358MOL0     C49331  10.075   3.547   9.504 -0.3274  0.0787 -1.2252
  358MOL0     C49332  10.061   3.834   8.697  0.3529 -0.1099 -0.4043
  358MOL0     C49333  10.079   3.840   8.555  0.7678 -0.8683 -0.4760
  358MOL0     C49334   9.970   3.914   8.481 -0.4410  0.6428 -0.5444
  358MOL0     H49335  10.288   3.639   8.106 -1.0486 -0.6530 -2.1902
  358MOL0     H49336  10.345   3.716   7.852 -0.4039  1.8714 -2.0077
  358MOL0     H49337  10.071   3.864   7.684  0.4523 -2.6298 -0.9117
  358MOL0     H49338  10.200   3.763   7.614 -1.2554 -0.6033 -1.1489
  358MOL0     H49339  10.175   4.054   7.547  1.6142  0.3090 -1.1988
  358MOL0     H49340  10.261   3.923   7.460 -0.9105  0.0501 -1.0096
  358MOL0     H49341  10.086   3.963   7.339 -0.5851  1.0690 -0.2083
  358MOL0     H49342  10.033   3.817   7.433 -0.2610 -0.2693 -0.7053
  358MOL0     H49343   9.860   3.941   7.546 -0.2990  0.4380 -0.9170
  358MOL0     H49344   9.955   4.097   7.531 -0.8539  1.7635 -1.3238
  358MOL0     H49345   9.822   3.934   7.307  3.3848 -1.3908  0.1567
  358MOL0     H49346   9.890   4.101   7.308 -1.4354  0.1455 -1.4424
  358MOL0     H49347   9.640   4.000   7.447  1.9942 -3.4420 -1.7031
  358MOL0     H49348   9.702   4.164   7.476 -2.0327 -1.0925  1.8983
  358MOL0     H49349   9.554   4.206   7.325 -0.4085 -0.8715 -0.1886
  358MOL0     H49350   9.558   4.034   7.254  1.9737 -1.4104 -1.1389
  358MOL0     H49351   9.773   4.223   7.196  0.4149 -1.7701 -1.5377
  358MOL0     H49352   9.710   4.074   7.101  1.1316 -0.8647  0.4078
  358MOL0     H49353   9.455   4.090   7.006 -1.7550  1.2256 -1.7584
  358MOL0     H49354   9.284   4.269   6.779  0.0975  0.4306 -0.7241
  358MOL0     H49355   9.241   4.390   6.903 -1.7881 -0.5010 -0.8143
  358MOL0     H49356   9.221   4.091   6.967 -1.7784 -0.2091 -1.5069
  358MOL0     H49357   9.177   4.233   7.067  2.3554  0.3686  0.4933
  358MOL0     H49358   9.015   4.303   6.881  0.5432  0.0594 -1.0890
  358MOL0     H49359   9.072   4.170   6.787  0.6446  2.8631 -1.4863
  358MOL0     H49360   8.993   4.017   6.988 -2.4748 -1.4357  1.8625
  358MOL0     H49361   8.907   4.163   7.043 -3.5025 -1.6161 -1.7373
  358MOL0     H49362   8.583   4.134   6.822  1.0553  0.6524 -0.4010
  358MOL0     H49363   8.363   4.107   6.800 -2.1494 -0.8960 -1.8039
  358MOL0     H49364   8.277   4.087   6.947 -2.3033 -0.8463  0.2878
  358MOL0     H49365   8.291   3.950   6.842 -2.6351  0.2559  3.0470
  358MOL0     H49366   8.410   3.425   7.147  0.3963  2.8228 -1.1633
  358MOL0     H49367   8.243   3.278   7.240  1.9603  0.2359  1.4423
  358MOL0     H49368   7.915   3.282   7.393 -0.8924 -0.9519  3.4564
  358MOL0     H49369   8.059   3.189   7.330 -2.1440 -1.4167 -0.9927
  358MOL0     H49370   8.094   3.150   7.581  0.1616 -1.8876 -1.3166
  358MOL0     H49371   7.932   3.231   7.612 -1.5704  0.4645 -0.4855
  358MOL0     H49372   7.934   2.970   7.606 -4.9666 -3.5285 -1.2683
  358MOL0     H49373   7.980   2.980   7.438 -0.1964  0.8366  0.0498
  358MOL0     H49374   7.739   3.075   7.403  0.4049 -5.1762 -2.8011
  358MOL0     H49375   7.731   3.070   7.585 -0.4062 -0.3542 -0.6114
  358MOL0     H49376   7.751   2.864   7.366 -0.0710  0.1344  0.1459
  358MOL0     H49377   7.813   2.810   7.524 -0.6084 -3.5797 -4.2736
  358MOL0     H49378   7.601   2.847   7.626 -2.9044  2.8875 -0.5675
  358MOL0     H49379   7.597   2.721   7.515 -0.5987 -0.0441  0.8788
  358MOL0     H49380   7.410   2.820   7.459  0.4133 -0.9426 -0.6772
  358MOL0     H49381   7.524   2.904   7.341  0.0184  4.9439  0.7853
  358MOL0     H49382   7.503   3.104   7.467  0.4448  1.2091  0.4019
  358MOL0     H49383   7.436   3.009   7.603  1.2711 -1.0869 -0.5556
  358MOL0     H49384   8.086   3.601   7.459 -3.6702 -1.6636 -1.8648
  358MOL0     H49385   8.236   3.760   7.332  1.1056 -0.2366 -0.0527
  358MOL0     H49386   8.640   3.769   7.140 -0.7311 -1.7232 -2.1150
  358MOL0     H49387   8.830   3.900   7.061  0.7178 -0.3496 -1.3379
  358MOL0     H49388  10.117   4.059   7.914 -3.6011 -0.0633  1.0384
  358MOL0     H49389  10.063   3.992   8.129  0.0007 -0.5120  0.6544
  358MOL0     H49390  10.390   3.741   8.559 -0.0190 -0.4463 -0.3415
  358MOL0     H49391  10.357   3.701   8.779 -1.1934 -0.9548 -0.4926
  358MOL0     H49392  10.243   3.634   8.989  2.2557  1.2750 -1.5933
  358MOL0     H49393  10.302   3.796   9.009  1.0072 -2.0406 -1.2790
  358MOL0     H49394  10.142   3.834   9.191  4.5877  1.7457 -1.0961
  358MOL0     H49395  10.224   3.690   9.225  4.0731  3.0416 -0.5992
  358MOL0     H49396   9.944   3.722   9.099  2.5419 -0.5063 -2.6937
  358MOL0     H49397  10.023   3.567   9.123  1.0318  1.1636 -3.4806
  358MOL0     H49398   9.854   3.580   9.281 -0.3270  1.5326 -3.2721
  358MOL0     H49399   9.900   3.746   9.333 -3.3029 -1.6745  2.6655
  358MOL0     H49400  10.129   3.497   9.582 -1.8909 -0.3073 -0.3657
  358MOL0     H49401   9.965   3.865   8.740  0.9990 -0.2087  1.1941
  358MOL0     H49402   9.891   3.847   8.446 -0.0520 -0.3705  0.4492
  358MOL0     H49403   9.901   3.980   8.534 -2.6083 -1.3238 -0.7789
  358MOL0     H49404  10.011   3.968   8.395  0.7864  1.3793  0.4575
  359MOL0     O49405  10.552   5.420  11.120  0.1760 -0.9085  0.5121
  359MOL0     C49406  10.649   5.451  11.194  0.5906 -0.3853 -0.0263
  359MOL0     O49407  10.781   5.414  11.176 -0.3113  0.1529  0.2986
  359MOL0     C49408  10.836   5.344  11.067 -0.4626  0.5242 -0.0445
  359MOL0     C49409  10.957   5.266  11.084  0.2896  0.4220  0.2319
  359MOL0     C49410  11.004   5.180  10.989 -0.1604 -0.1715  0.8317
  359MOL0     C49411  10.939   5.171  10.864  0.7799  0.7704 -0.1363
  359MOL0     O49412  10.974   5.101  10.756  0.0311  0.3044  0.8517
  359MOL0     C49413  11.072   5.160  10.664 -0.0311  0.1623  0.3964
  359MOL0     C49414  11.125   5.064  10.556 -0.6657 -0.2976 -0.6103
  359MOL0     C49415  11.018   4.994  10.468 -0.4858 -0.8643  0.3472
  359MOL0     C49416  11.074   4.923  10.349 -0.3920 -0.2289 -0.1971
  359MOL0     C49417  10.964   4.861  10.261 -0.1323  0.2228 -0.4144
  359MOL0     C49418  11.023   4.778  10.139 -0.5504  0.4079  0.0050
  359MOL0     C49419  11.121   4.665  10.152  0.7632  0.0130 -0.3072
  359MOL0     C49420  11.068   4.538  10.214 -0.4615  0.2799  0.7622
  359MOL0     N49421  11.047   4.541  10.358 -0.0002  0.3083 -0.9603
  359MOL0     C49422  11.141   4.566  10.452 -0.4168 -0.0774  0.0646
  359MOL0     C49423  11.088   4.575  10.577  0.6259  0.0040 -0.1354
  359MOL0     C49424  11.169   4.622  10.690  0.3643  0.0759 -0.1072
  359MOL0     C49425  11.163   4.522  10.808 -0.2428  0.7974  0.0871
  359MOL0     C49426  11.033   4.514  10.886  0.2232  0.3874 -1.3520
  359MOL0     C49427  10.971   4.646  10.925 -0.2798  0.0529 -0.2226
  359MOL0     O49428  10.859   4.619  11.020 -0.0296  0.4490  0.3193
  359MOL0     C49429  10.757   4.702  11.048 -0.6744 -0.2941  1.2667
  359MOL0     C49430  10.665   4.657  11.131 -0.5618  0.3851 -0.2583
  359MOL0     C49431  10.550   4.732  11.163  0.1071  0.0288  0.0477
  359MOL0     C49432  10.444   4.662  11.244 -0.4793  0.5389 -0.5544
  359MOL0     C49433  10.535   4.866  11.118  0.4056 -0.6667 -0.3926
  359MOL0     C49434  10.420   4.954  11.142  0.2038  0.2760  1.2878
  359MOL0     O49435  10.394   5.058  11.045 -0.1743 -0.2875 -0.0410
  359MOL0     C49436  10.263   5.110  11.059  0.4990  0.5845  0.7180
  359MOL0     C49437  10.155   5.057  10.980 -0.7276  0.2064 -0.3944
  359MOL0     C49438  10.026   5.106  10.998  0.3822  0.0404  0.0769
  359MOL0     C49439   9.984   5.204  11.093  0.1824  0.6059 -0.1052
  359MOL0     O49440   9.863   5.244  11.119  0.1299 -0.1972 -0.4730
  359MOL0     C49441   9.747   5.164  11.077 -1.9350  0.0606 -0.0721
  359MOL0     C49442   9.686   5.226  10.951 -1.0426 -0.0297 -0.1430
  359MOL0     C49443   9.527   5.229  10.956  0.7775  0.3331  0.0622
  359MOL0     C49444   9.455   5.294  11.079  1.4754  0.2255 -0.6600
  359MOL0     C49445   9.297   5.316  11.076 -0.3439  0.1443  0.0120
  359MOL0     C49446   9.231   5.319  11.223 -0.0231  0.4527  0.1098
  359MOL0     C49447   9.265   5.438  11.304  0.2150 -0.4663 -0.2654
  359MOL0     C49448   9.219   5.433  11.454  0.3455 -0.4658  0.0703
  359MOL0    Cl49449   9.235   5.600  11.519  0.2838 -0.2982 -0.2954
  359MOL0     C49450  10.100   5.261  11.155  0.6113  0.0456  0.0298
  359MOL0     C49451  10.236   5.217  11.146  0.8167  0.4769 -0.1583
  359MOL0     O49452  10.352   4.927  11.240  0.5514  0.1620 -0.3146
  359MOL0     C49453  10.640   4.919  11.034  0.0091 -0.1844 -0.6220
  359MOL0     C49454  10.743   4.838  11.004  0.7805 -0.2511 -0.4090
  359MOL0     N49455  10.950   4.564  10.557 -0.3404 -0.3602 -0.2110
  359MOL0     N49456  10.931   4.540  10.426 -0.2296  0.0051 -0.5241
  359MOL0     C49457  10.830   5.259  10.845 -0.1522  1.5573  1.0817
  359MOL0     C49458  10.777   5.345  10.944 -0.3789  0.7902  1.2352
  359MOL0     C49459  10.604   5.516  11.319  0.7437  0.1242  0.1459
  359MOL0     C49460  10.695   5.520  11.421  0.7437 -0.4398 -1.4975
  359MOL0     C49461  10.668   5.592  11.535  0.0396  0.4384 -0.3449
  359MOL0     C49462  10.547   5.662  11.543 -0.1136 -0.5005  0.0738
  359MOL0     O49463  10.519   5.725  11.656 -0.0158 -0.3049 -0.0410
  359MOL0     C49464  10.411   5.828  11.655 -0.2208  0.0171  0.1312
  359MOL0     C49465  10.401   5.898  11.795  0.0230 -0.5931  0.4981
  359MOL0     C49466  10.380   5.807  11.917 -0.1407 -0.5873 -0.4931
  359MOL0     C49467  10.408   5.883  12.046 -0.2201 -0.3634  0.7485
  359MOL0     C49468  10.423   5.791  12.159  0.0489 -0.0940 -0.0802
  359MOL0     C49469  10.441   5.711  12.244  0.9539 -0.3417 -0.6135
  359MOL0     C49470  10.460   5.664  11.441  0.7873  0.7090 -0.4208
  359MOL0     C49471  10.487   5.582  11.339 -0.9506 -1.0965  0.8891
  359MOL0     C49472  10.373   5.581  11.245 -0.1812 -0.0160  0.4661
  359MOL0     H49473  11.004   5.275  11.181  1.2121  0.6132 -0.2213
  359MOL0     H49474  11.083   5.108  11.006  0.2019  0.3099  1.2371
  359MOL0     H49475  11.159   5.193  10.721  1.2542 -1.8875 -0.2700
  359MOL0     H49476  11.023   5.242  10.611 -0.0468  0.6039  1.0889
  359MOL0     H49477  11.186   5.131  10.494 -0.0271  0.1734  0.4883
  359MOL0     H49478  11.189   4.990  10.605  0.2877 -0.4120 -1.9901
  359MOL0     H49479  10.959   4.925  10.530  1.1798 -0.0546  2.9842
  359MOL0     H49480  10.953   5.078  10.442 -0.4185 -0.7313  0.6140
  359MOL0     H49481  11.133   4.984  10.281  0.7435 -0.9535  0.1092
  359MOL0     H49482  11.147   4.853  10.390  0.3262  0.9059  0.5022
  359MOL0     H49483  10.899   4.942  10.229 -0.1255 -0.3413 -1.9568
  359MOL0     H49484  10.914   4.787  10.323 -1.0665 -1.4374 -2.9996
  359MOL0     H49485  10.938   4.723  10.096 -1.3613 -0.3204  2.3951
  359MOL0     H49486  11.064   4.859  10.077 -0.4539 -0.0384 -0.5326
  359MOL0     H49487  11.207   4.687  10.216 -0.2228  0.4388  0.9023
  359MOL0     H49488  11.147   4.648  10.047 -2.5888  1.6510 -1.5295
  359MOL0     H49489  10.976   4.504  10.165  1.9971  0.3593 -4.5392
  359MOL0     H49490  11.142   4.459  10.197  0.0812  1.3406 -2.4665
  359MOL0     H49491  11.240   4.604  10.426  0.2132 -0.4255  1.8242
  359MOL0     H49492  11.149   4.721  10.731 -2.6212 -0.5387  0.0943
  359MOL0     H49493  11.273   4.629  10.656 -0.2812  1.7886 -1.8713
  359MOL0     H49494  11.193   4.427  10.763 -3.1067  0.6852 -1.7886
  359MOL0     H49495  11.239   4.550  10.883 -0.3328  2.1714 -0.3076
  359MOL0     H49496  10.958   4.469  10.819 -1.4085 -0.0485  0.6529
  359MOL0     H49497  11.054   4.440  10.963  1.9460  0.4292 -1.7549
  359MOL0     H49498  11.049   4.701  10.978 -1.4489  2.0320 -0.4522
  359MOL0     H49499  10.938   4.703  10.838  2.6464 -1.2316 -2.3655
  359MOL0     H49500  10.669   4.553  11.163 -1.4639  0.6417  0.7561
  359MOL0     H49501  10.362   4.633  11.178 -0.2675 -1.0257 -0.1697
  359MOL0     H49502  10.392   4.718  11.323 -0.1835 -0.3697  0.3029
  359MOL0     H49503  10.488   4.574  11.291  0.8125  0.6704 -1.4781
  359MOL0     H49504  10.185   4.980  10.909  4.4433  2.0366 -0.6156
  359MOL0     H49505   9.962   5.046  10.934 -0.0545 -0.4146  0.9204
  359MOL0     H49506   9.775   5.060  11.057  1.9361  0.7546  1.0221
  359MOL0     H49507   9.678   5.154  11.162  1.0839  1.2520  2.7134
  359MOL0     H49508   9.711   5.332  10.941 -3.3159  0.3686 -3.0653
  359MOL0     H49509   9.713   5.168  10.863 -2.8437  0.5553 -1.1376
  359MOL0     H49510   9.486   5.128  10.948 -1.6433  1.3990 -3.5431
  359MOL0     H49511   9.485   5.275  10.866  1.0700 -1.3829 -0.9953
  359MOL0     H49512   9.500   5.394  11.090 -1.8156  2.0521 -2.2851
  359MOL0     H49513   9.475   5.251  11.178  2.4611 -0.6559 -1.2301
  359MOL0     H49514   9.274   5.402  11.012 -2.7519  1.3022  2.2289
  359MOL0     H49515   9.252   5.233  11.021 -0.1468 -2.0122  2.8412
  359MOL0     H49516   9.268   5.233  11.280  1.3087  2.0726  1.8000
  359MOL0     H49517   9.123   5.306  11.213  0.0272  0.3725 -0.3771
  359MOL0     H49518   9.224   5.524  11.249  1.0795  1.2884  1.6908
  359MOL0     H49519   9.374   5.453  11.300  0.1913  0.9706  2.3443
  359MOL0     H49520   9.283   5.360  11.504 -0.4826 -2.6048 -1.8269
  359MOL0     H49521   9.116   5.398  11.451  0.2280 -0.2360  1.0280
  359MOL0     H49522  10.066   5.331  11.231 -2.8312 -0.0318 -1.2422
  359MOL0     H49523  10.318   5.257  11.204  2.9923 -1.3948 -1.7355
  359MOL0     H49524  10.635   5.022  10.999  0.8290 -0.8486 -2.8586
  359MOL0     H49525  10.826   4.887  10.953 -1.8737  3.5410 -1.5502
  359MOL0     H49526  10.779   5.247  10.750  0.1669 -0.6538  1.1505
  359MOL0     H49527  10.683   5.396  10.923 -0.1521  0.3006 -1.3748
  359MOL0     H49528  10.782   5.455  11.420  1.1579  0.1054 -1.4611
  359MOL0     H49529  10.738   5.600  11.617 -1.5319  0.5136  1.0545
  359MOL0     H49530  10.447   5.904  11.586  0.7614 -1.5019 -1.1025
  359MOL0     H49531  10.311   5.798  11.622  0.5732  0.7200 -3.2556
  359MOL0     H49532  10.317   5.968  11.792 -0.4548 -0.7064  4.8815
  359MOL0     H49533  10.492   5.959  11.805  0.2524 -0.5570 -1.4646
  359MOL0     H49534  10.278   5.768  11.917 -0.5740  0.3361  2.3027
  359MOL0     H49535  10.462   5.734  11.916 -0.7047 -1.2472  0.1783
  359MOL0     H49536  10.323   5.949  12.067 -1.8383 -1.0856 -2.8729
  359MOL0     H49537  10.496   5.947  12.044 -0.6809  0.2987  1.2673
  359MOL0     H49538  10.453   5.626  12.308  2.0091 -2.3887 -3.3323
  359MOL0     H49539  10.370   5.724  11.449  1.4499  1.9134 -1.6399
  359MOL0     H49540  10.345   5.480  11.215  1.2213 -0.4156  0.4278
  359MOL0     H49541  10.285   5.625  11.293 -1.0692 -0.8335 -0.3722
  359MOL0     H49542  10.402   5.633  11.153  1.2942  0.5808  1.2291
  360MOL0     O49543   9.833   1.159   1.469 -0.3543  0.0834  0.0542
  360MOL0     C49544   9.902   1.120   1.370 -0.3790 -0.1687  0.8837
  360MOL0     O49545  10.038   1.088   1.372 -0.2605 -0.2685 -0.5467
  360MOL0     C49546  10.109   1.113   1.479  0.1148  0.8494  0.9306
  360MOL0     C49547  10.211   1.021   1.489  0.2774  0.0547 -0.9999
  360MOL0     C49548  10.306   1.038   1.596  0.9135 -0.2000 -0.2960
  360MOL0     C49549  10.297   1.144   1.685 -0.5232  0.1237 -0.7506
  360MOL0     O49550  10.401   1.173   1.778 -0.5825 -0.3887 -0.4669
  360MOL0     C49551  10.535   1.108   1.775 -0.1253 -0.7611  0.1508
  360MOL0     C49552  10.548   1.029   1.911  0.5115 -0.0069  0.6659
  360MOL0     C49553  10.473   0.893   1.900 -0.2557 -0.4247  0.1764
  360MOL0     C49554  10.484   0.814   2.027 -0.7734 -0.1200  1.4676
  360MOL0     C49555  10.354   0.729   2.043 -0.0617  0.3770 -0.5408
  360MOL0     C49556  10.346   0.607   1.949  0.3283 -0.8193 -0.6122
  360MOL0     C49557  10.211   0.542   1.943  0.2569 -0.9812 -0.8977
  360MOL0     C49558  10.210   0.424   1.846  0.5144  0.3215  0.7437
  360MOL0     N49559  10.248   0.293   1.892  0.7153  0.2625 -0.2589
  360MOL0     C49560  10.376   0.255   1.930  0.0482 -0.7800 -0.2503
  360MOL0     C49561  10.377   0.119   1.932  0.0053 -1.0426  0.4422
  360MOL0     C49562  10.504   0.048   1.968 -0.1520  0.9118 -0.2599
  360MOL0     C49563  10.512  -0.022   2.108  0.0132  0.0432  0.3780
  360MOL0     C49564  10.455  -0.167   2.101 -0.3055  0.0093  0.4114
  360MOL0     C49565  10.561  -0.269   2.047 -0.1013 -0.2581 -0.4375
  360MOL0     O49566  10.699  -0.256   2.105 -0.2584 -1.2541 -0.1967
  360MOL0     C49567  10.728  -0.305   2.230  0.0881 -1.3048 -0.7022
  360MOL0     C49568  10.643  -0.376   2.313 -0.1118 -0.7151 -0.7698
  360MOL0     C49569  10.689  -0.434   2.430  0.5962 -0.1418  0.1335
  360MOL0     C49570  10.576  -0.510   2.515 -0.5225  0.0054 -0.0906
  360MOL0     C49571  10.827  -0.436   2.462  0.0552 -0.0114  0.4256
  360MOL0     C49572  10.885  -0.525   2.565 -0.2539  0.2081  0.6196
  360MOL0     O49573  10.995  -0.491   2.620  0.1677 -0.6277  0.3209
  360MOL0     C49574  11.042  -0.537   2.740 -0.9195  0.9580 -0.6673
  360MOL0     C49575  10.972  -0.601   2.843  0.4134 -0.6514  0.2974
  360MOL0     C49576  11.043  -0.616   2.958  0.1650  0.2325  0.1456
  360MOL0     C49577  11.174  -0.587   2.983  0.2219  0.0235  0.1352
  360MOL0     O49578  11.228  -0.627   3.103 -0.1750 -0.0117 -0.5826
  360MOL0     C49579  11.364  -0.586   3.123 -0.2321 -0.5475 -0.2179
  360MOL0     C49580  11.413  -0.624   3.266  0.6611  0.8041  0.5242
  360MOL0     C49581  11.561  -0.593   3.271  0.9306  0.9148  0.0457
  360MOL0     C49582  11.587  -0.446   3.319 -0.1076 -0.4173 -0.9070
  360MOL0     C49583  11.732  -0.412   3.314  0.2775  0.3915 -0.2802
  360MOL0     C49584  11.755  -0.274   3.368 -0.3525 -0.1023 -0.0165
  360MOL0     C49585  11.906  -0.239   3.352  0.0005  0.4203  0.1599
  360MOL0     C49586  11.938  -0.131   3.250  0.1042 -0.1197  0.4644
  360MOL0    Cl49587  11.917  -0.209   3.095  0.0018  0.2834 -0.6123
  360MOL0     C49588  11.236  -0.517   2.881  0.2362  0.2738 -0.9432
  360MOL0     C49589  11.176  -0.499   2.761 -0.0467  0.0827  0.5114
  360MOL0     O49590  10.834  -0.635   2.584  1.3072  0.1942 -0.2885
  360MOL0     C49591  10.917  -0.356   2.378  0.4280 -0.4848  0.5876
  360MOL0     C49592  10.859  -0.286   2.261  0.3416 -0.5267  0.3095
  360MOL0     N49593  10.267   0.077   1.872 -0.8600 -0.3931  0.1786
  360MOL0     N49594  10.181   0.179   1.858  0.0799  0.2033 -0.6100
  360MOL0     C49595  10.182   1.229   1.678 -0.3570  0.2272  0.4213
  360MOL0     C49596  10.094   1.215   1.565 -0.9164 -0.0255 -1.3632
  360MOL0     C49597   9.846   1.108   1.236 -0.4657 -0.0401  0.9116
  360MOL0     C49598   9.876   0.993   1.157 -0.4509 -0.1002 -0.3326
  360MOL0     C49599   9.828   0.981   1.029 -0.3708 -1.1472  0.4675
  360MOL0     C49600   9.738   1.076   0.969  0.8549 -0.5693 -0.0792
  360MOL0     O49601   9.686   1.045   0.845 -0.8371 -0.2366  0.4373
  360MOL0     C49602   9.610   1.150   0.778 -0.7494  0.2369  0.0816
  360MOL0     C49603   9.556   1.116   0.629 -0.6749  0.7569 -0.1841
  360MOL0     C49604   9.415   1.165   0.608 -0.6068 -0.0436 -0.2541
  360MOL0     C49605   9.401   1.307   0.550  0.5395 -0.6539  0.0598
  360MOL0     C49606   9.520   1.392   0.578 -0.6683 -0.2336 -0.4769
  360MOL0     C49607   9.612   1.470   0.596 -0.5548 -0.4560  0.2665
  360MOL0     C49608   9.700   1.185   1.047 -0.0062 -0.0214  1.0013
  360MOL0     C49609   9.756   1.199   1.179  0.1805  0.1291 -0.2918
  360MOL0     C49610   9.744   1.329   1.244  0.4126  0.5853 -0.5251
  360MOL0     H49611  10.218   0.954   1.405  0.2280 -0.7299 -0.3863
  360MOL0     H49612  10.393   0.974   1.587  0.7139 -0.4176 -0.6749
  360MOL0     H49613  10.614   1.181   1.789 -0.7962 -0.3331  1.9453
  360MOL0     H49614  10.551   1.048   1.685 -0.3955  0.5633 -0.8019
  360MOL0     H49615  10.655   1.010   1.925  0.2429 -1.2720  1.1745
  360MOL0     H49616  10.508   1.087   1.995  1.0246 -0.8193  1.4879
  360MOL0     H49617  10.366   0.905   1.882 -0.6455  3.3583  3.4551
  360MOL0     H49618  10.511   0.833   1.817  0.8422  0.8877 -0.3136
  360MOL0     H49619  10.569   0.746   2.018 -2.0230 -1.5584 -0.2755
  360MOL0     H49620  10.493   0.883   2.111 -1.5034  1.0373  0.6275
  360MOL0     H49621  10.270   0.797   2.025 -2.7267 -1.7530  2.6687
  360MOL0     H49622  10.330   0.695   2.145  0.5556 -0.8162 -0.7816
  360MOL0     H49623  10.361   0.629   1.843 -0.5745  0.0302 -0.5791
  360MOL0     H49624  10.417   0.528   1.975 -0.6459 -0.6946  2.9146
  360MOL0     H49625  10.125   0.606   1.918 -0.8727 -0.7635  2.9469
  360MOL0     H49626  10.191   0.494   2.039  4.6818 -2.1293 -0.3610
  360MOL0     H49627  10.106   0.412   1.814  1.2173 -0.1590 -1.6359
  360MOL0     H49628  10.276   0.453   1.764 -1.0338 -0.9222 -1.0545
  360MOL0     H49629  10.458   0.324   1.949 -2.5615  2.4442  0.2273
  360MOL0     H49630  10.583   0.123   1.960  1.8796 -1.1394 -0.8135
  360MOL0     H49631  10.547  -0.021   1.894  0.8477 -0.9074  1.8919
  360MOL0     H49632  10.615  -0.028   2.144  0.2715  2.8407  0.3151
  360MOL0     H49633  10.464   0.037   2.187  1.6120  1.5004  0.3422
  360MOL0     H49634  10.420  -0.194   2.201  1.9069 -1.1992  0.9362
  360MOL0     H49635  10.379  -0.173   2.023 -1.6705 -2.5952  1.8096
  360MOL0     H49636  10.524  -0.370   2.067 -3.0528  0.3788 -2.0857
  360MOL0     H49637  10.567  -0.246   1.940 -3.2431 -1.3269 -0.9431
  360MOL0     H49638  10.539  -0.383   2.283 -0.0156  0.9950 -1.6081
  360MOL0     H49639  10.478  -0.479   2.477  0.3296  1.9750 -0.7881
  360MOL0     H49640  10.584  -0.487   2.622  1.3807 -1.6437  0.1883
  360MOL0     H49641  10.589  -0.619   2.508 -3.2601 -0.5114  1.3691
  360MOL0     H49642  10.865  -0.617   2.849  0.6156 -1.8296  1.0483
  360MOL0     H49643  10.992  -0.659   3.043 -0.2514  1.7061  0.6750
  360MOL0     H49644  11.437  -0.633   3.055  0.9066  1.9622 -0.8620
  360MOL0     H49645  11.366  -0.477   3.115  0.7560 -0.4908  0.6652
  360MOL0     H49646  11.361  -0.573   3.348  2.4080  1.9522  0.9796
  360MOL0     H49647  11.389  -0.730   3.271  1.0527  0.7386  0.9728
  360MOL0     H49648  11.611  -0.618   3.176  3.9482 -1.6937  2.1043
  360MOL0     H49649  11.598  -0.658   3.350 -2.6049 -0.7984  0.4610
  360MOL0     H49650  11.544  -0.411   3.413  1.6144  1.5266 -0.7849
  360MOL0     H49651  11.535  -0.385   3.244 -2.0654 -1.2939 -0.3359
  360MOL0     H49652  11.793  -0.486   3.367  1.2478  2.8009  2.2374
  360MOL0     H49653  11.753  -0.423   3.207  0.1390 -1.4303 -0.1541
  360MOL0     H49654  11.724  -0.271   3.473 -4.0108  1.3895 -0.9708
  360MOL0     H49655  11.695  -0.195   3.323 -1.4773  0.3002  2.0486
  360MOL0     H49656  11.960  -0.330   3.324 -0.6404 -0.0915  0.5805
  360MOL0     H49657  11.959  -0.206   3.442  0.5072  1.3364 -0.4502
  360MOL0     H49658  12.036  -0.081   3.249 -0.7683  1.7557  1.5534
  360MOL0     H49659  11.865  -0.050   3.264  0.3843  0.4405 -1.1429
  360MOL0     H49660  11.342  -0.495   2.884 -0.0645  2.3525 -3.1472
  360MOL0     H49661  11.234  -0.444   2.689 -2.1414  2.5894  0.5802
  360MOL0     H49662  11.023  -0.334   2.374  1.2304 -3.6853 -3.6674
  360MOL0     H49663  10.911  -0.216   2.195 -0.6544 -2.0689 -2.2394
  360MOL0     H49664  10.161   1.313   1.742 -0.7446  1.2139 -0.9510
  360MOL0     H49665  10.029   1.297   1.537  1.2875  2.0283 -0.8331
  360MOL0     H49666   9.935   0.921   1.213  0.1098 -1.9720 -3.1554
  360MOL0     H49667   9.860   0.909   0.955 -2.0263 -1.6482  0.1831
  360MOL0     H49668   9.527   1.178   0.844  0.1425  3.1798  0.1075
  360MOL0     H49669   9.674   1.238   0.774  0.4339 -0.0424  5.3629
  360MOL0     H49670   9.549   1.008   0.612 -2.4794  0.9157 -0.6849
  360MOL0     H49671   9.635   1.150   0.561 -1.1683  2.4742  0.0699
  360MOL0     H49672   9.359   1.096   0.545  0.9217 -1.1204 -0.4965
  360MOL0     H49673   9.364   1.165   0.705 -0.8463  1.8911 -0.3379
  360MOL0     H49674   9.311   1.359   0.586  0.9382  1.3170 -1.6413
  360MOL0     H49675   9.383   1.299   0.443 -0.2487  0.6163  0.0722
  360MOL0     H49676   9.667   1.556   0.628 -1.9108  0.3149  0.6189
  360MOL0     H49677   9.642   1.266   1.003 -1.6192  0.7576  4.2685
  360MOL0     H49678   9.685   1.325   1.337 -2.6727  0.9212 -2.3463
  360MOL0     H49679   9.847   1.360   1.266  2.2161 -3.5633 -2.0981
  360MOL0     H49680   9.698   1.406   1.183 -2.5615 -0.0462  0.7562
  361MOL0     O49681   6.426   0.621   6.405 -0.0513 -0.1373  0.2212
  361MOL0     C49682   6.475   0.516   6.371 -0.0042 -0.0754 -0.7908
  361MOL0     O49683   6.606   0.482   6.391  0.4740 -0.0163  0.6299
  361MOL0     C49684   6.713   0.573   6.410 -0.5682  0.5480 -0.3495
  361MOL0     C49685   6.779   0.629   6.300  0.5543  0.5875 -0.2804
  361MOL0     C49686   6.873   0.728   6.304 -0.1670  0.0837 -0.3477
  361MOL0     C49687   6.922   0.776   6.431  0.5609  0.1936  0.0982
  361MOL0     O49688   7.012   0.878   6.446  0.1014 -0.7392 -0.5860
  361MOL0     C49689   7.042   0.951   6.327  0.4154  0.3402 -0.5761
  361MOL0     C49690   7.099   1.096   6.366  0.1372  1.2308 -0.1826
  361MOL0     C49691   6.980   1.172   6.439 -0.7423  0.0630 -0.0244
  361MOL0     C49692   7.023   1.322   6.470  0.9832  0.0175 -0.2206
  361MOL0     C49693   6.915   1.389   6.556 -0.1861  0.1396  0.4755
  361MOL0     C49694   6.934   1.536   6.569 -0.0214  0.7184 -0.3082
  361MOL0     C49695   6.839   1.607   6.668  0.3326 -0.0416 -0.0863
  361MOL0     C49696   6.915   1.739   6.699  0.5427 -0.6942 -0.2581
  361MOL0     N49697   6.815   1.835   6.756 -0.2505 -0.0821  0.6651
  361MOL0     C49698   6.771   1.835   6.887  0.2421  0.4371  0.4479
  361MOL0     C49699   6.696   1.943   6.903 -0.2454  0.5911 -0.4512
  361MOL0     C49700   6.616   1.981   7.033 -0.2994 -0.2981 -0.1170
  361MOL0     C49701   6.680   2.103   7.109 -0.1391 -0.0819 -0.5690
  361MOL0     C49702   6.576   2.208   7.142 -0.4655  0.2292 -0.2704
  361MOL0     C49703   6.647   2.335   7.216 -0.2914  0.5317 -0.1959
  361MOL0     O49704   6.647   2.318   7.355 -0.3098 -0.4985 -0.8312
  361MOL0     C49705   6.540   2.357   7.425  0.3057  0.5537  0.7239
  361MOL0     C49706   6.578   2.378   7.559 -0.5451 -0.2758  0.1164
  361MOL0     C49707   6.480   2.414   7.654 -0.0222  0.2429 -0.2229
  361MOL0     C49708   6.522   2.416   7.802  0.1892  0.1521  0.0237
  361MOL0     C49709   6.339   2.423   7.606  0.6556  0.8615 -0.0942
  361MOL0     C49710   6.227   2.452   7.701 -0.0367  0.0783 -0.5578
  361MOL0     O49711   6.112   2.388   7.671  0.9392 -0.2354  0.3110
  361MOL0     C49712   6.017   2.358   7.768  0.5511 -0.7106  0.1958
  361MOL0     C49713   5.893   2.302   7.716 -0.7721  0.0734  0.4445
  361MOL0     C49714   5.786   2.267   7.795  0.1749 -0.0452 -0.7087
  361MOL0     C49715   5.793   2.281   7.936 -1.1271 -0.1514  0.2825
  361MOL0     O49716   5.690   2.230   8.007 -0.5846 -0.5142  0.4470
  361MOL0     C49717   5.681   2.264   8.147  0.1328 -0.5854  0.4663
  361MOL0     C49718   5.539   2.229   8.205 -0.1964 -0.6721 -0.3104
  361MOL0     C49719   5.524   2.215   8.347  0.9934  0.1962 -1.0998
  361MOL0     C49720   5.374   2.230   8.389  0.5496 -0.7440  0.4793
  361MOL0     C49721   5.298   2.100   8.376  1.0779 -0.4891  0.3126
  361MOL0     C49722   5.156   2.118   8.434  1.3210  0.0657  0.0301
  361MOL0     C49723   5.132   2.067   8.573  1.0650  0.8377 -0.3994
  361MOL0     C49724   5.028   2.145   8.644  0.9354 -1.2973 -0.8677
  361MOL0    Cl49725   5.030   2.092   8.819 -0.4123 -0.3877  0.0524
  361MOL0     C49726   5.916   2.320   7.985  0.8773  0.4304  0.4854
  361MOL0     C49727   6.024   2.374   7.909  0.4146 -0.7915  0.1296
  361MOL0     O49728   6.246   2.514   7.810  0.5635 -0.0572  0.7145
  361MOL0     C49729   6.306   2.384   7.478 -0.3107 -0.7962  0.0760
  361MOL0     C49730   6.409   2.367   7.378 -1.5716 -0.4973 -0.0224
  361MOL0     N49731   6.670   1.994   6.778  0.0415 -0.1727  0.2490
  361MOL0     N49732   6.746   1.935   6.688 -0.1267 -0.1019 -0.0917
  361MOL0     C49733   6.868   0.706   6.542  0.1567  0.1118  0.7457
  361MOL0     C49734   6.765   0.615   6.532  0.1189 -0.1750 -0.5041
  361MOL0     C49735   6.399   0.399   6.324  0.4577  0.8003  1.0263
  361MOL0     C49736   6.442   0.264   6.347  0.6751  0.4342 -0.1435
  361MOL0     C49737   6.369   0.150   6.307 -0.3875  0.4571 -0.5352
  361MOL0     C49738   6.244   0.162   6.246 -0.3868 -0.7873 -0.7573
  361MOL0     O49739   6.160   0.055   6.221  0.1990  0.4597  0.5358
  361MOL0     C49740   6.197  -0.075   6.260 -0.1246 -0.0864 -0.0471
  361MOL0     C49741   6.092  -0.171   6.218 -0.3352  0.1822  0.5222
  361MOL0     C49742   6.094  -0.198   6.068  0.2865 -0.4309  0.5604
  361MOL0     C49743   6.002  -0.302   6.010 -0.8079  1.0959  0.1029
  361MOL0     C49744   5.958  -0.277   5.875  0.7360 -0.5772  0.2820
  361MOL0     C49745   5.932  -0.252   5.759  0.4990 -0.9595  0.0822
  361MOL0     C49746   6.203   0.290   6.216 -0.0064  0.1016  0.1277
  361MOL0     C49747   6.277   0.406   6.248  0.1354  0.7282 -0.5888
  361MOL0     C49748   6.226   0.536   6.208 -0.4671 -0.4533  0.0050
  361MOL0     H49749   6.744   0.600   6.201 -0.4960 -1.6391  0.6817
  361MOL0     H49750   6.901   0.778   6.213  0.2705  0.2710 -0.1110
  361MOL0     H49751   6.960   0.967   6.257  1.2866  0.8990 -1.5126
  361MOL0     H49752   7.127   0.897   6.284 -0.7823 -0.1615 -2.4330
  361MOL0     H49753   7.180   1.086   6.440 -1.0064 -0.7957  0.8808
  361MOL0     H49754   7.123   1.155   6.277  3.1219  0.6168  0.0898
  361MOL0     H49755   6.892   1.186   6.374 -0.6332 -0.9117 -0.3983
  361MOL0     H49756   6.944   1.119   6.528 -0.8609 -0.3829 -0.3310
  361MOL0     H49757   7.120   1.327   6.520  1.6636 -1.1235 -1.3386
  361MOL0     H49758   7.037   1.382   6.380  0.5145  0.8872  0.2772
  361MOL0     H49759   6.921   1.348   6.657 -0.0484  1.4161  0.9997
  361MOL0     H49760   6.814   1.365   6.520 -0.3630  0.8417  0.4888
  361MOL0     H49761   7.036   1.553   6.605 -0.0380 -2.5099  1.6930
  361MOL0     H49762   6.926   1.581   6.470 -2.9997 -1.9716 -1.4461
  361MOL0     H49763   6.822   1.539   6.751  2.5938 -2.2796 -1.3323
  361MOL0     H49764   6.747   1.627   6.611 -0.9051 -2.9771  0.7373
  361MOL0     H49765   6.995   1.744   6.773  0.6557  3.1375 -0.4756
  361MOL0     H49766   6.955   1.787   6.610 -0.2442  2.7752  1.0889
  361MOL0     H49767   6.793   1.760   6.962  1.6128  0.4000  0.0355
  361MOL0     H49768   6.600   1.894   7.098 -3.6785  1.9455  2.3726
  361MOL0     H49769   6.515   2.010   7.004  0.1433 -1.2891 -2.9768
  361MOL0     H49770   6.721   2.063   7.202  0.7288 -3.2609 -2.1812
  361MOL0     H49771   6.759   2.152   7.052  0.1046  1.5886  1.1149
  361MOL0     H49772   6.534   2.251   7.050 -0.1364  0.6903 -0.2102
  361MOL0     H49773   6.499   2.158   7.201 -1.0450  2.8070  1.3367
  361MOL0     H49774   6.754   2.344   7.194  0.3600 -2.9265  0.9231
  361MOL0     H49775   6.596   2.431   7.199 -2.0457 -0.1475  1.0204
  361MOL0     H49776   6.683   2.362   7.579  0.0874  1.6849 -1.3785
  361MOL0     H49777   6.614   2.359   7.821 -0.1986 -0.9226 -1.1685
  361MOL0     H49778   6.443   2.362   7.856  0.6009  0.3005  0.7864
  361MOL0     H49779   6.537   2.519   7.834  1.0878  0.8844 -2.5495
  361MOL0     H49780   5.903   2.276   7.611  0.8537  0.5135  0.4623
  361MOL0     H49781   5.697   2.239   7.739 -0.3074  3.9592 -2.3412
  361MOL0     H49782   5.752   2.200   8.199  1.2781  1.0283  0.9643
  361MOL0     H49783   5.697   2.368   8.176 -1.7480 -1.4988  5.8391
  361MOL0     H49784   5.468   2.306   8.170  1.5576  0.8480 -0.6800
  361MOL0     H49785   5.517   2.133   8.157  4.6092 -0.7211 -3.0431
  361MOL0     H49786   5.583   2.297   8.389  2.0835 -1.3620  0.5676
  361MOL0     H49787   5.560   2.116   8.377 -2.1226 -1.6012 -2.8251
  361MOL0     H49788   5.335   2.322   8.344  2.0409  0.3693  1.3570
  361MOL0     H49789   5.383   2.244   8.497  0.1595 -0.9311  0.5370
  361MOL0     H49790   5.286   2.085   8.268 -0.9553  3.7078 -0.2517
  361MOL0     H49791   5.344   2.017   8.431  0.7767 -0.6746  0.2851
  361MOL0     H49792   5.086   2.057   8.377  0.7419  0.0160  0.7813
  361MOL0     H49793   5.127   2.222   8.417  1.4286 -0.2716 -2.6279
  361MOL0     H49794   5.226   2.090   8.625 -0.1698  4.7331  0.4225
  361MOL0     H49795   5.103   1.962   8.561  5.6455 -0.9612  1.7099
  361MOL0     H49796   4.930   2.126   8.600 -1.8848  1.6452  3.3568
  361MOL0     H49797   5.049   2.251   8.628 -2.8682 -0.3379 -0.5737
  361MOL0     H49798   5.924   2.330   8.093 -0.7180  0.7887  0.5915
  361MOL0     H49799   6.116   2.398   7.960 -1.1917 -1.1889  3.4324
  361MOL0     H49800   6.202   2.374   7.448  0.0765 -1.9568 -0.9337
  361MOL0     H49801   6.381   2.338   7.277  3.8467 -0.0728 -1.9792
  361MOL0     H49802   6.898   0.727   6.644 -0.6352 -0.4120  1.0921
  361MOL0     H49803   6.711   0.595   6.623 -1.2109  1.6383 -0.8400
  361MOL0     H49804   6.536   0.247   6.399  0.8741  1.0997 -0.2753
  361MOL0     H49805   6.407   0.048   6.319 -2.6137 -0.6775 -2.4470
  361MOL0     H49806   6.296  -0.101   6.222  0.6984  1.2730  1.0975
  361MOL0     H49807   6.199  -0.081   6.369 -0.0219 -1.8343 -0.1122
  361MOL0     H49808   5.993  -0.132   6.244  1.6740  2.1704  7.1814
  361MOL0     H49809   6.110  -0.266   6.270 -3.2275 -1.1444 -0.6006
  361MOL0     H49810   6.069  -0.100   6.026  1.2533 -1.2631 -2.2279
  361MOL0     H49811   6.198  -0.220   6.041 -0.2572 -2.2653 -0.1876
  361MOL0     H49812   5.911  -0.306   6.070  0.0637 -2.6039  1.4443
  361MOL0     H49813   6.052  -0.397   6.031 -1.3474  1.2832  2.4653
  361MOL0     H49814   5.904  -0.237   5.656  2.1833 -1.6248 -0.5080
  361MOL0     H49815   6.107   0.299   6.166  0.9070 -1.9482 -2.1763
  361MOL0     H49816   6.301   0.586   6.145 -0.9457  1.3513  0.7941
  361MOL0     H49817   6.131   0.534   6.153  0.5979  0.7260 -2.0142
  361MOL0     H49818   6.204   0.600   6.294 -0.8656 -0.8043  0.1647
  362MOL0     O49819   2.226   5.113  11.134  0.5141 -0.1554  0.1652
  362MOL0     C49820   2.327   5.048  11.155 -0.0694 -0.1580 -0.3376
  362MOL0     O49821   2.439   5.040  11.084  0.3251 -0.1106  0.4447
  362MOL0     C49822   2.456   5.099  10.960 -0.2968  0.1488  0.4024
  362MOL0     C49823   2.350   5.136  10.876 -0.0972 -0.0207  0.4021
  362MOL0     C49824   2.374   5.194  10.744 -0.3066 -0.2485 -0.7842
  362MOL0     C49825   2.515   5.193  10.699  0.3411  0.3245 -0.8050
  362MOL0     O49826   2.538   5.223  10.568  0.4905  0.1808 -0.4419
  362MOL0     C49827   2.551   5.107  10.490 -0.5402 -0.0697  0.8487
  362MOL0     C49828   2.530   5.140  10.339 -0.1723 -0.5454 -0.4948
  362MOL0     C49829   2.644   5.220  10.278 -0.1827  0.2098  0.0684
  362MOL0     C49830   2.602   5.271  10.139 -0.0420 -0.0881 -0.1340
  362MOL0     C49831   2.716   5.348  10.064 -0.7843 -0.6631  0.0064
  362MOL0     C49832   2.663   5.395   9.932  0.9784 -0.0199  1.2125
  362MOL0     C49833   2.765   5.450   9.831  0.6306  0.9541 -0.5224
  362MOL0     C49834   2.856   5.567   9.863  0.7300  0.8149 -0.0395
  362MOL0     N49835   2.934   5.607   9.747 -0.9793 -0.0247  0.6681
  362MOL0     C49836   2.885   5.667   9.632  0.6765  0.2895 -0.7695
  362MOL0     C49837   2.993   5.672   9.549  0.5168 -0.2750 -0.0884
  362MOL0     C49838   2.985   5.733   9.411  0.5655  1.4918 -0.1827
  362MOL0     C49839   3.118   5.781   9.361  0.0640 -1.0322 -0.1574
  362MOL0     C49840   3.112   5.855   9.227  0.3247 -0.5234  0.2686
  362MOL0     C49841   3.254   5.910   9.186 -0.6328 -0.3286  1.0447
  362MOL0     O49842   3.233   6.016   9.093 -0.1768 -0.0273 -0.0947
  362MOL0     C49843   3.350   6.094   9.069  0.2107 -0.7815 -0.0872
  362MOL0     C49844   3.329   6.199   8.979 -0.7050  0.1159 -0.4700
  362MOL0     C49845   3.428   6.285   8.948  0.3133  0.4996 -0.7654
  362MOL0     C49846   3.394   6.384   8.845  0.8659  0.0537 -0.6488
  362MOL0     C49847   3.563   6.264   8.995  0.3755 -0.1765  0.1027
  362MOL0     C49848   3.683   6.340   8.957  0.3128  0.0530 -0.0487
  362MOL0     O49849   3.815   6.281   8.962 -0.3840 -0.9413 -0.6325
  362MOL0     C49850   3.918   6.347   8.897 -0.6199 -0.7774  0.3239
  362MOL0     C49851   4.034   6.347   8.977  0.8784  0.7820  0.1987
  362MOL0     C49852   4.154   6.405   8.933 -0.3623 -0.3469  0.2408
  362MOL0     C49853   4.156   6.456   8.801 -0.8460  0.8610  0.6495
  362MOL0     O49854   4.270   6.499   8.737 -0.5896 -0.0737  0.3746
  362MOL0     C49855   4.376   6.522   8.824 -0.2968  0.0312  0.0934
  362MOL0     C49856   4.489   6.605   8.769 -0.1296  0.3550  0.0634
  362MOL0     C49857   4.450   6.751   8.777  0.2435  0.1575 -0.9806
  362MOL0     C49858   4.563   6.845   8.782 -0.1696 -0.9097  0.6027
  362MOL0     C49859   4.650   6.857   8.651  1.0113  0.5484 -0.8873
  362MOL0     C49860   4.739   6.983   8.673 -0.3776 -0.4366 -0.2452
  362MOL0     C49861   4.866   6.969   8.582  0.3508 -0.7292  0.0529
  362MOL0     C49862   4.969   7.068   8.612  0.7302 -0.1953  0.2719
  362MOL0    Cl49863   4.902   7.232   8.611  0.4171  0.1034 -0.5249
  362MOL0     C49864   4.038   6.454   8.721 -1.2416  0.1264 -0.1786
  362MOL0     C49865   3.922   6.402   8.766  0.6605  0.0081 -0.0379
  362MOL0     O49866   3.662   6.451   8.911  0.1929 -0.7217  0.6967
  362MOL0     C49867   3.583   6.161   9.090 -0.1415 -0.7530 -0.5431
  362MOL0     C49868   3.477   6.082   9.131  0.1300 -1.0955  0.5978
  362MOL0     N49869   3.105   5.615   9.608  0.8174 -0.7484 -0.1478
  362MOL0     N49870   3.068   5.578   9.734 -0.5557  0.6263  0.4829
  362MOL0     C49871   2.618   5.151  10.787 -1.4659 -0.0100 -0.2765
  362MOL0     C49872   2.590   5.115  10.919 -0.0940  1.2250 -0.0342
  362MOL0     C49873   2.318   4.959  11.277  0.2381 -0.1080  0.2101
  362MOL0     C49874   2.194   4.892  11.311 -0.0160 -0.4321  0.3704
  362MOL0     C49875   2.183   4.832  11.435  0.1839  0.3491 -0.0214
  362MOL0     C49876   2.288   4.812  11.523 -0.4800 -0.0191 -0.1464
  362MOL0     O49877   2.257   4.724  11.626 -0.2642 -0.1249  0.0258
  362MOL0     C49878   2.306   4.767  11.752 -0.6826  0.2627 -0.1973
  362MOL0     C49879   2.339   4.642  11.837  0.9847 -0.4467 -0.3534
  362MOL0     C49880   2.458   4.561  11.800  0.0108 -0.4900  0.3960
  362MOL0     C49881   2.470   4.436  11.889 -0.0578  0.2695  0.2789
  362MOL0     C49882   2.403   4.313  11.838 -0.3345 -0.4475 -0.4981
  362MOL0     C49883   2.356   4.217  11.780 -0.5580 -0.2538  0.7581
  362MOL0     C49884   2.411   4.873  11.488  0.2805 -0.4035  0.3501
  362MOL0     C49885   2.431   4.937  11.371  0.4528 -0.2991 -0.6229
  362MOL0     C49886   2.577   4.989  11.344  0.7508 -0.8525 -0.9631
  362MOL0     H49887   2.244   5.124  10.899  0.1628 -0.4015  1.4174
  362MOL0     H49888   2.295   5.225  10.677  0.4987  0.3682 -1.4785
  362MOL0     H49889   2.480   5.030  10.521  0.0248 -1.9420 -2.0463
  362MOL0     H49890   2.647   5.055  10.502  1.4497  3.3871  1.2436
  362MOL0     H49891   2.528   5.050  10.278  0.7228  0.9867 -2.9250
  362MOL0     H49892   2.431   5.185  10.326 -1.0275 -1.8433  1.1743
  362MOL0     H49893   2.655   5.304  10.347  1.4585 -1.1815  1.6028
  362MOL0     H49894   2.735   5.160  10.268 -0.3454 -0.1812  0.8947
  362MOL0     H49895   2.568   5.186  10.078 -1.8965  0.7914 -0.3644
  362MOL0     H49896   2.514   5.334  10.153 -2.7332 -2.8118 -2.9380
  362MOL0     H49897   2.806   5.292  10.037 -0.3260  0.9951 -2.2211
  362MOL0     H49898   2.760   5.431  10.119  1.2341 -2.3661  1.0699
  362MOL0     H49899   2.627   5.305   9.880 -0.0961  1.7119 -1.2494
  362MOL0     H49900   2.580   5.464   9.948  1.2661  0.7783 -0.4947
  362MOL0     H49901   2.701   5.485   9.750 -1.3864 -0.7580  0.2542
  362MOL0     H49902   2.818   5.365   9.786  0.2894  0.2774  0.3247
  362MOL0     H49903   2.796   5.656   9.889  1.5615  0.8751  1.8154
  362MOL0     H49904   2.920   5.534   9.945 -0.3044 -2.3297 -0.3582
  362MOL0     H49905   2.784   5.705   9.621  0.0279 -0.9731  0.5214
  362MOL0     H49906   2.916   5.816   9.394  0.1036  1.0953 -0.2730
  362MOL0     H49907   2.955   5.656   9.339 -2.6180  3.5091 -1.2474
  362MOL0     H49908   3.160   5.848   9.436 -0.7160 -1.7682  0.9519
  362MOL0     H49909   3.182   5.694   9.338 -0.3651 -1.3489 -0.1639
  362MOL0     H49910   3.070   5.793   9.148 -0.6950  0.3267  0.1185
  362MOL0     H49911   3.046   5.941   9.244 -1.3111 -2.0068  1.8492
  362MOL0     H49912   3.301   5.944   9.278  1.2475 -1.8985  0.7475
  362MOL0     H49913   3.327   5.848   9.132 -0.6284 -0.0972  0.7863
  362MOL0     H49914   3.230   6.217   8.938 -0.1544 -0.7901 -2.2946
  362MOL0     H49915   3.292   6.372   8.809  0.3364  2.4389 -0.0855
  362MOL0     H49916   3.460   6.385   8.758 -0.1060  0.4876 -1.3969
  362MOL0     H49917   3.411   6.480   8.894  1.3671 -0.8801  1.1201
  362MOL0     H49918   4.031   6.314   9.081  2.6988  2.7356  0.9469
  362MOL0     H49919   4.245   6.400   8.993  0.6977 -0.3040 -1.2919
  362MOL0     H49920   4.344   6.572   8.916 -1.1605  1.4686 -0.9383
  362MOL0     H49921   4.427   6.430   8.852  0.2298  0.5120  0.7289
  362MOL0     H49922   4.580   6.587   8.828  0.1161 -3.0581 -1.0963
  362MOL0     H49923   4.512   6.563   8.671  2.5584 -2.1344  1.5749
  362MOL0     H49924   4.378   6.776   8.856 -0.1189  0.4575 -1.4056
  362MOL0     H49925   4.387   6.759   8.689  0.2748  0.5540 -0.9670
  362MOL0     H49926   4.634   6.832   8.865  2.8103  2.1195 -1.1766
  362MOL0     H49927   4.510   6.939   8.799  0.4899 -0.5078  0.4901
  362MOL0     H49928   4.711   6.767   8.647 -0.1818 -0.2531 -1.5269
  362MOL0     H49929   4.590   6.868   8.560 -1.2430  0.8256  0.5479
  362MOL0     H49930   4.782   6.983   8.774  0.9385 -1.7730 -0.7567
  362MOL0     H49931   4.676   7.070   8.653  1.6105  1.1781  0.0952
  362MOL0     H49932   4.836   6.990   8.479 -3.2762 -0.0382  1.1028
  362MOL0     H49933   4.914   6.875   8.609  2.1283  0.7120  2.2504
  362MOL0     H49934   5.051   7.077   8.540  1.5253  0.3522  1.2194
  362MOL0     H49935   5.014   7.047   8.710 -0.5203 -0.3838  0.8272
  362MOL0     H49936   4.046   6.472   8.614  0.2266  0.6234 -0.0050
  362MOL0     H49937   3.834   6.392   8.703 -0.2165 -4.2478  1.5305
  362MOL0     H49938   3.683   6.137   9.126 -0.7496 -1.1185  1.0011
  362MOL0     H49939   3.518   6.002   9.191  5.2856 -0.3864 -1.4182
  362MOL0     H49940   2.720   5.139  10.752 -1.1127  0.7271  0.4794
  362MOL0     H49941   2.671   5.085  10.986 -0.0922 -0.1384 -0.6273
  362MOL0     H49942   2.109   4.892  11.244 -0.8706 -1.1499  1.4217
  362MOL0     H49943   2.085   4.792  11.458  0.8821 -2.4249 -1.5475
  362MOL0     H49944   2.404   4.814  11.737 -0.5188 -0.4984 -1.6823
  362MOL0     H49945   2.230   4.828  11.801  0.3994  0.4821  1.2782
  362MOL0     H49946   2.251   4.577  11.843  1.1542 -0.6306  0.2087
  362MOL0     H49947   2.359   4.684  11.936 -3.0921 -1.1796  1.0110
  362MOL0     H49948   2.463   4.544  11.693 -1.9189  1.2656 -0.0531
  362MOL0     H49949   2.538   4.630  11.829 -0.8166  0.3018  0.8509
  362MOL0     H49950   2.426   4.465  11.985 -2.6583  1.1871 -1.0921
  362MOL0     H49951   2.575   4.406  11.889 -0.1071  0.0307 -0.7910
  362MOL0     H49952   2.304   4.134  11.737 -1.7880 -0.0420  1.7680
  362MOL0     H49953   2.502   4.865  11.546 -0.3022 -0.6759  1.2382
  362MOL0     H49954   2.570   5.087  11.298  0.9184  0.4443  1.6097
  362MOL0     H49955   2.640   5.003  11.433 -0.9681 -0.2400  0.2125
  362MOL0     H49956   2.629   4.922  11.274  4.9630  0.2787  0.7588
  363MOL0     O49957   1.037   1.880   5.250  0.1661 -0.2176 -0.0131
  363MOL0     C49958   1.047   1.991   5.294  0.0345 -0.6982  0.1417
  363MOL0     O49959   0.952   2.095   5.295  0.3392  0.0892  0.3562
  363MOL0     C49960   0.838   2.057   5.227 -0.0129  0.0738 -0.1235
  363MOL0     C49961   0.735   1.983   5.288 -0.1887 -0.1977 -0.4669
  363MOL0     C49962   0.621   1.940   5.219 -0.1478 -0.6611 -0.6666
  363MOL0     C49963   0.622   1.967   5.080  0.3360  0.4573 -0.4290
  363MOL0     O49964   0.517   1.927   5.010 -0.5012  0.0463  0.0166
  363MOL0     C49965   0.405   2.014   5.004 -0.2964 -0.2109 -0.6240
  363MOL0     C49966   0.300   1.961   4.903 -0.3409  0.0108 -0.7089
  363MOL0     C49967   0.340   1.966   4.759 -0.0799  0.2913  0.4655
  363MOL0     C49968   0.235   1.916   4.657 -0.6583  0.3836  0.2717
  363MOL0     C49969   0.127   2.025   4.646  0.2112 -0.2943 -0.2670
  363MOL0     C49970   0.020   1.980   4.549  0.0733 -1.2119 -0.3155
  363MOL0     C49971  -0.084   2.084   4.527 -0.6219 -0.1249 -1.1104
  363MOL0     C49972  -0.202   2.033   4.439 -0.8615 -0.2182 -0.5720
  363MOL0     N49973  -0.312   1.962   4.508 -0.1868  0.0968  0.3124
  363MOL0     C49974  -0.404   2.021   4.598  0.2544 -0.2899 -0.7229
  363MOL0     C49975  -0.490   1.920   4.628 -0.2790  0.3151 -0.9067
  363MOL0     C49976  -0.597   1.922   4.727 -0.9386  0.4679 -1.2715
  363MOL0     C49977  -0.543   1.842   4.835  0.4311  0.1259 -0.1860
  363MOL0     C49978  -0.620   1.866   4.969  0.5970 -0.6684 -0.2905
  363MOL0     C49979  -0.557   1.788   5.087 -0.1417 -0.6545 -0.2374
  363MOL0     O49980  -0.608   1.851   5.212 -0.8496  0.5510 -0.4844
  363MOL0     C49981  -0.727   1.806   5.264 -0.4862 -0.4181 -1.4375
  363MOL0     C49982  -0.812   1.718   5.211 -0.1173  0.1716 -0.1275
  363MOL0     C49983  -0.921   1.667   5.282  0.0792 -0.4315 -0.0643
  363MOL0     C49984  -1.005   1.567   5.214  0.6829 -0.3114 -0.4764
  363MOL0     C49985  -0.962   1.731   5.402 -0.0417 -0.4967 -0.4788
  363MOL0     C49986  -1.094   1.725   5.458  0.0047  1.0254  0.3419
  363MOL0     O49987  -1.202   1.674   5.376  0.1402 -0.7780  0.0262
  363MOL0     C49988  -1.313   1.623   5.437  0.5806 -0.0137  0.3985
  363MOL0     C49989  -1.383   1.519   5.369 -0.0784 -0.4762  0.2276
  363MOL0     C49990  -1.515   1.478   5.407 -0.1481  0.4384 -0.2363
  363MOL0     C49991  -1.561   1.526   5.526 -0.0886  0.8623  0.5882
  363MOL0     O49992  -1.672   1.467   5.557  0.1104  1.0992 -0.4869
  363MOL0     C49993  -1.644   1.390   5.675 -0.3093 -0.2953 -1.3322
  363MOL0     C49994  -1.735   1.275   5.690  0.8407  0.2988  0.1767
  363MOL0     C49995  -1.710   1.157   5.595 -0.6401 -0.6749  0.1058
  363MOL0     C49996  -1.803   1.041   5.639  0.5313  0.5405  0.0666
  363MOL0     C49997  -1.812   0.939   5.525  0.0941 -1.0527 -1.5221
  363MOL0     C49998  -1.695   0.885   5.444  0.4116  0.8970  0.3096
  363MOL0     C49999  -1.598   0.806   5.539  1.3330 -0.6055  0.3750
  363MOL0     C50000  -1.481   0.735   5.472  0.5184  0.6271 -0.4834
  363MOL0    Cl50001  -1.532   0.622   5.343  0.0719 -0.0039 -0.1186
  363MOL0     C50002  -1.499   1.631   5.589 -1.3893 -0.3744  0.3198
  363MOL0     C50003  -1.377   1.681   5.542 -0.2920  0.0255  0.0634
  363MOL0     O50004  -1.101   1.757   5.578  0.3670  0.8411 -0.7358
  363MOL0     C50005  -0.875   1.832   5.452 -0.5457 -0.6031  0.2333
  363MOL0     C50006  -0.756   1.869   5.388  1.2526  0.5336  0.0078
  363MOL0     N50007  -0.447   1.801   4.562  0.3198 -0.3480 -0.4139
  363MOL0     N50008  -0.346   1.834   4.487 -0.4075 -0.0629  0.4883
  363MOL0     C50009   0.718   2.043   5.019  0.8622  0.2044  0.1255
  363MOL0     C50010   0.821   2.102   5.093 -0.1643 -0.9646  0.1924
  363MOL0     C50011   1.161   2.024   5.383 -0.1457  0.2148 -0.1042
  363MOL0     C50012   1.151   2.115   5.485  1.1645  0.4118 -0.7959
  363MOL0     C50013   1.251   2.125   5.576 -0.0924  0.2406 -0.8563
  363MOL0     C50014   1.368   2.048   5.578 -0.6882 -0.9426  0.2215
  363MOL0     O50015   1.471   2.057   5.675 -0.4133 -0.3163 -0.2950
  363MOL0     C50016   1.466   2.158   5.777  0.4536  0.1118 -0.1101
  363MOL0     C50017   1.541   2.278   5.721  0.1341 -0.8264 -0.1359
  363MOL0     C50018   1.547   2.404   5.812  0.6500  0.0475 -0.1861
  363MOL0     C50019   1.629   2.389   5.936  0.4988 -0.4557  0.3113
  363MOL0     C50020   1.750   2.325   5.907  0.4019  0.1185  0.1770
  363MOL0     C50021   1.842   2.265   5.851  0.3414 -0.0664  0.8532
  363MOL0     C50022   1.384   1.956   5.479 -0.3744  0.3192  0.7132
  363MOL0     C50023   1.286   1.949   5.380  0.4769  1.0260 -0.2508
  363MOL0     C50024   1.306   1.841   5.275 -0.9572  0.5986  0.1101
  363MOL0     H50025   0.738   1.960   5.394  4.3778 -3.9990 -1.1164
  363MOL0     H50026   0.541   1.880   5.261 -0.8156  1.2590  0.9173
  363MOL0     H50027   0.436   2.116   4.979  0.7772 -0.3351  0.1496
  363MOL0     H50028   0.367   2.005   5.106  3.6404 -1.6062  0.8988
  363MOL0     H50029   0.274   1.858   4.929 -1.7646  0.1475 -1.5246
  363MOL0     H50030   0.212   2.024   4.917 -0.8792 -0.8960  0.0478
  363MOL0     H50031   0.365   2.072   4.742 -1.9616  1.0747  2.2174
  363MOL0     H50032   0.425   1.897   4.755  0.0751  0.4794  0.4992
  363MOL0     H50033   0.277   1.903   4.557 -3.3468 -0.1577 -0.8754
  363MOL0     H50034   0.200   1.814   4.676  1.1873 -0.1005  1.3901
  363MOL0     H50035   0.161   2.128   4.631 -2.2964  0.5531 -0.5129
  363MOL0     H50036   0.092   2.031   4.749  0.8080  0.2985 -0.0891
  363MOL0     H50037   0.073   1.973   4.454 -0.7333 -0.9393 -0.8014
  363MOL0     H50038  -0.020   1.881   4.573 -1.7921 -1.0999 -2.5562
  363MOL0     H50039  -0.035   2.164   4.471 -1.0189 -0.1240 -1.4632
  363MOL0     H50040  -0.122   2.119   4.624  0.0405  0.2560 -0.9773
  363MOL0     H50041  -0.243   2.121   4.389 -1.5262  0.5094  1.1871
  363MOL0     H50042  -0.154   1.963   4.369 -3.7280 -1.9730 -0.9328
  363MOL0     H50043  -0.396   2.125   4.627  0.0393 -0.5916  0.4774
  363MOL0     H50044  -0.697   1.890   4.697 -2.3142  3.2741 -0.1563
  363MOL0     H50045  -0.607   2.027   4.758 -0.1750  0.6393 -1.5872
  363MOL0     H50046  -0.536   1.734   4.817  3.4371  0.5410 -2.3595
  363MOL0     H50047  -0.439   1.872   4.854  0.5129  1.4253 -2.3799
  363MOL0     H50048  -0.597   1.971   4.986 -0.4513  0.2037 -3.5522
  363MOL0     H50049  -0.729   1.861   4.961  0.6032 -1.6729  0.0057
  363MOL0     H50050  -0.568   1.679   5.086 -0.0587 -0.6693 -1.4300
  363MOL0     H50051  -0.451   1.810   5.074 -0.2114 -0.8332 -1.2336
  363MOL0     H50052  -0.798   1.693   5.106  0.0481  0.8032 -0.2592
  363MOL0     H50053  -1.085   1.606   5.150  1.1624 -0.3035 -1.0865
  363MOL0     H50054  -1.047   1.492   5.282 -2.0676  1.2177 -0.3516
  363MOL0     H50055  -0.943   1.507   5.146  0.5758  1.6587 -2.3951
  363MOL0     H50056  -1.346   1.477   5.276 -4.1225 -0.3860 -1.6423
  363MOL0     H50057  -1.573   1.401   5.356 -0.1084  0.1026  0.2200
  363MOL0     H50058  -1.539   1.358   5.685  0.3403  1.8907 -0.4624
  363MOL0     H50059  -1.653   1.455   5.763  0.4788 -0.9170 -0.7733
  363MOL0     H50060  -1.728   1.226   5.787 -0.5100  0.7379  0.5088
  363MOL0     H50061  -1.835   1.315   5.671  1.4088  2.3341  1.1370
  363MOL0     H50062  -1.604   1.130   5.602 -1.0861 -2.4339  0.3622
  363MOL0     H50063  -1.734   1.188   5.493 -0.2220 -3.6630 -0.9909
  363MOL0     H50064  -1.894   1.095   5.668  0.9862 -0.4154  3.8168
  363MOL0     H50065  -1.764   0.986   5.725 -1.1417 -3.0623 -1.2767
  363MOL0     H50066  -1.871   0.861   5.575 -2.7443  2.0832  0.4214
  363MOL0     H50067  -1.875   0.985   5.448 -0.1761 -0.2688 -0.8400
  363MOL0     H50068  -1.639   0.968   5.400  0.9334  0.5753  0.3613
  363MOL0     H50069  -1.737   0.823   5.364  1.5390  1.6022 -0.8560
  363MOL0     H50070  -1.660   0.737   5.598  0.9008  0.3894  1.1183
  363MOL0     H50071  -1.549   0.874   5.610  5.6052 -0.5442 -2.2428
  363MOL0     H50072  -1.426   0.675   5.545  0.4383 -0.9423 -1.6636
  363MOL0     H50073  -1.406   0.804   5.432  2.9146 -0.5220  1.7665
  363MOL0     H50074  -1.543   1.672   5.680  0.6541 -2.7295  2.5288
  363MOL0     H50075  -1.341   1.767   5.597 -1.9601 -0.0927  1.4293
  363MOL0     H50076  -0.905   1.887   5.541  0.4167  1.5097 -0.6870
  363MOL0     H50077  -0.696   1.952   5.422 -0.7888  1.1793  2.3111
  363MOL0     H50078   0.712   2.075   4.915 -0.3237 -0.6291 -0.0861
  363MOL0     H50079   0.895   2.174   5.058 -0.2999  0.0049  1.7762
  363MOL0     H50080   1.074   2.192   5.486 -0.2752 -0.9517 -0.8768
  363MOL0     H50081   1.228   2.202   5.650 -2.5036 -2.0819  0.9768
  363MOL0     H50082   1.362   2.182   5.803  0.5094  1.1384 -0.7805
  363MOL0     H50083   1.523   2.130   5.866  1.6395  0.8744 -0.6137
  363MOL0     H50084   1.495   2.317   5.629 -0.0990  0.4812  0.5154
  363MOL0     H50085   1.638   2.250   5.679 -0.7321 -0.3591 -2.6574
  363MOL0     H50086   1.583   2.490   5.755 -0.1468 -1.5951 -3.4364
  363MOL0     H50087   1.448   2.430   5.850  0.2416 -1.3197 -0.2282
  363MOL0     H50088   1.581   2.334   6.017  0.1837  1.7998  1.7409
  363MOL0     H50089   1.652   2.487   5.978  2.3386 -0.4217 -0.6675
  363MOL0     H50090   1.920   2.201   5.815  2.0193  3.0523 -1.6569
  363MOL0     H50091   1.472   1.892   5.480  1.5458  2.8028  1.4201
  363MOL0     H50092   1.409   1.805   5.269 -0.1029  3.1362 -2.0536
  363MOL0     H50093   1.242   1.754   5.295 -2.1943  1.2205 -1.0636
  363MOL0     H50094   1.277   1.875   5.176  2.1002 -0.3195 -1.2190
  364MOL0     O50095   9.375   6.216   6.335 -0.4103  0.5678 -0.4647
  364MOL0     C50096   9.315   6.202   6.442  0.5068 -0.1267 -0.3863
  364MOL0     O50097   9.374   6.168   6.563 -0.1273 -0.5656  0.1008
  364MOL0     C50098   9.476   6.072   6.570  0.1828 -0.5826  0.2956
  364MOL0     C50099   9.493   6.030   6.702  0.0830 -0.0714  0.6037
  364MOL0     C50100   9.582   5.925   6.723 -0.0518 -0.4074 -0.3246
  364MOL0     C50101   9.647   5.856   6.616  0.1124  0.1192 -0.8121
  364MOL0     O50102   9.740   5.751   6.621 -0.0848 -0.4101  0.0172
  364MOL0     C50103   9.773   5.699   6.747 -1.1145 -0.5128  0.5509
  364MOL0     C50104   9.809   5.548   6.712 -0.3907 -0.5493  0.6366
  364MOL0     C50105   9.939   5.521   6.634 -0.1239 -1.1804  0.4188
  364MOL0     C50106   9.988   5.375   6.645 -0.3473  0.3366 -0.0167
  364MOL0     C50107  10.062   5.354   6.773 -0.0002 -0.2894 -0.2391
  364MOL0     C50108  10.104   5.203   6.779  0.5893  0.8338  0.0752
  364MOL0     C50109  10.217   5.176   6.678  0.3419  0.8899  0.2771
  364MOL0     C50110  10.347   5.204   6.745 -0.0426 -0.4048  0.6642
  364MOL0     N50111  10.465   5.180   6.647 -0.7388  0.4879 -0.3051
  364MOL0     C50112  10.554   5.076   6.650  0.2616  0.5657  0.4910
  364MOL0     C50113  10.638   5.110   6.552 -0.2914  1.0792 -0.2196
  364MOL0     C50114  10.731   5.004   6.492  0.1290 -0.9642 -0.1750
  364MOL0     C50115  10.867   5.006   6.559  0.0147  0.2664  0.2866
  364MOL0     C50116  10.977   4.996   6.453  0.3307 -0.5792  0.4725
  364MOL0     C50117  11.122   5.025   6.514 -0.1388  0.2127  0.1145
  364MOL0     O50118  11.223   5.008   6.413 -0.1472  0.7030  0.0070
  364MOL0     C50119  11.353   5.051   6.439 -0.2792 -0.7241  0.0196
  364MOL0     C50120  11.405   5.101   6.565  0.6075 -0.4078  0.8409
  364MOL0     C50121  11.541   5.138   6.574 -0.6954 -0.4600 -0.3970
  364MOL0     C50122  11.598   5.168   6.711  0.1864 -0.5609 -0.4894
  364MOL0     C50123  11.625   5.125   6.467 -0.2375 -0.0021  0.6097
  364MOL0     C50124  11.766   5.159   6.471 -0.3245 -0.1994  0.1917
  364MOL0     O50125  11.864   5.062   6.443 -0.1583 -0.0990 -0.0442
  364MOL0     C50126  11.994   5.112   6.428 -0.2674  0.1683 -0.5648
  364MOL0     C50127  12.068   5.164   6.529 -0.6417 -0.6721  0.0222
  364MOL0     C50128  12.204   5.207   6.513 -0.2754 -0.2372  0.5400
  364MOL0     C50129  12.267   5.195   6.387  0.8392  0.5124 -0.4387
  364MOL0     O50130  12.393   5.220   6.379 -0.9916 -0.0539 -0.0729
  364MOL0     C50131  12.450   5.263   6.255 -0.5354  0.7842 -0.0928
  364MOL0     C50132  12.595   5.301   6.264  0.4990  0.1801  0.0749
  364MOL0     C50133  12.649   5.331   6.119  1.0144 -0.2268 -0.4943
  364MOL0     C50134  12.545   5.425   6.046 -0.2524  0.5071 -0.0323
  364MOL0     C50135  12.606   5.457   5.913  0.1644  0.1896  0.3199
  364MOL0     C50136  12.533   5.575   5.844 -0.2360  0.2751 -0.0872
  364MOL0     C50137  12.575   5.715   5.892  0.2309 -0.6076  0.9422
  364MOL0     C50138  12.498   5.833   5.827 -0.5692  0.7635 -0.3684
  364MOL0    Cl50139  12.338   5.789   5.756 -0.5501  0.2711 -0.5981
  364MOL0     C50140  12.195   5.140   6.288  0.3748 -0.0722  0.0589
  364MOL0     C50141  12.056   5.108   6.307 -1.3841  1.0735 -0.6690
  364MOL0     O50142  11.779   5.276   6.517  0.1719  0.4015  0.1512
  364MOL0     C50143  11.568   5.085   6.341  0.3349  0.1278  0.5121
  364MOL0     C50144  11.434   5.057   6.320  0.0785  0.4570  0.6538
  364MOL0     N50145  10.615   5.235   6.502  0.0603  0.0503 -0.1444
  364MOL0     N50146  10.506   5.277   6.557 -0.4573  0.2345 -0.8542
  364MOL0     C50147   9.636   5.903   6.487 -0.7331  0.8123 -0.2608
  364MOL0     C50148   9.542   6.000   6.463 -0.2981 -0.4610  0.7193
  364MOL0     C50149   9.170   6.233   6.446  0.0859  0.3018  0.8884
  364MOL0     C50150   9.121   6.325   6.537  0.1867 -0.5607 -0.7973
  364MOL0     C50151   8.987   6.355   6.542  0.3452 -0.0151 -1.1185
  364MOL0     C50152   8.906   6.334   6.436  0.5288  0.5022  0.6569
  364MOL0     O50153   8.790   6.410   6.432 -0.4147 -0.3666  0.8017
  364MOL0     C50154   8.700   6.408   6.326  1.0229 -0.5864 -0.5372
  364MOL0     C50155   8.601   6.309   6.376  0.5565 -0.1606 -0.4827
  364MOL0     C50156   8.460   6.323   6.311  0.0370 -0.1634  0.5990
  364MOL0     C50157   8.377   6.217   6.370  0.0634  0.0902 -0.1164
  364MOL0     C50158   8.262   6.185   6.287  0.6795 -1.0537 -0.5913
  364MOL0     C50159   8.164   6.170   6.218  0.0955 -0.0947 -0.2210
  364MOL0     C50160   8.948   6.238   6.335  0.3953  0.6635 -0.8518
  364MOL0     C50161   9.081   6.186   6.343 -0.5163  0.6357  0.1535
  364MOL0     C50162   9.127   6.097   6.240 -0.1167 -0.0063  0.8148
  364MOL0     H50163   9.435   6.081   6.779  0.0293 -1.4249  1.4788
  364MOL0     H50164   9.603   5.911   6.828 -1.0862 -2.6308 -0.3741
  364MOL0     H50165   9.692   5.705   6.821  1.8630 -0.0325  4.0412
  364MOL0     H50166   9.855   5.755   6.791 -1.5720  0.8991 -0.3206
  364MOL0     H50167   9.822   5.495   6.807 -2.1382 -2.3909 -0.0835
  364MOL0     H50168   9.727   5.502   6.656 -0.5959  0.7650 -0.1760
  364MOL0     H50169   9.931   5.553   6.530 -0.8748  1.7839  1.2790
  364MOL0     H50170  10.020   5.583   6.674 -1.0388 -0.5560  1.3737
  364MOL0     H50171   9.904   5.305   6.650 -1.2021  1.3942  1.2062
  364MOL0     H50172  10.053   5.366   6.558  1.1374  0.4509  1.0446
  364MOL0     H50173  10.004   5.384   6.860 -0.1389 -3.4439  0.8898
  364MOL0     H50174  10.154   5.414   6.766 -0.9780  1.3451  0.3834
  364MOL0     H50175  10.145   5.201   6.881 -0.5018  0.8121  0.5284
  364MOL0     H50176  10.026   5.127   6.774  2.8185 -2.0994  3.9159
  364MOL0     H50177  10.217   5.235   6.585  1.5301 -2.3344 -1.9569
  364MOL0     H50178  10.203   5.071   6.654  0.7346  1.0788 -0.8341
  364MOL0     H50179  10.351   5.308   6.778  0.4556 -0.8383  2.0331
  364MOL0     H50180  10.355   5.138   6.831  0.3118  1.1079  1.8401
  364MOL0     H50181  10.546   4.977   6.694  0.6271 -0.0798 -0.8623
  364MOL0     H50182  10.723   5.013   6.383  0.1973  1.9801 -0.0158
  364MOL0     H50183  10.681   4.910   6.516 -0.1502 -1.1656 -1.4524
  364MOL0     H50184  10.886   5.098   6.615  1.7002  0.3093 -0.2926
  364MOL0     H50185  10.878   4.930   6.636  0.4416  0.5043  0.4640
  364MOL0     H50186  10.972   4.900   6.402 -1.4832 -0.5180  0.4850
  364MOL0     H50187  10.949   5.077   6.385 -0.5869 -0.6651  0.7391
  364MOL0     H50188  11.129   5.119   6.568  0.3168 -0.9977  2.2866
  364MOL0     H50189  11.138   4.948   6.590  2.2863 -0.7591 -1.2642
  364MOL0     H50190  11.344   5.106   6.654 -1.4276 -0.5859 -0.4716
  364MOL0     H50191  11.663   5.256   6.715 -1.8144  0.9762 -0.6621
  364MOL0     H50192  11.656   5.084   6.750 -3.3484 -1.6044  3.2085
  364MOL0     H50193  11.516   5.173   6.783  0.2946  0.1120 -0.4055
  364MOL0     H50194  12.023   5.188   6.624 -1.2902 -1.0164 -0.1906
  364MOL0     H50195  12.255   5.253   6.597 -0.3284 -1.5292  1.3102
  364MOL0     H50196  12.442   5.187   6.176 -0.1988  0.3401  0.2956
  364MOL0     H50197  12.410   5.361   6.227  2.3384  2.1790  0.2517
  364MOL0     H50198  12.603   5.386   6.334 -1.4170  2.2888 -2.0934
  364MOL0     H50199  12.649   5.214   6.302  2.5521 -0.2725 -3.4668
  364MOL0     H50200  12.677   5.235   6.074 -0.4904  0.2474 -2.5601
  364MOL0     H50201  12.743   5.388   6.122  1.5271 -1.0609 -0.0606
  364MOL0     H50202  12.522   5.516   6.103  0.0304 -0.0827  1.0565
  364MOL0     H50203  12.449   5.377   6.027  0.2864 -0.1187 -1.3291
  364MOL0     H50204  12.715   5.468   5.919  0.0182  1.5037  0.8934
  364MOL0     H50205  12.597   5.363   5.858 -0.3009  0.1522  0.4551
  364MOL0     H50206  12.424   5.569   5.847 -0.3239  1.8626  0.9370
  364MOL0     H50207  12.567   5.583   5.740  0.9092 -2.1958  0.0135
  364MOL0     H50208  12.678   5.743   5.866  0.4405 -1.7896  0.4188
  364MOL0     H50209  12.555   5.712   5.999 -2.4952  0.8095  0.5755
  364MOL0     H50210  12.555   5.881   5.747  0.0321  0.7016  0.0155
  364MOL0     H50211  12.490   5.907   5.907  1.0983 -0.7089  1.2682
  364MOL0     H50212  12.235   5.129   6.187 -1.5445 -1.2105 -0.6219
  364MOL0     H50213  11.989   5.054   6.240 -4.3754  1.2442  1.9312
  364MOL0     H50214  11.620   5.100   6.247 -1.8669  0.6414 -0.6950
  364MOL0     H50215  11.399   5.014   6.226 -3.6974  2.6968  0.8042
  364MOL0     H50216   9.685   5.861   6.399 -1.8280  0.4225 -0.6985
  364MOL0     H50217   9.530   6.027   6.359 -0.5536 -0.3473  0.7781
  364MOL0     H50218   9.179   6.369   6.617 -0.6798  1.2510 -1.1267
  364MOL0     H50219   8.949   6.415   6.624  0.8726 -1.6826  0.4045
  364MOL0     H50220   8.657   6.508   6.312 -2.4465 -1.1957  3.5148
  364MOL0     H50221   8.753   6.379   6.235  1.1462 -1.5630 -0.1658
  364MOL0     H50222   8.579   6.321   6.483  1.1478  0.0548 -0.3847
  364MOL0     H50223   8.652   6.214   6.357  1.7112  0.4458 -0.5098
  364MOL0     H50224   8.421   6.423   6.332  0.3562 -0.2634  1.7550
  364MOL0     H50225   8.475   6.298   6.206  1.4840 -1.6714  1.1225
  364MOL0     H50226   8.332   6.246   6.465 -0.0555 -1.0074  0.1778
  364MOL0     H50227   8.429   6.121   6.382 -0.8851 -0.1924  2.2218
  364MOL0     H50228   8.064   6.170   6.180 -0.7980  0.9796  1.9623
  364MOL0     H50229   8.888   6.207   6.250 -0.4544 -0.7301  0.1963
  364MOL0     H50230   9.188   6.139   6.160 -0.0687 -0.8178  0.4135
  364MOL0     H50231   9.193   6.024   6.288 -0.8248 -0.4557  1.1092
  364MOL0     H50232   9.039   6.046   6.201  0.3062  1.0730 -1.7396
  365MOL0     O50233  10.599   1.067   0.028 -0.0731 -0.0969  0.1100
  365MOL0     C50234  10.507   1.037  -0.050 -0.4610 -0.0958 -0.4300
  365MOL0     O50235  10.385   0.995  -0.020  0.3314 -0.0633 -0.5082
  365MOL0     C50236  10.336   0.984   0.112  0.0504 -0.3070  0.9143
  365MOL0     C50237  10.388   1.031   0.230 -0.4396  0.2937  0.0945
  365MOL0     C50238  10.312   1.023   0.350  0.2914 -0.4547  0.0537
  365MOL0     C50239  10.192   0.956   0.354  0.7201 -0.3617 -0.4500
  365MOL0     O50240  10.134   0.955   0.479  0.2695 -0.4018 -0.1617
  365MOL0     C50241  10.031   0.861   0.508 -0.0164  0.6381 -0.5295
  365MOL0     C50242  10.021   0.845   0.656 -0.2008 -0.1593 -0.0579
  365MOL0     C50243  10.145   0.810   0.736  0.1374  0.4887 -0.2108
  365MOL0     C50244  10.115   0.762   0.881 -0.5058 -0.7791 -0.9219
  365MOL0     C50245  10.246   0.725   0.953 -0.6093  0.5219 -0.4305
  365MOL0     C50246  10.229   0.733   1.113 -0.7107 -0.8440 -0.3900
  365MOL0     C50247  10.138   0.620   1.160  0.9369  0.5740  0.1264
  365MOL0     C50248  10.122   0.618   1.306  0.4854 -0.7342 -0.2942
  365MOL0     N50249  10.242   0.599   1.391 -0.2577 -0.8654  0.4788
  365MOL0     C50250  10.352   0.530   1.349 -0.9583  0.8596  0.0929
  365MOL0     C50251  10.433   0.536   1.457  0.2267  0.8757  0.3638
  365MOL0     C50252  10.561   0.462   1.476 -0.4694 -0.1263 -0.0602
  365MOL0     C50253  10.582   0.390   1.603 -0.3907  0.1017  0.4941
  365MOL0     C50254  10.500   0.263   1.620 -0.0711  0.5855  0.3117
  365MOL0     C50255  10.484   0.175   1.502 -0.3036 -0.3427 -0.2146
  365MOL0     O50256  10.402   0.211   1.395 -0.0246 -0.5867  0.3806
  365MOL0     C50257  10.274   0.182   1.402  0.2241  0.1416  0.0937
  365MOL0     C50258  10.209   0.120   1.506  0.1947 -0.0459  1.1107
  365MOL0     C50259  10.067   0.094   1.489  0.2143  0.5636 -0.9343
  365MOL0     C50260  10.006   0.011   1.605 -0.0605 -0.6101 -0.2595
  365MOL0     C50261   9.993   0.132   1.374 -0.5747  0.4030 -0.4347
  365MOL0     C50262   9.853   0.108   1.348 -0.4626  0.4347  0.1229
  365MOL0     O50263   9.806   0.082   1.226 -0.5046 -0.6586  0.2253
  365MOL0     C50264   9.674   0.118   1.199 -0.3755 -0.0836 -0.3398
  365MOL0     C50265   9.643   0.246   1.142  0.2429 -0.0524 -1.3152
  365MOL0     C50266   9.511   0.286   1.121 -0.5102 -0.4175 -0.1406
  365MOL0     C50267   9.404   0.199   1.148 -0.6064  0.3050  0.0262
  365MOL0     O50268   9.279   0.248   1.129 -0.0768 -0.1821  0.9971
  365MOL0     C50269   9.246   0.254   0.992  0.5625 -0.2602  0.6865
  365MOL0     C50270   9.097   0.274   0.990  0.3660 -0.2766  0.4028
  365MOL0     C50271   9.057   0.406   1.058  0.5167  0.1035  0.4012
  365MOL0     C50272   8.907   0.421   1.065  0.5257 -0.7524  0.6191
  365MOL0     C50273   8.835   0.322   1.162 -0.5767 -0.0647  0.5468
  365MOL0     C50274   8.854   0.350   1.322 -0.1979 -0.0420  1.3624
  365MOL0     C50275   8.812   0.229   1.406 -0.3746  0.0587 -0.5042
  365MOL0     C50276   8.667   0.197   1.406  0.2155 -0.3411 -0.3337
  365MOL0    Cl50277   8.642   0.041   1.470 -0.1850 -0.1617 -0.1870
  365MOL0     C50278   9.428   0.076   1.196 -0.7108  0.3103  0.3156
  365MOL0     C50279   9.560   0.038   1.234 -0.5779  0.3652 -0.1337
  365MOL0     O50280   9.784   0.147   1.445 -0.8703  0.1951 -0.2469
  365MOL0     C50281  10.064   0.193   1.271 -0.3613 -0.1752 -0.7652
  365MOL0     C50282  10.200   0.221   1.293  0.7583 -0.2544 -0.6061
  365MOL0     N50283  10.378   0.624   1.547 -0.2502  1.3509 -0.8135
  365MOL0     N50284  10.272   0.666   1.506  0.0890  0.3770 -0.1892
  365MOL0     C50285  10.141   0.898   0.240  0.2464  0.6216 -0.0649
  365MOL0     C50286  10.213   0.919   0.118 -0.0310 -0.4163 -0.5021
  365MOL0     C50287  10.549   1.028  -0.201 -0.4320  1.5311 -1.0255
  365MOL0     C50288  10.451   1.022  -0.293  1.0394 -0.2176  0.4062
  365MOL0     C50289  10.473   1.020  -0.433  0.2714  0.5342  0.0614
  365MOL0     C50290  10.597   1.007  -0.493 -0.6926  0.3956 -0.1485
  365MOL0     O50291  10.628   0.988  -0.627  1.0744  0.6406 -0.7500
  365MOL0     C50292  10.544   1.071  -0.715 -0.9423 -0.3072  0.1853
  365MOL0     C50293  10.608   1.112  -0.846 -0.4828 -0.4312  0.4829
  365MOL0     C50294  10.692   1.000  -0.918  0.6094 -0.1328 -0.3144
  365MOL0     C50295  10.746   1.032  -1.061  0.1013 -0.1663 -0.4932
  365MOL0     C50296  10.649   1.017  -1.167  0.1688  0.6761  0.9489
  365MOL0     C50297  10.559   1.027  -1.249 -0.4191  0.5202  0.6708
  365MOL0     C50298  10.695   0.994  -0.388 -0.7195  1.2153  0.2523
  365MOL0     C50299  10.682   1.011  -0.252 -0.8597 -1.5466 -0.3570
  365MOL0     C50300  10.816   1.023  -0.168 -0.5238  0.6873  0.0686
  365MOL0     H50301  10.481   1.084   0.245  0.2690 -0.9185  0.0897
  365MOL0     H50302  10.352   1.055   0.446  0.0952 -0.4951  0.1503
  365MOL0     H50303  10.063   0.766   0.464 -0.2690  0.7956 -1.0664
  365MOL0     H50304   9.931   0.879   0.468 -0.1887  0.8788 -0.0009
  365MOL0     H50305   9.980   0.940   0.691 -0.6131 -0.6515  0.8312
  365MOL0     H50306   9.946   0.766   0.665  0.6655 -1.3485 -2.2833
  365MOL0     H50307  10.192   0.732   0.676 -1.1914 -0.6435  0.1588
  365MOL0     H50308  10.215   0.893   0.743 -1.6661  2.1299 -0.8191
  365MOL0     H50309  10.066   0.839   0.941  0.3976 -1.9383  1.4662
  365MOL0     H50310  10.039   0.683   0.884  0.2466 -1.7310 -3.6935
  365MOL0     H50311  10.326   0.795   0.927  2.4124 -1.8810  1.7190
  365MOL0     H50312  10.271   0.625   0.915  0.2240  0.9041 -0.9176
  365MOL0     H50313  10.321   0.729   1.171 -1.4705 -1.4241  0.8288
  365MOL0     H50314  10.165   0.816   1.146 -0.3904 -0.9761  0.5876
  365MOL0     H50315  10.177   0.524   1.124  1.3739 -0.0725  2.2350
  365MOL0     H50316  10.034   0.627   1.125  0.3999 -1.8117  1.0830
  365MOL0     H50317  10.099   0.722   1.333  1.3278  0.2592 -3.0134
  365MOL0     H50318  10.048   0.544   1.336  1.1171 -0.7632  1.3249
  365MOL0     H50319  10.366   0.471   1.258 -1.0299 -0.1891  0.7462
  365MOL0     H50320  10.642   0.534   1.463  1.9685 -2.3891  1.5981
  365MOL0     H50321  10.574   0.395   1.391 -0.6688  0.6143 -0.6906
  365MOL0     H50322  10.688   0.367   1.618 -0.5278  0.2699  1.9299
  365MOL0     H50323  10.565   0.451   1.692 -0.5652 -2.6160  2.4753
  365MOL0     H50324  10.545   0.205   1.702 -0.2444 -0.0975 -0.0636
  365MOL0     H50325  10.396   0.277   1.650 -1.3929 -4.0404 -1.2035
  365MOL0     H50326  10.584   0.167   1.458  0.1988 -2.2190  1.1697
  365MOL0     H50327  10.462   0.075   1.540 -1.1244  0.3650  1.2675
  365MOL0     H50328  10.261   0.094   1.597  0.9303 -0.7384  0.5045
  365MOL0     H50329   9.917   0.061   1.643 -0.4182 -3.1868  2.7253
  365MOL0     H50330  10.073  -0.017   1.687 -0.1364 -0.0742 -0.0118
  365MOL0     H50331   9.959  -0.080   1.568 -2.4339 -0.5102  2.1951
  365MOL0     H50332   9.724   0.318   1.146  1.6542 -1.6150  0.6564
  365MOL0     H50333   9.506   0.389   1.086  0.0414  0.1353  1.3064
  365MOL0     H50334   9.274   0.342   0.934 -1.8329 -0.2935 -0.6730
  365MOL0     H50335   9.273   0.160   0.941 -1.3546 -1.6054  2.0060
  365MOL0     H50336   9.065   0.273   0.885  1.8822  2.8440 -0.2311
  365MOL0     H50337   9.049   0.191   1.041 -0.6069 -0.1037 -0.2020
  365MOL0     H50338   9.088   0.488   0.993 -0.2197 -0.0394 -0.1388
  365MOL0     H50339   9.103   0.426   1.156  0.2771  5.0986 -0.2656
  365MOL0     H50340   8.872   0.395   0.964  0.1485 -1.4269  0.9185
  365MOL0     H50341   8.872   0.523   1.085 -0.0091 -0.8783  0.3600
  365MOL0     H50342   8.727   0.332   1.151 -0.4892  1.4352  0.8264
  365MOL0     H50343   8.846   0.215   1.144 -1.7183  0.1992 -2.2090
  365MOL0     H50344   8.803   0.442   1.351 -1.6538 -0.9784  1.8873
  365MOL0     H50345   8.961   0.362   1.341  0.3530 -1.8112 -0.3020
  365MOL0     H50346   8.849   0.252   1.506 -0.4459 -1.4637 -0.1171
  365MOL0     H50347   8.866   0.139   1.378 -1.8348 -1.2874  0.8528
  365MOL0     H50348   8.625   0.210   1.306  2.0206  0.8505 -0.9922
  365MOL0     H50349   8.629   0.275   1.472 -1.0849 -0.6153 -0.7356
  365MOL0     H50350   9.351   0.002   1.214 -1.5125  0.1044 -3.2520
  365MOL0     H50351   9.571  -0.050   1.296 -1.0315  2.0306  2.4764
  365MOL0     H50352  10.004   0.228   1.187 -1.2326 -1.7300 -0.8294
  365MOL0     H50353  10.235   0.269   1.203 -1.2401 -0.6070 -1.6434
  365MOL0     H50354  10.051   0.837   0.241 -0.0258  1.0214  0.7302
  365MOL0     H50355  10.176   0.885   0.021  0.2764  4.5372 -2.6581
  365MOL0     H50356  10.354   1.057  -0.259  1.2718 -0.3619  1.2624
  365MOL0     H50357  10.397   1.038  -0.509 -0.5139  1.8241  1.1135
  365MOL0     H50358  10.459   1.011  -0.748 -1.6218  1.4001 -1.3241
  365MOL0     H50359  10.500   1.154  -0.659 -1.9074  1.4850 -3.0247
  365MOL0     H50360  10.667   1.203  -0.830 -0.2662 -0.3474 -0.6991
  365MOL0     H50361  10.526   1.144  -0.911 -1.2504 -1.6117  0.8550
  365MOL0     H50362  10.784   0.981  -0.861 -1.3936 -1.4644  2.8003
  365MOL0     H50363  10.628   0.912  -0.918 -0.6991  0.1829  6.8009
  365MOL0     H50364  10.831   0.970  -1.090  1.4834  1.6004 -0.3553
  365MOL0     H50365  10.785   1.133  -1.050  0.2508 -0.2096 -0.6299
  365MOL0     H50366  10.473   1.015  -1.311 -1.2233 -0.7747  1.9830
  365MOL0     H50367  10.798   0.973  -0.414 -0.3071 -0.1544  2.7255
  365MOL0     H50368  10.895   1.030  -0.243 -1.0586 -1.1088 -0.7259
  365MOL0     H50369  10.819   1.118  -0.115 -0.5469  0.2388  0.8925
  365MOL0     H50370  10.820   0.941  -0.096 -0.2645  1.5181  1.0151
  366MOL0     O50371   1.821  10.005   9.297 -0.2075 -0.3331  0.0175
  366MOL0     C50372   1.714   9.955   9.257 -0.1161 -0.1290 -0.2270
  366MOL0     O50373   1.642   9.866   9.320 -0.6900  0.1227  0.2965
  366MOL0     C50374   1.672   9.840   9.455  0.2032  0.2167 -0.1884
  366MOL0     C50375   1.768   9.752   9.503  0.5260 -0.0806  0.4735
  366MOL0     C50376   1.777   9.729   9.641  0.3383 -0.6330  0.1324
  366MOL0     C50377   1.682   9.789   9.730 -0.5117  0.0769 -0.3560
  366MOL0     O50378   1.669   9.751   9.863 -0.0567  0.2582 -0.2213
  366MOL0     C50379   1.770   9.665   9.914 -1.1601 -0.5550 -0.5132
  366MOL0     C50380   1.765   9.697  10.061 -0.1193 -0.8378  0.9377
  366MOL0     C50381   1.868   9.625  10.152  0.2898  0.3785 -0.0935
  366MOL0     C50382   1.874   9.473  10.145 -0.6033  0.0491 -0.2456
  366MOL0     C50383   1.955   9.417  10.267 -0.6690 -1.4416  0.3698
  366MOL0     C50384   1.951   9.270  10.276 -1.0383  0.3491  0.5467
  366MOL0     C50385   2.047   9.208  10.386  0.8033 -0.2505  0.5215
  366MOL0     C50386   2.062   9.058  10.371 -0.0126  0.7292 -0.5546
  366MOL0     N50387   2.145   9.010  10.486 -0.3534  0.0365  0.2208
  366MOL0     C50388   2.263   9.068  10.538 -0.6782 -0.0209  0.6982
  366MOL0     C50389   2.291   9.011  10.654 -0.0401 -0.5098 -0.2149
  366MOL0     C50390   2.386   9.038  10.769  0.8477 -0.1568 -0.8438
  366MOL0     C50391   2.530   9.030  10.720 -0.4688 -1.0396 -0.0358
  366MOL0     C50392   2.624   9.040  10.842 -0.5432  0.4029 -0.0910
  366MOL0     C50393   2.659   9.192  10.882 -0.0746  0.3775 -0.2026
  366MOL0     O50394   2.700   9.192  11.027  0.2452  0.1920  1.0968
  366MOL0     C50395   2.832   9.194  11.067  0.5158 -0.1267 -0.9210
  366MOL0     C50396   2.863   9.135  11.190 -0.0222 -0.0467  0.6858
  366MOL0     C50397   2.995   9.139  11.239  0.7331 -0.3610 -0.1702
  366MOL0     C50398   3.012   9.072  11.370 -0.0555  0.6316 -0.1694
  366MOL0     C50399   3.102   9.180  11.155 -1.1241 -0.4627  0.4858
  366MOL0     C50400   3.249   9.171  11.197 -0.4162  0.1990  0.4476
  366MOL0     O50401   3.332   9.163  11.090  0.5901 -0.1250  0.0728
  366MOL0     C50402   3.466   9.151  11.111  0.7149 -0.6844  0.3708
  366MOL0     C50403   3.549   9.237  11.048  0.7232  0.9964 -0.3128
  366MOL0     C50404   3.688   9.232  11.063  0.4415 -0.5636 -0.4272
  366MOL0     C50405   3.746   9.125  11.128 -0.3730 -0.4262  0.6415
  366MOL0     O50406   3.877   9.098  11.132 -0.8576  0.2690 -0.4287
  366MOL0     C50407   3.973   9.196  11.086 -0.1150 -0.0161 -0.3261
  366MOL0     C50408   4.127   9.152  11.086  0.7455  0.6082  0.1290
  366MOL0     C50409   4.155   9.066  11.214 -0.6764  0.2652 -0.7599
  366MOL0     C50410   4.282   8.980  11.206  0.4665  0.2727 -0.0140
  366MOL0     C50411   4.324   8.936  11.341 -0.8013  0.4220 -0.1815
  366MOL0     C50412   4.474   8.917  11.346  0.4744 -0.7685 -0.1485
  366MOL0     C50413   4.525   8.870  11.479  1.2312 -0.1544  0.1930
  366MOL0     C50414   4.625   8.751  11.483  0.2903  0.5016 -0.7650
  366MOL0    Cl50415   4.763   8.775  11.374 -0.1675 -0.7280 -0.2011
  366MOL0     C50416   3.661   9.029  11.176  0.3234  0.0054  0.0543
  366MOL0     C50417   3.519   9.045  11.165 -0.1276  0.0478  0.4067
  366MOL0     O50418   3.285   9.188  11.313 -0.1311  0.7540  0.3057
  366MOL0     C50419   3.074   9.223  11.025 -0.5092  0.4859 -0.8076
  366MOL0     C50420   2.941   9.229  10.986 -0.1644  0.0283 -0.5172
  366MOL0     N50421   2.194   8.913  10.677  0.2723 -0.1210  0.1432
  366MOL0     N50422   2.112   8.910  10.572 -0.8160  0.5935 -0.0950
  366MOL0     C50423   1.584   9.870   9.678  0.6744  0.4399  0.0171
  366MOL0     C50424   1.580   9.894   9.548 -0.0568  0.2693  0.2558
  366MOL0     C50425   1.652  10.011   9.133 -0.4847  0.0185 -0.8304
  366MOL0     C50426   1.513  10.029   9.125  0.3316  0.0394  0.7594
  366MOL0     C50427   1.464  10.078   9.000 -0.2995  0.9593  0.0384
  366MOL0     C50428   1.545  10.124   8.896  0.7680 -1.0588 -0.5912
  366MOL0     O50429   1.476  10.170   8.784  0.1060  0.0749 -0.1504
  366MOL0     C50430   1.479  10.084   8.678 -0.1411 -0.7900  0.0564
  366MOL0     C50431   1.382  10.147   8.573 -0.0500 -0.0946 -0.3590
  366MOL0     C50432   1.234  10.134   8.592  0.0244  0.2708  0.0102
  366MOL0     C50433   1.172  10.236   8.510 -0.7640 -0.9541  0.3134
  366MOL0     C50434   1.028  10.242   8.527  0.5178 -0.2175  0.6223
  366MOL0     C50435   0.907  10.261   8.543  0.7878 -0.1014 -0.0181
  366MOL0     C50436   1.678  10.107   8.902 -0.4809  0.1244 -0.3113
  366MOL0     C50437   1.737  10.054   9.019  0.0900  0.4715  0.0883
  366MOL0     C50438   1.889  10.040   9.012  0.3026 -0.2733 -0.7035
  366MOL0     H50439   1.852   9.717   9.443  0.1481  0.3238 -0.3030
  366MOL0     H50440   1.861   9.668   9.673  0.6913 -1.5275 -2.2638
  366MOL0     H50441   1.873   9.692   9.889 -0.7031  0.2353  2.0164
  366MOL0     H50442   1.750   9.564   9.877 -3.3320 -0.5238  0.4501
  366MOL0     H50443   1.800   9.800  10.073 -0.7862 -0.4164 -0.6011
  366MOL0     H50444   1.667   9.688  10.109  0.6475  1.4993  3.1551
  366MOL0     H50445   1.968   9.665  10.132  1.0957 -1.5178 -0.1122
  366MOL0     H50446   1.844   9.644  10.257  0.2029  0.1392 -0.0700
  366MOL0     H50447   1.771   9.438  10.151 -1.4636  2.6221  1.7739
  366MOL0     H50448   1.930   9.437  10.058 -2.2401  0.7557 -1.6346
  366MOL0     H50449   1.911   9.457  10.359 -0.8962  0.0269 -0.3530
  366MOL0     H50450   2.060   9.448  10.259 -1.3554  2.1151  2.6727
  366MOL0     H50451   1.850   9.228  10.278  0.3131 -3.5017 -1.3062
  366MOL0     H50452   1.985   9.236  10.178  2.0958  3.0179  0.5545
  366MOL0     H50453   2.006   9.220  10.486  0.6748  1.4323  0.2978
  366MOL0     H50454   2.143   9.259  10.390  0.0108  1.2132  1.9879
  366MOL0     H50455   1.964   9.013  10.387  0.4453  0.1228  0.6277
  366MOL0     H50456   2.101   9.022  10.275  0.8433  1.5635 -0.5367
  366MOL0     H50457   2.330   9.145  10.503 -2.3426  1.7950  1.2931
  366MOL0     H50458   2.374   8.975  10.858 -2.2150  0.9903 -0.3109
  366MOL0     H50459   2.362   9.141  10.798 -0.6155 -1.1970  2.0906
  366MOL0     H50460   2.527   8.935  10.666 -2.1199 -0.4723 -1.0328
  366MOL0     H50461   2.560   9.107  10.647  2.6286 -1.6660  0.4431
  366MOL0     H50462   2.582   8.990  10.929  1.8411  1.9802  2.1057
  366MOL0     H50463   2.720   8.992  10.824 -0.9759 -0.5710  0.1871
  366MOL0     H50464   2.733   9.234  10.814  0.6397 -0.7768 -0.1639
  366MOL0     H50465   2.570   9.255  10.877 -0.8302 -0.4469  1.8084
  366MOL0     H50466   2.790   9.077  11.245  2.7612 -3.0182  1.5661
  366MOL0     H50467   3.110   9.023  11.369 -0.0197  0.6460 -2.0315
  366MOL0     H50468   2.926   9.005  11.379 -1.1860  1.9831 -0.4256
  366MOL0     H50469   3.010   9.146  11.450  0.1362 -0.6717  1.0701
  366MOL0     H50470   3.506   9.327  11.005 -1.7727  1.3036  2.4604
  366MOL0     H50471   3.749   9.312  11.020  1.4674 -0.0683  1.7689
  366MOL0     H50472   3.957   9.237  10.986  0.1844 -0.7175 -0.6670
  366MOL0     H50473   3.958   9.279  11.157 -1.7577 -1.2923  0.9037
  366MOL0     H50474   4.137   9.092  10.996  0.6712  0.4515  0.2220
  366MOL0     H50475   4.205   9.225  11.062  5.6503 -4.4278 -1.3230
  366MOL0     H50476   4.072   8.997  11.230 -1.9543  1.4498 -1.9811
  366MOL0     H50477   4.155   9.128  11.304  1.3053  1.2410 -1.3725
  366MOL0     H50478   4.363   9.040  11.165 -0.6577  3.8532  2.4796
  366MOL0     H50479   4.265   8.895  11.139  0.0246  0.9729 -0.8065
  366MOL0     H50480   4.290   9.005  11.419 -2.6190 -0.0020 -0.5578
  366MOL0     H50481   4.290   8.832  11.341 -4.3695  1.3422 -4.1810
  366MOL0     H50482   4.521   9.014  11.325  1.3127 -0.4041  2.8981
  366MOL0     H50483   4.516   8.859  11.263 -2.4485 -2.6268 -0.4518
  366MOL0     H50484   4.435   8.838  11.532  0.7417 -0.8691 -1.0220
  366MOL0     H50485   4.563   8.957  11.534  1.7193 -1.8945  2.8149
  366MOL0     H50486   4.569   8.664  11.448 -0.4563 -0.4012  2.3254
  366MOL0     H50487   4.670   8.740  11.582  2.1353  2.4787 -1.3045
  366MOL0     H50488   3.704   8.939  11.218  0.5357 -0.0579 -0.2930
  366MOL0     H50489   3.455   8.962  11.193  0.3745 -1.0221 -1.3965
  366MOL0     H50490   3.142   9.264  10.952  0.5466 -1.2654 -0.8638
  366MOL0     H50491   2.927   9.275  10.889 -0.7914  0.3128 -0.2989
  366MOL0     H50492   1.501   9.912   9.733 -0.0026 -1.9284  0.9106
  366MOL0     H50493   1.495   9.938   9.496 -0.0123 -0.8864 -0.8484
  366MOL0     H50494   1.438  10.003   9.198 -2.1049  1.4113 -1.1135
  366MOL0     H50495   1.357  10.080   8.987 -0.7446 -4.3561  0.5039
  366MOL0     H50496   1.579  10.076   8.636 -0.1388 -1.3658  0.1500
  366MOL0     H50497   1.448   9.981   8.700 -0.2368 -0.3705  2.1066
  366MOL0     H50498   1.415  10.093   8.483  0.1793 -1.4357  0.4954
  366MOL0     H50499   1.412  10.247   8.541  0.4947 -0.3438 -0.6370
  366MOL0     H50500   1.199  10.033   8.570  2.5810 -0.9976  1.3309
  366MOL0     H50501   1.215  10.152   8.699  1.2020  0.0026  0.2807
  366MOL0     H50502   1.219  10.226   8.412  5.6635 -0.7388  2.8833
  366MOL0     H50503   1.205  10.337   8.536 -1.1769 -0.3580 -1.3423
  366MOL0     H50504   0.800  10.268   8.546  0.6702 -1.4344 -0.2495
  366MOL0     H50505   1.738  10.129   8.814 -0.1624 -0.1592 -0.1682
  366MOL0     H50506   1.905   9.939   9.051 -0.1255  0.7694  2.4522
  366MOL0     H50507   1.937  10.054   8.915  1.7620 -0.6937 -0.0820
  366MOL0     H50508   1.934  10.114   9.078  0.5268 -1.1685  0.1820
  367MOL0     O50509   1.763   1.886   9.746  0.8849  0.4886  0.5594
  367MOL0     C50510   1.785   1.854   9.625 -0.2533  0.0334  0.1922
  367MOL0     O50511   1.900   1.908   9.557  0.2314 -0.3376  0.7358
  367MOL0     C50512   2.007   1.952   9.631  0.1316 -0.2095 -0.3092
  367MOL0     C50513   2.070   2.076   9.590  0.0628 -0.3902 -1.1195
  367MOL0     C50514   2.169   2.132   9.669 -0.6787 -0.6693  0.6334
  367MOL0     C50515   2.210   2.072   9.792 -1.2171  0.0517  0.7194
  367MOL0     O50516   2.318   2.118   9.870  0.1225 -0.3803  0.1139
  367MOL0     C50517   2.450   2.096   9.845 -0.7416 -0.7902 -0.1855
  367MOL0     C50518   2.538   2.159   9.956  0.7856  1.0655  0.7563
  367MOL0     C50519   2.553   2.311   9.946 -0.6746 -0.8775  0.1972
  367MOL0     C50520   2.639   2.365  10.061 -0.2120  0.5811 -0.4115
  367MOL0     C50521   2.677   2.514  10.041  0.4089 -0.5323  0.3039
  367MOL0     C50522   2.565   2.613  10.082 -0.2049  0.3692  0.7486
  367MOL0     C50523   2.625   2.763  10.077 -1.1183  0.5145 -0.1955
  367MOL0     C50524   2.526   2.861  10.135  0.8046 -0.0174 -0.0445
  367MOL0     N50525   2.489   2.829  10.277 -0.8718 -0.1657  0.7870
  367MOL0     C50526   2.571   2.758  10.370 -0.0382  0.1103  0.2089
  367MOL0     C50527   2.491   2.718  10.474  0.3349 -1.2124 -0.0921
  367MOL0     C50528   2.522   2.645  10.595 -0.1311  0.0732  0.0521
  367MOL0     C50529   2.518   2.495  10.561 -0.1915  0.0712 -0.4603
  367MOL0     C50530   2.626   2.406  10.654 -0.0157 -0.4346 -0.1610
  367MOL0     C50531   2.766   2.428  10.617  0.3149 -0.6202  0.1852
  367MOL0     O50532   2.856   2.326  10.668  1.0881  0.4024 -0.3361
  367MOL0     C50533   2.847   2.204  10.603  1.3955 -0.3146 -0.6953
  367MOL0     C50534   2.902   2.105  10.684 -0.4186 -0.2571 -0.7207
  367MOL0     C50535   2.908   1.972  10.642  0.2566 -0.5703 -0.5602
  367MOL0     C50536   2.999   1.883  10.729  0.0996 -0.0046  0.6747
  367MOL0     C50537   2.850   1.934  10.512 -0.6001  0.0207  0.4810
  367MOL0     C50538   2.859   1.797  10.453  0.3864  0.7890 -0.3987
  367MOL0     O50539   2.840   1.686  10.532 -0.4321  0.1355  0.0528
  367MOL0     C50540   2.823   1.573  10.462  0.4095  0.6358 -0.7079
  367MOL0     C50541   2.728   1.548  10.357 -1.0505 -0.1992 -0.1660
  367MOL0     C50542   2.722   1.426  10.296 -0.3033  0.8628  0.0747
  367MOL0     C50543   2.795   1.317  10.349 -1.0393 -0.2132  0.2610
  367MOL0     O50544   2.786   1.180  10.293 -0.0709 -0.9332 -0.9724
  367MOL0     C50545   2.741   1.165  10.157 -0.1994 -0.8178  0.4928
  367MOL0     C50546   2.754   1.029  10.095  1.0207 -0.8404  0.5089
  367MOL0     C50547   2.884   0.965  10.107 -0.4634 -0.4234  0.2743
  367MOL0     C50548   2.874   0.817  10.066  0.3756  0.3353  1.1103
  367MOL0     C50549   3.004   0.740  10.097  0.2524  0.6575  0.1781
  367MOL0     C50550   2.997   0.590  10.049  0.0486 -0.5068  0.0337
  367MOL0     C50551   3.116   0.506  10.111 -1.0844 -0.6754  0.8427
  367MOL0     C50552   3.133   0.361  10.070 -0.5352  0.2711  0.4021
  367MOL0    Cl50553   3.297   0.308  10.115 -0.0506 -0.1321 -0.1427
  367MOL0     C50554   2.890   1.336  10.452  0.1936  0.0867 -0.9432
  367MOL0     C50555   2.903   1.463  10.506  0.6837 -0.1170  0.2727
  367MOL0     O50556   2.892   1.796  10.331 -0.1593 -0.1935 -0.6232
  367MOL0     C50557   2.787   2.038  10.431  0.0636 -0.2682 -0.5382
  367MOL0     C50558   2.784   2.170  10.480 -0.2073 -0.2960 -0.0276
  367MOL0     N50559   2.364   2.758  10.429  0.5710  0.2151 -0.3891
  367MOL0     N50560   2.365   2.816  10.319 -0.2855 -0.5166  0.0982
  367MOL0     C50561   2.154   1.951   9.823  0.0684 -0.2020 -0.6368
  367MOL0     C50562   2.053   1.888   9.748 -0.2688  0.2507 -0.3723
  367MOL0     C50563   1.664   1.798   9.549 -0.5691 -0.6412 -0.4496
  367MOL0     C50564   1.645   1.853   9.421 -0.7705  0.3728  0.2187
  367MOL0     C50565   1.525   1.830   9.360  0.5484 -0.4674  0.1289
  367MOL0     C50566   1.444   1.726   9.400 -0.1001  0.2430 -0.2121
  367MOL0     O50567   1.326   1.694   9.337 -0.2641 -0.0016 -0.0285
  367MOL0     C50568   1.310   1.702   9.200  0.1752 -0.5828  0.5012
  367MOL0     C50569   1.217   1.595   9.158  0.2187  0.2302  0.5282
  367MOL0     C50570   1.069   1.633   9.180 -0.8705  0.8499 -0.7150
  367MOL0     C50571   0.991   1.516   9.244 -0.3700 -0.4008  0.4704
  367MOL0     C50572   1.017   1.392   9.170  0.4371 -0.1918  0.4660
  367MOL0     C50573   1.041   1.295   9.100  0.3795 -0.3967  0.5282
  367MOL0     C50574   1.472   1.666   9.524 -0.3774  0.3346 -0.4073
  367MOL0     C50575   1.582   1.693   9.608 -0.7277  0.1933  0.6125
  367MOL0     C50576   1.600   1.628   9.742 -0.3486  0.2402 -0.9073
  367MOL0     H50577   2.024   2.115   9.500  0.9197 -0.3829 -1.5592
  367MOL0     H50578   2.226   2.216   9.630 -1.5098 -0.6398 -0.5426
  367MOL0     H50579   2.465   2.146   9.749 -0.0341 -2.1683 -0.8125
  367MOL0     H50580   2.470   1.990   9.830  3.0777 -0.3261  0.6424
  367MOL0     H50581   2.494   2.123  10.050 -0.0176  0.3589  0.1299
  367MOL0     H50582   2.632   2.104   9.957 -1.4342 -3.2509 -0.9138
  367MOL0     H50583   2.612   2.322   9.855 -0.3058 -2.0720  0.2747
  367MOL0     H50584   2.460   2.368   9.936  0.1656  0.0476 -4.1501
  367MOL0     H50585   2.590   2.350  10.158 -1.3745  0.6966 -0.9583
  367MOL0     H50586   2.733   2.310  10.061  0.0570  0.9893  1.0356
  367MOL0     H50587   2.710   2.539   9.939 -2.6230  1.5120 -0.3136
  367MOL0     H50588   2.756   2.533  10.115  1.2296  0.2657 -0.7387
  367MOL0     H50589   2.491   2.603  10.002 -1.6713  2.8283  1.6792
  367MOL0     H50590   2.538   2.597  10.186  0.0896 -1.9407  0.5233
  367MOL0     H50591   2.662   2.783   9.976  0.3973 -0.8267  0.0602
  367MOL0     H50592   2.721   2.760  10.129  1.7291 -0.9497 -4.8506
  367MOL0     H50593   2.567   2.962  10.142 -1.0746  0.7004  1.5654
  367MOL0     H50594   2.445   2.855  10.062  0.8416 -0.1038 -0.0779
  367MOL0     H50595   2.676   2.729  10.366 -0.2315 -1.0128  2.0666
  367MOL0     H50596   2.458   2.678  10.677  1.1509  1.6711  0.4604
  367MOL0     H50597   2.629   2.661  10.616 -0.0477 -0.9504  0.5057
  367MOL0     H50598   2.416   2.461  10.581  0.4697  0.1192  4.1252
  367MOL0     H50599   2.541   2.483  10.455  1.5564  1.2879 -0.2715
  367MOL0     H50600   2.622   2.426  10.761 -2.5015 -6.2305  1.2542
  367MOL0     H50601   2.606   2.299  10.643 -1.0610 -0.9062  4.4440
  367MOL0     H50602   2.776   2.431  10.508  1.5786 -1.9389  0.2201
  367MOL0     H50603   2.793   2.523  10.663 -0.3175 -0.8206  0.9877
  367MOL0     H50604   2.944   2.122  10.782  0.4446 -1.9322 -0.7531
  367MOL0     H50605   3.031   1.942  10.816 -1.9547  2.8950 -0.3868
  367MOL0     H50606   3.087   1.851  10.673 -0.4417 -0.5337  0.1169
  367MOL0     H50607   2.943   1.795  10.761 -1.2436  0.7854  0.5475
  367MOL0     H50608   2.684   1.643  10.330  1.1298  0.7372 -0.6676
  367MOL0     H50609   2.641   1.403  10.227 -0.4144 -2.0466  1.0546
  367MOL0     H50610   2.636   1.195  10.152 -0.6512 -2.1960  1.0550
  367MOL0     H50611   2.809   1.230  10.102 -2.0148  0.2249 -0.5719
  367MOL0     H50612   2.682   0.969  10.151 -0.2318  1.3519  1.3710
  367MOL0     H50613   2.725   1.037   9.990  0.0805  0.5758  0.8410
  367MOL0     H50614   2.919   0.974  10.210  3.3725 -0.0913 -0.9321
  367MOL0     H50615   2.953   1.015  10.039  2.1497 -2.5481  1.2202
  367MOL0     H50616   2.843   0.805   9.962  2.5077  1.2196  0.3190
  367MOL0     H50617   2.798   0.764  10.124  0.4991 -0.6183  0.4151
  367MOL0     H50618   3.087   0.786  10.043  1.6993 -0.5946  1.2670
  367MOL0     H50619   3.023   0.746  10.204 -3.9778 -1.8561  1.3092
  367MOL0     H50620   3.011   0.590   9.940 -2.9275 -2.9658 -0.4792
  367MOL0     H50621   2.910   0.531  10.080  2.2618 -3.2735  1.5069
  367MOL0     H50622   3.117   0.506  10.220 -2.5787  1.7543  0.9217
  367MOL0     H50623   3.206   0.558  10.075 -1.1804  0.2333  1.8715
  367MOL0     H50624   3.133   0.361   9.960  1.7021  3.5819  0.2619
  367MOL0     H50625   3.048   0.302  10.106 -2.0203  1.6469 -0.7109
  367MOL0     H50626   2.952   1.260  10.498 -0.5598  0.8282  1.4252
  367MOL0     H50627   2.978   1.486  10.581  0.2377  3.0079 -0.1130
  367MOL0     H50628   2.748   2.013  10.332  0.1177 -1.4288 -0.2811
  367MOL0     H50629   2.728   2.243  10.422 -0.3881 -1.1775 -1.0155
  367MOL0     H50630   2.194   1.894   9.906 -1.7781 -0.8581 -0.1501
  367MOL0     H50631   2.008   1.795   9.780 -0.6165  0.5180 -0.0724
  367MOL0     H50632   1.706   1.928   9.372 -0.1280 -0.9228 -1.0410
  367MOL0     H50633   1.492   1.882   9.271 -0.1901  0.8643  1.1456
  367MOL0     H50634   1.275   1.798   9.160 -2.9432 -1.8541 -0.1744
  367MOL0     H50635   1.405   1.680   9.151  0.3879 -1.9535  1.4864
  367MOL0     H50636   1.242   1.504   9.214 -1.0130 -0.2077  0.3998
  367MOL0     H50637   1.223   1.583   9.050 -0.6972  3.5803  0.0097
  367MOL0     H50638   1.082   1.715   9.251 -0.4183  0.8096 -0.7512
  367MOL0     H50639   1.021   1.654   9.084 -0.5187 -2.2426 -1.6729
  367MOL0     H50640   0.884   1.535   9.230 -0.3002 -0.6708 -0.5552
  367MOL0     H50641   1.009   1.505   9.351 -1.5617  0.0307  0.7325
  367MOL0     H50642   1.055   1.204   9.045 -1.1218 -0.3856  0.0714
  367MOL0     H50643   1.404   1.592   9.566  0.8729 -0.1907  0.7501
  367MOL0     H50644   1.688   1.563   9.742 -1.5099 -1.4043 -1.5307
  367MOL0     H50645   1.602   1.702   9.823  3.2061 -1.6905  1.0490
  367MOL0     H50646   1.511   1.566   9.758  0.2504 -0.9134 -1.8664
  368MOL0     O50647   6.944   3.655   2.016  0.0602 -0.5118 -0.1220
  368MOL0     C50648   6.866   3.739   1.969 -0.7630  0.4429 -0.3207
  368MOL0     O50649   6.897   3.868   1.933  0.5199  0.8185  0.0898
  368MOL0     C50650   7.031   3.907   1.955  0.9221 -0.1419 -0.1581
  368MOL0     C50651   7.145   3.855   1.893  0.1395 -0.7724 -0.1689
  368MOL0     C50652   7.272   3.880   1.946  0.1374 -0.2137 -0.2918
  368MOL0     C50653   7.296   3.970   2.050  0.9628  0.0441 -0.5400
  368MOL0     O50654   7.414   4.004   2.105 -1.0588 -0.5223 -0.3650
  368MOL0     C50655   7.525   3.908   2.116  0.2154 -0.2060  0.2011
  368MOL0     C50656   7.648   3.976   2.048 -0.4446  0.3045 -0.8757
  368MOL0     C50657   7.627   4.012   1.902  1.2624 -0.4121 -1.2440
  368MOL0     C50658   7.758   4.082   1.837 -0.1622  0.5297 -0.8090
  368MOL0     C50659   7.749   4.124   1.692 -0.1882  0.4474  0.4589
  368MOL0     C50660   7.874   4.195   1.641  0.4262  0.5679 -0.5913
  368MOL0     C50661   7.913   4.169   1.499 -0.2696  0.2274 -0.1214
  368MOL0     C50662   8.030   4.257   1.457 -0.8913  0.1649  0.0163
  368MOL0     N50663   8.099   4.194   1.340 -0.6890  0.3510 -0.2473
  368MOL0     C50664   8.033   4.133   1.239 -0.7097  0.3460  0.7257
  368MOL0     C50665   8.128   4.055   1.179  0.5148 -0.1484  0.2233
  368MOL0     C50666   8.099   3.954   1.068 -1.6443  0.2397  0.0627
  368MOL0     C50667   8.087   4.032   0.936  0.3728 -0.2553  1.1508
  368MOL0     C50668   8.035   3.935   0.830 -0.6175  0.5675  1.0367
  368MOL0     C50669   8.009   3.981   0.691  0.3609  0.0647  0.1232
  368MOL0     O50670   7.938   3.881   0.614  0.2284 -0.3236 -0.3463
  368MOL0     C50671   7.801   3.885   0.618 -0.0864  0.0567  0.4193
  368MOL0     C50672   7.725   3.951   0.713 -0.7571 -0.0443 -0.7153
  368MOL0     C50673   7.582   3.941   0.732 -0.2673 -0.3296 -0.3411
  368MOL0     C50674   7.521   4.011   0.849 -0.3541 -0.0407  0.6213
  368MOL0     C50675   7.516   3.870   0.633 -1.0649  0.6030  0.0644
  368MOL0     C50676   7.368   3.869   0.611  0.4050 -0.7855 -0.7899
  368MOL0     O50677   7.300   3.984   0.652 -0.6799  0.2208 -0.2895
  368MOL0     C50678   7.199   4.038   0.573 -0.0918 -0.8084 -0.2416
  368MOL0     C50679   7.149   4.156   0.630  1.0640  0.6854  0.1748
  368MOL0     C50680   7.051   4.231   0.558  1.0058 -0.3164 -0.2261
  368MOL0     C50681   7.005   4.191   0.422  0.3972 -0.3593  0.6699
  368MOL0     O50682   6.914   4.266   0.342 -0.8819  0.4742 -0.0556
  368MOL0     C50683   6.863   4.390   0.392  0.2306 -0.0897 -0.9942
  368MOL0     C50684   6.759   4.437   0.288  0.2755  0.4184 -0.3726
  368MOL0     C50685   6.633   4.359   0.308 -0.2891  0.1636 -0.2632
  368MOL0     C50686   6.518   4.420   0.228  0.8672 -0.1027 -0.4940
  368MOL0     C50687   6.373   4.356   0.267 -0.4751 -1.0153 -0.1417
  368MOL0     C50688   6.257   4.458   0.209 -0.4824  0.4453 -0.2685
  368MOL0     C50689   6.124   4.382   0.199  0.1441  0.3790 -0.8334
  368MOL0     C50690   6.063   4.351   0.332  0.2353 -0.6425  0.0690
  368MOL0    Cl50691   5.918   4.257   0.292 -0.5039  0.4235  0.2126
  368MOL0     C50692   7.069   4.086   0.367  0.5912  0.6367 -0.1589
  368MOL0     C50693   7.164   4.006   0.438  0.3469  1.0971  0.7513
  368MOL0     O50694   7.324   3.775   0.551 -0.3246  0.2097 -0.7241
  368MOL0     C50695   7.595   3.794   0.543 -0.6260  1.4810 -0.0971
  368MOL0     C50696   7.731   3.797   0.546 -0.0385 -0.6309 -0.2042
  368MOL0     N50697   8.247   4.095   1.231  0.1432  0.2419 -0.2107
  368MOL0     N50698   8.229   4.175   1.330  0.5574  0.0399 -0.1654
  368MOL0     C50699   7.183   4.028   2.116 -0.2365  0.6392  0.5163
  368MOL0     C50700   7.052   3.992   2.065  0.0966  0.7475 -0.4184
  368MOL0     C50701   6.730   3.681   1.936 -0.8834 -0.7147 -0.3182
  368MOL0     C50702   6.649   3.652   2.051 -0.6225 -0.3559  0.5395
  368MOL0     C50703   6.521   3.603   2.031  0.5601  0.2715  0.1251
  368MOL0     C50704   6.466   3.598   1.904  0.3393  0.3394  0.6025
  368MOL0     O50705   6.342   3.541   1.879  0.5813 -0.1266 -0.1736
  368MOL0     C50706   6.299   3.509   1.745 -0.2466  0.0896 -0.4541
  368MOL0     C50707   6.163   3.444   1.739 -0.7052 -0.8442  0.0179
  368MOL0     C50708   6.141   3.334   1.836  0.3523  0.0130 -0.8643
  368MOL0     C50709   6.007   3.261   1.802 -0.3543 -1.0649 -0.2614
  368MOL0     C50710   5.938   3.186   1.912 -0.0694  0.6753 -0.4450
  368MOL0     C50711   5.865   3.119   1.986 -0.1836 -1.1174 -0.6579
  368MOL0     C50712   6.540   3.639   1.786 -0.0420  0.2223 -0.3314
  368MOL0     C50713   6.673   3.673   1.806  0.2592  0.6348  0.3765
  368MOL0     C50714   6.758   3.713   1.683 -0.5068  0.5345 -0.3410
  368MOL0     H50715   7.131   3.783   1.813  0.9201 -3.9967  2.3793
  368MOL0     H50716   7.347   3.827   1.888  0.2961  2.0970 -2.3552
  368MOL0     H50717   7.487   3.821   2.063 -3.4324  1.5443 -0.3499
  368MOL0     H50718   7.546   3.884   2.221  0.9746  0.3369  0.1844
  368MOL0     H50719   7.661   4.063   2.113 -0.8308  0.1315 -0.5605
  368MOL0     H50720   7.737   3.913   2.061  0.0246  0.1764 -3.8949
  368MOL0     H50721   7.572   3.925   1.865 -2.0177  0.3614  1.3820
  368MOL0     H50722   7.553   4.089   1.879  0.9578 -0.6785 -1.1590
  368MOL0     H50723   7.780   4.173   1.895 -1.0119  0.2498 -0.0222
  368MOL0     H50724   7.834   4.004   1.836 -0.9380 -0.3038 -3.5780
  368MOL0     H50725   7.661   4.188   1.681 -0.7377  0.0973  2.4616
  368MOL0     H50726   7.723   4.041   1.625 -3.3846  1.8101 -0.1631
  368MOL0     H50727   7.865   4.302   1.662 -3.7983  0.2347  0.0903
  368MOL0     H50728   7.955   4.151   1.700  0.1108 -1.2654 -1.4487
  368MOL0     H50729   7.824   4.194   1.441 -2.6449  2.1538  3.9258
  368MOL0     H50730   7.937   4.065   1.477 -1.1783  0.1582 -0.8637
  368MOL0     H50731   7.995   4.359   1.439 -2.6103 -0.6967 -1.9929
  368MOL0     H50732   8.099   4.256   1.542 -0.1532 -0.2869 -0.5637
  368MOL0     H50733   7.927   4.138   1.214 -0.8801  1.8511  1.6840
  368MOL0     H50734   8.013   3.888   1.083 -2.6757  0.0958 -4.7413
  368MOL0     H50735   8.187   3.892   1.053 -1.3498  0.5371  0.5473
  368MOL0     H50736   8.011   4.111   0.939  0.6055  0.1594 -1.2894
  368MOL0     H50737   8.188   4.071   0.916  0.2602 -0.0932  0.8898
  368MOL0     H50738   8.097   3.847   0.809  0.1213  1.6144 -1.4841
  368MOL0     H50739   7.941   3.899   0.872 -0.5091 -0.4922  0.4072
  368MOL0     H50740   7.950   4.073   0.693  0.2086 -0.0367  0.4045
  368MOL0     H50741   8.100   4.004   0.635  0.1090 -0.6188 -0.5860
  368MOL0     H50742   7.773   4.000   0.797  0.2822 -6.0545  2.7934
  368MOL0     H50743   7.473   4.108   0.831  0.5528  1.1697  3.9404
  368MOL0     H50744   7.601   4.047   0.914 -0.1361  1.0990 -0.2482
  368MOL0     H50745   7.460   3.944   0.910 -1.5045  1.1082  0.7911
  368MOL0     H50746   7.183   4.180   0.731 -1.5682 -2.3790  2.0059
  368MOL0     H50747   7.010   4.314   0.614 -1.6748 -1.8850  0.2912
  368MOL0     H50748   6.829   4.376   0.495 -0.6302  0.0273 -1.2469
  368MOL0     H50749   6.943   4.463   0.402 -0.0328 -0.0979  2.7648
  368MOL0     H50750   6.741   4.542   0.313  1.8059  0.5430  0.2665
  368MOL0     H50751   6.795   4.419   0.186  1.8177 -1.4595  0.4485
  368MOL0     H50752   6.614   4.341   0.414 -0.1569  0.7587 -0.1340
  368MOL0     H50753   6.647   4.260   0.264 -1.2048 -0.1505  0.1278
  368MOL0     H50754   6.526   4.390   0.123 -0.3506 -0.9258 -0.3659
  368MOL0     H50755   6.523   4.529   0.229  0.0991 -0.0064 -2.4067
  368MOL0     H50756   6.381   4.256   0.223  1.1585 -0.7347 -0.5817
  368MOL0     H50757   6.367   4.354   0.376  0.8150 -1.5594 -0.0627
  368MOL0     H50758   6.286   4.476   0.105  1.6482  1.8443  0.5167
  368MOL0     H50759   6.243   4.553   0.260 -1.3086  1.1108 -1.6635
  368MOL0     H50760   6.135   4.284   0.152  0.1408 -0.4061  0.7325
  368MOL0     H50761   6.050   4.439   0.143 -0.4618  0.4103 -0.0009
  368MOL0     H50762   6.035   4.442   0.385 -0.5508  0.2914 -1.8324
  368MOL0     H50763   6.122   4.287   0.398 -1.1590 -1.2446  0.7782
  368MOL0     H50764   7.043   4.056   0.266 -2.7667 -3.0968  1.5173
  368MOL0     H50765   7.218   3.922   0.395 -2.5548  0.4573 -2.0156
  368MOL0     H50766   7.549   3.736   0.464  1.2499  2.7175 -2.2076
  368MOL0     H50767   7.788   3.726   0.487 -0.7405 -0.2825 -1.3273
  368MOL0     H50768   7.193   4.083   2.209 -0.6126  0.7675  0.4835
  368MOL0     H50769   6.965   4.034   2.116 -0.6823 -0.5256 -0.6671
  368MOL0     H50770   6.691   3.669   2.150  2.8183  0.4755 -0.9391
  368MOL0     H50771   6.468   3.561   2.116 -0.2215 -0.8431 -0.8916
  368MOL0     H50772   6.295   3.596   1.679  4.5950  0.6048 -0.4321
  368MOL0     H50773   6.367   3.435   1.703 -0.6100 -1.0442  0.8595
  368MOL0     H50774   6.153   3.402   1.638  1.5017  1.1078 -1.1202
  368MOL0     H50775   6.086   3.519   1.759 -0.0698  0.1595 -1.1552
  368MOL0     H50776   6.218   3.257   1.837  2.1165  1.6657 -1.9534
  368MOL0     H50777   6.135   3.371   1.939  1.3265 -0.4558 -0.6347
  368MOL0     H50778   6.034   3.188   1.726 -0.2789  0.4359 -1.7346
  368MOL0     H50779   5.932   3.330   1.760  1.8575  2.0130  0.4871
  368MOL0     H50780   5.797   3.067   2.051  0.1429 -0.0573  0.5735
  368MOL0     H50781   6.513   3.629   1.682 -0.4998 -2.6295 -0.0182
  368MOL0     H50782   6.860   3.686   1.714 -1.7370 -0.5797  3.2822
  368MOL0     H50783   6.733   3.676   1.583 -0.1445  0.3873 -0.3794
  368MOL0     H50784   6.757   3.822   1.676 -2.4576  0.6406  0.8862
  369MOL0     O50785   4.318   7.637   6.876 -0.1761 -1.2875 -0.3314
  369MOL0     C50786   4.214   7.579   6.878  0.1694  0.7216 -0.7908
  369MOL0     O50787   4.193   7.445   6.844  0.1792 -0.0669  0.1041
  369MOL0     C50788   4.267   7.404   6.737  0.3245 -0.2898  0.5227
  369MOL0     C50789   4.365   7.473   6.657  0.6695  0.1693 -0.9515
  369MOL0     C50790   4.428   7.418   6.547 -1.3078  0.4707  1.0638
  369MOL0     C50791   4.411   7.283   6.510  0.1851 -0.0519 -0.0804
  369MOL0     O50792   4.457   7.241   6.389  0.5828  0.0306  0.1877
  369MOL0     C50793   4.539   7.119   6.389  0.7764  0.0460  0.1779
  369MOL0     C50794   4.589   7.086   6.246 -0.2209  0.1599 -0.2089
  369MOL0     C50795   4.677   7.204   6.190 -0.0087  0.7817 -0.0501
  369MOL0     C50796   4.769   7.187   6.067 -0.1880 -0.6403 -0.9453
  369MOL0     C50797   4.824   7.316   6.021 -0.0814  0.4311 -0.2683
  369MOL0     C50798   4.946   7.303   5.925  0.4118 -0.3138  0.5668
  369MOL0     C50799   5.015   7.435   5.899 -0.1539 -0.3451  0.3419
  369MOL0     C50800   5.116   7.413   5.781 -0.7351  1.8935 -0.1644
  369MOL0     N50801   5.200   7.534   5.747 -0.6690  0.3067  0.5483
  369MOL0     C50802   5.342   7.526   5.762  1.2652  0.2474  0.1904
  369MOL0     C50803   5.383   7.638   5.706  0.2707 -0.0202  0.0963
  369MOL0     C50804   5.524   7.662   5.663  0.3587  0.2386 -0.4553
  369MOL0     C50805   5.578   7.780   5.747  0.1444  0.1829 -0.3843
  369MOL0     C50806   5.725   7.797   5.704  0.1223  0.4209  0.0615
  369MOL0     C50807   5.798   7.884   5.800 -0.9540  0.1522 -0.8652
  369MOL0     O50808   5.935   7.874   5.769 -0.2623  0.0071  0.0847
  369MOL0     C50809   6.024   7.918   5.860  0.1863 -0.1999 -0.9853
  369MOL0     C50810   6.155   7.906   5.823 -0.9905  0.1085  0.2938
  369MOL0     C50811   6.264   7.942   5.917  0.8839  0.4331  0.4513
  369MOL0     C50812   6.404   7.921   5.878  0.0871  0.1630  0.2466
  369MOL0     C50813   6.230   7.993   6.048 -0.1449  0.1845  1.1424
  369MOL0     C50814   6.330   8.038   6.154  0.3541  0.6397  0.2462
  369MOL0     O50815   6.276   8.083   6.276  0.0780 -0.3442  0.5140
  369MOL0     C50816   6.359   8.138   6.373  0.1132 -0.4043  0.4976
  369MOL0     C50817   6.463   8.077   6.436  0.3542  0.2270 -0.4339
  369MOL0     C50818   6.539   8.144   6.532 -0.0853 -0.7208  0.3543
  369MOL0     C50819   6.510   8.278   6.578  0.4811 -0.1407  0.0291
  369MOL0     O50820   6.586   8.347   6.672  0.0836  0.0652  0.9088
  369MOL0     C50821   6.665   8.269   6.762 -0.6634  0.4020 -1.0589
  369MOL0     C50822   6.685   8.341   6.896 -0.1282  0.1973 -0.6684
  369MOL0     C50823   6.544   8.358   6.966 -0.1394  0.6481 -0.4920
  369MOL0     C50824   6.531   8.266   7.091 -0.1379 -1.2216  0.4722
  369MOL0     C50825   6.502   8.116   7.058  0.5665  0.4181 -1.0182
  369MOL0     C50826   6.396   8.093   6.955  0.7398  0.2917  0.3019
  369MOL0     C50827   6.325   7.960   6.962  0.1106  0.2195  0.1846
  369MOL0     C50828   6.402   7.847   6.883  0.5648  0.2065  0.2799
  369MOL0    Cl50829   6.298   7.701   6.873  0.3637  0.0787  0.4839
  369MOL0     C50830   6.399   8.335   6.509  0.2653  0.3176  0.3465
  369MOL0     C50831   6.333   8.265   6.413 -0.1851 -0.0867  0.5360
  369MOL0     O50832   6.451   8.044   6.122  0.0405 -0.1046  0.1009
  369MOL0     C50833   6.097   8.013   6.075 -0.2316 -0.1010 -0.7309
  369MOL0     C50834   5.995   7.970   5.991  0.6370 -0.4130  0.2792
  369MOL0     N50835   5.273   7.723   5.685 -0.4242  0.0589 -0.5756
  369MOL0     N50836   5.165   7.656   5.703  0.4961  0.1198  0.4365
  369MOL0     C50837   4.322   7.210   6.595 -0.4211 -0.1870  0.7425
  369MOL0     C50838   4.249   7.272   6.697 -0.6464  0.0750  0.4806
  369MOL0     C50839   4.098   7.627   6.964 -0.4582  0.1633  0.4640
  369MOL0     C50840   4.043   7.528   7.050  1.3640 -0.8374  0.5427
  369MOL0     C50841   3.950   7.573   7.148 -1.5818 -0.0052  0.2430
  369MOL0     C50842   3.901   7.703   7.144 -1.0609  0.5409  0.4221
  369MOL0     O50843   3.811   7.738   7.235 -0.3853  0.0729 -0.7054
  369MOL0     C50844   3.730   7.855   7.223  0.4446 -0.7641  0.5675
  369MOL0     C50845   3.659   7.868   7.358 -0.5113  0.6717 -0.2996
  369MOL0     C50846   3.565   7.985   7.379 -0.0215  0.2655 -1.0615
  369MOL0     C50847   3.509   7.984   7.520  0.1868 -0.4268  0.7091
  369MOL0     C50848   3.411   8.101   7.547 -0.2363  0.6560 -0.0801
  369MOL0     C50849   3.320   8.180   7.571 -0.3544 -1.3238 -0.2897
  369MOL0     C50850   3.958   7.797   7.049  0.5579  0.0739 -0.3706
  369MOL0     C50851   4.065   7.760   6.971 -0.1064  0.6457 -0.2152
  369MOL0     C50852   4.137   7.868   6.887 -0.4597 -0.3468 -0.7618
  369MOL0     H50853   4.389   7.572   6.694 -2.8465  0.1348  1.9912
  369MOL0     H50854   4.500   7.482   6.498 -0.1485 -0.6429  1.2535
  369MOL0     H50855   4.486   7.032   6.429 -1.1494 -0.3251 -2.8181
  369MOL0     H50856   4.623   7.136   6.457  0.1533  0.1279  0.9423
  369MOL0     H50857   4.645   6.992   6.244  0.3246  0.4584  0.5468
  369MOL0     H50858   4.507   7.079   6.175  0.3693  0.0921 -0.8984
  369MOL0     H50859   4.606   7.285   6.172 -0.9866 -0.4069 -1.9592
  369MOL0     H50860   4.749   7.236   6.266  1.1794  2.1794 -1.6863
  369MOL0     H50861   4.848   7.113   6.080  1.4167  1.2410  0.5884
  369MOL0     H50862   4.712   7.162   5.976  0.5451  0.2019 -1.6491
  369MOL0     H50863   4.863   7.369   6.109 -0.5251 -0.9208  0.7720
  369MOL0     H50864   4.750   7.381   5.975  1.1219  0.4870 -2.2391
  369MOL0     H50865   5.022   7.235   5.964  2.7854  1.5706 -0.5257
  369MOL0     H50866   4.905   7.264   5.832 -0.4526 -1.4704  1.4034
  369MOL0     H50867   5.060   7.469   5.993 -0.9648 -3.9613  2.2667
  369MOL0     H50868   4.940   7.511   5.878  2.4776  2.5552  0.7687
  369MOL0     H50869   5.186   7.333   5.807 -1.2194  1.8424  1.0637
  369MOL0     H50870   5.054   7.388   5.694 -2.0856 -1.1371  1.5102
  369MOL0     H50871   5.401   7.438   5.786  0.6332 -0.5788 -1.1584
  369MOL0     H50872   5.516   7.703   5.562 -3.4521 -1.3626 -0.9602
  369MOL0     H50873   5.588   7.573   5.670 -0.6281 -0.4524  0.0961
  369MOL0     H50874   5.511   7.867   5.738  1.0592  1.0085  0.5642
  369MOL0     H50875   5.586   7.759   5.854  3.0776 -2.0770 -0.9529
  369MOL0     H50876   5.769   7.698   5.685  0.4470  0.7237 -0.7940
  369MOL0     H50877   5.733   7.848   5.608  4.4381  4.1171  2.0086
  369MOL0     H50878   5.760   7.987   5.808  0.0054  0.5619 -1.4317
  369MOL0     H50879   5.787   7.846   5.902  0.2864 -0.5808 -0.9895
  369MOL0     H50880   6.182   7.869   5.725  0.4233  0.9482  0.3375
  369MOL0     H50881   6.419   7.885   5.776 -1.6056  2.2108 -0.8050
  369MOL0     H50882   6.457   7.853   5.945  1.7909  1.3522  0.1689
  369MOL0     H50883   6.456   8.017   5.881  2.2430 -0.9063 -0.8182
  369MOL0     H50884   6.496   7.976   6.411  0.9953 -0.2314  1.9925
  369MOL0     H50885   6.627   8.095   6.571  2.0082  0.3353 -2.6192
  369MOL0     H50886   6.624   8.172   6.793  1.0097 -0.2980 -0.9580
  369MOL0     H50887   6.759   8.241   6.713 -0.7021  1.4034 -1.7429
  369MOL0     H50888   6.751   8.277   6.955  1.0076 -1.0016 -3.0869
  369MOL0     H50889   6.735   8.438   6.884 -0.3731  0.3051 -0.8247
  369MOL0     H50890   6.463   8.342   6.894  0.6847  1.1693 -1.5538
  369MOL0     H50891   6.540   8.464   6.993 -0.0733  0.3425  0.8029
  369MOL0     H50892   6.439   8.300   7.139  0.1871  0.6594 -0.1638
  369MOL0     H50893   6.619   8.278   7.155 -0.6376  2.4117  0.6818
  369MOL0     H50894   6.590   8.063   7.021  1.0289  1.3424 -1.2884
  369MOL0     H50895   6.481   8.075   7.157  0.1798  0.5502 -1.0435
  369MOL0     H50896   6.432   8.098   6.852 -2.7294  1.9486 -0.9948
  369MOL0     H50897   6.314   8.165   6.952 -1.7268 -1.8783  4.7571
  369MOL0     H50898   6.230   7.973   6.909  0.4699 -0.7546 -0.7234
  369MOL0     H50899   6.298   7.928   7.064 -1.1452 -0.9557 -0.4690
  369MOL0     H50900   6.495   7.814   6.930 -0.9034 -3.9525  0.7505
  369MOL0     H50901   6.430   7.878   6.782  4.2722 -1.6399  0.5774
  369MOL0     H50902   6.380   8.440   6.526  0.2029  0.2969  0.4015
  369MOL0     H50903   6.249   8.315   6.367 -2.0910 -1.4219  2.4050
  369MOL0     H50904   6.078   8.054   6.174  3.3090  2.5806 -0.9832
  369MOL0     H50905   5.895   7.983   6.032  2.0695  2.7052  3.2626
  369MOL0     H50906   4.297   7.113   6.555  0.3027  0.1971 -0.7422
  369MOL0     H50907   4.168   7.220   6.748  0.0091 -0.9126  0.5516
  369MOL0     H50908   4.076   7.425   7.053  3.9943 -0.1101 -0.4459
  369MOL0     H50909   3.917   7.508   7.229 -0.3531 -0.7158  0.1963
  369MOL0     H50910   3.783   7.948   7.198  2.9445 -2.0855  0.6392
  369MOL0     H50911   3.653   7.841   7.146 -0.0032  0.7525  0.7062
  369MOL0     H50912   3.725   7.852   7.444  0.0231  0.4326 -0.7464
  369MOL0     H50913   3.599   7.777   7.359  2.0117 -1.1458 -1.7118
  369MOL0     H50914   3.612   8.082   7.358  0.6432 -0.6662 -4.6290
  369MOL0     H50915   3.481   7.986   7.308  0.0305  0.4170 -1.1218
  369MOL0     H50916   3.597   7.987   7.585  1.0339 -0.4897 -0.3902
  369MOL0     H50917   3.464   7.886   7.539 -0.1657 -0.7678 -1.5892
  369MOL0     H50918   3.246   8.258   7.574  2.0233  1.3240 -3.2847
  369MOL0     H50919   3.913   7.895   7.041  3.1340  1.2181 -1.9561
  369MOL0     H50920   4.235   7.903   6.922 -1.0822  0.1910  0.4709
  369MOL0     H50921   4.157   7.810   6.796  0.8470 -1.4846  0.1980
  369MOL0     H50922   4.067   7.949   6.867  1.8110  1.9095 -0.0544
  370MOL0     O50923   2.546   7.921  11.147 -0.9309 -0.5370  0.5746
  370MOL0     C50924   2.611   7.920  11.254 -0.1728 -1.2516 -0.0407
  370MOL0     O50925   2.747   7.933  11.266  0.0208 -0.3802 -0.7308
  370MOL0     C50926   2.802   7.992  11.158 -0.2688  0.5567 -0.2620
  370MOL0     C50927   2.860   7.917  11.052  0.4244  0.2804 -0.0345
  370MOL0     C50928   2.906   7.981  10.933 -1.4066 -0.8069  0.5371
  370MOL0     C50929   2.895   8.125  10.930 -0.4872  0.6814  0.1082
  370MOL0     O50930   2.938   8.193  10.821 -0.5344  0.9984 -0.0288
  370MOL0     C50931   2.862   8.195  10.700 -0.6970  1.1784 -0.1072
  370MOL0     C50932   2.906   8.082  10.609 -0.6436 -0.1002 -0.3971
  370MOL0     C50933   3.045   8.067  10.570 -0.4770  0.5591  0.4767
  370MOL0     C50934   3.036   8.052  10.419 -0.1952 -0.4459  1.0606
  370MOL0     C50935   2.959   7.931  10.356  0.0160  0.8405 -0.1948
  370MOL0     C50936   3.021   7.795  10.419 -0.0287  0.5856 -0.3787
  370MOL0     C50937   2.965   7.659  10.363  0.0425  0.0925  0.6729
  370MOL0     C50938   2.982   7.628  10.215 -0.3334 -0.6182  0.0490
  370MOL0     N50939   3.122   7.655  10.162  0.4186 -0.1548  0.0724
  370MOL0     C50940   3.185   7.780  10.139  0.4421 -0.1745  0.5148
  370MOL0     C50941   3.312   7.761  10.113 -0.7037 -0.5363 -0.2561
  370MOL0     C50942   3.423   7.862  10.099 -0.7402  0.1651  0.3061
  370MOL0     C50943   3.472   7.931  10.225  0.4977 -0.2125 -0.2761
  370MOL0     C50944   3.451   7.852  10.354  0.2333 -0.4504  0.2483
  370MOL0     C50945   3.515   7.922  10.464  0.1577 -0.6895 -0.2418
  370MOL0     O50946   3.573   7.829  10.549  0.5487  0.0964 -0.0986
  370MOL0     C50947   3.500   7.767  10.644 -0.8137 -0.4593  0.5771
  370MOL0     C50948   3.364   7.776  10.664 -0.3533  0.4828 -0.5092
  370MOL0     C50949   3.303   7.682  10.757 -0.3510 -0.6131  0.3232
  370MOL0     C50950   3.151   7.697  10.782  0.1983 -0.2494 -0.4408
  370MOL0     C50951   3.380   7.591  10.830  0.2850  0.6221  0.8451
  370MOL0     C50952   3.328   7.490  10.928  0.5514 -0.6336  0.1993
  370MOL0     O50953   3.400   7.490  11.040 -0.3421  0.5519  0.5185
  370MOL0     C50954   3.364   7.392  11.133 -1.1895 -0.6567  0.6570
  370MOL0     C50955   3.312   7.434  11.256  0.7004  0.1388  0.8487
  370MOL0     C50956   3.284   7.337  11.355 -0.8301  0.4784 -0.3827
  370MOL0     C50957   3.306   7.203  11.330  0.3318  0.6161  0.7817
  370MOL0     O50958   3.280   7.117  11.428 -0.7864 -0.3465  0.0962
  370MOL0     C50959   3.388   7.104  11.530 -0.3396 -0.2461  0.1710
  370MOL0     C50960   3.334   7.064  11.668 -0.1727 -0.9165  0.0075
  370MOL0     C50961   3.256   7.182  11.741 -0.1119 -0.0438 -0.0123
  370MOL0     C50962   3.210   7.127  11.876 -0.0485 -0.1753  0.4260
  370MOL0     C50963   3.149   7.241  11.962 -0.6027  0.2846  0.6308
  370MOL0     C50964   3.009   7.286  11.907 -0.6653 -0.1338  0.8141
  370MOL0     C50965   2.920   7.352  12.008 -0.0344 -0.8257  0.1847
  370MOL0     C50966   2.768   7.326  11.980 -0.0470 -0.1220 -0.0866
  370MOL0    Cl50967   2.735   7.142  11.981  0.0352  0.1212 -0.3557
  370MOL0     C50968   3.344   7.156  11.203 -0.4955 -0.4938  0.0092
  370MOL0     C50969   3.373   7.258  11.099  0.3006  0.2005 -1.3599
  370MOL0     O50970   3.242   7.411  10.904  1.0497 -0.1524 -0.3741
  370MOL0     C50971   3.514   7.589  10.801  0.4566  1.4327  0.6702
  370MOL0     C50972   3.577   7.678  10.718 -0.0329 -0.4059 -0.4328
  370MOL0     N50973   3.328   7.621  10.109 -0.9009 -0.1313 -1.0693
  370MOL0     N50974   3.217   7.555  10.138  0.2252  0.1501  0.3053
  370MOL0     C50975   2.832   8.200  11.025 -0.5816  0.8255  0.8270
  370MOL0     C50976   2.786   8.133  11.138  0.5591 -0.1705 -0.2091
  370MOL0     C50977   2.529   7.920  11.376 -1.0553  0.7900  0.3960
  370MOL0     C50978   2.396   7.876  11.364 -0.1770 -0.0027  0.1024
  370MOL0     C50979   2.310   7.855  11.476  0.3018  0.1793  0.6356
  370MOL0     C50980   2.366   7.873  11.603  0.0370 -0.1862  0.0013
  370MOL0     O50981   2.302   7.840  11.715 -0.1233 -0.5447 -0.3657
  370MOL0     C50982   2.166   7.833  11.715 -0.0486  0.5375  0.0112
  370MOL0     C50983   2.119   7.828  11.858 -0.7049  0.3514 -0.9616
  370MOL0     C50984   2.167   7.946  11.936  0.0059 -0.7774 -0.5131
  370MOL0     C50985   2.075   7.975  12.057 -0.2743 -0.1136  0.1598
  370MOL0     C50986   2.139   8.079  12.133 -0.1156  0.5484  0.2813
  370MOL0     C50987   2.207   8.171  12.176  0.5065  0.2652 -0.2470
  370MOL0     C50988   2.500   7.911  11.617  0.0646  0.3071  0.2436
  370MOL0     C50989   2.585   7.937  11.506 -0.0197 -0.8443 -0.1888
  370MOL0     C50990   2.722   7.968  11.548 -0.5257  0.0394 -0.4787
  370MOL0     H50991   2.867   7.808  11.057 -2.3882 -0.1172 -2.1313
  370MOL0     H50992   2.967   7.925  10.863  2.6269 -1.0413  3.8700
  370MOL0     H50993   2.887   8.291  10.655  2.6810  1.2480  1.6661
  370MOL0     H50994   2.753   8.190  10.708 -0.7947  3.6153  0.6170
  370MOL0     H50995   2.886   7.997  10.674 -1.8464  0.7822  0.4493
  370MOL0     H50996   2.826   8.076  10.535 -2.4497 -0.2854  1.4814
  370MOL0     H50997   3.104   8.154  10.601  1.3088 -0.7006  0.7550
  370MOL0     H50998   3.092   7.985  10.625  0.2947  1.2708  0.9115
  370MOL0     H50999   2.996   8.149  10.389 -1.1662 -0.2523  2.8266
  370MOL0     H51000   3.133   8.055  10.368 -0.6090 -1.5923  0.1682
  370MOL0     H51001   2.949   7.938  10.247 -1.8381  2.7935  0.0345
  370MOL0     H51002   2.857   7.933  10.394  0.7394  0.1311  1.8759
  370MOL0     H51003   3.130   7.794  10.419  0.1592 -3.1774  2.7081
  370MOL0     H51004   2.991   7.801  10.524  1.1214  3.0832 -0.1042
  370MOL0     H51005   2.861   7.663  10.396 -0.3333  2.3958 -0.6067
  370MOL0     H51006   3.021   7.582  10.418  1.1918 -1.0993 -1.9794
  370MOL0     H51007   2.959   7.522  10.203 -0.6973 -0.8302  2.1894
  370MOL0     H51008   2.908   7.682  10.155  0.0637 -2.2750 -2.0403
  370MOL0     H51009   3.143   7.879  10.146  3.2388  1.2141 -0.9898
  370MOL0     H51010   3.402   7.943  10.028  0.6249  0.5612  0.3083
  370MOL0     H51011   3.500   7.805  10.045 -0.2461 -0.3642  1.5352
  370MOL0     H51012   3.572   7.973  10.212  0.9588 -1.1685  0.1327
  370MOL0     H51013   3.412   8.023  10.225  1.0947  0.1926 -0.6675
  370MOL0     H51014   3.343   7.858  10.369  0.4158  1.5763  1.2270
  370MOL0     H51015   3.480   7.747  10.352  2.0473 -0.0577  2.2106
  370MOL0     H51016   3.591   7.992  10.427 -1.5551  0.8153 -1.0955
  370MOL0     H51017   3.437   7.980  10.515 -1.8707 -2.1350 -1.5372
  370MOL0     H51018   3.302   7.857  10.626  1.1188  1.6037 -0.6019
  370MOL0     H51019   3.098   7.603  10.801  1.0630 -0.7667 -0.5165
  370MOL0     H51020   3.101   7.740  10.694 -0.9431  1.8440  1.1581
  370MOL0     H51021   3.130   7.769  10.861  0.0726 -1.6380  0.8209
  370MOL0     H51022   3.292   7.536  11.285  0.3553 -0.0277  1.2220
  370MOL0     H51023   3.256   7.378  11.452  2.6704  3.1344 -0.3087
  370MOL0     H51024   3.463   7.031  11.497 -1.3918 -0.4495 -1.9248
  370MOL0     H51025   3.436   7.201  11.545 -2.7391  2.0213 -4.6088
  370MOL0     H51026   3.281   6.968  11.667  1.6797 -1.9774  0.1818
  370MOL0     H51027   3.431   7.054  11.717  0.4394  2.2356 -0.3797
  370MOL0     H51028   3.166   7.217  11.690  1.9188  2.2985 -2.2781
  370MOL0     H51029   3.327   7.266  11.738 -1.5596  1.2179 -3.1531
  370MOL0     H51030   3.295   7.084  11.930 -0.4138 -0.1680  1.0195
  370MOL0     H51031   3.139   7.044  11.874 -0.4131  0.0722 -3.3110
  370MOL0     H51032   3.140   7.201  12.063  4.0964  1.0234  1.5761
  370MOL0     H51033   3.213   7.330  11.963 -0.8140  0.4342  1.2278
  370MOL0     H51034   2.952   7.203  11.864 -0.7143  0.6680 -0.7097
  370MOL0     H51035   3.020   7.346  11.817 -1.0081 -1.8392 -0.4118
  370MOL0     H51036   2.937   7.460  12.008 -0.2399 -0.5959  4.7456
  370MOL0     H51037   2.934   7.321  12.112  0.3834  0.7505  0.6363
  370MOL0     H51038   2.752   7.379  11.886  0.3642  1.7711  0.8501
  370MOL0     H51039   2.708   7.376  12.057 -0.0587 -1.7305  0.9914
  370MOL0     H51040   3.360   7.050  11.189 -1.8460 -0.5735 -1.1401
  370MOL0     H51041   3.395   7.217  11.001 -2.1769 -2.0296 -1.1271
  370MOL0     H51042   3.575   7.514  10.850 -3.3520 -1.8252  0.9402
  370MOL0     H51043   3.685   7.672  10.714 -0.0269 -0.3205 -0.4073
  370MOL0     H51044   2.822   8.308  11.023 -1.4303  0.7526  0.7394
  370MOL0     H51045   2.737   8.194  11.212  3.3277  0.2277  1.4304
  370MOL0     H51046   2.352   7.844  11.270 -1.4990 -1.9493  1.3194
  370MOL0     H51047   2.207   7.822  11.474  0.1162  0.7807 -0.8742
  370MOL0     H51048   2.118   7.910  11.655 -1.3466  0.4700  0.8960
  370MOL0     H51049   2.138   7.737  11.670 -1.1731 -1.2379  3.9513
  370MOL0     H51050   2.161   7.738  11.905  2.0506  2.1182  0.2119
  370MOL0     H51051   2.010   7.817  11.858 -0.8078  0.7047  1.5459
  370MOL0     H51052   2.262   7.915  11.979  1.0317  0.6897 -1.6164
  370MOL0     H51053   2.169   8.035  11.872 -1.8654 -0.2844  0.0565
  370MOL0     H51054   2.074   7.887  12.122  0.0311 -0.6831 -0.5937
  370MOL0     H51055   1.974   8.006  12.029  0.0198  0.6287 -0.0883
  370MOL0     H51056   2.262   8.243  12.233 -1.5222 -0.7430  3.3132
  370MOL0     H51057   2.530   7.923  11.720  2.7299 -2.2647 -0.1151
  370MOL0     H51058   2.783   7.878  11.563 -1.1762 -0.4762 -0.8797
  370MOL0     H51059   2.771   8.035  11.477 -1.6134  0.5611 -0.7569
  370MOL0     H51060   2.722   8.022  11.643 -3.3575  0.2929 -0.5442
  371MOL0     O51061   4.334   3.896   3.546  0.1143  0.3027  0.0087
  371MOL0     C51062   4.437   3.943   3.507  0.5672  0.4070  0.5419
  371MOL0     O51063   4.453   3.998   3.388  0.2957  0.3580  0.8043
  371MOL0     C51064   4.344   4.042   3.323  0.5597 -0.0475 -0.0447
  371MOL0     C51065   4.290   3.955   3.230  0.6575  1.2637  0.1371
  371MOL0     C51066   4.174   3.999   3.156  0.5338  0.5182 -0.3277
  371MOL0     C51067   4.120   4.120   3.186 -0.1345 -0.1221  0.6315
  371MOL0     O51068   4.008   4.146   3.108 -0.1982 -0.0822 -0.5765
  371MOL0     C51069   3.934   4.264   3.133  0.2624 -0.0233 -0.0235
  371MOL0     C51070   3.811   4.261   3.039  0.7218 -0.5128 -0.2627
  371MOL0     C51071   3.730   4.380   3.037  0.2734 -0.3833  0.2909
  371MOL0     C51072   3.636   4.394   2.912  0.4364  0.4083  0.3555
  371MOL0     C51073   3.547   4.521   2.911  0.5176 -0.5110 -0.5789
  371MOL0     C51074   3.472   4.520   2.780  0.1469 -0.2234  0.7541
  371MOL0     C51075   3.340   4.449   2.787 -0.2869  0.2225 -0.1444
  371MOL0     C51076   3.260   4.448   2.663  0.5129 -0.0132  0.3908
  371MOL0     N51077   3.149   4.351   2.655 -0.1621  0.1706 -0.7386
  371MOL0     C51078   3.146   4.216   2.617 -0.7318 -0.1524  0.6014
  371MOL0     C51079   3.012   4.184   2.617  0.4815  0.8441  0.2997
  371MOL0     C51080   2.956   4.054   2.558  0.0198  0.0902  0.0040
  371MOL0     C51081   2.974   4.043   2.408 -0.2734  0.4508  0.2297
  371MOL0     C51082   3.121   4.019   2.356  0.0785  0.5480 -0.6714
  371MOL0     C51083   3.204   3.898   2.412  0.2760 -0.5816 -0.3654
  371MOL0     O51084   3.223   3.903   2.552  0.0829 -0.1726 -1.0858
  371MOL0     C51085   3.260   3.787   2.617 -0.5680 -0.7539 -1.1102
  371MOL0     C51086   3.333   3.684   2.549 -0.7981 -1.2321  0.3523
  371MOL0     C51087   3.401   3.574   2.616 -0.9224  0.9058 -0.3749
  371MOL0     C51088   3.486   3.483   2.533  0.7166  0.2408  0.1159
  371MOL0     C51089   3.375   3.557   2.753  1.2584  0.0639  0.2875
  371MOL0     C51090   3.406   3.430   2.831 -0.6826 -0.4013 -0.5956
  371MOL0     O51091   3.439   3.313   2.770  0.3076  0.4865  0.2831
  371MOL0     C51092   3.445   3.197   2.843  0.4400  0.1628  0.0272
  371MOL0     C51093   3.511   3.176   2.974  0.5091  0.0377  0.1493
  371MOL0     C51094   3.496   3.054   3.040 -0.1362 -0.9085 -1.1171
  371MOL0     C51095   3.426   2.946   2.985 -0.1568  0.4768 -0.1413
  371MOL0     O51096   3.410   2.834   3.067 -0.1606 -0.2289  1.0875
  371MOL0     C51097   3.293   2.835   3.149 -0.8829  0.2759 -0.0027
  371MOL0     C51098   3.152   2.855   3.090 -0.7087  0.0330 -0.1384
  371MOL0     C51099   3.040   2.847   3.203 -0.0239  0.5746  0.0311
  371MOL0     C51100   2.905   2.890   3.153 -0.1590 -0.8981  0.7246
  371MOL0     C51101   2.793   2.873   3.257 -0.1445  0.8058 -0.0130
  371MOL0     C51102   2.660   2.941   3.219  0.2730  0.6634  0.1158
  371MOL0     C51103   2.590   2.861   3.108 -0.2221 -0.7791  0.1883
  371MOL0     C51104   2.441   2.901   3.091 -0.6392 -0.6576  0.5677
  371MOL0    Cl51105   2.342   2.810   3.204  0.1498 -0.0309 -0.0991
  371MOL0     C51106   3.359   2.961   2.865  0.2126 -0.5365  0.0458
  371MOL0     C51107   3.365   3.087   2.794  0.2715  0.4689 -0.7269
  371MOL0     O51108   3.402   3.446   2.952 -0.0980  0.1608  0.1313
  371MOL0     C51109   3.314   3.670   2.819  0.5802  0.4069  0.2877
  371MOL0     C51110   3.253   3.783   2.756 -0.3130 -0.9810  0.2352
  371MOL0     N51111   2.934   4.290   2.670  0.0760  0.8864  0.4728
  371MOL0     N51112   3.016   4.385   2.675 -0.6605  1.1067  0.1521
  371MOL0     C51113   4.164   4.194   3.293  0.5675  0.1789 -0.7329
  371MOL0     C51114   4.281   4.160   3.362 -0.4741  0.5700  0.1989
  371MOL0     C51115   4.556   3.945   3.605  0.3154  0.3241 -0.4179
  371MOL0     C51116   4.661   4.024   3.562  1.0275 -0.2771  0.2382
  371MOL0     C51117   4.785   4.023   3.631 -0.3970 -0.4592 -0.6705
  371MOL0     C51118   4.796   3.945   3.743 -0.3042 -0.3926  0.0718
  371MOL0     O51119   4.908   3.944   3.824  0.7721 -0.9850 -0.7722
  371MOL0     C51120   5.024   4.006   3.774 -0.3367  0.1141 -0.4946
  371MOL0     C51121   5.145   3.994   3.870  1.3581 -1.1557  0.2020
  371MOL0     C51122   5.229   3.864   3.854 -0.2895  0.0824 -0.3357
  371MOL0     C51123   5.350   3.865   3.956  1.0866 -0.1846 -0.3896
  371MOL0     C51124   5.394   3.735   3.994  1.0450  0.6507 -1.3292
  371MOL0     C51125   5.431   3.621   4.027  0.1276 -0.0123  0.2286
  371MOL0     C51126   4.694   3.868   3.791 -0.0234 -0.3354  0.0731
  371MOL0     C51127   4.574   3.861   3.723  0.5719 -0.2666 -0.3688
  371MOL0     C51128   4.473   3.755   3.770 -1.0182 -0.0119  0.5045
  371MOL0     H51129   4.338   3.860   3.207 -1.9429 -0.0725 -0.0740
  371MOL0     H51130   4.134   3.924   3.088  1.2713 -0.1440 -0.0521
  371MOL0     H51131   3.998   4.349   3.108 -3.1936  2.2798 -2.0501
  371MOL0     H51132   3.906   4.265   3.239 -1.6337  0.5379 -0.4782
  371MOL0     H51133   3.840   4.246   2.934  2.6070  1.9767 -0.1978
  371MOL0     H51134   3.760   4.168   3.065 -0.3600 -0.1874 -1.1841
  371MOL0     H51135   3.668   4.387   3.127  0.1459  0.6935  0.1428
  371MOL0     H51136   3.795   4.468   3.044 -1.3557  0.9383 -0.4515
  371MOL0     H51137   3.696   4.393   2.821  1.3072 -0.1244  0.9311
  371MOL0     H51138   3.573   4.305   2.911  2.5248 -1.1340 -0.4293
  371MOL0     H51139   3.589   4.621   2.928  1.2245 -0.8576 -0.2637
  371MOL0     H51140   3.466   4.518   2.984 -0.8884 -0.7443 -2.0854
  371MOL0     H51141   3.451   4.626   2.764  2.2515  0.2952  1.1518
  371MOL0     H51142   3.536   4.487   2.697  0.0796 -0.7141  0.8941
  371MOL0     H51143   3.270   4.480   2.865 -2.5460  0.5308 -2.1920
  371MOL0     H51144   3.371   4.345   2.803  1.8195  1.1412  2.4759
  371MOL0     H51145   3.222   4.549   2.648  1.5356  0.0845 -1.9744
  371MOL0     H51146   3.320   4.425   2.575 -1.4865 -2.7105 -0.3831
  371MOL0     H51147   3.234   4.160   2.585  1.1266  1.8776  1.8495
  371MOL0     H51148   2.848   4.066   2.573  0.0328  1.3139 -0.8140
  371MOL0     H51149   2.992   3.967   2.615  1.5809  1.0517  0.5423
  371MOL0     H51150   2.916   3.959   2.370  1.0151  0.6322 -2.3773
  371MOL0     H51151   2.937   4.130   2.354  0.9619 -0.0098 -1.4463
  371MOL0     H51152   3.120   4.000   2.249 -1.8230 -2.5351 -0.2419
  371MOL0     H51153   3.184   4.106   2.374  0.1021  0.5590 -0.8081
  371MOL0     H51154   3.153   3.804   2.388  0.6828 -1.7546  2.8537
  371MOL0     H51155   3.306   3.895   2.374  0.1130 -0.4593 -0.8201
  371MOL0     H51156   3.348   3.680   2.442 -1.2120 -2.0953  0.3189
  371MOL0     H51157   3.578   3.460   2.588  2.2689  0.3169 -2.2619
  371MOL0     H51158   3.507   3.537   2.440  0.1251 -0.3903 -0.3989
  371MOL0     H51159   3.430   3.395   2.500  0.5770  0.2510  0.3263
  371MOL0     H51160   3.574   3.248   3.026  1.6377 -0.8149  0.0086
  371MOL0     H51161   3.523   3.053   3.145 -3.4447  0.5397 -0.1237
  371MOL0     H51162   3.301   2.739   3.200  0.4934 -0.8239 -2.1508
  371MOL0     H51163   3.304   2.915   3.223  1.0030 -1.1528  1.3683
  371MOL0     H51164   3.145   2.957   3.051  3.7755 -0.1699 -2.0661
  371MOL0     H51165   3.133   2.787   3.007 -0.9535  0.7282 -0.6569
  371MOL0     H51166   3.070   2.913   3.286  0.1819  2.5705 -1.5536
  371MOL0     H51167   3.032   2.743   3.236  0.3826 -0.8425 -3.8464
  371MOL0     H51168   2.869   2.835   3.065  0.7609  0.6256 -0.6859
  371MOL0     H51169   2.915   2.995   3.123 -1.4624 -1.1872 -0.8527
  371MOL0     H51170   2.779   2.767   3.277 -2.0522  0.2338 -3.6706
  371MOL0     H51171   2.821   2.925   3.350 -0.6569  0.0362  0.5879
  371MOL0     H51172   2.666   3.045   3.187 -0.4284  0.9743  0.9394
  371MOL0     H51173   2.586   2.936   3.300  0.0325  1.3692 -0.0555
  371MOL0     H51174   2.601   2.753   3.120  1.9056 -0.8682 -1.7352
  371MOL0     H51175   2.644   2.887   3.016 -1.2660  1.9699  0.2655
  371MOL0     H51176   2.403   2.878   2.991  0.0539 -0.3173  0.2173
  371MOL0     H51177   2.437   3.009   3.108  1.8507 -0.5011  0.5934
  371MOL0     H51178   3.301   2.882   2.820  0.3767  0.0060 -1.1484
  371MOL0     H51179   3.309   3.091   2.702  0.1359 -1.5287 -0.7844
  371MOL0     H51180   3.295   3.668   2.926 -0.4456 -0.4135  0.1040
  371MOL0     H51181   3.202   3.858   2.816 -0.0609  0.4888 -1.3206
  371MOL0     H51182   4.107   4.284   3.314 -1.4053 -1.1075 -0.4435
  371MOL0     H51183   4.319   4.218   3.446 -0.2381  1.5189 -0.5489
  371MOL0     H51184   4.665   4.094   3.478 -2.5500  4.0129  3.1761
  371MOL0     H51185   4.866   4.090   3.603  0.6608 -0.9510  1.0884
  371MOL0     H51186   5.052   3.955   3.682  0.6284 -5.1628  2.3436
  371MOL0     H51187   5.015   4.115   3.768 -2.0887 -0.0518 -1.2622
  371MOL0     H51188   5.097   3.994   3.968 -1.9198 -0.1185 -1.2660
  371MOL0     H51189   5.215   4.077   3.859  0.9514 -0.9910 -1.3689
  371MOL0     H51190   5.173   3.772   3.871  1.9729 -1.7408 -1.9734
  371MOL0     H51191   5.272   3.844   3.755 -5.6442 -1.3492 -2.7374
  371MOL0     H51192   5.311   3.920   4.042 -2.7686 -0.4464 -1.7970
  371MOL0     H51193   5.434   3.925   3.918  3.7061 -3.2307  0.1415
  371MOL0     H51194   5.472   3.529   4.065 -0.3578  0.3300  1.6572
  371MOL0     H51195   4.702   3.794   3.870 -0.9822 -0.4123  0.1065
  371MOL0     H51196   4.515   3.692   3.848 -1.6031 -0.5339  0.4009
  371MOL0     H51197   4.391   3.814   3.813 -0.6467  0.4796  0.5552
  371MOL0     H51198   4.449   3.688   3.687 -1.3038  0.0151  0.5646
  372MOL0     O51199  10.844   0.335   1.876 -0.0520 -0.1235  0.4423
  372MOL0     C51200  10.932   0.374   1.948 -0.1601  0.2637 -0.1342
  372MOL0     O51201  11.034   0.291   1.993 -0.2729  0.0820  0.8375
  372MOL0     C51202  11.025   0.157   1.961  0.3070 -0.3504 -0.6255
  372MOL0     C51203  11.147   0.099   1.930 -0.9871  0.4999  0.1086
  372MOL0     C51204  11.164  -0.037   1.895 -0.6991 -0.1464  0.8022
  372MOL0     C51205  11.045  -0.117   1.911  0.4415 -0.2159  0.0205
  372MOL0     O51206  11.048  -0.253   1.883  0.6378 -0.1751  0.4957
  372MOL0     C51207  11.111  -0.301   1.765 -0.0942 -0.0237 -0.2605
  372MOL0     C51208  11.062  -0.439   1.722  0.2860 -0.0522 -0.9886
  372MOL0     C51209  11.115  -0.556   1.809 -0.4451 -0.1280  1.1941
  372MOL0     C51210  11.270  -0.540   1.847  0.9650  0.0511  0.5191
  372MOL0     C51211  11.327  -0.683   1.829 -0.0804  0.3631 -0.5649
  372MOL0     C51212  11.463  -0.714   1.908  0.9170 -0.5495  0.7905
  372MOL0     C51213  11.571  -0.614   1.877 -1.3990 -0.3981 -0.2438
  372MOL0     C51214  11.635  -0.636   1.736  0.2656  0.1204  0.2181
  372MOL0     N51215  11.708  -0.768   1.724  0.1740 -0.4705  0.5212
  372MOL0     C51216  11.839  -0.791   1.768 -0.1137 -1.0810  0.3244
  372MOL0     C51217  11.878  -0.905   1.710  0.1308 -0.1703  0.1647
  372MOL0     C51218  12.006  -0.964   1.742 -0.0280 -0.3530 -0.1719
  372MOL0     C51219  12.102  -0.926   1.621 -0.6597  0.2742  1.0884
  372MOL0     C51220  12.233  -1.006   1.618 -1.1161  0.4799  0.2020
  372MOL0     C51221  12.311  -1.014   1.750 -0.9634 -0.0389  0.0399
  372MOL0     O51222  12.331  -0.884   1.812  0.0994  0.1478  0.3746
  372MOL0     C51223  12.454  -0.827   1.813  0.6579 -0.0360  0.4108
  372MOL0     C51224  12.505  -0.770   1.702  0.2895 -0.0044 -0.2595
  372MOL0     C51225  12.635  -0.716   1.716  0.3960  0.2937  0.5422
  372MOL0     C51226  12.687  -0.680   1.578  0.4999 -0.2710 -0.4712
  372MOL0     C51227  12.711  -0.711   1.836 -0.2564  0.1209  0.0231
  372MOL0     C51228  12.843  -0.649   1.857 -0.4358  0.5088  0.4279
  372MOL0     O51229  12.873  -0.552   1.771 -0.9496 -0.7798 -0.5712
  372MOL0     C51230  12.928  -0.442   1.833  0.3596  0.2732  0.0123
  372MOL0     C51231  12.871  -0.377   1.945  0.3935  0.2471  0.6818
  372MOL0     C51232  12.919  -0.255   1.995 -0.7039 -1.3854  0.5092
  372MOL0     C51233  13.040  -0.206   1.938  0.7385 -0.1691 -0.4583
  372MOL0     O51234  13.086  -0.092   1.992  0.4606  1.2868 -0.9526
  372MOL0     C51235  13.182  -0.006   1.934 -0.2981 -0.4360  0.1921
  372MOL0     C51236  13.327  -0.036   1.969  0.1823  0.1746 -1.3029
  372MOL0     C51237  13.366  -0.013   2.121 -0.1255  0.0390 -0.8998
  372MOL0     C51238  13.518  -0.015   2.155  1.0081 -0.7703  0.3937
  372MOL0     C51239  13.556   0.020   2.301  0.3481  0.2377  1.0385
  372MOL0     C51240  13.711   0.009   2.328  0.6436 -0.6608 -0.3016
  372MOL0     C51241  13.756   0.010   2.475 -0.4051  0.7554  0.2725
  372MOL0     C51242  13.759  -0.126   2.548 -1.3513 -0.6000  0.4032
  372MOL0    Cl51243  13.909  -0.208   2.502  0.2219  0.2976 -0.0979
  372MOL0     C51244  13.106  -0.274   1.838 -0.3702  0.2121  0.7789
  372MOL0     C51245  13.043  -0.384   1.780 -0.2525  0.1692 -1.0913
  372MOL0     O51246  12.901  -0.678   1.958 -0.1471  0.5617 -0.0062
  372MOL0     C51247  12.648  -0.779   1.938 -0.4443 -0.4180 -0.2893
  372MOL0     C51248  12.516  -0.825   1.934 -0.0343  0.4291  0.0165
  372MOL0     N51249  11.779  -0.941   1.618 -0.1316 -0.4988  0.6506
  372MOL0     N51250  11.668  -0.869   1.636 -0.8048  0.1527 -0.3719
  372MOL0     C51251  10.925  -0.063   1.942 -0.3970  0.8249 -0.1757
  372MOL0     C51252  10.907   0.078   1.956 -0.5031  0.3340 -0.2988
  372MOL0     C51253  10.959   0.524   1.994  0.2118  0.2855  0.7097
  372MOL0     C51254  11.073   0.553   2.061  0.7285  0.4729 -0.4092
  372MOL0     C51255  11.108   0.670   2.126 -0.2538  0.6540  0.4613
  372MOL0     C51256  11.020   0.772   2.101 -0.0075 -0.9567  0.4370
  372MOL0     O51257  11.047   0.892   2.160  0.1035  0.3113 -0.1072
  372MOL0     C51258  10.957   0.996   2.185  1.1008  0.8294 -0.3442
  372MOL0     C51259  10.842   0.944   2.277  0.3488  0.5326 -0.0656
  372MOL0     C51260  10.877   0.940   2.428  0.2535  0.0428 -0.3540
  372MOL0     C51261  10.994   0.843   2.459 -0.6317  0.1572 -0.0189
  372MOL0     C51262  10.957   0.707   2.431 -0.5951 -0.5690 -0.1344
  372MOL0     C51263  10.956   0.588   2.405 -0.4164  0.8757 -0.8957
  372MOL0     C51264  10.911   0.757   2.006 -0.1300 -0.5928  0.0118
  372MOL0     C51265  10.878   0.632   1.954 -1.0388 -0.1726  0.1867
  372MOL0     C51266  10.768   0.633   1.852 -0.1812  0.4475 -0.3264
  372MOL0     H51267  11.236   0.161   1.928 -0.1926 -0.6030 -0.3540
  372MOL0     H51268  11.261  -0.069   1.859 -0.1692  2.7785 -0.6900
  372MOL0     H51269  11.219  -0.301   1.779 -0.0508  1.3226 -0.4718
  372MOL0     H51270  11.078  -0.233   1.686 -2.5941 -0.5188  0.2640
  372MOL0     H51271  10.953  -0.446   1.719  0.3028  0.1080 -2.8037
  372MOL0     H51272  11.099  -0.459   1.621 -0.5411 -3.2378 -0.7557
  372MOL0     H51273  11.062  -0.559   1.905  1.3683  0.9268  2.3073
  372MOL0     H51274  11.089  -0.646   1.753  0.2429 -0.0766  0.7797
  372MOL0     H51275  11.328  -0.479   1.778  1.4611 -0.9563  0.0264
  372MOL0     H51276  11.281  -0.498   1.948 -0.1041  3.5396 -0.6840
  372MOL0     H51277  11.344  -0.697   1.722 -0.3678 -0.5873 -0.4892
  372MOL0     H51278  11.250  -0.755   1.858  0.1803  1.0315  2.0761
  372MOL0     H51279  11.451  -0.719   2.017  1.3573 -0.0130  0.8660
  372MOL0     H51280  11.494  -0.813   1.873 -0.7768 -1.1750  0.9501
  372MOL0     H51281  11.648  -0.625   1.954 -1.0310 -0.3369 -0.6057
  372MOL0     H51282  11.549  -0.509   1.896 -0.9392 -0.6167  1.7723
  372MOL0     H51283  11.556  -0.621   1.661  1.3316  1.1950 -0.7365
  372MOL0     H51284  11.700  -0.553   1.706 -1.8132  1.0255 -2.2381
  372MOL0     H51285  11.903  -0.732   1.833  1.0617  0.7115 -2.2763
  372MOL0     H51286  11.991  -1.071   1.761  0.0902 -0.2829  0.3352
  372MOL0     H51287  12.036  -0.921   1.838 -0.4286  1.2833 -0.7488
  372MOL0     H51288  12.052  -0.951   1.527  2.3455 -3.0664  0.1748
  372MOL0     H51289  12.138  -0.823   1.632  2.6122 -0.8468  1.8831
  372MOL0     H51290  12.210  -1.110   1.593  0.3800  0.5909 -1.8535
  372MOL0     H51291  12.290  -0.969   1.533 -0.6897 -2.7580 -1.0739
  372MOL0     H51292  12.256  -1.079   1.819 -0.7626 -1.7089 -1.3245
  372MOL0     H51293  12.411  -1.055   1.735 -1.1242 -0.1108 -0.9186
  372MOL0     H51294  12.447  -0.770   1.610 -0.2315 -1.9116  0.0188
  372MOL0     H51295  12.611  -0.694   1.500 -0.7710 -1.0643  0.8542
  372MOL0     H51296  12.775  -0.740   1.556  2.7915  2.3067  1.0089
  372MOL0     H51297  12.715  -0.575   1.567 -0.2771 -0.2357 -2.5318
  372MOL0     H51298  12.777  -0.410   1.988  0.5179  0.1780  0.9029
  372MOL0     H51299  12.887  -0.194   2.078  0.1326  0.2958 -0.3400
  372MOL0     H51300  13.175  -0.002   1.825 -1.2483 -0.2964  0.2521
  372MOL0     H51301  13.155   0.097   1.959 -0.1466 -0.3554  0.0256
  372MOL0     H51302  13.365  -0.129   1.926  1.1518  0.8173 -1.8764
  372MOL0     H51303  13.381   0.043   1.916 -1.4406  1.4223 -1.1780
  372MOL0     H51304  13.323  -0.088   2.188  1.7115 -1.2027 -1.0393
  372MOL0     H51305  13.321   0.081   2.153  1.4813  0.1023  1.3924
  372MOL0     H51306  13.566   0.045   2.077  0.7606  0.9562  1.4993
  372MOL0     H51307  13.548  -0.117   2.131 -1.3469 -1.5887  0.6288
  372MOL0     H51308  13.527   0.123   2.323  2.1403  1.0728 -0.2390
  372MOL0     H51309  13.500  -0.044   2.369 -0.6358  0.2470  0.2575
  372MOL0     H51310  13.761   0.093   2.279  1.5692 -0.7551  0.4428
  372MOL0     H51311  13.748  -0.085   2.285  0.5259 -0.1932 -1.4606
  372MOL0     H51312  13.696   0.084   2.530  0.0027  0.8621  0.5851
  372MOL0     H51313  13.861   0.042   2.481 -0.1120 -0.1598  0.0690
  372MOL0     H51314  13.664  -0.175   2.523 -1.5230 -1.0823  1.9313
  372MOL0     H51315  13.756  -0.109   2.656 -1.5491 -0.5959  0.3972
  372MOL0     H51316  13.203  -0.246   1.798 -1.0866  0.5958 -0.7686
  372MOL0     H51317  13.069  -0.416   1.679 -1.3840  1.6927 -1.8903
  372MOL0     H51318  12.693  -0.780   2.037 -0.6940 -1.8056 -0.1633
  372MOL0     H51319  12.467  -0.874   2.017 -1.2733 -1.5961 -1.7868
  372MOL0     H51320  10.842  -0.128   1.968 -0.5460  2.0823  2.8443
  372MOL0     H51321  10.810   0.118   1.983 -0.2596 -0.1796  1.4334
  372MOL0     H51322  11.147   0.478   2.089  1.9751  2.5371  2.2729
  372MOL0     H51323  11.205   0.680   2.174  1.0718 -4.2894 -0.6555
  372MOL0     H51324  11.002   1.087   2.228 -1.4134  2.0806 -0.1333
  372MOL0     H51325  10.918   1.024   2.087  2.2355 -1.1027 -1.4123
  372MOL0     H51326  10.793   0.853   2.241  0.9007 -1.0426  2.8150
  372MOL0     H51327  10.775   1.030   2.271  0.0070  0.1810 -1.9596
  372MOL0     H51328  10.898   1.042   2.461 -0.8832 -0.0173  0.6155
  372MOL0     H51329  10.792   0.907   2.488 -0.5047 -0.1134 -1.4775
  372MOL0     H51330  11.013   0.846   2.567 -1.7368 -0.0758  0.1995
  372MOL0     H51331  11.082   0.874   2.402 -0.0195 -3.9994 -1.6383
  372MOL0     H51332  10.953   0.487   2.369 -2.6856 -0.4771  2.6032
  372MOL0     H51333  10.854   0.849   1.996  1.7962  0.9325  2.1491
  372MOL0     H51334  10.814   0.598   1.759  0.8705  0.1420  0.2926
  372MOL0     H51335  10.687   0.566   1.886  1.9057 -2.1644 -0.1579
  372MOL0     H51336  10.732   0.735   1.840  0.9488  0.7062 -1.6376
  373MOL0     O51337  10.634   4.702   0.785  0.6147  0.1803  0.5637
  373MOL0     C51338  10.701   4.793   0.831  0.2901 -0.4971 -0.6195
  373MOL0     O51339  10.791   4.779   0.933 -0.1665 -0.0007 -0.4779
  373MOL0     C51340  10.836   4.649   0.965 -0.0466 -0.0044 -0.6954
  373MOL0     C51341  10.882   4.618   1.094  0.8721 -0.6489 -0.1067
  373MOL0     C51342  10.920   4.496   1.135 -0.5409 -0.7343 -0.9390
  373MOL0     C51343  10.924   4.394   1.043 -0.2644  1.1523  1.3378
  373MOL0     O51344  10.964   4.259   1.045  0.1911  0.5545  0.0235
  373MOL0     C51345  10.987   4.196   1.173 -0.0152 -0.7569  0.5176
  373MOL0     C51346  10.993   4.055   1.122  0.0339  1.0881  0.0929
  373MOL0     C51347  11.056   3.950   1.215 -0.2619 -0.6095  0.0434
  373MOL0     C51348  11.045   3.990   1.361  0.4947 -0.1348 -0.4129
  373MOL0     C51349  11.097   3.876   1.455 -0.5099 -0.1026 -0.0944
  373MOL0     C51350  11.028   3.904   1.594  0.0717 -0.0337 -0.7329
  373MOL0     C51351  11.038   3.783   1.691  0.6770  0.1667 -0.7668
  373MOL0     C51352  10.976   3.821   1.829  0.5294 -0.1917 -0.6884
  373MOL0     N51353  11.030   3.731   1.934  0.2032 -0.5395  0.0896
  373MOL0     C51354  11.159   3.724   1.985  0.8338 -0.4835  0.1915
  373MOL0     C51355  11.174   3.595   2.019  0.9994 -0.2910  0.7562
  373MOL0     C51356  11.301   3.524   2.048  0.7597 -0.1614  0.3454
  373MOL0     C51357  11.407   3.560   1.943 -0.0170  0.6744 -0.3773
  373MOL0     C51358  11.505   3.659   1.993  0.3343 -0.6726  0.2829
  373MOL0     C51359  11.628   3.684   1.906  0.1127  0.1999  0.5843
  373MOL0     O51360  11.598   3.681   1.765 -0.2037  0.4421  0.3330
  373MOL0     C51361  11.545   3.794   1.709 -0.6278  0.0411  0.1623
  373MOL0     C51362  11.533   3.920   1.766 -0.5951  0.2291  0.0774
  373MOL0     C51363  11.472   4.025   1.697 -0.3130 -0.8159 -0.7390
  373MOL0     C51364  11.467   4.162   1.763 -0.3765  0.0279 -0.6502
  373MOL0     C51365  11.444   4.008   1.561  0.2142  0.1960 -0.5102
  373MOL0     C51366  11.404   4.113   1.469 -0.2829 -0.8624 -0.2003
  373MOL0     O51367  11.477   4.113   1.340 -1.0223 -0.4705 -0.1366
  373MOL0     C51368  11.449   4.205   1.242 -0.3736  0.7560 -0.5083
  373MOL0     C51369  11.403   4.335   1.266  0.0718 -0.0776  0.3602
  373MOL0     C51370  11.386   4.422   1.153  0.1213  0.2828 -0.2384
  373MOL0     C51371  11.409   4.381   1.027 -1.2862 -0.9623  0.6069
  373MOL0     O51372  11.378   4.478   0.931  0.8492  0.2665 -0.1515
  373MOL0     C51373  11.436   4.479   0.800  1.0620  0.4644  0.1850
  373MOL0     C51374  11.593   4.475   0.789 -0.3819  0.7899  0.0266
  373MOL0     C51375  11.641   4.507   0.649  0.1383 -0.7960  0.2288
  373MOL0     C51376  11.651   4.387   0.559 -0.5262  0.0579 -0.1903
  373MOL0     C51377  11.662   4.428   0.408 -0.2663 -1.0445  0.7566
  373MOL0     C51378  11.563   4.526   0.351  1.1343 -0.5315  0.0577
  373MOL0     C51379  11.426   4.454   0.349 -0.7899  0.2034  0.7675
  373MOL0     C51380  11.319   4.529   0.267 -0.4524  0.4776  0.6958
  373MOL0    Cl51381  11.371   4.571   0.100  0.2450 -0.0054 -0.0271
  373MOL0     C51382  11.460   4.253   0.994  0.1835  0.1423 -0.6559
  373MOL0     C51383  11.473   4.160   1.104  0.1416  0.4932  0.1797
  373MOL0     O51384  11.315   4.195   1.504 -0.4622  0.4776  1.0084
  373MOL0     C51385  11.462   3.884   1.501  0.8685 -0.5253 -1.1452
  373MOL0     C51386  11.510   3.778   1.574  0.4034 -0.2314 -0.1226
  373MOL0     N51387  11.049   3.534   2.022  0.6947  0.7638  0.7685
  373MOL0     N51388  10.960   3.621   1.971 -0.3219  0.0173  0.2896
  373MOL0     C51389  10.896   4.420   0.904  0.0929  0.0675 -0.1315
  373MOL0     C51390  10.864   4.554   0.867 -0.2521 -0.5346  0.7317
  373MOL0     C51391  10.686   4.928   0.774 -0.3610 -0.4408 -0.0170
  373MOL0     C51392  10.730   5.039   0.852 -0.4466  1.1604  0.7298
  373MOL0     C51393  10.700   5.163   0.818  0.2597  0.0697 -0.0650
  373MOL0     C51394  10.643   5.188   0.684  0.4702 -0.0058  0.0097
  373MOL0     O51395  10.611   5.310   0.632  0.5959 -0.2597 -0.2791
  373MOL0     C51396  10.674   5.420   0.697 -0.4739 -0.5146  0.6719
  373MOL0     C51397  10.693   5.540   0.595 -0.5230 -0.7463 -0.6009
  373MOL0     C51398  10.823   5.524   0.517 -0.2048  0.1049 -0.6672
  373MOL0     C51399  10.846   5.646   0.431 -0.1307  0.3637 -0.3992
  373MOL0     C51400  10.861   5.766   0.508 -0.7362 -0.0700  0.9882
  373MOL0     C51401  10.874   5.877   0.549 -0.2589 -0.2976 -0.1614
  373MOL0     C51402  10.585   5.081   0.620 -0.0259  0.2734 -0.3985
  373MOL0     C51403  10.608   4.948   0.654 -0.4899 -0.3278  0.1605
  373MOL0     C51404  10.550   4.846   0.562  0.5397 -0.7079 -0.6929
  373MOL0     H51405  10.891   4.694   1.171  3.9525 -2.5599  1.6244
  373MOL0     H51406  10.959   4.476   1.234  0.9143 -1.6326 -1.6649
  373MOL0     H51407  10.906   4.213   1.245  2.2547  0.0418  3.0285
  373MOL0     H51408  11.082   4.226   1.217 -0.4850  0.2664  0.8629
  373MOL0     H51409  10.899   4.008   1.091  1.5577 -3.3491  1.3439
  373MOL0     H51410  11.058   4.036   1.036 -0.2482 -2.2527  0.4727
  373MOL0     H51411  11.010   3.851   1.203 -0.1170 -0.6145 -0.4830
  373MOL0     H51412  11.164   3.945   1.196 -0.1855  0.1423  0.2446
  373MOL0     H51413  11.083   4.087   1.393 -0.1010 -0.6920  2.2638
  373MOL0     H51414  10.939   3.996   1.386  0.5910 -3.2795  1.3614
  373MOL0     H51415  11.206   3.867   1.460 -0.6478 -2.7469 -0.2526
  373MOL0     H51416  11.068   3.775   1.425 -1.2351 -0.4626  1.7335
  373MOL0     H51417  11.086   3.978   1.649  0.3854 -2.8346  3.0567
  373MOL0     H51418  10.922   3.929   1.587 -0.2250  1.6365  5.1491
  373MOL0     H51419  11.141   3.753   1.713  0.1081 -0.7154  0.8901
  373MOL0     H51420  10.985   3.693   1.660  2.2842 -1.4736  0.9785
  373MOL0     H51421  10.996   3.924   1.860  0.8687  0.2115 -2.1698
  373MOL0     H51422  10.867   3.816   1.820  0.2955  2.1392  0.0238
  373MOL0     H51423  11.232   3.803   1.974  1.4720 -1.1676 -0.6145
  373MOL0     H51424  11.286   3.416   2.039  1.2187 -0.1217 -1.2178
  373MOL0     H51425  11.340   3.554   2.146  0.8152  4.6332 -0.8925
  373MOL0     H51426  11.470   3.474   1.919  1.4113  1.0091  1.8767
  373MOL0     H51427  11.356   3.582   1.849 -1.8995 -0.7544  0.2489
  373MOL0     H51428  11.443   3.749   1.987  1.3934  0.0976  0.4935
  373MOL0     H51429  11.529   3.636   2.097  1.4111  0.3617  0.2863
  373MOL0     H51430  11.674   3.781   1.925 -1.6064  1.7049 -2.2109
  373MOL0     H51431  11.697   3.603   1.931  1.0460  0.7835 -0.0460
  373MOL0     H51432  11.565   3.929   1.869 -1.5407  0.3959  0.3606
  373MOL0     H51433  11.367   4.177   1.803 -1.0801  0.0710 -2.3452
  373MOL0     H51434  11.490   4.243   1.693  3.1200 -0.6812 -0.5224
  373MOL0     H51435  11.541   4.161   1.844 -1.6591 -0.9845  0.5660
  373MOL0     H51436  11.383   4.380   1.362 -1.8421 -0.8380  0.3643
  373MOL0     H51437  11.352   4.522   1.180  1.0828  0.2853  1.0683
  373MOL0     H51438  11.395   4.395   0.744  0.5076 -0.4023  1.8233
  373MOL0     H51439  11.412   4.577   0.757  1.2337 -0.4245 -2.0447
  373MOL0     H51440  11.637   4.544   0.861 -1.4096  0.0521  1.3983
  373MOL0     H51441  11.643   4.381   0.816 -0.0313 -0.0791 -3.2054
  373MOL0     H51442  11.740   4.554   0.651  0.7418 -1.9851  3.4753
  373MOL0     H51443  11.572   4.584   0.611  1.6830 -0.1222 -1.3874
  373MOL0     H51444  11.567   4.323   0.587  0.7361 -1.0244  1.3158
  373MOL0     H51445  11.744   4.335   0.581  0.0419  2.0175  2.5863
  373MOL0     H51446  11.758   4.480   0.404 -1.0758  0.4526  0.0718
  373MOL0     H51447  11.664   4.336   0.349 -2.6656 -1.2760  0.9164
  373MOL0     H51448  11.581   4.554   0.248 -0.8051  0.1503 -0.1504
  373MOL0     H51449  11.566   4.623   0.403 -1.7274  0.0218 -0.6257
  373MOL0     H51450  11.395   4.436   0.452 -1.5144 -4.3955 -0.0314
  373MOL0     H51451  11.438   4.352   0.313 -1.1246  0.4028  0.0616
  373MOL0     H51452  11.307   4.627   0.313  0.4303  0.1603  1.6497
  373MOL0     H51453  11.225   4.473   0.257  1.2494 -2.8313  1.4770
  373MOL0     H51454  11.478   4.217   0.893  0.3066  2.1183 -1.3839
  373MOL0     H51455  11.506   4.058   1.087  2.5359  1.0526  1.0647
  373MOL0     H51456  11.427   3.867   1.400 -0.9937  1.2351 -0.8452
  373MOL0     H51457  11.509   3.685   1.518 -2.5866 -0.7812  0.6761
  373MOL0     H51458  10.883   4.347   0.825 -1.7588  0.9814 -0.7276
  373MOL0     H51459  10.836   4.569   0.763 -1.8123 -2.7760  0.7765
  373MOL0     H51460  10.785   5.020   0.944  2.9731  2.5966 -0.8828
  373MOL0     H51461  10.721   5.247   0.882  1.9673 -0.5663  0.2658
  373MOL0     H51462  10.611   5.460   0.778 -0.9957  2.2532 -0.9764
  373MOL0     H51463  10.773   5.395   0.735 -0.0337 -2.0330 -1.3351
  373MOL0     H51464  10.680   5.635   0.648 -2.2837 -0.9638 -0.5934
  373MOL0     H51465  10.610   5.539   0.524 -1.5425 -0.0168  0.5355
  373MOL0     H51466  10.905   5.508   0.589 -1.1491  1.3235  0.7448
  373MOL0     H51467  10.819   5.433   0.457 -0.2129 -0.2526 -0.1284
  373MOL0     H51468  10.763   5.668   0.364 -2.4932  2.4941  2.9653
  373MOL0     H51469  10.938   5.628   0.374 -0.6204 -2.7723 -0.3837
  373MOL0     H51470  10.870   5.980   0.579 -1.5930  0.0886 -1.5452
  373MOL0     H51471  10.514   5.104   0.541 -0.7282 -2.6117 -0.7223
  373MOL0     H51472  10.620   4.771   0.523 -1.1266 -0.3541 -4.8731
  373MOL0     H51473  10.460   4.798   0.601  1.5478 -0.2984  2.4137
  373MOL0     H51474  10.519   4.882   0.464  0.5831 -0.5018 -0.6323
  374MOL0     O51475   0.646   2.893   4.089  0.2595  0.7792  0.1352
  374MOL0     C51476   0.605   2.933   4.200 -0.4117 -0.4315  0.6419
  374MOL0     O51477   0.698   2.982   4.297  0.7440  0.6717 -0.5328
  374MOL0     C51478   0.827   3.017   4.273  0.6425  0.2282 -0.0583
  374MOL0     C51479   0.910   2.999   4.383  0.2038 -0.0859 -0.4054
  374MOL0     C51480   1.043   3.031   4.377 -0.8438  0.4636 -0.0291
  374MOL0     C51481   1.102   3.082   4.261 -0.8832  0.4700 -0.3617
  374MOL0     O51482   1.238   3.108   4.280 -0.1530 -0.3623 -0.1639
  374MOL0     C51483   1.319   3.117   4.159  0.0922 -0.1194  0.4776
  374MOL0     C51484   1.462   3.138   4.207 -1.0239 -0.3636  0.9969
  374MOL0     C51485   1.573   3.091   4.108 -0.4833 -0.4397 -0.0836
  374MOL0     C51486   1.702   3.170   4.146  0.0239  0.1349  0.2624
  374MOL0     C51487   1.817   3.161   4.044  0.0942 -0.0007 -0.5014
  374MOL0     C51488   1.957   3.194   4.100  0.4559 -0.4280  0.6010
  374MOL0     C51489   2.057   3.230   3.996  0.2270  0.3242  0.6459
  374MOL0     C51490   2.022   3.370   3.931 -0.5919  0.5358 -0.2513
  374MOL0     N51491   2.132   3.402   3.827 -0.2525  0.3811 -1.1961
  374MOL0     C51492   2.241   3.475   3.848  0.4866 -0.5487  0.1790
  374MOL0     C51493   2.307   3.472   3.728  0.3216  0.4539 -0.0971
  374MOL0     C51494   2.441   3.533   3.714 -0.3633 -0.0627 -0.5878
  374MOL0     C51495   2.546   3.431   3.765  0.4131 -0.4590  0.8463
  374MOL0     C51496   2.565   3.410   3.916  0.0861 -1.3623  0.6164
  374MOL0     C51497   2.686   3.330   3.943  0.2026 -0.2121 -0.3982
  374MOL0     O51498   2.710   3.340   4.089 -0.6845 -0.4679 -0.0423
  374MOL0     C51499   2.840   3.318   4.133  0.9738  0.7627  0.1872
  374MOL0     C51500   2.933   3.250   4.059  0.0776 -0.1024  0.0091
  374MOL0     C51501   3.057   3.210   4.115  0.6115  1.1574  0.0830
  374MOL0     C51502   3.151   3.116   4.028 -0.2247 -0.6735  0.1295
  374MOL0     C51503   3.092   3.246   4.248 -0.1080 -0.6914 -0.2607
  374MOL0     C51504   3.211   3.210   4.315 -0.1000  0.5356 -0.2061
  374MOL0     O51505   3.203   3.200   4.450  0.4476 -0.2559  0.2480
  374MOL0     C51506   3.311   3.219   4.532  1.4181  0.3115  0.4177
  374MOL0     C51507   3.314   3.344   4.597 -0.7337  0.0656 -0.0588
  374MOL0     C51508   3.419   3.362   4.695  0.6958 -0.1200  0.3355
  374MOL0     C51509   3.507   3.258   4.723 -0.9732  1.4162  0.3115
  374MOL0     O51510   3.599   3.251   4.822 -0.0011  0.2220 -0.2467
  374MOL0     C51511   3.627   3.362   4.902 -1.0297 -0.4986 -0.7610
  374MOL0     C51512   3.742   3.328   5.004  0.0564  0.5852 -0.0742
  374MOL0     C51513   3.690   3.206   5.084  0.0216 -0.2316 -1.3475
  374MOL0     C51514   3.749   3.194   5.219  0.4182  0.0501 -0.2031
  374MOL0     C51515   3.887   3.132   5.218  0.2322  0.6166  0.1847
  374MOL0     C51516   3.945   3.115   5.357  0.8674 -0.4154  0.6205
  374MOL0     C51517   3.885   2.996   5.442  0.2115  0.2760  0.4604
  374MOL0     C51518   3.955   2.977   5.580  0.8250  0.7216  1.2434
  374MOL0    Cl51519   4.135   2.937   5.563  0.0330 -0.4662  0.2160
  374MOL0     C51520   3.506   3.133   4.657  0.1535 -0.3224  0.2024
  374MOL0     C51521   3.407   3.114   4.559  0.0728  0.0644 -0.4697
  374MOL0     O51522   3.317   3.198   4.249  0.7496  0.2860  0.1239
  374MOL0     C51523   2.990   3.324   4.317 -0.3272  0.8299 -0.3600
  374MOL0     C51524   2.869   3.350   4.260  0.2216 -0.1120  0.5033
  374MOL0     N51525   2.227   3.393   3.642 -0.1579  0.1285  0.6198
  374MOL0     N51526   2.126   3.358   3.700 -0.7791  0.4097 -0.0286
  374MOL0     C51527   1.021   3.106   4.149  0.4400  0.1844  0.7392
  374MOL0     C51528   0.883   3.074   4.153  0.2023  0.0560 -0.3706
  374MOL0     C51529   0.462   2.943   4.220  1.3983  0.0677 -0.6931
  374MOL0     C51530   0.380   2.960   4.106 -0.3506  1.4954 -0.2050
  374MOL0     C51531   0.240   2.973   4.110  0.2524  0.3403 -0.3167
  374MOL0     C51532   0.173   2.935   4.229 -0.3261  0.3957 -0.6003
  374MOL0     O51533   0.038   2.908   4.225  0.0101  0.2623 -0.0871
  374MOL0     C51534  -0.011   2.831   4.332  0.4755  1.0004  1.3985
  374MOL0     C51535   0.048   2.691   4.352 -0.3323  0.1650 -0.1764
  374MOL0     C51536   0.059   2.661   4.502  0.1768 -0.5810 -0.1701
  374MOL0     C51537   0.100   2.515   4.513 -0.2319  0.8580  0.1103
  374MOL0     C51538   0.099   2.475   4.652  0.7102 -0.8683  0.8871
  374MOL0     C51539   0.110   2.460   4.768  0.0526 -0.1584  0.1425
  374MOL0     C51540   0.253   2.938   4.349 -0.0081 -0.3055 -1.0252
  374MOL0     C51541   0.390   2.940   4.346 -0.8356  0.0078  0.2693
  374MOL0     C51542   0.461   2.914   4.482 -0.0612 -0.5171 -0.1583
  374MOL0     H51543   0.868   2.959   4.475  2.3048 -0.8764  0.2651
  374MOL0     H51544   1.092   3.011   4.472 -3.3573 -1.2228  1.0354
  374MOL0     H51545   1.283   3.196   4.093 -1.5448 -1.0929  0.1517
  374MOL0     H51546   1.320   3.024   4.101  3.5132  0.1890 -0.1681
  374MOL0     H51547   1.469   3.246   4.227 -5.2849  0.4347 -0.6288
  374MOL0     H51548   1.482   3.090   4.303  1.9953  0.1193  0.7055
  374MOL0     H51549   1.582   2.984   4.126 -0.3559 -0.2415  1.1504
  374MOL0     H51550   1.549   3.104   4.003 -2.1196 -3.4645 -0.1908
  374MOL0     H51551   1.676   3.276   4.153 -2.9139 -0.3509 -1.4728
  374MOL0     H51552   1.737   3.130   4.242 -0.1590 -0.5199  0.0592
  374MOL0     H51553   1.781   3.217   3.958  0.9414  0.5878 -0.4855
  374MOL0     H51554   1.816   3.056   4.014 -3.5460 -0.5136  0.9143
  374MOL0     H51555   1.949   3.284   4.162  0.6391  0.2583 -0.3529
  374MOL0     H51556   1.991   3.108   4.157  0.3578 -0.8429  0.0437
  374MOL0     H51557   2.067   3.153   3.919  0.3927  0.1951  0.7952
  374MOL0     H51558   2.156   3.230   4.042  1.3302  1.6539 -1.5473
  374MOL0     H51559   1.924   3.371   3.882 -0.5863 -0.3537 -0.3053
  374MOL0     H51560   2.017   3.443   4.012  0.2188 -1.6883  1.9043
  374MOL0     H51561   2.273   3.526   3.938  1.4727 -1.9660  0.6546
  374MOL0     H51562   2.459   3.632   3.758  1.3025 -0.7183  0.2725
  374MOL0     H51563   2.456   3.544   3.606  0.5502 -1.3689 -0.6237
  374MOL0     H51564   2.528   3.334   3.717 -1.2093  1.3820 -2.6469
  374MOL0     H51565   2.643   3.461   3.725 -0.9315  2.2003 -0.6666
  374MOL0     H51566   2.568   3.511   3.958 -0.4046 -0.9289 -0.3628
  374MOL0     H51567   2.486   3.349   3.960 -0.5950  0.5377  2.2375
  374MOL0     H51568   2.658   3.228   3.917 -1.3992  0.2984 -0.7919
  374MOL0     H51569   2.773   3.359   3.884  0.9823  3.5463  2.2029
  374MOL0     H51570   2.921   3.213   3.957  6.0389  0.5403 -1.3012
  374MOL0     H51571   3.198   3.043   4.095  0.2033 -1.2618 -0.8039
  374MOL0     H51572   3.226   3.170   3.970  1.1416 -0.6040  1.8556
  374MOL0     H51573   3.097   3.050   3.960  2.1082 -4.1077  1.3108
  374MOL0     H51574   3.241   3.423   4.580 -0.1022  0.4818 -0.9696
  374MOL0     H51575   3.423   3.452   4.756 -0.1422  0.9621 -1.1313
  374MOL0     H51576   3.655   3.448   4.841 -2.1711  1.0700  0.8313
  374MOL0     H51577   3.535   3.395   4.952  0.6984  1.2700  1.4112
  374MOL0     H51578   3.828   3.300   4.942  2.5086  1.4366  2.6940
  374MOL0     H51579   3.764   3.410   5.074  0.0694  0.8962 -0.4374
  374MOL0     H51580   3.725   3.114   5.037  4.0792 -0.2868  1.2662
  374MOL0     H51581   3.581   3.213   5.095  0.2087 -0.2972  1.3751
  374MOL0     H51582   3.679   3.127   5.270 -0.6892 -0.4454 -2.2636
  374MOL0     H51583   3.750   3.294   5.263  0.6666 -0.4018  0.8570
  374MOL0     H51584   3.870   3.033   5.174 -1.1838  1.3069 -0.9367
  374MOL0     H51585   3.956   3.186   5.152  0.3947 -1.0318 -1.0631
  374MOL0     H51586   3.926   3.209   5.409 -0.9380 -0.0201 -0.6373
  374MOL0     H51587   4.054   3.099   5.357  1.0616  0.7912  0.4774
  374MOL0     H51588   3.905   2.908   5.379 -2.0664  0.0191  0.0291
  374MOL0     H51589   3.778   3.010   5.459  0.3851  0.2275  1.6080
  374MOL0     H51590   3.900   2.895   5.628 -1.0100  1.7879  1.0895
  374MOL0     H51591   3.945   3.070   5.637  1.3623  2.8840 -1.9174
  374MOL0     H51592   3.585   3.062   4.679 -1.1717 -2.3137 -1.0820
  374MOL0     H51593   3.402   3.024   4.498  3.7867 -1.4684  1.1650
  374MOL0     H51594   3.011   3.358   4.417  0.2054 -0.4278 -0.0211
  374MOL0     H51595   2.797   3.399   4.325 -0.2058 -1.4237  1.0455
  374MOL0     H51596   1.069   3.166   4.072  2.5329  0.7379  2.3692
  374MOL0     H51597   0.814   3.101   4.073 -1.1642  1.2507  1.1305
  374MOL0     H51598   0.438   2.964   4.014  0.5422 -3.5879 -0.1652
  374MOL0     H51599   0.179   2.990   4.022  0.6423  1.6777 -0.3392
  374MOL0     H51600  -0.000   2.887   4.425  0.6872  3.1100  0.1736
  374MOL0     H51601  -0.117   2.831   4.305  0.9156 -0.7285 -0.6602
  374MOL0     H51602   0.149   2.686   4.309  0.6765 -1.5983  2.1837
  374MOL0     H51603   0.004   2.608   4.296  1.0913 -0.0573 -1.0234
  374MOL0     H51604   0.140   2.720   4.545 -2.9750  3.2193  1.2143
  374MOL0     H51605  -0.030   2.687   4.560  1.1545  2.2831  0.2188
  374MOL0     H51606   0.203   2.507   4.478 -0.5273  0.7286 -0.7472
  374MOL0     H51607   0.037   2.444   4.459  1.3868 -0.9175  0.4641
  374MOL0     H51608   0.108   2.441   4.874 -2.3455  1.0893  0.3829
  374MOL0     H51609   0.198   2.936   4.443  3.9537 -3.8011  1.5517
  374MOL0     H51610   0.397   2.851   4.545 -1.1723 -0.1480 -0.8829
  374MOL0     H51611   0.563   2.875   4.473  1.1837  2.6304 -0.8585
  374MOL0     H51612   0.468   3.004   4.543 -0.7279 -1.0444  0.7262
  375MOL0     O51613   2.141  11.180   0.138  0.4615  0.0189  0.3898
  375MOL0     C51614   2.225  11.261   0.179  0.6293  0.7074 -0.5619
  375MOL0     O51615   2.194  11.384   0.237  0.7326  0.2371  0.2215
  375MOL0     C51616   2.064  11.420   0.237  0.8170 -0.0731 -1.1132
  375MOL0     C51617   2.015  11.503   0.136  0.2262  0.6158  0.2711
  375MOL0     C51618   1.887  11.566   0.149 -0.3431  0.5242 -0.6334
  375MOL0     C51619   1.796  11.531   0.251  0.5662 -0.9724 -0.6960
  375MOL0     O51620   1.666  11.578   0.277  0.4655  0.1907 -0.4488
  375MOL0     C51621   1.590  11.616   0.167  0.2904  1.0194  0.4737
  375MOL0     C51622   1.445  11.634   0.217  0.3444  0.2981  0.2051
  375MOL0     C51623   1.356  11.679   0.100 -0.3452 -0.3675  0.7139
  375MOL0     C51624   1.230  11.758   0.151 -0.0663 -0.0278 -0.3291
  375MOL0     C51625   1.130  11.787   0.045 -0.1770 -0.1586 -0.2159
  375MOL0     C51626   1.154  11.916  -0.039  0.2156  0.4629  0.4336
  375MOL0     C51627   1.034  11.918  -0.137  0.0100  0.7562 -0.8085
  375MOL0     C51628   1.057  12.044  -0.226  0.5998 -0.1996  0.1033
  375MOL0     N51629   1.137  12.009  -0.349  0.4624 -0.3247  0.0146
  375MOL0     C51630   1.267  12.044  -0.366  0.5343 -0.0440  0.8963
  375MOL0     C51631   1.289  12.021  -0.496 -0.1536  0.2397 -0.5037
  375MOL0     C51632   1.418  12.064  -0.567  0.0106 -0.2229 -0.3367
  375MOL0     C51633   1.439  11.984  -0.697  0.2114 -0.7092 -0.1390
  375MOL0     C51634   1.510  12.070  -0.800 -0.3347  0.4066  1.4515
  375MOL0     C51635   1.627  12.164  -0.759  0.8186 -0.1466  0.0532
  375MOL0     O51636   1.720  12.102  -0.661  0.5329  0.0662  0.2653
  375MOL0     C51637   1.832  12.043  -0.713 -0.5771 -0.4322  0.2299
  375MOL0     C51638   1.954  12.038  -0.643 -0.2437 -0.2023  0.4424
  375MOL0     C51639   2.066  11.973  -0.687  0.6680  1.0135  0.3874
  375MOL0     C51640   2.173  11.945  -0.586  0.6016 -0.6589  0.8148
  375MOL0     C51641   2.065  11.920  -0.824  0.1058  0.7216 -0.3014
  375MOL0     C51642   2.184  11.882  -0.899  0.0802  0.4530  0.2952
  375MOL0     O51643   2.307  11.893  -0.828  0.5685 -0.5489 -0.6183
  375MOL0     C51644   2.419  11.825  -0.857 -0.6158 -0.0652  0.2747
  375MOL0     C51645   2.441  11.706  -0.930 -0.0998  0.3495 -0.0463
  375MOL0     C51646   2.563  11.648  -0.952 -0.6478  0.6001 -0.2891
  375MOL0     C51647   2.684  11.706  -0.893  0.0118  0.1599 -0.7786
  375MOL0     O51648   2.815  11.650  -0.907  0.2728 -0.1777  0.3523
  375MOL0     C51649   2.844  11.625  -1.041  0.3711 -0.3910  0.2495
  375MOL0     C51650   2.985  11.582  -1.062 -0.4445 -0.1477  0.7392
  375MOL0     C51651   3.093  11.676  -1.013  0.4908 -0.7465  0.2665
  375MOL0     C51652   3.235  11.621  -1.043 -0.2303  0.4110 -0.6663
  375MOL0     C51653   3.338  11.721  -1.010  0.1612 -0.6399 -0.6195
  375MOL0     C51654   3.463  11.638  -0.991 -0.7555 -0.0394  0.4850
  375MOL0     C51655   3.512  11.603  -1.126 -0.6140 -0.3566  0.7250
  375MOL0     C51656   3.663  11.572  -1.127  0.0672 -1.1823  0.1802
  375MOL0    Cl51657   3.729  11.594  -1.293  0.1318  0.4428 -0.3205
  375MOL0     C51658   2.658  11.831  -0.839 -0.3749  0.3122  0.7403
  375MOL0     C51659   2.535  11.883  -0.815 -0.2399  0.6132 -0.1280
  375MOL0     O51660   2.178  11.834  -1.014  0.1453  0.0187  0.4931
  375MOL0     C51661   1.936  11.911  -0.890 -0.5045  0.3846 -0.2319
  375MOL0     C51662   1.823  11.978  -0.837 -0.4148  1.0163  0.5138
  375MOL0     N51663   1.179  11.976  -0.559 -0.2419 -0.2389 -0.9273
  375MOL0     N51664   1.081  11.980  -0.469 -0.0349 -0.4816  0.6490
  375MOL0     C51665   1.850  11.449   0.357 -0.0393 -0.2825 -0.0631
  375MOL0     C51666   1.980  11.396   0.342 -0.4901 -0.0328 -0.4519
  375MOL0     C51667   2.368  11.227   0.176  0.5495 -0.4546 -0.4035
  375MOL0     C51668   2.455  11.331   0.208 -0.6543  0.4883  0.3943
  375MOL0     C51669   2.591  11.316   0.205  0.2987 -0.5577 -0.0614
  375MOL0     C51670   2.648  11.196   0.171  0.0500  0.9250  0.9345
  375MOL0     O51671   2.782  11.169   0.144  0.0009  0.5985 -0.4251
  375MOL0     C51672   2.879  11.254   0.202  0.1283 -0.0028 -0.1295
  375MOL0     C51673   2.943  11.341   0.089 -0.0805  0.0671 -0.0916
  375MOL0     C51674   3.026  11.258  -0.017 -1.0526 -0.3649  0.0794
  375MOL0     C51675   3.069  11.341  -0.131  0.0964  0.4600  0.7236
  375MOL0     C51676   3.167  11.447  -0.078  0.0683  0.1240 -0.2903
  375MOL0     C51677   3.257  11.512  -0.025  1.3405 -0.5439 -0.2288
  375MOL0     C51678   2.556  11.095   0.129  0.0600 -0.5446 -0.4064
  375MOL0     C51679   2.420  11.102   0.137 -0.0203  0.0666 -0.6791
  375MOL0     C51680   2.333  10.977   0.114 -0.5005 -0.0677  0.5139
  375MOL0     H51681   2.070  11.544   0.052 -2.5777  2.3483 -0.8864
  375MOL0     H51682   1.854  11.634   0.071  0.2019  1.1892 -0.2980
  375MOL0     H51683   1.595  11.536   0.092 -0.5656  1.9901 -0.6655
  375MOL0     H51684   1.626  11.711   0.127  0.1821  1.3253  1.0859
  375MOL0     H51685   1.414  11.538   0.257  0.1265  1.3294  2.6975
  375MOL0     H51686   1.436  11.706   0.299 -2.1813 -0.2011  0.4531
  375MOL0     H51687   1.407  11.748   0.032  0.4391 -0.8657  0.7823
  375MOL0     H51688   1.322  11.592   0.042 -0.5685  0.6379 -0.7158
  375MOL0     H51689   1.171  11.702   0.225 -1.9478  2.0865 -0.1223
  375MOL0     H51690   1.244  11.858   0.194 -2.1148 -0.6284  1.9514
  375MOL0     H51691   1.037  11.777   0.102 -0.4423 -1.0227 -0.7845
  375MOL0     H51692   1.122  11.701  -0.023  1.3347  1.2772 -2.3226
  375MOL0     H51693   1.168  12.006   0.020  0.4932 -1.2935  3.2290
  375MOL0     H51694   1.249  11.916  -0.093  0.6735  2.4880  1.1658
  375MOL0     H51695   0.935  11.922  -0.089 -0.4677 -0.9799 -1.5888
  375MOL0     H51696   1.046  11.827  -0.196  2.8178  1.7623 -1.9163
  375MOL0     H51697   0.962  12.090  -0.252  1.0309  0.7733  0.1857
  375MOL0     H51698   1.119  12.114  -0.169  2.2029 -2.7227  1.6438
  375MOL0     H51699   1.333  12.080  -0.287  2.3344 -0.3977 -0.3903
  375MOL0     H51700   1.509  12.062  -0.507  0.0165  2.9588 -0.0636
  375MOL0     H51701   1.404  12.169  -0.592  1.5750  0.0739 -0.0241
  375MOL0     H51702   1.492  11.892  -0.670  0.5104 -0.7297 -0.7831
  375MOL0     H51703   1.349  11.942  -0.744  0.5902 -0.4956 -1.0720
  375MOL0     H51704   1.543  12.000  -0.878 -0.7877 -0.4133  1.9746
  375MOL0     H51705   1.437  12.130  -0.854  0.0743 -0.4809 -0.1749
  375MOL0     H51706   1.688  12.197  -0.843  4.9498 -1.6593  2.1924
  375MOL0     H51707   1.584  12.253  -0.711 -0.8811 -0.1491 -1.3578
  375MOL0     H51708   1.957  12.071  -0.540 -0.3811  0.9168  0.1038
  375MOL0     H51709   2.198  11.838  -0.585  0.9737 -0.5944 -0.2473
  375MOL0     H51710   2.125  11.982  -0.495  0.4705  0.7636  0.1983
  375MOL0     H51711   2.262  12.005  -0.607 -0.0593 -0.4740 -1.7535
  375MOL0     H51712   2.354  11.656  -0.970 -0.2209 -1.1347  1.9130
  375MOL0     H51713   2.569  11.561  -1.015  0.5952  0.8993 -0.6055
  375MOL0     H51714   2.783  11.542  -1.079  3.8027 -2.9987 -0.0493
  375MOL0     H51715   2.824  11.714  -1.100  0.3407 -0.2988  0.3980
  375MOL0     H51716   2.997  11.478  -1.030  0.9704 -0.5434 -0.9123
  375MOL0     H51717   3.006  11.582  -1.170 -2.3139  0.3624  0.3457
  375MOL0     H51718   3.076  11.684  -0.906 -0.2065 -0.3216  0.1316
  375MOL0     H51719   3.084  11.772  -1.065  2.7753 -0.5349  0.1626
  375MOL0     H51720   3.246  11.600  -1.150 -1.0661 -0.4081 -0.6013
  375MOL0     H51721   3.244  11.529  -0.985  0.3658  1.8737  1.6947
  375MOL0     H51722   3.361  11.792  -1.089  0.7732 -0.4223 -0.2520
  375MOL0     H51723   3.315  11.779  -0.921 -2.8747 -1.0753 -1.0222
  375MOL0     H51724   3.455  11.553  -0.923  0.0785  1.8396  3.1215
  375MOL0     H51725   3.543  11.703  -0.953  0.6064 -1.2514 -0.2128
  375MOL0     H51726   3.479  11.676  -1.201 -3.3020 -1.4775  0.6845
  375MOL0     H51727   3.461  11.511  -1.159  0.3773 -0.1486 -1.5896
  375MOL0     H51728   3.680  11.472  -1.086 -1.4343 -2.0065 -1.1129
  375MOL0     H51729   3.720  11.647  -1.073  2.9145 -1.7804 -1.7327
  375MOL0     H51730   2.747  11.878  -0.798  0.1343  0.6142 -0.6280
  375MOL0     H51731   2.522  11.981  -0.769  0.8291  0.3665  0.7494
  375MOL0     H51732   1.927  11.872  -0.991 -0.0476  0.9976 -0.5146
  375MOL0     H51733   1.739  11.975  -0.905 -0.3139  3.8791  0.1367
  375MOL0     H51734   1.799  11.421   0.449 -2.3017  2.0437 -0.4933
  375MOL0     H51735   2.021  11.354   0.433 -1.6978  3.0072  1.6701
  375MOL0     H51736   2.425  11.432   0.235  1.3991  1.9220 -2.2192
  375MOL0     H51737   2.646  11.400   0.246  0.2741 -1.6960  2.4824
  375MOL0     H51738   2.846  11.314   0.288  2.1542  2.3133 -0.8203
  375MOL0     H51739   2.969  11.201   0.236  0.3635  2.6148  4.0252
  375MOL0     H51740   3.013  11.406   0.142 -0.4534  0.1357  0.3218
  375MOL0     H51741   2.864  11.401   0.043 -1.4882 -0.7863  1.1076
  375MOL0     H51742   3.118  11.212   0.019 -0.1164 -0.7299 -2.5429
  375MOL0     H51743   2.976  11.169  -0.056  3.3496 -3.2263  0.2940
  375MOL0     H51744   2.980  11.392  -0.171  0.7482 -0.3635 -2.0062
  375MOL0     H51745   3.106  11.291  -0.221 -0.4461  3.6591 -1.4582
  375MOL0     H51746   3.325  11.577   0.025  2.5321  0.7310 -3.2345
  375MOL0     H51747   2.599  10.998   0.105 -3.3551 -1.9137 -1.5494
  375MOL0     H51748   2.398  10.890   0.111  0.3873  0.5336  1.4495
  375MOL0     H51749   2.270  10.953   0.199 -0.2344 -2.0692  0.1984
  375MOL0     H51750   2.280  10.994   0.020  2.2421  1.1370 -0.9625
  376MOL0     O51751   0.994   1.575  10.593 -0.7462 -0.0792  0.3652
  376MOL0     C51752   0.999   1.619  10.487  0.0191 -0.1522 -0.3866
  376MOL0     O51753   1.090   1.716  10.451 -0.0788  0.6030  0.5513
  376MOL0     C51754   1.168   1.773  10.548 -0.0999  1.0313  0.6224
  376MOL0     C51755   1.302   1.723  10.574  0.0151 -0.1928  0.1618
  376MOL0     C51756   1.384   1.779  10.676  0.5484  0.4637 -0.4002
  376MOL0     C51757   1.324   1.879  10.751  0.0936  1.0823 -0.2519
  376MOL0     O51758   1.410   1.920  10.849 -0.0645  0.1070  0.0265
  376MOL0     C51759   1.381   2.038  10.923 -0.0439  0.4557  0.1535
  376MOL0     C51760   1.511   2.114  10.964 -0.0686  0.1400 -0.3730
  376MOL0     C51761   1.628   2.027  11.011  0.2630  0.1780 -0.8628
  376MOL0     C51762   1.612   1.967  11.156 -0.2133  0.3388  0.1329
  376MOL0     C51763   1.734   1.905  11.228  0.1505  0.0130  1.3195
  376MOL0     C51764   1.706   1.885  11.382 -0.3247 -0.3014 -0.1834
  376MOL0     C51765   1.606   1.767  11.404  0.6477 -0.1047 -0.4401
  376MOL0     C51766   1.579   1.742  11.551 -0.1297  0.1011  0.3469
  376MOL0     N51767   1.465   1.651  11.563  0.5740  0.0623 -0.0658
  376MOL0     C51768   1.338   1.693  11.547 -0.7079 -0.2520  0.0548
  376MOL0     C51769   1.265   1.577  11.552 -0.5609  0.4772  0.6814
  376MOL0     C51770   1.112   1.570  11.513 -1.5461  1.1432 -0.8197
  376MOL0     C51771   1.024   1.647  11.610  0.0114 -0.3158  0.1156
  376MOL0     C51772   1.045   1.633  11.762  0.6051  0.6881 -0.1785
  376MOL0     C51773   0.980   1.747  11.830 -0.1960 -0.4621  0.1466
  376MOL0     O51774   0.838   1.732  11.823 -0.0076  0.2939 -0.2283
  376MOL0     C51775   0.756   1.841  11.798 -0.8137  0.2516  0.1016
  376MOL0     C51776   0.652   1.826  11.711 -0.1270 -0.2636 -0.3546
  376MOL0     C51777   0.555   1.921  11.696 -0.2637  0.2964  0.8950
  376MOL0     C51778   0.441   1.890  11.600 -0.2999 -0.0954  0.6431
  376MOL0     C51779   0.567   2.039  11.777  0.1241  0.3552  0.4129
  376MOL0     C51780   0.462   2.149  11.771  0.0181  0.3210  0.6219
  376MOL0     O51781   0.418   2.197  11.886  0.1934 -0.4281  0.4358
  376MOL0     C51782   0.314   2.286  11.898 -0.1557 -0.5164  0.6167
  376MOL0     C51783   0.265   2.364  11.794  0.1075 -0.6911 -0.5005
  376MOL0     C51784   0.162   2.462  11.820  0.2208 -0.3172 -0.2333
  376MOL0     C51785   0.102   2.476  11.944 -0.1871 -0.1674 -0.5439
  376MOL0     O51786   0.008   2.580  11.949  0.0014 -0.5975  0.9336
  376MOL0     C51787  -0.024   2.624  12.082 -0.8411  0.0511  0.4123
  376MOL0     C51788  -0.129   2.736  12.093  0.5966  0.4592 -0.1977
  376MOL0     C51789  -0.266   2.669  12.127  0.5884  1.4749  0.1583
  376MOL0     C51790  -0.367   2.785  12.135 -0.1218  0.7498  1.0040
  376MOL0     C51791  -0.496   2.725  12.122  0.9495 -0.5547  0.2951
  376MOL0     C51792  -0.607   2.831  12.123  0.5621  0.0449 -0.2721
  376MOL0     C51793  -0.736   2.766  12.168  0.3115  0.5089  0.5233
  376MOL0     C51794  -0.844   2.874  12.152  0.0080  0.2093 -0.4318
  376MOL0    Cl51795  -0.876   2.941  11.987 -0.2420  0.1928  0.2511
  376MOL0     C51796   0.151   2.393  12.053 -0.4730  0.4828  0.6672
  376MOL0     C51797   0.261   2.300  12.025 -0.0659  0.8238 -0.1894
  376MOL0     O51798   0.416   2.172  11.659  0.3257  0.2948 -1.3198
  376MOL0     C51799   0.673   2.061  11.875  0.7663 -0.8529  1.0102
  376MOL0     C51800   0.765   1.954  11.880  0.2502 -0.7641  0.2572
  376MOL0     N51801   1.354   1.466  11.555  0.2191 -1.0292  0.8047
  376MOL0     N51802   1.470   1.512  11.550  0.5235 -0.1075  0.2748
  376MOL0     C51803   1.199   1.930  10.716 -0.4232  0.6791  0.6955
  376MOL0     C51804   1.123   1.884  10.609 -0.0804 -0.3521 -0.3166
  376MOL0     C51805   0.918   1.544  10.386 -0.0738  0.5033 -0.0103
  376MOL0     C51806   0.953   1.576  10.249  0.1385 -0.1219  0.0893
  376MOL0     C51807   0.876   1.535  10.142 -0.2164  0.7681 -0.2067
  376MOL0     C51808   0.762   1.464  10.153 -0.4385  0.0596  0.1778
  376MOL0     O51809   0.700   1.432  10.035 -0.3613  0.4397 -0.0194
  376MOL0     C51810   0.611   1.319  10.040 -0.1862 -1.5696  0.1737
  376MOL0     C51811   0.455   1.359  10.049  0.0401  0.1333  0.8911
  376MOL0     C51812   0.404   1.449   9.936 -0.5248 -1.0600  0.6631
  376MOL0     C51813   0.255   1.445   9.908 -0.3969 -0.4434 -0.7481
  376MOL0     C51814   0.172   1.474  10.030  0.2719  1.2478  0.1102
  376MOL0     C51815   0.108   1.507  10.124 -0.3523 -0.6294 -0.4633
  376MOL0     C51816   0.722   1.429  10.283  0.3721 -0.0007  0.3386
  376MOL0     C51817   0.790   1.474  10.396  0.0773  0.3269  0.2243
  376MOL0     C51818   0.736   1.446  10.535 -0.0556  0.2178  0.0575
  376MOL0     H51819   1.353   1.640  10.527  1.6901  0.1990  1.1727
  376MOL0     H51820   1.479   1.731  10.694  0.2541 -0.6542 -1.6700
  376MOL0     H51821   1.332   1.997  11.011 -1.0654 -0.9625 -1.0155
  376MOL0     H51822   1.317   2.117  10.882  0.2951  1.1545  0.9290
  376MOL0     H51823   1.549   2.175  10.882  0.8260 -1.3995 -1.1556
  376MOL0     H51824   1.485   2.179  11.048 -2.5101 -1.5843  0.3087
  376MOL0     H51825   1.633   1.945  10.939 -3.0152 -0.7805 -0.1640
  376MOL0     H51826   1.722   2.083  11.014  1.5870 -1.9433  0.2710
  376MOL0     H51827   1.579   2.051  11.218 -4.5875 -1.5865  0.7632
  376MOL0     H51828   1.529   1.897  11.166 -0.0610  0.4451  3.0957
  376MOL0     H51829   1.820   1.970  11.210  1.4775 -1.8555  0.5402
  376MOL0     H51830   1.759   1.803  11.197 -1.7426 -0.9548  2.7595
  376MOL0     H51831   1.801   1.867  11.433 -0.7402 -0.0312  0.7174
  376MOL0     H51832   1.663   1.978  11.421  0.3071 -0.5854  1.2711
  376MOL0     H51833   1.643   1.673  11.361 -1.2969  0.5052 -3.7998
  376MOL0     H51834   1.515   1.788  11.347  1.9719  2.9332 -1.6514
  376MOL0     H51835   1.667   1.691  11.594  0.2526 -0.2989 -0.8794
  376MOL0     H51836   1.552   1.836  11.598 -1.3554  0.9600 -1.9601
  376MOL0     H51837   1.296   1.791  11.528 -0.6874 -0.2170  0.1956
  376MOL0     H51838   1.092   1.462  11.519  0.6256  0.7272 -0.3307
  376MOL0     H51839   1.097   1.597  11.408 -1.3937  0.6458 -0.9747
  376MOL0     H51840   1.022   1.753  11.582  0.0190 -0.5604 -0.8583
  376MOL0     H51841   0.931   1.607  11.570  0.2668  2.8429 -4.5130
  376MOL0     H51842   1.012   1.536  11.800  0.3026  0.3663 -1.2332
  376MOL0     H51843   1.153   1.641  11.775  0.8471  1.2341 -2.2084
  376MOL0     H51844   1.006   1.730  11.935  0.7734 -0.6033 -0.1051
  376MOL0     H51845   1.020   1.841  11.791  0.0514  0.5753  2.6520
  376MOL0     H51846   0.648   1.734  11.652  2.2314  0.2298 -1.3810
  376MOL0     H51847   0.436   1.964  11.520 -0.2720 -2.1793 -1.4159
  376MOL0     H51848   0.347   1.894  11.656 -2.6169 -1.5173 -2.7548
  376MOL0     H51849   0.466   1.797  11.548 -1.9522 -1.7540  2.6510
  376MOL0     H51850   0.315   2.368  11.698 -0.0051  2.6923 -0.5411
  376MOL0     H51851   0.113   2.513  11.738 -1.0045 -1.2305 -0.0937
  376MOL0     H51852  -0.064   2.544  12.145  1.2312 -0.2106  1.4782
  376MOL0     H51853   0.068   2.650  12.135 -0.5463 -0.8914  0.3765
  376MOL0     H51854  -0.102   2.806  12.173  0.5562  1.3219 -0.9314
  376MOL0     H51855  -0.136   2.780  11.993 -1.3058 -0.2300 -0.4051
  376MOL0     H51856  -0.267   2.602  12.214  0.4045 -0.4573 -1.2793
  376MOL0     H51857  -0.278   2.595  12.047 -1.4065 -0.1192  1.8186
  376MOL0     H51858  -0.357   2.863  12.060  0.1677 -0.4598 -0.2555
  376MOL0     H51859  -0.351   2.839  12.229  0.5133 -0.3420  1.5425
  376MOL0     H51860  -0.514   2.668  12.030  0.7760  0.1593 -0.1166
  376MOL0     H51861  -0.516   2.660  12.208 -2.4868 -0.0838 -0.0018
  376MOL0     H51862  -0.616   2.878  12.025 -3.3482  1.4782  0.5966
  376MOL0     H51863  -0.587   2.925  12.177 -0.9124  2.0512 -2.9448
  376MOL0     H51864  -0.726   2.735  12.273  1.2650  0.4981  0.4410
  376MOL0     H51865  -0.751   2.677  12.107  1.3448  0.6370  0.0656
  376MOL0     H51866  -0.826   2.956  12.221 -0.7130 -0.4712  0.6004
  376MOL0     H51867  -0.940   2.829  12.179 -0.2240  0.5807 -0.6333
  376MOL0     H51868   0.108   2.407  12.152 -0.2800  4.1694  0.3819
  376MOL0     H51869   0.302   2.250  12.112 -1.1233 -2.4387 -1.4358
  376MOL0     H51870   0.676   2.148  11.939  1.6603 -0.0783 -0.0226
  376MOL0     H51871   0.841   1.951  11.957  0.1664 -2.2805  0.3074
  376MOL0     H51872   1.144   2.012  10.762  1.7912  1.8917  1.3221
  376MOL0     H51873   1.031   1.923  10.566 -0.0205 -1.5807 -1.6063
  376MOL0     H51874   1.042   1.636  10.231  1.5368 -2.3279 -0.7631
  376MOL0     H51875   0.909   1.555  10.041 -0.0737  3.8178  0.3224
  376MOL0     H51876   0.632   1.261   9.949  0.1341  0.0829 -0.8556
  376MOL0     H51877   0.638   1.251  10.121 -0.2671 -3.0019 -0.9521
  376MOL0     H51878   0.445   1.406  10.147  0.8251  2.9318 -0.2569
  376MOL0     H51879   0.398   1.266  10.043 -2.1386  1.3207  1.7800
  376MOL0     H51880   0.426   1.554   9.957  2.1011 -1.7488  1.6887
  376MOL0     H51881   0.452   1.422   9.841 -2.8579 -1.5154 -0.4735
  376MOL0     H51882   0.231   1.349   9.863 -1.8189 -1.1925  1.4864
  376MOL0     H51883   0.231   1.530   9.843 -1.7965  0.9702  1.4975
  376MOL0     H51884   0.046   1.531  10.208  2.1144  2.8381  0.6454
  376MOL0     H51885   0.623   1.387  10.302  1.6500 -2.9155  1.2372
  376MOL0     H51886   0.635   1.406  10.527 -0.9359  2.4170 -0.6338
  376MOL0     H51887   0.792   1.379  10.601 -0.7732  0.8114  1.3032
  376MOL0     H51888   0.725   1.535  10.597 -0.8971  1.6341 -2.0058
  377MOL0     O51889   9.662   6.444   9.457 -0.7301 -0.2042 -0.0584
  377MOL0     C51890   9.623   6.347   9.396 -0.0370 -0.0103 -0.1717
  377MOL0     O51891   9.550   6.247   9.444 -0.2394  0.5310 -0.1833
  377MOL0     C51892   9.580   6.193   9.568  0.4146 -0.2096 -1.0176
  377MOL0     C51893   9.705   6.207   9.638  0.1974 -0.7885  0.7395
  377MOL0     C51894   9.731   6.150   9.760 -0.4733  0.1605  0.6230
  377MOL0     C51895   9.627   6.087   9.831  0.6069  0.2756 -0.1129
  377MOL0     O51896   9.631   6.052   9.963 -0.3619 -0.6251  0.5618
  377MOL0     C51897   9.757   6.058  10.030  0.5458  0.5030  0.4901
  377MOL0     C51898   9.749   6.024  10.179 -0.4249  0.3095 -0.4807
  377MOL0     C51899   9.891   6.008  10.241 -0.1957  0.4293  0.2765
  377MOL0     C51900   9.878   5.972  10.384 -0.1158 -0.4210 -0.4226
  377MOL0     C51901  10.010   5.959  10.454 -0.7244  0.3212  0.1693
  377MOL0     C51902  10.121   5.870  10.382  0.4684 -0.4653  0.0077
  377MOL0     C51903  10.239   5.836  10.469  0.3243  0.2595 -0.7436
  377MOL0     C51904  10.319   5.725  10.418  0.2115  0.0865  0.0995
  377MOL0     N51905  10.418   5.669  10.509 -0.0553 -0.5086  0.0091
  377MOL0     C51906  10.534   5.729  10.543  0.2944  1.1218  0.9020
  377MOL0     C51907  10.583   5.646  10.629 -0.7715 -0.0456 -0.0721
  377MOL0     C51908  10.713   5.671  10.693  0.6527  0.3199  0.1081
  377MOL0     C51909  10.830   5.648  10.594 -0.4958 -0.6084  0.4515
  377MOL0     C51910  10.832   5.499  10.554  0.0846  0.4101  0.3801
  377MOL0     C51911  10.949   5.454  10.458  0.6730  0.3047 -0.0828
  377MOL0     O51912  11.083   5.489  10.503 -0.6645 -0.8521 -0.1473
  377MOL0     C51913  11.185   5.495  10.419 -0.8494 -0.3788 -0.1234
  377MOL0     C51914  11.219   5.394  10.319  0.0815  0.4495  0.4263
  377MOL0     C51915  11.335   5.390  10.244  0.3224  0.8384 -0.2742
  377MOL0     C51916  11.341   5.270  10.138 -0.1132 -1.1133 -0.7093
  377MOL0     C51917  11.439   5.476  10.276  0.6339 -0.0116  0.3062
  377MOL0     C51918  11.573   5.472  10.212 -0.3074 -0.8095 -0.5968
  377MOL0     O51919  11.665   5.549  10.272  0.2975 -0.5716  0.1686
  377MOL0     C51920  11.785   5.581  10.219  0.1978  0.7010  0.4870
  377MOL0     C51921  11.905   5.557  10.289 -0.5272  0.0485  0.1397
  377MOL0     C51922  12.029   5.596  10.231 -0.4967 -0.2377  0.0515
  377MOL0     C51923  12.033   5.645  10.098  0.1316 -0.3759  0.4855
  377MOL0     O51924  12.164   5.687  10.044  0.5919  0.1537 -1.1779
  377MOL0     C51925  12.162   5.757   9.920 -0.0535 -0.1188  1.1369
  377MOL0     C51926  12.298   5.771   9.872  0.4923  0.1914 -0.8904
  377MOL0     C51927  12.369   5.640   9.854  0.3334  0.8598  0.1469
  377MOL0     C51928  12.507   5.661   9.914 -0.0698 -0.4413 -0.0894
  377MOL0     C51929  12.616   5.554   9.880  0.1278 -0.1795 -0.1194
  377MOL0     C51930  12.676   5.580   9.741 -0.0134  0.7470 -0.0208
  377MOL0     C51931  12.771   5.462   9.709  0.2590  0.0925 -0.1239
  377MOL0     C51932  12.909   5.479   9.773  0.7734 -0.7209  0.3286
  377MOL0    Cl51933  13.029   5.392   9.685 -0.2599 -0.3755  0.0349
  377MOL0     C51934  11.915   5.662  10.029  0.7898 -0.4096  0.0749
  377MOL0     C51935  11.790   5.640  10.089 -0.7143  0.2043  0.4935
  377MOL0     O51936  11.592   5.391  10.121 -0.1580 -0.3372  0.8113
  377MOL0     C51937  11.407   5.582  10.361  0.9038 -0.1996 -0.4891
  377MOL0     C51938  11.288   5.591  10.432 -0.0534 -0.0830 -0.4650
  377MOL0     N51939  10.506   5.540  10.653  0.3564  0.2439 -0.1801
  377MOL0     N51940  10.393   5.564  10.591 -0.2084 -0.1721  0.7268
  377MOL0     C51941   9.503   6.074   9.763 -0.1196  0.9612  0.0820
  377MOL0     C51942   9.484   6.115   9.630 -0.7380  0.6198 -0.9622
  377MOL0     C51943   9.653   6.342   9.255  0.8648  0.2798  0.9527
  377MOL0     C51944   9.573   6.251   9.168  0.2356 -0.3976  0.4899
  377MOL0     C51945   9.612   6.221   9.035 -0.0156 -0.5355  0.7853
  377MOL0     C51946   9.705   6.298   8.967 -0.0131  0.3844  0.0720
  377MOL0     O51947   9.735   6.267   8.834  0.3936  0.1020  0.7751
  377MOL0     C51948   9.745   6.371   8.738  0.5572  0.5041  0.2341
  377MOL0     C51949   9.816   6.329   8.609  0.7401  0.2014 -0.3341
  377MOL0     C51950   9.964   6.320   8.632  0.4421 -0.0641  0.1550
  377MOL0     C51951  10.045   6.314   8.506 -0.7004  0.2666  0.8013
  377MOL0     C51952  10.008   6.196   8.428  0.6185  0.9145  0.8452
  377MOL0     C51953   9.969   6.088   8.382  0.5396  0.0012  0.1314
  377MOL0     C51954   9.776   6.388   9.046 -0.2642  0.2578 -0.3328
  377MOL0     C51955   9.756   6.405   9.190  0.0308  0.6439  0.0594
  377MOL0     C51956   9.857   6.499   9.258 -0.2666 -0.0026  0.0199
  377MOL0     H51957   9.780   6.264   9.584 -0.8307 -0.9235 -0.8963
  377MOL0     H51958   9.829   6.164   9.803 -0.0823 -2.6358  0.8534
  377MOL0     H51959   9.807   6.155  10.025  0.5461  0.4250 -2.5376
  377MOL0     H51960   9.819   5.985   9.978 -0.0457  0.1427  0.2847
  377MOL0     H51961   9.695   6.101  10.234  0.6897  1.5883 -1.1104
  377MOL0     H51962   9.691   5.934  10.199 -1.2969  1.3248  1.8959
  377MOL0     H51963   9.942   5.925  10.191  0.0943 -0.7742  2.4166
  377MOL0     H51964   9.956   6.096  10.242  2.8575 -1.6456 -1.2338
  377MOL0     H51965   9.827   6.054  10.436  1.5420  2.8415 -3.4453
  377MOL0     H51966   9.833   5.874  10.398  1.2399 -0.9292  0.6347
  377MOL0     H51967   9.999   5.931  10.560  1.2003 -1.1114  0.0453
  377MOL0     H51968  10.055   6.058  10.468 -0.4936  0.0417  1.6132
  377MOL0     H51969  10.068   5.774  10.371 -0.5767 -0.1704  1.9239
  377MOL0     H51970  10.136   5.897  10.277 -3.2690 -0.7854 -0.7874
  377MOL0     H51971  10.200   5.796  10.562  0.5449  1.1739 -0.2395
  377MOL0     H51972  10.315   5.914  10.483  0.6601  0.8744 -4.8055
  377MOL0     H51973  10.248   5.645  10.396 -2.1046  2.3658 -1.3531
  377MOL0     H51974  10.364   5.757  10.323  1.4967  3.1526  1.6075
  377MOL0     H51975  10.569   5.822  10.499 -2.1415  0.5374 -2.7866
  377MOL0     H51976  10.711   5.599  10.776  2.0818 -2.0250 -1.7438
  377MOL0     H51977  10.721   5.771  10.736 -0.4595 -0.5055  2.3923
  377MOL0     H51978  10.814   5.703  10.501 -2.5965 -0.4034  0.8817
  377MOL0     H51979  10.928   5.688  10.621  0.7980 -1.5532 -2.4484
  377MOL0     H51980  10.843   5.443  10.648  3.2372  0.2793  0.0456
  377MOL0     H51981  10.734   5.473  10.513  0.6483 -0.6323 -0.3544
  377MOL0     H51982  10.939   5.347  10.437  4.1640  0.2327 -2.1361
  377MOL0     H51983  10.917   5.499  10.363 -3.3231 -0.6501  0.6042
  377MOL0     H51984  11.140   5.325  10.292  0.1834 -0.7717  2.9655
  377MOL0     H51985  11.257   5.202  10.153 -1.9915  0.6565 -2.4929
  377MOL0     H51986  11.437   5.217  10.143  0.2189 -0.6544 -1.9066
  377MOL0     H51987  11.326   5.312  10.038 -1.4624  1.5316  0.4836
  377MOL0     H51988  11.907   5.511  10.387 -0.1595 -1.0470 -0.3707
  377MOL0     H51989  12.129   5.582  10.271 -0.4480  2.7286  1.2958
  377MOL0     H51990  12.105   5.696   9.849  1.7955 -0.1218 -0.4169
  377MOL0     H51991  12.108   5.852   9.923 -1.0032 -0.5153 -1.2933
  377MOL0     H51992  12.304   5.828   9.779 -1.8239  1.1418 -0.5313
  377MOL0     H51993  12.338   5.835   9.951 -1.4537  2.0634 -1.3285
  377MOL0     H51994  12.384   5.620   9.747  1.0437  2.1432 -0.0132
  377MOL0     H51995  12.325   5.553   9.903  0.0265  1.4975  1.0165
  377MOL0     H51996  12.494   5.681  10.020  1.7761  2.0325 -0.2148
  377MOL0     H51997  12.546   5.759   9.884 -2.6402  0.2856 -1.3324
  377MOL0     H51998  12.697   5.544   9.953 -0.5237  2.7204  1.1356
  377MOL0     H51999  12.566   5.456   9.879 -0.2561  0.0060  0.2923
  377MOL0     H52000  12.745   5.665   9.748  1.1041 -0.1453 -0.1083
  377MOL0     H52001  12.599   5.581   9.664  0.5095  3.9053 -0.6409
  377MOL0     H52002  12.781   5.475   9.600 -0.5304  0.2927 -0.1793
  377MOL0     H52003  12.720   5.366   9.720  2.1281 -1.3850 -2.9807
  377MOL0     H52004  12.897   5.439   9.874  0.7490  0.9214  1.0041
  377MOL0     H52005  12.935   5.585   9.778 -1.1047 -0.1985 -0.3027
  377MOL0     H52006  11.905   5.700   9.928  1.0483 -1.4829 -0.3669
  377MOL0     H52007  11.705   5.677  10.033 -0.0698  4.7793  2.1187
  377MOL0     H52008  11.487   5.652  10.383  0.2847  0.6159 -0.7960
  377MOL0     H52009  11.265   5.664  10.509  0.0975 -1.3461  0.8268
  377MOL0     H52010   9.421   6.022   9.811  1.5199 -0.8608  1.0124
  377MOL0     H52011   9.386   6.113   9.583 -1.3337 -0.1145  0.2454
  377MOL0     H52012   9.482   6.202   9.201 -1.3968  0.7110 -2.0084
  377MOL0     H52013   9.558   6.150   8.974  0.3339 -1.2116  1.2549
  377MOL0     H52014   9.642   6.400   8.715  0.5456  0.8794  0.7441
  377MOL0     H52015   9.786   6.466   8.775 -3.2104  2.7694 -0.8655
  377MOL0     H52016   9.786   6.404   8.535 -2.3226 -0.8727 -0.3367
  377MOL0     H52017   9.771   6.236   8.571  0.9852  0.3127 -0.9086
  377MOL0     H52018   9.991   6.414   8.681  3.1701 -0.1878 -0.9083
  377MOL0     H52019   9.987   6.233   8.693 -0.1672  1.0029  2.0010
  377MOL0     H52020  10.149   6.291   8.531 -1.4156 -4.0619  0.5334
  377MOL0     H52021  10.045   6.402   8.441  3.0024 -0.8627 -1.0180
  377MOL0     H52022   9.958   5.985   8.354  2.6094 -0.8609  2.1898
  377MOL0     H52023   9.850   6.445   8.992  2.6988 -0.0254  3.0100
  377MOL0     H52024   9.808   6.586   9.303  0.5669  0.1162  0.7315
  377MOL0     H52025   9.907   6.436   9.332  1.8725  2.7099  1.0295
  377MOL0     H52026   9.926   6.522   9.177 -2.0015 -2.4113 -2.3006
  378MOL0     O52027   8.230   7.815   3.460  0.7529 -1.0033 -0.5778
  378MOL0     C52028   8.117   7.856   3.475  0.0213 -0.1824 -0.5905
  378MOL0     O52029   8.083   7.978   3.535 -0.1857 -0.2275 -0.1912
  378MOL0     C52030   8.194   8.064   3.551  0.2055  0.4465 -1.4988
  378MOL0     C52031   8.286   8.050   3.663 -0.2450 -0.5998  0.2509
  378MOL0     C52032   8.403   8.127   3.655 -0.1443  0.3199  0.5785
  378MOL0     C52033   8.424   8.220   3.554 -0.1341  0.4535  0.7188
  378MOL0     O52034   8.543   8.287   3.553  0.4364  0.4202 -0.7778
  378MOL0     C52035   8.591   8.368   3.447 -0.2968  0.1468 -0.7893
  378MOL0     C52036   8.708   8.453   3.486  0.2998  0.1217  0.0929
  378MOL0     C52037   8.842   8.395   3.444  1.1085 -0.5369 -0.5114
  378MOL0     C52038   8.958   8.487   3.491  0.7800 -0.0907 -0.5810
  378MOL0     C52039   9.098   8.437   3.434  0.1864  0.5472 -0.2921
  378MOL0     C52040   9.215   8.552   3.446  0.8414  1.0706  0.6667
  378MOL0     C52041   9.211   8.662   3.337 -0.4920 -1.1212 -0.5956
  378MOL0     C52042   9.262   8.613   3.199 -0.6526  0.3687 -0.0142
  378MOL0     N52043   9.398   8.587   3.198 -0.4416 -0.1026 -0.1660
  378MOL0     C52044   9.503   8.678   3.209 -0.0303 -0.3483  0.1365
  378MOL0     C52045   9.607   8.598   3.219  0.5841 -1.0416  0.1429
  378MOL0     C52046   9.739   8.649   3.274  0.4164 -0.4813  0.0634
  378MOL0     C52047   9.856   8.571   3.203  0.6012 -0.0565  0.4647
  378MOL0     C52048   9.983   8.636   3.256  0.2594 -0.1451  0.6652
  378MOL0     C52049  10.104   8.574   3.195 -1.2110 -0.6021 -0.0994
  378MOL0     O52050  10.224   8.624   3.267  0.4834 -0.3671 -0.2341
  378MOL0     C52051  10.357   8.591   3.234  0.3299  0.3443 -0.6121
  378MOL0     C52052  10.467   8.645   3.315  0.7423  0.7041 -0.7589
  378MOL0     C52053  10.597   8.607   3.289 -0.3205  0.5624 -0.3424
  378MOL0     C52054  10.714   8.655   3.379 -0.3493  0.2811 -0.0967
  378MOL0     C52055  10.626   8.510   3.182 -0.4298 -0.3746  0.1565
  378MOL0     C52056  10.753   8.468   3.137 -0.7115  0.2387  0.0557
  378MOL0     O52057  10.764   8.421   3.007 -0.2027 -0.0753  0.4603
  378MOL0     C52058  10.884   8.444   2.946 -0.0998  0.2103 -0.2635
  378MOL0     C52059  10.935   8.576   2.925  0.9439  0.5076  0.7894
  378MOL0     C52060  11.049   8.606   2.848  0.4420  0.1029  0.4275
  378MOL0     C52061  11.126   8.497   2.801  0.4588  0.3033  0.1585
  378MOL0     O52062  11.239   8.512   2.723  0.8460  0.6541 -0.2939
  378MOL0     C52063  11.338   8.408   2.746  0.4596 -1.5115  0.0940
  378MOL0     C52064  11.459   8.464   2.679  0.2231  0.6638  0.3761
  378MOL0     C52065  11.573   8.369   2.656 -0.0240 -0.6155 -0.9587
  378MOL0     C52066  11.685   8.437   2.583 -0.0173 -0.1791  0.1895
  378MOL0     C52067  11.790   8.335   2.555  0.9327  0.4109  0.0187
  378MOL0     C52068  11.919   8.396   2.507  0.1295  0.7509 -0.2139
  378MOL0     C52069  12.014   8.286   2.486  0.5173 -0.2571 -0.0584
  378MOL0     C52070  12.126   8.333   2.397 -1.1489  0.5233 -0.5331
  378MOL0    Cl52071  12.200   8.188   2.345  0.0960  0.1368  0.2895
  378MOL0     C52072  11.080   8.363   2.826 -0.6884 -0.2872 -0.2305
  378MOL0     C52073  10.964   8.339   2.901  0.0361 -0.2239 -0.3875
  378MOL0     O52074  10.849   8.470   3.215  0.2010  0.0456  0.5805
  378MOL0     C52075  10.517   8.454   3.118  0.0472  0.9450 -0.2569
  378MOL0     C52076  10.390   8.494   3.141  0.0298 -0.5147 -0.3935
  378MOL0     N52077   9.557   8.466   3.209  0.2312  0.2705  0.2481
  378MOL0     N52078   9.438   8.460   3.195  1.0248 -0.7177 -0.5689
  378MOL0     C52079   8.327   8.241   3.455 -0.8473 -0.1868 -0.7061
  378MOL0     C52080   8.217   8.155   3.450 -0.2920 -0.4463  0.5665
  378MOL0     C52081   8.009   7.779   3.423 -0.5951  0.5531  0.2593
  378MOL0     C52082   7.899   7.748   3.511 -0.0158  0.2469  0.0295
  378MOL0     C52083   7.795   7.666   3.472  0.9853 -0.7647 -0.7420
  378MOL0     C52084   7.802   7.614   3.346  1.8688  0.2224 -0.0355
  378MOL0     O52085   7.677   7.549   3.318 -0.0529 -0.0554  0.3449
  378MOL0     C52086   7.669   7.464   3.196  0.0382  0.0649 -0.0766
  378MOL0     C52087   7.525   7.408   3.202 -1.1615 -0.2224 -0.5866
  378MOL0     C52088   7.521   7.288   3.112 -0.2465 -0.2347  0.2687
  378MOL0     C52089   7.378   7.227   3.120  0.1763 -0.0475 -0.7042
  378MOL0     C52090   7.288   7.307   3.045  0.7189  0.3132 -0.3255
  378MOL0     C52091   7.216   7.368   2.968  0.1511  0.0091 -1.1932
  378MOL0     C52092   7.914   7.629   3.258  0.1799  0.3533 -0.3560
  378MOL0     C52093   8.020   7.710   3.296  0.4495 -0.3327 -0.2383
  378MOL0     C52094   8.135   7.723   3.201  0.9620  0.1461 -0.2357
  378MOL0     H52095   8.269   7.977   3.741 -1.3127 -1.8665 -1.0934
  378MOL0     H52096   8.475   8.117   3.735  0.5444 -1.7896 -0.2318
  378MOL0     H52097   8.505   8.431   3.424 -1.5681 -1.4954 -0.7147
  378MOL0     H52098   8.609   8.304   3.361 -2.8304  0.0771 -1.3332
  378MOL0     H52099   8.711   8.553   3.441  2.0379 -0.4030 -1.0871
  378MOL0     H52100   8.703   8.465   3.594  0.1593 -2.2578  0.3971
  378MOL0     H52101   8.853   8.291   3.477  0.5972 -0.5543 -0.3859
  378MOL0     H52102   8.829   8.396   3.335 -1.6919 -0.1381 -0.2522
  378MOL0     H52103   8.936   8.593   3.470  2.8696  0.8019  1.3812
  378MOL0     H52104   8.980   8.484   3.598  1.4041  1.4518 -0.6378
  378MOL0     H52105   9.087   8.415   3.328 -0.1959  2.9131 -0.7824
  378MOL0     H52106   9.122   8.347   3.492  1.8766  2.3606  2.0533
  378MOL0     H52107   9.205   8.610   3.539 -2.0343  4.0228 -1.2701
  378MOL0     H52108   9.313   8.506   3.433 -1.0505 -2.6555 -2.3780
  378MOL0     H52109   9.265   8.752   3.367  0.5924 -2.1228  0.5922
  378MOL0     H52110   9.108   8.697   3.323 -0.5830 -0.1041  1.9279
  378MOL0     H52111   9.210   8.521   3.171 -0.4713 -1.0377  3.6269
  378MOL0     H52112   9.240   8.682   3.117  0.1340 -0.5636 -1.0431
  378MOL0     H52113   9.492   8.785   3.220  0.6191 -0.3977  1.5246
  378MOL0     H52114   9.747   8.632   3.382 -1.1940 -0.4691  0.2003
  378MOL0     H52115   9.757   8.754   3.250  0.1225  0.0922  2.1872
  378MOL0     H52116   9.855   8.465   3.232 -1.3097  0.3376  2.0940
  378MOL0     H52117   9.843   8.586   3.096 -0.1008  2.3291  0.8329
  378MOL0     H52118   9.990   8.739   3.220  0.4549 -0.8554 -1.4724
  378MOL0     H52119   9.995   8.626   3.364  0.3997 -2.8394  0.4687
  378MOL0     H52120  10.108   8.465   3.184  0.9741 -0.4179 -2.0583
  378MOL0     H52121  10.118   8.608   3.092 -0.8883  0.3348  0.2456
  378MOL0     H52122  10.447   8.718   3.393  0.2810 -0.7948  0.5896
  378MOL0     H52123  10.779   8.727   3.327 -2.2074  2.5340  0.5260
  378MOL0     H52124  10.775   8.573   3.418  1.3696  2.0707  1.1901
  378MOL0     H52125  10.673   8.714   3.462  1.1674 -0.6535  1.3800
  378MOL0     H52126  10.878   8.663   2.956  0.8018  0.7045 -0.0101
  378MOL0     H52127  11.066   8.707   2.810  0.6754  0.2718  0.9803
  378MOL0     H52128  11.352   8.374   2.850 -0.9888 -1.8487  0.2087
  378MOL0     H52129  11.308   8.319   2.691 -2.0510 -0.4259 -0.4246
  378MOL0     H52130  11.432   8.502   2.579  2.6009  1.6236  0.0302
  378MOL0     H52131  11.484   8.548   2.744  0.7710  1.4655 -0.8220
  378MOL0     H52132  11.537   8.296   2.582 -2.7703 -0.2843 -0.0743
  378MOL0     H52133  11.601   8.327   2.753  2.3356  1.0840 -0.8400
  378MOL0     H52134  11.725   8.524   2.636  1.2624 -2.2563  2.8307
  378MOL0     H52135  11.635   8.465   2.490 -1.0371 -1.1311  0.4205
  378MOL0     H52136  11.812   8.274   2.643  0.2315  1.8782  1.2653
  378MOL0     H52137  11.751   8.270   2.475 -2.8765  1.2198  1.0411
  378MOL0     H52138  11.964   8.472   2.571 -0.1245  1.4855 -0.8877
  378MOL0     H52139  11.901   8.455   2.417  1.6086  2.3886  0.5017
  378MOL0     H52140  11.963   8.204   2.435  0.0656 -0.1190  0.1680
  378MOL0     H52141  12.041   8.240   2.581 -3.2452 -1.2475  0.6873
  378MOL0     H52142  12.188   8.406   2.451  0.0818  0.7020 -2.1091
  378MOL0     H52143  12.087   8.378   2.305 -2.1258 -1.1897 -0.9800
  378MOL0     H52144  11.122   8.271   2.787 -2.4126 -1.2382  0.0542
  378MOL0     H52145  10.924   8.239   2.909  1.5941 -0.9506 -1.1604
  378MOL0     H52146  10.537   8.378   3.043 -2.6822 -2.3900  2.0222
  378MOL0     H52147  10.301   8.455   3.092  0.1342 -1.0788 -0.1327
  378MOL0     H52148   8.344   8.317   3.379  1.1560 -0.3624 -0.5042
  378MOL0     H52149   8.133   8.176   3.384 -1.3470  4.9562  3.0977
  378MOL0     H52150   7.892   7.800   3.606  0.6234  0.5359 -0.0829
  378MOL0     H52151   7.718   7.645   3.546  0.7686  0.1024 -0.7083
  378MOL0     H52152   7.690   7.512   3.100 -0.3579 -2.1112 -1.3152
  378MOL0     H52153   7.742   7.383   3.189  2.1865  1.7125  1.6834
  378MOL0     H52154   7.449   7.483   3.176 -0.6871  1.2546  1.9624
  378MOL0     H52155   7.489   7.377   3.300 -0.2233 -2.1261 -0.7999
  378MOL0     H52156   7.548   7.321   3.012  1.1523  0.1927  0.7700
  378MOL0     H52157   7.588   7.215   3.158 -1.0468  1.9523  5.6653
  378MOL0     H52158   7.349   7.207   3.223  3.4335  3.1043  1.0881
  378MOL0     H52159   7.389   7.131   3.069  0.1939  0.8466 -2.4747
  378MOL0     H52160   7.152   7.403   2.889 -2.1806 -1.0423  0.1025
  378MOL0     H52161   7.913   7.579   3.161 -2.1055  0.1868 -0.3089
  378MOL0     H52162   8.095   7.676   3.111 -1.9127  0.5228  0.7205
  378MOL0     H52163   8.148   7.828   3.176  3.4395  0.0103  0.2502
  378MOL0     H52164   8.226   7.675   3.238  1.0433 -0.8321 -1.6049
  379MOL0     O52165   7.401   9.625   0.775  0.3428 -0.0946 -1.1027
  379MOL0     C52166   7.327   9.647   0.871 -0.3236 -0.1417 -0.6007
  379MOL0     O52167   7.351   9.743   0.965  0.3714  0.0300 -0.3779
  379MOL0     C52168   7.461   9.825   0.948 -0.6667  0.5217  0.0566
  379MOL0     C52169   7.565   9.799   1.032 -0.4573 -0.3868 -0.1621
  379MOL0     C52170   7.686   9.872   1.021  0.3086  0.3229 -0.6037
  379MOL0     C52171   7.705   9.959   0.906 -1.0217 -0.4287 -0.7287
  379MOL0     O52172   7.823  10.033   0.893  0.2107 -0.2665  0.2314
  379MOL0     C52173   7.903   9.964   0.803 -0.2479 -0.4880  0.1038
  379MOL0     C52174   8.009  10.059   0.744  0.4583  0.0040  0.1840
  379MOL0     C52175   8.099  10.131   0.854  0.3814  0.4844 -0.0635
  379MOL0     C52176   8.166  10.022   0.946 -0.9489 -0.6725 -0.2725
  379MOL0     C52177   8.270  10.079   1.037 -0.5149 -0.1892 -0.0516
  379MOL0     C52178   8.231  10.206   1.112 -0.0792  0.4603 -1.1922
  379MOL0     C52179   8.345  10.239   1.220 -0.4613 -0.3768  0.6048
  379MOL0     C52180   8.308  10.180   1.361  0.8505 -0.1160  0.3488
  379MOL0     N52181   8.412  10.210   1.466 -0.3375 -0.0966  0.2831
  379MOL0     C52182   8.433  10.327   1.538 -0.0262  0.0926 -0.1177
  379MOL0     C52183   8.550  10.309   1.598  0.1569 -0.5869 -0.1151
  379MOL0     C52184   8.619  10.393   1.695 -0.1221 -0.4211  0.2101
  379MOL0     C52185   8.727  10.478   1.635  0.0120  0.3124 -0.1612
  379MOL0     C52186   8.754  10.612   1.715 -0.4049 -0.3415 -0.8421
  379MOL0     C52187   8.813  10.584   1.859 -0.1072  0.1267  0.4088
  379MOL0     O52188   8.815  10.696   1.948 -0.0215 -0.6752 -0.0451
  379MOL0     C52189   8.908  10.797   1.926 -0.2448  0.1097  1.3543
  379MOL0     C52190   9.012  10.805   1.832 -0.6791  0.1603  0.3649
  379MOL0     C52191   9.093  10.916   1.820  0.6162  0.0078 -0.1329
  379MOL0     C52192   9.216  10.904   1.737 -0.2985 -0.3239 -0.8881
  379MOL0     C52193   9.065  11.026   1.901 -0.1185  1.0688 -0.0244
  379MOL0     C52194   9.148  11.148   1.883  0.0465 -1.5409  0.0145
  379MOL0     O52195   9.165  11.230   1.994 -0.1517  0.2185 -0.0216
  379MOL0     C52196   9.248  11.334   2.013 -0.3661  1.0699 -0.9910
  379MOL0     C52197   9.267  11.373   2.152 -0.9784 -0.2058 -0.0426
  379MOL0     C52198   9.360  11.474   2.178  0.1959 -0.1223 -0.2766
  379MOL0     C52199   9.429  11.534   2.079  0.3136 -0.8150  0.2873
  379MOL0     O52200   9.520  11.635   2.118  0.5194  0.2241 -0.0810
  379MOL0     C52201   9.585  11.611   2.244 -0.0376 -0.3591  0.0431
  379MOL0     C52202   9.687  11.719   2.263 -0.5742  0.1956  0.1973
  379MOL0     C52203   9.822  11.651   2.247  0.3172  0.2594 -0.1054
  379MOL0     C52204   9.928  11.742   2.311  0.2257 -0.0395  0.1721
  379MOL0     C52205  10.066  11.687   2.303 -0.1152  0.3865 -0.4560
  379MOL0     C52206  10.166  11.801   2.330 -0.2271 -0.5500  0.7785
  379MOL0     C52207  10.304  11.732   2.338  0.7923 -0.5764  0.2976
  379MOL0     C52208  10.418  11.815   2.380 -1.2205 -0.9411  0.0729
  379MOL0    Cl52209  10.455  11.940   2.263  0.0306 -0.4022 -0.1696
  379MOL0     C52210   9.417  11.491   1.940  1.4235 -0.1965  0.5859
  379MOL0     C52211   9.318  11.397   1.913  0.2854  0.2914 -0.0707
  379MOL0     O52212   9.195  11.177   1.772  0.4135 -0.0676  0.2750
  379MOL0     C52213   8.965  11.021   1.994 -0.4285  0.4478  0.5752
  379MOL0     C52214   8.890  10.907   2.003  0.5124  0.6904  0.7770
  379MOL0     N52215   8.601  10.185   1.566  0.2411 -0.2621  0.4019
  379MOL0     N52216   8.523  10.132   1.477 -0.0537  0.0030  0.1440
  379MOL0     C52217   7.594   9.982   0.820  0.3673 -0.3342  0.4875
  379MOL0     C52218   7.467   9.925   0.850  0.0002 -0.0320 -0.4227
  379MOL0     C52219   7.210   9.552   0.886  0.2693  0.0115  0.3530
  379MOL0     C52220   7.172   9.474   0.778  0.7202 -0.5488  0.0460
  379MOL0     C52221   7.063   9.394   0.786 -0.1354  0.6277  0.8858
  379MOL0     C52222   7.007   9.361   0.910 -0.5138 -1.0229  0.6636
  379MOL0     O52223   6.910   9.264   0.926 -0.7501  0.1697  0.4249
  379MOL0     C52224   6.919   9.143   0.843 -0.4256  0.0440  0.3291
  379MOL0     C52225   6.852   9.035   0.914  0.3601 -0.5979 -0.7132
  379MOL0     C52226   6.932   8.987   1.036 -0.7653  1.3593 -0.5506
  379MOL0     C52227   6.866   8.901   1.137 -0.0903 -0.8705 -0.0274
  379MOL0     C52228   6.964   8.810   1.208 -0.4467 -0.0549  0.1089
  379MOL0     C52229   7.050   8.738   1.249 -0.3468 -0.3286  0.3113
  379MOL0     C52230   7.045   9.437   1.020  0.9363  0.6644 -0.0499
  379MOL0     C52231   7.148   9.526   1.009 -0.0357 -0.6262  0.1966
  379MOL0     C52232   7.187   9.591   1.137 -1.0796  0.1437 -0.5516
  379MOL0     H52233   7.557   9.721   1.107  0.1176 -0.7729 -0.4920
  379MOL0     H52234   7.764   9.854   1.095  0.7764  0.7007 -0.9909
  379MOL0     H52235   7.857   9.924   0.713  0.7991  0.7444 -1.0173
  379MOL0     H52236   7.949   9.879   0.856 -0.3395 -0.1973  0.6513
  379MOL0     H52237   8.066  10.003   0.670 -0.3740  0.9365 -1.2106
  379MOL0     H52238   7.952  10.137   0.693  0.7178  1.0862  1.4911
  379MOL0     H52239   8.161  10.208   0.807 -3.3144  2.4584 -2.1517
  379MOL0     H52240   8.040  10.192   0.923  1.8854  0.0823  1.6656
  379MOL0     H52241   8.092   9.971   1.008 -0.4856 -3.1210 -1.6126
  379MOL0     H52242   8.237   9.959   0.891 -0.7633 -1.0884  0.4300
  379MOL0     H52243   8.366  10.087   0.985 -0.4948 -1.7383 -0.3001
  379MOL0     H52244   8.285   9.999   1.111 -1.0358 -0.7887 -0.5894
  379MOL0     H52245   8.218  10.291   1.044  3.7355  0.9795 -1.5269
  379MOL0     H52246   8.146  10.185   1.177  1.1504 -0.4820  0.1768
  379MOL0     H52247   8.354  10.348   1.227 -2.4684 -0.2600  2.5404
  379MOL0     H52248   8.443  10.202   1.190  0.4400  0.1264  2.7393
  379MOL0     H52249   8.211  10.223   1.385 -0.4320 -1.0532 -2.6880
  379MOL0     H52250   8.299  10.071   1.359  2.5044 -0.2737 -1.3508
  379MOL0     H52251   8.374  10.415   1.559  2.5653  2.2800 -1.3648
  379MOL0     H52252   8.663  10.336   1.777  1.8728  2.0665  0.9895
  379MOL0     H52253   8.545  10.448   1.754  1.2641  1.2959  0.4258
  379MOL0     H52254   8.815  10.414   1.617  0.5256  1.1487 -0.6846
  379MOL0     H52255   8.688  10.503   1.537 -1.0439 -1.7205 -0.3223
  379MOL0     H52256   8.826  10.661   1.648 -2.8607 -0.3247 -3.6413
  379MOL0     H52257   8.670  10.677   1.740  0.7894  0.1828  2.4069
  379MOL0     H52258   8.751  10.503   1.899  1.5386 -1.1992  0.4120
  379MOL0     H52259   8.918  10.552   1.857 -0.5096 -1.3275  1.0855
  379MOL0     H52260   9.039  10.717   1.774 -1.1401 -0.5077  1.1471
  379MOL0     H52261   9.196  10.973   1.654 -1.6679  0.5352  0.1068
  379MOL0     H52262   9.233  10.800   1.707 -1.7622 -0.2377 -2.1294
  379MOL0     H52263   9.304  10.936   1.793 -0.6408 -0.4066 -0.2943
  379MOL0     H52264   9.224  11.328   2.241 -0.5217 -1.6445 -0.5224
  379MOL0     H52265   9.366  11.491   2.285 -0.3837 -1.0382 -0.0847
  379MOL0     H52266   9.513  11.623   2.326  2.6163  2.8120  2.1774
  379MOL0     H52267   9.624  11.509   2.252  2.0568 -0.0245 -3.7663
  379MOL0     H52268   9.664  11.792   2.185 -0.2233 -1.9682 -2.0622
  379MOL0     H52269   9.692  11.759   2.365  1.5046 -3.1779  1.6190
  379MOL0     H52270   9.841  11.623   2.142  3.2534 -1.1044  0.6689
  379MOL0     H52271   9.826  11.551   2.292 -4.8237 -2.8452 -5.0723
  379MOL0     H52272   9.912  11.764   2.417  0.4380  0.7255  0.0492
  379MOL0     H52273   9.914  11.827   2.245 -1.0242 -0.9285 -0.7605
  379MOL0     H52274  10.065  11.627   2.395 -3.2649  1.8598  0.5914
  379MOL0     H52275  10.092  11.627   2.215 -2.6533 -1.1999 -0.2066
  379MOL0     H52276  10.148  11.864   2.417 -1.8735  3.2395 -2.0431
  379MOL0     H52277  10.167  11.867   2.243 -1.3823 -2.0150 -0.4081
  379MOL0     H52278  10.320  11.694   2.237  2.6310  1.0911 -0.0951
  379MOL0     H52279  10.295  11.648   2.408 -0.5881 -0.8424 -0.1747
  379MOL0     H52280  10.508  11.754   2.390 -0.3768  0.1259 -0.6013
  379MOL0     H52281  10.391  11.866   2.473 -0.7967  1.2194 -0.9256
  379MOL0     H52282   9.463  11.543   1.856  1.0131  1.8446  1.5739
  379MOL0     H52283   9.312  11.366   1.809 -0.4894 -5.7209  1.3958
  379MOL0     H52284   8.950  11.098   2.068 -2.5590  0.9514 -0.3033
  379MOL0     H52285   8.800  10.912   2.064  0.1714  3.1731  0.2031
  379MOL0     H52286   7.597  10.059   0.744 -1.4809 -1.1299 -0.4659
  379MOL0     H52287   7.385   9.944   0.782  0.8690 -0.4782 -1.6423
  379MOL0     H52288   7.220   9.491   0.682  0.3581 -1.7820 -0.3707
  379MOL0     H52289   7.033   9.337   0.699 -2.4100 -0.2338  2.1521
  379MOL0     H52290   6.866   9.158   0.749  2.0092  0.4989 -1.0199
  379MOL0     H52291   7.017   9.105   0.815 -0.8425 -2.5248  1.9660
  379MOL0     H52292   6.818   8.956   0.846 -1.3154 -1.2325  0.7725
  379MOL0     H52293   6.755   9.078   0.941 -0.0431 -1.0564 -1.3975
  379MOL0     H52294   7.027   8.950   0.996 -0.0933  1.2149  1.1028
  379MOL0     H52295   6.963   9.075   1.093 -0.4838  0.6600  0.3918
  379MOL0     H52296   6.799   8.837   1.079 -0.0804 -1.6263  0.7775
  379MOL0     H52297   6.810   8.968   1.202  1.1141 -0.5693  0.7502
  379MOL0     H52298   7.138   8.682   1.275 -0.8498 -0.8803  0.8886
  379MOL0     H52299   6.991   9.398   1.105  0.4301 -0.9125 -1.0505
  379MOL0     H52300   7.167   9.699   1.138 -1.8368  0.0081  0.0082
  379MOL0     H52301   7.140   9.542   1.223  4.5552 -0.6730  2.5697
  379MOL0     H52302   7.294   9.575   1.154 -0.3973  2.7653 -1.7382
  380MOL0     O52303   2.410   4.043   6.987 -0.0731 -0.0900  0.8054
  380MOL0     C52304   2.377   3.993   6.875  0.9144 -0.8974 -0.7152
  380MOL0     O52305   2.401   3.858   6.841  0.6249  0.1165 -0.1430
  380MOL0     C52306   2.436   3.781   6.945 -0.2884  0.7584  0.3432
  380MOL0     C52307   2.575   3.763   6.979 -0.2651 -0.8399 -0.2448
  380MOL0     C52308   2.606   3.683   7.084  0.1105  0.7293 -0.3347
  380MOL0     C52309   2.512   3.619   7.171  0.0773 -0.8357 -0.8824
  380MOL0     O52310   2.544   3.551   7.287 -0.3573  0.9515 -0.3565
  380MOL0     C52311   2.664   3.595   7.358 -1.1851 -0.6148  0.3819
  380MOL0     C52312   2.671   3.544   7.507  0.5017  0.4269  0.0607
  380MOL0     C52313   2.567   3.623   7.596 -0.1232 -0.1996  0.1354
  380MOL0     C52314   2.549   3.577   7.743 -0.0939 -0.3601 -0.5554
  380MOL0     C52315   2.478   3.681   7.825  0.3488  0.9874  0.0873
  380MOL0     C52316   2.493   3.642   7.973  0.5746  0.1537 -0.0891
  380MOL0     C52317   2.397   3.532   8.017 -0.7405 -0.1535  0.7017
  380MOL0     C52318   2.451   3.479   8.146  0.8282 -0.4235 -0.2636
  380MOL0     N52319   2.550   3.373   8.143  0.7479  0.7304  0.9758
  380MOL0     C52320   2.656   3.350   8.232  0.6707 -0.5979  1.2688
  380MOL0     C52321   2.712   3.231   8.184 -0.5706 -0.1973  0.9270
  380MOL0     C52322   2.839   3.158   8.231  0.1413 -0.7466  0.3523
  380MOL0     C52323   2.924   3.232   8.345 -0.4695  0.3842  0.7244
  380MOL0     C52324   3.022   3.149   8.419  0.9452  0.4393 -0.4835
  380MOL0     C52325   3.117   3.220   8.521 -1.0171 -0.1501  0.7073
  380MOL0     O52326   3.215   3.121   8.557 -0.2769 -0.1228  0.2843
  380MOL0     C52327   3.310   3.175   8.645  0.7129 -1.0838  0.5133
  380MOL0     C52328   3.392   3.086   8.711  0.1696  0.2341 -0.2125
  380MOL0     C52329   3.507   3.125   8.783  1.0026  0.7699 -0.4162
  380MOL0     C52330   3.583   3.003   8.840  0.1832 -0.0850  0.0464
  380MOL0     C52331   3.538   3.263   8.804 -0.3955  0.0742 -0.0291
  380MOL0     C52332   3.667   3.305   8.857 -0.5911  0.6917 -0.2366
  380MOL0     O52333   3.711   3.437   8.824  0.3565 -0.5110  0.4452
  380MOL0     C52334   3.800   3.504   8.901 -0.4207  0.6846  0.3706
  380MOL0     C52335   3.806   3.492   9.046 -0.0280 -0.4944 -0.4185
  380MOL0     C52336   3.895   3.571   9.105 -0.9064  0.4312  0.3134
  380MOL0     C52337   3.967   3.674   9.040 -0.1821 -0.6904 -0.4395
  380MOL0     O52338   4.042   3.776   9.089 -0.1669  1.1642  0.1129
  380MOL0     C52339   4.108   3.746   9.208 -0.0427 -0.3253 -0.2319
  380MOL0     C52340   4.247   3.816   9.210 -0.0435  0.2563  1.1915
  380MOL0     C52341   4.344   3.769   9.105 -0.7491 -0.6471  0.6073
  380MOL0     C52342   4.319   3.645   9.003  0.3377  0.2051  0.2896
  380MOL0     C52343   4.426   3.629   8.899  0.0747 -0.2710  0.1973
  380MOL0     C52344   4.461   3.767   8.830  0.3675  0.1930  0.6038
  380MOL0     C52345   4.527   3.741   8.689  0.4544  1.0652 -0.9426
  380MOL0     C52346   4.631   3.843   8.646 -0.2000  0.2644 -0.1227
  380MOL0    Cl52347   4.762   3.881   8.763  0.0654  0.4528  0.4400
  380MOL0     C52348   3.949   3.684   8.903 -0.6866 -0.8840 -1.1964
  380MOL0     C52349   3.870   3.602   8.829  0.1403 -0.2633  0.1857
  380MOL0     O52350   3.731   3.226   8.923  0.1315  0.6469  0.5020
  380MOL0     C52351   3.444   3.354   8.748  0.1208 -0.0452  0.8466
  380MOL0     C52352   3.338   3.316   8.669 -0.3599 -0.3967 -0.3133
  380MOL0     N52353   2.657   3.201   8.063  0.4405  1.2109  0.2895
  380MOL0     N52354   2.553   3.275   8.047  0.0841 -0.5084  1.1173
  380MOL0     C52355   2.374   3.633   7.135 -0.1649  0.0794  0.5657
  380MOL0     C52356   2.337   3.717   7.021  0.7836  0.8385 -0.1491
  380MOL0     C52357   2.306   4.081   6.769 -0.3742  0.4106  0.7191
  380MOL0     C52358   2.273   4.017   6.644 -0.1020 -0.5413 -0.2836
  380MOL0     C52359   2.224   4.096   6.539 -0.0810 -0.2407  0.4015
  380MOL0     C52360   2.209   4.233   6.542 -0.1312 -0.0463 -0.4049
  380MOL0     O52361   2.142   4.298   6.441  0.5502 -0.9347  0.5160
  380MOL0     C52362   2.016   4.350   6.462 -0.1947 -0.8216  0.0815
  380MOL0     C52363   1.964   4.418   6.333 -0.7080  0.2826  0.4711
  380MOL0     C52364   1.983   4.319   6.213 -0.2569  0.4546 -0.4955
  380MOL0     C52365   1.934   4.376   6.081  0.0622 -0.5016 -0.6602
  380MOL0     C52366   1.793   4.385   6.065  0.7580 -0.7556  0.2908
  380MOL0     C52367   1.677   4.369   6.032 -0.2489 -0.5584  0.3135
  380MOL0     C52368   2.239   4.301   6.669  0.1406  0.5786  0.4270
  380MOL0     C52369   2.288   4.224   6.780  0.3751  0.0855  0.6217
  380MOL0     C52370   2.319   4.305   6.906 -0.5911  0.1116  0.2876
  380MOL0     H52371   2.659   3.803   6.923 -0.7132  1.9156  0.9035
  380MOL0     H52372   2.709   3.656   7.103  0.4715  3.3673  2.2758
  380MOL0     H52373   2.675   3.703   7.365  0.1612 -0.8222  2.5975
  380MOL0     H52374   2.748   3.551   7.303 -2.4084 -3.4673  0.6032
  380MOL0     H52375   2.643   3.438   7.509  0.3428  0.4751  0.4499
  380MOL0     H52376   2.776   3.550   7.536  0.3733 -1.5722  1.1562
  380MOL0     H52377   2.592   3.730   7.602  0.8747 -0.4836  1.3130
  380MOL0     H52378   2.469   3.623   7.547 -0.5428  1.8830  0.8520
  380MOL0     H52379   2.484   3.489   7.737 -2.4888  1.4061 -2.9935
  380MOL0     H52380   2.646   3.552   7.787 -0.2578 -0.8807 -0.4798
  380MOL0     H52381   2.371   3.686   7.802  0.2230  1.2133  0.6829
  380MOL0     H52382   2.516   3.782   7.810 -0.4674  0.9986 -2.2922
  380MOL0     H52383   2.597   3.617   7.999  0.2794  0.4421  1.5223
  380MOL0     H52384   2.482   3.735   8.030 -2.0805 -0.1760  0.0361
  380MOL0     H52385   2.371   3.469   7.931 -2.5235  1.7290 -0.2181
  380MOL0     H52386   2.298   3.577   8.026 -0.4217  0.9796 -0.9097
  380MOL0     H52387   2.487   3.564   8.203 -0.3924 -0.4946  0.6686
  380MOL0     H52388   2.368   3.444   8.208 -0.2517  1.7157 -0.4312
  380MOL0     H52389   2.707   3.407   8.309  2.2787  0.5814 -0.5752
  380MOL0     H52390   2.900   3.138   8.142  3.4808  2.6515  1.6087
  380MOL0     H52391   2.812   3.062   8.277  1.7439 -0.2796  2.4347
  380MOL0     H52392   2.970   3.309   8.281 -2.0356 -0.7449 -1.9254
  380MOL0     H52393   2.864   3.290   8.416 -0.4144 -1.0113  1.9485
  380MOL0     H52394   2.968   3.082   8.486  0.1541  0.0212 -1.5220
  380MOL0     H52395   3.078   3.079   8.357  1.8599 -0.6449  1.4744
  380MOL0     H52396   3.162   3.308   8.475 -1.1871 -0.0851  0.6630
  380MOL0     H52397   3.070   3.250   8.616  2.0141 -0.3220  2.3904
  380MOL0     H52398   3.373   2.981   8.688 -2.2216 -0.1703  2.9558
  380MOL0     H52399   3.525   2.914   8.813 -0.2389  0.3057 -0.3561
  380MOL0     H52400   3.591   3.014   8.949 -0.1409  0.8877 -0.0228
  380MOL0     H52401   3.685   2.998   8.801 -0.2979 -1.9726 -1.0919
  380MOL0     H52402   3.749   3.420   9.103 -1.1123  1.0502  0.5375
  380MOL0     H52403   3.918   3.557   9.210  2.9205 -3.1744 -0.7119
  380MOL0     H52404   4.056   3.788   9.294  0.2233 -0.2419 -0.1110
  380MOL0     H52405   4.119   3.639   9.228  0.7198 -0.2701 -0.3381
  380MOL0     H52406   4.225   3.921   9.186  0.9672  0.1660 -0.2961
  380MOL0     H52407   4.292   3.802   9.309 -1.6551 -0.3362  1.8600
  380MOL0     H52408   4.440   3.743   9.151 -0.8575 -1.9208  0.1589
  380MOL0     H52409   4.348   3.854   9.036  0.5747 -1.8453 -0.8534
  380MOL0     H52410   4.227   3.663   8.946  2.0711  1.8734 -2.2376
  380MOL0     H52411   4.293   3.554   9.059  0.3741 -1.4296 -2.1735
  380MOL0     H52412   4.522   3.588   8.934  1.5197 -0.6469 -3.7285
  380MOL0     H52413   4.385   3.550   8.836  2.0619 -2.1716  1.1562
  380MOL0     H52414   4.525   3.825   8.897 -0.0127 -1.8658  2.8737
  380MOL0     H52415   4.373   3.830   8.812  0.2923 -0.1245 -0.1635
  380MOL0     H52416   4.451   3.725   8.612 -0.3187  0.8581 -0.1655
  380MOL0     H52417   4.578   3.645   8.692 -0.4825  0.5741 -0.1984
  380MOL0     H52418   4.573   3.929   8.613  0.2404 -0.7648 -4.0661
  380MOL0     H52419   4.673   3.793   8.558 -2.2483  1.4447 -1.8681
  380MOL0     H52420   3.994   3.774   8.864  0.9184 -0.1062  2.0516
  380MOL0     H52421   3.857   3.620   8.723  1.2176 -2.3663 -0.3520
  380MOL0     H52422   3.458   3.461   8.752 -1.5118  0.2774 -0.8328
  380MOL0     H52423   3.295   3.404   8.622  0.4644  0.2633  0.1432
  380MOL0     H52424   2.307   3.592   7.209  3.5757 -1.2521  3.5514
  380MOL0     H52425   2.231   3.713   6.997  0.8505  2.8470 -0.9723
  380MOL0     H52426   2.267   3.909   6.636 -2.1186 -0.5087  0.3033
  380MOL0     H52427   2.183   4.044   6.453 -1.5803 -1.2722  1.6892
  380MOL0     H52428   1.937   4.278   6.485 -0.8359  0.1112  0.8817
  380MOL0     H52429   2.012   4.427   6.539  3.4256  1.0067 -1.3318
  380MOL0     H52430   2.015   4.510   6.303  0.4414 -0.6361 -0.5343
  380MOL0     H52431   1.858   4.443   6.341 -0.7144  0.4917 -0.1722
  380MOL0     H52432   2.089   4.295   6.207  0.4146  2.6490  1.0085
  380MOL0     H52433   1.939   4.222   6.238  0.8573 -0.8671 -3.2848
  380MOL0     H52434   1.968   4.311   5.999  2.5324  1.7330 -1.5626
  380MOL0     H52435   1.980   4.475   6.069 -0.5078  0.2454  2.5627
  380MOL0     H52436   1.578   4.360   5.991  0.0967  1.0694 -0.9665
  380MOL0     H52437   2.244   4.409   6.662  3.9420  0.5277  0.2952
  380MOL0     H52438   2.428   4.315   6.915 -0.2497 -2.4089 -0.3133
  380MOL0     H52439   2.278   4.406   6.902 -1.7214 -0.2280  2.1821
  380MOL0     H52440   2.278   4.262   6.998  0.5427  1.5336  1.5064
  381MOL0     O52441   5.568  11.173   5.418 -0.3611  0.9135 -0.7522
  381MOL0     C52442   5.496  11.209   5.508 -0.6340  0.3808 -0.1599
  381MOL0     O52443   5.509  11.320   5.588 -0.3401  0.7473 -0.0257
  381MOL0     C52444   5.585  11.412   5.526 -0.9560  0.6140  0.5330
  381MOL0     C52445   5.683  11.486   5.586  0.3265  0.2517  0.2626
  381MOL0     C52446   5.747  11.594   5.527  0.2622  0.0976 -0.3354
  381MOL0     C52447   5.701  11.641   5.397  0.1118  0.6210  0.4539
  381MOL0     O52448   5.760  11.754   5.337  0.5023  0.5744 -0.2431
  381MOL0     C52449   5.741  11.772   5.198  0.1346 -0.9179 -0.5610
  381MOL0     C52450   5.859  11.854   5.143 -0.2056 -1.1247  0.7553
  381MOL0     C52451   5.995  11.779   5.132 -0.3573 -0.9651  1.0080
  381MOL0     C52452   5.983  11.645   5.065 -0.2068  0.2089  0.5416
  381MOL0     C52453   6.125  11.592   5.039 -0.4630  0.3379  0.4283
  381MOL0     C52454   6.186  11.645   4.907 -0.1076 -0.0451 -0.1330
  381MOL0     C52455   6.335  11.610   4.896 -0.3371 -0.9645 -0.1105
  381MOL0     C52456   6.408  11.707   4.796  0.7351  0.5917  0.0435
  381MOL0     N52457   6.550  11.713   4.819 -0.0578 -0.1338  0.7002
  381MOL0     C52458   6.616  11.755   4.927  0.0899  1.7672 -0.5949
  381MOL0     C52459   6.743  11.703   4.916  0.5056 -0.3142 -0.2168
  381MOL0     C52460   6.849  11.712   5.025 -0.3880 -0.1863 -0.2586
  381MOL0     C52461   6.975  11.627   4.999 -1.1286 -0.1685 -0.0343
  381MOL0     C52462   7.057  11.611   5.133  0.0827  0.6042  0.4409
  381MOL0     C52463   7.196  11.549   5.105 -0.0799  0.3713  0.8697
  381MOL0     O52464   7.267  11.545   5.226  0.8604  0.0878  0.2984
  381MOL0     C52465   7.403  11.535   5.235  0.4762  0.0601 -0.2603
  381MOL0     C52466   7.461  11.562   5.366  0.0252  0.8668  0.1287
  381MOL0     C52467   7.601  11.552   5.378 -0.3428  0.2784  0.3153
  381MOL0     C52468   7.654  11.589   5.517 -0.5669 -0.0108 -0.0094
  381MOL0     C52469   7.685  11.514   5.270 -0.6293 -0.3610  0.1979
  381MOL0     C52470   7.835  11.498   5.267 -0.3130  0.1555 -0.3633
  381MOL0     O52471   7.891  11.507   5.387 -0.5629  0.6489 -0.0765
  381MOL0     C52472   8.023  11.462   5.401 -0.4355  0.5595 -0.6528
  381MOL0     C52473   8.107  11.546   5.470 -0.8794 -0.4163  0.1572
  381MOL0     C52474   8.232  11.516   5.512  0.0966  1.0241 -0.5996
  381MOL0     C52475   8.285  11.389   5.470  0.4683 -0.8792 -0.0184
  381MOL0     O52476   8.413  11.344   5.499 -0.0279  0.8225  0.2646
  381MOL0     C52477   8.491  11.416   5.596  0.2634  0.1776  0.6105
  381MOL0     C52478   8.639  11.348   5.611  0.5402 -1.1114  0.0176
  381MOL0     C52479   8.626  11.201   5.648  0.0648  0.4912 -0.5616
  381MOL0     C52480   8.766  11.142   5.666 -0.8393  0.4515 -0.9703
  381MOL0     C52481   8.871  11.167   5.554 -0.4672  0.1078 -0.0253
  381MOL0     C52482   9.011  11.099   5.579  0.4176 -0.1480 -0.2866
  381MOL0     C52483   9.116  11.157   5.487 -0.3405 -0.1354 -0.7251
  381MOL0     C52484   9.251  11.081   5.510 -0.6587 -0.0245 -0.2090
  381MOL0    Cl52485   9.356  11.101   5.362 -0.0350  0.1121  0.1482
  381MOL0     C52486   8.194  11.303   5.403 -0.8950 -0.5556 -1.4541
  381MOL0     C52487   8.059  11.324   5.383 -0.4995  0.5278  0.5087
  381MOL0     O52488   7.894  11.467   5.159 -0.4947  0.3760  0.6169
  381MOL0     C52489   7.617  11.495   5.149 -0.3472  0.0089  0.9281
  381MOL0     C52490   7.480  11.507   5.126  0.4091 -0.8899 -0.3334
  381MOL0     N52491   6.746  11.637   4.796 -0.2391  1.1170 -0.2759
  381MOL0     N52492   6.635  11.652   4.730 -0.0973 -0.4281  0.2590
  381MOL0     C52493   5.589  11.581   5.342  0.3649  0.0296  0.1769
  381MOL0     C52494   5.536  11.466   5.400  0.6229 -0.5584  0.0870
  381MOL0     C52495   5.389  11.121   5.552  0.4552 -0.8480 -0.2722
  381MOL0     C52496   5.410  10.982   5.560 -0.4324 -0.8352 -0.4764
  381MOL0     C52497   5.309  10.901   5.605  0.1869 -0.2599  0.8914
  381MOL0     C52498   5.184  10.947   5.657 -0.5771  0.4650  0.5298
  381MOL0     O52499   5.090  10.865   5.708 -0.0623  0.1777 -0.3497
  381MOL0     C52500   5.064  10.886   5.847 -0.3604 -0.0370 -0.1324
  381MOL0     C52501   5.024  10.749   5.905  0.2125  0.2435  0.1376
  381MOL0     C52502   4.871  10.722   5.907  0.7667  0.5162 -0.0367
  381MOL0     C52503   4.828  10.607   6.001  0.4339  0.0114  0.1803
  381MOL0     C52504   4.878  10.487   5.934  0.1533 -0.4736  1.0285
  381MOL0     C52505   4.911  10.383   5.881 -0.4641  0.3719 -0.2430
  381MOL0     C52506   5.171  11.084   5.651  0.4035 -0.2161 -0.3514
  381MOL0     C52507   5.261  11.174   5.590  0.2103 -0.1660  0.8305
  381MOL0     C52508   5.232  11.314   5.602 -0.9955 -0.6126  1.0250
  381MOL0     H52509   5.719  11.443   5.679  1.7505 -1.3808 -0.9816
  381MOL0     H52510   5.833  11.643   5.572  0.1264  0.0278 -0.0009
  381MOL0     H52511   5.646  11.822   5.178 -0.3686 -2.8037 -3.6038
  381MOL0     H52512   5.740  11.680   5.138 -1.0934  0.4201 -2.7578
  381MOL0     H52513   5.832  11.879   5.040  2.6733 -0.6029  0.0460
  381MOL0     H52514   5.865  11.950   5.195  0.2173 -0.0343 -1.1678
  381MOL0     H52515   6.070  11.842   5.083 -1.5503 -0.1000  0.2595
  381MOL0     H52516   6.034  11.764   5.233 -1.4491  0.7812  1.7329
  381MOL0     H52517   5.924  11.586   5.136  1.8143  0.0039  2.1696
  381MOL0     H52518   5.931  11.639   4.969 -1.0412 -1.3478  1.0563
  381MOL0     H52519   6.119  11.484   5.028  1.0103  0.2910 -0.1082
  381MOL0     H52520   6.190  11.619   5.122 -1.2573  0.0626  1.1439
  381MOL0     H52521   6.134  11.606   4.819  0.1410 -2.1501  0.5993
  381MOL0     H52522   6.170  11.753   4.906 -0.1601 -0.0329 -1.9444
  381MOL0     H52523   6.346  11.516   4.841 -2.5825  0.1057 -2.6556
  381MOL0     H52524   6.364  11.605   5.001 -3.3128  2.6533  1.1057
  381MOL0     H52525   6.374  11.687   4.695 -5.6165 -2.8812  2.3187
  381MOL0     H52526   6.373  11.810   4.813  1.5957  1.0068 -0.6111
  381MOL0     H52527   6.579  11.822   5.004  1.4460 -0.3258  2.0302
  381MOL0     H52528   6.810  11.704   5.127 -0.8880  1.3437 -0.3046
  381MOL0     H52529   6.877  11.818   5.027  0.4997 -0.4032  1.9608
  381MOL0     H52530   6.948  11.525   4.971  1.6918 -1.2074  0.6673
  381MOL0     H52531   7.037  11.666   4.918 -0.1670 -0.8980  0.3291
  381MOL0     H52532   7.069  11.702   5.193  4.8134  0.2743  0.4201
  381MOL0     H52533   7.005  11.543   5.201 -2.3961 -0.3105 -2.1972
  381MOL0     H52534   7.179  11.452   5.059 -1.0501  1.0996 -0.3796
  381MOL0     H52535   7.240  11.608   5.024 -0.1260  1.1598  1.4006
  381MOL0     H52536   7.390  11.586   5.444  1.0956  0.4683  1.2609
  381MOL0     H52537   7.699  11.502   5.566 -2.1777 -0.0596  1.4670
  381MOL0     H52538   7.567  11.627   5.571  0.9625 -0.2203  2.7961
  381MOL0     H52539   7.721  11.676   5.515 -0.3153 -0.0943  2.2801
  381MOL0     H52540   8.089  11.653   5.481 -0.5832 -0.4220  0.7431
  381MOL0     H52541   8.297  11.584   5.567  1.6905 -1.7642  1.2143
  381MOL0     H52542   8.507  11.520   5.566 -0.4031  0.1961  0.3114
  381MOL0     H52543   8.437  11.422   5.692  2.5081 -1.0773  2.0360
  381MOL0     H52544   8.690  11.362   5.515  3.1066 -2.7934  1.0151
  381MOL0     H52545   8.691  11.403   5.690 -0.1428  0.8773 -0.8598
  381MOL0     H52546   8.562  11.146   5.579 -2.0420 -0.3142  1.8850
  381MOL0     H52547   8.580  11.186   5.746  0.9946 -0.1792 -0.2127
  381MOL0     H52548   8.769  11.036   5.692 -1.6576  0.4216 -0.9658
  381MOL0     H52549   8.817  11.194   5.747  1.0686 -1.9933 -0.4915
  381MOL0     H52550   8.840  11.111   5.465  1.2424  0.4743 -0.8997
  381MOL0     H52551   8.880  11.274   5.537 -1.8667  0.1697 -0.5003
  381MOL0     H52552   8.992  10.991   5.571 -1.5923 -0.0026  1.6674
  381MOL0     H52553   9.045  11.110   5.682 -1.5441 -2.5269  0.7329
  381MOL0     H52554   9.124  11.261   5.519 -1.6807 -0.3181  0.2781
  381MOL0     H52555   9.098  11.143   5.380  0.6529 -5.0101 -0.5052
  381MOL0     H52556   9.239  10.975   5.534 -1.3123  0.0775 -0.0450
  381MOL0     H52557   9.302  11.121   5.598 -1.5488  0.1066  0.2594
  381MOL0     H52558   8.232  11.209   5.364 -2.7277 -0.2404 -4.3259
  381MOL0     H52559   7.983  11.252   5.355 -0.5820  1.5178 -2.1936
  381MOL0     H52560   7.670  11.466   5.058  0.8177  0.8282  1.3204
  381MOL0     H52561   7.447  11.493   5.023  1.4136 -1.8559 -0.5392
  381MOL0     H52562   5.546  11.595   5.243  0.9622 -5.3489 -1.2086
  381MOL0     H52563   5.451  11.431   5.343  1.6012  0.4622 -2.1445
  381MOL0     H52564   5.501  10.948   5.512  0.3339 -0.2915  0.5589
  381MOL0     H52565   5.331  10.795   5.601  3.1986  0.2783 -2.2562
  381MOL0     H52566   5.148  10.925   5.905 -1.3242  1.6106  0.2332
  381MOL0     H52567   4.979  10.955   5.859 -3.1053 -2.9333 -1.5927
  381MOL0     H52568   5.048  10.739   6.011  1.9186 -0.2357 -0.2610
  381MOL0     H52569   5.082  10.669   5.859  0.1072 -0.5773  1.3825
  381MOL0     H52570   4.817  10.810   5.943  1.7230  1.1835 -0.1708
  381MOL0     H52571   4.834  10.709   5.805 -0.4992 -0.7258  0.5580
  381MOL0     H52572   4.718  10.608   6.006  0.4720  0.3817  1.1994
  381MOL0     H52573   4.866  10.607   6.103 -2.2617 -1.3260  1.2673
  381MOL0     H52574   4.923  10.299   5.816  0.8397 -0.3660  0.9027
  381MOL0     H52575   5.074  11.120   5.681  0.3931 -0.2656 -0.3249
  381MOL0     H52576   5.269  11.373   5.517 -0.1402  1.5439  2.8057
  381MOL0     H52577   5.126  11.337   5.593 -1.0867 -1.8559 -3.0303
  381MOL0     H52578   5.287  11.352   5.689  2.8306 -2.3936 -0.3897
  382MOL0     O52579   4.511   4.676   2.016  0.2501  1.0673  0.1550
  382MOL0     C52580   4.601   4.620   1.955 -0.0043 -0.4880 -0.2450
  382MOL0     O52581   4.636   4.491   1.974  0.0458 -0.3907 -0.5568
  382MOL0     C52582   4.557   4.415   2.052  0.2743  0.3671 -0.2015
  382MOL0     C52583   4.493   4.304   1.991 -0.5345  0.0317 -0.3450
  382MOL0     C52584   4.417   4.218   2.071 -0.5449 -1.1866  0.0983
  382MOL0     C52585   4.403   4.245   2.208 -0.2678 -0.0311 -0.7442
  382MOL0     O52586   4.327   4.159   2.284 -0.3206  0.2458  0.4766
  382MOL0     C52587   4.198   4.217   2.332  0.4486 -0.1671 -0.1649
  382MOL0     C52588   4.132   4.118   2.425  0.3025  0.6725  0.1836
  382MOL0     C52589   4.057   3.999   2.353 -0.1290 -0.5752 -0.6233
  382MOL0     C52590   3.905   3.991   2.367  0.5551  1.2056  0.0951
  382MOL0     C52591   3.837   3.861   2.321  1.0019 -0.4558 -0.2482
  382MOL0     C52592   3.695   3.838   2.377  0.0589 -0.3107  0.7568
  382MOL0     C52593   3.600   3.947   2.404  0.3026 -0.0831  0.4019
  382MOL0     C52594   3.548   4.014   2.275 -0.0486  0.4546  0.6693
  382MOL0     N52595   3.509   4.151   2.289 -0.4803 -0.6619  0.9692
  382MOL0     C52596   3.589   4.250   2.248  1.4234 -0.2547  1.1010
  382MOL0     C52597   3.543   4.369   2.303 -0.5832  0.1697 -0.0324
  382MOL0     C52598   3.599   4.509   2.279 -0.4704 -1.1705 -0.7045
  382MOL0     C52599   3.697   4.548   2.404  0.0819 -0.1577 -0.0138
  382MOL0     C52600   3.830   4.463   2.406  0.8352 -0.3003 -0.5313
  382MOL0     C52601   3.941   4.505   2.509  0.1586 -0.3651 -0.0367
  382MOL0     O52602   3.870   4.495   2.631  0.4336  1.1356 -1.1653
  382MOL0     C52603   3.949   4.493   2.743 -0.0105  0.1300 -0.0505
  382MOL0     C52604   4.054   4.395   2.747  0.7494 -0.3285  0.0957
  382MOL0     C52605   4.140   4.412   2.855 -0.0322  0.7593  0.4173
  382MOL0     C52606   4.241   4.307   2.870 -0.7713 -0.4314 -0.6835
  382MOL0     C52607   4.136   4.521   2.945 -0.0538  0.3756  0.8501
  382MOL0     C52608   4.233   4.545   3.058 -0.2820  0.6402 -0.0543
  382MOL0     O52609   4.362   4.514   3.032 -0.0027  0.2244 -0.1690
  382MOL0     C52610   4.465   4.537   3.125 -0.4716 -0.8617  1.2656
  382MOL0     C52611   4.442   4.555   3.264  0.2714  0.0914  0.2350
  382MOL0     C52612   4.554   4.568   3.343  0.1333  0.9544 -0.1572
  382MOL0     C52613   4.688   4.561   3.300  0.2746  0.2569  1.6969
  382MOL0     O52614   4.790   4.573   3.396 -0.7437  0.3654 -0.3765
  382MOL0     C52615   4.922   4.613   3.349  0.2304  0.1586  1.1065
  382MOL0     C52616   5.011   4.646   3.462 -0.4179 -0.7323  0.3538
  382MOL0     C52617   5.148   4.706   3.412  0.4456  0.2924 -0.3260
  382MOL0     C52618   5.234   4.596   3.356  0.2470 -0.4017 -0.1485
  382MOL0     C52619   5.372   4.661   3.324 -0.7787  0.2489  0.3949
  382MOL0     C52620   5.468   4.564   3.264 -0.3067  0.0441 -0.1765
  382MOL0     C52621   5.610   4.615   3.255 -0.1713  0.0781  0.1942
  382MOL0     C52622   5.732   4.510   3.220  1.2794  0.3145  0.5399
  382MOL0    Cl52623   5.712   4.432   3.064  0.1341  0.0858  0.3081
  382MOL0     C52624   4.701   4.546   3.161  0.3143  0.3370 -0.5407
  382MOL0     C52625   4.594   4.532   3.065  0.8139 -0.8666 -0.2928
  382MOL0     O52626   4.185   4.592   3.156  0.1738 -0.3394  0.2353
  382MOL0     C52627   4.021   4.607   2.932  1.2043  0.9481  0.2367
  382MOL0     C52628   3.927   4.596   2.829  0.0726 -0.3267  0.9583
  382MOL0     N52629   3.440   4.335   2.381  0.1183  0.0995  0.5993
  382MOL0     N52630   3.422   4.205   2.379 -0.1121 -0.3029  0.2134
  382MOL0     C52631   4.463   4.352   2.265  0.1546 -0.4232 -0.5007
  382MOL0     C52632   4.543   4.438   2.188  0.0988 -0.1721 -0.4500
  382MOL0     C52633   4.682   4.717   1.872 -0.4919  0.9408 -0.1937
  382MOL0     C52634   4.826   4.698   1.858 -0.1874  0.5071 -0.5293
  382MOL0     C52635   4.906   4.776   1.771 -0.2104 -0.0250 -0.9089
  382MOL0     C52636   4.848   4.889   1.710 -0.3024  0.8116  0.3457
  382MOL0     O52637   4.929   4.972   1.634 -0.3563 -0.3421  0.6182
  382MOL0     C52638   5.003   5.071   1.705  0.4180  0.3220  1.3277
  382MOL0     C52639   4.927   5.193   1.742  0.3373  0.2732  0.6925
  382MOL0     C52640   5.009   5.295   1.818  0.0291 -0.4980 -0.5048
  382MOL0     C52641   4.928   5.412   1.882 -0.5269  0.5519 -0.7205
  382MOL0     C52642   5.000   5.538   1.918 -0.5116  0.4629 -0.4320
  382MOL0     C52643   5.062   5.641   1.929 -0.2184  0.0157  0.1529
  382MOL0     C52644   4.710   4.906   1.719 -0.3319  0.8857  0.6293
  382MOL0     C52645   4.629   4.820   1.796  0.1589  0.5459 -0.0765
  382MOL0     C52646   4.475   4.851   1.788 -0.3873 -0.6130 -0.0385
  382MOL0     H52647   4.492   4.285   1.884 -1.1510  0.6016 -0.4523
  382MOL0     H52648   4.367   4.140   2.014  3.3413 -2.9574 -1.2719
  382MOL0     H52649   4.133   4.228   2.245  0.4602  1.1894 -0.0258
  382MOL0     H52650   4.210   4.312   2.385  0.4990  0.0428 -0.5492
  382MOL0     H52651   4.216   4.069   2.476 -1.1176 -0.7410  1.2690
  382MOL0     H52652   4.069   4.175   2.493 -0.7559  1.5018 -1.4121
  382MOL0     H52653   4.084   3.997   2.246 -1.8623  1.9553 -1.1858
  382MOL0     H52654   4.101   3.910   2.399 -0.0985  1.2844  3.3320
  382MOL0     H52655   3.883   4.016   2.471 -0.2414  1.9492 -0.2450
  382MOL0     H52656   3.860   4.074   2.312  1.0150 -0.2898 -2.7239
  382MOL0     H52657   3.910   3.781   2.335 -0.0906 -1.6465 -1.1438
  382MOL0     H52658   3.832   3.870   2.213  2.8264 -0.1480 -0.3475
  382MOL0     H52659   3.646   3.766   2.311  1.7138 -0.9314  0.1567
  382MOL0     H52660   3.713   3.787   2.472 -0.9580  1.1211  1.7662
  382MOL0     H52661   3.652   4.025   2.461 -1.9655  4.0480 -2.5896
  382MOL0     H52662   3.521   3.916   2.474  0.7842 -0.1279  0.9370
  382MOL0     H52663   3.638   4.009   2.213 -0.5834 -0.9108 -0.0469
  382MOL0     H52664   3.460   3.963   2.235 -0.8990  2.9489 -0.8462
  382MOL0     H52665   3.662   4.247   2.169 -0.0839  0.7233 -0.3898
  382MOL0     H52666   3.510   4.572   2.274  0.3004 -0.0268 -0.3834
  382MOL0     H52667   3.658   4.523   2.187 -0.5943 -1.5136 -0.8362
  382MOL0     H52668   3.710   4.656   2.393 -0.6148  0.1388  1.8159
  382MOL0     H52669   3.636   4.527   2.493  0.0167 -0.0793 -0.0400
  382MOL0     H52670   3.814   4.357   2.429  1.6374 -0.4954 -0.8432
  382MOL0     H52671   3.876   4.473   2.307  3.5299 -0.3862  0.6262
  382MOL0     H52672   4.021   4.432   2.499 -1.2981 -1.8448 -1.7933
  382MOL0     H52673   3.960   4.611   2.485 -1.7371 -0.1628 -0.8987
  382MOL0     H52674   4.055   4.316   2.673 -1.5874  0.5039 -0.8944
  382MOL0     H52675   4.201   4.214   2.827 -1.6897 -0.1995 -0.3544
  382MOL0     H52676   4.254   4.281   2.975 -0.2233 -2.1664 -1.1393
  382MOL0     H52677   4.332   4.330   2.815 -1.1152  1.2690 -0.5915
  382MOL0     H52678   4.347   4.560   3.316  2.2752  1.0024  4.1461
  382MOL0     H52679   4.547   4.591   3.449  2.0200 -1.7407  0.6807
  382MOL0     H52680   4.961   4.526   3.296  0.8443  0.2565  1.3938
  382MOL0     H52681   4.919   4.696   3.278 -0.0430  1.4437  2.5673
  382MOL0     H52682   4.960   4.714   3.530  0.7551  2.2117 -1.5421
  382MOL0     H52683   5.023   4.556   3.523 -1.8086 -0.6835  0.7267
  382MOL0     H52684   5.209   4.759   3.486  1.9365 -0.2711 -1.1278
  382MOL0     H52685   5.122   4.772   3.329 -1.9136  1.1745  1.0010
  382MOL0     H52686   5.185   4.543   3.274 -1.6471  3.0379 -1.4436
  382MOL0     H52687   5.240   4.523   3.437 -0.8557  0.0856  0.3983
  382MOL0     H52688   5.366   4.753   3.266 -0.3787  0.2993  0.4266
  382MOL0     H52689   5.417   4.688   3.420  0.1314  1.3091 -0.3037
  382MOL0     H52690   5.427   4.537   3.166 -1.3250 -0.0350  0.2653
  382MOL0     H52691   5.475   4.478   3.332  2.4465  1.5675  1.6606
  382MOL0     H52692   5.638   4.649   3.355 -1.2752  1.1000  0.1827
  382MOL0     H52693   5.623   4.697   3.184  1.1124 -0.5695 -0.3405
  382MOL0     H52694   5.750   4.438   3.300  0.2364  1.1700  1.5926
  382MOL0     H52695   5.818   4.576   3.205  3.1496 -2.6410 -3.8272
  382MOL0     H52696   4.801   4.550   3.121  0.7758  2.1251  0.6786
  382MOL0     H52697   4.602   4.515   2.958  1.5284  0.5544 -0.4880
  382MOL0     H52698   4.000   4.681   3.008 -0.7351  0.9657 -0.2813
  382MOL0     H52699   3.847   4.669   2.821  0.1548 -0.4197 -5.1755
  382MOL0     H52700   4.444   4.354   2.372  0.3217 -1.5863 -0.4360
  382MOL0     H52701   4.596   4.526   2.223  0.0957 -0.0817 -0.6758
  382MOL0     H52702   4.864   4.612   1.912  0.6436  0.3547 -1.3324
  382MOL0     H52703   5.008   4.754   1.738  0.2576  1.3978 -0.4929
  382MOL0     H52704   5.041   5.025   1.797  1.2197 -0.0594  0.8191
  382MOL0     H52705   5.097   5.099   1.657 -0.5743  1.8441  0.2143
  382MOL0     H52706   4.831   5.174   1.791 -0.1965  1.0568 -0.0074
  382MOL0     H52707   4.891   5.250   1.656  0.2267 -0.7188  0.0629
  382MOL0     H52708   5.064   5.249   1.901 -1.1894 -1.3051 -0.1031
  382MOL0     H52709   5.085   5.344   1.756 -0.5963  1.5676  0.2772
  382MOL0     H52710   4.891   5.368   1.976  2.3048 -1.7602 -0.5262
  382MOL0     H52711   4.839   5.435   1.823 -0.5501  0.2591 -0.8054
  382MOL0     H52712   5.111   5.735   1.936 -0.3876  0.1776 -0.7181
  382MOL0     H52713   4.676   4.998   1.673 -0.7385 -0.2519 -1.5225
  382MOL0     H52714   4.460   4.842   1.680  4.0211  0.3406 -0.9390
  382MOL0     H52715   4.421   4.772   1.841  1.2579 -1.4727  0.4483
  382MOL0     H52716   4.443   4.950   1.823 -1.7054 -0.3318 -1.9315
  383MOL0     O52717   4.739   6.339   7.291  0.1349  0.4485 -0.5329
  383MOL0     C52718   4.695   6.335   7.407 -0.2641  0.1064 -0.0103
  383MOL0     O52719   4.723   6.432   7.500  0.2137  0.0623 -0.1919
  383MOL0     C52720   4.805   6.537   7.450 -0.2194 -0.0195  0.1075
  383MOL0     C52721   4.936   6.547   7.465 -0.0563  0.5444 -0.0701
  383MOL0     C52722   5.011   6.649   7.410 -0.3995 -1.1765 -1.4402
  383MOL0     C52723   4.945   6.766   7.357  0.2711 -0.1535 -0.1349
  383MOL0     O52724   5.021   6.876   7.332 -0.2837 -0.5486  0.1193
  383MOL0     C52725   4.958   7.004   7.311 -0.4281  0.3900 -0.5482
  383MOL0     C52726   5.059   7.105   7.266  0.4582  0.2257 -0.1708
  383MOL0     C52727   5.146   7.146   7.380 -0.1190  0.6871 -0.1438
  383MOL0     C52728   5.280   7.223   7.349  0.2592  0.4154 -0.1843
  383MOL0     C52729   5.259   7.362   7.296 -1.2090  0.4011 -0.9615
  383MOL0     C52730   5.388   7.447   7.271 -0.1053  0.1379  0.5717
  383MOL0     C52731   5.490   7.457   7.382  0.8950  0.6991  0.4569
  383MOL0     C52732   5.570   7.596   7.381  0.2731 -0.6878  1.0800
  383MOL0     N52733   5.669   7.586   7.273 -0.0280 -0.7719 -1.0911
  383MOL0     C52734   5.640   7.591   7.140  0.1163  0.6303 -0.2203
  383MOL0     C52735   5.754   7.559   7.077  0.5033 -1.3224  0.3438
  383MOL0     C52736   5.761   7.556   6.930 -0.3031 -0.4272  0.7451
  383MOL0     C52737   5.908   7.527   6.888  0.1300 -0.0406  0.3311
  383MOL0     C52738   5.909   7.535   6.735 -0.4123  0.0184 -1.3295
  383MOL0     C52739   6.048   7.493   6.683 -0.1403 -0.4845 -0.6107
  383MOL0     O52740   6.029   7.454   6.551 -1.0167 -0.5099  0.9345
  383MOL0     C52741   6.138   7.394   6.489  0.2857  0.5423 -0.2958
  383MOL0     C52742   6.269   7.428   6.522 -0.6501  0.0424  0.1492
  383MOL0     C52743   6.373   7.357   6.463 -0.1869  0.0570  0.0530
  383MOL0     C52744   6.507   7.424   6.499 -0.2773  0.9811  0.4166
  383MOL0     C52745   6.345   7.256   6.372 -0.1803  0.6635 -0.2521
  383MOL0     C52746   6.455   7.157   6.319 -0.1035  0.7092 -0.3218
  383MOL0     O52747   6.572   7.149   6.385 -0.2895 -0.0985 -0.2065
  383MOL0     C52748   6.644   7.031   6.372 -0.7019  0.1826  0.3154
  383MOL0     C52749   6.594   6.896   6.370 -0.4906  0.1259  0.0356
  383MOL0     C52750   6.671   6.786   6.355  0.5488 -0.3710  0.2885
  383MOL0     C52751   6.805   6.804   6.322  0.4683 -0.7302 -0.5882
  383MOL0     O52752   6.873   6.689   6.303 -0.3763  0.3896 -0.2987
  383MOL0     C52753   6.895   6.604   6.418  0.7938  0.6853  0.2502
  383MOL0     C52754   6.954   6.686   6.537  0.9066  0.0429  1.3026
  383MOL0     C52755   7.093   6.735   6.503  0.3378 -0.0340  0.1283
  383MOL0     C52756   7.165   6.812   6.621  0.0697  0.3988  0.1085
  383MOL0     C52757   7.294   6.882   6.575 -0.2992  0.8638  0.2740
  383MOL0     C52758   7.404   6.774   6.565 -0.2331 -0.3122  0.3080
  383MOL0     C52759   7.518   6.809   6.670 -0.8859  0.1025  0.5231
  383MOL0     C52760   7.625   6.695   6.681  0.1593 -0.0970  0.0571
  383MOL0    Cl52761   7.686   6.672   6.518 -0.0726 -0.0634  0.3279
  383MOL0     C52762   6.857   6.931   6.318 -0.1348  0.0884  0.3976
  383MOL0     C52763   6.784   7.045   6.345 -0.3751 -0.3932 -1.2443
  383MOL0     O52764   6.416   7.081   6.230 -0.8621  0.8420 -0.5947
  383MOL0     C52765   6.208   7.231   6.337 -0.1675  1.3665  0.7104
  383MOL0     C52766   6.111   7.291   6.398  0.1512 -0.1106  0.5553
  383MOL0     N52767   5.855   7.543   7.174 -0.1747  0.0587 -0.2851
  383MOL0     N52768   5.800   7.549   7.292 -0.1485  0.1887  0.4053
  383MOL0     C52769   4.811   6.758   7.345 -0.4561  0.0820 -0.5879
  383MOL0     C52770   4.737   6.643   7.391 -0.0079 -1.2750  0.6837
  383MOL0     C52771   4.640   6.210   7.470 -0.4239  0.2518  0.6024
  383MOL0     C52772   4.633   6.190   7.610 -0.6974  0.2714  0.2813
  383MOL0     C52773   4.550   6.092   7.663  0.8287  0.7473 -0.1138
  383MOL0     C52774   4.472   6.017   7.581  0.2888  0.4304 -0.2896
  383MOL0     O52775   4.361   5.951   7.618 -0.2524  0.5474  0.3436
  383MOL0     C52776   4.319   5.954   7.751  0.3994  0.0030 -0.9842
  383MOL0     C52777   4.396   5.843   7.820 -0.1382  0.4252 -0.2128
  383MOL0     C52778   4.369   5.843   7.971 -0.0293  0.1317 -0.5761
  383MOL0     C52779   4.450   5.729   8.033  0.2745 -0.2346 -1.3645
  383MOL0     C52780   4.591   5.758   8.055  1.7479 -0.2486  0.6599
  383MOL0     C52781   4.705   5.778   8.072 -0.4772  0.3279 -0.6128
  383MOL0     C52782   4.509   6.006   7.445  0.3499  0.5385 -0.5418
  383MOL0     C52783   4.592   6.101   7.383  0.0864 -0.3112 -0.1027
  383MOL0     C52784   4.609   6.093   7.230  1.1733 -0.3554  1.2800
  383MOL0     H52785   4.988   6.459   7.503 -1.0194 -0.4334 -0.9580
  383MOL0     H52786   5.117   6.663   7.429 -1.0717 -0.3285  2.4254
  383MOL0     H52787   4.925   7.025   7.413 -0.6955 -3.0882  0.1798
  383MOL0     H52788   4.872   7.007   7.243  0.0207 -3.0653 -1.4527
  383MOL0     H52789   5.107   7.075   7.172 -1.8166 -3.5357 -0.3409
  383MOL0     H52790   4.994   7.187   7.235 -3.5087 -3.1099 -1.6920
  383MOL0     H52791   5.083   7.201   7.451  0.1898  0.0248  0.6670
  383MOL0     H52792   5.176   7.058   7.438  0.5211  1.0150  0.0414
  383MOL0     H52793   5.343   7.229   7.438  3.2685 -2.3064 -1.8927
  383MOL0     H52794   5.346   7.169   7.281 -0.8508 -0.8201 -0.3116
  383MOL0     H52795   5.204   7.415   7.374  1.1071 -0.2008  1.1924
  383MOL0     H52796   5.211   7.365   7.198 -1.3284  1.2480 -0.8849
  383MOL0     H52797   5.446   7.412   7.185  0.7195  1.0646  0.7310
  383MOL0     H52798   5.346   7.542   7.239 -0.9993 -0.9111 -1.5163
  383MOL0     H52799   5.570   7.382   7.391 -0.1026 -0.5627 -0.7554
  383MOL0     H52800   5.432   7.462   7.475  0.8040  2.0700  0.3488
  383MOL0     H52801   5.506   7.681   7.356  1.7431 -0.3275 -1.7491
  383MOL0     H52802   5.613   7.618   7.479  0.8404 -0.3439  0.7536
  383MOL0     H52803   5.550   7.616   7.085  0.0950 -0.6495 -0.7904
  383MOL0     H52804   5.729   7.650   6.884  2.6589  0.5010  0.3180
  383MOL0     H52805   5.703   7.469   6.901 -0.9900 -0.2631  1.5814
  383MOL0     H52806   5.966   7.614   6.919  1.7308 -0.1304 -2.1366
  383MOL0     H52807   5.941   7.427   6.919  1.4246  0.6830  1.3188
  383MOL0     H52808   5.847   7.461   6.684  2.4197 -2.5185 -1.3594
  383MOL0     H52809   5.880   7.637   6.707 -5.4618 -0.5600  0.7841
  383MOL0     H52810   6.113   7.581   6.684 -1.0206  0.2028 -1.4847
  383MOL0     H52811   6.095   7.427   6.757  2.1038  2.9354  1.3310
  383MOL0     H52812   6.291   7.516   6.581  3.0119 -0.3158 -0.4666
  383MOL0     H52813   6.507   7.533   6.493 -2.1957  1.3413  4.0650
  383MOL0     H52814   6.595   7.386   6.447 -0.5687 -1.0925  1.3325
  383MOL0     H52815   6.531   7.414   6.605  0.4128  2.7821  0.4744
  383MOL0     H52816   6.491   6.884   6.405 -0.8352  5.4136  1.7165
  383MOL0     H52817   6.634   6.684   6.355 -1.6497  0.3641  1.3198
  383MOL0     H52818   6.794   6.564   6.433  0.2613 -0.3932 -4.4730
  383MOL0     H52819   6.949   6.512   6.396 -0.6573  0.0158 -0.7324
  383MOL0     H52820   6.886   6.767   6.565  0.4805 -0.1163  0.7444
  383MOL0     H52821   6.961   6.632   6.632 -0.9983  1.4902  2.3496
  383MOL0     H52822   7.099   6.803   6.417  0.9461 -0.6343 -0.3088
  383MOL0     H52823   7.154   6.646   6.487  3.0649  1.0436  3.2957
  383MOL0     H52824   7.184   6.752   6.711 -1.8040  0.6875  0.7478
  383MOL0     H52825   7.099   6.892   6.656  1.4052  1.0195  1.3155
  383MOL0     H52826   7.270   6.936   6.483  0.2335 -1.8216 -1.5465
  383MOL0     H52827   7.320   6.954   6.653 -0.0016  0.0094  0.9842
  383MOL0     H52828   7.434   6.783   6.460  0.2030  2.1629  0.5835
  383MOL0     H52829   7.373   6.671   6.583 -1.4850  0.0727  0.3964
  383MOL0     H52830   7.481   6.831   6.770  3.3841 -1.1641  2.6387
  383MOL0     H52831   7.568   6.899   6.630  1.9562 -0.7509  1.8678
  383MOL0     H52832   7.570   6.610   6.723 -1.4525  2.1456  2.8083
  383MOL0     H52833   7.700   6.729   6.753 -1.2228  2.5288  0.3896
  383MOL0     H52834   6.965   6.940   6.315  0.0918 -1.1374  2.4954
  383MOL0     H52835   6.837   7.138   6.336  0.9431 -0.7996  1.3902
  383MOL0     H52836   6.173   7.151   6.272  3.1342  0.0422  0.3655
  383MOL0     H52837   6.008   7.276   6.366  1.3013 -3.6451 -2.2106
  383MOL0     H52838   4.749   6.819   7.280 -0.1127 -0.0878 -1.0787
  383MOL0     H52839   4.632   6.628   7.370  0.0451 -0.9545  0.1611
  383MOL0     H52840   4.661   6.271   7.676 -0.1765  0.4344 -0.1285
  383MOL0     H52841   4.540   6.082   7.770  1.8916 -0.9421 -0.1327
  383MOL0     H52842   4.346   6.047   7.803  1.4000 -2.4289  3.3541
  383MOL0     H52843   4.213   5.946   7.778  0.8746 -0.3946  0.9578
  383MOL0     H52844   4.502   5.854   7.792 -0.2862  2.9927 -0.0460
  383MOL0     H52845   4.349   5.755   7.776 -1.4250  1.2447 -0.5063
  383MOL0     H52846   4.401   5.939   8.013  2.7271 -0.4447 -1.1320
  383MOL0     H52847   4.265   5.815   7.986  0.6432 -1.2041  2.2250
  383MOL0     H52848   4.431   5.630   7.988 -0.9997 -0.7352  0.1940
  383MOL0     H52849   4.411   5.711   8.133 -1.5485 -0.8716 -2.1326
  383MOL0     H52850   4.811   5.786   8.085 -0.5719  1.7114 -0.5784
  383MOL0     H52851   4.436   5.951   7.387 -1.1639  1.9605 -0.0660
  383MOL0     H52852   4.708   6.063   7.194  1.2525  0.1887  1.0431
  383MOL0     H52853   4.536   6.026   7.183 -0.4554  2.6606 -0.8704
  383MOL0     H52854   4.580   6.183   7.175 -1.0394 -2.2387 -0.8846
  384MOL0     O52855   8.444   1.431   4.005 -0.0083  0.1868 -0.3280
  384MOL0     C52856   8.498   1.322   3.990  0.2529 -0.6109  0.7824
  384MOL0     O52857   8.459   1.202   4.030  0.4419  0.5595 -0.1068
  384MOL0     C52858   8.382   1.187   4.138  1.3126  0.5810 -1.0706
  384MOL0     C52859   8.376   1.274   4.249 -0.3081  0.4693 -0.0199
  384MOL0     C52860   8.288   1.243   4.360 -0.8019  0.0787 -0.7251
  384MOL0     C52861   8.191   1.135   4.362 -0.6676 -0.4013  0.3412
  384MOL0     O52862   8.095   1.110   4.464 -0.8673  0.3388  0.2648
  384MOL0     C52863   8.012   1.214   4.505  0.0804  0.3168 -0.9088
  384MOL0     C52864   7.911   1.127   4.585 -0.6625 -0.6578 -0.6100
  384MOL0     C52865   7.784   1.208   4.608  0.8142  0.4400 -0.3934
  384MOL0     C52866   7.683   1.162   4.506 -0.2276  0.3864  0.2340
  384MOL0     C52867   7.557   1.241   4.508  0.6542 -1.0988  0.4844
  384MOL0     C52868   7.469   1.209   4.389  0.6323  0.8265  0.6918
  384MOL0     C52869   7.439   1.061   4.362 -0.5368 -0.4888  0.4421
  384MOL0     C52870   7.529   0.990   4.258  0.6952 -0.7826 -0.4633
  384MOL0     N52871   7.490   1.033   4.127  0.8527  0.0049  0.5493
  384MOL0     C52872   7.423   0.972   4.033 -0.3905  0.5369  0.0203
  384MOL0     C52873   7.433   1.036   3.917 -0.1386 -1.0557  0.4249
  384MOL0     C52874   7.377   1.003   3.788 -0.1122 -0.4319  0.1306
  384MOL0     C52875   7.386   1.110   3.670  0.4278 -0.9188 -0.4741
  384MOL0     C52876   7.317   1.067   3.535 -0.6676  0.2343 -0.0657
  384MOL0     C52877   7.167   1.066   3.547  0.4770 -0.0173 -0.0347
  384MOL0     O52878   7.100   0.951   3.517 -0.4113  0.2023 -0.4727
  384MOL0     C52879   6.981   0.917   3.575 -0.2990 -0.0996  0.1934
  384MOL0     C52880   6.963   0.778   3.589  0.5132 -0.4548  0.3498
  384MOL0     C52881   6.836   0.733   3.623  0.1812  1.0047 -0.3532
  384MOL0     C52882   6.807   0.583   3.611 -0.4237  0.3940  0.3562
  384MOL0     C52883   6.736   0.825   3.655  0.3475  0.5504 -0.3154
  384MOL0     C52884   6.598   0.783   3.682  0.0315 -0.5567 -1.2346
  384MOL0     O52885   6.497   0.842   3.611  0.1324 -0.4503  0.0602
  384MOL0     C52886   6.367   0.810   3.643 -0.6625  0.3136  0.0250
  384MOL0     C52887   6.327   0.842   3.777 -0.4727  0.4116 -1.1677
  384MOL0     C52888   6.196   0.821   3.818  0.1273 -0.5592  0.0506
  384MOL0     C52889   6.104   0.784   3.723  1.2226  0.5098  0.0628
  384MOL0     O52890   5.976   0.767   3.775  1.0204 -0.1992 -0.1368
  384MOL0     C52891   5.878   0.704   3.690 -1.0087 -0.2523 -0.1990
  384MOL0     C52892   5.741   0.701   3.753  0.0529  0.2031 -0.2571
  384MOL0     C52893   5.725   0.593   3.865  0.0846 -0.7791 -0.4289
  384MOL0     C52894   5.581   0.591   3.922  0.2202  0.5414 -0.5742
  384MOL0     C52895   5.551   0.698   4.022  0.5338  0.4245 -0.0203
  384MOL0     C52896   5.410   0.700   4.078  0.0572 -0.0405 -0.9339
  384MOL0     C52897   5.287   0.657   3.996 -0.9191  0.8798  0.5646
  384MOL0     C52898   5.238   0.770   3.906  0.9344  0.3418 -0.3531
  384MOL0    Cl52899   5.355   0.801   3.767  0.1187  0.0845  0.3647
  384MOL0     C52900   6.135   0.765   3.594 -0.1527 -0.1706 -0.4560
  384MOL0     C52901   6.270   0.770   3.548  0.6357  0.3342  0.8802
  384MOL0     O52902   6.588   0.696   3.765  0.2978  0.2344  0.3969
  384MOL0     C52903   6.761   0.959   3.657  0.3611  0.5347  0.0769
  384MOL0     C52904   6.880   1.009   3.605  0.8043 -0.9834  0.7557
  384MOL0     N52905   7.498   1.149   3.947 -0.2506 -0.4768 -0.8351
  384MOL0     N52906   7.553   1.141   4.060 -0.2166 -0.1899 -0.3925
  384MOL0     C52907   8.215   1.045   4.262 -0.2475 -0.2116 -0.0294
  384MOL0     C52908   8.303   1.066   4.154 -0.6796  0.3979  0.4786
  384MOL0     C52909   8.604   1.316   3.889 -0.6110  0.4452 -0.4398
  384MOL0     C52910   8.594   1.217   3.790 -0.5059 -0.1018  0.8006
  384MOL0     C52911   8.694   1.211   3.695  0.1751 -0.2143  0.1245
  384MOL0     C52912   8.805   1.301   3.691 -0.7621  0.8420  0.3705
  384MOL0     O52913   8.918   1.271   3.617 -0.2887  0.0836  0.2213
  384MOL0     C52914   8.910   1.150   3.539 -0.2486 -0.0546 -0.1320
  384MOL0     C52915   9.040   1.143   3.458  0.8360  0.0574 -0.0919
  384MOL0     C52916   9.091   1.279   3.400 -0.1728 -0.6927  0.3977
  384MOL0     C52917   9.139   1.262   3.251  0.4722 -1.0988  0.4616
  384MOL0     C52918   9.193   1.388   3.193 -0.1291  0.3452 -0.1317
  384MOL0     C52919   9.241   1.497   3.172  0.0082 -0.1754  0.5376
  384MOL0     C52920   8.807   1.397   3.792  0.0342  0.6585 -0.0918
  384MOL0     C52921   8.708   1.408   3.885 -0.1802  0.0704  0.0680
  384MOL0     C52922   8.718   1.516   3.988 -0.1710  0.3716 -0.0281
  384MOL0     H52923   8.442   1.359   4.262  1.0786 -0.7575  1.4208
  384MOL0     H52924   8.277   1.319   4.438  0.1670 -1.2523  0.7745
  384MOL0     H52925   7.965   1.266   4.421 -0.4338 -2.5054 -2.4786
  384MOL0     H52926   8.057   1.283   4.578 -1.7105 -0.8576  1.4758
  384MOL0     H52927   7.884   1.041   4.522 -1.6541  0.6605 -2.0628
  384MOL0     H52928   7.953   1.095   4.681 -3.0402 -0.1602  0.6718
  384MOL0     H52929   7.740   1.191   4.707  0.5678 -3.3263 -1.0053
  384MOL0     H52930   7.798   1.316   4.599  0.2276  0.5044 -0.5564
  384MOL0     H52931   7.725   1.184   4.407 -2.9575  1.8621 -0.7133
  384MOL0     H52932   7.656   1.058   4.525  0.4205  0.5550  2.2463
  384MOL0     H52933   7.573   1.349   4.505 -1.8044 -0.6952 -0.2283
  384MOL0     H52934   7.514   1.218   4.606  0.1583  0.8567  0.7665
  384MOL0     H52935   7.373   1.258   4.410  1.3183  1.8278  1.5791
  384MOL0     H52936   7.501   1.260   4.297 -2.4251  0.2867 -0.8326
  384MOL0     H52937   7.335   1.060   4.329 -0.1318 -1.4368 -0.9235
  384MOL0     H52938   7.438   0.997   4.451 -0.1716 -0.9961  0.0872
  384MOL0     H52939   7.634   1.019   4.260 -0.0075  2.0821 -1.1383
  384MOL0     H52940   7.535   0.881   4.267  1.5736 -0.6524  0.7495
  384MOL0     H52941   7.370   0.879   4.054 -0.3420  0.4473 -0.2445
  384MOL0     H52942   7.272   0.980   3.809 -0.3417  1.6192  1.5704
  384MOL0     H52943   7.425   0.910   3.758  0.6533 -0.7607  2.1893
  384MOL0     H52944   7.329   1.201   3.688  0.2112 -0.1764 -4.1521
  384MOL0     H52945   7.490   1.134   3.646 -0.4963  2.4202 -1.6292
  384MOL0     H52946   7.351   1.133   3.455  0.5831 -2.1176 -1.5778
  384MOL0     H52947   7.349   0.965   3.512  2.3328  1.1363 -0.2620
  384MOL0     H52948   7.134   1.095   3.648 -1.6454  2.0357 -1.2102
  384MOL0     H52949   7.126   1.140   3.477 -1.6300 -1.3922 -0.3274
  384MOL0     H52950   7.041   0.710   3.556 -1.9793 -2.6896 -1.2961
  384MOL0     H52951   6.785   0.541   3.710 -0.2246  1.0448  0.6839
  384MOL0     H52952   6.898   0.528   3.584 -1.9131 -3.3529  2.2228
  384MOL0     H52953   6.733   0.548   3.539  1.9565 -2.8651 -0.7580
  384MOL0     H52954   6.396   0.880   3.852 -2.9383  2.8875  0.0316
  384MOL0     H52955   6.171   0.852   3.919  1.1833 -0.4531  0.2915
  384MOL0     H52956   5.868   0.760   3.596  0.7667 -3.6972 -2.6749
  384MOL0     H52957   5.906   0.601   3.666 -1.5132 -0.7301  1.1876
  384MOL0     H52958   5.733   0.794   3.811 -0.3120 -0.1819  0.3242
  384MOL0     H52959   5.660   0.698   3.680  0.1784 -2.7580 -0.4068
  384MOL0     H52960   5.799   0.602   3.946 -0.0405  1.7811 -0.5069
  384MOL0     H52961   5.735   0.500   3.808  0.2999 -0.1378 -1.4508
  384MOL0     H52962   5.576   0.491   3.967 -7.3472  0.4008 -0.4209
  384MOL0     H52963   5.505   0.584   3.844  0.2746 -2.4628 -0.4824
  384MOL0     H52964   5.621   0.705   4.106 -2.2865  1.4597  2.4123
  384MOL0     H52965   5.563   0.797   3.977 -3.2047  0.5702 -1.0153
  384MOL0     H52966   5.391   0.797   4.125  0.5612  1.2084 -3.1627
  384MOL0     H52967   5.419   0.633   4.164 -1.3115 -1.1918 -1.6425
  384MOL0     H52968   5.214   0.615   4.066 -0.1794  1.8075  1.9290
  384MOL0     H52969   5.308   0.580   3.921  0.2280  1.0340  0.7162
  384MOL0     H52970   5.229   0.859   3.969 -0.9921 -1.4214  2.0565
  384MOL0     H52971   5.135   0.746   3.877  0.8563 -1.0517  0.9505
  384MOL0     H52972   6.052   0.754   3.524 -1.1601 -1.0596  0.8451
  384MOL0     H52973   6.295   0.749   3.445 -1.8357  0.1810  0.2373
  384MOL0     H52974   6.687   1.030   3.692 -0.7533 -0.5607  0.0392
  384MOL0     H52975   6.893   1.115   3.588 -1.7914 -1.0165 -2.3804
  384MOL0     H52976   8.166   0.951   4.283 -1.2782  0.8085  2.5289
  384MOL0     H52977   8.309   0.981   4.086  0.0983 -0.1963  1.2672
  384MOL0     H52978   8.511   1.148   3.799 -0.7394 -0.3130 -2.0008
  384MOL0     H52979   8.680   1.120   3.636  0.1393  0.6467 -1.2299
  384MOL0     H52980   8.898   1.068   3.610 -0.2136 -0.4492 -0.5762
  384MOL0     H52981   8.833   1.156   3.461  1.0508  1.3051 -1.3792
  384MOL0     H52982   9.035   1.063   3.384  0.1544 -0.4968  0.5339
  384MOL0     H52983   9.106   1.100   3.534 -1.5642 -1.1432  1.4566
  384MOL0     H52984   9.008   1.350   3.406  0.9584  0.7017  0.0531
  384MOL0     H52985   9.169   1.310   3.470  2.2832 -3.0176 -1.1415
  384MOL0     H52986   9.060   1.228   3.183 -0.6326  3.3624 -0.8389
  384MOL0     H52987   9.219   1.188   3.246 -1.2834 -3.0140 -1.8033
  384MOL0     H52988   9.292   1.584   3.137  0.0640  0.6173  2.4977
  384MOL0     H52989   8.893   1.460   3.812 -0.6527  1.0306  1.9273
  384MOL0     H52990   8.728   1.486   4.093 -0.7354 -1.8063 -0.5486
  384MOL0     H52991   8.804   1.583   3.977  1.0399 -0.8500  1.5361
  384MOL0     H52992   8.628   1.577   3.975 -0.2936  0.3608  0.7317
  385MOL0     O52993   4.934   9.857   8.918 -0.4693  0.1646  0.6027
  385MOL0     C52994   4.875   9.816   8.815  0.2665 -0.6838 -0.2280
  385MOL0     O52995   4.930   9.817   8.688  0.2142  0.1857 -0.2146
  385MOL0     C52996   5.065   9.856   8.670  0.1225 -0.2464  0.3878
  385MOL0     C52997   5.115   9.980   8.710  0.7961  0.7473  0.8065
  385MOL0     C52998   5.239  10.015   8.673 -0.8946 -0.2118  0.4827
  385MOL0     C52999   5.324   9.922   8.600  0.0813  0.4868  0.3622
  385MOL0     O53000   5.447   9.938   8.550 -0.1711  0.3440  0.1747
  385MOL0     C53001   5.508  10.066   8.541  1.0295  0.6111  0.3652
  385MOL0     C53002   5.586  10.091   8.668 -0.8814  0.3541  0.0130
  385MOL0     C53003   5.625  10.234   8.707  0.6408  0.8458  0.0700
  385MOL0     C53004   5.717  10.224   8.831 -0.4478  0.0394 -0.2288
  385MOL0     C53005   5.826  10.333   8.838 -0.1726  0.2723  0.1180
  385MOL0     C53006   5.788  10.466   8.891  0.3623 -1.8430 -0.1544
  385MOL0     C53007   5.701  10.565   8.816 -0.4429 -0.0607 -0.2039
  385MOL0     C53008   5.780  10.631   8.708  0.2778 -0.3560  0.5019
  385MOL0     N53009   5.860  10.747   8.755 -0.0639 -0.3879 -0.8615
  385MOL0     C53010   5.807  10.873   8.759  0.0879 -0.6097  0.4348
  385MOL0     C53011   5.907  10.954   8.807 -0.8421 -0.0999 -0.1906
  385MOL0     C53012   5.923  11.102   8.794  0.5590  1.5218 -0.7178
  385MOL0     C53013   5.973  11.141   8.658  0.0936  0.4052  0.0361
  385MOL0     C53014   6.005  11.291   8.661 -0.1251  0.3018  0.1505
  385MOL0     C53015   5.881  11.386   8.662 -0.9094 -0.0837 -0.4499
  385MOL0     O53016   5.799  11.355   8.549 -0.5857 -0.1001  0.1648
  385MOL0     C53017   5.805  11.462   8.454 -0.9041  0.6540  1.0475
  385MOL0     C53018   5.730  11.578   8.467 -0.6719  0.0930  0.2403
  385MOL0     C53019   5.735  11.680   8.376  0.5191 -0.5942 -0.2975
  385MOL0     C53020   5.646  11.798   8.407 -0.2801  0.1032  0.1580
  385MOL0     C53021   5.803  11.667   8.250  0.1807  0.5688 -0.0675
  385MOL0     C53022   5.804  11.755   8.128  0.3185  0.3703 -0.0249
  385MOL0     O53023   5.850  11.697   8.009  0.0423 -0.4370  0.7075
  385MOL0     C53024   5.824  11.750   7.888  0.0915 -0.4073 -0.3465
  385MOL0     C53025   5.699  11.812   7.856 -0.0539  0.3265  0.1750
  385MOL0     C53026   5.674  11.860   7.727  0.0568 -0.9949 -0.1821
  385MOL0     C53027   5.777  11.860   7.633 -0.1283  0.0354 -0.0634
  385MOL0     O53028   5.743  11.914   7.515 -0.1334 -1.0125 -0.3657
  385MOL0     C53029   5.812  11.865   7.394 -0.2535 -0.5923 -0.4348
  385MOL0     C53030   5.746  11.914   7.271  0.0889  0.2131 -0.0475
  385MOL0     C53031   5.595  11.891   7.263 -0.0241  0.2073 -0.2340
  385MOL0     C53032   5.550  11.971   7.136  0.2935 -1.1886  0.1941
  385MOL0     C53033   5.410  11.946   7.079 -0.6082  0.6382 -1.5074
  385MOL0     C53034   5.380  12.047   6.976 -0.0714 -0.3329 -0.4115
  385MOL0     C53035   5.240  12.023   6.910 -0.1775  0.0906  0.4672
  385MOL0     C53036   5.191  12.133   6.824  0.0743  0.8286 -0.1347
  385MOL0    Cl53037   5.303  12.124   6.677 -0.4067  0.0635 -0.1402
  385MOL0     C53038   5.902  11.800   7.661 -0.3925  0.1584  0.4094
  385MOL0     C53039   5.924  11.738   7.784  0.1902  0.9231 -0.2640
  385MOL0     O53040   5.761  11.872   8.133 -0.3010  0.2269 -0.0478
  385MOL0     C53041   5.874  11.544   8.238 -0.5624  0.1826  1.0017
  385MOL0     C53042   5.868  11.443   8.334  0.8143 -0.0915 -0.2468
  385MOL0     N53043   6.002  10.869   8.861 -0.8205 -0.2359 -0.1549
  385MOL0     N53044   5.972  10.747   8.826  0.3501  0.4639  0.5035
  385MOL0     C53045   5.269   9.806   8.559  0.1390  0.4265 -0.6208
  385MOL0     C53046   5.138   9.772   8.590 -0.5950  0.9476  0.4570
  385MOL0     C53047   4.746   9.754   8.834  0.3803  0.0157 -0.0294
  385MOL0     C53048   4.728   9.669   8.953 -0.0860 -0.0822  0.5233
  385MOL0     C53049   4.619   9.589   8.961  1.0202  0.7755  0.9925
  385MOL0     C53050   4.507   9.611   8.872  0.1633  0.9608  0.1052
  385MOL0     O53051   4.381   9.552   8.860  0.9805 -0.1796 -1.0542
  385MOL0     C53052   4.336   9.490   8.984  0.2338 -0.9014  1.1586
  385MOL0     C53053   4.179   9.503   8.989 -1.2041 -0.1793 -0.3493
  385MOL0     C53054   4.096   9.475   8.859 -0.1510 -0.1230  0.2061
  385MOL0     C53055   3.946   9.458   8.889 -0.0191  0.4394  0.1325
  385MOL0     C53056   3.884   9.555   8.984 -0.0245 -0.1145  1.2164
  385MOL0     C53057   3.832   9.634   9.060  0.1445 -0.8430 -0.2722
  385MOL0     C53058   4.516   9.709   8.773  0.1360 -0.6699  0.1727
  385MOL0     C53059   4.637   9.774   8.744  0.2089 -0.9653 -0.2872
  385MOL0     C53060   4.641   9.861   8.618  0.2234  0.0071  0.2785
  385MOL0     H53061   5.049  10.050   8.759  1.1160  0.3393  1.8477
  385MOL0     H53062   5.281  10.112   8.697  1.5402 -0.7369 -1.3059
  385MOL0     H53063   5.441  10.151   8.532  2.7508  1.7961 -2.4936
  385MOL0     H53064   5.581  10.077   8.461  1.6066  4.2780  1.2496
  385MOL0     H53065   5.525  10.058   8.753  1.2481 -1.1784  1.0306
  385MOL0     H53066   5.672  10.025   8.672 -2.0569 -1.4233 -1.9064
  385MOL0     H53067   5.669  10.276   8.615  0.7129 -1.4681 -1.0201
  385MOL0     H53068   5.537  10.295   8.731 -0.2840 -0.1866 -0.5724
  385MOL0     H53069   5.647  10.244   8.913 -0.2925  0.1302 -0.1167
  385MOL0     H53070   5.774  10.132   8.848  1.5488  1.5174  1.7902
  385MOL0     H53071   5.865  10.336   8.735 -2.1427 -1.6433 -0.7621
  385MOL0     H53072   5.902  10.290   8.903 -0.0771 -0.2839 -0.3537
  385MOL0     H53073   5.739  10.453   8.988  1.5731 -2.9029  0.3423
  385MOL0     H53074   5.882  10.518   8.905  0.2506 -1.3344 -1.2159
  385MOL0     H53075   5.677  10.652   8.879  0.5705  2.5526 -3.1600
  385MOL0     H53076   5.607  10.524   8.779 -0.4503  0.6331 -0.9845
  385MOL0     H53077   5.847  10.562   8.657  1.6995 -0.1675  2.0418
  385MOL0     H53078   5.707  10.669   8.636  1.4741  2.5124  0.6327
  385MOL0     H53079   5.710  10.896   8.716  1.3686  3.5325 -0.7815
  385MOL0     H53080   5.983  11.141   8.877  3.0910  0.5967 -2.0056
  385MOL0     H53081   5.826  11.148   8.815 -0.2588 -1.5977  4.2043
  385MOL0     H53082   6.065  11.088   8.632 -0.2686  0.9348 -2.5406
  385MOL0     H53083   5.903  11.115   8.578  1.0437 -0.3638 -0.5710
  385MOL0     H53084   6.071  11.316   8.746  1.1455 -0.6398 -0.5341
  385MOL0     H53085   6.063  11.301   8.569 -1.1534  0.3029 -0.5139
  385MOL0     H53086   5.826  11.377   8.756  0.0562  0.6233  0.1999
  385MOL0     H53087   5.914  11.490   8.672 -1.5293  0.1744 -1.0046
  385MOL0     H53088   5.657  11.585   8.547 -0.9909 -0.5017  0.0112
  385MOL0     H53089   5.685  11.890   8.363  4.1948 -1.3522  0.5858
  385MOL0     H53090   5.635  11.819   8.514 -2.2505  1.7069 -0.2792
  385MOL0     H53091   5.545  11.772   8.373  0.4092  0.1552 -2.0592
  385MOL0     H53092   5.614  11.813   7.924  1.6117 -0.1691  2.3622
  385MOL0     H53093   5.581  11.907   7.697 -0.6416 -2.9071 -1.1586
  385MOL0     H53094   5.909  11.916   7.398 -0.6984  0.3448 -1.0283
  385MOL0     H53095   5.824  11.757   7.402 -0.5987 -0.8016 -2.3891
  385MOL0     H53096   5.765  12.021   7.266  0.4439  0.3122  2.5548
  385MOL0     H53097   5.801  11.869   7.187  2.2112 -1.2412  2.0188
  385MOL0     H53098   5.549  11.923   7.357 -0.4762 -0.3995 -0.2456
  385MOL0     H53099   5.571  11.784   7.265 -0.1317  0.2449  1.2095
  385MOL0     H53100   5.624  11.947   7.058 -0.3734  0.3945 -0.9824
  385MOL0     H53101   5.568  12.078   7.148  0.5378 -1.2599  0.4645
  385MOL0     H53102   5.416  11.843   7.040  2.9889 -0.7619  2.0257
  385MOL0     H53103   5.351  11.951   7.171 -0.4414  0.4319 -1.3875
  385MOL0     H53104   5.460  12.056   6.901 -0.4392  0.1375 -0.7522
  385MOL0     H53105   5.377  12.140   7.033 -0.9739 -1.1890  0.9874
  385MOL0     H53106   5.163  12.001   6.985 -1.8620  1.1221 -0.8630
  385MOL0     H53107   5.224  11.937   6.844 -4.1470  0.2114  0.9803
  385MOL0     H53108   5.201  12.232   6.869  1.6258  0.4623  0.3610
  385MOL0     H53109   5.089  12.116   6.788  0.3660 -1.4819  0.0142
  385MOL0     H53110   5.986  11.797   7.592  0.1254  0.7891  0.9917
  385MOL0     H53111   6.019  11.693   7.808  0.8092  2.2487 -0.1357
  385MOL0     H53112   5.941  11.527   8.154  1.3287 -1.4387  2.7354
  385MOL0     H53113   5.929  11.355   8.322  0.3883 -0.5570  0.8375
  385MOL0     H53114   5.332   9.738   8.503 -0.4234  0.9390 -1.9228
  385MOL0     H53115   5.091   9.680   8.555  1.7002 -0.6799  1.3562
  385MOL0     H53116   4.817   9.651   9.013  0.9362  1.9687 -0.2873
  385MOL0     H53117   4.611   9.512   9.038 -1.3685 -0.5765 -0.4856
  385MOL0     H53118   4.379   9.391   8.997  0.3243 -1.5481 -2.8240
  385MOL0     H53119   4.384   9.541   9.068 -0.7750  0.4700  0.9470
  385MOL0     H53120   4.159   9.608   9.014 -5.0608 -0.6247 -0.9399
  385MOL0     H53121   4.141   9.435   9.065 -0.2144  0.0892  0.4103
  385MOL0     H53122   4.121   9.553   8.785 -0.6599 -1.0976 -1.0276
  385MOL0     H53123   4.127   9.378   8.818 -1.3037 -2.0786  3.5830
  385MOL0     H53124   3.918   9.358   8.923 -2.6095  1.0487  0.0344
  385MOL0     H53125   3.899   9.457   8.790  2.4097 -1.5081 -1.1089
  385MOL0     H53126   3.796   9.712   9.124 -0.9386 -1.1966 -0.4292
  385MOL0     H53127   4.431   9.711   8.705  0.9047  0.1308 -0.8148
  385MOL0     H53128   4.707   9.947   8.631  1.1562 -0.6678  0.1208
  385MOL0     H53129   4.686   9.802   8.537  1.8098 -0.3848  1.3887
  385MOL0     H53130   4.540   9.885   8.585  0.7057  0.9938 -0.5414
  386MOL0     O53131  10.490   3.250   7.678 -0.2075 -0.8685 -0.5866
  386MOL0     C53132  10.563   3.216   7.771 -0.3416  0.9649  0.7458
  386MOL0     O53133  10.654   3.298   7.831 -0.2327  0.2119 -0.6661
  386MOL0     C53134  10.674   3.426   7.784  0.6181 -0.4632  0.6053
  386MOL0     C53135  10.809   3.455   7.769 -0.9264  0.4207 -0.6554
  386MOL0     C53136  10.860   3.588   7.748  0.4661 -0.1798  0.6194
  386MOL0     C53137  10.762   3.696   7.721  0.2172  0.1425  0.9440
  386MOL0     O53138  10.808   3.823   7.689 -0.2927 -0.2121  0.3652
  386MOL0     C53139  10.728   3.904   7.594  0.0151  0.8197  0.8972
  386MOL0     C53140  10.647   4.011   7.674  0.4640 -1.4041  0.7438
  386MOL0     C53141  10.726   4.133   7.726  0.2395 -0.7406 -0.2664
  386MOL0     C53142  10.613   4.220   7.797  0.3521  0.1069 -0.1802
  386MOL0     C53143  10.546   4.322   7.701 -0.2989 -0.0736 -0.6013
  386MOL0     C53144  10.419   4.383   7.769 -0.2495 -0.0397  0.4730
  386MOL0     C53145  10.355   4.491   7.675 -1.5043  0.6507  0.4122
  386MOL0     C53146  10.424   4.624   7.694 -0.2325 -0.7471  0.1438
  386MOL0     N53147  10.386   4.705   7.579 -0.9382  0.7046 -0.9890
  386MOL0     C53148  10.474   4.731   7.475 -0.7697  0.4512 -0.6576
  386MOL0     C53149  10.414   4.816   7.394  0.3934  0.7656 -0.4554
  386MOL0     C53150  10.474   4.867   7.265  0.0489  1.0985 -0.9200
  386MOL0     C53151  10.442   5.009   7.236  0.1956  0.7531  0.3513
  386MOL0     C53152  10.491   5.054   7.094 -0.2044 -0.5609 -0.1142
  386MOL0     C53153  10.628   5.122   7.085  0.5151  0.6550  0.0595
  386MOL0     O53154  10.656   5.182   6.955 -0.6765 -0.6858 -0.2197
  386MOL0     C53155  10.779   5.244   6.938 -0.4569 -0.1107 -0.4960
  386MOL0     C53156  10.789   5.284   6.810 -0.5804  0.5141  0.4362
  386MOL0     C53157  10.911   5.332   6.757 -0.3154  0.1080  0.1633
  386MOL0     C53158  10.917   5.374   6.611 -0.5734 -1.3413  0.1443
  386MOL0     C53159  11.027   5.341   6.842  0.5056  0.3703 -0.3259
  386MOL0     C53160  11.158   5.387   6.800 -0.0777 -0.5918 -0.2913
  386MOL0     O53161  11.167   5.502   6.729  0.4221  0.1215 -0.0144
  386MOL0     C53162  11.288   5.548   6.687 -0.1143  0.3616 -0.7767
  386MOL0     C53163  11.307   5.689   6.702  0.2810 -0.2961  0.1468
  386MOL0     C53164  11.432   5.745   6.664  0.6941  0.2257 -0.5999
  386MOL0     C53165  11.536   5.666   6.609  0.5686 -0.9581  0.6226
  386MOL0     O53166  11.655   5.716   6.574 -0.8650  0.4734 -0.8928
  386MOL0     C53167  11.663   5.858   6.529 -0.0590  0.9839 -0.3576
  386MOL0     C53168  11.579   5.871   6.404  0.1708  0.6982 -0.5028
  386MOL0     C53169  11.632   5.808   6.277 -0.4277  0.1598  0.9270
  386MOL0     C53170  11.562   5.856   6.147  1.1703 -0.0972  0.0471
  386MOL0     C53171  11.629   5.790   6.030 -0.3821 -0.1746  0.0357
  386MOL0     C53172  11.762   5.856   5.996 -0.1605 -0.3886  0.5416
  386MOL0     C53173  11.793   5.819   5.851  0.3190 -0.3651  0.9259
  386MOL0     C53174  11.926   5.865   5.799  0.4597 -0.3932  0.2968
  386MOL0    Cl53175  11.932   5.802   5.633  0.2476  0.2220 -0.1127
  386MOL0     C53176  11.515   5.529   6.578  0.4015 -0.4449  0.2049
  386MOL0     C53177  11.389   5.470   6.619 -0.7095 -0.2102  0.0240
  386MOL0     O53178  11.251   5.312   6.830 -0.0553 -0.8962  0.1682
  386MOL0     C53179  11.013   5.294   6.978 -0.4259  0.5546  0.0673
  386MOL0     C53180  10.889   5.237   7.026 -0.3883 -0.3128  0.3565
  386MOL0     N53181  10.291   4.842   7.447  0.0330  0.1747  0.1624
  386MOL0     N53182  10.280   4.785   7.561  0.7259  0.5041 -0.3800
  386MOL0     C53183  10.621   3.663   7.739  0.9207  0.4871  1.0907
  386MOL0     C53184  10.582   3.529   7.771  0.1565 -0.1843 -0.1898
  386MOL0     C53185  10.545   3.076   7.822  0.0913  0.1595 -0.6600
  386MOL0     C53186  10.435   3.011   7.774  0.3053 -0.0797  0.4180
  386MOL0     C53187  10.391   2.889   7.818 -0.4859  0.0886  0.6471
  386MOL0     C53188  10.476   2.817   7.913 -0.3141  0.0194  0.0325
  386MOL0     O53189  10.428   2.694   7.944  0.8391  0.6617  0.2353
  386MOL0     C53190  10.492   2.613   8.047  0.6137 -0.2187  0.2499
  386MOL0     C53191  10.480   2.663   8.187  0.6815  0.2058  0.1291
  386MOL0     C53192  10.340   2.619   8.232  0.6300 -0.7945  0.3807
  386MOL0     C53193  10.215   2.702   8.184 -0.2991  0.4412 -0.1249
  386MOL0     C53194  10.097   2.638   8.249 -0.5737  0.3361  0.4223
  386MOL0     C53195   9.996   2.575   8.286 -0.6363  0.3547 -0.1368
  386MOL0     C53196  10.590   2.880   7.967  0.2067  0.3987 -0.5733
  386MOL0     C53197  10.620   3.009   7.926 -0.2835 -0.4909 -0.8240
  386MOL0     C53198  10.730   3.076   7.997  0.3840 -0.2661 -0.4017
  386MOL0     H53199  10.873   3.367   7.777 -0.5007  0.7686 -0.0901
  386MOL0     H53200  10.962   3.626   7.742  0.0064  0.8336 -2.3655
  386MOL0     H53201  10.656   3.838   7.545  1.2667 -0.6589  0.9388
  386MOL0     H53202  10.791   3.953   7.519  1.3852 -1.7537  0.2509
  386MOL0     H53203  10.572   4.057   7.610  2.7171 -1.1129 -1.8740
  386MOL0     H53204  10.597   3.961   7.758 -0.3266  0.3297  1.3451
  386MOL0     H53205  10.798   4.099   7.801 -3.0586 -2.0844  2.6089
  386MOL0     H53206  10.766   4.194   7.645  1.2149 -0.7938  0.1665
  386MOL0     H53207  10.529   4.159   7.832 -0.2705 -0.0112 -1.7980
  386MOL0     H53208  10.653   4.268   7.886  0.7360 -0.8127  0.1552
  386MOL0     H53209  10.514   4.273   7.609 -0.6718  1.9892 -1.6150
  386MOL0     H53210  10.618   4.402   7.686 -0.2371  0.0533  0.3050
  386MOL0     H53211  10.355   4.295   7.776  2.1748 -1.9617 -0.3595
  386MOL0     H53212  10.439   4.419   7.871 -0.9676 -0.3616  0.7342
  386MOL0     H53213  10.252   4.507   7.707 -1.2920 -0.1774  1.5737
  386MOL0     H53214  10.360   4.456   7.572  2.3229 -1.4861  1.1128
  386MOL0     H53215  10.388   4.670   7.787  1.0768  1.0057 -0.1502
  386MOL0     H53216  10.530   4.600   7.697 -0.2490 -0.7663  0.6991
  386MOL0     H53217  10.571   4.683   7.470 -0.9972 -0.2989  1.1622
  386MOL0     H53218  10.429   4.810   7.184  1.2483 -0.5983 -0.4484
  386MOL0     H53219  10.579   4.841   7.278 -0.5221 -1.0152 -0.0852
  386MOL0     H53220  10.334   5.025   7.236 -0.0278 -0.5799  1.4946
  386MOL0     H53221  10.480   5.079   7.311 -1.4160 -1.1204  3.0561
  386MOL0     H53222  10.470   4.968   7.029 -4.6314 -1.4081  2.0928
  386MOL0     H53223  10.414   5.123   7.059  1.6956  1.4156 -0.6617
  386MOL0     H53224  10.630   5.191   7.170 -3.3346  1.8097 -0.6081
  386MOL0     H53225  10.694   5.038   7.110 -0.2417 -0.4159 -1.3901
  386MOL0     H53226  10.704   5.283   6.743  0.0694 -1.3744 -0.4202
  386MOL0     H53227  10.945   5.479   6.601  1.9286 -1.6833  2.3967
  386MOL0     H53228  10.816   5.362   6.571 -1.5251 -2.4259  2.6485
  386MOL0     H53229  10.994   5.318   6.556  1.5661  1.9124 -0.4576
  386MOL0     H53230  11.234   5.747   6.757  2.1236  2.7854 -0.4387
  386MOL0     H53231  11.444   5.846   6.704  0.5533  1.2767 -3.0699
  386MOL0     H53232  11.633   5.922   6.613  0.8995 -0.2478  0.9562
  386MOL0     H53233  11.767   5.887   6.514  0.5300 -1.3309 -1.0231
  386MOL0     H53234  11.477   5.833   6.418  0.3653  0.3642  0.0145
  386MOL0     H53235  11.573   5.979   6.391  0.1567  0.8811  0.8653
  386MOL0     H53236  11.614   5.700   6.277 -0.2426  0.1254 -0.0361
  386MOL0     H53237  11.740   5.826   6.281 -0.4219  0.4344 -0.2048
  386MOL0     H53238  11.561   5.965   6.140 -0.5515 -0.2248 -2.7806
  386MOL0     H53239  11.457   5.826   6.149  0.8004  1.1680  1.3573
  386MOL0     H53240  11.658   5.685   6.045  1.5705  0.4031  0.7228
  386MOL0     H53241  11.566   5.797   5.942  2.7982 -0.2906 -2.4283
  386MOL0     H53242  11.844   5.815   6.055  0.8465  0.5195 -0.1817
  386MOL0     H53243  11.758   5.965   6.005 -0.6444 -0.5221  2.2013
  386MOL0     H53244  11.721   5.860   5.780 -0.1153  0.5001  1.8327
  386MOL0     H53245  11.794   5.711   5.840  0.9012 -0.2395 -0.4400
  386MOL0     H53246  12.002   5.816   5.861 -0.3181 -1.9732  0.0439
  386MOL0     H53247  11.943   5.973   5.806  2.2036 -0.6327  0.1873
  386MOL0     H53248  11.597   5.471   6.540  0.6560 -1.5330  2.2484
  386MOL0     H53249  11.360   5.369   6.595 -0.4352  0.1557 -1.9907
  386MOL0     H53250  11.094   5.300   7.049 -0.6047  1.4204  0.2133
  386MOL0     H53251  10.878   5.192   7.124  1.4587 -1.9092 -0.1078
  386MOL0     H53252  10.543   3.737   7.720 -0.0260 -0.9114 -0.8564
  386MOL0     H53253  10.479   3.501   7.786  0.4056 -1.9745 -1.5173
  386MOL0     H53254  10.371   3.062   7.704  2.2810  1.3077 -0.4494
  386MOL0     H53255  10.306   2.834   7.777  1.5060 -2.7492 -0.0163
  386MOL0     H53256  10.454   2.512   8.030  2.2408 -0.2854 -4.6355
  386MOL0     H53257  10.598   2.607   8.023  1.4137  3.7967  2.0070
  386MOL0     H53258  10.498   2.770   8.200 -1.0505  0.1816  4.2724
  386MOL0     H53259  10.551   2.610   8.250  1.8755 -0.5084 -1.7592
  386MOL0     H53260  10.326   2.511   8.215 -3.5158 -0.7517  2.2743
  386MOL0     H53261  10.337   2.626   8.341 -0.3592  0.9339  0.2582
  386MOL0     H53262  10.208   2.699   8.075  0.1686  1.2040 -0.1795
  386MOL0     H53263  10.224   2.806   8.215  0.7413  1.5240 -3.6339
  386MOL0     H53264   9.909   2.528   8.328 -0.6088  1.0432  0.7139
  386MOL0     H53265  10.654   2.826   8.036  0.8446 -0.7840 -2.0470
  386MOL0     H53266  10.695   3.152   8.068 -1.7131 -0.5385 -1.0852
  386MOL0     H53267  10.779   3.001   8.061 -1.1022 -2.6574 -1.9303
  386MOL0     H53268  10.805   3.126   7.935  0.9966 -0.8869 -0.1868
  387MOL0     O53269   3.094  10.008   4.575 -0.2280 -0.8839 -0.1229
  387MOL0     C53270   3.016  10.092   4.619 -0.0054  0.3851 -0.0514
  387MOL0     O53271   3.042  10.164   4.733 -0.1659  0.2473  0.2368
  387MOL0     C53272   3.174  10.167   4.779 -0.3881 -0.0336 -0.6831
  387MOL0     C53273   3.260  10.055   4.799 -0.4309  0.3243  0.1889
  387MOL0     C53274   3.393  10.067   4.832  0.0125  0.8860 -0.0596
  387MOL0     C53275   3.444  10.193   4.866 -0.2747 -0.4609  0.6959
  387MOL0     O53276   3.575  10.210   4.922  0.4716 -0.1005 -0.3375
  387MOL0     C53277   3.675  10.158   4.836  0.0826 -0.2962 -0.5685
  387MOL0     C53278   3.817  10.183   4.892  0.1865  1.0667  0.7272
  387MOL0     C53279   3.925  10.153   4.786 -0.1720 -0.8082 -0.1739
  387MOL0     C53280   4.059  10.157   4.867  0.9016  0.7986 -0.2843
  387MOL0     C53281   4.181  10.134   4.781  0.5649 -0.3012 -0.5105
  387MOL0     C53282   4.209  10.252   4.690  0.2939  0.1069  0.6537
  387MOL0     C53283   4.347  10.252   4.639 -0.0321 -0.0852 -0.6262
  387MOL0     C53284   4.353  10.151   4.524 -0.3169 -0.5666 -0.3064
  387MOL0     N53285   4.492  10.127   4.485  0.7244 -0.1500  0.0167
  387MOL0     C53286   4.590  10.214   4.453 -0.2191 -0.4984  0.1275
  387MOL0     C53287   4.703  10.142   4.430 -0.4930 -0.5983  0.0858
  387MOL0     C53288   4.840  10.194   4.401  0.2579 -0.1493 -0.2516
  387MOL0     C53289   4.948  10.194   4.513 -0.5841 -0.0425  0.2830
  387MOL0     C53290   5.073  10.275   4.475  0.3252  0.4070 -0.7259
  387MOL0     C53291   5.189  10.283   4.579 -0.7049  0.0177 -0.5665
  387MOL0     O53292   5.276  10.393   4.555  0.1119  0.1077  0.4631
  387MOL0     C53293   5.390  10.416   4.629  0.6869 -0.6130 -0.0885
  387MOL0     C53294   5.423  10.354   4.752  0.0596 -0.2322  0.1149
  387MOL0     C53295   5.540  10.397   4.830  0.0823  0.0233 -0.2482
  387MOL0     C53296   5.565  10.327   4.963  0.3069  0.3585 -0.5255
  387MOL0     C53297   5.624  10.492   4.782 -0.3660  0.5014 -1.1960
  387MOL0     C53298   5.739  10.547   4.858  0.2149  0.9260  0.2431
  387MOL0     O53299   5.723  10.675   4.891 -0.4122 -0.2731 -0.4019
  387MOL0     C53300   5.832  10.709   4.972 -0.0076 -0.0787  0.7599
  387MOL0     C53301   5.835  10.703   5.108  0.4118  0.0753 -1.1757
  387MOL0     C53302   5.928  10.759   5.191 -1.2456  0.0570  1.1784
  387MOL0     C53303   6.019  10.847   5.135 -0.1782  0.2940 -0.2145
  387MOL0     O53304   6.106  10.921   5.215 -0.0020  0.8642  0.0669
  387MOL0     C53305   6.234  10.959   5.157  0.4765 -0.2678 -0.2112
  387MOL0     C53306   6.337  11.023   5.268 -0.0078 -0.5125 -0.8206
  387MOL0     C53307   6.465  11.074   5.183  0.8500  0.3015 -0.3564
  387MOL0     C53308   6.416  11.171   5.073 -0.3023 -0.3065 -1.0701
  387MOL0     C53309   6.520  11.274   5.036 -0.2930 -0.6920  0.6974
  387MOL0     C53310   6.653  11.213   4.982  0.0839 -0.4603  0.0217
  387MOL0     C53311   6.622  11.133   4.862 -0.2296 -1.1426 -0.6645
  387MOL0     C53312   6.745  11.094   4.785  0.4062  0.0116  0.0368
  387MOL0    Cl53313   6.842  10.973   4.870  0.6032  0.2018 -0.0759
  387MOL0     C53314   6.023  10.856   4.991  0.2194 -0.6138 -0.4592
  387MOL0     C53315   5.938  10.782   4.906  0.6606  0.2875 -0.4771
  387MOL0     O53316   5.838  10.481   4.869 -0.5509 -0.1207 -0.2326
  387MOL0     C53317   5.591  10.548   4.658  0.1629  0.0986 -0.8823
  387MOL0     C53318   5.476  10.512   4.589 -0.0134  0.4913 -0.5785
  387MOL0     N53319   4.664  10.011   4.441  0.0014  0.1629 -0.4845
  387MOL0     N53320   4.535  10.005   4.475  0.0562 -0.1678 -0.6756
  387MOL0     C53321   3.347  10.300   4.865  0.3625 -1.1394  0.1248
  387MOL0     C53322   3.214  10.292   4.814 -0.2426  0.3514  0.0680
  387MOL0     C53323   2.879  10.110   4.554  0.2836  0.5644  0.4707
  387MOL0     C53324   2.784  10.185   4.627  0.3546 -0.0635  0.1756
  387MOL0     C53325   2.657  10.205   4.582 -0.2926  0.4268 -0.2851
  387MOL0     C53326   2.615  10.144   4.468  0.4505  1.0186 -0.6493
  387MOL0     O53327   2.485  10.159   4.433  1.0928 -0.5684  0.3636
  387MOL0     C53328   2.421  10.120   4.313  0.3333  0.7025  0.2576
  387MOL0     C53329   2.272  10.125   4.336  0.0589 -1.0535  0.3342
  387MOL0     C53330   2.219  10.261   4.387  0.0254  0.1998 -0.0233
  387MOL0     C53331   2.071  10.249   4.434  0.3043  0.0979  0.3417
  387MOL0     C53332   1.978  10.193   4.338  0.1374 -0.4198 -0.2736
  387MOL0     C53333   1.898  10.137   4.267 -0.9549 -0.0029  0.4682
  387MOL0     C53334   2.706  10.079   4.390 -0.2069 -0.8712 -0.0644
  387MOL0     C53335   2.835  10.063   4.427  1.0551  0.6526  0.9531
  387MOL0     C53336   2.938  10.007   4.326  0.6011 -0.4448  0.5257
  387MOL0     H53337   3.234   9.955   4.764  0.3074  0.5353 -1.0404
  387MOL0     H53338   3.455   9.980   4.849  0.5118  1.4439  1.0768
  387MOL0     H53339   3.665  10.215   4.743 -0.1720  4.6389  2.1567
  387MOL0     H53340   3.665  10.050   4.826 -1.1340 -0.8192  4.0885
  387MOL0     H53341   3.826  10.291   4.906  0.7873  1.3899 -1.7538
  387MOL0     H53342   3.823  10.118   4.980 -2.8408  0.5955  0.7018
  387MOL0     H53343   3.907  10.058   4.736  0.7264 -0.0907 -1.9735
  387MOL0     H53344   3.916  10.227   4.706 -1.7787 -1.0092 -0.2069
  387MOL0     H53345   4.064  10.251   4.923  0.2289  0.9484 -0.4682
  387MOL0     H53346   4.045  10.074   4.937  3.1353  1.6319  1.2741
  387MOL0     H53347   4.172  10.039   4.728  0.9242 -0.5736 -0.0871
  387MOL0     H53348   4.271  10.126   4.842 -0.2972 -1.5774  0.6669
  387MOL0     H53349   4.135  10.261   4.610 -0.7242 -1.8939  1.2848
  387MOL0     H53350   4.191  10.339   4.753 -1.1709  1.0528 -0.9895
  387MOL0     H53351   4.410  10.213   4.720 -1.3312  1.0103  0.9811
  387MOL0     H53352   4.379  10.350   4.604 -0.6343  0.3433 -0.0056
  387MOL0     H53353   4.325  10.050   4.557  0.2290 -1.4836 -2.4517
  387MOL0     H53354   4.282  10.170   4.443  1.8087  2.3544 -1.6854
  387MOL0     H53355   4.586  10.322   4.465 -0.3635 -0.3605 -1.0617
  387MOL0     H53356   4.819  10.297   4.369  2.5909  1.2949  2.3342
  387MOL0     H53357   4.868  10.141   4.310 -0.7970  0.0636 -0.7120
  387MOL0     H53358   4.907  10.232   4.607 -0.3626 -0.2120  0.4507
  387MOL0     H53359   4.983  10.091   4.522 -1.9241 -0.6847 -1.2678
  387MOL0     H53360   5.116  10.237   4.382  2.3732  2.7554 -0.8208
  387MOL0     H53361   5.046  10.377   4.448 -0.1711  0.4887  0.0540
  387MOL0     H53362   5.154  10.298   4.681 -0.3684  1.2895 -0.6302
  387MOL0     H53363   5.251  10.193   4.569 -0.8839 -0.1000 -0.6147
  387MOL0     H53364   5.353  10.277   4.781  0.6298 -1.1302 -0.8299
  387MOL0     H53365   5.653  10.261   4.963 -0.0795 -0.2430  2.1128
  387MOL0     H53366   5.489  10.251   4.982  1.2683 -1.4415 -3.1454
  387MOL0     H53367   5.583  10.398   5.044 -0.7029 -0.2742  0.2798
  387MOL0     H53368   5.747  10.657   5.153  0.5993  0.5016 -0.3554
  387MOL0     H53369   5.933  10.747   5.299  2.8701 -1.6574  1.0039
  387MOL0     H53370   6.284  10.873   5.113  1.0318  1.4277 -3.1603
  387MOL0     H53371   6.204  11.038   5.087  2.2525 -0.5859 -1.3695
  387MOL0     H53372   6.292  11.108   5.319 -2.2648 -1.7195 -0.6845
  387MOL0     H53373   6.374  10.953   5.344  1.7100  0.0138 -1.1351
  387MOL0     H53374   6.526  10.990   5.147  3.9989  0.7944  3.1481
  387MOL0     H53375   6.528  11.127   5.256  0.2055 -0.0587  0.4743
  387MOL0     H53376   6.338  11.242   5.103  0.9341  0.6199  0.0850
  387MOL0     H53377   6.398  11.100   4.993  2.3389 -3.8333  1.1780
  387MOL0     H53378   6.477  11.345   4.965  1.3884  0.1412  0.4559
  387MOL0     H53379   6.544  11.333   5.125  1.6742 -2.1295  1.1798
  387MOL0     H53380   6.690  11.144   5.058 -3.5579  0.6301  3.0950
  387MOL0     H53381   6.713  11.301   4.956 -1.3469 -0.1756 -2.7414
  387MOL0     H53382   6.558  11.185   4.790 -0.0230  0.2105  0.0988
  387MOL0     H53383   6.568  11.041   4.884  1.0832 -1.4646  1.4335
  387MOL0     H53384   6.812  11.172   4.750  1.1805 -0.8061 -0.3383
  387MOL0     H53385   6.708  11.044   4.695 -0.5582 -0.2561  0.5624
  387MOL0     H53386   6.091  10.924   4.941 -2.5620  2.7467 -0.0770
  387MOL0     H53387   5.947  10.766   4.799 -3.1321  1.5620 -1.1040
  387MOL0     H53388   5.666  10.617   4.622  0.8422 -0.2570 -0.1583
  387MOL0     H53389   5.449  10.563   4.498  2.8890  1.6379 -0.9177
  387MOL0     H53390   3.393  10.391   4.902 -0.1844 -0.6572 -0.3597
  387MOL0     H53391   3.145  10.376   4.822  0.7892  1.2048  0.2607
  387MOL0     H53392   2.803  10.242   4.717 -1.6853  1.0151 -0.0089
  387MOL0     H53393   2.580  10.260   4.635 -1.1049  1.5279 -2.4652
  387MOL0     H53394   2.460  10.179   4.230  0.5526 -0.2236 -0.3165
  387MOL0     H53395   2.437  10.017   4.279 -0.0551  1.6955 -3.2811
  387MOL0     H53396   2.246  10.053   4.415 -0.8147 -1.3818 -0.2371
  387MOL0     H53397   2.216  10.106   4.244 -1.3165  0.0626  0.9065
  387MOL0     H53398   2.275  10.302   4.471 -2.5541 -0.0102  1.9319
  387MOL0     H53399   2.210  10.334   4.306 -3.0654 -0.4525 -0.4184
  387MOL0     H53400   2.023  10.342   4.467  0.3201 -0.7095  2.8137
  387MOL0     H53401   2.066  10.192   4.526  0.9688  0.3340  0.5320
  387MOL0     H53402   1.836  10.081   4.200 -1.2595 -0.0828  0.8126
  387MOL0     H53403   2.674  10.041   4.293 -2.5458 -1.2101  0.7874
  387MOL0     H53404   3.031  10.062   4.309  0.8905 -1.1203 -0.1543
  387MOL0     H53405   2.963   9.903   4.350  1.3810 -0.5971 -0.8528
  387MOL0     H53406   2.880  10.006   4.233  2.1890  2.4171 -0.6183
  388MOL0     O53407   2.079   5.724   2.204 -0.3141  0.5386 -0.4330
  388MOL0     C53408   2.102   5.650   2.303 -0.0969 -0.9750 -0.0539
  388MOL0     O53409   1.999   5.595   2.382  0.2764 -0.8498 -0.2136
  388MOL0     C53410   1.882   5.662   2.384  0.3645 -0.6823 -0.0697
  388MOL0     C53411   1.775   5.619   2.305  0.5499  0.7553 -0.5432
  388MOL0     C53412   1.650   5.685   2.303 -0.3884  0.2624  0.4823
  388MOL0     C53413   1.634   5.796   2.389 -0.2949  0.2120 -1.1853
  388MOL0     O53414   1.512   5.865   2.404  0.3921  0.2573  0.2332
  388MOL0     C53415   1.418   5.792   2.489  0.2299 -0.1545  0.2717
  388MOL0     C53416   1.341   5.898   2.574  0.1558  0.5537 -0.3986
  388MOL0     C53417   1.199   5.933   2.523  0.2933 -0.6978  0.2515
  388MOL0     C53418   1.089   5.837   2.565 -0.1372  0.1549 -0.6067
  388MOL0     C53419   0.959   5.852   2.485  0.2783 -0.1070  0.0848
  388MOL0     C53420   0.842   5.776   2.550  0.6808 -1.0626  0.2727
  388MOL0     C53421   0.836   5.626   2.532 -1.0706  0.3684 -0.0544
  388MOL0     C53422   0.727   5.551   2.610 -1.0979 -0.0089 -0.3471
  388MOL0     N53423   0.776   5.419   2.655  0.0204 -0.7343  0.5759
  388MOL0     C53424   0.782   5.307   2.582 -0.4714 -0.7314  0.3053
  388MOL0     C53425   0.792   5.204   2.658 -0.3083 -0.5984  0.1331
  388MOL0     C53426   0.795   5.070   2.609  0.5402  0.8950  0.6340
  388MOL0     C53427   0.940   5.017   2.581 -0.6285 -0.1381  0.7742
  388MOL0     C53428   0.962   4.865   2.576  0.2121  0.0756 -0.0443
  388MOL0     C53429   1.106   4.823   2.581 -0.3808 -0.2073 -0.0605
  388MOL0     O53430   1.143   4.796   2.441  0.3049 -0.0694 -0.5942
  388MOL0     C53431   1.272   4.778   2.426 -0.0323  0.4061  0.4508
  388MOL0     C53432   1.375   4.798   2.524 -0.2086 -0.0999 -0.9646
  388MOL0     C53433   1.512   4.791   2.492 -0.2397 -0.1526 -0.3907
  388MOL0     C53434   1.607   4.823   2.604 -0.5622 -0.2500  0.6303
  388MOL0     C53435   1.555   4.759   2.360  0.3638  0.0395  0.1103
  388MOL0     C53436   1.700   4.736   2.319 -0.4306 -0.6595  0.7953
  388MOL0     O53437   1.729   4.735   2.182 -0.9715  0.3638 -0.2792
  388MOL0     C53438   1.856   4.729   2.132  0.0797 -0.4176 -1.1019
  388MOL0     C53439   1.882   4.657   2.018  0.0243 -0.4517  0.3119
  388MOL0     C53440   2.015   4.645   1.973 -0.4516  0.5388  0.2412
  388MOL0     C53441   2.119   4.723   2.024 -0.6626 -1.0677 -0.4777
  388MOL0     O53442   2.247   4.708   1.962  0.6689  1.0544 -0.4167
  388MOL0     C53443   2.358   4.779   2.024 -0.1239  0.4664  0.8593
  388MOL0     C53444   2.483   4.771   1.930  0.7846 -0.4184 -0.1045
  388MOL0     C53445   2.498   4.886   1.828  0.4274  0.8390  0.5123
  388MOL0     C53446   2.649   4.900   1.789 -0.2558  0.2744  0.1281
  388MOL0     C53447   2.698   4.783   1.700 -0.0967  0.9394 -0.6920
  388MOL0     C53448   2.846   4.764   1.747 -1.3835  0.4619  0.4651
  388MOL0     C53449   2.925   4.697   1.641 -0.4561  0.1344 -0.1176
  388MOL0     C53450   3.080   4.690   1.670  0.3498 -0.0132  0.2379
  388MOL0    Cl53451   3.160   4.851   1.718 -0.1683  0.0535 -0.0697
  388MOL0     C53452   2.087   4.799   2.140 -0.1822 -0.7393 -0.3686
  388MOL0     C53453   1.963   4.806   2.192 -0.5272  0.7752  0.6100
  388MOL0     O53454   1.786   4.716   2.409 -0.7677 -0.0858 -0.7896
  388MOL0     C53455   1.452   4.745   2.260 -0.1519 -0.1430  0.1911
  388MOL0     C53456   1.318   4.760   2.292 -1.0955  0.0362 -0.2285
  388MOL0     N53457   0.796   5.254   2.781  0.3109  0.9161 -0.7018
  388MOL0     N53458   0.777   5.377   2.785 -0.2817  0.2729 -0.4315
  388MOL0     C53459   1.738   5.833   2.478  0.0972  0.5678 -0.9406
  388MOL0     C53460   1.861   5.770   2.469  0.3293  0.3020 -0.6026
  388MOL0     C53461   2.241   5.605   2.331 -0.1593  0.1683  0.9916
  388MOL0     C53462   2.259   5.514   2.437  0.2793  0.2758  0.2233
  388MOL0     C53463   2.373   5.446   2.452 -0.2930 -0.7644  0.5394
  388MOL0     C53464   2.480   5.483   2.379 -0.3464 -0.4524  0.7604
  388MOL0     O53465   2.598   5.425   2.405 -0.3382 -0.1205 -0.0787
  388MOL0     C53466   2.624   5.310   2.324 -0.1693 -0.7263 -0.5515
  388MOL0     C53467   2.551   5.181   2.368  0.0471 -1.3435 -0.1981
  388MOL0     C53468   2.585   5.053   2.295  0.1475  0.4285  0.0722
  388MOL0     C53469   2.742   5.011   2.302  0.2260 -0.2991 -1.3105
  388MOL0     C53470   2.767   4.894   2.221 -0.4190 -0.1096 -1.0483
  388MOL0     C53471   2.804   4.799   2.147  0.4509 -0.5710 -0.7933
  388MOL0     C53472   2.471   5.580   2.281 -0.4379  0.4117 -0.0016
  388MOL0     C53473   2.357   5.648   2.259  0.6623  0.0122 -0.2216
  388MOL0     C53474   2.359   5.765   2.160 -0.7933 -0.2664 -0.7975
  388MOL0     H53475   1.802   5.536   2.241  1.1202 -0.2689  0.9981
  388MOL0     H53476   1.579   5.652   2.227  0.3751  0.2874 -0.2504
  388MOL0     H53477   1.480   5.722   2.546  0.7385 -0.0997 -0.2025
  388MOL0     H53478   1.342   5.732   2.438 -1.9864  3.7545 -1.4998
  388MOL0     H53479   1.327   5.858   2.675  1.1840  0.6339 -0.2102
  388MOL0     H53480   1.395   5.993   2.585 -0.9863  1.1181  0.6401
  388MOL0     H53481   1.175   6.035   2.553  1.0252 -0.3901 -0.1718
  388MOL0     H53482   1.201   5.942   2.414 -3.2687 -1.1220  0.0488
  388MOL0     H53483   1.125   5.734   2.559  2.1629  0.8982 -0.6378
  388MOL0     H53484   1.067   5.853   2.671  0.5278 -1.6405 -0.1622
  388MOL0     H53485   0.966   5.822   2.381  1.9248  0.0880  0.1067
  388MOL0     H53486   0.937   5.959   2.485 -5.1818 -0.9096 -1.6508
  388MOL0     H53487   0.832   5.804   2.655 -1.6973 -0.1651 -0.1280
  388MOL0     H53488   0.749   5.808   2.503  0.5577 -0.9987  0.5568
  388MOL0     H53489   0.932   5.598   2.577 -2.4172  3.2868  5.6375
  388MOL0     H53490   0.825   5.587   2.431 -1.9566 -0.4280  0.3353
  388MOL0     H53491   0.691   5.604   2.698 -2.4444  0.3009 -1.0592
  388MOL0     H53492   0.641   5.546   2.542 -2.0939  0.4050  0.8560
  388MOL0     H53493   0.776   5.311   2.473 -1.2249 -1.1225  0.3268
  388MOL0     H53494   0.726   5.070   2.524 -2.0982 -0.3734  2.5995
  388MOL0     H53495   0.753   5.000   2.683  2.4030 -0.6072  0.3379
  388MOL0     H53496   0.980   5.059   2.488 -3.4451  0.2871 -0.3280
  388MOL0     H53497   1.008   5.054   2.659 -0.6637 -1.2698  1.3598
  388MOL0     H53498   0.907   4.827   2.662  0.9234  0.6076  0.6564
  388MOL0     H53499   0.904   4.819   2.495 -2.1565  2.1197  0.3455
  388MOL0     H53500   1.174   4.897   2.625 -0.5880 -0.3697  0.5401
  388MOL0     H53501   1.116   4.732   2.640  1.7936 -1.9998 -2.9199
  388MOL0     H53502   1.348   4.806   2.629  0.7629 -1.9235 -0.5439
  388MOL0     H53503   1.680   4.898   2.571 -0.7511 -1.1506 -2.0746
  388MOL0     H53504   1.663   4.732   2.627 -0.2358 -0.3111 -0.3486
  388MOL0     H53505   1.554   4.863   2.691 -0.0777  1.2402  0.2815
  388MOL0     H53506   1.809   4.612   1.952  0.6557 -0.8038 -0.1598
  388MOL0     H53507   2.034   4.587   1.883 -3.5263  0.4802 -0.4850
  388MOL0     H53508   2.336   4.886   2.035  0.8008  0.9035 -1.2008
  388MOL0     H53509   2.389   4.754   2.126  2.1522  1.6959  0.5391
  388MOL0     H53510   2.565   4.786   2.001  0.6593  2.9164 -0.5127
  388MOL0     H53511   2.498   4.674   1.882 -3.1584 -2.2980  1.9304
  388MOL0     H53512   2.461   4.984   1.861 -0.0146  1.4564 -1.6460
  388MOL0     H53513   2.435   4.866   1.741 -1.5288  2.1230  1.5638
  388MOL0     H53514   2.710   4.912   1.879 -2.2782 -2.1489  1.9381
  388MOL0     H53515   2.668   4.993   1.735 -0.8448  1.0590  1.2231
  388MOL0     H53516   2.646   4.687   1.714  0.2862  1.1688  3.7786
  388MOL0     H53517   2.687   4.806   1.594  0.0077  0.4707 -0.8056
  388MOL0     H53518   2.845   4.704   1.838  1.5715 -0.7658 -0.1781
  388MOL0     H53519   2.891   4.862   1.769 -0.5251  0.7764 -2.3458
  388MOL0     H53520   2.892   4.747   1.549 -1.1212  0.5557  0.3397
  388MOL0     H53521   2.876   4.600   1.628 -0.2679 -0.5133  3.0891
  388MOL0     H53522   3.131   4.641   1.586  1.4574  1.5576 -0.0441
  388MOL0     H53523   3.092   4.622   1.754 -3.0155 -2.1482 -0.8096
  388MOL0     H53524   2.148   4.860   2.205 -2.3737 -2.1638  3.3943
  388MOL0     H53525   1.940   4.858   2.285 -2.3461 -0.0976  0.7014
  388MOL0     H53526   1.480   4.734   2.156  2.2645 -0.6639  0.8457
  388MOL0     H53527   1.247   4.761   2.210  1.5512 -0.2840 -2.6576
  388MOL0     H53528   1.731   5.925   2.536  1.3884  1.3783 -2.0160
  388MOL0     H53529   1.940   5.797   2.538 -1.3812  1.0411  1.1937
  388MOL0     H53530   2.171   5.486   2.495 -1.1176  0.5197 -1.6637
  388MOL0     H53531   2.385   5.368   2.527 -0.2341  1.7056  3.2885
  388MOL0     H53532   2.597   5.324   2.219 -0.1934 -2.1733 -0.7613
  388MOL0     H53533   2.733   5.301   2.334  0.0416  0.1759 -1.7650
  388MOL0     H53534   2.444   5.201   2.356  0.5303  0.8912 -1.3166
  388MOL0     H53535   2.581   5.168   2.472  1.3194 -0.3342 -0.4118
  388MOL0     H53536   2.532   4.972   2.345  3.4436 -1.9954  0.0163
  388MOL0     H53537   2.556   5.063   2.190 -3.2029  3.0901  1.1075
  388MOL0     H53538   2.768   5.000   2.407  0.4424  2.2040 -1.0308
  388MOL0     H53539   2.804   5.098   2.278  0.3611 -0.1786 -0.5357
  388MOL0     H53540   2.843   4.722   2.083 -1.6014 -2.3043 -0.0614
  388MOL0     H53541   2.557   5.614   2.223 -1.2421 -1.0593 -2.1838
  388MOL0     H53542   2.314   5.721   2.070 -0.5898 -0.9860 -0.5555
  388MOL0     H53543   2.303   5.850   2.202 -0.3184 -0.0059 -0.6877
  388MOL0     H53544   2.458   5.806   2.142 -1.2219  0.5039 -1.5096
  389MOL0     O53545  10.714   3.215   4.661 -0.1180  0.2069  0.4540
  389MOL0     C53546  10.625   3.260   4.588  0.7364  0.3670 -0.0158
  389MOL0     O53547  10.654   3.337   4.487 -0.2050 -0.3599 -0.0777
  389MOL0     C53548  10.764   3.401   4.479 -0.7485  0.1718  0.7544
  389MOL0     C53549  10.834   3.407   4.354  0.1515  0.0064 -0.5250
  389MOL0     C53550  10.946   3.489   4.331 -0.3524 -0.1496 -0.0550
  389MOL0     C53551  11.008   3.545   4.448 -0.2833  0.3658 -0.2947
  389MOL0     O53552  11.130   3.602   4.419  0.1479 -0.0042 -0.6744
  389MOL0     C53553  11.198   3.687   4.511  0.3005  0.0529 -0.5487
  389MOL0     C53554  11.336   3.735   4.457  0.3599  0.2483  0.1366
  389MOL0     C53555  11.424   3.796   4.578  0.3309 -0.0622 -0.0168
  389MOL0     C53556  11.577   3.802   4.551  0.1699 -0.4867  0.8284
  389MOL0     C53557  11.656   3.759   4.675  0.0973 -0.2554 -0.7003
  389MOL0     C53558  11.802   3.802   4.681  0.3935  0.6065 -0.1362
  389MOL0     C53559  11.880   3.765   4.551 -0.1741  0.1936 -0.1098
  389MOL0     C53560  12.030   3.769   4.573  0.6959  0.7261  0.4452
  389MOL0     N53561  12.095   3.896   4.595  0.0560  0.3986  0.6204
  389MOL0     C53562  12.096   3.963   4.713  0.6717  0.1547  0.0036
  389MOL0     C53563  12.195   4.054   4.703 -0.3931 -0.0741 -0.4559
  389MOL0     C53564  12.214   4.151   4.816  0.1764  0.6513  0.4180
  389MOL0     C53565  12.361   4.199   4.823 -0.0147 -0.2231 -0.0843
  389MOL0     C53566  12.356   4.343   4.858 -0.8558 -0.3862 -0.1307
  389MOL0     C53567  12.494   4.393   4.901 -0.9009  0.3513  0.1276
  389MOL0     O53568  12.583   4.368   4.799  0.0892 -0.9641  0.2761
  389MOL0     C53569  12.712   4.339   4.819 -0.0103 -0.6105  0.0949
  389MOL0     C53570  12.779   4.385   4.940 -0.1580  0.2331 -0.2274
  389MOL0     C53571  12.915   4.373   4.953 -0.5099  0.4944 -0.9327
  389MOL0     C53572  12.987   4.425   5.076 -0.3024 -0.5741  0.3917
  389MOL0     C53573  12.985   4.299   4.852  0.0766 -0.9436  0.1620
  389MOL0     C53574  13.129   4.268   4.867 -0.3104 -0.2892  0.2469
  389MOL0     O53575  13.171   4.210   4.984  0.3375  0.3603  0.0536
  389MOL0     C53576  13.303   4.203   5.003  0.0475 -0.3172 -0.3366
  389MOL0     C53577  13.375   4.112   4.926  0.7344  0.7671 -0.2123
  389MOL0     C53578  13.510   4.103   4.933  1.5795  0.1027 -0.3745
  389MOL0     C53579  13.587   4.175   5.027  0.1087  0.9369  0.3144
  389MOL0     O53580  13.723   4.162   5.039 -0.1970 -0.0187  0.1807
  389MOL0     C53581  13.799   4.290   5.040 -0.8791 -0.5798 -0.3132
  389MOL0     C53582  13.956   4.263   5.047 -0.4607 -0.3650  0.5275
  389MOL0     C53583  13.991   4.175   5.165  0.3072  0.1080 -0.5682
  389MOL0     C53584  14.137   4.164   5.196 -0.6425 -0.0015  0.4130
  389MOL0     C53585  14.162   4.123   5.341  0.6544 -0.0199 -0.1579
  389MOL0     C53586  14.194   3.975   5.358  0.1458 -0.2773 -0.4375
  389MOL0     C53587  14.157   3.921   5.495  0.3807 -0.0781  0.3280
  389MOL0     C53588  14.221   3.780   5.522 -0.4110  0.8301 -0.5311
  389MOL0    Cl53589  14.201   3.747   5.700  0.0138  0.3193 -0.5491
  389MOL0     C53590  13.512   4.260   5.108 -1.1108 -0.8942 -0.7236
  389MOL0     C53591  13.375   4.291   5.090 -0.2168  0.4938 -0.8252
  389MOL0     O53592  13.194   4.284   4.762  0.2355 -0.6780 -0.3457
  389MOL0     C53593  12.923   4.256   4.738 -0.0278  0.6696  0.8075
  389MOL0     C53594  12.788   4.282   4.721  0.4333  0.0611 -0.4203
  389MOL0     N53595  12.254   4.038   4.579  0.1395 -0.8213  0.4605
  389MOL0     N53596  12.177   3.960   4.499  0.0138 -0.5408 -0.4451
  389MOL0     C53597  10.936   3.535   4.569 -0.1603 -0.1119 -0.2656
  389MOL0     C53598  10.815   3.476   4.584 -0.7265  0.0420  0.4612
  389MOL0     C53599  10.484   3.228   4.615 -0.2719  0.5113 -0.9615
  389MOL0     C53600  10.459   3.098   4.652  0.6342  0.3700  0.1178
  389MOL0     C53601  10.328   3.050   4.685  0.4509 -0.2996  0.3985
  389MOL0     C53602  10.219   3.142   4.696 -0.3434 -0.0575  0.4903
  389MOL0     O53603  10.098   3.090   4.738  0.4826  0.5106 -0.4704
  389MOL0     C53604   9.981   3.162   4.707 -0.5550  0.1578  0.0225
  389MOL0     C53605   9.858   3.079   4.734  0.1105  0.3025 -0.3015
  389MOL0     C53606   9.838   3.070   4.882 -0.2574 -0.1495 -0.3016
  389MOL0     C53607   9.712   2.979   4.920  0.0555  0.3698 -0.3907
  389MOL0     C53608   9.588   3.059   4.897 -0.4480 -0.3534 -0.0314
  389MOL0     C53609   9.499   3.131   4.863 -0.0216  0.7936  0.3553
  389MOL0     C53610  10.249   3.276   4.660  0.4566 -0.2708 -0.8197
  389MOL0     C53611  10.377   3.319   4.622  0.0968 -0.6970 -0.3867
  389MOL0     C53612  10.402   3.471   4.597 -0.2099 -0.3990 -0.5127
  389MOL0     H53613  10.799   3.357   4.265  1.1174  0.8247 -1.3861
  389MOL0     H53614  10.994   3.504   4.235 -0.8821  1.2709 -0.1254
  389MOL0     H53615  11.231   3.644   4.606  1.0511  3.7771  1.0594
  389MOL0     H53616  11.135   3.773   4.537  1.2317  0.2950  1.0370
  389MOL0     H53617  11.390   3.647   4.419 -2.5715 -1.7360  0.2620
  389MOL0     H53618  11.326   3.814   4.383  1.2631  0.2581  0.0063
  389MOL0     H53619  11.392   3.897   4.609  2.9333  0.1757  2.3302
  389MOL0     H53620  11.409   3.736   4.668 -1.2177  0.3504  0.0321
  389MOL0     H53621  11.606   3.729   4.475 -0.1227 -0.0688  0.3053
  389MOL0     H53622  11.598   3.904   4.520  0.4247 -1.1026 -1.1788
  389MOL0     H53623  11.673   3.651   4.685  1.1694 -0.0343  0.0517
  389MOL0     H53624  11.593   3.782   4.762  0.4173 -4.5952  0.9439
  389MOL0     H53625  11.793   3.911   4.684  1.4966  0.7575 -1.4691
  389MOL0     H53626  11.848   3.767   4.774 -0.4953  0.5273  0.2882
  389MOL0     H53627  11.855   3.835   4.471  0.3597  1.2349  0.6069
  389MOL0     H53628  11.853   3.665   4.516 -0.1529  0.4970 -1.0048
  389MOL0     H53629  12.048   3.722   4.670 -1.1266  0.6990  0.8112
  389MOL0     H53630  12.079   3.708   4.496 -4.2104 -4.2699  0.6227
  389MOL0     H53631  12.032   3.946   4.799 -1.8764  0.4949 -1.7098
  389MOL0     H53632  12.185   4.109   4.912  1.8528  1.8815  1.5220
  389MOL0     H53633  12.142   4.231   4.796 -0.4432  0.0683  0.2851
  389MOL0     H53634  12.403   4.135   4.901 -1.5876  0.9642  1.8394
  389MOL0     H53635  12.407   4.195   4.724 -0.5118  0.6325 -0.3583
  389MOL0     H53636  12.317   4.404   4.776 -1.5621 -0.9453 -0.2227
  389MOL0     H53637  12.290   4.341   4.945  0.3298  0.1269  0.8131
  389MOL0     H53638  12.496   4.497   4.933 -2.0175  1.5864 -3.3434
  389MOL0     H53639  12.510   4.330   4.989  0.9369 -1.0272 -1.1152
  389MOL0     H53640  12.724   4.427   5.024  1.8774  2.7744 -0.0548
  389MOL0     H53641  12.922   4.486   5.139 -2.8795 -1.0333 -1.6456
  389MOL0     H53642  13.077   4.481   5.047 -1.2707  1.7192  1.5443
  389MOL0     H53643  13.029   4.344   5.136  0.8432  0.6691  1.3093
  389MOL0     H53644  13.319   4.043   4.864 -0.8451 -0.4527  2.4000
  389MOL0     H53645  13.563   4.045   4.859 -0.9587 -0.3782 -1.9541
  389MOL0     H53646  13.784   4.348   4.948 -3.1900 -1.6282 -0.6645
  389MOL0     H53647  13.771   4.354   5.124 -0.4159  0.2286 -0.7545
  389MOL0     H53648  13.996   4.209   4.961 -0.6519  1.1836 -0.5900
  389MOL0     H53649  14.010   4.358   5.049  1.5835 -1.4093 -1.5275
  389MOL0     H53650  13.944   4.079   5.141 -1.2183  1.2589 -2.4560
  389MOL0     H53651  13.941   4.226   5.248  1.1102 -0.6626  0.4048
  389MOL0     H53652  14.185   4.262   5.182  1.6352 -0.8146  1.9035
  389MOL0     H53653  14.186   4.101   5.121  0.2883  1.1410  0.0252
  389MOL0     H53654  14.246   4.177   5.385 -0.2675 -0.5693  2.4559
  389MOL0     H53655  14.077   4.162   5.397 -1.0915  0.4048 -2.9177
  389MOL0     H53656  14.302   3.970   5.342  0.0924  2.6274 -2.4149
  389MOL0     H53657  14.133   3.924   5.283 -1.9030 -1.1010  1.6627
  389MOL0     H53658  14.052   3.893   5.506  0.3877  0.3091  1.4739
  389MOL0     H53659  14.190   3.996   5.567 -0.6651  2.8565 -2.0405
  389MOL0     H53660  14.328   3.779   5.498 -0.4295  2.1198 -0.7454
  389MOL0     H53661  14.167   3.708   5.461  1.2596 -0.0317 -1.0749
  389MOL0     H53662  13.558   4.313   5.191 -0.4986  0.5576 -1.9538
  389MOL0     H53663  13.326   4.366   5.151  0.2575  1.1444 -1.2189
  389MOL0     H53664  12.979   4.202   4.663  1.7247 -0.7206  2.9920
  389MOL0     H53665  12.728   4.250   4.636 -0.4489 -2.4164  1.0433
  389MOL0     H53666  10.991   3.569   4.656  2.3650 -0.4922 -1.5959
  389MOL0     H53667  10.773   3.459   4.682  0.5703  4.0167  1.8890
  389MOL0     H53668  10.540   3.028   4.634 -0.1208 -0.1344 -1.5681
  389MOL0     H53669  10.311   2.946   4.713  0.3457 -0.0032  1.5001
  389MOL0     H53670   9.983   3.251   4.771 -0.1134 -0.3633  0.7457
  389MOL0     H53671   9.977   3.194   4.602  0.0676  0.4520  0.0819
  389MOL0     H53672   9.876   2.982   4.688  2.0984  0.1634  0.6387
  389MOL0     H53673   9.774   3.126   4.684 -1.7944 -1.2946  1.2278
  389MOL0     H53674   9.930   3.019   4.913 -0.7006 -2.7194 -2.7707
  389MOL0     H53675   9.832   3.169   4.928  0.8653  1.9816 -4.2886
  389MOL0     H53676   9.703   2.970   5.029 -1.2368 -2.0627 -0.6363
  389MOL0     H53677   9.717   2.881   4.871 -2.3449  0.4181 -0.8455
  389MOL0     H53678   9.413   3.188   4.832 -0.0627  0.8754  0.6245
  389MOL0     H53679  10.173   3.351   4.676  1.1456  0.2001  0.3272
  389MOL0     H53680  10.486   3.495   4.531 -0.6642  0.7106 -0.7239
  389MOL0     H53681  10.314   3.534   4.579 -1.0801 -1.0641  1.1868
  389MOL0     H53682  10.436   3.510   4.694 -1.1611  1.3103 -0.8103
  390MOL0     O53683   1.969   4.965  10.286 -0.3883  0.3907 -0.2938
  390MOL0     C53684   1.954   4.841  10.272  0.4367  0.1076 -0.0876
  390MOL0     O53685   1.849   4.778  10.317  0.7676 -0.0188 -0.8571
  390MOL0     C53686   1.734   4.849  10.363 -0.8104  0.0255  0.6722
  390MOL0     C53687   1.605   4.821  10.326  0.7421  0.7210 -0.0539
  390MOL0     C53688   1.498   4.898  10.379 -0.7548 -0.8721  0.5527
  390MOL0     C53689   1.512   5.002  10.470  0.2059 -0.7383  0.1056
  390MOL0     O53690   1.399   5.062  10.519  0.5827  0.4387 -0.0799
  390MOL0     C53691   1.395   5.165  10.605  0.0409 -0.4383 -0.3963
  390MOL0     C53692   1.257   5.172  10.661 -0.1751  0.3666 -0.0610
  390MOL0     C53693   1.166   5.243  10.559  0.2678 -0.8588 -0.8789
  390MOL0     C53694   1.144   5.395  10.592 -0.1541  0.0696 -0.0178
  390MOL0     C53695   1.041   5.446  10.496 -0.4090 -0.2320 -0.5866
  390MOL0     C53696   1.036   5.601  10.523 -0.4233 -0.5411 -0.0447
  390MOL0     C53697   0.921   5.664  10.462  0.6996 -0.1610 -0.1149
  390MOL0     C53698   0.935   5.699  10.316  0.7446  0.6564 -0.5568
  390MOL0     N53699   0.945   5.841  10.298  0.2942  0.1927  0.0603
  390MOL0     C53700   1.050   5.921  10.332  0.1278 -0.0990 -0.2360
  390MOL0     C53701   0.997   6.046  10.324 -0.1852  0.3525  0.1054
  390MOL0     C53702   1.086   6.172  10.344 -0.1988 -0.9290 -0.6238
  390MOL0     C53703   0.989   6.296  10.333  0.5918  0.1835  0.0782
  390MOL0     C53704   1.059   6.414  10.401  0.3145  0.4746 -0.0309
  390MOL0     C53705   1.151   6.475  10.295 -0.0820 -0.0586 -1.0805
  390MOL0     O53706   1.070   6.555  10.202 -0.2181 -0.2670  0.2544
  390MOL0     C53707   1.067   6.513  10.077  0.7310  0.2131  0.4097
  390MOL0     C53708   0.948   6.537  10.014 -0.3184 -0.1466 -0.5284
  390MOL0     C53709   0.938   6.510   9.877  0.6514 -0.4161  0.0838
  390MOL0     C53710   0.798   6.537   9.821  0.0468  0.0559  0.7174
  390MOL0     C53711   1.041   6.463   9.798 -1.4799  0.3547 -1.0089
  390MOL0     C53712   1.036   6.433   9.652 -0.3642 -0.3597  1.5109
  390MOL0     O53713   1.153   6.424   9.591 -0.0334  0.2315 -0.4101
  390MOL0     C53714   1.163   6.452   9.457  0.3634 -0.8163  0.4521
  390MOL0     C53715   1.141   6.580   9.406  1.1332 -0.8684  0.3859
  390MOL0     C53716   1.166   6.610   9.270  0.3419 -0.2582 -0.6193
  390MOL0     C53717   1.213   6.514   9.179 -0.3567  0.2452 -0.4529
  390MOL0     O53718   1.249   6.545   9.052 -0.4717 -0.2390  0.1321
  390MOL0     C53719   1.243   6.676   9.004 -0.5229 -0.0222 -0.2781
  390MOL0     C53720   1.277   6.703   8.855  0.4770  0.7678  0.0602
  390MOL0     C53721   1.187   6.636   8.759 -0.3175 -0.4995 -0.4555
  390MOL0     C53722   1.219   6.693   8.615 -0.7053 -0.7579  0.9007
  390MOL0     C53723   1.306   6.609   8.528 -0.5739  0.1531  0.0094
  390MOL0     C53724   1.281   6.634   8.378 -0.6394 -0.4302 -0.4810
  390MOL0     C53725   1.343   6.766   8.328 -0.6458  0.0147 -0.0096
  390MOL0     C53726   1.293   6.779   8.183  0.3455  0.1213  0.5490
  390MOL0    Cl53727   1.356   6.929   8.106  0.3081  0.4823  0.0336
  390MOL0     C53728   1.245   6.390   9.237 -0.5675  0.2858 -0.3459
  390MOL0     C53729   1.234   6.368   9.376  0.3514 -0.7301 -0.2235
  390MOL0     O53730   0.922   6.432   9.590  0.3437  0.7582  0.7814
  390MOL0     C53731   1.154   6.424   9.872 -0.7570 -0.5036 -0.1000
  390MOL0     C53732   1.168   6.459  10.008 -0.3369 -0.3086  0.7483
  390MOL0     N53733   0.863   6.035  10.281 -0.3534  0.1356 -0.1024
  390MOL0     N53734   0.836   5.912  10.257  0.8228 -0.1663  0.2387
  390MOL0     C53735   1.640   5.029  10.509 -0.7681 -0.1548 -0.6352
  390MOL0     C53736   1.752   4.952  10.461  0.0087 -0.3819 -0.0601
  390MOL0     C53737   2.030   4.765  10.167  0.3166  0.1089  0.2965
  390MOL0     C53738   1.980   4.659  10.095  0.1493 -0.1213  0.8312
  390MOL0     C53739   2.052   4.594   9.987  0.0723  0.1446  0.2167
  390MOL0     C53740   2.174   4.641   9.949 -1.0253  0.2427 -0.2527
  390MOL0     O53741   2.226   4.566   9.846 -0.2339  0.6244 -0.2209
  390MOL0     C53742   2.330   4.627   9.773  0.0785  0.9439 -1.1534
  390MOL0     C53743   2.383   4.533   9.668  0.3714 -0.6379  0.3061
  390MOL0     C53744   2.505   4.579   9.584  0.0632  0.0053  0.2797
  390MOL0     C53745   2.638   4.613   9.652 -0.8412 -0.3840 -0.4834
  390MOL0     C53746   2.689   4.497   9.724  0.1204 -0.2159 -1.3170
  390MOL0     C53747   2.731   4.399   9.773 -0.0228  0.7333  0.3479
  390MOL0     C53748   2.222   4.750  10.014 -0.5095 -1.0531  0.0066
  390MOL0     C53749   2.159   4.816  10.122 -0.3143 -0.9840 -0.2665
  390MOL0     C53750   2.237   4.920  10.202  0.9861  0.0718 -0.2622
  390MOL0     H53751   1.568   4.738  10.265 -3.7208  1.9106  0.6514
  390MOL0     H53752   1.399   4.868  10.347  1.1891 -2.4607 -4.9194
  390MOL0     H53753   1.422   5.253  10.546 -3.1055  1.2513  0.4455
  390MOL0     H53754   1.465   5.149  10.687  1.3740  0.8483 -1.2181
  390MOL0     H53755   1.230   5.066  10.668  1.6099 -0.2163 -1.2710
  390MOL0     H53756   1.251   5.222  10.757 -1.0670  1.9080 -0.8782
  390MOL0     H53757   1.187   5.241  10.452  1.3976  2.5317 -0.8405
  390MOL0     H53758   1.077   5.182  10.578  0.4970 -0.4977  1.7691
  390MOL0     H53759   1.104   5.413  10.692  0.8392 -0.4007  0.4806
  390MOL0     H53760   1.236   5.449  10.566 -1.3591  2.0495 -0.3881
  390MOL0     H53761   0.939   5.410  10.514  0.5848 -3.6440 -1.0392
  390MOL0     H53762   1.063   5.420  10.392  0.7056 -1.0865 -0.1511
  390MOL0     H53763   1.037   5.620  10.630  1.7110  1.2325 -0.3042
  390MOL0     H53764   1.130   5.641  10.483  0.3361 -1.2455  0.9846
  390MOL0     H53765   0.910   5.757  10.519  0.0042 -1.0739  1.2983
  390MOL0     H53766   0.832   5.604  10.482 -0.3498  1.1102 -0.8164
  390MOL0     H53767   1.014   5.637  10.274  1.4151  0.2440  1.2126
  390MOL0     H53768   0.847   5.661  10.264  1.2737 -4.3707  1.6225
  390MOL0     H53769   1.150   5.886  10.355 -0.8151 -1.6989  1.7679
  390MOL0     H53770   1.162   6.171  10.266  0.6920 -0.1172  0.2150
  390MOL0     H53771   1.131   6.171  10.443 -2.2536 -0.7982  0.3757
  390MOL0     H53772   0.953   6.299  10.229 -2.0875 -2.1688  0.8083
  390MOL0     H53773   0.897   6.291  10.392 -0.5364 -0.3050 -1.6131
  390MOL0     H53774   0.988   6.494  10.424  0.9885  0.6151  1.7009
  390MOL0     H53775   1.115   6.386  10.490 -1.7112 -1.7409  0.6485
  390MOL0     H53776   1.230   6.535  10.341 -0.2439 -1.3885  1.0698
  390MOL0     H53777   1.211   6.394  10.250 -0.3366 -0.1660 -1.2272
  390MOL0     H53778   0.868   6.588  10.067  0.9348 -1.6518  3.1194
  390MOL0     H53779   0.793   6.590   9.725 -1.8430  0.3086  0.9121
  390MOL0     H53780   0.739   6.595   9.892 -0.0108 -1.2942  1.8176
  390MOL0     H53781   0.750   6.440   9.812 -1.0168  0.5678  0.7483
  390MOL0     H53782   1.111   6.658   9.476  2.6544 -0.1937  0.3264
  390MOL0     H53783   1.163   6.715   9.244  2.0734  0.3610  1.3322
  390MOL0     H53784   1.138   6.701   9.019 -1.0434 -0.4248 -2.7637
  390MOL0     H53785   1.314   6.745   9.052  1.7623 -0.2472 -3.0369
  390MOL0     H53786   1.281   6.811   8.838 -0.5911  0.6613 -0.9733
  390MOL0     H53787   1.380   6.675   8.832  0.3268  1.3968 -1.5374
  390MOL0     H53788   1.079   6.643   8.774 -0.9581 -1.6807 -3.6363
  390MOL0     H53789   1.218   6.531   8.751  1.7450  0.1364 -1.7375
  390MOL0     H53790   1.265   6.792   8.624  1.5794 -1.8847  3.1888
  390MOL0     H53791   1.127   6.700   8.558  1.1885  1.0712 -2.2049
  390MOL0     H53792   1.410   6.623   8.557 -0.4947 -2.7436  1.4204
  390MOL0     H53793   1.278   6.504   8.534 -1.9442  0.5689  1.3389
  390MOL0     H53794   1.174   6.617   8.360 -0.7827 -0.8835  0.7197
  390MOL0     H53795   1.335   6.555   8.325  1.6564  1.4014 -1.0018
  390MOL0     H53796   1.451   6.756   8.327 -0.3968  1.2949  3.0808
  390MOL0     H53797   1.319   6.849   8.394 -0.3151  1.9906 -2.2306
  390MOL0     H53798   1.184   6.785   8.193  0.2473 -2.0922  1.3864
  390MOL0     H53799   1.315   6.690   8.125 -0.3568 -0.9673  1.8939
  390MOL0     H53800   1.306   6.319   9.182  0.2481  1.1159 -0.5383
  390MOL0     H53801   1.275   6.273   9.411  1.3745  0.2463  1.3564
  390MOL0     H53802   1.248   6.404   9.822 -0.0168  1.4543  0.3795
  390MOL0     H53803   1.268   6.442  10.045 -0.4790 -2.1507  0.3757
  390MOL0     H53804   1.669   5.102  10.585  1.8492 -1.6016 -0.1065
  390MOL0     H53805   1.854   4.969  10.495  0.2615 -0.1818 -0.8951
  390MOL0     H53806   1.887   4.612  10.124  0.4279 -1.1053  0.1826
  390MOL0     H53807   2.029   4.498   9.943  0.3694  0.8148 -1.4560
  390MOL0     H53808   2.277   4.712   9.727  0.5552  1.0048 -1.5998
  390MOL0     H53809   2.415   4.656   9.834  0.7731 -3.0142  0.0540
  390MOL0     H53810   2.299   4.519   9.599 -1.0676  2.4800  1.2549
  390MOL0     H53811   2.395   4.434   9.713 -1.6864 -0.8394  0.5154
  390MOL0     H53812   2.523   4.503   9.507 -0.2156 -0.7497  0.9512
  390MOL0     H53813   2.467   4.662   9.523 -0.4656  0.8059  1.6528
  390MOL0     H53814   2.601   4.693   9.717 -0.3391 -1.4250  1.1425
  390MOL0     H53815   2.710   4.648   9.578  0.1871  0.0539  0.7154
  390MOL0     H53816   2.752   4.305   9.819 -0.6511 -0.2281 -1.2467
  390MOL0     H53817   2.316   4.802   9.997 -1.3117  1.1105  1.6223
  390MOL0     H53818   2.180   5.013  10.210  4.6393  2.3995  1.0933
  390MOL0     H53819   2.251   4.882  10.304 -0.2720 -0.9673 -0.4551
  390MOL0     H53820   2.333   4.942  10.155  2.2878  0.5431  2.4202
  391MOL0     O53821   6.839   2.239   3.002 -0.1487 -0.3712  0.0893
  391MOL0     C53822   6.821   2.176   3.096  0.2052  0.9648 -0.3507
  391MOL0     O53823   6.866   2.211   3.222  0.4270  0.5475 -0.2231
  391MOL0     C53824   6.950   2.320   3.232 -0.4093 -0.0256  0.1652
  391MOL0     C53825   6.933   2.427   3.324 -0.1080  0.1275  0.1750
  391MOL0     C53826   7.033   2.540   3.337 -0.3529 -0.2470 -0.1631
  391MOL0     C53827   7.160   2.538   3.267 -0.2681 -0.3114  0.2935
  391MOL0     O53828   7.245   2.646   3.282  0.7344 -0.1709  0.7112
  391MOL0     C53829   7.369   2.613   3.335 -0.5833 -0.4768  0.3366
  391MOL0     C53830   7.465   2.735   3.354  0.2418 -0.1694  0.2321
  391MOL0     C53831   7.582   2.730   3.257  0.6308  0.1784  0.6174
  391MOL0     C53832   7.681   2.611   3.292 -1.0722 -0.5068  0.2399
  391MOL0     C53833   7.822   2.634   3.221  0.0140 -0.0882  0.4850
  391MOL0     C53834   7.888   2.745   3.299  0.8761 -1.1252  0.2276
  391MOL0     C53835   8.037   2.756   3.268  0.5650  0.1204 -0.2690
  391MOL0     C53836   8.098   2.884   3.335  0.6598  0.1451  1.0883
  391MOL0     N53837   8.240   2.915   3.308  0.0517 -0.2627 -0.8468
  391MOL0     C53838   8.306   3.024   3.257 -0.2293  0.4111  0.5883
  391MOL0     C53839   8.439   2.984   3.259  0.5916 -0.8772 -0.5167
  391MOL0     C53840   8.559   3.077   3.235  0.0022 -0.8838 -0.9087
  391MOL0     C53841   8.636   3.070   3.102  0.2736  0.5409  0.0862
  391MOL0     C53842   8.755   3.175   3.087  0.2013  0.1894 -1.0353
  391MOL0     C53843   8.847   3.183   3.209 -0.7926 -0.2939 -0.1131
  391MOL0     O53844   8.908   3.058   3.238  0.1444 -0.6193  0.8861
  391MOL0     C53845   9.017   3.047   3.325 -0.0563 -0.1565 -0.5671
  391MOL0     C53846   9.074   2.923   3.363  0.4565 -0.3863 -0.0348
  391MOL0     C53847   9.189   2.900   3.434  0.0520  0.2342 -0.7274
  391MOL0     C53848   9.241   2.758   3.442  0.5331 -0.0019 -0.1876
  391MOL0     C53849   9.253   3.015   3.478  0.0820  0.2740 -0.7462
  391MOL0     C53850   9.383   3.009   3.555  0.3884 -0.7169 -0.0985
  391MOL0     O53851   9.391   3.099   3.659  0.5408  0.5958  0.0666
  391MOL0     C53852   9.518   3.136   3.691 -0.3422 -0.1239 -0.0295
  391MOL0     C53853   9.586   3.238   3.625  0.1265 -1.3605 -0.4620
  391MOL0     C53854   9.711   3.282   3.650 -0.7248  0.0805 -0.4585
  391MOL0     C53855   9.786   3.224   3.759  0.0171  0.4923  0.2674
  391MOL0     O53856   9.910   3.247   3.792 -0.9199  0.3725  0.7457
  391MOL0     C53857   9.988   3.318   3.690  0.7353  0.2837 -0.5545
  391MOL0     C53858  10.133   3.292   3.723 -0.5808  0.3221 -0.5434
  391MOL0     C53859  10.161   3.146   3.727 -0.5349 -0.2255 -0.2138
  391MOL0     C53860  10.296   3.113   3.794  0.6301 -0.0285 -0.1698
  391MOL0     C53861  10.334   2.970   3.786  0.0854 -1.0583 -0.1209
  391MOL0     C53862  10.470   2.937   3.858  0.1930 -0.5379  0.1993
  391MOL0     C53863  10.514   2.796   3.805  0.3359 -0.6561  0.0070
  391MOL0     C53864  10.643   2.735   3.883  0.1451 -0.1077 -0.1409
  391MOL0    Cl53865  10.784   2.860   3.898  0.0182  0.1758 -0.1253
  391MOL0     C53866   9.719   3.130   3.838 -0.0223 -0.9157 -0.1160
  391MOL0     C53867   9.590   3.084   3.797 -0.4707  1.0782 -0.7542
  391MOL0     O53868   9.482   2.948   3.508  0.2110 -0.5785 -1.0118
  391MOL0     C53869   9.188   3.138   3.463 -0.4777 -0.9883  0.6949
  391MOL0     C53870   9.075   3.159   3.385 -0.3893  0.2057  0.3735
  391MOL0     N53871   8.454   2.869   3.340  0.6475 -0.5435  0.2365
  391MOL0     N53872   8.332   2.822   3.361  0.4146 -0.1089 -0.3689
  391MOL0     C53873   7.168   2.429   3.174 -0.3965  0.9684  0.1044
  391MOL0     C53874   7.076   2.321   3.167 -0.5209  0.0274 -0.8467
  391MOL0     C53875   6.726   2.060   3.088 -0.4097 -0.4625  0.8508
  391MOL0     C53876   6.606   2.079   3.022 -0.4881 -0.1939 -0.0053
  391MOL0     C53877   6.502   1.986   3.026 -0.9581  0.2470  0.0059
  391MOL0     C53878   6.512   1.862   3.088 -0.3357  0.3594 -0.1440
  391MOL0     O53879   6.419   1.761   3.085 -0.1519  0.3368 -0.2226
  391MOL0     C53880   6.441   1.625   3.125 -0.3787  0.6391 -0.0282
  391MOL0     C53881   6.320   1.534   3.091  0.3587 -1.0312 -1.0592
  391MOL0     C53882   6.362   1.402   3.149 -1.2780 -0.2433  0.0861
  391MOL0     C53883   6.297   1.277   3.082  0.1394 -0.9355 -0.0676
  391MOL0     C53884   6.375   1.249   2.965  0.1237 -0.1689 -0.1672
  391MOL0     C53885   6.443   1.209   2.877 -0.0771  0.8531  0.3114
  391MOL0     C53886   6.639   1.839   3.150 -0.1609 -1.3744  0.4024
  391MOL0     C53887   6.743   1.933   3.151  0.1944  0.1298  0.7517
  391MOL0     C53888   6.870   1.897   3.223  0.5757 -0.2001  0.2839
  391MOL0     H53889   6.841   2.430   3.382  2.0205  0.4578  3.8048
  391MOL0     H53890   7.008   2.627   3.396  0.9114 -0.4901  0.7916
  391MOL0     H53891   7.424   2.536   3.280 -2.9212 -1.3583 -0.9530
  391MOL0     H53892   7.357   2.576   3.437 -0.8172 -0.5754  0.2748
  391MOL0     H53893   7.413   2.828   3.329  1.1985  0.7335  1.4272
  391MOL0     H53894   7.488   2.745   3.461 -2.7119  0.6774  0.8695
  391MOL0     H53895   7.539   2.725   3.157  0.7335  2.0088  0.4535
  391MOL0     H53896   7.637   2.824   3.250  2.5221 -0.9074  0.2618
  391MOL0     H53897   7.695   2.593   3.399  1.1578 -1.9822 -0.2319
  391MOL0     H53898   7.639   2.518   3.254 -1.2410 -0.7832  1.0788
  391MOL0     H53899   7.816   2.653   3.114  1.3882 -2.2122 -0.0162
  391MOL0     H53900   7.881   2.545   3.243 -0.9354 -0.4085  1.8872
  391MOL0     H53901   7.835   2.838   3.278  1.9578 -0.1216  1.7733
  391MOL0     H53902   7.887   2.738   3.408  0.1267  3.7469  0.7255
  391MOL0     H53903   8.054   2.776   3.162 -1.1565 -1.4868 -0.9013
  391MOL0     H53904   8.094   2.667   3.297 -0.9459 -1.9711 -3.2238
  391MOL0     H53905   8.045   2.973   3.302  0.8744 -0.6335 -1.5848
  391MOL0     H53906   8.084   2.880   3.443 -0.7239 -0.5547  0.9089
  391MOL0     H53907   8.253   3.112   3.221 -0.7369  0.0124  0.3394
  391MOL0     H53908   8.631   3.056   3.315 -1.6790  1.8964  1.5198
  391MOL0     H53909   8.520   3.178   3.253  2.1752  0.3609 -2.7576
  391MOL0     H53910   8.678   2.970   3.090  0.6673  0.6298  0.6564
  391MOL0     H53911   8.566   3.087   3.019  2.2893 -0.7320 -1.9826
  391MOL0     H53912   8.824   3.160   3.003  2.1740  0.2501  0.5115
  391MOL0     H53913   8.717   3.276   3.068 -0.6367 -0.2605 -1.8506
  391MOL0     H53914   8.919   3.263   3.189  0.8293 -0.8920  2.7639
  391MOL0     H53915   8.793   3.220   3.297 -0.3606 -1.6275  0.7375
  391MOL0     H53916   9.027   2.832   3.328  1.1624 -1.6560  2.1035
  391MOL0     H53917   9.332   2.733   3.498  2.0626 -1.6490 -3.1420
  391MOL0     H53918   9.268   2.718   3.343 -1.1666 -4.9280  1.0479
  391MOL0     H53919   9.154   2.699   3.471 -1.0187  2.0448 -0.4867
  391MOL0     H53920   9.527   3.293   3.551  0.9523  1.5500  0.9091
  391MOL0     H53921   9.748   3.348   3.573 -2.1136 -0.7746 -1.9242
  391MOL0     H53922   9.972   3.284   3.587  1.2269 -1.7295 -0.0148
  391MOL0     H53923   9.969   3.425   3.683 -0.3183  0.0312 -1.9536
  391MOL0     H53924  10.197   3.334   3.645  0.7339 -0.7615 -0.0892
  391MOL0     H53925  10.157   3.337   3.820  2.0872 -1.3336 -0.3365
  391MOL0     H53926  10.155   3.093   3.632  1.5466  0.6309 -0.8640
  391MOL0     H53927  10.088   3.093   3.791  0.3846  0.0382  1.0984
  391MOL0     H53928  10.287   3.148   3.898  2.8942  1.0555 -0.2786
  391MOL0     H53929  10.371   3.177   3.747 -0.8796  1.1291 -1.1271
  391MOL0     H53930  10.251   2.913   3.828 -1.8493  0.4548 -1.7039
  391MOL0     H53931  10.325   2.935   3.682 -4.3480  2.4610 -1.2507
  391MOL0     H53932  10.466   2.950   3.967  3.5406  1.1910  0.2354
  391MOL0     H53933  10.541   3.006   3.813 -1.0237  0.6433  0.0094
  391MOL0     H53934  10.537   2.803   3.698 -0.3015 -3.2740 -0.3652
  391MOL0     H53935  10.436   2.719   3.811 -1.0461  0.8122  2.5656
  391MOL0     H53936  10.690   2.650   3.834  0.9946  0.7035 -0.7727
  391MOL0     H53937  10.611   2.704   3.983 -2.1990 -0.4721 -0.9502
  391MOL0     H53938   9.755   3.079   3.926  0.7316 -2.9931 -1.5699
  391MOL0     H53939   9.540   3.004   3.850  0.5443  0.2147 -1.0555
  391MOL0     H53940   9.242   3.227   3.494  0.7675 -0.6706 -2.0537
  391MOL0     H53941   9.037   3.260   3.371  0.0562  0.2423 -0.6144
  391MOL0     H53942   7.252   2.431   3.106 -0.5754  2.4252 -0.1166
  391MOL0     H53943   7.092   2.240   3.096 -1.4112  0.1584 -1.2074
  391MOL0     H53944   6.583   2.178   2.983  1.7631  0.6793  0.7433
  391MOL0     H53945   6.402   2.016   2.995 -1.0805  0.2762  0.4259
  391MOL0     H53946   6.537   1.596   3.082  0.5835  3.2229  0.1692
  391MOL0     H53947   6.446   1.637   3.234 -2.7537  1.3151  0.0764
  391MOL0     H53948   6.312   1.529   2.982 -0.4194  4.6623 -1.5554
  391MOL0     H53949   6.225   1.570   3.132  0.7247 -0.6175 -0.5635
  391MOL0     H53950   6.472   1.399   3.145 -1.3180 -0.4086 -1.6604
  391MOL0     H53951   6.332   1.394   3.254  2.7537  0.6227  1.5002
  391MOL0     H53952   6.193   1.287   3.047  0.2929 -1.2020 -0.6151
  391MOL0     H53953   6.298   1.190   3.148 -0.3806 -0.9093 -0.0191
  391MOL0     H53954   6.511   1.172   2.804 -0.3712  2.8093 -1.0521
  391MOL0     H53955   6.643   1.747   3.206 -0.4001 -1.3627  0.4428
  391MOL0     H53956   6.866   1.946   3.321 -0.6035  1.5647 -0.6049
  391MOL0     H53957   6.877   1.789   3.232  1.4251 -0.0953  1.2027
  391MOL0     H53958   6.959   1.938   3.174 -1.5032  0.3876 -3.3000
  392MOL0     O53959   5.956   0.176   6.661 -0.1168 -0.2929 -0.8156
  392MOL0     C53960   6.057   0.107   6.644  0.3651 -0.7148 -0.3138
  392MOL0     O53961   6.051  -0.034   6.630  0.1013 -0.2145 -0.3688
  392MOL0     C53962   5.946  -0.117   6.657  0.2960  0.0723 -0.4611
  392MOL0     C53963   5.816  -0.076   6.715  0.0997 -0.6025  0.0243
  392MOL0     C53964   5.734  -0.182   6.749 -0.0621 -0.5340 -0.6942
  392MOL0     C53965   5.762  -0.312   6.735 -0.8771 -0.4541  0.2623
  392MOL0     O53966   5.672  -0.394   6.779  0.5225 -0.5548 -0.5801
  392MOL0     C53967   5.623  -0.494   6.691 -0.5246 -0.6102 -0.4735
  392MOL0     C53968   5.525  -0.590   6.757  0.5248 -0.4799 -0.1637
  392MOL0     C53969   5.598  -0.677   6.864 -0.0822  0.3692  0.8130
  392MOL0     C53970   5.502  -0.793   6.901  0.7366 -0.6645  0.6540
  392MOL0     C53971   5.513  -0.841   7.041 -0.2885  0.2401  0.0972
  392MOL0     C53972   5.487  -0.742   7.156  0.8536 -0.2624  0.1149
  392MOL0     C53973   5.501  -0.797   7.297 -0.2216  0.2322 -0.7695
  392MOL0     C53974   5.633  -0.871   7.322 -0.6626  0.8513 -0.0445
  392MOL0     N53975   5.652  -0.899   7.463 -0.3813 -0.1803  0.2234
  392MOL0     C53976   5.729  -0.835   7.556  0.6666 -0.5615 -0.2281
  392MOL0     C53977   5.709  -0.900   7.675 -0.7879 -0.3464 -0.8187
  392MOL0     C53978   5.738  -0.837   7.816  0.5142  0.7130  0.3469
  392MOL0     C53979   5.885  -0.870   7.862  0.1555 -0.6858 -0.1315
  392MOL0     C53980   5.932  -0.769   7.972 -0.2994 -0.2395  0.0796
  392MOL0     C53981   6.078  -0.793   8.015  0.4770 -0.8692 -0.4487
  392MOL0     O53982   6.122  -0.668   8.077  0.0286  0.1356  0.0709
  392MOL0     C53983   6.253  -0.664   8.115  0.6606 -0.2700 -0.7171
  392MOL0     C53984   6.352  -0.761   8.091  0.0044 -0.3772  0.2676
  392MOL0     C53985   6.490  -0.735   8.124 -0.2618  0.5638  0.0640
  392MOL0     C53986   6.587  -0.840   8.082 -0.0805  0.9120 -0.5935
  392MOL0     C53987   6.530  -0.613   8.179  0.4072  0.7233 -0.9796
  392MOL0     C53988   6.665  -0.565   8.224 -0.1471 -0.1915  0.6253
  392MOL0     O53989   6.655  -0.486   8.331  1.3092 -0.3396 -0.2841
  392MOL0     C53990   6.763  -0.419   8.378  0.5758  0.4720 -0.4976
  392MOL0     C53991   6.860  -0.492   8.452  0.8533  0.1374  0.4420
  392MOL0     C53992   6.978  -0.427   8.497 -0.2288  0.5092  0.0522
  392MOL0     C53993   6.993  -0.291   8.464 -0.7325  0.2151  0.5291
  392MOL0     O53994   7.105  -0.217   8.497  0.7294 -0.2069  0.0234
  392MOL0     C53995   7.137  -0.193   8.633 -0.0785 -0.3551  0.0613
  392MOL0     C53996   7.249  -0.095   8.650 -0.1451 -1.0266 -0.1894
  392MOL0     C53997   7.353  -0.129   8.755  0.3452  0.5771  0.0471
  392MOL0     C53998   7.430   0.005   8.783  0.3143  0.8928 -0.0534
  392MOL0     C53999   7.531  -0.013   8.893 -0.1380 -0.1230  0.0638
  392MOL0     C54000   7.627  -0.126   8.853 -0.8155  0.5149 -1.3817
  392MOL0     C54001   7.741  -0.117   8.947  0.1959  0.2739 -0.0921
  392MOL0     C54002   7.845  -0.216   8.902 -0.7442  0.4405 -0.0538
  392MOL0    Cl54003   7.821  -0.373   8.973  0.7290 -0.0776  0.2972
  392MOL0     C54004   6.894  -0.213   8.395  0.4900 -0.6894  0.9271
  392MOL0     C54005   6.776  -0.281   8.350  0.4236  0.1189 -0.3195
  392MOL0     O54006   6.765  -0.586   8.158 -0.2126 -0.0678 -0.0505
  392MOL0     C54007   6.427  -0.522   8.197 -1.0434  0.0166 -0.6856
  392MOL0     C54008   6.290  -0.541   8.174 -0.7627  0.5392 -0.7579
  392MOL0     N54009   5.619  -1.001   7.646 -0.9793 -1.1530 -0.9330
  392MOL0     N54010   5.594  -1.009   7.519  0.8849 -0.3116  0.1258
  392MOL0     C54011   5.886  -0.346   6.682  0.1331  1.1240  0.1884
  392MOL0     C54012   5.972  -0.252   6.641  0.1276 -0.2082 -0.3405
  392MOL0     C54013   6.195   0.180   6.658  0.8514  0.8227 -0.0849
  392MOL0     C54014   6.306   0.092   6.691  0.4083  0.3010  0.6329
  392MOL0     C54015   6.429   0.155   6.716 -0.3971 -0.5718  0.2436
  392MOL0     C54016   6.446   0.290   6.691 -0.5876 -0.6761  0.0929
  392MOL0     O54017   6.570   0.348   6.693 -0.0200 -0.3567 -1.5419
  392MOL0     C54018   6.684   0.270   6.652  0.9273  0.1243  0.0056
  392MOL0     C54019   6.765   0.228   6.767  0.4421 -0.4125  0.3295
  392MOL0     C54020   6.872   0.329   6.810 -0.2109 -0.4603  0.2952
  392MOL0     C54021   7.000   0.322   6.729  0.0201  0.5721  0.9553
  392MOL0     C54022   7.089   0.426   6.787  0.5414 -0.2799  0.1269
  392MOL0     C54023   7.159   0.506   6.841  0.1966  0.9133  0.3054
  392MOL0     C54024   6.337   0.370   6.656 -0.1297 -0.1971 -0.4381
  392MOL0     C54025   6.212   0.314   6.634  0.2873 -0.5878  0.2182
  392MOL0     C54026   6.105   0.402   6.579  0.2035 -0.3861  0.5223
  392MOL0     H54027   5.780   0.025   6.734  1.3855  0.0583 -0.9109
  392MOL0     H54028   5.652  -0.159   6.817  1.2522 -0.8902  1.0888
  392MOL0     H54029   5.704  -0.555   6.649 -1.9532 -2.0521 -1.2636
  392MOL0     H54030   5.579  -0.442   6.605  0.6768 -1.1125 -1.4179
  392MOL0     H54031   5.431  -0.546   6.792  0.9723 -0.3856  0.9639
  392MOL0     H54032   5.486  -0.659   6.682  1.9519  0.6792 -2.0584
  392MOL0     H54033   5.698  -0.712   6.837 -1.5016 -2.4395 -1.4107
  392MOL0     H54034   5.602  -0.613   6.952 -1.6101  0.7559  0.6297
  392MOL0     H54035   5.398  -0.767   6.880  1.2790  1.3656  0.2310
  392MOL0     H54036   5.521  -0.875   6.831 -1.3353  0.4475 -1.3418
  392MOL0     H54037   5.612  -0.883   7.063 -0.5008  0.6782  2.0911
  392MOL0     H54038   5.452  -0.931   7.056 -3.0001  1.9385 -0.2715
  392MOL0     H54039   5.562  -0.662   7.145  2.2792 -1.8505 -2.6216
  392MOL0     H54040   5.394  -0.688   7.136  0.4178 -0.7782  0.7102
  392MOL0     H54041   5.417  -0.866   7.312 -1.2758  1.7644  0.7101
  392MOL0     H54042   5.486  -0.711   7.362  0.2910  0.3344 -0.7807
  392MOL0     H54043   5.635  -0.965   7.267  0.6281  0.9226 -0.1546
  392MOL0     H54044   5.709  -0.808   7.275 -0.4984  0.2640 -0.5907
  392MOL0     H54045   5.777  -0.743   7.525 -2.7551  0.6722 -2.2893
  392MOL0     H54046   5.662  -0.877   7.883  0.3394 -2.4895 -1.5197
  392MOL0     H54047   5.718  -0.731   7.801 -3.1478 -0.2171 -3.2910
  392MOL0     H54048   5.883  -0.975   7.893 -0.9078 -1.0037 -1.1833
  392MOL0     H54049   5.959  -0.861   7.783  1.1319 -1.5100  0.6555
  392MOL0     H54050   5.919  -0.666   7.939  3.1605  0.1722 -0.3759
  392MOL0     H54051   5.868  -0.782   8.060 -0.2412  3.0601  0.7365
  392MOL0     H54052   6.087  -0.879   8.081  0.5977 -1.7728 -1.6177
  392MOL0     H54053   6.136  -0.823   7.927 -1.0171 -0.8246 -1.4739
  392MOL0     H54054   6.327  -0.856   8.046 -0.5830  0.3137 -0.9120
  392MOL0     H54055   6.650  -0.864   8.169 -2.2997 -0.2966  0.7537
  392MOL0     H54056   6.644  -0.798   7.998  2.6017  0.4015  0.8338
  392MOL0     H54057   6.537  -0.932   8.050  0.2378 -0.6670  3.0105
  392MOL0     H54058   6.855  -0.601   8.455 -1.4716  0.1831 -0.0655
  392MOL0     H54059   7.070  -0.476   8.529 -0.1513 -0.2697 -1.2781
  392MOL0     H54060   7.045  -0.164   8.686 -2.9942 -0.8495 -4.2190
  392MOL0     H54061   7.171  -0.285   8.681 -3.0974 -1.3409  0.5370
  392MOL0     H54062   7.298  -0.071   8.554 -0.6041  2.2875  0.2712
  392MOL0     H54063   7.202  -0.002   8.682 -0.7282 -1.4133  0.0735
  392MOL0     H54064   7.424  -0.206   8.722 -1.1791 -0.1724 -1.6822
  392MOL0     H54065   7.298  -0.163   8.843  0.8046 -2.7021 -0.8018
  392MOL0     H54066   7.360   0.078   8.823 -1.0837 -1.2754  1.7162
  392MOL0     H54067   7.478   0.038   8.690  0.8716 -2.9584 -1.3032
  392MOL0     H54068   7.576   0.085   8.910  1.4290 -0.4610 -1.8385
  392MOL0     H54069   7.486  -0.044   8.988 -0.6034 -0.9197 -0.4000
  392MOL0     H54070   7.664  -0.125   8.750  1.5577  1.9946 -0.6105
  392MOL0     H54071   7.578  -0.222   8.867 -2.7898  1.4620 -1.4622
  392MOL0     H54072   7.706  -0.138   9.048  0.1462 -1.0342 -0.3626
  392MOL0     H54073   7.789  -0.020   8.928  1.1239 -0.4265 -1.5281
  392MOL0     H54074   7.939  -0.170   8.934 -0.7127  0.1237  0.3191
  392MOL0     H54075   7.846  -0.220   8.793  1.1736  0.7536 -0.0833
  392MOL0     H54076   6.911  -0.112   8.358  3.3904 -0.7865  1.7708
  392MOL0     H54077   6.697  -0.225   8.301  0.2319 -0.5254 -0.7611
  392MOL0     H54078   6.455  -0.427   8.242 -0.4494 -0.9767  1.1647
  392MOL0     H54079   6.225  -0.463   8.213 -0.1983 -0.4126  2.3409
  392MOL0     H54080   5.917  -0.450   6.679 -2.7065  0.0253  2.7641
  392MOL0     H54081   6.067  -0.287   6.604 -0.6413 -0.2408 -2.4152
  392MOL0     H54082   6.286  -0.014   6.704 -0.0936  0.3423  0.2386
  392MOL0     H54083   6.505   0.089   6.756 -2.0025 -3.9661 -1.7515
  392MOL0     H54084   6.649   0.179   6.602 -0.4706 -0.6676  2.2445
  392MOL0     H54085   6.743   0.330   6.582  1.0372  0.8419  0.6951
  392MOL0     H54086   6.815   0.137   6.730  0.1551  0.2311 -1.8024
  392MOL0     H54087   6.708   0.190   6.852  0.9259 -1.0151  0.3976
  392MOL0     H54088   6.823   0.427   6.800 -1.5691 -1.2833 -1.9585
  392MOL0     H54089   6.888   0.307   6.916 -0.6294  0.6413  0.6000
  392MOL0     H54090   6.981   0.341   6.623 -0.7228  0.4705  1.0652
  392MOL0     H54091   7.042   0.221   6.733 -2.5015 -0.6178 -0.2300
  392MOL0     H54092   7.239   0.569   6.870  0.6998  0.9383 -1.0570
  392MOL0     H54093   6.360   0.473   6.630  2.8278 -0.1403  1.8296
  392MOL0     H54094   6.057   0.356   6.492  0.9600  1.3979 -0.9046
  392MOL0     H54095   6.025   0.412   6.653 -2.7514 -0.6095 -2.4142
  392MOL0     H54096   6.138   0.501   6.546  0.2505 -0.1045  1.4003
  393MOL0     O54097   8.173   7.596   2.030  0.1713 -0.2292  0.0369
  393MOL0     C54098   8.160   7.570   1.912 -0.2897  0.3497  0.8998
  393MOL0     O54099   8.250   7.500   1.836  0.2376  0.8700 -0.5020
  393MOL0     C54100   8.359   7.434   1.892  0.1351  0.1478 -0.0938
  393MOL0     C54101   8.356   7.374   2.021  0.1545  0.7970  0.0373
  393MOL0     C54102   8.465   7.313   2.080 -0.6902 -0.4652 -0.2047
  393MOL0     C54103   8.583   7.311   2.004  0.3397  1.1027 -1.1313
  393MOL0     O54104   8.701   7.249   2.059  0.2952  0.0124  0.5704
  393MOL0     C54105   8.820   7.249   1.987  0.1811 -0.4150  0.8199
  393MOL0     C54106   8.904   7.385   1.978 -0.8390 -0.4749  0.3860
  393MOL0     C54107   9.052   7.347   1.952  0.4496 -0.7819  0.1938
  393MOL0     C54108   9.128   7.481   1.959 -0.5899 -0.2623 -0.7649
  393MOL0     C54109   9.279   7.438   1.957  0.2616  0.5041  0.3944
  393MOL0     C54110   9.364   7.558   1.965  0.2126  0.1233 -0.3309
  393MOL0     C54111   9.501   7.515   1.907  0.0292  0.1933  0.1145
  393MOL0     C54112   9.601   7.623   1.927 -0.5581  0.6545 -0.7010
  393MOL0     N54113   9.737   7.570   1.902 -0.0685 -0.3815 -0.3482
  393MOL0     C54114   9.835   7.557   1.991 -0.4804  0.8302  0.2173
  393MOL0     C54115   9.940   7.516   1.923  1.1453  0.7882  0.1538
  393MOL0     C54116  10.079   7.470   1.965 -0.4679 -0.1649 -0.4790
  393MOL0     C54117  10.154   7.591   2.026  0.5227  0.1187  1.1663
  393MOL0     C54118  10.291   7.558   2.075 -0.0291  0.0633  0.2953
  393MOL0     C54119  10.311   7.425   2.149 -0.4858 -0.0283 -0.4026
  393MOL0     O54120  10.452   7.402   2.171 -0.2716  0.0129  0.1590
  393MOL0     C54121  10.488   7.297   2.268  0.0728  0.4037  0.3142
  393MOL0     C54122  10.624   7.283   2.291  0.3646  0.6281 -0.5588
  393MOL0     C54123  10.674   7.187   2.378  0.0832  0.0391  0.1501
  393MOL0     C54124  10.825   7.176   2.383 -0.3386  0.4713  0.0587
  393MOL0     C54125  10.583   7.107   2.455  0.0298  0.6773 -0.2154
  393MOL0     C54126  10.620   7.004   2.557  0.2747 -1.0218 -0.0922
  393MOL0     O54127  10.752   6.958   2.557 -0.4459  1.2420 -0.3269
  393MOL0     C54128  10.791   6.874   2.658 -0.6350 -0.0608 -0.6319
  393MOL0     C54129  10.861   6.759   2.621  0.3645 -0.1782  0.0507
  393MOL0     C54130  10.902   6.666   2.721  0.2671 -0.5310  0.4836
  393MOL0     C54131  10.879   6.679   2.853 -0.3462 -0.0848 -0.7231
  393MOL0     O54132  10.917   6.582   2.938  0.1339  0.4034  0.0771
  393MOL0     C54133  10.858   6.574   3.066  0.0966  0.3508 -0.0601
  393MOL0     C54134  10.730   6.495   3.069  0.6007 -0.3052  0.4045
  393MOL0     C54135  10.666   6.476   3.199  0.2804  0.2616  1.2570
  393MOL0     C54136  10.530   6.413   3.187  0.1786  0.8380  0.0838
  393MOL0     C54137  10.450   6.419   3.317 -0.5040  0.3982 -0.5486
  393MOL0     C54138  10.382   6.548   3.351 -0.0038 -0.6999 -1.0477
  393MOL0     C54139  10.290   6.529   3.476 -0.1356  0.0326  0.1942
  393MOL0     C54140  10.242   6.669   3.501 -0.3833  0.8659 -0.0328
  393MOL0    Cl54141  10.098   6.671   3.603 -0.3280 -0.5508 -0.1365
  393MOL0     C54142  10.808   6.793   2.890 -0.1379 -1.5273 -0.0090
  393MOL0     C54143  10.757   6.886   2.794 -0.6089  0.0864 -0.4979
  393MOL0     O54144  10.529   6.966   2.634 -0.3153  0.1483  1.0755
  393MOL0     C54145  10.445   7.120   2.420 -0.2064 -0.2985  0.1004
  393MOL0     C54146  10.396   7.206   2.327  0.2569 -0.3621  0.8532
  393MOL0     N54147   9.908   7.513   1.783 -0.4027  0.6350 -0.8062
  393MOL0     N54148   9.787   7.547   1.775  0.1594 -0.3465  0.0170
  393MOL0     C54149   8.595   7.379   1.886 -0.7477 -0.0808  0.4456
  393MOL0     C54150   8.482   7.438   1.829  0.2666 -0.2471 -0.5425
  393MOL0     C54151   8.043   7.624   1.847 -0.3850 -0.1942 -0.8554
  393MOL0     C54152   7.911   7.582   1.885 -1.7071  0.2429 -1.1551
  393MOL0     C54153   7.801   7.609   1.808 -0.0316  0.2434 -0.5026
  393MOL0     C54154   7.805   7.687   1.696  1.3981  0.1265  0.2582
  393MOL0     O54155   7.686   7.731   1.626 -0.4624 -0.6440  0.2865
  393MOL0     C54156   7.696   7.856   1.561 -0.0022  0.6584 -0.0313
  393MOL0     C54157   7.557   7.911   1.544  0.3348  0.3088  0.2438
  393MOL0     C54158   7.473   7.847   1.437 -0.1344 -1.0929  0.7747
  393MOL0     C54159   7.379   7.738   1.499  0.3734 -0.0530 -0.1641
  393MOL0     C54160   7.259   7.808   1.558  0.0177  0.4539 -0.7321
  393MOL0     C54161   7.148   7.837   1.603  0.4297  0.0408  0.8678
  393MOL0     C54162   7.929   7.720   1.652 -0.7368 -0.4080  0.6129
  393MOL0     C54163   8.049   7.693   1.725  0.2211  0.6949 -0.4067
  393MOL0     C54164   8.184   7.753   1.675 -0.8015 -0.3884 -0.5085
  393MOL0     H54165   8.265   7.365   2.080  1.3901 -0.7545  1.8068
  393MOL0     H54166   8.463   7.271   2.180  1.1539 -2.1434 -0.8058
  393MOL0     H54167   8.807   7.199   1.891 -2.8466  0.1323  0.8279
  393MOL0     H54168   8.884   7.187   2.049  4.0902  2.5539  0.1731
  393MOL0     H54169   8.860   7.446   1.898 -0.1940  2.7169  2.3260
  393MOL0     H54170   8.891   7.432   2.075 -2.9015 -1.5250  0.6801
  393MOL0     H54171   9.091   7.293   2.039  3.1646  1.1252  0.2838
  393MOL0     H54172   9.070   7.301   1.855 -0.7082  0.8213 -0.8335
  393MOL0     H54173   9.090   7.547   1.881  1.1044 -1.1799 -2.4517
  393MOL0     H54174   9.116   7.532   2.055  0.7444  2.7037 -2.0638
  393MOL0     H54175   9.286   7.378   1.866 -4.4477 -1.8479  1.2320
  393MOL0     H54176   9.311   7.366   2.033  1.4657 -0.3081 -0.8323
  393MOL0     H54177   9.330   7.635   1.896  2.6425 -0.2961 -2.1281
  393MOL0     H54178   9.373   7.596   2.067  0.2550 -3.5155  1.1831
  393MOL0     H54179   9.491   7.493   1.800 -2.2580  0.3518  0.2326
  393MOL0     H54180   9.538   7.426   1.959 -0.4992  0.2479  0.5920
  393MOL0     H54181   9.570   7.708   1.864 -1.8756 -0.3092 -1.4095
  393MOL0     H54182   9.605   7.649   2.033  0.0850 -0.4214 -0.4493
  393MOL0     H54183   9.820   7.562   2.099  0.9224 -1.4281  0.5798
  393MOL0     H54184  10.137   7.435   1.879  0.7975 -2.9321  1.3594
  393MOL0     H54185  10.081   7.381   2.028  1.6716 -0.8351 -1.4097
  393MOL0     H54186  10.170   7.666   1.949  2.5796 -1.9590 -0.5717
  393MOL0     H54187  10.087   7.627   2.105 -1.1876  1.2434 -0.6952
  393MOL0     H54188  10.348   7.569   1.982 -2.2865  2.0746 -0.9580
  393MOL0     H54189  10.317   7.641   2.142 -1.4235 -2.1104  3.8167
  393MOL0     H54190  10.255   7.423   2.243 -2.6490  2.4004 -1.5046
  393MOL0     H54191  10.278   7.342   2.085  0.9321 -2.0692  1.3506
  393MOL0     H54192  10.696   7.322   2.219  1.5487  1.2853  0.9254
  393MOL0     H54193  10.867   7.265   2.335  0.1022 -1.2077 -2.9161
  393MOL0     H54194  10.864   7.084   2.338 -1.3010  0.0814 -0.0012
  393MOL0     H54195  10.852   7.173   2.489 -0.2349  1.3842  0.0662
  393MOL0     H54196  10.894   6.742   2.519  2.3180  0.2842  0.5626
  393MOL0     H54197  10.963   6.583   2.687  1.1566 -0.0342  0.8442
  393MOL0     H54198  10.920   6.512   3.132 -0.9275  0.6832  1.2535
  393MOL0     H54199  10.853   6.673   3.113  2.4568 -0.4883  2.2108
  393MOL0     H54200  10.670   6.555   3.001  2.0057 -1.7847 -2.3135
  393MOL0     H54201  10.745   6.403   3.012 -1.3316  0.2098 -1.0350
  393MOL0     H54202  10.653   6.574   3.245  0.0052  1.1952 -0.7264
  393MOL0     H54203  10.737   6.424   3.264  0.8012 -0.2861  0.2735
  393MOL0     H54204  10.542   6.310   3.151 -2.1484  0.8072 -0.7881
  393MOL0     H54205  10.465   6.466   3.117 -0.8896 -0.0610  0.3564
  393MOL0     H54206  10.388   6.329   3.318  1.4775 -1.0437 -0.5178
  393MOL0     H54207  10.527   6.391   3.390 -2.1043  1.4292  1.6339
  393MOL0     H54208  10.324   6.571   3.260  0.8199 -3.8754 -2.5036
  393MOL0     H54209  10.455   6.629   3.361 -1.2914  0.2114  2.2168
  393MOL0     H54210  10.356   6.498   3.558  2.5198  1.1970 -1.3933
  393MOL0     H54211  10.204   6.468   3.447 -1.1309  1.4649  0.0294
  393MOL0     H54212  10.225   6.734   3.415 -2.2331 -0.4720 -0.7407
  393MOL0     H54213  10.325   6.719   3.552  0.5549 -0.4963 -0.1919
  393MOL0     H54214  10.793   6.814   2.995 -2.5503 -0.4363 -0.4857
  393MOL0     H54215  10.707   6.978   2.823 -0.8082  0.2511 -1.3370
  393MOL0     H54216  10.376   7.052   2.469 -0.6991 -0.0097 -0.1900
  393MOL0     H54217  10.290   7.204   2.304  0.6390 -0.3543 -1.0890
  393MOL0     H54218   8.680   7.368   1.819  0.1024 -1.5788  1.6955
  393MOL0     H54219   8.478   7.492   1.734  1.4823  0.9626  0.0651
  393MOL0     H54220   7.899   7.529   1.979 -0.2129 -0.2092 -1.1909
  393MOL0     H54221   7.702   7.584   1.846 -1.6634  4.0485 -1.7179
  393MOL0     H54222   7.756   7.934   1.609  2.7710 -0.3681 -1.5822
  393MOL0     H54223   7.738   7.844   1.460  2.4909 -3.1514  1.2290
  393MOL0     H54224   7.577   8.017   1.526  2.4530 -0.3820 -2.1106
  393MOL0     H54225   7.505   7.916   1.640 -0.9606  2.3410 -0.5042
  393MOL0     H54226   7.408   7.930   1.406  0.8616 -1.4817 -2.7223
  393MOL0     H54227   7.523   7.824   1.343 -0.5619  1.9224 -0.2986
  393MOL0     H54228   7.437   7.674   1.565  0.7164  0.1992 -0.2180
  393MOL0     H54229   7.347   7.676   1.415  0.4602 -1.3171  0.7151
  393MOL0     H54230   7.052   7.864   1.643 -1.2745 -2.4409 -1.1617
  393MOL0     H54231   7.952   7.780   1.564  0.4165  1.0781  1.8598
  393MOL0     H54232   8.248   7.801   1.749  1.1347 -2.0482 -1.0051
  393MOL0     H54233   8.253   7.672   1.649  0.0509  0.6769 -1.6706
  393MOL0     H54234   8.168   7.825   1.594 -3.9744 -0.1108  0.2271
  394MOL0     O54235  10.746   1.459   4.904 -0.2095  0.4085 -0.2152
  394MOL0     C54236  10.794   1.474   4.788  1.4745  0.2461 -0.2343
  394MOL0     O54237  10.913   1.411   4.747  0.3237 -0.2596 -0.0006
  394MOL0     C54238  10.994   1.341   4.822  0.7121  0.0572 -0.7724
  394MOL0     C54239  10.944   1.213   4.855  0.0583 -0.4648  0.3402
  394MOL0     C54240  11.024   1.119   4.925 -0.1615 -0.2201 -0.4863
  394MOL0     C54241  11.157   1.153   4.952  0.0516 -0.2506  0.3421
  394MOL0     O54242  11.239   1.055   5.009 -0.1662  0.0277 -0.2185
  394MOL0     C54243  11.201   0.990   5.135 -0.7426  0.3898  0.7799
  394MOL0     C54244  11.197   1.092   5.261 -0.0269 -0.0964  0.4293
  394MOL0     C54245  11.322   1.176   5.291  0.6050 -1.2214 -0.2369
  394MOL0     C54246  11.421   1.094   5.364  0.6959 -0.4458  0.4441
  394MOL0     C54247  11.535   1.182   5.404 -0.5852 -0.3810 -0.5960
  394MOL0     C54248  11.634   1.108   5.498  0.1016  0.3416  0.5189
  394MOL0     C54249  11.675   0.966   5.454 -0.0575 -0.4665 -0.5111
  394MOL0     C54250  11.744   0.892   5.570 -0.3825  0.0883  0.4705
  394MOL0     N54251  11.768   0.751   5.561  0.4786 -0.5942  1.0457
  394MOL0     C54252  11.831   0.660   5.642  0.0296 -0.0884 -0.3944
  394MOL0     C54253  11.821   0.543   5.577  0.6815 -1.1603 -0.2157
  394MOL0     C54254  11.866   0.415   5.627 -0.2583  1.0525 -0.2273
  394MOL0     C54255  11.749   0.348   5.692  0.2153  0.0550  0.0558
  394MOL0     C54256  11.777   0.213   5.750 -0.0238  1.0952 -0.1236
  394MOL0     C54257  11.906   0.196   5.837  0.1541 -0.8447 -0.4664
  394MOL0     O54258  11.910   0.310   5.937  1.2589 -0.0653  0.1300
  394MOL0     C54259  12.011   0.314   6.018 -0.7831  0.2899 -0.5160
  394MOL0     C54260  12.135   0.244   6.009 -0.2868  0.0252  0.5954
  394MOL0     C54261  12.244   0.267   6.093  0.0092 -1.0005  0.1373
  394MOL0     C54262  12.365   0.201   6.071 -0.3805 -0.5076 -0.1167
  394MOL0     C54263  12.228   0.357   6.201  0.9233 -1.0512 -0.4900
  394MOL0     C54264  12.329   0.383   6.303  0.0654 -0.9600  0.3081
  394MOL0     O54265  12.408   0.283   6.340 -0.3719  0.0154  0.1999
  394MOL0     C54266  12.508   0.311   6.426  0.6719 -0.4984  0.0421
  394MOL0     C54267  12.497   0.290   6.562 -0.3081  0.2851  0.5858
  394MOL0     C54268  12.608   0.323   6.643  0.6319 -0.6416  0.0414
  394MOL0     C54269  12.720   0.384   6.589 -0.9863 -0.0240 -0.5728
  394MOL0     O54270  12.824   0.408   6.681 -0.0746  0.6486  1.0042
  394MOL0     C54271  12.953   0.449   6.638 -0.5660 -0.5350 -0.0225
  394MOL0     C54272  12.961   0.600   6.618  0.1085 -0.5669  0.7410
  394MOL0     C54273  13.117   0.642   6.613  0.4435  0.0926  0.4405
  394MOL0     C54274  13.129   0.799   6.613  0.1667  0.2256  0.2080
  394MOL0     C54275  13.258   0.840   6.555 -0.1995 -0.4850  0.0940
  394MOL0     C54276  13.284   0.982   6.580 -0.1541 -0.3499 -0.3510
  394MOL0     C54277  13.422   1.037   6.531  0.3747  0.6056  0.2584
  394MOL0     C54278  13.443   1.184   6.538 -0.5262 -0.4649 -0.1099
  394MOL0    Cl54279  13.366   1.278   6.410  0.3422  0.0951  0.1677
  394MOL0     C54280  12.722   0.408   6.453 -0.0499  0.3192  0.0674
  394MOL0     C54281  12.617   0.376   6.376  0.1819  0.2443  0.2316
  394MOL0     O54282  12.315   0.491   6.356  0.0560  0.2012  0.6620
  394MOL0     C54283  12.107   0.441   6.205  0.8449  0.0888 -0.7298
  394MOL0     C54284  12.004   0.417   6.115  0.6319 -0.0948  0.8974
  394MOL0     N54285  11.760   0.562   5.457  0.5162 -0.3470  0.1980
  394MOL0     N54286  11.715   0.685   5.450  0.2216  0.0720  0.3973
  394MOL0     C54287  11.198   1.281   4.913 -0.4748 -0.5470  0.0292
  394MOL0     C54288  11.121   1.379   4.853  1.3173 -0.2910  0.1597
  394MOL0     C54289  10.722   1.559   4.682 -0.5208 -0.3417 -0.2744
  394MOL0     C54290  10.796   1.603   4.568 -1.1561  0.0345 -0.5223
  394MOL0     C54291  10.742   1.679   4.468 -0.9063 -0.4075  0.3956
  394MOL0     C54292  10.611   1.731   4.481  1.2307  0.0244 -0.5259
  394MOL0     O54293  10.566   1.828   4.398 -0.6157 -0.7972  0.2422
  394MOL0     C54294  10.531   1.784   4.265 -0.0225  0.7274  0.9121
  394MOL0     C54295  10.475   1.909   4.202  0.4516 -0.0199 -0.3775
  394MOL0     C54296  10.341   1.937   4.268 -0.6311  0.1260 -0.4706
  394MOL0     C54297  10.243   1.820   4.237  0.1061 -0.0639 -0.4753
  394MOL0     C54298  10.106   1.861   4.224  0.6996 -0.4390 -0.5915
  394MOL0     C54299   9.995   1.911   4.226 -0.6084  0.0700  0.2370
  394MOL0     C54300  10.540   1.692   4.593  0.0521 -1.0423  0.0085
  394MOL0     C54301  10.593   1.603   4.690  0.0893  0.2918 -0.0347
  394MOL0     C54302  10.501   1.552   4.798  0.1892 -0.0112 -0.4849
  394MOL0     H54303  10.853   1.172   4.813 -0.1757  1.3234 -1.0319
  394MOL0     H54304  10.970   1.028   4.948 -0.3741 -0.8229 -3.0219
  394MOL0     H54305  11.286   0.923   5.153 -2.7084 -3.5547 -2.8732
  394MOL0     H54306  11.109   0.931   5.131 -0.5751  0.1624  0.2237
  394MOL0     H54307  11.130   1.167   5.218  0.7923 -0.2780 -1.2287
  394MOL0     H54308  11.162   1.047   5.355 -0.5891  2.9058  1.7801
  394MOL0     H54309  11.369   1.206   5.196  2.4490 -1.5650  0.5210
  394MOL0     H54310  11.297   1.268   5.344 -0.4700 -1.3261 -0.5464
  394MOL0     H54311  11.357   1.069   5.449  0.6226 -3.8271 -0.4677
  394MOL0     H54312  11.450   1.004   5.310 -1.5443 -0.9597 -0.0180
  394MOL0     H54313  11.500   1.273   5.453  0.0505  1.0242 -2.6067
  394MOL0     H54314  11.574   1.214   5.307 -2.4776  3.3694 -0.3127
  394MOL0     H54315  11.727   1.165   5.503  1.4302 -1.1473 -3.3387
  394MOL0     H54316  11.590   1.094   5.597 -0.6394  1.5142  0.3772
  394MOL0     H54317  11.743   0.984   5.370  0.7520  1.7661  0.5541
  394MOL0     H54318  11.589   0.907   5.420  0.2756 -0.3623 -1.5583
  394MOL0     H54319  11.846   0.926   5.592 -0.0274 -1.8371  2.1024
  394MOL0     H54320  11.685   0.900   5.662  0.3260  3.5049  0.7908
  394MOL0     H54321  11.879   0.684   5.737 -3.5959 -1.9952  2.1613
  394MOL0     H54322  11.944   0.432   5.702  2.1230 -0.4318 -2.2158
  394MOL0     H54323  11.913   0.350   5.553 -0.9903  0.8462 -0.5110
  394MOL0     H54324  11.706   0.411   5.769 -0.3410  1.7489 -1.5542
  394MOL0     H54325  11.666   0.344   5.621 -0.1792  0.9149  0.4581
  394MOL0     H54326  11.693   0.195   5.818  2.9579 -1.2031  3.3308
  394MOL0     H54327  11.789   0.134   5.675  0.0089  1.1778 -0.2047
  394MOL0     H54328  11.902   0.098   5.885 -1.2424 -0.2564  0.6940
  394MOL0     H54329  11.993   0.216   5.773  0.0698  1.3009  0.0148
  394MOL0     H54330  12.146   0.175   5.926 -0.9160  0.6626 -0.0279
  394MOL0     H54331  12.408   0.147   6.155 -1.8961  0.3628  1.2666
  394MOL0     H54332  12.441   0.265   6.024  2.5040 -2.8199  1.1270
  394MOL0     H54333  12.361   0.127   5.991  1.8237 -0.5250 -0.2903
  394MOL0     H54334  12.408   0.246   6.607  0.3656  1.1579  2.8979
  394MOL0     H54335  12.622   0.307   6.750  0.7944 -0.0046  0.1209
  394MOL0     H54336  13.021   0.417   6.717 -0.4016  1.0207  0.4976
  394MOL0     H54337  12.984   0.404   6.543 -0.1055  2.5269 -1.4269
  394MOL0     H54338  12.913   0.640   6.529  0.3239  0.8883  1.2606
  394MOL0     H54339  12.919   0.654   6.703 -1.5922 -1.6245  0.6194
  394MOL0     H54340  13.147   0.595   6.519 -1.1686  0.1762 -0.1482
  394MOL0     H54341  13.177   0.601   6.695 -2.2824 -3.4298  0.9445
  394MOL0     H54342  13.126   0.828   6.718 -2.7187 -3.4163  1.3710
  394MOL0     H54343  13.049   0.832   6.547  0.7271 -1.2136 -1.2699
  394MOL0     H54344  13.343   0.794   6.606  0.7600  2.6290  1.5385
  394MOL0     H54345  13.261   0.822   6.447 -3.1368  1.9995 -0.5470
  394MOL0     H54346  13.279   0.991   6.689 -0.3406 -1.8369 -0.2197
  394MOL0     H54347  13.199   1.043   6.548 -0.9175 -1.5905 -0.7555
  394MOL0     H54348  13.436   1.007   6.426  1.9953  0.7599  0.4002
  394MOL0     H54349  13.498   0.988   6.593  0.5567 -2.0251 -1.8407
  394MOL0     H54350  13.549   1.207   6.549 -0.2062 -1.5253 -0.7639
  394MOL0     H54351  13.386   1.217   6.625  0.4386 -0.8157  0.6579
  394MOL0     H54352  12.804   0.458   6.402 -0.1912 -0.2731 -0.7748
  394MOL0     H54353  12.615   0.396   6.270  1.4573  1.9717  0.4873
  394MOL0     H54354  12.095   0.512   6.287  2.5639 -0.4685  0.0512
  394MOL0     H54355  11.919   0.483   6.128 -0.1449 -0.6215 -1.1744
  394MOL0     H54356  11.302   1.306   4.935  0.5627 -3.2393 -1.3010
  394MOL0     H54357  11.160   1.474   4.819 -1.1925  1.9270  2.9692
  394MOL0     H54358  10.893   1.556   4.559 -0.3641  1.9552 -3.5838
  394MOL0     H54359  10.796   1.701   4.376 -1.1701  2.6981  0.8734
  394MOL0     H54360  10.627   1.755   4.222 -0.7627 -2.0183  0.8941
  394MOL0     H54361  10.466   1.695   4.261  0.5095  0.2513  2.1645
  394MOL0     H54362  10.468   1.903   4.093 -1.3380  0.9914 -0.3570
  394MOL0     H54363  10.538   1.994   4.228 -0.4078  0.0136  1.7288
  394MOL0     H54364  10.355   1.940   4.376 -3.6295  1.2420 -0.0178
  394MOL0     H54365  10.301   2.033   4.236 -1.2957  0.1176  0.2984
  394MOL0     H54366  10.248   1.749   4.319  1.5713 -2.8419 -2.7952
  394MOL0     H54367  10.268   1.777   4.140 -0.7408  0.0123 -0.7317
  394MOL0     H54368   9.889   1.923   4.224 -1.5118 -4.9092  2.3790
  394MOL0     H54369  10.439   1.728   4.609 -0.0892 -1.6036  0.4016
  394MOL0     H54370  10.398   1.579   4.772  0.0784  0.7798  0.7139
  394MOL0     H54371  10.497   1.443   4.804 -3.2345  0.1018  1.6410
  394MOL0     H54372  10.542   1.595   4.890  0.0051 -0.5308 -0.1563
  395MOL0     O54373  10.636   1.179   9.215  0.1105 -0.5004  0.7635
  395MOL0     C54374  10.662   1.068   9.260 -0.2676  0.5653  0.2112
  395MOL0     O54375  10.788   1.031   9.311  0.1805 -0.5715  0.1829
  395MOL0     C54376  10.887   1.107   9.261 -0.6198 -0.2123 -0.2084
  395MOL0     C54377  10.953   1.189   9.356  0.4544  0.4553  1.7533
  395MOL0     C54378  11.048   1.280   9.311 -0.1201 -0.3482 -0.0916
  395MOL0     C54379  11.093   1.280   9.184  0.1198  0.5122  0.5945
  395MOL0     O54380  11.196   1.362   9.153  0.3011  0.0423  0.1612
  395MOL0     C54381  11.314   1.295   9.102  0.4945  0.1282  0.7699
  395MOL0     C54382  11.388   1.205   9.210 -0.2591 -0.5266  0.1008
  395MOL0     C54383  11.442   1.295   9.326 -0.0374 -0.8164  0.3000
  395MOL0     C54384  11.528   1.206   9.412  0.0424  0.6614 -0.0105
  395MOL0     C54385  11.547   1.256   9.551  0.5108  0.3572  0.0495
  395MOL0     C54386  11.650   1.181   9.642  0.0041 -0.2331 -0.3605
  395MOL0     C54387  11.671   1.033   9.604  0.0451  0.8393  0.9562
  395MOL0     C54388  11.770   0.964   9.700  0.2652  0.6153  0.3435
  395MOL0     N54389  11.913   1.005   9.682  0.0698 -0.2170 -0.0113
  395MOL0     C54390  11.971   1.004   9.565  0.7624  0.1299 -0.2740
  395MOL0     C54391  12.077   1.084   9.577 -0.1568 -0.3169  0.4008
  395MOL0     C54392  12.142   1.111   9.441 -0.3923 -0.2588 -0.0281
  395MOL0     C54393  12.277   1.180   9.447  0.4314  0.0819  0.4829
  395MOL0     C54394  12.386   1.088   9.501 -1.1264  0.4386  0.2245
  395MOL0     C54395  12.520   1.160   9.546  0.4338 -0.3000  0.2360
  395MOL0     O54396  12.615   1.147   9.438 -0.7690 -0.1162  0.7033
  395MOL0     C54397  12.738   1.198   9.472  0.7366 -0.8067  0.2392
  395MOL0     C54398  12.808   1.271   9.376  0.2021 -0.3414 -0.5393
  395MOL0     C54399  12.945   1.312   9.397  0.6652  0.6647 -0.0605
  395MOL0     C54400  12.997   1.366   9.267 -0.0620 -0.9440 -0.2604
  395MOL0     C54401  13.007   1.298   9.530 -0.4968  0.7800 -0.1703
  395MOL0     C54402  13.153   1.331   9.552 -0.1371 -0.4868 -0.5870
  395MOL0     O54403  13.240   1.377   9.460  0.3354 -0.4992 -0.5889
  395MOL0     C54404  13.360   1.402   9.505  0.1591  0.4258  0.8917
  395MOL0     C54405  13.402   1.525   9.542  0.0967 -0.0456  0.0880
  395MOL0     C54406  13.530   1.542   9.592  0.0438  0.5137 -0.5463
  395MOL0     C54407  13.622   1.434   9.593  0.1317  0.3036 -0.7517
  395MOL0     O54408  13.752   1.470   9.632  0.7196 -0.4563 -0.1412
  395MOL0     C54409  13.848   1.364   9.628 -0.4264  0.2801 -0.5341
  395MOL0     C54410  13.972   1.406   9.700 -0.1827  0.5459  0.3113
  395MOL0     C54411  14.077   1.293   9.701  1.0189  0.7328 -0.5810
  395MOL0     C54412  14.199   1.358   9.763 -0.6657 -0.2630  0.0796
  395MOL0     C54413  14.319   1.270   9.801 -0.1749  0.0123 -0.5075
  395MOL0     C54414  14.352   1.155   9.702  0.6186 -0.3710  0.3026
  395MOL0     C54415  14.489   1.107   9.732 -0.2775  0.3249 -0.2812
  395MOL0     C54416  14.507   0.964   9.681  0.4299 -0.2038  0.5139
  395MOL0    Cl54417  14.487   0.953   9.510  0.2829  0.3550  0.1129
  395MOL0     C54418  13.580   1.305   9.545  0.4537  0.1074  0.2137
  395MOL0     C54419  13.452   1.293   9.500 -0.3137 -0.0013 -0.1875
  395MOL0     O54420  13.178   1.308   9.671 -0.1428 -0.9845  0.0192
  395MOL0     C54421  12.928   1.227   9.625  1.3908  0.2247  0.1946
  395MOL0     C54422  12.803   1.169   9.598  0.6912  1.0694  0.4716
  395MOL0     N54423  12.094   1.133   9.705  0.2802  0.0912  0.7355
  395MOL0     N54424  11.992   1.087   9.761 -0.3602 -0.2955  0.4842
  395MOL0     C54425  11.030   1.203   9.088  0.1392  0.1357 -0.4989
  395MOL0     C54426  10.928   1.116   9.132  0.5529  0.4529  1.0769
  395MOL0     C54427  10.561   0.962   9.271 -0.6166  0.0708 -0.0899
  395MOL0     C54428  10.426   1.006   9.266 -0.2606  0.0252 -0.0828
  395MOL0     C54429  10.315   0.919   9.277  0.7027  0.0471  0.1126
  395MOL0     C54430  10.341   0.785   9.285  0.3122 -0.0542 -1.7020
  395MOL0     O54431  10.240   0.692   9.295 -0.6338 -0.0021  0.1957
  395MOL0     C54432  10.095   0.719   9.277 -1.4097  0.4883  0.4542
  395MOL0     C54433  10.001   0.611   9.332 -0.9247  1.1451  0.1525
  395MOL0     C54434   9.854   0.639   9.304 -0.2699 -0.6033 -0.0944
  395MOL0     C54435   9.799   0.680   9.443  0.5236 -0.1077 -0.0928
  395MOL0     C54436   9.671   0.745   9.440 -0.7918  0.4572 -0.4449
  395MOL0     C54437   9.571   0.815   9.441 -0.3429  0.6519  0.3096
  395MOL0     C54438  10.470   0.738   9.295  0.0511  0.4179  0.3566
  395MOL0     C54439  10.581   0.823   9.283  0.6506  0.1885 -0.3675
  395MOL0     C54440  10.719   0.756   9.297  0.1937  0.3231  0.5022
  395MOL0     H54441  10.905   1.193   9.454 -2.8630 -0.5172  0.3378
  395MOL0     H54442  11.095   1.343   9.386 -0.6129  0.1574 -0.1989
  395MOL0     H54443  11.388   1.367   9.067 -1.1140  0.7993 -1.4515
  395MOL0     H54444  11.285   1.244   9.010 -1.5834  1.3344  0.7077
  395MOL0     H54445  11.320   1.133   9.256 -1.4363  1.6105  1.8907
  395MOL0     H54446  11.472   1.151   9.165  0.0427 -2.5220  2.8142
  395MOL0     H54447  11.500   1.382   9.293 -0.2140 -0.7784  0.0843
  395MOL0     H54448  11.351   1.333   9.373  0.5959 -0.6637  1.4417
  395MOL0     H54449  11.489   1.104   9.406  0.9461  0.1203  2.2284
  395MOL0     H54450  11.628   1.204   9.367 -0.4272  2.8021 -1.2723
  395MOL0     H54451  11.450   1.244   9.600  1.4765 -0.1289  1.9234
  395MOL0     H54452  11.584   1.358   9.538 -0.3890  0.9479  1.7781
  395MOL0     H54453  11.745   1.235   9.643  0.7441 -1.4538 -1.3709
  395MOL0     H54454  11.624   1.179   9.748 -1.0299 -1.2568 -0.6118
  395MOL0     H54455  11.691   1.016   9.498 -0.9063  1.9195  0.5897
  395MOL0     H54456  11.573   0.985   9.617 -0.7301  1.3236 -2.2670
  395MOL0     H54457  11.745   0.995   9.802 -4.4015 -1.5005  0.1310
  395MOL0     H54458  11.755   0.856   9.697  0.6313  0.5518  0.8226
  395MOL0     H54459  11.956   0.968   9.463  2.3365  0.2863 -0.5790
  395MOL0     H54460  12.075   1.171   9.379  0.6766 -0.1263 -1.0986
  395MOL0     H54461  12.165   1.015   9.394 -2.8863 -0.6198 -0.6528
  395MOL0     H54462  12.297   1.206   9.343 -0.8210 -1.9752 -0.3528
  395MOL0     H54463  12.263   1.263   9.516 -2.4331  1.4549 -1.5853
  395MOL0     H54464  12.351   1.046   9.596  2.6538 -0.0329  1.5518
  395MOL0     H54465  12.417   1.005   9.436 -2.3300  1.2745 -1.4987
  395MOL0     H54466  12.502   1.266   9.568 -0.8701 -0.4235 -0.1027
  395MOL0     H54467  12.556   1.109   9.636  0.5379  0.8144  0.8464
  395MOL0     H54468  12.768   1.283   9.276  0.9075  1.8296 -0.6155
  395MOL0     H54469  13.032   1.469   9.279 -0.2626 -0.9711  0.6485
  395MOL0     H54470  12.930   1.365   9.180  0.6529 -3.9235 -0.9020
  395MOL0     H54471  13.084   1.303   9.247 -0.3527 -1.6450  0.6157
  395MOL0     H54472  13.327   1.603   9.528 -1.8177 -1.8762 -0.3112
  395MOL0     H54473  13.567   1.638   9.629  2.5164 -0.7699  0.5086
  395MOL0     H54474  13.815   1.269   9.672  2.1047 -0.1452  0.6784
  395MOL0     H54475  13.877   1.349   9.524  0.1643  3.8519 -1.0123
  395MOL0     H54476  14.017   1.484   9.638 -0.6750 -0.4619 -1.3808
  395MOL0     H54477  13.959   1.448   9.801  0.4423 -0.8860  1.0203
  395MOL0     H54478  14.095   1.279   9.594 -2.0548  0.6186 -1.1824
  395MOL0     H54479  14.050   1.199   9.752 -0.3473  1.4432  0.0516
  395MOL0     H54480  14.187   1.426   9.848  2.9093 -2.2033  2.4185
  395MOL0     H54481  14.232   1.425   9.683  1.9087  0.7031  1.8106
  395MOL0     H54482  14.410   1.331   9.807  0.7987 -1.4297  0.0436
  395MOL0     H54483  14.290   1.216   9.891  0.8223 -0.1783 -0.2866
  395MOL0     H54484  14.354   1.175   9.595  0.4273 -0.0009  0.3654
  395MOL0     H54485  14.278   1.075   9.711  0.1986 -0.0612 -0.3091
  395MOL0     H54486  14.505   1.101   9.840  0.6987 -1.0232 -0.4742
  395MOL0     H54487  14.555   1.174   9.676 -0.5499  4.4140  3.7508
  395MOL0     H54488  14.429   0.896   9.717  1.7556 -2.6599 -0.9813
  395MOL0     H54489  14.609   0.930   9.702  0.2507  0.3736  2.5167
  395MOL0     H54490  13.641   1.216   9.541  0.4189 -0.0653  2.4844
  395MOL0     H54491  13.420   1.192   9.475  2.7293 -0.3988 -3.2157
  395MOL0     H54492  12.967   1.216   9.726  0.2257 -1.3434  0.5019
  395MOL0     H54493  12.754   1.109   9.674 -1.4125 -0.0213 -1.6105
  395MOL0     H54494  11.048   1.187   8.983 -0.7392 -2.9249 -0.2922
  395MOL0     H54495  10.883   1.059   9.051  1.3163 -1.2133  1.7810
  395MOL0     H54496  10.409   1.111   9.244  2.8657  0.3290 -1.7067
  395MOL0     H54497  10.219   0.965   9.254  0.6508  0.0577  0.3561
  395MOL0     H54498  10.073   0.815   9.325  1.6963  1.6084 -0.1130
  395MOL0     H54499  10.077   0.740   9.171 -0.6523  1.3201  0.4735
  395MOL0     H54500  10.016   0.589   9.438 -0.8434  0.1541 -0.0531
  395MOL0     H54501  10.031   0.524   9.272  3.5248  3.8554 -2.0852
  395MOL0     H54502   9.847   0.724   9.236 -2.2911 -0.8575 -0.2424
  395MOL0     H54503   9.793   0.562   9.257 -0.3741 -0.9012  0.5185
  395MOL0     H54504   9.870   0.750   9.490 -2.1766  0.5926  3.2944
  395MOL0     H54505   9.774   0.595   9.505  0.3344  0.8890  1.2385
  395MOL0     H54506   9.488   0.881   9.426 -0.4239  0.3454 -0.6306
  395MOL0     H54507  10.494   0.634   9.312  0.6648  0.5319  0.2150
  395MOL0     H54508  10.724   0.666   9.236 -2.8142  2.1167 -2.8283
  395MOL0     H54509  10.793   0.819   9.246 -1.1170  2.2014  0.8076
  395MOL0     H54510  10.754   0.746   9.400  1.0372 -2.9205 -0.0175
  396MOL0     O54511   9.161  10.397   1.928 -0.4064  0.2151 -0.6218
  396MOL0     C54512   9.163  10.320   2.020  0.3340 -0.4092  0.2721
  396MOL0     O54513   9.276  10.286   2.084 -0.3255 -0.5061  0.4455
  396MOL0     C54514   9.393  10.321   2.018 -0.1966  0.3340  0.3834
  396MOL0     C54515   9.488  10.392   2.086 -0.0025 -0.0528 -0.1649
  396MOL0     C54516   9.615  10.420   2.036  0.1319  0.2138 -0.4930
  396MOL0     C54517   9.646  10.383   1.906 -0.2330  0.9345 -0.1659
  396MOL0     O54518   9.767  10.433   1.853 -0.5764  0.4658  0.4584
  396MOL0     C54519   9.832  10.344   1.762  0.2419  0.1589  0.4730
  396MOL0     C54520   9.976  10.396   1.747  0.3066 -0.6430 -0.2682
  396MOL0     C54521  10.045  10.376   1.879 -0.3792 -0.7276  0.3157
  396MOL0     C54522  10.195  10.410   1.878  0.0771  0.7419 -0.2030
  396MOL0     C54523  10.264  10.359   2.006  0.8822  0.1990 -0.4108
  396MOL0     C54524  10.419  10.382   1.996  0.3097  0.0914  0.0697
  396MOL0     C54525  10.500  10.369   2.126  0.3259  0.7508 -0.9405
  396MOL0     C54526  10.643  10.362   2.100  1.0239  0.6547 -0.6806
  396MOL0     N54527  10.721  10.328   2.220 -0.9224  0.1162  0.5985
  396MOL0     C54528  10.694  10.368   2.344  0.1316  0.1927  0.0828
  396MOL0     C54529  10.804  10.327   2.412 -0.1457 -0.5455  0.8109
  396MOL0     C54530  10.838  10.359   2.558 -0.3200  0.1523 -0.3864
  396MOL0     C54531  10.924  10.487   2.588  0.0582 -0.6728 -0.1029
  396MOL0     C54532  11.063  10.477   2.514 -0.0799  0.6898  0.0033
  396MOL0     C54533  11.147  10.587   2.569  0.1721 -0.1980 -0.4030
  396MOL0     O54534  11.271  10.581   2.495  0.0651  0.0979 -0.1555
  396MOL0     C54535  11.380  10.650   2.533 -0.2518  0.4364  0.0178
  396MOL0     C54536  11.495  10.615   2.465  0.0684 -0.6727 -0.2953
  396MOL0     C54537  11.619  10.668   2.503 -0.2719 -1.0695  0.3165
  396MOL0     C54538  11.732  10.625   2.424 -0.1673  1.0674 -0.0422
  396MOL0     C54539  11.627  10.762   2.607  0.1178 -0.3700 -0.6531
  396MOL0     C54540  11.757  10.829   2.659  0.4643  0.7141 -0.0441
  396MOL0     O54541  11.873  10.822   2.583 -1.1033  0.3700 -0.0434
  396MOL0     C54542  12.003  10.830   2.637 -0.4795 -0.0259 -0.2579
  396MOL0     C54543  12.107  10.858   2.548 -0.2186 -0.9312 -0.1016
  396MOL0     C54544  12.237  10.883   2.595 -0.5829  0.2418 -0.1393
  396MOL0     C54545  12.272  10.879   2.731 -0.0983 -0.1772  0.4097
  396MOL0     O54546  12.391  10.927   2.776  0.6435  0.7892 -0.2222
  396MOL0     C54547  12.498  10.829   2.782 -0.5499  0.2753  0.0868
  396MOL0     C54548  12.619  10.915   2.822 -0.7595  0.0443  0.1778
  396MOL0     C54549  12.754  10.840   2.806 -0.4971  0.9650  0.0022
  396MOL0     C54550  12.850  10.903   2.911  0.0246 -0.3709 -0.3980
  396MOL0     C54551  12.987  10.844   2.892 -1.0159 -0.8592 -0.5025
  396MOL0     C54552  13.050  10.808   3.031 -0.3819 -0.0276  0.0968
  396MOL0     C54553  13.085  10.934   3.112  0.8786  0.3554 -0.1553
  396MOL0     C54554  13.152  10.916   3.245  0.3147  0.9102  0.1833
  396MOL0    Cl54555  13.181  11.066   3.319  0.4697 -0.3041  0.1016
  396MOL0     C54556  12.168  10.838   2.821 -0.6437 -0.0223 -0.0424
  396MOL0     C54557  12.038  10.808   2.774 -0.0107 -0.3793 -0.7465
  396MOL0     O54558  11.741  10.893   2.764  0.3776 -0.1285 -0.2420
  396MOL0     C54559  11.511  10.800   2.663  0.1329 -0.6858 -0.2494
  396MOL0     C54560  11.392  10.741   2.638  0.6101 -0.0453  0.5441
  396MOL0     N54561  10.880  10.250   2.326 -0.4637 -0.5052 -0.1822
  396MOL0     N54562  10.832  10.260   2.207 -0.3614 -0.1877 -0.1402
  396MOL0     C54563   9.556  10.300   1.825 -0.1788 -0.3203  0.0874
  396MOL0     C54564   9.430  10.271   1.889  0.9275 -0.7312  0.0229
  396MOL0     C54565   9.045  10.229   2.051 -0.0873  0.3534 -0.0125
  396MOL0     C54566   8.939  10.232   1.959 -0.1851  0.2246 -0.7279
  396MOL0     C54567   8.824  10.168   1.970  0.6024  1.1180  0.4035
  396MOL0     C54568   8.802  10.084   2.073 -0.1397 -0.1590 -0.1200
  396MOL0     O54569   8.694   9.997   2.087  0.3415  0.4197 -0.1723
  396MOL0     C54570   8.600   9.983   1.977 -0.7750 -0.8548  0.4587
  396MOL0     C54571   8.490   9.896   2.027  0.1179  0.1033  0.4167
  396MOL0     C54572   8.421   9.971   2.146 -0.3776  0.0653 -0.6736
  396MOL0     C54573   8.282   9.926   2.173  1.7357  0.4861 -0.1476
  396MOL0     C54574   8.223   9.988   2.290 -0.0562 -0.0918 -0.1913
  396MOL0     C54575   8.165  10.049   2.376 -0.0976  0.2463  0.9326
  396MOL0     C54576   8.903  10.088   2.181 -0.0611  0.0270  0.8603
  396MOL0     C54577   9.025  10.149   2.163 -0.9770  0.5497  0.6034
  396MOL0     C54578   9.128  10.150   2.277  0.4573  1.3012 -0.2435
  396MOL0     H54579   9.456  10.427   2.184  0.9216  0.0507  0.1116
  396MOL0     H54580   9.691  10.468   2.096  0.6204 -2.3051  1.0636
  396MOL0     H54581   9.776  10.359   1.670 -2.3166  0.0724  1.9349
  396MOL0     H54582   9.821  10.242   1.799 -1.1529 -0.1691 -0.7864
  396MOL0     H54583  10.045  10.348   1.678  1.6683  1.4938 -0.5057
  396MOL0     H54584   9.967  10.502   1.719 -1.2141 -0.8979 -0.8427
  396MOL0     H54585  10.015  10.430   1.969  0.5219  1.6308 -0.7307
  396MOL0     H54586  10.043  10.268   1.898  1.3144 -1.0440 -1.0810
  396MOL0     H54587  10.242  10.341   1.808 -2.8559 -1.3845 -0.2796
  396MOL0     H54588  10.226  10.513   1.858 -0.5281  0.7192 -1.3612
  396MOL0     H54589  10.233  10.255   2.022 -0.5695  0.2398 -2.5241
  396MOL0     H54590  10.220  10.412   2.092  0.8671  0.4117 -0.5490
  396MOL0     H54591  10.465  10.302   1.936 -0.7122 -1.1398  0.8841
  396MOL0     H54592  10.435  10.481   1.952 -1.9151 -0.2935 -1.8245
  396MOL0     H54593  10.463  10.279   2.176  1.0385 -0.5069 -2.6209
  396MOL0     H54594  10.474  10.452   2.192  0.1532 -0.2928  0.3526
  396MOL0     H54595  10.656  10.286   2.023  0.6637 -2.4302  2.0717
  396MOL0     H54596  10.682  10.458   2.066  0.2133  0.4051 -2.4052
  396MOL0     H54597  10.603  10.418   2.376 -0.5805 -1.0231 -0.0107
  396MOL0     H54598  10.897  10.275   2.595 -0.9462  0.8961  2.5289
  396MOL0     H54599  10.736  10.356   2.597 -0.2596 -0.6279 -0.2923
  396MOL0     H54600  10.879  10.583   2.561  2.0636  0.3647  0.0730
  396MOL0     H54601  10.945  10.492   2.696  2.4024  2.9228 -0.5364
  396MOL0     H54602  11.105  10.382   2.549 -1.7923  0.2309  0.9473
  396MOL0     H54603  11.058  10.478   2.405 -2.5783  0.4653  0.0559
  396MOL0     H54604  11.109  10.686   2.542  0.5511 -0.3461 -1.5219
  396MOL0     H54605  11.163  10.568   2.676 -1.9993 -0.4272 -0.0707
  396MOL0     H54606  11.475  10.552   2.379 -5.4573  1.8855 -1.3382
  396MOL0     H54607  11.768  10.716   2.376  0.2426  1.2873  0.6692
  396MOL0     H54608  11.690  10.569   2.340  0.5728 -1.0429  0.9295
  396MOL0     H54609  11.815  10.565   2.464 -0.0042  0.0106 -1.8671
  396MOL0     H54610  12.080  10.858   2.442 -2.2349 -2.8443  0.3458
  396MOL0     H54611  12.319  10.916   2.533 -1.0568 -0.4741 -1.1664
  396MOL0     H54612  12.464  10.760   2.859 -1.4013  1.3122  0.6703
  396MOL0     H54613  12.518  10.784   2.684 -1.6686  0.5376 -0.2781
  396MOL0     H54614  12.613  11.001   2.756  3.7326  1.3407  1.1211
  396MOL0     H54615  12.605  10.957   2.922 -1.0559 -0.0761  0.1887
  396MOL0     H54616  12.790  10.850   2.703 -2.1891  0.9270 -0.6300
  396MOL0     H54617  12.755  10.734   2.831  4.0019  0.8807  0.3132
  396MOL0     H54618  12.802  10.874   3.005  1.2372 -1.0281  0.0373
  396MOL0     H54619  12.846  11.012   2.908  1.3010 -0.1889  2.0758
  396MOL0     H54620  12.984  10.757   2.826  1.2426  0.0577 -1.9491
  396MOL0     H54621  13.050  10.917   2.840 -0.2654 -0.0968  1.3910
  396MOL0     H54622  13.140  10.747   3.016 -1.1833 -1.4161  0.6795
  396MOL0     H54623  12.983  10.738   3.082 -0.7030  0.8541  0.9051
  396MOL0     H54624  12.998  11.001   3.114 -0.2764 -0.9372 -2.2447
  396MOL0     H54625  13.156  10.985   3.047  0.7343  1.5359  0.5995
  396MOL0     H54626  13.247  10.868   3.218  0.2517  0.2809  1.0360
  396MOL0     H54627  13.099  10.843   3.307  0.8999  0.7638  0.5172
  396MOL0     H54628  12.183  10.814   2.926 -0.8027  0.6056  0.1263
  396MOL0     H54629  11.966  10.759   2.839  0.9334  1.0903  1.5362
  396MOL0     H54630  11.507  10.876   2.740 -0.4661  0.4608 -1.3871
  396MOL0     H54631  11.307  10.761   2.702  1.6370  2.4542  1.2609
  396MOL0     H54632   9.570  10.255   1.727 -0.2538 -0.6048  0.2036
  396MOL0     H54633   9.363  10.201   1.841 -2.2406  2.0660  0.0487
  396MOL0     H54634   8.950  10.298   1.874 -1.2590 -2.3237 -3.0112
  396MOL0     H54635   8.755  10.174   1.887  0.5892 -0.6113  0.2536
  396MOL0     H54636   8.562  10.082   1.951  0.4080 -0.3600  0.5395
  396MOL0     H54637   8.659   9.937   1.897  1.2243  1.0628  0.7375
  396MOL0     H54638   8.538   9.806   2.066  2.0081  0.4564 -0.9972
  396MOL0     H54639   8.425   9.871   1.942  4.5233  3.2143 -4.4771
  396MOL0     H54640   8.467   9.966   2.246 -2.2823 -0.4496  0.2160
  396MOL0     H54641   8.419  10.078   2.121  0.2760 -0.0457 -1.2138
  396MOL0     H54642   8.283   9.816   2.171 -0.0687  0.4188  0.2809
  396MOL0     H54643   8.214   9.962   2.095  1.8013  2.3392  0.5991
  396MOL0     H54644   8.106  10.088   2.457  0.0849 -1.2962  1.8484
  396MOL0     H54645   8.897  10.044   2.280  3.4095 -0.0085  1.1655
  396MOL0     H54646   9.223  10.106   2.246 -0.7090 -1.6673  0.0854
  396MOL0     H54647   9.147  10.246   2.325  0.0727  0.9648  0.6018
  396MOL0     H54648   9.102  10.086   2.362  0.1169  2.4257  0.5272
  397MOL0     O54649   6.237   4.739   6.927  0.3787  0.2491 -0.3653
  397MOL0     C54650   6.259   4.652   6.844 -0.0330  0.0529  0.4977
  397MOL0     O54651   6.163   4.582   6.770 -0.7457  0.0681  0.3040
  397MOL0     C54652   6.033   4.629   6.758  1.1435 -0.1475  0.5447
  397MOL0     C54653   5.991   4.682   6.636 -0.0279 -0.0431 -0.9780
  397MOL0     C54654   5.862   4.744   6.617  0.5286  0.6914 -0.2737
  397MOL0     C54655   5.764   4.741   6.714 -0.8830  0.2544  0.4467
  397MOL0     O54656   5.643   4.793   6.689 -0.8473 -0.5370 -0.2082
  397MOL0     C54657   5.529   4.708   6.707  0.3721  0.5345  0.1734
  397MOL0     C54658   5.426   4.728   6.596 -0.0475 -0.1109 -0.7981
  397MOL0     C54659   5.469   4.645   6.472 -0.3972  0.4680 -0.7336
  397MOL0     C54660   5.423   4.709   6.345 -0.8763  0.4987  0.0690
  397MOL0     C54661   5.268   4.704   6.348  0.2897  0.3786 -0.8301
  397MOL0     C54662   5.230   4.742   6.212  0.7669  0.5689  0.8054
  397MOL0     C54663   5.241   4.887   6.166  1.1280  0.7981 -0.9429
  397MOL0     C54664   5.152   4.905   6.044 -0.3322 -0.0846  0.3147
  397MOL0     N54665   5.180   5.039   5.983  0.5074 -0.1936  0.2303
  397MOL0     C54666   5.268   5.067   5.886 -0.1744 -0.2777  0.4206
  397MOL0     C54667   5.292   5.192   5.914 -0.4196  0.2973 -0.6323
  397MOL0     C54668   5.401   5.268   5.839 -0.2047  0.7177  0.0607
  397MOL0     C54669   5.531   5.304   5.925 -0.4631  0.1101  0.1408
  397MOL0     C54670   5.629   5.386   5.835  0.3031  0.7078  0.3984
  397MOL0     C54671   5.733   5.463   5.911  0.4965 -0.1432 -0.1664
  397MOL0     O54672   5.768   5.403   6.041 -0.2463 -0.7338  0.4003
  397MOL0     C54673   5.857   5.465   6.127  0.5169  0.2085  0.9556
  397MOL0     C54674   5.890   5.391   6.234 -0.3804 -0.3113 -0.9997
  397MOL0     C54675   5.985   5.434   6.330  0.7643 -0.7484 -0.0856
  397MOL0     C54676   6.017   5.344   6.448 -0.4466  0.1688  0.3640
  397MOL0     C54677   6.042   5.565   6.316  0.0777  0.2020 -0.5889
  397MOL0     C54678   6.152   5.616   6.401  0.5396 -0.1312 -0.4446
  397MOL0     O54679   6.151   5.757   6.418 -0.2145  0.0799 -0.2657
  397MOL0     C54680   6.259   5.834   6.442 -0.5239 -0.2352 -0.1934
  397MOL0     C54681   6.356   5.799   6.546 -0.0456  0.7928 -0.4535
  397MOL0     C54682   6.468   5.879   6.576 -0.3335  0.4001  1.0124
  397MOL0     C54683   6.504   5.990   6.498 -0.3181  0.7420 -0.0065
  397MOL0     O54684   6.618   6.063   6.522 -0.8039 -0.9428 -1.1588
  397MOL0     C54685   6.637   6.116   6.654  0.3241  0.4458  0.0801
  397MOL0     C54686   6.744   6.226   6.647 -0.3696 -0.2529 -0.1917
  397MOL0     C54687   6.880   6.174   6.632 -0.3122 -0.0165  0.4647
  397MOL0     C54688   6.976   6.289   6.648  0.5805 -0.4009  0.1898
  397MOL0     C54689   7.106   6.236   6.605 -0.2608 -0.4765  0.1459
  397MOL0     C54690   7.127   6.215   6.459 -1.0659  0.5027 -0.5318
  397MOL0     C54691   7.267   6.150   6.427 -0.1130  0.1191 -0.3063
  397MOL0     C54692   7.375   6.248   6.369 -0.5696 -0.2767 -0.7658
  397MOL0    Cl54693   7.427   6.374   6.498  0.1652 -0.6906 -0.0282
  397MOL0     C54694   6.415   6.023   6.398  0.7190  0.1931 -0.1153
  397MOL0     C54695   6.300   5.950   6.367  0.7999  0.0105 -0.4523
  397MOL0     O54696   6.241   5.538   6.447 -0.4068  0.9347 -0.2853
  397MOL0     C54697   5.995   5.647   6.214 -0.0133  0.7284 -0.2203
  397MOL0     C54698   5.909   5.595   6.120 -0.2110 -0.6757  0.1990
  397MOL0     N54699   5.196   5.244   5.997  0.2138  0.0999  0.0042
  397MOL0     N54700   5.119   5.154   6.032  0.0859  0.1520  0.7346
  397MOL0     C54701   5.802   4.677   6.835 -0.1975 -0.3130  0.0417
  397MOL0     C54702   5.935   4.616   6.855  0.5961 -0.9208 -0.0913
  397MOL0     C54703   6.395   4.600   6.830  0.4902 -0.5377 -0.0908
  397MOL0     C54704   6.428   4.536   6.709  0.6084 -0.4505 -0.2305
  397MOL0     C54705   6.553   4.479   6.684 -0.4284  0.1530  0.6284
  397MOL0     C54706   6.649   4.467   6.781 -0.3924  0.0793 -0.7401
  397MOL0     O54707   6.771   4.410   6.748 -0.2024 -1.1176  0.0913
  397MOL0     C54708   6.833   4.334   6.853  0.6347  0.0978 -0.3829
  397MOL0     C54709   6.755   4.216   6.919 -0.3580 -0.4741  0.7155
  397MOL0     C54710   6.842   4.093   6.946 -0.9342  0.3476 -0.6172
  397MOL0     C54711   6.763   3.968   6.975  0.9185  0.1516 -0.3780
  397MOL0     C54712   6.650   3.983   7.065  0.3235 -0.3715  0.2407
  397MOL0     C54713   6.557   4.009   7.149 -0.1085 -0.2081  1.5156
  397MOL0     C54714   6.626   4.535   6.897  0.1192  0.8749 -0.1501
  397MOL0     C54715   6.500   4.593   6.928  0.3669 -0.3781  0.7557
  397MOL0     C54716   6.496   4.678   7.050 -0.4135 -0.4111  0.5284
  397MOL0     H54717   6.070   4.687   6.563  2.6554 -2.5280  1.4953
  397MOL0     H54718   5.836   4.806   6.532 -2.9443  0.3108  0.3853
  397MOL0     H54719   5.490   4.749   6.801  2.1005  0.5264  0.9399
  397MOL0     H54720   5.544   4.601   6.724 -0.3482  0.4780  0.5175
  397MOL0     H54721   5.325   4.711   6.635  0.3195  1.2056  0.8767
  397MOL0     H54722   5.429   4.833   6.564 -0.7226 -0.4490 -2.0135
  397MOL0     H54723   5.577   4.649   6.460 -0.0533  1.7524  2.1787
  397MOL0     H54724   5.440   4.540   6.482  1.0796  0.0649 -0.5779
  397MOL0     H54725   5.463   4.809   6.321  1.0183 -0.1754  0.2372
  397MOL0     H54726   5.467   4.642   6.271 -1.6296 -1.1733  1.0996
  397MOL0     H54727   5.230   4.779   6.417 -0.2428  0.8408 -1.6182
  397MOL0     H54728   5.238   4.603   6.377 -0.5165 -0.2444 -3.5208
  397MOL0     H54729   5.280   4.683   6.135 -0.6922 -0.4795  0.6253
  397MOL0     H54730   5.128   4.711   6.185  1.3143 -0.6269  0.0275
  397MOL0     H54731   5.339   4.926   6.140  1.0224  0.3727 -2.0124
  397MOL0     H54732   5.205   4.944   6.252  2.3876  0.1392  0.0396
  397MOL0     H54733   5.162   4.822   5.974  3.2887 -1.9553  2.7442
  397MOL0     H54734   5.049   4.908   6.082  0.3433  0.3639  2.2205
  397MOL0     H54735   5.335   5.010   5.823  0.3742  2.8676 -2.1005
  397MOL0     H54736   5.352   5.357   5.798  0.4016  0.7953 -0.4998
  397MOL0     H54737   5.424   5.218   5.744 -1.1477  0.6542 -0.1455
  397MOL0     H54738   5.505   5.362   6.014 -0.7272 -1.0730  0.8542
  397MOL0     H54739   5.580   5.213   5.963 -3.7566 -2.5196 -1.4174
  397MOL0     H54740   5.680   5.317   5.767  0.6315 -0.7792  2.0795
  397MOL0     H54741   5.572   5.451   5.768  1.1462  0.9199 -0.1295
  397MOL0     H54742   5.823   5.492   5.856  1.3904 -0.9738  0.8252
  397MOL0     H54743   5.678   5.557   5.922 -1.5403 -0.5542 -4.5689
  397MOL0     H54744   5.853   5.289   6.245 -1.7493 -0.1015 -3.0508
  397MOL0     H54745   6.066   5.392   6.534 -1.2487 -0.5817  1.2485
  397MOL0     H54746   6.096   5.273   6.421  1.7787  1.9528  1.7838
  397MOL0     H54747   5.925   5.296   6.481 -0.8951  2.3155  2.5170
  397MOL0     H54748   6.345   5.715   6.613  3.9290 -0.5327 -1.2074
  397MOL0     H54749   6.537   5.834   6.647 -0.5824 -2.4581 -0.4133
  397MOL0     H54750   6.543   6.156   6.693  1.0912  0.6959  1.7785
  397MOL0     H54751   6.664   6.041   6.729 -1.4243  0.0485  0.3490
  397MOL0     H54752   6.728   6.295   6.564 -1.8296 -1.5249 -1.0118
  397MOL0     H54753   6.734   6.274   6.745  1.3726 -0.8430  0.3119
  397MOL0     H54754   6.889   6.111   6.543 -1.7077 -0.9068  0.9189
  397MOL0     H54755   6.893   6.100   6.711  0.4043 -0.6106 -0.1994
  397MOL0     H54756   6.986   6.317   6.753 -0.2879  2.3676 -0.3901
  397MOL0     H54757   6.948   6.381   6.597  0.7286 -0.5100 -0.0936
  397MOL0     H54758   7.180   6.300   6.654 -0.0122  0.0827 -0.9158
  397MOL0     H54759   7.125   6.140   6.654  0.0815  0.6648  2.4027
  397MOL0     H54760   7.115   6.306   6.399  1.6703  1.1250 -0.2596
  397MOL0     H54761   7.052   6.149   6.416 -1.0920 -0.0127  0.2968
  397MOL0     H54762   7.254   6.076   6.348 -0.3160 -2.4295  1.9682
  397MOL0     H54763   7.306   6.108   6.521  0.0685  2.7572  0.8976
  397MOL0     H54764   7.328   6.306   6.288  0.3441 -0.8305 -1.7152
  397MOL0     H54765   7.464   6.197   6.332 -0.5198 -1.1667  0.5177
  397MOL0     H54766   6.431   6.112   6.337  1.6575  1.6985  2.1661
  397MOL0     H54767   6.238   5.969   6.280  0.0534 -0.3069 -0.0001
  397MOL0     H54768   6.033   5.745   6.185  2.2201 -1.0030 -3.9064
  397MOL0     H54769   5.893   5.658   6.033  0.2717  0.0897  0.6519
  397MOL0     H54770   5.723   4.660   6.908 -0.5596  1.7389  0.1793
  397MOL0     H54771   5.964   4.581   6.953  0.8353  2.5248  1.2285
  397MOL0     H54772   6.358   4.535   6.627 -0.5635 -3.2588  0.6909
  397MOL0     H54773   6.566   4.442   6.583 -4.1333 -5.9919  1.8344
  397MOL0     H54774   6.926   4.303   6.803  1.6094  3.3700 -0.8580
  397MOL0     H54775   6.857   4.408   6.929 -1.7339 -0.6738  1.2155
  397MOL0     H54776   6.672   4.182   6.856 -0.3150 -2.5694  1.7183
  397MOL0     H54777   6.704   4.239   7.013 -1.6791  1.1072 -0.3157
  397MOL0     H54778   6.912   4.080   6.863 -1.3973 -1.8818 -0.6981
  397MOL0     H54779   6.907   4.118   7.030 -0.3924  1.7846 -1.4122
  397MOL0     H54780   6.828   3.890   7.018  0.9386  1.1752  1.5826
  397MOL0     H54781   6.722   3.917   6.888 -0.6030 -5.0351  2.9500
  397MOL0     H54782   6.487   4.041   7.223 -0.3109 -0.0541  1.2609
  397MOL0     H54783   6.711   4.539   6.964  3.2408  0.7164 -3.7385
  397MOL0     H54784   6.591   4.676   7.104  0.2722  1.8416 -0.4577
  397MOL0     H54785   6.478   4.783   7.026  1.7879 -0.2001 -0.5211
  397MOL0     H54786   6.410   4.654   7.113  0.0596 -2.9874  0.3356
  398MOL0     O54787   0.257   3.771   2.599 -1.0592  0.2205  1.4864
  398MOL0     C54788   0.226   3.840   2.695  0.4097 -0.4993  0.3025
  398MOL0     O54789   0.289   3.956   2.734  0.6727  0.4467  0.6292
  398MOL0     C54790   0.365   4.014   2.638  0.0374  0.5395  0.3453
  398MOL0     C54791   0.298   4.108   2.551 -0.6235 -0.4218 -0.8694
  398MOL0     C54792   0.371   4.154   2.440  0.4163 -0.0750  0.2172
  398MOL0     C54793   0.500   4.111   2.413 -0.6180  0.3226  0.7088
  398MOL0     O54794   0.551   4.140   2.280 -0.1531 -0.7606  0.0075
  398MOL0     C54795   0.692   4.123   2.252  0.7468 -0.4003 -0.8600
  398MOL0     C54796   0.709   4.220   2.125  0.4622 -0.1102  0.2278
  398MOL0     C54797   0.835   4.192   2.047 -0.3716 -0.2512  0.1588
  398MOL0     C54798   0.791   4.229   1.901  0.0184 -0.2336 -0.2599
  398MOL0     C54799   0.909   4.237   1.805 -0.4800  0.2262 -0.1148
  398MOL0     C54800   0.975   4.107   1.797  0.5271  1.1229 -0.7536
  398MOL0     C54801   1.085   4.099   1.700 -0.4414 -0.1185 -0.4115
  398MOL0     C54802   1.097   3.964   1.615  0.4768 -0.0265 -0.6343
  398MOL0     N54803   1.209   3.970   1.521 -0.4711 -0.2964  0.6248
  398MOL0     C54804   1.352   3.980   1.549 -0.1481 -1.1383  0.8643
  398MOL0     C54805   1.402   3.986   1.423 -0.3487 -0.2893 -0.1861
  398MOL0     C54806   1.555   3.979   1.397  0.1870  0.6565 -0.3996
  398MOL0     C54807   1.607   4.127   1.398  0.0806  0.6741 -0.3867
  398MOL0     C54808   1.758   4.116   1.354  0.1997 -0.9122 -0.0299
  398MOL0     C54809   1.850   4.095   1.478  1.2141 -0.2529 -0.1724
  398MOL0     O54810   1.967   4.041   1.421 -0.5273  0.1905  0.2305
  398MOL0     C54811   2.080   4.003   1.495  0.1940 -0.2221  0.0561
  398MOL0     C54812   2.101   4.022   1.638  0.6680  0.0920  0.4923
  398MOL0     C54813   2.211   3.966   1.707  0.3298 -0.1354  0.1452
  398MOL0     C54814   2.224   3.993   1.858  0.7838 -0.6402  0.2961
  398MOL0     C54815   2.312   3.893   1.637 -0.4896 -0.9969 -0.2070
  398MOL0     C54816   2.425   3.829   1.702 -0.7035  0.2199 -0.3895
  398MOL0     O54817   2.491   3.738   1.618  0.0914 -0.4766 -0.3304
  398MOL0     C54818   2.615   3.677   1.651 -0.0570  0.1735 -0.2959
  398MOL0     C54819   2.714   3.727   1.727 -0.2916 -0.0494  0.2333
  398MOL0     C54820   2.827   3.663   1.751 -0.0138 -0.0993  0.3648
  398MOL0     C54821   2.852   3.542   1.685 -0.6382  0.0101  0.0267
  398MOL0     O54822   2.971   3.485   1.713 -0.6932  0.1295 -0.3069
  398MOL0     C54823   3.076   3.487   1.612  0.2658 -0.4450 -0.3634
  398MOL0     C54824   3.198   3.525   1.693  0.1955 -0.3104 -0.4529
  398MOL0     C54825   3.314   3.433   1.650 -0.5633 -0.3593 -0.4948
  398MOL0     C54826   3.456   3.474   1.706 -0.9777  0.3030 -0.3065
  398MOL0     C54827   3.567   3.421   1.623  0.2030 -0.2491 -0.1867
  398MOL0     C54828   3.597   3.271   1.634 -0.4945 -0.2873  0.2269
  398MOL0     C54829   3.736   3.230   1.578 -0.0181  0.9626  0.8302
  398MOL0     C54830   3.733   3.073   1.559  0.0513 -0.0063  0.3944
  398MOL0    Cl54831   3.897   3.021   1.516 -0.1414  0.2725 -0.0850
  398MOL0     C54832   2.767   3.491   1.590 -0.3520 -0.7004  0.6778
  398MOL0     C54833   2.651   3.561   1.569  0.5090 -0.5238 -0.4099
  398MOL0     O54834   2.461   3.847   1.818  0.3015  0.0102 -0.3864
  398MOL0     C54835   2.294   3.874   1.500  0.4609 -0.1731  0.0505
  398MOL0     C54836   2.186   3.937   1.429  0.1213 -0.6411 -0.1574
  398MOL0     N54837   1.301   3.968   1.327 -0.0082  0.7171  0.9635
  398MOL0     N54838   1.196   3.979   1.385  0.6828  0.8796 -0.0577
  398MOL0     C54839   0.569   4.030   2.517 -0.1422 -1.4396  0.1950
  398MOL0     C54840   0.498   3.975   2.626  0.5884 -0.9837  1.5016
  398MOL0     C54841   0.109   3.791   2.773 -0.5760 -0.4559  0.7173
  398MOL0     C54842  -0.018   3.853   2.774  0.2594  0.4374 -0.0145
  398MOL0     C54843  -0.128   3.794   2.841  0.3224 -0.1635 -0.1622
  398MOL0     C54844  -0.104   3.677   2.919 -0.4260  0.4798  0.8317
  398MOL0     O54845  -0.199   3.597   2.974  0.4215 -0.3207 -0.4783
  398MOL0     C54846  -0.310   3.679   3.028 -0.8567 -0.1946  0.2726
  398MOL0     C54847  -0.413   3.600   3.094  0.7316  0.3155 -0.3100
  398MOL0     C54848  -0.379   3.532   3.223  0.1570 -0.7857 -0.5912
  398MOL0     C54849  -0.480   3.424   3.246  0.4716  0.4077 -0.1295
  398MOL0     C54850  -0.538   3.418   3.383 -0.4065  0.8280  0.4859
  398MOL0     C54851  -0.583   3.405   3.492  0.3534  0.3612  0.0833
  398MOL0     C54852   0.023   3.627   2.925 -0.4746  0.3337 -0.5696
  398MOL0     C54853   0.132   3.675   2.846  0.1339 -0.2821 -0.5146
  398MOL0     C54854   0.272   3.600   2.854  1.1111 -0.2615 -0.2544
  398MOL0     H54855   0.201   4.147   2.580 -0.4772  0.5170 -1.5805
  398MOL0     H54856   0.326   4.220   2.366  2.5969 -0.9381 -2.0237
  398MOL0     H54857   0.722   4.019   2.237 -2.6626 -1.3207 -2.2524
  398MOL0     H54858   0.747   4.165   2.337 -0.6769 -0.4400  0.1135
  398MOL0     H54859   0.624   4.209   2.056 -0.7708  3.4710  0.9251
  398MOL0     H54860   0.715   4.326   2.153 -0.7669  0.2499 -0.7613
  398MOL0     H54861   0.919   4.256   2.073  0.3645 -1.2577  0.2994
  398MOL0     H54862   0.865   4.087   2.061 -1.9341 -0.8808 -0.8988
  398MOL0     H54863   0.715   4.158   1.867 -1.4838  1.5572 -0.7883
  398MOL0     H54864   0.744   4.327   1.900  1.1518  0.3330 -0.5535
  398MOL0     H54865   0.978   4.311   1.848 -1.1995  1.3456 -0.8720
  398MOL0     H54866   0.876   4.269   1.706 -1.7821 -0.5168  0.0601
  398MOL0     H54867   1.022   4.077   1.891 -1.5846 -4.1664 -1.0525
  398MOL0     H54868   0.893   4.046   1.758  0.0112  3.3353 -3.3935
  398MOL0     H54869   1.182   4.119   1.746 -0.0234 -2.1263 -0.3332
  398MOL0     H54870   1.071   4.185   1.634  0.4090 -0.3650 -0.9203
  398MOL0     H54871   1.117   3.886   1.689 -2.6150 -1.3159 -1.0230
  398MOL0     H54872   1.011   3.933   1.556 -0.2131  1.7198 -0.6220
  398MOL0     H54873   1.414   3.986   1.638  0.2552  0.1401  0.5311
  398MOL0     H54874   1.576   3.931   1.301 -1.8949  1.8299 -1.5112
  398MOL0     H54875   1.604   3.926   1.478  0.2190  1.5729  0.1935
  398MOL0     H54876   1.551   4.195   1.334  1.6526 -0.0510 -2.6743
  398MOL0     H54877   1.612   4.172   1.498  0.5812  1.4675 -0.7570
  398MOL0     H54878   1.765   4.035   1.280 -1.6480  1.2621 -2.8318
  398MOL0     H54879   1.783   4.205   1.295 -0.1509 -1.4008 -0.9336
  398MOL0     H54880   1.861   4.185   1.541 -0.0359  1.8554 -2.7811
  398MOL0     H54881   1.808   4.010   1.532  1.5272 -0.0080  0.4698
  398MOL0     H54882   2.042   4.090   1.698  2.6317  0.7392  1.8002
  398MOL0     H54883   2.132   4.042   1.892 -0.0898  1.0443 -3.8296
  398MOL0     H54884   2.306   4.062   1.881  0.9502 -0.0248 -1.9145
  398MOL0     H54885   2.241   3.902   1.915 -1.7385 -0.2493  1.8055
  398MOL0     H54886   2.710   3.824   1.776 -0.7556  0.6322 -1.0999
  398MOL0     H54887   2.889   3.693   1.835 -1.1532  0.6940  0.9390
  398MOL0     H54888   3.083   3.396   1.551  1.9491 -1.7777  1.6683
  398MOL0     H54889   3.068   3.571   1.542  0.3480  0.3166  0.5335
  398MOL0     H54890   3.220   3.631   1.680  0.2449 -0.2813 -0.1543
  398MOL0     H54891   3.188   3.508   1.801  3.5937  0.3549  0.0948
  398MOL0     H54892   3.326   3.432   1.541 -0.6332 -1.1298 -0.4986
  398MOL0     H54893   3.297   3.333   1.692 -1.5616 -0.2248 -0.5538
  398MOL0     H54894   3.459   3.443   1.811  1.7808  1.4653  0.0280
  398MOL0     H54895   3.467   3.582   1.697  1.8208  0.0140 -1.3861
  398MOL0     H54896   3.543   3.451   1.521 -1.0532  1.1374  0.4670
  398MOL0     H54897   3.661   3.470   1.648 -0.5119  1.2256 -0.2662
  398MOL0     H54898   3.513   3.227   1.581 -1.0073 -1.0462  1.6171
  398MOL0     H54899   3.589   3.248   1.741  0.1820 -0.4303  0.2544
  398MOL0     H54900   3.814   3.248   1.653  0.0393  1.4142  0.6633
  398MOL0     H54901   3.775   3.280   1.489 -0.5107 -3.6920 -2.3664
  398MOL0     H54902   3.666   3.059   1.474  2.3647 -1.6675 -1.2766
  398MOL0     H54903   3.699   3.016   1.646 -2.0152  0.2854 -0.1555
  398MOL0     H54904   2.787   3.403   1.529  1.7102  0.9119 -1.1238
  398MOL0     H54905   2.583   3.518   1.497  0.5363  1.4557 -1.6767
  398MOL0     H54906   2.362   3.810   1.445  0.0715 -0.5468 -0.0094
  398MOL0     H54907   2.178   3.933   1.321  1.3306 -0.4769 -0.2660
  398MOL0     H54908   0.675   4.011   2.501 -0.3515 -1.9725 -0.6135
  398MOL0     H54909   0.541   3.898   2.690  1.0381 -2.8662 -0.8927
  398MOL0     H54910  -0.047   3.940   2.716  0.1743  0.6839  0.3927
  398MOL0     H54911  -0.228   3.835   2.833 -0.3123 -1.9023 -2.2447
  398MOL0     H54912  -0.283   3.763   3.092  0.2423 -0.2898 -0.0477
  398MOL0     H54913  -0.362   3.736   2.950 -1.0006  2.7499  2.3700
  398MOL0     H54914  -0.442   3.521   3.024  0.7404  0.5827 -0.6171
  398MOL0     H54915  -0.494   3.670   3.115  0.8300  0.3064  0.1109
  398MOL0     H54916  -0.280   3.487   3.219  0.6759 -0.1072  2.4539
  398MOL0     H54917  -0.385   3.606   3.303  2.1276  0.9335 -1.9488
  398MOL0     H54918  -0.461   3.324   3.206 -1.1805  0.7818 -2.0098
  398MOL0     H54919  -0.573   3.442   3.192 -0.2165  0.4401  1.0263
  398MOL0     H54920  -0.629   3.402   3.588  2.8893 -2.6615  1.3913
  398MOL0     H54921   0.026   3.530   2.973 -1.3741  0.4885 -0.1693
  398MOL0     H54922   0.351   3.635   2.921  0.3384  1.3662 -0.1600
  398MOL0     H54923   0.260   3.495   2.882 -1.3715 -0.0878 -0.5152
  398MOL0     H54924   0.313   3.595   2.753 -0.4324  0.7034 -0.9627
  399MOL0     O54925   3.168   6.465   9.300 -0.0468  0.2924 -0.1414
  399MOL0     C54926   3.187   6.554   9.216  0.3050  0.4824  0.0600
  399MOL0     O54927   3.307   6.594   9.168  0.8955 -0.0116  0.6023
  399MOL0     C54928   3.425   6.557   9.227 -0.2049  0.8509  0.2101
  399MOL0     C54929   3.446   6.485   9.347 -0.0458  0.1669 -0.8653
  399MOL0     C54930   3.574   6.470   9.398 -0.6998  0.3742 -0.1206
  399MOL0     C54931   3.688   6.522   9.331 -0.0220 -0.4040  0.8528
  399MOL0     O54932   3.809   6.496   9.396  0.4362 -0.3418 -0.3063
  399MOL0     C54933   3.912   6.458   9.299 -0.0721  0.3768 -0.1244
  399MOL0     C54934   4.031   6.440   9.393 -0.3022 -0.8397 -0.9146
  399MOL0     C54935   4.154   6.423   9.313  0.4508 -0.2132  0.0606
  399MOL0     C54936   4.275   6.462   9.387  0.6295 -0.4875 -0.0769
  399MOL0     C54937   4.396   6.482   9.299 -0.3275 -0.3834  1.1709
  399MOL0     C54938   4.412   6.611   9.217  0.7711  0.9090  0.7078
  399MOL0     C54939   4.550   6.619   9.154  0.1243  0.2888  0.3054
  399MOL0     C54940   4.664   6.678   9.230 -0.3579 -0.1023  0.2331
  399MOL0     N54941   4.786   6.669   9.153 -0.8165 -0.0406 -0.1020
  399MOL0     C54942   4.823   6.753   9.061 -0.5021 -1.0045 -1.1681
  399MOL0     C54943   4.939   6.713   9.019  0.2430  1.3286  0.1480
  399MOL0     C54944   5.018   6.760   8.904  0.5864 -0.5017  0.3061
  399MOL0     C54945   5.131   6.863   8.938 -0.1964  0.3509  0.0460
  399MOL0     C54946   5.237   6.859   8.827  0.4536 -0.2030 -0.5454
  399MOL0     C54947   5.347   6.960   8.862 -0.7458  0.1902  0.3173
  399MOL0     O54948   5.286   7.088   8.833  0.5040  0.0130 -0.5363
  399MOL0     C54949   5.361   7.199   8.787  1.2410  0.8042  0.6116
  399MOL0     C54950   5.307   7.279   8.684  0.4562 -1.1495 -0.8125
  399MOL0     C54951   5.376   7.386   8.629  0.7028  0.8974  0.1052
  399MOL0     C54952   5.304   7.479   8.531 -0.6690  0.3588  0.3235
  399MOL0     C54953   5.509   7.408   8.669  0.4012 -0.0911  0.2353
  399MOL0     C54954   5.600   7.512   8.624  0.1503 -0.2072 -0.0682
  399MOL0     O54955   5.677   7.581   8.712 -1.3270 -0.1920  0.4748
  399MOL0     C54956   5.756   7.683   8.655 -0.0897  1.1785 -0.4300
  399MOL0     C54957   5.718   7.812   8.676  0.5017  0.9384  0.5885
  399MOL0     C54958   5.798   7.916   8.647  0.4582 -0.3814  0.6152
  399MOL0     C54959   5.923   7.898   8.585  0.7216  0.5045  0.0709
  399MOL0     O54960   5.997   8.003   8.547  0.2423  0.4530  0.1222
  399MOL0     C54961   6.134   7.996   8.547  0.3322  0.2824 -0.7753
  399MOL0     C54962   6.221   7.992   8.680  1.1207  0.0557  0.4234
  399MOL0     C54963   6.210   7.853   8.746 -0.0374 -0.0088  0.2376
  399MOL0     C54964   6.306   7.831   8.860 -0.1161 -0.3920 -0.2692
  399MOL0     C54965   6.277   7.694   8.931  0.8632  0.7898  1.5771
  399MOL0     C54966   6.126   7.667   8.991 -0.0980 -1.1788  0.5409
  399MOL0     C54967   6.116   7.527   9.045 -0.3442 -0.1239 -0.4065
  399MOL0     C54968   5.976   7.470   9.059  0.1283 -0.4930 -0.0706
  399MOL0    Cl54969   5.981   7.299   9.095 -0.1791  0.2602  0.4602
  399MOL0     C54970   5.959   7.764   8.554 -0.3217  0.4493 -0.3727
  399MOL0     C54971   5.877   7.654   8.593  0.1249 -0.5090 -0.1594
  399MOL0     O54972   5.600   7.525   8.499 -0.1777 -0.5147 -0.7584
  399MOL0     C54973   5.558   7.327   8.768  0.3761 -0.1516  0.1775
  399MOL0     C54974   5.489   7.224   8.826  0.8364  0.3521 -0.1753
  399MOL0     N54975   4.971   6.599   9.092 -0.0488 -0.7737 -0.9865
  399MOL0     N54976   4.877   6.568   9.177  0.4288  0.2939  0.8251
  399MOL0     C54977   3.672   6.598   9.215 -0.8048  0.1174  0.5577
  399MOL0     C54978   3.544   6.611   9.164 -0.0104 -0.7376 -0.5011
  399MOL0     C54979   3.071   6.614   9.145 -0.8117 -0.3009 -0.0450
  399MOL0     C54980   3.093   6.673   9.011 -0.7588  0.3784 -0.2026
  399MOL0     C54981   2.989   6.713   8.939 -0.1841 -0.4076 -0.1559
  399MOL0     C54982   2.855   6.709   8.986 -1.5933 -0.4282 -0.3620
  399MOL0     O54983   2.757   6.756   8.906  0.0499 -0.0453  0.4914
  399MOL0     C54984   2.619   6.726   8.932  0.2128  0.0398 -0.2332
  399MOL0     C54985   2.535   6.756   8.807  0.0339  0.2251  0.4929
  399MOL0     C54986   2.556   6.904   8.772 -0.2125  0.5191  0.2841
  399MOL0     C54987   2.459   6.950   8.663 -0.5151  0.1700 -0.7857
  399MOL0     C54988   2.463   7.094   8.652  0.1083  1.2180 -0.3424
  399MOL0     C54989   2.465   7.217   8.641  0.1462  0.3078  0.1821
  399MOL0     C54990   2.835   6.661   9.119 -0.9959 -0.3906  0.1189
  399MOL0     C54991   2.937   6.618   9.195 -0.4709  0.6176 -0.6008
  399MOL0     C54992   2.890   6.553   9.330 -0.3681  0.2253 -0.0987
  399MOL0     H54993   3.364   6.459   9.413 -0.4372 -1.2607 -1.8446
  399MOL0     H54994   3.592   6.428   9.496  1.2634  0.6869 -0.3120
  399MOL0     H54995   3.931   6.531   9.220  1.3711  0.5379  0.3553
  399MOL0     H54996   3.878   6.364   9.253 -0.2310  0.3209  0.1040
  399MOL0     H54997   4.038   6.530   9.456 -4.5946  0.3978 -1.9376
  399MOL0     H54998   4.013   6.356   9.460 -2.1890  0.6708  0.6174
  399MOL0     H54999   4.154   6.320   9.277  0.0739 -0.4334  0.6689
  399MOL0     H55000   4.160   6.494   9.230  0.6637  1.3558  1.3523
  399MOL0     H55001   4.253   6.558   9.435  0.5987 -0.4706 -0.1253
  399MOL0     H55002   4.292   6.379   9.457 -1.1439 -1.1378 -0.3393
  399MOL0     H55003   4.419   6.398   9.233  1.9596 -1.1835  2.8683
  399MOL0     H55004   4.478   6.487   9.371 -0.1147 -2.3236  1.1286
  399MOL0     H55005   4.342   6.606   9.133 -1.2375 -0.7034  2.3517
  399MOL0     H55006   4.387   6.701   9.272 -1.5045  1.6321 -1.3249
  399MOL0     H55007   4.550   6.675   9.059  2.4135 -3.2283 -2.0182
  399MOL0     H55008   4.586   6.520   9.124  1.1989 -0.4145  3.5634
  399MOL0     H55009   4.634   6.782   9.248 -0.2353 -0.1779  0.9022
  399MOL0     H55010   4.678   6.619   9.321 -0.5523 -0.1054  0.2627
  399MOL0     H55011   4.773   6.845   9.030  0.4367  0.6466  1.8038
  399MOL0     H55012   4.939   6.795   8.838 -1.9514 -0.8574  2.9724
  399MOL0     H55013   5.063   6.671   8.858  2.7592  0.8699 -0.4061
  399MOL0     H55014   5.097   6.965   8.955 -1.8187 -0.4749  2.2721
  399MOL0     H55015   5.183   6.841   9.032 -0.0793  1.0902  0.1599
  399MOL0     H55016   5.283   6.760   8.831 -0.8031 -0.8101 -0.4760
  399MOL0     H55017   5.195   6.862   8.726 -0.7796 -1.0261 -0.0859
  399MOL0     H55018   5.387   6.957   8.964 -1.1867 -1.8443  0.4770
  399MOL0     H55019   5.431   6.947   8.795 -1.3917 -0.4906 -0.3775
  399MOL0     H55020   5.204   7.268   8.651  0.1043 -0.7766  0.1231
  399MOL0     H55021   5.353   7.460   8.435 -0.6962 -1.7825  0.6845
  399MOL0     H55022   5.320   7.584   8.558  3.3498 -0.2150  0.8846
  399MOL0     H55023   5.197   7.458   8.527 -0.5698 -0.3010  0.8962
  399MOL0     H55024   5.633   7.840   8.736  0.9471  0.5302  1.4255
  399MOL0     H55025   5.761   8.014   8.677 -1.8734 -0.9933 -0.0740
  399MOL0     H55026   6.175   7.916   8.483  1.2550 -0.6130  0.8534
  399MOL0     H55027   6.164   8.082   8.488  0.2820 -0.0858 -1.3479
  399MOL0     H55028   6.323   8.015   8.648  0.1987  1.0383 -2.0319
  399MOL0     H55029   6.187   8.078   8.738  1.9998  2.1501 -1.9851
  399MOL0     H55030   6.205   7.772   8.672  0.3305  0.0274  0.1710
  399MOL0     H55031   6.110   7.838   8.788  0.9536  0.0684  2.7483
  399MOL0     H55032   6.303   7.913   8.932  2.3063  0.3048 -0.8764
  399MOL0     H55033   6.411   7.836   8.829  0.1318  0.2890  0.6622
  399MOL0     H55034   6.292   7.623   8.849 -1.0450 -0.3869  2.1712
  399MOL0     H55035   6.352   7.682   9.010  2.0396 -1.3425  0.2477
  399MOL0     H55036   6.045   7.683   8.918 -0.7741  1.1576  1.6912
  399MOL0     H55037   6.099   7.738   9.070 -0.7172 -0.7083 -0.0747
  399MOL0     H55038   6.167   7.525   9.142 -0.2675 -1.6474 -0.4464
  399MOL0     H55039   6.174   7.463   8.978 -0.2504  0.2048 -0.6403
  399MOL0     H55040   5.923   7.485   8.965  0.6575 -1.7577 -0.5899
  399MOL0     H55041   5.921   7.528   9.134  0.7519 -0.2039  0.1744
  399MOL0     H55042   6.049   7.747   8.495  0.0214  4.8025 -1.4102
  399MOL0     H55043   5.922   7.557   8.578 -0.2474 -0.8676  0.9098
  399MOL0     H55044   5.662   7.335   8.799  0.9856 -1.8832 -1.2429
  399MOL0     H55045   5.535   7.168   8.907 -0.3958 -1.6714 -0.7815
  399MOL0     H55046   3.752   6.634   9.152  0.3983 -4.3340 -0.8893
  399MOL0     H55047   3.530   6.652   9.064  2.5635  0.8894 -0.2853
  399MOL0     H55048   3.192   6.688   8.968 -0.6687 -1.0174 -0.5262
  399MOL0     H55049   2.999   6.748   8.836  1.9198 -1.7092 -0.4506
  399MOL0     H55050   2.600   6.622   8.961  3.3363 -1.1166 -1.8138
  399MOL0     H55051   2.583   6.782   9.018  2.1115  1.3953 -0.2598
  399MOL0     H55052   2.428   6.735   8.814 -0.2432  1.9784  2.4590
  399MOL0     H55053   2.570   6.696   8.722  0.2713 -0.0194  0.7583
  399MOL0     H55054   2.540   6.968   8.859  0.4039 -0.1253  0.8854
  399MOL0     H55055   2.659   6.921   8.738 -1.1696  0.8129 -2.7370
  399MOL0     H55056   2.355   6.926   8.688 -0.6146  1.4086  0.0496
  399MOL0     H55057   2.490   6.903   8.569  1.2701 -1.1035  0.3731
  399MOL0     H55058   2.439   7.320   8.631 -2.4481 -0.3974 -1.2159
  399MOL0     H55059   2.732   6.661   9.154 -0.2391 -0.8510  2.5400
  399MOL0     H55060   2.893   6.444   9.336 -0.3514  0.3314  3.2995
  399MOL0     H55061   2.956   6.593   9.407  1.6591 -1.3438 -0.9419
  399MOL0     H55062   2.784   6.581   9.343 -0.7491 -1.6630  1.1929
  400MOL0     O55063   3.563   5.580   8.699 -0.1937 -0.4851  0.0725
  400MOL0     C55064   3.458   5.620   8.750 -0.8838 -0.0302 -0.1216
  400MOL0     O55065   3.413   5.748   8.741 -1.2274 -0.3737  0.1475
  400MOL0     C55066   3.471   5.847   8.663 -0.1540  0.0457 -0.5915
  400MOL0     C55067   3.519   5.825   8.530 -0.2299 -0.1414 -0.2066
  400MOL0     C55068   3.585   5.925   8.459  0.1920 -0.7278  0.1671
  400MOL0     C55069   3.585   6.056   8.504  1.1960 -0.2708  0.7614
  400MOL0     O55070   3.644   6.150   8.421  0.3308 -1.3034 -0.3663
  400MOL0     C55071   3.617   6.290   8.438 -0.5000 -0.2679 -0.2718
  400MOL0     C55072   3.689   6.374   8.325 -0.4092 -0.7665  0.2187
  400MOL0     C55073   3.649   6.331   8.185  0.2109 -0.0255  0.8927
  400MOL0     C55074   3.735   6.410   8.073  1.0277  0.6694 -0.6391
  400MOL0     C55075   3.678   6.372   7.932  0.2679 -0.1601 -0.6174
  400MOL0     C55076   3.700   6.221   7.907 -0.1440 -0.4651 -0.4077
  400MOL0     C55077   3.641   6.175   7.775 -0.8148 -0.1066 -0.4163
  400MOL0     C55078   3.688   6.249   7.653  0.1590 -0.0145 -0.0774
  400MOL0     N55079   3.826   6.269   7.651 -0.4339 -0.1157 -0.6932
  400MOL0     C55080   3.914   6.162   7.622  0.0504 -0.0887  0.0133
  400MOL0     C55081   4.030   6.226   7.606 -0.6321 -0.0469  0.2197
  400MOL0     C55082   4.161   6.172   7.568  0.4699  0.1699 -0.3046
  400MOL0     C55083   4.218   6.227   7.434  0.1761 -0.7239  0.5066
  400MOL0     C55084   4.121   6.211   7.312 -0.8527  1.1349 -0.5513
  400MOL0     C55085   4.089   6.074   7.247  0.1199 -0.0986  0.2650
  400MOL0     O55086   4.216   5.996   7.208 -0.2633 -0.4119 -0.0834
  400MOL0     C55087   4.251   5.987   7.073  0.1941 -0.0767  0.3710
  400MOL0     C55088   4.332   5.871   7.042  0.4634  0.7054 -0.4106
  400MOL0     C55089   4.382   5.841   6.920 -1.1146 -0.2330 -0.6094
  400MOL0     C55090   4.475   5.721   6.922  0.1846 -0.2131  0.0213
  400MOL0     C55091   4.343   5.917   6.813  1.1934 -0.0922 -0.1222
  400MOL0     C55092   4.370   5.882   6.679 -0.5206  0.8195  0.6108
  400MOL0     O55093   4.357   5.759   6.642  0.5438  0.4672 -0.4909
  400MOL0     C55094   4.395   5.715   6.521 -0.0011  0.4719 -0.5180
  400MOL0     C55095   4.307   5.706   6.413 -0.0280 -0.1582 -0.5895
  400MOL0     C55096   4.345   5.636   6.296 -0.0958 -0.6514  1.1998
  400MOL0     C55097   4.480   5.598   6.274 -0.5198  0.7508 -0.2612
  400MOL0     O55098   4.524   5.524   6.168 -0.0185  0.6132 -0.4112
  400MOL0     C55099   4.568   5.383   6.195 -0.1138 -0.7130  0.3755
  400MOL0     C55100   4.593   5.315   6.064 -0.1591  0.8220 -0.1606
  400MOL0     C55101   4.658   5.166   6.084 -0.1507 -0.0769  0.7780
  400MOL0     C55102   4.567   5.077   6.164  0.0737  0.0038 -0.2139
  400MOL0     C55103   4.620   4.934   6.187 -0.2627  0.3048 -1.2224
  400MOL0     C55104   4.529   4.857   6.287 -0.2830  0.1881  0.4919
  400MOL0     C55105   4.589   4.729   6.359  0.1456  0.5233 -0.0724
  400MOL0     C55106   4.494   4.672   6.466 -0.2087  0.0789 -0.3806
  400MOL0    Cl55107   4.333   4.587   6.422  0.0403 -0.0919  0.0878
  400MOL0     C55108   4.559   5.604   6.387 -0.6611  0.0552  0.3309
  400MOL0     C55109   4.516   5.658   6.507 -0.2636  0.3062  0.3372
  400MOL0     O55110   4.415   5.969   6.614  0.6604  0.4310 -0.9058
  400MOL0     C55111   4.259   6.033   6.843 -0.6703 -0.6033  0.3820
  400MOL0     C55112   4.208   6.065   6.971  0.0092  0.2626 -0.1490
  400MOL0     N55113   4.011   6.362   7.612 -0.3666 -0.2910  0.3634
  400MOL0     N55114   3.891   6.388   7.641 -1.0787 -0.4119  0.2218
  400MOL0     C55115   3.518   6.083   8.628 -0.3230 -0.3548  0.1571
  400MOL0     C55116   3.463   5.984   8.712  0.1643 -0.0336 -0.8068
  400MOL0     C55117   3.360   5.529   8.813  0.9265 -0.1942 -0.2928
  400MOL0     C55118   3.228   5.584   8.839 -0.2564  0.1380 -0.9029
  400MOL0     C55119   3.129   5.513   8.901 -0.5206  0.0876 -0.3521
  400MOL0     C55120   3.158   5.384   8.937  0.3706  0.9178  0.1008
  400MOL0     O55121   3.039   5.332   8.970  0.2005  0.4104  0.0149
  400MOL0     C55122   3.018   5.198   8.945 -0.1742  1.0163 -0.0315
  400MOL0     C55123   2.874   5.152   8.942  0.6437  0.0264  0.2179
  400MOL0     C55124   2.780   5.209   9.055  0.3393 -0.4999  0.5377
  400MOL0     C55125   2.755   5.371   9.047  0.4494 -0.8779  0.3969
  400MOL0     C55126   2.643   5.404   9.138  0.2776  0.2058  0.2907
  400MOL0     C55127   2.551   5.427   9.212  0.6723  0.1381  0.2072
  400MOL0     C55128   3.276   5.322   8.918  0.0506  0.2392  1.0729
  400MOL0     C55129   3.380   5.390   8.847  0.1864 -0.2342 -1.0949
  400MOL0     C55130   3.494   5.319   8.803 -0.0937  0.0014  0.7847
  400MOL0     H55131   3.525   5.722   8.498 -1.2652 -0.4410  0.4952
  400MOL0     H55132   3.640   5.901   8.369  1.9825  1.9356  0.4578
  400MOL0     H55133   3.651   6.326   8.536 -1.1411  1.5911 -0.6867
  400MOL0     H55134   3.509   6.303   8.436 -0.6909 -1.5738  0.4709
  400MOL0     H55135   3.665   6.480   8.335  0.8004 -0.2626 -1.7927
  400MOL0     H55136   3.796   6.365   8.346 -0.4449  0.2737  0.9397
  400MOL0     H55137   3.665   6.223   8.177  2.1842  0.3146 -0.4258
  400MOL0     H55138   3.544   6.358   8.167 -0.0684  1.6407  4.1833
  400MOL0     H55139   3.737   6.518   8.093 -1.4352  0.5652  0.5377
  400MOL0     H55140   3.836   6.369   8.084  0.3424 -1.1687 -0.8663
  400MOL0     H55141   3.720   6.421   7.844 -1.1175 -1.2709 -1.9389
  400MOL0     H55142   3.575   6.407   7.943 -0.0328 -1.4934  1.3094
  400MOL0     H55143   3.810   6.220   7.909 -0.1520 -0.9830  0.6177
  400MOL0     H55144   3.656   6.158   7.985  0.1219  0.6842  0.6900
  400MOL0     H55145   3.533   6.163   7.769 -0.3850 -5.6399 -2.5759
  400MOL0     H55146   3.668   6.071   7.760  0.0110 -0.1823  1.3177
  400MOL0     H55147   3.659   6.206   7.556  0.0075 -2.3011  0.9167
  400MOL0     H55148   3.631   6.343   7.645 -0.5155 -0.3745  0.3486
  400MOL0     H55149   3.897   6.055   7.617  1.0239 -0.2863  0.6056
  400MOL0     H55150   4.148   6.063   7.563 -1.9516  0.3088  1.2482
  400MOL0     H55151   4.236   6.189   7.645  1.1580  0.9590 -1.1248
  400MOL0     H55152   4.239   6.334   7.436 -2.0846 -0.2267  0.2603
  400MOL0     H55153   4.308   6.170   7.409 -0.0138  0.1360 -2.5571
  400MOL0     H55154   4.029   6.261   7.342 -2.0133 -2.3532  2.5535
  400MOL0     H55155   4.147   6.262   7.219 -4.2052 -2.2218 -3.6750
  400MOL0     H55156   4.048   6.016   7.330 -0.9906  0.4775  0.1440
  400MOL0     H55157   4.013   6.090   7.170 -1.1220 -0.6648  1.3355
  400MOL0     H55158   4.353   5.808   7.128 -1.4863  0.3886 -0.1314
  400MOL0     H55159   4.479   5.668   7.018  1.0231  1.4642  0.9522
  400MOL0     H55160   4.577   5.749   6.896  0.5418 -1.7969 -0.3464
  400MOL0     H55161   4.420   5.651   6.859 -0.7728 -0.3305  0.9551
  400MOL0     H55162   4.203   5.738   6.419  0.9307  4.2059 -3.0385
  400MOL0     H55163   4.275   5.612   6.217  0.3989 -1.3915  0.9739
  400MOL0     H55164   4.667   5.393   6.242 -0.3874  1.8350  0.5469
  400MOL0     H55165   4.494   5.326   6.252 -0.9465 -0.3088 -0.2867
  400MOL0     H55166   4.506   5.303   5.998  0.4050  1.4925 -1.0373
  400MOL0     H55167   4.677   5.366   6.016  1.5579 -2.0275 -0.4369
  400MOL0     H55168   4.762   5.161   6.117  0.5679  1.0493 -1.1595
  400MOL0     H55169   4.673   5.114   5.989  1.8055 -0.6197  1.3307
  400MOL0     H55170   4.465   5.070   6.125 -0.7030  0.4383  1.6345
  400MOL0     H55171   4.560   5.115   6.266  2.8625  0.9739 -0.3120
  400MOL0     H55172   4.639   4.872   6.099  1.0736 -3.3856  1.4157
  400MOL0     H55173   4.718   4.945   6.232 -0.3787  0.4707 -1.0107
  400MOL0     H55174   4.446   4.819   6.226 -0.2453  1.6850 -0.5633
  400MOL0     H55175   4.490   4.925   6.363 -2.5879 -0.5764  0.0886
  400MOL0     H55176   4.690   4.742   6.397 -0.3470  0.8848  1.1603
  400MOL0     H55177   4.583   4.658   6.276  0.1024  1.0374 -0.5156
  400MOL0     H55178   4.476   4.757   6.533  0.1411 -2.6424  3.5122
  400MOL0     H55179   4.547   4.596   6.524  1.5934  1.0001 -0.7665
  400MOL0     H55180   4.666   5.584   6.381  0.1370  3.7141  0.0760
  400MOL0     H55181   4.568   5.660   6.602 -2.6667 -0.4890  1.7761
  400MOL0     H55182   4.238   6.098   6.758  2.8274 -0.1803 -0.2768
  400MOL0     H55183   4.142   6.151   6.980 -1.6139 -0.7554 -1.6934
  400MOL0     H55184   3.517   6.181   8.674 -0.5052 -0.3357  0.1118
  400MOL0     H55185   3.417   6.012   8.806 -0.2491  0.1965 -1.0717
  400MOL0     H55186   3.200   5.684   8.806 -0.6877  1.3979  2.8305
  400MOL0     H55187   3.030   5.556   8.907 -0.3083  0.5064  0.1648
  400MOL0     H55188   3.065   5.169   8.850  2.4566  2.4932  0.7274
  400MOL0     H55189   3.074   5.139   9.018 -1.4009  0.9129  0.8738
  400MOL0     H55190   2.870   5.043   8.948 -1.0702 -0.0813 -1.7323
  400MOL0     H55191   2.840   5.176   8.840  0.6992 -2.2946 -0.4035
  400MOL0     H55192   2.681   5.164   9.041 -0.4390  0.6810  1.9661
  400MOL0     H55193   2.825   5.178   9.149 -1.0259 -5.3300 -0.1102
  400MOL0     H55194   2.731   5.392   8.942 -0.8902  1.3402  1.0707
  400MOL0     H55195   2.849   5.414   9.081 -0.2883 -0.4577  2.0049
  400MOL0     H55196   2.461   5.453   9.264  0.6751 -0.5803  0.5837
  400MOL0     H55197   3.284   5.215   8.926 -0.1865  0.2318  1.2333
  400MOL0     H55198   3.464   5.216   8.828 -2.3079  0.0051 -1.4619
  400MOL0     H55199   3.507   5.315   8.695  1.0668  0.8890  0.8735
  400MOL0     H55200   3.592   5.345   8.843  0.5965 -0.0614 -0.8228
  401MOL0     O55201   9.592   1.140   2.537  0.0383 -0.4461  0.4386
  401MOL0     C55202   9.661   1.236   2.555  0.5566 -0.9037 -0.3121
  401MOL0     O55203   9.622   1.343   2.635 -0.6179  0.4200 -0.2864
  401MOL0     C55204   9.501   1.329   2.696 -0.2078  0.2724 -0.7295
  401MOL0     C55205   9.413   1.439   2.692 -0.1975  0.1452  0.4086
  401MOL0     C55206   9.291   1.434   2.761  0.1643  0.7990  0.2025
  401MOL0     C55207   9.255   1.314   2.824  0.4861  0.4120 -0.6518
  401MOL0     O55208   9.131   1.292   2.874  0.2837  0.4042  0.1424
  401MOL0     C55209   9.041   1.257   2.770 -0.6081 -0.8972  0.4414
  401MOL0     C55210   8.921   1.206   2.833  0.9007 -0.6551 -0.2426
  401MOL0     C55211   8.812   1.186   2.732 -0.0653 -0.0715  0.0854
  401MOL0     C55212   8.689   1.122   2.779 -0.2233 -0.0519 -0.2832
  401MOL0     C55213   8.577   1.105   2.672  0.6907 -0.4171  0.6992
  401MOL0     C55214   8.499   0.979   2.649 -0.1348  0.0472  0.4659
  401MOL0     C55215   8.443   0.922   2.776  0.5752 -0.6580 -0.2784
  401MOL0     C55216   8.303   0.974   2.811  0.6947 -0.5624 -0.1205
  401MOL0     N55217   8.250   0.909   2.932  0.4149 -0.3454 -0.0068
  401MOL0     C55218   8.235   0.777   2.967  0.4367  0.2097 -0.2451
  401MOL0     C55219   8.210   0.772   3.106 -0.1165  0.0198 -0.6606
  401MOL0     C55220   8.185   0.648   3.183 -0.2405  0.3547  0.6895
  401MOL0     C55221   8.281   0.641   3.310  0.7719  0.0240  0.0505
  401MOL0     C55222   8.290   0.506   3.370  0.0328  0.3805 -0.5730
  401MOL0     C55223   8.156   0.466   3.442 -0.1284  0.3308  0.9595
  401MOL0     O55224   8.193   0.364   3.534  0.7334 -0.6258  0.3984
  401MOL0     C55225   8.278   0.397   3.632  0.3739  0.7914  0.3156
  401MOL0     C55226   8.399   0.326   3.647  0.1522  0.4247  1.2249
  401MOL0     C55227   8.491   0.341   3.753 -0.8069  0.3261 -0.6198
  401MOL0     C55228   8.609   0.241   3.764 -0.7459  0.3102 -0.5083
  401MOL0     C55229   8.473   0.451   3.837  0.0563 -0.1312 -0.0314
  401MOL0     C55230   8.579   0.495   3.936  0.3234 -0.4780  1.0039
  401MOL0     O55231   8.691   0.423   3.961 -0.3714  0.9904  0.0954
  401MOL0     C55232   8.798   0.451   4.045 -0.3773  0.1019  0.1750
  401MOL0     C55233   8.816   0.575   4.114  1.0708 -1.0250 -0.3192
  401MOL0     C55234   8.920   0.598   4.207  0.1366  0.0158  0.2670
  401MOL0     C55235   9.012   0.493   4.225 -0.5783 -0.0550 -1.4536
  401MOL0     O55236   9.108   0.515   4.322  0.0442  1.0940 -0.5167
  401MOL0     C55237   9.130   0.410   4.417  0.6932 -0.6312  0.6789
  401MOL0     C55238   9.260   0.416   4.502  0.7237  0.0883  0.5040
  401MOL0     C55239   9.283   0.542   4.577 -0.6861  0.8837 -1.1936
  401MOL0     C55240   9.421   0.544   4.651  0.7193 -0.6808 -0.1922
  401MOL0     C55241   9.424   0.634   4.777 -0.6857  0.5618 -0.1539
  401MOL0     C55242   9.563   0.614   4.837  0.3075  0.2951 -0.5600
  401MOL0     C55243   9.593   0.718   4.947  0.3624 -0.0023 -0.3101
  401MOL0     C55244   9.732   0.702   5.001  0.1215  0.2036 -0.3622
  401MOL0    Cl55245   9.864   0.767   4.878 -0.2237  0.3214  0.8495
  401MOL0     C55246   9.012   0.382   4.144  1.2577 -0.3969  0.1543
  401MOL0     C55247   8.897   0.357   4.062 -0.4497 -0.7867 -0.2807
  401MOL0     O55248   8.554   0.603   3.984  0.0761 -0.4122  0.3280
  401MOL0     C55249   8.351   0.531   3.819  0.0122  0.0959 -0.3780
  401MOL0     C55250   8.260   0.503   3.719  0.0572 -0.7327 -0.7063
  401MOL0     N55251   8.225   0.898   3.153 -0.6254 -0.2939 -0.1956
  401MOL0     N55252   8.237   0.975   3.051 -0.5804  0.3775  1.6576
  401MOL0     C55253   9.337   1.203   2.826 -0.4204  0.4233  0.5522
  401MOL0     C55254   9.468   1.216   2.775  0.3774  0.2111 -0.2277
  401MOL0     C55255   9.796   1.242   2.489 -0.5609 -0.4918 -0.0518
  401MOL0     C55256   9.840   1.376   2.450 -0.0622  0.6847 -0.5607
  401MOL0     C55257   9.964   1.391   2.391  0.7644 -0.2285 -0.0789
  401MOL0     C55258  10.045   1.288   2.357  0.1917 -0.1579  0.5056
  401MOL0     O55259  10.171   1.320   2.327 -0.0377 -0.4324 -0.6257
  401MOL0     C55260  10.258   1.214   2.292  0.0792  0.2489 -0.8521
  401MOL0     C55261  10.348   1.148   2.406 -0.0782 -0.1520  0.0497
  401MOL0     C55262  10.438   1.254   2.478 -0.0914  0.3437  0.6593
  401MOL0     C55263  10.553   1.186   2.560  0.5875 -0.2387 -0.1990
  401MOL0     C55264  10.672   1.265   2.552 -0.5952 -0.0003  0.1561
  401MOL0     C55265  10.769   1.338   2.553 -0.2442 -0.3395  0.4551
  401MOL0     C55266   9.991   1.161   2.381 -0.1349 -0.4812  0.6519
  401MOL0     C55267   9.862   1.132   2.438 -0.2621  0.3106  0.0443
  401MOL0     C55268   9.831   0.989   2.463  0.0009  1.1219  0.2223
  401MOL0     H55269   9.432   1.527   2.631 -2.3751 -0.3339 -1.0958
  401MOL0     H55270   9.221   1.518   2.769  0.7222  1.5338 -1.8996
  401MOL0     H55271   9.072   1.187   2.692  1.0373  1.3785 -1.0577
  401MOL0     H55272   9.003   1.347   2.723 -3.8496 -1.4629  1.7341
  401MOL0     H55273   8.936   1.114   2.890  0.5517  1.1210  2.9900
  401MOL0     H55274   8.886   1.261   2.921 -2.5473 -2.9227 -0.0078
  401MOL0     H55275   8.773   1.282   2.697 -4.2249 -2.3781 -2.4936
  401MOL0     H55276   8.851   1.118   2.656  0.2076 -1.5937  1.5356
  401MOL0     H55277   8.716   1.018   2.800 -0.3984 -0.0476 -0.0454
  401MOL0     H55278   8.652   1.169   2.870 -1.6124 -0.1924 -0.7618
  401MOL0     H55279   8.622   1.128   2.575  1.4751  0.4334  1.2475
  401MOL0     H55280   8.499   1.178   2.695 -0.5411 -0.5814 -2.4444
  401MOL0     H55281   8.408   0.998   2.592 -0.7767  0.1068  1.4740
  401MOL0     H55282   8.575   0.909   2.612 -0.4928 -0.2407  0.2692
  401MOL0     H55283   8.509   0.927   2.863 -0.5458 -1.5848  0.6512
  401MOL0     H55284   8.428   0.815   2.759 -1.4831 -0.3676 -0.5608
  401MOL0     H55285   8.312   1.081   2.830 -1.9382 -0.5626  1.8184
  401MOL0     H55286   8.237   0.958   2.725  3.5965  1.1322 -2.8421
  401MOL0     H55287   8.247   0.693   2.900  0.0717  0.1566 -0.2428
  401MOL0     H55288   8.189   0.561   3.117 -1.8980  1.7921 -1.4387
  401MOL0     H55289   8.086   0.668   3.224  0.7888  0.9607  3.0163
  401MOL0     H55290   8.381   0.670   3.274 -0.1134 -1.0703 -3.6723
  401MOL0     H55291   8.249   0.716   3.384  2.8948  0.1607  0.9017
  401MOL0     H55292   8.314   0.426   3.299  2.3719  1.2888 -0.9058
  401MOL0     H55293   8.372   0.508   3.443 -0.0181 -1.9591 -0.3903
  401MOL0     H55294   8.112   0.551   3.494 -0.2530 -1.3278  3.7818
  401MOL0     H55295   8.094   0.423   3.362  2.9234 -2.0436 -0.3775
  401MOL0     H55296   8.411   0.247   3.574  3.5641  0.3299  1.7576
  401MOL0     H55297   8.702   0.290   3.733 -0.7909  0.1945 -0.8243
  401MOL0     H55298   8.617   0.154   3.698 -0.4580 -0.7289  0.8271
  401MOL0     H55299   8.620   0.210   3.869  0.1653 -0.9041 -0.9330
  401MOL0     H55300   8.746   0.655   4.093  0.0812 -0.7948  3.1766
  401MOL0     H55301   8.930   0.696   4.253  1.3807  0.9892 -1.9115
  401MOL0     H55302   9.044   0.405   4.484 -1.9578 -1.0338 -2.4858
  401MOL0     H55303   9.130   0.315   4.363 -2.0590  0.5070 -1.6090
  401MOL0     H55304   9.255   0.335   4.574 -1.0204 -1.3821 -1.1734
  401MOL0     H55305   9.340   0.403   4.427 -2.2601 -0.0185 -2.9411
  401MOL0     H55306   9.206   0.556   4.654 -0.6999 -0.2379 -0.9757
  401MOL0     H55307   9.276   0.622   4.503 -0.4107  0.9452 -1.1527
  401MOL0     H55308   9.495   0.598   4.590  0.9063 -0.7505 -0.0277
  401MOL0     H55309   9.458   0.447   4.683 -2.5642 -1.6705  1.0030
  401MOL0     H55310   9.398   0.738   4.755 -2.3595  0.4677  1.1953
  401MOL0     H55311   9.341   0.600   4.840  0.9095 -1.9832  0.7329
  401MOL0     H55312   9.638   0.618   4.758 -1.0265  1.8408 -1.8199
  401MOL0     H55313   9.560   0.511   4.876  0.9692 -0.2830 -1.9818
  401MOL0     H55314   9.520   0.725   5.028  0.4966  0.1191 -0.2009
  401MOL0     H55315   9.587   0.820   4.908 -2.5959  0.8962  2.1283
  401MOL0     H55316   9.741   0.596   5.023 -1.9267 -0.5166 -2.5706
  401MOL0     H55317   9.723   0.766   5.090  1.0552  0.9726 -0.8038
  401MOL0     H55318   9.090   0.307   4.152 -0.4954 -2.2434  0.8238
  401MOL0     H55319   8.879   0.255   4.029  1.2342 -1.0184 -0.5339
  401MOL0     H55320   8.346   0.629   3.866  0.1684 -0.4435  0.8126
  401MOL0     H55321   8.167   0.559   3.716 -0.2587 -1.2819 -1.6998
  401MOL0     H55322   9.306   1.119   2.887  1.4087  0.3989  1.4943
  401MOL0     H55323   9.538   1.134   2.787 -1.3276 -1.5328 -1.5011
  401MOL0     H55324   9.778   1.461   2.473 -0.7204  0.4885 -1.5417
  401MOL0     H55325   9.980   1.491   2.351 -2.9284  0.3388 -0.5386
  401MOL0     H55326  10.210   1.122   2.259  0.1399 -0.0809 -0.0442
  401MOL0     H55327  10.313   1.243   2.202 -0.2120  0.8354 -0.8441
  401MOL0     H55328  10.403   1.064   2.361  0.3324  0.4311 -0.5616
  401MOL0     H55329  10.281   1.107   2.482 -0.6925  3.7944  1.8870
  401MOL0     H55330  10.486   1.316   2.402 -0.2866 -3.2799 -2.8067
  401MOL0     H55331  10.370   1.314   2.538 -1.5463  0.3694 -0.9511
  401MOL0     H55332  10.579   1.081   2.542 -0.0105 -0.8030  1.9875
  401MOL0     H55333  10.520   1.189   2.664  1.7817 -3.1102  0.3593
  401MOL0     H55334  10.846   1.411   2.538 -2.2930  2.0306  0.6544
  401MOL0     H55335  10.053   1.077   2.354 -0.8411 -0.1566 -2.3480
  401MOL0     H55336   9.918   0.932   2.431  0.4136  0.6944  2.0100
  401MOL0     H55337   9.806   0.961   2.566  2.4517  0.7084  0.7689
  401MOL0     H55338   9.748   0.964   2.396 -0.1754  0.6106  0.6316
  402MOL0     O55339   1.518   1.703   1.563 -0.1972  0.0440  0.1584
  402MOL0     C55340   1.536   1.604   1.491  0.7749  0.4323 -0.9232
  402MOL0     O55341   1.436   1.554   1.406  0.2212  0.5323  1.0268
  402MOL0     C55342   1.331   1.633   1.386  0.3891 -0.2492  0.2789
  402MOL0     C55343   1.333   1.727   1.285 -0.3666 -0.6617 -0.3653
  402MOL0     C55344   1.228   1.821   1.266 -0.5146  0.5880  0.0420
  402MOL0     C55345   1.114   1.818   1.350  0.3868 -0.2522 -0.1074
  402MOL0     O55346   0.999   1.894   1.329 -0.5486  0.1955 -1.1469
  402MOL0     C55347   0.987   1.965   1.203  0.7608  0.0574 -0.1751
  402MOL0     C55348   0.959   1.876   1.086  0.2786 -0.0599 -0.1459
  402MOL0     C55349   0.823   1.807   1.068  0.3216  1.0599 -0.0151
  402MOL0     C55350   0.821   1.770   0.916 -0.0176 -0.6021 -0.0564
  402MOL0     C55351   0.679   1.753   0.865 -0.1858 -0.5613 -0.7094
  402MOL0     C55352   0.662   1.740   0.716 -0.3608  0.0074  0.1709
  402MOL0     C55353   0.515   1.769   0.664  0.6394  0.6960 -0.2000
  402MOL0     C55354   0.483   1.920   0.650 -0.3188  0.1304 -0.2075
  402MOL0     N55355   0.444   1.993   0.773  0.4291  0.4459  0.1884
  402MOL0     C55356   0.336   1.965   0.852  0.5504 -0.8001 -0.5626
  402MOL0     C55357   0.326   2.088   0.917  0.3200  1.1052  0.2923
  402MOL0     C55358   0.199   2.133   0.995  0.6029  0.5538 -0.3905
  402MOL0     C55359   0.076   2.170   0.916  0.2083  0.3172 -0.1829
  402MOL0     C55360   0.023   2.052   0.829  0.7522 -0.4502 -0.2845
  402MOL0     C55361  -0.071   2.127   0.724 -0.3047  0.1700  0.2887
  402MOL0     O55362  -0.170   2.213   0.789  0.6290  0.9158 -0.6679
  402MOL0     C55363  -0.278   2.255   0.716  0.8358 -0.5356  0.0234
  402MOL0     C55364  -0.379   2.312   0.784 -0.0836  0.8083  0.0691
  402MOL0     C55365  -0.501   2.353   0.722 -0.5333  0.1643  0.3545
  402MOL0     C55366  -0.605   2.396   0.813  0.2647 -0.4149 -0.0527
  402MOL0     C55367  -0.512   2.358   0.578 -0.6979  0.0361  0.0414
  402MOL0     C55368  -0.630   2.422   0.505  0.2750  0.7855 -0.1886
  402MOL0     O55369  -0.605   2.458   0.379 -0.3760  1.1400 -0.5020
  402MOL0     C55370  -0.693   2.527   0.299  0.4086 -0.1002 -1.2078
  402MOL0     C55371  -0.807   2.468   0.254 -1.0744 -0.3708  0.7301
  402MOL0     C55372  -0.895   2.539   0.182  0.5168 -0.3462 -0.3588
  402MOL0     C55373  -0.889   2.673   0.159  0.2601 -0.8729 -0.1273
  402MOL0     O55374  -0.980   2.731   0.075  0.7741  1.2997 -0.1595
  402MOL0     C55375  -0.954   2.867   0.031 -0.1270 -0.7575 -0.1086
  402MOL0     C55376  -1.051   2.895  -0.084 -0.0044 -1.0314  0.2207
  402MOL0     C55377  -1.194   2.891  -0.031 -0.3653  0.1544 -0.2624
  402MOL0     C55378  -1.299   2.931  -0.138 -0.1240  0.5576  0.4308
  402MOL0     C55379  -1.437   2.865  -0.120  0.2511  0.2278 -0.1390
  402MOL0     C55380  -1.521   2.908  -0.238 -0.2796  0.4409  0.5305
  402MOL0     C55381  -1.664   2.885  -0.224  0.2192  0.4039 -0.3469
  402MOL0     C55382  -1.727   2.985  -0.128 -0.2684 -0.0602 -0.5005
  402MOL0    Cl55383  -1.899   2.951  -0.108 -0.0728  0.2909  0.5293
  402MOL0     C55384  -0.771   2.733   0.214  0.6134 -0.1064  0.6581
  402MOL0     C55385  -0.679   2.669   0.289  0.2710 -0.5476  0.9336
  402MOL0     O55386  -0.747   2.437   0.564  0.0333 -0.3585  0.3937
  402MOL0     C55387  -0.400   2.303   0.505  0.5370  0.6030 -0.6424
  402MOL0     C55388  -0.296   2.253   0.580  0.0276  0.1996  0.5178
  402MOL0     N55389   0.421   2.173   0.883 -0.0277 -0.7342 -0.3047
  402MOL0     N55390   0.498   2.117   0.802  0.2856 -0.0559  0.3688
  402MOL0     C55391   1.110   1.726   1.451 -0.1433 -0.6825 -1.1835
  402MOL0     C55392   1.221   1.640   1.477 -0.5708 -0.0305  0.8684
  402MOL0     C55393   1.660   1.511   1.504 -0.5121 -1.1104 -0.1674
  402MOL0     C55394   1.710   1.476   1.636  0.1273  0.4254  0.5812
  402MOL0     C55395   1.821   1.389   1.656  0.2412 -0.0506 -0.2564
  402MOL0     C55396   1.879   1.328   1.539  0.6056 -0.1403  0.7796
  402MOL0     O55397   1.966   1.220   1.564 -0.3140  0.0602 -0.7156
  402MOL0     C55398   2.099   1.248   1.525  0.5817  0.0224  0.4239
  402MOL0     C55399   2.145   1.161   1.409  0.8118  0.2804  0.3382
  402MOL0     C55400   2.261   1.210   1.324  0.0743 -0.4404 -0.2663
  402MOL0     C55401   2.343   1.102   1.267  0.0973  0.6585  0.5621
  402MOL0     C55402   2.458   1.081   1.350  0.4785 -0.3918 -0.3462
  402MOL0     C55403   2.562   1.070   1.414 -0.1945 -0.4238  0.6094
  402MOL0     C55404   1.824   1.349   1.410  0.4509 -0.3258  0.4280
  402MOL0     C55405   1.719   1.447   1.394  0.0315 -0.4242 -0.2169
  402MOL0     C55406   1.686   1.483   1.249 -0.0604 -0.3661 -0.0034
  402MOL0     H55407   1.420   1.752   1.225 -0.9231 -0.7059 -1.2026
  402MOL0     H55408   1.231   1.888   1.181 -0.2822 -0.9399 -1.2170
  402MOL0     H55409   1.075   2.024   1.177 -0.1767  0.7367 -2.0172
  402MOL0     H55410   0.898   2.028   1.214  0.2933 -0.5201 -0.5832
  402MOL0     H55411   0.981   1.940   1.000  1.1711 -1.4006 -0.9605
  402MOL0     H55412   1.037   1.799   1.083 -1.6019 -2.0515 -0.7940
  402MOL0     H55413   0.806   1.715   1.126 -1.2261  1.8325  0.8251
  402MOL0     H55414   0.745   1.874   1.103 -0.1731  0.9283 -0.8168
  402MOL0     H55415   0.869   1.841   0.847  0.2634 -0.4163  0.3284
  402MOL0     H55416   0.877   1.677   0.904  0.2746 -0.3332 -0.9111
  402MOL0     H55417   0.628   1.847   0.888 -5.0981 -2.5682 -2.0836
  402MOL0     H55418   0.642   1.665   0.918 -1.6744  0.6555  0.3554
  402MOL0     H55419   0.730   1.804   0.658 -0.7822 -0.8775 -1.3664
  402MOL0     H55420   0.695   1.639   0.691  0.8134  0.2665  0.6103
  402MOL0     H55421   0.436   1.715   0.717  0.2197  0.3844 -1.1192
  402MOL0     H55422   0.516   1.738   0.559 -1.2958  0.8459 -0.3086
  402MOL0     H55423   0.562   1.985   0.610 -2.9749  3.5200 -0.4267
  402MOL0     H55424   0.404   1.931   0.575  0.1403  1.0580 -0.5694
  402MOL0     H55425   0.264   1.884   0.860  0.5803 -0.9450 -1.6386
  402MOL0     H55426   0.203   2.225   1.054 -2.5272 -0.2636  1.3362
  402MOL0     H55427   0.175   2.053   1.066 -3.3891 -0.3373 -2.4116
  402MOL0     H55428  -0.008   2.209   0.973 -0.8445 -1.0998 -0.7109
  402MOL0     H55429   0.105   2.254   0.850 -1.0054  1.9891  1.3255
  402MOL0     H55430   0.103   1.997   0.778  0.4130  0.8608 -2.3429
  402MOL0     H55431  -0.038   1.981   0.885  2.7052 -1.8084  0.2422
  402MOL0     H55432  -0.002   2.170   0.651 -0.1363 -1.9639 -0.8815
  402MOL0     H55433  -0.136   2.054   0.675 -1.4794  1.0237  0.5397
  402MOL0     H55434  -0.371   2.325   0.891 -2.1336 -2.9662  0.8610
  402MOL0     H55435  -0.583   2.384   0.919 -0.8741  0.8331  0.3608
  402MOL0     H55436  -0.693   2.333   0.793 -2.2344  2.7109  0.2481
  402MOL0     H55437  -0.641   2.498   0.795 -1.4304 -1.2602 -1.8446
  402MOL0     H55438  -0.813   2.360   0.263  1.9420 -0.7267 -0.3095
  402MOL0     H55439  -0.977   2.480   0.142 -0.2716  0.5018 -0.0326
  402MOL0     H55440  -0.943   2.948   0.104 -2.1830  0.4553 -1.0557
  402MOL0     H55441  -0.859   2.857  -0.022 -0.4019 -2.3042 -0.3322
  402MOL0     H55442  -1.034   2.996  -0.123 -1.0925 -1.1869 -0.7266
  402MOL0     H55443  -1.018   2.820  -0.157  3.7263 -1.8156  2.4600
  402MOL0     H55444  -1.216   2.961   0.050 -3.3375 -1.0405  0.0795
  402MOL0     H55445  -1.215   2.790   0.007  0.6001 -0.4035 -1.1188
  402MOL0     H55446  -1.263   2.907  -0.239 -0.8750 -4.3662  1.0884
  402MOL0     H55447  -1.316   3.039  -0.139 -0.6156  0.5272 -2.3387
  402MOL0     H55448  -1.430   2.757  -0.113  1.1745  0.3156  0.3900
  402MOL0     H55449  -1.483   2.899  -0.027 -0.9244  2.5838 -1.4669
  402MOL0     H55450  -1.496   2.840  -0.320 -0.7731  0.2359  0.5513
  402MOL0     H55451  -1.504   3.011  -0.271  0.8134  0.5248  1.2819
  402MOL0     H55452  -1.673   2.785  -0.181  1.5240 -0.0503 -1.0638
  402MOL0     H55453  -1.715   2.879  -0.321  0.4909  0.1278 -0.4778
  402MOL0     H55454  -1.714   3.075  -0.190  3.1066 -1.0325 -1.4716
  402MOL0     H55455  -1.670   2.996  -0.035 -2.0531  0.9368  0.5135
  402MOL0     H55456  -0.775   2.841   0.205 -2.9414 -0.2777 -2.4403
  402MOL0     H55457  -0.600   2.724   0.340  0.5552 -0.5869  0.5424
  402MOL0     H55458  -0.400   2.284   0.398  1.4900 -1.7782 -0.2720
  402MOL0     H55459  -0.215   2.224   0.514 -1.5089  0.4103 -1.5662
  402MOL0     H55460   1.011   1.717   1.494  0.6021  0.2365  0.8335
  402MOL0     H55461   1.221   1.572   1.562  2.4533  0.4898  1.4039
  402MOL0     H55462   1.663   1.529   1.719  3.6695  2.4118  1.5363
  402MOL0     H55463   1.851   1.364   1.758 -0.5033  0.5352  0.1206
  402MOL0     H55464   2.119   1.353   1.505  0.9965  0.0810  1.1103
  402MOL0     H55465   2.162   1.216   1.608 -0.9005  0.7567  1.8729
  402MOL0     H55466   2.062   1.126   1.347  2.0111 -0.0590 -1.1212
  402MOL0     H55467   2.181   1.073   1.462 -2.6281 -2.5221 -1.5301
  402MOL0     H55468   2.221   1.264   1.238  0.4653 -0.8185 -0.6850
  402MOL0     H55469   2.323   1.281   1.380  1.0660 -0.9714 -0.6736
  402MOL0     H55470   2.369   1.125   1.163 -1.3159 -0.8130 -0.1625
  402MOL0     H55471   2.277   1.014   1.259  0.2174  0.4415  1.8133
  402MOL0     H55472   2.662   1.065   1.451 -0.9351 -0.2730  2.7863
  402MOL0     H55473   1.859   1.294   1.323 -2.6281 -1.7539 -0.0257
  402MOL0     H55474   1.765   1.444   1.184 -0.7339 -2.0411  0.1189
  402MOL0     H55475   1.592   1.437   1.217  0.5610 -0.2473 -2.1524
  402MOL0     H55476   1.677   1.591   1.237  0.5669 -0.3537 -0.4006
  403MOL0     O55477   8.219   1.962  10.823  0.0113  0.1180  0.3289
  403MOL0     C55478   8.103   1.921  10.840 -1.0403  0.8759 -0.4505
  403MOL0     O55479   8.055   1.864  10.955 -0.4676  0.3498 -0.7835
  403MOL0     C55480   8.139   1.806  11.055 -0.2947 -0.1272  0.5828
  403MOL0     C55481   8.123   1.840  11.187  0.5305 -0.0083  0.3309
  403MOL0     C55482   8.214   1.796  11.277  0.1426 -0.5432 -0.5717
  403MOL0     C55483   8.317   1.709  11.244 -0.7786 -0.0554  0.7118
  403MOL0     O55484   8.403   1.661  11.329 -1.2314  0.2863 -0.3767
  403MOL0     C55485   8.444   1.740  11.446  0.3001 -0.2799 -1.0089
  403MOL0     C55486   8.577   1.694  11.488 -0.4305  0.7490 -0.5649
  403MOL0     C55487   8.680   1.748  11.385 -0.1064  1.1732 -0.3285
  403MOL0     C55488   8.829   1.703  11.404  0.5798  0.6164  0.6012
  403MOL0     C55489   8.916   1.738  11.280  0.5456  0.2457  0.3704
  403MOL0     C55490   9.068   1.713  11.300 -0.7052 -0.0777  0.9592
  403MOL0     C55491   9.159   1.790  11.191  0.2531  0.0789  0.9840
  403MOL0     C55492   9.309   1.771  11.229  0.2156 -0.5390 -0.8803
  403MOL0     N55493   9.392   1.843  11.135 -0.5474  0.4831  0.7834
  403MOL0     C55494   9.507   1.908  11.171  0.6468  0.2991  1.1482
  403MOL0     C55495   9.558   1.955  11.050  0.3565  0.3283 -0.4510
  403MOL0     C55496   9.664   2.054  11.042 -0.2569  0.7513 -0.6215
  403MOL0     C55497   9.633   2.179  11.109 -0.0435 -0.2979 -0.3746
  403MOL0     C55498   9.722   2.290  11.059 -0.3102  0.2161  0.2631
  403MOL0     C55499   9.697   2.422  11.120  0.4938  0.1659  0.9758
  403MOL0     O55500   9.805   2.517  11.084 -0.4195  0.3752 -0.3622
  403MOL0     C55501   9.928   2.496  11.149  0.3885 -0.1539 -0.1207
  403MOL0     C55502  10.042   2.564  11.099 -0.3965 -0.3648 -0.7437
  403MOL0     C55503  10.168   2.556  11.154 -0.3566  0.0536  0.1598
  403MOL0     C55504  10.274   2.643  11.100 -0.2736 -0.3438  0.1405
  403MOL0     C55505  10.186   2.456  11.256  0.4905 -1.6202  0.3931
  403MOL0     C55506  10.319   2.409  11.284 -0.0766  0.2655 -0.0533
  403MOL0     O55507  10.423   2.407  11.190 -0.3522 -0.0019  0.5502
  403MOL0     C55508  10.548   2.366  11.233  0.7695  0.4002  0.1951
  403MOL0     C55509  10.622   2.453  11.329  0.2890  0.5803  0.7852
  403MOL0     C55510  10.754   2.411  11.357  0.6966  0.0410  0.2146
  403MOL0     C55511  10.811   2.298  11.300  0.9709  0.2354 -0.0231
  403MOL0     O55512  10.943   2.272  11.326 -0.0769 -0.1578 -0.9281
  403MOL0     C55513  11.009   2.185  11.238 -0.1506 -0.8021  0.1652
  403MOL0     C55514  11.156   2.194  11.282 -1.2424 -0.4763 -1.3732
  403MOL0     C55515  11.240   2.090  11.214 -0.2480 -0.8310 -0.4258
  403MOL0     C55516  11.356   2.048  11.307  0.2971  0.3920 -0.1672
  403MOL0     C55517  11.451   1.967  11.229  0.4778 -0.3215  0.0000
  403MOL0     C55518  11.562   1.913  11.324  0.9391 -0.0022 -1.1221
  403MOL0     C55519  11.660   1.807  11.266 -0.3185  0.0067 -0.1873
  403MOL0     C55520  11.624   1.684  11.337  0.5187  1.1377  0.5725
  403MOL0    Cl55521  11.676   1.684  11.501  0.1882  0.4118 -0.0123
  403MOL0     C55522  10.744   2.234  11.193  0.8812  0.1573  0.2608
  403MOL0     C55523  10.605   2.266  11.168  0.4206  1.2350  0.2891
  403MOL0     O55524  10.336   2.386  11.407  0.1994 -0.0430  0.2974
  403MOL0     C55525  10.074   2.392  11.305 -0.6717 -0.1885  0.0623
  403MOL0     C55526   9.951   2.410  11.253 -0.8078 -0.1163  1.2837
  403MOL0     N55527   9.481   1.899  10.945 -0.0098  0.2299 -0.9955
  403MOL0     N55528   9.385   1.839  11.006 -0.7179 -0.1455  0.7707
  403MOL0     C55529   8.339   1.670  11.110  0.6723  1.0833 -0.6704
  403MOL0     C55530   8.244   1.717  11.019  0.4737  0.3951  0.5233
  403MOL0     C55531   8.011   1.935  10.719  0.0388 -0.1776 -0.4072
  403MOL0     C55532   7.882   1.875  10.730 -0.9201  0.1045 -0.0484
  403MOL0     C55533   7.791   1.890  10.635  0.8591  0.2066 -0.3180
  403MOL0     C55534   7.813   1.948  10.515 -0.1959 -0.4257  0.3736
  403MOL0     O55535   7.700   1.958  10.437  0.1444  0.1815  0.7559
  403MOL0     C55536   7.705   2.007  10.309 -0.4308 -0.6316 -0.9125
  403MOL0     C55537   7.575   2.013  10.234  0.2094  0.1094  0.0911
  403MOL0     C55538   7.488   1.894  10.280 -0.2504 -0.3613 -0.1730
  403MOL0     C55539   7.356   1.905  10.213  0.6941  0.4261 -0.1036
  403MOL0     C55540   7.294   1.772  10.208 -0.9119 -1.4213 -0.9123
  403MOL0     C55541   7.232   1.673  10.199  0.7283 -0.0378  0.6859
  403MOL0     C55542   7.943   2.004  10.495  0.6418 -0.4799 -1.3320
  403MOL0     C55543   8.047   2.002  10.596  0.2225  0.5933 -0.1058
  403MOL0     C55544   8.179   2.079  10.576  0.4253  0.6350 -0.2012
  403MOL0     H55545   8.041   1.899  11.226  0.7748  0.1860  0.5558
  403MOL0     H55546   8.189   1.818  11.381 -2.1893 -1.2269 -0.9266
  403MOL0     H55547   8.373   1.718  11.526 -1.6204  1.8279 -1.9862
  403MOL0     H55548   8.439   1.848  11.425 -0.9258  0.2221  1.4485
  403MOL0     H55549   8.602   1.730  11.588 -0.7842  2.3052 -1.0134
  403MOL0     H55550   8.586   1.586  11.499 -0.9869  0.7019 -0.4998
  403MOL0     H55551   8.648   1.716  11.285  0.7722 -0.4095 -0.1381
  403MOL0     H55552   8.678   1.857  11.389  3.4691  1.3203  0.0294
  403MOL0     H55553   8.877   1.756  11.487  2.9661  0.6757 -0.7322
  403MOL0     H55554   8.836   1.598  11.434 -1.7035  0.4697  0.8298
  403MOL0     H55555   8.914   1.845  11.256  1.5059  0.3101  0.5323
  403MOL0     H55556   8.878   1.682  11.195  0.1771 -0.6522  1.1108
  403MOL0     H55557   9.095   1.762  11.394 -0.2387  1.2903  0.1348
  403MOL0     H55558   9.096   1.608  11.312  0.6205  0.3483  1.8108
  403MOL0     H55559   9.125   1.894  11.185 -0.7828 -0.2409  0.9762
  403MOL0     H55560   9.144   1.748  11.091  0.9609 -1.2763  1.4237
  403MOL0     H55561   9.325   1.814  11.328  1.6877  0.9236 -1.7098
  403MOL0     H55562   9.325   1.663  11.229 -1.5533 -0.8610  1.0360
  403MOL0     H55563   9.547   1.930  11.269  2.1746  2.9864  0.0175
  403MOL0     H55564   9.694   2.064  10.937 -2.1602 -3.5280 -1.7893
  403MOL0     H55565   9.749   2.015  11.098 -2.5839 -1.2579  1.7977
  403MOL0     H55566   9.526   2.199  11.093 -0.0521  0.3311  0.3777
  403MOL0     H55567   9.649   2.167  11.217 -2.4127  0.2846  0.1085
  403MOL0     H55568   9.820   2.250  11.086 -0.5362 -2.2045 -2.1147
  403MOL0     H55569   9.711   2.309  10.952  0.7791  0.4192  0.1813
  403MOL0     H55570   9.603   2.457  11.078  1.4809  0.5726 -1.0457
  403MOL0     H55571   9.675   2.408  11.226  0.1615  0.5331  0.9552
  403MOL0     H55572  10.027   2.640  11.022 -0.2785  1.2705  0.7728
  403MOL0     H55573  10.335   2.684  11.181 -3.3427  0.7903  2.0198
  403MOL0     H55574  10.241   2.735  11.051  0.0019 -0.0842  0.4433
  403MOL0     H55575  10.335   2.575  11.039 -1.5634 -0.6763 -0.8163
  403MOL0     H55576  10.577   2.541  11.374 -2.8574  0.9716 -2.5846
  403MOL0     H55577  10.810   2.460  11.437  0.0819 -1.6986  1.7821
  403MOL0     H55578  10.975   2.082  11.246  0.2462 -0.9099  0.5206
  403MOL0     H55579  11.019   2.221  11.135 -1.8630  1.3017  0.6409
  403MOL0     H55580  11.202   2.293  11.272 -3.4793  0.9599  1.2155
  403MOL0     H55581  11.167   2.175  11.389 -0.4190 -1.8779 -1.6846
  403MOL0     H55582  11.278   2.132  11.120  1.7891 -0.4646  0.5053
  403MOL0     H55583  11.177   2.005  11.188  0.3985 -0.7357 -2.4922
  403MOL0     H55584  11.306   1.986  11.382  2.2076 -0.5946  0.3717
  403MOL0     H55585  11.408   2.138  11.343  0.9078  0.3597 -0.9641
  403MOL0     H55586  11.397   1.882  11.185  1.6221 -0.8210 -0.5067
  403MOL0     H55587  11.494   2.026  11.148  1.2071 -0.4663  0.2699
  403MOL0     H55588  11.513   1.879  11.415  3.0998  4.1796  1.9022
  403MOL0     H55589  11.611   2.005  11.356  0.1455 -0.1759  0.6568
  403MOL0     H55590  11.761   1.833  11.297 -0.0277 -1.1586 -0.1234
  403MOL0     H55591  11.659   1.794  11.158  0.1195 -1.9855  0.0132
  403MOL0     H55592  11.679   1.598  11.297 -0.4564  1.5680 -1.8670
  403MOL0     H55593  11.519   1.657  11.321  0.8729 -1.4474  1.9799
  403MOL0     H55594  10.773   2.143  11.142 -1.1260 -0.4499  0.1182
  403MOL0     H55595  10.547   2.217  11.090 -0.0088  0.7753  0.8881
  403MOL0     H55596  10.090   2.329  11.392 -0.5772 -2.0540 -1.2377
  403MOL0     H55597   9.878   2.340  11.293  0.1346 -1.0710  1.3690
  403MOL0     H55598   8.426   1.609  11.087  0.0024 -0.2254  0.1383
  403MOL0     H55599   8.248   1.668  10.922  0.3608  1.6076 -0.1097
  403MOL0     H55600   7.861   1.838  10.830  1.5342  2.9060  1.7160
  403MOL0     H55601   7.694   1.846  10.655  0.8623  0.7490  1.0203
  403MOL0     H55602   7.746   2.109  10.301 -1.4550 -0.0433  0.7180
  403MOL0     H55603   7.776   1.954  10.246  1.0225 -0.7371  0.7204
  403MOL0     H55604   7.593   2.002  10.126  1.0344 -1.2474  0.3473
  403MOL0     H55605   7.525   2.106  10.262 -0.9305 -0.7255  0.9100
  403MOL0     H55606   7.544   1.810  10.238  3.3725  2.5346 -1.6670
  403MOL0     H55607   7.481   1.896  10.389  0.8354 -0.5772 -0.0908
  403MOL0     H55608   7.355   1.932  10.107  0.1797  0.4613 -0.0963
  403MOL0     H55609   7.289   1.970  10.271  1.2355  1.1790 -0.3062
  403MOL0     H55610   7.175   1.582  10.187 -0.2048 -0.3911  5.6310
  403MOL0     H55611   7.960   2.076  10.417  0.6554  1.2548  0.2009
  403MOL0     H55612   8.184   2.149  10.660 -1.4760  0.1689  0.3400
  403MOL0     H55613   8.261   2.006  10.585  0.5020  0.9636  2.7434
  403MOL0     H55614   8.194   2.146  10.492  0.5676 -0.2422 -0.8961
  404MOL0     O55615   4.055   2.330   1.956 -0.1832  0.4929  0.1449
  404MOL0     C55616   3.971   2.287   2.041 -0.7591 -0.2224  0.1022
  404MOL0     O55617   3.914   2.369   2.135 -0.1589  0.6501 -0.0247
  404MOL0     C55618   3.947   2.499   2.145 -0.8871  1.4755 -0.8071
  404MOL0     C55619   4.077   2.555   2.170 -0.0726  0.3353 -0.5930
  404MOL0     C55620   4.090   2.696   2.190 -0.2190 -0.1141  0.5726
  404MOL0     C55621   3.972   2.780   2.178 -0.4581 -0.1810 -0.2010
  404MOL0     O55622   3.970   2.921   2.192  0.6432 -0.1596 -0.4469
  404MOL0     C55623   4.087   2.993   2.159 -0.4277 -0.0645  0.4391
  404MOL0     C55624   4.075   3.059   2.028 -0.0111  0.0924  0.7617
  404MOL0     C55625   3.939   3.129   1.999  0.3950  0.8953 -0.0058
  404MOL0     C55626   3.946   3.282   1.997 -0.3296  0.1117 -0.4402
  404MOL0     C55627   3.810   3.359   2.001  0.3557 -0.0994 -0.0266
  404MOL0     C55628   3.737   3.374   2.136 -0.0327  0.0899  0.1159
  404MOL0     C55629   3.797   3.441   2.258  0.2954  0.7365  0.5438
  404MOL0     C55630   3.851   3.330   2.360  1.4891  0.4904  0.1806
  404MOL0     N55631   3.907   3.392   2.477 -0.5554  0.2378 -0.5371
  404MOL0     C55632   3.851   3.396   2.607 -0.7603  0.3278 -0.0300
  404MOL0     C55633   3.920   3.492   2.671 -0.4543  1.0615  0.0360
  404MOL0     C55634   3.891   3.525   2.817 -0.1481 -0.0480  0.6889
  404MOL0     C55635   3.757   3.600   2.832  1.2106 -0.5922  0.1649
  404MOL0     C55636   3.764   3.641   2.980  0.1191 -0.1029  0.0520
  404MOL0     C55637   3.635   3.716   3.017  0.2251 -0.0381 -0.3690
  404MOL0     O55638   3.663   3.837   3.089 -0.0555  0.4001  0.6226
  404MOL0     C55639   3.694   3.811   3.218  0.4470  0.4998 -0.9018
  404MOL0     C55640   3.799   3.892   3.283  0.1431  0.3596 -0.3341
  404MOL0     C55641   3.836   3.871   3.413  0.3746  0.5026  0.7996
  404MOL0     C55642   3.943   3.965   3.457  0.3946  0.0762  0.4742
  404MOL0     C55643   3.771   3.771   3.491  0.0349  1.0910 -0.8798
  404MOL0     C55644   3.812   3.728   3.625 -0.8103 -0.1008 -0.4941
  404MOL0     O55645   3.731   3.649   3.695  0.6480 -0.0167 -0.2473
  404MOL0     C55646   3.753   3.584   3.817 -0.5843 -0.6500  0.4329
  404MOL0     C55647   3.879   3.557   3.881 -0.2943 -0.5411  0.7716
  404MOL0     C55648   3.880   3.468   3.995  0.5593  0.3999 -0.5397
  404MOL0     C55649   3.764   3.403   4.041  0.2624  0.2542 -0.5227
  404MOL0     O55650   3.788   3.316   4.146  0.6649 -0.1651  0.0060
  404MOL0     C55651   3.683   3.288   4.229 -0.4053  0.3659 -0.1819
  404MOL0     C55652   3.726   3.193   4.340  0.1941 -0.4225 -0.1413
  404MOL0     C55653   3.846   3.231   4.422 -0.3171 -0.3150  0.6487
  404MOL0     C55654   3.851   3.185   4.554 -0.1646  0.2680  0.2273
  404MOL0     C55655   3.980   3.225   4.630  0.0792  0.4920 -0.3355
  404MOL0     C55656   4.088   3.125   4.589  0.6325  0.0634 -0.1510
  404MOL0     C55657   4.217   3.127   4.671 -0.0821 -0.0615  0.0389
  404MOL0     C55658   4.294   3.258   4.666 -0.1564 -0.7882  0.9903
  404MOL0    Cl55659   4.244   3.386   4.773 -0.1416 -0.1387  0.3453
  404MOL0     C55660   3.645   3.424   3.970 -0.9289  0.9168  0.4044
  404MOL0     C55661   3.636   3.522   3.860  0.1845  0.1396  0.2088
  404MOL0     O55662   3.917   3.769   3.664  0.2892  0.0358  0.0136
  404MOL0     C55663   3.675   3.695   3.431 -0.2980  0.6811  0.7605
  404MOL0     C55664   3.631   3.723   3.305 -0.7527 -0.2388  0.4056
  404MOL0     N55665   4.018   3.540   2.595 -0.1058 -0.3086 -0.4454
  404MOL0     N55666   4.011   3.483   2.479  0.2637  0.0113  0.4923
  404MOL0     C55667   3.852   2.722   2.136 -0.5724 -0.0235 -0.6997
  404MOL0     C55668   3.836   2.582   2.130 -0.7599 -0.2889  0.1017
  404MOL0     C55669   3.938   2.147   2.031 -0.9895 -0.9125  0.4191
  404MOL0     C55670   3.797   2.137   2.028  0.2470  0.4957  0.6155
  404MOL0     C55671   3.736   2.009   2.005 -0.6315 -0.6249 -0.2033
  404MOL0     C55672   3.821   1.896   1.993 -0.3038  0.6331 -0.0329
  404MOL0     O55673   3.764   1.778   1.959  0.4757 -0.8940 -0.1519
  404MOL0     C55674   3.830   1.660   2.006  0.2814 -0.4607  0.0597
  404MOL0     C55675   3.750   1.534   2.015  0.2645  0.5481 -0.1394
  404MOL0     C55676   3.629   1.555   2.097  0.2844 -1.0986  0.1443
  404MOL0     C55677   3.662   1.504   2.241  0.9338 -0.4664 -0.2422
  404MOL0     C55678   3.656   1.362   2.264 -0.5200 -0.0114  0.3885
  404MOL0     C55679   3.654   1.246   2.297  0.3436 -0.1711  0.5477
  404MOL0     C55680   3.961   1.909   1.978  0.6359 -0.1498 -0.2323
  404MOL0     C55681   4.022   2.035   1.995  0.1582  0.8475  0.3425
  404MOL0     C55682   4.170   2.038   1.968 -0.3847 -0.2886  0.1109
  404MOL0     H55683   4.161   2.487   2.169 -0.6051 -0.4578  2.0320
  404MOL0     H55684   4.191   2.734   2.200  2.0240 -3.9768 -3.6801
  404MOL0     H55685   4.176   2.929   2.149 -0.0196  0.4279  0.8303
  404MOL0     H55686   4.112   3.070   2.233  1.3706  0.3854 -0.5754
  404MOL0     H55687   4.158   3.127   2.005 -1.0108  0.0648 -3.7725
  404MOL0     H55688   4.080   2.984   1.949 -1.0766  0.7578  0.0490
  404MOL0     H55689   3.904   3.102   1.899  0.6596 -1.1938  0.4217
  404MOL0     H55690   3.860   3.110   2.072  0.2786 -2.6423 -0.8951
  404MOL0     H55691   4.011   3.320   2.077 -0.0792  3.9252 -2.2063
  404MOL0     H55692   3.998   3.316   1.907  0.0824 -0.5691 -0.4661
  404MOL0     H55693   3.745   3.319   1.923 -0.5031  0.4049  0.4119
  404MOL0     H55694   3.839   3.455   1.957  2.2297  1.0592  3.3691
  404MOL0     H55695   3.649   3.429   2.103  0.7766  0.9604 -0.6426
  404MOL0     H55696   3.704   3.270   2.150  1.1744 -0.3411 -0.0911
  404MOL0     H55697   3.725   3.500   2.315  0.9720  3.2927 -1.0760
  404MOL0     H55698   3.885   3.500   2.231  2.8507 -3.3340 -1.0007
  404MOL0     H55699   3.768   3.263   2.385  1.7370 -0.8256 -2.2842
  404MOL0     H55700   3.926   3.267   2.313  0.3418 -0.8978  0.1147
  404MOL0     H55701   3.763   3.339   2.636 -2.1827  1.0026 -2.6312
  404MOL0     H55702   3.968   3.599   2.840  0.8167  0.1320 -2.5604
  404MOL0     H55703   3.899   3.434   2.876 -2.5285 -1.6124 -1.2102
  404MOL0     H55704   3.755   3.695   2.779  3.0819  1.7224  3.9151
  404MOL0     H55705   3.664   3.550   2.801  0.7134  1.6032 -2.2612
  404MOL0     H55706   3.760   3.548   3.038  1.7584  1.8030  3.4908
  404MOL0     H55707   3.855   3.697   3.003  0.3655 -0.0323 -1.0079
  404MOL0     H55708   3.588   3.758   2.928  1.1570  0.8329 -0.4760
  404MOL0     H55709   3.565   3.640   3.052  0.3634  0.9716  2.3125
  404MOL0     H55710   3.842   3.966   3.217 -3.0239  1.5864 -1.1922
  404MOL0     H55711   3.965   4.045   3.385 -1.5827 -0.7768 -1.1955
  404MOL0     H55712   4.037   3.910   3.467  0.4787  0.3445  1.2228
  404MOL0     H55713   3.913   3.996   3.557  1.4767  0.2263  0.7598
  404MOL0     H55714   3.974   3.582   3.835 -1.0577  0.3544 -0.3999
  404MOL0     H55715   3.979   3.434   4.024 -0.0726 -1.3188 -0.2585
  404MOL0     H55716   3.636   3.373   4.280 -0.0471  1.3832 -1.4936
  404MOL0     H55717   3.613   3.236   4.163 -1.0210  0.4342  0.4137
  404MOL0     H55718   3.639   3.169   4.402 -0.0913 -0.5268 -0.5765
  404MOL0     H55719   3.763   3.102   4.291 -1.2209 -1.1483  0.0795
  404MOL0     H55720   3.848   3.340   4.420 -4.2056 -0.0891 -1.9217
  404MOL0     H55721   3.935   3.187   4.377 -1.2294 -1.7670  0.1932
  404MOL0     H55722   3.838   3.076   4.553  0.7253  0.1199 -2.5979
  404MOL0     H55723   3.767   3.232   4.606 -0.7848 -0.7854  0.1902
  404MOL0     H55724   4.018   3.325   4.609  1.1505 -0.0272 -0.9609
  404MOL0     H55725   3.963   3.211   4.737  0.1703  0.5044 -0.3196
  404MOL0     H55726   4.115   3.136   4.484 -1.0123 -3.8598 -1.1735
  404MOL0     H55727   4.037   3.028   4.593  2.1371 -0.7429  0.4281
  404MOL0     H55728   4.280   3.049   4.627 -1.8601 -1.1751 -0.6384
  404MOL0     H55729   4.210   3.111   4.779  1.2459  1.0340  0.3205
  404MOL0     H55730   4.275   3.296   4.565 -0.3666  0.7615  1.5845
  404MOL0     H55731   4.403   3.243   4.670  0.1056  0.1990 -1.0191
  404MOL0     H55732   3.554   3.369   3.993 -2.0681  2.4220 -0.3970
  404MOL0     H55733   3.542   3.542   3.810  0.2432  0.4260  0.2150
  404MOL0     H55734   3.623   3.614   3.481  1.1887 -2.6881 -2.6020
  404MOL0     H55735   3.541   3.674   3.269 -0.6655 -1.8083  2.1852
  404MOL0     H55736   3.762   2.782   2.134  0.5113  1.6439 -0.9453
  404MOL0     H55737   3.734   2.545   2.127 -1.3793  1.2926  0.8068
  404MOL0     H55738   3.729   2.222   2.031 -3.9703 -2.5559 -0.2268
  404MOL0     H55739   3.629   1.992   1.999 -0.6182 -1.1903  0.9670
  404MOL0     H55740   3.918   1.627   1.949  0.6302 -0.2959  0.4963
  404MOL0     H55741   3.869   1.689   2.104 -1.3421  3.0879 -0.2002
  404MOL0     H55742   3.819   1.455   2.047  2.1810  2.5855  1.0130
  404MOL0     H55743   3.717   1.516   1.912  0.7512 -2.1059  0.0985
  404MOL0     H55744   3.597   1.659   2.103  0.3598 -1.1693  3.0232
  404MOL0     H55745   3.540   1.508   2.052 -0.0990  1.1365 -1.5707
  404MOL0     H55746   3.590   1.558   2.304  1.4597 -1.0232  0.8620
  404MOL0     H55747   3.758   1.542   2.277 -0.1353  1.3016  0.9146
  404MOL0     H55748   3.666   1.144   2.325 -0.7147 -0.0661  1.4339
  404MOL0     H55749   4.031   1.831   1.951  0.1340 -0.5521 -0.3859
  404MOL0     H55750   4.228   1.949   1.996 -1.0658 -1.2360 -1.3156
  404MOL0     H55751   4.190   2.058   1.862  0.8206  1.1782  0.5920
  404MOL0     H55752   4.216   2.122   2.020 -0.3145 -0.2516 -0.0086
  405MOL0     O55753   1.853   6.757   2.178 -0.3945 -0.6128  0.1091
  405MOL0     C55754   1.955   6.699   2.220 -0.2763 -0.3973  0.3156
  405MOL0     O55755   2.059   6.667   2.149 -0.2581  0.0037  0.2089
  405MOL0     C55756   2.058   6.687   2.008  0.4600 -0.1252  0.0621
  405MOL0     C55757   2.073   6.820   1.949  1.1007  0.8885 -0.8957
  405MOL0     C55758   2.072   6.838   1.813  0.0093 -0.1082  0.1556
  405MOL0     C55759   2.059   6.730   1.729 -0.2957  0.7376 -0.1601
  405MOL0     O55760   2.059   6.765   1.600 -0.7723 -0.4548  0.2722
  405MOL0     C55761   2.087   6.658   1.507 -0.0214 -0.0613  0.0103
  405MOL0     C55762   2.129   6.713   1.373  0.1216  0.1428  0.1414
  405MOL0     C55763   2.277   6.759   1.375  0.2562 -1.3233  0.4007
  405MOL0     C55764   2.329   6.815   1.513  0.0861  0.1802  0.1421
  405MOL0     C55765   2.454   6.892   1.495  0.3681  0.2249  0.1670
  405MOL0     C55766   2.513   6.954   1.620  0.6571 -0.0274 -0.7055
  405MOL0     C55767   2.657   7.008   1.610 -0.3160 -0.3818 -0.4580
  405MOL0     C55768   2.679   7.098   1.488  0.0070  0.0468  0.0786
  405MOL0     N55769   2.612   7.230   1.469  0.2167  0.3234 -0.1365
  405MOL0     C55770   2.534   7.262   1.359  0.4954  0.3267  0.5539
  405MOL0     C55771   2.513   7.394   1.381 -0.2012 -0.2314 -0.3887
  405MOL0     C55772   2.453   7.496   1.296 -0.3091 -0.1168 -0.0137
  405MOL0     C55773   2.301   7.521   1.327 -0.0862 -0.0250  0.1626
  405MOL0     C55774   2.220   7.392   1.286 -0.0092 -0.5087  0.3827
  405MOL0     C55775   2.067   7.409   1.277 -0.7369 -0.5653  0.2219
  405MOL0     O55776   2.036   7.482   1.155  0.2944 -0.3921  0.5766
  405MOL0     C55777   1.910   7.505   1.108 -0.0494 -0.9096 -0.5631
  405MOL0     C55778   1.793   7.503   1.197  0.3945  0.2498 -0.4658
  405MOL0     C55779   1.657   7.526   1.146  0.4801 -0.1873 -0.2338
  405MOL0     C55780   1.535   7.514   1.240 -0.1481  0.1103  0.2853
  405MOL0     C55781   1.646   7.558   1.008  1.5191  0.4299  0.5486
  405MOL0     C55782   1.505   7.569   0.928 -0.2302  0.6516 -0.7599
  405MOL0     O55783   1.510   7.653   0.822  0.2204 -0.0006  0.1421
  405MOL0     C55784   1.395   7.678   0.761 -0.2481 -0.1277 -0.0498
  405MOL0     C55785   1.355   7.806   0.775  0.4295 -0.4349  0.4459
  405MOL0     C55786   1.234   7.853   0.708 -0.0299 -0.3955  0.2068
  405MOL0     C55787   1.163   7.757   0.636 -0.6124 -0.3961  0.0650
  405MOL0     O55788   1.051   7.806   0.573 -0.1015 -0.0479  0.1752
  405MOL0     C55789   0.961   7.716   0.505  0.6313  0.4748 -0.3065
  405MOL0     C55790   0.838   7.801   0.471  0.9652 -0.0977  0.1929
  405MOL0     C55791   0.779   7.879   0.593  0.4266 -0.1113 -0.6141
  405MOL0     C55792   0.652   7.953   0.560  1.3099  0.1789 -0.2359
  405MOL0     C55793   0.638   8.075   0.667 -0.9612 -0.7965  0.6228
  405MOL0     C55794   0.496   8.125   0.652 -0.3181  0.6463 -0.0845
  405MOL0     C55795   0.458   8.216   0.769 -0.6634 -0.7558 -0.0712
  405MOL0     C55796   0.308   8.248   0.780 -0.5294 -0.1777  0.5440
  405MOL0    Cl55797   0.247   8.289   0.626  0.0243 -0.1396  0.1020
  405MOL0     C55798   1.205   7.629   0.612 -0.1431  0.0879  0.5780
  405MOL0     C55799   1.323   7.590   0.683  0.2171  0.7180  1.0238
  405MOL0     O55800   1.410   7.497   0.967  0.1228  0.1449 -0.1665
  405MOL0     C55801   1.762   7.582   0.927  0.1231 -0.2331 -0.5175
  405MOL0     C55802   1.889   7.558   0.978  0.0599  0.0235  0.2426
  405MOL0     N55803   2.572   7.439   1.492  0.2578  0.7334 -0.1312
  405MOL0     N55804   2.640   7.340   1.547  0.2727  0.0301  0.0527
  405MOL0     C55805   2.043   6.600   1.780 -0.1194  0.5092 -0.1134
  405MOL0     C55806   2.041   6.578   1.918  0.0867  0.4861 -0.3167
  405MOL0     C55807   1.964   6.665   2.373  0.1046  0.1059 -0.6224
  405MOL0     C55808   2.076   6.593   2.420  0.3375  0.1597 -1.2405
  405MOL0     C55809   2.092   6.554   2.552  0.7836 -0.6790  0.9654
  405MOL0     C55810   1.995   6.581   2.638  0.1742  0.4585  1.1994
  405MOL0     O55811   2.021   6.532   2.765  0.4666 -0.4940 -0.6654
  405MOL0     C55812   1.935   6.563   2.875  0.3688  0.0931  0.0894
  405MOL0     C55813   1.993   6.495   2.999 -0.5827  0.8162 -1.2437
  405MOL0     C55814   1.921   6.511   3.129  0.7265 -0.3290 -0.4113
  405MOL0     C55815   1.994   6.450   3.251 -0.4221 -0.4579  0.1692
  405MOL0     C55816   2.136   6.499   3.273  0.6611 -0.1164  0.1712
  405MOL0     C55817   2.257   6.508   3.296 -0.4265 -0.4171  0.2450
  405MOL0     C55818   1.884   6.656   2.602  0.5474  0.1638  0.9523
  405MOL0     C55819   1.864   6.703   2.469  0.0318  0.7939 -0.1537
  405MOL0     C55820   1.742   6.778   2.436  0.0529  0.1091  0.6478
  405MOL0     H55821   2.091   6.907   2.011  2.1680  0.7607 -1.0034
  405MOL0     H55822   2.084   6.938   1.773  0.5647  0.0740  0.7607
  405MOL0     H55823   2.009   6.583   1.489  0.4419 -0.5608  0.0512
  405MOL0     H55824   2.171   6.598   1.544  0.9017  1.0997 -0.1270
  405MOL0     H55825   2.114   6.639   1.294  0.4746  2.7573 -2.5817
  405MOL0     H55826   2.071   6.804   1.350  3.0228  2.8117  2.4740
  405MOL0     H55827   2.343   6.676   1.351  0.1441 -1.1629 -0.4952
  405MOL0     H55828   2.282   6.835   1.297 -0.7647 -1.3826  0.2594
  405MOL0     H55829   2.259   6.879   1.568  1.0632  1.4836 -0.0614
  405MOL0     H55830   2.352   6.744   1.593 -3.3950 -1.1506  0.1257
  405MOL0     H55831   2.424   6.971   1.426 -2.0121 -1.8237 -1.2909
  405MOL0     H55832   2.527   6.836   1.437  0.1128  1.4795 -1.4366
  405MOL0     H55833   2.431   7.016   1.657  0.4503 -0.6234 -0.1454
  405MOL0     H55834   2.525   6.878   1.698  1.0702  2.0241  1.3487
  405MOL0     H55835   2.716   6.917   1.609  2.2848  1.1353  1.3682
  405MOL0     H55836   2.664   7.069   1.701  1.1395 -1.8630  0.4578
  405MOL0     H55837   2.788   7.106   1.489  0.2945 -2.5530  1.9475
  405MOL0     H55838   2.658   7.038   1.398  0.7507 -0.9504  0.5534
  405MOL0     H55839   2.489   7.201   1.281 -0.8044 -0.2605  1.7303
  405MOL0     H55840   2.462   7.484   1.188  2.3516  2.3204 -0.1926
  405MOL0     H55841   2.500   7.594   1.311 -0.9555  0.0140  1.2933
  405MOL0     H55842   2.295   7.552   1.431  2.2191  0.1449  0.2994
  405MOL0     H55843   2.279   7.610   1.268 -1.5084  2.1073  3.6575
  405MOL0     H55844   2.259   7.341   1.198 -1.4757  0.3478 -0.8005
  405MOL0     H55845   2.235   7.322   1.369  1.9848  1.0237  1.3964
  405MOL0     H55846   2.019   7.311   1.270 -0.3822 -0.6075 -3.3235
  405MOL0     H55847   2.021   7.459   1.363 -0.6964 -2.7131  1.5514
  405MOL0     H55848   1.788   7.470   1.301 -2.1244 -0.6376 -0.7763
  405MOL0     H55849   1.466   7.591   1.205  1.3517  0.0116 -3.2719
  405MOL0     H55850   1.567   7.530   1.344 -2.2329  1.3500  0.8007
  405MOL0     H55851   1.487   7.416   1.233 -0.5866  0.3352  0.0906
  405MOL0     H55852   1.414   7.880   0.828 -0.0108 -0.4227  0.9272
  405MOL0     H55853   1.200   7.956   0.721 -1.6444 -1.0611  1.5743
  405MOL0     H55854   0.997   7.673   0.411  0.7001  1.0036 -0.5275
  405MOL0     H55855   0.929   7.636   0.573 -1.7378  2.8871  1.6252
  405MOL0     H55856   0.856   7.865   0.384  1.6503 -0.3193  0.1620
  405MOL0     H55857   0.759   7.735   0.437 -0.0178  1.9837 -1.7980
  405MOL0     H55858   0.863   7.944   0.617  1.1587 -1.3890  0.4470
  405MOL0     H55859   0.763   7.821   0.685  3.4135 -1.3809 -0.7801
  405MOL0     H55860   0.568   7.887   0.583 -0.6288  3.4638  3.3066
  405MOL0     H55861   0.657   7.999   0.461  0.4876  0.2755 -0.2323
  405MOL0     H55862   0.641   8.027   0.765 -1.4584  0.5469  1.3158
  405MOL0     H55863   0.710   8.157   0.658 -0.6357 -0.9754  1.5217
  405MOL0     H55864   0.428   8.040   0.639 -0.3097  0.9002 -2.0710
  405MOL0     H55865   0.482   8.191   0.566  1.6608  1.4300  0.1261
  405MOL0     H55866   0.513   8.309   0.753 -2.0199  0.5056  2.0506
  405MOL0     H55867   0.496   8.178   0.864  0.6833 -1.2093 -0.7698
  405MOL0     H55868   0.288   8.324   0.855  0.3687 -1.2718  1.9461
  405MOL0     H55869   0.251   8.158   0.804  1.1740 -0.4868  4.0199
  405MOL0     H55870   1.158   7.553   0.550  0.1429  1.3392 -1.2502
  405MOL0     H55871   1.374   7.499   0.655 -0.1681 -0.0861  2.8132
  405MOL0     H55872   1.756   7.628   0.829  1.0590  1.8222  0.3300
  405MOL0     H55873   1.973   7.586   0.915 -0.4044  0.1561 -0.3295
  405MOL0     H55874   2.029   6.511   1.720 -2.0806  0.5286  0.2352
  405MOL0     H55875   2.015   6.481   1.959  2.7541 -0.4029 -0.5137
  405MOL0     H55876   2.157   6.563   2.355  0.1493 -1.2269 -0.8495
  405MOL0     H55877   2.179   6.494   2.579  1.5549 -0.5253 -1.0297
  405MOL0     H55878   1.930   6.668   2.903  1.1862 -0.2658  1.7213
  405MOL0     H55879   1.830   6.549   2.849 -0.8565  3.4413  2.5402
  405MOL0     H55880   2.094   6.536   3.007 -0.4454  0.0620  1.9410
  405MOL0     H55881   1.996   6.390   2.967  1.7506  0.5006 -0.2538
  405MOL0     H55882   1.907   6.618   3.142  3.4438  0.8968 -4.9709
  405MOL0     H55883   1.822   6.470   3.112  0.0805  0.2589  1.6803
  405MOL0     H55884   2.004   6.341   3.242 -0.3586 -0.5195  0.9591
  405MOL0     H55885   1.926   6.469   3.335 -2.3506 -4.1858 -0.2794
  405MOL0     H55886   2.361   6.498   3.320 -0.6519 -2.7191  0.5439
  405MOL0     H55887   1.806   6.678   2.674 -0.7088 -1.3932  0.1309
  405MOL0     H55888   1.674   6.720   2.374 -0.6077  1.6757 -0.1434
  405MOL0     H55889   1.683   6.819   2.519  0.9437  2.1222  0.3623
  405MOL0     H55890   1.768   6.863   2.373 -3.9181  0.6590 -0.4589
  406MOL0     O55891   1.837   8.759   3.957  0.4061 -0.1935  0.0476
  406MOL0     C55892   1.824   8.834   3.862  0.5886  0.3161  0.4559
  406MOL0     O55893   1.911   8.838   3.755  0.0742 -0.6864  0.0319
  406MOL0     C55894   2.047   8.844   3.785  0.3949 -0.6855  0.3136
  406MOL0     C55895   2.128   8.845   3.674  0.2714 -0.8273 -0.2337
  406MOL0     C55896   2.264   8.853   3.669  0.1401  0.1642  0.0368
  406MOL0     C55897   2.331   8.848   3.794 -0.6720  0.2261 -0.4389
  406MOL0     O55898   2.467   8.865   3.782  0.4868 -0.1518 -0.7822
  406MOL0     C55899   2.546   8.896   3.904 -0.1905  0.0164 -0.6129
  406MOL0     C55900   2.699   8.877   3.878  0.2771 -0.4523 -0.4969
  406MOL0     C55901   2.781   8.921   4.018  1.1376  0.5611  0.1743
  406MOL0     C55902   2.923   8.856   4.045 -0.8940  0.3034  0.4457
  406MOL0     C55903   3.019   8.882   3.934  0.0103 -0.3035  0.2534
  406MOL0     C55904   3.142   8.796   3.954 -0.4446 -0.4785  0.0460
  406MOL0     C55905   3.261   8.823   3.850 -0.1520  0.2455  0.4500
  406MOL0     C55906   3.393   8.859   3.919 -0.3595 -1.2834  1.1040
  406MOL0     N55907   3.482   8.753   3.971 -0.1029 -0.1771  0.2394
  406MOL0     C55908   3.479   8.621   3.938  0.3783  0.3234 -0.6747
  406MOL0     C55909   3.599   8.577   3.980  0.4709 -0.1348 -1.0067
  406MOL0     C55910   3.643   8.432   3.952  0.8696 -0.2543 -0.4288
  406MOL0     C55911   3.681   8.415   3.806 -0.1392  0.5839 -0.0934
  406MOL0     C55912   3.804   8.496   3.753  0.1203 -0.2686 -0.7298
  406MOL0     C55913   3.945   8.450   3.798 -0.3497  0.5591  0.1415
  406MOL0     O55914   4.038   8.556   3.748 -0.2557 -0.5051 -0.4452
  406MOL0     C55915   4.175   8.519   3.726 -0.0740  0.9005 -0.2000
  406MOL0     C55916   4.262   8.609   3.660 -0.6234 -0.5108  0.5159
  406MOL0     C55917   4.391   8.569   3.621  0.7630 -0.5228 -1.0154
  406MOL0     C55918   4.479   8.665   3.548  0.3231  0.2090  0.2605
  406MOL0     C55919   4.442   8.441   3.661  0.2587 -0.1844 -0.5706
  406MOL0     C55920   4.578   8.381   3.616 -0.6621 -0.1661  0.0436
  406MOL0     O55921   4.685   8.453   3.578  0.5941 -0.0128  0.7612
  406MOL0     C55922   4.804   8.397   3.538 -0.2214  0.9122  0.4060
  406MOL0     C55923   4.909   8.488   3.519 -0.2437 -0.2982  0.1157
  406MOL0     C55924   5.043   8.441   3.483  0.1835  0.1185  0.5224
  406MOL0     C55925   5.079   8.311   3.480  0.1740 -0.7199  0.9128
  406MOL0     O55926   5.215   8.282   3.466 -0.5199 -0.9170 -0.7418
  406MOL0     C55927   5.255   8.161   3.408 -0.0287  0.5841  0.5604
  406MOL0     C55928   5.402   8.147   3.389  0.6663 -0.1221 -0.4618
  406MOL0     C55929   5.479   8.128   3.522 -0.2261  0.4129 -0.0128
  406MOL0     C55930   5.629   8.115   3.508 -0.4789 -0.1872  0.0796
  406MOL0     C55931   5.693   8.235   3.437 -0.4411  0.1256  0.8651
  406MOL0     C55932   5.846   8.240   3.417 -0.3579 -0.5513  0.1941
  406MOL0     C55933   5.905   8.104   3.361 -0.4187 -0.8813 -0.0095
  406MOL0     C55934   6.062   8.104   3.389 -0.0650  0.8932  0.0631
  406MOL0    Cl55935   6.104   7.932   3.383 -0.0750  0.4530  0.1566
  406MOL0     C55936   4.975   8.216   3.489  0.0998 -0.0023  0.1647
  406MOL0     C55937   4.835   8.262   3.506  0.0579  1.1058 -0.1834
  406MOL0     O55938   4.578   8.258   3.633  0.7301 -0.2842 -0.4323
  406MOL0     C55939   4.357   8.360   3.741  0.0797 -0.4664  0.0736
  406MOL0     C55940   4.229   8.395   3.779  0.0593  0.0590  0.0196
  406MOL0     N55941   3.678   8.682   4.035 -0.4432 -0.2664 -0.4193
  406MOL0     N55942   3.601   8.781   4.034 -0.1677 -0.1941 -0.0305
  406MOL0     C55943   2.257   8.860   3.916  0.7449  0.1437 -0.9004
  406MOL0     C55944   2.112   8.857   3.907 -0.0425 -0.1915  0.6384
  406MOL0     C55945   1.704   8.914   3.861  0.2393  0.4113  0.8362
  406MOL0     C55946   1.682   8.983   3.747  0.7204 -0.3690  0.4406
  406MOL0     C55947   1.574   9.069   3.730  0.0022  0.5629  0.0403
  406MOL0     C55948   1.488   9.097   3.838 -0.6552 -0.8718 -0.3413
  406MOL0     O55949   1.398   9.187   3.821  0.5614 -0.9652 -0.2807
  406MOL0     C55950   1.296   9.222   3.919 -0.0155  0.5740  1.3478
  406MOL0     C55951   1.214   9.340   3.857 -0.2246 -0.1291  0.2983
  406MOL0     C55952   1.082   9.345   3.934  0.7831 -0.1442  0.4605
  406MOL0     C55953   1.033   9.491   3.923  0.6938 -0.3822  0.0312
  406MOL0     C55954   1.077   9.576   4.032  0.7466 -0.7897  0.6222
  406MOL0     C55955   1.117   9.649   4.116 -0.0198  0.4046 -0.9217
  406MOL0     C55956   1.502   9.019   3.949  0.1107 -0.4212  0.4339
  406MOL0     C55957   1.610   8.928   3.967 -0.1103  0.1286  0.2386
  406MOL0     C55958   1.624   8.862   4.104  0.4351  0.0820  0.6077
  406MOL0     H55959   2.087   8.850   3.573  0.8637 -1.5859 -0.5268
  406MOL0     H55960   2.324   8.851   3.579 -0.2944 -0.9663 -0.2432
  406MOL0     H55961   2.525   8.822   3.982 -0.0643 -0.3969 -0.9707
  406MOL0     H55962   2.552   9.004   3.925  2.4899  0.3530 -2.5895
  406MOL0     H55963   2.724   8.773   3.853 -3.3466 -1.0172 -2.3998
  406MOL0     H55964   2.721   8.944   3.795 -2.1558  2.0717  0.7142
  406MOL0     H55965   2.782   9.030   4.020 -0.1258  0.5800  0.6123
  406MOL0     H55966   2.719   8.886   4.101  1.1449 -1.9322 -0.7845
  406MOL0     H55967   2.962   8.896   4.139 -0.3981  0.6532  0.0927
  406MOL0     H55968   2.909   8.748   4.059 -0.9316  0.6373  4.3028
  406MOL0     H55969   3.050   8.987   3.927 -1.0378  0.2994  3.2063
  406MOL0     H55970   2.974   8.865   3.836 -1.9877 -0.8353  1.2178
  406MOL0     H55971   3.182   8.830   4.051  2.1354  3.3721 -2.0865
  406MOL0     H55972   3.122   8.689   3.950 -0.3614 -0.5650  1.3639
  406MOL0     H55973   3.232   8.904   3.782 -0.6116 -2.9717 -3.5637
  406MOL0     H55974   3.273   8.746   3.774 -0.4674  1.1442 -0.5404
  406MOL0     H55975   3.460   8.905   3.845  0.9222  0.9072  3.4312
  406MOL0     H55976   3.385   8.936   3.997 -1.7274 -1.0722  0.7723
  406MOL0     H55977   3.396   8.578   3.883  0.1191 -1.5225  1.0303
  406MOL0     H55978   3.570   8.368   4.003  2.1060 -0.5002  1.1357
  406MOL0     H55979   3.741   8.415   3.998  0.4863  2.1842  1.5019
  406MOL0     H55980   3.700   8.308   3.794  1.0125  0.4663  2.0738
  406MOL0     H55981   3.601   8.466   3.752  0.1877  1.7287  0.4463
  406MOL0     H55982   3.803   8.514   3.646  0.2207  0.8459 -0.5515
  406MOL0     H55983   3.781   8.596   3.790 -2.1933 -0.5287 -1.3406
  406MOL0     H55984   3.955   8.438   3.906  0.8404 -3.4078 -0.2376
  406MOL0     H55985   3.971   8.350   3.762  0.7402 -0.2265  2.8522
  406MOL0     H55986   4.227   8.711   3.652 -1.1928 -0.4582  2.8661
  406MOL0     H55987   4.554   8.703   3.618  2.1177 -2.3139 -0.1966
  406MOL0     H55988   4.408   8.742   3.516 -0.3160 -1.2155 -1.9329
  406MOL0     H55989   4.525   8.621   3.459  0.2201 -0.6074  0.6023
  406MOL0     H55990   4.881   8.587   3.555 -2.1091 -1.6473  2.7660
  406MOL0     H55991   5.115   8.522   3.478 -0.5353  0.8649  1.7990
  406MOL0     H55992   5.220   8.080   3.473 -1.8946  1.2935  0.5157
  406MOL0     H55993   5.203   8.141   3.313 -0.9225 -1.3410  1.4140
  406MOL0     H55994   5.423   8.066   3.318  0.7867  0.1097 -0.6909
  406MOL0     H55995   5.427   8.242   3.341  0.0675  0.8367  1.0366
  406MOL0     H55996   5.444   8.035   3.568 -2.7490  0.6355 -1.3040
  406MOL0     H55997   5.472   8.208   3.596  1.6035  0.1340  0.5158
  406MOL0     H55998   5.658   8.020   3.462 -2.4981 -2.1701  2.6019
  406MOL0     H55999   5.660   8.115   3.613 -1.2052  1.5789  0.3282
  406MOL0     H56000   5.644   8.241   3.339 -0.9654  2.3274  1.1945
  406MOL0     H56001   5.652   8.322   3.490 -0.0596  1.1737 -0.4821
  406MOL0     H56002   5.881   8.271   3.516 -6.3008  2.0983  1.9772
  406MOL0     H56003   5.882   8.315   3.345  0.0184 -1.6577 -0.7954
  406MOL0     H56004   5.880   8.090   3.256 -3.2530 -0.3794  0.5081
  406MOL0     H56005   5.868   8.024   3.425  1.8165  0.1112  2.7539
  406MOL0     H56006   6.090   8.136   3.489 -0.0296 -0.7916  0.6096
  406MOL0     H56007   6.114   8.163   3.313  1.7701 -1.3335 -0.5315
  406MOL0     H56008   5.004   8.112   3.482 -1.7628 -0.6231  1.0251
  406MOL0     H56009   4.759   8.185   3.504  0.4293  0.7046  0.6769
  406MOL0     H56010   4.382   8.262   3.782  3.5861 -0.3548 -1.4674
  406MOL0     H56011   4.174   8.323   3.838  2.5649 -0.2399  2.1624
  406MOL0     H56012   2.315   8.862   4.007  1.7267  0.5199 -1.5167
  406MOL0     H56013   2.060   8.868   4.002  1.1330  0.5247  1.2205
  406MOL0     H56014   1.737   8.951   3.659  0.0729  0.3873 -0.2494
  406MOL0     H56015   1.534   9.108   3.637 -1.9609 -0.4964  0.3860
  406MOL0     H56016   1.228   9.144   3.954  1.6794 -0.2982  2.9102
  406MOL0     H56017   1.336   9.255   4.016 -1.3570 -1.3674  2.6238
  406MOL0     H56018   1.193   9.316   3.753  3.3043 -0.7962 -0.4022
  406MOL0     H56019   1.273   9.432   3.857 -1.3068  0.5798 -0.2065
  406MOL0     H56020   1.014   9.274   3.886 -1.2457  2.6065 -1.0584
  406MOL0     H56021   1.091   9.315   4.039 -0.7370 -0.0016  0.6583
  406MOL0     H56022   0.924   9.497   3.915  0.5873 -1.8840 -0.0384
  406MOL0     H56023   1.065   9.529   3.825 -2.9332 -0.1591 -1.2186
  406MOL0     H56024   1.133   9.717   4.197 -3.2443 -0.3011  0.4782
  406MOL0     H56025   1.432   9.032   4.031  1.8058 -2.4174  2.3274
  406MOL0     H56026   1.543   8.896   4.169  0.1771 -0.4612  0.5727
  406MOL0     H56027   1.606   8.755   4.089  1.4045  0.0090 -0.1721
  406MOL0     H56028   1.715   8.896   4.153 -0.9236  2.4514  1.6735
  407MOL0     O56029   3.906   8.817  10.970 -0.2119 -1.0664 -0.1281
  407MOL0     C56030   3.861   8.792  10.860  0.1722 -0.8725 -0.5717
  407MOL0     O56031   3.911   8.836  10.736 -0.7894  0.1907 -0.2697
  407MOL0     C56032   4.009   8.931  10.740  0.1354 -0.3551 -0.1405
  407MOL0     C56033   4.142   8.908  10.744 -0.4169  0.2785 -0.3498
  407MOL0     C56034   4.236   9.023  10.741 -0.2003 -0.4322 -1.3207
  407MOL0     C56035   4.191   9.157  10.743  0.6263  0.4999  0.0583
  407MOL0     O56036   4.276   9.269  10.760  0.3295 -0.1915 -0.5581
  407MOL0     C56037   4.388   9.258  10.854 -0.5018 -0.1006 -0.0494
  407MOL0     C56038   4.519   9.273  10.770  0.7534 -0.1072 -0.8059
  407MOL0     C56039   4.640   9.212  10.845 -0.6280 -0.0908 -0.0133
  407MOL0     C56040   4.649   9.062  10.831 -0.0776  1.4610  0.1077
  407MOL0     C56041   4.786   8.991  10.832 -0.0243  0.6900 -0.0976
  407MOL0     C56042   4.866   9.033  10.964 -0.1082 -0.1169 -0.3799
  407MOL0     C56043   4.988   8.957  10.993 -0.4038  0.0561 -0.2730
  407MOL0     C56044   5.096   8.988  10.887 -0.1251 -0.1264  0.3620
  407MOL0     N56045   5.218   8.920  10.932 -0.7930  0.0726  0.2823
  407MOL0     C56046   5.238   8.781  10.936 -0.4438 -0.4320  0.5547
  407MOL0     C56047   5.371   8.770  10.960 -0.2320 -0.0601  0.2081
  407MOL0     C56048   5.438   8.640  10.961  0.3591 -0.0194 -0.2742
  407MOL0     C56049   5.450   8.591  11.105 -0.6037 -0.4042 -0.8791
  407MOL0     C56050   5.476   8.436  11.103 -0.0100 -0.1144 -0.9856
  407MOL0     C56051   5.510   8.373  11.232 -0.4417  0.0202 -0.4286
  407MOL0     O56052   5.618   8.433  11.305  0.4336  0.6235  0.3081
  407MOL0     C56053   5.750   8.412  11.268  0.5559  0.4837  0.0950
  407MOL0     C56054   5.796   8.334  11.149  0.4268 -1.1866 -0.4059
  407MOL0     C56055   5.931   8.317  11.121  0.4106 -0.0081 -0.9473
  407MOL0     C56056   5.964   8.218  11.021 -0.7177 -0.2113  0.3413
  407MOL0     C56057   6.023   8.391  11.198 -0.5468 -0.1029  0.2105
  407MOL0     C56058   6.175   8.399  11.167 -0.8940  0.1037 -0.2334
  407MOL0     O56059   6.242   8.512  11.206  0.5838  0.0492 -0.2819
  407MOL0     C56060   6.363   8.533  11.153  0.0583  0.3773 -0.0451
  407MOL0     C56061   6.481   8.465  11.199 -0.6152  0.6423  0.1997
  407MOL0     C56062   6.602   8.475  11.121 -0.1014  0.7169  1.3157
  407MOL0     C56063   6.614   8.568  11.015  0.9348 -0.5556  0.4102
  407MOL0     O56064   6.739   8.579  10.950 -0.2832  0.2941  0.4774
  407MOL0     C56065   6.783   8.712  10.930 -1.5876  0.0487  0.3662
  407MOL0     C56066   6.938   8.737  10.916 -0.0233 -0.0217 -0.2857
  407MOL0     C56067   6.988   8.690  10.779 -0.0122 -0.4267 -0.7326
  407MOL0     C56068   7.140   8.707  10.750  0.0497 -0.8016  0.8200
  407MOL0     C56069   7.187   8.853  10.741 -0.1462  0.0374 -0.3718
  407MOL0     C56070   7.332   8.858  10.698  0.0786  0.1449 -0.6212
  407MOL0     C56071   7.392   8.993  10.733  0.6506 -0.1698 -0.0544
  407MOL0     C56072   7.536   9.007  10.677 -0.2676 -0.5245  0.3987
  407MOL0    Cl56073   7.646   9.099  10.786  0.1548 -0.1769 -0.3485
  407MOL0     C56074   6.501   8.649  10.988 -0.0568 -0.2449  0.0182
  407MOL0     C56075   6.379   8.622  11.045  0.5097 -0.6030  0.2531
  407MOL0     O56076   6.220   8.307  11.101  0.6033  0.1135 -0.4407
  407MOL0     C56077   5.983   8.486  11.293  0.6023  0.3706 -0.2036
  407MOL0     C56078   5.851   8.487  11.331  0.6590  0.0123 -0.8253
  407MOL0     N56079   5.427   8.895  10.979  0.1333 -0.4375  0.1181
  407MOL0     N56080   5.336   8.979  10.956  0.1786 -0.1915  0.6339
  407MOL0     C56081   4.055   9.170  10.726 -0.6870 -0.3412  0.1461
  407MOL0     C56082   3.968   9.059  10.721 -0.0981 -0.5833 -0.1554
  407MOL0     C56083   3.751   8.692  10.858 -0.3098 -0.4386  0.4053
  407MOL0     C56084   3.666   8.691  10.749 -0.0040 -0.6286  0.8709
  407MOL0     C56085   3.559   8.610  10.737 -0.1133 -0.8132 -0.8075
  407MOL0     C56086   3.528   8.523  10.836 -0.2046  0.1161  0.3951
  407MOL0     O56087   3.421   8.439  10.823 -0.0909 -0.3551  0.0478
  407MOL0     C56088   3.421   8.311  10.884 -0.5755  0.0247  0.6455
  407MOL0     C56089   3.319   8.212  10.823  0.1169 -0.0958  0.2235
  407MOL0     C56090   3.287   8.106  10.930 -0.6253 -0.2898  0.4535
  407MOL0     C56091   3.413   8.029  10.967  0.9498 -0.3080 -0.4612
  407MOL0     C56092   3.392   7.894  11.027  0.2762 -0.8814  0.9133
  407MOL0     C56093   3.370   7.793  11.098 -0.0534 -0.5469 -0.3980
  407MOL0     C56094   3.604   8.528  10.947 -1.6548  0.2911 -1.1504
  407MOL0     C56095   3.720   8.607  10.963 -0.3790 -1.1155 -0.9037
  407MOL0     C56096   3.802   8.587  11.092  0.7419 -0.2050 -0.2425
  407MOL0     H56097   4.183   8.807  10.742  1.5959  1.0525 -0.0921
  407MOL0     H56098   4.341   8.999  10.758  0.0012  0.1650 -1.6603
  407MOL0     H56099   4.384   9.160  10.902 -2.2591 -1.1385 -2.1554
  407MOL0     H56100   4.381   9.337  10.930  0.3520 -0.0650 -0.0024
  407MOL0     H56101   4.515   9.221  10.674 -0.8641  1.3671 -1.5864
  407MOL0     H56102   4.548   9.377  10.752  0.7181  0.1176  0.3290
  407MOL0     H56103   4.734   9.252  10.805  1.5384 -4.1278  0.4864
  407MOL0     H56104   4.638   9.239  10.951  1.2341 -0.4789  0.1615
  407MOL0     H56105   4.586   9.022  10.912  3.3657 -3.2989  0.9004
  407MOL0     H56106   4.609   9.023  10.737  1.1308 -0.0980  0.1881
  407MOL0     H56107   4.836   9.025  10.742  0.5719  0.5885  0.1922
  407MOL0     H56108   4.770   8.883  10.825 -0.9197 -0.3330  7.9504
  407MOL0     H56109   4.894   9.138  10.952 -0.5807  0.2320  1.1924
  407MOL0     H56110   4.809   9.020  11.057  1.8270 -1.8152  0.6500
  407MOL0     H56111   4.966   8.851  10.999 -0.0098 -0.1468 -1.9471
  407MOL0     H56112   5.025   8.977  11.094  1.5819 -0.4366 -0.8528
  407MOL0     H56113   5.058   8.947  10.792  1.3760 -2.0459  0.5359
  407MOL0     H56114   5.106   9.096  10.884 -0.6142 -0.0754  0.3547
  407MOL0     H56115   5.170   8.702  10.906 -0.1371 -0.6884  0.5278
  407MOL0     H56116   5.533   8.659  10.910 -0.2267  2.5114 -0.5377
  407MOL0     H56117   5.377   8.566  10.907  1.5378 -0.0830 -1.6015
  407MOL0     H56118   5.545   8.633  11.141  0.5384  0.5311 -4.5041
  407MOL0     H56119   5.371   8.632  11.168  2.0172  1.5992  1.4052
  407MOL0     H56120   5.385   8.391  11.062 -0.6886  2.3559 -2.3997
  407MOL0     H56121   5.548   8.398  11.030 -0.8466 -0.0360 -1.8684
  407MOL0     H56122   5.420   8.382  11.293  0.0563 -0.9107  0.4877
  407MOL0     H56123   5.526   8.265  11.219 -0.6360 -0.1689  0.8221
  407MOL0     H56124   5.721   8.279  11.093 -2.6137  1.1130  1.0534
  407MOL0     H56125   5.872   8.164  10.998 -2.9089  1.9512  3.2277
  407MOL0     H56126   6.034   8.141  11.053  2.4704  2.5243  0.5698
  407MOL0     H56127   6.000   8.273  10.933 -0.0867 -2.5347 -0.9385
  407MOL0     H56128   6.476   8.396  11.282 -4.0946  1.1107  0.5313
  407MOL0     H56129   6.686   8.407  11.134  1.1044  1.5530 -1.4020
  407MOL0     H56130   6.736   8.748  10.839  0.7995 -1.9597 -1.8394
  407MOL0     H56131   6.735   8.776  11.004 -2.2309  1.7987 -1.4629
  407MOL0     H56132   6.961   8.843  10.931 -1.0333 -0.0865  2.2954
  407MOL0     H56133   6.985   8.675  10.994 -0.4677 -1.1394 -0.8795
  407MOL0     H56134   6.929   8.737  10.700 -1.8427 -1.3746  0.0192
  407MOL0     H56135   6.973   8.582  10.788 -5.1023  0.0914 -0.1784
  407MOL0     H56136   7.160   8.663  10.652  0.8537 -1.7654  1.3986
  407MOL0     H56137   7.196   8.656  10.829  0.4668 -0.4542  0.7532
  407MOL0     H56138   7.136   8.898  10.654  3.1903  0.8047 -2.0916
  407MOL0     H56139   7.159   8.909  10.830 -1.1344  0.3615 -0.8687
  407MOL0     H56140   7.343   8.834  10.591  1.5066  1.0632 -0.7060
  407MOL0     H56141   7.385   8.777  10.746  1.4153  0.9992 -0.6129
  407MOL0     H56142   7.391   9.016  10.840  3.2521  1.7460 -0.3492
  407MOL0     H56143   7.322   9.061  10.683  0.5170 -1.7339 -2.1540
  407MOL0     H56144   7.521   9.063  10.584 -2.1328 -1.1018  0.3124
  407MOL0     H56145   7.590   8.913  10.665 -2.4962 -1.7681 -0.6231
  407MOL0     H56146   6.500   8.728  10.913  2.4749 -0.0657  0.1179
  407MOL0     H56147   6.290   8.673  11.008 -0.0334 -0.3838  1.7663
  407MOL0     H56148   6.059   8.541  11.347  1.3387 -2.3082  1.7107
  407MOL0     H56149   5.823   8.549  11.416 -1.6813 -0.7195 -0.9860
  407MOL0     H56150   4.019   9.271  10.708 -1.0968 -0.3679  0.7641
  407MOL0     H56151   3.863   9.081  10.699 -0.1072 -1.0479 -0.5768
  407MOL0     H56152   3.670   8.749  10.657 -3.4968 -0.5650  0.6004
  407MOL0     H56153   3.499   8.599  10.647  0.8625 -3.5893 -1.2203
  407MOL0     H56154   3.518   8.261  10.874 -1.0072 -0.4799 -1.8933
  407MOL0     H56155   3.395   8.329  10.988 -1.4686  2.7617  0.0309
  407MOL0     H56156   3.343   8.169  10.726 -1.4436 -0.2203 -0.1342
  407MOL0     H56157   3.223   8.264  10.812 -0.2491 -0.4927  1.3387
  407MOL0     H56158   3.240   8.159  11.014 -1.4997  1.0029 -0.8128
  407MOL0     H56159   3.206   8.043  10.892 -1.5081  1.0275  0.0966
  407MOL0     H56160   3.471   8.099  11.029 -0.9629 -0.8915  2.1661
  407MOL0     H56161   3.466   8.008  10.874 -0.3519  1.2093 -1.6034
  407MOL0     H56162   3.363   7.707  11.163 -2.3362 -0.0346  0.1118
  407MOL0     H56163   3.569   8.479  11.037 -0.8273  0.8375 -0.5190
  407MOL0     H56164   3.784   8.487  11.133 -3.1028  0.3737 -0.1963
  407MOL0     H56165   3.911   8.584  11.075  1.2625 -0.2394  2.6603
  407MOL0     H56166   3.766   8.660  11.165 -2.9164 -2.7112  0.7177
  408MOL0     O56167   5.229   9.743   3.466  0.4681 -1.5840 -0.6152
  408MOL0     C56168   5.202   9.865   3.469  0.1792  0.5191 -0.0879
  408MOL0     O56169   5.289   9.964   3.479 -0.8795  0.3809 -0.4968
  408MOL0     C56170   5.415   9.918   3.516  0.0799 -0.1279 -0.0760
  408MOL0     C56171   5.519   9.953   3.437 -1.0485 -0.1498 -0.3400
  408MOL0     C56172   5.648   9.924   3.478  0.5698  0.1842 -0.1270
  408MOL0     C56173   5.680   9.855   3.596  0.0449 -0.2157  0.1401
  408MOL0     O56174   5.809   9.856   3.633 -0.1551  0.2068 -0.5117
  408MOL0     C56175   5.857   9.780   3.740  0.7497  0.7210  0.2908
  408MOL0     C56176   6.003   9.722   3.719  0.1856  0.5180 -0.1580
  408MOL0     C56177   6.103   9.833   3.733 -0.0808  0.2017  0.1141
  408MOL0     C56178   6.219   9.803   3.828 -0.1600 -0.5859 -0.2092
  408MOL0     C56179   6.336   9.738   3.753 -0.2146 -0.1450 -0.1457
  408MOL0     C56180   6.413   9.844   3.677  0.4942  0.4432 -0.6912
  408MOL0     C56181   6.529   9.794   3.593  0.3200 -1.3222 -0.0395
  408MOL0     C56182   6.654   9.770   3.667 -0.8239 -0.0392 -0.4361
  408MOL0     N56183   6.664   9.637   3.733  0.1966  0.9909  0.2464
  408MOL0     C56184   6.611   9.527   3.668 -0.3422 -0.6559  0.0964
  408MOL0     C56185   6.594   9.435   3.762 -0.0745  0.3136  0.0254
  408MOL0     C56186   6.552   9.300   3.742 -0.3348 -0.0852 -1.1388
  408MOL0     C56187   6.566   9.244   3.598 -0.2843  0.1648 -0.6360
  408MOL0     C56188   6.707   9.199   3.559 -0.8801 -0.0353 -0.7056
  408MOL0     C56189   6.727   9.142   3.419 -0.5216  0.5196 -0.4459
  408MOL0     O56190   6.860   9.093   3.405  0.3043  0.1208  0.6962
  408MOL0     C56191   6.917   9.087   3.276 -0.9609 -0.8123 -0.2553
  408MOL0     C56192   6.838   9.076   3.161  0.3349 -0.0308 -0.3851
  408MOL0     C56193   6.898   9.074   3.031  0.0141  0.2470  0.5099
  408MOL0     C56194   6.799   9.069   2.919  0.3920 -0.6703 -0.6846
  408MOL0     C56195   7.040   9.093   3.012 -0.1703 -0.0971 -0.0714
  408MOL0     C56196   7.114   9.104   2.888  0.4166  0.5479  0.3249
  408MOL0     O56197   7.245   9.051   2.882 -0.1635  0.2402  0.9416
  408MOL0     C56198   7.345   9.121   2.818  0.0557 -0.1206  0.5225
  408MOL0     C56199   7.448   9.038   2.778 -0.1442  0.0533  0.0948
  408MOL0     C56200   7.562   9.091   2.714 -0.5966 -0.0939 -0.7543
  408MOL0     C56201   7.563   9.223   2.667 -0.2908  0.0221  0.1975
  408MOL0     O56202   7.669   9.263   2.588  0.2262 -0.9118  0.3599
  408MOL0     C56203   7.733   9.393   2.606  0.3615  0.0054  0.1239
  408MOL0     C56204   7.872   9.381   2.557 -0.8278 -0.6656  0.7253
  408MOL0     C56205   7.949   9.275   2.632 -0.2485  0.2374  0.3552
  408MOL0     C56206   8.098   9.293   2.605 -0.9808 -0.5124  0.2310
  408MOL0     C56207   8.187   9.198   2.692  0.4299 -0.1768 -0.0480
  408MOL0     C56208   8.334   9.208   2.658 -0.1406  0.0426  0.3000
  408MOL0     C56209   8.431   9.118   2.743 -0.9397  0.2280  0.1341
  408MOL0     C56210   8.567   9.187   2.732 -0.5505  0.6743 -1.8271
  408MOL0    Cl56211   8.627   9.208   2.556  0.2196 -0.6823  0.0068
  408MOL0     C56212   7.467   9.304   2.712  0.1837  0.3343 -0.1626
  408MOL0     C56213   7.350   9.257   2.786 -1.4296 -0.0464  0.5650
  408MOL0     O56214   7.059   9.159   2.798  0.3164 -0.4343  0.1253
  408MOL0     C56215   7.116   9.098   3.127 -0.2206 -0.2217 -0.8749
  408MOL0     C56216   7.061   9.094   3.261  0.8788  0.3345 -0.3238
  408MOL0     N56217   6.638   9.486   3.884  0.8572  0.2353  0.3186
  408MOL0     N56218   6.680   9.600   3.860 -0.0215 -0.9815 -0.0182
  408MOL0     C56219   5.574   9.817   3.673  0.2980  0.2251 -0.2547
  408MOL0     C56220   5.443   9.840   3.633  0.8100 -0.4612  0.0639
  408MOL0     C56221   5.058   9.900   3.476 -0.2201 -0.2614  0.2876
  408MOL0     C56222   5.020  10.005   3.392 -0.8201  0.5908 -0.5157
  408MOL0     C56223   4.893  10.047   3.386 -0.0969  0.6503 -0.1597
  408MOL0     C56224   4.797   9.994   3.470 -0.4011  1.2420  0.4129
  408MOL0     O56225   4.663  10.017   3.449 -0.6181 -0.4807  0.1847
  408MOL0     C56226   4.613  10.072   3.323 -0.2968  0.8142 -0.4246
  408MOL0     C56227   4.593  10.214   3.341  0.3466  0.1020  0.2783
  408MOL0     C56228   4.507  10.271   3.230 -0.3981 -0.0648 -0.0516
  408MOL0     C56229   4.511  10.417   3.254  0.0774  0.7908 -0.0608
  408MOL0     C56230   4.415  10.458   3.360 -0.5303 -0.3635 -0.3669
  408MOL0     C56231   4.350  10.491   3.460 -0.4999  0.0122 -0.4158
  408MOL0     C56232   4.843   9.905   3.572  0.4600 -0.2637 -0.6608
  408MOL0     C56233   4.973   9.852   3.580 -0.0395  0.0526 -0.4090
  408MOL0     C56234   5.025   9.768   3.694 -0.8073  0.9136 -0.0859
  408MOL0     H56235   5.507  10.015   3.349  0.8980 -0.3927 -0.8255
  408MOL0     H56236   5.729   9.957   3.415  0.9529 -1.2896 -0.4505
  408MOL0     H56237   5.787   9.698   3.758 -0.0829  1.1979 -0.6707
  408MOL0     H56238   5.861   9.845   3.828  0.2546 -2.8979  3.2369
  408MOL0     H56239   6.015   9.638   3.788  0.9524  0.0993 -0.7865
  408MOL0     H56240   6.009   9.666   3.626 -0.8259 -2.1172  1.2673
  408MOL0     H56241   6.119   9.863   3.630  1.0380 -3.0701 -0.7955
  408MOL0     H56242   6.057   9.914   3.791  0.1484  1.4069 -1.3289
  408MOL0     H56243   6.251   9.897   3.874  1.2448 -2.2642  2.5040
  408MOL0     H56244   6.184   9.745   3.914 -2.8043 -1.0636 -1.5097
  408MOL0     H56245   6.307   9.650   3.694 -0.3517  0.1724 -0.5508
  408MOL0     H56246   6.389   9.687   3.835 -2.8421  1.6651  2.9174
  408MOL0     H56247   6.331   9.891   3.622 -0.2653 -2.5300 -2.3016
  408MOL0     H56248   6.455   9.915   3.749  2.7278 -1.2697 -0.1884
  408MOL0     H56249   6.566   9.876   3.531  0.0590  1.1448  2.8066
  408MOL0     H56250   6.499   9.718   3.521 -0.2013  0.6856 -2.0360
  408MOL0     H56251   6.730   9.773   3.588 -0.0997  0.0323  0.2482
  408MOL0     H56252   6.690   9.846   3.737 -1.6000 -0.9310  0.9735
  408MOL0     H56253   6.586   9.532   3.563  3.0114  2.3409 -0.7793
  408MOL0     H56254   6.445   9.301   3.761  0.1376  0.2279  2.0821
  408MOL0     H56255   6.600   9.241   3.821 -0.5309 -0.4559 -1.2959
  408MOL0     H56256   6.506   9.153   3.593 -0.6089  0.4345 -2.5397
  408MOL0     H56257   6.515   9.310   3.528 -0.0769 -1.0861 -2.0242
  408MOL0     H56258   6.785   9.274   3.574  0.0243 -1.0947  0.0791
  408MOL0     H56259   6.727   9.130   3.641  2.3036  1.8057  0.2391
  408MOL0     H56260   6.668   9.051   3.417  1.0801 -0.5892  0.5162
  408MOL0     H56261   6.696   9.205   3.335 -1.2648 -0.6172 -1.0426
  408MOL0     H56262   6.732   9.062   3.181  0.8694 -0.5447  2.4439
  408MOL0     H56263   6.802   9.165   2.866 -1.1006 -0.4517 -0.4159
  408MOL0     H56264   6.699   9.046   2.957 -0.1553  1.4743 -0.6952
  408MOL0     H56265   6.829   8.999   2.841  0.9035 -2.0964  0.7575
  408MOL0     H56266   7.445   8.934   2.810 -0.1838  0.8426  2.9413
  408MOL0     H56267   7.650   9.031   2.697  1.7843  2.6293  1.1149
  408MOL0     H56268   7.677   9.475   2.561  0.4113 -0.0014  0.0489
  408MOL0     H56269   7.724   9.398   2.715 -1.7915 -0.7401  0.0300
  408MOL0     H56270   7.869   9.355   2.451 -0.2369 -1.0779  0.8042
  408MOL0     H56271   7.919   9.479   2.569 -3.1436  0.9010 -1.7650
  408MOL0     H56272   7.907   9.175   2.617 -3.0493  1.1291  1.5384
  408MOL0     H56273   7.926   9.290   2.737  0.0193  0.9240  0.3220
  408MOL0     H56274   8.111   9.398   2.634  0.3033 -0.8756  1.0454
  408MOL0     H56275   8.133   9.275   2.504  0.0176  2.3716 -0.0264
  408MOL0     H56276   8.171   9.219   2.799  2.1521  1.1141 -0.0151
  408MOL0     H56277   8.164   9.093   2.672  0.9839 -0.6631  1.6377
  408MOL0     H56278   8.364   9.313   2.671 -2.9367  0.6858  2.4050
  408MOL0     H56279   8.344   9.182   2.552  1.2080 -0.7328  0.5981
  408MOL0     H56280   8.447   9.019   2.699 -0.6396  0.3510 -0.0396
  408MOL0     H56281   8.402   9.102   2.847 -2.2183 -1.2639 -0.4164
  408MOL0     H56282   8.644   9.133   2.788 -1.2504 -1.3228 -2.6932
  408MOL0     H56283   8.560   9.288   2.773  0.6961  0.7257 -1.7166
  408MOL0     H56284   7.464   9.405   2.674 -1.3074  0.7981  1.0786
  408MOL0     H56285   7.263   9.319   2.806 -2.3369 -1.0952 -0.0385
  408MOL0     H56286   7.224   9.104   3.119 -0.2761 -0.6947 -2.1784
  408MOL0     H56287   7.121   9.111   3.350 -2.2568  1.7847  1.6747
  408MOL0     H56288   5.578   9.759   3.765 -2.1578  0.8353  0.3121
  408MOL0     H56289   5.356   9.820   3.695 -1.6796  3.2627 -1.8276
  408MOL0     H56290   5.091  10.047   3.321  0.8284  0.3980  0.9392
  408MOL0     H56291   4.868  10.110   3.301 -2.3098 -1.9189 -1.5956
  408MOL0     H56292   4.675  10.057   3.234  3.0544 -0.2787  1.8851
  408MOL0     H56293   4.522  10.013   3.312  1.8196 -2.9486  0.2386
  408MOL0     H56294   4.694  10.256   3.347  0.1911  0.6974 -0.9978
  408MOL0     H56295   4.526  10.222   3.427 -0.8606 -1.9372 -0.3983
  408MOL0     H56296   4.545  10.252   3.129  1.1708 -0.6565  0.6197
  408MOL0     H56297   4.407  10.228   3.222  0.1390 -1.4055  0.1273
  408MOL0     H56298   4.500  10.462   3.156  0.9056  1.9515  0.3568
  408MOL0     H56299   4.612  10.445   3.286  0.5038  1.7303 -2.0973
  408MOL0     H56300   4.288  10.501   3.546 -0.4022 -0.6222 -0.2637
  408MOL0     H56301   4.761   9.877   3.638 -2.1417 -0.1723 -3.6195
  408MOL0     H56302   4.933   9.731   3.740 -0.7583 -0.7965 -1.2672
  408MOL0     H56303   5.084   9.683   3.657  2.3828  2.1081  1.8337
  408MOL0     H56304   5.096   9.811   3.766  2.4507 -2.4449 -0.9587
  409MOL0     O56305   7.964   1.192   8.886 -0.6235  0.5566  0.0212
  409MOL0     C56306   7.956   1.320   8.888  0.0837  0.3104 -0.3905
  409MOL0     O56307   8.051   1.410   8.855 -0.5139  0.5148 -0.5850
  409MOL0     C56308   8.141   1.369   8.761 -0.5182  0.8811  0.8875
  409MOL0     C56309   8.259   1.317   8.796 -0.6383 -0.2062 -0.8805
  409MOL0     C56310   8.367   1.303   8.695  0.2732 -0.1204  0.3684
  409MOL0     C56311   8.351   1.343   8.565 -0.4771  0.4284  0.2396
  409MOL0     O56312   8.463   1.344   8.482 -0.3228 -0.3119  0.6567
  409MOL0     C56313   8.446   1.399   8.344  0.8967  0.1247  0.5379
  409MOL0     C56314   8.568   1.445   8.270  0.9125 -0.1758  0.1739
  409MOL0     C56315   8.641   1.314   8.229  0.2290  0.3255  0.5383
  409MOL0     C56316   8.762   1.324   8.130 -0.1980  0.5336  0.3401
  409MOL0     C56317   8.816   1.193   8.076 -0.0074 -0.5783 -0.4363
  409MOL0     C56318   8.848   1.095   8.189  0.0313 -0.2669  0.4044
  409MOL0     C56319   8.946   1.158   8.283 -0.2068 -0.2457  0.7542
  409MOL0     C56320   9.018   1.050   8.365 -0.2437  0.2299  0.3690
  409MOL0     N56321   9.133   0.983   8.294 -0.6909  0.3604  0.0630
  409MOL0     C56322   9.236   0.926   8.363 -0.1325 -0.2463 -0.3417
  409MOL0     C56323   9.305   0.849   8.269 -0.3253 -0.2311  0.1142
  409MOL0     C56324   9.417   0.752   8.302  0.0286 -0.0761 -0.3353
  409MOL0     C56325   9.559   0.809   8.275 -0.3325 -0.3562 -0.3160
  409MOL0     C56326   9.650   0.745   8.383  0.5453  0.4316 -1.0572
  409MOL0     C56327   9.804   0.730   8.354  0.2347  0.8512  0.1152
  409MOL0     O56328   9.826   0.642   8.238  0.6093 -0.3266 -0.7296
  409MOL0     C56329   9.953   0.640   8.196 -0.6040 -0.0968  0.0633
  409MOL0     C56330   9.977   0.571   8.075 -0.9264 -0.2673  0.2407
  409MOL0     C56331  10.108   0.541   8.029 -0.0699  0.6941  1.3099
  409MOL0     C56332  10.116   0.451   7.909  0.5460 -0.6694  0.5395
  409MOL0     C56333  10.224   0.587   8.096 -0.7495  0.4233 -0.2591
  409MOL0     C56334  10.370   0.577   8.049  0.1941 -0.6428  0.1666
  409MOL0     O56335  10.473   0.622   8.129 -0.0135 -0.1238 -0.1622
  409MOL0     C56336  10.595   0.610   8.069  0.2924 -0.1789  0.5773
  409MOL0     C56337  10.674   0.491   8.071  0.0428  0.3401  0.4689
  409MOL0     C56338  10.796   0.482   7.998  1.2277  0.0887 -0.5986
  409MOL0     C56339  10.846   0.595   7.934  0.3637 -0.6837  0.7131
  409MOL0     O56340  10.967   0.607   7.876 -0.0035  0.4056  0.3907
  409MOL0     C56341  11.053   0.497   7.871 -0.5199 -0.1661 -0.9325
  409MOL0     C56342  11.178   0.514   7.778 -0.1017 -0.6855 -0.3216
  409MOL0     C56343  11.280   0.613   7.833 -0.1543  0.4351 -1.2789
  409MOL0     C56344  11.349   0.697   7.721 -0.2980 -0.4055  0.6012
  409MOL0     C56345  11.445   0.798   7.773 -0.6119 -0.8128  0.1741
  409MOL0     C56346  11.550   0.734   7.860 -0.3699 -0.8031  0.6444
  409MOL0     C56347  11.669   0.826   7.898  0.3456  0.5520 -0.2614
  409MOL0     C56348  11.756   0.859   7.775  0.1758  0.7470  0.0934
  409MOL0    Cl56349  11.900   0.944   7.869  0.4636 -0.0397  0.0135
  409MOL0     C56350  10.767   0.713   7.924  0.1236 -0.0877  0.0567
  409MOL0     C56351  10.648   0.719   7.998  0.0955 -0.1994  0.4611
  409MOL0     O56352  10.384   0.562   7.929 -0.0501  0.3140 -0.1501
  409MOL0     C56353  10.204   0.667   8.216  0.9329  0.8833 -0.2915
  409MOL0     C56354  10.072   0.694   8.262  1.2521 -0.9473 -0.1876
  409MOL0     N56355   9.246   0.862   8.149 -0.6000 -0.0135  0.5215
  409MOL0     N56356   9.137   0.945   8.159  0.3036  0.7918  0.5051
  409MOL0     C56357   8.222   1.389   8.535 -1.0151  0.3215 -0.6917
  409MOL0     C56358   8.117   1.404   8.627 -0.8304  0.3473 -0.5881
  409MOL0     C56359   7.844   1.376   8.970  0.3002 -0.2840  0.7430
  409MOL0     C56360   7.841   1.515   8.996 -0.3636 -0.2245 -0.3714
  409MOL0     C56361   7.736   1.580   9.066  0.0815 -0.2539  0.0176
  409MOL0     C56362   7.634   1.506   9.119  0.0197 -0.7243 -0.2532
  409MOL0     O56363   7.530   1.585   9.171  0.8088  0.2785 -0.0718
  409MOL0     C56364   7.403   1.510   9.205 -0.6108  0.3961  0.2289
  409MOL0     C56365   7.314   1.484   9.075 -0.2382 -0.0122  0.1391
  409MOL0     C56366   7.175   1.416   9.108 -0.2901 -0.0967 -0.5299
  409MOL0     C56367   7.071   1.457   8.998  0.0889  0.4956  1.0774
  409MOL0     C56368   6.934   1.418   9.027  0.6024 -0.0743  0.3256
  409MOL0     C56369   6.817   1.390   9.062  0.5564  0.8241  0.0549
  409MOL0     C56370   7.630   1.368   9.096 -0.9896  1.0259 -0.4738
  409MOL0     C56371   7.735   1.303   9.022 -0.8183  0.9791  2.1414
  409MOL0     C56372   7.715   1.156   9.000 -0.5129 -0.5133 -0.4509
  409MOL0     H56373   8.277   1.299   8.901 -2.0775  1.0955 -0.3664
  409MOL0     H56374   8.466   1.270   8.725  0.0538 -1.4471 -0.2993
  409MOL0     H56375   8.380   1.486   8.350  3.3342  2.1846 -0.5878
  409MOL0     H56376   8.399   1.316   8.290  0.7401 -1.1663  2.5409
  409MOL0     H56377   8.538   1.507   8.185 -0.9914  1.8310  2.1975
  409MOL0     H56378   8.629   1.509   8.335 -0.7596 -0.9279  2.6217
  409MOL0     H56379   8.674   1.264   8.321  0.9022 -1.8749 -0.8300
  409MOL0     H56380   8.568   1.248   8.181  2.0518 -0.7133 -0.9504
  409MOL0     H56381   8.741   1.387   8.043  0.4413 -0.0676 -0.2539
  409MOL0     H56382   8.841   1.377   8.184  0.3338 -1.1889  1.3113
  409MOL0     H56383   8.901   1.217   8.012  0.9582 -2.4912  0.0382
  409MOL0     H56384   8.747   1.144   8.006 -1.5681  2.8235 -1.4812
  409MOL0     H56385   8.761   1.065   8.249 -2.0760  1.0244 -1.7888
  409MOL0     H56386   8.880   1.004   8.139 -1.2090  0.4168 -1.7846
  409MOL0     H56387   8.896   1.240   8.336  2.6118  1.8436  0.4295
  409MOL0     H56388   9.034   1.197   8.230  2.4951 -2.1288  3.5622
  409MOL0     H56389   9.078   1.090   8.447  0.5022  0.9310 -0.4999
  409MOL0     H56390   8.948   0.983   8.417 -0.2611 -1.6030 -1.8770
  409MOL0     H56391   9.244   0.942   8.470  0.2784  0.1235 -0.4238
  409MOL0     H56392   9.403   0.667   8.234  1.8060  0.7944 -1.8893
  409MOL0     H56393   9.395   0.708   8.399  3.4356  0.8665  0.9860
  409MOL0     H56394   9.597   0.794   8.173  0.7301 -3.4575  0.4429
  409MOL0     H56395   9.571   0.917   8.285  0.7943 -0.5576  0.7224
  409MOL0     H56396   9.655   0.816   8.467  3.8864  0.4510 -1.1451
  409MOL0     H56397   9.607   0.649   8.411 -1.2059  2.0749  2.5994
  409MOL0     H56398   9.859   0.824   8.341  1.2921  0.0789 -1.3435
  409MOL0     H56399   9.842   0.685   8.446 -1.2310 -0.0755  0.3128
  409MOL0     H56400   9.900   0.519   8.019 -1.5034 -0.7006  1.4092
  409MOL0     H56401  10.017   0.410   7.885 -0.2431  1.0067  0.7847
  409MOL0     H56402  10.196   0.378   7.926  2.0538  1.2395  2.2419
  409MOL0     H56403  10.144   0.514   7.824 -0.8831  0.0811  0.6040
  409MOL0     H56404  10.631   0.407   8.125  0.2640  1.0037  1.6998
  409MOL0     H56405  10.849   0.388   8.007 -2.5554 -2.2471 -0.1340
  409MOL0     H56406  11.081   0.468   7.972 -1.8784 -3.6033 -1.4182
  409MOL0     H56407  10.987   0.419   7.832  0.3588 -1.7463  0.5878
  409MOL0     H56408  11.219   0.415   7.755  0.7121 -0.0088 -2.0282
  409MOL0     H56409  11.147   0.555   7.681  3.0392  0.4804 -0.9738
  409MOL0     H56410  11.353   0.563   7.897 -0.4126  3.8746  2.0789
  409MOL0     H56411  11.224   0.688   7.890 -4.9954 -1.0856 -3.5358
  409MOL0     H56412  11.273   0.757   7.670  3.5852  3.7790 -0.9252
  409MOL0     H56413  11.393   0.644   7.636 -0.9251 -0.0370  0.0313
  409MOL0     H56414  11.502   0.836   7.688  0.7512  0.7264  1.6946
  409MOL0     H56415  11.394   0.875   7.832 -2.3968 -1.6795 -0.1935
  409MOL0     H56416  11.588   0.651   7.800  0.7677  1.9205 -2.7494
  409MOL0     H56417  11.509   0.689   7.950  0.9455 -1.4389  0.9484
  409MOL0     H56418  11.726   0.753   7.957  0.2071 -1.1218 -2.1041
  409MOL0     H56419  11.642   0.920   7.945 -2.4313  0.0843 -0.7803
  409MOL0     H56420  11.701   0.931   7.713 -1.7155 -0.1049  0.7175
  409MOL0     H56421  11.789   0.768   7.725  0.0442 -0.3343  1.8702
  409MOL0     H56422  10.820   0.800   7.883  0.0919  0.1652  0.5501
  409MOL0     H56423  10.599   0.815   7.983 -1.7036 -0.9150  1.4249
  409MOL0     H56424  10.291   0.697   8.273  0.7603  2.0509 -0.6283
  409MOL0     H56425  10.075   0.755   8.351  4.3409 -0.4712 -0.5199
  409MOL0     H56426   8.193   1.423   8.436  0.9933  2.7294 -0.5522
  409MOL0     H56427   8.020   1.446   8.601 -1.2304 -0.7928 -0.9773
  409MOL0     H56428   7.905   1.582   8.940 -0.1256 -1.2887 -1.3938
  409MOL0     H56429   7.733   1.687   9.082 -0.6374  0.3670 -3.4588
  409MOL0     H56430   7.438   1.424   9.263  1.6108 -0.0442 -1.5978
  409MOL0     H56431   7.340   1.571   9.270  0.5406  1.3941  0.4444
  409MOL0     H56432   7.363   1.418   9.003  1.1264 -1.0130  1.8863
  409MOL0     H56433   7.288   1.579   9.028 -1.1825 -1.0376 -1.4706
  409MOL0     H56434   7.181   1.307   9.109 -0.2386 -0.0898  0.3084
  409MOL0     H56435   7.145   1.436   9.211  0.9159 -1.9419  0.2189
  409MOL0     H56436   7.090   1.397   8.909 -1.5306  1.6060 -0.0822
  409MOL0     H56437   7.075   1.564   8.975 -0.2923  0.7010  1.9029
  409MOL0     H56438   6.715   1.358   9.070 -0.0798  1.7032 -3.1503
  409MOL0     H56439   7.542   1.314   9.131  0.0958  0.1789  1.0718
  409MOL0     H56440   7.721   1.126   8.895  2.4840 -1.6952 -0.0344
  409MOL0     H56441   7.800   1.107   9.047  0.5121  1.4836 -0.1292
  409MOL0     H56442   7.619   1.118   9.039 -0.3950 -3.1632 -2.4352
  410MOL0     O56443  11.343   3.772   4.962  0.2411  0.1150  0.6018
  410MOL0     C56444  11.312   3.766   5.082  0.3510 -0.0384 -0.0995
  410MOL0     O56445  11.402   3.738   5.184 -0.3244 -0.2053  0.6817
  410MOL0     C56446  11.545   3.738   5.161  0.0883  0.2936  0.5075
  410MOL0     C56447  11.623   3.654   5.242  0.0212 -0.3230 -0.2423
  410MOL0     C56448  11.763   3.649   5.227 -0.6519  0.5799 -0.0677
  410MOL0     C56449  11.828   3.722   5.129 -0.3659  0.0451 -0.6287
  410MOL0     O56450  11.964   3.725   5.101 -0.1275  0.5425  1.0806
  410MOL0     C56451  12.045   3.623   5.165 -1.3398 -0.9340 -0.2262
  410MOL0     C56452  12.185   3.624   5.104  0.8236  0.5001  0.2463
  410MOL0     C56453  12.262   3.748   5.140 -0.0983 -0.1412  0.1928
  410MOL0     C56454  12.405   3.729   5.086 -0.6721 -0.2981 -0.1840
  410MOL0     C56455  12.413   3.777   4.938  0.0305 -0.0908  0.7176
  410MOL0     C56456  12.549   3.747   4.871 -0.6100 -0.1065  0.3287
  410MOL0     C56457  12.554   3.783   4.723  0.5290  0.2226  0.3185
  410MOL0     C56458  12.600   3.932   4.697 -0.4330  0.1181  0.0979
  410MOL0     N56459  12.747   3.942   4.709 -0.0925  0.0495  0.4404
  410MOL0     C56460  12.839   3.913   4.614  0.2671  0.5569  0.5286
  410MOL0     C56461  12.959   3.902   4.673 -0.9874 -0.4574  0.1075
  410MOL0     C56462  13.093   3.886   4.610  0.4575 -0.0219  0.0792
  410MOL0     C56463  13.178   3.797   4.689  0.2226 -0.9741  0.4498
  410MOL0     C56464  13.313   3.765   4.631  0.4154 -0.9681 -0.0338
  410MOL0     C56465  13.370   3.636   4.683 -0.5191  0.2461  0.1459
  410MOL0     O56466  13.431   3.668   4.814  0.6408  0.4871  0.1636
  410MOL0     C56467  13.564   3.681   4.824  0.2252  0.6991 -0.6396
  410MOL0     C56468  13.638   3.773   4.745  0.6141 -0.2356  0.4047
  410MOL0     C56469  13.772   3.794   4.770  0.1566 -0.5301 -0.1919
  410MOL0     C56470  13.834   3.915   4.692  0.1284  0.2154  0.4969
  410MOL0     C56471  13.839   3.711   4.865 -0.3020  0.3993  0.5724
  410MOL0     C56472  13.985   3.719   4.888 -0.4477  0.1015  0.8286
  410MOL0     O56473  14.040   3.619   4.965 -0.3986  0.4020 -0.5828
  410MOL0     C56474  14.175   3.603   4.961 -0.5513  0.5660  0.6628
  410MOL0     C56475  14.270   3.684   5.033  0.5648  0.2649 -0.3430
  410MOL0     C56476  14.405   3.668   5.032  1.1368 -0.1643  0.0816
  410MOL0     C56477  14.447   3.558   4.963 -0.0299  0.7104  0.6602
  410MOL0     O56478  14.579   3.530   4.965  0.3388 -0.8168 -0.3357
  410MOL0     C56479  14.635   3.402   4.936 -0.4793  0.8259 -0.3521
  410MOL0     C56480  14.589   3.290   5.037 -0.3607 -0.2772  0.6076
  410MOL0     C56481  14.699   3.188   5.078 -0.7229 -0.4587  0.1028
  410MOL0     C56482  14.720   3.100   4.957  0.4284 -0.6724 -0.2619
  410MOL0     C56483  14.830   2.987   4.967 -0.1961 -0.1200  0.1096
  410MOL0     C56484  14.792   2.883   5.073  0.1795  0.8226  0.4202
  410MOL0     C56485  14.894   2.771   5.075  1.1664 -0.5205 -0.1214
  410MOL0     C56486  15.023   2.810   5.143 -1.1017 -0.0483  0.0834
  410MOL0    Cl56487  14.991   2.802   5.327  0.1106 -0.4793  0.1696
  410MOL0     C56488  14.368   3.465   4.901 -0.5553  0.4643 -0.0226
  410MOL0     C56489  14.232   3.489   4.900 -0.4114 -0.2305  1.5898
  410MOL0     O56490  14.052   3.808   4.838  0.7605 -0.1505 -0.0900
  410MOL0     C56491  13.767   3.616   4.946  0.6094 -0.6799  0.5245
  410MOL0     C56492  13.629   3.599   4.915 -0.3088  0.5091  0.6084
  410MOL0     N56493  12.942   3.927   4.808 -0.0017 -0.4549  0.3699
  410MOL0     N56494  12.817   3.958   4.826  0.0239  0.0496  0.1030
  410MOL0     C56495  11.746   3.802   5.047 -0.6164 -0.1276  0.5465
  410MOL0     C56496  11.610   3.811   5.068 -0.1965  0.3305  0.1188
  410MOL0     C56497  11.171   3.791   5.121  0.8129  0.3081  0.3887
  410MOL0     C56498  11.134   3.811   5.257 -0.3836 -0.5404  0.2770
  410MOL0     C56499  11.010   3.860   5.292 -0.0379  0.0297 -0.5322
  410MOL0     C56500  10.904   3.862   5.202  0.2457  0.1503  0.6790
  410MOL0     O56501  10.776   3.894   5.243 -0.4039  0.1842 -0.1378
  410MOL0     C56502  10.746   4.016   5.319  0.4852  0.0013  0.3334
  410MOL0     C56503  10.806   4.134   5.258 -0.4777 -0.8582  0.2714
  410MOL0     C56504  10.751   4.183   5.122 -0.0061  0.4466 -0.5364
  410MOL0     C56505  10.746   4.335   5.105  0.5416  0.1778 -0.2031
  410MOL0     C56506  10.884   4.386   5.089 -0.3553  0.1554  0.5415
  410MOL0     C56507  10.999   4.419   5.087  0.0898 -0.8849 -0.0435
  410MOL0     C56508  10.935   3.818   5.065  0.6863 -0.2030  0.6967
  410MOL0     C56509  11.062   3.778   5.028  0.3428  0.0655 -0.6818
  410MOL0     C56510  11.075   3.745   4.888  0.0816 -0.3009 -0.6343
  410MOL0     H56511  11.577   3.606   5.328 -2.0507 -0.4066 -1.3363
  410MOL0     H56512  11.819   3.585   5.295 -0.2663 -0.6314 -1.4628
  410MOL0     H56513  12.005   3.526   5.134 -1.9822 -1.2398  1.4550
  410MOL0     H56514  12.065   3.636   5.272  0.7802 -0.1429 -0.6729
  410MOL0     H56515  12.239   3.532   5.128 -1.3189 -0.5499  1.3192
  410MOL0     H56516  12.176   3.626   4.995 -0.3969  0.5585  0.3327
  410MOL0     H56517  12.212   3.840   5.109  0.2272 -0.3089 -0.8655
  410MOL0     H56518  12.278   3.748   5.249 -2.6178 -0.6915  0.6453
  410MOL0     H56519  12.466   3.795   5.149  0.9720 -1.8216 -0.0923
  410MOL0     H56520  12.455   3.633   5.102  0.0162 -0.2222 -1.7076
  410MOL0     H56521  12.388   3.883   4.931 -1.8279 -0.3078  2.8543
  410MOL0     H56522  12.329   3.734   4.883 -1.9102  3.3376  0.7203
  410MOL0     H56523  12.621   3.800   4.934 -0.9335  0.1182  0.5172
  410MOL0     H56524  12.565   3.640   4.881 -1.6405 -0.3405 -0.3964
  410MOL0     H56525  12.448   3.779   4.696 -0.0075  0.3444  2.2583
  410MOL0     H56526  12.622   3.715   4.670 -0.4218 -0.5154  0.0031
  410MOL0     H56527  12.575   3.973   4.598 -0.2573  1.2205  0.4939
  410MOL0     H56528  12.559   3.996   4.775 -0.4041 -1.8310  1.7871
  410MOL0     H56529  12.810   3.890   4.511  0.7803 -1.2805  0.7578
  410MOL0     H56530  13.140   3.984   4.594  0.1487 -0.0610 -1.1747
  410MOL0     H56531  13.084   3.835   4.513  1.1362  1.4338 -0.7777
  410MOL0     H56532  13.203   3.848   4.783 -1.0327  0.3581  0.0967
  410MOL0     H56533  13.123   3.705   4.709  0.8285 -1.6203 -0.7888
  410MOL0     H56534  13.315   3.769   4.522  1.2850  2.4079  0.0012
  410MOL0     H56535  13.380   3.846   4.658 -0.9882  0.5407 -0.8859
  410MOL0     H56536  13.288   3.566   4.697 -0.2458  0.0428  0.7680
  410MOL0     H56537  13.440   3.589   4.613  2.2223 -1.2669  3.6426
  410MOL0     H56538  13.587   3.822   4.663 -0.2390  0.0278  1.0767
  410MOL0     H56539  13.767   3.966   4.622  1.7358  0.9775 -0.5637
  410MOL0     H56540  13.918   3.871   4.637 -0.0804 -1.2006  1.2600
  410MOL0     H56541  13.878   3.985   4.763 -2.0547  1.9504  0.2242
  410MOL0     H56542  14.233   3.767   5.092 -0.4861  0.6659 -1.5096
  410MOL0     H56543  14.472   3.750   5.057  0.4826  0.6057 -0.5926
  410MOL0     H56544  14.611   3.375   4.833 -2.7163  0.3666  0.2277
  410MOL0     H56545  14.742   3.419   4.949 -0.9373  2.4057  1.8651
  410MOL0     H56546  14.547   3.340   5.125 -1.0577 -1.3846  0.9272
  410MOL0     H56547  14.512   3.232   4.985  1.4148 -0.8532 -1.5096
  410MOL0     H56548  14.669   3.132   5.167 -0.6849 -1.1143 -0.2956
  410MOL0     H56549  14.789   3.243   5.108 -0.3965 -0.8039 -0.2337
  410MOL0     H56550  14.746   3.169   4.876 -2.5714  1.2622  0.2685
  410MOL0     H56551  14.625   3.055   4.928  0.7916 -1.2164 -0.6356
  410MOL0     H56552  14.826   2.944   4.867 -0.4874  1.0535 -0.4100
  410MOL0     H56553  14.934   3.018   4.982 -0.3273  0.0335  0.7601
  410MOL0     H56554  14.694   2.851   5.037  0.7015 -0.2079 -0.1027
  410MOL0     H56555  14.770   2.932   5.169 -4.0571 -1.0873  0.6574
  410MOL0     H56556  14.915   2.742   4.971 -1.7840  3.0631 -1.9296
  410MOL0     H56557  14.855   2.675   5.110 -0.6254  1.0443  2.5530
  410MOL0     H56558  15.053   2.909   5.110 -0.3633 -0.2995 -0.0016
  410MOL0     H56559  15.099   2.736   5.119 -1.1335  0.0202 -0.2273
  410MOL0     H56560  14.396   3.368   4.860 -2.7798 -0.4092  0.3854
  410MOL0     H56561  14.170   3.416   4.849  1.7585 -1.9282  1.2156
  410MOL0     H56562  13.814   3.562   5.028  3.8154  2.3224  0.9132
  410MOL0     H56563  13.574   3.528   4.975 -0.8671 -0.7134 -1.2777
  410MOL0     H56564  11.792   3.860   4.968  0.1452 -1.7226 -0.2238
  410MOL0     H56565  11.559   3.889   5.013 -1.3011 -1.4284 -1.4683
  410MOL0     H56566  11.222   3.817   5.321  0.9021 -3.0108 -1.0666
  410MOL0     H56567  10.988   3.885   5.396  0.6364 -0.1584 -0.3388
  410MOL0     H56568  10.639   4.030   5.305  0.7273  0.7288 -0.8754
  410MOL0     H56569  10.767   4.015   5.426  0.5223  0.1631  0.3278
  410MOL0     H56570  10.911   4.108   5.249 -0.2104  0.5073 -1.0005
  410MOL0     H56571  10.821   4.220   5.324  2.5310 -2.2430  1.5533
  410MOL0     H56572  10.816   4.134   5.049  2.7531  1.0282  1.3576
  410MOL0     H56573  10.652   4.141   5.105  0.7989 -1.5525 -0.5860
  410MOL0     H56574  10.685   4.355   5.194 -0.3387 -2.0585 -0.2524
  410MOL0     H56575  10.687   4.371   5.020 -0.7693 -1.1479  0.1011
  410MOL0     H56576  11.105   4.435   5.081 -0.0363 -0.3144 -0.9047
  410MOL0     H56577  10.857   3.811   4.990  2.7032 -4.1755 -1.3177
  410MOL0     H56578  11.121   3.827   4.831 -0.9577 -0.3814 -1.6355
  410MOL0     H56579  11.142   3.659   4.883  2.8207  1.7514 -1.5405
  410MOL0     H56580  10.984   3.726   4.831  0.5609 -1.5147 -1.0164
  411MOL0     O56581   6.325   5.610   0.985  0.5909  0.0661  0.1043
  411MOL0     C56582   6.237   5.554   1.047 -0.7752 -0.3304  0.2751
  411MOL0     O56583   6.214   5.576   1.177  0.5160 -0.4246 -0.5892
  411MOL0     C56584   6.298   5.659   1.247  0.0056 -0.4829 -0.6488
  411MOL0     C56585   6.266   5.793   1.274  0.6418 -0.3705  0.4968
  411MOL0     C56586   6.345   5.888   1.338 -0.4804  0.1183 -0.6060
  411MOL0     C56587   6.476   5.843   1.372  1.3193  0.2447 -0.1999
  411MOL0     O56588   6.554   5.937   1.440 -0.2502  0.0522  0.1411
  411MOL0     C56589   6.671   5.969   1.361  0.1163  0.7347  0.2329
  411MOL0     C56590   6.777   6.048   1.438 -0.1303  0.0298  0.5743
  411MOL0     C56591   6.842   5.971   1.557 -0.2480 -0.7759  0.1814
  411MOL0     C56592   6.974   6.045   1.607 -0.0423 -0.1048  0.9234
  411MOL0     C56593   7.000   6.010   1.754  0.0782 -0.1970  0.1885
  411MOL0     C56594   6.923   6.066   1.867  0.3099 -0.5743 -0.3298
  411MOL0     C56595   6.895   6.219   1.842  0.6847  0.0007 -0.8580
  411MOL0     C56596   6.806   6.294   1.943  1.2183  0.2424 -0.6988
  411MOL0     N56597   6.762   6.423   1.894  0.3020 -0.2469 -0.1504
  411MOL0     C56598   6.818   6.549   1.883 -0.3187 -0.0575  0.2200
  411MOL0     C56599   6.717   6.627   1.830 -0.5508 -0.4501 -1.0914
  411MOL0     C56600   6.747   6.767   1.785 -0.5245  0.0362 -0.1799
  411MOL0     C56601   6.811   6.763   1.641 -0.1646  0.1506 -1.4925
  411MOL0     C56602   6.834   6.898   1.577 -0.3859  0.5135  0.3536
  411MOL0     C56603   6.946   6.976   1.645 -0.1362  0.3109 -0.2458
  411MOL0     O56604   7.078   6.931   1.622 -0.4796  0.4614  0.1835
  411MOL0     C56605   7.170   7.020   1.566 -0.7026  0.1115 -0.7493
  411MOL0     C56606   7.166   7.160   1.557 -0.1375  0.0783  0.0714
  411MOL0     C56607   7.262   7.242   1.512 -0.3740 -0.3045  0.4211
  411MOL0     C56608   7.227   7.389   1.499  0.2859  0.2186 -0.3614
  411MOL0     C56609   7.387   7.187   1.468  0.5171  0.6706  0.7198
  411MOL0     C56610   7.502   7.261   1.414  0.2641  0.5950 -0.0077
  411MOL0     O56611   7.503   7.410   1.404  0.4873  0.1403  0.0054
  411MOL0     C56612   7.590   7.472   1.323  0.0427  0.2531  0.5763
  411MOL0     C56613   7.551   7.517   1.207  0.4525  1.0690  0.8726
  411MOL0     C56614   7.637   7.593   1.122 -0.5967  0.5773  0.2911
  411MOL0     C56615   7.766   7.619   1.169 -0.2296  0.7826  0.1449
  411MOL0     O56616   7.832   7.698   1.073  0.1034 -0.4217  0.1367
  411MOL0     C56617   7.972   7.717   1.095  0.1111  0.0629 -0.6319
  411MOL0     C56618   8.027   7.803   0.977 -0.1662 -0.0430  0.1497
  411MOL0     C56619   8.127   7.899   1.035 -0.7297  0.0194 -0.3653
  411MOL0     C56620   8.165   8.019   0.956 -0.3140  0.0549 -0.0964
  411MOL0     C56621   8.259   8.101   1.046 -0.4682  0.0490 -0.7766
  411MOL0     C56622   8.305   8.214   0.952 -0.6512  0.4432 -0.5296
  411MOL0     C56623   8.217   8.331   0.930 -0.0521 -0.2916 -0.1157
  411MOL0     C56624   8.263   8.418   0.810  0.2582 -0.0056 -0.1746
  411MOL0    Cl56625   8.391   8.525   0.866  0.2690  0.0025 -0.4237
  411MOL0     C56626   7.799   7.586   1.305 -0.8691 -0.1096  0.7816
  411MOL0     C56627   7.715   7.504   1.378 -0.1139  0.6293 -0.6005
  411MOL0     O56628   7.589   7.186   1.361  0.5406  0.1274  0.3984
  411MOL0     C56629   7.389   7.041   1.471 -0.6691  1.0022  0.1433
  411MOL0     C56630   7.287   6.967   1.520  0.5850 -0.8527 -0.1912
  411MOL0     N56631   6.602   6.550   1.817 -0.4803  0.1599 -0.1173
  411MOL0     N56632   6.632   6.431   1.856 -0.0525 -1.3973  1.3695
  411MOL0     C56633   6.508   5.706   1.360  0.1077 -0.1066  0.0978
  411MOL0     C56634   6.422   5.618   1.291 -0.0923  0.3395  0.7066
  411MOL0     C56635   6.136   5.468   0.970  0.4176 -1.2219 -0.6350
  411MOL0     C56636   6.011   5.459   1.030  0.0428  0.1882 -1.1200
  411MOL0     C56637   5.911   5.388   0.970 -0.1841  0.6697 -0.2681
  411MOL0     C56638   5.915   5.342   0.845  0.0737  0.6446  0.1841
  411MOL0     O56639   5.802   5.278   0.787  0.1385 -0.8670 -0.4888
  411MOL0     C56640   5.816   5.178   0.686  0.2223  0.2293  0.1474
  411MOL0     C56641   5.846   5.040   0.752  0.4571  0.6368  0.2808
  411MOL0     C56642   5.723   4.992   0.825  0.4687 -0.4022  1.1157
  411MOL0     C56643   5.764   4.867   0.898 -0.0513 -0.6262  1.2995
  411MOL0     C56644   5.651   4.824   0.985  0.1779  0.0666 -0.0175
  411MOL0     C56645   5.562   4.805   1.069 -0.8381 -0.1663 -0.0644
  411MOL0     C56646   6.048   5.340   0.789 -0.0142 -0.1643 -0.2106
  411MOL0     C56647   6.156   5.407   0.840  0.0637 -0.7937 -0.1476
  411MOL0     C56648   6.290   5.405   0.770  0.0965  0.2847  0.2874
  411MOL0     H56649   6.173   5.820   1.224  1.1238  3.7438  1.4746
  411MOL0     H56650   6.305   5.987   1.353 -1.8873 -0.7301  1.7913
  411MOL0     H56651   6.652   6.016   1.264  1.4963  0.0046 -0.4204
  411MOL0     H56652   6.719   5.876   1.328  0.5957  1.2006 -0.4067
  411MOL0     H56653   6.855   6.072   1.365 -1.3785 -0.1657 -0.8828
  411MOL0     H56654   6.739   6.145   1.472  3.4145  2.7325 -2.2765
  411MOL0     H56655   6.788   5.975   1.652  5.0007  1.6941  3.5112
  411MOL0     H56656   6.872   5.866   1.545  0.8214 -0.6811  1.6827
  411MOL0     H56657   7.066   6.019   1.555 -1.5007  1.5166 -2.7958
  411MOL0     H56658   6.962   6.151   1.585  0.4292 -0.5712 -1.9005
  411MOL0     H56659   7.105   6.037   1.770 -0.0665 -0.1898  1.2069
  411MOL0     H56660   6.996   5.901   1.770  3.1192 -0.8238 -2.4136
  411MOL0     H56661   6.826   6.018   1.884  0.5587 -0.7773  0.5905
  411MOL0     H56662   6.981   6.055   1.960 -1.6938  2.1904  1.4020
  411MOL0     H56663   6.834   6.214   1.751 -0.7012 -0.3695  0.0664
  411MOL0     H56664   6.988   6.272   1.822 -0.4807  1.9614 -1.4006
  411MOL0     H56665   6.722   6.226   1.961  1.8969 -0.1174  1.2975
  411MOL0     H56666   6.862   6.302   2.036  0.4388 -0.7446 -0.1137
  411MOL0     H56667   6.919   6.587   1.893 -0.3896  1.0292 -2.2698
  411MOL0     H56668   6.804   6.811   1.868 -1.3397  0.9975 -0.1132
  411MOL0     H56669   6.656   6.828   1.788 -0.3820  0.2582  2.5430
  411MOL0     H56670   6.910   6.717   1.649 -0.3573  0.0521  3.4977
  411MOL0     H56671   6.743   6.704   1.579  2.5461 -0.1258 -4.4848
  411MOL0     H56672   6.847   6.890   1.469 -1.4618 -0.2378  0.2653
  411MOL0     H56673   6.740   6.955   1.575  0.3373  1.7345 -0.3034
  411MOL0     H56674   6.934   7.076   1.601 -0.2279  0.5464  0.3107
  411MOL0     H56675   6.932   6.985   1.753  0.6867  1.0490 -0.1874
  411MOL0     H56676   7.077   7.209   1.594 -0.2120  0.6898 -0.8690
  411MOL0     H56677   7.270   7.432   1.408  0.1830  2.0133  0.4064
  411MOL0     H56678   7.253   7.451   1.585  0.2506  1.4499 -1.2155
  411MOL0     H56679   7.118   7.394   1.491  0.2241  0.9564  0.7368
  411MOL0     H56680   7.447   7.497   1.184  0.7334 -0.8971  1.1552
  411MOL0     H56681   7.602   7.628   1.025  1.5121 -0.2260 -0.8359
  411MOL0     H56682   8.001   7.761   1.191  3.1994 -1.3207 -0.7921
  411MOL0     H56683   8.022   7.620   1.102 -0.6342 -0.2612  0.2384
  411MOL0     H56684   8.069   7.741   0.897  0.1355 -0.7041  0.8046
  411MOL0     H56685   7.952   7.872   0.937  0.3505  1.0667  1.0473
  411MOL0     H56686   8.222   7.847   1.051  0.0271  0.8511 -1.8981
  411MOL0     H56687   8.091   7.928   1.134  0.3679 -0.1718  0.1098
  411MOL0     H56688   8.081   8.082   0.926  0.0294 -0.5959 -2.6592
  411MOL0     H56689   8.213   7.984   0.863  0.4672 -0.6952  0.5695
  411MOL0     H56690   8.212   8.140   1.136 -2.9388 -0.5168 -1.7456
  411MOL0     H56691   8.350   8.048   1.076  1.7482  2.8745 -1.9347
  411MOL0     H56692   8.326   8.165   0.856 -0.5646  1.4321 -1.0380
  411MOL0     H56693   8.396   8.259   0.995 -1.4292  1.0376  0.5315
  411MOL0     H56694   8.215   8.389   1.023 -1.8941 -1.5639  0.6984
  411MOL0     H56695   8.118   8.287   0.913  1.3121 -2.9784 -1.9129
  411MOL0     H56696   8.172   8.461   0.769  0.6417 -0.8897 -2.0401
  411MOL0     H56697   8.311   8.358   0.732 -0.1877 -1.0502  0.3244
  411MOL0     H56698   7.888   7.619   1.359 -1.3759 -1.0553  2.2871
  411MOL0     H56699   7.736   7.495   1.484 -1.2590  0.1838 -0.4043
  411MOL0     H56700   7.470   6.985   1.426 -1.0090  0.7857 -0.1990
  411MOL0     H56701   7.307   6.860   1.517 -0.2706 -1.1274  1.8269
  411MOL0     H56702   6.602   5.672   1.404 -0.7723 -0.9157  1.4312
  411MOL0     H56703   6.451   5.515   1.279 -1.8747 -0.1671  0.3808
  411MOL0     H56704   5.991   5.494   1.130  1.7177 -1.5953 -0.0942
  411MOL0     H56705   5.818   5.376   1.024  0.4144 -3.3327  0.1738
  411MOL0     H56706   5.727   5.167   0.623  0.0751  3.2938 -0.3253
  411MOL0     H56707   5.900   5.185   0.616  2.0354  0.0607  2.2108
  411MOL0     H56708   5.933   5.054   0.817  0.5418 -1.8446  0.7689
  411MOL0     H56709   5.875   4.968   0.675  1.5711 -0.1519  1.4063
  411MOL0     H56710   5.698   5.067   0.900 -2.2816  1.3628 -1.3548
  411MOL0     H56711   5.642   4.981   0.753  2.6976 -0.8337 -1.4888
  411MOL0     H56712   5.860   4.878   0.948  0.7951  2.8999 -0.7890
  411MOL0     H56713   5.769   4.785   0.825 -0.7749 -0.7891  1.4219
  411MOL0     H56714   5.484   4.795   1.141  0.7905  0.6001  1.8897
  411MOL0     H56715   6.068   5.289   0.695  3.0855 -2.9235  1.7179
  411MOL0     H56716   6.327   5.507   0.759 -0.7882  0.5697 -0.1512
  411MOL0     H56717   6.362   5.353   0.834 -0.4727 -2.8380 -1.3999
  411MOL0     H56718   6.289   5.340   0.682 -1.1341 -1.8978  1.8124
  412MOL0     O56719  10.392   1.457   8.193 -0.3106  0.0270  1.0000
  412MOL0     C56720  10.347   1.563   8.227 -0.0277 -0.1041 -0.0245
  412MOL0     O56721  10.376   1.683   8.169 -0.1844  0.2149 -0.2769
  412MOL0     C56722  10.488   1.698   8.092  1.1852 -1.3008 -0.2693
  412MOL0     C56723  10.470   1.774   7.972  1.0373  0.4701 -0.2851
  412MOL0     C56724  10.584   1.802   7.898 -0.5826 -0.1172  0.4404
  412MOL0     C56725  10.714   1.775   7.935 -0.1461  0.0503 -0.1214
  412MOL0     O56726  10.834   1.820   7.880  0.1544  0.0258  0.5599
  412MOL0     C56727  10.820   1.898   7.763 -0.1261 -0.0407  0.0604
  412MOL0     C56728  10.964   1.940   7.724  0.5219 -0.0760  0.5294
  412MOL0     C56729  10.989   2.091   7.749 -0.3492  0.5945 -0.0698
  412MOL0     C56730  11.121   2.125   7.679 -0.8052 -0.0855 -1.4800
  412MOL0     C56731  11.157   2.269   7.689  0.4604 -0.1291  0.1828
  412MOL0     C56732  11.229   2.303   7.822  0.2052 -0.4289  0.0273
  412MOL0     C56733  11.266   2.454   7.822  0.2803  0.1918  0.2193
  412MOL0     C56734  11.321   2.505   7.950  0.0253  0.1874  0.6411
  412MOL0     N56735  11.454   2.444   7.971 -0.5129  0.3018 -0.2789
  412MOL0     C56736  11.567   2.522   7.984  0.6366 -0.1210 -0.1398
  412MOL0     C56737  11.671   2.437   8.006  0.5603 -0.5389  0.1235
  412MOL0     C56738  11.811   2.483   8.030 -0.0830  0.5724  0.8798
  412MOL0     C56739  11.912   2.367   8.069  0.7762  0.9164  0.6480
  412MOL0     C56740  11.882   2.333   8.217 -0.0267 -0.1737  0.6395
  412MOL0     C56741  11.899   2.439   8.326  0.2879 -0.1620 -0.6003
  412MOL0     O56742  11.916   2.367   8.453  0.8783 -0.8196  0.1839
  412MOL0     C56743  12.001   2.428   8.547 -0.4761  1.2451 -0.2155
  412MOL0     C56744  12.035   2.560   8.542 -0.3392  0.3377  0.6065
  412MOL0     C56745  12.112   2.620   8.647 -0.5411  0.3703  0.2946
  412MOL0     C56746  12.150   2.766   8.623  0.0790 -0.4218 -0.9316
  412MOL0     C56747  12.149   2.536   8.753  0.6116 -0.9627 -0.4345
  412MOL0     C56748  12.220   2.597   8.871 -0.5952 -0.0340  0.7566
  412MOL0     O56749  12.326   2.531   8.917  1.2840  0.6450  0.1524
  412MOL0     C56750  12.350   2.542   9.044  0.3347  0.7239 -0.7230
  412MOL0     C56751  12.250   2.514   9.140  0.2388 -0.4070 -0.4210
  412MOL0     C56752  12.289   2.516   9.276 -0.0249  0.2720  0.2686
  412MOL0     C56753  12.422   2.545   9.308  0.9034 -0.8704 -0.2395
  412MOL0     O56754  12.465   2.546   9.443 -0.5475  0.1633 -0.2700
  412MOL0     C56755  12.504   2.409   9.480 -1.0947  0.0221  0.3321
  412MOL0     C56756  12.614   2.415   9.587 -0.3166  0.5964  0.5777
  412MOL0     C56757  12.753   2.438   9.521  0.4218 -1.2524  0.6646
  412MOL0     C56758  12.848   2.503   9.618  0.4769 -0.7627 -0.7978
  412MOL0     C56759  12.978   2.549   9.557  0.3414 -0.4132  0.7291
  412MOL0     C56760  13.064   2.630   9.650 -0.2387  0.8555 -1.4772
  412MOL0     C56761  13.120   2.539   9.781  0.2279  0.3347 -0.0958
  412MOL0     C56762  13.236   2.438   9.755  0.0921  0.6235 -0.5932
  412MOL0    Cl56763  13.188   2.301   9.647  0.1300 -0.0554 -0.0813
  412MOL0     C56764  12.513   2.583   9.213 -0.5196  0.5787 -0.5635
  412MOL0     C56765  12.473   2.581   9.084  0.2044 -0.0441  0.5988
  412MOL0     O56766  12.180   2.704   8.906  0.0073 -0.0164 -0.0873
  412MOL0     C56767  12.112   2.406   8.758  0.0678  0.5938  0.4459
  412MOL0     C56768  12.038   2.352   8.656  0.9486 -0.0156 -0.6890
  412MOL0     N56769  11.615   2.312   8.014  0.6195  0.1000  0.6442
  412MOL0     N56770  11.486   2.313   8.002 -0.1223  0.2596 -0.3250
  412MOL0     C56771  10.723   1.684   8.041 -0.2147  0.7682  0.2636
  412MOL0     C56772  10.611   1.639   8.110 -0.7203  1.5649 -0.1040
  412MOL0     C56773  10.256   1.572   8.352  0.6864 -0.1445  0.5029
  412MOL0     C56774  10.213   1.702   8.390  0.1092  0.1877  0.2484
  412MOL0     C56775  10.151   1.728   8.510 -0.2972  0.0249 -0.4631
  412MOL0     C56776  10.127   1.612   8.593  0.0390 -0.3123  0.6741
  412MOL0     O56777  10.077   1.626   8.718  0.0549  0.4477 -0.4322
  412MOL0     C56778   9.948   1.679   8.727 -0.4393  0.3458 -0.3346
  412MOL0     C56779   9.841   1.579   8.680 -0.1879 -0.1120 -0.0045
  412MOL0     C56780   9.834   1.460   8.780  0.1539 -0.6097  0.7976
  412MOL0     C56781   9.732   1.481   8.902  1.1653  0.2227 -0.3302
  412MOL0     C56782   9.593   1.471   8.857  0.4650 -0.3377 -0.1391
  412MOL0     C56783   9.476   1.465   8.822  0.2343 -0.0447 -0.7087
  412MOL0     C56784  10.163   1.486   8.551 -0.3243 -0.2857  0.3057
  412MOL0     C56785  10.216   1.459   8.428 -0.4024 -0.1812 -0.2494
  412MOL0     C56786  10.250   1.313   8.404  0.5249  0.6488  0.0760
  412MOL0     H56787  10.373   1.810   7.939  0.3135 -3.1350 -2.6778
  412MOL0     H56788  10.570   1.862   7.809  0.9824 -0.8705 -0.3427
  412MOL0     H56789  10.752   1.982   7.780  0.8812  0.3220  2.6715
  412MOL0     H56790  10.782   1.831   7.685  0.1693 -0.5080  0.3141
  412MOL0     H56791  11.039   1.870   7.762  2.2789  0.6355 -1.4186
  412MOL0     H56792  10.973   1.922   7.617 -0.5300 -1.3116  0.6232
  412MOL0     H56793  10.902   2.144   7.709 -1.5704  2.0551  4.0562
  412MOL0     H56794  10.984   2.128   7.852  0.0969  1.1357 -0.2331
  412MOL0     H56795  11.204   2.058   7.705 -2.1565 -1.7008 -1.1769
  412MOL0     H56796  11.094   2.116   7.574 -5.1556 -1.6176 -0.4383
  412MOL0     H56797  11.059   2.315   7.673  1.2459  1.2290 -0.9641
  412MOL0     H56798  11.221   2.298   7.605 -1.6742 -0.5057 -1.6510
  412MOL0     H56799  11.155   2.286   7.900 -0.0663 -0.5767 -0.2593
  412MOL0     H56800  11.317   2.238   7.834 -0.9559 -2.0870 -0.0104
  412MOL0     H56801  11.177   2.507   7.787  2.2249  2.4098 -1.7629
  412MOL0     H56802  11.329   2.490   7.741  0.2654  1.2214  0.6488
  412MOL0     H56803  11.317   2.612   7.930  3.0543 -0.0162 -1.8072
  412MOL0     H56804  11.266   2.477   8.040  1.6252  1.0212  1.9316
  412MOL0     H56805  11.571   2.627   7.957  1.6747  0.4432  2.0142
  412MOL0     H56806  11.813   2.559   8.108  1.5565  1.4417  0.0540
  412MOL0     H56807  11.845   2.540   7.943 -2.1874 -1.7916 -1.6889
  412MOL0     H56808  11.891   2.279   8.008 -4.8240  2.9056 -0.9649
  412MOL0     H56809  12.016   2.397   8.055  1.5057 -1.7160 -0.1262
  412MOL0     H56810  11.789   2.276   8.229  1.1739 -1.7117  3.6279
  412MOL0     H56811  11.961   2.259   8.233  1.1560  0.7868 -0.4925
  412MOL0     H56812  11.988   2.494   8.295  1.4331  0.6517  3.6108
  412MOL0     H56813  11.806   2.496   8.322 -1.3874 -2.7684 -3.8983
  412MOL0     H56814  11.994   2.631   8.470  1.6901  2.7226  1.6352
  412MOL0     H56815  12.133   2.787   8.517 -2.5607  0.2777 -0.4643
  412MOL0     H56816  12.256   2.785   8.641 -0.4777  3.8933 -0.9721
  412MOL0     H56817  12.083   2.827   8.686 -2.5584 -1.3833 -2.6186
  412MOL0     H56818  12.156   2.473   9.105  0.1393  1.5303 -2.7138
  412MOL0     H56819  12.220   2.472   9.348  0.0394  3.9656  2.8849
  412MOL0     H56820  12.416   2.365   9.528 -0.9420  0.0497  0.6356
  412MOL0     H56821  12.536   2.342   9.400 -3.3751  1.4931 -1.9654
  412MOL0     H56822  12.574   2.500   9.643 -0.4706  0.6234  0.4264
  412MOL0     H56823  12.612   2.332   9.658 -1.6809  2.6982  3.1930
  412MOL0     H56824  12.738   2.506   9.436  1.0173 -5.0695 -2.8288
  412MOL0     H56825  12.789   2.354   9.460  3.2023 -1.1540  1.9891
  412MOL0     H56826  12.860   2.424   9.693 -1.7684 -0.5972 -0.2000
  412MOL0     H56827  12.796   2.585   9.668  1.4533 -2.0363  2.6094
  412MOL0     H56828  13.031   2.464   9.513 -0.3057 -1.2769  1.5737
  412MOL0     H56829  12.943   2.616   9.478 -0.8769 -3.7154 -1.7743
  412MOL0     H56830  13.001   2.709   9.693 -3.7633  0.6459 -5.5982
  412MOL0     H56831  13.142   2.674   9.587  1.3035 -0.8197 -0.8435
  412MOL0     H56832  13.034   2.487   9.823 -1.2202  2.3922 -0.3512
  412MOL0     H56833  13.157   2.604   9.861  1.6764 -1.1880  0.5214
  412MOL0     H56834  13.254   2.382   9.847 -0.1806 -0.4980 -1.2121
  412MOL0     H56835  13.333   2.487   9.743  0.2143  0.1823 -1.4558
  412MOL0     H56836  12.616   2.595   9.245 -0.3561  2.3122 -1.6606
  412MOL0     H56837  12.540   2.616   9.006 -0.1935 -0.3057  0.1397
  412MOL0     H56838  12.131   2.348   8.848 -0.6300  0.1232  0.3076
  412MOL0     H56839  12.014   2.246   8.663  1.1099  0.0585  4.0042
  412MOL0     H56840  10.822   1.648   8.063  0.7788  3.5176  0.7105
  412MOL0     H56841  10.629   1.571   8.193  1.8411  1.1318 -0.9184
  412MOL0     H56842  10.236   1.791   8.332  1.3833  0.2569  0.8384
  412MOL0     H56843  10.122   1.828   8.542 -0.0252 -0.5779  1.7673
  412MOL0     H56844   9.930   1.729   8.823 -3.6330  1.2556 -1.2739
  412MOL0     H56845   9.946   1.757   8.651 -2.3270 -1.1429 -1.9159
  412MOL0     H56846   9.870   1.545   8.580 -1.3376 -2.0899  0.2871
  412MOL0     H56847   9.750   1.637   8.665  0.0488  0.2687  0.0060
  412MOL0     H56848   9.781   1.387   8.718 -0.3987  0.8710 -0.5446
  412MOL0     H56849   9.934   1.425   8.806 -0.4581 -2.4155  0.8674
  412MOL0     H56850   9.759   1.565   8.966 -0.3739 -0.2030  0.9367
  412MOL0     H56851   9.729   1.394   8.969 -0.4045 -0.8385 -1.6690
  412MOL0     H56852   9.371   1.452   8.803  0.1519 -1.2627  0.4300
  412MOL0     H56853  10.148   1.408   8.625  4.0502 -0.7890  0.9081
  412MOL0     H56854  10.247   1.242   8.487 -1.6864  2.8559  2.0014
  412MOL0     H56855  10.176   1.271   8.335  2.5559 -0.1575 -1.7462
  412MOL0     H56856  10.349   1.308   8.358  0.1065  2.5314 -1.1301
  413MOL0     O56857   7.824   6.028   4.097 -0.0462 -0.2337 -0.2806
  413MOL0     C56858   7.871   6.126   4.035 -0.3858  0.0273  0.3331
  413MOL0     O56859   7.812   6.215   3.956  0.3499  0.5617 -0.1320
  413MOL0     C56860   7.677   6.193   3.941  1.0552 -0.4988 -0.0427
  413MOL0     C56861   7.585   6.222   4.049 -0.1924 -0.7112 -0.3285
  413MOL0     C56862   7.451   6.193   4.031  0.0687  0.6343  0.4886
  413MOL0     C56863   7.400   6.138   3.909  0.1767  0.5231  0.3847
  413MOL0     O56864   7.268   6.105   3.893 -0.1437 -0.2796 -0.1875
  413MOL0     C56865   7.200   6.134   3.774 -0.4739  0.1710  0.1323
  413MOL0     C56866   7.054   6.127   3.789 -0.1471 -0.2716  0.3484
  413MOL0     C56867   6.973   6.133   3.659  0.7049 -0.1653 -0.5252
  413MOL0     C56868   6.994   6.017   3.561 -0.5926  0.1191  0.1436
  413MOL0     C56869   6.900   6.020   3.449 -0.6666 -0.9318 -0.8761
  413MOL0     C56870   6.767   5.956   3.478 -0.7764  0.7075 -0.7100
  413MOL0     C56871   6.678   5.968   3.349 -0.2796 -0.3675 -0.2662
  413MOL0     C56872   6.567   5.863   3.366  1.2197 -0.4681 -0.4916
  413MOL0     N56873   6.499   5.834   3.244 -0.0810 -1.2392  0.7632
  413MOL0     C56874   6.387   5.751   3.234  0.7197  0.3789 -0.6835
  413MOL0     C56875   6.373   5.712   3.101  0.4009  0.9533 -0.0765
  413MOL0     C56876   6.262   5.621   3.052 -0.0958 -0.6509  0.6072
  413MOL0     C56877   6.214   5.651   2.914 -0.4864 -0.7654  0.5973
  413MOL0     C56878   6.153   5.789   2.901  0.5699  0.3108 -0.3383
  413MOL0     C56879   6.100   5.796   2.761 -0.1024  0.3537 -0.3214
  413MOL0     O56880   6.053   5.930   2.744 -0.0352 -0.5503 -0.6139
  413MOL0     C56881   5.943   5.967   2.817  0.4481  0.1107  0.1384
  413MOL0     C56882   5.840   5.884   2.877 -0.7884  0.4613  0.8000
  413MOL0     C56883   5.735   5.942   2.941  0.3143 -0.8985  0.3591
  413MOL0     C56884   5.646   5.853   3.022 -0.5254  0.1126  0.1613
  413MOL0     C56885   5.715   6.083   2.945 -0.2959  0.3948 -0.0150
  413MOL0     C56886   5.591   6.148   2.990 -0.3077  0.2340 -0.1131
  413MOL0     O56887   5.549   6.114   3.119 -0.2588  0.7050  0.1700
  413MOL0     C56888   5.425   6.164   3.138 -0.5462  0.3849 -0.4714
  413MOL0     C56889   5.309   6.087   3.113  0.6195  0.0677 -0.0999
  413MOL0     C56890   5.182   6.138   3.148  1.0125 -0.8082  0.3502
  413MOL0     C56891   5.166   6.266   3.202 -0.2409 -0.2669  0.4197
  413MOL0     O56892   5.037   6.308   3.228  0.8020  0.4665 -0.4290
  413MOL0     C56893   5.015   6.386   3.339 -0.5127  0.1489 -0.5146
  413MOL0     C56894   4.873   6.438   3.357 -0.9676 -0.6436 -0.5380
  413MOL0     C56895   4.767   6.332   3.335 -0.3837 -0.2662 -0.5346
  413MOL0     C56896   4.632   6.376   3.399 -0.6822 -0.1067 -0.9886
  413MOL0     C56897   4.515   6.282   3.377  0.1074 -0.0250 -0.5686
  413MOL0     C56898   4.514   6.176   3.489 -0.3834 -0.6594  0.7930
  413MOL0     C56899   4.402   6.075   3.481  0.7851  0.3742  0.3604
  413MOL0     C56900   4.389   5.986   3.358 -0.3437 -0.5722 -0.2068
  413MOL0    Cl56901   4.545   5.896   3.311 -0.1313 -0.3161 -0.4096
  413MOL0     C56902   5.277   6.348   3.200 -0.3207 -0.3419 -0.7493
  413MOL0     C56903   5.404   6.298   3.174  0.3462  0.4267  0.2672
  413MOL0     O56904   5.554   6.253   2.938  0.2892  0.2202  0.1590
  413MOL0     C56905   5.816   6.162   2.893 -0.1970  0.0982  0.9185
  413MOL0     C56906   5.925   6.110   2.827  0.0138  1.0948  0.5982
  413MOL0     N56907   6.479   5.758   3.029 -0.5346 -0.4366  0.0540
  413MOL0     N56908   6.550   5.832   3.113  0.8693 -0.0452  0.5147
  413MOL0     C56909   7.488   6.109   3.802 -0.4826 -0.1464  0.5592
  413MOL0     C56910   7.626   6.134   3.823  0.3755 -0.4471 -0.1255
  413MOL0     C56911   8.020   6.155   4.028 -0.7512  0.4579  0.6223
  413MOL0     C56912   8.075   6.237   3.924 -0.4923 -0.0769  0.2504
  413MOL0     C56913   8.208   6.265   3.926 -0.2488 -0.2397  0.1009
  413MOL0     C56914   8.299   6.206   4.010 -0.1473  0.9031  0.5967
  413MOL0     O56915   8.434   6.213   3.989 -0.2811  1.0593  0.0816
  413MOL0     C56916   8.484   6.295   3.889 -0.6704 -0.3793  0.4971
  413MOL0     C56917   8.633   6.300   3.870  0.5959  0.1197 -0.5856
  413MOL0     C56918   8.696   6.346   3.999  0.0664  0.0734  0.0917
  413MOL0     C56919   8.848   6.333   3.984  0.9277  0.1668 -0.3597
  413MOL0     C56920   8.898   6.356   4.116 -0.2795 -0.4348  0.1281
  413MOL0     C56921   8.950   6.386   4.220  0.4004 -0.7846 -0.3926
  413MOL0     C56922   8.252   6.141   4.126 -0.3979 -0.5372  0.0063
  413MOL0     C56923   8.111   6.113   4.133 -0.2019  0.5765 -0.0917
  413MOL0     C56924   8.072   6.033   4.261 -0.4278 -0.1076  0.5692
  413MOL0     H56925   7.619   6.269   4.141  0.5363  1.1711 -1.5030
  413MOL0     H56926   7.379   6.216   4.109  2.1423 -1.4871  3.2285
  413MOL0     H56927   7.235   6.054   3.707 -1.2921 -2.7100  2.9192
  413MOL0     H56928   7.218   6.233   3.731  2.0741 -0.9687 -1.6993
  413MOL0     H56929   7.026   6.029   3.829 -2.3690 -0.2761 -1.0314
  413MOL0     H56930   7.008   6.204   3.852 -5.7848 -0.4017 -2.9673
  413MOL0     H56931   6.869   6.127   3.693  0.0411 -0.8478 -2.5208
  413MOL0     H56932   6.974   6.229   3.608  1.8028 -1.4381 -3.0998
  413MOL0     H56933   7.096   6.035   3.525 -1.0247  1.4768 -0.4580
  413MOL0     H56934   7.012   5.921   3.611 -0.9978 -1.8530 -3.2404
  413MOL0     H56935   6.949   5.992   3.355 -0.1476 -3.1777  0.0100
  413MOL0     H56936   6.881   6.125   3.421  3.1446  0.7857  2.0843
  413MOL0     H56937   6.801   5.853   3.492  2.2203  1.4425 -1.8110
  413MOL0     H56938   6.718   5.992   3.569  1.6756 -0.7008  1.2646
  413MOL0     H56939   6.740   5.947   3.261  0.2406  1.7379 -0.4398
  413MOL0     H56940   6.651   6.074   3.347  5.0577  1.3309  0.8415
  413MOL0     H56941   6.602   5.773   3.416  0.0254 -0.2499  0.8318
  413MOL0     H56942   6.493   5.911   3.430  1.3071 -1.5862  0.4723
  413MOL0     H56943   6.326   5.723   3.320  0.1803 -0.7976 -1.4160
  413MOL0     H56944   6.184   5.622   3.129 -1.8358  1.1438 -1.0707
  413MOL0     H56945   6.297   5.519   3.035  0.5558 -0.3532  0.1300
  413MOL0     H56946   6.292   5.642   2.838 -1.1726 -2.3713  0.0296
  413MOL0     H56947   6.140   5.577   2.879 -0.2939 -1.3807  1.4631
  413MOL0     H56948   6.085   5.786   2.986  0.7897 -1.7871 -0.1875
  413MOL0     H56949   6.227   5.868   2.916  0.0002  0.9125 -0.6372
  413MOL0     H56950   6.177   5.781   2.685 -1.0589  1.5637 -1.5861
  413MOL0     H56951   6.016   5.729   2.745 -0.4037  1.2146 -2.6625
  413MOL0     H56952   5.849   5.776   2.869  2.0148  0.7709 -3.4187
  413MOL0     H56953   5.678   5.749   3.010  0.7124  0.3673  1.0497
  413MOL0     H56954   5.540   5.857   2.995 -0.1743  2.1649 -1.1204
  413MOL0     H56955   5.658   5.868   3.130  0.9696  2.1589 -0.2363
  413MOL0     H56956   5.325   5.981   3.097  1.6168  0.1136  0.5481
  413MOL0     H56957   5.100   6.072   3.122  1.3973 -0.2740 -2.5238
  413MOL0     H56958   5.041   6.330   3.430 -0.4744 -0.0335 -0.6361
  413MOL0     H56959   5.080   6.473   3.347  1.6253 -1.4715  0.8176
  413MOL0     H56960   4.871   6.481   3.458  0.4205 -0.8107 -0.4094
  413MOL0     H56961   4.848   6.519   3.287  0.0365 -2.5687 -3.2921
  413MOL0     H56962   4.809   6.237   3.369  0.7668 -0.5317 -2.5531
  413MOL0     H56963   4.750   6.320   3.228  2.3278  1.9398 -1.3216
  413MOL0     H56964   4.601   6.471   3.354 -2.3719 -0.2506 -0.2013
  413MOL0     H56965   4.637   6.404   3.505 -0.0711  0.5117 -1.1720
  413MOL0     H56966   4.418   6.330   3.359  1.2914  2.3283 -1.0676
  413MOL0     H56967   4.536   6.245   3.276  0.3086  1.2061 -0.9884
  413MOL0     H56968   4.491   6.225   3.584 -1.7708 -1.8541  1.1157
  413MOL0     H56969   4.611   6.125   3.485 -1.1268 -2.1922  1.1923
  413MOL0     H56970   4.312   6.137   3.474  2.1866  2.3631 -1.4809
  413MOL0     H56971   4.388   6.018   3.573 -4.3025  0.0048 -0.3612
  413MOL0     H56972   4.363   6.041   3.267 -1.6460 -0.0706  0.4362
  413MOL0     H56973   4.303   5.923   3.383  0.0328 -0.9064  0.2626
  413MOL0     H56974   5.270   6.452   3.228  3.0790 -1.1554  4.8130
  413MOL0     H56975   5.488   6.366   3.163 -0.4009  1.2011 -0.7175
  413MOL0     H56976   5.798   6.268   2.884 -1.9268 -0.3162 -2.0444
  413MOL0     H56977   5.998   6.167   2.771  0.3803  0.8625  0.8377
  413MOL0     H56978   7.462   6.052   3.713 -1.4334  1.0188  0.0690
  413MOL0     H56979   7.706   6.112   3.753  0.2705 -1.0813 -0.0612
  413MOL0     H56980   8.029   6.276   3.834  0.9493  0.0543 -0.4620
  413MOL0     H56981   8.227   6.324   3.837 -5.0806 -0.3347 -1.2895
  413MOL0     H56982   8.436   6.261   3.797 -1.8240  3.4745 -0.5428
  413MOL0     H56983   8.451   6.399   3.901  2.2234  0.6370  0.3316
  413MOL0     H56984   8.669   6.357   3.784 -2.8406  2.9199 -0.3783
  413MOL0     H56985   8.656   6.194   3.856 -0.2590 -0.1298 -0.1468
  413MOL0     H56986   8.681   6.451   4.026 -0.6876  0.0727 -0.3025
  413MOL0     H56987   8.669   6.280   4.082  2.4483 -1.1246 -0.0120
  413MOL0     H56988   8.871   6.400   3.900 -1.6244  0.5115 -0.8745
  413MOL0     H56989   8.888   6.236   3.953  1.4059 -0.8569  3.1183
  413MOL0     H56990   9.007   6.415   4.305  0.3201  1.0651 -0.9343
  413MOL0     H56991   8.318   6.094   4.197 -1.2042 -0.3148  0.9288
  413MOL0     H56992   7.992   6.088   4.311  1.3376  2.6433  0.5780
  413MOL0     H56993   8.055   5.926   4.247 -0.2235 -0.0501 -0.1766
  413MOL0     H56994   8.156   6.045   4.330  0.5540  2.8722 -0.9534
  414MOL0     O56995   8.961   9.902   7.510 -0.2542 -0.3866  0.0466
  414MOL0     C56996   8.921   9.788   7.520 -0.1461 -0.1283 -0.3694
  414MOL0     O56997   9.011   9.683   7.500 -0.3320  0.5635 -1.1682
  414MOL0     C56998   9.142   9.703   7.467 -0.0194 -0.0059  0.0885
  414MOL0     C56999   9.200   9.789   7.371 -0.9941 -0.6662  0.4956
  414MOL0     C57000   9.337   9.788   7.344  0.1827  0.0001  0.2107
  414MOL0     C57001   9.429   9.713   7.414  0.6572 -0.4648 -0.3213
  414MOL0     O57002   9.556   9.707   7.364  0.3962  0.1018  0.1620
  414MOL0     C57003   9.665   9.699   7.456 -0.5810  0.4337  0.1572
  414MOL0     C57004   9.790   9.710   7.371  1.4369 -0.2142  0.1840
  414MOL0     C57005   9.910   9.703   7.456 -0.3367  0.3881  0.1689
  414MOL0     C57006  10.037   9.746   7.387  0.5592  0.1604  0.0969
  414MOL0     C57007  10.165   9.706   7.453 -0.0846  0.1626 -0.6004
  414MOL0     C57008  10.289   9.734   7.363  0.1150  0.0266  0.3377
  414MOL0     C57009  10.330   9.876   7.347  0.3098  0.4688  0.9933
  414MOL0     C57010  10.426   9.887   7.221 -0.6160  0.5699  0.1680
  414MOL0     N57011  10.569   9.844   7.231  1.0389  0.1408 -0.1150
  414MOL0     C57012  10.620   9.723   7.265  0.5735  0.6677  0.0711
  414MOL0     C57013  10.742   9.710   7.205  0.4301 -0.8788 -0.2869
  414MOL0     C57014  10.832   9.589   7.201  0.1522 -0.0557 -0.4130
  414MOL0     C57015  10.968   9.617   7.254 -0.4249 -0.2325  0.4983
  414MOL0     C57016  11.060   9.489   7.255  0.2642 -0.9586  1.0028
  414MOL0     C57017  11.180   9.506   7.353  0.4123  0.9489  0.3814
  414MOL0     O57018  11.119   9.505   7.479 -0.2825 -0.2288 -0.6385
  414MOL0     C57019  11.163   9.602   7.569 -0.5774 -1.1225 -0.5646
  414MOL0     C57020  11.061   9.651   7.659 -0.2710 -0.7020 -0.1944
  414MOL0     C57021  11.093   9.750   7.758 -0.4351  0.1316  0.4023
  414MOL0     C57022  10.985   9.776   7.855  0.3339  0.0616  0.4118
  414MOL0     C57023  11.232   9.785   7.771 -0.3321 -0.1062 -0.5491
  414MOL0     C57024  11.282   9.864   7.878 -0.1353  0.3662 -0.3640
  414MOL0     O57025  11.364   9.973   7.849  0.4436 -0.2587 -1.2111
  414MOL0     C57026  11.398  10.048   7.957  0.3961 -0.2243  0.3728
  414MOL0     C57027  11.333  10.168   7.983 -0.1065  1.0684 -0.0090
  414MOL0     C57028  11.380  10.256   8.080 -0.2467  0.1648 -0.5140
  414MOL0     C57029  11.482  10.212   8.168  0.8348 -0.1318 -0.5823
  414MOL0     O57030  11.532  10.284   8.275 -0.3874  0.2452  0.7407
  414MOL0     C57031  11.443  10.361   8.358  0.2841 -0.2060  0.3641
  414MOL0     C57032  11.341  10.282   8.438  0.4712 -0.2201  0.5166
  414MOL0     C57033  11.405  10.164   8.521 -0.6359 -0.1406  0.0486
  414MOL0     C57034  11.348  10.140   8.657  0.4264  0.5835 -0.1445
  414MOL0     C57035  11.427  10.060   8.762  0.4992 -0.4475 -0.3156
  414MOL0     C57036  11.324  10.031   8.886 -0.3157 -0.0156 -0.2979
  414MOL0     C57037  11.382   9.959   9.011 -0.6477 -0.4333  0.3917
  414MOL0     C57038  11.430   9.825   8.968  0.8015  0.4307 -0.7843
  414MOL0    Cl57039  11.516   9.733   9.097 -0.1670  0.0193  0.3391
  414MOL0     C57040  11.543  10.090   8.146 -0.4695 -0.9995 -0.4392
  414MOL0     C57041  11.510  10.015   8.037 -0.2828 -0.3780 -0.6265
  414MOL0     O57042  11.243   9.834   7.986 -0.1653  0.3507 -0.5563
  414MOL0     C57043  11.322   9.733   7.675  0.5490 -0.1066  0.3687
  414MOL0     C57044  11.289   9.648   7.569  0.1674 -0.3386 -0.0764
  414MOL0     N57045  10.755   9.826   7.134 -0.3433 -0.1546 -0.0371
  414MOL0     N57046  10.655   9.897   7.148 -0.6673 -0.1001 -0.5773
  414MOL0     C57047   9.373   9.627   7.509 -0.1048 -0.3578  0.8354
  414MOL0     C57048   9.236   9.622   7.535 -0.0236  0.0174  0.5066
  414MOL0     C57049   8.778   9.763   7.555  0.5115  0.0434 -0.5935
  414MOL0     C57050   8.738   9.633   7.524 -0.7533 -0.3477  0.9019
  414MOL0     C57051   8.595   9.601   7.535 -0.3908 -0.0110  0.3821
  414MOL0     C57052   8.513   9.692   7.600 -0.7615 -0.4317 -0.0340
  414MOL0     O57053   8.381   9.651   7.598 -0.0179 -0.6262 -0.4338
  414MOL0     C57054   8.282   9.744   7.549  0.4381  0.0875  0.1963
  414MOL0     C57055   8.299   9.768   7.398  0.1119  0.0083 -0.2408
  414MOL0     C57056   8.286   9.637   7.327 -0.0732 -0.0372 -1.0418
  414MOL0     C57057   8.267   9.662   7.171 -0.5333 -0.2314  1.3139
  414MOL0     C57058   8.124   9.655   7.149  0.5455 -0.5226 -0.0589
  414MOL0     C57059   8.003   9.667   7.135  0.2832  1.3402 -0.0560
  414MOL0     C57060   8.555   9.825   7.630 -0.1812  0.1426 -1.1462
  414MOL0     C57061   8.682   9.859   7.601 -0.0641 -0.5226 -0.1005
  414MOL0     C57062   8.732  10.004   7.634  0.2865  0.3723 -0.0579
  414MOL0     H57063   9.136   9.862   7.323 -2.2384 -1.5874  0.7135
  414MOL0     H57064   9.375   9.851   7.264  0.3886  0.9218  1.0209
  414MOL0     H57065   9.655   9.601   7.503 -0.9808 -0.0276 -0.8750
  414MOL0     H57066   9.658   9.770   7.539 -0.1530 -1.0748  1.5474
  414MOL0     H57067   9.802   9.623   7.306  2.4437  1.0271 -1.3638
  414MOL0     H57068   9.778   9.801   7.311  1.1548 -0.2450  0.1929
  414MOL0     H57069   9.897   9.770   7.541  0.6763  0.7572  0.0405
  414MOL0     H57070   9.923   9.598   7.483  1.4390  0.4494 -0.2916
  414MOL0     H57071  10.048   9.686   7.295  2.6928 -3.2303  2.3163
  414MOL0     H57072  10.040   9.850   7.355 -0.6134  0.6772  1.5678
  414MOL0     H57073  10.166   9.599   7.478 -1.3448  0.8837  2.9831
  414MOL0     H57074  10.174   9.757   7.549 -0.3683 -1.9787  0.6293
  414MOL0     H57075  10.371   9.679   7.410 -1.6980  0.1971  4.0530
  414MOL0     H57076  10.262   9.690   7.267  0.8813 -1.1683  0.6421
  414MOL0     H57077  10.369   9.900   7.447 -0.9514 -1.7080  2.0777
  414MOL0     H57078  10.233   9.922   7.327  0.1143 -0.8003 -1.4412
  414MOL0     H57079  10.385   9.820   7.145  0.9521 -0.0967 -0.1185
  414MOL0     H57080  10.428   9.993   7.194  1.2815  0.5203 -0.0314
  414MOL0     H57081  10.583   9.644   7.330  2.3749 -1.4787 -1.3731
  414MOL0     H57082  10.829   9.537   7.105 -0.4861 -5.3050  2.0820
  414MOL0     H57083  10.788   9.511   7.263  0.8109  1.1594  1.7164
  414MOL0     H57084  11.014   9.689   7.186  2.3351 -0.7138  1.7054
  414MOL0     H57085  10.970   9.664   7.353  2.5317 -1.6074  1.2241
  414MOL0     H57086  10.994   9.406   7.283 -1.6912  1.3060  3.7584
  414MOL0     H57087  11.096   9.467   7.155  1.3453  1.9814  0.6527
  414MOL0     H57088  11.263   9.438   7.335  1.8073  1.5982  3.6492
  414MOL0     H57089  11.210   9.607   7.323  0.1622  1.3161  1.3363
  414MOL0     H57090  10.960   9.611   7.651  0.2926 -1.9981 -1.3072
  414MOL0     H57091  11.009   9.831   7.947 -1.2766  0.7065  0.4744
  414MOL0     H57092  10.938   9.680   7.877 -2.2181  0.7300 -1.6243
  414MOL0     H57093  10.903   9.833   7.810  1.7113 -0.9912 -3.9501
  414MOL0     H57094  11.255  10.186   7.910 -0.4740 -2.0350 -0.5316
  414MOL0     H57095  11.339  10.355   8.096  0.0786  0.3741 -0.9336
  414MOL0     H57096  11.502  10.418   8.430 -0.7767 -0.2314  1.2989
  414MOL0     H57097  11.385  10.433   8.298 -1.2645 -1.0166  0.8223
  414MOL0     H57098  11.292  10.344   8.513  0.5955 -2.3388  2.4358
  414MOL0     H57099  11.266  10.238   8.372  0.4838  1.7069 -0.8681
  414MOL0     H57100  11.511  10.187   8.534 -0.8232  0.8226 -0.0517
  414MOL0     H57101  11.401  10.076   8.457  2.0192  1.6024 -2.7911
  414MOL0     H57102  11.244  10.105   8.646  0.5809  0.1455 -0.2362
  414MOL0     H57103  11.333  10.242   8.693  0.8076  0.3156  0.7809
  414MOL0     H57104  11.478   9.980   8.708  2.9590  2.4572 -2.6961
  414MOL0     H57105  11.511  10.125   8.791  1.1427 -1.0080 -0.8826
  414MOL0     H57106  11.238   9.975   8.847 -0.3731 -0.0927 -0.0599
  414MOL0     H57107  11.293  10.132   8.915  4.6003  0.9895  2.7143
  414MOL0     H57108  11.304   9.938   9.084  0.2950 -1.2090  1.2040
  414MOL0     H57109  11.467  10.015   9.053 -0.1948  2.3170 -3.5340
  414MOL0     H57110  11.490   9.820   8.876  0.0011 -0.3287 -1.2750
  414MOL0     H57111  11.344   9.763   8.943  1.4956 -1.9777  2.1853
  414MOL0     H57112  11.625  10.047   8.203 -0.0076 -0.8870 -1.0073
  414MOL0     H57113  11.559   9.918   8.027  0.3073 -0.0564 -0.8925
  414MOL0     H57114  11.427   9.761   7.678  0.4039  0.4538  0.4492
  414MOL0     H57115  11.365   9.621   7.496  1.0398 -0.6920  0.9442
  414MOL0     H57116   9.438   9.559   7.562 -1.3838 -0.7193  1.9844
  414MOL0     H57117   9.197   9.537   7.591 -1.7020  1.4359  1.5764
  414MOL0     H57118   8.799   9.550   7.489 -0.0228  0.0494  1.2423
  414MOL0     H57119   8.550   9.509   7.500 -0.2909 -0.3552  1.1413
  414MOL0     H57120   8.179   9.715   7.570 -0.0352 -0.9774 -3.0595
  414MOL0     H57121   8.296   9.837   7.605  2.1397 -1.4903  2.5500
  414MOL0     H57122   8.391   9.822   7.373  1.2447 -2.8936 -2.9988
  414MOL0     H57123   8.211   9.829   7.376 -2.5976 -3.6565 -0.5591
  414MOL0     H57124   8.378   9.579   7.337 -0.7849 -1.1172 -0.5170
  414MOL0     H57125   8.202   9.583   7.372  0.4845  1.1010  1.5618
  414MOL0     H57126   8.313   9.574   7.125 -0.7462 -0.8430  2.2421
  414MOL0     H57127   8.320   9.747   7.127 -0.8738  0.0880  1.5216
  414MOL0     H57128   7.897   9.680   7.120  0.1335  0.6857  0.4086
  414MOL0     H57129   8.488   9.899   7.673  0.4020  0.3712 -0.6289
  414MOL0     H57130   8.827   9.994   7.687  0.6541 -0.0943 -0.7767
  414MOL0     H57131   8.754  10.061   7.543  2.0158  1.4658  1.0090
  414MOL0     H57132   8.669  10.063   7.701 -0.8972 -1.9611  1.0241
  415MOL0     O57133   9.971   4.596  10.752 -0.3837 -0.6165  0.1580
  415MOL0     C57134  10.080   4.577  10.804  0.3882  0.3671  0.3112
  415MOL0     O57135  10.116   4.586  10.933 -0.3035 -0.2673  0.6552
  415MOL0     C57136  10.021   4.639  11.017 -0.2444  0.0127 -0.2877
  415MOL0     C57137   9.887   4.604  11.038 -0.7240  0.3639 -0.2849
  415MOL0     C57138   9.808   4.669  11.125 -0.5028  0.1771  0.1697
  415MOL0     C57139   9.859   4.771  11.212  0.9295 -0.2061 -0.0504
  415MOL0     O57140   9.785   4.831  11.304  0.0474  0.2892 -0.6168
  415MOL0     C57141   9.645   4.811  11.311 -0.2415 -0.4447 -0.1555
  415MOL0     C57142   9.582   4.940  11.377 -0.0415  0.4319  0.1537
  415MOL0     C57143   9.430   4.921  11.376  0.0314  0.3623  0.1600
  415MOL0     C57144   9.377   5.024  11.479  0.0598  0.4860 -0.2066
  415MOL0     C57145   9.225   5.001  11.482  0.2502 -0.4861  0.2233
  415MOL0     C57146   9.167   5.054  11.610  0.2599  0.0355  0.1042
  415MOL0     C57147   9.016   5.084  11.598  0.0449 -0.2686 -0.1625
  415MOL0     C57148   8.970   5.163  11.713 -0.1660  0.2297  0.3871
  415MOL0     N57149   8.833   5.198  11.691 -0.9199  0.0383  0.3890
  415MOL0     C57150   8.782   5.314  11.644 -0.4512 -0.3687 -0.6198
  415MOL0     C57151   8.645   5.307  11.657  0.1157  0.9563 -0.5414
  415MOL0     C57152   8.522   5.399  11.659  0.3679  0.1223  0.3334
  415MOL0     C57153   8.544   5.532  11.589  0.9261  0.0382  0.4324
  415MOL0     C57154   8.412   5.613  11.582  0.5335 -0.8962 -0.2615
  415MOL0     C57155   8.431   5.750  11.526 -0.2263  0.0418  0.9055
  415MOL0     O57156   8.456   5.855  11.620 -0.3070 -0.5296  0.0626
  415MOL0     C57157   8.480   5.972  11.556 -0.4527  0.2017 -0.2692
  415MOL0     C57158   8.538   6.071  11.635  0.1123 -0.1909 -0.1434
  415MOL0     C57159   8.577   6.198  11.592 -0.5599 -0.4135  0.1461
  415MOL0     C57160   8.629   6.289  11.699 -0.4152 -0.6380  0.2827
  415MOL0     C57161   8.570   6.222  11.455  0.1086 -0.5061 -0.1358
  415MOL0     C57162   8.627   6.342  11.388  0.3171 -0.2679  0.6358
  415MOL0     O57163   8.546   6.395  11.288 -0.2809  0.1290  1.0314
  415MOL0     C57164   8.566   6.514  11.224  0.1612  0.5069  0.6065
  415MOL0     C57165   8.661   6.605  11.262 -0.2324  0.8505  0.1096
  415MOL0     C57166   8.679   6.727  11.197 -0.3196  0.0774  0.7774
  415MOL0     C57167   8.594   6.764  11.091 -0.2941 -0.2405 -1.0446
  415MOL0     O57168   8.607   6.887  11.040  0.3516 -0.6801  0.8450
  415MOL0     C57169   8.520   6.918  10.926  0.2076  0.6037 -0.0561
  415MOL0     C57170   8.544   7.065  10.880 -0.2059 -1.1793 -0.1959
  415MOL0     C57171   8.566   7.074  10.726 -0.7339 -0.4651  0.1258
  415MOL0     C57172   8.440   7.043  10.641 -0.9145  0.3297 -0.7520
  415MOL0     C57173   8.451   7.096  10.491  0.1468 -0.1756  0.4513
  415MOL0     C57174   8.321   7.097  10.423 -0.0572 -0.7786 -0.9061
  415MOL0     C57175   8.328   7.163  10.288  0.2028 -0.0817 -0.1049
  415MOL0     C57176   8.186   7.155  10.215 -0.2776  0.5021  1.2310
  415MOL0    Cl57177   8.185   7.255  10.066  0.2488 -0.3861  0.0292
  415MOL0     C57178   8.490   6.672  11.056 -0.5857  1.2547 -0.5284
  415MOL0     C57179   8.476   6.549  11.124  0.1808  0.6372  0.6349
  415MOL0     O57180   8.746   6.369  11.412  0.3543 -0.4672  0.0104
  415MOL0     C57181   8.502   6.128  11.365 -1.0852 -0.2131  0.0767
  415MOL0     C57182   8.465   6.006  11.422  0.7372  0.4598 -1.0309
  415MOL0     N57183   8.624   5.172  11.684  0.1711 -0.2408  0.1970
  415MOL0     N57184   8.736   5.116  11.704  0.2126 -0.5102 -0.0936
  415MOL0     C57185   9.988   4.804  11.189 -0.6075 -0.0648  0.4243
  415MOL0     C57186  10.069   4.734  11.099 -0.7984 -0.0738  0.7929
  415MOL0     C57187  10.183   4.516  10.714  0.0184 -0.3119 -0.5229
  415MOL0     C57188  10.138   4.448  10.595 -0.3086  0.7471 -0.5209
  415MOL0     C57189  10.226   4.398  10.505  0.2171 -0.0134 -0.4976
  415MOL0     C57190  10.370   4.408  10.521  0.4590 -0.0545 -0.3260
  415MOL0     O57191  10.451   4.353  10.431 -0.3159 -0.6701  0.7904
  415MOL0     C57192  10.582   4.301  10.473  0.2738 -0.0364 -0.2951
  415MOL0     C57193  10.641   4.227  10.351  0.0888  0.0702 -0.2172
  415MOL0     C57194  10.629   4.296  10.216  0.0579 -0.7027  0.4265
  415MOL0     C57195  10.728   4.261  10.108 -0.3276  0.8589  1.4747
  415MOL0     C57196  10.748   4.116  10.106 -0.6256 -0.3206 -0.3878
  415MOL0     C57197  10.755   3.998  10.109  0.2399  0.1830  0.3123
  415MOL0     C57198  10.413   4.464  10.641 -0.1939 -0.6626 -0.1554
  415MOL0     C57199  10.325   4.525  10.732 -0.4639  0.0114 -0.5494
  415MOL0     C57200  10.394   4.603  10.847  0.0466  0.8055  0.0688
  415MOL0     H57201   9.831   4.533  10.977  0.1842  0.6415 -1.4715
  415MOL0     H57202   9.704   4.639  11.133 -0.3407 -0.3943  0.2101
  415MOL0     H57203   9.627   4.729  11.381 -2.4934 -0.7768 -1.0383
  415MOL0     H57204   9.591   4.796  11.218 -0.3026  3.3217 -0.9078
  415MOL0     H57205   9.612   4.965  11.479 -1.4545  1.3115  0.3802
  415MOL0     H57206   9.604   5.029  11.316 -5.2470  0.2398 -2.5234
  415MOL0     H57207   9.381   4.935  11.280 -2.1947  3.2850  1.5661
  415MOL0     H57208   9.411   4.821  11.419 -0.1955  0.3282 -0.0209
  415MOL0     H57209   9.421   5.018  11.579 -2.8074  1.2366  1.2306
  415MOL0     H57210   9.407   5.121  11.440  0.1556  1.2602  1.6875
  415MOL0     H57211   9.199   4.897  11.459 -1.1755 -0.3272  0.9855
  415MOL0     H57212   9.191   5.068  11.402  0.0082 -0.7563  0.0972
  415MOL0     H57213   9.187   4.976  11.684  2.0104 -0.5710 -0.9716
  415MOL0     H57214   9.216   5.147  11.640 -1.8479  2.1538 -2.5043
  415MOL0     H57215   8.958   4.993  11.582  0.9325 -0.7594 -0.6528
  415MOL0     H57216   8.993   5.144  11.509 -0.1285  2.3255  1.5094
  415MOL0     H57217   8.984   5.095  11.798 -1.8790 -2.1305 -1.1160
  415MOL0     H57218   9.031   5.252  11.732 -0.2981  0.4790 -0.3131
  415MOL0     H57219   8.832   5.407  11.619 -1.9568  0.1407 -1.8911
  415MOL0     H57220   8.482   5.426  11.757 -1.2091  3.6568 -1.1190
  415MOL0     H57221   8.441   5.348  11.607  0.9460 -0.4151 -0.0649
  415MOL0     H57222   8.609   5.593  11.652 -0.5249  2.8958 -0.6207
  415MOL0     H57223   8.580   5.519  11.487  0.9436 -1.3195  0.5921
  415MOL0     H57224   8.343   5.553  11.521  0.5812  1.7283 -3.0803
  415MOL0     H57225   8.384   5.628  11.687  1.3996  2.6171 -0.4204
  415MOL0     H57226   8.517   5.744  11.459 -1.3162  0.1109 -0.5363
  415MOL0     H57227   8.347   5.780  11.463  2.4037  1.1939 -2.3885
  415MOL0     H57228   8.536   6.045  11.740 -1.6838 -1.5737 -0.4639
  415MOL0     H57229   8.553   6.343  11.757  0.7018 -0.0607  1.2488
  415MOL0     H57230   8.702   6.365  11.670  1.9939 -1.9766  2.3985
  415MOL0     H57231   8.681   6.225  11.771  2.5461  0.5175 -0.6682
  415MOL0     H57232   8.736   6.587  11.338  1.5890  1.1044 -1.5588
  415MOL0     H57233   8.765   6.791  11.219  0.7435 -0.5006 -1.4344
  415MOL0     H57234   8.554   6.858  10.842  3.4198 -1.2273  2.3128
  415MOL0     H57235   8.416   6.905  10.958 -0.4230 -3.3643 -3.0288
  415MOL0     H57236   8.458   7.128  10.905 -0.3144 -0.0953 -2.8908
  415MOL0     H57237   8.625   7.113  10.936 -0.7783  0.9266 -1.0672
  415MOL0     H57238   8.639   6.999  10.694 -2.5250 -1.8685 -0.8878
  415MOL0     H57239   8.589   7.178  10.699 -1.7306 -0.8134 -2.2862
  415MOL0     H57240   8.349   7.083  10.687 -1.5314 -0.9974 -0.7880
  415MOL0     H57241   8.423   6.936  10.633 -3.7528  0.7363 -1.1573
  415MOL0     H57242   8.487   7.198  10.500  1.2706 -0.5395  0.1963
  415MOL0     H57243   8.526   7.032  10.443  2.0320 -0.1634  3.1578
  415MOL0     H57244   8.246   7.140  10.489  0.9512  0.4300 -0.5156
  415MOL0     H57245   8.289   6.992  10.414 -1.3131 -0.7345  2.0903
  415MOL0     H57246   8.406   7.115  10.227  2.3384  0.7474  1.8202
  415MOL0     H57247   8.362   7.266  10.292  3.4476 -0.6651 -4.7616
  415MOL0     H57248   8.101   7.200  10.268 -1.1756 -0.8537  1.0178
  415MOL0     H57249   8.156   7.052  10.190 -0.3439  0.4992  1.3236
  415MOL0     H57250   8.422   6.704  10.978  0.7822 -0.2325 -2.3983
  415MOL0     H57251   8.393   6.487  11.093 -0.7019  1.1661  1.8564
  415MOL0     H57252   8.494   6.153  11.260  3.7518 -3.3348 -1.3697
  415MOL0     H57253   8.419   5.939  11.350 -1.2924 -0.3237  0.8401
  415MOL0     H57254  10.054   4.871  11.243  4.4483 -0.7869 -3.9979
  415MOL0     H57255  10.172   4.769  11.100 -0.7260 -0.0647 -1.2902
  415MOL0     H57256  10.034   4.446  10.563 -1.8761 -0.0611  3.8586
  415MOL0     H57257  10.193   4.358  10.409 -2.3327  0.0100  0.2882
  415MOL0     H57258  10.650   4.378  10.513  0.5172 -2.3140  4.2736
  415MOL0     H57259  10.573   4.233  10.558  1.9274  0.0362 -0.0150
  415MOL0     H57260  10.590   4.130  10.349 -0.6073  0.4261  0.0733
  415MOL0     H57261  10.746   4.211  10.378  0.1829  0.0110 -0.6204
  415MOL0     H57262  10.526   4.289  10.181  0.1990  0.8191 -0.3746
  415MOL0     H57263  10.650   4.402  10.231  3.3942 -1.3190  1.0287
  415MOL0     H57264  10.822   4.316  10.121 -0.3323  0.8936  1.3660
  415MOL0     H57265  10.707   4.288  10.005  3.1465 -1.3324  0.0182
  415MOL0     H57266  10.771   3.893  10.122 -0.4205 -0.2152 -1.7793
  415MOL0     H57267  10.518   4.463  10.670  0.0283  1.9058 -0.6249
  415MOL0     H57268  10.371   4.709  10.839 -0.4161  0.6386 -1.0906
  415MOL0     H57269  10.381   4.554  10.944  1.1071 -3.6239 -1.7417
  415MOL0     H57270  10.502   4.590  10.834 -0.2718 -1.1120 -1.0666
  416MOL0     O57271   0.170   6.512   9.357 -0.1901 -0.4021  0.1027
  416MOL0     C57272   0.153   6.590   9.454 -0.2278 -0.1660  0.2764
  416MOL0     O57273   0.065   6.692   9.456 -0.6188 -0.1465  1.1442
  416MOL0     C57274   0.014   6.728   9.329 -0.3856 -0.4064  0.2101
  416MOL0     C57275  -0.057   6.638   9.246  0.2466  0.5327  0.5965
  416MOL0     C57276  -0.107   6.681   9.123  0.0378 -0.1940  0.0084
  416MOL0     C57277  -0.092   6.815   9.086  0.6131  0.2426 -0.1772
  416MOL0     O57278  -0.159   6.850   8.979  0.9034  0.2295  0.1922
  416MOL0     C57279  -0.098   6.946   8.887  0.2685  0.0941 -0.1220
  416MOL0     C57280  -0.036   6.877   8.762 -0.4622  0.1586  0.5749
  416MOL0     C57281   0.026   6.976   8.662  1.0157 -0.4529  0.0248
  416MOL0     C57282   0.038   6.925   8.520  0.7288 -0.5240  0.3079
  416MOL0     C57283   0.114   7.024   8.427 -0.2554 -0.2420  0.6100
  416MOL0     C57284   0.107   6.964   8.278 -0.1326 -0.0091  0.4604
  416MOL0     C57285   0.140   7.067   8.170 -1.1332 -0.1761  0.8881
  416MOL0     C57286   0.277   7.141   8.183 -0.1885 -0.3215 -0.0874
  416MOL0     N57287   0.383   7.046   8.201 -0.0431 -0.3075 -0.2240
  416MOL0     C57288   0.451   7.023   8.320  0.0014 -0.0985  0.3310
  416MOL0     C57289   0.546   6.934   8.293  0.2954 -0.2627  0.3277
  416MOL0     C57290   0.641   6.896   8.389  0.2113 -0.2479 -0.0024
  416MOL0     C57291   0.757   7.002   8.376  1.1360  0.3534 -0.5560
  416MOL0     C57292   0.890   6.952   8.416 -0.7284  0.1678  0.0033
  416MOL0     C57293   1.003   7.043   8.373 -1.0885  0.0794  0.5640
  416MOL0     O57294   0.971   7.184   8.373  0.1915  0.4650 -0.1621
  416MOL0     C57295   1.059   7.284   8.339 -0.7244  0.0157  0.8829
  416MOL0     C57296   1.197   7.259   8.316 -0.1042  0.4551  0.4318
  416MOL0     C57297   1.285   7.352   8.267 -0.0608 -0.7148 -0.2638
  416MOL0     C57298   1.431   7.313   8.260  0.6790 -0.8347 -0.0339
  416MOL0     C57299   1.239   7.479   8.244  0.2816 -1.4368  0.3169
  416MOL0     C57300   1.329   7.588   8.209 -0.1979 -0.4462 -0.2733
  416MOL0     O57301   1.321   7.695   8.297 -0.1041  0.1789  0.0275
  416MOL0     C57302   1.433   7.773   8.320 -0.2804  0.4092 -0.2165
  416MOL0     C57303   1.549   7.717   8.381  0.2454  0.6626  0.5218
  416MOL0     C57304   1.659   7.796   8.398 -0.1663  0.2825  0.3097
  416MOL0     C57305   1.647   7.943   8.392 -0.2893 -0.1780 -0.1422
  416MOL0     O57306   1.760   8.030   8.397 -0.0863 -0.4980  0.1476
  416MOL0     C57307   1.851   8.003   8.507 -0.1268 -0.3117 -0.6755
  416MOL0     C57308   1.966   8.102   8.518  0.2978 -0.0394  0.0168
  416MOL0     C57309   1.990   8.148   8.669 -0.4152  0.0901 -0.2432
  416MOL0     C57310   2.092   8.257   8.670 -0.1293 -0.4068 -0.6705
  416MOL0     C57311   2.100   8.316   8.806 -0.4828  0.6918  0.1313
  416MOL0     C57312   2.200   8.435   8.815  0.4341 -1.2237  0.5795
  416MOL0     C57313   2.217   8.496   8.958 -0.7599 -0.2055 -0.1986
  416MOL0     C57314   2.261   8.399   9.065 -0.0221  0.0685 -0.0290
  416MOL0    Cl57315   2.278   8.472   9.225  0.5276 -0.0333  0.2375
  416MOL0     C57316   1.530   8.000   8.357  0.5174 -0.7036  0.5588
  416MOL0     C57317   1.425   7.915   8.324 -0.2039  0.2430  0.0346
  416MOL0     O57318   1.412   7.579   8.127  0.3434 -0.0719  0.0815
  416MOL0     C57319   1.100   7.510   8.261  0.4972  0.5976  0.2434
  416MOL0     C57320   1.018   7.414   8.315  0.3803 -0.8555  0.0839
  416MOL0     N57321   0.537   6.905   8.158  0.1079  0.7565 -0.0108
  416MOL0     N57322   0.442   6.977   8.103  0.3363  0.5047  0.1108
  416MOL0     C57323  -0.024   6.896   9.169  0.0046  0.6479  0.6188
  416MOL0     C57324   0.023   6.857   9.292 -0.3462 -1.1706  0.9043
  416MOL0     C57325   0.239   6.567   9.561 -0.6893  0.5368 -0.6011
  416MOL0     C57326   0.319   6.665   9.615 -0.5942  0.2666 -0.8393
  416MOL0     C57327   0.394   6.637   9.736  0.5595 -0.2584  0.0420
  416MOL0     C57328   0.392   6.513   9.801 -0.1472  0.3177 -0.0086
  416MOL0     O57329   0.490   6.499   9.892  0.0092  0.0504 -0.5733
  416MOL0     C57330   0.469   6.393   9.982  0.3852  1.3496 -0.1628
  416MOL0     C57331   0.519   6.429  10.120  0.8944  0.0222 -0.0216
  416MOL0     C57332   0.527   6.305  10.203 -0.1853 -0.0593  0.0468
  416MOL0     C57333   0.586   6.331  10.345 -0.0376 -0.2492  1.1193
  416MOL0     C57334   0.478   6.398  10.421  0.6797 -0.9237  0.0157
  416MOL0     C57335   0.408   6.459  10.501 -0.8644  0.4098  0.5270
  416MOL0     C57336   0.310   6.416   9.746 -1.3847 -0.1963  0.1195
  416MOL0     C57337   0.244   6.439   9.620  0.1701  0.4137  0.3324
  416MOL0     C57338   0.172   6.318   9.558 -0.6873 -0.0882 -0.3201
  416MOL0     H57339  -0.056   6.534   9.275 -1.5915 -0.2098 -1.6862
  416MOL0     H57340  -0.158   6.613   9.055 -2.4289  2.4824 -1.0580
  416MOL0     H57341  -0.028   7.006   8.946  1.4836 -0.7527 -0.6643
  416MOL0     H57342  -0.177   7.016   8.859  0.3680  1.2447  2.2208
  416MOL0     H57343   0.040   6.801   8.784  0.9499  1.3846  0.1120
  416MOL0     H57344  -0.126   6.836   8.716 -1.5374 -1.7617  4.0089
  416MOL0     H57345  -0.044   7.060   8.659  1.6518  0.0812 -0.0739
  416MOL0     H57346   0.118   7.016   8.706  2.6861 -0.8219 -2.8614
  416MOL0     H57347   0.083   6.826   8.510 -1.7749 -1.5716 -1.9144
  416MOL0     H57348  -0.061   6.918   8.475  0.8794 -0.5455 -0.0240
  416MOL0     H57349   0.219   7.033   8.454  0.3364  0.3706 -1.6865
  416MOL0     H57350   0.060   7.120   8.430  2.5834  1.4503  0.6477
  416MOL0     H57351   0.173   6.878   8.269 -0.0317  0.3022 -3.7715
  416MOL0     H57352   0.004   6.934   8.256 -0.0633  0.8196 -1.1283
  416MOL0     H57353   0.070   7.149   8.191 -0.3065 -0.0528  3.4969
  416MOL0     H57354   0.130   7.036   8.066  0.6214  2.1477 -0.0583
  416MOL0     H57355   0.298   7.214   8.104  2.2544 -1.6538 -0.7555
  416MOL0     H57356   0.270   7.201   8.274 -2.5692  0.1940 -0.5377
  416MOL0     H57357   0.444   7.084   8.409 -1.7130  2.3353 -1.3035
  416MOL0     H57358   0.693   6.800   8.382 -0.0730 -0.5022  1.2188
  416MOL0     H57359   0.598   6.906   8.488  0.8792  3.0466  0.0523
  416MOL0     H57360   0.755   7.041   8.274 -0.9094 -2.3560 -1.6917
  416MOL0     H57361   0.746   7.083   8.448  4.1063  1.7505 -1.5350
  416MOL0     H57362   0.909   6.950   8.524  2.2851  1.5966 -0.3939
  416MOL0     H57363   0.901   6.854   8.369 -0.0872  0.7632 -1.1504
  416MOL0     H57364   1.091   7.031   8.437  2.1540  2.6516 -2.9119
  416MOL0     H57365   1.015   7.012   8.269 -2.6564  0.7068  0.1829
  416MOL0     H57366   1.215   7.155   8.342  0.8871 -0.0444 -1.9487
  416MOL0     H57367   1.497   7.390   8.302 -0.5233  0.1144  0.1932
  416MOL0     H57368   1.454   7.317   8.153 -0.9815  1.4167 -0.3961
  416MOL0     H57369   1.448   7.215   8.304 -0.9708 -1.4092 -0.5911
  416MOL0     H57370   1.564   7.610   8.391  1.5019  0.7518 -0.1855
  416MOL0     H57371   1.756   7.749   8.408 -0.0743  0.3670 -0.1405
  416MOL0     H57372   1.781   8.003   8.592 -0.7292 -4.2341 -0.9617
  416MOL0     H57373   1.896   7.904   8.492 -2.1014 -2.0674  3.3559
  416MOL0     H57374   2.050   8.062   8.460  1.3595  2.1242 -0.0386
  416MOL0     H57375   1.933   8.187   8.458 -1.7605 -0.6509  0.2011
  416MOL0     H57376   2.035   8.066   8.726  1.0807  1.3014  0.3968
  416MOL0     H57377   1.900   8.180   8.720  0.1608  0.7329  0.3801
  416MOL0     H57378   2.067   8.335   8.598 -0.0529 -0.5913 -0.8986
  416MOL0     H57379   2.191   8.220   8.639 -0.8582 -0.1049 -3.6734
  416MOL0     H57380   2.007   8.340   8.858  0.0234  0.8794  0.9784
  416MOL0     H57381   2.151   8.237   8.861  0.6713  1.2769 -0.0574
  416MOL0     H57382   2.165   8.516   8.751  1.2330  0.3443  2.0252
  416MOL0     H57383   2.292   8.397   8.770  1.3462  1.0457  0.3786
  416MOL0     H57384   2.117   8.534   8.982 -1.3612 -1.4600 -0.6055
  416MOL0     H57385   2.285   8.582   8.965  0.7202 -1.1202 -2.2242
  416MOL0     H57386   2.359   8.355   9.045  0.9587  1.8884  0.4511
  416MOL0     H57387   2.190   8.319   9.086 -0.3766 -0.0432 -1.5311
  416MOL0     H57388   1.530   8.108   8.362  2.5183 -0.7060  2.8344
  416MOL0     H57389   1.332   7.960   8.293 -0.4924  0.2367  0.8576
  416MOL0     H57390   1.063   7.604   8.221  0.4925  0.4333 -0.1442
  416MOL0     H57391   0.916   7.447   8.331  0.3704 -0.6306 -0.4239
  416MOL0     H57392  -0.014   7.002   9.150 -1.2762  0.3722 -2.0294
  416MOL0     H57393   0.090   6.920   9.350  1.2863  0.7122 -2.7199
  416MOL0     H57394   0.316   6.769   9.584  0.9819  0.4925 -0.3192
  416MOL0     H57395   0.439   6.725   9.782 -0.1933  0.7110 -1.0380
  416MOL0     H57396   0.363   6.369   9.992  0.0967  2.8294  0.7057
  416MOL0     H57397   0.528   6.304   9.958 -1.7121 -0.2081  0.1413
  416MOL0     H57398   0.443   6.503  10.145 -3.5831 -3.4694 -1.9108
  416MOL0     H57399   0.614   6.482  10.103  0.4186  0.9548  0.1365
  416MOL0     H57400   0.434   6.248  10.209  0.0315 -0.9518 -3.2010
  416MOL0     H57401   0.591   6.240  10.143  0.2075  0.2956  0.0777
  416MOL0     H57402   0.665   6.408  10.346 -2.1155  2.0145  1.8848
  416MOL0     H57403   0.623   6.249  10.406  0.9665  0.2294  1.1832
  416MOL0     H57404   0.337   6.507  10.565 -1.6345  0.3511 -0.2609
  416MOL0     H57405   0.307   6.316   9.788 -2.1394 -1.5940 -2.9690
  416MOL0     H57406   0.236   6.279   9.479 -1.2098 -2.1296  0.1975
  416MOL0     H57407   0.153   6.236   9.628 -2.9892  1.7585  1.3817
  416MOL0     H57408   0.069   6.340   9.529 -2.2116 -1.8110  3.1262
  417MOL0     O57409   6.263   4.597   0.599  0.1772  0.2241 -0.1612
  417MOL0     C57410   6.237   4.492   0.649  1.6142 -0.6306  0.7425
  417MOL0     O57411   6.322   4.412   0.710 -0.2717  0.1392  0.3723
  417MOL0     C57412   6.457   4.445   0.720 -0.9998 -0.2236 -0.0628
  417MOL0     C57413   6.507   4.574   0.750  0.3291  0.3635  0.5476
  417MOL0     C57414   6.640   4.606   0.757  0.5386  1.1095 -0.5314
  417MOL0     C57415   6.736   4.507   0.736  0.0218  1.0523 -0.1157
  417MOL0     O57416   6.871   4.536   0.731  0.7390  0.2228 -0.5594
  417MOL0     C57417   6.933   4.627   0.834 -0.4530  0.9302 -0.2785
  417MOL0     C57418   7.080   4.599   0.818 -0.1974 -0.4585 -0.4983
  417MOL0     C57419   7.142   4.663   0.689 -0.3315  0.1571 -0.2152
  417MOL0     C57420   7.277   4.596   0.656  1.0810  0.4060 -0.7328
  417MOL0     C57421   7.383   4.588   0.775 -0.0513  0.1235  0.6194
  417MOL0     C57422   7.533   4.554   0.734  0.1711 -0.3669 -0.0430
  417MOL0     C57423   7.625   4.564   0.858 -0.5774 -0.1702  0.1820
  417MOL0     C57424   7.608   4.436   0.948 -0.0172  0.4055 -1.1157
  417MOL0     N57425   7.680   4.442   1.078  0.3095  0.2187 -0.6805
  417MOL0     C57426   7.641   4.511   1.184 -0.1911 -0.3604  0.2386
  417MOL0     C57427   7.716   4.472   1.293  0.0413  0.2738  0.4702
  417MOL0     C57428   7.702   4.510   1.432 -0.4698  0.6914 -0.5833
  417MOL0     C57429   7.826   4.592   1.478  0.1358  0.2153 -1.0356
  417MOL0     C57430   7.790   4.732   1.546 -0.2396  0.4562  0.1885
  417MOL0     C57431   7.908   4.809   1.586 -0.0609  0.1476  0.8038
  417MOL0     O57432   7.976   4.847   1.464  0.5598 -0.3458 -0.0702
  417MOL0     C57433   8.106   4.864   1.455 -1.4639  0.1966 -0.4021
  417MOL0     C57434   8.164   4.909   1.337 -0.8812  0.2256  0.4160
  417MOL0     C57435   8.303   4.907   1.321 -0.8128 -0.0132  0.2693
  417MOL0     C57436   8.343   4.953   1.179  0.3662 -0.2227  0.6292
  417MOL0     C57437   8.387   4.863   1.431 -0.8356 -0.1498 -0.8936
  417MOL0     C57438   8.537   4.849   1.421 -0.9353 -1.0400  0.8664
  417MOL0     O57439   8.600   4.821   1.539  0.5183  0.3003  0.4777
  417MOL0     C57440   8.739   4.798   1.519  0.7521 -0.9446 -0.2172
  417MOL0     C57441   8.791   4.679   1.478 -0.2757  0.3225 -0.0784
  417MOL0     C57442   8.931   4.652   1.473 -0.6234 -0.3921 -0.5866
  417MOL0     C57443   9.019   4.763   1.506  0.7581 -0.6046  0.2208
  417MOL0     O57444   9.152   4.747   1.503  0.5349  0.3264 -0.0255
  417MOL0     C57445   9.211   4.716   1.372  0.2497  0.2538 -0.9870
  417MOL0     C57446   9.358   4.737   1.377  1.0394 -0.0365  1.4408
  417MOL0     C57447   9.426   4.645   1.481  0.3009 -0.4780  0.1740
  417MOL0     C57448   9.542   4.721   1.550  0.5857  0.0411 -0.0154
  417MOL0     C57449   9.600   4.651   1.660 -0.3058  0.3193  1.0562
  417MOL0     C57450   9.713   4.740   1.708  0.2233 -0.2397 -0.0327
  417MOL0     C57451   9.798   4.662   1.805 -0.4526  0.1575 -0.1145
  417MOL0     C57452   9.905   4.760   1.865  0.7687  0.4030  0.6023
  417MOL0    Cl57453   9.978   4.653   1.992 -0.0774 -0.2968 -0.3870
  417MOL0     C57454   8.963   4.884   1.547  0.4122  0.1165  1.1935
  417MOL0     C57455   8.825   4.901   1.563  0.0650  0.1524  0.6872
  417MOL0     O57456   8.585   4.844   1.307 -1.2409  0.3432  0.5474
  417MOL0     C57457   8.326   4.820   1.550  0.7696  0.4963  0.3196
  417MOL0     C57458   8.189   4.812   1.556 -0.1423 -0.1692  0.3630
  417MOL0     N57459   7.808   4.379   1.239 -0.3240  0.0881  0.1226
  417MOL0     N57460   7.770   4.352   1.111 -0.5401 -0.0616 -0.6765
  417MOL0     C57461   6.686   4.374   0.709  0.6253  0.7594  0.1485
  417MOL0     C57462   6.554   4.350   0.706 -0.0305  1.6282  0.6725
  417MOL0     C57463   6.098   4.454   0.647  0.1892 -0.7828 -0.4114
  417MOL0     C57464   6.056   4.321   0.657 -0.4786 -0.4979  0.6764
  417MOL0     C57465   5.924   4.274   0.639  0.4730 -0.7644 -0.3094
  417MOL0     C57466   5.829   4.368   0.604 -0.3929 -0.2473  0.1696
  417MOL0     O57467   5.703   4.341   0.560 -0.2085 -0.6446  0.3842
  417MOL0     C57468   5.658   4.205   0.556  0.6026 -0.7085 -0.1338
  417MOL0     C57469   5.510   4.191   0.535 -0.6306  0.0236 -0.2011
  417MOL0     C57470   5.460   4.207   0.388  0.5595  0.7329  0.2066
  417MOL0     C57471   5.511   4.335   0.307 -0.7652  0.7194  0.0513
  417MOL0     C57472   5.401   4.373   0.218 -0.5129  0.5407  0.1069
  417MOL0     C57473   5.309   4.381   0.143 -0.5510 -0.6802 -0.7172
  417MOL0     C57474   5.867   4.501   0.588  0.5484 -0.4878 -0.7956
  417MOL0     C57475   5.993   4.553   0.611  0.0965  0.7113  0.3272
  417MOL0     C57476   6.017   4.704   0.610 -0.5969 -0.4849 -0.0864
  417MOL0     H57477   6.434   4.650   0.775 -0.5804 -0.1545 -0.4766
  417MOL0     H57478   6.655   4.713   0.770 -2.8608  1.5964  0.2636
  417MOL0     H57479   6.922   4.592   0.937 -0.9482  1.2690 -0.2160
  417MOL0     H57480   6.903   4.731   0.822  0.8056  1.4219  0.6407
  417MOL0     H57481   7.130   4.636   0.908 -1.0345  0.2599 -0.3178
  417MOL0     H57482   7.086   4.490   0.811 -3.6341 -0.6491 -2.2450
  417MOL0     H57483   7.074   4.663   0.604  0.4788  0.5119 -0.8802
  417MOL0     H57484   7.161   4.770   0.698 -1.1573  0.6031 -2.9488
  417MOL0     H57485   7.260   4.496   0.616 -0.7652  0.0943  0.6586
  417MOL0     H57486   7.327   4.657   0.580 -0.1442  2.1946 -0.1765
  417MOL0     H57487   7.343   4.514   0.845 -1.5160 -0.5642 -0.8721
  417MOL0     H57488   7.399   4.682   0.830  1.4631 -0.8531  1.9195
  417MOL0     H57489   7.535   4.454   0.691 -0.7760 -0.1066 -0.7372
  417MOL0     H57490   7.572   4.628   0.663  1.2256 -0.3363  0.5409
  417MOL0     H57491   7.600   4.646   0.925  3.5419 -0.2893  2.2333
  417MOL0     H57492   7.728   4.578   0.824 -0.6212  1.4836  0.6527
  417MOL0     H57493   7.503   4.414   0.968  1.0688 -2.7388  2.3919
  417MOL0     H57494   7.641   4.346   0.895 -1.0609 -1.7721  1.6792
  417MOL0     H57495   7.547   4.565   1.186  0.3822  0.6550  2.1359
  417MOL0     H57496   7.693   4.428   1.505  0.1260  1.1360  0.0013
  417MOL0     H57497   7.613   4.572   1.440  0.1591  1.3279  2.7627
  417MOL0     H57498   7.868   4.524   1.553 -3.7105  1.2651  2.4313
  417MOL0     H57499   7.905   4.614   1.406  0.4647  0.5477 -0.5871
  417MOL0     H57500   7.732   4.795   1.478  0.6214 -1.9734 -3.0707
  417MOL0     H57501   7.728   4.711   1.633 -2.1845 -1.3234 -1.4906
  417MOL0     H57502   7.890   4.898   1.646 -3.2475  0.2736 -0.1581
  417MOL0     H57503   7.965   4.737   1.646 -2.5601 -2.8882 -0.1849
  417MOL0     H57504   8.095   4.933   1.256 -0.7875 -1.2109 -0.1166
  417MOL0     H57505   8.427   5.024   1.175 -0.7389  1.1124  0.4260
  417MOL0     H57506   8.262   5.012   1.136  0.6887  0.1783  0.5648
  417MOL0     H57507   8.357   4.867   1.113 -2.0313 -3.0173  3.4749
  417MOL0     H57508   8.712   4.607   1.461  0.2490  0.1076 -1.7750
  417MOL0     H57509   8.975   4.562   1.432  0.3084 -1.6802  2.8946
  417MOL0     H57510   9.203   4.610   1.345  2.2389  0.5895 -3.2911
  417MOL0     H57511   9.174   4.774   1.286 -0.2731 -2.3302 -2.6255
  417MOL0     H57512   9.393   4.704   1.278 -0.0693 -0.4006  1.1508
  417MOL0     H57513   9.381   4.844   1.385 -0.7591  0.6433 -0.9713
  417MOL0     H57514   9.468   4.559   1.428  2.8780 -0.0288  1.3562
  417MOL0     H57515   9.354   4.610   1.556 -1.5556  1.8362 -0.4050
  417MOL0     H57516   9.492   4.812   1.584 -0.4235 -0.0013 -1.3024
  417MOL0     H57517   9.614   4.738   1.470  0.6765  0.7123  0.2092
  417MOL0     H57518   9.526   4.646   1.740 -2.2454  1.2315 -0.5937
  417MOL0     H57519   9.627   4.545   1.651  0.2251  0.1152  3.9146
  417MOL0     H57520   9.662   4.819   1.763  2.5107  1.1280  0.2356
  417MOL0     H57521   9.772   4.790   1.632  1.2116 -1.8788 -0.3915
  417MOL0     H57522   9.854   4.591   1.745 -1.2631 -4.2869  3.8148
  417MOL0     H57523   9.735   4.609   1.877  0.0575 -0.4393 -0.0988
  417MOL0     H57524   9.861   4.849   1.911 -0.1280  0.8148 -0.9549
  417MOL0     H57525   9.972   4.794   1.785  0.1723 -0.0065 -0.0827
  417MOL0     H57526   9.024   4.971   1.569 -1.2510  2.5916 -2.7946
  417MOL0     H57527   8.781   4.992   1.604 -2.0855 -0.7714  0.5523
  417MOL0     H57528   8.390   4.778   1.627  0.9662  1.6606  0.8123
  417MOL0     H57529   8.155   4.750   1.639 -0.5838 -1.3436 -0.6694
  417MOL0     H57530   6.755   4.294   0.683 -0.4881 -0.6240  1.2704
  417MOL0     H57531   6.520   4.251   0.676 -0.8245  2.8943 -3.1764
  417MOL0     H57532   6.134   4.255   0.695 -2.6061 -2.4921  1.8967
  417MOL0     H57533   5.920   4.166   0.638  2.9612 -0.9737  1.5511
  417MOL0     H57534   5.716   4.153   0.479  0.6525 -0.0169 -0.5660
  417MOL0     H57535   5.678   4.152   0.650  0.1115 -1.1114 -0.2530
  417MOL0     H57536   5.461   4.257   0.607  1.0028 -0.3265  1.2880
  417MOL0     H57537   5.496   4.090   0.574 -0.6346 -0.7003 -1.9977
  417MOL0     H57538   5.488   4.111   0.343 -3.1091 -0.0694 -0.6547
  417MOL0     H57539   5.351   4.205   0.379  0.5614 -1.5807 -0.0133
  417MOL0     H57540   5.594   4.304   0.243  0.0605 -4.6087  3.0881
  417MOL0     H57541   5.543   4.414   0.375 -1.9095 -0.7161  2.3954
  417MOL0     H57542   5.217   4.382   0.088 -0.7471 -1.9460 -0.4537
  417MOL0     H57543   5.794   4.579   0.567  0.1532 -0.3972  0.7607
  417MOL0     H57544   6.078   4.721   0.521 -0.3062  0.3690  0.2678
  417MOL0     H57545   5.918   4.749   0.607 -1.5294 -2.4825 -1.3740
  417MOL0     H57546   6.077   4.740   0.694  0.8611 -0.5582 -1.0639
  418MOL0     O57547   2.190   1.484   6.441  0.6222  0.4765 -0.3261
  418MOL0     C57548   2.170   1.609   6.455  0.0560  0.7319  0.5027
  418MOL0     O57549   2.245   1.700   6.401 -0.0396 -0.6635 -0.1048
  418MOL0     C57550   2.362   1.667   6.353 -0.0192 -0.6199  0.1033
  418MOL0     C57551   2.400   1.718   6.227 -0.8156 -0.4887 -0.6634
  418MOL0     C57552   2.526   1.686   6.179 -0.1457 -0.0534 -0.6278
  418MOL0     C57553   2.615   1.600   6.252 -0.5071 -0.4060 -0.6511
  418MOL0     O57554   2.743   1.577   6.218 -0.2719 -0.0083 -0.2999
  418MOL0     C57555   2.793   1.634   6.089 -0.5667  0.0333 -0.3683
  418MOL0     C57556   2.843   1.772   6.091 -1.3086  0.1409  2.3429
  418MOL0     C57557   2.928   1.813   6.217 -0.3667  0.0637  0.9587
  418MOL0     C57558   2.968   1.960   6.214 -0.2922  0.1471  0.4696
  418MOL0     C57559   3.050   1.985   6.343 -0.3796  0.3614  0.0392
  418MOL0     C57560   3.192   1.925   6.345  0.0654  0.6457 -0.5449
  418MOL0     C57561   3.278   1.989   6.237 -1.2493  0.2559 -0.1868
  418MOL0     C57562   3.422   1.951   6.250 -0.7276  0.2460 -0.1727
  418MOL0     N57563   3.508   2.032   6.156 -0.0796 -0.0342 -0.4591
  418MOL0     C57564   3.498   2.041   6.018 -0.9592 -0.5553  1.0214
  418MOL0     C57565   3.578   2.137   5.981 -0.2468 -0.1302 -0.0229
  418MOL0     C57566   3.608   2.174   5.833 -0.4161 -0.4220  0.3102
  418MOL0     C57567   3.481   2.203   5.751 -0.3826 -0.4764  0.3297
  418MOL0     C57568   3.420   2.081   5.678  0.5379 -0.0793  0.5951
  418MOL0     C57569   3.297   2.116   5.585 -0.3036 -0.7512 -0.6577
  418MOL0     O57570   3.352   2.146   5.453  0.1632  0.5593 -0.0126
  418MOL0     C57571   3.270   2.241   5.390  0.6005  1.3426 -0.3634
  418MOL0     C57572   3.285   2.378   5.423  0.3295  0.7949 -0.5948
  418MOL0     C57573   3.192   2.470   5.374 -0.5419 -0.2437 -1.9760
  418MOL0     C57574   3.224   2.613   5.403 -0.5297 -0.5683 -0.1894
  418MOL0     C57575   3.086   2.430   5.285 -0.2159  0.4325  0.1736
  418MOL0     C57576   2.976   2.524   5.232 -0.9007 -0.3036  0.2265
  418MOL0     O57577   2.866   2.469   5.181  0.3894  0.9234 -0.3074
  418MOL0     C57578   2.749   2.545   5.146 -0.2897  0.2117  0.5110
  418MOL0     C57579   2.707   2.658   5.218  0.8003 -0.0723 -0.3944
  418MOL0     C57580   2.587   2.724   5.180  0.1918 -0.2531 -0.5216
  418MOL0     C57581   2.497   2.670   5.091 -1.3908 -1.1048  0.3536
  418MOL0     O57582   2.370   2.723   5.078 -0.1737  0.2095  0.6726
  418MOL0     C57583   2.287   2.735   5.193 -0.9313  0.1002 -0.0567
  418MOL0     C57584   2.139   2.712   5.149 -0.5047  0.0123  0.1661
  418MOL0     C57585   2.100   2.588   5.072 -0.1099 -0.7748 -0.9582
  418MOL0     C57586   2.158   2.453   5.125  0.0408 -0.2084 -0.2463
  418MOL0     C57587   2.098   2.330   5.065  0.0163 -0.1103 -0.3106
  418MOL0     C57588   2.092   2.336   4.915 -0.0080  0.3105  0.2366
  418MOL0     C57589   2.059   2.200   4.849 -0.6136 -0.3722 -0.4695
  418MOL0     C57590   2.185   2.168   4.758 -0.5810  0.1926  0.2946
  418MOL0    Cl57591   2.326   2.152   4.860 -0.3748 -0.1690  0.2106
  418MOL0     C57592   2.530   2.549   5.024  0.0693  0.2950  0.0336
  418MOL0     C57593   2.662   2.498   5.043  0.4390  0.1116 -0.4532
  418MOL0     O57594   3.002   2.648   5.230 -0.1799  0.0076 -0.1312
  418MOL0     C57595   3.082   2.294   5.256 -0.6620  0.3666  0.6748
  418MOL0     C57596   3.170   2.198   5.300 -0.9977 -0.5222 -0.5487
  418MOL0     N57597   3.640   2.189   6.093 -0.2288 -0.5892  0.1749
  418MOL0     N57598   3.604   2.120   6.203 -0.6044 -0.2680 -0.0372
  418MOL0     C57599   2.582   1.551   6.375 -0.7626 -0.6353 -0.3475
  418MOL0     C57600   2.463   1.594   6.425 -0.2830 -0.5418 -0.1322
  418MOL0     C57601   2.079   1.645   6.569 -1.0362  0.2014  0.6709
  418MOL0     C57602   2.134   1.646   6.701  0.2622  0.2141  0.5002
  418MOL0     C57603   2.058   1.684   6.814  0.4581 -0.3000  0.4652
  418MOL0     C57604   1.931   1.713   6.801 -0.4138  0.2624 -0.4140
  418MOL0     O57605   1.869   1.754   6.916 -0.7890 -0.0979 -0.3224
  418MOL0     C57606   1.732   1.771   6.923 -0.0003  0.5248  1.1784
  418MOL0     C57607   1.675   1.749   7.060 -0.3485 -0.3019  0.0017
  418MOL0     C57608   1.522   1.756   7.061 -0.7848  0.1847  0.1545
  418MOL0     C57609   1.476   1.719   7.205 -0.5890 -0.3552 -0.0342
  418MOL0     C57610   1.486   1.847   7.285  0.1440  0.2976  0.5373
  418MOL0     C57611   1.493   1.940   7.363 -0.5741 -0.3511  0.3590
  418MOL0     C57612   1.876   1.715   6.667 -0.6042  1.0924 -0.1872
  418MOL0     C57613   1.947   1.684   6.554  0.0339 -0.0842 -0.0538
  418MOL0     C57614   1.866   1.676   6.425  0.0988 -0.9187  0.3867
  418MOL0     H57615   2.347   1.777   6.153  0.4022 -0.4671 -1.5414
  418MOL0     H57616   2.551   1.722   6.080  1.4928 -1.9459 -0.9643
  418MOL0     H57617   2.716   1.616   6.013 -1.4614  1.5937  0.1203
  418MOL0     H57618   2.875   1.572   6.052 -0.8747 -1.7457  1.7181
  418MOL0     H57619   2.911   1.792   6.008  0.0089 -2.0133  2.8477
  418MOL0     H57620   2.764   1.848   6.077 -0.3458  1.0109  1.4550
  418MOL0     H57621   2.872   1.804   6.311  0.5837  2.4058  1.8316
  418MOL0     H57622   3.014   1.745   6.221  0.3468  0.7281 -1.5833
  418MOL0     H57623   3.024   1.990   6.124  1.2176 -1.6664  0.7344
  418MOL0     H57624   2.879   2.022   6.222 -1.8981 -1.3491 -3.4338
  418MOL0     H57625   2.996   1.928   6.419  0.3381 -1.6541 -0.8930
  418MOL0     H57626   3.054   2.092   6.363  0.6660  0.1482  1.0827
  418MOL0     H57627   3.232   1.952   6.443  0.4722 -0.5986 -0.3584
  418MOL0     H57628   3.181   1.817   6.337 -0.5956  0.7673 -1.5392
  418MOL0     H57629   3.280   2.098   6.249 -0.1718  0.1113  1.1219
  418MOL0     H57630   3.248   1.968   6.134  1.5375  0.4638 -1.1099
  418MOL0     H57631   3.460   1.963   6.352  0.7996 -0.8079 -0.5806
  418MOL0     H57632   3.428   1.843   6.237  0.1928 -0.4802  4.5049
  418MOL0     H57633   3.435   1.978   5.956  0.5269 -0.8267 -0.2678
  418MOL0     H57634   3.677   2.100   5.792 -0.4415  1.4035 -3.4011
  418MOL0     H57635   3.663   2.268   5.845 -0.1156 -0.5784  0.1594
  418MOL0     H57636   3.409   2.244   5.823  0.5166 -0.3117  1.1441
  418MOL0     H57637   3.515   2.274   5.674  4.1720 -2.4232  0.2474
  418MOL0     H57638   3.485   2.013   5.622 -1.9587 -2.8572  0.8372
  418MOL0     H57639   3.384   2.010   5.753  0.7557  0.2673  1.0335
  418MOL0     H57640   3.227   2.032   5.576 -0.2088 -0.8406 -0.5763
  418MOL0     H57641   3.243   2.203   5.622 -0.8982 -2.2530  2.3537
  418MOL0     H57642   3.356   2.409   5.499  1.1485  1.4737 -1.6046
  418MOL0     H57643   3.138   2.667   5.443  1.8618  0.4650  4.1987
  418MOL0     H57644   3.257   2.668   5.315  3.6700 -0.4494  1.2242
  418MOL0     H57645   3.307   2.618   5.474 -0.7744 -2.6709  0.3141
  418MOL0     H57646   2.771   2.702   5.294  0.4021 -0.7791  0.3675
  418MOL0     H57647   2.559   2.818   5.227 -1.5584 -1.8023  1.8401
  418MOL0     H57648   2.321   2.671   5.275 -0.5931  0.7056  0.2828
  418MOL0     H57649   2.298   2.839   5.225  2.5702 -0.3773  0.7200
  418MOL0     H57650   2.079   2.712   5.240 -1.0374 -1.3141 -0.1714
  418MOL0     H57651   2.115   2.798   5.085 -1.5193 -0.3240  0.0702
  418MOL0     H57652   2.139   2.596   4.970 -0.7533 -2.2866 -1.3475
  418MOL0     H57653   1.991   2.579   5.061 -0.7565  0.5169  2.9070
  418MOL0     H57654   2.138   2.451   5.232 -1.9362 -0.8558 -0.5766
  418MOL0     H57655   2.267   2.449   5.134  0.2005  3.9788  2.3669
  418MOL0     H57656   2.164   2.248   5.093  1.0222  0.9725  0.5914
  418MOL0     H57657   1.998   2.302   5.100  0.8888 -3.1764  0.0054
  418MOL0     H57658   2.179   2.383   4.869 -2.8304  2.9472 -2.9956
  418MOL0     H57659   2.011   2.404   4.884 -0.3694  0.7739  2.0423
  418MOL0     H57660   1.966   2.204   4.792 -0.9855  0.5595  0.1853
  418MOL0     H57661   2.055   2.115   4.918  1.0745 -0.2129 -0.1079
  418MOL0     H57662   2.193   2.248   4.683 -1.0428  1.3116  1.3922
  418MOL0     H57663   2.175   2.070   4.710 -1.9928  1.4048 -2.0825
  418MOL0     H57664   2.456   2.501   4.960  0.9758  0.9336 -1.5418
  418MOL0     H57665   2.688   2.407   4.990  2.3084 -2.1705  3.8760
  418MOL0     H57666   3.016   2.251   5.181  2.8401 -3.0724 -0.7683
  418MOL0     H57667   3.167   2.090   5.291  1.5888 -0.8302  1.2294
  418MOL0     H57668   2.647   1.486   6.433  0.3405  0.8731  0.1747
  418MOL0     H57669   2.444   1.547   6.521  0.3521  1.0380  0.7982
  418MOL0     H57670   2.239   1.627   6.722  0.5403  0.8417 -0.2503
  418MOL0     H57671   2.108   1.687   6.910  3.4375  0.0015 -0.9784
  418MOL0     H57672   1.710   1.872   6.889 -0.7074  0.4781  1.4865
  418MOL0     H57673   1.691   1.704   6.846  0.3981  0.3092  1.1462
  418MOL0     H57674   1.722   1.805   7.142 -2.1311  0.4542  0.5368
  418MOL0     H57675   1.699   1.644   7.081 -0.4486 -0.4280 -0.5123
  418MOL0     H57676   1.480   1.850   7.024 -1.9775 -0.5004 -0.3151
  418MOL0     H57677   1.488   1.681   6.988  1.7182 -0.7168 -0.1920
  418MOL0     H57678   1.547   1.653   7.255 -0.7933 -0.4917  0.0771
  418MOL0     H57679   1.374   1.677   7.204 -0.9895  0.5814 -1.0464
  418MOL0     H57680   1.481   2.024   7.428 -0.1096  1.2871 -1.5940
  418MOL0     H57681   1.773   1.748   6.659 -1.2503 -0.9083 -0.5543
  418MOL0     H57682   1.765   1.716   6.439 -0.9012 -2.6772 -1.2373
  418MOL0     H57683   1.912   1.727   6.339  2.0501 -2.9355  0.1369
  418MOL0     H57684   1.855   1.572   6.394 -0.4597 -0.4297 -1.1720
  419MOL0     O57685   1.661   9.766   7.112 -0.1622 -0.4290  0.1708
  419MOL0     C57686   1.595   9.861   7.079 -0.5863  0.1548  0.6636
  419MOL0     O57687   1.464   9.872   7.092  0.7778  0.0770 -0.2404
  419MOL0     C57688   1.397   9.760   7.110  0.2552 -0.6127  0.4643
  419MOL0     C57689   1.356   9.701   6.994  0.5340 -0.2895  0.5278
  419MOL0     C57690   1.278   9.591   7.003  0.2468 -0.0498 -0.5064
  419MOL0     C57691   1.254   9.519   7.122 -0.5150 -0.3256 -0.1293
  419MOL0     O57692   1.196   9.394   7.107  0.0380 -0.1115 -0.0732
  419MOL0     C57693   1.270   9.300   7.039 -1.0645  0.5145 -0.0473
  419MOL0     C57694   1.207   9.159   7.059  1.1804 -0.1882  0.5338
  419MOL0     C57695   1.054   9.162   7.050  0.1919 -0.0682 -0.1183
  419MOL0     C57696   0.997   9.131   7.188 -0.0498  0.8353 -0.2373
  419MOL0     C57697   0.847   9.120   7.164 -0.0091 -0.5692  0.3129
  419MOL0     C57698   0.770   9.108   7.293 -0.1056  0.2000 -0.0309
  419MOL0     C57699   0.617   9.120   7.270 -0.1973  0.3427  0.4952
  419MOL0     C57700   0.558   9.012   7.184 -0.4193  0.8465  0.1701
  419MOL0     N57701   0.413   9.036   7.181  0.5401 -0.1806  0.2841
  419MOL0     C57702   0.339   9.151   7.142  0.2337  0.5213  0.0668
  419MOL0     C57703   0.211   9.116   7.159  0.0809  0.2978  0.2061
  419MOL0     C57704   0.092   9.198   7.127 -0.3703 -0.3200  0.0551
  419MOL0     C57705  -0.009   9.118   7.048  0.0704  0.4027  0.0512
  419MOL0     C57706  -0.133   9.208   7.009 -0.3250 -0.4515  0.4235
  419MOL0     C57707  -0.265   9.138   6.981  0.1894  1.1274 -0.5162
  419MOL0     O57708  -0.247   9.040   6.876  0.5065 -0.2752 -0.1366
  419MOL0     C57709  -0.345   8.941   6.856  0.0895 -0.4809 -0.0273
  419MOL0     C57710  -0.350   8.878   6.731 -0.2246 -0.2761 -0.5579
  419MOL0     C57711  -0.440   8.775   6.703  0.4493  0.1509  0.3513
  419MOL0     C57712  -0.434   8.721   6.560 -0.2650 -0.3370 -0.8723
  419MOL0     C57713  -0.532   8.735   6.795  0.1747 -0.4137 -0.3187
  419MOL0     C57714  -0.622   8.629   6.766 -0.3881  0.5640 -0.1433
  419MOL0     O57715  -0.733   8.668   6.720 -0.3847  0.5428 -0.2592
  419MOL0     C57716  -0.810   8.572   6.659  0.0903 -0.5539  0.0622
  419MOL0     C57717  -0.908   8.503   6.734  0.4146  0.1507 -1.3877
  419MOL0     C57718  -0.992   8.410   6.681  0.1354  0.1792 -0.5784
  419MOL0     C57719  -0.971   8.378   6.545  0.5545  0.0300  0.2306
  419MOL0     O57720  -1.058   8.305   6.468  0.3858  0.3387 -0.3772
  419MOL0     C57721  -1.116   8.187   6.515  0.1859 -0.3495 -0.3922
  419MOL0     C57722  -1.214   8.124   6.424  0.6756  0.0931  0.2034
  419MOL0     C57723  -1.139   8.086   6.284 -0.5537 -0.2043  0.0082
  419MOL0     C57724  -1.248   8.022   6.182 -1.6550  0.5449 -0.5692
  419MOL0     C57725  -1.184   7.967   6.055 -0.0399 -0.2335  0.3498
  419MOL0     C57726  -1.091   7.849   6.079  0.4118 -1.4249 -0.0045
  419MOL0     C57727  -1.006   7.834   5.944 -0.0984  0.1890 -0.4095
  419MOL0     C57728  -0.916   7.711   5.940 -0.6468 -0.1461 -0.2029
  419MOL0    Cl57729  -0.783   7.741   6.045  0.3391 -0.1822  0.3960
  419MOL0     C57730  -0.873   8.444   6.466 -0.4327 -0.5222  0.6013
  419MOL0     C57731  -0.795   8.550   6.521  0.1620  0.0672  0.8356
  419MOL0     O57732  -0.584   8.518   6.794  0.1835 -0.6870 -0.0626
  419MOL0     C57733  -0.530   8.802   6.920  0.1821 -0.5758 -0.0114
  419MOL0     C57734  -0.438   8.902   6.951  0.1898  0.4606 -0.9650
  419MOL0     N57735   0.202   8.980   7.199  0.2850  0.8407  0.1229
  419MOL0     N57736   0.327   8.939   7.211  0.2662  0.0079  0.6116
  419MOL0     C57737   1.281   9.585   7.246  0.0765  0.5747  0.1335
  419MOL0     C57738   1.360   9.703   7.234  0.3761 -0.0701 -0.0872
  419MOL0     C57739   1.674   9.980   7.037  0.0358  0.5391  0.3697
  419MOL0     C57740   1.600  10.099   7.025 -0.1794  0.8272  0.0581
  419MOL0     C57741   1.656  10.219   6.986  0.2764 -1.1102 -0.4275
  419MOL0     C57742   1.791  10.227   6.945 -0.3268 -0.6688 -0.8189
  419MOL0     O57743   1.836  10.341   6.885  0.7910 -0.8218 -0.2838
  419MOL0     C57744   1.981  10.364   6.866  0.0477  0.8518 -0.6369
  419MOL0     C57745   2.004  10.473   6.765  0.7651 -0.1763  0.1132
  419MOL0     C57746   2.157  10.498   6.725  1.5393  0.3874 -0.7218
  419MOL0     C57747   2.231  10.371   6.660  0.3911 -0.3699  0.1945
  419MOL0     C57748   2.364  10.404   6.608 -0.2410  0.1377 -0.2447
  419MOL0     C57749   2.479  10.434   6.599  0.2058  0.4050 -0.3941
  419MOL0     C57750   1.871  10.111   6.974 -0.1085 -0.7632 -0.2063
  419MOL0     C57751   1.811   9.991   7.010  0.0851  0.0280 -0.6622
  419MOL0     C57752   1.895   9.867   7.012 -0.6487  0.5004  0.2829
  419MOL0     H57753   1.352   9.760   6.903  0.7925  0.9604  1.2909
  419MOL0     H57754   1.220   9.549   6.921 -1.1662  2.6546 -0.9920
  419MOL0     H57755   1.367   9.286   7.086 -2.6730 -2.2703  2.8674
  419MOL0     H57756   1.260   9.312   6.931 -2.4023  2.2237  0.2240
  419MOL0     H57757   1.231   9.107   6.966 -3.5541 -1.1240 -0.4182
  419MOL0     H57758   1.245   9.110   7.149  0.3145 -0.5789  0.6948
  419MOL0     H57759   1.019   9.255   7.004  0.9283  1.2924  1.9318
  419MOL0     H57760   1.020   9.086   6.980  0.9466 -0.1019 -0.4564
  419MOL0     H57761   1.036   9.039   7.232 -1.1911 -0.5671 -2.0444
  419MOL0     H57762   1.025   9.206   7.263 -1.0283 -0.0093  1.0111
  419MOL0     H57763   0.816   9.031   7.109 -6.3533  1.0571  0.4509
  419MOL0     H57764   0.812   9.203   7.103 -0.7027  0.9468  2.6136
  419MOL0     H57765   0.794   9.013   7.341  1.3050  0.5374 -0.0115
  419MOL0     H57766   0.790   9.194   7.358 -1.0218 -0.8024  1.6561
  419MOL0     H57767   0.601   9.222   7.233  3.2538  1.9469  2.8976
  419MOL0     H57768   0.565   9.106   7.365  0.2712  1.8376  0.9964
  419MOL0     H57769   0.589   9.015   7.079  0.2608  2.4067  0.3882
  419MOL0     H57770   0.592   8.915   7.222 -0.7607  0.9231  0.6843
  419MOL0     H57771   0.375   9.247   7.105 -1.9174  0.0503 -3.8486
  419MOL0     H57772   0.125   9.293   7.083  0.8662  1.8378  4.9205
  419MOL0     H57773   0.043   9.224   7.221 -1.8870  1.7022 -1.1978
  419MOL0     H57774   0.032   9.082   6.953  0.4802 -0.1533  0.4304
  419MOL0     H57775  -0.048   9.034   7.106  0.1657  0.3928  0.0991
  419MOL0     H57776  -0.149   9.269   7.099  0.4004 -3.2332  2.5811
  419MOL0     H57777  -0.100   9.279   6.933  2.2481  0.1887  2.0117
  419MOL0     H57778  -0.300   9.087   7.071 -2.9641  0.9489 -1.7238
  419MOL0     H57779  -0.338   9.213   6.949 -0.2925  0.4189 -1.1259
  419MOL0     H57780  -0.275   8.902   6.656  0.7829  0.3900  0.6215
  419MOL0     H57781  -0.509   8.773   6.498 -0.6839 -0.1198 -0.1959
  419MOL0     H57782  -0.456   8.614   6.553  0.9056 -0.6602  0.1133
  419MOL0     H57783  -0.343   8.739   6.503  0.1822  2.8066  0.6195
  419MOL0     H57784  -0.920   8.532   6.838 -0.0584 -0.6594 -1.2018
  419MOL0     H57785  -1.067   8.360   6.741  0.6674 -0.4753 -0.4488
  419MOL0     H57786  -1.029   8.121   6.525  1.0786  1.0036  1.4807
  419MOL0     H57787  -1.162   8.203   6.613  2.1341  0.4873  0.4532
  419MOL0     H57788  -1.256   8.028   6.455  0.9387  0.3612  1.4301
  419MOL0     H57789  -1.296   8.195   6.412 -0.3468 -0.4671  3.1205
  419MOL0     H57790  -1.063   8.010   6.303  1.6006  1.1327 -2.4675
  419MOL0     H57791  -1.095   8.167   6.225 -1.9937  1.2271  0.8083
  419MOL0     H57792  -1.326   8.096   6.163  0.3306  2.6522 -1.0248
  419MOL0     H57793  -1.295   7.945   6.244 -0.4916  2.0935  2.4857
  419MOL0     H57794  -1.258   7.938   5.979  2.8311  0.7640 -3.1328
  419MOL0     H57795  -1.131   8.052   6.011  0.2375  2.2017  4.8593
  419MOL0     H57796  -1.145   7.755   6.090  0.8267 -1.6260  0.3265
  419MOL0     H57797  -1.024   7.859   6.165 -0.2084 -3.0343  0.6982
  419MOL0     H57798  -0.944   7.923   5.929  1.5300 -0.6585  0.9075
  419MOL0     H57799  -1.081   7.807   5.869  1.3799  0.6819 -2.1229
  419MOL0     H57800  -0.881   7.689   5.839  4.3178 -2.2868  1.6859
  419MOL0     H57801  -0.967   7.618   5.967  1.3804 -1.4286 -0.5545
  419MOL0     H57802  -0.856   8.436   6.359  3.7133 -0.2336  1.0513
  419MOL0     H57803  -0.718   8.601   6.464 -0.5345 -2.7051 -3.0233
  419MOL0     H57804  -0.607   8.783   6.994 -0.6561 -3.3001 -1.4139
  419MOL0     H57805  -0.452   8.934   7.053 -4.3768 -2.2241 -0.4549
  419MOL0     H57806   1.252   9.560   7.347  1.2645  1.5113  0.7392
  419MOL0     H57807   1.397   9.752   7.323  1.3053  1.4937 -1.2993
  419MOL0     H57808   1.499  10.110   7.064 -0.2627  3.4013 -0.7016
  419MOL0     H57809   1.603  10.312   6.968  0.2306 -1.2416 -0.9714
  419MOL0     H57810   2.040  10.376   6.957 -1.2068 -0.3593  0.3647
  419MOL0     H57811   2.015  10.275   6.812  1.7878  0.5590  0.8646
  419MOL0     H57812   1.959  10.560   6.813 -3.1968 -2.5661  1.2421
  419MOL0     H57813   1.949  10.449   6.674  1.3271 -1.2905  0.0391
  419MOL0     H57814   2.159  10.588   6.663  0.3024  4.1290  4.0509
  419MOL0     H57815   2.221  10.529   6.808  2.3616  1.3261 -1.6764
  419MOL0     H57816   2.160  10.319   6.595  2.1022 -0.4952 -1.6524
  419MOL0     H57817   2.255  10.303   6.742  2.7824  1.2320  0.9341
  419MOL0     H57818   2.583  10.459   6.594 -0.2696  2.5719 -0.4708
  419MOL0     H57819   1.972  10.111   6.937  0.7283 -0.0276  1.8997
  419MOL0     H57820   1.909   9.836   7.116  0.5023 -0.5004 -0.1475
  419MOL0     H57821   1.849   9.780   6.964 -0.9138 -1.1927  3.3374
  419MOL0     H57822   2.000   9.874   6.981 -0.3505 -0.6940  0.9560
  420MOL0     O57823   7.718   2.173   1.405  0.3313 -0.4661  0.6924
  420MOL0     C57824   7.811   2.179   1.325 -0.0478  0.0731 -0.3421
  420MOL0     O57825   7.801   2.210   1.195  0.4695  0.0150  0.4371
  420MOL0     C57826   7.676   2.223   1.128 -0.3798  0.6891  1.1108
  420MOL0     C57827   7.663   2.165   0.999  0.0522 -0.1812 -0.1896
  420MOL0     C57828   7.533   2.171   0.932 -0.9694  0.3113  0.4214
  420MOL0     C57829   7.422   2.228   0.992  0.4803 -0.8410 -0.1932
  420MOL0     O57830   7.293   2.243   0.949  0.0608  0.4541 -0.2434
  420MOL0     C57831   7.250   2.158   0.843  0.3327  0.0318  0.0120
  420MOL0     C57832   7.212   2.011   0.891 -0.9051  0.6445  0.5119
  420MOL0     C57833   7.146   1.931   0.777  0.3503  0.1589  0.3078
  420MOL0     C57834   7.244   1.886   0.667 -0.8474  0.9531 -0.9476
  420MOL0     C57835   7.174   1.771   0.595  0.4949  0.0916  0.0888
  420MOL0     C57836   7.247   1.715   0.475  0.6017  0.5951 -0.1357
  420MOL0     C57837   7.299   1.825   0.379  0.0325 -0.8612 -0.1381
  420MOL0     C57838   7.394   1.770   0.270 -0.7236 -0.2605  0.0942
  420MOL0     N57839   7.505   1.691   0.318  0.3248 -0.0432 -0.9599
  420MOL0     C57840   7.610   1.744   0.398  0.2875  0.8718  0.4007
  420MOL0     C57841   7.713   1.651   0.393 -0.0553  0.2011  0.3232
  420MOL0     C57842   7.850   1.692   0.446  0.6739  0.1373 -0.1575
  420MOL0     C57843   7.846   1.663   0.593  0.1300 -0.5310  0.8292
  420MOL0     C57844   7.965   1.720   0.667 -0.1207  0.4650 -0.3519
  420MOL0     C57845   8.098   1.656   0.630  0.3086 -0.8607  0.0566
  420MOL0     O57846   8.095   1.508   0.644 -0.5480 -0.7612 -0.3475
  420MOL0     C57847   8.210   1.455   0.597  0.6092 -0.3318  0.2089
  420MOL0     C57848   8.227   1.467   0.457 -0.5251  1.0841  0.7372
  420MOL0     C57849   8.346   1.422   0.391 -0.0494 -1.2379 -1.0102
  420MOL0     C57850   8.354   1.438   0.241 -0.3286 -0.5175 -0.2227
  420MOL0     C57851   8.450   1.368   0.469  0.3173  0.4038 -0.4535
  420MOL0     C57852   8.590   1.349   0.422 -0.0925  0.3197 -0.7118
  420MOL0     O57853   8.673   1.281   0.505  0.3836 -0.0655  0.2836
  420MOL0     C57854   8.794   1.239   0.459  0.1191 -0.4748  0.1175
  420MOL0     C57855   8.913   1.279   0.524  0.6700 -0.4319 -0.7196
  420MOL0     C57856   9.030   1.211   0.493 -0.3791  0.4396  0.7483
  420MOL0     C57857   9.032   1.112   0.394 -0.4825  0.2387  0.1215
  420MOL0     O57858   9.159   1.061   0.361  0.5697  0.8044  0.6725
  420MOL0     C57859   9.168   0.971   0.253  0.3247  0.4343 -0.4510
  420MOL0     C57860   9.299   0.929   0.221  0.8103 -0.3700 -0.0591
  420MOL0     C57861   9.399   1.047   0.181  0.1020 -0.2316 -0.2113
  420MOL0     C57862   9.541   1.010   0.224  0.2191  0.4619  0.5668
  420MOL0     C57863   9.622   1.139   0.194 -0.6959  0.1585  0.4621
  420MOL0     C57864   9.774   1.107   0.214  0.0594 -0.0258 -0.1269
  420MOL0     C57865   9.860   1.235   0.216 -0.3921 -0.0217 -0.7666
  420MOL0     C57866  10.009   1.217   0.255 -0.3039 -0.2934  0.6886
  420MOL0    Cl57867  10.079   1.381   0.276  0.0922 -0.5395 -0.0176
  420MOL0     C57868   8.915   1.077   0.322  0.9033 -0.0105  0.7234
  420MOL0     C57869   8.791   1.142   0.355 -0.9105 -1.1733 -0.0077
  420MOL0     O57870   8.623   1.397   0.311 -0.3327 -0.2814 -1.0109
  420MOL0     C57871   8.418   1.336   0.602  0.6384 -0.1265  0.8606
  420MOL0     C57872   8.296   1.373   0.659  0.1218 -0.5780  0.0991
  420MOL0     N57873   7.673   1.538   0.324  1.0453  0.8552  0.0751
  420MOL0     N57874   7.553   1.567   0.281  0.4167  0.1407 -0.2010
  420MOL0     C57875   7.433   2.280   1.124 -0.2886 -0.0989  0.1588
  420MOL0     C57876   7.563   2.276   1.186 -0.2114 -0.2975 -1.1469
  420MOL0     C57877   7.939   2.163   1.375 -0.2680  0.3681  0.3320
  420MOL0     C57878   8.040   2.242   1.312 -0.3688  0.1906  0.2464
  420MOL0     C57879   8.174   2.214   1.337  0.1828 -0.2835 -0.2497
  420MOL0     C57880   8.209   2.126   1.438 -0.6950  0.7079  0.7146
  420MOL0     O57881   8.347   2.102   1.470  0.3429  0.1048 -0.2636
  420MOL0     C57882   8.447   2.183   1.402 -0.7527  0.4341 -0.1926
  420MOL0     C57883   8.584   2.174   1.477 -0.5832 -0.0816 -0.4589
  420MOL0     C57884   8.696   2.233   1.386 -0.1669 -1.1627  1.3044
  420MOL0     C57885   8.716   2.385   1.381 -0.2789 -0.2870 -1.2421
  420MOL0     C57886   8.613   2.465   1.305 -0.9097  0.5229 -1.0819
  420MOL0     C57887   8.531   2.534   1.253  1.4162  0.5492 -0.0518
  420MOL0     C57888   8.113   2.062   1.509  0.4485  0.3468 -0.5094
  420MOL0     C57889   7.973   2.078   1.475 -0.3274 -0.4757 -0.1745
  420MOL0     C57890   7.887   1.974   1.541 -0.1460  0.6866  0.2739
  420MOL0     H57891   7.749   2.126   0.945 -0.2138 -3.2627  1.3614
  420MOL0     H57892   7.515   2.142   0.829 -1.8278  3.5594 -0.4558
  420MOL0     H57893   7.318   2.152   0.758  0.1233  1.9026 -0.3344
  420MOL0     H57894   7.156   2.205   0.812 -1.4281 -3.5922 -0.6495
  420MOL0     H57895   7.300   1.957   0.928  0.6207  2.6959  0.0503
  420MOL0     H57896   7.140   2.014   0.973  0.5762 -2.1725  2.0830
  420MOL0     H57897   7.110   1.838   0.822  0.2335 -1.3339 -2.6283
  420MOL0     H57898   7.072   2.001   0.737  0.3043  0.3058  0.6474
  420MOL0     H57899   7.260   1.977   0.609  3.4591 -0.2815 -2.0600
  420MOL0     H57900   7.333   1.849   0.718 -1.1030 -0.7174 -1.6546
  420MOL0     H57901   7.091   1.835   0.562  1.5490  1.3111 -0.3120
  420MOL0     H57902   7.129   1.698   0.663  0.3823 -1.1673 -1.2762
  420MOL0     H57903   7.336   1.675   0.526  0.8613  2.0189  0.5983
  420MOL0     H57904   7.196   1.633   0.424  2.2865  0.9233 -2.4782
  420MOL0     H57905   7.347   1.908   0.431 -0.6785 -1.9819  2.4421
  420MOL0     H57906   7.213   1.879   0.339  1.1473  1.5820  0.5651
  420MOL0     H57907   7.326   1.717   0.203 -0.8521  1.5445 -1.2801
  420MOL0     H57908   7.436   1.858   0.222 -1.7480 -0.6323 -1.5617
  420MOL0     H57909   7.612   1.843   0.443 -1.1903  1.3421 -0.4942
  420MOL0     H57910   7.863   1.798   0.424 -0.5682  0.4123  0.3204
  420MOL0     H57911   7.933   1.637   0.402 -0.2434 -2.1435  0.8243
  420MOL0     H57912   7.756   1.702   0.643 -0.2044 -2.1627  1.5765
  420MOL0     H57913   7.835   1.555   0.605  0.4562 -0.4753  1.6835
  420MOL0     H57914   7.973   1.829   0.664 -2.1138  0.7830  2.0842
  420MOL0     H57915   7.945   1.694   0.772  1.0255 -0.1678 -0.2829
  420MOL0     H57916   8.123   1.681   0.526  1.5728 -0.8059  0.3613
  420MOL0     H57917   8.187   1.688   0.684  0.1270 -0.3262  0.0376
  420MOL0     H57918   8.146   1.514   0.402 -1.5170 -2.8024 -1.5658
  420MOL0     H57919   8.411   1.353   0.201 -0.3647 -0.5132 -0.2839
  420MOL0     H57920   8.399   1.536   0.226 -1.9159  0.4214  0.9164
  420MOL0     H57921   8.257   1.441   0.192 -0.3696 -1.0741 -0.1844
  420MOL0     H57922   8.899   1.359   0.596 -3.9248 -1.5709 -0.0422
  420MOL0     H57923   9.121   1.232   0.547 -0.8174 -3.2722  3.3658
  420MOL0     H57924   9.111   0.879   0.271  1.7735 -0.2208  0.9684
  420MOL0     H57925   9.131   1.018   0.161  0.8290  1.1185 -0.3144
  420MOL0     H57926   9.345   0.882   0.309  0.5325  1.9660  1.4238
  420MOL0     H57927   9.302   0.859   0.138  2.6338 -1.2137  0.6550
  420MOL0     H57928   9.360   1.136   0.230  0.0350 -1.1243  1.4368
  420MOL0     H57929   9.398   1.053   0.072  1.1728  1.3024 -0.1655
  420MOL0     H57930   9.573   0.926   0.162 -0.1953  1.7416 -1.5212
  420MOL0     H57931   9.536   0.984   0.330 -3.3499  1.6702  0.8260
  420MOL0     H57932   9.593   1.162   0.091  0.3092  2.5833  0.6516
  420MOL0     H57933   9.597   1.213   0.272 -1.3444 -0.2029  0.6098
  420MOL0     H57934   9.820   1.054   0.130  2.2663  1.9465 -0.2609
  420MOL0     H57935   9.786   1.057   0.311  1.3548  0.9899  0.2672
  420MOL0     H57936   9.811   1.309   0.281 -0.2022  0.7568 -1.4865
  420MOL0     H57937   9.840   1.282   0.119 -0.6279 -1.5030 -1.4559
  420MOL0     H57938  10.059   1.171   0.169  0.6721  1.5888  0.1885
  420MOL0     H57939  10.023   1.152   0.342 -1.3845  0.4713  1.4530
  420MOL0     H57940   8.906   0.997   0.248 -1.2820 -2.6078  3.5579
  420MOL0     H57941   8.698   1.111   0.309 -1.6428  1.4043 -0.4544
  420MOL0     H57942   8.484   1.283   0.669  0.0933  1.0687  2.3959
  420MOL0     H57943   8.259   1.351   0.758  0.0010 -0.3061  0.1153
  420MOL0     H57944   7.353   2.323   1.185 -0.4480  1.1175 -0.8559
  420MOL0     H57945   7.558   2.313   1.288 -0.7388 -1.5994 -0.6826
  420MOL0     H57946   8.019   2.319   1.238 -0.6429 -0.7307 -0.6571
  420MOL0     H57947   8.246   2.274   1.282 -0.8423  0.7771 -0.4770
  420MOL0     H57948   8.468   2.140   1.304  0.0406  1.5416 -0.5237
  420MOL0     H57949   8.424   2.289   1.392  1.3285  0.9827  0.3456
  420MOL0     H57950   8.594   2.067   1.494 -0.3869  0.1096  0.7024
  420MOL0     H57951   8.584   2.217   1.577  4.7760 -0.2862 -0.0696
  420MOL0     H57952   8.792   2.199   1.427 -0.3264 -3.1652  0.1208
  420MOL0     H57953   8.690   2.200   1.282 -0.1539  1.2228  0.4845
  420MOL0     H57954   8.815   2.406   1.338 -0.8448 -0.3661 -2.6606
  420MOL0     H57955   8.722   2.417   1.485 -0.7017 -0.1217 -1.2682
  420MOL0     H57956   8.455   2.596   1.211  0.4162 -0.6583 -0.0792
  420MOL0     H57957   8.136   2.000   1.595 -0.1808 -0.3165 -0.8024
  420MOL0     H57958   7.916   1.967   1.647  0.9676 -2.5390 -0.1203
  420MOL0     H57959   7.778   1.972   1.528 -0.0012 -1.6439 -1.1498
  420MOL0     H57960   7.922   1.879   1.500 -5.9413 -1.8849  0.2900
  421MOL0     O57961  10.228   2.846   8.776 -0.2238 -0.1752 -0.4847
  421MOL0     C57962  10.159   2.944   8.795 -0.0266 -1.2822 -0.8679
  421MOL0     O57963  10.176   3.028   8.907  0.0561  0.6148  0.2398
  421MOL0     C57964  10.276   2.991   8.995 -0.6417 -1.3289 -0.4889
  421MOL0     C57965  10.400   3.040   8.972 -0.0919  0.2011  0.4592
  421MOL0     C57966  10.506   3.017   9.061  0.5756  0.6743 -0.3506
  421MOL0     C57967  10.491   2.936   9.162  0.3928  0.6527 -0.6292
  421MOL0     O57968  10.597   2.906   9.243 -0.1633 -0.4144  0.6432
  421MOL0     C57969  10.576   2.861   9.376  0.2802  0.5500 -0.4976
  421MOL0     C57970  10.704   2.880   9.451 -0.3112 -1.0669  0.4454
  421MOL0     C57971  10.742   3.025   9.488 -0.6915  0.4697 -0.5631
  421MOL0     C57972  10.827   3.091   9.373  0.1752 -0.2450 -0.3561
  421MOL0     C57973  10.880   3.233   9.417  0.0598  0.1467 -0.1205
  421MOL0     C57974  11.004   3.288   9.335  1.0448  0.2520 -0.3322
  421MOL0     C57975  10.984   3.291   9.183 -0.6330  0.9970 -0.2789
  421MOL0     C57976  11.095   3.348   9.099 -0.6690 -0.0821 -0.1068
  421MOL0     N57977  11.123   3.489   9.132 -0.6651  1.0142  0.5589
  421MOL0     C57978  11.074   3.594   9.067 -0.1911 -0.1561 -0.0997
  421MOL0     C57979  11.127   3.702   9.123  0.4083 -0.1692  0.0358
  421MOL0     C57980  11.096   3.848   9.088  0.8524 -0.6194  0.3159
  421MOL0     C57981  11.026   3.914   9.214 -0.2632  0.2425  0.1762
  421MOL0     C57982  11.026   4.067   9.184 -0.4393 -0.6850 -1.0293
  421MOL0     C57983  10.985   4.166   9.298 -0.6777  0.2463  0.0267
  421MOL0     O57984  11.075   4.158   9.417  0.3037  0.6214 -0.6454
  421MOL0     C57985  11.200   4.207   9.397 -0.2708  0.6631  0.3626
  421MOL0     C57986  11.300   4.115   9.385 -0.5539 -1.0498 -0.4285
  421MOL0     C57987  11.430   4.162   9.356  0.4613  0.7264  0.0516
  421MOL0     C57988  11.530   4.049   9.337 -0.2239  0.3187 -0.5559
  421MOL0     C57989  11.458   4.295   9.340  0.1514 -0.0465  1.0693
  421MOL0     C57990  11.592   4.352   9.314 -0.6201  0.1741 -1.4663
  421MOL0     O57991  11.692   4.271   9.354 -0.2904 -0.4914 -0.1266
  421MOL0     C57992  11.810   4.309   9.408 -0.0629  0.1760 -0.2306
  421MOL0     C57993  11.862   4.444   9.398 -0.1063 -0.1574 -0.0704
  421MOL0     C57994  11.989   4.476   9.453 -0.6799 -0.1725 -0.8724
  421MOL0     C57995  12.058   4.385   9.533  0.3269 -0.7234 -0.0149
  421MOL0     O57996  12.183   4.415   9.589  0.1167  0.3871 -0.1290
  421MOL0     C57997  12.261   4.525   9.548 -0.1753  0.2051  0.2382
  421MOL0     C57998  12.382   4.543   9.641 -0.7514  0.0815  0.1324
  421MOL0     C57999  12.513   4.472   9.600 -1.2307  0.1253 -0.1929
  421MOL0     C58000  12.636   4.511   9.690  0.1794 -0.2901 -0.5217
  421MOL0     C58001  12.766   4.526   9.614 -0.3344  0.3800  0.3266
  421MOL0     C58002  12.904   4.511   9.685 -0.3557  0.5482 -0.3277
  421MOL0     C58003  13.014   4.495   9.581 -0.0129  0.6040  0.1016
  421MOL0     C58004  13.151   4.471   9.647  0.4693  0.0841 -0.6000
  421MOL0    Cl58005  13.188   4.575   9.788  0.0972 -0.4230 -0.4118
  421MOL0     C58006  12.006   4.261   9.551  0.2747  0.5022  0.0580
  421MOL0     C58007  11.888   4.220   9.494  0.0837  0.5098  0.2145
  421MOL0     O58008  11.607   4.460   9.250  0.4161  0.7751  0.5173
  421MOL0     C58009  11.358   4.379   9.368  1.3012  0.0746  0.3257
  421MOL0     C58010  11.226   4.344   9.386  0.1146 -0.8030  0.0894
  421MOL0     N58011  11.215   3.655   9.226 -0.8068  0.1436 -0.1902
  421MOL0     N58012  11.199   3.526   9.233  0.7722  0.1881 -0.1713
  421MOL0     C58013  10.357   2.890   9.191  0.2699 -0.1368 -0.3557
  421MOL0     C58014  10.250   2.922   9.110  0.0201 -1.2039 -0.3961
  421MOL0     C58015  10.061   2.977   8.692  0.2509 -1.1319  0.7474
  421MOL0     C58016   9.956   3.065   8.732 -0.3321 -0.3778  0.7235
  421MOL0     C58017   9.864   3.112   8.638 -0.2578 -0.3356 -0.2984
  421MOL0     C58018   9.853   3.061   8.503  0.0178  0.4886 -0.2223
  421MOL0     O58019   9.766   3.070   8.402  0.8501  0.7059  0.6250
  421MOL0     C58020   9.654   3.162   8.408  0.1328  0.0190  0.0866
  421MOL0     C58021   9.665   3.266   8.291 -0.3430  0.4585  0.6803
  421MOL0     C58022   9.570   3.385   8.303  0.7364  0.3909  0.8180
  421MOL0     C58023   9.565   3.467   8.169  1.1005  0.4466 -0.8989
  421MOL0     C58024   9.685   3.548   8.152 -1.0805  0.3603  0.2548
  421MOL0     C58025   9.800   3.593   8.151 -0.1139  0.3672  0.8255
  421MOL0     C58026   9.972   2.986   8.470 -0.0900  0.2024  0.3564
  421MOL0     C58027  10.073   2.954   8.552  0.4235  0.0192 -0.2317
  421MOL0     C58028  10.193   2.872   8.505  0.2585  0.6594  0.0339
  421MOL0     H58029  10.406   3.089   8.875  1.6440 -0.4351  0.2141
  421MOL0     H58030  10.603   3.065   9.050 -0.0232  2.2563  0.9469
  421MOL0     H58031  10.554   2.754   9.371  3.1606 -0.0927 -1.6594
  421MOL0     H58032  10.487   2.907   9.420  1.4675  2.8287 -0.3104
  421MOL0     H58033  10.694   2.823   9.544 -2.4333 -1.2316  0.1657
  421MOL0     H58034  10.793   2.836   9.404 -0.4763 -0.2669 -0.6758
  421MOL0     H58035  10.658   3.085   9.525  0.7020  2.4174 -0.4335
  421MOL0     H58036  10.807   3.014   9.575 -0.5061 -0.0631 -0.7674
  421MOL0     H58037  10.911   3.026   9.350 -2.2142 -3.2314 -1.2367
  421MOL0     H58038  10.762   3.103   9.286 -3.0267  1.0206  2.0036
  421MOL0     H58039  10.906   3.233   9.523  4.3128 -4.9715 -0.7468
  421MOL0     H58040  10.796   3.303   9.409  1.6611  2.2186  0.0911
  421MOL0     H58041  11.027   3.388   9.373  0.3263  0.0782  0.6045
  421MOL0     H58042  11.089   3.225   9.361 -0.7440 -2.1280  0.0872
  421MOL0     H58043  10.898   3.347   9.146 -0.2755  2.8471  1.5459
  421MOL0     H58044  10.974   3.184   9.160 -1.5081  0.4647  2.2468
  421MOL0     H58045  11.189   3.295   9.112  0.8951  2.7706  1.1350
  421MOL0     H58046  11.072   3.331   8.993  0.8705 -1.7241 -0.2123
  421MOL0     H58047  11.002   3.593   8.986  0.3902 -0.7547 -0.6240
  421MOL0     H58048  11.031   3.860   9.001  0.9321  3.0336  0.5916
  421MOL0     H58049  11.184   3.904   9.055  1.0138 -0.4390  1.0497
  421MOL0     H58050  10.928   3.866   9.214 -0.1712 -0.0376 -1.6987
  421MOL0     H58051  11.084   3.876   9.299  2.4265 -1.0842 -2.0549
  421MOL0     H58052  11.122   4.096   9.141 -1.2581 -1.6977 -3.8251
  421MOL0     H58053  10.954   4.086   9.103 -1.0812  2.4605  0.1500
  421MOL0     H58054  10.992   4.268   9.257 -0.3975 -0.4796 -1.8070
  421MOL0     H58055  10.893   4.138   9.349 -0.2021 -0.0809  0.7142
  421MOL0     H58056  11.276   4.009   9.374 -0.8634 -0.8329 -2.2396
  421MOL0     H58057  11.476   3.955   9.318  0.4369  0.1926 -1.9160
  421MOL0     H58058  11.593   4.032   9.425  0.5493  1.1179 -0.9529
  421MOL0     H58059  11.593   4.057   9.248 -1.0061 -0.3719 -1.1874
  421MOL0     H58060  11.825   4.521   9.331 -0.8578 -0.3822  0.0730
  421MOL0     H58061  12.009   4.582   9.441  1.5239 -0.2025  1.6503
  421MOL0     H58062  12.299   4.499   9.449  1.6591 -3.6207  1.7365
  421MOL0     H58063  12.203   4.616   9.535  1.2034  1.4212  1.9491
  421MOL0     H58064  12.390   4.652   9.651 -3.0332  0.4886 -1.5071
  421MOL0     H58065  12.350   4.510   9.740 -0.4679  2.7357  1.2080
  421MOL0     H58066  12.538   4.504   9.498  0.8095 -0.9832 -0.1022
  421MOL0     H58067  12.512   4.363   9.600  3.8906 -0.2217 -2.7905
  421MOL0     H58068  12.657   4.428   9.757  0.0567 -0.8653 -1.1758
  421MOL0     H58069  12.621   4.600   9.751  1.4397 -0.7331  0.4823
  421MOL0     H58070  12.766   4.446   9.540  1.6312 -0.3553  1.0524
  421MOL0     H58071  12.769   4.619   9.556  1.2622 -1.3307 -2.5451
  421MOL0     H58072  12.915   4.414   9.733  1.0298 -0.1495 -1.9526
  421MOL0     H58073  12.923   4.592   9.757 -0.7780 -0.6383  1.1500
  421MOL0     H58074  13.024   4.583   9.518 -1.3580  2.3556  2.1988
  421MOL0     H58075  12.987   4.417   9.509  0.5159 -0.0138  0.5621
  421MOL0     H58076  13.222   4.468   9.564  2.4713 -3.4995  1.0329
  421MOL0     H58077  13.129   4.371   9.685 -1.2701  0.4255 -0.6242
  421MOL0     H58078  12.064   4.198   9.618  1.7186  0.4418 -1.1956
  421MOL0     H58079  11.855   4.117   9.502 -0.5225  0.6804 -0.0473
  421MOL0     H58080  11.386   4.483   9.363 -3.0869  1.5115  1.2903
  421MOL0     H58081  11.145   4.408   9.417  2.1007  1.8229  0.1841
  421MOL0     H58082  10.336   2.831   9.280 -1.2144  1.5207  0.4408
  421MOL0     H58083  10.151   2.897   9.147  0.6099 -1.7633  0.8329
  421MOL0     H58084   9.962   3.106   8.832  0.3335  1.3455  0.0112
  421MOL0     H58085   9.792   3.184   8.675  0.7913  0.0819  1.0108
  421MOL0     H58086   9.553   3.122   8.396 -1.5277  3.6398  0.3744
  421MOL0     H58087   9.654   3.210   8.506 -0.1086  0.4480 -0.1188
  421MOL0     H58088   9.654   3.211   8.197  0.8979  0.0549  0.7488
  421MOL0     H58089   9.769   3.300   8.289 -0.1397 -0.1629  0.3535
  421MOL0     H58090   9.473   3.357   8.345  0.9867  2.8651  3.2891
  421MOL0     H58091   9.611   3.456   8.375 -0.3499  0.8511  0.9957
  421MOL0     H58092   9.478   3.532   8.177  0.0102 -1.1318  1.2767
  421MOL0     H58093   9.543   3.404   8.082  0.9678  1.1334 -1.3693
  421MOL0     H58094   9.899   3.632   8.141 -0.4151  1.0737  0.5670
  421MOL0     H58095   9.982   2.945   8.370 -0.2713 -2.8733  1.4902
  421MOL0     H58096  10.285   2.924   8.533  1.6675  0.3782 -3.4806
  421MOL0     H58097  10.194   2.770   8.544  4.8460  0.6116  0.2534
  421MOL0     H58098  10.199   2.874   8.395  1.0466 -0.5750  0.0440
  422MOL0     O58099   3.891   1.573   5.333 -0.1116  0.2143 -0.5773
  422MOL0     C58100   3.907   1.534   5.216  0.0761 -1.0056  0.5239
  422MOL0     O58101   4.027   1.500   5.150  0.6088 -0.5582 -0.6444
  422MOL0     C58102   4.141   1.524   5.219  1.1209 -0.1564 -0.6078
  422MOL0     C58103   4.236   1.422   5.238 -0.9388  0.1686 -0.6392
  422MOL0     C58104   4.362   1.452   5.295  0.5607 -0.5651 -0.2980
  422MOL0     C58105   4.401   1.578   5.327 -0.0970  0.0854 -0.8788
  422MOL0     O58106   4.522   1.585   5.396  0.1918 -0.3015 -0.5175
  422MOL0     C58107   4.575   1.713   5.433 -0.2213 -0.1357  0.0037
  422MOL0     C58108   4.705   1.694   5.511 -0.0608 -0.5346 -0.2520
  422MOL0     C58109   4.817   1.642   5.424 -0.5035 -0.0278  0.7711
  422MOL0     C58110   4.942   1.616   5.514 -0.1087  0.9758  1.4772
  422MOL0     C58111   5.045   1.542   5.429  0.8575 -0.3516 -0.1386
  422MOL0     C58112   5.183   1.537   5.484 -1.2784  0.1123 -0.4841
  422MOL0     C58113   5.286   1.511   5.371 -0.1119  0.1524  0.8903
  422MOL0     C58114   5.258   1.383   5.282  0.2838  0.1396 -1.5968
  422MOL0     N58115   5.374   1.332   5.209 -0.3647  0.2530  0.0470
  422MOL0     C58116   5.460   1.406   5.129  0.4555 -0.1983 -0.9370
  422MOL0     C58117   5.558   1.321   5.101 -0.3323  0.6897 -0.0576
  422MOL0     C58118   5.680   1.370   5.012  0.9973 -0.9319  0.1721
  422MOL0     C58119   5.781   1.450   5.097 -0.1967 -0.1760  0.1628
  422MOL0     C58120   5.745   1.601   5.111 -0.3573  0.3428  0.0559
  422MOL0     C58121   5.864   1.672   5.191  0.4718  0.6006  0.0792
  422MOL0     O58122   5.985   1.686   5.116 -0.0598  0.1056  0.1198
  422MOL0     C58123   6.037   1.812   5.131 -0.2286  0.1548 -0.4559
  422MOL0     C58124   5.963   1.921   5.086 -0.0459 -0.1260 -0.0307
  422MOL0     C58125   6.017   2.055   5.071 -0.0099  0.4620 -0.3875
  422MOL0     C58126   5.911   2.151   5.012 -0.0525 -0.1091  0.7216
  422MOL0     C58127   6.145   2.074   5.119 -0.5250  0.1086 -0.3193
  422MOL0     C58128   6.202   2.210   5.127 -0.1461 -1.0950 -0.3438
  422MOL0     O58129   6.335   2.208   5.146 -0.2118  0.3173  0.3208
  422MOL0     C58130   6.396   2.316   5.211 -0.1161  0.1526  0.2679
  422MOL0     C58131   6.341   2.369   5.326  0.5275  0.0195  0.6385
  422MOL0     C58132   6.413   2.461   5.395  0.4679 -0.1515  0.9251
  422MOL0     C58133   6.538   2.508   5.352 -1.0105 -0.8852 -0.4263
  422MOL0     O58134   6.631   2.597   5.421  0.1099 -0.2494  0.6519
  422MOL0     C58135   6.564   2.700   5.497 -0.1444 -0.0211  0.0311
  422MOL0     C58136   6.650   2.826   5.533 -0.2946 -0.7996  0.0255
  422MOL0     C58137   6.703   2.894   5.408 -0.5619  0.3774 -1.6792
  422MOL0     C58138   6.615   2.982   5.334 -0.0335 -0.2251 -0.0133
  422MOL0     C58139   6.685   3.045   5.210 -0.1275 -0.8198 -0.5935
  422MOL0     C58140   6.587   3.097   5.116 -0.5365 -0.0251  0.6548
  422MOL0     C58141   6.638   3.160   4.988 -0.4861 -0.2498  0.6488
  422MOL0     C58142   6.690   3.311   5.007  0.1279 -0.1943  0.1693
  422MOL0    Cl58143   6.834   3.334   5.110 -0.1266  0.0427  0.4869
  422MOL0     C58144   6.595   2.449   5.237 -1.0584  0.5672 -0.1818
  422MOL0     C58145   6.525   2.355   5.162  0.5820 -1.0947  0.5568
  422MOL0     O58146   6.130   2.308   5.150  0.2146 -0.0634  0.1920
  422MOL0     C58147   6.208   1.961   5.176  0.3193 -0.4643 -0.6220
  422MOL0     C58148   6.158   1.833   5.192 -0.2801  0.9132  0.4859
  422MOL0     N58149   5.544   1.199   5.176  0.5652 -0.6174  0.6480
  422MOL0     N58150   5.429   1.209   5.227  0.4324  0.2118 -0.0536
  422MOL0     C58151   4.313   1.682   5.301 -0.3549 -0.4353 -0.0057
  422MOL0     C58152   4.185   1.656   5.253  0.2739 -0.1865  0.2971
  422MOL0     C58153   3.789   1.519   5.125  1.4111 -1.3305 -0.1809
  422MOL0     C58154   3.801   1.460   5.000  0.4987 -0.2800 -0.3540
  422MOL0     C58155   3.690   1.439   4.914 -0.2247 -0.0047 -0.2472
  422MOL0     C58156   3.562   1.502   4.945 -1.9061 -0.5165 -0.0200
  422MOL0     O58157   3.458   1.509   4.854 -0.2493  0.3945 -0.0873
  422MOL0     C58158   3.482   1.464   4.720  0.1925 -0.2149  0.4438
  422MOL0     C58159   3.376   1.532   4.634  1.2240 -0.5113  0.0100
  422MOL0     C58160   3.350   1.464   4.495 -0.2017 -0.0951 -0.0608
  422MOL0     C58161   3.418   1.330   4.442  0.3742 -0.0984  0.3573
  422MOL0     C58162   3.564   1.330   4.427  0.3415  0.0839 -0.2054
  422MOL0     C58163   3.684   1.318   4.423 -0.3427 -0.1564 -0.4988
  422MOL0     C58164   3.552   1.569   5.069 -0.8543  0.7537  0.3900
  422MOL0     C58165   3.661   1.578   5.164  0.3353 -0.3252  0.2349
  422MOL0     C58166   3.624   1.658   5.289  0.1525  0.1316  0.0927
  422MOL0     H58167   4.199   1.327   5.202 -0.7307 -0.7764  1.4805
  422MOL0     H58168   4.421   1.364   5.315 -0.4268 -0.9670  0.9434
  422MOL0     H58169   4.499   1.773   5.485  1.6659  0.6899  1.9911
  422MOL0     H58170   4.609   1.765   5.344 -1.4550  1.3608  0.3503
  422MOL0     H58171   4.730   1.792   5.551 -2.2982  0.9868 -2.2955
  422MOL0     H58172   4.698   1.623   5.594  1.8922  0.7352  1.0890
  422MOL0     H58173   4.781   1.546   5.385  1.8355 -0.3902 -0.7060
  422MOL0     H58174   4.841   1.709   5.342 -0.2264 -1.7836 -0.6455
  422MOL0     H58175   4.978   1.712   5.553 -2.7114  1.4868  2.8468
  422MOL0     H58176   4.913   1.549   5.596  1.3300 -2.0111 -0.2667
  422MOL0     H58177   5.047   1.600   5.336  0.1606 -2.0442 -1.2682
  422MOL0     H58178   5.005   1.444   5.400 -0.6202  0.5076 -1.1194
  422MOL0     H58179   5.198   1.632   5.538  0.1964 -1.2755  1.6986
  422MOL0     H58180   5.177   1.453   5.554 -0.1824  1.1413  0.8913
  422MOL0     H58181   5.381   1.485   5.418  0.8323 -0.2069 -1.1392
  422MOL0     H58182   5.285   1.600   5.308 -0.7706  1.8436  3.1548
  422MOL0     H58183   5.244   1.298   5.349  0.7574  1.7201  0.6447
  422MOL0     H58184   5.169   1.381   5.219 -0.6839 -1.7755 -0.2559
  422MOL0     H58185   5.453   1.510   5.098 -2.5945  0.1578  0.5667
  422MOL0     H58186   5.646   1.449   4.946 -1.2411  1.0658  3.4114
  422MOL0     H58187   5.717   1.286   4.953  1.2559 -0.1872 -0.7539
  422MOL0     H58188   5.798   1.404   5.195 -2.6252 -2.1418 -0.2383
  422MOL0     H58189   5.872   1.460   5.037  0.2989  0.2745  0.9651
  422MOL0     H58190   5.722   1.642   5.013 -0.6494  1.7171  0.6758
  422MOL0     H58191   5.655   1.623   5.170 -0.5999 -0.8723  0.1801
  422MOL0     H58192   5.818   1.760   5.237 -2.2839 -0.4694 -0.4737
  422MOL0     H58193   5.883   1.596   5.267 -2.1274  0.4041  0.6056
  422MOL0     H58194   5.860   1.914   5.053  0.7850 -0.2358 -2.8837
  422MOL0     H58195   5.946   2.254   5.021 -0.8346  0.2385 -0.0678
  422MOL0     H58196   5.815   2.142   5.064  0.2926 -0.3294  1.3164
  422MOL0     H58197   5.887   2.130   4.907 -3.5093  1.5766  1.0352
  422MOL0     H58198   6.243   2.355   5.372  0.0581  2.7480  0.6227
  422MOL0     H58199   6.386   2.497   5.494 -0.6187  0.2520  0.4988
  422MOL0     H58200   6.470   2.727   5.448  0.1918 -0.7188 -1.0279
  422MOL0     H58201   6.525   2.655   5.589 -0.5810 -3.0055 -1.5030
  422MOL0     H58202   6.586   2.892   5.592  0.8210  0.8256 -0.5187
  422MOL0     H58203   6.734   2.789   5.593 -0.0402 -1.6620 -0.8393
  422MOL0     H58204   6.724   2.809   5.344 -1.8157  0.0066 -1.6177
  422MOL0     H58205   6.800   2.941   5.430 -0.1709 -1.1574  0.1427
  422MOL0     H58206   6.590   3.068   5.396  1.3600 -0.1573  0.4902
  422MOL0     H58207   6.526   2.925   5.306  0.7438 -0.8804 -1.2584
  422MOL0     H58208   6.770   3.108   5.241 -1.1924  0.2091  0.3335
  422MOL0     H58209   6.732   2.964   5.154 -1.2689 -1.7074 -0.3074
  422MOL0     H58210   6.512   3.162   5.161 -0.3338 -0.6000  1.8598
  422MOL0     H58211   6.525   3.010   5.092  1.1653 -0.8494 -1.0205
  422MOL0     H58212   6.555   3.178   4.919  0.0065  3.3767  0.8037
  422MOL0     H58213   6.708   3.095   4.936  1.1661  1.0263  1.1835
  422MOL0     H58214   6.603   3.363   5.049 -0.1219  0.6477 -1.3030
  422MOL0     H58215   6.722   3.354   4.911 -0.6921  2.2340  0.9052
  422MOL0     H58216   6.699   2.480   5.227 -1.4354  2.9910  2.1949
  422MOL0     H58217   6.560   2.297   5.077  0.4544  1.5809 -1.4362
  422MOL0     H58218   6.304   1.982   5.222  0.5233 -2.1322 -0.2168
  422MOL0     H58219   6.208   1.748   5.235  0.2762 -1.0397 -3.5661
  422MOL0     H58220   4.352   1.781   5.323  0.0530 -0.0798 -2.1276
  422MOL0     H58221   4.118   1.735   5.221  1.8560  0.9277 -0.4021
  422MOL0     H58222   3.899   1.441   4.957  1.2179  0.2036  1.0264
  422MOL0     H58223   3.714   1.389   4.821 -0.5188 -2.7133  1.0179
  422MOL0     H58224   3.579   1.494   4.680  0.1694  1.4979  1.5773
  422MOL0     H58225   3.472   1.355   4.715  0.1293 -0.2232  0.7623
  422MOL0     H58226   3.389   1.641   4.629 -4.1737  0.3679 -1.4820
  422MOL0     H58227   3.286   1.527   4.695  1.5359 -1.6619  0.3941
  422MOL0     H58228   3.245   1.437   4.488  0.1665 -2.5344  2.3763
  422MOL0     H58229   3.363   1.549   4.428 -1.5189  1.8698  1.9970
  422MOL0     H58230   3.380   1.314   4.340  1.1613 -0.9526  0.1914
  422MOL0     H58231   3.386   1.251   4.511  1.4321 -0.4539  0.4508
  422MOL0     H58232   3.790   1.309   4.410  0.0414  0.1352  1.9353
  422MOL0     H58233   3.453   1.608   5.088 -0.9783  1.1026 -0.8675
  422MOL0     H58234   3.520   1.692   5.296  0.4243  0.5780  3.0156
  422MOL0     H58235   3.654   1.600   5.377  0.1496  1.3385  0.9122
  422MOL0     H58236   3.683   1.750   5.287 -0.8845  0.8058 -1.9802
  423MOL0     O58237   6.443  11.272   7.499  0.7030 -0.3410 -0.5578
  423MOL0     C58238   6.462  11.373   7.428  0.2812 -0.1038  0.5592
  423MOL0     O58239   6.438  11.501   7.462  0.2578  0.3482 -0.3059
  423MOL0     C58240   6.397  11.548   7.583 -0.1364 -0.6041  0.1001
  423MOL0     C58241   6.415  11.684   7.605 -0.5825 -0.1500  0.5845
  423MOL0     C58242   6.369  11.751   7.719 -0.2667  0.0822  0.2824
  423MOL0     C58243   6.306  11.680   7.818  0.1400  0.3223  0.9734
  423MOL0     O58244   6.283  11.741   7.941  0.8675 -0.5965 -0.1891
  423MOL0     C58245   6.252  11.653   8.053  0.2100  0.0061  0.8447
  423MOL0     C58246   6.254  11.736   8.179 -0.6162  0.2901 -0.0132
  423MOL0     C58247   6.223  11.645   8.303  0.1554 -0.2397 -1.0127
  423MOL0     C58248   6.304  11.699   8.420 -0.6772  0.1543 -0.3687
  423MOL0     C58249   6.295  11.626   8.552 -0.4919 -0.2626 -0.1876
  423MOL0     C58250   6.361  11.485   8.548  0.1998  0.6170 -0.4914
  423MOL0     C58251   6.362  11.407   8.681 -0.6803  0.4807 -0.5484
  423MOL0     C58252   6.468  11.294   8.705 -0.4075 -0.4098 -0.0207
  423MOL0     N58253   6.439  11.176   8.626  0.4694  0.4645  0.3278
  423MOL0     C58254   6.397  11.061   8.681  1.2577  0.7477 -0.1208
  423MOL0     C58255   6.325  10.999   8.582  0.6290  0.1568  0.0147
  423MOL0     C58256   6.250  10.865   8.582 -0.2352 -0.6954  0.0817
  423MOL0     C58257   6.347  10.754   8.630 -0.1620 -0.2669 -0.8095
  423MOL0     C58258   6.431  10.703   8.511  1.7437 -0.3817  0.1259
  423MOL0     C58259   6.553  10.619   8.549  0.2272  0.3034 -0.0543
  423MOL0     O58260   6.518  10.500   8.631 -0.3403  0.4234  0.3476
  423MOL0     C58261   6.437  10.400   8.571  0.0792  0.6031 -0.3958
  423MOL0     C58262   6.435  10.366   8.434 -0.7265 -0.4580 -1.8081
  423MOL0     C58263   6.358  10.267   8.376  1.3113  0.0758  0.8360
  423MOL0     C58264   6.373  10.244   8.226 -0.7120  0.2111  0.7136
  423MOL0     C58265   6.270  10.191   8.453 -0.6444  0.7039 -0.0899
  423MOL0     C58266   6.176  10.079   8.418  0.3107  0.6048  0.2372
  423MOL0     O58267   6.112  10.018   8.529  0.7236 -0.3962 -0.1197
  423MOL0     C58268   6.031   9.908   8.507 -0.2136  0.5490 -0.0189
  423MOL0     C58269   5.905   9.917   8.458 -0.5024  0.6729  0.5617
  423MOL0     C58270   5.836   9.804   8.425  0.2400  0.2639  0.8019
  423MOL0     C58271   5.889   9.678   8.432 -0.4962 -0.0305  0.1901
  423MOL0     O58272   5.837   9.568   8.359  0.5093 -0.8224  1.3373
  423MOL0     C58273   5.732   9.592   8.261 -0.7253 -0.4703 -0.5088
  423MOL0     C58274   5.602   9.586   8.336 -0.1576 -0.3386  0.4063
  423MOL0     C58275   5.596   9.448   8.407  0.1321  0.0479  0.3038
  423MOL0     C58276   5.459   9.421   8.461  1.7003  0.3042  0.2079
  423MOL0     C58277   5.441   9.278   8.514  0.5748  0.5633  0.3142
  423MOL0     C58278   5.294   9.226   8.531 -0.9004 -0.1987  0.2271
  423MOL0     C58279   5.296   9.076   8.567  0.3256  0.1416  0.0231
  423MOL0     C58280   5.169   9.041   8.634 -0.2296  0.1629  0.4492
  423MOL0    Cl58281   5.161   8.852   8.626 -0.2953  0.1159  0.0509
  423MOL0     C58282   6.023   9.661   8.492 -0.0793  0.7205 -0.6066
  423MOL0     C58283   6.094   9.780   8.526  0.3686  0.1182  0.0702
  423MOL0     O58284   6.146  10.059   8.300 -0.3214  1.2274 -0.2050
  423MOL0     C58285   6.269  10.223   8.596 -0.2893  0.2807 -0.0589
  423MOL0     C58286   6.350  10.323   8.650  0.2477  0.2765  0.0460
  423MOL0     N58287   6.336  11.070   8.473 -0.3653 -0.0903 -0.8770
  423MOL0     N58288   6.412  11.175   8.492  1.1299 -0.2198 -0.7767
  423MOL0     C58289   6.275  11.545   7.789 -1.0681  0.2847 -0.6958
  423MOL0     C58290   6.321  11.481   7.674 -0.3053 -1.1535 -0.8853
  423MOL0     C58291   6.495  11.356   7.277 -0.0198 -1.1990  0.7470
  423MOL0     C58292   6.556  11.466   7.214 -0.8375 -0.5061 -0.1309
  423MOL0     C58293   6.609  11.445   7.082  0.0924 -0.1860 -0.1885
  423MOL0     C58294   6.595  11.329   7.007  0.3899  0.3311  0.2038
  423MOL0     O58295   6.651  11.317   6.879  0.7722 -0.5977 -0.3741
  423MOL0     C58296   6.642  11.201   6.791  0.8146 -0.3392 -0.8458
  423MOL0     C58297   6.521  11.221   6.707  0.9231  0.1314  0.3198
  423MOL0     C58298   6.503  11.126   6.586 -0.0031 -0.4793 -0.6632
  423MOL0     C58299   6.365  11.145   6.513 -0.0749  0.6128 -0.3659
  423MOL0     C58300   6.345  11.045   6.402 -0.8612  0.2411 -0.1571
  423MOL0     C58301   6.344  10.987   6.304  0.5405  0.2959  0.2279
  423MOL0     C58302   6.513  11.226   7.072  0.7251 -0.4862  0.5755
  423MOL0     C58303   6.462  11.242   7.200 -0.0447  0.0093 -0.0531
  423MOL0     C58304   6.361  11.142   7.244  0.0036  0.0512 -0.1988
  423MOL0     H58305   6.477  11.743   7.538 -2.0200  1.9664  0.9886
  423MOL0     H58306   6.403  11.852   7.743 -4.4962  1.1449  2.9377
  423MOL0     H58307   6.330  11.577   8.059 -0.7258 -1.0512  0.0511
  423MOL0     H58308   6.155  11.602   8.051 -0.0601  0.5078  1.0194
  423MOL0     H58309   6.350  11.788   8.185 -1.4974  2.5379 -2.9812
  423MOL0     H58310   6.175  11.812   8.177 -2.5217 -1.5379  1.1102
  423MOL0     H58311   6.119  11.658   8.335  0.4765  1.7231 -0.6294
  423MOL0     H58312   6.249  11.540   8.291 -1.1195 -0.8039  0.7229
  423MOL0     H58313   6.411  11.707   8.395 -0.2604  3.5873  1.9442
  423MOL0     H58314   6.288  11.806   8.437  0.8123  0.0154  2.5419
  423MOL0     H58315   6.192  11.605   8.581 -0.0227 -2.3830  0.1517
  423MOL0     H58316   6.337  11.688   8.632 -3.0221 -1.3903  2.2078
  423MOL0     H58317   6.309  11.418   8.479 -2.3483 -0.0798  1.8958
  423MOL0     H58318   6.465  11.493   8.514  0.2897  0.5607 -0.2332
  423MOL0     H58319   6.269  11.361   8.717 -0.6423  1.2119  0.5307
  423MOL0     H58320   6.380  11.488   8.753 -1.8661  1.3083 -1.1376
  423MOL0     H58321   6.565  11.338   8.677 -0.0716 -1.9134 -1.3713
  423MOL0     H58322   6.470  11.263   8.810  0.0878 -3.0952 -0.7524
  423MOL0     H58323   6.410  11.039   8.786 -0.0159  3.3576  0.6507
  423MOL0     H58324   6.229  10.852   8.475  4.3066  1.2671 -1.3234
  423MOL0     H58325   6.154  10.863   8.634  0.1297  0.0585  0.8089
  423MOL0     H58326   6.426  10.786   8.699  0.0460 -0.9224 -0.7328
  423MOL0     H58327   6.287  10.673   8.672 -1.5719  2.2251  2.4315
  423MOL0     H58328   6.359  10.649   8.450  1.3693 -0.9964  1.0890
  423MOL0     H58329   6.455  10.793   8.453  0.5837  0.8024  1.4072
  423MOL0     H58330   6.599  10.588   8.455 -1.3052 -2.4711  0.0291
  423MOL0     H58331   6.634  10.682   8.588 -0.9551  4.5490 -3.6453
  423MOL0     H58332   6.501  10.419   8.365  0.0197  0.8665 -0.1508
  423MOL0     H58333   6.377  10.141   8.191 -3.3580  1.0342 -2.4920
  423MOL0     H58334   6.471  10.285   8.201 -1.6911  1.9808 -0.3846
  423MOL0     H58335   6.295  10.294   8.168 -0.2743  1.6516  1.3110
  423MOL0     H58336   5.854  10.012   8.446  1.6032  1.6745 -0.9040
  423MOL0     H58337   5.741   9.813   8.375  1.9039 -0.8210 -2.8729
  423MOL0     H58338   5.753   9.688   8.213 -2.0063  1.6861  2.8947
  423MOL0     H58339   5.735   9.524   8.176 -1.1638 -0.7103 -0.3332
  423MOL0     H58340   5.591   9.667   8.409 -0.6668 -0.9048  0.9691
  423MOL0     H58341   5.525   9.591   8.259  1.8186  1.3579 -1.6120
  423MOL0     H58342   5.667   9.437   8.490  2.9759  0.8619 -1.8840
  423MOL0     H58343   5.619   9.369   8.335 -1.0391 -1.7081  1.7528
  423MOL0     H58344   5.384   9.435   8.382  1.0598 -1.5783  0.4356
  423MOL0     H58345   5.441   9.488   8.546  0.5271 -0.6015  0.6947
  423MOL0     H58346   5.492   9.212   8.443 -0.8486  0.5356 -0.7298
  423MOL0     H58347   5.483   9.264   8.614 -1.9133  0.8151  1.4701
  423MOL0     H58348   5.246   9.232   8.433 -0.5682 -1.2491 -0.0197
  423MOL0     H58349   5.242   9.289   8.603 -0.3768 -1.4791  1.8035
  423MOL0     H58350   5.379   9.056   8.635  0.3808 -0.4227 -0.2063
  423MOL0     H58351   5.301   9.018   8.474 -1.3703  1.2033 -0.7954
  423MOL0     H58352   5.081   9.085   8.586 -0.1409  0.6516  0.7243
  423MOL0     H58353   5.167   9.082   8.736  0.9069  1.7704 -0.1264
  423MOL0     H58354   6.064   9.561   8.490  0.3587  0.8769 -3.3388
  423MOL0     H58355   6.188   9.781   8.579  0.1032 -2.4079  0.7358
  423MOL0     H58356   6.208  10.172   8.670 -1.1404  0.8679 -0.3323
  423MOL0     H58357   6.330  10.350   8.753  0.0031  0.2585  0.0051
  423MOL0     H58358   6.235  11.476   7.864 -0.0766  0.4216 -0.0168
  423MOL0     H58359   6.283  11.380   7.661 -0.6666 -1.0811 -0.4176
  423MOL0     H58360   6.579  11.548   7.281  4.2071 -1.5587 -0.2139
  423MOL0     H58361   6.666  11.526   7.038  0.3463  0.8967  1.9956
  423MOL0     H58362   6.735  11.195   6.734  2.5930 -0.3214  1.8682
  423MOL0     H58363   6.626  11.101   6.833  0.4476  0.4575  1.0052
  423MOL0     H58364   6.524  11.322   6.663 -2.2514 -0.7238 -2.2737
  423MOL0     H58365   6.433  11.206   6.770  0.5953 -2.0237 -0.5597
  423MOL0     H58366   6.574  11.154   6.507  0.2661  1.8010  0.3140
  423MOL0     H58367   6.529  11.025   6.620 -2.9103 -0.9515  0.4241
  423MOL0     H58368   6.365  11.245   6.468  0.3674  0.0526 -1.6479
  423MOL0     H58369   6.287  11.129   6.588  0.8945 -2.7244  0.0864
  423MOL0     H58370   6.323  10.924   6.220 -1.6589 -0.4764  1.2664
  423MOL0     H58371   6.490  11.136   7.016  1.0099  0.2656 -0.8064
  423MOL0     H58372   6.275  11.192   7.289 -0.2576 -1.6230  1.2749
  423MOL0     H58373   6.331  11.074   7.163 -1.1821 -1.0509  1.0978
  423MOL0     H58374   6.406  11.092   7.329 -3.0741  1.1993  2.3060
  424MOL0     O58375   7.209   7.572   2.413  0.7822  0.1300 -0.1842
  424MOL0     C58376   7.104   7.627   2.459 -0.3401  0.6372 -0.2501
  424MOL0     O58377   7.094   7.695   2.578 -0.2269  0.1383 -0.0087
  424MOL0     C58378   7.208   7.717   2.651  0.4113  0.3692 -0.9700
  424MOL0     C58379   7.266   7.617   2.731 -0.9183  0.3075 -0.2013
  424MOL0     C58380   7.372   7.637   2.820  0.4931 -0.1245  0.2371
  424MOL0     C58381   7.448   7.761   2.812 -0.3852  0.6450 -0.2340
  424MOL0     O58382   7.543   7.788   2.906 -1.0223 -0.2617  0.3484
  424MOL0     C58383   7.644   7.886   2.857 -0.3463 -0.5528  0.2825
  424MOL0     C58384   7.773   7.833   2.906  0.8977  0.4703 -0.4078
  424MOL0     C58385   7.796   7.678   2.882 -0.3814  0.0825 -0.2132
  424MOL0     C58386   7.806   7.636   2.737 -0.0450  0.6196  0.2171
  424MOL0     C58387   7.944   7.688   2.684 -0.2996  0.1900 -0.8120
  424MOL0     C58388   7.993   7.617   2.564  0.7002  0.3952  0.4998
  424MOL0     C58389   8.005   7.709   2.446 -0.4650 -0.0116  0.5849
  424MOL0     C58390   8.035   7.640   2.311  0.3853 -0.0756 -0.2419
  424MOL0     N58391   7.929   7.541   2.281 -0.3084  0.2200  0.3671
  424MOL0     C58392   7.790   7.546   2.292 -0.7508 -0.0270 -0.7577
  424MOL0     C58393   7.752   7.435   2.235 -0.5038 -0.1024 -0.7950
  424MOL0     C58394   7.614   7.401   2.209 -0.0393  1.0430 -0.4115
  424MOL0     C58395   7.499   7.431   2.319 -0.8073  0.1267  0.2917
  424MOL0     C58396   7.511   7.330   2.441 -0.0562  0.0035 -1.2555
  424MOL0     C58397   7.445   7.384   2.562 -0.3742  0.3464  0.1077
  424MOL0     O58398   7.513   7.332   2.675  0.2622  0.1558 -1.0219
  424MOL0     C58399   7.514   7.200   2.693 -0.8177  0.1287 -0.2881
  424MOL0     C58400   7.405   7.115   2.657 -1.1370 -0.6529 -0.9716
  424MOL0     C58401   7.425   6.977   2.656 -0.2913  0.4200 -1.1202
  424MOL0     C58402   7.307   6.905   2.599 -0.6848  0.0046  0.1454
  424MOL0     C58403   7.546   6.911   2.687  0.1884  0.5928  0.7643
  424MOL0     C58404   7.561   6.763   2.683  0.2348  0.4788 -0.0954
  424MOL0     O58405   7.665   6.720   2.752 -0.5086  0.0035  0.4711
  424MOL0     C58406   7.742   6.616   2.711 -0.5047  0.0224  0.1798
  424MOL0     C58407   7.832   6.559   2.809 -0.2981  0.5739  0.8778
  424MOL0     C58408   7.924   6.458   2.774 -0.6482  0.1373 -0.6730
  424MOL0     C58409   7.922   6.411   2.641  1.0226  1.5975  0.5388
  424MOL0     O58410   8.003   6.303   2.616  0.6948 -0.7203 -0.6685
  424MOL0     C58411   7.967   6.216   2.515  0.4715 -0.1525 -0.5729
  424MOL0     C58412   8.052   6.091   2.527 -0.2528  0.2102 -0.3526
  424MOL0     C58413   8.043   6.012   2.651  1.3843 -0.7223 -0.0284
  424MOL0     C58414   8.065   5.860   2.628  0.8192 -1.5998 -0.2471
  424MOL0     C58415   8.069   5.785   2.763 -1.0467  0.6228  0.2914
  424MOL0     C58416   8.063   5.625   2.750 -0.0020  0.7808  0.2757
  424MOL0     C58417   8.054   5.562   2.892 -0.5593  0.2645 -0.2541
  424MOL0     C58418   7.945   5.464   2.913 -0.2123  0.6100 -0.4955
  424MOL0    Cl58419   7.982   5.378   3.078 -0.0533 -0.2569 -0.1175
  424MOL0     C58420   7.843   6.472   2.540 -0.2333 -0.4158  0.1243
  424MOL0     C58421   7.760   6.576   2.583  0.4385  0.0605 -0.0262
  424MOL0     O58422   7.485   6.682   2.622 -0.0237  0.0544  0.0651
  424MOL0     C58423   7.643   6.992   2.726 -0.0200 -0.2547 -0.1076
  424MOL0     C58424   7.626   7.130   2.737 -0.2073  0.1965 -1.3831
  424MOL0     N58425   7.862   7.354   2.201 -0.8262  0.4644 -0.0165
  424MOL0     N58426   7.965   7.413   2.251 -0.2903 -0.7060 -0.6570
  424MOL0     C58427   7.392   7.859   2.726  0.4869 -0.5294  0.6720
  424MOL0     C58428   7.272   7.850   2.651 -0.2672 -0.2583  0.1281
  424MOL0     C58429   6.974   7.597   2.393 -0.2317  0.3778 -0.3804
  424MOL0     C58430   6.914   7.709   2.332 -0.7586 -0.2633 -0.1877
  424MOL0     C58431   6.799   7.691   2.257 -0.5008  0.4247  1.6321
  424MOL0     C58432   6.757   7.558   2.226  0.0469  0.3556  0.2229
  424MOL0     O58433   6.646   7.518   2.168 -0.1533 -0.8419  0.6529
  424MOL0     C58434   6.539   7.606   2.120 -0.8493  0.2902 -0.4522
  424MOL0     C58435   6.427   7.618   2.220  0.6094 -0.1086  0.2495
  424MOL0     C58436   6.285   7.650   2.163  0.5703  0.1251  0.4160
  424MOL0     C58437   6.225   7.512   2.105 -0.0560 -0.3290  0.7025
  424MOL0     C58438   6.083   7.519   2.119  0.5258 -0.0658 -0.3273
  424MOL0     C58439   5.970   7.550   2.153 -0.2940 -0.6759  0.6954
  424MOL0     C58440   6.821   7.451   2.279 -0.6178  0.5101 -0.7201
  424MOL0     C58441   6.928   7.459   2.368 -0.6050 -0.1115 -0.9066
  424MOL0     C58442   6.997   7.334   2.420  0.7195 -0.9746  0.2365
  424MOL0     H58443   7.221   7.518   2.734 -4.0440  1.5302  4.1664
  424MOL0     H58444   7.411   7.554   2.878  1.2702  0.2053  0.2042
  424MOL0     H58445   7.634   7.978   2.915  0.1382 -1.4262  1.8447
  424MOL0     H58446   7.648   7.899   2.749 -3.1931  2.9195  0.4439
  424MOL0     H58447   7.852   7.901   2.873  1.8882  0.7292  2.2375
  424MOL0     H58448   7.774   7.841   3.015 -0.3179  0.8009 -0.4148
  424MOL0     H58449   7.890   7.647   2.928 -0.3319 -0.0597 -0.4085
  424MOL0     H58450   7.715   7.620   2.926 -0.4848 -2.1436 -3.0490
  424MOL0     H58451   7.787   7.529   2.725 -2.5839  1.0827 -0.5639
  424MOL0     H58452   7.725   7.678   2.676 -0.4306 -0.9681 -0.4388
  424MOL0     H58453   8.012   7.669   2.768 -2.3840  0.2918  1.0166
  424MOL0     H58454   7.948   7.796   2.674  1.5117  0.3062  0.5980
  424MOL0     H58455   8.087   7.563   2.581 -1.3445 -4.6861 -2.3246
  424MOL0     H58456   7.937   7.526   2.544  2.3466 -0.7984  1.1469
  424MOL0     H58457   8.092   7.775   2.457 -2.2977  2.8181 -0.7317
  424MOL0     H58458   7.923   7.779   2.430  0.4276  0.9220 -0.0387
  424MOL0     H58459   8.046   7.715   2.232  0.0161 -0.2665 -0.4769
  424MOL0     H58460   8.136   7.600   2.320  1.9722  3.4973 -0.3590
  424MOL0     H58461   7.728   7.634   2.302  2.4082  2.3344 -0.6924
  424MOL0     H58462   7.620   7.297   2.173  0.9023  1.5743 -1.8788
  424MOL0     H58463   7.589   7.460   2.120 -0.4553  1.9520  0.3017
  424MOL0     H58464   7.509   7.531   2.361 -0.0226  0.1773 -0.0006
  424MOL0     H58465   7.402   7.429   2.268  0.0114 -2.5672 -1.3711
  424MOL0     H58466   7.470   7.233   2.415  1.4103 -0.6506 -1.2187
  424MOL0     H58467   7.611   7.294   2.467  0.2603  1.4344 -0.3497
  424MOL0     H58468   7.454   7.493   2.565 -0.7565  0.4079 -0.8576
  424MOL0     H58469   7.339   7.365   2.578 -0.4348  0.3323 -0.3046
  424MOL0     H58470   7.320   7.169   2.618 -0.0429  1.5967 -0.4446
  424MOL0     H58471   7.327   6.866   2.499  0.2375 -0.5859  0.5435
  424MOL0     H58472   7.215   6.963   2.597 -0.1740  0.8021 -0.7168
  424MOL0     H58473   7.288   6.816   2.660  4.0393 -1.9490 -0.7839
  424MOL0     H58474   7.838   6.589   2.913  2.6850  0.2111  0.8767
  424MOL0     H58475   7.978   6.412   2.856 -1.1167 -0.0196 -0.4459
  424MOL0     H58476   7.865   6.178   2.523 -0.4561  2.5989  1.9579
  424MOL0     H58477   7.974   6.271   2.421  0.9790  0.8459  0.0364
  424MOL0     H58478   8.047   6.033   2.435  2.1986 -1.1093  0.2820
  424MOL0     H58479   8.153   6.126   2.504  0.2087 -2.1420 -2.2871
  424MOL0     H58480   7.949   6.030   2.704  0.2869  0.9749 -2.3411
  424MOL0     H58481   8.130   6.051   2.704  1.2981  2.7847 -2.1453
  424MOL0     H58482   8.151   5.824   2.569  0.9220 -2.1419  0.2253
  424MOL0     H58483   7.972   5.831   2.579 -1.8441  1.5006  2.5345
  424MOL0     H58484   8.163   5.811   2.812 -1.3841 -1.7189  2.3857
  424MOL0     H58485   7.984   5.820   2.823 -0.3328  0.5173  1.3863
  424MOL0     H58486   8.155   5.583   2.707 -1.6249 -3.7486  0.6245
  424MOL0     H58487   7.983   5.586   2.685  1.9644 -1.2557 -1.1016
  424MOL0     H58488   8.032   5.640   2.966 -1.4953 -0.9114  0.7611
  424MOL0     H58489   8.148   5.522   2.931 -1.9741 -0.8033  2.3687
  424MOL0     H58490   7.936   5.382   2.841  1.1878  0.5678 -0.6442
  424MOL0     H58491   7.852   5.521   2.904 -1.0610 -0.5494  0.3842
  424MOL0     H58492   7.853   6.453   2.434  2.2271 -1.0899  0.4006
  424MOL0     H58493   7.703   6.621   2.502  2.3372 -0.5470 -1.7957
  424MOL0     H58494   7.734   6.960   2.776  0.5747  3.0437  1.2044
  424MOL0     H58495   7.711   7.189   2.766 -0.2048 -0.3943 -0.1176
  424MOL0     H58496   7.433   7.960   2.724 -1.0540  0.1846 -3.1846
  424MOL0     H58497   7.232   7.929   2.588  2.3729 -0.0877 -1.4443
  424MOL0     H58498   6.959   7.807   2.343 -2.9428  0.8128 -0.3075
  424MOL0     H58499   6.753   7.780   2.214  0.4899 -0.1688 -0.7962
  424MOL0     H58500   6.570   7.708   2.096 -3.2123  1.0225 -0.6562
  424MOL0     H58501   6.509   7.579   2.018 -0.6214  0.7507 -0.6414
  424MOL0     H58502   6.453   7.706   2.281 -0.7685  1.8125 -1.7539
  424MOL0     H58503   6.421   7.525   2.278 -1.1566  0.2068  0.6144
  424MOL0     H58504   6.209   7.682   2.236 -0.6665  1.3080 -1.3173
  424MOL0     H58505   6.293   7.721   2.080 -2.6188  1.3891  1.0280
  424MOL0     H58506   6.256   7.427   2.167 -1.4842 -2.1016 -0.8655
  424MOL0     H58507   6.257   7.489   2.003  0.0496 -2.5589  1.1870
  424MOL0     H58508   5.873   7.585   2.182  0.1976  1.9307 -0.4705
  424MOL0     H58509   6.785   7.351   2.255  0.9483 -0.3376  0.2492
  424MOL0     H58510   6.933   7.246   2.409 -1.1445  0.3200  0.3170
  424MOL0     H58511   7.090   7.325   2.362 -0.2499 -0.4060 -1.4761
  424MOL0     H58512   7.027   7.337   2.525  2.8121 -1.9525 -0.2739
  425MOL0     O58513   2.300  10.910   1.914  0.4690  0.3740  0.1468
  425MOL0     C58514   2.415  10.946   1.923 -0.6152  0.0241  0.6506
  425MOL0     O58515   2.531  10.863   1.934  0.2838  0.1873  0.5242
  425MOL0     C58516   2.526  10.726   1.899 -0.3479 -0.0949  0.2001
  425MOL0     C58517   2.655  10.669   1.891 -0.0070 -0.2185 -1.1418
  425MOL0     C58518   2.678  10.532   1.884  0.4834  0.0902  0.0678
  425MOL0     C58519   2.574  10.441   1.885  0.8332  0.0969  0.0122
  425MOL0     O58520   2.578  10.304   1.873  0.4590  0.9398 -0.3193
  425MOL0     C58521   2.698  10.232   1.902  0.1653 -0.7706 -0.4956
  425MOL0     C58522   2.681  10.081   1.920 -0.3237 -0.2142  0.3190
  425MOL0     C58523   2.636  10.013   1.794 -0.0996 -0.1902  0.1699
  425MOL0     C58524   2.671   9.861   1.797  0.1763 -0.0979 -0.4166
  425MOL0     C58525   2.637   9.791   1.666 -0.2477 -0.2984 -0.8937
  425MOL0     C58526   2.731   9.833   1.546  0.7785  0.0775 -0.3594
  425MOL0     C58527   2.694   9.762   1.416  0.6689  0.2856  1.4255
  425MOL0     C58528   2.650   9.611   1.422  0.1612 -0.1341  0.1346
  425MOL0     N58529   2.605   9.543   1.300  0.7383  0.0525 -0.7328
  425MOL0     C58530   2.478   9.540   1.242  0.1514 -0.4432 -0.2169
  425MOL0     C58531   2.483   9.444   1.143 -0.6298  0.3429 -0.1803
  425MOL0     C58532   2.368   9.407   1.056 -1.0749  0.1165 -0.2174
  425MOL0     C58533   2.355   9.247   1.027  0.8024  0.0109  0.1263
  425MOL0     C58534   2.261   9.173   1.130  0.2478 -0.4376  0.5350
  425MOL0     C58535   2.118   9.197   1.086 -0.4788 -0.3090 -0.6381
  425MOL0     O58536   2.023   9.144   1.182  0.1189 -0.2839  0.0469
  425MOL0     C58537   1.897   9.135   1.132 -0.6544 -0.7452  0.0878
  425MOL0     C58538   1.847   9.209   1.027  0.4229 -0.4436  0.5900
  425MOL0     C58539   1.723   9.179   0.973  1.2563  0.4332 -0.2278
  425MOL0     C58540   1.677   9.254   0.848 -0.8291  0.6602 -0.0650
  425MOL0     C58541   1.638   9.095   1.043 -0.7295  0.1854  0.1736
  425MOL0     C58542   1.498   9.069   1.009 -0.2214 -0.1294 -0.5018
  425MOL0     O58543   1.473   9.039   0.876  0.1838 -0.6314  0.4579
  425MOL0     C58544   1.339   9.022   0.848  0.5096  0.8653 -0.2298
  425MOL0     C58545   1.301   8.888   0.836 -0.6171 -0.2786  0.0873
  425MOL0     C58546   1.184   8.849   0.784  0.4923 -0.2263  0.0383
  425MOL0     C58547   1.086   8.938   0.757 -0.3526 -0.2402  0.2085
  425MOL0     O58548   0.966   8.882   0.711 -0.0807 -0.0131 -0.2188
  425MOL0     C58549   0.904   8.940   0.591 -0.5185  0.2109 -0.4504
  425MOL0     C58550   0.973   8.900   0.461  0.5948 -0.5810  0.0573
  425MOL0     C58551   0.979   8.753   0.441  0.4745  0.4492  0.1168
  425MOL0     C58552   0.854   8.670   0.469 -0.4471 -0.5519 -0.0779
  425MOL0     C58553   0.840   8.535   0.404  0.2947  0.1063  0.4525
  425MOL0     C58554   0.958   8.431   0.437  0.3627 -0.0738  0.0058
  425MOL0     C58555   0.936   8.291   0.378  0.2268 -0.5368 -0.3918
  425MOL0     C58556   1.032   8.192   0.429  0.2933  0.2916  0.4325
  425MOL0    Cl58557   1.013   8.162   0.600 -0.1883 -0.3411  0.1703
  425MOL0     C58558   1.121   9.075   0.773  0.6830  0.2152 -0.2358
  425MOL0     C58559   1.244   9.116   0.823  0.5000 -0.6862  0.1046
  425MOL0     O58560   1.423   9.058   1.100  0.3069 -0.4816 -0.1162
  425MOL0     C58561   1.689   9.030   1.158 -0.1604  0.3865  0.5564
  425MOL0     C58562   1.819   9.049   1.206  0.0570  0.0420  0.0475
  425MOL0     N58563   2.611   9.394   1.140 -0.7206 -0.4741 -0.3146
  425MOL0     N58564   2.683   9.461   1.226 -0.1376  0.0708 -0.8493
  425MOL0     C58565   2.447  10.499   1.889 -0.1537  0.2881  0.6084
  425MOL0     C58566   2.419  10.636   1.889 -0.3541 -0.2679  0.5258
  425MOL0     C58567   2.439  11.093   1.918 -0.9151  0.9962 -1.0618
  425MOL0     C58568   2.395  11.144   1.798  0.5963  0.5814 -0.0114
  425MOL0     C58569   2.415  11.276   1.781 -0.7399  0.1022  0.4437
  425MOL0     C58570   2.490  11.354   1.866 -0.3999  1.1159  0.2242
  425MOL0     O58571   2.512  11.483   1.829 -0.0083 -1.3767 -0.8011
  425MOL0     C58572   2.603  11.569   1.900  0.3772  1.4572 -0.3231
  425MOL0     C58573   2.609  11.700   1.831 -0.1815 -0.8302  0.3645
  425MOL0     C58574   2.470  11.750   1.787 -0.3588 -0.4359  0.3757
  425MOL0     C58575   2.462  11.902   1.765  0.3539  0.0608  0.5275
  425MOL0     C58576   2.544  11.940   1.652  0.4625  0.2131  0.8607
  425MOL0     C58577   2.596  11.948   1.544  0.3580  0.9710 -0.3507
  425MOL0     C58578   2.539  11.295   1.990  1.1393 -0.8188  0.1297
  425MOL0     C58579   2.517  11.162   2.012 -0.8241 -0.4596  0.6427
  425MOL0     C58580   2.552  11.095   2.139  0.0076 -0.2761 -0.1639
  425MOL0     H58581   2.744  10.730   1.905  0.3002 -0.1249 -3.1988
  425MOL0     H58582   2.784  10.505   1.882  0.2688 -1.2017  2.5570
  425MOL0     H58583   2.744  10.267   1.995  1.4468 -1.4992 -0.8317
  425MOL0     H58584   2.765  10.251   1.818  0.7996 -0.5644  0.0564
  425MOL0     H58585   2.773  10.032   1.954  0.1407  1.3865  1.4546
  425MOL0     H58586   2.608  10.059   1.998 -0.2112  1.8197  1.0537
  425MOL0     H58587   2.530  10.029   1.772  0.2568  1.7975 -0.2736
  425MOL0     H58588   2.687  10.048   1.703 -0.7929 -0.0655 -0.1742
  425MOL0     H58589   2.775   9.841   1.824 -1.0245 -4.5630  1.7857
  425MOL0     H58590   2.622   9.809   1.881  1.0207  2.3967  1.7830
  425MOL0     H58591   2.531   9.806   1.646 -0.3994 -0.7902 -0.4719
  425MOL0     H58592   2.649   9.683   1.677 -0.1959 -0.1198  1.0289
  425MOL0     H58593   2.716   9.942   1.541 -1.5737 -0.0037  2.5219
  425MOL0     H58594   2.834   9.813   1.576  1.6489  1.6929 -2.0135
  425MOL0     H58595   2.777   9.775   1.346  0.9784 -0.0464  1.7280
  425MOL0     H58596   2.601   9.814   1.391  0.4807  0.1787  1.8938
  425MOL0     H58597   2.724   9.550   1.475 -1.0996 -1.2909  0.6080
  425MOL0     H58598   2.563   9.604   1.488  0.4768  2.2412  0.8726
  425MOL0     H58599   2.389   9.597   1.267 -0.1269 -0.9723  0.0364
  425MOL0     H58600   2.366   9.482   0.976 -0.6723  0.2077 -0.1440
  425MOL0     H58601   2.285   9.435   1.121  1.1015  2.2483  1.8448
  425MOL0     H58602   2.327   9.213   0.927  0.2393  0.3425  0.1705
  425MOL0     H58603   2.455   9.203   1.035  0.7066 -0.5277 -1.3349
  425MOL0     H58604   2.283   9.067   1.116 -0.4236 -0.3383 -1.6201
  425MOL0     H58605   2.278   9.196   1.235 -3.6854 -3.4237  2.0940
  425MOL0     H58606   2.097   9.304   1.084 -1.4707 -0.4903 -0.4112
  425MOL0     H58607   2.111   9.133   0.998 -0.0162 -0.8869 -0.2670
  425MOL0     H58608   1.915   9.272   0.971  0.5935  0.8734  2.2050
  425MOL0     H58609   1.683   9.190   0.759 -0.6427 -1.8847  1.6805
  425MOL0     H58610   1.741   9.339   0.822 -1.7328  1.7829  1.2633
  425MOL0     H58611   1.571   9.282   0.849 -1.2735 -0.7147 -2.1449
  425MOL0     H58612   1.373   8.817   0.875  0.8929  1.0540 -0.1857
  425MOL0     H58613   1.160   8.744   0.769  0.2074 -0.6862  3.1689
  425MOL0     H58614   0.797   8.921   0.579 -0.0346 -1.9430 -1.8811
  425MOL0     H58615   0.913   9.045   0.620  1.3447 -0.5688  2.1662
  425MOL0     H58616   0.927   8.951   0.376 -0.8480 -0.5983  0.8043
  425MOL0     H58617   1.078   8.933   0.460  1.3510 -2.7199 -1.8715
  425MOL0     H58618   1.039   8.712   0.524 -2.7887 -0.1802  2.3725
  425MOL0     H58619   1.021   8.727   0.344  0.1009 -3.1136  0.7723
  425MOL0     H58620   0.762   8.725   0.447 -0.2585 -0.3482 -0.3674
  425MOL0     H58621   0.842   8.661   0.578 -1.3333  0.6342 -0.0515
  425MOL0     H58622   0.742   8.490   0.426  0.4263 -1.0454 -1.1352
  425MOL0     H58623   0.840   8.564   0.298  0.6367 -2.3534 -0.2956
  425MOL0     H58624   0.961   8.412   0.545  0.4048 -2.2367 -0.3185
  425MOL0     H58625   1.048   8.486   0.409 -0.7908  1.1010 -1.5269
  425MOL0     H58626   0.929   8.299   0.269 -2.1259  1.2150 -0.2043
  425MOL0     H58627   0.832   8.260   0.395 -0.2770  1.1332 -0.2583
  425MOL0     H58628   1.129   8.234   0.402  0.1247  2.4797  2.8366
  425MOL0     H58629   1.028   8.096   0.376  0.0273 -0.0289  1.0206
  425MOL0     H58630   1.049   9.153   0.747  1.1361  0.5674 -0.4451
  425MOL0     H58631   1.260   9.223   0.827 -1.9008 -0.2137 -1.0392
  425MOL0     H58632   1.633   8.952   1.207 -0.8965  1.2383  1.1127
  425MOL0     H58633   1.856   9.002   1.296  2.3350  0.0841 -0.7981
  425MOL0     H58634   2.366  10.428   1.879  1.0386 -0.9909 -0.4269
  425MOL0     H58635   2.316  10.662   1.870 -1.0321 -1.6728  2.0825
  425MOL0     H58636   2.336  11.083   1.731 -0.3161 -1.6974  2.6792
  425MOL0     H58637   2.382  11.324   1.689  2.5748  3.7098  0.8613
  425MOL0     H58638   2.590  11.579   2.009  1.7539 -0.9251  0.1530
  425MOL0     H58639   2.695  11.512   1.887 -1.6516 -2.0008 -0.8171
  425MOL0     H58640   2.671  11.687   1.742 -0.2880 -1.6592  0.4023
  425MOL0     H58641   2.662  11.772   1.895 -0.9415 -0.4255  0.5438
  425MOL0     H58642   2.426  11.694   1.703  0.7239  0.5100 -0.8682
  425MOL0     H58643   2.412  11.716   1.873 -0.4935 -0.3963  0.3015
  425MOL0     H58644   2.492  11.949   1.859  3.6474  0.9356 -0.8182
  425MOL0     H58645   2.357  11.925   1.743  0.1844 -1.1446  0.0151
  425MOL0     H58646   2.641  11.940   1.448 -1.4473 -2.2507 -1.0781
  425MOL0     H58647   2.588  11.351   2.069  0.9741 -0.0542 -0.3008
  425MOL0     H58648   2.479  11.016   2.155  0.7744 -0.9799 -0.0936
  425MOL0     H58649   2.651  11.049   2.127 -0.0692  0.0066 -2.1867
  425MOL0     H58650   2.541  11.158   2.229 -1.8674 -1.6166  0.6030
  426MOL0     O58651   2.511   6.364   3.097  0.0486  0.1936  0.1705
  426MOL0     C58652   2.598   6.422   3.030  0.2575 -0.5247  0.0527
  426MOL0     O58653   2.706   6.486   3.089  0.8177 -0.5926  0.8095
  426MOL0     C58654   2.707   6.490   3.219  0.7372  0.0852  0.0192
  426MOL0     C58655   2.656   6.608   3.270 -0.2785  0.0798 -0.0602
  426MOL0     C58656   2.628   6.622   3.413  0.2505 -0.0205  0.0190
  426MOL0     C58657   2.659   6.508   3.502  0.3896 -0.1236 -0.0046
  426MOL0     O58658   2.651   6.512   3.642  0.3625  0.4082  0.3563
  426MOL0     C58659   2.590   6.619   3.715 -0.1824 -0.3629  0.8578
  426MOL0     C58660   2.594   6.607   3.865 -0.1264  0.4593 -0.0906
  426MOL0     C58661   2.730   6.637   3.921  0.0511 -0.2322 -0.3048
  426MOL0     C58662   2.763   6.601   4.055  0.9003  0.3357 -0.3564
  426MOL0     C58663   2.920   6.611   4.090  1.1192  0.4613 -0.2132
  426MOL0     C58664   2.953   6.538   4.219 -0.0713  0.1451 -0.9782
  426MOL0     C58665   2.896   6.612   4.335  0.1367 -0.7798 -0.7036
  426MOL0     C58666   2.992   6.577   4.447  0.8997  0.4477  0.4969
  426MOL0     N58667   2.953   6.439   4.493 -0.2460  0.6650 -0.7499
  426MOL0     C58668   3.029   6.329   4.469 -0.5133 -0.9758 -0.4680
  426MOL0     C58669   2.970   6.221   4.527  0.7324  0.4210  0.4532
  426MOL0     C58670   3.010   6.073   4.533 -0.1213 -0.1534 -0.4787
  426MOL0     C58671   3.119   6.046   4.633 -0.0934  0.6670 -0.1190
  426MOL0     C58672   3.201   5.929   4.585  0.2785 -0.6865  0.0030
  426MOL0     C58673   3.114   5.801   4.586  0.4187  0.3724 -0.2275
  426MOL0     O58674   3.181   5.686   4.544  0.1330  0.3144 -0.8198
  426MOL0     C58675   3.258   5.616   4.633  0.5827 -0.3735 -0.3586
  426MOL0     C58676   3.225   5.592   4.771 -0.1961  0.9539  0.6312
  426MOL0     C58677   3.298   5.506   4.854 -0.2041  0.1517  0.4527
  426MOL0     C58678   3.248   5.493   4.997 -0.4125  0.0480  0.7053
  426MOL0     C58679   3.402   5.431   4.800  0.5243  0.0239  0.6043
  426MOL0     C58680   3.492   5.335   4.875 -0.2312 -0.3602  0.2547
  426MOL0     O58681   3.544   5.384   4.988 -0.0574 -0.3081  0.7048
  426MOL0     C58682   3.602   5.304   5.086  0.9136  0.4369 -0.2705
  426MOL0     C58683   3.616   5.163   5.088 -0.6280 -0.0895 -0.1779
  426MOL0     C58684   3.683   5.098   5.192  0.5595 -0.7833  0.6962
  426MOL0     C58685   3.717   5.169   5.313  0.4652  0.1124  0.3686
  426MOL0     O58686   3.753   5.114   5.435  0.5279  0.3346  0.8862
  426MOL0     C58687   3.758   4.970   5.441 -0.3247 -0.1561 -0.1971
  426MOL0     C58688   3.766   4.918   5.588  0.2585  0.0144 -1.0739
  426MOL0     C58689   3.635   4.956   5.666  0.3268 -0.7294  1.1497
  426MOL0     C58690   3.628   4.899   5.808 -0.2329  0.1230  0.0930
  426MOL0     C58691   3.492   4.905   5.869  0.2937 -0.5997 -0.0981
  426MOL0     C58692   3.484   4.832   6.000  0.7653 -0.3583  0.8759
  426MOL0     C58693   3.443   4.679   5.985  0.2959  0.6017 -0.2347
  426MOL0     C58694   3.444   4.617   6.123 -0.9022 -0.4681 -1.0916
  426MOL0    Cl58695   3.418   4.438   6.094 -0.1002  0.7815 -0.5423
  426MOL0     C58696   3.715   5.307   5.317  0.7767 -0.2678 -0.6455
  426MOL0     C58697   3.655   5.374   5.199 -0.2157 -0.3358  0.0182
  426MOL0     O58698   3.519   5.231   4.817 -1.1798  0.0090  0.4440
  426MOL0     C58699   3.427   5.452   4.667 -0.1858  0.5755 -0.1391
  426MOL0     C58700   3.365   5.539   4.581  0.8564 -0.4748 -0.4674
  426MOL0     N58701   2.869   6.278   4.608  0.3274  0.5934  0.3769
  426MOL0     N58702   2.851   6.401   4.582  0.1501 -0.4262  0.7593
  426MOL0     C58703   2.719   6.402   3.436 -0.5213  0.4858 -0.4218
  426MOL0     C58704   2.747   6.393   3.301  0.1150  1.4028 -0.0616
  426MOL0     C58705   2.597   6.420   2.884  0.1729 -0.4426  0.3274
  426MOL0     C58706   2.717   6.400   2.806 -0.5421  0.7689  0.8207
  426MOL0     C58707   2.710   6.399   2.669 -0.6359  0.2682  0.4285
  426MOL0     C58708   2.588   6.389   2.602  0.4585 -0.6477  0.8379
  426MOL0     O58709   2.575   6.365   2.471  0.2479  0.3978  1.1462
  426MOL0     C58710   2.676   6.421   2.393 -0.1848 -0.1830  0.2736
  426MOL0     C58711   2.628   6.446   2.253  0.3338 -0.3716  0.0819
  426MOL0     C58712   2.732   6.513   2.159  0.4371  0.0661 -0.0892
  426MOL0     C58713   2.819   6.399   2.102  0.3101 -0.0260  0.0160
  426MOL0     C58714   2.915   6.444   1.999 -0.4345  0.8118 -0.6713
  426MOL0     C58715   3.001   6.459   1.915  0.0564 -0.9692 -0.0854
  426MOL0     C58716   2.470   6.410   2.674  0.5169 -0.0062  0.1528
  426MOL0     C58717   2.471   6.433   2.812 -0.5567  0.0159  0.8654
  426MOL0     C58718   2.340   6.431   2.885  0.1775 -1.1684  0.7615
  426MOL0     H58719   2.631   6.694   3.207  0.3917 -0.0742 -0.5474
  426MOL0     H58720   2.586   6.718   3.443  1.1590  0.4552 -0.2106
  426MOL0     H58721   2.486   6.631   3.684 -0.1735 -1.0221  0.5484
  426MOL0     H58722   2.647   6.707   3.683 -1.5687 -0.2353 -1.5224
  426MOL0     H58723   2.514   6.667   3.908 -1.4457  0.3252 -2.2079
  426MOL0     H58724   2.563   6.508   3.900 -1.7702  0.2892 -1.8567
  426MOL0     H58725   2.801   6.603   3.845 -1.4710  0.5065 -2.1187
  426MOL0     H58726   2.733   6.746   3.921  0.2655 -0.1703  2.5752
  426MOL0     H58727   2.704   6.657   4.128 -1.0664 -0.0724 -1.5431
  426MOL0     H58728   2.729   6.497   4.062 -0.1979  0.7463  0.7419
  426MOL0     H58729   2.945   6.717   4.085 -0.9398  1.1634  2.3007
  426MOL0     H58730   2.976   6.555   4.015 -0.7461 -2.6675  0.5434
  426MOL0     H58731   2.911   6.437   4.222  1.5055 -0.5275  1.5552
  426MOL0     H58732   3.061   6.519   4.220 -0.7173 -4.8501 -0.5702
  426MOL0     H58733   2.792   6.589   4.363 -0.1676  1.9958  0.7704
  426MOL0     H58734   2.896   6.721   4.331  0.5432 -0.7066  0.7859
  426MOL0     H58735   3.097   6.592   4.422  0.8770  1.9123  1.1470
  426MOL0     H58736   2.972   6.646   4.529 -0.4095  2.1300 -1.1329
  426MOL0     H58737   3.117   6.308   4.408  1.1301 -0.4559  1.6083
  426MOL0     H58738   3.034   6.045   4.430 -0.8894 -2.1529 -0.1505
  426MOL0     H58739   2.927   6.007   4.561  1.3061 -2.8102 -2.1270
  426MOL0     H58740   3.175   6.140   4.626  1.7741 -0.4996 -5.0356
  426MOL0     H58741   3.079   6.041   4.734 -1.7082  2.5773 -0.5830
  426MOL0     H58742   3.250   5.944   4.488 -1.3155 -2.6573 -1.1839
  426MOL0     H58743   3.277   5.911   4.662 -1.3785  1.5318  2.2805
  426MOL0     H58744   3.059   5.780   4.678  2.7344 -2.7491  0.6264
  426MOL0     H58745   3.038   5.822   4.511  1.2416  0.3488 -1.0871
  426MOL0     H58746   3.140   5.639   4.819 -0.3799  0.0312  1.2337
  426MOL0     H58747   3.299   5.416   5.054 -1.4031 -1.5697 -0.4742
  426MOL0     H58748   3.144   5.460   4.987 -0.3285  0.0537 -0.2907
  426MOL0     H58749   3.255   5.592   5.043  1.7283  2.0168 -3.3111
  426MOL0     H58750   3.591   5.114   4.994 -0.0911  1.5655 -1.2443
  426MOL0     H58751   3.701   4.991   5.198 -0.5031 -0.9156  1.8706
  426MOL0     H58752   3.674   4.920   5.393  2.1392 -5.1406  0.0021
  426MOL0     H58753   3.854   4.937   5.400 -1.1132 -0.6750 -1.6611
  426MOL0     H58754   3.780   4.811   5.601  0.4103  0.2483  1.0111
  426MOL0     H58755   3.854   4.964   5.633  0.4060  0.0710 -1.4232
  426MOL0     H58756   3.546   4.930   5.608  0.7388  2.5585 -1.2734
  426MOL0     H58757   3.635   5.065   5.667  0.8788 -0.6813 -0.5649
  426MOL0     H58758   3.695   4.960   5.869  1.1353  1.1101 -2.2911
  426MOL0     H58759   3.664   4.795   5.808 -3.3169 -1.2337 -4.1596
  426MOL0     H58760   3.459   5.008   5.883 -1.3759 -1.3908  2.8089
  426MOL0     H58761   3.410   4.867   5.806 -0.5299 -1.0722  1.2063
  426MOL0     H58762   3.401   4.875   6.056  1.2306  0.3276  1.0447
  426MOL0     H58763   3.570   4.857   6.061  1.3764  1.0321 -0.4938
  426MOL0     H58764   3.519   4.645   5.915 -0.3137  0.1192 -0.6749
  426MOL0     H58765   3.344   4.659   5.942 -0.9505  2.5521  1.5032
  426MOL0     H58766   3.362   4.667   6.175  0.6478  0.6167  0.4509
  426MOL0     H58767   3.529   4.631   6.192 -3.0149  3.1671  1.0677
  426MOL0     H58768   3.739   5.374   5.399  0.0333 -1.0545  0.2297
  426MOL0     H58769   3.648   5.482   5.202  1.3062 -0.2220  0.0944
  426MOL0     H58770   3.515   5.406   4.622 -2.1236 -2.1426 -1.3974
  426MOL0     H58771   3.383   5.549   4.475  0.0191 -2.0707 -0.7929
  426MOL0     H58772   2.758   6.317   3.490  4.3605  3.3676  1.3176
  426MOL0     H58773   2.793   6.305   3.257  2.0104  1.3747  1.8150
  426MOL0     H58774   2.814   6.405   2.856  1.8327  1.8597 -3.4282
  426MOL0     H58775   2.810   6.390   2.628  0.3830 -0.7370  2.9764
  426MOL0     H58776   2.715   6.520   2.417  0.6037 -0.4581  0.1671
  426MOL0     H58777   2.768   6.362   2.396  0.2003  0.2913 -1.0522
  426MOL0     H58778   2.534   6.503   2.253 -0.9389 -2.3586  0.6203
  426MOL0     H58779   2.602   6.352   2.204 -3.5455 -0.9714  2.8085
  426MOL0     H58780   2.679   6.564   2.078 -2.8992  0.4050  2.1166
  426MOL0     H58781   2.800   6.584   2.205  3.6589 -1.3199 -2.3161
  426MOL0     H58782   2.752   6.330   2.050 -0.3078  1.3345 -1.0481
  426MOL0     H58783   2.881   6.355   2.180  0.7370  1.2154  0.3990
  426MOL0     H58784   3.077   6.469   1.840 -0.5204  3.1305 -0.3525
  426MOL0     H58785   2.381   6.415   2.612  0.7073  1.0626 -0.0649
  426MOL0     H58786   2.260   6.461   2.817  1.4700 -1.3513 -0.9029
  426MOL0     H58787   2.315   6.330   2.920  0.0289 -1.0826  0.9053
  426MOL0     H58788   2.345   6.499   2.971 -2.0839  1.9602 -1.3933
  427MOL0     O58789   8.013   7.646  11.275  0.3721 -0.1034 -0.0971
  427MOL0     C58790   8.006   7.725  11.178 -0.6362  0.0816 -0.5280
  427MOL0     O58791   8.062   7.851  11.172 -0.3652 -0.0045 -0.0680
  427MOL0     C58792   8.176   7.886  11.245 -0.9315 -1.4020  0.7569
  427MOL0     C58793   8.198   8.025  11.257  0.8627  0.0577 -0.6141
  427MOL0     C58794   8.307   8.073  11.329  0.3219  0.5741 -0.6418
  427MOL0     C58795   8.407   7.992  11.377  0.4222  0.6564  0.9502
  427MOL0     O58796   8.519   8.031  11.453 -0.3880  0.1173  0.0988
  427MOL0     C58797   8.602   8.138  11.402 -0.5333 -0.7371  0.2019
  427MOL0     C58798   8.699   8.086  11.300  0.3045 -0.4224  0.1503
  427MOL0     C58799   8.779   7.970  11.361 -0.5120  0.7138 -0.1290
  427MOL0     C58800   8.758   7.831  11.290 -0.2249 -0.3760 -1.5320
  427MOL0     C58801   8.864   7.716  11.318 -1.0110  0.0984  0.3914
  427MOL0     C58802   8.844   7.657  11.464 -0.9207 -0.2909 -0.2092
  427MOL0     C58803   8.952   7.555  11.494 -0.8593 -0.0862 -0.2629
  427MOL0     C58804   9.092   7.609  11.508  0.6055  1.0469 -0.6644
  427MOL0     N58805   9.186   7.494  11.479  0.2190 -0.0492 -0.2559
  427MOL0     C58806   9.253   7.489  11.359 -0.5458  0.5067  0.1519
  427MOL0     C58807   9.352   7.392  11.375 -0.6074  0.2391 -0.8439
  427MOL0     C58808   9.450   7.367  11.262 -1.7006  0.1617 -0.2213
  427MOL0     C58809   9.586   7.333  11.317  0.6909 -0.4126  0.5482
  427MOL0     C58810   9.677   7.288  11.213  0.2589  0.0402 -0.0213
  427MOL0     C58811   9.798   7.212  11.268  0.3397  1.1155 -1.4113
  427MOL0     O58812   9.864   7.156  11.150 -0.2308  0.4496 -0.0266
  427MOL0     C58813   9.983   7.083  11.166  0.3492  0.3935 -0.1830
  427MOL0     C58814  10.045   7.057  11.292 -0.3721 -1.5342  0.8032
  427MOL0     C58815  10.134   6.956  11.309 -0.0037 -0.2365  0.5169
  427MOL0     C58816  10.193   6.925  11.454  0.2780 -0.8112  0.6320
  427MOL0     C58817  10.183   6.889  11.196  0.9337  0.0035 -0.4452
  427MOL0     C58818  10.290   6.789  11.196 -0.6807  0.4258  0.6358
  427MOL0     O58819  10.377   6.811  11.098  0.1277 -0.0347 -0.2853
  427MOL0     C58820  10.484   6.722  11.098  0.2046  0.0515 -0.5985
  427MOL0     C58821  10.463   6.597  11.040  0.3665  0.2621 -1.1837
  427MOL0     C58822  10.558   6.496  11.046 -0.1636 -0.9625  0.5683
  427MOL0     C58823  10.688   6.524  11.103  0.8811  0.6275 -0.2281
  427MOL0     O58824  10.793   6.431  11.105  0.0894  0.1493 -0.2710
  427MOL0     C58825  10.774   6.322  11.023  0.2133 -0.4941 -0.4841
  427MOL0     C58826  10.883   6.221  11.052 -0.5900  0.1459 -0.2914
  427MOL0     C58827  11.030   6.270  10.999 -0.3161 -0.4410 -0.3338
  427MOL0     C58828  11.041   6.358  10.870  0.0906 -0.4537 -0.3119
  427MOL0     C58829  11.189   6.378  10.822 -0.5292 -0.2227 -0.3437
  427MOL0     C58830  11.284   6.406  10.941  0.0955 -0.1888 -0.3643
  427MOL0     C58831  11.427   6.439  10.885  0.1486  0.0223  0.6238
  427MOL0     C58832  11.432   6.582  10.824  0.1976 -0.5817  0.0124
  427MOL0    Cl58833  11.590   6.589  10.743 -0.3982 -0.3462  0.0909
  427MOL0     C58834  10.709   6.651  11.158  0.3667 -0.3654 -0.1383
  427MOL0     C58835  10.603   6.751  11.158 -0.0599  0.6258 -0.0379
  427MOL0     O58836  10.296   6.697  11.279 -1.1737 -0.3958  0.0626
  427MOL0     C58837  10.129   6.912  11.070  0.3030  0.6777  1.0514
  427MOL0     C58838  10.024   7.007  11.064  0.8379  0.3484 -0.1753
  427MOL0     N58839   9.348   7.354  11.509 -1.5227  0.3124  0.0440
  427MOL0     N58840   9.250   7.408  11.567 -0.5964 -0.3764 -1.5710
  427MOL0     C58841   8.398   7.853  11.343  0.2718 -0.7787  0.1889
  427MOL0     C58842   8.280   7.804  11.282  0.4266 -0.3452  0.0410
  427MOL0     C58843   7.912   7.690  11.071  0.8684 -0.3845 -0.1113
  427MOL0     C58844   7.788   7.637  11.112  0.3804 -0.0087  0.9154
  427MOL0     C58845   7.700   7.610  11.009 -0.8061  0.5460 -0.3373
  427MOL0     C58846   7.725   7.619  10.868  0.7490 -0.0946  0.7353
  427MOL0     O58847   7.635   7.596  10.766 -0.1626  0.7340 -0.7266
  427MOL0     C58848   7.499   7.566  10.786 -0.4068 -0.6435 -0.7159
  427MOL0     C58849   7.483   7.415  10.761  0.3171  0.6809  0.1609
  427MOL0     C58850   7.512   7.374  10.620  0.4773  0.5564  0.3825
  427MOL0     C58851   7.387   7.357  10.537  0.7135  0.3397 -0.0729
  427MOL0     C58852   7.411   7.316  10.399 -0.1305 -0.0977 -0.7889
  427MOL0     C58853   7.443   7.289  10.287 -0.4092  0.6472  0.4147
  427MOL0     C58854   7.859   7.668  10.834  1.0830 -0.4505  0.9772
  427MOL0     C58855   7.944   7.703  10.937 -0.0979 -0.3630 -0.3780
  427MOL0     C58856   8.080   7.734  10.890 -0.1408 -0.2104 -0.1518
  427MOL0     H58857   8.120   8.096  11.230 -3.1197 -2.6360  2.6171
  427MOL0     H58858   8.310   8.178  11.355  0.5234  0.3566  0.2378
  427MOL0     H58859   8.669   8.186  11.475  1.0995 -1.4232 -0.7934
  427MOL0     H58860   8.547   8.222  11.357  0.2232 -0.0873  0.4657
  427MOL0     H58861   8.639   8.049  11.216  1.1297  1.1193 -1.1866
  427MOL0     H58862   8.767   8.167  11.272  3.1583 -1.3190  3.7449
  427MOL0     H58863   8.888   7.980  11.353  0.3220 -3.4741  2.7634
  427MOL0     H58864   8.759   7.959  11.468  1.2542  0.1661  0.1852
  427MOL0     H58865   8.659   7.793  11.318 -0.1379  0.1821 -0.3906
  427MOL0     H58866   8.759   7.851  11.183 -1.1662  0.4754 -1.4018
  427MOL0     H58867   8.965   7.754  11.300 -1.9255  1.7382 -1.7644
  427MOL0     H58868   8.842   7.633  11.250 -3.3736  0.0219  1.1298
  427MOL0     H58869   8.833   7.722  11.551 -2.3746 -0.3348 -0.3355
  427MOL0     H58870   8.745   7.611  11.464 -0.3318 -1.7172  1.5569
  427MOL0     H58871   8.950   7.486  11.409  0.2105 -0.3482 -0.0897
  427MOL0     H58872   8.914   7.497  11.578 -4.0674  0.8842 -0.8774
  427MOL0     H58873   9.116   7.692  11.441  0.5052  1.6945  0.0842
  427MOL0     H58874   9.097   7.646  11.611 -2.0766 -0.9203  0.2865
  427MOL0     H58875   9.225   7.543  11.270 -0.5216  0.4216  0.0920
  427MOL0     H58876   9.454   7.458  11.202 -0.9473  0.4821  0.3042
  427MOL0     H58877   9.400   7.293  11.198 -1.5510  0.9218 -1.2436
  427MOL0     H58878   9.625   7.419  11.372  0.4163  0.4517 -0.5727
  427MOL0     H58879   9.583   7.253  11.391  0.4092 -0.6037  0.3286
  427MOL0     H58880   9.615   7.218  11.157  0.9015 -0.9796  0.5200
  427MOL0     H58881   9.708   7.361  11.137  0.8779 -2.7275 -2.6372
  427MOL0     H58882   9.869   7.279  11.316  1.1751 -0.2530 -0.6662
  427MOL0     H58883   9.770   7.128  11.332  0.8163  0.5342 -1.9419
  427MOL0     H58884  10.015   7.113  11.380  1.6498 -1.7340  1.6699
  427MOL0     H58885  10.132   6.978  11.528  0.6167  0.6898 -0.1239
  427MOL0     H58886  10.298   6.955  11.462  0.4736 -1.4943  0.7165
  427MOL0     H58887  10.186   6.818  11.476  1.5601 -1.0999 -0.2393
  427MOL0     H58888  10.369   6.588  10.987 -2.0479 -0.7058  2.8757
  427MOL0     H58889  10.530   6.407  10.991 -0.8322  0.4296 -1.4796
  427MOL0     H58890  10.676   6.276  11.039 -0.2380 -0.1738 -2.1326
  427MOL0     H58891  10.786   6.351  10.918  0.2104 -1.1977 -0.6871
  427MOL0     H58892  10.897   6.192  11.156  4.0554 -0.0214 -0.7377
  427MOL0     H58893  10.849   6.131  11.000 -2.7179  1.2600 -0.9437
  427MOL0     H58894  11.096   6.186  10.975 -0.8534 -0.4362 -1.9431
  427MOL0     H58895  11.078   6.329  11.078  2.0282  0.3089 -2.1801
  427MOL0     H58896  10.978   6.445  10.892 -1.4974 -1.2852 -1.3502
  427MOL0     H58897  10.990   6.296  10.795 -3.1262  1.4133  0.1651
  427MOL0     H58898  11.233   6.289  10.775 -0.2451 -1.3402  1.9277
  427MOL0     H58899  11.192   6.468  10.759 -0.1301 -1.3547 -2.0146
  427MOL0     H58900  11.293   6.327  11.016  0.0883  3.3537  3.7682
  427MOL0     H58901  11.259   6.482  11.016  0.8254  1.4320 -1.6830
  427MOL0     H58902  11.459   6.361  10.815  0.4372 -1.0812  1.9592
  427MOL0     H58903  11.502   6.439  10.964 -2.7378 -1.9193  3.6630
  427MOL0     H58904  11.419   6.654  10.906  2.6383 -1.5831  1.3893
  427MOL0     H58905  11.352   6.604  10.752  0.7489  0.9089 -0.1759
  427MOL0     H58906  10.792   6.691  11.215 -0.7748  1.6508  0.1872
  427MOL0     H58907  10.618   6.834  11.226 -0.6728  1.8752 -1.3697
  427MOL0     H58908  10.145   6.843  10.988 -3.2937 -0.5630  1.2227
  427MOL0     H58909   9.966   7.001  10.973 -0.3943 -1.3867  0.6597
  427MOL0     H58910   8.467   7.782  11.389  2.0104 -0.3278 -1.6055
  427MOL0     H58911   8.284   7.695  11.283  1.1716 -0.3498  2.2413
  427MOL0     H58912   7.758   7.622  11.215  1.1474 -0.5414  1.0694
  427MOL0     H58913   7.605   7.573  11.045 -0.5244  1.5808  1.6329
  427MOL0     H58914   7.478   7.583  10.892  0.7337 -2.9584 -0.0692
  427MOL0     H58915   7.436   7.628  10.721 -0.6142  0.6292  0.6423
  427MOL0     H58916   7.382   7.380  10.784  0.9560 -1.3789  0.0267
  427MOL0     H58917   7.545   7.354  10.827 -0.4309 -2.2101 -1.6077
  427MOL0     H58918   7.588   7.438  10.574  1.2427 -0.7888 -0.2861
  427MOL0     H58919   7.561   7.276  10.626  2.6881  1.4937 -1.2439
  427MOL0     H58920   7.327   7.447  10.546  0.3096 -0.0995  2.6483
  427MOL0     H58921   7.320   7.283  10.583 -2.0731  1.9597 -1.3131
  427MOL0     H58922   7.497   7.275  10.196  3.0216  3.0224  1.8339
  427MOL0     H58923   7.882   7.673  10.728  0.5083  3.2315  0.9070
  427MOL0     H58924   8.157   7.665  10.926  0.2695 -1.0580 -2.5192
  427MOL0     H58925   8.083   7.737  10.781  0.3839 -0.8626 -0.1583
  427MOL0     H58926   8.113   7.834  10.921  1.0219 -0.1778 -1.4182
  428MOL0     O58927   0.698   2.278   4.044  0.9070 -0.4762 -0.6766
  428MOL0     C58928   0.766   2.350   3.972  1.2528  0.7245  0.5519
  428MOL0     O58929   0.712   2.451   3.890  0.3646 -0.2880 -0.2915
  428MOL0     C58930   0.573   2.473   3.896  0.1758  0.2299  0.4614
  428MOL0     C58931   0.524   2.592   3.954 -0.6402  0.2283  0.6962
  428MOL0     C58932   0.385   2.605   3.963  0.3185  0.3877  0.4359
  428MOL0     C58933   0.299   2.514   3.895  0.4950 -0.2957  0.1735
  428MOL0     O58934   0.158   2.519   3.893 -0.6338  0.2297  0.7906
  428MOL0     C58935   0.096   2.597   3.990  0.2184 -0.7786 -0.3381
  428MOL0     C58936  -0.055   2.572   3.994  1.6368  0.5679  0.6849
  428MOL0     C58937  -0.118   2.619   3.862  0.3195 -0.5047  0.6125
  428MOL0     C58938  -0.268   2.582   3.864  0.0991 -0.3821  0.2512
  428MOL0     C58939  -0.345   2.619   3.734  0.3570 -0.0544  0.7156
  428MOL0     C58940  -0.320   2.521   3.617  0.2624  0.0268  0.8030
  428MOL0     C58941  -0.400   2.555   3.485 -0.9281  0.4320  0.1141
  428MOL0     C58942  -0.381   2.439   3.386 -0.2343  0.2628  0.6405
  428MOL0     N58943  -0.442   2.477   3.253  0.0252  0.7736 -1.1222
  428MOL0     C58944  -0.567   2.439   3.224  0.3239  0.6112  0.5650
  428MOL0     C58945  -0.594   2.479   3.094 -0.0850  0.1595 -0.6865
  428MOL0     C58946  -0.725   2.447   3.019  0.3353 -1.4516 -0.5105
  428MOL0     C58947  -0.843   2.453   3.121 -1.1182  0.2085  1.4527
  428MOL0     C58948  -0.979   2.466   3.041 -1.1328  0.4742 -0.2380
  428MOL0     C58949  -1.019   2.595   2.990 -1.1604 -0.4061  0.2143
  428MOL0     O58950  -0.996   2.697   3.094 -0.4477  0.4574 -0.2199
  428MOL0     C58951  -1.086   2.790   3.109  1.3331 -0.4478 -0.4619
  428MOL0     C58952  -1.168   2.841   3.005 -0.1058 -0.5346  0.5693
  428MOL0     C58953  -1.266   2.938   3.045  0.3142  0.4868 -0.2974
  428MOL0     C58954  -1.349   2.987   2.933  0.0656  0.0152  0.9153
  428MOL0     C58955  -1.292   2.977   3.179  0.0342 -0.6789 -0.1973
  428MOL0     C58956  -1.391   3.075   3.233  0.1118 -0.3843 -1.0053
  428MOL0     O58957  -1.475   3.142   3.151 -0.2420  0.5002 -0.2730
  428MOL0     C58958  -1.568   3.228   3.198  0.7196 -0.2717 -0.2984
  428MOL0     C58959  -1.555   3.359   3.168 -0.1849  0.1020  0.6157
  428MOL0     C58960  -1.653   3.444   3.210  0.1854 -0.2034  0.5449
  428MOL0     C58961  -1.763   3.408   3.281  0.3033  0.3155 -0.0839
  428MOL0     O58962  -1.858   3.501   3.317 -0.1378  0.2908 -0.7052
  428MOL0     C58963  -1.998   3.494   3.273  0.0254  0.0772  0.5489
  428MOL0     C58964  -2.072   3.610   3.345  0.4069 -0.8508  0.1883
  428MOL0     C58965  -2.123   3.725   3.249  0.3519 -0.5883  0.6689
  428MOL0     C58966  -2.170   3.844   3.338  0.3339  1.2823 -0.0228
  428MOL0     C58967  -2.234   3.948   3.253 -0.2799 -0.0164  0.2460
  428MOL0     C58968  -2.365   3.915   3.202  0.0077  0.5858  0.3522
  428MOL0     C58969  -2.433   4.049   3.167  0.4563  0.4400 -0.0892
  428MOL0     C58970  -2.586   4.026   3.140 -0.4545  0.7695  0.5161
  428MOL0    Cl58971  -2.671   3.960   3.282 -0.2873 -0.1272 -0.0419
  428MOL0     C58972  -1.784   3.268   3.308  0.4186  0.2886 -0.5365
  428MOL0     C58973  -1.688   3.180   3.267 -0.4114  0.8225  0.0799
  428MOL0     O58974  -1.383   3.100   3.355 -0.0166  0.3876 -0.3731
  428MOL0     C58975  -1.196   2.934   3.273 -0.2256  0.4117  0.2181
  428MOL0     C58976  -1.096   2.840   3.233 -0.2702 -0.1631  1.1564
  428MOL0     N58977  -0.478   2.537   3.049  0.1834 -0.3000 -0.1963
  428MOL0     N58978  -0.389   2.534   3.144 -0.3207  0.0351 -0.5385
  428MOL0     C58979   0.351   2.397   3.834  0.2264 -0.3948  0.5899
  428MOL0     C58980   0.493   2.373   3.840  0.8263 -0.3430  0.1201
  428MOL0     C58981   0.911   2.335   3.972  0.1139 -0.1173  0.3511
  428MOL0     C58982   0.980   2.419   3.882  0.1076  0.3673 -1.2231
  428MOL0     C58983   1.122   2.428   3.881  0.7676 -0.0513  0.2415
  428MOL0     C58984   1.199   2.338   3.954  0.1768  0.1508  0.5198
  428MOL0     O58985   1.334   2.341   3.971  0.3214 -0.0712 -0.1878
  428MOL0     C58986   1.416   2.437   3.894  0.2382 -0.2084 -0.9675
  428MOL0     C58987   1.454   2.367   3.765  0.2906  0.4966 -0.4818
  428MOL0     C58988   1.411   2.440   3.634 -0.5306 -0.9434 -0.3688
  428MOL0     C58989   1.484   2.570   3.608 -0.5536 -0.2063  0.6633
  428MOL0     C58990   1.451   2.619   3.475 -0.2372 -0.1104 -0.2697
  428MOL0     C58991   1.412   2.666   3.365  0.0816 -0.2388 -0.1788
  428MOL0     C58992   1.129   2.250   4.042 -0.2427 -0.0522 -0.4274
  428MOL0     C58993   0.990   2.240   4.046  0.2769  0.5246 -1.0335
  428MOL0     C58994   0.931   2.135   4.129  0.1779  0.4436 -0.5261
  428MOL0     H58995   0.579   2.678   3.992 -0.5225 -0.1527  1.4062
  428MOL0     H58996   0.351   2.686   4.026 -0.4782 -0.4259  1.0923
  428MOL0     H58997   0.118   2.703   3.975 -3.3128 -0.2643 -3.1846
  428MOL0     H58998   0.119   2.565   4.092 -4.0904  1.6624  1.6869
  428MOL0     H58999  -0.082   2.467   4.005 -0.1460  0.5620 -2.6167
  428MOL0     H59000  -0.099   2.625   4.079 -0.0273  0.3882 -0.0205
  428MOL0     H59001  -0.124   2.727   3.851 -2.8989 -0.6551 -0.0212
  428MOL0     H59002  -0.069   2.572   3.777 -0.7593 -0.1017 -0.2568
  428MOL0     H59003  -0.270   2.474   3.878  2.2995 -0.1635  3.1706
  428MOL0     H59004  -0.323   2.635   3.942 -2.0652 -0.3678 -1.2076
  428MOL0     H59005  -0.325   2.723   3.708  3.4209 -0.6113  0.4875
  428MOL0     H59006  -0.452   2.609   3.753  0.0012  1.2191 -0.4448
  428MOL0     H59007  -0.216   2.507   3.586 -0.8080 -3.7852 -1.8987
  428MOL0     H59008  -0.357   2.421   3.644  0.3594 -0.0474  0.6622
  428MOL0     H59009  -0.363   2.650   3.448 -0.4239  1.3165  2.6851
  428MOL0     H59010  -0.505   2.569   3.511 -0.7088 -0.6332  1.7559
  428MOL0     H59011  -0.274   2.429   3.367 -0.7890  0.2736 -3.2340
  428MOL0     H59012  -0.416   2.343   3.427  0.1872  0.2675  1.0170
  428MOL0     H59013  -0.639   2.390   3.288 -1.2969  1.9496 -0.1546
  428MOL0     H59014  -0.728   2.347   2.977 -1.3364 -1.3750 -0.6528
  428MOL0     H59015  -0.745   2.516   2.937  0.5445  0.1142  0.6943
  428MOL0     H59016  -0.840   2.356   3.172  0.0008  0.8219  2.6343
  428MOL0     H59017  -0.836   2.525   3.203  0.6212 -1.2691  2.6845
  428MOL0     H59018  -0.981   2.397   2.956 -1.0861 -2.8441  2.2492
  428MOL0     H59019  -1.051   2.425   3.113  2.5977 -2.3274  2.2369
  428MOL0     H59020  -0.961   2.617   2.900  0.8844 -0.0992  1.5396
  428MOL0     H59021  -1.122   2.596   2.956 -1.4609  0.9190  1.0829
  428MOL0     H59022  -1.152   2.800   2.906  0.2325  0.3028  0.2715
  428MOL0     H59023  -1.455   2.961   2.938  0.0739 -0.6144 -1.2763
  428MOL0     H59024  -1.307   2.950   2.839 -0.6630 -0.2033  0.6634
  428MOL0     H59025  -1.348   3.095   2.915 -0.4961 -0.3757 -2.0078
  428MOL0     H59026  -1.473   3.390   3.104 -1.2918 -1.6895 -1.8385
  428MOL0     H59027  -1.644   3.551   3.192  2.4891 -0.6065 -1.2198
  428MOL0     H59028  -1.992   3.507   3.164 -1.9423 -0.0776  0.3981
  428MOL0     H59029  -2.041   3.397   3.297  0.6501 -0.9107 -1.9974
  428MOL0     H59030  -2.162   3.579   3.398  0.3488  1.5395  1.6176
  428MOL0     H59031  -2.002   3.657   3.414  2.0004  1.6630 -2.8308
  428MOL0     H59032  -2.205   3.687   3.188 -0.9187  1.6544  0.8433
  428MOL0     H59033  -2.039   3.767   3.191 -0.1202 -2.7671 -1.7694
  428MOL0     H59034  -2.087   3.889   3.394  0.1991 -1.1315  2.3151
  428MOL0     H59035  -2.242   3.814   3.414  0.8519 -2.8983 -0.9298
  428MOL0     H59036  -2.235   4.042   3.310  1.9751 -0.0323  0.4144
  428MOL0     H59037  -2.165   3.972   3.172  0.1941  0.8264  0.8740
  428MOL0     H59038  -2.421   3.856   3.275 -2.7877  2.6346  0.0326
  428MOL0     H59039  -2.355   3.854   3.111 -2.3042 -1.6254  1.4703
  428MOL0     H59040  -2.386   4.095   3.079  0.4507  0.0156 -0.3205
  428MOL0     H59041  -2.427   4.117   3.252 -3.1256 -2.7074  3.0454
  428MOL0     H59042  -2.600   3.953   3.059  0.0818  1.2495 -0.0264
  428MOL0     H59043  -2.645   4.115   3.114  0.2654  2.4832  4.1409
  428MOL0     H59044  -1.868   3.221   3.357 -0.2072 -0.5160 -2.2744
  428MOL0     H59045  -1.708   3.074   3.278  1.0154  0.2956 -1.8661
  428MOL0     H59046  -1.186   2.967   3.376  1.2661  1.1473 -0.1271
  428MOL0     H59047  -1.034   2.796   3.310  1.8494  0.9212  0.1582
  428MOL0     H59048   0.283   2.329   3.783  0.7293 -0.9022  0.5903
  428MOL0     H59049   0.527   2.277   3.805 -2.8156 -1.2378 -1.4572
  428MOL0     H59050   0.938   2.499   3.821 -1.3146  1.5047  1.0973
  428MOL0     H59051   1.168   2.496   3.810  0.3397  2.7323  2.5060
  428MOL0     H59052   1.364   2.533   3.888 -0.1764 -0.3089  0.5955
  428MOL0     H59053   1.511   2.455   3.945 -1.0213 -0.2506  1.5385
  428MOL0     H59054   1.394   2.276   3.761  1.5299 -0.4409  1.2566
  428MOL0     H59055   1.557   2.331   3.774  0.4792  1.1778  0.2241
  428MOL0     H59056   1.401   2.369   3.551 -2.8179 -1.3253  0.1662
  428MOL0     H59057   1.306   2.467   3.649 -1.1129 -2.8523 -0.7239
  428MOL0     H59058   1.591   2.545   3.612 -0.4132  0.1433 -0.3731
  428MOL0     H59059   1.456   2.657   3.668 -1.5976  0.4661 -0.7241
  428MOL0     H59060   1.388   2.714   3.272 -0.2995 -1.2276 -0.6062
  428MOL0     H59061   1.191   2.190   4.109 -1.4487  1.4177  2.1417
  428MOL0     H59062   0.884   2.170   4.221 -1.8017 -2.1755 -0.4364
  428MOL0     H59063   0.851   2.096   4.067 -1.1129  0.5890  0.9811
  428MOL0     H59064   1.006   2.057   4.148  0.4911  0.4311 -1.7467
  429MOL0     O59065   4.597   6.356  10.373 -0.5626 -0.6885  0.3235
  429MOL0     C59066   4.518   6.427  10.320  0.4050 -0.0693  0.0221
  429MOL0     O59067   4.503   6.452  10.188 -0.9819  0.2854 -0.2695
  429MOL0     C59068   4.592   6.400  10.098 -0.5016  0.0848  0.3205
  429MOL0     C59069   4.574   6.267  10.051  0.1146  0.1849 -0.0323
  429MOL0     C59070   4.666   6.222   9.957 -0.3789  0.4336 -0.1665
  429MOL0     C59071   4.767   6.300   9.909 -0.4382  0.4903 -0.0041
  429MOL0     O59072   4.835   6.244   9.808  0.3881  0.5282  0.2329
  429MOL0     C59073   4.907   6.324   9.709 -0.8158  0.6413  0.1997
  429MOL0     C59074   5.065   6.324   9.726  0.0313 -0.4302 -0.0367
  429MOL0     C59075   5.116   6.446   9.800 -0.2856 -0.3784 -0.3634
  429MOL0     C59076   5.270   6.436   9.815 -1.3814  0.1864  0.6037
  429MOL0     C59077   5.342   6.573   9.825 -0.3961  1.1346  0.0143
  429MOL0     C59078   5.494   6.570   9.834 -0.6368 -0.2432  0.1173
  429MOL0     C59079   5.562   6.551   9.700 -0.6567  0.0629 -0.2806
  429MOL0     C59080   5.714   6.600   9.715 -0.8343  0.2836  0.2599
  429MOL0     N59081   5.731   6.742   9.683 -0.7456  0.0110  1.4715
  429MOL0     C59082   5.760   6.843   9.774 -0.0733 -0.1993  0.2991
  429MOL0     C59083   5.772   6.958   9.695  0.0874  0.3915 -0.0894
  429MOL0     C59084   5.802   7.099   9.736  1.0059  0.1983 -0.2409
  429MOL0     C59085   5.920   7.119   9.833 -0.2297 -0.4421 -0.6173
  429MOL0     C59086   5.946   7.269   9.851 -0.0833 -0.3456  1.4885
  429MOL0     C59087   6.088   7.302   9.897  0.3456  0.0110 -0.5181
  429MOL0     O59088   6.081   7.278  10.040  0.4713 -0.6006 -0.5668
  429MOL0     C59089   6.199   7.257  10.110 -0.3533  0.3820  0.4555
  429MOL0     C59090   6.201   7.167  10.218  0.1747  0.5243  0.3382
  429MOL0     C59091   6.315   7.118  10.290  0.7333 -0.1982  0.6901
  429MOL0     C59092   6.288   7.017  10.402 -0.0507 -1.1375 -0.2989
  429MOL0     C59093   6.441   7.171  10.252 -0.1688  0.2998  0.5785
  429MOL0     C59094   6.563   7.116  10.311 -0.5118 -1.8831 -0.5709
  429MOL0     O59095   6.675   7.187  10.281 -0.1040  0.0127 -0.6403
  429MOL0     C59096   6.792   7.133  10.303 -0.6455  0.6038  0.2053
  429MOL0     C59097   6.857   7.076  10.194  0.3487  0.5648  0.1613
  429MOL0     C59098   6.986   7.025  10.205 -0.0375 -0.4940  0.3726
  429MOL0     C59099   7.048   7.020  10.328  0.4953  0.3241  0.8952
  429MOL0     O59100   7.166   6.955  10.327  0.4728 -0.4425  0.0522
  429MOL0     C59101   7.246   6.962  10.446 -0.1925  0.0644  0.0118
  429MOL0     C59102   7.364   6.866  10.414  0.3249  0.0835 -0.9933
  429MOL0     C59103   7.474   6.871  10.525  0.6311 -0.6211  0.4762
  429MOL0     C59104   7.574   6.757  10.514 -0.6208  0.9915  0.7481
  429MOL0     C59105   7.701   6.762  10.619  0.6903  0.6740 -0.0711
  429MOL0     C59106   7.806   6.860  10.560  0.3407  0.4972 -0.0454
  429MOL0     C59107   7.944   6.855  10.633 -0.3187 -0.1541 -0.1663
  429MOL0     C59108   7.947   6.957  10.753 -0.2880 -0.2566  0.8006
  429MOL0    Cl59109   8.116   6.984  10.782  0.0817 -0.3177  0.0321
  429MOL0     C59110   6.985   7.085  10.434  0.0846 -0.1912  0.2256
  429MOL0     C59111   6.859   7.148  10.416  0.5936  1.3509 -0.6092
  429MOL0     O59112   6.558   7.006  10.360 -0.5895  0.4942  0.3325
  429MOL0     C59113   6.439   7.277  10.154 -0.2353 -0.3495 -0.6358
  429MOL0     C59114   6.326   7.315  10.087  0.9411  0.5435  0.4339
  429MOL0     N59115   5.745   6.923   9.560 -0.0592 -0.2485 -0.8487
  429MOL0     N59116   5.715   6.792   9.559 -0.0835  0.2052 -0.2207
  429MOL0     C59117   4.780   6.433   9.947  1.1662  0.7772 -0.4966
  429MOL0     C59118   4.688   6.481  10.038 -0.7176  0.5591 -0.2472
  429MOL0     C59119   4.416   6.498  10.407  0.0639  0.4137 -0.2769
  429MOL0     C59120   4.365   6.441  10.530 -0.6328  0.0625  0.8760
  429MOL0     C59121   4.281   6.519  10.611 -1.1342  0.3005 -0.0818
  429MOL0     C59122   4.254   6.656  10.596 -1.0780  0.0963 -0.2918
  429MOL0     O59123   4.174   6.728  10.681 -0.1699 -0.3789 -0.0958
  429MOL0     C59124   4.146   6.683  10.811 -0.4315 -0.3315  0.3169
  429MOL0     C59125   4.047   6.770  10.875  0.0193 -0.0785 -0.3614
  429MOL0     C59126   3.914   6.744  10.805 -0.4269  0.1632  0.6744
  429MOL0     C59127   3.832   6.871  10.805  0.3989 -0.7633 -0.3815
  429MOL0     C59128   3.746   6.900  10.921 -0.3635 -0.2282 -0.0384
  429MOL0     C59129   3.685   6.930  11.019 -0.9073 -0.1804  0.5336
  429MOL0     C59130   4.314   6.714  10.484 -0.7215 -0.3627  0.6096
  429MOL0     C59131   4.378   6.640  10.381  0.1876 -0.3821  0.9734
  429MOL0     C59132   4.432   6.719  10.262 -0.2213 -1.2387  0.2048
  429MOL0     H59133   4.482   6.218  10.080 -0.6428  1.4503 -0.2417
  429MOL0     H59134   4.648   6.129   9.905 -1.5185  0.6934 -0.2564
  429MOL0     H59135   4.876   6.429   9.714 -3.0981  0.1997 -2.4041
  429MOL0     H59136   4.881   6.288   9.609  0.8309  0.7348 -0.2989
  429MOL0     H59137   5.101   6.239   9.784 -2.2400 -1.6210 -0.2627
  429MOL0     H59138   5.116   6.342   9.630  2.3830  3.2471  1.6572
  429MOL0     H59139   5.090   6.537   9.744 -2.7862  0.0533  1.3064
  429MOL0     H59140   5.069   6.470   9.896 -1.1335 -1.0053 -0.6093
  429MOL0     H59141   5.289   6.371   9.901 -1.1881  0.0557  0.4641
  429MOL0     H59142   5.303   6.384   9.725  0.6217 -1.9100  2.4311
  429MOL0     H59143   5.303   6.640   9.901  1.0553  0.9959  0.9180
  429MOL0     H59144   5.316   6.621   9.730 -1.4533  0.8043  0.1311
  429MOL0     H59145   5.528   6.672   9.851  0.1802 -0.4519 -0.2165
  429MOL0     H59146   5.537   6.504   9.910  2.5922  1.0788 -0.4138
  429MOL0     H59147   5.510   6.620   9.633  0.7954  1.1490 -0.3398
  429MOL0     H59148   5.563   6.445   9.673  1.5061 -0.1925  0.6040
  429MOL0     H59149   5.743   6.561   9.813  0.9134 -1.9860 -1.0583
  429MOL0     H59150   5.783   6.553   9.644  0.0656  2.9383 -0.7413
  429MOL0     H59151   5.770   6.827   9.881  3.6628  2.6265  0.5805
  429MOL0     H59152   5.713   7.138   9.787  1.2354 -1.9059  1.9527
  429MOL0     H59153   5.823   7.150   9.641  2.6116  3.4631  1.6683
  429MOL0     H59154   5.894   7.082   9.933  2.4786  2.0822  1.1890
  429MOL0     H59155   6.012   7.074   9.796  1.7868  2.6854  0.2022
  429MOL0     H59156   5.944   7.316   9.752  2.6605 -3.1369 -0.0592
  429MOL0     H59157   5.877   7.302   9.929  1.3475  0.5264  2.4347
  429MOL0     H59158   6.163   7.240   9.846  2.1544  1.1662  0.6397
  429MOL0     H59159   6.114   7.407   9.880  3.1849 -0.4955  0.1662
  429MOL0     H59160   6.105   7.127  10.247  0.7693 -1.2888 -0.0801
  429MOL0     H59161   6.337   6.923  10.377  5.6675  2.0214 -3.0041
  429MOL0     H59162   6.182   7.003  10.425 -0.5861  0.1051 -1.8608
  429MOL0     H59163   6.337   7.052  10.494  2.2999 -2.2118 -1.0552
  429MOL0     H59164   6.815   7.090  10.095  0.2565  0.5231  0.1942
  429MOL0     H59165   7.038   6.981  10.120  1.1662  1.2397  0.1498
  429MOL0     H59166   7.280   7.066  10.453  2.6251 -0.4614 -3.0164
  429MOL0     H59167   7.205   6.941  10.544 -0.5575  1.7679  0.2488
  429MOL0     H59168   7.324   6.765  10.401 -1.1222  0.4894  0.0445
  429MOL0     H59169   7.412   6.908  10.325 -0.7223  1.5868 -0.8824
  429MOL0     H59170   7.441   6.865  10.629  1.4102 -1.4796  0.6889
  429MOL0     H59171   7.520   6.969  10.507 -0.5887  0.0074  0.6707
  429MOL0     H59172   7.608   6.742  10.411 -2.2415 -1.0643  0.4278
  429MOL0     H59173   7.519   6.666  10.540  1.0255 -1.7124 -4.0603
  429MOL0     H59174   7.658   6.795  10.714 -0.3185  0.7808 -0.5452
  429MOL0     H59175   7.743   6.662  10.631  3.7154  1.9420  0.9451
  429MOL0     H59176   7.756   6.956  10.568  1.7257  1.3087 -0.7419
  429MOL0     H59177   7.831   6.841  10.456  2.5729 -0.4329  0.5940
  429MOL0     H59178   8.025   6.877  10.562  0.0962 -1.3031 -0.0652
  429MOL0     H59179   7.966   6.757  10.676  1.3666 -1.4013 -3.5065
  429MOL0     H59180   7.903   6.912  10.843 -0.7588  1.4675  1.4879
  429MOL0     H59181   7.886   7.045  10.731  1.4634  0.4798 -1.4053
  429MOL0     H59182   7.042   7.094  10.526 -0.0474  0.8160  0.2158
  429MOL0     H59183   6.810   7.206  10.493  1.9064  0.5756  0.8660
  429MOL0     H59184   6.515   7.352  10.131 -0.9315 -0.0138 -1.9287
  429MOL0     H59185   6.343   7.392  10.012  2.1009  0.2440  0.3721
  429MOL0     H59186   4.859   6.495   9.907 -0.1855  2.1633 -1.1519
  429MOL0     H59187   4.697   6.585  10.068  0.1956  1.2477 -2.7103
  429MOL0     H59188   4.398   6.341  10.557 -0.5325 -0.1184  0.1175
  429MOL0     H59189   4.223   6.475  10.691 -0.3912 -0.3917  0.0871
  429MOL0     H59190   4.103   6.582  10.814  1.0961 -1.0553 -0.6652
  429MOL0     H59191   4.241   6.684  10.866  0.3084  0.1828 -0.9219
  429MOL0     H59192   4.089   6.870  10.863  0.5520 -0.4359 -1.5989
  429MOL0     H59193   4.031   6.757  10.983 -3.1739 -0.1657 -0.7571
  429MOL0     H59194   3.917   6.711  10.701  0.2974 -0.1855  0.7999
  429MOL0     H59195   3.868   6.660  10.859  0.0239 -2.6038 -2.8420
  429MOL0     H59196   3.767   6.860  10.718 -1.3426 -1.3900  0.9141
  429MOL0     H59197   3.901   6.955  10.789 -2.3059  1.2666 -2.3979
  429MOL0     H59198   3.646   6.959  11.114 -0.4843  1.6603  0.1939
  429MOL0     H59199   4.309   6.822  10.473  2.6704 -0.2849 -1.6821
  429MOL0     H59200   4.433   6.827  10.274 -4.1186 -0.7170 -2.1925
  429MOL0     H59201   4.533   6.701  10.225  1.5814  1.9411  3.0618
  429MOL0     H59202   4.365   6.708  10.176  2.4968  3.3228 -2.9600
  430MOL0     O59203   0.617   8.039   5.168  0.4922 -0.4962  0.1845
  430MOL0     C59204   0.614   8.154   5.130  0.1220  0.4122 -0.6445
  430MOL0     O59205   0.715   8.208   5.051  0.3243 -0.1633 -0.3535
  430MOL0     C59206   0.836   8.140   5.031  0.6173 -0.2147  0.4144
  430MOL0     C59207   0.844   8.015   4.975  0.3419  0.0428 -0.3653
  430MOL0     C59208   0.974   7.969   4.941  0.2023  0.1443 -0.7214
  430MOL0     C59209   1.090   8.046   4.950 -1.0589 -0.1236  0.9583
  430MOL0     O59210   1.212   7.986   4.914  0.9136  0.0474 -0.2006
  430MOL0     C59211   1.262   8.052   4.795 -0.5637 -0.1486 -0.3210
  430MOL0     C59212   1.348   7.949   4.724 -0.6120 -1.2580  1.1246
  430MOL0     C59213   1.413   8.024   4.612  0.0981  0.0019  0.7577
  430MOL0     C59214   1.519   7.952   4.523  0.1068 -0.4604  1.5273
  430MOL0     C59215   1.622   7.868   4.601 -0.4863  0.1167  0.2824
  430MOL0     C59216   1.723   7.822   4.501 -0.2657  0.7547  1.5029
  430MOL0     C59217   1.816   7.730   4.562 -0.3342  0.5438 -0.3666
  430MOL0     C59218   1.919   7.800   4.654 -0.5179  1.6259  0.8740
  430MOL0     N59219   2.032   7.713   4.678 -0.3827 -0.3243  0.1573
  430MOL0     C59220   2.155   7.734   4.633  0.4648  0.9184  0.4118
  430MOL0     C59221   2.240   7.634   4.686  0.4242 -0.0494  0.1588
  430MOL0     C59222   2.386   7.618   4.654  0.8392  0.2236  0.2891
  430MOL0     C59223   2.471   7.633   4.778  0.9348 -0.7308 -0.4023
  430MOL0     C59224   2.440   7.750   4.872  0.8153  0.0904 -0.3827
  430MOL0     C59225   2.484   7.712   5.007 -0.3633 -0.9424 -0.6361
  430MOL0     O59226   2.619   7.749   5.025  0.1000  0.4262 -0.1791
  430MOL0     C59227   2.685   7.787   5.138 -0.4419 -0.0573  0.5589
  430MOL0     C59228   2.826   7.788   5.125 -0.0844 -0.3233  0.4665
  430MOL0     C59229   2.906   7.819   5.239 -0.6924 -0.3131  0.7541
  430MOL0     C59230   3.057   7.833   5.217  0.3262 -0.1516 -0.2242
  430MOL0     C59231   2.846   7.845   5.362  0.0459  0.3420 -0.3425
  430MOL0     C59232   2.923   7.876   5.491  0.0180  0.6288  0.5849
  430MOL0     O59233   2.842   7.918   5.593  0.4956  1.2501  0.1006
  430MOL0     C59234   2.898   7.981   5.699 -0.3239 -0.1557 -0.9473
  430MOL0     C59235   2.847   8.109   5.734 -0.7141  0.1687  0.1728
  430MOL0     C59236   2.890   8.171   5.850  0.5338 -0.3405  0.7596
  430MOL0     C59237   2.993   8.111   5.932  0.5357  0.4161  0.1841
  430MOL0     O59238   3.047   8.161   6.045  0.6446 -0.0476  0.5113
  430MOL0     C59239   2.999   8.292   6.081  0.5999  0.3892  0.3939
  430MOL0     C59240   3.096   8.350   6.185  0.0043 -0.1742  0.3195
  430MOL0     C59241   3.031   8.462   6.263 -0.5054  0.4072 -0.6212
  430MOL0     C59242   3.136   8.523   6.363 -0.0055  0.5716 -0.5001
  430MOL0     C59243   3.080   8.637   6.453  0.5569  0.0151  1.1155
  430MOL0     C59244   2.995   8.577   6.565 -0.4213 -0.4958 -0.0467
  430MOL0     C59245   2.961   8.681   6.672 -0.1097  0.0630 -0.2176
  430MOL0     C59246   2.916   8.613   6.805  0.3832 -0.0133 -0.5694
  430MOL0    Cl59247   3.054   8.527   6.879 -0.3073  0.4089 -0.4725
  430MOL0     C59248   3.033   7.988   5.905 -0.2278  0.7583 -0.3449
  430MOL0     C59249   2.991   7.923   5.786 -0.3529  0.0041 -0.0183
  430MOL0     O59250   3.053   7.874   5.493 -0.8437  0.4582 -0.1124
  430MOL0     C59251   2.704   7.837   5.370 -0.0104  0.4085 -0.3082
  430MOL0     C59252   2.620   7.816   5.258  0.1736  0.1570 -0.2536
  430MOL0     N59253   2.158   7.551   4.758 -0.0454  0.0150  0.2593
  430MOL0     N59254   2.035   7.595   4.749 -0.3393  0.1563  0.3856
  430MOL0     C59255   1.073   8.171   5.002 -0.3984 -0.2242  0.0708
  430MOL0     C59256   0.946   8.219   5.043 -0.6666 -0.5247  0.2366
  430MOL0     C59257   0.495   8.225   5.176 -0.3176 -0.6233  0.6086
  430MOL0     C59258   0.491   8.356   5.121  1.0574 -0.5251 -0.6932
  430MOL0     C59259   0.400   8.447   5.178  0.3987  0.6619 -0.2277
  430MOL0     C59260   0.313   8.404   5.282 -0.3313  0.0771 -0.1050
  430MOL0     O59261   0.228   8.499   5.337  0.4643 -0.0785  0.6444
  430MOL0     C59262   0.170   8.487   5.466  0.9439  0.1595 -0.0901
  430MOL0     C59263   0.124   8.615   5.526  0.6278  0.0880 -0.5236
  430MOL0     C59264   0.088   8.589   5.664  0.2719  0.0939  0.3077
  430MOL0     C59265  -0.026   8.685   5.717  0.8399  0.4964 -1.0270
  430MOL0     C59266  -0.151   8.632   5.656  0.9518  0.2313  0.2437
  430MOL0     C59267  -0.271   8.598   5.640 -0.1892  0.4248  0.0111
  430MOL0     C59268   0.310   8.272   5.316  0.9691  0.9953 -0.6722
  430MOL0     C59269   0.398   8.182   5.275 -0.4557  0.7945 -1.0271
  430MOL0     C59270   0.406   8.049   5.343  0.4490  0.3070  0.1791
  430MOL0     H59271   0.755   7.956   4.955 -0.3352  0.7025  0.6166
  430MOL0     H59272   0.996   7.874   4.894 -0.8064 -0.3421 -0.2396
  430MOL0     H59273   1.323   8.135   4.832  0.6818 -0.9860 -0.4138
  430MOL0     H59274   1.188   8.088   4.724 -2.8774 -4.9405 -0.7212
  430MOL0     H59275   1.423   7.919   4.797 -0.3821  0.4791  1.6523
  430MOL0     H59276   1.284   7.867   4.690  1.1553 -2.6710  1.0867
  430MOL0     H59277   1.326   8.056   4.555  0.0910  4.9208  3.0282
  430MOL0     H59278   1.459   8.112   4.658 -1.0214  0.9369  0.1465
  430MOL0     H59279   1.479   7.880   4.451  0.6295  3.0387 -2.7563
  430MOL0     H59280   1.560   8.031   4.459 -3.9768 -0.9041 -2.0840
  430MOL0     H59281   1.571   7.779   4.640 -2.7926  0.9538 -0.6869
  430MOL0     H59282   1.664   7.922   4.687 -2.7367  0.9251  0.9387
  430MOL0     H59283   1.671   7.765   4.424  1.3453  2.2758 -0.8609
  430MOL0     H59284   1.767   7.907   4.447  1.0996 -1.5862 -1.3597
  430MOL0     H59285   1.859   7.685   4.472  1.2454  0.8966  0.1784
  430MOL0     H59286   1.756   7.661   4.621  0.8024  0.4614  0.7382
  430MOL0     H59287   1.956   7.895   4.614  1.2687  0.9472  0.8321
  430MOL0     H59288   1.867   7.821   4.748 -1.5949 -0.0515  0.6955
  430MOL0     H59289   2.182   7.814   4.564  0.1839  3.1708  2.7299
  430MOL0     H59290   2.425   7.681   4.573 -1.6252 -0.3514 -1.4808
  430MOL0     H59291   2.390   7.513   4.624 -0.1141  0.4400 -0.6782
  430MOL0     H59292   2.465   7.542   4.839  3.0470 -0.5070  0.2302
  430MOL0     H59293   2.578   7.646   4.759  1.4044  0.9500  2.7824
  430MOL0     H59294   2.468   7.852   4.844 -1.8140  0.4191 -2.1768
  430MOL0     H59295   2.331   7.761   4.874  0.9332  1.3689 -0.3816
  430MOL0     H59296   2.418   7.766   5.077 -0.9847 -2.6912  0.1706
  430MOL0     H59297   2.469   7.607   5.032  1.6024 -0.7725  1.6628
  430MOL0     H59298   2.877   7.770   5.031  1.3871 -0.4967  1.2651
  430MOL0     H59299   3.104   7.748   5.267  1.8956  0.8869  0.1742
  430MOL0     H59300   3.094   7.927   5.260  1.6325  0.5294 -2.6237
  430MOL0     H59301   3.095   7.835   5.114  1.5351 -0.1705  0.1976
  430MOL0     H59302   2.773   8.155   5.670 -1.3663 -0.8423  0.1710
  430MOL0     H59303   2.853   8.271   5.871  0.0252 -0.4177  0.2503
  430MOL0     H59304   3.006   8.363   5.997 -2.7816 -0.7903 -1.0605
  430MOL0     H59305   2.894   8.290   6.109 -0.1329 -0.8922 -2.1393
  430MOL0     H59306   3.119   8.264   6.249  0.3933 -1.3232 -1.3011
  430MOL0     H59307   3.189   8.391   6.144  1.2162  2.0689  4.6306
  430MOL0     H59308   2.941   8.432   6.317  1.2319 -1.5987  1.3577
  430MOL0     H59309   3.001   8.538   6.190 -0.3244  2.7247  1.5548
  430MOL0     H59310   3.221   8.562   6.306 -0.0564  1.5333  0.0569
  430MOL0     H59311   3.178   8.442   6.423  1.7561 -0.5623 -3.0796
  430MOL0     H59312   3.162   8.693   6.501  2.2870  2.6567 -4.1526
  430MOL0     H59313   3.019   8.711   6.400  0.9863 -1.1027 -1.0476
  430MOL0     H59314   3.064   8.500   6.601  1.8773  2.1715  1.7631
  430MOL0     H59315   2.900   8.535   6.531 -1.9750  2.1316  0.7176
  430MOL0     H59316   2.876   8.740   6.636 -2.5174 -1.0586  3.1049
  430MOL0     H59317   3.047   8.746   6.691 -0.9531  2.0261 -2.5996
  430MOL0     H59318   2.838   8.538   6.787  1.2970 -1.7736  2.0967
  430MOL0     H59319   2.874   8.691   6.869 -0.1893  0.9740 -2.0915
  430MOL0     H59320   3.099   7.936   5.973  0.9045  2.4254 -0.0937
  430MOL0     H59321   3.035   7.827   5.760  0.0934 -0.2612  1.6430
  430MOL0     H59322   2.656   7.842   5.468  0.8232 -1.9872  0.2908
  430MOL0     H59323   2.513   7.816   5.276  0.6839  0.4617  3.6398
  430MOL0     H59324   1.164   8.229   5.014  0.5739 -1.4306 -1.1522
  430MOL0     H59325   0.949   8.318   5.087 -0.9748 -1.0388  1.4489
  430MOL0     H59326   0.549   8.400   5.041 -0.9182  0.8741 -1.4167
  430MOL0     H59327   0.392   8.550   5.148  2.5927  0.7329 -0.7318
  430MOL0     H59328   0.091   8.412   5.464  0.8754  0.2408 -1.3000
  430MOL0     H59329   0.251   8.456   5.533 -1.8115  3.0841  5.2760
  430MOL0     H59330   0.042   8.656   5.467  2.2063 -1.5456 -4.1748
  430MOL0     H59331   0.200   8.694   5.519 -0.9104  1.4663 -3.8747
  430MOL0     H59332   0.050   8.487   5.674  0.2022 -0.0435 -1.0590
  430MOL0     H59333   0.164   8.592   5.742 -0.6563 -0.7241  1.2587
  430MOL0     H59334   0.005   8.784   5.684  1.6060  0.5181 -0.2746
  430MOL0     H59335  -0.045   8.681   5.824  0.0684  1.9176 -1.0910
  430MOL0     H59336  -0.371   8.560   5.641  1.4511 -4.9887  3.3215
  430MOL0     H59337   0.237   8.227   5.384  2.6921 -1.2866 -0.1789
  430MOL0     H59338   0.325   8.028   5.414 -1.0053  1.3938 -1.0891
  430MOL0     H59339   0.403   7.972   5.267  1.6539 -0.9144  1.3204
  430MOL0     H59340   0.505   8.046   5.391  0.3255 -0.3047  0.3978
  431MOL0     O59341   7.964   0.713   3.750  0.1501 -0.4466 -0.3662
  431MOL0     C59342   7.877   0.649   3.696  0.0940 -0.4223  0.8736
  431MOL0     O59343   7.792   0.691   3.592 -0.3314 -0.5961  0.4078
  431MOL0     C59344   7.830   0.814   3.543 -0.4115 -0.2413  0.3102
  431MOL0     C59345   7.917   0.819   3.437 -0.6949 -0.2681 -0.8567
  431MOL0     C59346   7.965   0.937   3.389  0.1372  0.0567  0.3962
  431MOL0     C59347   7.900   1.053   3.429 -0.5754  0.3924  0.1585
  431MOL0     O59348   7.913   1.167   3.360  0.0822  0.5356 -0.8178
  431MOL0     C59349   8.024   1.205   3.281  0.4006  0.1164  0.2091
  431MOL0     C59350   8.004   1.327   3.194 -0.5568 -0.6462 -0.1098
  431MOL0     C59351   8.116   1.386   3.117  0.4696 -0.9683 -0.2819
  431MOL0     C59352   8.065   1.521   3.071 -0.0528 -0.1756 -0.1468
  431MOL0     C59353   8.161   1.597   2.982 -0.0845  0.6708  0.4786
  431MOL0     C59354   8.165   1.750   3.014 -0.4637 -0.1784  0.2773
  431MOL0     C59355   8.228   1.840   2.907 -0.3317 -0.6622  0.1012
  431MOL0     C59356   8.387   1.854   2.914 -0.4608  0.4325 -0.1898
  431MOL0     N59357   8.441   1.885   3.049 -0.2485 -0.5426 -0.7702
  431MOL0     C59358   8.416   1.992   3.135 -0.7990 -0.1705  0.8017
  431MOL0     C59359   8.493   1.988   3.238 -0.0448  0.1202 -0.1577
  431MOL0     C59360   8.511   2.081   3.344  0.3718  0.2062  0.3388
  431MOL0     C59361   8.437   2.028   3.474  1.0115  0.5471  0.4415
  431MOL0     C59362   8.315   2.107   3.533 -0.6633 -0.6741  0.2124
  431MOL0     C59363   8.183   2.046   3.499 -0.0644  0.4774  0.2810
  431MOL0     O59364   8.076   2.088   3.584  0.5689  0.2264  0.8281
  431MOL0     C59365   7.952   2.031   3.574 -0.0402 -0.0081 -0.9210
  431MOL0     C59366   7.907   1.942   3.474 -0.2672 -0.4488 -0.5945
  431MOL0     C59367   7.773   1.900   3.463 -0.4760  0.9991  0.5427
  431MOL0     C59368   7.731   1.814   3.347 -0.3891  0.5509 -0.0055
  431MOL0     C59369   7.673   1.952   3.555 -0.5955  0.3530  0.4124
  431MOL0     C59370   7.531   1.915   3.567  0.0125 -0.3246  0.1114
  431MOL0     O59371   7.465   1.968   3.675  0.1425 -0.0743  0.2172
  431MOL0     C59372   7.340   1.922   3.703  0.7509 -0.0845  0.2097
  431MOL0     C59373   7.328   1.841   3.814 -0.6476 -1.3683  0.1307
  431MOL0     C59374   7.200   1.808   3.855  0.0370  1.0846 -0.0661
  431MOL0     C59375   7.082   1.847   3.791 -0.2213 -0.0154  0.0628
  431MOL0     O59376   6.958   1.800   3.823  0.1255  0.2151  0.4141
  431MOL0     C59377   6.940   1.784   3.962  0.3096  0.6619 -0.5649
  431MOL0     C59378   6.793   1.778   3.994 -0.8530  0.7042 -0.8875
  431MOL0     C59379   6.708   1.880   3.921 -0.2061  0.7345 -0.3327
  431MOL0     C59380   6.566   1.864   3.956  0.7367  0.0018  0.7908
  431MOL0     C59381   6.502   2.000   3.924 -0.3579  0.1825  1.3374
  431MOL0     C59382   6.357   1.995   3.961  0.2811 -0.6534 -0.1125
  431MOL0     C59383   6.280   2.126   3.908  0.0412  0.2554 -0.8268
  431MOL0     C59384   6.134   2.099   3.910 -0.7321  0.0936 -0.0473
  431MOL0    Cl59385   6.067   2.084   4.068 -0.1440 -0.6311  0.1756
  431MOL0     C59386   7.088   1.939   3.685  0.3383 -0.3560 -0.9672
  431MOL0     C59387   7.223   1.975   3.643  0.7129  0.1880 -0.3388
  431MOL0     O59388   7.496   1.818   3.503  0.3389 -0.0758 -0.0690
  431MOL0     C59389   7.726   2.042   3.654 -0.3924  0.7892 -0.0691
  431MOL0     C59390   7.854   2.083   3.657  0.1714  0.5204 -0.3874
  431MOL0     N59391   8.573   1.876   3.216  0.0662 -0.0647 -0.3055
  431MOL0     N59392   8.546   1.812   3.108  0.0910 -1.0439  0.2033
  431MOL0     C59393   7.814   1.049   3.538  0.2755  1.2482  0.0809
  431MOL0     C59394   7.779   0.930   3.598  0.5901  0.1625 -0.0243
  431MOL0     C59395   7.841   0.523   3.759 -0.0382  0.4078 -0.6419
  431MOL0     C59396   7.857   0.513   3.898  0.5336  0.0886 -0.3958
  431MOL0     C59397   7.812   0.399   3.968 -0.5968  0.5023  0.1534
  431MOL0     C59398   7.753   0.293   3.900 -0.2517  0.0358  0.6478
  431MOL0     O59399   7.698   0.183   3.946 -0.3944 -0.6653  0.5246
  431MOL0     C59400   7.663   0.189   4.084 -1.1054  0.5857 -0.2438
  431MOL0     C59401   7.542   0.096   4.079 -0.0430  0.6524  0.3930
  431MOL0     C59402   7.494   0.083   4.230  1.4387 -0.6973 -0.2747
  431MOL0     C59403   7.357  -0.002   4.230 -0.7667  0.0984 -0.6377
  431MOL0     C59404   7.235   0.069   4.178 -0.9936 -0.0936  0.6856
  431MOL0     C59405   7.138   0.118   4.127 -0.6136 -0.6814 -0.4825
  431MOL0     C59406   7.734   0.303   3.765  0.0012  0.3899  0.2067
  431MOL0     C59407   7.790   0.411   3.690 -0.0317  0.2017 -0.7836
  431MOL0     C59408   7.771   0.396   3.540  0.0227 -0.3473 -0.1334
  431MOL0     H59409   7.975   0.730   3.415  2.3813  1.2023  0.7307
  431MOL0     H59410   8.046   0.934   3.317 -1.6382  0.3319 -1.7184
  431MOL0     H59411   8.043   1.129   3.205 -1.0925 -0.2580  0.1941
  431MOL0     H59412   8.114   1.212   3.344 -1.2349  1.0456  2.5676
  431MOL0     H59413   7.926   1.300   3.123 -0.0891 -2.5453  0.0440
  431MOL0     H59414   7.967   1.395   3.271 -1.1224 -0.1651 -0.7927
  431MOL0     H59415   8.207   1.393   3.178 -1.1682  0.2664  2.1581
  431MOL0     H59416   8.130   1.325   3.027  1.8451 -2.3609  0.8242
  431MOL0     H59417   7.968   1.510   3.022 -1.1545 -0.6639  2.0125
  431MOL0     H59418   8.051   1.577   3.163 -0.6308 -0.6677  0.0698
  431MOL0     H59419   8.139   1.592   2.875  0.6677  0.7985  0.3133
  431MOL0     H59420   8.261   1.553   2.985  0.7870  2.6092  2.3121
  431MOL0     H59421   8.072   1.803   3.038  1.1399  3.2380 -0.4550
  431MOL0     H59422   8.232   1.757   3.100  0.8774 -2.3064 -0.5090
  431MOL0     H59423   8.186   1.940   2.920  2.6821  0.5375  1.6583
  431MOL0     H59424   8.184   1.813   2.811  0.8509 -1.0805 -0.3432
  431MOL0     H59425   8.430   1.766   2.866 -2.9701  1.3347 -4.6453
  431MOL0     H59426   8.407   1.936   2.844 -1.1161  0.4511 -0.3708
  431MOL0     H59427   8.347   2.075   3.124 -0.7240 -0.3091 -1.1701
  431MOL0     H59428   8.474   2.180   3.316  0.8812  0.0051 -1.0894
  431MOL0     H59429   8.613   2.103   3.376 -0.0350 -0.4479  2.2644
  431MOL0     H59430   8.409   1.927   3.442 -2.4737  2.4430 -3.5429
  431MOL0     H59431   8.512   2.029   3.554 -1.0741 -2.1443  2.6303
  431MOL0     H59432   8.327   2.120   3.641 -0.1104  0.5774  0.0178
  431MOL0     H59433   8.320   2.210   3.495 -2.2358 -0.2597  1.0467
  431MOL0     H59434   8.152   2.071   3.398  1.7453 -0.2606 -0.5025
  431MOL0     H59435   8.190   1.937   3.509 -0.3704  0.6161  2.5255
  431MOL0     H59436   7.966   1.882   3.405  0.2830  0.3808 -0.8524
  431MOL0     H59437   7.715   1.711   3.381  1.1245 -0.1243 -1.2206
  431MOL0     H59438   7.808   1.813   3.270 -0.8381  1.4224 -0.4826
  431MOL0     H59439   7.640   1.855   3.300 -0.4392 -0.6677 -1.0254
  431MOL0     H59440   7.418   1.798   3.859  0.0848  0.8365  0.9306
  431MOL0     H59441   7.199   1.740   3.939 -0.7731 -0.4264 -1.2455
  431MOL0     H59442   6.992   1.694   3.999 -1.2297  0.7856  2.1664
  431MOL0     H59443   6.981   1.870   4.016  0.6276  0.3744 -0.3432
  431MOL0     H59444   6.766   1.676   3.967  3.1962  0.0784 -3.4321
  431MOL0     H59445   6.776   1.771   4.102 -0.0274 -0.9840 -0.8391
  431MOL0     H59446   6.718   1.869   3.812  1.7241 -1.5171 -0.0189
  431MOL0     H59447   6.741   1.976   3.961 -2.1205  1.0727  0.5521
  431MOL0     H59448   6.556   1.846   4.063 -0.2662  1.1948  0.9164
  431MOL0     H59449   6.521   1.776   3.909 -0.6225 -0.1795  2.3641
  431MOL0     H59450   6.546   2.081   3.983  1.2240  2.3050 -2.4423
  431MOL0     H59451   6.508   2.024   3.817 -4.6971 -1.6656  0.4435
  431MOL0     H59452   6.347   1.997   4.069 -0.7236  2.5720 -0.1610
  431MOL0     H59453   6.312   1.902   3.925 -0.7242 -0.3577  0.3473
  431MOL0     H59454   6.318   2.143   3.807  1.9760 -1.1505 -0.3933
  431MOL0     H59455   6.300   2.202   3.984 -0.3642 -1.2230  0.8350
  431MOL0     H59456   6.113   2.016   3.842  1.3317 -0.8071  0.3082
  431MOL0     H59457   6.086   2.189   3.872 -1.3618  0.0244  0.5508
  431MOL0     H59458   6.998   1.977   3.637  0.9100  0.9074 -1.0987
  431MOL0     H59459   7.221   2.049   3.564  0.5878 -0.2503 -0.7470
  431MOL0     H59460   7.671   2.091   3.733  0.5709  1.1555  0.3897
  431MOL0     H59461   7.873   2.160   3.732 -2.4753  1.4218 -0.5409
  431MOL0     H59462   7.761   1.140   3.566 -3.4480 -0.8693  0.4683
  431MOL0     H59463   7.721   0.916   3.688 -0.1497 -0.8790 -0.6430
  431MOL0     H59464   7.897   0.590   3.964  1.7988 -2.2668  1.7777
  431MOL0     H59465   7.832   0.400   4.074 -2.7582 -0.0872  0.6185
  431MOL0     H59466   7.741   0.158   4.154 -1.9462 -1.3366 -0.0934
  431MOL0     H59467   7.629   0.290   4.113 -0.7321  0.3854  0.9435
  431MOL0     H59468   7.566  -0.005   4.045  1.6274  1.2030 -0.1831
  431MOL0     H59469   7.464   0.151   4.026 -1.2347 -1.0398  0.2876
  431MOL0     H59470   7.563   0.025   4.292 -0.7448 -0.6281  2.4283
  431MOL0     H59471   7.483   0.180   4.279  0.0024 -2.6249  3.6831
  431MOL0     H59472   7.336  -0.044   4.329  2.0475 -0.3428 -0.1345
  431MOL0     H59473   7.363  -0.095   4.173 -0.4739  1.0640 -2.2568
  431MOL0     H59474   7.047   0.162   4.090 -0.4510  2.2923  2.1436
  431MOL0     H59475   7.695   0.224   3.702  2.7461  0.5508 -1.9062
  431MOL0     H59476   7.803   0.487   3.489 -1.8799  0.9594  0.9070
  431MOL0     H59477   7.822   0.309   3.498  0.5399 -0.4721  0.7319
  431MOL0     H59478   7.665   0.396   3.511  0.1032  1.7285 -0.5910
  432MOL0     O59479   4.787   1.318   3.541  0.7792 -0.2465 -1.0343
  432MOL0     C59480   4.898   1.355   3.501 -0.5811  0.4369 -0.2329
  432MOL0     O59481   5.016   1.297   3.539  0.2709 -0.3393  0.2497
  432MOL0     C59482   5.011   1.178   3.612  0.0746 -0.2480 -0.0230
  432MOL0     C59483   4.983   1.059   3.541  0.1364  0.1083 -0.4374
  432MOL0     C59484   4.938   0.937   3.605 -0.6921 -0.2727  0.5010
  432MOL0     C59485   4.917   0.945   3.745 -0.4284 -0.1112 -0.1087
  432MOL0     O59486   4.865   0.834   3.797 -0.3297 -0.1916  0.2046
  432MOL0     C59487   4.846   0.829   3.941  0.1261  0.4457 -0.2950
  432MOL0     C59488   4.797   0.684   3.958  0.6285  0.8148 -0.7358
  432MOL0     C59489   4.745   0.668   4.100 -0.1584  0.2099 -0.1236
  432MOL0     C59490   4.674   0.534   4.122 -0.1890 -0.2904  0.5626
  432MOL0     C59491   4.546   0.506   4.027  0.1774  0.4096 -0.7690
  432MOL0     C59492   4.443   0.615   4.032 -0.8187  0.3326  0.0333
  432MOL0     C59493   4.337   0.595   3.917  0.3928  1.0179  0.3002
  432MOL0     C59494   4.240   0.477   3.928  0.4689  0.8700 -0.0613
  432MOL0     N59495   4.302   0.349   3.893 -0.2575 -0.5861  0.2206
  432MOL0     C59496   4.303   0.234   3.966 -0.4501  0.2883  0.2879
  432MOL0     C59497   4.354   0.148   3.885 -0.5703  0.0979 -0.3342
  432MOL0     C59498   4.331   0.001   3.910 -0.2950  0.4369  0.5215
  432MOL0     C59499   4.461  -0.071   3.953  0.7073 -0.3918  0.7169
  432MOL0     C59500   4.452  -0.223   3.985  0.8373  0.5420  0.1204
  432MOL0     C59501   4.396  -0.301   3.871  0.1529  0.5619  0.3278
  432MOL0     O59502   4.480  -0.289   3.759 -0.1890 -0.3686  1.0263
  432MOL0     C59503   4.608  -0.351   3.765 -0.3472 -0.0003  0.7098
  432MOL0     C59504   4.690  -0.312   3.655 -0.6163  0.5570 -0.2193
  432MOL0     C59505   4.821  -0.357   3.646 -0.1442  0.2305  0.2125
  432MOL0     C59506   4.898  -0.298   3.529 -0.4477 -0.0040  0.2742
  432MOL0     C59507   4.865  -0.456   3.733  0.0481 -0.5479 -0.2892
  432MOL0     C59508   5.003  -0.511   3.722  0.2542  0.1050 -0.2036
  432MOL0     O59509   5.030  -0.631   3.778 -0.2431  0.4459 -0.4104
  432MOL0     C59510   5.142  -0.711   3.747  0.2381 -0.3678  0.7088
  432MOL0     C59511   5.268  -0.680   3.814 -0.1319  0.2186  0.5132
  432MOL0     C59512   5.373  -0.765   3.776  0.5867  0.2928  0.4305
  432MOL0     C59513   5.369  -0.854   3.666  0.7896 -0.4342 -0.5768
  432MOL0     O59514   5.480  -0.924   3.633  0.1761 -0.8322  0.7099
  432MOL0     C59515   5.469  -1.037   3.542  0.6593 -0.8860  0.1942
  432MOL0     C59516   5.592  -1.125   3.543  0.5097  0.5158 -0.4469
  432MOL0     C59517   5.716  -1.048   3.501 -0.2941 -0.7352  0.2931
  432MOL0     C59518   5.725  -1.027   3.355  0.1804 -0.3105 -0.2738
  432MOL0     C59519   5.861  -1.011   3.301 -0.4479  0.7060  0.2282
  432MOL0     C59520   5.913  -0.864   3.326 -0.0348  0.2931  1.2647
  432MOL0     C59521   6.051  -0.842   3.266  0.0474  0.8638  0.1512
  432MOL0     C59522   6.103  -0.703   3.296 -0.5941  0.6160  1.2098
  432MOL0    Cl59523   6.280  -0.686   3.275 -0.0139 -0.5126 -0.1610
  432MOL0     C59524   5.249  -0.879   3.603 -0.5109 -0.2561 -0.1714
  432MOL0     C59525   5.134  -0.806   3.645  0.4698 -0.0588  0.8930
  432MOL0     O59526   5.087  -0.444   3.663 -0.3293 -0.2303  0.1694
  432MOL0     C59527   4.785  -0.517   3.825  0.3083  0.1553  0.0630
  432MOL0     C59528   4.653  -0.458   3.837  0.1483 -0.7037 -0.3271
  432MOL0     N59529   4.389   0.202   3.767  0.9133 -0.1918  0.4422
  432MOL0     N59530   4.369   0.328   3.773 -0.3347 -0.5039  0.2661
  432MOL0     C59531   4.945   1.058   3.822 -0.3621 -0.2470  0.3875
  432MOL0     C59532   5.005   1.175   3.755  1.2047 -0.2169 -0.0212
  432MOL0     C59533   4.905   1.462   3.391  0.0800  0.5576 -0.8710
  432MOL0     C59534   4.794   1.550   3.375  0.3281  0.2660 -0.1275
  432MOL0     C59535   4.804   1.671   3.298 -0.1087  0.0266 -0.5786
  432MOL0     C59536   4.913   1.694   3.217  0.7526 -0.3029 -0.2763
  432MOL0     O59537   4.922   1.805   3.139 -0.1605  0.2626  0.0595
  432MOL0     C59538   4.898   1.929   3.204 -1.2889 -0.2290 -0.1925
  432MOL0     C59539   4.963   2.037   3.107  0.6816  0.5006 -0.0464
  432MOL0     C59540   4.938   2.182   3.153  0.4034  0.6567 -0.0154
  432MOL0     C59541   4.796   2.223   3.177 -0.2291 -0.1461  0.0959
  432MOL0     C59542   4.731   2.269   3.052  0.2711  0.5319  0.9193
  432MOL0     C59543   4.684   2.306   2.948  0.1442 -0.4890  0.1883
  432MOL0     C59544   5.014   1.606   3.223 -1.0095 -0.1673 -0.5028
  432MOL0     C59545   5.021   1.490   3.316 -1.3535  0.0388  0.6246
  432MOL0     C59546   5.145   1.406   3.309 -0.2952  0.3119 -0.2755
  432MOL0     H59547   4.978   1.068   3.433 -1.9952 -4.0769 -0.9110
  432MOL0     H59548   4.906   0.847   3.555  0.3426  0.2819 -1.2538
  432MOL0     H59549   4.766   0.894   3.979 -2.3501 -2.8077  0.5143
  432MOL0     H59550   4.936   0.854   3.998  0.9115 -0.4993 -1.0868
  432MOL0     H59551   4.717   0.659   3.887  1.4904 -2.3305 -0.7556
  432MOL0     H59552   4.876   0.615   3.929  0.0093 -0.7275  1.0813
  432MOL0     H59553   4.834   0.681   4.162 -0.1080 -1.9581  0.3224
  432MOL0     H59554   4.694   0.763   4.122  0.6203  0.1652  2.2608
  432MOL0     H59555   4.753   0.460   4.109 -1.7886 -1.9460 -0.1740
  432MOL0     H59556   4.651   0.538   4.229  3.3461  1.6534  1.4099
  432MOL0     H59557   4.493   0.421   4.069  1.3481  0.0940  0.1156
  432MOL0     H59558   4.591   0.485   3.930  0.1870 -0.0600 -0.6617
  432MOL0     H59559   4.386   0.601   4.124  1.0895 -1.2297  1.0324
  432MOL0     H59560   4.490   0.713   4.044 -1.7336  0.9398 -1.0642
  432MOL0     H59561   4.388   0.596   3.820 -3.3738 -0.3502 -1.8952
  432MOL0     H59562   4.262   0.675   3.919 -0.8711 -0.1208 -0.2892
  432MOL0     H59563   4.205   0.481   4.032 -0.4389  1.6490 -0.3838
  432MOL0     H59564   4.147   0.487   3.872  0.3807  3.3519  0.4453
  432MOL0     H59565   4.250   0.223   4.060  0.3094  0.3453  0.7312
  432MOL0     H59566   4.299  -0.037   3.813  3.3931  1.8778 -1.4590
  432MOL0     H59567   4.253  -0.019   3.985 -1.0341 -0.6545 -0.5161
  432MOL0     H59568   4.539  -0.046   3.881 -1.1119  0.8727 -0.9415
  432MOL0     H59569   4.495  -0.023   4.046 -0.7010  0.8627  0.6362
  432MOL0     H59570   4.541  -0.266   4.031 -0.9050 -2.5512  0.8520
  432MOL0     H59571   4.374  -0.218   4.061  1.1202  4.9062  0.3913
  432MOL0     H59572   4.384  -0.407   3.893 -2.0008  0.8400  0.7151
  432MOL0     H59573   4.293  -0.278   3.843 -0.4819 -0.2119  1.8499
  432MOL0     H59574   4.648  -0.236   3.590 -0.1821  1.1219  0.1585
  432MOL0     H59575   4.952  -0.377   3.478 -0.9544  1.0454 -1.9939
  432MOL0     H59576   4.964  -0.224   3.576 -0.4282  1.0018 -1.2788
  432MOL0     H59577   4.837  -0.243   3.457 -0.9251  0.8212  1.2781
  432MOL0     H59578   5.299  -0.598   3.879 -1.4914  1.4331 -0.3095
  432MOL0     H59579   5.459  -0.754   3.841 -0.5005  3.8256  1.4916
  432MOL0     H59580   5.383  -1.098   3.571 -1.8251  1.2760 -2.0601
  432MOL0     H59581   5.460  -1.008   3.437  1.4599  0.3599  0.4495
  432MOL0     H59582   5.592  -1.172   3.642 -0.9206 -0.3538 -0.8232
  432MOL0     H59583   5.574  -1.211   3.478 -3.0684 -0.0928  1.1012
  432MOL0     H59584   5.802  -1.103   3.540 -0.1301  1.0607  2.7298
  432MOL0     H59585   5.720  -0.953   3.556 -3.1370 -1.7424  2.4452
  432MOL0     H59586   5.670  -0.935   3.335 -0.9956 -0.7522  0.8039
  432MOL0     H59587   5.666  -1.103   3.303  0.4736 -1.9765  1.6958
  432MOL0     H59588   5.929  -1.079   3.351 -0.9022 -1.6232 -2.0873
  432MOL0     H59589   5.862  -1.039   3.195 -2.4579 -2.3414  0.9022
  432MOL0     H59590   5.911  -0.837   3.432 -2.5298  1.4649  0.9743
  432MOL0     H59591   5.852  -0.799   3.264  1.7685  1.1059  0.2541
  432MOL0     H59592   6.052  -0.849   3.157 -0.8397 -0.8834  0.2238
  432MOL0     H59593   6.118  -0.920   3.304 -0.2955  0.1392 -0.6982
  432MOL0     H59594   6.064  -0.673   3.393  3.1261 -0.3620  3.2053
  432MOL0     H59595   6.068  -0.640   3.213 -0.2033 -0.7099 -0.0045
  432MOL0     H59596   5.237  -0.945   3.517  2.6403  0.9168 -1.6888
  432MOL0     H59597   5.039  -0.813   3.593  1.7842 -1.0816 -1.5279
  432MOL0     H59598   4.816  -0.603   3.884 -0.9986 -0.2639  0.1626
  432MOL0     H59599   4.586  -0.500   3.913 -0.6711 -0.6514 -1.0052
  432MOL0     H59600   4.926   1.054   3.929  3.9025 -1.4501  1.2866
  432MOL0     H59601   5.027   1.264   3.813 -2.3388 -0.2647  1.6414
  432MOL0     H59602   4.703   1.516   3.424  1.6922 -1.4992  1.3141
  432MOL0     H59603   4.716   1.733   3.306 -1.2454 -1.7077  1.6164
  432MOL0     H59604   4.790   1.947   3.216 -1.0635  0.8021  0.4919
  432MOL0     H59605   4.937   1.922   3.306 -0.6458 -2.3171 -0.5300
  432MOL0     H59606   4.944   2.019   3.000  1.9482 -2.4563  0.1254
  432MOL0     H59607   5.071   2.020   3.114  1.3530  4.1740  0.0595
  432MOL0     H59608   4.991   2.184   3.248  0.0045 -0.7883  0.2661
  432MOL0     H59609   4.982   2.251   3.081 -3.1487 -0.8808 -4.1298
  432MOL0     H59610   4.786   2.305   3.248 -2.3628  0.2044 -0.5248
  432MOL0     H59611   4.749   2.141   3.232 -0.4742  1.0956  1.8365
  432MOL0     H59612   4.636   2.343   2.860 -0.5547  1.1439  1.2215
  432MOL0     H59613   5.105   1.638   3.173 -1.2869 -1.0709 -1.6118
  432MOL0     H59614   5.209   1.435   3.225 -0.5366 -0.0313 -0.5854
  432MOL0     H59615   5.200   1.427   3.401  0.8585  1.9165 -1.2867
  432MOL0     H59616   5.117   1.300   3.306  0.1113  0.2171 -1.1011
  433MOL0     O59617   9.249   2.965   9.225 -0.2516  0.1417  0.0187
  433MOL0     C59618   9.213   3.005   9.334 -0.9630  0.9439 -0.5476
  433MOL0     O59619   9.089   2.999   9.385  0.0094 -0.7529 -0.0901
  433MOL0     C59620   8.989   2.951   9.304  0.6866  0.0028  0.7880
  433MOL0     C59621   8.974   2.812   9.281  0.0830 -1.2274 -0.6134
  433MOL0     C59622   8.878   2.767   9.194 -0.5154  0.3906  0.0049
  433MOL0     C59623   8.791   2.861   9.123 -1.4494  0.6637 -0.5812
  433MOL0     O59624   8.692   2.824   9.036 -0.7471  0.4568 -0.0928
  433MOL0     C59625   8.691   2.685   8.994 -0.5625 -1.1235 -0.3146
  433MOL0     C59626   8.580   2.668   8.890 -0.4988 -0.6342  0.0449
  433MOL0     C59627   8.587   2.761   8.769  0.4643  0.1876  0.3618
  433MOL0     C59628   8.459   2.757   8.673 -0.4729  0.0131  0.0930
  433MOL0     C59629   8.457   2.849   8.543 -0.3007  0.3987  0.2368
  433MOL0     C59630   8.506   2.989   8.567 -0.2116  0.0816 -0.6273
  433MOL0     C59631   8.437   3.070   8.682 -0.3623  0.0380  0.0420
  433MOL0     C59632   8.483   3.212   8.696 -0.4637  0.9246 -0.8077
  433MOL0     N59633   8.616   3.235   8.756  0.2595 -0.8826 -0.2664
  433MOL0     C59634   8.743   3.238   8.688  0.2037 -0.0064  0.3624
  433MOL0     C59635   8.831   3.245   8.782 -0.8589  1.3572 -0.4176
  433MOL0     C59636   8.978   3.227   8.782  0.4800 -0.0272 -0.2842
  433MOL0     C59637   9.035   3.107   8.857 -0.1806  0.6935  0.1372
  433MOL0     C59638   8.999   2.963   8.805  0.4248  0.2734 -0.1243
  433MOL0     C59639   9.089   2.868   8.894  0.3736  0.5590 -0.0120
  433MOL0     O59640   9.063   2.738   8.842  0.1855 -0.3798  0.2342
  433MOL0     C59641   9.142   2.636   8.876 -0.1779  0.2402 -0.1588
  433MOL0     C59642   9.098   2.515   8.832 -0.1587 -0.5789  0.8827
  433MOL0     C59643   9.155   2.392   8.868 -0.0332  0.1251 -0.1405
  433MOL0     C59644   9.071   2.268   8.846 -0.8227  0.3398 -0.6156
  433MOL0     C59645   9.278   2.388   8.935 -0.0120  0.2300 -0.5195
  433MOL0     C59646   9.368   2.267   8.958  0.6472  1.2695 -0.5074
  433MOL0     O59647   9.488   2.297   9.016 -1.2684 -0.0592  0.3521
  433MOL0     C59648   9.572   2.188   9.047 -0.5324  0.3771 -0.4628
  433MOL0     C59649   9.543   2.052   9.090  0.8167 -0.5667 -0.4974
  433MOL0     C59650   9.637   1.957   9.081  0.2972  0.7553 -0.0833
  433MOL0     C59651   9.771   1.990   9.056 -0.3333  0.5151  0.3848
  433MOL0     O59652   9.863   1.892   9.060 -0.1995  0.4841  0.1094
  433MOL0     C59653   9.888   1.816   9.180 -0.8940 -0.4617  0.6921
  433MOL0     C59654  10.034   1.770   9.188 -0.9795  0.7678  1.2590
  433MOL0     C59655  10.059   1.658   9.083 -0.5216  0.5372 -0.0135
  433MOL0     C59656  10.180   1.576   9.141  0.2474  0.4521 -0.3553
  433MOL0     C59657  10.325   1.625   9.113  0.2508 -0.4052  0.6133
  433MOL0     C59658  10.441   1.542   9.173 -0.5587 -0.4051  0.6942
  433MOL0     C59659  10.573   1.598   9.100  0.5864 -0.4465 -0.3155
  433MOL0     C59660  10.691   1.610   9.194  0.0727 -0.5945  0.0280
  433MOL0    Cl59661  10.718   1.787   9.244  0.4411  0.2110 -0.1784
  433MOL0     C59662   9.801   2.130   9.034  0.6934  0.1665 -0.0199
  433MOL0     C59663   9.702   2.225   9.025 -0.5516  0.2473  0.1850
  433MOL0     O59664   9.328   2.153   8.928 -0.7906 -0.8519 -0.0434
  433MOL0     C59665   9.328   2.514   8.979  0.5065 -0.5300  0.9609
  433MOL0     C59666   9.261   2.631   8.948  0.2019 -0.2854  1.2034
  433MOL0     N59667   8.773   3.242   8.905 -0.2769  0.0613  0.4541
  433MOL0     N59668   8.639   3.233   8.885 -0.0877 -0.1061  0.8141
  433MOL0     C59669   8.808   2.997   9.146 -0.7280 -0.7849  0.4228
  433MOL0     C59670   8.903   3.045   9.241 -0.2150  1.0030  0.0607
  433MOL0     C59671   9.326   3.065   9.411 -0.2791  0.1918  0.3061
  433MOL0     C59672   9.403   3.162   9.340 -0.1004 -0.9352  0.2205
  433MOL0     C59673   9.514   3.223   9.398  0.1810  0.2011 -0.1884
  433MOL0     C59674   9.564   3.174   9.519  0.0783  0.0094 -0.2455
  433MOL0     O59675   9.685   3.214   9.574  0.2058 -0.6036 -0.5009
  433MOL0     C59676   9.702   3.359   9.570 -0.5585 -0.0498  0.7304
  433MOL0     C59677   9.657   3.421   9.698 -0.6011  0.4284 -0.1582
  433MOL0     C59678   9.721   3.366   9.827 -0.0330 -0.6196  0.2135
  433MOL0     C59679   9.874   3.365   9.827  1.1984 -0.7171  0.3579
  433MOL0     C59680   9.907   3.299   9.957 -0.0188 -1.2399  1.1202
  433MOL0     C59681   9.929   3.250  10.058 -0.5976  0.9938  0.4026
  433MOL0     C59682   9.494   3.067   9.582 -0.0861  0.0288  0.0823
  433MOL0     C59683   9.371   3.025   9.532  0.0184  0.1128 -0.7988
  433MOL0     C59684   9.300   2.921   9.615  0.2486 -1.0292 -0.0540
  433MOL0     H59685   9.048   2.746   9.325  3.5149 -0.3899 -4.4820
  433MOL0     H59686   8.878   2.660   9.178 -1.8249  0.5567 -1.3705
  433MOL0     H59687   8.693   2.613   9.076  2.5477 -1.3414 -0.4459
  433MOL0     H59688   8.780   2.666   8.933  0.7276 -1.9908  1.7277
  433MOL0     H59689   8.587   2.568   8.846 -1.8985  0.6305 -3.4849
  433MOL0     H59690   8.482   2.685   8.936 -0.5607  1.4388 -0.7305
  433MOL0     H59691   8.600   2.863   8.806 -0.0798 -0.1435  1.4894
  433MOL0     H59692   8.669   2.739   8.699 -0.4469  2.3717 -1.5638
  433MOL0     H59693   8.436   2.658   8.633 -2.3514  1.0624 -1.5906
  433MOL0     H59694   8.373   2.776   8.737 -0.1787 -1.2997  0.9173
  433MOL0     H59695   8.358   2.840   8.497 -0.6639 -3.5722  1.4538
  433MOL0     H59696   8.530   2.803   8.476 -0.9165  0.9557 -0.8459
  433MOL0     H59697   8.613   2.981   8.586 -0.1103 -1.0541 -1.5434
  433MOL0     H59698   8.491   3.047   8.476 -1.0864  0.2086 -0.4177
  433MOL0     H59699   8.445   3.029   8.783 -2.1734  3.1688  1.6266
  433MOL0     H59700   8.332   3.071   8.651 -0.0908  1.0550 -0.9232
  433MOL0     H59701   8.492   3.260   8.598  1.5851  1.0394 -0.6218
  433MOL0     H59702   8.410   3.260   8.760 -1.3225  0.6965 -1.5937
  433MOL0     H59703   8.756   3.227   8.581 -3.4183  1.6584 -0.4136
  433MOL0     H59704   9.024   3.320   8.818  2.0302 -0.8408 -0.0960
  433MOL0     H59705   9.000   3.213   8.676  1.3328  2.0031 -0.4294
  433MOL0     H59706   9.143   3.113   8.840 -0.1840 -0.7624 -0.6266
  433MOL0     H59707   9.002   3.117   8.961 -0.2944  3.4201 -0.0937
  433MOL0     H59708   8.894   2.947   8.832  0.4389  1.3711  0.6558
  433MOL0     H59709   9.011   2.956   8.697 -0.9458 -1.1423 -0.2099
  433MOL0     H59710   9.194   2.898   8.896  0.2308  1.0581  0.1712
  433MOL0     H59711   9.051   2.886   8.995 -0.8277 -0.7287 -0.2056
  433MOL0     H59712   8.998   2.511   8.790  1.1486 -0.1785 -2.6370
  433MOL0     H59713   8.979   2.312   8.805 -0.6860  0.6764 -0.5545
  433MOL0     H59714   9.055   2.215   8.940  2.5273  1.0117  0.4362
  433MOL0     H59715   9.129   2.209   8.774 -0.2752  2.0452 -1.6402
  433MOL0     H59716   9.447   2.011   9.118  0.7988 -0.8865 -1.0058
  433MOL0     H59717   9.613   1.853   9.104 -2.3631  1.1705 -0.6126
  433MOL0     H59718   9.865   1.871   9.272  0.1211  0.8391  0.2094
  433MOL0     H59719   9.823   1.729   9.179 -0.8698 -0.4772 -0.4207
  433MOL0     H59720  10.105   1.851   9.166  4.4336 -2.3957  4.7689
  433MOL0     H59721  10.052   1.739   9.291  0.9483  1.2810  1.1210
  433MOL0     H59722  10.086   1.698   8.985  2.3997 -0.1579  0.3957
  433MOL0     H59723   9.977   1.587   9.069  0.8344 -1.2846  0.7770
  433MOL0     H59724  10.177   1.471   9.112 -0.2608  0.2038  0.5688
  433MOL0     H59725  10.165   1.561   9.248  0.3971  2.0015 -0.0920
  433MOL0     H59726  10.333   1.646   9.006 -0.6604  1.1857  0.8139
  433MOL0     H59727  10.344   1.725   9.155  4.6544  0.1245 -2.0181
  433MOL0     H59728  10.431   1.435   9.155  0.8337 -0.1739 -2.1886
  433MOL0     H59729  10.439   1.550   9.282 -1.5842  0.0107  0.6521
  433MOL0     H59730  10.556   1.695   9.053  1.3973  0.6534  1.5386
  433MOL0     H59731  10.597   1.526   9.022 -1.7422  0.8180 -2.3517
  433MOL0     H59732  10.779   1.574   9.140  1.1836  3.4693 -1.2582
  433MOL0     H59733  10.669   1.551   9.283  4.5744 -0.6170  1.3792
  433MOL0     H59734   9.906   2.158   9.032  0.2091  2.0707 -0.2471
  433MOL0     H59735   9.731   2.329   9.024 -1.1171  0.4523  2.1055
  433MOL0     H59736   9.418   2.529   9.038  1.1418  0.4622 -0.2312
  433MOL0     H59737   9.316   2.723   8.964 -1.0928  0.9331 -0.9174
  433MOL0     H59738   8.750   3.073   9.094 -3.2691 -2.6516  0.3123
  433MOL0     H59739   8.914   3.151   9.264 -0.0095  0.5561  2.2375
  433MOL0     H59740   9.359   3.199   9.248 -1.0006  1.3358  1.4640
  433MOL0     H59741   9.562   3.305   9.345  1.5793 -0.2036  0.3968
  433MOL0     H59742   9.810   3.373   9.557 -1.3929  5.2806 -5.2810
  433MOL0     H59743   9.660   3.412   9.484  1.2601  0.5330  0.1581
  433MOL0     H59744   9.550   3.416   9.719 -0.1773  1.2936  2.4815
  433MOL0     H59745   9.695   3.522   9.678 -0.4321  0.3356 -0.3102
  433MOL0     H59746   9.694   3.433   9.909  2.2666  0.8432 -0.1385
  433MOL0     H59747   9.671   3.271   9.846 -2.2409  0.4238 -0.0812
  433MOL0     H59748   9.900   3.471   9.818 -1.9962  0.1016 -0.4085
  433MOL0     H59749   9.915   3.315   9.739 -0.6734 -1.0840 -0.3585
  433MOL0     H59750   9.933   3.187  10.144  1.4504 -1.4125 -1.3178
  433MOL0     H59751   9.541   3.022   9.669 -1.5675 -0.6424  0.5682
  433MOL0     H59752   9.323   2.819   9.584 -0.0181 -0.8922 -0.7107
  433MOL0     H59753   9.316   2.938   9.722  1.2182 -0.9475 -0.2100
  433MOL0     H59754   9.193   2.937   9.597  0.4230  0.6138  0.1791
  434MOL0     O59755   6.466   5.587  10.329 -0.3527  0.3067 -0.0450
  434MOL0     C59756   6.424   5.499  10.255  0.1727  0.2647 -0.3266
  434MOL0     O59757   6.478   5.469  10.129 -0.0510 -0.6216 -0.4033
  434MOL0     C59758   6.578   5.544  10.076 -0.2264 -0.6365 -0.7895
  434MOL0     C59759   6.577   5.670  10.017  0.8293 -0.4251  0.2328
  434MOL0     C59760   6.698   5.723   9.962  0.2644 -0.0655  0.3636
  434MOL0     C59761   6.817   5.653   9.974  0.4000 -1.1590  0.0268
  434MOL0     O59762   6.934   5.707   9.918 -0.0942 -0.0986 -0.2063
  434MOL0     C59763   6.948   5.840   9.869  0.6316 -0.2603  0.0452
  434MOL0     C59764   7.096   5.875   9.873  0.5230 -0.1581  0.7892
  434MOL0     C59765   7.168   5.855   9.745 -0.0895 -0.6321  0.3687
  434MOL0     C59766   7.148   5.977   9.648  0.1038 -0.2035  0.4155
  434MOL0     C59767   7.241   5.977   9.531 -0.2539 -0.2794  0.5394
  434MOL0     C59768   7.276   6.119   9.469  0.1163 -0.4883  0.2796
  434MOL0     C59769   7.411   6.130   9.398 -0.3702 -0.0457 -0.3502
  434MOL0     C59770   7.524   6.167   9.502  0.3071  0.0281  0.0780
  434MOL0     N59771   7.644   6.201   9.436 -0.4008 -0.5286 -0.2065
  434MOL0     C59772   7.693   6.327   9.412 -0.5363 -0.2905 -0.1544
  434MOL0     C59773   7.807   6.310   9.349 -0.1410  0.9799  0.3129
  434MOL0     C59774   7.917   6.408   9.308  0.4689  0.1494 -0.2974
  434MOL0     C59775   7.906   6.472   9.176  0.8564  0.2607  0.9060
  434MOL0     C59776   8.030   6.565   9.149  0.1740 -0.1810 -0.8247
  434MOL0     C59777   8.028   6.623   9.008 -0.2048 -0.9423 -0.6062
  434MOL0     O59778   7.948   6.744   9.014 -0.4948  0.4222 -0.0381
  434MOL0     C59779   7.928   6.802   8.895  0.5638 -0.7644 -0.6029
  434MOL0     C59780   7.803   6.849   8.876 -0.3462 -0.9436 -0.3242
  434MOL0     C59781   7.767   6.929   8.767 -0.4544  1.1609  0.4929
  434MOL0     C59782   7.613   6.943   8.748  0.7321 -0.1525 -0.1507
  434MOL0     C59783   7.868   6.966   8.674  0.1280  0.3089  0.1832
  434MOL0     C59784   7.842   7.051   8.558 -1.0686 -0.1047 -0.3030
  434MOL0     O59785   7.950   7.066   8.473 -0.4437 -0.0546  0.1614
  434MOL0     C59786   7.936   7.117   8.348 -0.1912 -0.6862 -1.3786
  434MOL0     C59787   7.854   7.073   8.248  0.4174  0.4471  0.2153
  434MOL0     C59788   7.862   7.139   8.122  0.8351  0.2558  0.3370
  434MOL0     C59789   7.967   7.232   8.099  0.5168 -0.2661 -0.5399
  434MOL0     O59790   7.958   7.303   7.979  0.0822  0.9906  0.1103
  434MOL0     C59791   8.065   7.396   7.932 -0.1107 -0.1199 -0.3958
  434MOL0     C59792   8.149   7.338   7.818 -0.7665 -0.3689  0.4671
  434MOL0     C59793   8.058   7.305   7.693  1.0528  0.6079 -0.6684
  434MOL0     C59794   8.126   7.229   7.582  0.0175  1.2630  0.0466
  434MOL0     C59795   8.023   7.204   7.468 -0.5184  1.2248  0.2343
  434MOL0     C59796   8.094   7.122   7.352 -0.1534 -0.8317  0.4295
  434MOL0     C59797   8.211   7.198   7.291  0.5206 -0.4896 -0.3160
  434MOL0     C59798   8.154   7.328   7.232 -0.0045  0.3077  0.1409
  434MOL0    Cl59799   8.298   7.397   7.143 -0.6849  0.6978  0.4094
  434MOL0     C59800   8.052   7.266   8.200  0.8998 -0.7667 -0.3630
  434MOL0     C59801   8.037   7.209   8.326 -0.1303 -0.2761 -0.1961
  434MOL0     O59802   7.734   7.107   8.544  0.0613  0.2528 -0.4402
  434MOL0     C59803   7.993   6.908   8.685  0.2372  0.1741  0.1223
  434MOL0     C59804   8.022   6.834   8.796  0.5079 -0.5049  1.0852
  434MOL0     N59805   7.823   6.175   9.331  0.2561  0.5351  0.2910
  434MOL0     N59806   7.725   6.111   9.381 -0.4559  0.5078  0.0420
  434MOL0     C59807   6.820   5.525  10.032  0.0727 -0.3686 -0.3700
  434MOL0     C59808   6.703   5.473  10.080 -0.2227 -0.2672 -0.2585
  434MOL0     C59809   6.308   5.415  10.294  0.4407  0.2273 -0.0724
  434MOL0     C59810   6.293   5.294  10.221  0.6046 -0.6907 -1.2816
  434MOL0     C59811   6.193   5.206  10.256 -0.4101  0.6836  0.2661
  434MOL0     C59812   6.099   5.237  10.359 -0.1306 -1.4117  0.9484
  434MOL0     O59813   6.012   5.151  10.423 -0.7534 -1.3298  0.5397
  434MOL0     C59814   5.992   5.024  10.368 -0.5900 -0.6308  0.7052
  434MOL0     C59815   5.904   4.933  10.447  0.7176  0.8316 -0.5760
  434MOL0     C59816   5.763   4.984  10.484 -0.5270 -0.8176  0.5720
  434MOL0     C59817   5.699   4.900  10.593 -0.3507  0.8098  0.0314
  434MOL0     C59818   5.703   4.752  10.575 -0.1731  0.0657  0.3471
  434MOL0     C59819   5.697   4.634  10.546  0.2570 -0.1319 -0.1223
  434MOL0     C59820   6.107   5.357  10.429 -0.3884 -0.2143  0.5076
  434MOL0     C59821   6.206   5.452  10.391  0.4431  0.4266 -0.1420
  434MOL0     C59822   6.210   5.595  10.450  0.0896  0.7079 -0.1114
  434MOL0     H59823   6.486   5.730  10.019  1.5513  0.8498 -1.9996
  434MOL0     H59824   6.690   5.821   9.916  1.6267  0.1643  0.5700
  434MOL0     H59825   6.896   5.902   9.943  0.2760 -2.0990  1.3995
  434MOL0     H59826   6.898   5.848   9.772 -4.6941 -0.1102  2.4430
  434MOL0     H59827   7.094   5.982   9.897  1.6631  0.8538 -3.0380
  434MOL0     H59828   7.145   5.808   9.944 -1.1169 -1.9843  0.2866
  434MOL0     H59829   7.274   5.855   9.771 -0.4050 -2.1610  1.8731
  434MOL0     H59830   7.144   5.754   9.710 -0.1518 -1.8845  3.6400
  434MOL0     H59831   7.045   5.996   9.617 -0.2401 -2.4954 -0.0985
  434MOL0     H59832   7.181   6.068   9.697  1.6170 -0.5292  0.0490
  434MOL0     H59833   7.203   5.910   9.453  1.3387 -2.1639  1.2973
  434MOL0     H59834   7.344   5.941   9.543  1.9694  3.1677 -4.5176
  434MOL0     H59835   7.201   6.152   9.396  0.2249  6.0014  2.4184
  434MOL0     H59836   7.270   6.188   9.555  1.5258 -1.4756  1.2006
  434MOL0     H59837   7.402   6.203   9.317  1.1430 -1.7321 -2.1633
  434MOL0     H59838   7.426   6.041   9.336  1.4857  0.8785 -1.3470
  434MOL0     H59839   7.497   6.256   9.559 -2.7316 -0.8249  0.1655
  434MOL0     H59840   7.548   6.092   9.578 -0.3092  0.5959  0.8620
  434MOL0     H59841   7.667   6.428   9.440  1.9535  0.2553  0.4192
  434MOL0     H59842   8.014   6.357   9.308  1.6191  2.2223  0.5778
  434MOL0     H59843   7.915   6.484   9.386 -0.8179 -0.1571  0.0006
  434MOL0     H59844   7.899   6.392   9.101 -1.8648  0.4742  0.8420
  434MOL0     H59845   7.811   6.525   9.173  0.0811 -1.0826  0.7994
  434MOL0     H59846   8.027   6.644   9.224  0.0383 -1.2489  0.3162
  434MOL0     H59847   8.122   6.510   9.173 -1.1234 -2.2903 -0.4553
  434MOL0     H59848   8.129   6.647   8.974 -0.0015  1.7202  1.5168
  434MOL0     H59849   7.980   6.551   8.941 -1.6594 -2.0588  1.5261
  434MOL0     H59850   7.727   6.827   8.950  1.1540  0.1458  1.6580
  434MOL0     H59851   7.555   6.892   8.826 -0.3584  0.5261 -0.4915
  434MOL0     H59852   7.591   6.900   8.650 -1.0453  0.6166 -0.1221
  434MOL0     H59853   7.583   7.047   8.737 -0.4057 -0.5645 -1.2817
  434MOL0     H59854   7.774   7.003   8.268 -1.6857  1.8463 -2.4896
  434MOL0     H59855   7.787   7.120   8.045 -0.3312  0.3476  1.4334
  434MOL0     H59856   8.025   7.491   7.897 -0.1712 -0.6780 -1.9253
  434MOL0     H59857   8.141   7.424   8.006 -0.3186 -0.9929  0.1637
  434MOL0     H59858   8.233   7.403   7.792 -0.5676 -0.2454  1.3904
  434MOL0     H59859   8.194   7.241   7.845 -1.1434 -1.0146 -1.0970
  434MOL0     H59860   8.011   7.401   7.670 -0.1213  0.6163  1.4920
  434MOL0     H59861   7.981   7.235   7.727  0.8530  0.2280 -1.8368
  434MOL0     H59862   8.161   7.129   7.609 -2.3317  0.3737 -0.0285
  434MOL0     H59863   8.211   7.292   7.553 -0.6189  1.2614 -2.0314
  434MOL0     H59864   7.938   7.149   7.510  0.9946 -2.0949 -0.8143
  434MOL0     H59865   7.983   7.300   7.434 -2.1218  1.4988  2.6442
  434MOL0     H59866   8.020   7.103   7.274 -3.0825  0.0437  2.8016
  434MOL0     H59867   8.136   7.027   7.385  3.9746  0.1038 -1.5055
  434MOL0     H59868   8.248   7.140   7.206 -1.2073 -2.3567  0.1087
  434MOL0     H59869   8.297   7.209   7.357 -0.9257 -0.2368  1.6105
  434MOL0     H59870   8.142   7.402   7.312  2.3201  1.3131 -0.3414
  434MOL0     H59871   8.068   7.314   7.166  0.0731  2.7759 -0.5776
  434MOL0     H59872   8.121   7.348   8.180  0.4292 -0.5081 -0.9823
  434MOL0     H59873   8.100   7.235   8.410 -0.9427  2.4184 -0.3435
  434MOL0     H59874   8.073   6.926   8.613 -1.3632  5.1337 -0.7885
  434MOL0     H59875   8.123   6.795   8.797 -0.1460 -2.3220  1.6683
  434MOL0     H59876   6.915   5.474  10.036  0.6982  0.6544 -1.5625
  434MOL0     H59877   6.710   5.381  10.137  2.5903  0.2800  0.4437
  434MOL0     H59878   6.366   5.260  10.148  2.0738 -2.6990  0.9289
  434MOL0     H59879   6.185   5.109  10.208  1.1435  0.2247  0.9041
  434MOL0     H59880   5.949   5.040  10.268 -1.3680  0.5449  1.2074
  434MOL0     H59881   6.090   4.977  10.351  1.1161  2.1897  2.1090
  434MOL0     H59882   5.960   4.890  10.530 -1.0298  0.5825  0.5328
  434MOL0     H59883   5.890   4.842  10.387 -0.2693  0.5083  0.1221
  434MOL0     H59884   5.762   5.085  10.524  0.3484 -1.1324  1.4167
  434MOL0     H59885   5.707   4.969  10.391  1.1147  0.9066 -0.7703
  434MOL0     H59886   5.596   4.938  10.598  0.0728  2.0112 -0.1338
  434MOL0     H59887   5.738   4.907  10.695 -1.1013 -1.0826  0.4895
  434MOL0     H59888   5.702   4.528  10.531  1.4386 -0.8008  3.7462
  434MOL0     H59889   6.039   5.373  10.512 -0.5975  2.3610 -0.0796
  434MOL0     H59890   6.297   5.617  10.513  0.2977 -0.4329  0.0159
  434MOL0     H59891   6.202   5.669  10.370 -1.7096 -1.0269 -1.6387
  434MOL0     H59892   6.127   5.607  10.520  1.0074 -1.0300  1.3450
  435MOL0     O59893   4.338   8.977  10.444 -0.3249 -0.7523  0.4005
  435MOL0     C59894   4.388   9.058  10.366 -0.2007  0.8368  0.3527
  435MOL0     O59895   4.324   9.159  10.303  0.0863 -0.3809  0.2142
  435MOL0     C59896   4.183   9.175  10.293 -0.7537 -0.3931  0.6048
  435MOL0     C59897   4.092   9.118  10.382  0.0246 -0.0998 -0.3775
  435MOL0     C59898   3.959   9.158  10.374  0.1633 -0.1537 -0.6585
  435MOL0     C59899   3.912   9.236  10.267  0.4482 -0.7961 -0.1248
  435MOL0     O59900   3.783   9.279  10.246 -0.5336 -0.5953 -0.3581
  435MOL0     C59901   3.757   9.417  10.250 -0.0397  0.3236  0.5827
  435MOL0     C59902   3.639   9.454  10.334 -0.3017 -0.0676  0.3282
  435MOL0     C59903   3.645   9.409  10.479 -0.1164 -1.0911 -1.4303
  435MOL0     C59904   3.507   9.439  10.543 -0.6269 -0.5344  0.3178
  435MOL0     C59905   3.490   9.445  10.694 -0.6132 -0.3091 -0.7925
  435MOL0     C59906   3.358   9.531  10.739 -0.8925  0.7408  0.8579
  435MOL0     C59907   3.229   9.447  10.704 -0.1887  0.0057 -0.5471
  435MOL0     C59908   3.100   9.533  10.724 -0.2623 -0.1596  0.6071
  435MOL0     N59909   2.979   9.457  10.664  0.7118 -0.0820 -0.2706
  435MOL0     C59910   2.888   9.519  10.584 -0.0632 -0.4734  0.4518
  435MOL0     C59911   2.827   9.427  10.515  0.3291  0.3473 -0.1899
  435MOL0     C59912   2.740   9.463  10.404 -0.4838 -0.1929 -0.7521
  435MOL0     C59913   2.612   9.532  10.452 -0.1886  1.2082 -0.4018
  435MOL0     C59914   2.529   9.429  10.537  0.6042  1.0583  0.6558
  435MOL0     C59915   2.399   9.492  10.590 -0.0371 -0.0592  1.1658
  435MOL0     O59916   2.307   9.388  10.631  0.2544  0.8073  0.3942
  435MOL0     C59917   2.205   9.423  10.712  0.7530 -0.5157  0.4019
  435MOL0     C59918   2.120   9.321  10.751  0.1477  0.3299  0.0576
  435MOL0     C59919   2.021   9.346  10.845  0.1687  0.7682 -0.3137
  435MOL0     C59920   1.938   9.224  10.894 -0.0226  0.0876 -1.0569
  435MOL0     C59921   2.018   9.472  10.912  0.0827  0.5920 -0.2932
  435MOL0     C59922   1.921   9.494  11.026 -0.4100  0.1614 -1.0972
  435MOL0     O59923   1.953   9.433  11.141 -0.1951  0.3630 -1.1896
  435MOL0     C59924   1.883   9.464  11.256 -0.1555  0.3348  0.5445
  435MOL0     C59925   1.830   9.360  11.341 -0.6926  0.0047  0.3935
  435MOL0     C59926   1.771   9.404  11.457  0.1949  0.0449 -0.1297
  435MOL0     C59927   1.756   9.534  11.502  0.2133 -0.2821  0.5326
  435MOL0     O59928   1.691   9.559  11.623 -0.6792  0.1835  0.1164
  435MOL0     C59929   1.711   9.688  11.693  0.1832 -0.5883 -0.6558
  435MOL0     C59930   1.683   9.658  11.847  0.4272 -0.3783  0.6240
  435MOL0     C59931   1.774   9.546  11.902  0.5735  0.1050 -0.3846
  435MOL0     C59932   1.769   9.547  12.057 -0.0246  0.0007  0.3713
  435MOL0     C59933   1.899   9.576  12.121 -0.6615 -0.5048 -0.1437
  435MOL0     C59934   1.890   9.626  12.272  0.7780  0.3089  0.8732
  435MOL0     C59935   2.022   9.630  12.349  0.0848  0.3415  1.0189
  435MOL0     C59936   2.039   9.748  12.441 -0.0925 -1.1125  0.3010
  435MOL0    Cl59937   2.169   9.706  12.546  0.3755 -0.1749  0.1196
  435MOL0     C59938   1.819   9.633  11.422 -0.0182  0.0318  0.0529
  435MOL0     C59939   1.891   9.595  11.304  0.2097  0.4411  0.0833
  435MOL0     O59940   1.826   9.565  11.005  0.0635  0.4841  0.2100
  435MOL0     C59941   2.089   9.577  10.858 -1.5065  0.1083 -0.0967
  435MOL0     C59942   2.183   9.551  10.762  0.0807  0.2596  1.1844
  435MOL0     N59943   2.880   9.305  10.550  0.3061 -0.2675 -0.7981
  435MOL0     N59944   2.958   9.319  10.650 -0.4633 -0.2626  0.6508
  435MOL0     C59945   4.004   9.280  10.174  0.2760  0.2763 -0.2094
  435MOL0     C59946   4.144   9.252  10.186  0.7343  0.2530  0.2722
  435MOL0     C59947   4.529   9.049  10.354 -0.5575 -0.5449  0.3547
  435MOL0     C59948   4.599   8.988  10.459 -0.2298  0.3797  0.0393
  435MOL0     C59949   4.736   8.982  10.463 -0.5101  0.3537  0.6275
  435MOL0     C59950   4.816   9.045  10.358  0.7011  0.0229 -0.3920
  435MOL0     O59951   4.946   9.063  10.365 -0.4796 -0.3652  0.1491
  435MOL0     C59952   5.012   8.940  10.388 -0.0264  0.1281  0.7107
  435MOL0     C59953   5.149   8.974  10.319  1.0839  0.0119 -0.3781
  435MOL0     C59954   5.224   9.086  10.392 -0.3076 -0.5234 -0.8532
  435MOL0     C59955   5.303   9.172  10.299 -0.8052 -0.1135  0.2142
  435MOL0     C59956   5.395   9.083  10.217 -0.5720 -0.4971 -0.7006
  435MOL0     C59957   5.469   9.010  10.162 -0.5182 -0.1858  0.0778
  435MOL0     C59958   4.746   9.107  10.255  0.5491 -0.3644 -0.3620
  435MOL0     C59959   4.602   9.114  10.254  0.3280 -0.1905 -0.5823
  435MOL0     C59960   4.547   9.195  10.145  0.1374  0.2610  0.7548
  435MOL0     H59961   4.123   9.064  10.470 -0.3582 -0.2955 -0.3599
  435MOL0     H59962   3.888   9.118  10.446  0.2433  1.6581  0.4876
  435MOL0     H59963   3.741   9.446  10.146 -2.0189 -2.3376  0.0509
  435MOL0     H59964   3.845   9.468  10.290  1.2240 -0.7934 -0.6712
  435MOL0     H59965   3.619   9.561  10.321 -0.1573 -0.3745 -4.3137
  435MOL0     H59966   3.554   9.397  10.294 -0.9871  0.3745  1.1227
  435MOL0     H59967   3.665   9.301  10.477  0.5954 -1.1106  1.7527
  435MOL0     H59968   3.724   9.466  10.528 -2.2359  2.8976 -2.2052
  435MOL0     H59969   3.486   9.540  10.507 -2.9796 -0.6277  1.2394
  435MOL0     H59970   3.432   9.374  10.496 -1.1659  0.0585  0.3409
  435MOL0     H59971   3.572   9.505  10.734 -0.9646 -2.0864  2.9313
  435MOL0     H59972   3.492   9.343  10.734 -5.4476  0.4871  2.3429
  435MOL0     H59973   3.374   9.546  10.846  3.7230  1.5020  0.2707
  435MOL0     H59974   3.352   9.628  10.691 -2.8018  0.0599 -0.4015
  435MOL0     H59975   3.230   9.358  10.767  2.1558 -1.2837 -2.2602
  435MOL0     H59976   3.233   9.413  10.600  3.3589  1.1656 -0.9226
  435MOL0     H59977   3.076   9.548  10.830  1.6007  1.0935  0.9203
  435MOL0     H59978   3.103   9.627  10.668 -0.2344 -0.2088  0.5257
  435MOL0     H59979   2.881   9.626  10.567  0.6717 -0.8703 -3.1136
  435MOL0     H59980   2.715   9.378  10.340  3.3403 -1.7562 -0.4178
  435MOL0     H59981   2.798   9.532  10.343  0.5170 -0.3696 -0.0196
  435MOL0     H59982   2.649   9.612  10.517  5.8763 -1.5226  0.1636
  435MOL0     H59983   2.558   9.566  10.363  0.1785  2.1990 -0.2605
  435MOL0     H59984   2.492   9.345  10.479 -1.4272  3.4774 -1.8416
  435MOL0     H59985   2.585   9.392  10.624  0.7006  0.6846  0.4326
  435MOL0     H59986   2.436   9.554  10.672  0.6692 -1.7796  2.2195
  435MOL0     H59987   2.340   9.548  10.518 -2.5511 -1.8151  1.7084
  435MOL0     H59988   2.128   9.226  10.700 -0.9351  1.1453 -1.7138
  435MOL0     H59989   1.834   9.257  10.905  0.8321  2.5714  0.3285
  435MOL0     H59990   1.979   9.206  10.994  3.2764 -0.4889 -2.3675
  435MOL0     H59991   1.935   9.141  10.823 -1.7192  1.0003 -2.1205
  435MOL0     H59992   1.836   9.254  11.316 -2.1126  0.0574 -0.2192
  435MOL0     H59993   1.728   9.338  11.531 -0.4342  1.6603  1.0272
  435MOL0     H59994   1.816   9.719  11.691  1.2523 -3.9137 -1.6337
  435MOL0     H59995   1.655   9.775  11.656  0.4895  0.6685  1.6587
  435MOL0     H59996   1.704   9.749  11.903  1.5034 -0.2059 -0.0234
  435MOL0     H59997   1.577   9.639  11.865  0.2130 -0.1882 -0.3404
  435MOL0     H59998   1.874   9.581  11.872  0.3609  0.7836 -0.3064
  435MOL0     H59999   1.735   9.455  11.856 -0.2737  1.0263 -1.5539
  435MOL0     H60000   1.735   9.450  12.095  1.9119 -2.0681 -2.6995
  435MOL0     H60001   1.699   9.622  12.093  0.4824  1.7584 -2.0373
  435MOL0     H60002   1.962   9.487  12.109 -1.5724 -1.0350 -1.1596
  435MOL0     H60003   1.938   9.663  12.067 -2.9233 -1.0046 -2.8138
  435MOL0     H60004   1.821   9.558  12.322  1.0646 -1.3726 -0.8784
  435MOL0     H60005   1.845   9.726  12.277  0.3294  0.2366 -1.0409
  435MOL0     H60006   2.111   9.619  12.286 -0.9351 -3.9199 -0.0723
  435MOL0     H60007   2.026   9.544  12.417  1.8378  1.3163  2.1994
  435MOL0     H60008   1.945   9.773  12.491 -0.6595  0.5594 -1.4663
  435MOL0     H60009   2.074   9.825  12.372 -2.4123 -1.4250 -1.3882
  435MOL0     H60010   1.828   9.737  11.449  0.8332 -0.0722  0.2234
  435MOL0     H60011   1.938   9.678  11.251 -0.0101  1.8815  2.0130
  435MOL0     H60012   2.093   9.676  10.903 -1.5809  0.3403 -0.5952
  435MOL0     H60013   2.244   9.630  10.720 -1.5516  0.2797 -1.3597
  435MOL0     H60014   3.968   9.333  10.086 -0.7369 -1.5690 -0.9744
  435MOL0     H60015   4.219   9.284  10.115  1.0321  0.9946  0.9108
  435MOL0     H60016   4.554   8.945  10.548  1.0104 -0.1147  0.4611
  435MOL0     H60017   4.789   8.929  10.541 -0.7516 -1.2692 -0.2621
  435MOL0     H60018   5.036   8.915  10.491 -0.5044 -4.6725 -0.0977
  435MOL0     H60019   4.959   8.856  10.341  1.2400  1.8789 -4.6348
  435MOL0     H60020   5.120   9.001  10.217  0.7736 -0.1575 -0.3396
  435MOL0     H60021   5.211   8.884  10.321 -0.2740 -0.9522  1.9270
  435MOL0     H60022   5.152   9.146  10.449  0.2102  0.5555 -1.3085
  435MOL0     H60023   5.288   9.030  10.461  1.4281 -0.0566 -2.0056
  435MOL0     H60024   5.373   9.225  10.365  1.5333 -1.2679 -1.2260
  435MOL0     H60025   5.237   9.237  10.241 -2.2879 -0.8587  1.0167
  435MOL0     H60026   5.549   8.957  10.114 -0.5485 -1.1473  1.0467
  435MOL0     H60027   4.814   9.164  10.192  1.5299  2.2939  2.8574
  435MOL0     H60028   4.498   9.286  10.180 -0.8756  0.0677 -0.1128
  435MOL0     H60029   4.618   9.208  10.063 -1.5576 -1.3920 -1.0700
  435MOL0     H60030   4.467   9.140  10.094  1.3836  0.7249 -1.8744
  436MOL0     O60031   7.120   9.111  10.497 -0.2603 -0.5858 -0.9695
  436MOL0     C60032   7.108   9.219  10.566  0.3160 -0.4659 -0.2694
  436MOL0     O60033   6.995   9.262  10.628 -0.2719  0.7204 -1.2313
  436MOL0     C60034   6.874   9.197  10.629 -0.1294 -0.0761  0.6197
  436MOL0     C60035   6.756   9.268  10.599 -0.1341  0.5899  0.0043
  436MOL0     C60036   6.633   9.211  10.599  0.0533 -0.7375  0.0292
  436MOL0     C60037   6.623   9.073  10.637  0.8319 -0.2273  1.4255
  436MOL0     O60038   6.507   9.007  10.633 -0.3570  0.5486  0.2399
  436MOL0     C60039   6.379   9.080  10.625  0.0969  0.0768  0.0211
  436MOL0     C60040   6.266   8.987  10.585  0.4555 -0.6803  1.1230
  436MOL0     C60041   6.247   8.862  10.670  0.7622  0.3406 -0.8305
  436MOL0     C60042   6.337   8.747  10.633  0.4391 -0.2396 -0.6492
  436MOL0     C60043   6.316   8.609  10.689 -0.0263  0.3652 -0.6898
  436MOL0     C60044   6.168   8.567  10.681 -0.6332 -0.3379 -1.0888
  436MOL0     C60045   6.130   8.434  10.743 -0.5607  0.2802 -0.1098
  436MOL0     C60046   6.211   8.329  10.669 -0.4301 -0.6090  0.0107
  436MOL0     N60047   6.205   8.340  10.524  0.0823 -0.6512 -0.1344
  436MOL0     C60048   6.314   8.350  10.437  0.5953  0.0123 -0.1501
  436MOL0     C60049   6.260   8.344  10.317  0.6417  0.1855 -1.0626
  436MOL0     C60050   6.341   8.358  10.193  0.8374 -0.0215  0.1688
  436MOL0     C60051   6.331   8.501  10.138 -0.6366  1.1890 -0.7830
  436MOL0     C60052   6.412   8.502  10.012 -0.4344  0.4056  0.0870
  436MOL0     C60053   6.454   8.643   9.966  0.6273  0.0442  0.6548
  436MOL0     O60054   6.588   8.659  10.001  0.3021  0.3707 -0.2493
  436MOL0     C60055   6.668   8.752   9.946 -1.1080 -0.7831 -0.7472
  436MOL0     C60056   6.621   8.872   9.892 -0.6318 -1.0012 -0.3137
  436MOL0     C60057   6.698   8.973   9.843  0.1433 -0.2457 -1.1644
  436MOL0     C60058   6.633   9.102   9.803  0.3700 -1.0011 -0.1230
  436MOL0     C60059   6.842   8.951   9.857 -0.2195 -0.3951  1.0539
  436MOL0     C60060   6.944   9.045   9.799  0.2781 -0.1488  0.4532
  436MOL0     O60061   7.068   9.008   9.835  0.6746 -0.5121 -0.8998
  436MOL0     C60062   7.183   9.077   9.809 -0.3909  0.2476 -0.4882
  436MOL0     C60063   7.313   9.018   9.833  0.1047 -0.9657 -0.9713
  436MOL0     C60064   7.439   9.084   9.820 -0.2521 -0.4040  0.3795
  436MOL0     C60065   7.433   9.217   9.768 -1.2161  0.3009 -0.4693
  436MOL0     O60066   7.539   9.302   9.747  0.4994  0.1142 -0.2967
  436MOL0     C60067   7.664   9.277   9.804  0.9454 -1.1475  0.2539
  436MOL0     C60068   7.754   9.407   9.796  0.5934  0.0251 -0.5764
  436MOL0     C60069   7.867   9.380   9.886 -0.3716  0.3121 -0.1333
  436MOL0     C60070   7.966   9.491   9.899 -0.9164  0.2031  0.3978
  436MOL0     C60071   8.050   9.470  10.027  0.6869  0.0934  0.2488
  436MOL0     C60072   8.129   9.596  10.062  0.0209 -0.9207  0.6107
  436MOL0     C60073   8.246   9.618   9.960  0.3151  0.7377  1.3258
  436MOL0     C60074   8.358   9.507   9.961  0.0471 -0.1287 -0.4273
  436MOL0    Cl60075   8.426   9.464  10.127 -0.2920 -0.0719  0.1618
  436MOL0     C60076   7.309   9.278   9.741  0.1891 -0.5251  0.4150
  436MOL0     C60077   7.189   9.210   9.759 -0.2100  0.7415  0.0829
  436MOL0     O60078   6.915   9.144   9.730  0.1279  0.4017  0.6280
  436MOL0     C60079   6.890   8.832   9.923 -0.0280 -0.6667 -0.2752
  436MOL0     C60080   6.808   8.734   9.953 -0.3507  0.7237  0.7259
  436MOL0     N60081   6.121   8.341  10.330  0.1947 -0.6525  0.3890
  436MOL0     N60082   6.089   8.339  10.454 -0.4289 -0.0802 -0.2539
  436MOL0     C60083   6.737   9.003  10.675  0.1211  0.2193 -0.5114
  436MOL0     C60084   6.865   9.061  10.661 -0.0868 -1.1487 -0.1980
  436MOL0     C60085   7.236   9.302  10.578  0.9982  0.2708 -0.0441
  436MOL0     C60086   7.350   9.274  10.489  0.0562 -0.7779 -0.5015
  436MOL0     C60087   7.474   9.328  10.526 -1.0370 -0.6872  0.9807
  436MOL0     C60088   7.490   9.414  10.636 -1.0549  0.1422  0.3404
  436MOL0     O60089   7.611   9.472  10.658  0.0470  0.2091  0.7555
  436MOL0     C60090   7.733   9.400  10.669 -0.5080  0.8882 -0.2902
  436MOL0     C60091   7.853   9.493  10.650  0.3319  0.0275 -0.4083
  436MOL0     C60092   7.877   9.582  10.781  0.1685 -0.8372 -0.1794
  436MOL0     C60093   8.003   9.668  10.753  0.4098 -0.0913  0.0453
  436MOL0     C60094   8.025   9.756  10.873 -0.5282  0.9361  0.5740
  436MOL0     C60095   8.055   9.823  10.975  0.3596  0.2596 -0.8177
  436MOL0     C60096   7.378   9.453  10.701 -0.5616 -0.3164 -0.2818
  436MOL0     C60097   7.257   9.400  10.681  1.0557 -0.7935 -0.0228
  436MOL0     C60098   7.144   9.451  10.769 -0.4997  0.1428  0.5735
  436MOL0     H60099   6.778   9.373  10.581 -2.1663  0.8028 -1.6373
  436MOL0     H60100   6.555   9.283  10.575 -0.2078 -0.7513  0.8052
  436MOL0     H60101   6.387   9.157  10.547 -0.9109  1.5577  1.3102
  436MOL0     H60102   6.355   9.124  10.722 -0.2473 -2.6959  1.2690
  436MOL0     H60103   6.172   9.041  10.571 -0.0353 -1.3025  1.9957
  436MOL0     H60104   6.279   8.952  10.482  1.4732  1.4483  0.4637
  436MOL0     H60105   6.260   8.883  10.776 -0.3982 -2.6889  0.0172
  436MOL0     H60106   6.143   8.832  10.650  1.4275 -1.9868 -1.1148
  436MOL0     H60107   6.339   8.731  10.525 -1.9784 -0.6627 -0.6706
  436MOL0     H60108   6.437   8.792  10.643 -1.7595  5.1674  0.9109
  436MOL0     H60109   6.344   8.599  10.794 -3.8618 -0.5463  0.4160
  436MOL0     H60110   6.386   8.546  10.633  0.7042  1.3573 -0.9299
  436MOL0     H60111   6.111   8.639  10.740 -2.1838 -1.3238 -1.3226
  436MOL0     H60112   6.135   8.581  10.578  0.6806  1.1046 -1.3545
  436MOL0     H60113   6.028   8.395  10.738 -0.5275 -0.8289  4.1836
  436MOL0     H60114   6.150   8.434  10.851  1.3538 -0.2804 -0.4260
  436MOL0     H60115   6.314   8.342  10.704 -0.0435 -0.9113 -1.0043
  436MOL0     H60116   6.187   8.227  10.702  2.4281 -1.2145  0.4977
  436MOL0     H60117   6.417   8.358  10.471  0.6068  1.7073 -0.5329
  436MOL0     H60118   6.313   8.291  10.111  2.5832  2.2540 -2.4936
  436MOL0     H60119   6.444   8.340  10.225  0.1927 -0.3150  2.2221
  436MOL0     H60120   6.225   8.524  10.123 -0.5483  3.0396  0.9020
  436MOL0     H60121   6.366   8.564  10.221 -4.8344  0.1023  2.1180
  436MOL0     H60122   6.501   8.439  10.012  0.8599  2.0904 -1.6213
  436MOL0     H60123   6.342   8.466   9.936  0.5509 -2.4654  0.4193
  436MOL0     H60124   6.438   8.641   9.858 -1.0303  0.2003  0.8832
  436MOL0     H60125   6.399   8.727  10.008  1.0147  0.6002  0.0614
  436MOL0     H60126   6.514   8.891   9.887 -0.3441  0.3389 -2.3904
  436MOL0     H60127   6.532   9.070   9.777  0.5587 -2.4856  0.8518
  436MOL0     H60128   6.682   9.135   9.711  0.7939 -2.6318 -0.5222
  436MOL0     H60129   6.649   9.173   9.884  1.1679  3.0893 -3.5250
  436MOL0     H60130   7.313   8.919   9.876 -2.9291 -0.3502  0.7810
  436MOL0     H60131   7.534   9.043   9.851  0.7301  2.8065  2.1573
  436MOL0     H60132   7.643   9.249   9.907 -0.6853 -1.5066 -0.1489
  436MOL0     H60133   7.711   9.190   9.758 -1.0381 -1.7853 -0.6840
  436MOL0     H60134   7.781   9.426   9.692  0.5430 -2.0909 -1.0166
  436MOL0     H60135   7.694   9.495   9.820  0.4041  0.0387 -1.0730
  436MOL0     H60136   7.929   9.294   9.856 -0.9906 -0.4779  0.7799
  436MOL0     H60137   7.822   9.355   9.982 -0.4335  1.6266  0.1831
  436MOL0     H60138   7.908   9.584   9.905 -1.6514 -0.2570  0.4198
  436MOL0     H60139   8.029   9.489   9.810 -1.2709 -1.4451  0.1509
  436MOL0     H60140   7.987   9.445  10.113  2.3724 -1.5633  1.0765
  436MOL0     H60141   8.116   9.386  10.005 -0.0738 -0.3007 -0.5738
  436MOL0     H60142   8.184   9.590  10.156  4.4833 -1.3310 -1.7553
  436MOL0     H60143   8.063   9.683  10.064  0.4443 -0.5849  2.4541
  436MOL0     H60144   8.282   9.720   9.978  1.1767  0.2465  2.5432
  436MOL0     H60145   8.205   9.621   9.859  2.8242 -0.6704  0.1634
  436MOL0     H60146   8.443   9.536   9.898  1.1822 -1.1253  0.6045
  436MOL0     H60147   8.329   9.418   9.905 -0.0138 -0.0604 -0.5047
  436MOL0     H60148   7.306   9.374   9.690  1.3805  0.5357  2.2451
  436MOL0     H60149   7.099   9.261   9.726  1.7562  3.9403 -0.6977
  436MOL0     H60150   6.997   8.817   9.934  0.0647  0.2756  0.1831
  436MOL0     H60151   6.848   8.642   9.994 -0.7806 -0.0058 -0.4483
  436MOL0     H60152   6.738   8.901  10.713  3.8817 -0.6517 -2.4956
  436MOL0     H60153   6.957   9.004  10.657  0.9543  0.4636 -3.6472
  436MOL0     H60154   7.353   9.203  10.406  0.1321  1.2841 -2.3630
  436MOL0     H60155   7.561   9.327  10.460  0.0995 -0.8474  2.4250
  436MOL0     H60156   7.742   9.354  10.768 -1.7938  2.3351  0.5311
  436MOL0     H60157   7.741   9.321  10.593  3.7848  0.0682  0.6904
  436MOL0     H60158   7.822   9.561  10.570 -0.1741  1.7237  1.1536
  436MOL0     H60159   7.938   9.432  10.620  0.2518  0.3376 -1.2901
  436MOL0     H60160   7.786   9.642  10.796 -0.4969 -1.8695  0.0456
  436MOL0     H60161   7.887   9.525  10.873 -0.8629  2.2265  2.0132
  436MOL0     H60162   7.985   9.733  10.667 -0.2105  2.1298  1.7528
  436MOL0     H60163   8.087   9.600  10.739 -0.0696 -1.3873  2.8123
  436MOL0     H60164   8.076   9.866  11.071  0.5938 -0.6348 -0.4562
  436MOL0     H60165   7.399   9.534  10.770  3.7563 -1.7599  0.3904
  436MOL0     H60166   7.113   9.361  10.822  0.7018 -0.4945  0.2231
  436MOL0     H60167   7.190   9.521  10.839  4.1839 -4.7237  2.9933
  436MOL0     H60168   7.066   9.503  10.712 -0.0610 -1.1519 -1.2852
  437MOL0     O60169   7.299  10.929   1.952 -0.2397 -0.0218  0.2561
  437MOL0     C60170   7.254  10.938   1.838  0.7618 -0.9292 -0.4819
  437MOL0     O60171   7.122  10.979   1.816 -0.2494 -0.3264  0.1910
  437MOL0     C60172   7.043  11.001   1.930 -0.0222 -0.2122 -0.5612
  437MOL0     C60173   7.027  11.131   1.985  0.5053  1.1703  1.1777
  437MOL0     C60174   6.955  11.154   2.095 -0.4425 -0.4872 -0.0857
  437MOL0     C60175   6.888  11.048   2.159 -0.0335 -0.4503  1.0531
  437MOL0     O60176   6.818  11.083   2.267 -0.0582  0.0527 -0.2261
  437MOL0     C60177   6.701  11.007   2.290 -0.2412  0.5247 -0.0346
  437MOL0     C60178   6.638  11.063   2.418 -0.4419 -0.3192 -0.3360
  437MOL0     C60179   6.608  11.208   2.406 -0.3658 -0.0995 -0.3272
  437MOL0     C60180   6.712  11.297   2.480  0.5535 -0.2392 -0.7366
  437MOL0     C60181   6.662  11.446   2.487  0.1278 -1.1828  0.0207
  437MOL0     C60182   6.647  11.506   2.343  0.0337 -0.3450  0.3499
  437MOL0     C60183   6.785  11.512   2.265 -0.2100  0.0607 -0.8972
  437MOL0     C60184   6.773  11.565   2.127 -0.2842  0.3776  0.8414
  437MOL0     N60185   6.896  11.561   2.051 -0.4321  0.1972  0.6790
  437MOL0     C60186   7.007  11.644   2.042  0.4921 -0.2578  0.3771
  437MOL0     C60187   7.101  11.574   1.972 -0.5012  0.7734 -0.0552
  437MOL0     C60188   7.243  11.603   1.936 -0.1310  0.0226  0.7140
  437MOL0     C60189   7.244  11.723   1.848  0.1045 -0.7482 -0.2256
  437MOL0     C60190   7.179  11.701   1.718 -0.2295  0.0348  0.0717
  437MOL0     C60191   7.206  11.824   1.635 -0.3952  1.1146 -0.5423
  437MOL0     O60192   7.162  11.806   1.499  0.3600  0.4682 -0.5054
  437MOL0     C60193   7.203  11.903   1.409 -0.2936  0.6388  0.2400
  437MOL0     C60194   7.257  12.026   1.445 -0.6740 -0.2382  0.3998
  437MOL0     C60195   7.322  12.104   1.338 -0.1681  0.3295  0.7787
  437MOL0     C60196   7.406  12.222   1.390  0.0384  0.2860  0.2348
  437MOL0     C60197   7.318  12.069   1.198 -0.0766 -0.8040 -0.5173
  437MOL0     C60198   7.374  12.152   1.079 -0.1848  0.0915 -0.0804
  437MOL0     O60199   7.441  12.274   1.103 -0.3288  0.1480 -0.5114
  437MOL0     C60200   7.483  12.341   0.994 -0.4977 -0.6741  0.3918
  437MOL0     C60201   7.624  12.341   0.953 -0.4353 -0.5200 -0.0548
  437MOL0     C60202   7.654  12.424   0.842 -0.6016  1.0945  1.0040
  437MOL0     C60203   7.561  12.495   0.762 -0.0982 -0.9301  0.3012
  437MOL0     O60204   7.591  12.566   0.651 -0.4306 -0.7964 -0.1234
  437MOL0     C60205   7.681  12.675   0.676  0.3384  0.8506  0.8562
  437MOL0     C60206   7.777  12.687   0.556 -0.5553 -0.0035  0.7857
  437MOL0     C60207   7.845  12.569   0.482 -0.6723  0.3094  0.2145
  437MOL0     C60208   7.987  12.605   0.441 -0.3280  0.5004  0.5474
  437MOL0     C60209   8.054  12.491   0.368 -0.8710 -0.5464  0.3213
  437MOL0     C60210   8.121  12.388   0.462 -0.2948 -0.1897 -0.8639
  437MOL0     C60211   8.253  12.438   0.528  0.2049 -1.1250  0.0616
  437MOL0     C60212   8.368  12.424   0.427 -0.4645  0.3535  0.4157
  437MOL0    Cl60213   8.382  12.268   0.344 -0.4694 -0.2912  0.3439
  437MOL0     C60214   7.429  12.489   0.793  0.1231  0.3322 -0.5698
  437MOL0     C60215   7.387  12.413   0.914 -0.1979  0.1073  0.1541
  437MOL0     O60216   7.342  12.106   0.972 -0.1358  0.6144  1.1899
  437MOL0     C60217   7.232  11.958   1.179 -0.5051 -0.9983 -1.0714
  437MOL0     C60218   7.180  11.875   1.278  0.1601 -0.7011  0.0392
  437MOL0     N60219   7.040  11.458   1.931  0.1957 -0.4054 -0.0055
  437MOL0     N60220   6.926  11.448   1.981  0.3734  0.5360  0.2073
  437MOL0     C60221   6.909  10.915   2.110  0.2296  0.2352  0.3310
  437MOL0     C60222   6.987  10.896   1.998  0.6529  0.1857 -0.0335
  437MOL0     C60223   7.330  10.873   1.733  0.2984 -0.0065 -0.2087
  437MOL0     C60224   7.458  10.826   1.765 -1.2831  0.4845  0.2778
  437MOL0     C60225   7.535  10.767   1.666 -0.6904  0.5777 -0.8008
  437MOL0     C60226   7.486  10.753   1.534 -0.4388 -0.5653  0.0828
  437MOL0     O60227   7.553  10.680   1.435 -0.1646 -0.2720  0.0381
  437MOL0     C60228   7.694  10.654   1.449  1.7598  0.4297  0.1850
  437MOL0     C60229   7.725  10.532   1.354  0.9690  0.1535 -0.0514
  437MOL0     C60230   7.872  10.519   1.324  0.7448 -0.2573 -1.1494
  437MOL0     C60231   7.917  10.396   1.242 -0.2958 -0.2800 -0.5972
  437MOL0     C60232   7.819  10.369   1.133  0.8662 -0.0381 -0.8154
  437MOL0     C60233   7.724  10.341   1.060  0.0049  0.4504 -0.6153
  437MOL0     C60234   7.359  10.796   1.509 -0.0765  1.2988  0.0844
  437MOL0     C60235   7.274  10.856   1.601 -0.7397 -0.4283  0.3236
  437MOL0     C60236   7.136  10.901   1.549 -0.3038 -0.3244 -0.3395
  437MOL0     H60237   7.070  11.212   1.926 -2.7687 -0.1511 -3.6444
  437MOL0     H60238   6.948  11.257   2.129 -1.3498 -0.6060  0.1095
  437MOL0     H60239   6.722  10.900   2.299  0.5863  0.8273  2.4733
  437MOL0     H60240   6.627  11.033   2.214 -0.3394 -1.7910 -0.7766
  437MOL0     H60241   6.552  11.004   2.448 -0.3829  0.5589  1.6845
  437MOL0     H60242   6.707  11.047   2.501  1.4873  1.3882 -1.5161
  437MOL0     H60243   6.607  11.240   2.302 -0.2520  0.2887 -0.2117
  437MOL0     H60244   6.509  11.238   2.443  0.9792  1.8601  2.0758
  437MOL0     H60245   6.720  11.255   2.581 -0.2599  0.6349 -0.2884
  437MOL0     H60246   6.813  11.285   2.440  2.8828  2.4066  3.5939
  437MOL0     H60247   6.740  11.490   2.550  0.7684 -4.5220  1.8256
  437MOL0     H60248   6.574  11.455   2.551  2.5115  1.1378  3.3284
  437MOL0     H60249   6.570  11.448   2.290  1.9184 -2.3510 -0.3037
  437MOL0     H60250   6.603  11.606   2.347  0.5072 -0.0436 -1.3897
  437MOL0     H60251   6.827  11.412   2.259  0.1965  0.2814 -1.9779
  437MOL0     H60252   6.859  11.578   2.313 -1.2235 -0.4714  1.5618
  437MOL0     H60253   6.716  11.482   2.086  1.2782 -1.8953  2.9807
  437MOL0     H60254   6.730  11.664   2.106  1.2537  1.1840  1.3443
  437MOL0     H60255   7.021  11.743   2.085  2.3626 -0.3692  0.0982
  437MOL0     H60256   7.284  11.518   1.881 -2.1775  0.9809 -2.6195
  437MOL0     H60257   7.300  11.630   2.025  0.7964  1.1584 -0.1882
  437MOL0     H60258   7.188  11.796   1.908  5.2004  1.8010  2.0875
  437MOL0     H60259   7.348  11.758   1.839 -0.1731 -0.4082 -2.7172
  437MOL0     H60260   7.219  11.623   1.653 -1.7302  1.1459 -2.3438
  437MOL0     H60261   7.071  11.688   1.729 -0.4695  1.0337 -0.9511
  437MOL0     H60262   7.150  11.908   1.677 -0.8285  0.4080  0.3160
  437MOL0     H60263   7.315  11.839   1.636 -0.1804 -0.2416  1.7347
  437MOL0     H60264   7.263  12.068   1.545 -0.3342  0.9431 -0.1066
  437MOL0     H60265   7.364  12.313   1.347 -0.3563  0.6580  1.3813
  437MOL0     H60266   7.514  12.210   1.376 -0.1638 -0.3342 -0.9214
  437MOL0     H60267   7.406  12.228   1.499  0.8150  1.2996  0.1967
  437MOL0     H60268   7.703  12.290   1.008  0.6418  1.6452  0.4921
  437MOL0     H60269   7.762  12.430   0.838 -0.5716  0.3544  0.5282
  437MOL0     H60270   7.621  12.765   0.686  1.7761  2.3672 -2.6399
  437MOL0     H60271   7.743  12.649   0.763 -1.7893 -3.9781  1.2816
  437MOL0     H60272   7.734  12.756   0.483  2.8510  2.4133  0.8340
  437MOL0     H60273   7.856  12.742   0.609  0.6275 -1.5705  0.7075
  437MOL0     H60274   7.783  12.541   0.397 -0.0847  1.2490 -0.5426
  437MOL0     H60275   7.861  12.487   0.553 -1.4375 -2.3998 -2.5238
  437MOL0     H60276   8.043  12.622   0.533  2.2376 -0.4259 -0.7452
  437MOL0     H60277   7.993  12.698   0.384  0.5045  0.6167  0.8180
  437MOL0     H60278   7.982  12.433   0.309 -1.4504  0.0067  0.4775
  437MOL0     H60279   8.117  12.543   0.296 -3.1233  2.9875  0.6624
  437MOL0     H60280   8.143  12.290   0.418  1.8064 -0.3924  0.4812
  437MOL0     H60281   8.059  12.368   0.551 -0.0219 -1.5440 -0.9511
  437MOL0     H60282   8.284  12.378   0.614 -2.2041 -1.8882  0.4748
  437MOL0     H60283   8.246  12.542   0.561 -0.8381 -0.3144 -2.4955
  437MOL0     H60284   8.464  12.446   0.474 -1.2401 -0.4046  2.4752
  437MOL0     H60285   8.342  12.499   0.352 -1.9595 -1.2122 -0.7114
  437MOL0     H60286   7.358  12.526   0.720 -2.1273  2.7988  2.5662
  437MOL0     H60287   7.284  12.415   0.947 -1.1840  0.1847 -2.6274
  437MOL0     H60288   7.210  11.933   1.076 -0.0301  3.1275 -2.3244
  437MOL0     H60289   7.117  11.791   1.252 -0.4101  0.3218 -2.1406
  437MOL0     H60290   6.877  10.832   2.173 -0.1354  0.9913  1.1577
  437MOL0     H60291   7.008  10.793   1.973  2.1962 -0.1476  2.3498
  437MOL0     H60292   7.504  10.844   1.861 -0.5754  1.5798 -0.2464
  437MOL0     H60293   7.635  10.737   1.697 -0.6557  3.5529  2.6033
  437MOL0     H60294   7.755  10.739   1.416  1.8838  0.0383 -0.6243
  437MOL0     H60295   7.728  10.630   1.550  3.9725 -1.0283 -0.8156
  437MOL0     H60296   7.653  10.532   1.272  1.1987 -2.9796 -0.4095
  437MOL0     H60297   7.715  10.434   1.403  1.2622 -0.8644 -1.9352
  437MOL0     H60298   7.907  10.610   1.275  0.1814 -0.1896 -1.4280
  437MOL0     H60299   7.921  10.509   1.422  0.2496  1.8713 -0.6503
  437MOL0     H60300   7.922  10.309   1.309  3.0918  0.1225 -0.1317
  437MOL0     H60301   8.012  10.418   1.192 -1.6427  0.0621 -3.1574
  437MOL0     H60302   7.657  10.317   0.980  0.7187  1.0030 -1.3922
  437MOL0     H60303   7.326  10.776   1.407  2.5468  0.1673 -0.6098
  437MOL0     H60304   7.132  10.872   1.444  0.3255 -1.1278 -0.1492
  437MOL0     H60305   7.052  10.866   1.609 -1.1180  0.0877 -1.2101
  437MOL0     H60306   7.127  11.009   1.562  1.7441 -0.1240 -0.2484
  438MOL0     O60307   1.910   2.517   1.943  0.9173 -0.6739  0.4855
  438MOL0     C60308   1.935   2.498   1.822 -0.0171 -1.4282 -0.2893
  438MOL0     O60309   1.892   2.581   1.726 -0.1863 -0.2936  0.0592
  438MOL0     C60310   1.804   2.683   1.762 -0.2623  0.3144  0.1533
  438MOL0     C60311   1.671   2.674   1.704  0.1187 -0.4318 -1.3676
  438MOL0     C60312   1.570   2.763   1.754  0.6105  0.1458  0.6284
  438MOL0     C60313   1.591   2.860   1.847 -0.5041 -0.1337 -0.4138
  438MOL0     O60314   1.493   2.953   1.871  0.3822 -0.0475  0.5129
  438MOL0     C60315   1.511   3.061   1.966  1.0766  0.6302 -0.0587
  438MOL0     C60316   1.399   3.168   1.955  0.1873  0.4301 -0.0018
  438MOL0     C60317   1.261   3.128   1.996 -0.1251  0.2604  0.1059
  438MOL0     C60318   1.149   3.216   1.939 -0.2237 -0.0346 -0.3688
  438MOL0     C60319   1.023   3.132   1.912  0.7929 -0.5365 -0.2347
  438MOL0     C60320   0.958   3.043   2.025 -0.4091 -0.2703  0.6211
  438MOL0     C60321   0.921   3.129   2.151 -0.3011 -0.5805 -0.3974
  438MOL0     C60322   0.848   3.055   2.261  0.4023 -0.2250  0.4773
  438MOL0     N60323   0.844   3.137   2.384 -0.2281  0.4504 -0.2339
  438MOL0     C60324   0.815   3.270   2.396  0.0584  0.2024  0.1168
  438MOL0     C60325   0.876   3.309   2.513  0.7423 -0.0036  0.0921
  438MOL0     C60326   0.863   3.444   2.569 -0.5997  0.2743 -0.8663
  438MOL0     C60327   0.719   3.488   2.570 -0.6539 -0.6606  0.3035
  438MOL0     C60328   0.705   3.614   2.655 -0.1403  0.1208  0.3253
  438MOL0     C60329   0.785   3.738   2.602 -0.2976  0.4422  0.2436
  438MOL0     O60330   0.755   3.775   2.464 -0.3720 -0.4177  0.2782
  438MOL0     C60331   0.860   3.819   2.389  0.4795  0.7090 -0.2898
  438MOL0     C60332   0.866   3.761   2.265 -0.3107  0.1422  0.0464
  438MOL0     C60333   0.965   3.802   2.170 -0.0059  0.1599  1.1185
  438MOL0     C60334   0.985   3.724   2.043 -1.4577  0.7895 -0.5840
  438MOL0     C60335   1.063   3.893   2.215  0.1535  0.0490 -0.5547
  438MOL0     C60336   1.197   3.926   2.150 -0.1374  0.2304 -0.2739
  438MOL0     O60337   1.209   3.901   2.012  0.2055 -0.0736  0.1431
  438MOL0     C60338   1.325   3.906   1.957 -0.6597  1.0087  0.2036
  438MOL0     C60339   1.376   4.029   1.917 -0.4426  0.5427 -0.0150
  438MOL0     C60340   1.512   4.031   1.861  0.0592  0.7257  0.1074
  438MOL0     C60341   1.582   3.910   1.842 -0.7822 -0.2589 -0.0721
  438MOL0     O60342   1.688   3.917   1.751  0.1576  0.4112 -0.1613
  438MOL0     C60343   1.767   3.805   1.718  0.1984  0.1479  0.4206
  438MOL0     C60344   1.868   3.761   1.826  0.1927  0.2958 -0.1807
  438MOL0     C60345   1.945   3.644   1.783 -0.8935 -0.1643  0.7208
  438MOL0     C60346   2.054   3.618   1.881 -0.8890  0.9600 -0.0683
  438MOL0     C60347   2.139   3.495   1.837  0.3248  0.0570 -0.4070
  438MOL0     C60348   2.244   3.469   1.948  0.5631  0.2181 -0.4413
  438MOL0     C60349   2.354   3.376   1.897  0.1010  0.8061  0.0481
  438MOL0     C60350   2.463   3.451   1.820  0.5468  0.4029 -0.8927
  438MOL0    Cl60351   2.565   3.319   1.757 -0.0760 -0.0079  0.2092
  438MOL0     C60352   1.536   3.794   1.902  0.0880  0.1992 -0.7857
  438MOL0     C60353   1.414   3.797   1.965 -0.4156 -1.1551  0.0183
  438MOL0     O60354   1.295   3.956   2.224 -0.1362 -0.3831  0.2804
  438MOL0     C60355   1.049   3.958   2.334  0.6279 -0.1030 -0.0492
  438MOL0     C60356   0.950   3.918   2.420  0.2219 -0.1186  0.0641
  438MOL0     N60357   0.931   3.204   2.574  0.4211 -0.2374 -1.0927
  438MOL0     N60358   0.910   3.101   2.501 -0.9657 -0.2994  0.0545
  438MOL0     C60359   1.722   2.863   1.905  0.6864  0.1422  0.4043
  438MOL0     C60360   1.823   2.780   1.854 -0.3029 -0.5510  0.1957
  438MOL0     C60361   1.992   2.370   1.780  0.1609 -1.6555  0.4315
  438MOL0     C60362   2.055   2.381   1.651 -0.0679 -0.5745 -0.2734
  438MOL0     C60363   2.126   2.276   1.595 -0.7404 -0.0603 -0.2884
  438MOL0     C60364   2.139   2.158   1.660  0.0044  0.4332 -0.2780
  438MOL0     O60365   2.214   2.061   1.599 -0.0953 -0.6627  0.0235
  438MOL0     C60366   2.277   1.966   1.683  0.6183 -0.5254  1.0189
  438MOL0     C60367   2.415   2.033   1.722 -0.5383  0.6531  0.0603
  438MOL0     C60368   2.505   2.039   1.594  0.0760 -0.1319 -0.5371
  438MOL0     C60369   2.635   2.099   1.650  0.1926  0.1027 -0.0023
  438MOL0     C60370   2.621   2.247   1.674 -0.4273  0.9659 -0.2737
  438MOL0     C60371   2.601   2.362   1.691 -0.7497  0.3011  1.1792
  438MOL0     C60372   2.064   2.137   1.778 -0.2460  0.0470 -0.0559
  438MOL0     C60373   1.999   2.250   1.844 -0.2397  0.6182 -0.8672
  438MOL0     C60374   1.933   2.229   1.974  0.0111 -0.0382 -0.5340
  438MOL0     H60375   1.652   2.601   1.626  1.8681 -1.8917 -0.5183
  438MOL0     H60376   1.480   2.774   1.695  1.6372 -2.0540 -1.5453
  438MOL0     H60377   1.599   3.117   1.933  0.8077 -0.3294 -2.5655
  438MOL0     H60378   1.520   3.021   2.068 -0.4685  2.7057  0.9718
  438MOL0     H60379   1.422   3.268   1.994  1.6874  0.4973 -0.9748
  438MOL0     H60380   1.389   3.194   1.849 -3.9407  2.3079  0.6747
  438MOL0     H60381   1.255   3.027   1.954  1.6858 -0.1255  0.6960
  438MOL0     H60382   1.251   3.120   2.104 -0.1261 -0.9029  0.0283
  438MOL0     H60383   1.136   3.304   2.003 -1.0963 -0.5784  0.2257
  438MOL0     H60384   1.190   3.257   1.847  2.2240 -0.9496  0.2407
  438MOL0     H60385   1.048   3.070   1.826 -0.1972  0.5394 -1.3295
  438MOL0     H60386   0.949   3.205   1.879  2.0244  0.6056 -0.5599
  438MOL0     H60387   0.872   2.993   1.981  2.3112 -3.1542 -1.8392
  438MOL0     H60388   1.035   2.974   2.062  0.9750  1.4612  1.1205
  438MOL0     H60389   0.860   3.216   2.126  0.9211  1.1659  2.1763
  438MOL0     H60390   1.016   3.173   2.183 -0.1119  0.9657 -2.7844
  438MOL0     H60391   0.748   3.026   2.229  1.2160  0.2302 -2.8869
  438MOL0     H60392   0.907   2.967   2.289  0.8603  1.0048  3.9444
  438MOL0     H60393   0.771   3.329   2.317  0.6783  1.2870  0.5536
  438MOL0     H60394   0.933   3.508   2.513  0.9020  0.4326  1.0896
  438MOL0     H60395   0.903   3.439   2.671 -0.3233 -3.0920 -1.0308
  438MOL0     H60396   0.694   3.507   2.465  1.0325 -0.3522 -0.0657
  438MOL0     H60397   0.658   3.405   2.608 -2.0933 -0.0923 -0.6537
  438MOL0     H60398   0.597   3.634   2.657 -0.2320 -0.4090  1.0469
  438MOL0     H60399   0.728   3.592   2.760 -0.8649 -2.7204 -0.0334
  438MOL0     H60400   0.765   3.823   2.667 -2.5719 -2.3083  3.5329
  438MOL0     H60401   0.888   3.700   2.611 -0.7494 -0.6408  1.0604
  438MOL0     H60402   0.794   3.686   2.233  1.1983 -2.3105  1.9478
  438MOL0     H60403   1.069   3.657   2.058 -0.7117  1.8966  0.3629
  438MOL0     H60404   0.990   3.779   1.948 -0.6129  2.0691  0.1661
  438MOL0     H60405   0.906   3.650   2.029 -2.3055  0.6851  3.5008
  438MOL0     H60406   1.324   4.123   1.931  0.2950  0.7916  1.2209
  438MOL0     H60407   1.554   4.121   1.819 -0.3777 -0.1202 -2.3012
  438MOL0     H60408   1.705   3.725   1.677 -1.8515  2.4735 -1.3270
  438MOL0     H60409   1.830   3.832   1.633  0.1937  1.8710  0.9247
  438MOL0     H60410   1.936   3.846   1.835  0.9291 -0.2943 -0.0881
  438MOL0     H60411   1.816   3.757   1.922  0.1162  1.2024 -0.1711
  438MOL0     H60412   1.992   3.653   1.685  0.5713  1.5103  1.5206
  438MOL0     H60413   1.874   3.561   1.782 -0.3297 -0.6567  0.9629
  438MOL0     H60414   2.002   3.592   1.974 -2.1875 -0.2513 -1.0852
  438MOL0     H60415   2.110   3.709   1.902 -0.0639  0.0487  1.9061
  438MOL0     H60416   2.070   3.412   1.818 -0.1651  0.5881 -0.9503
  438MOL0     H60417   2.199   3.519   1.749  4.9025 -1.4334  1.9753
  438MOL0     H60418   2.203   3.426   2.040 -3.0596  3.1317 -0.4792
  438MOL0     H60419   2.283   3.566   1.982 -0.4300  0.5953 -0.3645
  438MOL0     H60420   2.304   3.299   1.838  0.8381 -1.4257  2.1541
  438MOL0     H60421   2.397   3.324   1.984  2.0525 -0.1556 -1.4013
  438MOL0     H60422   2.524   3.516   1.884  0.7894 -1.4674  0.8652
  438MOL0     H60423   2.439   3.502   1.726  0.2145 -1.4028 -1.8285
  438MOL0     H60424   1.581   3.695   1.896 -1.1788 -0.4207 -0.2757
  438MOL0     H60425   1.374   3.712   2.020 -0.2310 -1.3243 -0.1098
  438MOL0     H60426   1.126   4.032   2.353  0.3408 -0.2925  2.0858
  438MOL0     H60427   0.949   3.949   2.524  0.5128  2.4906 -0.6219
  438MOL0     H60428   1.743   2.927   1.990  0.3213 -0.3912  0.8950
  438MOL0     H60429   1.916   2.773   1.909  0.7189  1.2413 -1.1964
  438MOL0     H60430   2.026   2.464   1.586 -0.5284 -1.1566 -0.8184
  438MOL0     H60431   2.177   2.273   1.499 -1.1691 -0.4495 -0.5067
  438MOL0     H60432   2.208   1.941   1.764 -2.6016  1.4966 -0.9024
  438MOL0     H60433   2.283   1.874   1.625 -0.3006  0.4078 -0.6111
  438MOL0     H60434   2.462   1.972   1.800 -0.8653  2.3094  1.6010
  438MOL0     H60435   2.393   2.127   1.773 -2.3769 -1.0769  2.7239
  438MOL0     H60436   2.524   1.939   1.555  0.9437 -1.1002  2.1135
  438MOL0     H60437   2.461   2.104   1.518 -0.0431 -2.6645 -2.7502
  438MOL0     H60438   2.718   2.082   1.581  2.3841  0.4955  2.3759
  438MOL0     H60439   2.661   2.048   1.743  0.4336  0.4050  0.0986
  438MOL0     H60440   2.591   2.467   1.704  0.7933  0.3781  2.0609
  438MOL0     H60441   2.057   2.040   1.827  0.6008 -0.2965 -0.5936
  438MOL0     H60442   2.006   2.238   2.054  2.2880  0.0774 -2.4971
  438MOL0     H60443   1.845   2.290   1.996 -0.6202 -0.8261 -0.8104
  438MOL0     H60444   1.901   2.125   1.981  2.5953 -0.7788  4.2879
  439MOL0     O60445   1.747   6.728   0.920  0.0400  0.0678 -0.6358
  439MOL0     C60446   1.672   6.813   0.875 -0.7541  0.4456  0.5280
  439MOL0     O60447   1.707   6.893   0.758  0.3079 -0.3749  0.2526
  439MOL0     C60448   1.839   6.901   0.708 -0.6452  0.8788 -0.2187
  439MOL0     C60449   1.922   6.788   0.694 -0.3373  0.3203  0.4720
  439MOL0     C60450   2.044   6.806   0.622  0.8823  0.3329  0.0078
  439MOL0     C60451   2.086   6.932   0.580 -0.2975  0.3335 -0.0855
  439MOL0     O60452   2.197   6.952   0.514  1.0610 -0.1396  0.2858
  439MOL0     C60453   2.260   6.843   0.453 -0.1722 -0.9431  0.6998
  439MOL0     C60454   2.362   6.899   0.359 -0.2497 -0.2146 -0.0520
  439MOL0     C60455   2.286   6.970   0.237 -0.8016 -0.2157  0.3776
  439MOL0     C60456   2.394   7.057   0.173 -0.3246  0.1179  0.1816
  439MOL0     C60457   2.347   7.136   0.051 -0.3197  1.3492 -0.0099
  439MOL0     C60458   2.271   7.053  -0.056 -0.3900 -0.2797  0.0042
  439MOL0     C60459   2.355   6.925  -0.108  1.0372  0.1036 -1.1289
  439MOL0     C60460   2.280   6.839  -0.199  0.1131  0.2365 -0.0759
  439MOL0     N60461   2.209   6.903  -0.303  0.9100  0.1802 -0.1947
  439MOL0     C60462   2.085   6.964  -0.279 -0.7874 -0.8659  0.9835
  439MOL0     C60463   2.076   7.043  -0.387  0.1728  0.1527 -0.1258
  439MOL0     C60464   1.957   7.128  -0.418 -0.0706  0.5741  0.4256
  439MOL0     C60465   1.955   7.254  -0.332  0.9680  0.9330 -0.2321
  439MOL0     C60466   2.072   7.336  -0.385 -0.4688  0.6953 -0.5208
  439MOL0     C60467   2.097   7.475  -0.308  0.3856  1.1790 -0.6619
  439MOL0     O60468   2.146   7.449  -0.178  0.5295  0.1916 -0.1498
  439MOL0     C60469   2.268   7.474  -0.138  0.1429  0.8297  0.0679
  439MOL0     C60470   2.277   7.486  -0.002  0.6766  0.5428 -0.4160
  439MOL0     C60471   2.395   7.510   0.061 -0.5531  0.6490 -0.1719
  439MOL0     C60472   2.395   7.521   0.209  0.1151 -0.3830 -0.1927
  439MOL0     C60473   2.511   7.520  -0.022 -0.2544  0.2416  0.1897
  439MOL0     C60474   2.644   7.561   0.030  0.2395 -0.8166  0.8487
  439MOL0     O60475   2.742   7.572  -0.064 -0.3896 -0.5034  0.8097
  439MOL0     C60476   2.877   7.583  -0.037  0.4869  0.3373 -0.0104
  439MOL0     C60477   2.939   7.675  -0.113 -0.5371 -0.1117 -0.0182
  439MOL0     C60478   3.071   7.711  -0.081  0.5566 -0.2261 -0.3924
  439MOL0     C60479   3.134   7.649   0.029  0.3417  0.9274 -0.2481
  439MOL0     O60480   3.271   7.663   0.052  0.0133 -0.2314  0.3840
  439MOL0     C60481   3.300   7.803   0.083  0.0634 -0.1982  0.1068
  439MOL0     C60482   3.429   7.844   0.155 -0.1493 -0.7984  0.0588
  439MOL0     C60483   3.539   7.743   0.114  0.3934 -0.6253  0.1635
  439MOL0     C60484   3.680   7.785   0.144  0.2210 -0.3122  0.3827
  439MOL0     C60485   3.733   7.903   0.061  0.4391  0.2988  0.1627
  439MOL0     C60486   3.883   7.930   0.094  0.2349 -0.1416  0.0597
  439MOL0     C60487   3.931   8.035  -0.011  0.2945 -0.2583 -0.7017
  439MOL0     C60488   4.057   8.097   0.042 -0.3477  0.8577 -0.3664
  439MOL0    Cl60489   4.193   7.998  -0.019 -0.0419 -0.2953 -0.4894
  439MOL0     C60490   3.073   7.550   0.105  0.3786  0.1450  0.3487
  439MOL0     C60491   2.942   7.518   0.071  0.1837  0.4293  0.4218
  439MOL0     O60492   2.666   7.573   0.150 -0.3407 -0.0950 -0.3344
  439MOL0     C60493   2.491   7.499  -0.161  0.4280  0.1974 -0.0606
  439MOL0     C60494   2.377   7.466  -0.216 -0.1682  0.0145 -0.6437
  439MOL0     N60495   2.186   7.023  -0.469  0.5130  0.0247  0.3423
  439MOL0     N60496   2.267   6.945  -0.417 -0.8657 -0.0596 -0.4507
  439MOL0     C60497   2.011   7.041   0.605 -0.2004 -0.3650  0.2189
  439MOL0     C60498   1.890   7.018   0.665 -0.5785 -1.1678 -0.3479
  439MOL0     C60499   1.530   6.791   0.916 -0.0135  0.1816 -0.5527
  439MOL0     C60500   1.512   6.720   1.039  0.6186 -0.1940  1.2004
  439MOL0     C60501   1.387   6.695   1.089  1.1515 -1.1368  0.8250
  439MOL0     C60502   1.274   6.741   1.018 -0.5830  0.9409 -0.1688
  439MOL0     O60503   1.153   6.707   1.072  0.1395 -0.2368  0.3690
  439MOL0     C60504   1.031   6.762   1.034  0.1192 -0.0509 -0.2514
  439MOL0     C60505   1.003   6.912   1.055 -0.4858 -0.3654  0.2244
  439MOL0     C60506   1.025   6.958   1.202  0.4298 -0.1286  0.0200
  439MOL0     C60507   0.930   6.889   1.297  0.7016 -0.1377  0.3655
  439MOL0     C60508   0.787   6.937   1.271 -1.1932 -0.0719  0.3385
  439MOL0     C60509   0.678   6.980   1.247  0.6609  0.8267  0.4466
  439MOL0     C60510   1.282   6.804   0.891 -0.0823  0.5304  0.2772
  439MOL0     C60511   1.412   6.830   0.850 -1.1638  0.6950  0.0285
  439MOL0     C60512   1.416   6.917   0.720 -0.4229  0.6584  0.1728
  439MOL0     H60513   1.885   6.692   0.728 -2.7593  1.8738  2.6342
  439MOL0     H60514   2.099   6.721   0.584  1.2074  1.5921 -2.5557
  439MOL0     H60515   2.199   6.771   0.397 -0.5190 -0.7352  0.8150
  439MOL0     H60516   2.325   6.789   0.523  3.5908 -0.0705 -1.7773
  439MOL0     H60517   2.425   6.975   0.407  3.1808 -0.7849 -3.1293
  439MOL0     H60518   2.418   6.811   0.325  0.5923 -0.1489  1.0931
  439MOL0     H60519   2.224   6.912   0.167 -0.1304 -0.4514 -0.0233
  439MOL0     H60520   2.210   7.042   0.270  0.8065  2.1511 -0.7704
  439MOL0     H60521   2.431   7.131   0.244 -1.8188  1.9459 -0.8346
  439MOL0     H60522   2.483   7.002   0.141 -1.2459 -0.1298 -2.1488
  439MOL0     H60523   2.434   7.178   0.002 -0.1615 -0.6503 -1.5675
  439MOL0     H60524   2.287   7.223   0.079 -0.4456  1.4573 -0.6116
  439MOL0     H60525   2.172   7.020  -0.023  0.2054 -2.3196 -0.0967
  439MOL0     H60526   2.263   7.126  -0.138  2.7553  0.2685  0.0661
  439MOL0     H60527   2.371   6.855  -0.026  0.2620  0.5316 -0.5993
  439MOL0     H60528   2.452   6.953  -0.150  3.1474 -1.8166  2.0613
  439MOL0     H60529   2.350   6.768  -0.243  1.3448  1.1674  0.3150
  439MOL0     H60530   2.207   6.794  -0.131  0.4999 -0.2185  0.0366
  439MOL0     H60531   2.018   6.942  -0.197 -0.8092 -0.9366  0.9466
  439MOL0     H60532   1.876   7.062  -0.387  0.4832 -0.0826  0.4900
  439MOL0     H60533   1.941   7.134  -0.526  0.5406 -0.9596  0.2208
  439MOL0     H60534   1.863   7.310  -0.353  0.0717 -0.6970 -0.8771
  439MOL0     H60535   1.971   7.227  -0.227 -1.4705  1.1668  0.2641
  439MOL0     H60536   2.167   7.283  -0.378 -0.6851  0.1054 -1.7522
  439MOL0     H60537   2.070   7.368  -0.490  4.1646  1.6998 -0.5455
  439MOL0     H60538   2.174   7.530  -0.362 -0.7799  1.0588 -2.5487
  439MOL0     H60539   2.012   7.542  -0.294  2.1166  2.7726  4.1511
  439MOL0     H60540   2.184   7.464   0.050  0.7512 -1.6407 -1.0779
  439MOL0     H60541   2.293   7.549   0.237  0.2342 -0.8240  0.7471
  439MOL0     H60542   2.454   7.602   0.253  0.4100 -0.0471 -1.1929
  439MOL0     H60543   2.418   7.420   0.247 -0.6231 -0.0352  1.2563
  439MOL0     H60544   2.895   7.734  -0.193  2.3424  3.1320  0.5299
  439MOL0     H60545   3.134   7.785  -0.130 -1.2056  0.5629 -1.5834
  439MOL0     H60546   3.306   7.858  -0.011  2.4029 -1.7328 -0.7467
  439MOL0     H60547   3.219   7.848   0.142 -0.1738  1.2950 -1.3076
  439MOL0     H60548   3.452   7.948   0.133 -0.9779 -0.7747 -0.7877
  439MOL0     H60549   3.417   7.820   0.261  3.3610 -5.2732 -0.2503
  439MOL0     H60550   3.522   7.724   0.007 -2.4216 -1.7453  0.7303
  439MOL0     H60551   3.525   7.652   0.173  2.3104 -1.1042 -0.0753
  439MOL0     H60552   3.747   7.700   0.128  0.5809 -0.1559  1.0299
  439MOL0     H60553   3.683   7.813   0.250  1.0197 -0.7540  0.4847
  439MOL0     H60554   3.727   7.871  -0.043 -0.4851 -5.1133  1.5478
  439MOL0     H60555   3.669   7.988   0.086  0.2585 -0.2047  1.5185
  439MOL0     H60556   3.949   7.844   0.084  2.4186  1.3169  1.1621
  439MOL0     H60557   3.895   7.966   0.196 -1.0716 -0.3175  0.2914
  439MOL0     H60558   3.861   8.119  -0.021 -0.2290 -0.3383  1.7267
  439MOL0     H60559   3.935   7.991  -0.111 -0.0029 -3.4057  0.5591
  439MOL0     H60560   4.067   8.093   0.151 -1.1584 -2.7930 -0.3062
  439MOL0     H60561   4.077   8.202   0.015  3.1940  0.6477  0.8217
  439MOL0     H60562   3.119   7.509   0.194 -0.4375  1.4098  1.4051
  439MOL0     H60563   2.883   7.453   0.133  1.1962  0.5841  1.5906
  439MOL0     H60564   2.572   7.491  -0.234 -0.0492 -0.6150 -0.5296
  439MOL0     H60565   2.358   7.441  -0.320 -2.9545 -2.5679  0.3559
  439MOL0     H60566   2.049   7.142   0.589  1.5918 -0.8308  1.2663
  439MOL0     H60567   1.819   7.097   0.687  1.1517  0.5136 -0.4263
  439MOL0     H60568   1.596   6.678   1.095 -0.0093  1.3287  3.4085
  439MOL0     H60569   1.372   6.636   1.178 -1.2843  1.5400  2.3506
  439MOL0     H60570   1.017   6.757   0.925  3.3871  2.2874 -0.9481
  439MOL0     H60571   0.952   6.705   1.083  0.0038 -0.9670 -1.4587
  439MOL0     H60572   0.907   6.952   1.020  0.2572 -0.9088 -2.7081
  439MOL0     H60573   1.072   6.965   0.989  1.7591 -2.4159  0.7504
  439MOL0     H60574   1.127   6.931   1.230 -0.4817 -3.4802  0.4432
  439MOL0     H60575   1.012   7.065   1.223 -0.7729 -0.2981  0.1909
  439MOL0     H60576   0.953   6.900   1.404  0.3859  0.3919  0.3842
  439MOL0     H60577   0.939   6.780   1.290  1.6533 -0.0095 -0.6587
  439MOL0     H60578   0.586   7.034   1.236  1.9178  3.0914  0.4748
  439MOL0     H60579   1.196   6.829   0.830  0.6797 -1.1325 -1.6075
  439MOL0     H60580   1.440   6.845   0.642 -0.0655  0.4237  0.4921
  439MOL0     H60581   1.317   6.957   0.701 -0.6443 -0.5097 -1.3241
  439MOL0     H60582   1.499   6.988   0.722  0.8534 -0.7857  0.4898
  440MOL0     O60583   3.203   2.465   3.981  0.0827 -0.4706  0.0380
  440MOL0     C60584   3.184   2.504   4.102 -0.5642  0.0506  0.2582
  440MOL0     O60585   3.242   2.451   4.206 -0.0564  0.4345  0.7920
  440MOL0     C60586   3.365   2.386   4.190 -0.5316 -0.6286 -0.6422
  440MOL0     C60587   3.393   2.281   4.271 -0.9597  0.0139 -0.8180
  440MOL0     C60588   3.516   2.226   4.275  0.1323  0.3047  0.4449
  440MOL0     C60589   3.611   2.267   4.181 -0.0003  0.0791 -0.2176
  440MOL0     O60590   3.738   2.212   4.160 -0.4924 -0.0441 -0.1133
  440MOL0     C60591   3.769   2.096   4.239  0.3394  0.2580 -0.0664
  440MOL0     C60592   3.915   2.058   4.227 -0.0419  0.7141 -0.2423
  440MOL0     C60593   3.954   1.978   4.106 -0.6680  0.9206 -0.4874
  440MOL0     C60594   4.108   1.948   4.102  0.5471  0.2432 -1.0106
  440MOL0     C60595   4.147   1.895   3.963 -0.2892  0.1159  0.1968
  440MOL0     C60596   4.138   1.747   3.943  0.0884 -0.2130 -1.0466
  440MOL0     C60597   4.167   1.698   3.801  0.0981  0.6767  0.1150
  440MOL0     C60598   4.313   1.685   3.770 -0.3051 -0.0661 -0.8591
  440MOL0     N60599   4.320   1.625   3.641 -0.2332  0.1690 -0.1577
  440MOL0     C60600   4.356   1.494   3.630 -0.3418 -0.0821 -0.3907
  440MOL0     C60601   4.374   1.480   3.495  0.1969 -0.0354  0.0162
  440MOL0     C60602   4.434   1.353   3.439 -0.2427  0.1533  1.2633
  440MOL0     C60603   4.338   1.236   3.430  0.1851 -0.4466  0.3956
  440MOL0     C60604   4.408   1.108   3.410 -0.8179 -0.0848  0.4629
  440MOL0     C60605   4.304   0.999   3.406 -0.2334 -0.5013  0.0281
  440MOL0     O60606   4.196   1.023   3.321 -0.0782 -0.6206 -0.0671
  440MOL0     C60607   4.210   0.984   3.196 -0.5479  0.5059  0.5470
  440MOL0     C60608   4.280   1.062   3.099 -0.3053  0.5671  0.1014
  440MOL0     C60609   4.291   1.022   2.969  0.3122  0.3864  0.1743
  440MOL0     C60610   4.369   1.107   2.871  0.6352  0.0285  0.1152
  440MOL0     C60611   4.231   0.892   2.930 -0.4849  0.2374 -0.0193
  440MOL0     C60612   4.233   0.825   2.803 -1.0821  0.5241  0.2249
  440MOL0     O60613   4.231   0.686   2.813  0.6227  0.2848 -0.0077
  440MOL0     C60614   4.220   0.613   2.699 -0.0735  0.0396  0.2417
  440MOL0     C60615   4.304   0.623   2.592 -0.4978 -0.0877 -0.2080
  440MOL0     C60616   4.270   0.561   2.469 -1.1092 -0.3277  0.6410
  440MOL0     C60617   4.158   0.473   2.461  0.1347  0.4704 -0.1441
  440MOL0     O60618   4.120   0.407   2.355  0.6430 -0.5577  0.4775
  440MOL0     C60619   4.204   0.418   2.230  0.8818  0.9130 -0.7409
  440MOL0     C60620   4.321   0.325   2.235 -0.4756 -0.0901 -0.3980
  440MOL0     C60621   4.448   0.389   2.176  0.0607  0.7219  0.5655
  440MOL0     C60622   4.446   0.393   2.019  0.1258 -0.9583 -1.2011
  440MOL0     C60623   4.564   0.466   1.967 -0.1675  0.2894  0.5348
  440MOL0     C60624   4.692   0.380   1.957 -0.1904 -0.5777  0.0492
  440MOL0     C60625   4.801   0.459   1.876  0.8002 -0.3226  0.4957
  440MOL0     C60626   4.941   0.398   1.886  0.0229 -0.0879 -1.0605
  440MOL0    Cl60627   5.054   0.475   1.770 -0.0734  0.6359  0.4540
  440MOL0     C60628   4.083   0.461   2.572  0.7908 -0.5554  0.1062
  440MOL0     C60629   4.108   0.533   2.689 -0.4286 -0.2875 -0.4178
  440MOL0     O60630   4.208   0.901   2.711  0.1714  0.1902  0.2825
  440MOL0     C60631   4.158   0.826   3.028  0.2304 -0.6794  0.3287
  440MOL0     C60632   4.137   0.873   3.157  1.1798 -0.2247 -0.5130
  440MOL0     N60633   4.355   1.609   3.442  0.4201  0.6785  0.8319
  440MOL0     N60634   4.317   1.689   3.530 -0.1167 -0.7752  0.1951
  440MOL0     C60635   3.589   2.379   4.102 -0.1219 -0.5632 -0.2840
  440MOL0     C60636   3.463   2.433   4.102 -0.8480  0.5425  0.0652
  440MOL0     C60637   3.075   2.601   4.132 -0.5309  0.2018  0.9419
  440MOL0     C60638   2.990   2.570   4.236  1.1547  0.9645  0.3784
  440MOL0     C60639   2.884   2.656   4.280 -0.6927  0.2093  0.3872
  440MOL0     C60640   2.866   2.781   4.215  0.0235 -0.0154 -0.9050
  440MOL0     O60641   2.784   2.883   4.271  0.0330  0.2933 -0.4275
  440MOL0     C60642   2.712   2.957   4.164  0.1310 -0.1418 -0.8792
  440MOL0     C60643   2.583   3.026   4.227 -0.4999 -0.0667 -0.3557
  440MOL0     C60644   2.473   2.916   4.240  0.0170  0.1030 -0.5140
  440MOL0     C60645   2.339   2.966   4.307  0.8126  0.5744 -1.1439
  440MOL0     C60646   2.229   2.867   4.313 -1.2885  0.2377  0.0337
  440MOL0     C60647   2.138   2.786   4.330 -0.5340  0.1815  0.3932
  440MOL0     C60648   2.944   2.810   4.103 -0.1581 -0.8835 -0.8309
  440MOL0     C60649   3.053   2.725   4.067 -0.5584  0.1460 -0.0756
  440MOL0     C60650   3.122   2.749   3.936  0.4224 -0.1079 -0.6487
  440MOL0     H60651   3.311   2.236   4.326  0.9665 -0.9451  1.4459
  440MOL0     H60652   3.511   2.135   4.334  1.4884  0.2835  0.5451
  440MOL0     H60653   3.702   2.012   4.219  1.1568 -1.4659  3.5251
  440MOL0     H60654   3.742   2.116   4.343 -1.3213 -0.1728 -0.3849
  440MOL0     H60655   3.976   2.148   4.232  0.6725  0.2627 -0.6477
  440MOL0     H60656   3.930   2.002   4.320 -0.2036 -0.4893 -0.9153
  440MOL0     H60657   3.905   1.880   4.106  1.8516 -0.4084 -0.0059
  440MOL0     H60658   3.934   2.027   4.010  1.3189  1.4061 -0.6918
  440MOL0     H60659   4.162   2.042   4.111  0.1963  0.5425 -1.8904
  440MOL0     H60660   4.142   1.881   4.181  3.8257  2.8176 -0.0138
  440MOL0     H60661   4.252   1.926   3.960 -0.3450  0.2677 -2.0887
  440MOL0     H60662   4.099   1.955   3.885 -0.1365  0.5967  0.4605
  440MOL0     H60663   4.212   1.699   4.007  0.6727 -0.5741 -1.9648
  440MOL0     H60664   4.040   1.710   3.976  0.3394 -0.1075 -0.1588
  440MOL0     H60665   4.113   1.762   3.729  0.5680 -0.0289 -0.8805
  440MOL0     H60666   4.126   1.598   3.782  0.4804  0.7814 -1.4265
  440MOL0     H60667   4.371   1.776   3.755  1.6466 -0.9863  0.6716
  440MOL0     H60668   4.364   1.630   3.850 -2.0117  0.4134  0.6371
  440MOL0     H60669   4.372   1.422   3.710 -2.1629  1.2366  1.2475
  440MOL0     H60670   4.528   1.337   3.493 -1.2541 -1.5842  2.5680
  440MOL0     H60671   4.471   1.392   3.343 -1.3453  1.6087  1.4024
  440MOL0     H60672   4.282   1.240   3.524  1.3455 -0.0691  1.0913
  440MOL0     H60673   4.273   1.245   3.343  1.6933  0.4803 -0.6683
  440MOL0     H60674   4.446   1.112   3.308  0.7213  1.9029  1.0482
  440MOL0     H60675   4.494   1.085   3.474  0.9192 -0.7888 -2.0176
  440MOL0     H60676   4.346   0.898   3.400 -0.7656 -0.8715  1.8887
  440MOL0     H60677   4.255   1.000   3.504  0.1846  4.1580  0.4020
  440MOL0     H60678   4.319   1.161   3.118 -2.0114  1.4716 -0.8332
  440MOL0     H60679   4.314   1.107   2.776  1.9147 -1.5773 -0.6718
  440MOL0     H60680   4.464   1.063   2.840  1.3107  1.1618  0.5407
  440MOL0     H60681   4.382   1.208   2.910 -4.2070  0.8265  0.2788
  440MOL0     H60682   4.395   0.677   2.617 -0.3687 -0.1971 -0.4419
  440MOL0     H60683   4.332   0.578   2.382  1.1440 -2.4622  1.7015
  440MOL0     H60684   4.143   0.401   2.141  0.0184 -1.1978  0.1833
  440MOL0     H60685   4.230   0.523   2.216  1.0255  1.3204  2.0245
  440MOL0     H60686   4.334   0.299   2.341  0.9242  3.4618  0.4337
  440MOL0     H60687   4.295   0.235   2.179  2.3440 -1.8685  0.9339
  440MOL0     H60688   4.532   0.323   2.196 -0.5092 -0.2693 -0.2173
  440MOL0     H60689   4.475   0.482   2.225  0.1532  1.3061 -0.5585
  440MOL0     H60690   4.358   0.453   1.996  0.0294  0.1546  1.6584
  440MOL0     H60691   4.426   0.293   1.979 -2.2401 -1.8069  1.7299
  440MOL0     H60692   4.542   0.497   1.864  0.3000  0.1774  0.3968
  440MOL0     H60693   4.593   0.553   2.027  1.2379 -0.8526  1.6067
  440MOL0     H60694   4.655   0.287   1.913  1.2098 -1.2869  0.3081
  440MOL0     H60695   4.722   0.347   2.057  1.0638  1.3626  0.3604
  440MOL0     H60696   4.798   0.562   1.911 -0.9441 -0.3985  0.6857
  440MOL0     H60697   4.768   0.467   1.772  0.5688  3.0104  0.7151
  440MOL0     H60698   4.939   0.289   1.877 -4.1034 -0.0496 -2.9970
  440MOL0     H60699   4.979   0.418   1.987  2.4517 -4.0442 -0.9526
  440MOL0     H60700   3.985   0.416   2.563  0.6671 -0.3726  0.4844
  440MOL0     H60701   4.033   0.531   2.768  0.7921 -0.5153  0.7759
  440MOL0     H60702   4.101   0.737   3.004 -1.1587 -0.5524  2.7644
  440MOL0     H60703   4.069   0.840   3.235  0.5397  1.5964 -0.2520
  440MOL0     H60704   3.663   2.419   4.033 -1.6480  1.3830 -0.8829
  440MOL0     H60705   3.447   2.520   4.040  1.8602  1.6696  0.7863
  440MOL0     H60706   2.996   2.470   4.279 -0.7550 -0.1364 -1.6768
  440MOL0     H60707   2.825   2.621   4.364 -0.7358 -0.2145  0.1843
  440MOL0     H60708   2.779   3.030   4.117  0.6024 -0.3808 -0.5765
  440MOL0     H60709   2.694   2.883   4.086  0.2170 -0.1301 -0.9102
  440MOL0     H60710   2.544   3.097   4.153 -1.2713 -1.3291 -1.1965
  440MOL0     H60711   2.602   3.078   4.321  0.1204  0.7342 -0.9112
  440MOL0     H60712   2.443   2.884   4.140 -0.5494 -1.0768  0.0082
  440MOL0     H60713   2.512   2.831   4.298 -0.2774  0.1452 -0.2478
  440MOL0     H60714   2.302   3.052   4.249  1.1205  1.8642  0.4878
  440MOL0     H60715   2.356   2.998   4.410 -2.5137  3.7556 -1.3667
  440MOL0     H60716   2.060   2.714   4.345  0.4436 -0.9463  0.1736
  440MOL0     H60717   2.933   2.899   4.042 -0.9298  1.2622  2.1856
  440MOL0     H60718   3.231   2.746   3.950  0.3304  0.2060  0.2113
  440MOL0     H60719   3.103   2.669   3.864 -0.6491  1.0431 -1.6814
  440MOL0     H60720   3.090   2.841   3.888  0.8226 -0.7059 -2.1411
  441MOL0     O60721   0.897   2.626   6.065  0.9369 -0.2487 -0.0902
  441MOL0     C60722   0.794   2.604   6.129  0.2854 -0.3813  0.0935
  441MOL0     O60723   0.791   2.601   6.264 -0.4881 -0.5189 -0.8115
  441MOL0     C60724   0.913   2.654   6.326  0.7415  0.0820 -0.2656
  441MOL0     C60725   0.939   2.794   6.337 -0.7262  0.2296 -1.0198
  441MOL0     C60726   1.064   2.831   6.389 -0.7904  1.0295 -0.2924
  441MOL0     C60727   1.154   2.734   6.434 -0.9515  0.5474 -0.5445
  441MOL0     O60728   1.270   2.778   6.489 -0.0742  0.0578  0.8675
  441MOL0     C60729   1.297   2.723   6.625  1.5306  0.8480 -0.9953
  441MOL0     C60730   1.398   2.808   6.702  0.6936 -0.3036  0.1441
  441MOL0     C60731   1.526   2.801   6.619  0.1647  0.3525 -0.5215
  441MOL0     C60732   1.616   2.905   6.674  0.1624 -0.6518  0.5072
  441MOL0     C60733   1.748   2.906   6.606  0.2624  0.3208 -0.1397
  441MOL0     C60734   1.827   2.782   6.634  0.0597  0.1049 -0.0933
  441MOL0     C60735   1.965   2.782   6.572 -0.4304 -0.5501 -0.0279
  441MOL0     C60736   1.972   2.795   6.419  0.8768  0.3231  0.4209
  441MOL0     N60737   1.945   2.667   6.341  0.0906  0.0749 -0.7045
  441MOL0     C60738   2.027   2.562   6.318  0.5159  0.0142 -0.7002
  441MOL0     C60739   1.961   2.479   6.234 -0.4305 -0.3322  0.4873
  441MOL0     C60740   2.003   2.349   6.183 -0.7009  0.6062  0.3864
  441MOL0     C60741   1.992   2.236   6.296 -0.2504 -0.5740  0.3940
  441MOL0     C60742   2.037   2.102   6.249  0.3000  0.2557 -0.4358
  441MOL0     C60743   1.940   2.045   6.147 -0.1169  0.0256  0.3677
  441MOL0     O60744   1.805   2.027   6.196 -0.0547  0.4546  0.5117
  441MOL0     C60745   1.711   1.978   6.109 -0.2945  0.1537  0.4000
  441MOL0     C60746   1.732   1.939   5.978  0.0438  0.4681 -0.0201
  441MOL0     C60747   1.634   1.876   5.905 -0.4894  0.2400 -0.4254
  441MOL0     C60748   1.671   1.814   5.773 -0.3356 -0.5708 -0.4724
  441MOL0     C60749   1.501   1.875   5.966 -0.0255  0.1545 -0.5524
  441MOL0     C60750   1.390   1.818   5.903 -0.2162  0.6489 -1.1557
  441MOL0     O60751   1.284   1.891   5.874  0.0411 -0.0404 -0.0656
  441MOL0     C60752   1.164   1.826   5.868  0.6090 -0.2000  0.1465
  441MOL0     C60753   1.087   1.820   5.983  0.4508 -0.1866 -0.2171
  441MOL0     C60754   0.973   1.734   5.986 -0.3881 -0.5632 -0.3498
  441MOL0     C60755   0.934   1.672   5.862  0.0623  0.3590 -0.3296
  441MOL0     O60756   0.818   1.601   5.839 -0.0078  0.5151 -0.2424
  441MOL0     C60757   0.754   1.547   5.954  0.0579 -0.0409  0.0975
  441MOL0     C60758   0.624   1.476   5.897 -0.7577 -0.2007  0.4174
  441MOL0     C60759   0.664   1.368   5.805  0.4317  0.9620 -0.1077
  441MOL0     C60760   0.540   1.292   5.752  0.0535  0.8358 -0.2739
  441MOL0     C60761   0.567   1.170   5.661 -0.4080  0.8426  0.1379
  441MOL0     C60762   0.595   1.210   5.520  0.7174  0.2589 -1.0191
  441MOL0     C60763   0.617   1.093   5.430 -0.1484  0.2457  0.8037
  441MOL0     C60764   0.694   1.148   5.301  0.4735  0.4483  0.3205
  441MOL0    Cl60765   0.746   1.015   5.190  0.1646 -0.2916  0.0163
  441MOL0     C60766   0.996   1.702   5.743  0.4337  0.0937  0.4703
  441MOL0     C60767   1.117   1.770   5.748  0.5894 -1.0835 -0.2853
  441MOL0     O60768   1.408   1.696   5.896  0.0584  0.1327  0.1452
  441MOL0     C60769   1.474   1.924   6.095 -0.7901 -0.3225  0.6017
  441MOL0     C60770   1.589   1.977   6.164  0.4097  0.8539 -0.2080
  441MOL0     N60771   1.835   2.529   6.213  1.0701 -0.2181  0.2566
  441MOL0     N60772   1.834   2.642   6.262  0.4216 -0.3645  0.1478
  441MOL0     C60773   1.120   2.602   6.437  0.3755  0.3251  0.6428
  441MOL0     C60774   0.992   2.562   6.387 -0.4975  0.7485  0.1175
  441MOL0     C60775   0.677   2.547   6.056 -0.1255 -1.0806  0.2019
  441MOL0     C60776   0.606   2.454   6.113  0.2150 -0.9442  0.3494
  441MOL0     C60777   0.474   2.412   6.067 -0.7612 -0.1177 -0.4388
  441MOL0     C60778   0.433   2.468   5.947 -0.5120 -0.0010  0.5668
  441MOL0     O60779   0.301   2.452   5.920 -0.1533  0.1059 -0.1911
  441MOL0     C60780   0.227   2.501   5.802 -0.4626 -0.3456  0.5732
  441MOL0     C60781   0.196   2.379   5.712  0.2144  0.3514 -0.1329
  441MOL0     C60782   0.073   2.306   5.781 -0.2793  0.3007  0.4321
  441MOL0     C60783   0.021   2.185   5.688  0.5677  0.6860  0.2065
  441MOL0     C60784  -0.096   2.124   5.750 -0.2350 -0.3992 -0.2019
  441MOL0     C60785  -0.186   2.074   5.813  0.8420  0.5899 -0.3815
  441MOL0     C60786   0.524   2.542   5.873 -0.2102 -0.3638  0.4145
  441MOL0     C60787   0.646   2.587   5.922 -0.5261  0.7167 -0.0459
  441MOL0     C60788   0.724   2.684   5.840 -0.0297 -0.0483 -0.4308
  441MOL0     H60789   0.867   2.861   6.292 -1.1767  0.8504  0.5550
  441MOL0     H60790   1.097   2.934   6.382  1.8587  0.2407 -0.4406
  441MOL0     H60791   1.343   2.624   6.630  3.1162  1.6169  1.2711
  441MOL0     H60792   1.201   2.727   6.677  1.5803 -0.1010 -0.8195
  441MOL0     H60793   1.361   2.910   6.710  0.0038 -0.3838 -1.6579
  441MOL0     H60794   1.406   2.774   6.806  2.4673 -0.0105  0.1406
  441MOL0     H60795   1.564   2.699   6.623 -2.7550 -0.7839  1.1612
  441MOL0     H60796   1.502   2.818   6.514 -0.3015 -3.7130 -1.2431
  441MOL0     H60797   1.563   3.000   6.661 -0.6875 -1.0348  1.1108
  441MOL0     H60798   1.624   2.885   6.781 -1.3223 -0.7919  0.6176
  441MOL0     H60799   1.803   2.990   6.650 -0.6871 -0.1798  2.1507
  441MOL0     H60800   1.729   2.925   6.500 -0.1238  5.4029  0.6069
  441MOL0     H60801   1.834   2.775   6.743 -1.5574 -2.8104 -0.0963
  441MOL0     H60802   1.779   2.691   6.597  2.8454 -0.1194 -3.7002
  441MOL0     H60803   2.017   2.694   6.611 -0.5774  0.2179  2.0019
  441MOL0     H60804   2.023   2.857   6.627  0.2652 -2.3800  1.8719
  441MOL0     H60805   1.919   2.884   6.385 -0.3924  0.1546  1.8429
  441MOL0     H60806   2.080   2.812   6.406  1.0954 -0.2884  1.3387
  441MOL0     H60807   2.120   2.544   6.372 -0.0033 -0.2803  0.1096
  441MOL0     H60808   2.108   2.360   6.155 -0.8598  1.3344  0.0381
  441MOL0     H60809   1.950   2.312   6.095 -1.1068 -0.0897  0.9106
  441MOL0     H60810   2.067   2.259   6.373  1.1491  1.0486 -1.3394
  441MOL0     H60811   1.890   2.234   6.334  0.0233 -1.2863  1.1057
  441MOL0     H60812   2.135   2.088   6.201 -0.5509 -4.0619 -1.3992
  441MOL0     H60813   2.035   2.034   6.334  1.1077  2.6618  1.6299
  441MOL0     H60814   1.938   2.103   6.054  0.3147 -3.2839 -1.8910
  441MOL0     H60815   1.981   1.947   6.121  0.7349  0.9089 -1.8827
  441MOL0     H60816   1.825   1.964   5.926 -1.3344  3.0643 -1.4772
  441MOL0     H60817   1.676   1.879   5.686  1.8717 -0.8648 -0.6154
  441MOL0     H60818   1.602   1.732   5.747 -0.0651 -0.1352 -2.8125
  441MOL0     H60819   1.766   1.762   5.789  1.0770  2.4405  2.0178
  441MOL0     H60820   1.113   1.867   6.077  1.3020 -0.8767 -0.0957
  441MOL0     H60821   0.906   1.726   6.070  1.1866 -0.4474  0.9581
  441MOL0     H60822   0.817   1.476   6.007 -1.9522 -1.3905  0.8119
  441MOL0     H60823   0.731   1.627   6.025  2.8660 -0.5548  1.7222
  441MOL0     H60824   0.560   1.432   5.973  0.9248 -4.3991 -0.3360
  441MOL0     H60825   0.563   1.553   5.849 -0.7515  0.8258  1.9519
  441MOL0     H60826   0.736   1.305   5.857  0.2075  0.0198 -0.8960
  441MOL0     H60827   0.705   1.416   5.716 -0.2700  2.0596  0.1391
  441MOL0     H60828   0.475   1.365   5.703 -0.1149 -0.1694 -1.6129
  441MOL0     H60829   0.480   1.253   5.834 -1.5358 -0.0433 -1.7917
  441MOL0     H60830   0.647   1.114   5.709  1.2082 -0.3473 -3.5483
  441MOL0     H60831   0.482   1.101   5.658  1.0513 -1.0101 -1.5329
  441MOL0     H60832   0.684   1.273   5.526  1.3560 -0.7009 -0.0524
  441MOL0     H60833   0.506   1.266   5.487 -0.4697 -0.8056  0.2444
  441MOL0     H60834   0.523   1.041   5.412 -0.9353  2.5719 -2.7667
  441MOL0     H60835   0.674   1.023   5.492 -0.0194 -0.9937 -0.6465
  441MOL0     H60836   0.778   1.218   5.313  0.8416  0.1787 -0.6047
  441MOL0     H60837   0.625   1.211   5.244  1.7527  1.1564 -0.5061
  441MOL0     H60838   0.949   1.653   5.657 -1.0302 -3.8519  3.2045
  441MOL0     H60839   1.181   1.798   5.665  0.4999  0.8463  0.2617
  441MOL0     H60840   1.374   1.931   6.137 -1.8672 -0.1285 -1.7979
  441MOL0     H60841   1.581   2.016   6.265  1.1761  2.5668 -0.7788
  441MOL0     H60842   1.197   2.536   6.475  0.9575 -1.0314 -2.6185
  441MOL0     H60843   0.971   2.456   6.374  2.6047  0.0681 -0.1858
  441MOL0     H60844   0.627   2.427   6.216 -0.5067 -0.0811  0.7362
  441MOL0     H60845   0.412   2.345   6.126 -0.1765 -0.5474 -0.3051
  441MOL0     H60846   0.140   2.555   5.840 -0.7015  1.7904 -2.6140
  441MOL0     H60847   0.285   2.578   5.751  0.6187 -0.4072  1.6507
  441MOL0     H60848   0.280   2.310   5.723 -0.7531 -0.8103  0.1174
  441MOL0     H60849   0.171   2.407   5.609 -0.2678 -1.3865 -0.5180
  441MOL0     H60850   0.106   2.271   5.879  1.3206  1.2796  0.2730
  441MOL0     H60851  -0.003   2.385   5.784  1.4912  2.3430 -2.7230
  441MOL0     H60852   0.100   2.112   5.668  0.8706  1.1900 -0.4733
  441MOL0     H60853  -0.009   2.218   5.588  2.7580 -2.4156 -1.6561
  441MOL0     H60854  -0.257   2.014   5.867  0.2414 -1.1393 -2.9201
  441MOL0     H60855   0.494   2.556   5.769  2.1841 -1.0074 -0.4182
  441MOL0     H60856   0.759   2.762   5.907  0.1608  0.3228 -0.9532
  441MOL0     H60857   0.817   2.644   5.798 -0.0786  0.5859 -1.1663
  441MOL0     H60858   0.661   2.725   5.760 -0.5717 -1.1880 -0.6170
  442MOL0     O60859  11.187   7.560   5.640 -0.1118  0.2787 -0.4718
  442MOL0     C60860  11.225   7.474   5.564 -0.2197 -0.2186  0.1460
  442MOL0     O60861  11.212   7.466   5.424  0.5615 -0.8543 -0.4729
  442MOL0     C60862  11.159   7.583   5.366  0.1076  0.3342  0.1883
  442MOL0     C60863  11.036   7.579   5.287  0.9328  0.3076  0.1012
  442MOL0     C60864  11.003   7.703   5.223 -1.5101 -0.6182 -0.2493
  442MOL0     C60865  11.087   7.810   5.222  0.6705  0.2838 -0.2540
  442MOL0     O60866  11.068   7.915   5.137  0.0310  0.3271  0.0228
  442MOL0     C60867  11.088   8.050   5.178 -0.3836 -0.2370  0.0000
  442MOL0     C60868  10.980   8.149   5.115  0.2393  0.2060  0.5696
  442MOL0     C60869  10.839   8.123   5.160  0.6886  0.4934 -0.1055
  442MOL0     C60870  10.828   8.158   5.310  0.1215 -0.4464 -1.9702
  442MOL0     C60871  10.680   8.202   5.333  0.3854  0.1634 -0.0075
  442MOL0     C60872  10.677   8.291   5.458  0.1532 -0.1582 -0.0612
  442MOL0     C60873  10.536   8.335   5.487 -0.1355 -0.1092 -0.5926
  442MOL0     C60874  10.514   8.392   5.628  1.0380  0.1132 -0.1992
  442MOL0     N60875  10.586   8.524   5.655 -0.2998  1.3430  0.0519
  442MOL0     C60876  10.539   8.650   5.659 -0.3074 -0.0962  0.3376
  442MOL0     C60877  10.654   8.731   5.661  0.3525 -0.1063 -1.0247
  442MOL0     C60878  10.630   8.885   5.682  0.4796 -0.0048 -0.0227
  442MOL0     C60879  10.583   8.950   5.543 -0.4699  0.6982 -0.3992
  442MOL0     C60880  10.530   9.093   5.548  1.0690 -0.6357  0.5477
  442MOL0     C60881  10.628   9.193   5.619 -0.2333  1.0676  0.3286
  442MOL0     O60882  10.724   9.232   5.522 -0.3677  0.0523  1.1934
  442MOL0     C60883  10.828   9.310   5.568  0.4086 -0.0084 -1.1720
  442MOL0     C60884  10.922   9.344   5.477  0.0083 -0.3058 -0.1889
  442MOL0     C60885  11.033   9.425   5.506 -0.8671  0.2959 -0.5794
  442MOL0     C60886  11.115   9.462   5.385  0.2635 -0.1482  0.3749
  442MOL0     C60887  11.054   9.470   5.643  0.2117  0.2717  0.2684
  442MOL0     C60888  11.166   9.554   5.683 -0.1725 -0.8068  0.6665
  442MOL0     O60889  11.254   9.492   5.775  0.3868  0.2649  0.5968
  442MOL0     C60890  11.376   9.546   5.793  0.1289 -0.1172 -0.0269
  442MOL0     C60891  11.488   9.490   5.741  0.0648  0.9585  0.0627
  442MOL0     C60892  11.617   9.553   5.745  0.0840  0.0160  0.4528
  442MOL0     C60893  11.635   9.663   5.826  0.3055 -0.6672 -0.1921
  442MOL0     O60894  11.754   9.730   5.832  0.7073 -0.0185  0.6000
  442MOL0     C60895  11.819   9.696   5.954 -0.5406 -0.7062 -0.2056
  442MOL0     C60896  11.977   9.703   5.931 -0.7052  0.2573  0.2255
  442MOL0     C60897  12.056   9.685   6.064  0.7764  0.3484 -0.0094
  442MOL0     C60898  12.208   9.662   6.045  0.1046 -0.1693 -0.4056
  442MOL0     C60899  12.284   9.632   6.176  0.3012  0.1260 -0.0893
  442MOL0     C60900  12.425   9.571   6.150  1.3881  0.1829  0.0761
  442MOL0     C60901  12.493   9.552   6.282  0.1148  0.3531 -0.3836
  442MOL0     C60902  12.605   9.651   6.314  0.0905  0.7619 -0.4737
  442MOL0    Cl60903  12.767   9.613   6.242 -0.1751  0.0557 -0.4412
  442MOL0     C60904  11.523   9.714   5.898  0.1031  0.5661 -0.4553
  442MOL0     C60905  11.396   9.655   5.875  0.6041 -0.0686  0.1579
  442MOL0     O60906  11.177   9.669   5.641  0.0280 -0.1877 -0.6414
  442MOL0     C60907  10.950   9.436   5.735 -0.2666  0.4636  0.0509
  442MOL0     C60908  10.843   9.350   5.699  0.1869  0.5145 -0.2320
  442MOL0     N60909  10.773   8.659   5.669  0.6473 -0.3126  0.2687
  442MOL0     N60910  10.724   8.542   5.658  0.0611  0.7021 -0.3550
  442MOL0     C60911  11.203   7.813   5.303  0.0099  0.3880 -0.3555
  442MOL0     C60912  11.236   7.700   5.372 -0.4164 -0.0311  0.1702
  442MOL0     C60913  11.316   7.380   5.619  0.0943 -0.0428  0.2885
  442MOL0     C60914  11.441   7.341   5.559 -0.3644 -0.9902  0.2062
  442MOL0     C60915  11.527   7.240   5.610  0.2775  0.5238 -1.1420
  442MOL0     C60916  11.492   7.175   5.729  0.0862  0.5341 -0.2501
  442MOL0     O60917  11.573   7.076   5.774 -0.2309 -0.1725 -0.0043
  442MOL0     C60918  11.539   7.010   5.896 -0.3205  0.8323 -0.5272
  442MOL0     C60919  11.642   6.910   5.942  0.0294  0.0221  0.1790
  442MOL0     C60920  11.579   6.829   6.064 -0.9769  0.4195  0.1234
  442MOL0     C60921  11.579   6.677   6.037  0.1120 -0.4747 -0.6248
  442MOL0     C60922  11.461   6.630   5.969  0.0005  0.5216  0.0553
  442MOL0     C60923  11.372   6.559   5.929 -0.3120  0.0375  0.4037
  442MOL0     C60924  11.364   7.205   5.786  0.0793  0.8255 -0.1591
  442MOL0     C60925  11.274   7.304   5.734 -0.4659  0.1293 -1.1828
  442MOL0     C60926  11.141   7.310   5.803 -0.3484 -0.0337 -1.0581
  442MOL0     H60927  10.967   7.496   5.295 -3.1073  3.2594 -1.0837
  442MOL0     H60928  10.904   7.704   5.180 -1.4292 -0.0029 -0.4314
  442MOL0     H60929  11.189   8.087   5.158 -1.5258  2.2225 -1.7983
  442MOL0     H60930  11.078   8.060   5.287  2.5613  0.4219  0.2802
  442MOL0     H60931  11.014   8.246   5.152  1.4646  0.4820 -1.1572
  442MOL0     H60932  10.985   8.150   5.005  1.4297  0.3050  0.6138
  442MOL0     H60933  10.769   8.179   5.097 -0.8572 -0.7602  0.4120
  442MOL0     H60934  10.806   8.020   5.143 -0.9220  0.9852 -0.1721
  442MOL0     H60935  10.856   8.069   5.368  1.7277 -1.1666 -3.7226
  442MOL0     H60936  10.899   8.237   5.335  2.1284 -2.6693 -0.0500
  442MOL0     H60937  10.613   8.118   5.353 -1.7362  1.7359 -0.1780
  442MOL0     H60938  10.638   8.255   5.247 -0.7199  0.4083  0.6608
  442MOL0     H60939  10.712   8.226   5.538  2.4548  2.6412  1.3973
  442MOL0     H60940  10.750   8.372   5.450  1.0688 -1.1118 -2.2568
  442MOL0     H60941  10.471   8.248   5.469  0.7294 -1.0709  0.7503
  442MOL0     H60942  10.495   8.409   5.418 -1.1433  0.8684  1.0082
  442MOL0     H60943  10.408   8.417   5.635  0.6556 -1.5678  0.5463
  442MOL0     H60944  10.552   8.327   5.707 -2.6950  0.9654  2.5888
  442MOL0     H60945  10.437   8.687   5.662 -0.0132  0.6651  2.2524
  442MOL0     H60946  10.733   8.917   5.701  2.8604 -4.7474 -2.9312
  442MOL0     H60947  10.549   8.900   5.754  0.0156  0.2324 -0.5806
  442MOL0     H60948  10.665   8.937   5.471  0.0070  0.9044  0.1003
  442MOL0     H60949  10.494   8.899   5.504  0.0294 -0.4378 -0.1119
  442MOL0     H60950  10.517   9.119   5.443  1.9491 -0.6214  0.4410
  442MOL0     H60951  10.427   9.089   5.585  1.3251 -3.9108  1.1504
  442MOL0     H60952  10.579   9.278   5.667 -0.5752  0.7388  0.5612
  442MOL0     H60953  10.687   9.138   5.693  2.6556  0.6967 -2.0386
  442MOL0     H60954  10.908   9.320   5.373  0.5872  2.6779 -1.0615
  442MOL0     H60955  11.084   9.549   5.325  3.0358 -0.6931 -2.0984
  442MOL0     H60956  11.106   9.377   5.317 -1.2237 -0.6822  1.1913
  442MOL0     H60957  11.220   9.483   5.410  0.1717  1.6785 -0.5711
  442MOL0     H60958  11.462   9.407   5.675 -2.3533  1.0867  0.7737
  442MOL0     H60959  11.695   9.517   5.678 -1.4679 -0.4736 -1.1476
  442MOL0     H60960  11.778   9.765   6.028 -2.5962 -0.8559 -1.1425
  442MOL0     H60961  11.794   9.592   5.978 -2.5557  0.2107  2.0736
  442MOL0     H60962  12.013   9.627   5.860 -0.1466  0.9882 -0.2834
  442MOL0     H60963  11.997   9.803   5.892 -1.2300  1.4017  2.7585
  442MOL0     H60964  12.019   9.594   6.113  1.4074  0.6711  1.0944
  442MOL0     H60965  12.051   9.765   6.138 -3.4357  0.3198 -0.0313
  442MOL0     H60966  12.247   9.755   6.002 -1.4387  0.0830 -1.3366
  442MOL0     H60967  12.231   9.573   5.986  1.3890 -1.8237  2.4010
  442MOL0     H60968  12.296   9.733   6.218  0.6161  0.0341  0.0407
  442MOL0     H60969  12.223   9.562   6.234 -0.8795 -1.1925 -2.7499
  442MOL0     H60970  12.483   9.643   6.092  1.6988  1.3129  1.7102
  442MOL0     H60971  12.433   9.483   6.087  0.6288 -1.1589  1.7805
  442MOL0     H60972  12.533   9.450   6.280 -0.5299  0.1141 -1.6842
  442MOL0     H60973  12.419   9.553   6.362  0.5262 -0.5629  0.0315
  442MOL0     H60974  12.614   9.654   6.423  2.2457 -1.3999 -0.4981
  442MOL0     H60975  12.578   9.755   6.290 -1.4452  0.3977 -0.4063
  442MOL0     H60976  11.533   9.796   5.968  0.9466  2.2954 -2.4978
  442MOL0     H60977  11.317   9.691   5.941  2.1252  2.6382  0.6534
  442MOL0     H60978  10.953   9.478   5.835  2.5742  0.6719 -0.0312
  442MOL0     H60979  10.781   9.302   5.775 -0.6029  0.5368 -0.8478
  442MOL0     H60980  11.283   7.886   5.312  0.4174 -0.0383 -0.5025
  442MOL0     H60981  11.332   7.696   5.422 -2.0296 -1.9794  3.4524
  442MOL0     H60982  11.468   7.404   5.476  0.8173  0.0740  1.3503
  442MOL0     H60983  11.621   7.208   5.568  0.6496 -0.6028  0.4432
  442MOL0     H60984  11.531   7.093   5.967  1.9267  0.1532  0.6139
  442MOL0     H60985  11.447   6.959   5.866 -1.1208  1.2000  1.1735
  442MOL0     H60986  11.731   6.970   5.966 -0.1467  1.0629 -1.5780
  442MOL0     H60987  11.670   6.848   5.857 -1.8307  2.4862 -2.4353
  442MOL0     H60988  11.658   6.844   6.139 -2.7919 -0.8373  2.3904
  442MOL0     H60989  11.485   6.877   6.091 -2.2735 -1.8806 -0.0556
  442MOL0     H60990  11.584   6.636   6.138 -0.7946 -0.2294 -0.4746
  442MOL0     H60991  11.666   6.647   5.979  1.2866 -2.9761  2.1654
  442MOL0     H60992  11.289   6.503   5.891  0.0579 -1.3738  1.5854
  442MOL0     H60993  11.326   7.150   5.871  0.4575  0.0918 -0.4614
  442MOL0     H60994  11.096   7.213   5.826  1.6278 -0.0416  4.2854
  442MOL0     H60995  11.161   7.367   5.895  1.3217  1.3911 -2.2391
  442MOL0     H60996  11.071   7.363   5.738 -0.9881 -0.8786 -1.0785
  443MOL0     O60997   6.037  11.256   0.985 -0.2136 -0.1178  0.3121
  443MOL0     C60998   5.919  11.288   1.018 -0.7787  0.4742  0.6874
  443MOL0     O60999   5.888  11.411   1.051  1.2435 -0.3455 -1.0149
  443MOL0     C61000   5.970  11.520   1.017  0.1057 -0.5698  0.9426
  443MOL0     C61001   6.022  11.531   0.883 -0.0077 -0.6156 -0.9383
  443MOL0     C61002   6.096  11.640   0.848 -1.1306  0.5136  0.6759
  443MOL0     C61003   6.123  11.753   0.941  0.3291 -0.2839  0.3959
  443MOL0     O61004   6.201  11.864   0.908 -0.5259 -0.1190 -0.0571
  443MOL0     C61005   6.300  11.845   0.808  0.2427  0.0885  0.2062
  443MOL0     C61006   6.406  11.942   0.838 -0.0623  0.1643 -0.7078
  443MOL0     C61007   6.513  11.957   0.733  0.4285 -0.2952  0.6095
  443MOL0     C61008   6.476  12.019   0.596  0.0561  0.2802  0.0472
  443MOL0     C61009   6.587  12.091   0.525 -0.0908  0.5418  0.2598
  443MOL0     C61010   6.725  12.025   0.523  0.7592 -0.8822 -0.8592
  443MOL0     C61011   6.822  12.087   0.415 -0.3647 -0.7944 -0.4131
  443MOL0     C61012   6.789  12.060   0.272  0.3539 -0.1235  0.6500
  443MOL0     N61013   6.902  12.082   0.178 -0.1166  0.5740 -0.9172
  443MOL0     C61014   7.012  12.007   0.178  0.3044 -0.3316 -0.1627
  443MOL0     C61015   7.076  12.031   0.055  0.5311 -0.7933  0.3851
  443MOL0     C61016   7.203  11.971   0.003 -0.3856  0.5837 -0.5259
  443MOL0     C61017   7.319  12.048   0.063  1.4522  0.0589  0.3649
  443MOL0     C61018   7.445  11.968   0.024  0.4263 -0.9386  0.2390
  443MOL0     C61019   7.562  12.059   0.072 -0.3679 -0.7802  0.1350
  443MOL0     O61020   7.695  12.028   0.020  0.5739  0.8240  0.2816
  443MOL0     C61021   7.734  11.896   0.028 -0.4464  0.5200 -0.1431
  443MOL0     C61022   7.725  11.819   0.149 -0.1529 -0.1840 -0.6717
  443MOL0     C61023   7.788  11.697   0.155  0.4990 -0.2555  0.3549
  443MOL0     C61024   7.778  11.612   0.281  0.5753 -1.1830 -0.5732
  443MOL0     C61025   7.872  11.647   0.049  0.4241  0.2082  0.1036
  443MOL0     C61026   7.967  11.532   0.056 -0.2194  0.7581 -0.2017
  443MOL0     O61027   7.940  11.429   0.145  0.0719  0.2736  0.5740
  443MOL0     C61028   8.034  11.329   0.157 -0.0483 -0.5387 -0.8695
  443MOL0     C61029   8.002  11.202   0.103  0.8294 -0.1988 -0.3368
  443MOL0     C61030   8.094  11.104   0.099 -0.4783  0.1311  0.3935
  443MOL0     C61031   8.214  11.115   0.157 -0.0042  0.3128  0.6078
  443MOL0     O61032   8.300  11.012   0.161  0.3582  0.0064 -0.5263
  443MOL0     C61033   8.436  11.031   0.195 -0.3418 -0.0707  0.2083
  443MOL0     C61034   8.532  10.911   0.188  0.3986 -0.4507  0.7614
  443MOL0     C61035   8.552  10.853   0.041 -0.9374 -0.0328 -0.9280
  443MOL0     C61036   8.430  10.780  -0.017 -0.2473 -0.5030 -0.7747
  443MOL0     C61037   8.452  10.743  -0.157 -0.0557  0.2599 -0.1571
  443MOL0     C61038   8.316  10.692  -0.212  0.1842 -0.0029  0.8418
  443MOL0     C61039   8.345  10.622  -0.340  0.5679  0.0775 -0.0534
  443MOL0     C61040   8.224  10.556  -0.413 -0.0807 -0.1255  0.3634
  443MOL0    Cl61041   8.086  10.656  -0.445  0.3098  0.1306 -0.1325
  443MOL0     C61042   8.236  11.233   0.236  0.5054  0.5210  1.1259
  443MOL0     C61043   8.152  11.344   0.231 -1.2628 -0.4941  0.8106
  443MOL0     O61044   8.066  11.530  -0.021 -0.8055  0.1261  1.2661
  443MOL0     C61045   7.858  11.708  -0.069  0.3371 -0.4463  0.0716
  443MOL0     C61046   7.799  11.833  -0.080 -0.4108 -0.8658  0.0705
  443MOL0     N61047   6.994  12.123  -0.009  0.8191 -0.4056 -0.2382
  443MOL0     N61048   6.897  12.164   0.067  0.1322  0.1310 -0.6495
  443MOL0     C61049   6.061  11.743   1.062 -0.1660  0.1612 -0.7236
  443MOL0     C61050   5.981  11.635   1.097 -0.0124 -0.3665 -0.3208
  443MOL0     C61051   5.825  11.167   1.030  0.5182 -0.9597  0.0932
  443MOL0     C61052   5.869  11.046   0.981 -0.4382 -1.0715 -0.0060
  443MOL0     C61053   5.803  10.929   0.989 -0.6130 -0.0938 -1.1189
  443MOL0     C61054   5.676  10.924   1.046 -0.1925 -0.1365  0.1597
  443MOL0     O61055   5.613  10.802   1.043 -0.2550  0.5970 -0.1175
  443MOL0     C61056   5.477  10.801   1.077 -0.3836 -0.0068  0.4123
  443MOL0     C61057   5.420  10.671   1.010 -0.5965  0.4833  0.2341
  443MOL0     C61058   5.421  10.671   0.852  0.2153  0.1931  0.5027
  443MOL0     C61059   5.318  10.573   0.789  0.6257 -0.8908  0.5954
  443MOL0     C61060   5.355  10.439   0.840  0.2962  0.4820  0.0097
  443MOL0     C61061   5.392  10.334   0.893  0.0281 -0.7721 -0.3061
  443MOL0     C61062   5.612  11.047   1.089  0.3213  0.9264 -0.2755
  443MOL0     C61063   5.689  11.167   1.092  0.1238 -0.4513  0.4208
  443MOL0     C61064   5.631  11.291   1.140 -1.2547 -0.5506 -0.3783
  443MOL0     H61065   5.994  11.452   0.815 -0.9398 -0.5030 -0.7023
  443MOL0     H61066   6.136  11.644   0.747  0.3625 -1.5542  1.1178
  443MOL0     H61067   6.267  11.870   0.707  1.5672 -4.7460 -1.6965
  443MOL0     H61068   6.334  11.742   0.796 -2.9288 -0.8381 -1.7783
  443MOL0     H61069   6.354  12.035   0.864 -1.5378 -0.2961 -1.8685
  443MOL0     H61070   6.453  11.907   0.930  0.6291 -1.0875 -1.5065
  443MOL0     H61071   6.590  12.022   0.777  1.0434  1.2904 -2.5172
  443MOL0     H61072   6.559  11.860   0.712  0.6285 -0.2520  0.8429
  443MOL0     H61073   6.423  11.947   0.533 -1.9897  1.4020  0.4045
  443MOL0     H61074   6.397  12.093   0.614  0.4014  0.9536 -1.0810
  443MOL0     H61075   6.609  12.182   0.583  0.3615  1.4502 -1.2878
  443MOL0     H61076   6.561  12.132   0.427  1.0387  2.4008  0.6923
  443MOL0     H61077   6.776  12.020   0.620 -1.3167  0.2156  0.3540
  443MOL0     H61078   6.709  11.918   0.505 -2.7464 -0.6238  0.0535
  443MOL0     H61079   6.921  12.041   0.427  0.7378  1.0597 -1.8450
  443MOL0     H61080   6.830  12.195   0.430  2.3917 -0.8902 -0.6228
  443MOL0     H61081   6.755  11.958   0.250 -0.9620  0.6243 -0.9371
  443MOL0     H61082   6.710  12.130   0.244 -0.7134 -1.5966 -0.1544
  443MOL0     H61083   7.050  11.946   0.259  1.8112 -1.0529 -1.3622
  443MOL0     H61084   7.208  11.981  -0.106  2.3936 -1.1347 -0.6611
  443MOL0     H61085   7.214  11.866   0.030  4.0832  1.3667  1.5073
  443MOL0     H61086   7.314  12.150   0.024  0.6589 -0.0685  0.1143
  443MOL0     H61087   7.303  12.045   0.172 -1.4297  3.2335  0.1820
  443MOL0     H61088   7.451  11.870   0.071  0.8169 -2.5423 -2.9042
  443MOL0     H61089   7.433  11.954  -0.084 -2.5378  2.8162 -0.1157
  443MOL0     H61090   7.544  12.164   0.049 -1.4931 -0.1138  3.5853
  443MOL0     H61091   7.569  12.069   0.180  0.2977 -1.2376  0.1412
  443MOL0     H61092   7.663  11.860   0.229 -0.0109  1.9424 -1.5922
  443MOL0     H61093   7.867  11.590   0.341  0.7920  2.1553  0.5167
  443MOL0     H61094   7.732  11.517   0.253 -3.0683  0.7584 -1.8126
  443MOL0     H61095   7.718  11.668   0.352  0.8686  1.6622 -2.4142
  443MOL0     H61096   7.908  11.194   0.050 -0.7083  0.4292  2.1166
  443MOL0     H61097   8.078  11.011   0.046 -2.3319  0.2236  0.7184
  443MOL0     H61098   8.482  11.113   0.139 -0.8713 -0.6859 -1.1672
  443MOL0     H61099   8.440  11.058   0.301  2.0037  0.3078  0.0796
  443MOL0     H61100   8.627  10.954   0.221 -1.2366  3.1511  1.2855
  443MOL0     H61101   8.490  10.837   0.258 -2.1818  0.3666  0.2023
  443MOL0     H61102   8.638  10.787   0.044 -3.0793 -3.0492 -1.3726
  443MOL0     H61103   8.572  10.945  -0.016 -0.7567  1.6067  1.6305
  443MOL0     H61104   8.340  10.840  -0.002  0.8755  1.5708 -1.9567
  443MOL0     H61105   8.423  10.686   0.040 -0.7006  0.9159  1.6631
  443MOL0     H61106   8.486  10.831  -0.212 -2.1881  2.3734  1.6762
  443MOL0     H61107   8.533  10.669  -0.164 -0.3036  0.0009 -0.3002
  443MOL0     H61108   8.246  10.774  -0.232  1.3337  0.4697 -1.6434
  443MOL0     H61109   8.273  10.619  -0.143 -1.9040 -0.2650 -0.6477
  443MOL0     H61110   8.422  10.549  -0.312 -0.0988 -0.0967  1.4169
  443MOL0     H61111   8.395  10.695  -0.403  2.9330 -1.2562  0.1518
  443MOL0     H61112   8.196  10.468  -0.353  1.8760 -1.7524 -0.9609
  443MOL0     H61113   8.263  10.524  -0.510 -1.5652  0.9219 -0.6171
  443MOL0     H61114   8.329  11.242   0.290  0.4154  2.6811  1.0270
  443MOL0     H61115   8.182  11.440   0.270 -1.4952  0.8059 -1.9598
  443MOL0     H61116   7.919  11.674  -0.152  0.8072  0.7218 -0.0909
  443MOL0     H61117   7.814  11.897  -0.166 -0.5058  0.3488  0.9427
  443MOL0     H61118   6.054  11.824   1.134  0.9369 -1.6156  1.4817
  443MOL0     H61119   5.929  11.624   1.191 -1.0853 -0.3537 -0.8967
  443MOL0     H61120   5.969  11.045   0.940  0.0167 -1.1287  1.0725
  443MOL0     H61121   5.840  10.833   0.955 -0.0157  0.1503 -1.1666
  443MOL0     H61122   5.460  10.791   1.185  0.6472 -0.6484  0.5303
  443MOL0     H61123   5.415  10.883   1.040  0.4402  0.5157  0.1749
  443MOL0     H61124   5.317  10.654   1.041 -1.2899  0.7116 -1.8105
  443MOL0     H61125   5.483  10.589   1.047  1.2793  0.1726 -3.1708
  443MOL0     H61126   5.395  10.775   0.829  0.4327  0.4098  1.1762
  443MOL0     H61127   5.522  10.638   0.824 -0.0749 -2.8694  2.5858
  443MOL0     H61128   5.313  10.576   0.680 -3.3496  0.6190  0.6705
  443MOL0     H61129   5.223  10.612   0.826  1.0464  0.0417  0.7185
  443MOL0     H61130   5.419  10.240   0.937 -0.8720 -0.3646  1.1908
  443MOL0     H61131   5.512  11.053   1.129  0.5412  0.5304  0.3424
  443MOL0     H61132   5.665  11.308   1.243 -2.8722  0.4209  0.0220
  443MOL0     H61133   5.661  11.378   1.081  0.8837 -2.5210 -2.4421
  443MOL0     H61134   5.523  11.290   1.151 -1.2836 -0.7174 -0.6645
  444MOL0     O61135   6.482   9.616   8.049 -0.7656 -0.0784 -0.3192
  444MOL0     C61136   6.435   9.621   8.160 -0.3711  0.1398 -0.4708
  444MOL0     O61137   6.316   9.569   8.199  0.0766 -0.6321 -0.1747
  444MOL0     C61138   6.240   9.492   8.123  0.4041 -0.9751  0.7044
  444MOL0     C61139   6.284   9.414   8.015  0.7284 -0.6904  0.1048
  444MOL0     C61140   6.196   9.333   7.941 -0.0014  0.0375 -0.6304
  444MOL0     C61141   6.062   9.338   7.955  0.2762 -0.0269 -0.5847
  444MOL0     O61142   5.979   9.255   7.881 -0.5345 -0.3112  0.0157
  444MOL0     C61143   5.844   9.219   7.922 -0.4096  0.9741  0.5175
  444MOL0     C61144   5.755   9.142   7.823  0.1930 -0.1562  0.3141
  444MOL0     C61145   5.821   9.010   7.788 -0.2859 -0.1775 -1.2997
  444MOL0     C61146   5.739   8.948   7.678  0.0516 -0.9423 -0.2417
  444MOL0     C61147   5.798   8.813   7.634  0.3025 -0.4025 -0.5269
  444MOL0     C61148   5.749   8.770   7.502  0.3505 -0.0863 -0.8233
  444MOL0     C61149   5.799   8.634   7.454 -0.1706 -0.1971  0.8563
  444MOL0     C61150   5.947   8.620   7.416  0.6287  0.5977  0.3906
  444MOL0     N61151   5.961   8.485   7.353  0.7327 -0.4755  0.2617
  444MOL0     C61152   5.994   8.366   7.422  0.0939  0.2789 -0.5472
  444MOL0     C61153   5.969   8.264   7.336  0.2086 -0.0176  0.0567
  444MOL0     C61154   5.979   8.111   7.358 -0.4681  0.5085 -0.3130
  444MOL0     C61155   6.032   8.040   7.232  0.1266  0.2190  0.3798
  444MOL0     C61156   6.048   7.882   7.242 -0.3001 -0.9816  0.4040
  444MOL0     C61157   6.110   7.838   7.369  0.0238  0.2742  0.7860
  444MOL0     O61158   6.240   7.894   7.357 -0.4555  0.2986  0.2071
  444MOL0     C61159   6.334   7.869   7.451  0.0545 -0.0220  0.5314
  444MOL0     C61160   6.422   7.975   7.473  0.2571 -0.1875  0.1507
  444MOL0     C61161   6.520   7.968   7.577 -0.5186  0.1017  1.0342
  444MOL0     C61162   6.628   8.069   7.581  1.0060 -0.0162 -0.9292
  444MOL0     C61163   6.518   7.855   7.661 -1.2112  0.3044 -0.3470
  444MOL0     C61164   6.624   7.824   7.763  0.5630  0.8923 -0.0865
  444MOL0     O61165   6.594   7.716   7.840 -0.7324  0.6445 -0.2342
  444MOL0     C61166   6.699   7.662   7.908  0.0279  0.0094  1.0208
  444MOL0     C61167   6.728   7.704   8.040  0.8166 -0.4067 -0.3643
  444MOL0     C61168   6.826   7.646   8.123  0.4303  0.0472  0.1354
  444MOL0     C61169   6.903   7.541   8.074  0.2005  0.5208 -0.2884
  444MOL0     O61170   6.995   7.472   8.142 -0.3352  1.1194 -0.0436
  444MOL0     C61171   7.009   7.503   8.279  0.3849 -0.2111 -0.6102
  444MOL0     C61172   7.140   7.446   8.327 -0.2305  0.1021  0.2884
  444MOL0     C61173   7.144   7.294   8.296 -0.5810 -1.3610  0.0813
  444MOL0     C61174   7.274   7.225   8.355  0.0831  0.2297  0.2332
  444MOL0     C61175   7.301   7.075   8.322 -1.0132 -1.0628 -1.0564
  444MOL0     C61176   7.456   7.046   8.344  0.2751  0.5426  0.1240
  444MOL0     C61177   7.488   6.901   8.308 -0.2016  0.0434 -0.7771
  444MOL0     C61178   7.455   6.853   8.175  0.3888 -0.2981  0.0547
  444MOL0    Cl61179   7.545   6.701   8.145  0.0479  0.0777  0.1879
  444MOL0     C61180   6.885   7.504   7.937 -0.1963 -0.3521  0.5279
  444MOL0     C61181   6.777   7.556   7.858 -0.3102 -0.1790 -0.1485
  444MOL0     O61182   6.733   7.879   7.768 -0.4144 -0.2168  0.7807
  444MOL0     C61183   6.422   7.755   7.640  0.7951  0.4863  0.1539
  444MOL0     C61184   6.327   7.769   7.538  0.4091  0.1607  0.8380
  444MOL0     N61185   5.905   8.316   7.223  0.3671 -0.4615  0.1099
  444MOL0     N61186   5.904   8.451   7.233  0.2737  0.0939  0.6357
  444MOL0     C61187   6.014   9.416   8.057  0.1689 -0.6438  0.3482
  444MOL0     C61188   6.099   9.491   8.150  0.1127  0.0300  0.4935
  444MOL0     C61189   6.501   9.693   8.265  0.5363  0.1033  0.4828
  444MOL0     C61190   6.420   9.772   8.346  0.0933  0.0512 -0.3454
  444MOL0     C61191   6.474   9.853   8.443  0.0436 -1.0421 -0.2331
  444MOL0     C61192   6.610   9.849   8.461  0.0028 -0.8025  0.6307
  444MOL0     O61193   6.665   9.923   8.568  0.5572 -0.7517  0.6231
  444MOL0     C61194   6.631  10.059   8.567  0.2760 -0.9336  0.8612
  444MOL0     C61195   6.752  10.144   8.580  0.6744  1.0847  0.4007
  444MOL0     C61196   6.810  10.135   8.722 -0.1887 -0.4791  0.3758
  444MOL0     C61197   6.945  10.217   8.723  0.9627  0.6515 -0.4880
  444MOL0     C61198   7.018  10.186   8.843  0.2483  0.2090  0.0475
  444MOL0     C61199   7.092  10.148   8.927 -0.0105 -0.0304  0.6246
  444MOL0     C61200   6.690   9.761   8.394  0.0575  0.4849  0.8086
  444MOL0     C61201   6.643   9.692   8.283  0.1477  0.7842  0.0982
  444MOL0     C61202   6.731   9.603   8.200  0.5685 -0.2032  0.1109
  444MOL0     H61203   6.391   9.405   7.997  0.8877 -1.5463  1.4249
  444MOL0     H61204   6.236   9.262   7.869  2.0044  0.1253  0.3233
  444MOL0     H61205   5.790   9.304   7.963 -3.6480  0.5464 -2.3865
  444MOL0     H61206   5.846   9.149   8.007 -3.2484  0.8013  0.5269
  444MOL0     H61207   5.653   9.141   7.863 -0.3214  0.1471 -0.9234
  444MOL0     H61208   5.737   9.198   7.730 -0.9539  0.1043  0.6831
  444MOL0     H61209   5.919   9.032   7.745 -0.5135  0.6860 -1.3882
  444MOL0     H61210   5.819   8.954   7.882 -0.5796  2.8039  0.6007
  444MOL0     H61211   5.634   8.928   7.701 -0.3682  0.4655 -0.8472
  444MOL0     H61212   5.749   9.020   7.597  0.0035  1.0109  1.3958
  444MOL0     H61213   5.782   8.737   7.711  6.5021 -0.9559  0.8131
  444MOL0     H61214   5.907   8.814   7.644  0.3661 -1.4184 -0.9898
  444MOL0     H61215   5.641   8.764   7.516  0.4117  0.7477  0.1727
  444MOL0     H61216   5.776   8.847   7.429 -0.8412 -1.9809 -3.4032
  444MOL0     H61217   5.735   8.612   7.369  0.0531  2.3674 -0.0462
  444MOL0     H61218   5.775   8.558   7.530 -2.6061 -1.9080 -1.4473
  444MOL0     H61219   5.968   8.694   7.338  0.3545 -0.6584 -0.9139
  444MOL0     H61220   6.014   8.634   7.501  1.7625 -1.6397 -0.0423
  444MOL0     H61221   6.024   8.352   7.525 -3.5457 -3.1736  0.3188
  444MOL0     H61222   5.878   8.078   7.383 -0.3126 -0.4693 -0.9125
  444MOL0     H61223   6.052   8.102   7.439  2.1389  0.4347 -2.5095
  444MOL0     H61224   5.951   8.050   7.158  0.3737  0.3898  0.1316
  444MOL0     H61225   6.125   8.083   7.193 -1.1316  0.1309 -3.0790
  444MOL0     H61226   5.942   7.853   7.243 -0.8469  0.8434  1.2858
  444MOL0     H61227   6.103   7.853   7.152 -4.0145  1.6180 -3.0795
  444MOL0     H61228   6.053   7.875   7.455 -1.3867  4.1713 -1.5307
  444MOL0     H61229   6.118   7.730   7.361  1.4127  0.4005  0.1825
  444MOL0     H61230   6.426   8.053   7.398  0.5460 -0.4343 -0.0970
  444MOL0     H61231   6.606   8.156   7.518  0.0373 -1.1637 -2.2451
  444MOL0     H61232   6.722   8.030   7.540  0.3256 -1.8687 -0.7836
  444MOL0     H61233   6.636   8.112   7.681 -3.0043  0.7682 -0.7848
  444MOL0     H61234   6.669   7.784   8.084 -0.8757 -1.9541  0.2819
  444MOL0     H61235   6.821   7.653   8.231  0.7766 -2.9185  0.4252
  444MOL0     H61236   7.003   7.611   8.290 -0.7473 -0.2056 -1.0950
  444MOL0     H61237   6.921   7.455   8.324  1.9483 -2.0721  0.6422
  444MOL0     H61238   7.222   7.498   8.277 -0.3425 -0.0580 -0.0681
  444MOL0     H61239   7.161   7.472   8.431 -0.8643  0.0277  0.4434
  444MOL0     H61240   7.122   7.276   8.191  0.0827 -0.8748 -0.1455
  444MOL0     H61241   7.059   7.248   8.347 -0.3143 -2.7096 -0.6250
  444MOL0     H61242   7.259   7.258   8.458 -2.7928  1.9655 -0.6432
  444MOL0     H61243   7.358   7.283   8.315  1.3179  0.4686  2.9387
  444MOL0     H61244   7.230   7.017   8.381 -1.9659  2.0939  1.1637
  444MOL0     H61245   7.275   7.067   8.216 -0.6443  1.3361 -1.3997
  444MOL0     H61246   7.477   7.067   8.449 -0.4394 -2.4706  0.9523
  444MOL0     H61247   7.516   7.113   8.281 -0.2081  1.2324  0.3881
  444MOL0     H61248   7.430   6.837   8.376 -1.4695  0.0155 -1.8493
  444MOL0     H61249   7.591   6.873   8.333  0.2080  0.9732 -1.3998
  444MOL0     H61250   7.486   6.931   8.105 -1.1056  2.0253  1.8271
  444MOL0     H61251   7.345   6.847   8.176  0.1394  2.6733 -0.0515
  444MOL0     H61252   6.944   7.423   7.895  0.2131 -0.4682  1.3037
  444MOL0     H61253   6.771   7.520   7.756 -2.7777 -1.4217  0.3600
  444MOL0     H61254   6.412   7.659   7.691 -2.5753 -0.7156 -2.3628
  444MOL0     H61255   6.263   7.685   7.517  0.9621 -0.2122  0.6227
  444MOL0     H61256   5.908   9.434   8.075 -0.0007  1.1986 -1.9912
  444MOL0     H61257   6.056   9.556   8.225 -0.3019  0.5180 -0.1579
  444MOL0     H61258   6.312   9.764   8.342  0.0891 -0.2465  0.2806
  444MOL0     H61259   6.412   9.916   8.505  1.0606  0.1936 -0.4391
  444MOL0     H61260   6.588  10.086   8.470 -1.6282  1.9145  2.3357
  444MOL0     H61261   6.546  10.083   8.632 -1.5120  1.4512 -2.0736
  444MOL0     H61262   6.731  10.244   8.541  0.8243  0.6996 -0.6884
  444MOL0     H61263   6.822  10.107   8.505  0.3546 -0.5658  0.8819
  444MOL0     H61264   6.740  10.173   8.797 -1.8290 -0.5733 -1.0520
  444MOL0     H61265   6.821  10.028   8.740 -4.5037 -1.2566 -0.3590
  444MOL0     H61266   6.914  10.321   8.713 -0.2076  0.3153 -0.5500
  444MOL0     H61267   7.002  10.186   8.635 -0.4399 -1.0117 -0.8739
  444MOL0     H61268   7.151  10.113   9.010 -0.5673  2.2732  2.0940
  444MOL0     H61269   6.797   9.755   8.415  0.1105  0.8585  0.6501
  444MOL0     H61270   6.705   9.497   8.200 -1.0736  0.1492  1.6276
  444MOL0     H61271   6.715   9.638   8.098 -3.0794  1.3067  1.0576
  444MOL0     H61272   6.835   9.604   8.235  0.1747 -1.2786  1.4026
  445MOL0     O61273   4.304   5.021   0.414 -0.2374 -0.4505  0.7353
  445MOL0     C61274   4.325   5.146   0.422  0.0675  0.3146  0.2313
  445MOL0     O61275   4.381   5.221   0.322  0.3367 -0.7847 -0.2250
  445MOL0     C61276   4.407   5.155   0.205 -0.6338  0.8907 -0.4288
  445MOL0     C61277   4.317   5.140   0.100 -0.1762  0.5730 -0.1734
  445MOL0     C61278   4.353   5.063  -0.010 -0.2195 -0.2608  0.2213
  445MOL0     C61279   4.484   4.998  -0.033  0.5311 -0.2808  0.7068
  445MOL0     O61280   4.513   4.933  -0.150  0.4142  0.0968 -0.5234
  445MOL0     C61281   4.646   4.872  -0.153  1.0492 -0.1755  0.9341
  445MOL0     C61282   4.653   4.787  -0.277 -0.6544 -0.3677  0.2722
  445MOL0     C61283   4.796   4.782  -0.329  0.2537 -0.1262  0.5430
  445MOL0     C61284   4.803   4.696  -0.465 -0.7375 -0.5045  0.3128
  445MOL0     C61285   4.943   4.698  -0.519 -0.0919 -0.4061 -0.1770
  445MOL0     C61286   4.955   4.614  -0.648 -0.1022 -0.6733  0.6686
  445MOL0     C61287   5.103   4.593  -0.695  0.1453  0.1936  0.1663
  445MOL0     C61288   5.100   4.480  -0.800 -0.6337  0.1521  0.0232
  445MOL0     N61289   5.235   4.462  -0.866  0.6557 -0.6422 -0.5230
  445MOL0     C61290   5.308   4.345  -0.838 -0.9283 -1.1224 -0.2569
  445MOL0     C61291   5.411   4.355  -0.934  0.1179  0.1126  0.2463
  445MOL0     C61292   5.531   4.264  -0.924  0.7144  1.0100  0.0625
  445MOL0     C61293   5.572   4.232  -0.777 -0.4933 -0.8456 -0.0622
  445MOL0     C61294   5.694   4.138  -0.788  0.9541  0.4118  0.0940
  445MOL0     C61295   5.776   4.112  -0.661  0.6470 -0.0880  0.5531
  445MOL0     O61296   5.843   4.234  -0.613 -0.3503  0.7432 -0.0584
  445MOL0     C61297   5.938   4.283  -0.691  0.0955 -0.6202  0.4623
  445MOL0     C61298   6.043   4.210  -0.742  0.0107 -1.0396 -0.8066
  445MOL0     C61299   6.128   4.263  -0.839  0.7968 -0.5944 -0.0030
  445MOL0     C61300   6.251   4.187  -0.873  0.1017 -1.1689 -0.0372
  445MOL0     C61301   6.101   4.393  -0.895 -0.2303 -0.6644 -0.1692
  445MOL0     C61302   6.175   4.453  -1.005  0.6232  0.0029  0.1805
  445MOL0     O61303   6.127   4.578  -1.040 -0.1737  0.0788 -0.6640
  445MOL0     C61304   6.203   4.651  -1.120  0.4214 -0.2249  1.2944
  445MOL0     C61305   6.172   4.673  -1.257  1.0903  0.2649 -0.0718
  445MOL0     C61306   6.251   4.750  -1.339 -0.7296  0.1657  0.3484
  445MOL0     C61307   6.363   4.812  -1.282 -0.3374  0.4362 -0.6457
  445MOL0     O61308   6.430   4.887  -1.372  0.3330  0.3575 -0.0255
  445MOL0     C61309   6.578   4.881  -1.365  0.3145  0.3585 -0.0093
  445MOL0     C61310   6.631   4.996  -1.448 -0.0933 -0.0674  0.8836
  445MOL0     C61311   6.789   4.996  -1.462  0.4093  0.3706 -0.6186
  445MOL0     C61312   6.853   5.057  -1.332  0.4384  0.4143  0.3566
  445MOL0     C61313   7.007   5.033  -1.327 -0.1821  0.2918  1.2976
  445MOL0     C61314   7.091   5.130  -1.416  0.0818 -1.0175 -0.3678
  445MOL0     C61315   7.239   5.115  -1.382 -0.0243  0.2840 -0.0887
  445MOL0     C61316   7.323   5.166  -1.495 -0.6648 -0.7291  0.1162
  445MOL0    Cl61317   7.496   5.150  -1.451  0.4613  0.1167  0.3814
  445MOL0     C61318   6.385   4.813  -1.143  0.2130  0.4557  0.0440
  445MOL0     C61319   6.302   4.731  -1.063  0.3432 -0.1082  0.4198
  445MOL0     O61320   6.256   4.390  -1.070 -0.4624 -0.0471  0.1606
  445MOL0     C61321   5.989   4.469  -0.846 -0.3966  0.8148  0.0619
  445MOL0     C61322   5.916   4.412  -0.746  0.2676 -0.1487 -0.0925
  445MOL0     N61323   5.395   4.473  -1.004  0.6157  0.0032  0.1538
  445MOL0     N61324   5.287   4.533  -0.962 -0.7820 -0.9209  1.1217
  445MOL0     C61325   4.579   5.026   0.072  0.3745  0.4138 -0.3992
  445MOL0     C61326   4.542   5.102   0.185 -0.7578  0.4667  0.5559
  445MOL0     C61327   4.265   5.222   0.534 -0.0776  0.2456  0.0206
  445MOL0     C61328   4.325   5.350   0.556 -0.6319  0.3107  0.3737
  445MOL0     C61329   4.298   5.426   0.666  0.1603  1.1417 -0.7942
  445MOL0     C61330   4.192   5.387   0.749  0.5845  0.0145  0.5206
  445MOL0     O61331   4.158   5.453   0.858 -0.5027 -0.4310 -1.0171
  445MOL0     C61332   4.234   5.569   0.904 -0.6128  0.9977  0.0698
  445MOL0     C61333   4.179   5.625   1.032  0.6335 -1.2216 -0.6816
  445MOL0     C61334   4.290   5.715   1.097  1.0943  0.5297  0.4141
  445MOL0     C61335   4.232   5.779   1.231 -0.6949 -0.7158 -0.0190
  445MOL0     C61336   4.337   5.830   1.324 -0.5596 -0.7357 -0.8431
  445MOL0     C61337   4.409   5.873   1.418  0.4441 -0.7808  0.1606
  445MOL0     C61338   4.129   5.269   0.724 -0.7739  0.0313  0.2979
  445MOL0     C61339   4.164   5.179   0.622 -1.0912 -0.0067 -0.2888
  445MOL0     C61340   4.086   5.055   0.613  0.2049 -0.2823 -0.7688
  445MOL0     H61341   4.215   5.172   0.116 -1.1998 -3.1256  1.9002
  445MOL0     H61342   4.274   5.049  -0.083  0.0980 -3.0346  0.3028
  445MOL0     H61343   4.656   4.807  -0.065 -0.7778 -1.3767  0.3032
  445MOL0     H61344   4.719   4.952  -0.168 -1.3796  2.0318  0.1847
  445MOL0     H61345   4.609   4.689  -0.252 -2.1704  0.6430  1.8347
  445MOL0     H61346   4.587   4.824  -0.356  0.7421 -0.5385 -1.0044
  445MOL0     H61347   4.831   4.885  -0.344  2.2427 -0.9837 -1.1976
  445MOL0     H61348   4.865   4.725  -0.266 -1.7108 -0.9143  2.0808
  445MOL0     H61349   4.772   4.594  -0.441  0.1805 -0.4148  2.0660
  445MOL0     H61350   4.741   4.751  -0.536  3.3156  1.0208 -2.4156
  445MOL0     H61351   5.011   4.655  -0.445  0.8210 -0.5214 -1.0516
  445MOL0     H61352   4.978   4.800  -0.540  0.0137 -0.6807 -1.4023
  445MOL0     H61353   4.901   4.521  -0.630 -1.6736 -0.1813 -1.1540
  445MOL0     H61354   4.893   4.652  -0.730 -0.2420 -3.5352 -0.6632
  445MOL0     H61355   5.168   4.571  -0.610 -1.6126  0.8633  1.7484
  445MOL0     H61356   5.147   4.685  -0.735 -0.0269  0.7524  1.2061
  445MOL0     H61357   5.072   4.390  -0.744  2.1421 -1.1178 -0.4888
  445MOL0     H61358   5.025   4.503  -0.876 -2.6956 -0.6578  1.6866
  445MOL0     H61359   5.290   4.266  -0.766  0.1573 -3.3730 -2.3035
  445MOL0     H61360   5.614   4.307  -0.981  1.9538 -1.9127 -0.4878
  445MOL0     H61361   5.504   4.175  -0.981  0.1712  1.7386 -0.8472
  445MOL0     H61362   5.601   4.329  -0.734 -0.4108 -0.2197 -1.4784
  445MOL0     H61363   5.490   4.191  -0.716 -0.7527 -0.0257  0.1620
  445MOL0     H61364   5.647   4.047  -0.828 -1.0816  0.7782  1.5265
  445MOL0     H61365   5.771   4.161  -0.862  0.8050 -2.7295 -1.1968
  445MOL0     H61366   5.725   4.068  -0.575  2.2944 -3.2311  0.0687
  445MOL0     H61367   5.854   4.039  -0.684  1.3754  0.4023  1.3647
  445MOL0     H61368   6.069   4.110  -0.708  3.4602  0.1305  0.4304
  445MOL0     H61369   6.254   4.116  -0.791  4.8307  1.5395  2.5227
  445MOL0     H61370   6.336   4.253  -0.889 -1.7800  0.8646 -2.8182
  445MOL0     H61371   6.242   4.145  -0.974 -0.4188  0.4552 -0.7078
  445MOL0     H61372   6.088   4.610  -1.286 -1.6220  2.1407  2.9260
  445MOL0     H61373   6.253   4.765  -1.447 -3.1101  0.8345  0.3403
  445MOL0     H61374   6.601   4.883  -1.259 -1.9264 -1.1213  0.5951
  445MOL0     H61375   6.608   4.785  -1.407 -3.3481 -0.3882 -1.3116
  445MOL0     H61376   6.588   5.001  -1.548  1.1052 -2.4388  0.1771
  445MOL0     H61377   6.603   5.088  -1.395  3.1975  0.7825  1.3397
  445MOL0     H61378   6.813   5.045  -1.557 -1.1349 -0.8694 -1.6992
  445MOL0     H61379   6.808   4.890  -1.481 -1.0653 -0.4261  1.8449
  445MOL0     H61380   6.801   5.012  -1.247 -1.3611  3.3499  0.9594
  445MOL0     H61381   6.824   5.162  -1.333  0.5969  0.4597  0.4891
  445MOL0     H61382   7.046   5.024  -1.225  3.4734  1.5452  0.1836
  445MOL0     H61383   7.026   4.931  -1.363 -2.9851  0.3453 -0.6375
  445MOL0     H61384   7.059   5.234  -1.402  1.2274 -0.8887  1.7398
  445MOL0     H61385   7.072   5.106  -1.521 -1.1231  0.9438 -0.6630
  445MOL0     H61386   7.258   5.008  -1.373  1.7314  0.5948  0.2970
  445MOL0     H61387   7.265   5.158  -1.285 -1.5224 -0.0598  0.4878
  445MOL0     H61388   7.300   5.272  -1.506 -1.2382 -0.6136  2.0225
  445MOL0     H61389   7.307   5.116  -1.591 -0.3806  2.1580 -1.5672
  445MOL0     H61390   6.471   4.866  -1.104  2.1422 -2.7175  0.4817
  445MOL0     H61391   6.329   4.709  -0.960 -0.3354  1.1164  0.8919
  445MOL0     H61392   5.961   4.562  -0.894 -2.9963 -0.2312 -0.6021
  445MOL0     H61393   5.833   4.475  -0.717  1.3841  2.1015 -1.4585
  445MOL0     H61394   4.683   4.993   0.072  0.3906  0.3329  2.0124
  445MOL0     H61395   4.623   5.113   0.258  0.9003 -0.6561 -1.0326
  445MOL0     H61396   4.404   5.385   0.491 -1.7015  1.7621 -0.2068
  445MOL0     H61397   4.348   5.522   0.674 -0.6731  1.5461 -0.2243
  445MOL0     H61398   4.328   5.523   0.936 -1.8370 -1.2571  0.6131
  445MOL0     H61399   4.251   5.636   0.819  1.9409 -1.7942 -1.8090
  445MOL0     H61400   4.146   5.546   1.100 -0.8286  1.2230  1.6361
  445MOL0     H61401   4.092   5.689   1.013  1.5769  1.0165  1.8808
  445MOL0     H61402   4.373   5.657   1.139  0.0891  1.3957  3.8229
  445MOL0     H61403   4.319   5.797   1.030  1.3626 -1.1463 -1.6343
  445MOL0     H61404   4.169   5.704   1.282 -1.3427  0.1756  0.5288
  445MOL0     H61405   4.164   5.862   1.209 -0.0189 -0.0468  0.3560
  445MOL0     H61406   4.452   5.925   1.501 -2.5351  0.0202  1.3058
  445MOL0     H61407   4.053   5.233   0.793  0.6793 -0.1011  1.9036
  445MOL0     H61408   4.095   4.997   0.521  2.6581  0.1710 -0.8690
  445MOL0     H61409   4.109   4.996   0.702 -0.5186  2.1202  1.1413
  445MOL0     H61410   3.978   5.075   0.613  0.1215 -0.6941 -0.3029
  446MOL0     O61411   0.332  10.040   8.957  0.1057 -0.7775 -0.1956
  446MOL0     C61412   0.314   9.922   8.924 -0.2588  0.2032 -0.1119
  446MOL0     O61413   0.305   9.871   8.800  0.3482  0.0963 -0.0643
  446MOL0     C61414   0.358   9.954   8.704  0.8039  0.1432 -0.3890
  446MOL0     C61415   0.489   9.995   8.694  0.1295  1.0139 -0.6674
  446MOL0     C61416   0.533  10.078   8.592 -0.4913 -0.8678  0.5388
  446MOL0     C61417   0.446  10.117   8.484 -0.6420  0.2212  1.4748
  446MOL0     O61418   0.510  10.194   8.390 -0.9666 -0.7641  0.4428
  446MOL0     C61419   0.456  10.209   8.254  0.5027 -0.7408 -0.2829
  446MOL0     C61420   0.567  10.275   8.163 -1.2265  0.3227 -0.2307
  446MOL0     C61421   0.601  10.410   8.223  0.1838 -0.2545 -0.5249
  446MOL0     C61422   0.599  10.508   8.107  0.1785  0.2059 -0.5703
  446MOL0     C61423   0.636  10.646   8.148  0.2492 -0.7157  0.0932
  446MOL0     C61424   0.774  10.654   8.216 -0.1092 -1.4187 -0.3174
  446MOL0     C61425   0.856  10.783   8.167 -0.2376  0.1578 -0.4404
  446MOL0     C61426   1.003  10.771   8.203  0.3392  0.5374  0.3903
  446MOL0     N61427   1.031  10.763   8.349  0.4295 -0.5986 -0.2352
  446MOL0     C61428   1.109  10.658   8.397 -0.7554  0.8189  0.3490
  446MOL0     C61429   1.113  10.673   8.531  0.1078  0.4438  0.0492
  446MOL0     C61430   1.172  10.573   8.634  0.1862  0.1735 -1.0886
  446MOL0     C61431   1.201  10.652   8.777 -0.6858 -0.1345 -1.0161
  446MOL0     C61432   1.260  10.559   8.878  0.4617 -0.0595 -0.0201
  446MOL0     C61433   1.401  10.521   8.862 -0.1597  0.1547  0.0194
  446MOL0     O61434   1.464  10.494   8.981  0.3141 -0.2455  0.2671
  446MOL0     C61435   1.595  10.490   9.001  0.2451 -0.3174  0.0744
  446MOL0     C61436   1.693  10.584   8.949  0.4624  0.1132 -0.1555
  446MOL0     C61437   1.829  10.566   8.978  0.6555 -0.5996  0.1448
  446MOL0     C61438   1.928  10.666   8.915  0.5744 -0.1566  0.1324
  446MOL0     C61439   1.874  10.462   9.073 -1.1196  0.2774  0.6209
  446MOL0     C61440   2.015  10.447   9.107 -0.1595 -0.0332 -1.0066
  446MOL0     O61441   2.036  10.364   9.214 -0.5735  0.0445 -0.1147
  446MOL0     C61442   2.165  10.370   9.264  0.0805  0.2060 -0.6772
  446MOL0     C61443   2.244  10.256   9.280  0.0554 -0.4854 -0.3285
  446MOL0     C61444   2.379  10.260   9.325  0.0020 -0.2198  0.1379
  446MOL0     C61445   2.437  10.383   9.358 -0.1977 -0.2421 -0.1719
  446MOL0     O61446   2.564  10.390   9.402  0.2054  0.3008  0.0540
  446MOL0     C61447   2.639  10.493   9.332 -0.4428 -0.0062  0.7819
  446MOL0     C61448   2.783  10.475   9.342 -0.6522  0.8391 -0.4781
  446MOL0     C61449   2.832  10.431   9.479 -0.1238  0.0319 -0.0811
  446MOL0     C61450   2.984  10.405   9.492  0.5457 -1.1021  0.0864
  446MOL0     C61451   3.042  10.300   9.392 -0.0507 -1.2710 -0.5680
  446MOL0     C61452   2.963  10.169   9.393  0.1454  0.2596 -0.5592
  446MOL0     C61453   3.056  10.055   9.371 -0.5826  0.5089  0.8372
  446MOL0     C61454   2.990   9.921   9.333 -0.2733 -0.4190 -0.0713
  446MOL0    Cl61455   3.118   9.796   9.342  0.1896 -0.0117  0.1894
  446MOL0     C61456   2.355  10.499   9.360 -0.1916  0.4152 -0.6088
  446MOL0     C61457   2.227  10.492   9.312  0.0456  0.0301 -1.1471
  446MOL0     O61458   2.103  10.505   9.047 -0.1262 -0.2362  0.0468
  446MOL0     C61459   1.780  10.369   9.122  0.1106 -0.1555 -0.3415
  446MOL0     C61460   1.647  10.386   9.082 -0.1600  0.0222 -0.4469
  446MOL0     N61461   1.021  10.778   8.559 -0.0269 -0.4105  0.9581
  446MOL0     N61462   0.970  10.824   8.452 -0.1330 -0.6430 -0.3374
  446MOL0     C61463   0.315  10.072   8.490  0.4281  0.0222 -1.0893
  446MOL0     C61464   0.277   9.998   8.602  0.4721 -0.5647  0.0730
  446MOL0     C61465   0.339   9.825   9.041  1.4188 -0.1773 -0.2522
  446MOL0     C61466   0.338   9.865   9.173 -1.0882 -0.3913  0.6779
  446MOL0     C61467   0.366   9.783   9.283  0.3793 -0.0571 -1.1319
  446MOL0     C61468   0.384   9.649   9.271 -0.5831  0.3636  0.8769
  446MOL0     O61469   0.389   9.562   9.371  0.0959 -0.3591 -0.5523
  446MOL0     C61470   0.457   9.607   9.490  0.7414  0.0786 -0.4253
  446MOL0     C61471   0.455   9.474   9.576 -0.1801 -0.2604 -0.3027
  446MOL0     C61472   0.572   9.373   9.553 -0.2613 -0.5981 -0.2983
  446MOL0     C61473   0.712   9.407   9.620  0.7475  0.0038 -0.7697
  446MOL0     C61474   0.781   9.529   9.570  0.1302 -0.9305  0.7620
  446MOL0     C61475   0.841   9.632   9.529 -0.6407  0.9037  0.3961
  446MOL0     C61476   0.392   9.600   9.136  0.4773  0.7629  0.1752
  446MOL0     C61477   0.366   9.680   9.024  0.4208  0.2943 -0.0953
  446MOL0     C61478   0.375   9.622   8.890  0.4348 -0.3778 -0.0009
  446MOL0     H61479   0.555   9.961   8.774 -0.9195 -2.6857 -1.1929
  446MOL0     H61480   0.640  10.094   8.603 -0.6458 -0.2229  1.2279
  446MOL0     H61481   0.372  10.279   8.254  1.2680  0.4400  3.9202
  446MOL0     H61482   0.434  10.111   8.211 -1.6598 -0.6526  0.4962
  446MOL0     H61483   0.647  10.201   8.174 -2.0460 -0.4626  0.5198
  446MOL0     H61484   0.529  10.277   8.060  0.5748 -0.8202 -0.9733
  446MOL0     H61485   0.534  10.438   8.304 -2.1528  2.2123 -3.0721
  446MOL0     H61486   0.700  10.406   8.269 -0.5615 -0.8751  1.0864
  446MOL0     H61487   0.655  10.463   8.025  0.5035 -0.9243  0.2444
  446MOL0     H61488   0.497  10.520   8.070  0.0415  1.8718  0.2057
  446MOL0     H61489   0.569  10.677   8.229  0.9843  1.6149 -0.1147
  446MOL0     H61490   0.625  10.703   8.055 -2.2722 -1.0998  0.0709
  446MOL0     H61491   0.779  10.643   8.325  1.5831 -0.6836 -0.2798
  446MOL0     H61492   0.827  10.568   8.176  2.7286 -0.0448  0.1991
  446MOL0     H61493   0.821  10.873   8.217 -1.0587  0.1212 -0.9343
  446MOL0     H61494   0.829  10.800   8.063 -1.9795 -1.1601 -0.2423
  446MOL0     H61495   1.047  10.684   8.154  1.1368  0.8338  0.5678
  446MOL0     H61496   1.046  10.864   8.166 -1.2612  1.8242  1.6306
  446MOL0     H61497   1.158  10.578   8.342  1.2001  1.4415  1.0994
  446MOL0     H61498   1.263  10.531   8.591  1.2756  2.0440 -0.6978
  446MOL0     H61499   1.101  10.492   8.657  0.9136 -0.1701  0.0244
  446MOL0     H61500   1.262  10.739   8.749  3.0841 -1.6797  1.5187
  446MOL0     H61501   1.105  10.686   8.817  0.9319  1.8799  1.5255
  446MOL0     H61502   1.259  10.606   8.977 -0.1995 -2.5202  1.2168
  446MOL0     H61503   1.192  10.474   8.887 -3.7380  3.1816  2.7079
  446MOL0     H61504   1.419  10.431   8.801  1.3905  0.3307  0.1558
  446MOL0     H61505   1.448  10.608   8.814 -0.7057  0.3233 -0.2174
  446MOL0     H61506   1.657  10.660   8.881 -1.3077 -0.3022  0.2425
  446MOL0     H61507   2.004  10.621   8.850 -0.9517  0.7766 -2.4390
  446MOL0     H61508   1.970  10.735   8.989  3.4954 -1.9793  0.3181
  446MOL0     H61509   1.874  10.736   8.851 -1.6647 -0.7360  1.2970
  446MOL0     H61510   2.190  10.164   9.260  0.6948 -0.9983  0.2613
  446MOL0     H61511   2.443  10.173   9.332 -0.4234 -0.6071 -0.5745
  446MOL0     H61512   2.611  10.507   9.227 -1.5600  1.3765  1.2300
  446MOL0     H61513   2.605  10.586   9.380 -1.6304 -0.0784  0.1189
  446MOL0     H61514   2.800  10.382   9.287 -2.1537  0.5142 -0.4462
  446MOL0     H61515   2.830  10.564   9.298 -0.4621  0.7346 -0.4861
  446MOL0     H61516   2.784  10.339   9.512  2.7258 -1.7216 -0.4761
  446MOL0     H61517   2.818  10.514   9.549  4.6448  0.3282  0.8184
  446MOL0     H61518   3.012  10.369   9.591  2.7806  2.0157  0.7339
  446MOL0     H61519   3.034  10.501   9.474 -3.9546  1.7007  0.8189
  446MOL0     H61520   3.041  10.330   9.287 -2.2814 -0.8021 -0.4441
  446MOL0     H61521   3.146  10.291   9.425 -0.0858 -1.4068 -0.4929
  446MOL0     H61522   2.880  10.179   9.323  3.5011 -1.3075 -5.2970
  446MOL0     H61523   2.913  10.149   9.489  1.3905  1.7138  0.4448
  446MOL0     H61524   3.122  10.027   9.454 -2.5980  0.5155  2.5347
  446MOL0     H61525   3.117  10.087   9.286 -1.0347  2.7369  1.3045
  446MOL0     H61526   2.950   9.942   9.234  0.0090  2.7992  0.3851
  446MOL0     H61527   2.913   9.888   9.404  0.9595  1.2621  2.1814
  446MOL0     H61528   2.394  10.595   9.393 -0.6207 -0.3860  2.6602
  446MOL0     H61529   2.164  10.581   9.318  2.3045  1.6110  1.1060
  446MOL0     H61530   1.808  10.283   9.182  0.0790 -1.7513 -2.4668
  446MOL0     H61531   1.573  10.311   9.111 -0.0467 -0.3409 -1.0834
  446MOL0     H61532   0.243  10.085   8.410 -1.3491  2.5120  0.7526
  446MOL0     H61533   0.180   9.948   8.603 -1.7118  3.2922 -0.0463
  446MOL0     H61534   0.320   9.968   9.201 -1.1927  0.0129 -0.8013
  446MOL0     H61535   0.360   9.826   9.382  5.4406 -0.2268 -0.5232
  446MOL0     H61536   0.560   9.638   9.471 -0.2005  1.8209 -3.1672
  446MOL0     H61537   0.402   9.691   9.534  1.8832 -0.6696  2.7506
  446MOL0     H61538   0.360   9.423   9.559  0.1716 -1.2691  0.5918
  446MOL0     H61539   0.456   9.489   9.685 -1.1298  1.2836 -0.4806
  446MOL0     H61540   0.543   9.274   9.589 -0.6194 -2.1056 -4.2395
  446MOL0     H61541   0.589   9.357   9.447  2.4968  1.6148 -0.3174
  446MOL0     H61542   0.778   9.320   9.613 -1.1305 -1.6198  0.5706
  446MOL0     H61543   0.691   9.426   9.725  0.0799 -3.4498 -0.1382
  446MOL0     H61544   0.890   9.726   9.514  0.1595  0.7367  1.7644
  446MOL0     H61545   0.399   9.494   9.114 -3.1309  0.3895  0.1651
  446MOL0     H61546   0.427   9.525   8.884  1.2517  0.1356 -4.4857
  446MOL0     H61547   0.277   9.613   8.843 -2.3958 -3.4314  5.4940
  446MOL0     H61548   0.440   9.690   8.834  1.6122  0.2926  2.0645
  447MOL0     O61549   2.972   1.057   8.313 -0.3990  0.3977 -0.0824
  447MOL0     C61550   2.972   0.932   8.329  0.7188 -0.0947 -0.6880
  447MOL0     O61551   3.067   0.864   8.399 -0.6454 -0.5081 -0.1809
  447MOL0     C61552   3.185   0.918   8.441  0.7562  0.0887 -0.6439
  447MOL0     C61553   3.214   1.056   8.485  0.3599  0.0467 -0.4235
  447MOL0     C61554   3.340   1.093   8.528 -0.2085 -0.0907 -0.8057
  447MOL0     C61555   3.441   1.001   8.537  1.5115 -0.0381  0.4079
  447MOL0     O61556   3.570   1.036   8.568  0.6562 -0.7770  0.7740
  447MOL0     C61557   3.595   1.140   8.661  0.5042  0.0334 -0.3968
  447MOL0     C61558   3.730   1.112   8.719  0.3262  0.2464 -0.5944
  447MOL0     C61559   3.836   1.119   8.611  0.0629  0.0031 -0.1642
  447MOL0     C61560   3.969   1.050   8.650  0.1597  0.1017  0.0604
  447MOL0     C61561   3.995   0.902   8.607  0.1971 -0.4780 -0.1078
  447MOL0     C61562   3.912   0.805   8.696 -0.1974 -0.7206  0.3532
  447MOL0     C61563   3.944   0.814   8.845  0.3901 -0.4126  0.3539
  447MOL0     C61564   3.879   0.690   8.921 -0.3992  0.2943  0.3619
  447MOL0     N61565   3.737   0.668   8.893 -0.1766 -0.4340 -0.2875
  447MOL0     C61566   3.626   0.755   8.902  0.1997  0.4566  0.3263
  447MOL0     C61567   3.520   0.683   8.842  0.4657  0.2473 -0.5730
  447MOL0     C61568   3.379   0.714   8.809  0.5709 -0.0952 -0.3842
  447MOL0     C61569   3.306   0.607   8.730 -0.3774 -0.2288 -0.4773
  447MOL0     C61570   3.153   0.652   8.711 -0.2305  1.1317  0.5979
  447MOL0     C61571   3.087   0.561   8.613 -0.6268  1.6756 -0.0755
  447MOL0     O61572   3.112   0.426   8.657  0.2244  0.2168  0.8727
  447MOL0     C61573   3.140   0.339   8.558 -0.3516  0.3475  0.7968
  447MOL0     C61574   3.033   0.303   8.470 -0.5711 -0.1856  0.0183
  447MOL0     C61575   3.049   0.223   8.359  0.0278  0.0745 -0.5875
  447MOL0     C61576   2.931   0.209   8.264 -0.4112  0.0411 -0.5652
  447MOL0     C61577   3.170   0.154   8.350  0.4865  0.5954  0.0001
  447MOL0     C61578   3.195   0.058   8.235  0.7430  0.1608 -0.2884
  447MOL0     O61579   3.327   0.047   8.204 -0.4721 -0.0016 -0.1326
  447MOL0     C61580   3.375  -0.051   8.118 -0.3519  0.4737 -0.1010
  447MOL0     C61581   3.324  -0.182   8.121  0.5990  0.0557  0.9432
  447MOL0     C61582   3.371  -0.276   8.025 -0.2312 -0.9022  0.0138
  447MOL0     C61583   3.488  -0.250   7.953  0.1088 -0.4965 -0.0695
  447MOL0     O61584   3.549  -0.334   7.866 -0.4799 -0.1216  0.7263
  447MOL0     C61585   3.580  -0.461   7.915  0.0088 -0.5155  0.1407
  447MOL0     C61586   3.712  -0.452   7.999 -0.2099 -0.1809 -0.0859
  447MOL0     C61587   3.832  -0.414   7.909 -0.7000 -0.2803  0.7388
  447MOL0     C61588   3.969  -0.419   7.975  0.1763  0.4022 -0.3038
  447MOL0     C61589   4.092  -0.355   7.888 -0.1133  0.2023  0.6865
  447MOL0     C61590   4.119  -0.431   7.762  0.2572 -0.3666  0.4527
  447MOL0     C61591   4.203  -0.545   7.809  0.2029  0.4676  0.3522
  447MOL0     C61592   4.229  -0.635   7.693  1.3200 -0.0815  0.3548
  447MOL0    Cl61593   4.341  -0.768   7.725  0.1354  0.1174 -0.0691
  447MOL0     C61594   3.540  -0.117   7.951  0.1218  0.8062  0.1372
  447MOL0     C61595   3.493  -0.021   8.036 -0.0678 -0.8007  0.4289
  447MOL0     O61596   3.102   0.012   8.168 -0.5153 -0.0441  0.3817
  447MOL0     C61597   3.273   0.176   8.447  0.1464 -0.3324  0.4476
  447MOL0     C61598   3.259   0.268   8.547  0.8592 -0.4769  0.0470
  447MOL0     N61599   3.570   0.561   8.804 -0.5707 -1.0437 -0.2398
  447MOL0     N61600   3.689   0.548   8.845 -0.0655  0.0670  0.5737
  447MOL0     C61601   3.409   0.869   8.496 -0.0489  0.2279  0.2368
  447MOL0     C61602   3.289   0.827   8.450 -0.0866 -0.4836  1.1007
  447MOL0     C61603   2.861   0.849   8.277  0.1311 -0.1503  0.1054
  447MOL0     C61604   2.868   0.714   8.309 -0.6627 -0.0997  0.2822
  447MOL0     C61605   2.760   0.633   8.274  0.2071 -0.2876 -0.4136
  447MOL0     C61606   2.646   0.684   8.201  0.0905 -0.8168  0.7940
  447MOL0     O61607   2.537   0.612   8.158  0.0929 -0.1025  0.0164
  447MOL0     C61608   2.514   0.486   8.218 -1.2585 -0.5059  0.0765
  447MOL0     C61609   2.516   0.375   8.130 -0.0254  1.0027  0.4971
  447MOL0     C61610   2.505   0.250   8.217 -0.8268  0.3302 -0.6626
  447MOL0     C61611   2.552   0.128   8.131  1.0687 -0.0796 -0.0228
  447MOL0     C61612   2.491   0.008   8.190  0.1304 -0.0871 -0.4487
  447MOL0     C61613   2.435  -0.082   8.241 -0.4312 -0.6652  0.2743
  447MOL0     C61614   2.657   0.814   8.161 -0.4852  0.1234  0.4777
  447MOL0     C61615   2.759   0.898   8.185 -0.0360 -0.6380 -0.2515
  447MOL0     C61616   2.751   1.046   8.139 -1.7416 -0.7232 -0.8483
  447MOL0     H61617   3.135   1.131   8.489  0.6704  0.3082  2.2640
  447MOL0     H61618   3.352   1.191   8.571  0.0753 -0.6919  0.5470
  447MOL0     H61619   3.518   1.133   8.739  0.8504 -0.5157 -0.1011
  447MOL0     H61620   3.588   1.242   8.622  1.0694  1.4560  2.8322
  447MOL0     H61621   3.738   1.187   8.798 -5.7541  1.8086 -0.8900
  447MOL0     H61622   3.716   1.011   8.758  1.3573  0.7216  1.0865
  447MOL0     H61623   3.800   1.088   8.513  3.1674 -1.9709 -0.7964
  447MOL0     H61624   3.855   1.225   8.595 -0.5400  0.1743  0.2048
  447MOL0     H61625   4.042   1.108   8.593  1.8048 -2.1708 -0.2863
  447MOL0     H61626   3.993   1.061   8.756 -1.8198  0.1183  0.5602
  447MOL0     H61627   4.100   0.884   8.634  0.7410  2.4778  0.1202
  447MOL0     H61628   3.978   0.895   8.500 -0.9977  1.1225 -0.0623
  447MOL0     H61629   3.808   0.832   8.675  0.2112 -1.0570 -2.4772
  447MOL0     H61630   3.929   0.704   8.656 -1.4292 -1.2314  1.0657
  447MOL0     H61631   3.900   0.906   8.885  0.9442 -0.5740  1.3550
  447MOL0     H61632   4.052   0.810   8.862  0.5483 -2.5191 -0.8722
  447MOL0     H61633   3.920   0.599   8.877 -0.6020  0.8407 -0.9928
  447MOL0     H61634   3.904   0.682   9.027 -2.8773  0.0354  0.9996
  447MOL0     H61635   3.622   0.856   8.944 -0.6435  0.1591  1.0149
  447MOL0     H61636   3.369   0.814   8.765  1.7896 -0.0293 -0.5520
  447MOL0     H61637   3.335   0.735   8.907 -2.4414 -0.8049 -1.4843
  447MOL0     H61638   3.364   0.588   8.639  2.0024  0.3637  0.8287
  447MOL0     H61639   3.304   0.515   8.790  0.5048  0.4545  0.6270
  447MOL0     H61640   3.108   0.644   8.811 -0.4803 -0.4113  0.3831
  447MOL0     H61641   3.135   0.754   8.677  0.1320  0.9672 -0.1014
  447MOL0     H61642   2.978   0.571   8.611 -0.7048  0.9807 -2.8828
  447MOL0     H61643   3.117   0.580   8.509  2.2941  2.0610  0.7317
  447MOL0     H61644   2.941   0.343   8.510  0.7711 -0.4731  3.8849
  447MOL0     H61645   2.877   0.117   8.287  1.0761 -1.2173 -1.8757
  447MOL0     H61646   2.976   0.213   8.164  0.0402 -0.1461 -0.3719
  447MOL0     H61647   2.860   0.293   8.265 -2.0834 -1.3019  1.1372
  447MOL0     H61648   3.241  -0.202   8.188  0.2652 -1.7061  0.0673
  447MOL0     H61649   3.317  -0.370   8.022 -0.5710 -0.6822 -1.3771
  447MOL0     H61650   3.500  -0.503   7.976 -0.5616  3.0777  2.1384
  447MOL0     H61651   3.598  -0.533   7.834  0.8872  2.2374 -2.2852
  447MOL0     H61652   3.706  -0.396   8.093  0.3625  0.1408 -0.2379
  447MOL0     H61653   3.741  -0.553   8.027  4.8751  0.7788 -0.9590
  447MOL0     H61654   3.829  -0.310   7.875  2.8478 -0.3527 -0.1928
  447MOL0     H61655   3.831  -0.473   7.818  0.7393  3.7552 -2.2159
  447MOL0     H61656   3.990  -0.523   8.004 -0.5017  1.0234  2.7482
  447MOL0     H61657   3.958  -0.360   8.067  0.6211  0.1207 -0.0637
  447MOL0     H61658   4.058  -0.259   7.848 -1.9462 -1.2771 -1.5750
  447MOL0     H61659   4.176  -0.339   7.956  1.8557  1.0959 -1.7799
  447MOL0     H61660   4.180  -0.365   7.700  0.0480  1.4180  2.0661
  447MOL0     H61661   4.023  -0.456   7.716  0.1178  1.4053 -0.2883
  447MOL0     H61662   4.160  -0.603   7.890  0.4526 -1.3155 -0.7490
  447MOL0     H61663   4.298  -0.499   7.840  0.0491  1.2271 -0.2553
  447MOL0     H61664   4.262  -0.575   7.607 -1.4441  1.9435  0.5571
  447MOL0     H61665   4.144  -0.692   7.654  3.5989 -1.8416 -2.5258
  447MOL0     H61666   3.629  -0.112   7.889  0.5925  0.8560  0.8007
  447MOL0     H61667   3.548   0.072   8.030  0.6350 -1.2067  0.5366
  447MOL0     H61668   3.364   0.121   8.423  0.3457  1.2181 -2.9241
  447MOL0     H61669   3.332   0.283   8.626  0.5092 -1.4284  0.5719
  447MOL0     H61670   3.492   0.799   8.503  1.2853  1.7032 -0.0192
  447MOL0     H61671   3.289   0.724   8.418  1.6031 -0.4214  0.8295
  447MOL0     H61672   2.951   0.669   8.363 -1.2939 -0.4014  1.0207
  447MOL0     H61673   2.775   0.526   8.284 -1.0444 -0.4724 -0.2787
  447MOL0     H61674   2.581   0.474   8.304  0.9800 -0.1248 -1.5203
  447MOL0     H61675   2.418   0.487   8.270 -2.7050  0.7015 -2.4307
  447MOL0     H61676   2.605   0.355   8.070  1.0900 -0.6342  2.5694
  447MOL0     H61677   2.431   0.381   8.060 -0.6231 -0.9659  0.9940
  447MOL0     H61678   2.561   0.253   8.311 -2.0416 -1.0505  0.1632
  447MOL0     H61679   2.402   0.230   8.249 -0.4333  0.0194  0.4668
  447MOL0     H61680   2.659   0.109   8.142  0.9103  0.3134  2.8549
  447MOL0     H61681   2.526   0.151   8.027  0.7303 -1.2319 -0.2059
  447MOL0     H61682   2.382  -0.162   8.288 -0.6369 -1.1976 -0.8146
  447MOL0     H61683   2.569   0.840   8.103  0.5314 -1.3467 -1.8512
  447MOL0     H61684   2.708   1.112   8.216 -1.3341 -1.1292 -0.2607
  447MOL0     H61685   2.846   1.097   8.119 -0.5936 -2.9891 -1.5400
  447MOL0     H61686   2.697   1.062   8.045 -0.5141  1.8196 -1.2244
  448MOL0     O61687   4.610   8.511   2.221  0.2539 -0.1910 -1.0784
  448MOL0     C61688   4.554   8.429   2.291  0.3449  0.4085  1.0327
  448MOL0     O61689   4.613   8.333   2.354  0.3281 -0.0157 -0.2895
  448MOL0     C61690   4.728   8.290   2.293 -0.8434 -0.0843 -0.3278
  448MOL0     C61691   4.849   8.357   2.317  0.6304  1.4545  0.6560
  448MOL0     C61692   4.962   8.322   2.243  0.0107  0.7104 -1.1568
  448MOL0     C61693   4.968   8.219   2.156 -0.5188 -0.4293 -0.8919
  448MOL0     O61694   5.077   8.182   2.082  0.1515  0.0902  0.5681
  448MOL0     C61695   5.139   8.279   1.999  0.0119  0.3690  0.2293
  448MOL0     C61696   5.279   8.315   2.060  0.6439 -0.0857  0.0680
  448MOL0     C61697   5.346   8.417   1.974 -0.0240  0.3547  0.0527
  448MOL0     C61698   5.441   8.491   2.060 -0.1594  0.2386 -0.8888
  448MOL0     C61699   5.559   8.551   1.980 -0.0286 -0.0234 -0.3271
  448MOL0     C61700   5.511   8.680   1.898 -0.9638  0.0302 -0.1170
  448MOL0     C61701   5.636   8.754   1.829 -0.1445  1.3152 -0.4187
  448MOL0     C61702   5.690   8.673   1.705  0.4188 -0.4134 -0.9166
  448MOL0     N61703   5.811   8.724   1.638  0.7200  0.6264  0.3199
  448MOL0     C61704   5.823   8.795   1.522  0.7482 -0.3772  0.7508
  448MOL0     C61705   5.948   8.838   1.513 -0.8616  0.8392 -0.3856
  448MOL0     C61706   6.031   8.916   1.411  0.7467  0.4570 -0.1454
  448MOL0     C61707   6.034   9.061   1.442 -0.3353  0.2428  0.2025
  448MOL0     C61708   6.119   9.087   1.564 -0.3233  0.0881 -0.5325
  448MOL0     C61709   6.144   9.231   1.589  0.0815 -0.5148 -0.1684
  448MOL0     O61710   6.039   9.333   1.562 -0.2002 -0.1959  0.1582
  448MOL0     C61711   5.910   9.334   1.607  0.8579  0.4915  0.3702
  448MOL0     C61712   5.846   9.250   1.697 -0.4948  0.3319 -0.9674
  448MOL0     C61713   5.710   9.260   1.726  0.2797  0.2876 -0.1602
  448MOL0     C61714   5.654   9.153   1.818  0.5194  0.0919  0.5049
  448MOL0     C61715   5.625   9.351   1.655  0.2825 -1.4203 -0.5832
  448MOL0     C61716   5.479   9.353   1.672 -0.7894  0.1160 -0.3514
  448MOL0     O61717   5.404   9.236   1.686  0.6274 -0.2961  0.4415
  448MOL0     C61718   5.271   9.253   1.667 -0.4687 -0.4644  1.0043
  448MOL0     C61719   5.193   9.322   1.769 -0.4498 -0.0563 -0.1666
  448MOL0     C61720   5.063   9.360   1.738  0.3882 -0.2217  0.2401
  448MOL0     C61721   5.007   9.328   1.615  0.9301  0.6296 -0.3140
  448MOL0     O61722   4.874   9.347   1.583 -0.3697  0.0013 -0.5085
  448MOL0     C61723   4.780   9.388   1.680 -1.0759 -0.3046 -0.8550
  448MOL0     C61724   4.634   9.339   1.646 -0.1032  0.5384  0.1095
  448MOL0     C61725   4.524   9.390   1.731  0.8255 -0.4748 -0.1402
  448MOL0     C61726   4.393   9.317   1.709  0.2891 -0.5694 -0.0886
  448MOL0     C61727   4.274   9.393   1.774  0.5254 -0.3520  0.9205
  448MOL0     C61728   4.141   9.330   1.729  0.3503 -0.1445  0.0480
  448MOL0     C61729   4.012   9.383   1.791 -0.0625  0.0872 -0.4050
  448MOL0     C61730   3.891   9.359   1.703 -0.3741  0.1452 -0.3099
  448MOL0    Cl61731   3.747   9.465   1.760 -0.0066  0.3117  0.2624
  448MOL0     C61732   5.083   9.272   1.518  0.2342  0.4034  0.8396
  448MOL0     C61733   5.203   9.214   1.549 -0.3630 -0.5819 -0.4009
  448MOL0     O61734   5.437   9.468   1.661 -0.2850  0.8766 -0.3156
  448MOL0     C61735   5.690   9.442   1.570 -0.6806  0.2686  0.0040
  448MOL0     C61736   5.830   9.433   1.552 -0.0334 -0.2115  0.2069
  448MOL0     N61737   6.019   8.792   1.625  0.1360  0.7518 -0.2218
  448MOL0     N61738   5.930   8.731   1.700  0.3792 -0.0280 -0.6526
  448MOL0     C61739   4.850   8.148   2.137 -0.5059 -0.7319 -0.4456
  448MOL0     C61740   4.734   8.185   2.202  0.3532 -0.7388 -0.1064
  448MOL0     C61741   4.411   8.468   2.318 -0.3118 -0.1882  0.0581
  448MOL0     C61742   4.379   8.606   2.312  0.0424  0.1277  0.2836
  448MOL0     C61743   4.256   8.656   2.356  0.0235 -0.0373  1.0181
  448MOL0     C61744   4.163   8.581   2.425 -0.3707  0.6211  0.2122
  448MOL0     O61745   4.058   8.644   2.483 -0.4607 -0.1536  0.4393
  448MOL0     C61746   3.947   8.574   2.542  0.8906 -0.4225 -0.5077
  448MOL0     C61747   3.830   8.670   2.569 -0.1734  0.1213 -0.5597
  448MOL0     C61748   3.716   8.662   2.466 -0.2064 -0.4071 -0.7135
  448MOL0     C61749   3.649   8.802   2.472  0.2274 -0.2847  0.0295
  448MOL0     C61750   3.509   8.806   2.426  1.0008 -0.3532 -0.3295
  448MOL0     C61751   3.391   8.805   2.390 -0.0970  0.7585  0.2979
  448MOL0     C61752   4.189   8.443   2.426 -0.4507  0.6159  1.1532
  448MOL0     C61753   4.303   8.390   2.364  0.3801  0.2926 -0.8877
  448MOL0     C61754   4.318   8.242   2.367 -0.1095 -0.1086  0.4774
  448MOL0     H61755   4.860   8.444   2.381 -2.8400  2.2062  0.4534
  448MOL0     H61756   5.047   8.389   2.256  0.0526  0.4075  0.3175
  448MOL0     H61757   5.078   8.369   1.998  0.2759  0.5643 -1.6311
  448MOL0     H61758   5.157   8.236   1.900 -2.2351 -3.0486  1.0892
  448MOL0     H61759   5.270   8.342   2.165 -2.8078 -0.0251 -0.1300
  448MOL0     H61760   5.345   8.228   2.070 -0.3269 -0.6051  2.7119
  448MOL0     H61761   5.391   8.369   1.886 -1.2247  0.5217 -0.6659
  448MOL0     H61762   5.270   8.489   1.944 -4.8127 -4.0586  0.2648
  448MOL0     H61763   5.392   8.561   2.128  0.6447 -2.3032  2.6018
  448MOL0     H61764   5.499   8.427   2.127  0.1712  0.4736 -0.9467
  448MOL0     H61765   5.611   8.479   1.916  1.4237  1.2244 -0.6131
  448MOL0     H61766   5.627   8.580   2.060 -2.4501 -0.0090  1.8629
  448MOL0     H61767   5.433   8.653   1.827 -1.6178  2.7664 -0.5589
  448MOL0     H61768   5.461   8.738   1.976  1.8166  3.0275 -0.3025
  448MOL0     H61769   5.716   8.771   1.902 -1.3556  0.4023  1.1885
  448MOL0     H61770   5.604   8.854   1.801  0.0370  1.7363  0.8176
  448MOL0     H61771   5.714   8.577   1.751 -0.0342  0.0989  0.4396
  448MOL0     H61772   5.607   8.663   1.634 -0.9405  3.3875 -0.0852
  448MOL0     H61773   5.750   8.806   1.443 -0.8950 -2.3939  1.9035
  448MOL0     H61774   5.991   8.905   1.310  1.8775 -1.4087 -0.4565
  448MOL0     H61775   6.133   8.882   1.390  1.4834  2.4300  0.0061
  448MOL0     H61776   6.070   9.121   1.358  0.3108  0.9470  0.9541
  448MOL0     H61777   5.932   9.098   1.453 -1.2594 -0.9477 -3.4165
  448MOL0     H61778   6.070   9.052   1.656 -0.4874 -0.1187 -0.6976
  448MOL0     H61779   6.216   9.036   1.560 -0.2411  0.2211 -0.2176
  448MOL0     H61780   6.165   9.236   1.696 -0.4243 -1.5470 -0.0092
  448MOL0     H61781   6.237   9.260   1.539  0.2684 -0.2037  0.3549
  448MOL0     H61782   5.905   9.168   1.736 -0.1510  0.5750 -0.9711
  448MOL0     H61783   5.606   9.084   1.747  1.0398  2.5815 -2.4804
  448MOL0     H61784   5.585   9.194   1.893 -1.7144 -0.0680 -1.3421
  448MOL0     H61785   5.736   9.112   1.878  0.8527 -0.5196 -0.3434
  448MOL0     H61786   5.232   9.361   1.863  0.9452 -1.2837 -0.2126
  448MOL0     H61787   5.007   9.416   1.812  0.0783 -2.2461  1.6341
  448MOL0     H61788   4.808   9.342   1.776  1.7315  1.3396 -0.8038
  448MOL0     H61789   4.784   9.497   1.682  0.5751 -0.3401  1.1536
  448MOL0     H61790   4.611   9.352   1.540  2.3810  1.3711 -0.3923
  448MOL0     H61791   4.635   9.231   1.668  0.7618  0.3828 -0.6485
  448MOL0     H61792   4.506   9.497   1.720  0.3234 -0.5777 -0.3229
  448MOL0     H61793   4.562   9.387   1.834 -0.1364  1.5233  0.3051
  448MOL0     H61794   4.409   9.217   1.751  0.6255 -0.2819  0.4585
  448MOL0     H61795   4.368   9.305   1.603 -1.5249 -0.0654  0.2467
  448MOL0     H61796   4.292   9.406   1.881 -1.7443  3.9764  0.9845
  448MOL0     H61797   4.262   9.496   1.741 -1.4314  0.6563  4.2870
  448MOL0     H61798   4.150   9.223   1.747 -2.4265 -0.5133 -0.3239
  448MOL0     H61799   4.131   9.338   1.621 -3.7329 -2.8768  0.0207
  448MOL0     H61800   4.021   9.490   1.811 -0.7442  0.0369  0.2412
  448MOL0     H61801   4.000   9.336   1.889 -4.5000  1.5171 -0.0240
  448MOL0     H61802   3.867   9.252   1.705 -1.5334  0.3181 -2.1879
  448MOL0     H61803   3.908   9.375   1.597 -0.2921 -0.2111 -0.3529
  448MOL0     H61804   5.028   9.260   1.425 -2.2442  1.6030  2.0681
  448MOL0     H61805   5.273   9.172   1.477  2.6873 -0.5921  2.3526
  448MOL0     H61806   5.646   9.522   1.512  0.3375  0.4432 -0.5573
  448MOL0     H61807   5.876   9.507   1.488 -3.1333  0.4641 -1.4212
  448MOL0     H61808   4.843   8.073   2.059 -1.1588  0.4883 -1.6057
  448MOL0     H61809   4.641   8.135   2.175 -1.5364  3.1803 -1.7879
  448MOL0     H61810   4.449   8.678   2.270  1.4705 -0.4412  1.5879
  448MOL0     H61811   4.235   8.762   2.348 -1.2917 -0.1897  2.0251
  448MOL0     H61812   3.910   8.502   2.469 -1.1381  2.5049 -2.6018
  448MOL0     H61813   3.982   8.531   2.636 -1.6143  2.8042  2.1583
  448MOL0     H61814   3.875   8.769   2.578 -1.7964  0.8086  0.4877
  448MOL0     H61815   3.776   8.649   2.662  0.5797 -0.4773 -0.2453
  448MOL0     H61816   3.742   8.642   2.362  1.4527 -4.2245  0.2637
  448MOL0     H61817   3.643   8.581   2.481 -1.0119  0.0578 -1.9572
  448MOL0     H61818   3.705   8.881   2.421 -1.3778  0.5469 -0.5048
  448MOL0     H61819   3.658   8.839   2.575  2.8284 -2.7479  0.8342
  448MOL0     H61820   3.290   8.812   2.355 -0.6680  4.0072  2.1926
  448MOL0     H61821   4.123   8.377   2.481  2.1769 -1.4559  2.0390
  448MOL0     H61822   4.365   8.205   2.459 -0.3316  2.5750  1.7856
  448MOL0     H61823   4.230   8.184   2.338  0.5993 -0.8331 -0.2776
  448MOL0     H61824   4.390   8.211   2.291 -1.1131  1.8363 -1.3739
  449MOL0     O61825   6.112   1.198   4.920 -0.4964  0.1730 -0.5140
  449MOL0     C61826   6.145   1.095   4.984 -0.6058  0.0593  1.0470
  449MOL0     O61827   6.270   1.050   5.002  0.4579 -0.0233 -0.7208
  449MOL0     C61828   6.372   1.123   4.956 -0.5614 -0.2362  0.0510
  449MOL0     C61829   6.374   1.169   4.822 -0.3070  0.4990 -0.4315
  449MOL0     C61830   6.478   1.253   4.780  0.3500 -0.0944  0.1099
  449MOL0     C61831   6.576   1.298   4.867 -0.1838 -0.5366 -0.7513
  449MOL0     O61832   6.684   1.377   4.842  0.0139  0.1098  0.0367
  449MOL0     C61833   6.691   1.456   4.717 -0.3014 -0.5493  0.8616
  449MOL0     C61834   6.811   1.552   4.714 -0.1178  0.3268 -0.8472
  449MOL0     C61835   6.817   1.625   4.842  0.1047 -0.1768 -0.0815
  449MOL0     C61836   6.969   1.670   4.865  0.0597 -0.0977 -0.4093
  449MOL0     C61837   6.989   1.798   4.940  0.0687 -0.6345  0.7072
  449MOL0     C61838   6.957   1.920   4.852  0.7589 -0.3473  0.2383
  449MOL0     C61839   6.942   2.048   4.923  0.1001 -0.3603 -1.3846
  449MOL0     C61840   6.945   2.163   4.825  0.1081  0.5201  0.0508
  449MOL0     N61841   6.942   2.288   4.904 -0.2014  0.7835 -0.3981
  449MOL0     C61842   7.051   2.366   4.928 -0.0347  0.5605 -0.1343
  449MOL0     C61843   7.007   2.482   4.979  0.0420 -1.1346 -0.5079
  449MOL0     C61844   7.096   2.602   5.001 -0.0912  0.3123 -0.2733
  449MOL0     C61845   7.025   2.697   5.106  0.0554  0.1143  0.3256
  449MOL0     C61846   7.137   2.797   5.145  0.1440 -0.7920 -0.0320
  449MOL0     C61847   7.080   2.903   5.243 -0.5090 -0.0466 -0.7937
  449MOL0     O61848   7.182   2.974   5.318  0.5547  0.1946  0.2681
  449MOL0     C61849   7.147   3.072   5.402  0.3177 -0.4999 -0.0019
  449MOL0     C61850   7.025   3.139   5.396  0.3893 -0.1281 -0.4026
  449MOL0     C61851   6.981   3.220   5.508  0.0238 -0.5285 -0.2025
  449MOL0     C61852   6.842   3.270   5.519 -0.4579  0.7721  0.3041
  449MOL0     C61853   7.072   3.228   5.619  0.0869 -0.0782 -0.3919
  449MOL0     C61854   7.040   3.298   5.741  0.1277  0.8680  0.6329
  449MOL0     O61855   7.032   3.435   5.724 -0.2398 -0.2097  0.5101
  449MOL0     C61856   7.021   3.506   5.841  0.3558  0.4343  0.3069
  449MOL0     C61857   6.896   3.552   5.890  0.3031 -0.2516 -0.0141
  449MOL0     C61858   6.885   3.609   6.016 -0.0549 -0.0886  0.1185
  449MOL0     C61859   7.010   3.644   6.086  0.4536 -0.9818 -0.7186
  449MOL0     O61860   7.000   3.715   6.204  0.5268  0.0463 -0.1139
  449MOL0     C61861   7.073   3.656   6.310  0.1210 -0.9687  0.0276
  449MOL0     C61862   6.995   3.556   6.387 -0.1236  0.2221  0.9152
  449MOL0     C61863   6.862   3.608   6.447 -0.2950 -0.6971 -0.2593
  449MOL0     C61864   6.884   3.677   6.589 -0.5992  0.3523  1.0006
  449MOL0     C61865   6.814   3.814   6.602 -0.6450  1.5831 -0.4297
  449MOL0     C61866   6.885   3.919   6.505  0.0705  0.2260 -0.4536
  449MOL0     C61867   6.821   4.062   6.535  0.2695 -0.1219  0.5061
  449MOL0     C61868   6.871   4.149   6.416  0.1531  0.1774  0.0056
  449MOL0    Cl61869   6.827   4.323   6.446 -0.4198 -0.0616  0.1450
  449MOL0     C61870   7.139   3.611   6.029  0.3456 -0.1269 -0.4689
  449MOL0     C61871   7.138   3.538   5.906  0.2711  0.1128  0.0782
  449MOL0     O61872   7.035   3.240   5.848 -0.2444  0.0518  0.6390
  449MOL0     C61873   7.201   3.171   5.619 -0.2927  0.3613 -0.3561
  449MOL0     C61874   7.241   3.096   5.507  0.3718 -0.4028  0.0719
  449MOL0     N61875   6.871   2.461   5.000 -0.5486 -0.3859 -0.5502
  449MOL0     N61876   6.835   2.353   4.948  0.3805  0.3424  0.2412
  449MOL0     C61877   6.569   1.254   5.002  1.0556 -0.3362  0.1105
  449MOL0     C61878   6.477   1.160   5.042 -0.3051 -0.2575  0.4775
  449MOL0     C61879   6.038   1.003   4.999  0.5554 -0.0149 -0.4513
  449MOL0     C61880   6.030   0.881   4.927 -0.2683  0.5319  0.6681
  449MOL0     C61881   5.925   0.795   4.949  0.8265  0.1772 -0.1412
  449MOL0     C61882   5.812   0.825   5.033  0.4869 -0.0550  0.1360
  449MOL0     O61883   5.708   0.732   5.052  0.3744 -0.0893  0.9155
  449MOL0     C61884   5.585   0.798   5.035 -0.2162 -0.2970  0.8620
  449MOL0     C61885   5.497   0.707   4.956  0.1174  0.1758  0.2391
  449MOL0     C61886   5.440   0.600   5.056 -0.1693 -0.0055 -1.3831
  449MOL0     C61887   5.400   0.471   4.990  0.5658  0.3536  0.4281
  449MOL0     C61888   5.508   0.405   4.916 -0.4022 -0.6300  1.1357
  449MOL0     C61889   5.594   0.349   4.856  0.8227  0.5789 -0.3816
  449MOL0     C61890   5.825   0.950   5.102  0.6420  0.7262  0.0936
  449MOL0     C61891   5.937   1.035   5.091  0.2129  0.0358 -0.1799
  449MOL0     C61892   5.939   1.146   5.186  0.9195 -0.7295 -0.1294
  449MOL0     H61893   6.311   1.128   4.743  1.3530 -2.4671 -0.3602
  449MOL0     H61894   6.474   1.275   4.674 -3.7827  0.5136  0.2360
  449MOL0     H61895   6.597   1.511   4.704  1.6744  2.4480 -2.3838
  449MOL0     H61896   6.691   1.390   4.630 -0.3938  0.8975 -0.2781
  449MOL0     H61897   6.900   1.489   4.705  0.8307  0.8244  3.0659
  449MOL0     H61898   6.798   1.625   4.634 -3.8346  0.1325 -0.5684
  449MOL0     H61899   6.749   1.711   4.835 -1.4125 -1.4613 -3.1373
  449MOL0     H61900   6.775   1.569   4.926 -3.1468  0.9727 -0.7750
  449MOL0     H61901   7.020   1.587   4.914  0.7051 -0.6010 -1.8776
  449MOL0     H61902   7.026   1.688   4.774  0.3975 -2.3241 -0.6934
  449MOL0     H61903   7.091   1.793   4.977  2.0624 -2.3684 -4.2209
  449MOL0     H61904   6.924   1.790   5.027 -0.3299  0.2370  0.5025
  449MOL0     H61905   7.042   1.927   4.784  0.7590 -0.4119  0.2319
  449MOL0     H61906   6.864   1.899   4.798 -0.2746  4.1979 -0.1632
  449MOL0     H61907   7.018   2.063   5.001  1.0358  0.3406 -2.3979
  449MOL0     H61908   6.844   2.038   4.970  0.7706  2.6259  0.9612
  449MOL0     H61909   7.037   2.166   4.765 -0.3780  3.1239 -0.6905
  449MOL0     H61910   6.855   2.137   4.768  1.6587 -3.1181 -1.0542
  449MOL0     H61911   7.148   2.353   4.881  1.2952  0.8535  2.3017
  449MOL0     H61912   7.124   2.641   4.903 -2.6378  0.4059 -1.0418
  449MOL0     H61913   7.188   2.564   5.046 -0.0990  0.5734 -0.0339
  449MOL0     H61914   6.933   2.736   5.061  0.1021  0.2931  0.3831
  449MOL0     H61915   6.997   2.637   5.193 -0.6887  1.8801  1.3683
  449MOL0     H61916   7.210   2.751   5.212 -2.3127 -1.3157  2.4960
  449MOL0     H61917   7.191   2.832   5.056  2.0619 -1.6309  0.7410
  449MOL0     H61918   7.031   2.984   5.188  1.1434  1.0352 -0.7553
  449MOL0     H61919   7.006   2.861   5.312  2.9358 -1.3989  2.4023
  449MOL0     H61920   6.948   3.116   5.323 -0.5272 -2.9752  1.3007
  449MOL0     H61921   6.773   3.229   5.445 -1.8430 -1.2410  2.5817
  449MOL0     H61922   6.840   3.378   5.536  0.6839  1.4845 -3.2147
  449MOL0     H61923   6.797   3.217   5.603 -1.7445  4.1775  1.9630
  449MOL0     H61924   6.807   3.553   5.828  1.4227 -1.4698 -1.7067
  449MOL0     H61925   6.784   3.632   6.049  0.0651  0.5423  0.0640
  449MOL0     H61926   7.168   3.614   6.277 -0.3263 -1.6118 -0.4712
  449MOL0     H61927   7.096   3.735   6.382 -2.6108 -0.4544  0.4631
  449MOL0     H61928   6.980   3.470   6.321 -0.7798  0.1355  1.1730
  449MOL0     H61929   7.050   3.518   6.474  0.3136 -2.3593 -0.3684
  449MOL0     H61930   6.787   3.531   6.465 -0.9922  0.1540  0.5821
  449MOL0     H61931   6.811   3.673   6.375 -0.6436 -0.6214  0.0543
  449MOL0     H61932   6.991   3.694   6.604 -0.2558 -0.9835  0.2299
  449MOL0     H61933   6.854   3.606   6.666  1.3751 -1.0383  0.5526
  449MOL0     H61934   6.710   3.809   6.568  0.5407 -1.5493 -4.3448
  449MOL0     H61935   6.832   3.845   6.705  2.3909  0.3969 -0.4986
  449MOL0     H61936   6.864   3.897   6.400 -3.7407  0.6777  0.1011
  449MOL0     H61937   6.994   3.919   6.517  0.5400 -1.7163 -3.5114
  449MOL0     H61938   6.854   4.087   6.637  0.7848  3.2130 -0.3852
  449MOL0     H61939   6.712   4.066   6.530  0.2681 -1.2400 -1.2215
  449MOL0     H61940   6.821   4.111   6.327 -1.8388 -0.7461  1.4454
  449MOL0     H61941   6.980   4.153   6.406  0.2824 -1.0381  0.6664
  449MOL0     H61942   7.229   3.652   6.074 -1.1177  2.0925  0.6445
  449MOL0     H61943   7.229   3.488   5.875 -0.6996 -3.0883  1.8781
  449MOL0     H61944   7.269   3.193   5.701 -1.5025  0.2396  0.7088
  449MOL0     H61945   7.340   3.056   5.491  1.6614  2.9448 -1.3260
  449MOL0     H61946   6.641   1.297   5.072  2.6673  0.4165 -1.9022
  449MOL0     H61947   6.478   1.118   5.142 -3.4966 -1.6156  0.0813
  449MOL0     H61948   6.111   0.852   4.861 -0.2947 -1.7445  1.5543
  449MOL0     H61949   5.918   0.705   4.890  0.8459 -0.2433  0.4944
  449MOL0     H61950   5.543   0.827   5.132 -1.3169  1.9481 -0.2124
  449MOL0     H61951   5.591   0.893   4.981  1.0056 -0.5462  0.5230
  449MOL0     H61952   5.537   0.646   4.875  0.5600 -1.5055  1.6703
  449MOL0     H61953   5.407   0.765   4.930 -0.7953 -1.1142  0.4279
  449MOL0     H61954   5.516   0.573   5.130 -1.4522  1.3771  0.5200
  449MOL0     H61955   5.356   0.646   5.109  2.2559 -0.2164  3.1070
  449MOL0     H61956   5.313   0.490   4.927 -1.6408 -1.1612  2.8125
  449MOL0     H61957   5.369   0.394   5.061  0.6048 -3.5030 -3.3681
  449MOL0     H61958   5.671   0.299   4.801  1.9555 -0.3244  1.9192
  449MOL0     H61959   5.744   0.987   5.165  0.9791 -2.7795  2.9190
  449MOL0     H61960   5.949   1.247   5.145  3.2535 -0.8802 -0.0493
  449MOL0     H61961   5.848   1.144   5.247  1.3952 -3.5357  0.6485
  449MOL0     H61962   6.030   1.130   5.244  0.7700 -1.0023  0.0338
  450MOL0     O61963   1.913   3.804  11.401 -0.0774  0.0655 -0.1431
  450MOL0     C61964   1.868   3.921  11.408  0.2216 -0.3888 -0.1178
  450MOL0     O61965   1.943   4.022  11.445  0.2542  0.4860 -0.9492
  450MOL0     C61966   2.076   4.001  11.457  0.9520  0.6101  0.5348
  450MOL0     C61967   2.121   3.935  11.573  0.0472 -0.7822  0.3840
  450MOL0     C61968   2.257   3.899  11.573 -0.0836  0.1188 -0.2000
  450MOL0     C61969   2.344   3.936  11.470 -0.0645  0.2338  0.8668
  450MOL0     O61970   2.476   3.905  11.502 -0.4896 -0.0400  0.1883
  450MOL0     C61971   2.566   3.922  11.392 -0.2485 -0.5431 -0.1825
  450MOL0     C61972   2.710   3.892  11.428  0.6710  0.2152 -0.0018
  450MOL0     C61973   2.811   3.858  11.324 -0.0011  0.1508  0.8969
  450MOL0     C61974   2.903   3.744  11.383 -0.4080  0.3672  0.5846
  450MOL0     C61975   2.994   3.689  11.269 -0.1649  0.5429 -0.3937
  450MOL0     C61976   3.096   3.790  11.230 -0.4951  0.4031  0.1933
  450MOL0     C61977   3.192   3.706  11.141 -0.6665 -0.0965  0.3675
  450MOL0     C61978   3.317   3.776  11.078 -0.4768  0.1985  0.2369
  450MOL0     N61979   3.380   3.692  10.972 -0.5421  0.8182  0.0666
  450MOL0     C61980   3.379   3.556  10.963  0.1839  0.0423 -0.5484
  450MOL0     C61981   3.456   3.525  10.857  0.5889  0.4800 -0.8470
  450MOL0     C61982   3.498   3.382  10.831  0.5130 -0.3432  0.4897
  450MOL0     C61983   3.641   3.375  10.871 -0.1619  0.3092 -0.0883
  450MOL0     C61984   3.741   3.413  10.763  0.2958 -0.3396  0.2094
  450MOL0     C61985   3.884   3.391  10.813 -0.1890  0.5654  1.0718
  450MOL0     O61986   3.951   3.467  10.708 -0.9007  0.0787  0.0921
  450MOL0     C61987   4.090   3.440  10.709 -0.3340  0.1242  0.6556
  450MOL0     C61988   4.185   3.536  10.742  0.0014  0.1829 -0.0028
  450MOL0     C61989   4.319   3.531  10.702 -0.6868  0.0757  0.4084
  450MOL0     C61990   4.425   3.637  10.713  0.1725 -0.3158 -0.1513
  450MOL0     C61991   4.358   3.414  10.629 -0.3138 -0.1184  0.2087
  450MOL0     C61992   4.490   3.404  10.554 -0.6750  0.3885  0.4991
  450MOL0     O61993   4.535   3.519  10.484 -0.4973 -0.1165 -0.4391
  450MOL0     C61994   4.657   3.513  10.422 -0.1775 -0.0168 -0.4132
  450MOL0     C61995   4.669   3.440  10.300  0.0919  0.2668 -0.1768
  450MOL0     C61996   4.789   3.447  10.235  0.2704  0.1247  0.1798
  450MOL0     C61997   4.893   3.526  10.279 -0.2059 -0.9799  0.0693
  450MOL0     O61998   5.017   3.531  10.223 -0.6054 -0.0188 -0.3091
  450MOL0     C61999   5.048   3.457  10.107 -0.2730  0.0503 -1.0075
  450MOL0     C62000   5.185   3.438  10.061 -1.0550 -0.2748  0.3133
  450MOL0     C62001   5.249   3.564   9.999 -0.4337  0.0828 -0.0705
  450MOL0     C62002   5.400   3.553   9.982 -0.0811 -0.2994 -0.5389
  450MOL0     C62003   5.475   3.670   9.929 -0.5036 -0.2203 -0.6601
  450MOL0     C62004   5.463   3.698   9.778 -0.5745  0.1335 -0.2498
  450MOL0     C62005   5.509   3.837   9.745 -0.2293 -0.3837 -0.0593
  450MOL0     C62006   5.659   3.866   9.752 -0.1424  0.2955 -0.8506
  450MOL0    Cl62007   5.737   3.795   9.610 -0.2389  0.0692  0.3027
  450MOL0     C62008   4.881   3.604  10.401 -0.4064  0.6610 -0.2608
  450MOL0     C62009   4.761   3.595  10.471  0.4436 -0.8393  0.5056
  450MOL0     O62010   4.542   3.284  10.550  0.0134  0.1444  0.3367
  450MOL0     C62011   4.263   3.311  10.618 -0.4236  0.8061 -0.8277
  450MOL0     C62012   4.135   3.320  10.648 -0.3812  0.4218  0.6840
  450MOL0     N62013   3.493   3.649  10.799  0.1570 -0.8405  0.2487
  450MOL0     N62014   3.455   3.742  10.873 -0.2046 -0.0374 -0.2946
  450MOL0     C62015   2.295   4.013  11.359 -0.7364  0.2694  0.2752
  450MOL0     C62016   2.159   4.046  11.352  0.2717  1.0732 -0.7395
  450MOL0     C62017   1.724   3.944  11.368 -0.4011  0.5676 -0.1253
  450MOL0     C62018   1.678   3.857  11.266 -0.2812 -0.7651  0.2600
  450MOL0     C62019   1.544   3.878  11.211 -1.1100 -0.2685  0.3525
  450MOL0     C62020   1.472   3.985  11.249 -1.3682 -0.6978  0.3123
  450MOL0     O62021   1.351   4.008  11.198 -0.4800 -0.2721 -0.2458
  450MOL0     C62022   1.333   4.136  11.130 -1.0886 -0.1405 -1.0170
  450MOL0     C62023   1.375   4.141  10.988 -0.1462 -0.6297 -0.1600
  450MOL0     C62024   1.339   4.279  10.937  0.2590  0.3725  0.6832
  450MOL0     C62025   1.408   4.319  10.808  0.6415  0.2426  0.6716
  450MOL0     C62026   1.557   4.328  10.814  0.0690  0.3922 -0.3863
  450MOL0     C62027   1.681   4.334  10.829  0.0526 -0.4151  0.2389
  450MOL0     C62028   1.516   4.064  11.350  0.2019 -0.2705 -0.5393
  450MOL0     C62029   1.639   4.051  11.410 -0.4432  1.1994  0.5409
  450MOL0     C62030   1.684   4.160  11.492  0.5307 -0.3047  0.5499
  450MOL0     H62031   2.056   3.910  11.656 -0.0590  2.7991  1.5456
  450MOL0     H62032   2.292   3.849  11.663 -1.5174 -0.3497  0.1292
  450MOL0     H62033   2.569   4.022  11.346  0.2162 -0.8849 -0.9276
  450MOL0     H62034   2.531   3.853  11.315 -3.3303  0.2429  0.3939
  450MOL0     H62035   2.762   3.971  11.484  0.9800  1.9340 -2.5756
  450MOL0     H62036   2.701   3.809  11.499 -2.7875  1.2953  1.0161
  450MOL0     H62037   2.767   3.815  11.233  1.1064  0.4638  0.1889
  450MOL0     H62038   2.868   3.950  11.309 -1.0768  0.8724  1.1311
  450MOL0     H62039   2.966   3.782  11.465 -2.5740 -1.7979  3.4548
  450MOL0     H62040   2.854   3.656  11.424 -0.9299  1.3185  2.1022
  450MOL0     H62041   2.940   3.652  11.181 -0.2583  2.2216 -1.0799
  450MOL0     H62042   3.054   3.606  11.308  0.4549  1.0797 -0.1790
  450MOL0     H62043   3.060   3.873  11.169 -1.2902  0.6557  0.9905
  450MOL0     H62044   3.149   3.833  11.315 -2.5134 -1.6784  2.6501
  450MOL0     H62045   3.145   3.657  11.055  0.5176  3.2460 -2.4091
  450MOL0     H62046   3.240   3.628  11.202  0.8922  1.4597  1.2421
  450MOL0     H62047   3.286   3.867  11.026  1.1186  0.3211 -0.5897
  450MOL0     H62048   3.392   3.805  11.153  0.0645  4.9476 -1.7481
  450MOL0     H62049   3.329   3.484  11.026  0.8256  1.2903  1.4746
  450MOL0     H62050   3.483   3.346  10.729  0.9406 -2.8740  1.2519
  450MOL0     H62051   3.439   3.318  10.897 -2.2744 -0.0334 -1.5124
  450MOL0     H62052   3.662   3.418  10.970 -0.8667  1.1012 -0.2694
  450MOL0     H62053   3.652   3.268  10.888 -0.0587  0.0351 -1.7347
  450MOL0     H62054   3.714   3.355  10.674  0.5933  0.2014 -0.2372
  450MOL0     H62055   3.714   3.518  10.750  0.6619 -0.4298 -1.6651
  450MOL0     H62056   3.894   3.432  10.914  0.3657 -0.4199  1.4268
  450MOL0     H62057   3.902   3.283  10.817 -0.7528  0.4243  0.0511
  450MOL0     H62058   4.150   3.626  10.793 -0.6485 -2.4971  4.8205
  450MOL0     H62059   4.530   3.606  10.713 -0.0552 -1.1140 -0.0384
  450MOL0     H62060   4.406   3.677  10.813 -0.7976  0.0650 -0.4750
  450MOL0     H62061   4.411   3.716  10.639 -0.0991  0.0342  0.2701
  450MOL0     H62062   4.584   3.378  10.272 -0.1069 -1.0839  2.9488
  450MOL0     H62063   4.803   3.370  10.159 -1.8510 -0.6953  0.5510
  450MOL0     H62064   5.025   3.350  10.108 -1.0966  0.1448 -3.4738
  450MOL0     H62065   4.986   3.502  10.029  0.8310  1.9531 -0.8513
  450MOL0     H62066   5.246   3.426  10.151 -1.4925 -2.2196  0.4129
  450MOL0     H62067   5.203   3.355   9.991  2.9653 -1.1040  2.0799
  450MOL0     H62068   5.228   3.641  10.074 -1.8685 -1.2266  0.9345
  450MOL0     H62069   5.200   3.598   9.907  0.3025 -0.5848 -0.7283
  450MOL0     H62070   5.433   3.472   9.916 -3.0234 -1.0971 -1.2177
  450MOL0     H62071   5.440   3.536  10.082  0.4702 -1.8981 -0.9932
  450MOL0     H62072   5.425   3.757   9.972 -0.5791 -0.9161  0.7127
  450MOL0     H62073   5.578   3.682   9.963 -1.0003 -0.1061  0.8542
  450MOL0     H62074   5.367   3.685   9.728  0.3637 -1.0948 -1.7999
  450MOL0     H62075   5.522   3.622   9.727  0.0728 -0.8505  1.8425
  450MOL0     H62076   5.460   3.902   9.817 -1.0887 -0.9613 -0.1034
  450MOL0     H62077   5.461   3.869   9.652  0.0643  0.5380  0.1017
  450MOL0     H62078   5.701   3.819   9.841  1.6218 -0.3144 -1.9611
  450MOL0     H62079   5.664   3.976   9.748 -1.8594  0.4433  0.0456
  450MOL0     H62080   4.962   3.663  10.442  0.9995 -0.6411 -1.0896
  450MOL0     H62081   4.744   3.640  10.568 -2.0217 -1.5260  0.4356
  450MOL0     H62082   4.301   3.224  10.565 -0.3644  0.9383 -1.0056
  450MOL0     H62083   4.061   3.245  10.620  0.5614 -0.6781  1.1106
  450MOL0     H62084   2.356   4.042  11.274 -0.9388  0.2587  0.1242
  450MOL0     H62085   2.117   4.102  11.269 -1.0099 -1.3351 -1.8509
  450MOL0     H62086   1.734   3.775  11.221  0.4454 -0.4789  0.6267
  450MOL0     H62087   1.489   3.809  11.148 -2.8284  0.0600  1.4065
  450MOL0     H62088   1.228   4.163  11.141 -1.2270 -0.6857 -0.9388
  450MOL0     H62089   1.377   4.222  11.182 -2.3506  0.8090 -1.4783
  450MOL0     H62090   1.330   4.059  10.932  2.1592 -1.0749 -1.5053
  450MOL0     H62091   1.482   4.120  10.978  0.4002  1.2114  1.2456
  450MOL0     H62092   1.231   4.289  10.924  0.2926  1.7993  1.3839
  450MOL0     H62093   1.366   4.355  11.011  1.2872  0.0094  0.7016
  450MOL0     H62094   1.377   4.419  10.779  1.5362  0.1268 -0.7581
  450MOL0     H62095   1.381   4.248  10.729 -0.0205 -0.0052  1.1111
  450MOL0     H62096   1.788   4.342  10.832  0.3820 -2.6819 -2.0999
  450MOL0     H62097   1.445   4.137  11.387 -0.6229 -1.4173  0.1876
  450MOL0     H62098   1.604   4.206  11.551  1.1563  0.1521  1.0677
  450MOL0     H62099   1.749   4.136  11.578 -0.7083 -0.3061  1.5121
  450MOL0     H62100   1.727   4.240  11.431  0.6925 -1.0701 -0.3440
  451MOL0     O62101   3.979  11.419   0.553  0.0214  0.2384  0.6907
  451MOL0     C62102   3.959  11.319   0.626  0.6812  0.1660  0.2748
  451MOL0     O62103   4.044  11.217   0.651  0.0562 -0.4811 -0.5245
  451MOL0     C62104   4.168  11.211   0.586 -0.6273 -0.4884  0.5111
  451MOL0     C62105   4.288  11.265   0.638  0.2739  0.2273 -0.2890
  451MOL0     C62106   4.413  11.260   0.575 -0.1331 -0.7535 -0.4504
  451MOL0     C62107   4.427  11.183   0.456  1.3729 -0.5726  0.0496
  451MOL0     O62108   4.532  11.174   0.381 -0.2914 -0.6079  0.2191
  451MOL0     C62109   4.652  11.179   0.448  0.2812 -0.0317  0.4793
  451MOL0     C62110   4.752  11.142   0.342  0.4096 -0.6400 -0.2525
  451MOL0     C62111   4.894  11.170   0.391 -0.7669  0.1708 -0.5228
  451MOL0     C62112   5.009  11.099   0.323 -0.2656  0.2558  0.3856
  451MOL0     C62113   5.007  10.953   0.350  0.2402 -0.0898 -0.2376
  451MOL0     C62114   5.093  10.867   0.264  0.0726  0.4459 -0.3793
  451MOL0     C62115   5.228  10.930   0.222  0.9720  0.0875  0.6104
  451MOL0     C62116   5.311  10.823   0.146 -0.2432  0.0520 -0.4133
  451MOL0     N62117   5.436  10.876   0.096  1.2146 -0.8290 -0.5022
  451MOL0     C62118   5.467  10.892  -0.036  1.0669 -0.1254  0.4479
  451MOL0     C62119   5.589  10.959  -0.032 -0.7468  0.7577 -0.2831
  451MOL0     C62120   5.652  11.008  -0.164 -0.2601 -0.5157  0.0753
  451MOL0     C62121   5.709  10.905  -0.263  0.1363  0.1295 -0.7151
  451MOL0     C62122   5.773  10.966  -0.386  0.4739  0.2057 -0.1937
  451MOL0     C62123   5.895  10.879  -0.433  0.2644 -0.7903  0.6972
  451MOL0     O62124   5.998  10.901  -0.331  0.0162  0.3624 -0.3888
  451MOL0     C62125   6.132  10.887  -0.371  0.3290 -0.0915 -0.0281
  451MOL0     C62126   6.175  10.785  -0.456 -0.6001 -0.7524 -0.6460
  451MOL0     C62127   6.311  10.764  -0.488  0.4714 -0.2020 -0.1385
  451MOL0     C62128   6.342  10.649  -0.577 -0.3769 -0.7308 -0.2357
  451MOL0     C62129   6.410  10.852  -0.443  1.3872  0.0534  0.2341
  451MOL0     C62130   6.558  10.847  -0.473  0.5866  0.3223 -0.1527
  451MOL0     O62131   6.634  10.946  -0.427  0.0569 -0.3337 -0.4815
  451MOL0     C62132   6.746  10.985  -0.486 -0.5787  0.3488 -0.4861
  451MOL0     C62133   6.834  10.898  -0.565  0.4258 -0.3448 -0.5889
  451MOL0     C62134   6.958  10.942  -0.612  0.6247  0.4528  0.0058
  451MOL0     C62135   6.995  11.081  -0.589  0.0720  0.4661  0.1982
  451MOL0     O62136   7.106  11.153  -0.631  0.2485 -0.0373 -0.1006
  451MOL0     C62137   7.226  11.070  -0.607  0.5373 -0.0750  0.2718
  451MOL0     C62138   7.346  11.156  -0.599  0.7652  0.8620  0.1898
  451MOL0     C62139   7.474  11.068  -0.596  0.5038 -0.0295  0.2155
  451MOL0     C62140   7.486  10.983  -0.466 -0.3580  1.4348 -0.0344
  451MOL0     C62141   7.635  10.912  -0.458  0.0040  0.3233 -0.0941
  451MOL0     C62142   7.659  10.854  -0.313 -0.4775 -0.1000 -0.3231
  451MOL0     C62143   7.792  10.776  -0.322  0.2121  0.0846  0.5542
  451MOL0     C62144   7.853  10.746  -0.191 -0.2274 -0.0871 -0.3791
  451MOL0    Cl62145   7.928  10.880  -0.111 -0.2384 -0.0711  0.4284
  451MOL0     C62146   6.900  11.164  -0.536 -0.0714  1.0843 -0.5445
  451MOL0     C62147   6.779  11.125  -0.489 -0.1356 -0.6369 -1.1227
  451MOL0     O62148   6.595  10.744  -0.540  0.5277 -0.3959  0.0942
  451MOL0     C62149   6.360  10.956  -0.354 -0.0523 -0.7915 -0.0258
  451MOL0     C62150   6.224  10.975  -0.321 -0.4492 -0.7687 -0.1886
  451MOL0     N62151   5.631  10.974   0.103  0.7027  0.0052 -0.6651
  451MOL0     N62152   5.537  10.924   0.178  0.3637 -0.1232  0.4164
  451MOL0     C62153   4.310  11.136   0.402 -0.5544 -0.7589 -0.9152
  451MOL0     C62154   4.182  11.142   0.467 -0.1388  0.0172 -0.0215
  451MOL0     C62155   3.827  11.322   0.704  0.4165 -0.8982  0.4684
  451MOL0     C62156   3.828  11.230   0.810 -0.2479 -0.5821  0.8210
  451MOL0     C62157   3.717  11.217   0.891  1.1558  0.5147 -0.0560
  451MOL0     C62158   3.609  11.304   0.882 -0.5237  0.0286 -0.1929
  451MOL0     O62159   3.511  11.287   0.972  0.6398  0.4594 -0.2977
  451MOL0     C62160   3.376  11.307   0.930  0.1871 -1.0180 -0.1366
  451MOL0     C62161   3.273  11.235   1.020 -0.1118  0.1734 -0.5321
  451MOL0     C62162   3.147  11.203   0.934  0.0219 -0.7385 -0.5031
  451MOL0     C62163   3.062  11.334   0.910 -0.2580  0.0880 -0.6285
  451MOL0     C62164   2.983  11.374   1.031  0.7176  0.1522 -0.0133
  451MOL0     C62165   2.926  11.409   1.136 -0.2846  0.4405 -0.0210
  451MOL0     C62166   3.611  11.401   0.781 -0.0022 -1.3317  0.3724
  451MOL0     C62167   3.721  11.415   0.695 -0.7942 -0.0949  0.8429
  451MOL0     C62168   3.728  11.540   0.604  1.1550  0.2304 -0.2919
  451MOL0     H62169   4.271  11.315   0.732 -1.0970  2.4939 -1.6360
  451MOL0     H62170   4.492  11.322   0.617 -2.0699  2.8903 -1.6897
  451MOL0     H62171   4.656  11.105   0.529 -1.3371 -0.4138  0.2331
  451MOL0     H62172   4.675  11.281   0.480 -1.5467 -0.0838  2.1353
  451MOL0     H62173   4.735  11.044   0.296 -3.5943  0.1871 -0.9183
  451MOL0     H62174   4.735  11.208   0.257 -1.0773 -0.1281  0.4123
  451MOL0     H62175   4.916  11.277   0.386  1.9889 -0.1697  1.4740
  451MOL0     H62176   4.903  11.143   0.497  1.4167  2.0648 -0.1560
  451MOL0     H62177   4.998  11.117   0.215  0.8987  0.8124  0.3499
  451MOL0     H62178   5.093  11.158   0.359 -3.1921  2.6634  4.0089
  451MOL0     H62179   4.908  10.909   0.366  0.7818 -0.6097  2.2501
  451MOL0     H62180   5.047  10.946   0.452 -0.0557  0.0814 -0.1113
  451MOL0     H62181   5.116  10.781   0.327 -0.8740  1.3920  1.3428
  451MOL0     H62182   5.031  10.841   0.177 -1.7604  2.2424  0.2962
  451MOL0     H62183   5.264  10.954   0.322 -1.9322 -1.9507  2.3019
  451MOL0     H62184   5.216  11.018   0.158 -3.1721 -0.3355  0.5051
  451MOL0     H62185   5.350  10.751   0.219 -0.8417  0.0880 -0.0532
  451MOL0     H62186   5.254  10.770   0.069 -1.4089 -0.5566  0.8491
  451MOL0     H62187   5.409  10.860  -0.122 -1.4690  0.3836  1.8762
  451MOL0     H62188   5.735  11.076  -0.142 -0.6720  0.6502 -1.7167
  451MOL0     H62189   5.573  11.054  -0.224 -0.9898 -2.8249 -0.8466
  451MOL0     H62190   5.780  10.849  -0.202 -2.7857 -2.4825  0.5969
  451MOL0     H62191   5.622  10.844  -0.289  0.9164 -0.8307 -1.0941
  451MOL0     H62192   5.708  10.945  -0.471 -0.0039  0.7229  0.0373
  451MOL0     H62193   5.798  11.072  -0.374  2.9036 -0.0587 -2.0255
  451MOL0     H62194   5.857  10.778  -0.449  0.8249 -0.9827  0.5738
  451MOL0     H62195   5.931  10.917  -0.529 -0.3405 -0.6919  0.5020
  451MOL0     H62196   6.089  10.721  -0.476 -0.0729 -1.0828 -1.9352
  451MOL0     H62197   6.366  10.688  -0.677 -2.0090  0.7361 -0.0974
  451MOL0     H62198   6.259  10.580  -0.594 -0.0337 -0.7975 -1.7914
  451MOL0     H62199   6.425  10.593  -0.533  2.0842  2.3972 -0.5164
  451MOL0     H62200   6.819  10.790  -0.571  1.7720 -0.5670 -0.4192
  451MOL0     H62201   7.026  10.870  -0.658  0.4017 -0.1752  0.6522
  451MOL0     H62202   7.217  11.005  -0.519  2.0619 -0.3958  0.2290
  451MOL0     H62203   7.236  11.009  -0.698 -2.5110 -0.6459  0.2070
  451MOL0     H62204   7.354  11.226  -0.683  0.8912 -2.0492 -2.3851
  451MOL0     H62205   7.331  11.214  -0.507  1.1131 -0.6490  1.2435
  451MOL0     H62206   7.562  11.133  -0.593  0.5768 -0.0880 -0.6246
  451MOL0     H62207   7.470  11.002  -0.683 -1.4673  0.5928 -0.2222
  451MOL0     H62208   7.414  10.902  -0.483  1.6062 -0.7334  1.4014
  451MOL0     H62209   7.475  11.038  -0.373  2.1695 -0.8912  1.7804
  451MOL0     H62210   7.637  10.829  -0.529 -0.7265  1.1952 -1.1596
  451MOL0     H62211   7.719  10.978  -0.485 -1.3886  1.7447 -1.1242
  451MOL0     H62212   7.576  10.790  -0.281  0.7144 -1.6043 -0.0816
  451MOL0     H62213   7.664  10.935  -0.239  1.2663 -0.5571  0.1255
  451MOL0     H62214   7.863  10.822  -0.392 -0.3080 -0.6805 -0.5175
  451MOL0     H62215   7.766  10.679  -0.366 -4.6546  0.3115  2.3459
  451MOL0     H62216   7.932  10.671  -0.202 -1.0627 -1.1323  0.5901
  451MOL0     H62217   7.778  10.701  -0.126  0.8912  0.0438  1.0805
  451MOL0     H62218   6.926  11.268  -0.520 -4.1120  2.0089  1.2117
  451MOL0     H62219   6.708  11.188  -0.437  3.2466  3.6607 -1.1124
  451MOL0     H62220   6.429  11.028  -0.311 -0.8442  0.3533 -0.6227
  451MOL0     H62221   6.194  11.043  -0.242 -3.0186 -1.3100 -0.6215
  451MOL0     H62222   4.300  11.075   0.312  2.3678  0.2352 -2.0320
  451MOL0     H62223   4.104  11.079   0.426 -0.1561 -0.2729  0.4442
  451MOL0     H62224   3.918  11.178   0.842  1.7465  2.4776  0.5512
  451MOL0     H62225   3.704  11.141   0.967 -0.2310  2.4953  1.8428
  451MOL0     H62226   3.366  11.416   0.932  0.5746 -0.8452 -3.0057
  451MOL0     H62227   3.371  11.267   0.828  2.5211 -1.6912 -0.0489
  451MOL0     H62228   3.246  11.283   1.114 -5.9638 -2.9124 -0.1719
  451MOL0     H62229   3.325  11.144   1.051 -0.1786  0.3670  0.1573
  451MOL0     H62230   3.178  11.163   0.837 -1.4487 -2.0317 -0.4766
  451MOL0     H62231   3.084  11.127   0.981 -1.6948  0.0700 -1.3919
  451MOL0     H62232   2.989  11.320   0.830 -1.4649 -1.1859  0.6403
  451MOL0     H62233   3.126  11.416   0.875 -1.7634  2.2244  1.3341
  451MOL0     H62234   2.891  11.445   1.230 -1.7922 -0.2521 -0.2822
  451MOL0     H62235   3.519  11.458   0.775  1.6809  1.4713 -3.2335
  451MOL0     H62236   3.732  11.515   0.497  1.7789  0.0212 -0.2246
  451MOL0     H62237   3.641  11.605   0.617  1.1433  0.0870  0.3790
  451MOL0     H62238   3.821  11.595   0.619  1.6243 -0.1271 -1.6535
  452MOL0     O62239   6.032   1.650   8.902  0.1375 -1.0839 -0.2727
  452MOL0     C62240   5.911   1.645   8.866  0.3024 -0.6167 -0.5530
  452MOL0     O62241   5.864   1.618   8.741 -0.2887  0.7480  0.2820
  452MOL0     C62242   5.952   1.587   8.637 -0.3607 -0.6464  1.0078
  452MOL0     C62243   5.883   1.548   8.519 -0.0735  0.8456 -0.3577
  452MOL0     C62244   5.955   1.538   8.400 -0.0272 -0.0155  0.4479
  452MOL0     C62245   6.089   1.568   8.396  0.2647 -0.0917 -0.6199
  452MOL0     O62246   6.156   1.570   8.279 -0.1551  0.2036  0.3181
  452MOL0     C62247   6.172   1.706   8.231 -0.2633 -0.2450  0.1895
  452MOL0     C62248   6.286   1.717   8.124 -0.0705 -0.2694 -0.2081
  452MOL0     C62249   6.297   1.598   8.033  0.5143 -1.0576 -0.0569
  452MOL0     C62250   6.400   1.632   7.918 -0.5554 -0.5508  0.7317
  452MOL0     C62251   6.430   1.519   7.821  0.8207  0.5243 -0.0877
  452MOL0     C62252   6.542   1.563   7.722 -0.0009  0.1523  0.1503
  452MOL0     C62253   6.585   1.441   7.649 -0.2201 -0.3778 -0.4735
  452MOL0     C62254   6.653   1.474   7.524 -0.2509  0.2919 -0.3343
  452MOL0     N62255   6.564   1.485   7.407  1.0115  0.3566  0.3394
  452MOL0     C62256   6.439   1.429   7.403  0.3877 -0.8256 -0.3536
  452MOL0     C62257   6.383   1.491   7.299 -0.7034 -1.2193  0.0390
  452MOL0     C62258   6.243   1.477   7.273 -0.4865  0.2880  0.1974
  452MOL0     C62259   6.169   1.574   7.371 -0.5343  0.7936 -0.5005
  452MOL0     C62260   6.013   1.585   7.338 -0.0468 -0.5712  0.4002
  452MOL0     C62261   5.933   1.658   7.450 -0.4525  1.2744  0.7364
  452MOL0     O62262   5.793   1.641   7.437  0.4979 -0.2677  0.1722
  452MOL0     C62263   5.718   1.688   7.536  0.2793  0.1460  0.7313
  452MOL0     C62264   5.673   1.818   7.544  0.7902  0.3518 -0.0331
  452MOL0     C62265   5.583   1.862   7.647  0.2964 -0.5963  0.2372
  452MOL0     C62266   5.544   2.020   7.662 -0.1910  0.7912 -0.2001
  452MOL0     C62267   5.529   1.768   7.735 -0.2972 -0.3733  0.4711
  452MOL0     C62268   5.424   1.790   7.836 -0.3853 -0.3350  0.7073
  452MOL0     O62269   5.350   1.687   7.875 -0.2419 -0.4721 -0.5226
  452MOL0     C62270   5.246   1.690   7.966 -0.2286  0.4990  1.0117
  452MOL0     C62271   5.195   1.814   8.034  0.9308  0.4819 -0.2585
  452MOL0     C62272   5.077   1.802   8.112 -0.0242 -0.2793  0.4642
  452MOL0     C62273   5.004   1.680   8.130  0.2075 -0.9999  0.0588
  452MOL0     O62274   4.900   1.691   8.215 -0.3745 -0.0270 -0.0887
  452MOL0     C62275   4.767   1.647   8.171  0.0199  0.0610  0.3103
  452MOL0     C62276   4.658   1.702   8.256  0.2385  0.0851 -1.1162
  452MOL0     C62277   4.541   1.606   8.253  0.0453  0.4004 -0.2233
  452MOL0     C62278   4.419   1.672   8.319 -0.1966 -0.2793 -0.2444
  452MOL0     C62279   4.287   1.591   8.285  0.3348  0.1600 -0.2527
  452MOL0     C62280   4.154   1.660   8.322 -0.3728  1.3836 -0.0589
  452MOL0     C62281   4.045   1.601   8.230 -0.2638  0.4481  0.7575
  452MOL0     C62282   3.902   1.679   8.221  0.2230  1.2899 -0.6473
  452MOL0    Cl62283   3.919   1.838   8.150 -0.0592  0.3829  0.3090
  452MOL0     C62284   5.053   1.568   8.067 -0.3213 -0.0759 -0.0080
  452MOL0     C62285   5.168   1.578   7.985 -0.1171 -0.2262 -0.6366
  452MOL0     O62286   5.407   1.906   7.876 -0.4159  0.1308  0.5138
  452MOL0     C62287   5.583   1.638   7.729  1.3626  1.2042 -0.2792
  452MOL0     C62288   5.684   1.599   7.639  0.6261  0.9019  1.1835
  452MOL0     N62289   6.475   1.569   7.227 -0.8359  0.4032 -0.0147
  452MOL0     N62290   6.583   1.576   7.297  0.3038 -0.5319 -0.5816
  452MOL0     C62291   6.158   1.609   8.509 -0.2400 -0.3014  0.1886
  452MOL0     C62292   6.090   1.607   8.631  0.4215  0.0595 -0.7711
  452MOL0     C62293   5.802   1.664   8.967  0.0375 -0.0477  0.4119
  452MOL0     C62294   5.674   1.619   8.941  1.1742 -0.0792  0.3590
  452MOL0     C62295   5.551   1.651   9.013 -0.7232  0.1372  0.0434
  452MOL0     C62296   5.570   1.730   9.117 -0.7808  0.2138 -0.2761
  452MOL0     O62297   5.466   1.759   9.199  0.3775 -0.8075  0.9210
  452MOL0     C62298   5.412   1.893   9.170 -0.6610 -0.8799 -0.3081
  452MOL0     C62299   5.296   1.935   9.249  0.6868 -0.2725 -1.0137
  452MOL0     C62300   5.336   1.928   9.401  0.5264 -0.0332 -0.1839
  452MOL0     C62301   5.210   1.904   9.481  0.7254 -0.2016  0.3238
  452MOL0     C62302   5.246   1.873   9.621  0.8727 -0.0866  0.9417
  452MOL0     C62303   5.266   1.847   9.738 -0.0274 -0.1072  0.3940
  452MOL0     C62304   5.698   1.776   9.158  0.1592  0.5936 -0.4058
  452MOL0     C62305   5.817   1.745   9.080 -0.4607 -0.5347 -0.5744
  452MOL0     C62306   5.937   1.805   9.130 -0.3614 -0.3937 -0.4522
  452MOL0     H62307   5.779   1.519   8.512  0.1678 -0.2288  0.2719
  452MOL0     H62308   5.904   1.526   8.305 -0.9157 -0.4543  0.9635
  452MOL0     H62309   6.193   1.779   8.309  1.7044  1.0278 -1.4095
  452MOL0     H62310   6.076   1.739   8.190  0.0523  0.3407 -0.0924
  452MOL0     H62311   6.276   1.805   8.059 -0.0806 -1.6632 -2.1827
  452MOL0     H62312   6.379   1.731   8.179 -1.0281  1.5930  1.0279
  452MOL0     H62313   6.329   1.509   8.088  0.1119 -1.4140 -0.3872
  452MOL0     H62314   6.200   1.582   7.986 -0.0642  0.2640  0.6398
  452MOL0     H62315   6.362   1.706   7.847  0.0000 -0.6292  0.3516
  452MOL0     H62316   6.493   1.670   7.961  0.7864  0.4826 -2.7679
  452MOL0     H62317   6.340   1.478   7.774  2.5283 -1.0429 -2.1807
  452MOL0     H62318   6.465   1.439   7.886  1.1974  0.3785 -0.4666
  452MOL0     H62319   6.512   1.641   7.652 -1.0105  0.6470  1.0831
  452MOL0     H62320   6.626   1.617   7.766 -0.1674  0.9344 -0.4794
  452MOL0     H62321   6.497   1.378   7.634 -2.0834  1.8728  0.3323
  452MOL0     H62322   6.653   1.382   7.712  0.5617  0.6776 -0.3073
  452MOL0     H62323   6.699   1.572   7.538  0.0458 -0.0571  1.4756
  452MOL0     H62324   6.736   1.404   7.506 -1.6571 -2.2778  2.2674
  452MOL0     H62325   6.392   1.366   7.478  1.6442 -0.0532  1.1685
  452MOL0     H62326   6.205   1.376   7.292 -0.1408 -0.3598 -2.2530
  452MOL0     H62327   6.220   1.516   7.173  2.0309  0.3681 -0.4054
  452MOL0     H62328   6.175   1.530   7.471 -3.4614 -1.7048 -1.2441
  452MOL0     H62329   6.220   1.670   7.373  2.4955 -0.6843 -0.5547
  452MOL0     H62330   6.000   1.643   7.246 -2.5082  0.7015  1.4588
  452MOL0     H62331   5.963   1.492   7.312 -3.8057  1.0716  1.0779
  452MOL0     H62332   5.964   1.608   7.542  0.7462 -2.4810 -1.4574
  452MOL0     H62333   5.969   1.761   7.459  3.1483  0.1102  1.2840
  452MOL0     H62334   5.702   1.906   7.487  1.5051  1.5002  1.9805
  452MOL0     H62335   5.436   2.021   7.679  0.1239  0.1178  2.1347
  452MOL0     H62336   5.562   2.085   7.576 -1.7857 -0.1980 -1.3345
  452MOL0     H62337   5.602   2.040   7.753 -1.5579  1.9656  0.4466
  452MOL0     H62338   5.243   1.911   8.029  0.4462  0.6921 -4.7965
  452MOL0     H62339   5.042   1.890   8.166  1.0690 -0.0367  0.8040
  452MOL0     H62340   4.754   1.682   8.068 -0.0122  0.2894  0.3921
  452MOL0     H62341   4.762   1.537   8.169 -0.6073  0.0761  1.0568
  452MOL0     H62342   4.695   1.703   8.359 -1.2380  1.6018 -0.5475
  452MOL0     H62343   4.638   1.804   8.220  1.9216  0.3840 -1.3112
  452MOL0     H62344   4.572   1.511   8.299 -3.7629 -1.2174 -0.6477
  452MOL0     H62345   4.526   1.588   8.146  1.4806 -1.2981 -0.1799
  452MOL0     H62346   4.397   1.760   8.258 -1.9120  0.2066  0.9973
  452MOL0     H62347   4.424   1.687   8.427 -0.6641  4.1811 -0.6717
  452MOL0     H62348   4.282   1.578   8.176 -1.3073  0.9240 -0.3028
  452MOL0     H62349   4.294   1.493   8.332 -1.7501 -0.5121 -1.2483
  452MOL0     H62350   4.171   1.765   8.294 -2.5476  1.9560  0.5632
  452MOL0     H62351   4.128   1.650   8.428  1.2156 -1.9949  0.1314
  452MOL0     H62352   4.017   1.498   8.250 -4.0880  1.0481 -0.7156
  452MOL0     H62353   4.091   1.596   8.131 -1.4608 -0.8486  0.2313
  452MOL0     H62354   3.855   1.671   8.319  1.5431  0.2779 -0.0585
  452MOL0     H62355   3.841   1.622   8.149  1.7642 -2.9987  1.0980
  452MOL0     H62356   4.991   1.481   8.087  0.5617 -0.3566  1.6695
  452MOL0     H62357   5.215   1.494   7.935 -0.2294  1.6476 -4.1957
  452MOL0     H62358   5.544   1.562   7.795 -0.1887  0.0505 -2.3883
  452MOL0     H62359   5.721   1.497   7.639  1.6012  1.2324 -0.2068
  452MOL0     H62360   6.263   1.637   8.511 -0.6238  1.3625 -1.2319
  452MOL0     H62361   6.154   1.637   8.714  1.1301  1.1017 -1.6681
  452MOL0     H62362   5.664   1.562   8.849  2.3053  2.5087 -1.4785
  452MOL0     H62363   5.455   1.625   8.968  0.6659 -0.6781 -2.6936
  452MOL0     H62364   5.488   1.968   9.193 -1.4706 -0.8841  2.8143
  452MOL0     H62365   5.380   1.918   9.068 -0.5591  1.3006  0.1475
  452MOL0     H62366   5.214   1.865   9.227  0.1388  0.2954 -0.7897
  452MOL0     H62367   5.254   2.031   9.219 -3.2948 -1.8645 -1.2736
  452MOL0     H62368   5.401   1.842   9.420  0.8579  0.0547 -0.9097
  452MOL0     H62369   5.389   2.020   9.427  1.8109  0.2501 -3.3429
  452MOL0     H62370   5.153   1.819   9.441 -1.8035  0.5518  2.1154
  452MOL0     H62371   5.148   1.993   9.469  0.8288 -0.1875 -0.1497
  452MOL0     H62372   5.284   1.834   9.843 -1.2556  1.5404  0.8545
  452MOL0     H62373   5.698   1.846   9.241  0.4719  0.3095 -0.1687
  452MOL0     H62374   5.985   1.855   9.045 -2.0002 -0.6633 -1.5729
  452MOL0     H62375   5.917   1.875   9.212 -3.7288 -0.2336 -1.2619
  452MOL0     H62376   6.011   1.727   9.149  1.2395  1.8528  3.7885
  453MOL0     O62377   1.279   6.361   7.385  0.2040  0.0927 -0.1701
  453MOL0     C62378   1.181   6.292   7.416  0.7189 -1.0334 -0.6127
  453MOL0     O62379   1.174   6.181   7.501  0.7223 -0.7664  0.3536
  453MOL0     C62380   1.283   6.119   7.560  0.4143 -1.2109  0.2665
  453MOL0     C62381   1.257   6.051   7.680 -0.1460  0.0143 -0.8821
  453MOL0     C62382   1.363   6.009   7.755  0.0801  0.3225  0.0669
  453MOL0     C62383   1.490   6.017   7.717 -1.2061 -0.9332 -0.2242
  453MOL0     O62384   1.583   5.967   7.806  0.4176  0.7724  0.0961
  453MOL0     C62385   1.724   5.975   7.764  0.4694  0.2029  0.0798
  453MOL0     C62386   1.807   5.888   7.874  0.8221 -0.3538  1.1058
  453MOL0     C62387   1.785   5.941   8.022  0.7397 -1.1190 -0.2834
  453MOL0     C62388   1.825   6.091   8.029  0.0475 -0.3852  0.1812
  453MOL0     C62389   1.850   6.134   8.180  0.7299 -0.7496  0.0805
  453MOL0     C62390   1.980   6.093   8.247 -0.1349 -0.0745 -0.2870
  453MOL0     C62391   2.100   6.134   8.171 -0.1473  0.2140  0.3696
  453MOL0     C62392   2.143   6.282   8.178 -0.7184 -0.3215  0.0401
  453MOL0     N62393   2.273   6.296   8.253 -1.2273  0.2632 -0.8060
  453MOL0     C62394   2.405   6.302   8.210  0.4139 -0.3393 -0.1900
  453MOL0     C62395   2.474   6.378   8.300  0.2609  0.3259  0.3367
  453MOL0     C62396   2.617   6.413   8.266  0.6437 -0.6276 -0.0458
  453MOL0     C62397   2.671   6.522   8.363  0.7789  0.1169  0.4819
  453MOL0     C62398   2.661   6.491   8.509 -0.1676  0.3906 -1.4811
  453MOL0     C62399   2.732   6.359   8.547 -0.4972  0.2101 -1.3867
  453MOL0     O62400   2.801   6.379   8.672 -0.1471  0.3073  0.6376
  453MOL0     C62401   2.748   6.350   8.795 -1.1011 -0.1267 -0.0401
  453MOL0     C62402   2.836   6.289   8.897 -0.6117 -0.5480  0.0395
  453MOL0     C62403   2.797   6.268   9.030 -0.8151 -0.0871 -0.4775
  453MOL0     C62404   2.882   6.178   9.107 -0.3254  0.4342  0.2179
  453MOL0     C62405   2.663   6.291   9.065  1.2367  0.5981  0.2153
  453MOL0     C62406   2.603   6.242   9.199  0.1738  0.6718  0.0791
  453MOL0     O62407   2.680   6.253   9.314  0.7450  0.1314  0.7925
  453MOL0     C62408   2.605   6.219   9.423 -0.2023 -0.4094  0.1519
  453MOL0     C62409   2.509   6.304   9.489 -0.7433  0.4231 -0.8819
  453MOL0     C62410   2.448   6.267   9.615  0.4227 -0.1526  0.1062
  453MOL0     C62411   2.488   6.147   9.683  0.6476  0.5060 -0.0237
  453MOL0     O62412   2.447   6.121   9.804 -0.2242  0.2655 -1.1943
  453MOL0     C62413   2.388   5.984   9.828  0.3771  0.5159  0.0194
  453MOL0     C62414   2.306   5.985   9.953  0.4729 -0.3203 -0.1150
  453MOL0     C62415   2.235   5.851   9.984  0.4273  0.6813  0.2062
  453MOL0     C62416   2.340   5.755  10.031 -0.5783  0.8185  0.4754
  453MOL0     C62417   2.275   5.619  10.079  0.3079  0.6622 -0.2621
  453MOL0     C62418   2.219   5.538   9.961 -0.0489  0.2954  0.2979
  453MOL0     C62419   2.178   5.400  10.012  0.3063  0.2072 -0.5627
  453MOL0     C62420   2.110   5.313   9.903 -0.1105 -0.1905  0.0475
  453MOL0    Cl62421   2.240   5.242   9.785 -0.2617  0.1326 -0.0940
  453MOL0     C62422   2.581   6.070   9.622 -0.0398  0.5672 -0.2952
  453MOL0     C62423   2.627   6.099   9.489 -0.3863 -0.0463 -0.6470
  453MOL0     O62424   2.483   6.203   9.189 -0.3315  0.4993 -0.5363
  453MOL0     C62425   2.581   6.347   8.965 -0.8939  0.8110  0.7187
  453MOL0     C62426   2.624   6.377   8.839 -0.7018 -0.0729  0.8677
  453MOL0     N62427   2.384   6.416   8.402  0.0563 -0.1065  0.4694
  453MOL0     N62428   2.274   6.358   8.373  0.2845 -0.3004  0.0368
  453MOL0     C62429   1.524   6.083   7.596  0.0603  1.0000 -0.1591
  453MOL0     C62430   1.416   6.135   7.512  0.3900  0.7288 -0.9933
  453MOL0     C62431   1.055   6.322   7.336 -0.0422 -0.0640  0.3236
  453MOL0     C62432   0.951   6.230   7.340  0.4896 -0.3080 -0.9098
  453MOL0     C62433   0.832   6.254   7.268  0.5449 -0.1027 -0.3177
  453MOL0     C62434   0.803   6.370   7.201  0.5724 -0.2684  1.0224
  453MOL0     O62435   0.690   6.395   7.128 -0.3702  0.2460  0.6354
  453MOL0     C62436   0.568   6.359   7.187  0.6394 -0.3611  1.1643
  453MOL0     C62437   0.537   6.416   7.322 -0.4998 -0.4861  0.4072
  453MOL0     C62438   0.382   6.418   7.367 -0.1726  0.3851  0.7368
  453MOL0     C62439   0.375   6.508   7.492 -0.2743  0.5527  0.4007
  453MOL0     C62440   0.253   6.463   7.573 -0.1165 -0.8058  0.8656
  453MOL0     C62441   0.161   6.437   7.642 -0.2499  0.0604  0.1406
  453MOL0     C62442   0.897   6.464   7.194 -0.5770 -0.5457 -0.4083
  453MOL0     C62443   1.028   6.441   7.259  0.2253 -1.1952 -0.0342
  453MOL0     C62444   1.128   6.554   7.231 -0.1030 -0.1093  0.1699
  453MOL0     H62445   1.162   6.046   7.733 -1.5223  0.0948 -3.1888
  453MOL0     H62446   1.338   5.954   7.845  1.6211 -0.8206 -0.1717
  453MOL0     H62447   1.749   6.081   7.754  0.0388  0.7526  3.5846
  453MOL0     H62448   1.733   5.916   7.673  0.4038 -3.0051  1.9944
  453MOL0     H62449   1.767   5.787   7.868  0.6909 -0.2323 -0.9840
  453MOL0     H62450   1.907   5.885   7.829  0.8425  1.5209  0.9294
  453MOL0     H62451   1.683   5.924   8.058  0.8278 -1.1323 -0.0322
  453MOL0     H62452   1.856   5.874   8.071  0.9445 -1.9568 -1.6758
  453MOL0     H62453   1.909   6.091   7.958 -0.2667 -1.7812 -0.2264
  453MOL0     H62454   1.742   6.145   7.983 -0.0835 -0.4684  0.3207
  453MOL0     H62455   1.766   6.109   8.245 -0.7125 -2.0298 -2.1158
  453MOL0     H62456   1.849   6.243   8.174  2.3882 -0.7519 -0.9594
  453MOL0     H62457   1.980   6.145   8.343  0.2388  2.3427 -1.5368
  453MOL0     H62458   1.984   5.986   8.270 -0.5793 -0.0152  0.0896
  453MOL0     H62459   2.102   6.118   8.063  0.0147  0.2532  0.3661
  453MOL0     H62460   2.177   6.065   8.205 -0.2199  0.8509  1.9354
  453MOL0     H62461   2.173   6.307   8.076  0.8876 -1.4681  0.1864
  453MOL0     H62462   2.062   6.353   8.198  0.8139  1.5912 -0.2262
  453MOL0     H62463   2.451   6.259   8.122  2.9719  0.7135  0.5193
  453MOL0     H62464   2.625   6.467   8.171  2.3696 -1.7213 -0.5624
  453MOL0     H62465   2.676   6.321   8.265 -2.4740 -2.7975 -0.7507
  453MOL0     H62466   2.770   6.554   8.330  1.4216 -0.6638  1.5845
  453MOL0     H62467   2.606   6.607   8.345 -2.1876 -2.1467 -0.2718
  453MOL0     H62468   2.713   6.567   8.567  2.9027 -2.1537 -0.6009
  453MOL0     H62469   2.556   6.503   8.539 -0.0818 -2.1800  0.2057
  453MOL0     H62470   2.651   6.288   8.565  0.4725 -0.6085 -0.0809
  453MOL0     H62471   2.798   6.324   8.467  2.5520  2.9461 -0.3012
  453MOL0     H62472   2.937   6.271   8.862  0.1361  1.3692  1.0708
  453MOL0     H62473   2.821   6.095   9.143  0.0826 -0.6802 -1.5487
  453MOL0     H62474   2.918   6.245   9.186 -1.3888  2.2014 -0.7445
  453MOL0     H62475   2.955   6.129   9.042 -1.5227 -0.5069 -0.4516
  453MOL0     H62476   2.470   6.401   9.459 -3.0932  0.7577  2.6840
  453MOL0     H62477   2.385   6.347   9.653  0.6499  0.3005 -0.4554
  453MOL0     H62478   2.322   5.969   9.742  1.0483  2.3843 -0.8727
  453MOL0     H62479   2.467   5.909   9.816  1.3240  1.7079 -1.5423
  453MOL0     H62480   2.359   6.026  10.039  0.9742 -1.6604  0.2277
  453MOL0     H62481   2.223   6.053   9.929 -0.0084 -1.4524 -1.8760
  453MOL0     H62482   2.178   5.815   9.898  0.2697  2.7550 -0.6022
  453MOL0     H62483   2.170   5.866  10.071  0.4773  0.6756  0.2443
  453MOL0     H62484   2.391   5.801  10.115  1.3088 -3.4960  2.0045
  453MOL0     H62485   2.419   5.732   9.958 -2.8624  1.7821 -2.5316
  453MOL0     H62486   2.351   5.556  10.126  0.3882  0.9849  0.0464
  453MOL0     H62487   2.193   5.632  10.150 -1.3867  2.1309 -2.3388
  453MOL0     H62488   2.292   5.525   9.881  0.0997 -0.2950  0.5228
  453MOL0     H62489   2.126   5.578   9.920  0.4696 -1.9830 -3.5405
  453MOL0     H62490   2.090   5.405  10.078 -1.2301 -1.2730 -2.3950
  453MOL0     H62491   2.263   5.352  10.061  0.1637 -0.1376 -0.6523
  453MOL0     H62492   2.033   5.375   9.855 -1.6113  0.8797  3.5140
  453MOL0     H62493   2.058   5.231   9.952  0.5188  0.1150  1.2732
  453MOL0     H62494   2.604   5.972   9.662  1.7382  1.7331  1.7320
  453MOL0     H62495   2.701   6.032   9.446  2.1328  1.6278  0.7470
  453MOL0     H62496   2.484   6.370   9.006 -1.2017  1.0713 -0.1426
  453MOL0     H62497   2.547   6.427   8.781  0.8350  1.9160  0.3904
  453MOL0     H62498   1.630   6.088   7.572  0.0365 -0.8477 -0.8024
  453MOL0     H62499   1.437   6.190   7.421  0.5827  1.3847 -0.5610
  453MOL0     H62500   0.946   6.147   7.410  0.4027  1.6590  1.5534
  453MOL0     H62501   0.753   6.182   7.287 -0.4143 -0.2417 -4.0506
  453MOL0     H62502   0.500   6.405   7.115  2.1625 -1.9005 -1.4179
  453MOL0     H62503   0.555   6.250   7.183 -0.9255 -0.1516 -1.5018
  453MOL0     H62504   0.573   6.518   7.311  0.2987 -0.6974  0.9708
  453MOL0     H62505   0.602   6.369   7.397  1.2823  0.8243 -0.2699
  453MOL0     H62506   0.324   6.457   7.282  2.5167 -0.2832 -1.5600
  453MOL0     H62507   0.347   6.316   7.386 -1.2352  0.3301 -1.1948
  453MOL0     H62508   0.375   6.610   7.453 -0.2840  0.0255 -1.0568
  453MOL0     H62509   0.464   6.499   7.555  0.7529 -1.6831 -1.2153
  453MOL0     H62510   0.080   6.408   7.705  0.4046 -0.3321  0.8239
  453MOL0     H62511   0.882   6.551   7.130 -2.9118  1.5208  2.6891
  453MOL0     H62512   1.138   6.613   7.322  0.4785  0.8548 -0.5046
  453MOL0     H62513   1.229   6.518   7.208  0.9904  1.1856  2.5876
  453MOL0     H62514   1.082   6.623   7.159 -3.6637 -0.6792  1.6740
  454MOL0     O62515   4.100   7.564  10.108 -0.2298 -0.3426 -0.1328
  454MOL0     C62516   3.980   7.598  10.120  0.1809  0.8518 -0.3195
  454MOL0     O62517   3.921   7.650  10.239 -0.8753  0.7351 -0.5115
  454MOL0     C62518   4.004   7.643  10.350 -0.1642 -0.6265 -0.8287
  454MOL0     C62519   3.964   7.562  10.447  0.1768  0.1645  0.1252
  454MOL0     C62520   4.043   7.561  10.561 -0.2819 -0.1633 -0.6440
  454MOL0     C62521   4.153   7.637  10.588 -0.7074 -0.5208 -0.6641
  454MOL0     O62522   4.210   7.622  10.717  0.0747  0.7880  0.1021
  454MOL0     C62523   4.269   7.735  10.776 -0.3323 -0.0084  0.1722
  454MOL0     C62524   4.241   7.738  10.920 -0.2571 -0.4837 -0.7660
  454MOL0     C62525   4.299   7.848  10.999 -0.4239  0.5319  0.1206
  454MOL0     C62526   4.454   7.855  11.007  0.3071  0.2346 -0.3140
  454MOL0     C62527   4.511   7.961  11.095 -0.6377 -0.1785  0.4014
  454MOL0     C62528   4.446   7.989  11.227 -0.3004 -0.0130  0.1840
  454MOL0     C62529   4.534   8.064  11.322 -0.9824  0.4571 -0.5693
  454MOL0     C62530   4.622   8.172  11.265 -0.4625  0.1538 -0.5017
  454MOL0     N62531   4.685   8.250  11.380  0.2721  0.3316  0.0576
  454MOL0     C62532   4.790   8.210  11.461 -1.0175 -0.6826  0.3541
  454MOL0     C62533   4.824   8.321  11.530 -0.4426 -0.4051 -0.0515
  454MOL0     C62534   4.950   8.335  11.612 -0.0833 -0.4745 -0.4943
  454MOL0     C62535   4.984   8.212  11.690  0.0803  0.4208  0.4338
  454MOL0     C62536   4.874   8.161  11.788  0.7766 -0.6982 -0.0938
  454MOL0     C62537   4.910   8.043  11.878  0.8418  1.2035 -0.2102
  454MOL0     O62538   4.993   8.097  11.978 -0.7412  0.5142 -0.4172
  454MOL0     C62539   5.130   8.086  11.979 -0.3852 -0.2300 -0.3289
  454MOL0     C62540   5.205   8.028  11.866 -0.9302 -0.2839  0.1761
  454MOL0     C62541   5.344   8.020  11.864  0.1573  0.0667  1.4495
  454MOL0     C62542   5.416   7.949  11.746  0.6010 -0.5935  0.6337
  454MOL0     C62543   5.414   8.079  11.971  0.0228  0.7798  0.7312
  454MOL0     C62544   5.567   8.094  11.972 -0.3064 -0.3050 -0.5214
  454MOL0     O62545   5.650   8.026  11.881  0.4339  0.1477 -0.1155
  454MOL0     C62546   5.785   8.018  11.900  0.1367 -0.2967 -0.9100
  454MOL0     C62547   5.842   8.011  12.026  0.3683  0.1769  0.2476
  454MOL0     C62548   5.982   8.022  12.033 -1.5537  0.0617 -0.1755
  454MOL0     C62549   6.059   8.057  11.921 -0.2649  0.3616 -0.5515
  454MOL0     O62550   6.198   8.077  11.924 -0.1575 -0.5458  0.3689
  454MOL0     C62551   6.260   8.104  12.055 -0.0059  0.6682  0.7214
  454MOL0     C62552   6.399   8.162  12.029  0.0426  0.2069 -0.3019
  454MOL0     C62553   6.491   8.072  11.962  1.0303 -0.4594  0.9527
  454MOL0     C62554   6.585   8.141  11.859 -1.0020 -0.2950 -0.6940
  454MOL0     C62555   6.705   8.185  11.939  0.7282 -0.7128 -0.1440
  454MOL0     C62556   6.765   8.306  11.876 -0.0806 -0.1503 -0.3450
  454MOL0     C62557   6.879   8.366  11.952 -0.0204 -0.7887 -0.0203
  454MOL0     C62558   7.006   8.290  11.919  0.7318 -0.0243 -0.5424
  454MOL0    Cl62559   7.159   8.375  11.967 -0.5278  0.0528  0.0379
  454MOL0     C62560   6.000   8.055  11.798  0.3162  0.2703  0.0975
  454MOL0     C62561   5.863   8.044  11.786  0.1009  0.3848 -0.3188
  454MOL0     O62562   5.608   8.173  12.061  0.0883  0.0860  0.8907
  454MOL0     C62563   5.345   8.136  12.078  0.5159 -0.3235  0.9045
  454MOL0     C62564   5.202   8.145  12.083 -0.1268  0.4646  0.2572
  454MOL0     N62565   4.730   8.417  11.496 -0.2970 -0.0246  0.6628
  454MOL0     N62566   4.640   8.372  11.411 -0.1966  0.4148  0.0823
  454MOL0     C62567   4.180   7.736  10.499  0.3516  0.7295  0.5475
  454MOL0     C62568   4.109   7.740  10.378 -0.2101 -0.5751  0.0503
  454MOL0     C62569   3.888   7.575  10.008 -0.4575 -0.6364 -0.3892
  454MOL0     C62570   3.944   7.581   9.884 -0.0765  0.0212  0.3002
  454MOL0     C62571   3.867   7.559   9.773 -0.5500 -0.1245  0.5639
  454MOL0     C62572   3.737   7.540   9.770  0.1669 -0.8263 -0.0761
  454MOL0     O62573   3.656   7.530   9.657  0.2360 -0.0348 -0.2495
  454MOL0     C62574   3.668   7.408   9.586 -0.1844 -0.4491  1.1576
  454MOL0     C62575   3.739   7.427   9.440 -0.5037  0.2732  0.0124
  454MOL0     C62576   3.652   7.477   9.333 -1.4783  0.2634 -0.0540
  454MOL0     C62577   3.723   7.498   9.194 -0.6109  0.7591  0.3148
  454MOL0     C62578   3.806   7.379   9.143  0.2425  0.3224  0.0505
  454MOL0     C62579   3.872   7.276   9.119  0.6882 -0.2790  0.5579
  454MOL0     C62580   3.678   7.518   9.896 -0.3595  0.5603  1.3109
  454MOL0     C62581   3.749   7.531  10.010  0.2182 -0.1136 -0.2316
  454MOL0     C62582   3.683   7.506  10.145  0.3438  0.8927 -0.2999
  454MOL0     H62583   3.879   7.495  10.442  1.8514 -2.1694  1.1152
  454MOL0     H62584   4.007   7.492  10.636 -2.7632  1.2395 -0.4608
  454MOL0     H62585   4.255   7.830  10.723  3.6150 -1.0779 -3.4035
  454MOL0     H62586   4.376   7.713  10.770 -0.8318 -2.3968 -1.5627
  454MOL0     H62587   4.133   7.737  10.937 -0.3087  1.1854 -0.7763
  454MOL0     H62588   4.269   7.643  10.967 -0.1115  0.1195  0.4126
  454MOL0     H62589   4.254   7.946  10.979 -1.1440  0.9848  3.3696
  454MOL0     H62590   4.275   7.837  11.105  1.8625  0.5278  0.6784
  454MOL0     H62591   4.503   7.760  11.028 -1.8911 -0.7005  0.8914
  454MOL0     H62592   4.495   7.880  10.909  1.5522 -0.5645 -0.0237
  454MOL0     H62593   4.524   8.057  11.046 -3.0023 -0.7337 -1.5370
  454MOL0     H62594   4.615   7.930  11.104  0.2179  1.5266 -2.6137
  454MOL0     H62595   4.351   8.039  11.207 -1.1973 -1.6500  0.1693
  454MOL0     H62596   4.415   7.895  11.274  2.8605  0.0919  2.8933
  454MOL0     H62597   4.598   7.995  11.377  0.0063  1.7343 -0.0739
  454MOL0     H62598   4.465   8.105  11.397  0.7438  1.6518  0.4220
  454MOL0     H62599   4.697   8.116  11.208 -0.7261 -0.5760 -0.1468
  454MOL0     H62600   4.554   8.230  11.202 -2.2553 -1.2952  0.0097
  454MOL0     H62601   4.847   8.118  11.452 -0.2017 -0.1978  0.4457
  454MOL0     H62602   4.945   8.417  11.685  1.4892 -0.7484 -0.0429
  454MOL0     H62603   5.028   8.361  11.540 -1.2595  0.7007 -1.4044
  454MOL0     H62604   5.018   8.145  11.610  2.5782  1.0989  0.8259
  454MOL0     H62605   5.073   8.233  11.750  0.1219 -0.9744  0.8850
  454MOL0     H62606   4.830   8.241  11.847 -1.0311  1.1388 -3.5866
  454MOL0     H62607   4.796   8.119  11.725 -0.4338  2.7860 -1.1534
  454MOL0     H62608   4.817   8.010  11.926  0.6863  1.1494 -0.5442
  454MOL0     H62609   4.957   7.968  11.814 -1.6914 -0.2428 -0.5512
  454MOL0     H62610   5.156   7.989  11.777 -2.0032  1.6652 -0.1559
  454MOL0     H62611   5.347   7.921  11.666  0.9601 -4.0179  1.3811
  454MOL0     H62612   5.450   7.852  11.782 -0.3576 -1.4868 -0.7532
  454MOL0     H62613   5.501   8.005  11.706  2.1734 -2.5707  1.0664
  454MOL0     H62614   5.786   8.002  12.119 -1.3719 -0.9957 -0.8471
  454MOL0     H62615   6.021   8.014  12.133  0.2869 -3.0803 -1.0194
  454MOL0     H62616   6.194   8.150  12.129  0.8428  1.2298  1.1496
  454MOL0     H62617   6.271   8.004  12.099 -2.2918 -1.7962 -3.6832
  454MOL0     H62618   6.382   8.260  11.984 -1.1309  0.1399 -0.0469
  454MOL0     H62619   6.452   8.183  12.123 -1.4134 -0.2292  0.6451
  454MOL0     H62620   6.426   8.005  11.904  0.1123 -1.6623  3.2298
  454MOL0     H62621   6.545   8.010  12.034  1.4308 -0.2055  0.8710
  454MOL0     H62622   6.538   8.222  11.801  0.1694  0.7868 -0.1870
  454MOL0     H62623   6.634   8.068  11.795  3.7560  0.5324  1.5843
  454MOL0     H62624   6.679   8.226  12.037  0.3887  1.2349 -1.0177
  454MOL0     H62625   6.767   8.095  11.953  2.0493  0.4384  2.0270
  454MOL0     H62626   6.685   8.381  11.868 -1.1141 -1.4111 -3.6458
  454MOL0     H62627   6.795   8.275  11.775  4.2087  1.7248  0.1325
  454MOL0     H62628   6.858   8.376  12.059  2.8028  1.0324  0.4634
  454MOL0     H62629   6.896   8.469  11.919 -2.3294 -0.6562 -1.0405
  454MOL0     H62630   7.018   8.275  11.812 -0.3908  2.5317 -1.1125
  454MOL0     H62631   6.996   8.186  11.952 -4.1506  0.1583 -0.7072
  454MOL0     H62632   6.046   8.069  11.701 -0.7290  1.2350 -0.2762
  454MOL0     H62633   5.808   8.058  11.694  0.0802  4.8190  0.1548
  454MOL0     H62634   5.402   8.183  12.158  1.7802  0.2330 -0.2699
  454MOL0     H62635   5.159   8.212  12.157 -0.5281  3.3416 -2.3598
  454MOL0     H62636   4.258   7.809  10.517  1.4070 -0.4619  0.9766
  454MOL0     H62637   4.128   7.817  10.305  0.6303 -0.9878 -0.1760
  454MOL0     H62638   4.050   7.599   9.869 -0.4897  3.1993  0.3142
  454MOL0     H62639   3.919   7.571   9.679  2.2976 -4.2590  1.3313
  454MOL0     H62640   3.709   7.329   9.649  1.2554  1.3987  2.6755
  454MOL0     H62641   3.568   7.380   9.554  1.2103  0.0150 -5.1004
  454MOL0     H62642   3.781   7.329   9.413  3.2422  1.8543 -0.5384
  454MOL0     H62643   3.825   7.493   9.459  1.2089 -1.5515 -0.9623
  454MOL0     H62644   3.577   7.404   9.301 -2.4877  1.2186  0.0918
  454MOL0     H62645   3.598   7.568   9.361 -3.4183 -0.9665  0.3998
  454MOL0     H62646   3.795   7.579   9.182  2.2317 -1.7241 -0.8594
  454MOL0     H62647   3.637   7.501   9.126 -1.5096 -4.1871  0.8386
  454MOL0     H62648   3.923   7.185   9.096  1.7123  0.5689 -0.6954
  454MOL0     H62649   3.574   7.485   9.889 -0.1775  0.0571  0.9559
  454MOL0     H62650   3.704   7.590  10.213  1.1497  0.2696  0.2377
  454MOL0     H62651   3.574   7.498  10.147  0.3689  0.6020  0.5278
  454MOL0     H62652   3.720   7.412  10.187  0.7929  1.0592 -0.3111
  455MOL0     O62653   5.458   0.069   7.291  0.8291  0.0331 -0.2261
  455MOL0     C62654   5.550  -0.014   7.270  0.6137 -0.0544 -1.1013
  455MOL0     O62655   5.591  -0.057   7.144 -0.6940 -0.2594  0.6417
  455MOL0     C62656   5.601   0.036   7.038  0.6565 -0.7859 -0.4304
  455MOL0     C62657   5.511   0.031   6.928 -0.0642 -0.8156 -0.4125
  455MOL0     C62658   5.520   0.126   6.825  0.1779  0.4098  0.2287
  455MOL0     C62659   5.612   0.225   6.827  0.4800 -0.4456 -0.2343
  455MOL0     O62660   5.608   0.315   6.721  0.3795 -0.1792  0.0168
  455MOL0     C62661   5.691   0.433   6.719 -0.0248  0.8291 -0.5032
  455MOL0     C62662   5.709   0.491   6.573 -0.1161 -0.2349 -0.0707
  455MOL0     C62663   5.794   0.625   6.571  1.2645  0.9501  0.3752
  455MOL0     C62664   5.804   0.643   6.416  0.1873  0.1117  0.1024
  455MOL0     C62665   5.892   0.771   6.394  0.4724  0.2081  0.4688
  455MOL0     C62666   5.906   0.782   6.253 -0.6373  0.2218  0.6866
  455MOL0     C62667   6.021   0.870   6.215 -0.1129  0.3889 -0.1685
  455MOL0     C62668   6.066   0.848   6.064 -0.8562  0.4219 -0.4341
  455MOL0     N62669   5.957   0.830   5.966  0.3856  0.3688 -0.1993
  455MOL0     C62670   5.890   0.932   5.899  0.8453 -0.8504  0.0988
  455MOL0     C62671   5.802   0.865   5.827 -0.0547 -0.1325  1.0783
  455MOL0     C62672   5.704   0.918   5.733 -0.3141 -0.0211  0.2532
  455MOL0     C62673   5.775   0.953   5.600 -0.1483 -0.2457  0.5228
  455MOL0     C62674   5.683   0.938   5.476  0.1384  0.4153 -0.2462
  455MOL0     C62675   5.539   0.986   5.497 -0.5839  0.3190 -0.4154
  455MOL0     O62676   5.512   1.113   5.565  0.7005  0.0721  0.9405
  455MOL0     C62677   5.378   1.130   5.601  0.4251  0.6981 -0.1815
  455MOL0     C62678   5.268   1.059   5.537  0.1146  0.1077  0.3482
  455MOL0     C62679   5.138   1.093   5.572 -0.6407 -0.8261  0.2844
  455MOL0     C62680   5.024   1.016   5.507  0.2709 -0.8499  0.1590
  455MOL0     C62681   5.114   1.189   5.680  0.8071  0.2369 -0.3327
  455MOL0     C62682   4.976   1.219   5.729 -0.1060 -0.0521  0.3288
  455MOL0     O62683   4.881   1.122   5.757  0.0229 -0.7902  0.2649
  455MOL0     C62684   4.760   1.163   5.810  0.6464  0.0161 -0.0492
  455MOL0     C62685   4.661   1.218   5.729  0.4063 -0.2541 -0.0928
  455MOL0     C62686   4.546   1.264   5.798 -0.2624 -0.1289  0.6440
  455MOL0     C62687   4.524   1.251   5.927  0.4763 -0.5099 -0.5625
  455MOL0     O62688   4.399   1.299   5.970 -0.1665 -0.0318  0.2577
  455MOL0     C62689   4.341   1.246   6.084 -1.0254  0.1004  0.6810
  455MOL0     C62690   4.189   1.251   6.078  0.3008  0.3040 -0.5117
  455MOL0     C62691   4.130   1.208   5.942  0.5098 -0.5227  0.4186
  455MOL0     C62692   3.985   1.180   5.952  0.9696  0.5153 -0.7199
  455MOL0     C62693   3.888   1.302   5.965 -0.3437  0.1211 -0.5382
  455MOL0     C62694   3.735   1.262   5.974  0.7337 -0.3160 -0.4803
  455MOL0     C62695   3.636   1.388   5.990 -0.5870  0.4171 -0.3871
  455MOL0     C62696   3.495   1.377   5.923 -0.4453 -0.0790  0.2641
  455MOL0    Cl62697   3.502   1.364   5.757  0.5032  0.8967 -0.4011
  455MOL0     C62698   4.629   1.199   6.006 -0.8242  0.1055  0.0726
  455MOL0     C62699   4.748   1.160   5.950  0.2111  0.2045  0.1532
  455MOL0     O62700   4.961   1.340   5.742 -0.2504 -0.0116 -0.5751
  455MOL0     C62701   5.222   1.242   5.747 -0.1388  0.1426  0.3641
  455MOL0     C62702   5.349   1.227   5.689  0.1931 -0.4932 -1.4874
  455MOL0     N62703   5.815   0.731   5.832 -0.3691  1.4677 -1.2775
  455MOL0     N62704   5.902   0.709   5.932  0.4832  0.5512 -0.0660
  455MOL0     C62705   5.699   0.236   6.943  0.3317 -0.4327 -0.2876
  455MOL0     C62706   5.696   0.135   7.047 -0.4000  0.0542  0.9805
  455MOL0     C62707   5.606  -0.073   7.390  0.3792 -0.4797 -0.0694
  455MOL0     C62708   5.685   0.010   7.466 -0.1319 -0.0700 -0.4158
  455MOL0     C62709   5.735  -0.036   7.584  0.6494 -0.0232 -0.6330
  455MOL0     C62710   5.718  -0.160   7.631  1.3169 -0.2986 -0.1654
  455MOL0     O62711   5.746  -0.215   7.753 -0.3892  0.9090 -0.3248
  455MOL0     C62712   5.812  -0.133   7.856  0.1689  0.2554 -0.5705
  455MOL0     C62713   5.961  -0.130   7.822 -0.1541 -0.7832 -0.7567
  455MOL0     C62714   6.016  -0.264   7.837 -0.6645 -0.8555 -0.0057
  455MOL0     C62715   6.023  -0.315   7.996  0.1661  0.6702  0.2381
  455MOL0     C62716   6.127  -0.242   8.075  0.1541 -0.6199 -0.4042
  455MOL0     C62717   6.216  -0.199   8.143 -0.1489  0.1310 -1.0424
  455MOL0     C62718   5.637  -0.245   7.553  0.0321 -0.3187 -1.1166
  455MOL0     C62719   5.578  -0.205   7.436 -0.2460  0.0223 -0.3954
  455MOL0     C62720   5.493  -0.311   7.358 -0.1405 -0.1545 -0.2432
  455MOL0     H62721   5.437  -0.048   6.921  0.5542 -1.4505  0.0676
  455MOL0     H62722   5.465   0.120   6.732 -0.8668  0.4490  0.8254
  455MOL0     H62723   5.790   0.410   6.759  0.0068  2.0068  0.1437
  455MOL0     H62724   5.639   0.510   6.776  0.2717 -0.0428  1.0100
  455MOL0     H62725   5.738   0.415   6.501  2.8725  1.5209 -0.8786
  455MOL0     H62726   5.607   0.525   6.554 -0.5056 -2.0586 -1.4041
  455MOL0     H62727   5.745   0.706   6.626 -0.8844  0.4076 -0.6275
  455MOL0     H62728   5.892   0.603   6.613  0.6489 -1.2911  0.8073
  455MOL0     H62729   5.854   0.559   6.366 -0.9558  1.1985 -3.1301
  455MOL0     H62730   5.704   0.658   6.375 -0.1776  2.7416  1.7171
  455MOL0     H62731   5.987   0.774   6.449  0.5384  0.4833  0.3416
  455MOL0     H62732   5.832   0.853   6.435 -2.1737 -1.2212 -0.2559
  455MOL0     H62733   5.930   0.688   6.202  0.3455  0.4782  0.6564
  455MOL0     H62734   5.810   0.812   6.211 -0.5896 -1.0609 -0.4392
  455MOL0     H62735   6.111   0.848   6.274  0.5269 -1.3257 -1.6888
  455MOL0     H62736   5.992   0.974   6.234 -0.9619 -0.0972  1.3693
  455MOL0     H62737   6.126   0.934   6.034 -2.0826  1.8298  0.9644
  455MOL0     H62738   6.130   0.759   6.067 -0.6309  0.5262 -1.5356
  455MOL0     H62739   5.901   1.038   5.921 -1.3673 -0.8053  1.3016
  455MOL0     H62740   5.644   0.999   5.777 -2.6386 -0.8772 -1.1827
  455MOL0     H62741   5.636   0.833   5.726 -1.2865  0.5722  1.7726
  455MOL0     H62742   5.832   1.047   5.598  1.7877 -1.3507 -1.8633
  455MOL0     H62743   5.853   0.877   5.587 -0.7713 -0.5018 -2.3961
  455MOL0     H62744   5.736   0.983   5.392  0.9201 -0.5951 -0.3133
  455MOL0     H62745   5.664   0.832   5.453 -0.6085  0.4681  0.0875
  455MOL0     H62746   5.476   0.973   5.408 -0.7583  2.5121 -0.6666
  455MOL0     H62747   5.510   0.914   5.574  1.3729 -1.2258 -1.0197
  455MOL0     H62748   5.265   0.985   5.458 -0.0236  1.8420 -1.3325
  455MOL0     H62749   4.965   0.955   5.575 -0.1913 -0.5911 -0.0019
  455MOL0     H62750   5.050   0.967   5.412 -0.8865  1.4707 -1.4568
  455MOL0     H62751   4.952   1.095   5.483 -0.7119 -2.1353 -1.3093
  455MOL0     H62752   4.669   1.222   5.621 -0.2904 -2.1329 -0.2481
  455MOL0     H62753   4.481   1.313   5.725  0.4039  2.7827  1.8392
  455MOL0     H62754   4.374   1.142   6.092  2.7720  1.0848 -0.1724
  455MOL0     H62755   4.364   1.304   6.174 -2.7304 -1.7870  2.4684
  455MOL0     H62756   4.153   1.195   6.165  3.6459  1.7251  2.0290
  455MOL0     H62757   4.148   1.351   6.089 -2.8818 -0.8522 -0.9618
  455MOL0     H62758   4.191   1.124   5.906 -0.2135 -0.6365 -0.5910
  455MOL0     H62759   4.139   1.281   5.861  1.4846 -0.1512  0.8435
  455MOL0     H62760   3.975   1.117   6.042 -0.0507 -1.2879 -2.0118
  455MOL0     H62761   3.948   1.118   5.870 -0.3964 -0.9758  0.9245
  455MOL0     H62762   3.924   1.364   6.047 -1.5645 -2.0315  1.7551
  455MOL0     H62763   3.897   1.365   5.875  3.6570 -1.5105 -1.5013
  455MOL0     H62764   3.715   1.191   6.054  0.1686 -2.0931 -2.1126
  455MOL0     H62765   3.702   1.210   5.883  0.3128  0.5963 -0.8625
  455MOL0     H62766   3.686   1.460   5.925  2.1938 -3.3195 -2.8434
  455MOL0     H62767   3.639   1.421   6.094 -1.7967 -1.7991  0.4111
  455MOL0     H62768   3.433   1.464   5.945 -0.2463 -0.4081  2.3086
  455MOL0     H62769   3.444   1.285   5.955 -2.5320  0.7382 -0.5616
  455MOL0     H62770   4.615   1.208   6.114  0.8209 -1.9434  0.5239
  455MOL0     H62771   4.833   1.124   6.006  0.3523 -1.8524 -1.2454
  455MOL0     H62772   5.212   1.305   5.834  0.7971 -0.3267  0.8324
  455MOL0     H62773   5.438   1.272   5.730  1.0227 -1.9511 -1.6269
  455MOL0     H62774   5.782   0.305   6.950 -0.1743  0.3009 -1.4065
  455MOL0     H62775   5.766   0.129   7.130 -1.1920 -0.4676  1.6303
  455MOL0     H62776   5.698   0.114   7.439 -1.2930  0.6099  1.4459
  455MOL0     H62777   5.791   0.032   7.648  0.3092 -1.0319  0.7880
  455MOL0     H62778   5.758  -0.039   7.865  1.2811  0.9893 -1.3195
  455MOL0     H62779   5.799  -0.180   7.954 -0.1396  0.2481 -0.6153
  455MOL0     H62780   6.003  -0.061   7.895 -0.7766 -1.5389  0.3470
  455MOL0     H62781   5.988  -0.109   7.718  0.6708  1.6701 -0.1067
  455MOL0     H62782   5.970  -0.345   7.780  2.0030 -2.3802 -0.1486
  455MOL0     H62783   6.117  -0.263   7.795 -0.3953 -1.6397  0.5986
  455MOL0     H62784   6.035  -0.423   7.997  1.0368  0.7460 -0.4944
  455MOL0     H62785   5.928  -0.300   8.049  1.8211  0.6499  3.4139
  455MOL0     H62786   6.308  -0.162   8.185 -0.8500 -1.3896  2.1426
  455MOL0     H62787   5.612  -0.345   7.587 -0.9299  0.1251 -0.4507
  455MOL0     H62788   5.409  -0.346   7.418  0.5695 -3.0142 -0.7632
  455MOL0     H62789   5.467  -0.274   7.259  1.6011  0.0602 -0.6552
  455MOL0     H62790   5.555  -0.398   7.332  0.9454  0.1943  1.0273
  456MOL0     O62791   7.075   9.000   0.114 -0.3220 -0.3657  0.0016
  456MOL0     C62792   7.087   8.881   0.122 -1.1374 -0.4858 -0.5950
  456MOL0     O62793   7.206   8.824   0.148 -0.3637 -0.0224  0.1268
  456MOL0     C62794   7.314   8.900   0.196  0.6995  0.3839  0.0373
  456MOL0     C62795   7.381   8.862   0.315 -0.5266  0.6591  0.5991
  456MOL0     C62796   7.507   8.902   0.345  0.8644 -0.5247  0.6983
  456MOL0     C62797   7.568   8.996   0.263  0.5962 -0.5712 -0.0746
  456MOL0     O62798   7.692   9.030   0.302 -0.2938  0.0675  0.2177
  456MOL0     C62799   7.747   9.163   0.252 -0.4477  0.3396  0.0128
  456MOL0     C62800   7.870   9.205   0.356  0.7306  0.1299  0.4143
  456MOL0     C62801   7.995   9.135   0.300  0.0330  0.8531 -0.3542
  456MOL0     C62802   8.128   9.202   0.338 -0.3523  0.8161 -0.5478
  456MOL0     C62803   8.156   9.192   0.490  0.4696 -0.5259 -0.1444
  456MOL0     C62804   8.297   9.259   0.510  0.6216  0.0765  0.2489
  456MOL0     C62805   8.347   9.257   0.651 -0.0262 -0.3575  0.7166
  456MOL0     C62806   8.276   9.368   0.736  0.7848 -0.8857 -0.5381
  456MOL0     N62807   8.333   9.494   0.689  0.0304 -0.8384  0.6946
  456MOL0     C62808   8.430   9.562   0.759  0.1888 -1.0435  0.2903
  456MOL0     C62809   8.435   9.691   0.699  0.1893  0.5721 -0.0971
  456MOL0     C62810   8.529   9.794   0.746 -0.1016 -0.4263  0.4934
  456MOL0     C62811   8.512   9.929   0.667 -0.2367 -0.3235 -0.6726
  456MOL0     C62812   8.591  10.037   0.739  1.0332 -0.1602 -0.0143
  456MOL0     C62813   8.595  10.176   0.672  0.7279 -0.0754 -0.3009
  456MOL0     O62814   8.659  10.266   0.759  0.5993  0.3091  0.2860
  456MOL0     C62815   8.622  10.397   0.749  0.1884 -0.1901  0.0633
  456MOL0     C62816   8.579  10.465   0.634 -0.5007  0.3576 -0.4633
  456MOL0     C62817   8.557  10.597   0.624  0.0781  0.3382 -0.0354
  456MOL0     C62818   8.510  10.650   0.479  0.1464  0.5089  0.8329
  456MOL0     C62819   8.556  10.676   0.741 -0.3167  0.6347  0.3854
  456MOL0     C62820   8.495  10.805   0.763 -0.7997 -0.4018 -0.2516
  456MOL0     O62821   8.393  10.826   0.673 -0.2812 -0.2549  0.1079
  456MOL0     C62822   8.317  10.942   0.671 -0.7249  0.7222  0.7022
  456MOL0     C62823   8.271  10.986   0.545  0.4329  0.2847 -0.7797
  456MOL0     C62824   8.172  11.087   0.541  1.1898  0.0226  0.1906
  456MOL0     C62825   8.111  11.127   0.663  0.1407 -0.0155 -0.0515
  456MOL0     O62826   8.004  11.218   0.672 -0.7031  1.1563 -0.3665
  456MOL0     C62827   7.973  11.307   0.559 -0.7821  0.4171  0.0064
  456MOL0     C62828   7.922  11.442   0.611  0.5464  0.1626 -0.3854
  456MOL0     C62829   8.044  11.520   0.672 -0.0455 -0.2688  0.6707
  456MOL0     C62830   8.017  11.643   0.753  0.0021 -0.7254 -0.6288
  456MOL0     C62831   7.943  11.598   0.880  0.1269  0.1090 -0.9349
  456MOL0     C62832   8.016  11.498   0.969  0.2346  0.8746  0.3484
  456MOL0     C62833   7.981  11.520   1.116 -0.1565  0.0308 -0.6465
  456MOL0     C62834   7.842  11.487   1.150 -0.0803 -0.0289 -0.4514
  456MOL0    Cl62835   7.848  11.463   1.327  0.1204 -0.3411  0.3298
  456MOL0     C62836   8.156  11.078   0.785  0.1041 -0.3118  0.5458
  456MOL0     C62837   8.260  10.991   0.791 -0.8245  0.3949 -0.1880
  456MOL0     O62838   8.528  10.877   0.847  0.5373 -0.1569  0.5855
  456MOL0     C62839   8.616  10.613   0.855  0.2239  0.0134 -0.2151
  456MOL0     C62840   8.646  10.477   0.859 -0.3413 -0.6910 -0.1848
  456MOL0     N62841   8.324   9.685   0.612 -0.1905  0.4701  0.1938
  456MOL0     N62842   8.273   9.574   0.592 -0.6064 -1.0599 -0.2212
  456MOL0     C62843   7.499   9.052   0.156  0.6925  0.0519  0.3546
  456MOL0     C62844   7.368   9.003   0.117 -0.3235 -1.0278  0.5408
  456MOL0     C62845   6.974   8.786   0.109  0.6291  0.4590 -0.0747
  456MOL0     C62846   6.845   8.845   0.116  0.4826 -0.4541  0.1310
  456MOL0     C62847   6.722   8.769   0.123 -0.0693 -0.2000 -0.7283
  456MOL0     C62848   6.728   8.636   0.112  0.0188  0.0624 -0.3553
  456MOL0     O62849   6.619   8.548   0.115  0.1493 -0.3831 -0.7493
  456MOL0     C62850   6.479   8.589   0.102 -0.3414  0.0086 -0.1202
  456MOL0     C62851   6.401   8.500   0.192  0.0577  0.5859  0.4968
  456MOL0     C62852   6.254   8.521   0.171  0.5007  0.2857  1.5188
  456MOL0     C62853   6.175   8.429   0.263 -0.0343  0.3247 -0.0084
  456MOL0     C62854   6.035   8.421   0.231  0.1949 -1.0588  0.5700
  456MOL0     C62855   5.923   8.420   0.189  0.3165  0.2714  0.9848
  456MOL0     C62856   6.852   8.573   0.105 -0.1569 -0.2768  0.4781
  456MOL0     C62857   6.978   8.642   0.106  0.6623  0.1554 -0.2701
  456MOL0     C62858   7.104   8.560   0.109  0.5682 -0.3670  0.3372
  456MOL0     H62859   7.343   8.773   0.365 -0.2721 -1.4673 -2.6852
  456MOL0     H62860   7.553   8.855   0.431 -0.8877 -0.9209  1.4605
  456MOL0     H62861   7.662   9.231   0.266 -0.4447  0.0460  1.7436
  456MOL0     H62862   7.784   9.161   0.149  0.3648  0.4102  0.2966
  456MOL0     H62863   7.885   9.314   0.357  0.7729  0.1326 -0.3676
  456MOL0     H62864   7.852   9.163   0.455  0.5440  2.1326  1.2778
  456MOL0     H62865   7.996   9.027   0.316 -1.5694  1.2119  2.9380
  456MOL0     H62866   7.990   9.135   0.191  1.4218  0.9469 -0.4301
  456MOL0     H62867   8.207   9.140   0.293  1.2533  1.5696  1.0943
  456MOL0     H62868   8.141   9.304   0.303  1.5381  0.3316 -1.3796
  456MOL0     H62869   8.168   9.088   0.523  0.2857 -0.6408 -0.4334
  456MOL0     H62870   8.083   9.245   0.552 -0.7931 -2.6813  0.3431
  456MOL0     H62871   8.366   9.199   0.449 -2.1052 -2.4061 -0.6145
  456MOL0     H62872   8.287   9.363   0.477 -0.8901 -0.0251  0.3250
  456MOL0     H62873   8.454   9.274   0.665 -0.0855  0.4194  0.2775
  456MOL0     H62874   8.311   9.158   0.680 -1.3053 -0.1296 -0.0165
  456MOL0     H62875   8.171   9.375   0.705  0.8813  1.1626 -0.5045
  456MOL0     H62876   8.293   9.340   0.840  1.0028 -2.2833 -0.9304
  456MOL0     H62877   8.483   9.526   0.846  0.3488  0.9431  1.0763
  456MOL0     H62878   8.636   9.772   0.752  0.2168  1.3585  3.8766
  456MOL0     H62879   8.497   9.822   0.847 -0.2999 -2.6692  1.0967
  456MOL0     H62880   8.554   9.915   0.567  1.1209 -0.0143 -0.1618
  456MOL0     H62881   8.410   9.967   0.660 -0.2977 -0.4454 -0.4381
  456MOL0     H62882   8.547  10.047   0.838  0.4796  0.3309 -0.3038
  456MOL0     H62883   8.694  10.001   0.749  0.7484 -1.3090 -1.0284
  456MOL0     H62884   8.644  10.172   0.574 -0.2266 -1.9786 -0.7486
  456MOL0     H62885   8.491  10.207   0.658  0.8670  0.1781 -0.7915
  456MOL0     H62886   8.577  10.401   0.547 -0.2485 -0.5359  0.1726
  456MOL0     H62887   8.402  10.641   0.467  0.2516  1.6657 -1.2655
  456MOL0     H62888   8.559  10.590   0.402  0.2472  0.3917  0.9855
  456MOL0     H62889   8.535  10.754   0.456 -2.8390  0.9655 -0.8118
  456MOL0     H62890   8.304  10.940   0.452  1.2804 -3.1819  1.0902
  456MOL0     H62891   8.134  11.125   0.446  0.2670 -0.7434  0.2426
  456MOL0     H62892   8.060  11.324   0.495  0.5068  0.1924  1.6035
  456MOL0     H62893   7.888  11.269   0.503 -2.2452  2.4551  0.7142
  456MOL0     H62894   7.874  11.507   0.538  1.1218  1.0168 -0.0117
  456MOL0     H62895   7.852  11.418   0.691 -1.4009  0.4062 -1.9557
  456MOL0     H62896   8.100  11.550   0.583 -2.0348 -3.2346 -1.7908
  456MOL0     H62897   8.107  11.447   0.723 -0.0494 -0.3545  0.5528
  456MOL0     H62898   7.965  11.718   0.692  1.1648  1.6841  1.1582
  456MOL0     H62899   8.108  11.700   0.775 -0.9836  1.5057 -1.9979
  456MOL0     H62900   7.926  11.691   0.935  2.7177 -0.6841  1.4249
  456MOL0     H62901   7.841  11.562   0.862 -0.9293  1.6737  1.3241
  456MOL0     H62902   8.122  11.498   0.942  0.0356  0.6632 -0.4792
  456MOL0     H62903   7.982  11.395   0.955  2.3591  0.1438  0.1800
  456MOL0     H62904   7.992  11.626   1.138 -1.2724  0.3888 -1.7260
  456MOL0     H62905   8.052  11.456   1.171  3.1412  1.2522 -3.1126
  456MOL0     H62906   7.794  11.401   1.104  1.9598 -1.5737  0.1941
  456MOL0     H62907   7.772  11.564   1.118 -1.3512 -1.8290 -2.2027
  456MOL0     H62908   8.108  11.119   0.873 -1.1528  0.3040 -0.4021
  456MOL0     H62909   8.287  10.956   0.891  0.9871 -2.0465 -1.4305
  456MOL0     H62910   8.614  10.661   0.952 -3.7854 -0.3597  0.0876
  456MOL0     H62911   8.713  10.440   0.936  0.9256  2.3030  0.2566
  456MOL0     H62912   7.546   9.134   0.102 -1.3420  1.9574  1.3534
  456MOL0     H62913   7.317   9.038   0.028 -0.7122 -0.5162  0.9594
  456MOL0     H62914   6.854   8.952   0.102 -0.5223 -0.6093 -2.1435
  456MOL0     H62915   6.624   8.815   0.123 -0.6318 -1.1996  2.0929
  456MOL0     H62916   6.470   8.693   0.133  1.5062  1.4361 -3.7638
  456MOL0     H62917   6.448   8.584  -0.003 -3.7699 -0.6169  0.8184
  456MOL0     H62918   6.432   8.502   0.297  3.3159 -1.0491 -0.2952
  456MOL0     H62919   6.424   8.401   0.151  2.0986  1.3496 -0.3288
  456MOL0     H62920   6.231   8.624   0.198 -2.1255  0.9576 -2.4574
  456MOL0     H62921   6.221   8.505   0.068  0.8265  2.8053  0.9644
  456MOL0     H62922   6.190   8.456   0.367  2.8063  1.5667 -0.6393
  456MOL0     H62923   6.215   8.327   0.263  0.7537  0.4429  4.4071
  456MOL0     H62924   5.819   8.419   0.164  0.6790  1.4225 -0.7477
  456MOL0     H62925   6.844   8.465   0.096 -1.1417 -0.0320 -3.8927
  456MOL0     H62926   7.184   8.588   0.039 -0.5610 -2.9257 -2.1938
  456MOL0     H62927   7.148   8.575   0.208  2.7943  1.6649 -0.8526
  456MOL0     H62928   7.072   8.456   0.103 -1.8648  0.3241  0.3804
  457MOL0     O62929   3.827   1.744   4.405  0.2379  0.6880  0.1457
  457MOL0     C62930   3.750   1.773   4.499 -0.1868  0.3339  0.1523
  457MOL0     O62931   3.772   1.761   4.629 -0.5475  0.3505 -0.1258
  457MOL0     C62932   3.895   1.723   4.676  0.2460  0.7008  0.7400
  457MOL0     C62933   3.926   1.586   4.681  1.1876 -0.0761  0.4353
  457MOL0     C62934   4.055   1.546   4.742 -0.7807  0.3292 -0.2924
  457MOL0     C62935   4.150   1.636   4.792  0.5051 -0.4199  0.4001
  457MOL0     O62936   4.266   1.595   4.844 -0.0303 -0.6017 -0.6015
  457MOL0     C62937   4.356   1.700   4.898 -0.5960 -0.8293 -0.6316
  457MOL0     C62938   4.495   1.639   4.930  0.0568 -0.4123  0.5427
  457MOL0     C62939   4.610   1.747   4.914  0.6599  0.1835  0.0155
  457MOL0     C62940   4.741   1.680   4.949 -0.3113 -0.6646  0.5973
  457MOL0     C62941   4.833   1.783   5.002  0.8982 -0.6093 -0.2359
  457MOL0     C62942   4.975   1.729   5.028  0.0866  0.1141  0.6425
  457MOL0     C62943   5.052   1.738   4.898 -0.8892  0.1474  0.1024
  457MOL0     C62944   5.155   1.848   4.905 -0.0776  0.4489  0.3522
  457MOL0     N62945   5.252   1.818   5.005  0.4596  0.4870  0.0510
  457MOL0     C62946   5.263   1.880   5.129 -0.1763  1.2137 -0.1988
  457MOL0     C62947   5.389   1.846   5.169 -0.0666  0.6042 -0.0180
  457MOL0     C62948   5.455   1.890   5.292  0.2602  0.2029  0.0965
  457MOL0     C62949   5.573   1.978   5.247  0.2348  0.0232 -0.2927
  457MOL0     C62950   5.655   2.052   5.357  0.5016 -0.1402 -0.4417
  457MOL0     C62951   5.755   1.968   5.439  0.5585 -0.2732 -0.3902
  457MOL0     O62952   5.679   1.852   5.502  0.1771  0.1934  0.0215
  457MOL0     C62953   5.758   1.749   5.534 -0.0920 -1.0535  0.4893
  457MOL0     C62954   5.699   1.629   5.514 -0.6233  0.0901  0.1371
  457MOL0     C62955   5.766   1.502   5.529 -0.1384 -0.0178  0.0300
  457MOL0     C62956   5.691   1.384   5.515  0.3151 -0.1263  0.8177
  457MOL0     C62957   5.902   1.508   5.571 -0.5033 -0.6587  1.3631
  457MOL0     C62958   5.997   1.388   5.573 -0.3468 -0.0626  0.0969
  457MOL0     O62959   6.110   1.401   5.656  0.8422  0.4867 -0.7790
  457MOL0     C62960   6.186   1.293   5.693  0.3511 -0.4086  0.0521
  457MOL0     C62961   6.158   1.159   5.675  0.2162  0.6611  0.0032
  457MOL0     C62962   6.246   1.056   5.725  0.4904  0.2926 -0.0588
  457MOL0     C62963   6.362   1.091   5.786  0.0814 -0.1407 -0.2716
  457MOL0     O62964   6.460   0.997   5.820 -0.1310 -0.1229  0.4279
  457MOL0     C62965   6.435   0.872   5.885  0.1432  0.1639 -0.6218
  457MOL0     C62966   6.517   0.850   6.015  0.0664  0.1670  0.2522
  457MOL0     C62967   6.486   0.959   6.114 -0.5042 -0.6821 -0.0729
  457MOL0     C62968   6.580   0.930   6.234 -0.9323  0.4106  1.1041
  457MOL0     C62969   6.538   0.994   6.367  1.0436  0.0183 -0.0716
  457MOL0     C62970   6.634   0.988   6.483  1.0650  0.5280  0.2568
  457MOL0     C62971   6.579   1.061   6.608  1.0149 -0.5373 -0.2276
  457MOL0     C62972   6.600   1.014   6.746  0.8391  0.0067 -0.3120
  457MOL0    Cl62973   6.769   1.010   6.806 -0.2245 -0.1629  0.3653
  457MOL0     C62974   6.401   1.229   5.802  0.0177  0.2921  0.7162
  457MOL0     C62975   6.315   1.331   5.753  0.4814 -0.0151  0.3720
  457MOL0     O62976   5.966   1.291   5.505  0.2218  0.2156  0.3845
  457MOL0     C62977   5.955   1.633   5.599 -0.2148 -0.1392 -0.5791
  457MOL0     C62978   5.883   1.756   5.579 -0.2965  0.6959 -0.9356
  457MOL0     N62979   5.431   1.748   5.084  0.6027 -0.4681  0.4571
  457MOL0     N62980   5.356   1.733   4.985  0.7205 -0.2804 -0.4538
  457MOL0     C62981   4.115   1.771   4.778 -0.4002 -0.8372  1.0772
  457MOL0     C62982   4.003   1.813   4.705 -0.6110 -0.5342 -0.6321
  457MOL0     C62983   3.609   1.820   4.457 -0.1770  0.2042  0.1065
  457MOL0     C62984   3.558   1.804   4.325 -0.1997 -0.2681 -0.1384
  457MOL0     C62985   3.429   1.834   4.283 -0.0041  0.3867  0.0588
  457MOL0     C62986   3.346   1.886   4.376 -0.1900  0.1237 -0.4332
  457MOL0     O62987   3.216   1.916   4.360  0.2383 -0.5908 -0.2311
  457MOL0     C62988   3.135   1.801   4.398  0.6352  0.7047  0.0660
  457MOL0     C62989   3.044   1.770   4.285 -0.0005  0.2952  0.0566
  457MOL0     C62990   2.954   1.662   4.331 -0.1579  0.5215 -0.2291
  457MOL0     C62991   2.855   1.613   4.222 -0.1917  1.1490 -0.0360
  457MOL0     C62992   2.751   1.710   4.207  1.0422  0.1512  0.1597
  457MOL0     C62993   2.672   1.799   4.190  0.5468  0.5839  0.2078
  457MOL0     C62994   3.386   1.915   4.504  0.2314 -0.4366 -0.2512
  457MOL0     C62995   3.515   1.892   4.548  0.1089  0.6224  0.9851
  457MOL0     C62996   3.557   1.941   4.691  0.3534  0.0292  0.1272
  457MOL0     H62997   3.855   1.516   4.639  0.0913  0.5807  1.1471
  457MOL0     H62998   4.074   1.440   4.754 -3.3180 -0.6408 -3.3345
  457MOL0     H62999   4.308   1.733   4.991 -4.4734 -1.9300 -2.0354
  457MOL0     H63000   4.379   1.785   4.834  0.2065  0.4994  1.3123
  457MOL0     H63001   4.503   1.594   5.030  1.0602 -2.7953 -0.5486
  457MOL0     H63002   4.504   1.561   4.855 -2.3647  1.2304 -1.6243
  457MOL0     H63003   4.618   1.795   4.816 -0.2884  1.4756  0.5362
  457MOL0     H63004   4.596   1.834   4.979  0.1425 -1.0415  1.6042
  457MOL0     H63005   4.721   1.597   5.018 -0.8991  0.6860  2.1068
  457MOL0     H63006   4.783   1.651   4.852 -0.7006  0.6885 -0.0004
  457MOL0     H63007   4.783   1.818   5.092 -1.3856 -2.2758 -0.7806
  457MOL0     H63008   4.846   1.871   4.938 -0.6582 -0.4201 -0.3213
  457MOL0     H63009   5.014   1.787   5.112 -2.5252 -0.3912  2.3065
  457MOL0     H63010   4.967   1.626   5.062  0.2547  0.0439  0.4706
  457MOL0     H63011   4.978   1.742   4.817  1.6822 -1.2257 -2.5012
  457MOL0     H63012   5.106   1.643   4.891  1.0600  1.2064  0.3002
  457MOL0     H63013   5.212   1.867   4.814 -1.0187 -1.5375 -0.7149
  457MOL0     H63014   5.092   1.935   4.923 -3.0291 -0.8949 -2.4621
  457MOL0     H63015   5.205   1.956   5.179 -0.2333  0.3102  1.1676
  457MOL0     H63016   5.491   1.807   5.353  2.8286 -0.0619 -1.6351
  457MOL0     H63017   5.387   1.951   5.353  0.9305  0.3389  0.7219
  457MOL0     H63018   5.634   1.926   5.173  0.4673  2.7161 -2.1776
  457MOL0     H63019   5.534   2.060   5.185  2.2645  0.8046 -0.6085
  457MOL0     H63020   5.714   2.131   5.309 -0.2337  1.5832  1.3392
  457MOL0     H63021   5.581   2.089   5.429 -0.3873  0.0400 -1.4198
  457MOL0     H63022   5.839   1.935   5.378  0.7829 -1.4047  0.4814
  457MOL0     H63023   5.792   2.035   5.518 -1.0069 -1.4340  1.4271
  457MOL0     H63024   5.600   1.631   5.469 -0.4002 -0.2954 -0.3855
  457MOL0     H63025   5.585   1.411   5.510  0.2453 -0.4489  0.5165
  457MOL0     H63026   5.708   1.323   5.604 -0.4282 -1.5530  0.0047
  457MOL0     H63027   5.723   1.340   5.420 -1.9687  2.8960 -1.6000
  457MOL0     H63028   6.060   1.126   5.644  0.9454 -0.6611 -1.0232
  457MOL0     H63029   6.219   0.951   5.714  2.4769 -0.0664 -2.1485
  457MOL0     H63030   6.332   0.836   5.894  0.7230 -2.5919 -3.2449
  457MOL0     H63031   6.480   0.804   5.812 -0.5955  0.1993 -1.1239
  457MOL0     H63032   6.506   0.749   6.055  0.9482  0.1809  0.5437
  457MOL0     H63033   6.621   0.867   5.986 -0.8414  2.5117 -2.0904
  457MOL0     H63034   6.378   0.961   6.131 -0.3714  1.5388  0.6968
  457MOL0     H63035   6.520   1.054   6.073 -2.4066  0.9082  1.8036
  457MOL0     H63036   6.683   0.960   6.216 -1.1758  0.8569  0.4207
  457MOL0     H63037   6.596   0.822   6.243 -0.1515  0.4621  0.4632
  457MOL0     H63038   6.515   1.099   6.347 -0.1057 -0.1268  0.4441
  457MOL0     H63039   6.452   0.936   6.400 -0.8120  2.4430 -0.4098
  457MOL0     H63040   6.731   1.033   6.462  1.3132  0.1907  0.6540
  457MOL0     H63041   6.657   0.884   6.506  2.0570  1.1224  2.1596
  457MOL0     H63042   6.471   1.068   6.595  0.9170 -1.4924  0.0149
  457MOL0     H63043   6.611   1.166   6.606 -1.5143  0.3409  1.3108
  457MOL0     H63044   6.551   0.918   6.766 -0.8306  1.3557  2.8416
  457MOL0     H63045   6.559   1.092   6.811 -1.4100  0.1293 -1.7502
  457MOL0     H63046   6.496   1.264   5.842 -0.4759  1.4432  0.9138
  457MOL0     H63047   6.353   1.432   5.754 -3.4305  1.6684 -1.0038
  457MOL0     H63048   6.054   1.663   5.635  0.2575 -1.8232 -0.3995
  457MOL0     H63049   5.929   1.852   5.598 -0.1843  0.1529  1.8769
  457MOL0     H63050   4.177   1.857   4.804 -1.5677  0.4044 -0.0609
  457MOL0     H63051   3.976   1.910   4.666 -0.3549 -1.3989 -3.0892
  457MOL0     H63052   3.626   1.763   4.251 -1.6006  0.2045 -1.7606
  457MOL0     H63053   3.394   1.821   4.180 -1.4583 -0.0786  0.5750
  457MOL0     H63054   3.196   1.712   4.416  1.2764  0.5359 -2.5278
  457MOL0     H63055   3.073   1.829   4.484 -1.4161  2.3601 -1.8532
  457MOL0     H63056   3.110   1.743   4.202  0.4242  1.2662  0.0548
  457MOL0     H63057   2.976   1.849   4.255 -1.1578 -1.4612 -2.1948
  457MOL0     H63058   3.014   1.573   4.352 -1.6844 -0.7022 -0.8747
  457MOL0     H63059   2.889   1.676   4.417 -4.0040 -3.2741 -2.1672
  457MOL0     H63060   2.811   1.518   4.256  0.4771 -0.3065 -2.9280
  457MOL0     H63061   2.903   1.598   4.125  0.8280 -3.2828  0.8998
  457MOL0     H63062   2.603   1.877   4.166 -1.4605 -1.1567  0.1300
  457MOL0     H63063   3.313   1.962   4.568  0.7701  0.0598  0.0059
  457MOL0     H63064   3.487   2.017   4.727 -0.2484 -2.0809  3.8775
  457MOL0     H63065   3.570   1.864   4.767 -0.4012  1.2367  1.5326
  457MOL0     H63066   3.656   1.987   4.690  0.6182 -0.5330  0.5329
  458MOL0     O63067  10.501   2.072   7.029  0.0995  0.3809 -0.2472
  458MOL0     C63068  10.405   2.069   6.943 -0.2840 -0.1561 -1.0665
  458MOL0     O63069  10.310   1.977   6.926  0.3171  0.0101 -0.0187
  458MOL0     C63070  10.327   1.858   6.998 -1.3363  0.4548  0.1920
  458MOL0     C63071  10.251   1.836   7.109  0.0517  0.4722 -0.8197
  458MOL0     C63072  10.266   1.715   7.180 -0.4045  0.3297 -0.3199
  458MOL0     C63073  10.354   1.616   7.132 -0.2423  0.1444 -0.1929
  458MOL0     O63074  10.356   1.498   7.211 -0.5654  0.3115  1.0531
  458MOL0     C63075  10.486   1.458   7.258  0.5134 -0.3155 -0.8152
  458MOL0     C63076  10.474   1.342   7.355  0.9877  0.6943  1.0227
  458MOL0     C63077  10.445   1.202   7.286  0.0921 -0.8895  0.5886
  458MOL0     C63078  10.407   1.077   7.385  0.3241  0.2737 -0.6834
  458MOL0     C63079  10.438   0.948   7.312  0.8370  0.1036  0.7194
  458MOL0     C63080  10.345   0.939   7.186  1.4155 -0.2460 -0.1549
  458MOL0     C63081  10.331   0.804   7.130 -1.0311  0.7442 -0.3267
  458MOL0     C63082  10.242   0.713   7.220  0.4125 -0.2070 -0.2187
  458MOL0     N63083  10.200   0.588   7.145 -0.5922  0.7541 -0.1626
  458MOL0     C63084  10.264   0.468   7.149 -0.4366  1.0047  0.9482
  458MOL0     C63085  10.183   0.392   7.063 -1.2599 -0.8674 -0.3988
  458MOL0     C63086  10.190   0.246   7.044 -0.2275  0.2974  0.4602
  458MOL0     C63087  10.226   0.220   6.902 -0.0250 -0.5544  0.9715
  458MOL0     C63088  10.268   0.070   6.891  0.0106 -0.2001  0.1913
  458MOL0     C63089  10.299   0.046   6.739 -0.5669  0.2361 -0.9909
  458MOL0     O63090  10.420   0.117   6.704  0.0973  0.6427  0.3012
  458MOL0     C63091  10.541   0.071   6.740 -1.5115  0.2171 -0.7283
  458MOL0     C63092  10.642   0.171   6.732 -0.6856  0.4343  0.1665
  458MOL0     C63093  10.778   0.147   6.768 -0.6616  0.9792 -0.7364
  458MOL0     C63094  10.871   0.255   6.751 -0.3572  0.4651  0.7258
  458MOL0     C63095  10.813   0.020   6.826 -0.2278 -0.2485 -0.0962
  458MOL0     C63096  10.941  -0.014   6.884  0.4824 -0.7157  0.2968
  458MOL0     O63097  10.978  -0.142   6.882 -0.1516  0.2232  0.4855
  458MOL0     C63098  11.098  -0.175   6.925  0.5861  0.8272 -0.2547
  458MOL0     C63099  11.214  -0.137   6.853  0.0466 -0.4336 -0.0827
  458MOL0     C63100  11.345  -0.181   6.886  0.6069 -0.5951 -0.4436
  458MOL0     C63101  11.362  -0.262   7.004  0.2251 -0.2818  0.0383
  458MOL0     O63102  11.483  -0.300   7.050 -0.2135  0.9465 -0.4148
  458MOL0     C63103  11.596  -0.285   6.955 -0.3125  0.6325  0.9703
  458MOL0     C63104  11.720  -0.329   7.029 -0.2781 -0.5896 -0.3023
  458MOL0     C63105  11.744  -0.260   7.172  0.1121  0.2394  0.1744
  458MOL0     C63106  11.885  -0.290   7.226  0.2254  1.0866 -0.0152
  458MOL0     C63107  11.899  -0.260   7.366 -0.2639  0.1108 -1.0995
  458MOL0     C63108  12.049  -0.278   7.414  0.0603 -0.7197  0.2872
  458MOL0     C63109  12.058  -0.221   7.559 -0.8836 -0.3592 -0.4912
  458MOL0     C63110  12.196  -0.258   7.622 -0.1938 -0.4805  0.5225
  458MOL0    Cl63111  12.239  -0.174   7.788  0.0598 -0.6374  0.2491
  458MOL0     C63112  11.249  -0.279   7.085 -0.6650 -0.6567 -0.7270
  458MOL0     C63113  11.119  -0.244   7.047  0.1503  0.4826  0.0092
  458MOL0     O63114  10.996   0.075   6.953  0.0395 -0.0183  0.3490
  458MOL0     C63115  10.706  -0.071   6.835  0.1277 -0.8050  1.0168
  458MOL0     C63116  10.578  -0.053   6.790 -0.1112  0.4072 -0.4671
  458MOL0     N63117  10.090   0.475   7.000 -0.3547  0.3943 -0.1304
  458MOL0     N63118  10.117   0.594   7.038 -0.0882 -0.2570  0.7475
  458MOL0     C63119  10.435   1.643   7.026 -0.8187 -0.3979  0.9349
  458MOL0     C63120  10.416   1.761   6.949  0.6943  0.4997  0.3915
  458MOL0     C63121  10.439   2.183   6.844 -0.4073 -0.6163  0.0587
  458MOL0     C63122  10.556   2.178   6.766  0.1065  0.4962 -0.2892
  458MOL0     C63123  10.586   2.294   6.687  0.5245 -0.9661  0.7052
  458MOL0     C63124  10.494   2.402   6.670  0.4136  0.4986  0.3675
  458MOL0     O63125  10.509   2.508   6.583 -0.2195 -0.0899 -0.1972
  458MOL0     C63126  10.646   2.544   6.539  0.1141 -0.4807  1.4716
  458MOL0     C63127  10.724   2.609   6.651 -0.2861 -0.6971 -0.0846
  458MOL0     C63128  10.804   2.734   6.606  0.5448  1.1792 -0.3581
  458MOL0     C63129  10.926   2.701   6.531 -1.1373  0.5071  0.4465
  458MOL0     C63130  10.911   2.655   6.389  1.2440  0.4177  0.5902
  458MOL0     C63131  10.904   2.604   6.274 -0.2027 -0.5277  0.6642
  458MOL0     C63132  10.384   2.405   6.758 -1.0726  0.2165 -0.3896
  458MOL0     C63133  10.370   2.301   6.847  1.2430 -0.2422 -1.0699
  458MOL0     C63134  10.261   2.339   6.945  0.6676 -0.4391 -1.0200
  458MOL0     H63135  10.175   1.905   7.145 -0.8695 -1.2337  0.7444
  458MOL0     H63136  10.198   1.688   7.260  1.1601 -1.0639  0.6035
  458MOL0     H63137  10.544   1.533   7.313 -0.1130 -1.3201  1.3592
  458MOL0     H63138  10.536   1.419   7.169 -2.2929 -1.1126 -2.1634
  458MOL0     H63139  10.568   1.329   7.409  1.5462 -1.5436 -0.3361
  458MOL0     H63140  10.393   1.368   7.425 -1.0015 -2.2569  0.0532
  458MOL0     H63141  10.363   1.203   7.212  0.3614 -1.4739  0.2746
  458MOL0     H63142  10.537   1.178   7.233 -1.3246 -1.2812 -1.8843
  458MOL0     H63143  10.476   1.083   7.470 -1.2356  2.1371  0.5690
  458MOL0     H63144  10.303   1.094   7.416  0.8209 -0.8959  1.8631
  458MOL0     H63145  10.416   0.864   7.378  3.5504  0.2140  1.8543
  458MOL0     H63146  10.542   0.940   7.281  0.2820 -0.8152 -1.0170
  458MOL0     H63147  10.241   0.974   7.198  1.0124 -2.0888  2.2306
  458MOL0     H63148  10.396   0.994   7.106  2.6202 -1.4763 -0.2474
  458MOL0     H63149  10.431   0.760   7.127 -0.8677  1.1469 -1.7601
  458MOL0     H63150  10.299   0.801   7.025 -0.4464  2.0765 -0.5583
  458MOL0     H63151  10.293   0.680   7.311  0.7156 -3.0694 -1.3103
  458MOL0     H63152  10.158   0.779   7.245 -0.6570 -1.0667 -1.4689
  458MOL0     H63153  10.333   0.420   7.217 -1.6069 -2.5177 -0.1266
  458MOL0     H63154  10.097   0.193   7.067  0.7548 -2.4429 -1.3200
  458MOL0     H63155  10.257   0.192   7.112  0.6438 -1.7248 -1.8464
  458MOL0     H63156  10.142   0.236   6.834  2.0821  1.0471 -1.4291
  458MOL0     H63157  10.310   0.287   6.882 -1.9107  2.2345  1.8012
  458MOL0     H63158  10.352   0.057   6.960 -0.9988  1.4351  1.8119
  458MOL0     H63159  10.184   0.011   6.929  0.1839 -0.8367 -0.3881
  458MOL0     H63160  10.313  -0.060   6.714  1.2033  0.6619 -2.0125
  458MOL0     H63161  10.218   0.085   6.677 -1.2533  3.0911  1.4560
  458MOL0     H63162  10.606   0.263   6.686  3.0211  3.2571  2.2688
  458MOL0     H63163  10.807   0.337   6.717 -1.1271 -0.9270 -1.4341
  458MOL0     H63164  10.936   0.237   6.665 -3.0750  0.0573 -1.3936
  458MOL0     H63165  10.928   0.288   6.839  0.3428  1.0174  0.0763
  458MOL0     H63166  11.197  -0.076   6.765  1.2766 -3.1632 -2.3856
  458MOL0     H63167  11.417  -0.140   6.816 -1.6704  2.9278 -0.9523
  458MOL0     H63168  11.590  -0.352   6.869 -2.2734  0.9091  0.8534
  458MOL0     H63169  11.606  -0.184   6.916 -0.5995  0.4134  0.3210
  458MOL0     H63170  11.731  -0.437   7.046  2.2738 -0.2132  1.0351
  458MOL0     H63171  11.813  -0.309   6.976  1.5278 -1.8989  2.1613
  458MOL0     H63172  11.679  -0.294   7.253  0.3847  1.6520  1.0060
  458MOL0     H63173  11.738  -0.151   7.170 -1.0834  0.3582  3.5991
  458MOL0     H63174  11.955  -0.228   7.168  0.1527  0.5624 -0.6855
  458MOL0     H63175  11.925  -0.390   7.202  2.2517  1.7790  0.2353
  458MOL0     H63176  11.879  -0.153   7.377  1.0704  0.4697 -1.9271
  458MOL0     H63177  11.834  -0.317   7.433 -0.4409  1.1194 -0.3883
  458MOL0     H63178  12.111  -0.212   7.353 -1.4187 -0.3799 -0.9115
  458MOL0     H63179  12.072  -0.385   7.407 -3.3364 -1.7154  2.0615
  458MOL0     H63180  11.984  -0.258   7.630  2.1185 -0.7599  2.6409
  458MOL0     H63181  12.071  -0.112   7.560  2.6789 -0.6581  1.3419
  458MOL0     H63182  12.284  -0.230   7.564  0.1823 -1.1913  0.7316
  458MOL0     H63183  12.209  -0.365   7.642 -3.0788 -0.8824  0.6095
  458MOL0     H63184  11.277  -0.339   7.171  0.5594 -1.9029 -1.9393
  458MOL0     H63185  11.035  -0.274   7.108 -0.5928  0.6906 -0.8915
  458MOL0     H63186  10.742  -0.168   6.869  2.5654 -0.3879 -0.1612
  458MOL0     H63187  10.514  -0.140   6.797  1.6327 -1.0794 -2.0237
  458MOL0     H63188  10.500   1.561   6.999 -0.3786 -0.2073  1.4065
  458MOL0     H63189  10.474   1.771   6.858  1.2899 -2.7099  0.2741
  458MOL0     H63190  10.613   2.087   6.754 -1.8273 -0.5655 -2.1300
  458MOL0     H63191  10.676   2.297   6.626  1.7573 -1.8898  2.3782
  458MOL0     H63192  10.703   2.460   6.500  0.9442  1.1987 -1.1787
  458MOL0     H63193  10.633   2.609   6.452  2.8264 -3.8229 -1.7418
  458MOL0     H63194  10.791   2.533   6.691 -0.4091 -0.8673 -0.1986
  458MOL0     H63195  10.659   2.626   6.737 -1.4322 -3.1376 -0.3905
  458MOL0     H63196  10.740   2.805   6.553 -2.2517 -0.1500  1.0138
  458MOL0     H63197  10.837   2.774   6.702  4.3271 -0.6165 -0.7226
  458MOL0     H63198  10.969   2.612   6.578 -0.6417  0.5379  0.0603
  458MOL0     H63199  10.984   2.793   6.543 -3.9573  2.2586  1.8847
  458MOL0     H63200  10.892   2.570   6.174 -3.9534 -0.6188  1.0136
  458MOL0     H63201  10.321   2.493   6.765 -2.3113 -0.7307  0.9125
  458MOL0     H63202  10.278   2.430   7.004 -1.0513 -0.0731 -1.0379
  458MOL0     H63203  10.167   2.360   6.892 -0.1811  0.5708  0.7986
  458MOL0     H63204  10.241   2.258   7.015  0.2235 -0.7652 -1.5168
  459MOL0     O63205   4.287   6.638   2.384  0.0615 -0.0973  1.2372
  459MOL0     C63206   4.231   6.536   2.403  0.6062 -0.5867 -0.5688
  459MOL0     O63207   4.222   6.434   2.314  0.5884  0.2398  0.2358
  459MOL0     C63208   4.264   6.459   2.194 -0.6384  0.2033 -0.3691
  459MOL0     C63209   4.356   6.378   2.141 -0.4547  0.4374 -0.6158
  459MOL0     C63210   4.425   6.405   2.025 -0.3591 -0.3349  0.7977
  459MOL0     C63211   4.384   6.517   1.948  0.3405 -0.5782  0.5704
  459MOL0     O63212   4.459   6.543   1.834 -0.7570 -0.0700  0.6537
  459MOL0     C63213   4.500   6.679   1.819 -0.4484  0.1589 -0.0681
  459MOL0     C63214   4.620   6.688   1.717 -0.5830  0.3824  0.5380
  459MOL0     C63215   4.754   6.646   1.786  0.6551 -0.1023 -0.2194
  459MOL0     C63216   4.875   6.664   1.691 -0.7705 -1.1927  0.0167
  459MOL0     C63217   4.999   6.590   1.745  0.1150 -0.4204 -0.1003
  459MOL0     C63218   4.986   6.441   1.727 -0.7725  0.3907 -0.6678
  459MOL0     C63219   5.116   6.369   1.767 -0.2136  0.4899 -0.7778
  459MOL0     C63220   5.103   6.221   1.760  0.9082 -0.0781 -0.5111
  459MOL0     N63221   5.210   6.128   1.751 -0.2114 -0.7212  0.2063
  459MOL0     C63222   5.338   6.168   1.796 -0.1132 -0.1964 -0.1578
  459MOL0     C63223   5.421   6.083   1.737 -0.9027  0.2723  0.5731
  459MOL0     C63224   5.575   6.080   1.765 -0.2890 -0.9510 -0.1640
  459MOL0     C63225   5.638   5.975   1.665 -0.0352  0.4133  0.2045
  459MOL0     C63226   5.786   5.963   1.699  0.3089  0.1945  0.0857
  459MOL0     C63227   5.863   6.085   1.654 -0.1827  1.0008 -0.1847
  459MOL0     O63228   6.003   6.039   1.649 -0.2093 -0.1448 -0.0453
  459MOL0     C63229   6.107   6.119   1.622 -0.6042 -0.2389 -0.7869
  459MOL0     C63230   6.095   6.259   1.648 -0.3173 -0.8430  1.0363
  459MOL0     C63231   6.194   6.353   1.616  0.6124  0.3583 -0.8166
  459MOL0     C63232   6.166   6.491   1.664 -0.7755 -0.1497  0.2967
  459MOL0     C63233   6.314   6.305   1.561 -0.3676  0.1273 -0.3111
  459MOL0     C63234   6.424   6.388   1.508 -0.5702  0.7160 -0.8422
  459MOL0     O63235   6.538   6.318   1.473 -0.5179  0.2948  0.1474
  459MOL0     C63236   6.644   6.384   1.416  0.3618  0.5390 -0.5297
  459MOL0     C63237   6.668   6.391   1.285 -0.3682  0.2116 -0.2255
  459MOL0     C63238   6.782   6.458   1.229  0.0200  0.2677 -0.0940
  459MOL0     C63239   6.873   6.519   1.311  0.1304  0.1530  0.4345
  459MOL0     O63240   6.973   6.587   1.251  0.0521  0.5251  0.4074
  459MOL0     C63241   7.073   6.648   1.325 -1.1094  0.3223 -0.2291
  459MOL0     C63242   7.153   6.764   1.259 -0.7824  0.4459  0.2411
  459MOL0     C63243   7.234   6.715   1.136 -1.3311  0.7442  0.1240
  459MOL0     C63244   7.324   6.825   1.075 -0.1951 -0.1473  0.0719
  459MOL0     C63245   7.430   6.751   0.984  0.1166  0.4033 -0.0385
  459MOL0     C63246   7.552   6.701   1.059  0.8337 -0.0613 -0.2777
  459MOL0     C63247   7.666   6.642   0.987 -0.0625 -0.6525 -0.1769
  459MOL0     C63248   7.618   6.534   0.889  0.0741 -0.4125  0.0670
  459MOL0    Cl63249   7.515   6.418   0.967 -0.0003  0.0102 -0.0742
  459MOL0     C63250   6.868   6.492   1.450 -0.0606 -0.4446  0.3935
  459MOL0     C63251   6.743   6.428   1.497 -0.5572 -0.0901 -0.2491
  459MOL0     O63252   6.410   6.510   1.503 -0.2573  1.0474 -0.0240
  459MOL0     C63253   6.329   6.160   1.550 -0.1307 -0.1834  0.1213
  459MOL0     C63254   6.221   6.071   1.575 -0.7394  0.3281 -0.0548
  459MOL0     N63255   5.350   6.000   1.650  0.1613  0.6214  0.1988
  459MOL0     N63256   5.226   6.028   1.657 -0.0683  0.0931 -0.0991
  459MOL0     C63257   4.287   6.601   1.996  0.0746 -0.2480 -0.6193
  459MOL0     C63258   4.218   6.565   2.114  0.2604 -0.3950  0.6013
  459MOL0     C63259   4.196   6.504   2.542  1.6701 -0.1564 -0.6412
  459MOL0     C63260   4.223   6.373   2.592 -0.7649 -0.6089  0.2185
  459MOL0     C63261   4.225   6.349   2.734 -0.3185 -0.4730 -0.2663
  459MOL0     C63262   4.195   6.457   2.815 -0.1885  0.7168 -0.7539
  459MOL0     O63263   4.191   6.447   2.955 -0.3928  0.2032  0.1885
  459MOL0     C63264   4.323   6.435   3.013 -0.1468  0.2018  0.0283
  459MOL0     C63265   4.390   6.566   3.016 -0.6345  0.4488 -0.0895
  459MOL0     C63266   4.524   6.580   3.083 -1.0314 -0.1780 -0.6513
  459MOL0     C63267   4.613   6.462   3.048 -0.3908 -1.1020  0.5185
  459MOL0     C63268   4.627   6.457   2.900 -0.1971  0.7241 -0.0950
  459MOL0     C63269   4.650   6.445   2.781  0.1861 -0.2633  0.0996
  459MOL0     C63270   4.165   6.578   2.766  0.1190  0.7245 -0.1067
  459MOL0     C63271   4.164   6.609   2.628  1.1700  0.0210  0.5526
  459MOL0     C63272   4.113   6.748   2.587 -0.6306 -0.1028 -0.1332
  459MOL0     H63273   4.383   6.294   2.205  0.2838  1.1103 -0.0185
  459MOL0     H63274   4.512   6.350   1.992  1.0028  1.8441  0.5385
  459MOL0     H63275   4.537   6.727   1.910  0.8885 -0.9089 -0.0208
  459MOL0     H63276   4.426   6.746   1.774 -1.1025  1.4422  2.7032
  459MOL0     H63277   4.601   6.624   1.631 -0.9650  1.3575 -0.1139
  459MOL0     H63278   4.625   6.791   1.681 -0.3322  0.9004  1.9884
  459MOL0     H63279   4.769   6.705   1.877  3.9818 -0.3091 -0.5104
  459MOL0     H63280   4.748   6.541   1.816 -0.5007 -0.2291 -0.8547
  459MOL0     H63281   4.867   6.642   1.584  1.1049 -0.2821 -0.3645
  459MOL0     H63282   4.900   6.771   1.684 -3.3788 -0.3878  1.6168
  459MOL0     H63283   5.015   6.623   1.848 -2.0109  3.8565 -0.9075
  459MOL0     H63284   5.084   6.627   1.688 -0.3329  0.9601  0.0711
  459MOL0     H63285   4.904   6.399   1.786  0.1227  1.0870  1.1517
  459MOL0     H63286   4.960   6.417   1.623 -0.5375 -0.1145 -0.6168
  459MOL0     H63287   5.147   6.394   1.869 -0.7340 -1.4576 -0.0953
  459MOL0     H63288   5.201   6.399   1.705  0.1430 -2.0314 -1.6144
  459MOL0     H63289   5.021   6.187   1.823  0.6825  0.8616 -0.2833
  459MOL0     H63290   5.051   6.201   1.666 -1.2430 -1.7547  0.9547
  459MOL0     H63291   5.363   6.253   1.859  1.8156 -1.1006  0.3732
  459MOL0     H63292   5.596   6.046   1.866  2.3971  0.7148 -0.0637
  459MOL0     H63293   5.616   6.181   1.761 -3.3194  0.4146  0.3492
  459MOL0     H63294   5.608   5.871   1.676  3.7885 -1.0193 -1.5004
  459MOL0     H63295   5.615   6.010   1.564 -1.4577 -1.1304 -0.0517
  459MOL0     H63296   5.795   5.951   1.807 -1.1659 -0.8793  0.1298
  459MOL0     H63297   5.830   5.877   1.647  1.2454  1.1845 -0.8048
  459MOL0     H63298   5.831   6.126   1.558 -1.3861 -1.0412 -0.7118
  459MOL0     H63299   5.839   6.157   1.732  1.2126  1.1044  0.1760
  459MOL0     H63300   6.009   6.293   1.704 -0.8229  0.0614 -0.2571
  459MOL0     H63301   6.250   6.525   1.725 -0.9775  2.4706 -0.7100
  459MOL0     H63302   6.076   6.492   1.725 -1.6372 -0.3051 -0.9254
  459MOL0     H63303   6.157   6.554   1.575  1.3294  1.9945  1.4878
  459MOL0     H63304   6.588   6.358   1.218 -0.2326 -0.0109 -0.2806
  459MOL0     H63305   6.782   6.463   1.120  2.7291 -1.2640 -0.2755
  459MOL0     H63306   7.028   6.688   1.416 -0.7885  1.7300 -0.6530
  459MOL0     H63307   7.149   6.574   1.354  3.3048  3.3349 -2.7692
  459MOL0     H63308   7.083   6.845   1.239  2.7819  3.5378 -0.9547
  459MOL0     H63309   7.228   6.807   1.326  1.4992 -3.2278  0.3161
  459MOL0     H63310   7.165   6.672   1.064  0.7703 -2.5872 -0.0986
  459MOL0     H63311   7.291   6.624   1.158 -0.2822  1.1552 -0.8477
  459MOL0     H63312   7.378   6.889   1.145 -0.6777 -1.1347  1.3694
  459MOL0     H63313   7.266   6.890   1.008  1.0544  0.3780 -0.5446
  459MOL0     H63314   7.371   6.678   0.928 -0.5952  1.2686 -0.4377
  459MOL0     H63315   7.472   6.811   0.903 -3.0895  0.4487 -1.7970
  459MOL0     H63316   7.514   6.631   1.134  0.5411 -0.7471 -1.0496
  459MOL0     H63317   7.597   6.778   1.123  1.7931  0.2511 -1.3095
  459MOL0     H63318   7.738   6.598   1.056  0.3680  2.7169  1.7379
  459MOL0     H63319   7.712   6.727   0.937 -1.7469  1.1815  1.2307
  459MOL0     H63320   7.705   6.478   0.855  0.9861  0.0696  1.5179
  459MOL0     H63321   7.555   6.578   0.811 -1.3434  4.9278  3.6467
  459MOL0     H63322   6.951   6.524   1.512 -0.2205 -0.0933  0.4284
  459MOL0     H63323   6.726   6.411   1.603 -0.3644 -2.3715 -0.5412
  459MOL0     H63324   6.429   6.125   1.527  0.7090  1.4091  1.1798
  459MOL0     H63325   6.236   5.964   1.565  1.3486  0.3192  2.1905
  459MOL0     H63326   4.258   6.697   1.954  0.2625 -1.2427 -3.2042
  459MOL0     H63327   4.132   6.619   2.153  0.4939  1.0258 -0.7575
  459MOL0     H63328   4.257   6.287   2.535  0.5170  1.4201 -2.3231
  459MOL0     H63329   4.257   6.253   2.773 -1.8737 -2.1822 -2.8218
  459MOL0     H63330   4.309   6.378   3.105 -1.7891 -0.9756 -0.8909
  459MOL0     H63331   4.380   6.368   2.949  1.6437  2.1508 -0.5172
  459MOL0     H63332   4.323   6.629   3.076 -1.6544 -1.8172  1.2954
  459MOL0     H63333   4.409   6.601   2.914  3.1654 -1.0115 -0.0428
  459MOL0     H63334   4.568   6.673   3.047  0.0796 -0.9408 -1.2899
  459MOL0     H63335   4.503   6.588   3.191 -2.5610 -1.2433 -0.8320
  459MOL0     H63336   4.572   6.370   3.091  0.3791 -2.2764 -1.1651
  459MOL0     H63337   4.719   6.476   3.073  0.0681  1.3779 -2.2924
  459MOL0     H63338   4.677   6.451   2.678  0.8035 -1.3516  0.1845
  459MOL0     H63339   4.162   6.651   2.846  0.5501  0.3019  0.2970
  459MOL0     H63340   4.078   6.758   2.483 -1.8457  1.6455  0.3858
  459MOL0     H63341   4.042   6.783   2.663 -0.4526 -1.2281  0.5600
  459MOL0     H63342   4.196   6.818   2.598  0.0248 -0.9757  0.6187
  460MOL0     O63343   5.700   7.936   6.604 -0.1827  0.4665 -0.3013
  460MOL0     C63344   5.697   7.870   6.706 -0.2718 -1.4007  0.8519
  460MOL0     O63345   5.782   7.886   6.815 -0.1730  0.4104  0.1358
  460MOL0     C63346   5.847   8.005   6.820  0.3133  0.2975 -0.3376
  460MOL0     C63347   5.800   8.108   6.904 -0.9451  0.0305  0.9308
  460MOL0     C63348   5.861   8.230   6.901 -0.2134 -0.3986 -0.1792
  460MOL0     C63349   5.978   8.252   6.821  0.1178  0.6840  1.0007
  460MOL0     O63350   6.032   8.375   6.825 -0.3865 -0.3475  0.3419
  460MOL0     C63351   6.169   8.397   6.784  0.0619 -0.2434  0.4493
  460MOL0     C63352   6.208   8.537   6.816  0.3359 -0.1071 -0.2617
  460MOL0     C63353   6.214   8.576   6.961 -0.1074 -0.3662  0.0027
  460MOL0     C63354   6.260   8.720   6.985  0.6270  0.0649  0.1568
  460MOL0     C63355   6.236   8.763   7.133 -1.6060 -0.4369 -0.2593
  460MOL0     C63356   6.290   8.663   7.247  0.0770 -0.7886 -0.0701
  460MOL0     C63357   6.432   8.673   7.281 -0.7328 -0.6078 -0.9832
  460MOL0     C63358   6.492   8.559   7.357  0.0687  0.1502  0.0591
  460MOL0     N63359   6.636   8.591   7.394 -0.7531 -1.1727  0.7712
  460MOL0     C63360   6.685   8.649   7.505 -0.3394 -0.2674 -0.1784
  460MOL0     C63361   6.819   8.658   7.493  0.1405  0.1154  0.1951
  460MOL0     C63362   6.906   8.712   7.603 -0.1611 -0.0794 -0.4773
  460MOL0     C63363   7.038   8.755   7.550 -0.3870  0.4385 -0.0226
  460MOL0     C63364   7.133   8.841   7.644  0.5846 -0.5142  1.7031
  460MOL0     C63365   7.232   8.915   7.551 -0.6342  0.0140  0.1070
  460MOL0     O63366   7.310   8.818   7.472  0.2799 -0.4440  0.3368
  460MOL0     C63367   7.420   8.866   7.410  0.1502  0.4768 -0.4815
  460MOL0     C63368   7.457   9.001   7.409  0.6737  0.4232  0.7422
  460MOL0     C63369   7.574   9.047   7.341  0.2135  0.2565 -0.3065
  460MOL0     C63370   7.601   9.187   7.354  0.2342  0.0057 -0.4109
  460MOL0     C63371   7.658   8.951   7.277 -0.7263 -0.0595 -0.0606
  460MOL0     C63372   7.785   8.967   7.194 -0.2599 -0.4689  0.2691
  460MOL0     O63373   7.818   8.870   7.117 -0.2069  0.5564 -0.0512
  460MOL0     C63374   7.917   8.888   7.027 -0.3422  1.3109  0.2374
  460MOL0     C63375   8.008   8.782   7.012 -0.8812 -0.5277 -0.0599
  460MOL0     C63376   8.106   8.787   6.912 -0.1973 -0.2479 -0.1693
  460MOL0     C63377   8.109   8.883   6.809 -0.3504 -0.1777  1.0250
  460MOL0     O63378   8.199   8.882   6.711 -0.0550  0.2503  0.0753
  460MOL0     C63379   8.205   8.768   6.625  0.4522  1.0751 -0.1426
  460MOL0     C63380   8.094   8.746   6.513  0.1940  1.1942  0.2973
  460MOL0     C63381   7.950   8.746   6.558 -0.0390  0.4081 -0.0250
  460MOL0     C63382   7.856   8.721   6.444 -0.6530 -0.1825 -0.5828
  460MOL0     C63383   7.709   8.709   6.484  0.7025  0.1487 -0.3458
  460MOL0     C63384   7.632   8.677   6.349 -0.7071  0.3408 -0.3081
  460MOL0     C63385   7.487   8.651   6.386  0.1142  0.0844  0.8029
  460MOL0     C63386   7.419   8.600   6.262 -0.5238  0.0657  0.1425
  460MOL0    Cl63387   7.244   8.576   6.301  0.0483 -0.4260  0.5095
  460MOL0     C63388   8.010   8.982   6.814  0.6561 -0.3663 -0.1178
  460MOL0     C63389   7.916   8.988   6.925  0.1717  0.1118 -0.5466
  460MOL0     O63390   7.847   9.070   7.218  0.0968  0.3497 -0.0344
  460MOL0     C63391   7.617   8.812   7.282 -1.1611 -0.8003 -0.3525
  460MOL0     C63392   7.497   8.779   7.347 -0.6612  0.3200  0.1013
  460MOL0     N63393   6.851   8.611   7.370 -0.0919 -0.3957 -0.9017
  460MOL0     N63394   6.742   8.583   7.307  0.0966 -0.4125  0.5304
  460MOL0     C63395   6.035   8.140   6.745  0.3807 -0.0032 -0.5916
  460MOL0     C63396   5.964   8.017   6.746  0.0783  0.3135  0.4541
  460MOL0     C63397   5.598   7.763   6.706  0.2259  0.2774 -0.4671
  460MOL0     C63398   5.604   7.657   6.620  0.5034  0.2334  1.0882
  460MOL0     C63399   5.491   7.565   6.609 -0.0226  0.3690  0.8539
  460MOL0     C63400   5.386   7.568   6.700 -0.2062 -0.2349  0.2750
  460MOL0     O63401   5.284   7.476   6.682 -0.3005  0.6435 -0.7335
  460MOL0     C63402   5.243   7.414   6.809 -0.4622  0.2798 -0.7210
  460MOL0     C63403   5.126   7.311   6.793 -0.2889 -0.1704  0.1610
  460MOL0     C63404   5.000   7.357   6.875 -0.0917 -0.1336 -0.6556
  460MOL0     C63405   4.920   7.227   6.901  0.3300  0.3910 -0.9776
  460MOL0     C63406   4.802   7.233   6.992 -0.5784  0.0327 -0.0998
  460MOL0     C63407   4.696   7.246   7.046  0.8493 -0.0825 -0.6736
  460MOL0     C63408   5.384   7.676   6.790  0.3378  0.2129 -0.1973
  460MOL0     C63409   5.482   7.777   6.787 -0.0094 -0.2715 -0.4689
  460MOL0     C63410   5.451   7.901   6.860  0.4011 -0.4568  0.0461
  460MOL0     H63411   5.714   8.088   6.968 -1.1226 -0.8167  0.4408
  460MOL0     H63412   5.832   8.308   6.970  0.1287 -1.7441  1.5593
  460MOL0     H63413   6.182   8.383   6.676  1.2758 -0.0985  0.5704
  460MOL0     H63414   6.233   8.329   6.841  0.1080  0.8889  1.8090
  460MOL0     H63415   6.308   8.551   6.773 -0.4262 -0.1378 -2.1187
  460MOL0     H63416   6.143   8.608   6.764  1.8721  2.9001  1.6321
  460MOL0     H63417   6.120   8.560   7.015 -0.0858  0.7712  0.4168
  460MOL0     H63418   6.286   8.515   7.015  2.3457  2.3717  0.0989
  460MOL0     H63419   6.367   8.738   6.970  1.0546  0.0480  2.7260
  460MOL0     H63420   6.209   8.797   6.926  1.4757  0.4923 -0.0398
  460MOL0     H63421   6.127   8.762   7.145 -1.4793 -1.0136  0.9675
  460MOL0     H63422   6.274   8.864   7.150 -1.5520 -0.1869 -1.7259
  460MOL0     H63423   6.248   8.698   7.342  1.4335  3.3450 -0.7734
  460MOL0     H63424   6.277   8.557   7.226  0.6673 -0.5333 -1.8596
  460MOL0     H63425   6.440   8.767   7.336 -0.9220 -2.0583  1.7037
  460MOL0     H63426   6.488   8.669   7.187 -0.8115 -1.5804 -1.0067
  460MOL0     H63427   6.439   8.547   7.452  1.6042 -0.1636  0.9136
  460MOL0     H63428   6.482   8.466   7.300  0.4934 -0.9230  1.6542
  460MOL0     H63429   6.625   8.687   7.587 -1.0531  0.6839 -1.1050
  460MOL0     H63430   6.907   8.641   7.686  1.9595 -1.6513 -1.7216
  460MOL0     H63431   6.860   8.800   7.649 -0.1804  0.2191 -1.0639
  460MOL0     H63432   7.084   8.658   7.527  1.1883  1.4184 -1.2779
  460MOL0     H63433   7.019   8.808   7.456 -0.3556 -1.9345 -1.4758
  460MOL0     H63434   7.065   8.918   7.680 -0.2165  0.7415 -2.0748
  460MOL0     H63435   7.174   8.792   7.733  1.8053  2.5141  2.9216
  460MOL0     H63436   7.190   8.994   7.489 -1.4810 -0.8924 -0.5167
  460MOL0     H63437   7.302   8.956   7.624  2.6258 -4.0835 -0.2894
  460MOL0     H63438   7.399   9.077   7.459  2.2232  2.1514  0.0446
  460MOL0     H63439   7.517   9.249   7.384 -1.0845  0.0731 -3.8655
  460MOL0     H63440   7.619   9.218   7.251 -0.8675  1.6480 -0.1418
  460MOL0     H63441   7.690   9.207   7.415  0.1220  3.4354 -1.1783
  460MOL0     H63442   8.023   8.702   7.084  1.1645 -1.5815 -1.5504
  460MOL0     H63443   8.168   8.699   6.907 -0.7620 -0.6104 -1.1672
  460MOL0     H63444   8.295   8.771   6.563 -0.6886  0.6063 -1.9016
  460MOL0     H63445   8.205   8.679   6.690 -2.1944  1.7660  0.9554
  460MOL0     H63446   8.106   8.830   6.443 -2.5890  1.6096  0.2053
  460MOL0     H63447   8.111   8.649   6.465  1.0995  0.7175  1.5435
  460MOL0     H63448   7.923   8.849   6.584 -1.3079  0.0517  0.1241
  460MOL0     H63449   7.937   8.687   6.649  0.8773 -1.2078 -0.9097
  460MOL0     H63450   7.868   8.626   6.391 -2.1433 -0.7121 -0.0351
  460MOL0     H63451   7.866   8.808   6.378 -0.5525  0.1490 -0.1434
  460MOL0     H63452   7.694   8.631   6.560  1.4343  1.0637  0.7831
  460MOL0     H63453   7.676   8.800   6.535  1.0147 -1.4703  3.0429
  460MOL0     H63454   7.668   8.581   6.311  2.0706  0.9895  0.5002
  460MOL0     H63455   7.641   8.762   6.280 -0.8378 -1.3628 -2.5245
  460MOL0     H63456   7.440   8.749   6.396 -0.0275  0.6286 -3.2410
  460MOL0     H63457   7.476   8.596   6.480 -1.1273 -3.1661 -1.0548
  460MOL0     H63458   7.466   8.504   6.240  2.4587  0.7643  2.7671
  460MOL0     H63459   7.435   8.671   6.179 -1.7252  2.3722  1.7867
  460MOL0     H63460   8.004   9.051   6.730 -0.7466 -0.8735 -0.4722
  460MOL0     H63461   7.853   9.076   6.934 -2.2140 -1.6244  0.6120
  460MOL0     H63462   7.672   8.736   7.228 -0.8208 -0.9760  0.2266
  460MOL0     H63463   7.461   8.678   7.330  0.6947  0.1577 -2.4669
  460MOL0     H63464   6.131   8.156   6.698 -0.2249  1.1346 -1.4855
  460MOL0     H63465   5.997   7.930   6.691 -1.7808  1.3435 -2.5422
  460MOL0     H63466   5.690   7.658   6.553  0.8684  4.0196  1.4041
  460MOL0     H63467   5.495   7.488   6.534  1.8105  1.2796 -0.0411
  460MOL0     H63468   5.326   7.356   6.850 -2.0237 -1.6736 -0.1559
  460MOL0     H63469   5.209   7.486   6.884 -0.0430 -0.7302  0.4829
  460MOL0     H63470   5.159   7.213   6.828 -2.7954 -1.0523  0.3072
  460MOL0     H63471   5.094   7.304   6.689 -1.0341  1.2341  0.2726
  460MOL0     H63472   5.032   7.396   6.972 -1.1456  2.4144 -1.2525
  460MOL0     H63473   4.935   7.434   6.831  0.1018  0.8466  0.7091
  460MOL0     H63474   4.988   7.144   6.923 -1.3986 -0.7635  0.2593
  460MOL0     H63475   4.870   7.191   6.811  1.4127 -2.2166 -0.6268
  460MOL0     H63476   4.614   7.233   7.114 -0.4166  2.2715 -1.6598
  460MOL0     H63477   5.293   7.687   6.849  1.0626  1.6842  0.7064
  460MOL0     H63478   5.343   7.898   6.881 -0.5517  0.7386 -3.8976
  460MOL0     H63479   5.514   7.912   6.949  1.7355 -1.8701 -0.6892
  460MOL0     H63480   5.460   7.987   6.793 -2.8869 -1.1823 -1.4986
  461MOL0     O63481   0.116   1.327   4.758  0.2069 -0.7223 -0.1019
  461MOL0     C63482   0.086   1.422   4.687 -0.3895  0.0036  0.5077
  461MOL0     O63483   0.069   1.409   4.553  0.3385 -0.3871  0.4846
  461MOL0     C63484   0.034   1.291   4.509  0.7252  0.2041  0.2898
  461MOL0     C63485   0.113   1.203   4.444  0.3229  0.2758  0.4735
  461MOL0     C63486   0.075   1.075   4.399  1.3063 -0.0295  0.1631
  461MOL0     C63487  -0.060   1.033   4.415 -0.6922 -0.0628 -0.3544
  461MOL0     O63488  -0.099   0.911   4.361  0.2440  0.1211  0.7095
  461MOL0     C63489  -0.236   0.885   4.375  0.6029 -0.6730  0.3944
  461MOL0     C63490  -0.263   0.744   4.346 -0.6958  0.6457  0.3690
  461MOL0     C63491  -0.243   0.691   4.201  0.2432 -0.1492 -0.1947
  461MOL0     C63492  -0.212   0.543   4.176 -0.3449  0.0163  0.0006
  461MOL0     C63493  -0.193   0.516   4.029 -0.8699  0.0100 -0.0891
  461MOL0     C63494  -0.046   0.548   3.974 -0.9355  0.0910  0.0452
  461MOL0     C63495  -0.047   0.573   3.826 -0.9820 -0.8702  0.1429
  461MOL0     C63496  -0.118   0.481   3.730 -0.4045 -0.1385 -0.6349
  461MOL0     N63497  -0.101   0.536   3.597  0.2599 -0.0184  0.2138
  461MOL0     C63498  -0.204   0.602   3.530 -1.1401  0.4293 -0.0362
  461MOL0     C63499  -0.137   0.636   3.416  1.0554  0.8504 -0.0396
  461MOL0     C63500  -0.200   0.687   3.283  0.0010  1.5032 -0.0684
  461MOL0     C63501  -0.350   0.674   3.280  0.2416 -0.1531  0.0692
  461MOL0     C63502  -0.421   0.706   3.146  0.3631 -0.2563 -0.0638
  461MOL0     C63503  -0.541   0.620   3.131  1.0521 -0.8496  0.0248
  461MOL0     O63504  -0.644   0.673   3.219 -0.0613  0.2080 -0.4257
  461MOL0     C63505  -0.778   0.688   3.199 -0.0060 -1.1705  0.5692
  461MOL0     C63506  -0.856   0.740   3.298  0.0564  0.9167 -0.1666
  461MOL0     C63507  -0.996   0.756   3.281  0.9039  0.0667  0.5005
  461MOL0     C63508  -1.072   0.825   3.392  0.1423 -0.5784 -1.0021
  461MOL0     C63509  -1.067   0.692   3.174 -0.1027  0.2405 -0.0895
  461MOL0     C63510  -1.210   0.701   3.156 -0.2855  0.6381 -0.3424
  461MOL0     O63511  -1.253   0.727   3.024 -0.3601 -0.1611 -0.0835
  461MOL0     C63512  -1.382   0.754   2.990  0.5492  0.3784  0.0675
  461MOL0     C63513  -1.390   0.761   2.854  0.3486  0.8377  0.7136
  461MOL0     C63514  -1.514   0.792   2.802 -0.4703 -0.0858 -0.2206
  461MOL0     C63515  -1.625   0.835   2.873 -0.6374 -0.6289 -0.6865
  461MOL0     O63516  -1.733   0.876   2.799  0.2008  0.4012  0.1139
  461MOL0     C63517  -1.848   0.787   2.803 -0.2977 -0.0668  0.9356
  461MOL0     C63518  -1.887   0.736   2.664 -0.2183  0.7449  0.4227
  461MOL0     C63519  -2.005   0.633   2.657 -0.0553  0.4478  0.3686
  461MOL0     C63520  -2.010   0.555   2.525 -0.1331  0.5634  0.0505
  461MOL0     C63521  -2.149   0.492   2.504 -0.0029 -0.2132  0.3035
  461MOL0     C63522  -2.157   0.435   2.358 -0.3288 -0.1441  0.2024
  461MOL0     C63523  -2.275   0.340   2.340 -0.1779 -0.8449 -0.3204
  461MOL0     C63524  -2.278   0.321   2.190  0.3315  0.5989 -0.2111
  461MOL0    Cl63525  -2.420   0.231   2.126 -0.1767  0.0395  0.0652
  461MOL0     C63526  -1.614   0.838   3.012 -0.2328  1.1995 -0.0716
  461MOL0     C63527  -1.490   0.798   3.066  0.3958  0.2334 -0.7343
  461MOL0     O63528  -1.273   0.681   3.257 -0.7443 -0.6429 -0.3790
  461MOL0     C63529  -0.989   0.637   3.070 -0.0555  0.4409  0.0232
  461MOL0     C63530  -0.844   0.630   3.079  0.4870 -0.0562 -0.7131
  461MOL0     N63531  -0.005   0.590   3.414  0.0918 -0.6384 -0.5436
  461MOL0     N63532   0.015   0.531   3.524  0.3505  0.2696  0.3711
  461MOL0     C63533  -0.144   1.121   4.488 -0.1235 -0.4911  0.7129
  461MOL0     C63534  -0.096   1.244   4.539  0.9908 -0.0250 -0.3165
  461MOL0     C63535   0.043   1.548   4.750 -0.1467 -0.1815 -0.6708
  461MOL0     C63536  -0.072   1.604   4.696 -0.0388 -0.2391  0.0682
  461MOL0     C63537  -0.138   1.712   4.740 -0.3879 -1.0249  0.0642
  461MOL0     C63538  -0.083   1.775   4.853  0.5799 -1.0010 -0.4327
  461MOL0     O63539  -0.145   1.890   4.899 -0.2572  0.1339  0.1932
  461MOL0     C63540  -0.113   1.954   5.025 -0.4437  0.2004  0.8232
  461MOL0     C63541  -0.185   2.083   5.046 -0.3666  0.2070 -0.2442
  461MOL0     C63542  -0.160   2.195   4.941 -0.5443  0.1288 -0.1997
  461MOL0     C63543  -0.226   2.325   4.995  0.5578  0.7238  0.5705
  461MOL0     C63544  -0.210   2.440   4.906  0.8432 -0.1865  0.3324
  461MOL0     C63545  -0.208   2.524   4.815  0.0496 -0.6460  0.1108
  461MOL0     C63546   0.022   1.712   4.925  0.3763 -0.3290  0.2584
  461MOL0     C63547   0.086   1.600   4.871  0.3388  0.3350  1.2277
  461MOL0     C63548   0.206   1.550   4.935  0.3339  0.1023 -0.6550
  461MOL0     H63549   0.215   1.233   4.423 -0.8409  4.0902 -0.5799
  461MOL0     H63550   0.144   1.010   4.346 -1.6964 -3.0128 -0.3990
  461MOL0     H63551  -0.287   0.955   4.308  0.8240  1.3364  2.2327
  461MOL0     H63552  -0.263   0.896   4.480  1.6827 -0.3874  0.6503
  461MOL0     H63553  -0.197   0.681   4.406 -0.9337 -0.9937 -1.0053
  461MOL0     H63554  -0.368   0.726   4.371 -0.2590  0.1001  1.9129
  461MOL0     H63555  -0.336   0.708   4.146 -0.0798  0.2876  0.4733
  461MOL0     H63556  -0.164   0.750   4.152  0.0741  0.3850  0.1573
  461MOL0     H63557  -0.118   0.515   4.224 -0.0658  0.8487 -0.0421
  461MOL0     H63558  -0.292   0.478   4.213 -0.2439 -1.3021 -1.9867
  461MOL0     H63559  -0.263   0.580   3.975  0.9181  0.7979 -1.5934
  461MOL0     H63560  -0.231   0.414   4.014 -2.0544  0.4634 -0.2907
  461MOL0     H63561  -0.005   0.626   4.039 -2.9809  2.5757 -1.4930
  461MOL0     H63562   0.017   0.460   3.993 -0.2466  0.9466  1.9573
  461MOL0     H63563   0.056   0.589   3.791 -1.6666 -0.2077 -1.6446
  461MOL0     H63564  -0.095   0.671   3.820 -2.1082 -1.3618  0.8327
  461MOL0     H63565  -0.064   0.386   3.735 -0.7546 -0.4926 -2.6685
  461MOL0     H63566  -0.226   0.477   3.746 -0.7142 -0.2172 -2.4833
  461MOL0     H63567  -0.310   0.603   3.552 -0.8788  0.0853  1.3088
  461MOL0     H63568  -0.157   0.638   3.195  1.6449  0.5285  1.2272
  461MOL0     H63569  -0.181   0.794   3.281  1.4815  1.2634  0.3579
  461MOL0     H63570  -0.387   0.573   3.300 -4.1940  1.7228  2.8262
  461MOL0     H63571  -0.387   0.743   3.356  1.4555 -0.3047  0.8198
  461MOL0     H63572  -0.432   0.814   3.133  0.1092 -0.2757 -0.0182
  461MOL0     H63573  -0.360   0.674   3.062  1.6350  2.0072 -0.0741
  461MOL0     H63574  -0.571   0.641   3.028  2.5816  1.2834 -0.0456
  461MOL0     H63575  -0.521   0.515   3.152  0.0278 -0.4471  3.6511
  461MOL0     H63576  -0.819   0.768   3.396  2.1533  0.6484 -0.8359
  461MOL0     H63577  -1.142   0.898   3.350  1.4868  0.7276 -1.0555
  461MOL0     H63578  -1.003   0.868   3.466 -1.3302  0.1519 -0.0002
  461MOL0     H63579  -1.125   0.756   3.459  2.9655 -1.4443  0.5187
  461MOL0     H63580  -1.301   0.734   2.798 -0.9225  0.8567 -1.4661
  461MOL0     H63581  -1.506   0.804   2.694  1.2446  0.0218 -0.1071
  461MOL0     H63582  -1.842   0.696   2.865 -0.9519 -2.5800 -2.4165
  461MOL0     H63583  -1.932   0.850   2.834 -2.1722 -2.2409  0.6346
  461MOL0     H63584  -1.914   0.806   2.585 -2.4563 -4.4918 -4.0700
  461MOL0     H63585  -1.798   0.686   2.626 -0.2081  1.1261 -0.0716
  461MOL0     H63586  -2.101   0.671   2.693  0.6709  1.7806  1.0031
  461MOL0     H63587  -1.978   0.560   2.735  1.5729  0.0876 -0.4847
  461MOL0     H63588  -1.931   0.480   2.511 -1.1519 -0.7834  1.2644
  461MOL0     H63589  -2.006   0.628   2.444  0.3523 -2.2232 -2.5824
  461MOL0     H63590  -2.162   0.414   2.580  1.9138 -0.1522  0.7326
  461MOL0     H63591  -2.231   0.564   2.503 -1.7121 -2.0125  2.0480
  461MOL0     H63592  -2.068   0.375   2.336  0.5602  0.9299  0.7236
  461MOL0     H63593  -2.166   0.524   2.294  0.5774 -0.4687 -0.3941
  461MOL0     H63594  -2.370   0.382   2.375 -1.8989 -2.5922 -2.5799
  461MOL0     H63595  -2.254   0.243   2.387  2.9179 -1.3243 -2.3957
  461MOL0     H63596  -2.190   0.261   2.168  0.3984  0.0152  1.5420
  461MOL0     H63597  -2.267   0.414   2.133 -2.6650  1.3501  0.2612
  461MOL0     H63598  -1.689   0.873   3.081 -0.7447 -0.8826  0.5109
  461MOL0     H63599  -1.481   0.794   3.174  0.1248  1.4817 -0.6521
  461MOL0     H63600  -1.041   0.594   2.985  2.1481 -1.5453 -0.4111
  461MOL0     H63601  -0.790   0.581   2.999 -3.3697 -1.7030 -2.5532
  461MOL0     H63602  -0.244   1.090   4.515 -0.6571 -0.5289 -1.2296
  461MOL0     H63603  -0.164   1.298   4.604  1.3137  0.2848 -0.2342
  461MOL0     H63604  -0.127   1.559   4.614 -0.7729  0.7693 -0.0108
  461MOL0     H63605  -0.224   1.749   4.685  0.8679 -0.4606 -1.5880
  461MOL0     H63606  -0.145   1.882   5.101 -1.3407 -0.2216  0.0748
  461MOL0     H63607  -0.006   1.974   5.024 -0.1951 -1.0322  0.1777
  461MOL0     H63608  -0.152   2.107   5.147  0.2140  0.2312 -0.4355
  461MOL0     H63609  -0.291   2.055   5.040 -1.1186  2.8027 -0.2635
  461MOL0     H63610  -0.052   2.202   4.926 -0.2071 -3.1510 -0.1813
  461MOL0     H63611  -0.200   2.159   4.845 -1.2649  0.2004  0.0641
  461MOL0     H63612  -0.167   2.358   5.081 -2.1376  0.8640  2.5356
  461MOL0     H63613  -0.332   2.316   5.023  0.6327  0.8715  0.9019
  461MOL0     H63614  -0.203   2.599   4.739 -3.6500 -1.0269 -0.6978
  461MOL0     H63615   0.049   1.736   5.028  1.4415 -2.1936  0.4518
  461MOL0     H63616   0.244   1.641   4.982 -0.0102 -1.3091  2.6257
  461MOL0     H63617   0.180   1.476   5.012 -0.9034  1.3153  0.1555
  461MOL0     H63618   0.283   1.522   4.863  2.5336  3.3516  0.2151
  462MOL0     O63619   8.144   6.755   5.374  0.5587  0.8501 -0.9613
  462MOL0     C63620   8.046   6.684   5.385  0.5160 -0.3918  0.2635
  462MOL0     O63621   8.043   6.547   5.398 -0.0034  0.3894  0.0798
  462MOL0     C63622   8.164   6.490   5.441 -0.5349 -0.0207 -0.0382
  462MOL0     C63623   8.236   6.542   5.540  0.2390  0.1843 -0.4478
  462MOL0     C63624   8.348   6.479   5.590 -0.4290  0.1426 -0.4128
  462MOL0     C63625   8.398   6.355   5.546  0.1198  0.0927  0.1305
  462MOL0     O63626   8.512   6.287   5.588  0.3170  0.4777  0.3231
  462MOL0     C63627   8.575   6.338   5.712  0.0579 -0.8842 -0.0302
  462MOL0     C63628   8.693   6.247   5.737 -0.5085  0.3413 -0.2331
  462MOL0     C63629   8.808   6.267   5.646 -0.9779 -0.7479  0.3205
  462MOL0     C63630   8.910   6.153   5.641  0.1834 -0.0299 -0.3113
  462MOL0     C63631   8.853   6.027   5.583  0.3629 -0.2312  0.0584
  462MOL0     C63632   8.957   5.914   5.596 -0.4148  0.5974  0.5403
  462MOL0     C63633   8.923   5.795   5.509 -0.6888  0.0126  0.3364
  462MOL0     C63634   9.043   5.697   5.490  0.1467 -0.1828 -0.7894
  462MOL0     N63635   9.026   5.610   5.373 -0.2109  0.0056 -1.1474
  462MOL0     C63636   9.095   5.626   5.260  0.3739  0.7142  0.3370
  462MOL0     C63637   9.083   5.508   5.201  0.1155  0.6471  0.1836
  462MOL0     C63638   9.160   5.474   5.077  0.7909  0.6140 -0.1589
  462MOL0     C63639   9.305   5.436   5.117 -0.4142  0.2158 -0.3708
  462MOL0     C63640   9.397   5.546   5.099 -0.3531  1.1523  0.2948
  462MOL0     C63641   9.527   5.484   5.161  0.4357  0.5094  0.2060
  462MOL0     O63642   9.640   5.577   5.148  0.1448  0.3957  1.3866
  462MOL0     C63643   9.761   5.531   5.185  0.5362 -0.2806 -0.3140
  462MOL0     C63644   9.870   5.614   5.149  0.4333 -0.1127 -0.1564
  462MOL0     C63645  10.005   5.586   5.185 -0.1886  0.1921 -0.0584
  462MOL0     C63646  10.116   5.689   5.165  0.4015 -0.1127 -0.2411
  462MOL0     C63647  10.027   5.466   5.268  0.2376  0.5948 -0.5454
  462MOL0     C63648  10.156   5.421   5.326  0.1198 -0.6679  0.0895
  462MOL0     O63649  10.279   5.458   5.273  1.2772  0.5242 -0.2560
  462MOL0     C63650  10.386   5.480   5.353 -0.2135  0.1434  0.6098
  462MOL0     C63651  10.378   5.521   5.489  0.2142  0.0105  0.4649
  462MOL0     C63652  10.490   5.530   5.571 -0.2051  1.1485  0.4453
  462MOL0     C63653  10.623   5.514   5.517  0.1963  0.8288  0.6781
  462MOL0     O63654  10.735   5.552   5.588 -0.1246 -0.6047  0.3310
  462MOL0     C63655  10.733   5.688   5.627 -0.0787  0.4938  1.0170
  462MOL0     C63656  10.793   5.703   5.764 -0.1672 -0.5036 -0.0390
  462MOL0     C63657  10.925   5.638   5.801 -0.3801 -0.3210 -1.1660
  462MOL0     C63658  11.040   5.710   5.731 -1.0371  0.4275 -0.0226
  462MOL0     C63659  11.182   5.683   5.797 -0.4947 -0.0123 -0.1733
  462MOL0     C63660  11.292   5.737   5.704 -0.1986  0.9186  0.0089
  462MOL0     C63661  11.290   5.700   5.554  0.3906  0.4589  0.1287
  462MOL0     C63662  11.429   5.714   5.501 -0.7984  0.0913  0.9823
  462MOL0    Cl63663  11.551   5.595   5.570 -0.1162 -0.3692  0.1033
  462MOL0     C63664  10.629   5.477   5.385  0.2991  0.6135  0.0217
  462MOL0     C63665  10.518   5.453   5.304 -0.5612  0.0181  0.0783
  462MOL0     O63666  10.148   5.349   5.429  0.1917 -0.0502 -0.2688
  462MOL0     C63667   9.922   5.389   5.298  0.0115 -0.0187  0.0025
  462MOL0     C63668   9.784   5.414   5.260  0.6620  0.1624  0.3263
  462MOL0     N63669   9.009   5.417   5.272 -0.7304  0.1847  0.9011
  462MOL0     N63670   8.979   5.484   5.375  0.0646  0.6587 -0.1987
  462MOL0     C63671   8.324   6.298   5.438 -0.2036 -0.2380 -0.6773
  462MOL0     C63672   8.211   6.363   5.389 -0.3193 -0.6600  0.6563
  462MOL0     C63673   7.908   6.737   5.346 -0.7159 -0.2116 -0.3460
  462MOL0     C63674   7.814   6.662   5.277  0.0635 -0.0158 -0.2387
  462MOL0     C63675   7.685   6.705   5.255  0.4078  0.1311  0.1621
  462MOL0     C63676   7.643   6.833   5.293 -0.1291  0.1612  0.3270
  462MOL0     O63677   7.524   6.881   5.258 -0.1423 -0.4913 -1.2274
  462MOL0     C63678   7.407   6.841   5.331 -1.0113  0.0284 -0.4157
  462MOL0     C63679   7.284   6.850   5.242 -0.0787  0.9300 -0.7591
  462MOL0     C63680   7.305   6.748   5.122  0.1259  0.4554  0.4719
  462MOL0     C63681   7.174   6.734   5.035  0.6451 -0.2365 -0.0915
  462MOL0     C63682   7.052   6.677   5.096 -0.0859 -1.3444 -0.8524
  462MOL0     C63683   6.939   6.648   5.138 -0.0230  1.2150 -0.4328
  462MOL0     C63684   7.734   6.914   5.359  0.5988  0.3647 -0.1219
  462MOL0     C63685   7.861   6.867   5.395  0.2421 -0.7760 -0.0203
  462MOL0     C63686   7.937   6.955   5.486 -0.8490  0.1617 -0.1852
  462MOL0     H63687   8.199   6.636   5.580 -2.0008 -0.5927 -0.5265
  462MOL0     H63688   8.405   6.541   5.659 -1.4864 -0.7372  1.3306
  462MOL0     H63689   8.503   6.343   5.794  0.2503 -0.7387  0.1308
  462MOL0     H63690   8.628   6.433   5.702 -0.6220 -0.1977  2.3238
  462MOL0     H63691   8.727   6.274   5.837 -2.1282  1.3235  0.0919
  462MOL0     H63692   8.663   6.142   5.744 -2.6959  0.7093 -2.4265
  462MOL0     H63693   8.784   6.285   5.541 -1.0064  0.4739  0.5149
  462MOL0     H63694   8.841   6.367   5.676 -0.2916 -1.2502  1.2911
  462MOL0     H63695   8.996   6.188   5.583  1.3483 -1.7635  0.3041
  462MOL0     H63696   8.951   6.131   5.740  0.3487 -0.6989 -0.5227
  462MOL0     H63697   8.821   6.050   5.481 -3.1383  1.3170  1.3506
  462MOL0     H63698   8.766   5.992   5.638 -0.3322 -0.4400 -1.1373
  462MOL0     H63699   9.053   5.960   5.574 -1.0251  1.4214 -0.4694
  462MOL0     H63700   8.946   5.884   5.701 -2.3272 -1.5368 -0.1855
  462MOL0     H63701   8.903   5.830   5.407 -0.3235 -2.1665 -0.5455
  462MOL0     H63702   8.830   5.749   5.544 -2.0091  2.1800 -0.1333
  462MOL0     H63703   9.141   5.744   5.489  0.1619 -0.1355  0.5473
  462MOL0     H63704   9.052   5.632   5.578 -2.0533 -1.0837 -1.1544
  462MOL0     H63705   9.163   5.704   5.228  0.9876 -0.9205 -2.7374
  462MOL0     H63706   9.152   5.558   5.008 -2.8347  1.8038  1.4370
  462MOL0     H63707   9.120   5.384   5.031  0.0556  1.6105 -1.5300
  462MOL0     H63708   9.307   5.405   5.222 -0.3761  1.0152 -0.1289
  462MOL0     H63709   9.348   5.352   5.061  1.0338  0.1413  0.8206
  462MOL0     H63710   9.414   5.572   4.995  0.4925 -0.8601 -0.1290
  462MOL0     H63711   9.374   5.633   5.160  0.9652  0.5470  1.7519
  462MOL0     H63712   9.516   5.452   5.266  0.2961  0.4040  0.1605
  462MOL0     H63713   9.546   5.398   5.097  1.0960  0.3304  0.6347
  462MOL0     H63714   9.839   5.704   5.097 -2.0854 -1.2371 -0.7906
  462MOL0     H63715  10.197   5.642   5.109  0.1827 -0.6660 -0.1032
  462MOL0     H63716  10.160   5.707   5.264  1.6803 -0.1992 -0.7883
  462MOL0     H63717  10.073   5.772   5.108  1.0869  0.6407  0.3159
  462MOL0     H63718  10.284   5.544   5.539 -0.1746  0.9989 -0.6813
  462MOL0     H63719  10.475   5.565   5.672  1.0990  0.9329  0.7343
  462MOL0     H63720  10.803   5.735   5.557  1.8944 -2.0346  1.1385
  462MOL0     H63721  10.632   5.730   5.631 -0.0752  0.4339  1.8823
  462MOL0     H63722  10.803   5.811   5.780  0.3886 -0.2003 -2.1128
  462MOL0     H63723  10.721   5.678   5.843  0.1618  1.7016  1.0318
  462MOL0     H63724  10.935   5.535   5.766 -0.5589 -0.1455 -1.7496
  462MOL0     H63725  10.927   5.648   5.910 -4.6110 -1.6889 -0.7389
  462MOL0     H63726  11.024   5.818   5.731  1.6423  1.0892  4.5988
  462MOL0     H63727  11.037   5.682   5.625 -2.8439 -2.8654  0.7745
  462MOL0     H63728  11.205   5.740   5.887  0.2014  3.3800 -2.3393
  462MOL0     H63729  11.195   5.574   5.803  0.1238 -0.2551 -3.8361
  462MOL0     H63730  11.382   5.710   5.760  2.8253  2.8619 -3.4693
  462MOL0     H63731  11.297   5.846   5.702 -0.8222  0.9428 -0.5613
  462MOL0     H63732  11.233   5.782   5.510 -0.6930  0.9481  2.3080
  462MOL0     H63733  11.259   5.596   5.537  4.7412 -0.7228 -1.9283
  462MOL0     H63734  11.475   5.812   5.516  1.3210 -0.7969  0.5938
  462MOL0     H63735  11.429   5.696   5.393  1.5740  1.2187  0.7149
  462MOL0     H63736  10.726   5.472   5.337  0.4577  1.2552  0.2569
  462MOL0     H63737  10.529   5.419   5.202 -1.2334 -0.2694  0.1002
  462MOL0     H63738   9.926   5.304   5.365 -1.2464  1.7833  2.5114
  462MOL0     H63739   9.708   5.344   5.293  1.8009 -1.1455  0.2739
  462MOL0     H63740   8.366   6.206   5.401  4.4710  1.3809 -0.0531
  462MOL0     H63741   8.155   6.327   5.304 -1.4561  1.9132  0.2278
  462MOL0     H63742   7.843   6.562   5.246  0.7011 -0.2496  1.0689
  462MOL0     H63743   7.621   6.628   5.213  1.7406 -2.5615  2.7507
  462MOL0     H63744   7.425   6.737   5.360 -1.2844  0.2642  0.6418
  462MOL0     H63745   7.388   6.903   5.419  1.1684 -0.7078  0.6402
  462MOL0     H63746   7.265   6.942   5.186 -0.9185  0.4793 -1.2360
  462MOL0     H63747   7.208   6.809   5.310  1.5047 -1.5938 -0.3828
  462MOL0     H63748   7.380   6.782   5.050  0.5330  0.2367  0.7852
  462MOL0     H63749   7.330   6.646   5.153  0.3263 -0.1492 -1.5649
  462MOL0     H63750   7.198   6.668   4.951  0.5704  0.1028 -0.3835
  462MOL0     H63751   7.138   6.823   4.982 -3.8475 -1.0278  1.1990
  462MOL0     H63752   6.850   6.610   5.183  0.5932 -0.0890 -0.2717
  462MOL0     H63753   7.690   7.006   5.397  0.5689  0.3055 -0.0119
  462MOL0     H63754   7.997   6.900   5.559 -1.0597  0.7459  0.4378
  462MOL0     H63755   7.997   7.018   5.418  1.2476 -1.2996  0.2025
  462MOL0     H63756   7.870   7.012   5.550 -1.4719  0.9267 -1.4656
  463MOL0     O63757   2.203   4.938  10.569  0.2143 -0.0013  0.1003
  463MOL0     C63758   2.153   4.834  10.605 -0.0085 -0.1085 -0.2509
  463MOL0     O63759   2.191   4.712  10.574  0.7618  0.1287  0.2019
  463MOL0     C63760   2.294   4.685  10.476 -0.1769  0.1801  0.1002
  463MOL0     C63761   2.419   4.743  10.488  0.5336 -0.3604  0.9683
  463MOL0     C63762   2.505   4.742  10.385 -0.6796 -0.4830 -0.4448
  463MOL0     C63763   2.483   4.661  10.273 -0.0532 -0.0568  0.2675
  463MOL0     O63764   2.569   4.632  10.169  0.7893 -0.6038  1.2631
  463MOL0     C63765   2.677   4.727  10.139  0.6099 -0.2840 -0.2267
  463MOL0     C63766   2.668   4.760   9.989  1.0419  0.5436 -0.3070
  463MOL0     C63767   2.779   4.864   9.965 -0.5120 -0.2554 -0.0818
  463MOL0     C63768   2.830   4.850   9.820  0.2891  0.3134 -0.1381
  463MOL0     C63769   2.959   4.927   9.794 -0.2532  0.8309  0.1794
  463MOL0     C63770   2.973   5.085   9.817  1.3207 -0.6744 -0.1402
  463MOL0     C63771   3.116   5.131   9.792 -0.0555  0.7642 -0.2072
  463MOL0     C63772   3.122   5.277   9.791  0.3623 -0.5515 -0.5141
  463MOL0     N63773   3.262   5.319   9.765 -0.5475  0.6385 -0.0878
  463MOL0     C63774   3.299   5.384   9.650  0.1017  0.5107  0.0033
  463MOL0     C63775   3.432   5.402   9.659  0.6971 -0.1385 -0.4595
  463MOL0     C63776   3.517   5.468   9.547  0.5806 -0.2280 -0.3235
  463MOL0     C63777   3.452   5.483   9.411 -0.4024 -0.2233  0.2371
  463MOL0     C63778   3.505   5.583   9.302 -0.3008 -0.2547 -0.3627
  463MOL0     C63779   3.467   5.552   9.157 -0.2719  0.0842  0.8593
  463MOL0     O63780   3.523   5.659   9.070  0.6661  0.2905 -0.0959
  463MOL0     C63781   3.664   5.675   9.057 -0.2722  0.4601 -0.3102
  463MOL0     C63782   3.704   5.794   9.004 -0.4384 -0.3132  0.2376
  463MOL0     C63783   3.836   5.827   8.978  0.6089  1.0993 -0.0421
  463MOL0     C63784   3.861   5.957   8.911  0.3386  0.6611  0.5031
  463MOL0     C63785   3.931   5.741   9.024 -0.1882 -0.3998  0.1492
  463MOL0     C63786   4.074   5.779   9.019 -0.5035  0.4862  0.2012
  463MOL0     O63787   4.098   5.901   9.069 -0.0406  0.7538 -0.9201
  463MOL0     C63788   4.212   5.968   9.034 -0.6205 -1.0148 -0.6575
  463MOL0     C63789   4.280   6.046   9.136  0.0036  0.3449  1.0972
  463MOL0     C63790   4.402   6.103   9.099 -0.0460  0.3482  0.1445
  463MOL0     C63791   4.467   6.090   8.976  0.6001 -0.0755 -0.2681
  463MOL0     O63792   4.584   6.160   8.960 -0.1188  0.9853  0.2207
  463MOL0     C63793   4.641   6.174   8.827  0.4656 -0.2356  0.2436
  463MOL0     C63794   4.785   6.226   8.849 -0.7517 -0.2800 -0.6014
  463MOL0     C63795   4.845   6.280   8.730  0.1914  0.1443  0.0767
  463MOL0     C63796   4.994   6.283   8.755  0.5243  0.0394  0.9214
  463MOL0     C63797   5.060   6.375   8.652  0.2915 -0.4180  0.5229
  463MOL0     C63798   5.199   6.419   8.680 -0.2796 -0.3548 -0.3813
  463MOL0     C63799   5.313   6.339   8.628 -0.1893 -0.2088  0.8871
  463MOL0     C63800   5.457   6.379   8.667 -0.2905 -0.3268  0.3558
  463MOL0    Cl63801   5.500   6.332   8.828 -0.1474 -0.1430 -0.1890
  463MOL0     C63802   4.395   6.026   8.870 -0.1090  0.2773  0.8912
  463MOL0     C63803   4.273   5.960   8.905 -0.0235 -0.3932  0.7856
  463MOL0     O63804   4.153   5.695   8.991 -0.4202  0.5398  0.3853
  463MOL0     C63805   3.896   5.624   9.092  0.6980  1.0125 -0.0320
  463MOL0     C63806   3.761   5.580   9.095  0.4068 -0.5536 -0.4576
  463MOL0     N63807   3.476   5.334   9.774  0.6699  0.0329  0.2434
  463MOL0     N63808   3.373   5.285   9.837  0.4266 -0.3154 -0.1482
  463MOL0     C63809   2.355   4.614  10.258 -0.1187  0.1702 -0.6271
  463MOL0     C63810   2.259   4.626  10.362  1.2735 -0.1132  0.4727
  463MOL0     C63811   2.028   4.861  10.692 -0.0676  0.4431 -0.0364
  463MOL0     C63812   2.016   4.989  10.743  0.2483 -0.9451 -0.7163
  463MOL0     C63813   1.906   5.020  10.813 -0.3260 -0.1692  0.1842
  463MOL0     C63814   1.809   4.919  10.848  0.1554  0.1540 -0.2396
  463MOL0     O63815   1.696   4.935  10.930 -0.6801 -0.0880 -0.5742
  463MOL0     C63816   1.665   5.059  10.982  0.3222 -0.5611 -1.2765
  463MOL0     C63817   1.525   5.063  11.036  1.2723  0.2053  0.4707
  463MOL0     C63818   1.477   5.202  11.075 -0.5254 -0.0579  1.0999
  463MOL0     C63819   1.325   5.193  11.081 -0.2085  0.1437 -1.5568
  463MOL0     C63820   1.271   5.312  11.125 -0.7298 -0.1054 -0.2528
  463MOL0     C63821   1.218   5.420  11.143 -0.6840 -0.2844 -0.3189
  463MOL0     C63822   1.824   4.789  10.797  0.7366  0.3561  0.1856
  463MOL0     C63823   1.931   4.757  10.721 -0.5805 -0.6342 -0.3610
  463MOL0     C63824   1.940   4.607  10.667  0.7916 -0.1177  0.1050
  463MOL0     H63825   2.433   4.802  10.579 -1.1758 -2.3438  2.6141
  463MOL0     H63826   2.607   4.773  10.404 -0.7340 -0.7536  0.3425
  463MOL0     H63827   2.776   4.691  10.170  1.0421  2.1815  1.4833
  463MOL0     H63828   2.645   4.812  10.199 -1.1267 -1.4982  0.6544
  463MOL0     H63829   2.696   4.672   9.931  0.3232 -0.4129  0.7616
  463MOL0     H63830   2.569   4.795   9.958  1.2186  0.2203 -1.2723
  463MOL0     H63831   2.733   4.963   9.973  1.6119  0.9206 -1.1977
  463MOL0     H63832   2.865   4.839  10.028  1.6606  1.9565 -1.9622
  463MOL0     H63833   2.860   4.745   9.819  0.8853  0.4775 -1.5141
  463MOL0     H63834   2.752   4.875   9.747  0.0681 -0.7649 -0.2900
  463MOL0     H63835   2.990   4.901   9.693 -4.1016 -0.0087 -0.9687
  463MOL0     H63836   3.033   4.880   9.859 -0.4121  0.5836  0.1850
  463MOL0     H63837   2.906   5.142   9.752 -1.1266 -4.3541 -1.1692
  463MOL0     H63838   2.947   5.112   9.919 -1.1981  0.0092 -0.9058
  463MOL0     H63839   3.151   5.086   9.698  0.0876 -0.2608  0.3249
  463MOL0     H63840   3.179   5.097   9.875 -0.0375  0.0398 -0.5105
  463MOL0     H63841   3.046   5.318   9.724 -1.8773 -1.0835  1.5822
  463MOL0     H63842   3.091   5.320   9.886 -0.2660  0.4693 -1.1613
  463MOL0     H63843   3.229   5.418   9.574 -0.8712  0.2437  0.7612
  463MOL0     H63844   3.616   5.422   9.550  0.5422 -0.2999  2.0382
  463MOL0     H63845   3.531   5.568   9.589  1.3774 -0.8671  0.9932
  463MOL0     H63846   3.470   5.381   9.375  1.4577  0.1354  0.0282
  463MOL0     H63847   3.344   5.500   9.413 -0.3474  0.2838 -0.4733
  463MOL0     H63848   3.457   5.679   9.324  0.5807  0.4426 -1.3649
  463MOL0     H63849   3.612   5.591   9.319 -0.1340 -0.1313 -1.3835
  463MOL0     H63850   3.511   5.457   9.126  1.2127  0.5374  1.4509
  463MOL0     H63851   3.360   5.556   9.137  0.1555  2.2957 -1.6197
  463MOL0     H63852   3.619   5.855   8.975 -0.0751 -0.0648 -0.3329
  463MOL0     H63853   3.869   6.036   8.985  0.8611  0.6992  0.4054
  463MOL0     H63854   3.789   5.988   8.835  3.5591  0.7240 -2.7649
  463MOL0     H63855   3.951   5.935   8.853 -0.4974  0.1247 -0.6396
  463MOL0     H63856   4.240   6.036   9.236 -0.9286 -1.3753  0.5932
  463MOL0     H63857   4.455   6.153   9.179  0.0855 -1.2765  1.1171
  463MOL0     H63858   4.648   6.076   8.779 -1.4786 -0.5888  0.5841
  463MOL0     H63859   4.579   6.238   8.763 -0.3977 -0.3577  0.9428
  463MOL0     H63860   4.769   6.312   8.915 -2.0042  0.2388 -1.5303
  463MOL0     H63861   4.853   6.160   8.904 -0.9381  0.9951  1.2725
  463MOL0     H63862   4.815   6.383   8.709  1.0532 -0.1513 -3.0437
  463MOL0     H63863   4.814   6.224   8.642  3.4822 -4.0415  1.2567
  463MOL0     H63864   5.047   6.187   8.752  0.5931  0.0816  0.7825
  463MOL0     H63865   5.020   6.320   8.855  0.4975 -0.0064  0.9449
  463MOL0     H63866   5.071   6.309   8.565  1.1654 -1.8678  1.6829
  463MOL0     H63867   4.981   6.446   8.631 -2.2071 -1.8551  4.0859
  463MOL0     H63868   5.205   6.433   8.788  0.3397  3.0222 -0.7344
  463MOL0     H63869   5.221   6.519   8.641 -0.6843 -0.7117 -1.5900
  463MOL0     H63870   5.306   6.366   8.523  0.9532  1.4424  1.2104
  463MOL0     H63871   5.297   6.232   8.649  0.5641 -1.2856 -3.2659
  463MOL0     H63872   5.477   6.486   8.653 -2.0685 -0.0797 -0.6344
  463MOL0     H63873   5.528   6.324   8.606 -0.9113 -1.9201  1.0036
  463MOL0     H63874   4.429   6.032   8.767 -2.0431  0.7169  0.2422
  463MOL0     H63875   4.210   5.909   8.834 -2.9757  1.0335  2.1960
  463MOL0     H63876   3.974   5.562   9.135  0.0171  1.6009  2.2318
  463MOL0     H63877   3.733   5.484   9.135  2.1314 -0.0918  2.1240
  463MOL0     H63878   2.337   4.557  10.167  1.3400  1.4045 -1.7430
  463MOL0     H63879   2.162   4.578  10.358  1.4191 -0.3902  0.2055
  463MOL0     H63880   2.093   5.066  10.740  1.2161 -1.7613  1.5437
  463MOL0     H63881   1.895   5.121  10.853  3.1281  1.0739 -1.6201
  463MOL0     H63882   1.733   5.074  11.066  1.6658  0.4037 -2.4965
  463MOL0     H63883   1.669   5.143  10.911  2.0116 -1.5010 -2.3471
  463MOL0     H63884   1.500   4.995  11.117 -0.8949 -0.4896 -0.6799
  463MOL0     H63885   1.447   5.028  10.967  1.3857 -0.4684  0.6756
  463MOL0     H63886   1.529   5.230  11.167  0.9658  1.7235 -0.2238
  463MOL0     H63887   1.506   5.277  11.001 -1.4852  0.0764  0.8397
  463MOL0     H63888   1.296   5.109  11.145 -1.3574  1.2048 -0.6563
  463MOL0     H63889   1.284   5.176  10.980 -0.0143 -1.0845 -1.4533
  463MOL0     H63890   1.174   5.514  11.169 -2.5031 -0.1948 -3.2316
  463MOL0     H63891   1.750   4.715  10.825  1.0733 -0.1950 -0.3293
  463MOL0     H63892   1.967   4.616  10.561 -1.9223  2.1737 -0.5400
  463MOL0     H63893   2.016   4.547  10.717 -0.7033  0.1008  2.8298
  463MOL0     H63894   1.841   4.563  10.657  0.0474  0.5727  3.2308
  464MOL0     O63895   0.826  11.183   2.319 -0.6834 -0.5055  0.1813
  464MOL0     C63896   0.797  11.208   2.437 -0.5500  0.5751  0.4529
  464MOL0     O63897   0.885  11.205   2.537  0.6402  0.0187 -0.4154
  464MOL0     C63898   1.020  11.211   2.505  0.2748 -0.1117  0.4996
  464MOL0     C63899   1.076  11.334   2.479 -0.0890  0.2512 -0.7492
  464MOL0     C63900   1.210  11.342   2.455  0.3703  0.1151 -0.8640
  464MOL0     C63901   1.280  11.231   2.448 -0.9476  0.4375  0.7754
  464MOL0     O63902   1.402  11.237   2.392  0.0397 -0.6018  0.0048
  464MOL0     C63903   1.482  11.347   2.411  0.0585  0.0849 -0.1778
  464MOL0     C63904   1.635  11.326   2.416 -0.5151  0.5788  0.5979
  464MOL0     C63905   1.694  11.250   2.530 -0.3850 -0.0695 -0.0862
  464MOL0     C63906   1.847  11.277   2.550 -0.1199  0.5525  0.8650
  464MOL0     C63907   1.894  11.201   2.663 -0.0256 -0.0004 -0.3287
  464MOL0     C63908   1.868  11.289   2.794 -0.5056 -0.3179 -0.0890
  464MOL0     C63909   1.921  11.189   2.908 -0.4308  0.1146 -0.5139
  464MOL0     C63910   1.918  11.271   3.040  0.8162  0.6778  0.3961
  464MOL0     N63911   2.020  11.376   3.044  0.5905  0.0965  0.1576
  464MOL0     C63912   2.156  11.369   3.041  0.7567  0.0401  0.3832
  464MOL0     C63913   2.216  11.491   3.027  0.5322  0.0053  0.0469
  464MOL0     C63914   2.361  11.502   3.040 -0.5505 -0.3078 -0.0480
  464MOL0     C63915   2.417  11.485   2.890  0.4576  0.1873  0.5709
  464MOL0     C63916   2.566  11.520   2.879  1.7323  0.0043 -0.2484
  464MOL0     C63917   2.623  11.472   2.750  0.1014 -0.2986 -0.0368
  464MOL0     O63918   2.762  11.517   2.732 -0.1012 -0.0176  0.5993
  464MOL0     C63919   2.851  11.453   2.644  0.1189  0.1755  0.3881
  464MOL0     C63920   2.806  11.362   2.541  0.1944 -0.3539 -0.1933
  464MOL0     C63921   2.893  11.306   2.454  0.3674  0.2725  0.7233
  464MOL0     C63922   2.834  11.194   2.361 -0.5554  0.0275 -0.5521
  464MOL0     C63923   3.031  11.335   2.463 -0.4554  0.9151 -0.4078
  464MOL0     C63924   3.134  11.272   2.379  0.3176  0.6673 -0.3709
  464MOL0     O63925   3.108  11.249   2.252 -0.4014  0.0668 -0.0463
  464MOL0     C63926   3.213  11.218   2.166  0.8633 -0.0608  0.5516
  464MOL0     C63927   3.226  11.097   2.095 -0.4870  0.0930 -0.6991
  464MOL0     C63928   3.324  11.092   1.999 -0.3705 -0.9550  0.9570
  464MOL0     C63929   3.424  11.191   1.981  0.0261  0.8045 -0.8230
  464MOL0     O63930   3.534  11.191   1.898 -0.9950 -0.1143  0.0797
  464MOL0     C63931   3.576  11.063   1.847  0.4360  0.5489 -0.4976
  464MOL0     C63932   3.721  11.074   1.788 -0.7282  1.1486  0.6702
  464MOL0     C63933   3.832  11.060   1.896  0.4588  0.4008 -0.7078
  464MOL0     C63934   3.966  11.034   1.823 -1.1564 -0.8742 -0.0225
  464MOL0     C63935   4.079  10.998   1.924 -0.5902  0.2898  0.7295
  464MOL0     C63936   4.201  10.978   1.844 -0.6544  0.3655  0.2168
  464MOL0     C63937   4.312  10.970   1.943 -0.1580  0.6038 -0.5947
  464MOL0     C63938   4.446  10.938   1.879 -0.1627 -0.0337 -0.3785
  464MOL0    Cl63939   4.433  10.787   1.778 -0.1508 -0.0249  0.3105
  464MOL0     C63940   3.407  11.305   2.052 -0.7310  0.5142 -0.6788
  464MOL0     C63941   3.298  11.329   2.137  0.2614  0.7331  0.8441
  464MOL0     O63942   3.241  11.243   2.439 -0.4210  0.4358  0.2457
  464MOL0     C63943   3.075  11.415   2.570 -0.0780  0.0719  0.7807
  464MOL0     C63944   2.984  11.469   2.659 -0.7044  0.2982 -0.0614
  464MOL0     N63945   2.112  11.584   3.019 -1.1634 -0.3166  1.1868
  464MOL0     N63946   2.007  11.513   3.028  0.4144 -0.1793 -0.5665
  464MOL0     C63947   1.229  11.105   2.469 -0.4994  1.4399  0.3998
  464MOL0     C63948   1.092  11.088   2.493  0.0510  0.6146 -0.4235
  464MOL0     C63949   0.655  11.246   2.470 -0.3408 -0.1636  0.0410
  464MOL0     C63950   0.607  11.217   2.601 -0.7488 -0.1396  0.0353
  464MOL0     C63951   0.478  11.239   2.636  1.0499 -0.8013 -0.6285
  464MOL0     C63952   0.379  11.289   2.545 -0.2604 -0.6458 -0.0215
  464MOL0     O63953   0.246  11.309   2.566 -0.5108  0.7838 -0.1860
  464MOL0     C63954   0.201  11.292   2.698  0.5398  1.0685  0.1234
  464MOL0     C63955   0.049  11.300   2.705 -0.4034  0.1546  0.0612
  464MOL0     C63956  -0.015  11.433   2.658  0.0576  0.0356  0.0900
  464MOL0     C63957  -0.144  11.456   2.725  0.1349  0.0218 -0.7359
  464MOL0     C63958  -0.242  11.356   2.680 -0.0379  0.6545  0.2825
  464MOL0     C63959  -0.324  11.277   2.638  0.4688  0.1949  0.0759
  464MOL0     C63960   0.425  11.321   2.416 -0.2192 -0.8224 -0.1980
  464MOL0     C63961   0.559  11.294   2.373 -0.1926 -0.6776  0.0664
  464MOL0     C63962   0.590  11.298   2.215 -0.1985 -0.2600 -0.6340
  464MOL0     H63963   1.020  11.427   2.491 -1.3516 -0.5824  0.1538
  464MOL0     H63964   1.257  11.437   2.434  0.5314  0.5604  1.2412
  464MOL0     H63965   1.464  11.393   2.509  0.1941  0.3912 -0.2939
  464MOL0     H63966   1.442  11.424   2.344 -3.9347 -2.0827 -0.5898
  464MOL0     H63967   1.649  11.265   2.326  0.8718  0.7404  0.6736
  464MOL0     H63968   1.688  11.419   2.394  0.0912 -0.1364 -1.1528
  464MOL0     H63969   1.644  11.260   2.627  2.4606 -2.6359  1.8376
  464MOL0     H63970   1.678  11.146   2.499  1.9784  0.3404 -3.1798
  464MOL0     H63971   1.886  11.237   2.456 -0.9557  2.1790 -0.2151
  464MOL0     H63972   1.875  11.381   2.567 -1.8130  1.2095 -0.0876
  464MOL0     H63973   2.003  11.195   2.649  0.5548 -2.8261  3.6746
  464MOL0     H63974   1.861  11.099   2.680  3.9161 -1.4722 -0.3464
  464MOL0     H63975   1.927  11.380   2.793  0.4926 -0.9126  1.4827
  464MOL0     H63976   1.762  11.304   2.817 -0.2090 -0.8345  1.7704
  464MOL0     H63977   2.024  11.161   2.884 -0.0425  0.9625  0.1087
  464MOL0     H63978   1.863  11.097   2.922  1.5555 -0.8190  2.7172
  464MOL0     H63979   1.823  11.322   3.057 -0.7738 -1.4593 -1.4503
  464MOL0     H63980   1.931  11.200   3.123 -2.7019 -1.4645 -0.6776
  464MOL0     H63981   2.209  11.275   3.056 -0.7924 -1.0546 -0.6929
  464MOL0     H63982   2.405  11.425   3.104  1.5254  1.5842  0.9498
  464MOL0     H63983   2.384  11.601   3.081  1.4245 -0.5110 -0.5593
  464MOL0     H63984   2.401  11.382   2.856  0.2030  0.6535 -0.7632
  464MOL0     H63985   2.368  11.552   2.819  1.8685 -0.1584 -0.7769
  464MOL0     H63986   2.574  11.628   2.864 -0.0573  0.3503  0.9838
  464MOL0     H63987   2.618  11.494   2.972  0.6139  0.9723  0.6643
  464MOL0     H63988   2.619  11.363   2.748 -0.2578 -0.2757 -1.0016
  464MOL0     H63989   2.548  11.517   2.684  1.2236  0.7949 -0.5982
  464MOL0     H63990   2.698  11.351   2.537  0.0773  0.9276 -0.9044
  464MOL0     H63991   2.739  11.159   2.403  0.6802 -2.4848  0.3675
  464MOL0     H63992   2.904  11.109   2.364  2.1264  2.0495  3.4986
  464MOL0     H63993   2.815  11.230   2.260 -0.9208  0.4282 -0.3399
  464MOL0     H63994   3.154  11.018   2.113  1.0482 -1.3763 -0.6978
  464MOL0     H63995   3.321  11.008   1.931 -1.2983  1.2499 -1.9447
  464MOL0     H63996   3.579  10.994   1.932 -2.4583  1.8543  0.7823
  464MOL0     H63997   3.513  11.016   1.771  0.5889 -1.8932  0.7783
  464MOL0     H63998   3.737  10.990   1.720  0.5510  1.3752  0.6638
  464MOL0     H63999   3.722  11.171   1.738  1.0972  1.4290  1.1656
  464MOL0     H64000   3.806  10.979   1.965 -0.2758  1.7715  0.6750
  464MOL0     H64001   3.839  11.156   1.946  0.3107  1.8835 -3.3295
  464MOL0     H64002   3.991  11.117   1.757 -0.7714 -0.2066  0.9314
  464MOL0     H64003   3.955  10.945   1.760 -2.0238 -0.6770 -0.1621
  464MOL0     H64004   4.093  11.085   1.990 -2.5793  2.0553 -1.0164
  464MOL0     H64005   4.051  10.913   1.987 -0.8732  0.1352  0.3931
  464MOL0     H64006   4.220  11.058   1.771  2.6664 -2.0020 -1.8051
  464MOL0     H64007   4.199  10.892   1.777  1.4475  1.0763 -0.8779
  464MOL0     H64008   4.286  10.907   2.028 -1.5053  2.2731  0.2904
  464MOL0     H64009   4.326  11.068   1.989  1.8804  0.4500 -0.7749
  464MOL0     H64010   4.526  10.926   1.953  0.0382 -2.5216 -0.9008
  464MOL0     H64011   4.478  11.028   1.826  0.6209  1.7492  2.8280
  464MOL0     H64012   3.477  11.387   2.035  1.5270 -1.3695 -1.0343
  464MOL0     H64013   3.288  11.425   2.186 -1.1296  0.5520  0.9567
  464MOL0     H64014   3.180  11.439   2.585 -0.3858  1.2991  1.1059
  464MOL0     H64015   3.017  11.520   2.749 -1.3862  0.4833  0.0916
  464MOL0     H64016   1.290  11.015   2.468 -0.8257  1.1395  2.9688
  464MOL0     H64017   1.061  10.986   2.510  0.6341  0.4612 -0.2584
  464MOL0     H64018   0.677  11.174   2.672 -1.1843  0.2167  0.6828
  464MOL0     H64019   0.445  11.221   2.738 -0.7329  0.5317 -0.9298
  464MOL0     H64020   0.215  11.191   2.739  0.5215  0.6714 -0.8342
  464MOL0     H64021   0.253  11.363   2.762  2.4266 -0.1061 -0.0425
  464MOL0     H64022   0.026  11.272   2.808  1.1107 -0.8432  0.1560
  464MOL0     H64023   0.006  11.224   2.639 -0.1912  0.0738  0.0181
  464MOL0     H64024   0.047  11.522   2.671 -1.1201  0.7956  0.6120
  464MOL0     H64025  -0.027  11.422   2.550  1.9322 -0.1853 -0.1356
  464MOL0     H64026  -0.176  11.558   2.705  0.3458  0.0780 -0.7929
  464MOL0     H64027  -0.141  11.452   2.834 -2.0221  1.8824 -0.5431
  464MOL0     H64028  -0.401  11.213   2.602 -1.9295  2.1380  1.4513
  464MOL0     H64029   0.345  11.348   2.348 -2.0484 -1.0218  1.7887
  464MOL0     H64030   0.505  11.331   2.154  0.4313 -1.5705 -2.2835
  464MOL0     H64031   0.666  11.374   2.198 -2.5314  2.7586  1.2780
  464MOL0     H64032   0.620  11.197   2.187  2.0192  0.1442  0.0893
  465MOL0     O64033   9.527   2.769   6.861  0.3256 -0.1581 -0.2187
  465MOL0     C64034   9.628   2.804   6.916 -0.1963 -0.6673 -0.4242
  465MOL0     O64035   9.761   2.782   6.872 -0.4818  0.0556  0.0199
  465MOL0     C64036   9.768   2.667   6.796 -0.1056  0.7550 -0.0506
  465MOL0     C64037   9.703   2.648   6.667  0.4745 -0.1512  1.5418
  465MOL0     C64038   9.706   2.529   6.594  0.4720 -0.7091  0.0790
  465MOL0     C64039   9.790   2.425   6.652  0.8546 -0.0743  0.0696
  465MOL0     O64040   9.787   2.311   6.576 -0.5362  0.1255 -0.4126
  465MOL0     C64041   9.852   2.190   6.632 -0.0075  0.8203  0.5212
  465MOL0     C64042   9.850   2.089   6.521 -0.2274 -0.1122  0.2380
  465MOL0     C64043   9.934   2.126   6.404  0.7027 -0.7559  0.5021
  465MOL0     C64044  10.075   2.132   6.447 -0.2542 -0.0908  0.9630
  465MOL0     C64045  10.172   2.109   6.331  0.2069 -0.4078 -0.0528
  465MOL0     C64046  10.295   2.200   6.348  0.0963  0.1674 -0.9188
  465MOL0     C64047  10.418   2.178   6.256  0.0346 -0.0269  0.3039
  465MOL0     C64048  10.525   2.287   6.288  0.2717 -0.1380  0.4181
  465MOL0     N64049  10.640   2.266   6.195 -0.0853  0.8761  0.0080
  465MOL0     C64050  10.754   2.186   6.216 -0.2669  0.0252 -0.3711
  465MOL0     C64051  10.838   2.223   6.116  0.4416 -0.3558  0.6576
  465MOL0     C64052  10.979   2.169   6.094 -0.2499  0.1486  0.5366
  465MOL0     C64053  11.071   2.188   6.210  0.0479  0.2798  0.0764
  465MOL0     C64054  11.206   2.127   6.179  0.4766 -0.2391 -0.5861
  465MOL0     C64055  11.315   2.163   6.271 -0.7319 -0.6561 -1.1655
  465MOL0     O64056  11.442   2.125   6.217 -0.6377  0.0907 -0.6247
  465MOL0     C64057  11.561   2.177   6.267  0.2113  0.2094 -0.4978
  465MOL0     C64058  11.561   2.240   6.391  0.1351  0.6967 -0.9234
  465MOL0     C64059  11.678   2.252   6.460  0.8051 -0.0704  0.3005
  465MOL0     C64060  11.665   2.326   6.595 -0.2621 -0.0442 -0.2654
  465MOL0     C64061  11.800   2.203   6.416 -0.2127  0.3166  0.7005
  465MOL0     C64062  11.924   2.227   6.484 -0.7381  0.1743 -0.7739
  465MOL0     O64063  11.922   2.221   6.622  0.2662 -0.4493 -0.0818
  465MOL0     C64064  12.044   2.221   6.683  0.4205  0.1375  0.0702
  465MOL0     C64065  12.054   2.137   6.794 -0.9566 -0.1711 -0.9950
  465MOL0     C64066  12.172   2.134   6.873 -0.1388 -0.2848 -0.6563
  465MOL0     C64067  12.281   2.223   6.850 -0.0278 -0.0616  0.3890
  465MOL0     O64068  12.406   2.233   6.917  0.3514  0.3038  0.4951
  465MOL0     C64069  12.437   2.146   7.024 -0.0903  0.3068  0.3889
  465MOL0     C64070  12.574   2.191   7.087  1.2918  0.2100 -0.1197
  465MOL0     C64071  12.620   2.118   7.224  1.0529 -0.8830  1.0669
  465MOL0     C64072  12.701   2.208   7.315 -0.2732  0.3863 -0.7638
  465MOL0     C64073  12.825   2.265   7.235 -0.1838 -0.4970  0.9062
  465MOL0     C64074  12.937   2.319   7.320  0.0180 -0.8351 -0.4638
  465MOL0     C64075  12.888   2.396   7.443  0.6259  0.2756  0.3406
  465MOL0     C64076  13.002   2.480   7.491  0.0573  0.1765 -0.0079
  465MOL0    Cl64077  13.040   2.601   7.366 -0.0298 -0.3324  0.3902
  465MOL0     C64078  12.264   2.315   6.753  0.2261 -0.4702  0.1657
  465MOL0     C64079  12.149   2.313   6.670  0.4308  0.6104 -0.1199
  465MOL0     O64080  12.028   2.243   6.422 -0.0201 -0.1345  0.1942
  465MOL0     C64081  11.801   2.134   6.286  0.0006 -0.6101 -1.3236
  465MOL0     C64082  11.682   2.134   6.216 -1.0871 -0.1629  0.1121
  465MOL0     N64083  10.771   2.314   6.039 -0.0503 -0.3009 -0.4715
  465MOL0     N64084  10.656   2.340   6.084  0.3829 -0.0546 -0.5347
  465MOL0     C64085   9.843   2.436   6.777 -0.3429 -0.2502 -0.2759
  465MOL0     C64086   9.839   2.562   6.851 -0.0810  0.3172  0.1335
  465MOL0     C64087   9.606   2.871   7.045 -0.6969  0.3748  0.3426
  465MOL0     C64088   9.711   2.850   7.142 -0.1386 -0.0578  0.3020
  465MOL0     C64089   9.702   2.902   7.270  0.8728  0.7996 -0.0824
  465MOL0     C64090   9.594   2.982   7.312  0.0809  0.2870 -0.3597
  465MOL0     O64091   9.572   3.027   7.437  0.8785  0.2087  0.0979
  465MOL0     C64092   9.581   2.946   7.549 -0.2862 -1.5887  0.3328
  465MOL0     C64093   9.472   3.005   7.643 -0.1368  0.4029 -0.5774
  465MOL0     C64094   9.490   3.161   7.672 -0.3297 -0.8013 -0.3452
  465MOL0     C64095   9.565   3.176   7.804  0.6366  0.7755 -0.5244
  465MOL0     C64096   9.479   3.166   7.922 -0.5503 -0.6551 -0.4838
  465MOL0     C64097   9.432   3.172   8.032  0.8730  0.4692  0.1166
  465MOL0     C64098   9.500   3.015   7.220  0.3365  0.8050  0.2480
  465MOL0     C64099   9.500   2.958   7.093 -0.4133  0.0393 -0.4700
  465MOL0     C64100   9.384   2.991   7.010  0.4577  0.2569  0.4212
  465MOL0     H64101   9.649   2.732   6.626  1.4521 -0.7580 -1.1757
  465MOL0     H64102   9.653   2.527   6.500 -1.1202  3.3462  0.6569
  465MOL0     H64103   9.803   2.149   6.721  0.3345  0.6845  0.6501
  465MOL0     H64104   9.951   2.224   6.663 -1.0914  3.0456  1.8487
  465MOL0     H64105   9.872   1.993   6.567 -2.8621 -0.2364  1.4378
  465MOL0     H64106   9.747   2.063   6.498 -1.1556  3.4087 -0.2683
  465MOL0     H64107   9.927   2.049   6.327  1.9629 -4.3078  3.6110
  465MOL0     H64108   9.903   2.225   6.371  1.4562 -0.1483  1.5372
  465MOL0     H64109  10.085   2.234   6.486 -3.6491  0.3958  0.8789
  465MOL0     H64110  10.099   2.073   6.536  0.5390 -0.9006  0.2345
  465MOL0     H64111  10.124   2.133   6.236  1.7077 -0.1313 -0.7760
  465MOL0     H64112  10.200   2.004   6.331 -2.0885 -1.0573  0.2493
  465MOL0     H64113  10.274   2.307   6.341 -0.6472  0.0177 -1.0897
  465MOL0     H64114  10.320   2.184   6.453 -4.0279  0.9753  0.3309
  465MOL0     H64115  10.390   2.183   6.150  0.2524  1.2146  0.2988
  465MOL0     H64116  10.467   2.082   6.278  0.3146 -0.0174 -0.2730
  465MOL0     H64117  10.490   2.390   6.286  0.3767 -0.1129 -0.3248
  465MOL0     H64118  10.572   2.266   6.384 -0.5065 -1.6456  0.5035
  465MOL0     H64119  10.778   2.102   6.279  4.4991 -0.6129 -2.6180
  465MOL0     H64120  11.017   2.211   6.001 -2.1470  0.4701 -0.1443
  465MOL0     H64121  10.965   2.061   6.082  0.2808  0.0009  1.2199
  465MOL0     H64122  11.073   2.296   6.222 -2.9538  0.2282  2.4075
  465MOL0     H64123  11.033   2.144   6.303 -0.3332 -1.9178 -1.0474
  465MOL0     H64124  11.200   2.019   6.165 -1.8741 -0.2332 -0.0939
  465MOL0     H64125  11.228   2.167   6.079 -2.1744  3.2234  0.0163
  465MOL0     H64126  11.319   2.271   6.255  0.8280 -0.8813 -2.7246
  465MOL0     H64127  11.288   2.135   6.373 -1.6078  2.2906 -0.5001
  465MOL0     H64128  11.464   2.273   6.429 -0.3955 -2.0414  0.3490
  465MOL0     H64129  11.667   2.264   6.685 -1.9458  0.3933  0.1089
  465MOL0     H64130  11.572   2.382   6.606 -0.1725  0.6867 -2.5970
  465MOL0     H64131  11.745   2.400   6.603 -1.1452  0.7980  1.3724
  465MOL0     H64132  11.977   2.063   6.811  1.4369 -2.6199 -0.0537
  465MOL0     H64133  12.185   2.056   6.947 -1.7349  0.1150  0.0947
  465MOL0     H64134  12.356   2.149   7.098 -3.1826 -1.6308 -2.6423
  465MOL0     H64135  12.442   2.041   6.992  0.1400  0.1796  0.8261
  465MOL0     H64136  12.639   2.169   7.002 -1.1166  0.2844 -2.0876
  465MOL0     H64137  12.561   2.300   7.094  1.8185  0.2434  0.3651
  465MOL0     H64138  12.688   2.033   7.209  2.7415  0.6472 -0.4919
  465MOL0     H64139  12.540   2.077   7.286  0.8905  1.9667  2.9511
  465MOL0     H64140  12.729   2.142   7.399  2.4412  1.3058 -0.8470
  465MOL0     H64141  12.647   2.292   7.359  1.6377  1.9380 -1.2426
  465MOL0     H64142  12.864   2.181   7.177 -2.9362 -1.3089  0.0533
  465MOL0     H64143  12.799   2.348   7.169  3.0549  2.1502  2.7142
  465MOL0     H64144  13.006   2.380   7.262  1.7528 -1.6732  0.6543
  465MOL0     H64145  13.006   2.242   7.354  0.2184  0.4441  2.2489
  465MOL0     H64146  12.861   2.334   7.529 -0.7951  2.4059  1.5087
  465MOL0     H64147  12.795   2.449   7.420 -0.4145 -0.3844  2.7063
  465MOL0     H64148  13.094   2.429   7.522  0.3105  0.8790  0.4056
  465MOL0     H64149  12.955   2.526   7.578  2.0700 -1.2724  1.9371
  465MOL0     H64150  12.342   2.389   6.737 -0.5353  0.5853  1.1245
  465MOL0     H64151  12.146   2.378   6.583 -0.2346 -0.5093 -0.9536
  465MOL0     H64152  11.893   2.082   6.261 -0.7140 -2.2528 -0.6770
  465MOL0     H64153  11.688   2.079   6.122  1.1749  1.0346 -0.5136
  465MOL0     H64154   9.900   2.356   6.823  1.4824  0.0297 -1.9704
  465MOL0     H64155   9.882   2.571   6.950 -0.8024  2.3774  0.3009
  465MOL0     H64156   9.799   2.790   7.121 -0.5962 -0.2890 -1.0579
  465MOL0     H64157   9.786   2.886   7.337  2.2260 -1.5176 -2.1968
  465MOL0     H64158   9.551   2.849   7.508  1.8294 -2.2372  0.1861
  465MOL0     H64159   9.681   2.945   7.593  0.2994 -2.8142 -0.9469
  465MOL0     H64160   9.471   2.953   7.739  0.2447  1.9785  0.3177
  465MOL0     H64161   9.371   2.986   7.604 -0.4062 -0.4111  0.4910
  465MOL0     H64162   9.547   3.204   7.589 -1.0282 -2.0539 -1.5098
  465MOL0     H64163   9.390   3.207   7.672  1.2627  3.1094  1.3967
  465MOL0     H64164   9.600   3.279   7.804  3.1528  0.0347 -2.7295
  465MOL0     H64165   9.652   3.113   7.827 -1.4472 -1.2187  2.7837
  465MOL0     H64166   9.385   3.177   8.128  1.6370 -0.9680  0.5792
  465MOL0     H64167   9.414   3.069   7.257 -0.1237  0.8519 -0.8594
  465MOL0     H64168   9.339   2.901   6.968 -0.2210  0.3181  0.9932
  465MOL0     H64169   9.306   3.043   7.067  0.1883  2.2371 -1.6069
  465MOL0     H64170   9.417   3.061   6.932  0.2402 -0.0413  0.0591
  466MOL0     O64171   7.744   3.685   0.115  0.9517  0.1091  0.3247
  466MOL0     C64172   7.637   3.716   0.143  0.0910 -0.0103 -0.3212
  466MOL0     O64173   7.542   3.640   0.205  0.0623  0.4342 -0.2944
  466MOL0     C64174   7.566   3.509   0.242  0.1596  0.6269  0.5760
  466MOL0     C64175   7.689   3.462   0.290 -0.2311 -0.8866 -0.2501
  466MOL0     C64176   7.687   3.330   0.334  0.1417  0.4608 -1.0624
  466MOL0     C64177   7.578   3.242   0.329 -0.1667 -0.9871 -0.7521
  466MOL0     O64178   7.598   3.118   0.378  0.0211 -0.1456 -0.0705
  466MOL0     C64179   7.495   3.021   0.388 -0.3983 -0.6194  0.5143
  466MOL0     C64180   7.554   2.907   0.471 -1.0240  0.2409 -0.1499
  466MOL0     C64181   7.677   2.831   0.416  0.1716 -0.5168 -0.0175
  466MOL0     C64182   7.811   2.892   0.446 -0.4166  0.1461  0.0986
  466MOL0     C64183   7.912   2.838   0.338 -0.3255 -0.4029 -0.2373
  466MOL0     C64184   7.965   2.703   0.388  0.1022 -0.8652  0.2739
  466MOL0     C64185   8.030   2.627   0.275 -0.1946 -0.4220 -0.2296
  466MOL0     C64186   8.052   2.480   0.307  1.0262 -0.9773  0.1250
  466MOL0     N64187   8.169   2.461   0.389  0.1865  0.2277  0.1074
  466MOL0     C64188   8.297   2.470   0.337  0.0561 -0.4684 -0.3088
  466MOL0     C64189   8.378   2.438   0.438  0.2592  0.6585  0.1796
  466MOL0     C64190   8.529   2.432   0.440  0.8710 -0.3693  0.2355
  466MOL0     C64191   8.563   2.283   0.446 -0.6754 -0.0644  0.0576
  466MOL0     C64192   8.711   2.267   0.437  0.1712  0.0628 -1.2161
  466MOL0     C64193   8.738   2.121   0.466 -0.6553 -0.0152  0.5409
  466MOL0     O64194   8.875   2.086   0.476 -0.8406 -0.1726  0.2931
  466MOL0     C64195   8.959   2.082   0.366  0.0097  0.1889 -0.2590
  466MOL0     C64196   8.931   2.120   0.234 -0.5268 -0.2610 -0.0806
  466MOL0     C64197   9.035   2.107   0.136 -0.9600  0.0326 -0.0032
  466MOL0     C64198   9.000   2.151  -0.006  0.5526 -0.6741  0.6765
  466MOL0     C64199   9.176   2.064   0.175 -0.3282  0.0791  0.4742
  466MOL0     C64200   9.290   2.037   0.087  0.6528 -0.5578  0.3241
  466MOL0     O64201   9.401   1.980   0.147  0.3691 -0.0949  0.3481
  466MOL0     C64202   9.522   2.015   0.096 -0.8075  0.7342 -0.0712
  466MOL0     C64203   9.611   1.918   0.074  0.0111  0.2967  0.0559
  466MOL0     C64204   9.742   1.942   0.036  0.5480 -0.4985  0.3348
  466MOL0     C64205   9.778   2.076   0.003 -0.6649  0.2413  0.3516
  466MOL0     O64206   9.906   2.115  -0.041  0.5389  0.3949  0.0980
  466MOL0     C64207   9.997   2.026  -0.101  0.4470 -0.3302 -0.3207
  466MOL0     C64208  10.111   1.981  -0.010  0.2680  0.0249 -0.0960
  466MOL0     C64209  10.238   2.070  -0.020 -0.4175 -0.7087 -0.0230
  466MOL0     C64210  10.365   2.012   0.049  0.2834  1.3660 -0.2709
  466MOL0     C64211  10.502   2.056  -0.001  0.2057  0.0527 -0.5151
  466MOL0     C64212  10.617   1.978   0.061  0.0477 -0.4856  0.9462
  466MOL0     C64213  10.743   2.059   0.028  0.0055  0.8349  0.6375
  466MOL0     C64214  10.875   2.019   0.098 -0.3160 -0.5593  0.6356
  466MOL0    Cl64215  10.848   2.026   0.277 -0.1835 -0.0992  0.0448
  466MOL0     C64216   9.686   2.176   0.016  0.8701  0.9530 -0.0087
  466MOL0     C64217   9.554   2.150   0.067  0.6754  0.7973  0.9160
  466MOL0     O64218   9.278   2.076  -0.031 -0.2320  0.3036  0.2103
  466MOL0     C64219   9.189   2.035   0.308 -0.6915 -0.5519 -0.6380
  466MOL0     C64220   9.090   2.057   0.405  0.5345 -0.3148  0.8902
  466MOL0     N64221   8.298   2.386   0.541 -1.4504 -0.8514 -0.7015
  466MOL0     N64222   8.177   2.403   0.509  0.3173 -0.2401  0.4437
  466MOL0     C64223   7.457   3.299   0.281  0.3213  0.3461  0.2501
  466MOL0     C64224   7.451   3.427   0.220  0.1158  0.0157 -0.4718
  466MOL0     C64225   7.600   3.855   0.114  1.4916 -0.3385 -0.1576
  466MOL0     C64226   7.487   3.900   0.180 -0.3231  0.5283 -0.6095
  466MOL0     C64227   7.427   4.024   0.154  0.6779  1.6129 -0.1692
  466MOL0     C64228   7.483   4.114   0.072  0.1629  1.1604 -0.3364
  466MOL0     O64229   7.426   4.231   0.066 -0.4959  0.5232 -0.1264
  466MOL0     C64230   7.458   4.324  -0.045  1.0753 -0.4457 -0.1872
  466MOL0     C64231   7.386   4.290  -0.174 -0.3303 -0.1197 -0.7097
  466MOL0     C64232   7.230   4.274  -0.168 -0.7624 -0.3508  0.8757
  466MOL0     C64233   7.146   4.400  -0.151 -0.5677  0.3544 -0.2323
  466MOL0     C64234   7.011   4.383  -0.213  0.1646  0.2034 -0.0234
  466MOL0     C64235   6.904   4.356  -0.271  0.5953 -0.1253 -0.3791
  466MOL0     C64236   7.607   4.078   0.011 -0.2445  0.1992  0.1953
  466MOL0     C64237   7.660   3.950   0.036  0.0805  0.0564  0.4936
  466MOL0     C64238   7.782   3.931  -0.052 -0.9489  0.2198 -0.1398
  466MOL0     H64239   7.769   3.530   0.317 -0.7111  0.0818 -1.2107
  466MOL0     H64240   7.770   3.278   0.380 -0.5998 -1.6967 -2.0197
  466MOL0     H64241   7.467   2.992   0.286 -3.0882  1.0810  0.6786
  466MOL0     H64242   7.412   3.076   0.433  0.4542  1.3749 -0.2504
  466MOL0     H64243   7.584   2.933   0.573 -0.4823  0.5788 -0.3883
  466MOL0     H64244   7.470   2.839   0.483 -0.2690 -0.5217  1.0720
  466MOL0     H64245   7.674   2.732   0.462  2.6637 -0.2508  0.8502
  466MOL0     H64246   7.658   2.832   0.308 -1.0796  1.2675  0.1782
  466MOL0     H64247   7.817   3.000   0.431  1.9329 -0.1172 -1.1865
  466MOL0     H64248   7.846   2.866   0.547 -0.5896 -0.3472  0.0343
  466MOL0     H64249   7.991   2.913   0.335  0.2663 -1.0125 -2.6564
  466MOL0     H64250   7.871   2.833   0.236  0.2355  1.9725 -0.6284
  466MOL0     H64251   8.043   2.733   0.459  0.1385  1.2819 -0.6237
  466MOL0     H64252   7.891   2.644   0.444 -0.5044 -0.7817 -0.4289
  466MOL0     H64253   8.124   2.672   0.243 -0.5795 -0.1383 -1.0028
  466MOL0     H64254   7.963   2.632   0.188  2.7804  0.3062 -2.6241
  466MOL0     H64255   7.961   2.445   0.356  0.0340  0.3431 -0.7096
  466MOL0     H64256   8.062   2.423   0.214 -1.3314 -1.7121  0.2470
  466MOL0     H64257   8.318   2.499   0.235 -1.8539  1.5250 -0.2142
  466MOL0     H64258   8.563   2.494   0.523  0.4636  3.3083 -2.1167
  466MOL0     H64259   8.565   2.466   0.342  0.2394 -1.7472 -0.5203
  466MOL0     H64260   8.527   2.240   0.540  1.1226  1.3854  1.4919
  466MOL0     H64261   8.515   2.241   0.357  0.4784 -0.8014 -0.2378
  466MOL0     H64262   8.747   2.295   0.337  0.4100  4.0127 -0.1906
  466MOL0     H64263   8.759   2.327   0.515  0.2919  0.2388 -1.4252
  466MOL0     H64264   8.698   2.094   0.564 -1.1428 -4.1627 -0.6204
  466MOL0     H64265   8.695   2.056   0.389 -1.5413 -0.6871  1.5789
  466MOL0     H64266   8.833   2.145   0.196  0.2071  2.2983 -0.4519
  466MOL0     H64267   9.053   2.239  -0.042 -0.9584 -0.8386 -2.2308
  466MOL0     H64268   8.894   2.177   0.003 -0.0705 -0.5921 -4.3147
  466MOL0     H64269   9.021   2.071  -0.078  1.1402 -0.6261  0.7892
  466MOL0     H64270   9.596   1.814   0.102 -0.1564  0.3950  0.3431
  466MOL0     H64271   9.815   1.862   0.035  1.6162  0.4145  1.8494
  466MOL0     H64272   9.950   1.938  -0.147  1.7618  0.1672 -2.8113
  466MOL0     H64273  10.027   2.067  -0.198 -1.9534 -0.6655 -1.2923
  466MOL0     H64274  10.076   1.992   0.093 -1.9960  0.0829 -0.8267
  466MOL0     H64275  10.128   1.873  -0.020  0.0093 -0.2639  2.1687
  466MOL0     H64276  10.226   2.170   0.022  1.5732  0.4152 -1.9170
  466MOL0     H64277  10.265   2.090  -0.124  3.5831 -0.2503  0.9488
  466MOL0     H64278  10.357   1.904   0.034 -1.9279  1.4749 -0.1744
  466MOL0     H64279  10.362   2.024   0.158 -3.1737  1.0340 -0.2299
  466MOL0     H64280  10.495   2.052  -0.110 -3.0564  2.4668 -0.5663
  466MOL0     H64281  10.513   2.163   0.017  1.1413  0.2558 -2.1324
  466MOL0     H64282  10.633   1.877   0.020 -1.2888 -2.3969  4.6598
  466MOL0     H64283  10.604   1.976   0.169  3.3753 -0.8881  1.4387
  466MOL0     H64284  10.728   2.164   0.056  1.6795  1.8227 -1.8220
  466MOL0     H64285  10.762   2.049  -0.079  1.2595  0.9306  0.8355
  466MOL0     H64286  10.960   2.084   0.075 -2.5522  2.2178 -0.3618
  466MOL0     H64287  10.902   1.916   0.070  1.0925 -0.1535  0.4036
  466MOL0     H64288   9.700   2.282   0.001  1.4750  0.9879  0.7110
  466MOL0     H64289   9.472   2.222   0.065 -0.2992 -0.3089 -0.1444
  466MOL0     H64290   9.289   2.011   0.341 -0.6579 -1.2701 -1.2308
  466MOL0     H64291   9.122   2.051   0.508  0.8929 -0.0169  0.7972
  466MOL0     H64292   7.366   3.240   0.291 -0.7154  1.1560 -3.1335
  466MOL0     H64293   7.357   3.453   0.171 -1.5062 -3.3514  0.4994
  466MOL0     H64294   7.445   3.837   0.257  0.9717  1.2109  0.7138
  466MOL0     H64295   7.339   4.052   0.212 -0.2588 -1.8405  0.2768
  466MOL0     H64296   7.428   4.423  -0.010 -3.0978 -1.1725 -1.2009
  466MOL0     H64297   7.566   4.334  -0.058  0.8179  1.2636 -1.3062
  466MOL0     H64298   7.419   4.191  -0.207  1.3933 -0.4774  1.7593
  466MOL0     H64299   7.411   4.373  -0.240 -1.9531  1.7621  0.9110
  466MOL0     H64300   7.211   4.218  -0.260  3.5071 -2.1165  0.8042
  466MOL0     H64301   7.209   4.209  -0.083  0.4645  0.6898  2.0291
  466MOL0     H64302   7.191   4.482  -0.208 -0.3134  0.6294  0.3632
  466MOL0     H64303   7.135   4.425  -0.045  1.9608 -0.3347  0.2495
  466MOL0     H64304   6.815   4.349  -0.332  0.4799 -0.0409 -0.2197
  466MOL0     H64305   7.657   4.154  -0.048 -2.3967  0.2816 -1.6539
  466MOL0     H64306   7.769   3.987  -0.144  0.0367  0.7839  0.0471
  466MOL0     H64307   7.865   3.982  -0.002  1.1755 -1.8388 -1.3426
  466MOL0     H64308   7.801   3.826  -0.076  1.8103  0.8149 -0.8980
  467MOL0     O64309   0.144   1.797   5.277  0.1743  0.3034 -0.1531
  467MOL0     C64310   0.047   1.848   5.336 -1.0345 -0.0214  0.5789
  467MOL0     O64311   0.048   1.976   5.377  0.1320 -0.2070 -0.1013
  467MOL0     C64312   0.159   2.054   5.373 -0.5297 -0.6049  0.1597
  467MOL0     C64313   0.134   2.200   5.358  0.1545  0.6102  1.0507
  467MOL0     C64314   0.233   2.294   5.368  0.7646  0.0910 -0.6219
  467MOL0     C64315   0.367   2.261   5.407  0.2248 -0.2149  0.8945
  467MOL0     O64316   0.446   2.366   5.435  0.4404 -0.2301 -0.0894
  467MOL0     C64317   0.588   2.337   5.468 -0.4281 -0.4869  0.2009
  467MOL0     C64318   0.662   2.438   5.387 -0.2749 -0.8494  0.2898
  467MOL0     C64319   0.678   2.397   5.237  0.0198  0.1454 -0.1610
  467MOL0     C64320   0.551   2.410   5.157  0.1297  0.0840 -0.2562
  467MOL0     C64321   0.574   2.376   5.001  0.2319 -0.2973 -0.4631
  467MOL0     C64322   0.451   2.426   4.915  0.9974  0.2125  0.4961
  467MOL0     C64323   0.474   2.431   4.771  0.5151  0.0151  0.6246
  467MOL0     C64324   0.605   2.505   4.740  0.0676  0.2182 -0.0693
  467MOL0     N64325   0.621   2.536   4.600 -0.0297  0.0264 -0.2158
  467MOL0     C64326   0.739   2.513   4.526  0.4348  0.1216 -0.2042
  467MOL0     C64327   0.709   2.559   4.403 -0.1243  0.9605  0.5079
  467MOL0     C64328   0.811   2.544   4.293 -0.1216 -0.1652 -0.2867
  467MOL0     C64329   0.924   2.658   4.297  0.0460  1.0093 -0.6461
  467MOL0     C64330   1.003   2.650   4.164 -0.8217  0.5315 -0.4388
  467MOL0     C64331   1.145   2.700   4.172 -0.3169  1.1934  0.1030
  467MOL0     O64332   1.204   2.577   4.232  0.4156 -1.2423 -0.2399
  467MOL0     C64333   1.340   2.590   4.247 -0.0603 -0.2327  0.1106
  467MOL0     C64334   1.437   2.631   4.155 -0.4915  0.3862  0.1160
  467MOL0     C64335   1.569   2.612   4.181 -0.3740 -0.4063 -0.7539
  467MOL0     C64336   1.671   2.632   4.064  0.1567  0.5272 -1.2199
  467MOL0     C64337   1.612   2.576   4.311  0.1674 -0.8730 -0.2610
  467MOL0     C64338   1.758   2.591   4.352  1.0062 -0.4642  0.2347
  467MOL0     O64339   1.793   2.518   4.459 -0.2860  0.1778 -0.8164
  467MOL0     C64340   1.929   2.522   4.496 -0.6252  0.2019 -0.2266
  467MOL0     C64341   1.980   2.595   4.608  0.2296 -0.0372  0.5109
  467MOL0     C64342   2.113   2.593   4.633  0.7153 -0.8179 -0.4769
  467MOL0     C64343   2.198   2.511   4.569  0.2576  0.5137  1.1169
  467MOL0     O64344   2.330   2.501   4.595 -0.4327  0.3581  0.1684
  467MOL0     C64345   2.412   2.580   4.512  0.0167 -0.3613  0.3484
  467MOL0     C64346   2.563   2.580   4.561 -0.7708 -0.9053 -0.8514
  467MOL0     C64347   2.623   2.448   4.588  0.4041  0.8417 -0.1283
  467MOL0     C64348   2.772   2.446   4.625 -0.1997  0.9824 -0.0270
  467MOL0     C64349   2.842   2.316   4.644 -0.2317 -0.1234  0.0997
  467MOL0     C64350   2.984   2.327   4.684  0.0593  0.4908  0.0739
  467MOL0     C64351   3.037   2.186   4.693  1.3593 -0.1715 -0.4075
  467MOL0     C64352   3.172   2.166   4.754  0.3152 -0.1062 -1.1018
  467MOL0    Cl64353   3.302   2.243   4.644 -0.8569 -0.2922  0.1943
  467MOL0     C64354   2.149   2.446   4.446 -0.8080  0.3612 -0.6462
  467MOL0     C64355   2.017   2.454   4.413 -0.0947  0.9230 -0.1645
  467MOL0     O64356   1.823   2.688   4.307  0.3618 -0.1248  0.4631
  467MOL0     C64357   1.516   2.533   4.399 -0.0454 -0.7229  0.1323
  467MOL0     C64358   1.386   2.540   4.374 -0.2720  0.6503  1.0572
  467MOL0     N64359   0.577   2.589   4.400  0.1893 -0.2373 -0.2398
  467MOL0     N64360   0.525   2.584   4.523 -0.5414 -0.1651  0.7272
  467MOL0     C64361   0.391   2.119   5.426  0.6491  0.1798 -0.6642
  467MOL0     C64362   0.295   2.016   5.405  0.3544  0.1228  0.0936
  467MOL0     C64363  -0.085   1.773   5.333 -0.3534  0.0959  0.8045
  467MOL0     C64364  -0.086   1.652   5.263 -0.2814 -0.4460 -0.2304
  467MOL0     C64365  -0.204   1.580   5.243 -0.1463  0.3110 -0.1737
  467MOL0     C64366  -0.326   1.625   5.301 -0.5693 -0.5236 -0.4576
  467MOL0     O64367  -0.439   1.550   5.298 -0.6943  0.0304  0.0199
  467MOL0     C64368  -0.462   1.449   5.198 -0.3744 -0.1352  0.4256
  467MOL0     C64369  -0.610   1.396   5.204  0.2890  0.1250 -0.5405
  467MOL0     C64370  -0.659   1.375   5.353  1.8146  0.2328  0.1491
  467MOL0     C64371  -0.570   1.276   5.433  0.3480  0.3310 -0.6857
  467MOL0     C64372  -0.633   1.228   5.559 -0.5226 -0.1532  0.3628
  467MOL0     C64373  -0.671   1.170   5.663 -0.4405 -0.6434 -0.2875
  467MOL0     C64374  -0.332   1.753   5.354 -0.2605  0.3725  0.5686
  467MOL0     C64375  -0.214   1.828   5.376 -0.4814 -0.1225  0.3379
  467MOL0     C64376  -0.243   1.967   5.445 -0.5407 -0.1621  0.7146
  467MOL0     H64377   0.031   2.229   5.340 -0.0323  0.4534  1.8255
  467MOL0     H64378   0.212   2.400   5.356 -1.3621 -0.2743 -0.5800
  467MOL0     H64379   0.625   2.235   5.459  2.6090  0.4522  0.8136
  467MOL0     H64380   0.615   2.365   5.570  0.9309 -1.8535  0.2423
  467MOL0     H64381   0.610   2.533   5.384 -1.8174 -1.5578  2.3478
  467MOL0     H64382   0.761   2.443   5.435 -1.4014 -1.7424  2.8884
  467MOL0     H64383   0.749   2.471   5.198 -1.6523  3.1922  2.1468
  467MOL0     H64384   0.714   2.295   5.216  1.6690  0.4046  1.1624
  467MOL0     H64385   0.482   2.336   5.198  0.7385 -0.1896  0.2951
  467MOL0     H64386   0.494   2.502   5.170 -1.2717 -0.9628  1.4652
  467MOL0     H64387   0.602   2.271   4.989 -4.7641 -1.8693 -0.5789
  467MOL0     H64388   0.655   2.439   4.964 -0.6875 -0.7979 -3.6723
  467MOL0     H64389   0.370   2.354   4.933  0.5699  0.4321 -0.4612
  467MOL0     H64390   0.428   2.529   4.944  2.1554  0.6523 -0.0940
  467MOL0     H64391   0.388   2.481   4.725 -1.7669 -2.3271  2.0104
  467MOL0     H64392   0.489   2.334   4.723  0.2430 -0.8257  2.1711
  467MOL0     H64393   0.616   2.595   4.802  1.0150  0.2054 -0.1949
  467MOL0     H64394   0.680   2.430   4.767 -0.2577 -1.6296 -3.8175
  467MOL0     H64395   0.835   2.492   4.574 -0.6795 -0.3959  1.9633
  467MOL0     H64396   0.758   2.534   4.198 -0.1139 -2.7979 -0.0785
  467MOL0     H64397   0.850   2.445   4.317  2.2411  0.6726 -0.4107
  467MOL0     H64398   0.883   2.759   4.304 -0.8142  0.7239 -1.2822
  467MOL0     H64399   0.982   2.633   4.386 -0.0966 -0.0425 -0.8361
  467MOL0     H64400   0.996   2.552   4.117 -0.0565  0.9203 -1.4088
  467MOL0     H64401   0.953   2.707   4.085 -3.4604 -0.0926  0.6693
  467MOL0     H64402   1.191   2.710   4.074  3.5560 -3.0372  1.1503
  467MOL0     H64403   1.157   2.793   4.229  2.2270  0.4671  0.9133
  467MOL0     H64404   1.387   2.668   4.066 -4.7483 -0.7133  1.8458
  467MOL0     H64405   1.630   2.646   3.964  0.2655  1.3181 -1.1652
  467MOL0     H64406   1.766   2.578   4.060  0.2285  0.3955  1.0406
  467MOL0     H64407   1.709   2.733   4.083  0.5073  0.2101 -0.1485
  467MOL0     H64408   1.910   2.656   4.663  0.2914  0.3845  0.1365
  467MOL0     H64409   2.151   2.655   4.713  0.2875 -0.6728 -0.3847
  467MOL0     H64410   2.419   2.550   4.407 -1.0641  5.0905 -1.6541
  467MOL0     H64411   2.365   2.678   4.501 -1.0566 -1.1458 -3.2024
  467MOL0     H64412   2.623   2.647   4.499  0.5831  1.5087  2.7187
  467MOL0     H64413   2.565   2.629   4.659  1.8971  0.9888 -1.7197
  467MOL0     H64414   2.621   2.397   4.492  1.0650  0.9789 -0.2167
  467MOL0     H64415   2.561   2.384   4.652  1.1083 -1.9616 -2.0843
  467MOL0     H64416   2.776   2.494   4.723 -1.6801  0.4518  0.3191
  467MOL0     H64417   2.824   2.508   4.551 -0.5640  0.8145 -0.4270
  467MOL0     H64418   2.785   2.259   4.718 -1.7358 -0.5530 -1.3257
  467MOL0     H64419   2.832   2.257   4.552  0.9915  0.2539 -0.2981
  467MOL0     H64420   3.004   2.386   4.774  1.6801  0.2256 -0.0758
  467MOL0     H64421   3.044   2.373   4.606 -0.3193 -0.7940 -1.0166
  467MOL0     H64422   3.031   2.128   4.601 -2.2753 -1.6718  0.5919
  467MOL0     H64423   2.968   2.139   4.764 -0.9280  0.2784 -2.1974
  467MOL0     H64424   3.186   2.058   4.757  1.4085  0.0178  1.7187
  467MOL0     H64425   3.173   2.211   4.854 -3.3892 -0.2148 -0.9071
  467MOL0     H64426   2.219   2.390   4.384 -1.4626 -2.9925  1.4057
  467MOL0     H64427   1.990   2.400   4.323  0.3512  0.6000 -0.1087
  467MOL0     H64428   1.546   2.512   4.501  1.9408  2.5563  0.3738
  467MOL0     H64429   1.318   2.514   4.455 -0.0850  0.2462  1.0900
  467MOL0     H64430   0.485   2.079   5.463  0.5492 -1.6949 -2.3338
  467MOL0     H64431   0.318   1.911   5.425 -1.1262 -0.0197  1.1426
  467MOL0     H64432   0.007   1.609   5.224  1.4129  2.4167  0.4045
  467MOL0     H64433  -0.195   1.479   5.203 -1.9234 -0.9259  2.2511
  467MOL0     H64434  -0.438   1.491   5.099  1.1006 -2.4398 -0.2608
  467MOL0     H64435  -0.390   1.369   5.215  2.1561  2.1436  1.1604
  467MOL0     H64436  -0.625   1.302   5.150  1.2764  0.9039 -2.2286
  467MOL0     H64437  -0.676   1.469   5.157 -1.9050  0.7175  3.0322
  467MOL0     H64438  -0.667   1.468   5.409 -2.1869  0.0652  0.0987
  467MOL0     H64439  -0.764   1.347   5.340  2.1387  0.0498 -2.8490
  467MOL0     H64440  -0.478   1.327   5.462  1.2472 -1.8460  0.5543
  467MOL0     H64441  -0.549   1.191   5.367  0.3271  0.1353 -0.4422
  467MOL0     H64442  -0.697   1.122   5.755  1.4842 -2.5852 -0.6643
  467MOL0     H64443  -0.425   1.800   5.383 -1.9516 -1.7836 -0.9774
  467MOL0     H64444  -0.152   2.017   5.479 -0.6423  0.5876 -0.1122
  467MOL0     H64445  -0.303   2.036   5.386  0.9770  0.6484  0.0791
  467MOL0     H64446  -0.304   1.941   5.533 -0.0428  2.1434  1.8106
  468MOL0     O64447   8.091   4.596   9.558  0.9625 -0.5555  0.3240
  468MOL0     C64448   8.053   4.693   9.499  0.8290  0.4574  0.1639
  468MOL0     O64449   8.128   4.785   9.432  0.1766 -0.4232 -0.2364
  468MOL0     C64450   8.265   4.784   9.415  1.1589 -0.5244  0.1794
  468MOL0     C64451   8.357   4.676   9.419  0.3601  0.2163  1.3099
  468MOL0     C64452   8.501   4.710   9.408 -0.1803 -0.0445 -0.6585
  468MOL0     C64453   8.544   4.844   9.388  0.0208 -0.5292  0.8500
  468MOL0     O64454   8.673   4.892   9.393  0.0624 -0.0297  0.0268
  468MOL0     C64455   8.767   4.802   9.329 -0.2001 -0.7544  0.5007
  468MOL0     C64456   8.739   4.805   9.172 -0.1176  0.3081 -0.3934
  468MOL0     C64457   8.763   4.955   9.119 -0.0756  0.4973  0.1907
  468MOL0     C64458   8.914   4.989   9.124 -0.1771 -0.0218 -0.3184
  468MOL0     C64459   8.948   5.107   9.036 -1.0308 -0.3782  0.1351
  468MOL0     C64460   9.095   5.143   9.045 -0.3531 -0.4038  0.3262
  468MOL0     C64461   9.127   5.264   8.959  0.5021 -0.5056 -0.0649
  468MOL0     C64462   9.176   5.240   8.819  0.2968  0.1333  0.0864
  468MOL0     N64463   9.255   5.354   8.762 -0.4935  1.0318  0.0728
  468MOL0     C64464   9.210   5.457   8.683  0.5930  0.6718 -0.8077
  468MOL0     C64465   9.316   5.531   8.652 -0.9366  0.0189 -1.0245
  468MOL0     C64466   9.323   5.656   8.571  0.3370 -0.3932 -0.2069
  468MOL0     C64467   9.395   5.642   8.441  0.7804  0.3697 -0.1633
  468MOL0     C64468   9.365   5.750   8.342 -0.0905 -0.0327  0.0127
  468MOL0     C64469   9.390   5.891   8.395 -1.0946  0.8771  0.7208
  468MOL0     O64470   9.324   5.983   8.301  0.4262 -0.1338 -0.1087
  468MOL0     C64471   9.405   6.088   8.278  1.1484  0.9442  1.7061
  468MOL0     C64472   9.496   6.090   8.172 -0.5736  0.0999  0.3812
  468MOL0     C64473   9.580   6.202   8.147  0.0209  0.5408  0.3821
  468MOL0     C64474   9.672   6.184   8.028 -0.4901 -0.4609 -0.3568
  468MOL0     C64475   9.566   6.321   8.228 -0.5918  0.1822  0.0484
  468MOL0     C64476   9.635   6.448   8.210  0.0503 -0.6049 -0.4465
  468MOL0     O64477   9.650   6.526   8.317  0.0275 -0.8347  1.0539
  468MOL0     C64478   9.746   6.621   8.310 -0.3996 -0.3914 -0.8359
  468MOL0     C64479   9.883   6.581   8.323  0.7476 -0.6618  0.7025
  468MOL0     C64480   9.981   6.672   8.348  0.6366  0.0360  0.1322
  468MOL0     C64481   9.953   6.807   8.357 -0.0955 -0.0486 -0.1526
  468MOL0     O64482  10.043   6.900   8.406  0.3945  0.3863 -0.3568
  468MOL0     C64483  10.178   6.877   8.444 -0.0159 -0.1395 -0.2720
  468MOL0     C64484  10.258   7.007   8.441  0.1350  0.3312  0.0994
  468MOL0     C64485  10.377   6.999   8.529 -0.2105 -0.3059  0.0949
  468MOL0     C64486  10.495   6.907   8.477  0.4622  0.0790 -0.0890
  468MOL0     C64487  10.624   6.922   8.562  0.4099  1.0743 -0.0024
  468MOL0     C64488  10.590   6.884   8.705 -0.0587 -0.8521 -0.4406
  468MOL0     C64489  10.718   6.855   8.780 -0.7776 -0.5455 -0.3125
  468MOL0     C64490  10.702   6.793   8.915  0.2993 -0.1446 -0.2317
  468MOL0    Cl64491  10.576   6.879   9.012  0.4276 -0.4091  0.0873
  468MOL0     C64492   9.821   6.848   8.340  0.1921  0.2055 -0.0517
  468MOL0     C64493   9.718   6.754   8.317 -0.2572 -0.2741 -0.8802
  468MOL0     O64494   9.672   6.477   8.096  0.5480 -0.7024  0.2084
  468MOL0     C64495   9.480   6.313   8.342  0.2685  0.5801  0.1105
  468MOL0     C64496   9.396   6.204   8.366  0.5765  1.0791 -0.4330
  468MOL0     N64497   9.426   5.471   8.723 -0.0301 -0.1088  0.3433
  468MOL0     N64498   9.386   5.364   8.774 -0.1183  0.6762  1.3265
  468MOL0     C64499   8.449   4.940   9.371 -0.5367  0.0236  0.3169
  468MOL0     C64500   8.312   4.910   9.383 -0.6465 -0.6692  0.4433
  468MOL0     C64501   7.909   4.726   9.515  0.1927 -0.2821 -0.7198
  468MOL0     C64502   7.876   4.856   9.520 -0.2594 -0.8568 -0.2759
  468MOL0     C64503   7.743   4.886   9.549  0.2741  0.2493  0.7990
  468MOL0     C64504   7.645   4.793   9.593  0.2497 -1.0010 -0.9484
  468MOL0     O64505   7.517   4.843   9.607 -0.2221  0.7482  0.3818
  468MOL0     C64506   7.425   4.750   9.661  0.0519  0.1298  0.2175
  468MOL0     C64507   7.294   4.815   9.684 -0.2863 -0.1368  0.2548
  468MOL0     C64508   7.196   4.714   9.737  0.4981 -0.8744  0.9322
  468MOL0     C64509   7.079   4.795   9.806 -0.2216 -0.6686  0.1749
  468MOL0     C64510   6.974   4.702   9.853  0.2857 -0.6783  0.3464
  468MOL0     C64511   6.866   4.632   9.874 -0.3494 -0.2653  1.4022
  468MOL0     C64512   7.690   4.661   9.591 -0.0008 -0.0871  0.0156
  468MOL0     C64513   7.816   4.626   9.548 -0.1832  0.6900  0.2208
  468MOL0     C64514   7.842   4.476   9.544  0.5508  1.1424 -0.0483
  468MOL0     H64515   8.315   4.577   9.432  1.6372 -0.0010  4.5169
  468MOL0     H64516   8.580   4.636   9.420  0.5874  0.1851 -3.4678
  468MOL0     H64517   8.766   4.703   9.375  1.5137 -1.6021 -1.1404
  468MOL0     H64518   8.866   4.847   9.338 -0.8092  0.5374  0.9276
  468MOL0     H64519   8.809   4.754   9.106 -1.3601 -0.8185 -0.8944
  468MOL0     H64520   8.635   4.777   9.155 -0.6734  1.2372  1.2116
  468MOL0     H64521   8.731   4.952   9.015 -0.5154 -1.8308  0.3360
  468MOL0     H64522   8.693   5.021   9.170  0.1852  0.5495  0.4852
  468MOL0     H64523   8.938   4.997   9.230 -1.3660  0.5525 -0.0696
  468MOL0     H64524   8.967   4.908   9.073  3.9824  1.7592  0.8257
  468MOL0     H64525   8.884   5.191   9.066 -1.0804 -0.2640 -0.2792
  468MOL0     H64526   8.927   5.074   8.933 -1.9622  0.4204  0.0557
  468MOL0     H64527   9.135   5.169   9.143  1.0224  0.3202 -0.3971
  468MOL0     H64528   9.161   5.060   9.015  1.4552  0.7200  1.0090
  468MOL0     H64529   9.195   5.330   9.014 -0.6809 -1.6565  3.0244
  468MOL0     H64530   9.033   5.321   8.960  0.4822 -0.5380  0.6880
  468MOL0     H64531   9.239   5.152   8.813 -0.5502 -0.5802  1.2686
  468MOL0     H64532   9.092   5.210   8.756  1.7771 -1.6554 -1.1236
  468MOL0     H64533   9.103   5.470   8.670 -0.1398 -1.7428  1.9230
  468MOL0     H64534   9.386   5.721   8.632 -0.6420 -0.9097  1.4228
  468MOL0     H64535   9.226   5.705   8.569  0.8052  0.6221  1.0888
  468MOL0     H64536   9.502   5.641   8.464  1.5515 -0.7688 -3.3040
  468MOL0     H64537   9.374   5.544   8.398  4.2201  0.7591 -3.2940
  468MOL0     H64538   9.418   5.748   8.246 -0.9920  1.3433 -0.5440
  468MOL0     H64539   9.258   5.749   8.318  0.5514 -1.5010 -3.4539
  468MOL0     H64540   9.343   5.902   8.493 -0.3570 -0.3057  1.2280
  468MOL0     H64541   9.497   5.909   8.412 -1.2326  2.6129 -0.0591
  468MOL0     H64542   9.482   6.011   8.099 -0.0172 -2.6492  3.0570
  468MOL0     H64543   9.609   6.192   7.940  1.7775 -0.4848 -2.0876
  468MOL0     H64544   9.715   6.084   8.039 -2.2790 -1.0815  1.5435
  468MOL0     H64545   9.747   6.264   8.032 -0.8532 -0.1632  0.8390
  468MOL0     H64546   9.918   6.479   8.314  0.9555 -0.5306 -0.0661
  468MOL0     H64547  10.077   6.634   8.382  0.3704  0.3906  1.3559
  468MOL0     H64548  10.178   6.829   8.542 -1.3185 -0.4767 -0.4096
  468MOL0     H64549  10.209   6.806   8.367 -1.6393 -2.8377  1.4005
  468MOL0     H64550  10.276   7.040   8.338  2.6663 -1.9830 -0.3240
  468MOL0     H64551  10.186   7.079   8.480 -0.2489  1.0953 -1.8684
  468MOL0     H64552  10.349   6.971   8.631 -3.4187  0.9463 -0.3269
  468MOL0     H64553  10.416   7.101   8.532 -2.7014  0.7181  0.0308
  468MOL0     H64554  10.514   6.938   8.374 -0.6778  1.6085  0.1349
  468MOL0     H64555  10.463   6.803   8.490  3.9940 -1.2784 -1.0835
  468MOL0     H64556  10.701   6.858   8.517 -1.1423  0.3112 -1.7258
  468MOL0     H64557  10.666   7.023   8.554  0.9076  0.8005 -1.0990
  468MOL0     H64558  10.519   6.804   8.726  0.5626 -0.9748  1.3496
  468MOL0     H64559  10.544   6.968   8.759  1.5816 -0.7371  0.8808
  468MOL0     H64560  10.771   6.947   8.804 -0.3036 -1.0293  0.5412
  468MOL0     H64561  10.781   6.790   8.719  0.7247  0.7575 -0.2115
  468MOL0     H64562  10.803   6.804   8.957  0.9521 -0.0151 -1.7592
  468MOL0     H64563  10.684   6.686   8.909 -0.0573 -0.3489  2.9711
  468MOL0     H64564   9.791   6.952   8.351 -0.7666 -0.0899  0.1751
  468MOL0     H64565   9.621   6.802   8.314  0.6244  1.7405  0.7393
  468MOL0     H64566   9.468   6.398   8.408  1.2305  1.2426 -0.5609
  468MOL0     H64567   9.321   6.196   8.444  0.6281 -2.0553 -0.5791
  468MOL0     H64568   8.487   5.041   9.359 -0.5930  0.3298  2.2985
  468MOL0     H64569   8.238   4.989   9.376  1.9160  1.9489  0.7643
  468MOL0     H64570   7.947   4.937   9.503 -0.9727  0.0119  0.8191
  468MOL0     H64571   7.717   4.989   9.569 -1.6579  0.7003 -3.1605
  468MOL0     H64572   7.406   4.668   9.591 -2.1276 -0.5662  1.5290
  468MOL0     H64573   7.465   4.703   9.751 -0.0444  1.2473  0.8663
  468MOL0     H64574   7.252   4.857   9.591 -1.8618 -1.0029  0.5447
  468MOL0     H64575   7.302   4.902   9.751  2.9868 -0.4444  0.4175
  468MOL0     H64576   7.147   4.663   9.653 -0.6806 -0.1748  1.1640
  468MOL0     H64577   7.252   4.644   9.799  0.8584 -4.2076 -2.7848
  468MOL0     H64578   7.030   4.866   9.738  0.9375  1.0783  1.1031
  468MOL0     H64579   7.114   4.846   9.896 -0.6058  1.5898 -0.8703
  468MOL0     H64580   6.774   4.578   9.870 -0.4663 -0.2421  3.3188
  468MOL0     H64581   7.636   4.571   9.618 -2.6181  1.5455  0.5355
  468MOL0     H64582   7.891   4.443   9.452  1.0697 -1.8340  1.1655
  468MOL0     H64583   7.909   4.450   9.626  2.7120  2.2828 -1.3685
  468MOL0     H64584   7.747   4.422   9.543  1.6020 -0.9414 -2.7897
  469MOL0     O64585   6.936  11.235   9.566  0.0529 -0.8793 -0.8496
  469MOL0     C64586   6.851  11.249   9.479  0.4909  0.3027  0.5351
  469MOL0     O64587   6.872  11.319   9.372  0.2743  0.2579 -0.0473
  469MOL0     C64588   6.993  11.388   9.358 -0.2474 -0.8081  0.8419
  469MOL0     C64589   7.022  11.504   9.434 -0.1518  0.5656  0.5319
  469MOL0     C64590   7.130  11.592   9.397  0.6337 -1.2159  0.6358
  469MOL0     C64591   7.216  11.561   9.293  0.5906  0.1804 -0.3808
  469MOL0     O64592   7.317  11.651   9.278 -0.3529 -0.5784  0.7994
  469MOL0     C64593   7.391  11.646   9.152  0.7206  0.2593 -0.1613
  469MOL0     C64594   7.476  11.775   9.136  0.9065 -0.3739  0.3499
  469MOL0     C64595   7.604  11.752   9.222  0.6095 -0.3664 -0.2771
  469MOL0     C64596   7.707  11.861   9.192  0.3034 -0.2610 -0.6797
  469MOL0     C64597   7.795  11.844   9.067  0.0877  0.1160 -0.3927
  469MOL0     C64598   7.918  11.750   9.070 -0.2666 -0.8482 -0.5811
  469MOL0     C64599   8.040  11.830   9.123  0.5953  0.9764 -1.1564
  469MOL0     C64600   8.098  11.946   9.028 -0.3338  0.6517  0.1084
  469MOL0     N64601   8.239  11.976   9.063 -0.4943  1.0679 -0.1720
  469MOL0     C64602   8.277  12.084   9.131  0.0256  0.8936  0.4506
  469MOL0     C64603   8.410  12.079   9.121 -0.1928 -0.7376  0.3135
  469MOL0     C64604   8.482  12.198   9.176 -0.0562  0.1369 -1.4410
  469MOL0     C64605   8.626  12.205   9.112 -0.2383  1.0610 -1.2957
  469MOL0     C64606   8.644  12.258   8.972 -0.6345 -1.0160  0.2243
  469MOL0     C64607   8.637  12.413   8.973 -0.1457 -0.0386 -0.9935
  469MOL0     O64608   8.738  12.485   9.037 -0.3941 -0.0113 -0.7162
  469MOL0     C64609   8.866  12.465   9.002 -0.6103 -0.1784 -0.5979
  469MOL0     C64610   8.913  12.466   8.872 -0.1990  0.5163  0.9611
  469MOL0     C64611   9.044  12.459   8.831  0.4875  0.0808 -0.3207
  469MOL0     C64612   9.066  12.492   8.683  0.4019  0.3416 -0.3426
  469MOL0     C64613   9.132  12.432   8.934 -0.4252  0.0894 -0.6286
  469MOL0     C64614   9.272  12.426   8.903 -0.2234  0.6066 -0.5822
  469MOL0     O64615   9.358  12.466   8.991 -0.5795  0.6561 -0.1702
  469MOL0     C64616   9.489  12.457   8.963  0.1133  0.6367 -0.2254
  469MOL0     C64617   9.552  12.566   8.913  0.7362 -0.7302 -0.2690
  469MOL0     C64618   9.688  12.568   8.888 -0.4794  0.2176  0.2833
  469MOL0     C64619   9.767  12.461   8.930  0.4049 -0.7132 -0.5431
  469MOL0     O64620   9.902  12.458   8.932  0.1593  0.1290  0.8414
  469MOL0     C64621   9.964  12.582   8.910 -0.3486  0.6088  0.4604
  469MOL0     C64622  10.111  12.555   8.907 -0.6901  0.2916  0.6413
  469MOL0     C64623  10.177  12.695   8.913 -0.8873  0.7312 -0.1991
  469MOL0     C64624  10.332  12.678   8.900  0.1598  0.4859 -0.1758
  469MOL0     C64625  10.407  12.808   8.854 -0.6438 -0.2082 -0.4187
  469MOL0     C64626  10.565  12.793   8.849  0.2580  0.0330 -0.0403
  469MOL0     C64627  10.619  12.685   8.762 -0.5855  0.4165 -0.5925
  469MOL0     C64628  10.774  12.671   8.774  0.3154 -0.3450 -0.8414
  469MOL0    Cl64629  10.857  12.816   8.707  0.3672  0.0041  0.0134
  469MOL0     C64630   9.703  12.352   8.989  0.5984  0.1062  0.0959
  469MOL0     C64631   9.561  12.342   9.000  0.0550 -0.1670 -0.5025
  469MOL0     O64632   9.297  12.384   8.791 -0.0255 -0.0525 -0.4163
  469MOL0     C64633   9.090  12.438   9.072 -0.9139  0.0750  0.3054
  469MOL0     C64634   8.953  12.444   9.103  0.1332 -1.0028  0.3990
  469MOL0     N64635   8.443  11.974   9.044 -0.3831 -0.0194  0.0995
  469MOL0     N64636   8.346  11.903   9.009  0.3274 -0.3864 -0.0999
  469MOL0     C64637   7.196  11.439   9.234  0.2210 -0.4711  0.7663
  469MOL0     C64638   7.084  11.355   9.259  0.8388  0.1700 -1.3165
  469MOL0     C64639   6.715  11.215   9.506  0.7363 -0.9223 -0.5449
  469MOL0     C64640   6.615  11.298   9.452  0.3476  0.1883  0.5754
  469MOL0     C64641   6.484  11.267   9.455  0.2088  0.4529 -0.0563
  469MOL0     C64642   6.437  11.164   9.537 -0.4406 -0.3779  0.1523
  469MOL0     O64643   6.312  11.126   9.552  0.4866 -0.3976  0.1865
  469MOL0     C64644   6.210  11.172   9.460  0.2247 -0.8863 -0.2842
  469MOL0     C64645   6.074  11.144   9.516 -0.1852  0.6836 -0.4067
  469MOL0     C64646   5.963  11.143   9.406  0.5754  0.1197 -0.9715
  469MOL0     C64647   5.920  11.280   9.357 -0.2080 -0.0442  0.0680
  469MOL0     C64648   5.827  11.335   9.455  0.1810  0.2694 -0.7269
  469MOL0     C64649   5.739  11.370   9.528  0.4133 -0.1788  0.2875
  469MOL0     C64650   6.526  11.084   9.605 -0.6364 -0.6693 -1.5841
  469MOL0     C64651   6.666  11.102   9.584 -0.4967  0.2865 -0.8999
  469MOL0     C64652   6.760  11.004   9.651  0.3551 -0.1179  0.1809
  469MOL0     H64653   6.944  11.524   9.507 -0.0786  0.8581  0.5326
  469MOL0     H64654   7.140  11.693   9.434 -1.4622 -0.0930 -1.5765
  469MOL0     H64655   7.328  11.635   9.064  1.3778  2.5143 -0.9735
  469MOL0     H64656   7.454  11.556   9.158 -3.8512 -3.3206 -0.1581
  469MOL0     H64657   7.499  11.783   9.030  1.0358 -0.3182  0.3828
  469MOL0     H64658   7.413  11.856   9.174 -1.7912 -2.7318  1.3203
  469MOL0     H64659   7.579  11.773   9.326  2.0387 -0.3908  0.0863
  469MOL0     H64660   7.652  11.655   9.211  0.0990 -0.7618  0.8654
  469MOL0     H64661   7.659  11.959   9.193 -0.2483 -0.5065  1.1869
  469MOL0     H64662   7.782  11.855   9.271 -0.1255 -1.0118 -0.3086
  469MOL0     H64663   7.835  11.945   9.053 -0.0361  0.4778  1.5682
  469MOL0     H64664   7.732  11.826   8.979 -1.8410 -0.0036  0.9535
  469MOL0     H64665   7.903  11.650   9.113  0.7835 -1.5595 -1.8031
  469MOL0     H64666   7.952  11.725   8.969  2.0763 -0.4588  0.0375
  469MOL0     H64667   8.116  11.752   9.138 -0.3560  0.1182 -0.7388
  469MOL0     H64668   8.024  11.874   9.222 -0.8770  2.1411 -1.8693
  469MOL0     H64669   8.091  11.908   8.926 -3.4118 -2.3587  1.2216
  469MOL0     H64670   8.040  12.038   9.032  1.9614  2.3370 -2.4665
  469MOL0     H64671   8.221  12.169   9.169  0.8915  1.6177  0.1442
  469MOL0     H64672   8.481  12.202   9.285 -0.7902  1.1741 -1.4734
  469MOL0     H64673   8.434  12.291   9.142  0.9429  0.1810 -2.8199
  469MOL0     H64674   8.687  12.265   9.181  1.3960 -0.9960 -0.8442
  469MOL0     H64675   8.670  12.106   9.101  2.5944  2.0616  0.0926
  469MOL0     H64676   8.744  12.235   8.934 -0.4761  0.3584 -0.2527
  469MOL0     H64677   8.574  12.215   8.899 -0.3985 -1.8417  0.4662
  469MOL0     H64678   8.622  12.444   8.869 -1.0971 -2.4277 -1.6410
  469MOL0     H64679   8.543  12.438   9.024 -0.8758  0.5273 -2.5443
  469MOL0     H64680   8.835  12.465   8.796  1.1682  0.6015 -0.5039
  469MOL0     H64681   8.971  12.508   8.632 -0.8046  0.7721  1.9507
  469MOL0     H64682   9.120  12.411   8.632 -1.7610  0.7167 -3.5311
  469MOL0     H64683   9.129  12.581   8.671  2.1416 -1.0942 -2.7969
  469MOL0     H64684   9.492  12.657   8.916  1.2652 -0.3951  2.8568
  469MOL0     H64685   9.733  12.660   8.852  0.2271 -0.5058 -0.7488
  469MOL0     H64686   9.935  12.620   8.811 -0.7853  0.1561  0.4115
  469MOL0     H64687   9.937  12.646   8.994  1.8342  2.3568 -0.0613
  469MOL0     H64688  10.141  12.492   8.991 -1.3431 -2.5366 -1.1118
  469MOL0     H64689  10.138  12.502   8.816 -0.6809  0.6395  0.4378
  469MOL0     H64690  10.154  12.746   9.007  1.0771  2.7370 -0.7147
  469MOL0     H64691  10.137  12.756   8.831  0.5727  0.4529 -1.1613
  469MOL0     H64692  10.354  12.603   8.823  0.8904  1.3367 -0.8046
  469MOL0     H64693  10.371  12.626   8.988 -1.3817 -1.9315 -0.8031
  469MOL0     H64694  10.377  12.840   8.754 -4.5762 -2.1008 -0.0231
  469MOL0     H64695  10.377  12.886   8.924  0.4954 -0.0462 -0.0906
  469MOL0     H64696  10.607  12.783   8.949  0.1080 -2.2251 -0.1539
  469MOL0     H64697  10.602  12.884   8.800 -0.9982 -1.3086 -3.8748
  469MOL0     H64698  10.596  12.721   8.661  0.5737  3.2983  0.0555
  469MOL0     H64699  10.571  12.590   8.787  0.0749  0.7265  2.2389
  469MOL0     H64700  10.817  12.585   8.722  1.5949 -0.9170  1.0691
  469MOL0     H64701  10.803  12.651   8.878  0.2929  2.2407 -0.2585
  469MOL0     H64702   9.758  12.259   8.998  2.3364  1.1028  0.1849
  469MOL0     H64703   9.514  12.248   9.027  0.4723  0.3348  2.2509
  469MOL0     H64704   9.160  12.426   9.154 -1.8495 -0.4677  1.0449
  469MOL0     H64705   8.924  12.455   9.207  1.4966  3.1170  0.5224
  469MOL0     H64706   7.267  11.399   9.163 -1.2230 -1.0909 -0.3942
  469MOL0     H64707   7.049  11.269   9.203 -1.6707 -0.1152  0.4561
  469MOL0     H64708   6.643  11.379   9.385 -0.8339 -1.6559 -2.3881
  469MOL0     H64709   6.417  11.325   9.393 -0.0235 -1.3715 -1.5644
  469MOL0     H64710   6.216  11.280   9.448  0.7394 -0.8118  0.5279
  469MOL0     H64711   6.235  11.128   9.363 -1.0249 -0.1869 -0.9571
  469MOL0     H64712   6.062  11.221   9.592  3.6066  2.4338 -1.3364
  469MOL0     H64713   6.080  11.048   9.569  1.0844  0.4442 -0.9374
  469MOL0     H64714   6.006  11.090   9.321 -2.4316 -1.0477 -1.9261
  469MOL0     H64715   5.873  11.084   9.428 -0.3635  1.0218 -2.2370
  469MOL0     H64716   5.876  11.274   9.257 -1.1837  3.6258  0.1221
  469MOL0     H64717   6.009  11.343   9.347 -0.3512  0.0664 -0.5431
  469MOL0     H64718   5.660  11.399   9.595 -0.6675 -0.3635 -0.8804
  469MOL0     H64719   6.493  11.007   9.674 -1.1412  0.2861 -0.7418
  469MOL0     H64720   6.701  10.920   9.688  2.5800 -2.9778 -2.2444
  469MOL0     H64721   6.833  10.955   9.585 -0.9805 -1.4829 -0.3314
  469MOL0     H64722   6.809  11.062   9.729 -1.2794  1.9626 -0.2413
  470MOL0     O64723   8.104   0.556   4.246  0.4202 -0.3549 -0.5728
  470MOL0     C64724   8.115   0.654   4.319  0.5142  0.0843  0.5360
  470MOL0     O64725   8.022   0.753   4.326 -0.0290 -0.6397 -0.0175
  470MOL0     C64726   7.893   0.724   4.274 -0.0503 -0.4167 -0.3677
  470MOL0     C64727   7.842   0.783   4.161  0.3738 -0.5905  0.0283
  470MOL0     C64728   7.712   0.754   4.110  0.9548  0.3484  0.3023
  470MOL0     C64729   7.635   0.662   4.175  1.0574 -0.4285 -0.3872
  470MOL0     O64730   7.506   0.644   4.135 -0.4994 -0.8568 -0.2557
  470MOL0     C64731   7.492   0.618   3.992  0.1339  0.7772  0.0114
  470MOL0     C64732   7.400   0.492   3.962  0.0529 -0.1695  0.5453
  470MOL0     C64733   7.299   0.513   3.838 -0.7569  1.1492  0.0308
  470MOL0     C64734   7.363   0.452   3.713  0.8904  0.0667 -0.5147
  470MOL0     C64735   7.263   0.465   3.599  0.6492 -0.1538  0.7923
  470MOL0     C64736   7.296   0.595   3.526  0.4371  0.1524  0.0198
  470MOL0     C64737   7.409   0.576   3.430  0.1485 -0.5791  0.7877
  470MOL0     C64738   7.446   0.719   3.378  0.1554  0.2240  0.9536
  470MOL0     N64739   7.554   0.707   3.278  0.5064  0.3599  0.0630
  470MOL0     C64740   7.543   0.647   3.152  0.0617 -1.2102  0.7707
  470MOL0     C64741   7.665   0.627   3.099 -0.3259  0.2551  1.2622
  470MOL0     C64742   7.694   0.558   2.962  0.7424  0.7713 -0.3789
  470MOL0     C64743   7.828   0.606   2.910 -0.2801 -0.4526  0.1822
  470MOL0     C64744   7.847   0.553   2.768 -0.6762 -0.2767 -0.3944
  470MOL0     C64745   7.979   0.610   2.702 -0.4876  1.3463 -0.7846
  470MOL0     O64746   7.937   0.742   2.683 -0.8172  0.0355 -0.2062
  470MOL0     C64747   7.998   0.827   2.599  0.1870 -0.7273 -0.6809
  470MOL0     C64748   8.109   0.787   2.525  1.1562  0.6403  0.5082
  470MOL0     C64749   8.171   0.882   2.435 -0.4373  0.5758 -0.0431
  470MOL0     C64750   8.276   0.830   2.347  0.5905 -0.4680 -0.4170
  470MOL0     C64751   8.119   1.010   2.429  0.3961  0.1320  0.1184
  470MOL0     C64752   8.168   1.120   2.337 -1.3461 -0.4029 -0.8554
  470MOL0     O64753   8.299   1.115   2.300  0.8295  0.1167 -0.3996
  470MOL0     C64754   8.362   1.167   2.191 -0.2677  0.4214 -0.2064
  470MOL0     C64755   8.349   1.301   2.149 -0.0541 -0.1888  0.5633
  470MOL0     C64756   8.411   1.339   2.026  0.0568  0.0213  0.3486
  470MOL0     C64757   8.480   1.253   1.943 -0.2039  0.1925 -0.4801
  470MOL0     O64758   8.555   1.294   1.835 -0.1045  0.0077 -0.0821
  470MOL0     C64759   8.628   1.200   1.756 -0.1598  0.2701 -1.1244
  470MOL0     C64760   8.771   1.173   1.811 -0.4743 -0.5133  0.6788
  470MOL0     C64761   8.834   1.291   1.880 -0.1881 -0.5590 -0.2682
  470MOL0     C64762   8.879   1.411   1.793 -0.0957  0.3979  1.3158
  470MOL0     C64763   8.930   1.544   1.849  0.0973 -0.0280  0.2691
  470MOL0     C64764   8.825   1.596   1.951 -0.8734  0.2737 -0.9912
  470MOL0     C64765   8.890   1.718   2.012 -0.3335 -0.9406  0.5181
  470MOL0     C64766   8.916   1.828   1.910 -0.2680 -0.3992  0.6830
  470MOL0    Cl64767   8.969   1.963   2.010 -0.3650  0.1579  0.4134
  470MOL0     C64768   8.488   1.118   1.993 -0.3184  0.0016  0.7158
  470MOL0     C64769   8.439   1.079   2.112 -0.7832 -0.3738  1.0465
  470MOL0     O64770   8.085   1.190   2.286 -0.5717 -0.1489 -0.2962
  470MOL0     C64771   8.002   1.046   2.506 -0.5323 -0.4451  0.7029
  470MOL0     C64772   7.944   0.959   2.587  0.4980  0.9920 -0.6291
  470MOL0     N64773   7.754   0.659   3.195  0.1070  0.4143 -0.5550
  470MOL0     N64774   7.690   0.711   3.299 -0.5961  0.4258  0.4402
  470MOL0     C64775   7.685   0.601   4.284  1.0938 -0.0971 -0.3287
  470MOL0     C64776   7.812   0.626   4.338 -0.8171  0.5523 -0.8102
  470MOL0     C64777   8.233   0.659   4.396 -0.0980  0.3297  0.4721
  470MOL0     C64778   8.351   0.599   4.343  0.4954  0.2845 -0.2538
  470MOL0     C64779   8.469   0.591   4.421  0.4140  0.2366 -0.2495
  470MOL0     C64780   8.472   0.625   4.555  0.1014  0.1175  0.3006
  470MOL0     O64781   8.581   0.623   4.644 -0.3857 -0.8181 -0.6196
  470MOL0     C64782   8.680   0.525   4.620 -0.5079 -0.2030 -0.0267
  470MOL0     C64783   8.803   0.581   4.561 -0.9368  0.5545  0.1472
  470MOL0     C64784   8.881   0.692   4.637  0.0105 -0.1734  0.4115
  470MOL0     C64785   8.982   0.761   4.542 -0.3788 -0.4229 -0.0256
  470MOL0     C64786   9.069   0.840   4.625 -1.3850  0.1343  0.5557
  470MOL0     C64787   9.130   0.903   4.706 -0.1489 -0.2098  0.0640
  470MOL0     C64788   8.357   0.692   4.599 -0.5759  0.7412 -0.5540
  470MOL0     C64789   8.240   0.708   4.527 -0.2897  0.2121 -0.1906
  470MOL0     C64790   8.132   0.789   4.595 -0.1807  0.3277  0.1874
  470MOL0     H64791   7.904   0.848   4.100 -2.2430  1.5117 -0.5982
  470MOL0     H64792   7.680   0.804   4.018  2.3847  1.1058  0.1879
  470MOL0     H64793   7.586   0.591   3.944  0.5878 -2.3704  2.3370
  470MOL0     H64794   7.448   0.705   3.943 -0.6831  2.8998  4.0152
  470MOL0     H64795   7.443   0.392   3.953 -2.8929 -1.3853 -2.9491
  470MOL0     H64796   7.330   0.479   4.045 -2.0039 -2.4181 -1.3676
  470MOL0     H64797   7.202   0.466   3.858  0.6374 -2.0710 -0.0737
  470MOL0     H64798   7.283   0.620   3.822  1.6939  1.4735 -0.7502
  470MOL0     H64799   7.465   0.481   3.686  1.4455 -1.8422 -0.5927
  470MOL0     H64800   7.366   0.346   3.739  0.6705  0.7326  2.5813
  470MOL0     H64801   7.161   0.481   3.636  0.9161  2.7413  0.4796
  470MOL0     H64802   7.268   0.377   3.534 -2.1453 -0.2243  0.5473
  470MOL0     H64803   7.216   0.619   3.454  1.0984  1.3166 -0.3505
  470MOL0     H64804   7.314   0.683   3.588 -2.1056  1.7883 -1.3416
  470MOL0     H64805   7.377   0.511   3.347  0.3984 -0.1272  0.3341
  470MOL0     H64806   7.495   0.533   3.482  2.1096  1.2710 -0.7311
  470MOL0     H64807   7.364   0.773   3.328  1.0692  0.1240 -0.7268
  470MOL0     H64808   7.476   0.782   3.462 -2.1063  2.6078  0.1227
  470MOL0     H64809   7.460   0.616   3.089  0.9667 -1.6282 -0.2338
  470MOL0     H64810   7.616   0.578   2.889  1.2336 -1.6732 -1.6777
  470MOL0     H64811   7.698   0.452   2.989 -1.4499  0.9235  0.8005
  470MOL0     H64812   7.831   0.715   2.921 -0.1455 -0.4992  0.6334
  470MOL0     H64813   7.913   0.569   2.968  0.5334  0.3340 -0.4761
  470MOL0     H64814   7.853   0.444   2.769  0.6794 -0.2281 -1.3854
  470MOL0     H64815   7.765   0.574   2.699 -0.8215 -0.5460 -0.3080
  470MOL0     H64816   8.056   0.600   2.778  0.3743 -0.9320 -1.8492
  470MOL0     H64817   7.997   0.562   2.605 -0.4416 -0.9303  0.2799
  470MOL0     H64818   8.144   0.685   2.515 -1.5080 -0.0992 -3.1063
  470MOL0     H64819   8.265   0.876   2.248  1.4932 -0.8922 -0.7243
  470MOL0     H64820   8.270   0.722   2.326  3.5380 -0.4484 -1.7962
  470MOL0     H64821   8.372   0.849   2.395  1.8478 -1.9486 -2.1851
  470MOL0     H64822   8.287   1.375   2.198 -2.5830 -0.5572 -1.8355
  470MOL0     H64823   8.407   1.444   1.997 -1.2158  0.4018  1.7850
  470MOL0     H64824   8.582   1.102   1.746  2.8079 -1.1224 -2.6810
  470MOL0     H64825   8.645   1.239   1.655  0.6102  2.6815 -0.1410
  470MOL0     H64826   8.770   1.084   1.875 -1.1732 -0.7658  0.3255
  470MOL0     H64827   8.830   1.143   1.724 -2.1803  0.6519 -0.9461
  470MOL0     H64828   8.927   1.252   1.922  1.0204  1.6536 -0.7554
  470MOL0     H64829   8.766   1.327   1.957 -2.9071  2.8838 -3.8548
  470MOL0     H64830   8.794   1.440   1.731 -0.9339 -0.6549  1.9324
  470MOL0     H64831   8.956   1.364   1.732  1.3361  1.5513  2.1605
  470MOL0     H64832   9.023   1.519   1.901  0.0241 -0.2041  0.3154
  470MOL0     H64833   8.952   1.607   1.762 -0.4927  0.8256  0.7254
  470MOL0     H64834   8.808   1.530   2.037  1.9412  1.0920  0.3043
  470MOL0     H64835   8.727   1.619   1.909 -0.2276  0.0734 -2.6965
  470MOL0     H64836   8.991   1.689   2.044  0.6018 -1.2163 -2.4034
  470MOL0     H64837   8.832   1.757   2.097  1.4637 -1.6623  2.1466
  470MOL0     H64838   8.830   1.867   1.855  1.0021 -0.7486 -1.6809
  470MOL0     H64839   8.988   1.796   1.834 -1.0219  0.9693 -0.6507
  470MOL0     H64840   8.533   1.043   1.928  1.4467  1.6488 -0.0813
  470MOL0     H64841   8.441   0.972   2.130  1.7832 -1.3449 -3.4342
  470MOL0     H64842   7.954   1.143   2.497  0.7852  0.5774  3.3545
  470MOL0     H64843   7.846   0.975   2.632 -0.1118  0.5756 -1.7726
  470MOL0     H64844   7.618   0.530   4.331  0.5022  0.7622  0.1425
  470MOL0     H64845   7.859   0.578   4.423  2.7315  1.6090 -1.9829
  470MOL0     H64846   8.360   0.564   4.241  1.9803 -2.2266  0.6553
  470MOL0     H64847   8.552   0.541   4.374  0.3560  0.2206 -0.3335
  470MOL0     H64848   8.698   0.474   4.715 -1.6946  2.6026  1.8361
  470MOL0     H64849   8.637   0.443   4.561  0.8136 -1.9313  1.3250
  470MOL0     H64850   8.792   0.617   4.459 -1.7248 -1.4014 -0.5037
  470MOL0     H64851   8.876   0.501   4.545  0.5813  1.8578  0.2836
  470MOL0     H64852   8.815   0.777   4.657  1.8945  0.9370  2.3289
  470MOL0     H64853   8.929   0.649   4.725 -0.0818  3.3445  2.3949
  470MOL0     H64854   8.927   0.815   4.464  0.8646 -1.2458 -1.5208
  470MOL0     H64855   9.038   0.678   4.498 -1.5097 -1.3117  0.1519
  470MOL0     H64856   9.177   0.946   4.792 -1.6482 -3.3986  2.7140
  470MOL0     H64857   8.365   0.717   4.704  0.5646  1.1982 -0.7339
  470MOL0     H64858   8.163   0.823   4.694  0.5967 -0.1355  0.1087
  470MOL0     H64859   8.100   0.873   4.532  3.3551  3.5701  2.2819
  470MOL0     H64860   8.049   0.721   4.615  1.0076 -1.1614  0.2373
  471MOL0     O64861   0.150   6.544   8.393  0.1112 -0.8046  0.1243
  471MOL0     C64862   0.163   6.477   8.494 -0.1282 -0.4015  0.7058
  471MOL0     O64863   0.147   6.344   8.500 -0.0458  0.0698  0.1600
  471MOL0     C64864   0.131   6.269   8.386  0.5848  0.3966 -0.2603
  471MOL0     C64865   0.207   6.155   8.383 -0.1447 -0.5927  0.5869
  471MOL0     C64866   0.201   6.065   8.288  0.5388  0.4012  0.5393
  471MOL0     C64867   0.100   6.083   8.185 -0.2893  0.0069 -0.7861
  471MOL0     O64868   0.078   5.993   8.081 -0.1448  0.7084 -0.8040
  471MOL0     C64869   0.111   5.856   8.109 -0.4418 -0.1608  0.1084
  471MOL0     C64870   0.075   5.764   7.990 -0.5593 -0.7399 -0.1659
  471MOL0     C64871  -0.076   5.730   7.960 -0.3036 -0.0889  0.1875
  471MOL0     C64872  -0.110   5.677   7.815  0.2851 -0.9405  0.0153
  471MOL0     C64873  -0.021   5.548   7.774 -0.9813 -0.0032 -0.5490
  471MOL0     C64874  -0.006   5.436   7.879  0.1460  0.5842 -0.0689
  471MOL0     C64875   0.090   5.326   7.841 -0.9346 -0.8926  0.4683
  471MOL0     C64876   0.129   5.234   7.962  0.6482  0.0875  1.0683
  471MOL0     N64877   0.213   5.313   8.046 -0.7509  0.0533 -0.1248
  471MOL0     C64878   0.345   5.325   8.049 -1.4799 -0.2296 -0.1924
  471MOL0     C64879   0.391   5.412   8.139  1.5421  0.2602 -0.4491
  471MOL0     C64880   0.538   5.446   8.162  0.4486 -0.5321  0.6728
  471MOL0     C64881   0.596   5.500   8.037 -0.2687 -0.2740  0.7134
  471MOL0     C64882   0.747   5.541   8.063 -1.3913  0.0586  0.1208
  471MOL0     C64883   0.835   5.426   8.091 -0.0946  0.7841  0.4974
  471MOL0     O64884   0.841   5.336   7.980 -0.1156 -0.1457  0.9928
  471MOL0     C64885   0.959   5.277   7.951 -0.2421  0.0431  0.9539
  471MOL0     C64886   1.024   5.331   7.845 -0.1145  0.5712  1.3141
  471MOL0     C64887   1.156   5.289   7.815  0.0853 -0.8615  0.1771
  471MOL0     C64888   1.223   5.367   7.698 -0.2367  0.6125 -0.1643
  471MOL0     C64889   1.223   5.200   7.895  0.5112 -0.5961  0.0132
  471MOL0     C64890   1.357   5.147   7.863 -0.1425  0.2927 -0.0302
  471MOL0     O64891   1.427   5.092   7.973 -0.0683  0.5076  0.6226
  471MOL0     C64892   1.549   5.031   7.953 -0.3908 -0.2848  0.0537
  471MOL0     C64893   1.573   4.930   7.858 -0.1547 -0.4607 -0.1862
  471MOL0     C64894   1.706   4.881   7.837  0.2452 -0.4720  0.4689
  471MOL0     C64895   1.817   4.938   7.897  0.6688  0.6329 -0.0778
  471MOL0     O64896   1.935   4.896   7.851  0.6823  0.6732  0.2520
  471MOL0     C64897   2.024   5.006   7.814 -0.5503  0.3175 -0.6332
  471MOL0     C64898   2.099   4.951   7.687  0.0834 -0.3323  0.4535
  471MOL0     C64899   2.242   5.011   7.664 -0.2603 -0.8818 -0.1590
  471MOL0     C64900   2.307   4.979   7.534 -0.0754 -0.1841  0.0326
  471MOL0     C64901   2.432   5.064   7.503  0.5139 -0.0600  0.7453
  471MOL0     C64902   2.548   5.043   7.607 -0.5819  0.1919  0.3213
  471MOL0     C64903   2.682   4.981   7.547  0.1433 -0.9228  0.3587
  471MOL0     C64904   2.752   4.918   7.666 -0.6661  0.5501  0.3830
  471MOL0    Cl64905   2.793   5.037   7.795  0.2445  0.1154  0.1135
  471MOL0     C64906   1.788   5.040   7.995 -0.5230  0.9775  0.9205
  471MOL0     C64907   1.658   5.091   8.010  0.3438  0.4954  0.0216
  471MOL0     O64908   1.409   5.162   7.754  0.3224  0.0111 -0.1488
  471MOL0     C64909   1.157   5.147   8.006 -0.0668  1.2640 -0.1460
  471MOL0     C64910   1.026   5.185   8.033 -0.9033  0.2094 -0.5072
  471MOL0     N64911   0.278   5.449   8.213  0.4983  0.2613 -0.7017
  471MOL0     N64912   0.175   5.382   8.160 -0.2864  0.6322 -0.3959
  471MOL0     C64913   0.019   6.202   8.183  0.1271 -0.0720 -0.1579
  471MOL0     C64914   0.031   6.289   8.290 -0.4290 -0.6770  0.2890
  471MOL0     C64915   0.230   6.538   8.610 -0.2955  0.7336  0.6230
  471MOL0     C64916   0.163   6.525   8.733  0.6657  0.4645 -0.6204
  471MOL0     C64917   0.212   6.600   8.846 -0.9013 -1.2340 -1.0252
  471MOL0     C64918   0.339   6.669   8.838  0.4392 -0.3640 -0.9676
  471MOL0     O64919   0.396   6.736   8.943  0.2675  0.1119 -0.2887
  471MOL0     C64920   0.310   6.750   9.067 -0.0669 -0.7620  0.5833
  471MOL0     C64921   0.404   6.755   9.187  0.1823  0.4298 -0.7541
  471MOL0     C64922   0.475   6.621   9.209 -0.2280 -0.3177  0.5372
  471MOL0     C64923   0.568   6.639   9.324 -0.4718  0.4180 -0.0415
  471MOL0     C64924   0.706   6.692   9.305  0.1959 -0.3987 -0.7236
  471MOL0     C64925   0.810   6.745   9.295  0.6295 -0.1848  0.0537
  471MOL0     C64926   0.418   6.658   8.723  0.4012 -0.3933  0.0431
  471MOL0     C64927   0.359   6.604   8.610 -1.0688  0.1446  0.0203
  471MOL0     C64928   0.459   6.604   8.491  1.0572 -0.5169 -0.1452
  471MOL0     H64929   0.279   6.139   8.463  2.3848 -0.0187 -1.4247
  471MOL0     H64930   0.259   5.974   8.294 -2.6707 -1.7185  3.9430
  471MOL0     H64931   0.058   5.830   8.201 -0.2337 -1.0542 -0.0181
  471MOL0     H64932   0.217   5.843   8.131 -0.6921 -0.4130  1.2527
  471MOL0     H64933   0.113   5.814   7.900  1.3000  1.3433  1.6510
  471MOL0     H64934   0.132   5.672   8.002  0.5621 -0.0612 -0.0895
  471MOL0     H64935  -0.113   5.665   8.039 -1.0552 -2.0307 -1.6408
  471MOL0     H64936  -0.133   5.823   7.963 -2.4246 -1.3309  0.1184
  471MOL0     H64937  -0.219   5.664   7.811 -0.2730  2.8679 -2.3314
  471MOL0     H64938  -0.087   5.759   7.747 -0.0298  1.4970  2.6638
  471MOL0     H64939   0.077   5.595   7.770 -1.3789  1.3410  2.8094
  471MOL0     H64940  -0.054   5.509   7.677 -1.1178  0.8496 -0.8525
  471MOL0     H64941   0.024   5.482   7.973  0.8983  0.2604 -0.1389
  471MOL0     H64942  -0.107   5.394   7.875  0.7021 -1.5366  3.4028
  471MOL0     H64943   0.187   5.363   7.808 -0.9469 -1.0337  0.2713
  471MOL0     H64944   0.041   5.278   7.756  0.4655  1.1567 -1.6145
  471MOL0     H64945   0.033   5.205   8.007 -1.4539  1.6497 -2.0982
  471MOL0     H64946   0.195   5.152   7.930  3.2635  1.2963  2.9196
  471MOL0     H64947   0.417   5.280   7.980 -2.0306  2.4863 -2.7637
  471MOL0     H64948   0.585   5.349   8.181 -0.8819 -1.2725  0.4020
  471MOL0     H64949   0.557   5.515   8.244  0.0825  1.2217 -0.6623
  471MOL0     H64950   0.580   5.424   7.960 -0.4111  1.7276 -1.3400
  471MOL0     H64951   0.534   5.589   8.022  0.0610  0.0758  1.3463
  471MOL0     H64952   0.791   5.591   7.975  0.9563 -1.7408  0.1820
  471MOL0     H64953   0.756   5.606   8.150 -4.1234  1.5697 -0.6114
  471MOL0     H64954   0.934   5.472   8.104  0.6746 -0.1176 -1.7863
  471MOL0     H64955   0.805   5.376   8.184 -2.2427 -2.5230 -1.7753
  471MOL0     H64956   0.977   5.402   7.778 -0.8449 -1.9348 -0.9976
  471MOL0     H64957   1.155   5.445   7.666 -1.0024  1.0802  2.3579
  471MOL0     H64958   1.243   5.293   7.621  1.1061  1.1692 -0.3840
  471MOL0     H64959   1.312   5.414   7.741 -0.3232 -0.9096  1.8493
  471MOL0     H64960   1.496   4.901   7.787  2.5183 -2.2243 -2.5825
  471MOL0     H64961   1.732   4.807   7.762  2.1353 -0.9426  1.5245
  471MOL0     H64962   1.972   5.101   7.797  0.0158  0.5965 -0.8187
  471MOL0     H64963   2.092   5.016   7.898  2.6888  0.2820 -3.0783
  471MOL0     H64964   2.114   4.843   7.694  1.9105 -0.4335 -2.8842
  471MOL0     H64965   2.046   4.968   7.593  0.7110 -2.0761 -0.2551
  471MOL0     H64966   2.311   4.987   7.746 -3.9154 -1.5682  2.9665
  471MOL0     H64967   2.230   5.120   7.669  1.8547 -0.5113 -1.5956
  471MOL0     H64968   2.231   4.998   7.457  1.7546 -1.1013 -2.1405
  471MOL0     H64969   2.324   4.872   7.523  2.5549 -0.0536  1.8736
  471MOL0     H64970   2.467   5.016   7.412  0.3712 -0.7232  1.0346
  471MOL0     H64971   2.405   5.168   7.481  1.3008 -0.6074 -3.8084
  471MOL0     H64972   2.513   4.983   7.692  1.9219  1.5788  2.4466
  471MOL0     H64973   2.573   5.140   7.650  0.1560  0.3337 -0.4198
  471MOL0     H64974   2.736   5.066   7.505  0.2274 -0.3017  1.6632
  471MOL0     H64975   2.662   4.905   7.471  0.1028 -1.5287  0.9633
  471MOL0     H64976   2.845   4.872   7.632 -0.0088  1.9753  0.2066
  471MOL0     H64977   2.685   4.845   7.714 -1.4335  1.3669  0.5719
  471MOL0     H64978   1.879   5.068   8.048 -0.5623 -3.6892  4.0368
  471MOL0     H64979   1.640   5.171   8.081 -2.9869 -0.0442 -0.0828
  471MOL0     H64980   1.215   5.080   8.069  0.7518  0.5554 -1.5903
  471MOL0     H64981   0.983   5.148   8.126 -0.1874  2.6776  0.9051
  471MOL0     H64982  -0.050   6.224   8.102 -0.1705  1.4930  0.4882
  471MOL0     H64983  -0.037   6.371   8.312  0.6032  0.3285 -0.1666
  471MOL0     H64984   0.074   6.464   8.744 -0.6175  1.7769 -3.0616
  471MOL0     H64985   0.141   6.596   8.929 -0.5774 -1.7672 -0.7648
  471MOL0     H64986   0.236   6.830   9.059 -1.2099 -1.9667 -2.8886
  471MOL0     H64987   0.252   6.660   9.091  1.5463 -1.8541  0.5242
  471MOL0     H64988   0.354   6.771   9.283 -0.5520 -4.6271 -0.0130
  471MOL0     H64989   0.480   6.833   9.192 -1.2712  2.0632 -2.5200
  471MOL0     H64990   0.395   6.547   9.214 -0.6222  0.0536 -0.0218
  471MOL0     H64991   0.538   6.590   9.125  2.9520  1.0503  2.2410
  471MOL0     H64992   0.584   6.536   9.358  2.0159  0.4448 -0.9224
  471MOL0     H64993   0.521   6.688   9.410  2.1258  1.5471  0.8370
  471MOL0     H64994   0.890   6.803   9.255 -0.3322 -0.0414 -1.8071
  471MOL0     H64995   0.520   6.697   8.725 -0.3776  2.1614 -3.0295
  471MOL0     H64996   0.476   6.507   8.442 -0.1167 -0.2974 -1.0515
  471MOL0     H64997   0.419   6.677   8.420 -2.0203 -0.9716  0.9590
  471MOL0     H64998   0.564   6.624   8.512  0.8708  0.5646 -0.1970
  472MOL0     O64999   3.738  10.153   7.488  0.5063  0.3566 -0.5306
  472MOL0     C65000   3.687  10.260   7.472  0.3403 -0.4607  0.4738
  472MOL0     O65001   3.713  10.350   7.369 -0.1366 -0.6310  0.4521
  472MOL0     C65002   3.827  10.338   7.294 -0.2795  0.9935 -0.7147
  472MOL0     C65003   3.958  10.338   7.352  0.4266  0.1163 -0.4468
  472MOL0     C65004   4.073  10.324   7.272  0.5695 -0.9952 -0.0030
  472MOL0     C65005   4.061  10.327   7.134 -0.3053  0.3930  0.3925
  472MOL0     O65006   4.177  10.327   7.057 -0.5058  0.4575  0.2661
  472MOL0     C65007   4.186  10.309   6.912  1.0857  0.1029 -0.0064
  472MOL0     C65008   4.312  10.245   6.865 -0.0140 -0.2288  0.1992
  472MOL0     C65009   4.333  10.257   6.711  0.2080  0.9533  0.2597
  472MOL0     C65010   4.478  10.225   6.672 -0.4329  0.0546 -0.3906
  472MOL0     C65011   4.484  10.185   6.521 -0.5944 -0.5072 -0.4022
  472MOL0     C65012   4.615  10.120   6.472 -0.3222  0.1324 -0.4689
  472MOL0     C65013   4.628  10.098   6.326 -0.5891 -0.0217 -0.1798
  472MOL0     C65014   4.542   9.987   6.269 -0.2366  0.5247 -0.0471
  472MOL0     N65015   4.563   9.850   6.322 -0.5192  0.4703 -0.4970
  472MOL0     C65016   4.670   9.774   6.316  0.2344 -0.0348  0.0859
  472MOL0     C65017   4.622   9.656   6.358  0.1521 -1.1151 -0.3233
  472MOL0     C65018   4.694   9.523   6.358 -0.4296  0.1361  0.4371
  472MOL0     C65019   4.608   9.400   6.349 -0.4326  0.8680  0.9972
  472MOL0     C65020   4.664   9.281   6.425 -0.0988  0.4229  0.0311
  472MOL0     C65021   4.621   9.288   6.576  0.3819 -0.0712 -0.3672
  472MOL0     O65022   4.485   9.251   6.599 -0.2564  0.3135 -0.3789
  472MOL0     C65023   4.459   9.169   6.708 -0.1823 -0.3516  0.8521
  472MOL0     C65024   4.472   9.204   6.843  0.5041  0.4848 -0.7494
  472MOL0     C65025   4.415   9.124   6.944 -0.3554  1.0474 -0.6614
  472MOL0     C65026   4.429   9.188   7.079 -0.4307 -0.2170  0.6510
  472MOL0     C65027   4.339   9.006   6.909 -0.0426 -0.3915 -0.1661
  472MOL0     C65028   4.290   8.922   7.014  1.2227  1.5891  0.8197
  472MOL0     O65029   4.312   8.790   7.000  0.1280  0.4516 -1.0661
  472MOL0     C65030   4.296   8.708   7.118 -0.1886 -1.0445  0.6470
  472MOL0     C65031   4.315   8.757   7.249 -0.2720  0.4059  0.5439
  472MOL0     C65032   4.293   8.682   7.360 -0.5743 -0.1211 -0.7887
  472MOL0     C65033   4.265   8.544   7.350 -0.1702 -0.0979  0.1761
  472MOL0     O65034   4.254   8.454   7.459  0.3236 -0.1908  0.0882
  472MOL0     C65035   4.293   8.311   7.439 -0.4616 -0.1474 -0.4593
  472MOL0     C65036   4.280   8.246   7.574  0.6679 -0.0186 -0.0759
  472MOL0     C65037   4.384   8.301   7.680  0.1829 -0.0959 -0.9323
  472MOL0     C65038   4.376   8.257   7.826  0.5736  0.3448 -0.2404
  472MOL0     C65039   4.464   8.339   7.916 -0.0014  0.7046 -1.1101
  472MOL0     C65040   4.496   8.245   8.038  0.3867  0.2386  0.2305
  472MOL0     C65041   4.578   8.302   8.154  0.1322 -0.8596  0.0642
  472MOL0     C65042   4.576   8.211   8.271  0.3825 -1.2358  0.1025
  472MOL0    Cl65043   4.638   8.297   8.408 -0.4303 -0.6305 -0.0365
  472MOL0     C65044   4.246   8.490   7.224 -0.7403  0.0989  1.2549
  472MOL0     C65045   4.256   8.574   7.109  0.1325 -0.4401 -0.2863
  472MOL0     O65046   4.239   8.983   7.107  0.4522 -0.7360  0.1543
  472MOL0     C65047   4.327   8.975   6.781 -0.8028  0.1322  0.0250
  472MOL0     C65048   4.371   9.063   6.681 -0.6069 -1.5767  0.3484
  472MOL0     N65049   4.492   9.675   6.401  0.1751 -0.0649  0.4874
  472MOL0     N65050   4.455   9.790   6.363  1.0663  0.9140 -0.5866
  472MOL0     C65051   3.936  10.345   7.072  1.2371  0.3455  0.0194
  472MOL0     C65052   3.825  10.336   7.152  1.0795 -0.2576  0.4281
  472MOL0     C65053   3.571  10.299   7.550 -0.6544 -0.7082  0.0220
  472MOL0     C65054   3.449  10.325   7.485  0.2541  0.0014 -0.2011
  472MOL0     C65055   3.340  10.362   7.559  0.1207  0.2944 -0.8476
  472MOL0     C65056   3.344  10.375   7.699  0.4913  0.8842 -0.1047
  472MOL0     O65057   3.224  10.413   7.748 -0.6793  1.0854  0.4350
  472MOL0     C65058   3.199  10.414   7.893 -0.0165 -0.0828  0.3586
  472MOL0     C65059   3.054  10.454   7.922 -0.0755 -1.2069  0.2171
  472MOL0     C65060   3.012  10.598   7.893  0.3073 -0.5359 -0.0012
  472MOL0     C65061   2.924  10.641   8.006  0.1960  0.3523  0.2731
  472MOL0     C65062   2.789  10.593   7.980 -0.1819  0.2362  0.3746
  472MOL0     C65063   2.683  10.548   7.943  0.9900 -0.6416 -0.9004
  472MOL0     C65064   3.460  10.350   7.765 -0.2003 -0.2317 -0.7474
  472MOL0     C65065   3.570  10.302   7.698  0.4188 -0.1906 -0.2698
  472MOL0     C65066   3.693  10.251   7.776  1.1760  0.2342 -0.6159
  472MOL0     H65067   3.969  10.321   7.459 -4.3842 -1.1639  0.0620
  472MOL0     H65068   4.168  10.321   7.325 -0.0498  3.9899  1.9657
  472MOL0     H65069   4.166  10.407   6.867 -1.7861 -0.7619 -0.7736
  472MOL0     H65070   4.110  10.244   6.868  1.8720 -1.5164  0.9170
  472MOL0     H65071   4.392  10.286   6.928 -0.5964  0.0511  0.7629
  472MOL0     H65072   4.305  10.140   6.894 -0.2197 -0.0026  1.0025
  472MOL0     H65073   4.271  10.188   6.652  0.4025 -0.4951  1.6653
  472MOL0     H65074   4.309  10.358   6.677 -0.2722  2.7017  4.9756
  472MOL0     H65075   4.550  10.304   6.694  1.4569 -1.3817 -1.0755
  472MOL0     H65076   4.502  10.137   6.733 -1.4084  0.0843  0.0632
  472MOL0     H65077   4.465  10.280   6.470 -1.4333  0.2657  1.2720
  472MOL0     H65078   4.406  10.111   6.498 -0.2398 -0.7016 -0.9714
  472MOL0     H65079   4.690  10.196   6.496  1.5653 -1.4237 -1.2120
  472MOL0     H65080   4.641  10.035   6.536  2.0040  0.5518 -0.7675
  472MOL0     H65081   4.732  10.098   6.293 -0.5470 -5.6527 -1.0492
  472MOL0     H65082   4.580  10.180   6.274 -1.4390 -0.7858 -0.6316
  472MOL0     H65083   4.437  10.008   6.293  0.3656 -0.9715  5.3108
  472MOL0     H65084   4.552   9.984   6.160  2.3014 -0.2025  0.1509
  472MOL0     H65085   4.772   9.793   6.284 -0.0218  0.6626 -0.3435
  472MOL0     H65086   4.759   9.518   6.446  0.3757  0.4055 -0.1277
  472MOL0     H65087   4.756   9.535   6.269 -0.5565 -1.8818  0.0279
  472MOL0     H65088   4.509   9.418   6.392 -0.5130 -0.6609  1.5222
  472MOL0     H65089   4.607   9.363   6.246  0.1799 -1.3956  1.7405
  472MOL0     H65090   4.624   9.190   6.379 -1.7054  1.3535 -0.4813
  472MOL0     H65091   4.773   9.272   6.411 -0.2812 -2.1559 -0.1893
  472MOL0     H65092   4.683   9.218   6.633  2.2912  1.7800 -0.0396
  472MOL0     H65093   4.640   9.386   6.621 -1.2575 -0.3750  1.0631
  472MOL0     H65094   4.510   9.306   6.856 -0.2943  1.0593 -2.6597
  472MOL0     H65095   4.476   9.112   7.142 -2.5999 -2.6224 -0.4647
  472MOL0     H65096   4.335   9.227   7.120  0.0641 -0.2742  1.8948
  472MOL0     H65097   4.498   9.274   7.077 -0.0496 -0.5118 -1.8767
  472MOL0     H65098   4.345   8.859   7.270  1.6932  0.2210 -1.1746
  472MOL0     H65099   4.296   8.716   7.463 -3.6544 -1.0634 -0.2983
  472MOL0     H65100   4.222   8.260   7.373  0.6065 -0.8886 -1.0810
  472MOL0     H65101   4.397   8.311   7.402  0.5565 -0.7488  2.2115
  472MOL0     H65102   4.180   8.269   7.609  0.7179  0.0735  0.0057
  472MOL0     H65103   4.293   8.139   7.554  0.2776  0.1237 -1.1375
  472MOL0     H65104   4.383   8.411   7.681  0.9295 -0.0785 -0.9181
  472MOL0     H65105   4.482   8.279   7.636 -0.1859  0.7813 -2.2274
  472MOL0     H65106   4.408   8.153   7.836  2.3606  0.9468  0.6698
  472MOL0     H65107   4.271   8.261   7.858  1.3901 -0.7008  2.8156
  472MOL0     H65108   4.560   8.359   7.869  1.8941 -1.4232  1.5117
  472MOL0     H65109   4.423   8.436   7.946  3.4712  2.4713 -1.5955
  472MOL0     H65110   4.557   8.160   8.003 -1.7956 -1.0611 -0.6024
  472MOL0     H65111   4.409   8.195   8.082  2.0524 -0.3918  3.0818
  472MOL0     H65112   4.528   8.392   8.189 -0.5771 -1.3672  0.3713
  472MOL0     H65113   4.681   8.335   8.137 -0.2736  0.0370 -0.7523
  472MOL0     H65114   4.629   8.117   8.255  1.0506 -0.7178 -0.8110
  472MOL0     H65115   4.472   8.200   8.306 -0.1218  2.5305  0.1943
  472MOL0     H65116   4.231   8.383   7.217  2.7500 -0.5331  1.9180
  472MOL0     H65117   4.233   8.534   7.010  0.3912 -0.7078 -0.2381
  472MOL0     H65118   4.269   8.887   6.751 -1.5182 -0.0274  1.7762
  472MOL0     H65119   4.340   9.047   6.578 -1.6137 -0.7628  0.5138
  472MOL0     H65120   3.918  10.344   6.965  1.2044  2.3659 -0.0377
  472MOL0     H65121   3.733  10.335   7.095  0.8216 -1.6999  0.8288
  472MOL0     H65122   3.439  10.312   7.377 -2.1637 -0.9019  0.0541
  472MOL0     H65123   3.248  10.403   7.518 -0.7823  0.5089  1.2651
  472MOL0     H65124   3.222  10.315   7.934  2.0932 -0.1008 -0.7392
  472MOL0     H65125   3.269  10.488   7.933 -0.1331 -0.2391  0.8603
  472MOL0     H65126   3.053  10.435   8.030  0.5485  0.3291  0.5294
  472MOL0     H65127   2.985  10.377   7.887  0.0748 -0.6733 -1.3406
  472MOL0     H65128   3.099  10.666   7.900 -0.8820  1.0094  0.4108
  472MOL0     H65129   2.970  10.613   7.793 -0.0294 -0.2704  0.1780
  472MOL0     H65130   2.912  10.749   8.015  2.2768  0.5230  1.5549
  472MOL0     H65131   2.965  10.606   8.101 -0.3686 -2.1032 -0.3094
  472MOL0     H65132   2.593  10.500   7.910 -1.4054  2.7303  0.1299
  472MOL0     H65133   3.450  10.352   7.873 -0.0459  1.8417 -0.7362
  472MOL0     H65134   3.778  10.303   7.731  1.4586  1.3595  1.1178
  472MOL0     H65135   3.687  10.285   7.880 -3.1985  0.4584 -0.7402
  472MOL0     H65136   3.700  10.142   7.768 -1.0753  0.2149 -4.0960
  473MOL0     O65137   5.183   2.943   9.406  0.2958  0.4708 -0.2272
  473MOL0     C65138   5.149   2.852   9.334 -0.6119  0.9129 -0.7369
  473MOL0     O65139   5.224   2.733   9.328 -0.0545  0.7511  0.7543
  473MOL0     C65140   5.345   2.722   9.393  0.3661  0.1737 -0.9012
  473MOL0     C65141   5.351   2.723   9.534 -0.0083 -0.5519 -0.2940
  473MOL0     C65142   5.473   2.714   9.604  1.4953  0.0227 -0.3225
  473MOL0     C65143   5.593   2.693   9.544  0.7017 -0.2853 -0.6792
  473MOL0     O65144   5.707   2.663   9.618 -0.2864 -0.0912  0.3265
  473MOL0     C65145   5.825   2.616   9.550 -0.4539 -0.1263 -0.8311
  473MOL0     C65146   5.929   2.571   9.653 -0.6064 -0.6736  0.3321
  473MOL0     C65147   6.056   2.507   9.610 -0.7347  0.0292  0.0154
  473MOL0     C65148   6.152   2.608   9.530  0.3358 -0.0427  0.3736
  473MOL0     C65149   6.285   2.538   9.501 -0.6647 -0.4843  0.7187
  473MOL0     C65150   6.386   2.627   9.427 -0.8081 -0.1084 -0.8098
  473MOL0     C65151   6.523   2.559   9.418 -0.3509 -0.9869 -0.4481
  473MOL0     C65152   6.620   2.590   9.529 -0.3424 -0.5930 -0.2795
  473MOL0     N65153   6.747   2.514   9.523 -0.4310 -0.5437  0.0206
  473MOL0     C65154   6.828   2.493   9.623  0.2762  0.2903 -1.2298
  473MOL0     C65155   6.908   2.390   9.586  0.0808  0.9265  0.3900
  473MOL0     C65156   7.024   2.327   9.657 -0.1138 -0.2619 -0.3868
  473MOL0     C65157   7.136   2.432   9.645  0.6371 -0.1672  0.2820
  473MOL0     C65158   7.166   2.461   9.497 -0.4793 -0.1707 -0.1193
  473MOL0     C65159   7.203   2.343   9.405 -0.0908  0.3983 -0.3526
  473MOL0     O65160   7.277   2.396   9.304 -0.7204 -0.5298 -0.2239
  473MOL0     C65161   7.402   2.439   9.334 -0.3087 -1.2768 -0.6777
  473MOL0     C65162   7.480   2.405   9.442  1.5404  0.8737 -0.3126
  473MOL0     C65163   7.616   2.422   9.446  0.7513  0.4340 -0.0175
  473MOL0     C65164   7.681   2.348   9.558  0.5607 -0.0558  0.1574
  473MOL0     C65165   7.687   2.491   9.342 -0.1646 -0.9907  0.1507
  473MOL0     C65166   7.828   2.523   9.358  0.1735  0.6771  0.3552
  473MOL0     O65167   7.902   2.482   9.464  0.1213  0.0996 -0.0696
  473MOL0     C65168   8.043   2.497   9.457  0.3240 -0.5572 -1.2651
  473MOL0     C65169   8.086   2.635   9.480 -0.3293 -0.3235  0.1627
  473MOL0     C65170   8.222   2.666   9.480  1.1345 -0.3930  0.9105
  473MOL0     C65171   8.316   2.566   9.453  1.1794 -0.4284  0.0678
  473MOL0     O65172   8.445   2.597   9.418 -0.2102  0.4130  0.8793
  473MOL0     C65173   8.547   2.521   9.487 -0.7338  0.7693  0.8224
  473MOL0     C65174   8.682   2.588   9.481  0.5601 -0.3565 -0.1973
  473MOL0     C65175   8.773   2.497   9.558  0.7812  0.1486  0.1743
  473MOL0     C65176   8.913   2.566   9.552  0.7202 -0.5549 -0.5975
  473MOL0     C65177   9.015   2.498   9.637  0.0173 -0.2627 -0.5584
  473MOL0     C65178   9.150   2.556   9.610 -0.6076 -0.2779 -0.3088
  473MOL0     C65179   9.248   2.473   9.693  0.1171  0.0943 -0.0022
  473MOL0     C65180   9.388   2.532   9.716 -0.2101  0.3407  0.2342
  473MOL0    Cl65181   9.484   2.389   9.786  0.2558  0.1573 -0.3913
  473MOL0     C65182   8.273   2.428   9.444  0.9830 -0.5941 -0.3321
  473MOL0     C65183   8.136   2.395   9.439 -0.4315  0.2893 -0.6928
  473MOL0     O65184   7.878   2.583   9.262 -0.1257  0.0532  0.2630
  473MOL0     C65185   7.606   2.550   9.240  0.0159 -0.2013 -0.2588
  473MOL0     C65186   7.472   2.525   9.242  1.4219 -0.1867  0.0188
  473MOL0     N65187   6.866   2.347   9.466 -1.2226 -0.5299  0.0135
  473MOL0     N65188   6.772   2.423   9.423 -0.6191  0.9224 -0.2072
  473MOL0     C65189   5.581   2.687   9.402 -0.9331 -0.7116 -0.3282
  473MOL0     C65190   5.462   2.708   9.327  0.1590  0.6375 -0.0951
  473MOL0     C65191   5.035   2.867   9.245  0.5831 -1.6752 -0.3267
  473MOL0     C65192   5.022   2.777   9.142 -0.5982  0.5944 -0.0631
  473MOL0     C65193   4.925   2.793   9.047  0.0846  0.3321  0.1276
  473MOL0     C65194   4.841   2.912   9.042 -0.5020  0.0311 -1.0792
  473MOL0     O65195   4.754   2.911   8.937  0.5795 -0.0593  0.9517
  473MOL0     C65196   4.655   3.020   8.917  0.4556  0.7895  0.1064
  473MOL0     C65197   4.557   2.983   8.802 -0.3572  0.3518 -0.1478
  473MOL0     C65198   4.498   2.837   8.821  0.5645  0.1119 -0.1122
  473MOL0     C65199   4.369   2.818   8.746  0.2041 -0.5235  0.0883
  473MOL0     C65200   4.390   2.841   8.607 -0.6308  0.3208 -0.2795
  473MOL0     C65201   4.424   2.861   8.491  0.3991  0.1315  0.9940
  473MOL0     C65202   4.854   3.003   9.147 -0.1154  0.6245 -0.3117
  473MOL0     C65203   4.947   2.988   9.246 -0.2823  0.1301 -0.5071
  473MOL0     C65204   4.942   3.103   9.349 -0.5331  0.6596  0.2467
  473MOL0     H65205   5.263   2.739   9.595 -0.4177  0.3061 -1.0974
  473MOL0     H65206   5.465   2.718   9.712 -1.5876  0.6524 -0.5052
  473MOL0     H65207   5.870   2.690   9.483 -1.7195  0.4644 -1.0672
  473MOL0     H65208   5.786   2.530   9.495 -2.7870  0.7475 -0.6578
  473MOL0     H65209   5.958   2.663   9.705  1.6965 -0.8082 -0.5793
  473MOL0     H65210   5.884   2.494   9.715  0.7881 -3.6922 -2.1125
  473MOL0     H65211   6.115   2.462   9.691  1.9742  0.0268 -1.8237
  473MOL0     H65212   6.039   2.421   9.544  2.7714 -0.1570 -0.8549
  473MOL0     H65213   6.098   2.632   9.438 -0.7579  0.1999  1.0688
  473MOL0     H65214   6.172   2.698   9.588  3.9624  0.6436 -1.6537
  473MOL0     H65215   6.277   2.444   9.445  0.2092 -0.8689  1.2053
  473MOL0     H65216   6.340   2.520   9.594  1.6959  1.9875 -0.0634
  473MOL0     H65217   6.349   2.638   9.325  1.1387 -1.9592 -1.7916
  473MOL0     H65218   6.393   2.724   9.478  0.2292 -0.9033  0.6340
  473MOL0     H65219   6.570   2.601   9.329  1.4480  0.1087  0.9515
  473MOL0     H65220   6.520   2.449   9.424 -1.0560 -0.9065  1.4803
  473MOL0     H65221   6.646   2.694   9.510 -0.2511 -0.8030 -1.3969
  473MOL0     H65222   6.570   2.576   9.626 -1.3438  0.3123 -0.6465
  473MOL0     H65223   6.820   2.549   9.716 -0.8542  0.7091 -1.5688
  473MOL0     H65224   7.048   2.230   9.613 -1.8578  0.8412 -4.1891
  473MOL0     H65225   6.994   2.313   9.761  0.7866  1.3945  0.1448
  473MOL0     H65226   7.108   2.526   9.695  1.3190 -0.5557  1.4449
  473MOL0     H65227   7.229   2.395   9.690  0.7278 -0.6116 -0.2688
  473MOL0     H65228   7.087   2.510   9.440  1.0419  1.0029 -1.2907
  473MOL0     H65229   7.251   2.528   9.511  0.2918 -1.2036  0.2199
  473MOL0     H65230   7.256   2.264   9.459 -0.2628  0.1813 -0.5007
  473MOL0     H65231   7.118   2.289   9.363 -1.5080  1.9646  0.3251
  473MOL0     H65232   7.433   2.350   9.523  0.4940  3.0318  0.6259
  473MOL0     H65233   7.606   2.282   9.604 -1.4221 -0.4718 -3.2474
  473MOL0     H65234   7.702   2.421   9.636  1.0228  2.2461 -1.9822
  473MOL0     H65235   7.773   2.294   9.532 -0.0736 -0.8793 -0.4660
  473MOL0     H65236   8.019   2.717   9.504  0.9307  0.0405  2.7590
  473MOL0     H65237   8.232   2.774   9.472  0.2849 -0.3522  0.2431
  473MOL0     H65238   8.518   2.514   9.592  0.7953  1.2875  1.3147
  473MOL0     H65239   8.552   2.429   9.428 -4.7159  0.5813  0.5068
  473MOL0     H65240   8.715   2.604   9.378 -2.3452 -2.3628 -1.5719
  473MOL0     H65241   8.676   2.689   9.524  0.0457 -0.0173 -1.0337
  473MOL0     H65242   8.767   2.392   9.529 -2.4925 -0.7163  3.3322
  473MOL0     H65243   8.734   2.496   9.659 -2.1103 -0.4974 -0.8618
  473MOL0     H65244   8.903   2.670   9.585  3.1562 -0.3805 -0.2061
  473MOL0     H65245   8.951   2.581   9.451 -1.3537  2.2926 -1.0808
  473MOL0     H65246   8.988   2.518   9.741 -0.5437 -0.8856 -0.5819
  473MOL0     H65247   9.012   2.391   9.616  0.1633 -0.8512  2.0718
  473MOL0     H65248   9.161   2.658   9.648  0.2252 -0.5158  0.1142
  473MOL0     H65249   9.177   2.557   9.504  1.0981  3.1109 -0.0013
  473MOL0     H65250   9.245   2.371   9.652 -2.4234  0.4385 -0.8453
  473MOL0     H65251   9.201   2.468   9.792  0.1779  1.3359  0.0977
  473MOL0     H65252   9.385   2.620   9.782 -0.9221 -0.0166  0.6916
  473MOL0     H65253   9.419   2.565   9.617  0.1750 -2.7489 -0.7682
  473MOL0     H65254   8.356   2.361   9.426  2.3896  0.4228  1.9128
  473MOL0     H65255   8.101   2.292   9.432 -0.1433  0.1243  0.1514
  473MOL0     H65256   7.644   2.606   9.155  1.0482  0.8570  0.8729
  473MOL0     H65257   7.409   2.558   9.160 -1.5377  0.2947  2.3543
  473MOL0     H65258   5.662   2.654   9.338  1.0004  1.2042  1.0022
  473MOL0     H65259   5.465   2.692   9.220 -0.5246 -2.6003  0.2572
  473MOL0     H65260   5.081   2.686   9.134 -0.6449  0.0537  3.8853
  473MOL0     H65261   4.910   2.711   8.978  0.2602 -2.4084  3.0906
  473MOL0     H65262   4.593   3.026   9.007  0.9368 -1.5388  0.6565
  473MOL0     H65263   4.701   3.117   8.893 -0.3789  1.2416  0.2864
  473MOL0     H65264   4.610   2.987   8.706  0.9258 -1.7297  0.3858
  473MOL0     H65265   4.475   3.055   8.798 -0.5926  0.0598 -0.7331
  473MOL0     H65266   4.569   2.760   8.788 -1.4494 -0.8404 -2.4994
  473MOL0     H65267   4.475   2.823   8.927 -3.3591  1.2729 -0.6602
  473MOL0     H65268   4.281   2.870   8.784  0.0111 -1.4454  0.9678
  473MOL0     H65269   4.355   2.711   8.763  0.8775 -0.2214  3.1856
  473MOL0     H65270   4.443   2.889   8.389  5.2719  0.0864  1.6438
  473MOL0     H65271   4.797   3.095   9.150  0.4651  1.0493  3.8301
  473MOL0     H65272   4.846   3.155   9.345 -1.2082 -0.6217 -1.2466
  473MOL0     H65273   4.948   3.066   9.451 -3.2804 -1.1301 -0.1332
  473MOL0     H65274   5.016   3.180   9.324 -0.6268  0.6758  0.0066
  474MOL0     O65275   4.544   6.538  10.901  0.9354  0.4189 -0.2442
  474MOL0     C65276   4.560   6.626  10.980 -0.2128 -0.2871  0.2220
  474MOL0     O65277   4.512   6.632  11.106 -0.4506 -0.0072 -0.4081
  474MOL0     C65278   4.409   6.554  11.134 -0.3575 -0.0829 -0.4074
  474MOL0     C65279   4.278   6.609  11.140  0.2892 -0.0576  0.2675
  474MOL0     C65280   4.173   6.539  11.195 -0.6885 -0.0579  1.1759
  474MOL0     C65281   4.195   6.407  11.238  0.2889  0.2186  0.4813
  474MOL0     O65282   4.080   6.335  11.269 -0.1097 -0.8688 -0.8808
  474MOL0     C65283   4.099   6.196  11.305 -0.1663 -0.7286 -0.4821
  474MOL0     C65284   4.142   6.183  11.452 -0.0247 -0.2743 -0.1433
  474MOL0     C65285   4.116   6.037  11.508  0.6908 -0.9115 -0.3645
  474MOL0     C65286   4.232   5.944  11.450  0.7211 -0.0682 -0.1224
  474MOL0     C65287   4.201   5.795  11.495  0.5592  0.8622  0.2449
  474MOL0     C65288   4.311   5.699  11.443  0.7580 -0.3454  0.4036
  474MOL0     C65289   4.286   5.552  11.471  0.2566  1.2434 -0.3889
  474MOL0     C65290   4.346   5.518  11.606 -0.2871 -0.1602  0.1230
  474MOL0     N65291   4.260   5.554  11.721  0.2010 -0.4556 -0.6103
  474MOL0     C65292   4.127   5.504  11.745 -0.1216  0.4346 -0.1318
  474MOL0     C65293   4.093   5.553  11.863  0.2370  0.2507  0.5898
  474MOL0     C65294   3.980   5.518  11.945 -1.0192  0.3798  0.0557
  474MOL0     C65295   3.858   5.448  11.865  0.3161 -0.2399 -0.2654
  474MOL0     C65296   3.872   5.296  11.849 -0.8746  0.6772  0.2162
  474MOL0     C65297   3.752   5.237  11.787  0.6741  0.4843  0.2346
  474MOL0     O65298   3.762   5.100  11.777  0.3263  0.3758 -0.0449
  474MOL0     C65299   3.824   5.047  11.671  0.4610  1.0192  0.0721
  474MOL0     C65300   3.748   5.042  11.552 -0.7504  0.8681 -0.0609
  474MOL0     C65301   3.815   4.989  11.441 -0.9898  0.2112  0.6750
  474MOL0     C65302   3.737   4.962  11.315 -0.0875 -0.5422 -0.6037
  474MOL0     C65303   3.951   4.951  11.444  0.0745 -0.3824  0.9114
  474MOL0     C65304   4.027   4.896  11.328  0.6749  0.0225 -0.2972
  474MOL0     O65305   4.033   4.946  11.210 -0.0063 -0.2107  0.1566
  474MOL0     C65306   4.099   4.887  11.102  0.3886  0.7512  0.3956
  474MOL0     C65307   4.054   4.909  10.978  0.1742 -0.0162  0.1617
  474MOL0     C65308   4.116   4.863  10.869  0.3718  0.2976  0.5492
  474MOL0     C65309   4.243   4.813  10.874 -0.1582  0.4315 -0.1792
  474MOL0     O65310   4.301   4.771  10.759 -0.1759  0.3910 -0.1227
  474MOL0     C65311   4.446   4.742  10.758  0.3490 -0.1015  0.1456
  474MOL0     C65312   4.501   4.749  10.618 -0.7938  0.2783  0.7134
  474MOL0     C65313   4.646   4.746  10.611 -0.0258  1.3768 -0.0407
  474MOL0     C65314   4.691   4.757  10.464  0.3624  0.3008  0.1145
  474MOL0     C65315   4.843   4.751  10.466  0.5809 -0.8527  0.7317
  474MOL0     C65316   4.887   4.775  10.323  0.2421  0.2155 -0.2434
  474MOL0     C65317   5.038   4.721  10.303  0.2488  0.0490  0.2812
  474MOL0     C65318   5.038   4.606  10.203  0.0424  0.3458  1.4220
  474MOL0    Cl65319   4.983   4.660  10.046  0.2336  0.4077 -0.2809
  474MOL0     C65320   4.288   4.782  11.002 -0.2645  0.8665  1.2126
  474MOL0     C65321   4.218   4.820  11.111  0.2756  1.0154 -0.2068
  474MOL0     O65322   4.081   4.794  11.362  0.2485 -0.1187 -0.1595
  474MOL0     C65323   4.017   4.964  11.561  0.5792  0.5420  0.2103
  474MOL0     C65324   3.953   5.002  11.677  0.7240 -0.1899  0.8743
  474MOL0     N65325   4.191   5.636  11.901  0.1669 -1.4670 -0.0737
  474MOL0     N65326   4.286   5.641  11.822 -0.3180 -0.7583 -0.2646
  474MOL0     C65327   4.326   6.354  11.233 -0.2536 -0.3254 -0.7184
  474MOL0     C65328   4.436   6.424  11.177 -0.0813 -0.1290  0.6780
  474MOL0     C65329   4.652   6.734  10.939  0.1767  1.4232 -0.7732
  474MOL0     C65330   4.727   6.794  11.044 -0.7069  0.7065 -0.3543
  474MOL0     C65331   4.806   6.906  11.015 -0.9100 -0.6307  0.6702
  474MOL0     C65332   4.828   6.947  10.887  0.2914 -0.9616 -0.8444
  474MOL0     O65333   4.915   7.061  10.857  0.6689 -0.3869 -0.7804
  474MOL0     C65334   4.992   7.122  10.963  0.6878  0.8922 -0.2567
  474MOL0     C65335   5.115   7.176  10.898 -0.3521 -0.2652  0.0619
  474MOL0     C65336   5.207   7.068  10.849 -0.6040  0.6680  0.2085
  474MOL0     C65337   5.318   7.113  10.740 -0.2650  0.0937 -0.1471
  474MOL0     C65338   5.428   7.187  10.803 -0.5701 -0.5459 -0.5428
  474MOL0     C65339   5.509   7.244  10.878  0.5572 -0.0032  0.7800
  474MOL0     C65340   4.763   6.881  10.779  0.3973  0.1546 -0.4103
  474MOL0     C65341   4.670   6.782  10.808 -0.5924 -0.8453  0.7173
  474MOL0     C65342   4.597   6.711  10.685 -0.7642 -0.6615  1.0344
  474MOL0     H65343   4.258   6.713  11.116 -0.5079 -0.6640 -1.9713
  474MOL0     H65344   4.078   6.589  11.183 -0.9527 -0.3248  2.0518
  474MOL0     H65345   4.169   6.145  11.239  0.3851  2.6192 -2.7338
  474MOL0     H65346   4.001   6.150  11.291 -0.9165  0.8759 -0.7447
  474MOL0     H65347   4.238   6.220  11.487 -0.5252 -0.1640  1.1808
  474MOL0     H65348   4.071   6.254  11.495 -0.8643 -0.1259 -1.6810
  474MOL0     H65349   4.119   6.030  11.617 -0.0958 -0.3819 -0.3043
  474MOL0     H65350   4.022   6.000  11.468  0.6235  0.5860 -1.6724
  474MOL0     H65351   4.225   5.960  11.342 -0.1669  1.7833  0.1663
  474MOL0     H65352   4.330   5.974  11.489  0.5246  0.6276 -0.1485
  474MOL0     H65353   4.109   5.759  11.447  1.0748  0.9120 -0.8113
  474MOL0     H65354   4.189   5.796  11.604 -1.6405  0.5984  0.0645
  474MOL0     H65355   4.322   5.708  11.335  4.5500  0.2299  0.7031
  474MOL0     H65356   4.409   5.737  11.473  0.8017 -1.6187  1.9975
  474MOL0     H65357   4.333   5.489  11.395  5.9808  1.3994  2.5359
  474MOL0     H65358   4.177   5.536  11.469  0.5804 -1.5014 -0.1973
  474MOL0     H65359   4.373   5.412  11.598  3.4631  0.7317 -1.4411
  474MOL0     H65360   4.444   5.566  11.614 -0.3245 -0.3777  2.5054
  474MOL0     H65361   4.070   5.437  11.681 -0.2965  0.6907 -0.2476
  474MOL0     H65362   3.947   5.615  11.983  2.4414  1.9675 -0.6702
  474MOL0     H65363   4.009   5.451  12.026 -0.3775  0.1853 -0.3322
  474MOL0     H65364   3.770   5.472  11.925  0.5156 -1.9833  0.7886
  474MOL0     H65365   3.840   5.494  11.767  1.5829  0.3338 -0.2428
  474MOL0     H65366   3.960   5.282  11.785 -1.3827  1.8941 -0.8000
  474MOL0     H65367   3.888   5.240  11.942  0.5051 -1.5599 -1.2549
  474MOL0     H65368   3.665   5.282  11.836  0.4165 -2.0616  2.3290
  474MOL0     H65369   3.745   5.264  11.682  0.1122 -0.8886 -0.1036
  474MOL0     H65370   3.641   5.062  11.552 -0.7861  0.6824 -0.0313
  474MOL0     H65371   3.764   5.034  11.236 -2.5392 -0.3490 -1.3577
  474MOL0     H65372   3.633   4.992  11.325  0.1478  0.1961 -0.2999
  474MOL0     H65373   3.754   4.860  11.280 -1.6953 -3.1134  5.0868
  474MOL0     H65374   3.966   4.973  10.969 -1.8297 -2.8237 -2.6416
  474MOL0     H65375   4.074   4.900  10.776 -1.0295 -0.4634  0.8497
  474MOL0     H65376   4.497   4.818  10.819 -2.0873  0.1421  2.0582
  474MOL0     H65377   4.455   4.640  10.795  1.0235 -0.3602 -0.7063
  474MOL0     H65378   4.457   4.667  10.560 -3.1996  2.2327 -0.3861
  474MOL0     H65379   4.465   4.841  10.571  0.7151  0.7808  0.4838
  474MOL0     H65380   4.692   4.653  10.646  1.9404  1.6263 -1.7855
  474MOL0     H65381   4.687   4.816  10.685  3.8548 -2.3664  1.7254
  474MOL0     H65382   4.657   4.848  10.414  2.4316 -0.3727 -2.7325
  474MOL0     H65383   4.640   4.684  10.400 -3.3045  2.8716 -0.1945
  474MOL0     H65384   4.875   4.833  10.531 -0.2723  0.7956 -0.8610
  474MOL0     H65385   4.892   4.663  10.510  2.0634 -0.1648  0.5031
  474MOL0     H65386   4.876   4.879  10.289  1.6828  1.0838  1.7125
  474MOL0     H65387   4.826   4.714  10.257  0.6247 -0.7130  0.2475
  474MOL0     H65388   5.075   4.683  10.399  1.2547 -2.1496 -0.8918
  474MOL0     H65389   5.114   4.792  10.269  1.5774 -1.8830 -1.0206
  474MOL0     H65390   4.975   4.522  10.233  0.9567 -1.5381 -1.5533
  474MOL0     H65391   5.139   4.565  10.202 -0.7461 -2.3054 -4.0984
  474MOL0     H65392   4.385   4.734  11.008 -0.0401  1.2213  0.5607
  474MOL0     H65393   4.264   4.806  11.208  0.4657 -1.0433 -0.5478
  474MOL0     H65394   4.117   4.926  11.578 -0.8535 -3.2965  1.0612
  474MOL0     H65395   4.004   5.015  11.771  2.5869 -0.7438 -0.0019
  474MOL0     H65396   4.349   6.254  11.265  2.4273  0.2515 -0.6426
  474MOL0     H65397   4.532   6.374  11.178 -0.1373 -0.4217 -1.9218
  474MOL0     H65398   4.700   6.770  11.146  0.5633  2.0965  0.3546
  474MOL0     H65399   4.860   6.958  11.094 -0.7619  1.4970 -0.7533
  474MOL0     H65400   4.937   7.196  11.023  2.3123  0.2543  2.2062
  474MOL0     H65401   5.017   7.052  11.044 -2.7672  1.3216  1.3936
  474MOL0     H65402   5.165   7.243  10.969  1.7039  1.0546 -2.4781
  474MOL0     H65403   5.091   7.247  10.819 -0.4333  1.0295  1.2165
  474MOL0     H65404   5.260   7.033  10.939 -2.0980 -0.7744  0.5822
  474MOL0     H65405   5.148   6.987  10.805  0.0554 -1.2226  2.5674
  474MOL0     H65406   5.282   7.182  10.664  2.4760  0.0758 -1.5902
  474MOL0     H65407   5.359   7.027  10.687  0.8499  1.1365 -1.0594
  474MOL0     H65408   5.567   7.312  10.937  2.7695 -0.3555 -0.8692
  474MOL0     H65409   4.790   6.893  10.675  0.2382 -0.6764 -0.5613
  474MOL0     H65410   4.617   6.604  10.673  0.9814 -0.2372 -0.1265
  474MOL0     H65411   4.490   6.734  10.682 -0.4215  1.1099  1.1391
  474MOL0     H65412   4.631   6.759  10.593 -0.2873  0.5126  1.8029
  475MOL0     O65413   8.079   0.608   5.643 -0.2642  0.9564  0.2351
  475MOL0     C65414   8.176   0.550   5.679 -0.3721  0.3919  0.7453
  475MOL0     O65415   8.313   0.598   5.681  0.6630  0.2875 -0.1013
  475MOL0     C65416   8.372   0.686   5.588 -0.0011  0.2695 -0.7748
  475MOL0     C65417   8.296   0.794   5.530  0.5905 -0.7069  0.7627
  475MOL0     C65418   8.350   0.889   5.439  0.4154  0.6863  0.3692
  475MOL0     C65419   8.487   0.881   5.411  0.8716  0.2080  0.3412
  475MOL0     O65420   8.559   0.974   5.341 -0.1582  0.1007 -0.0359
  475MOL0     C65421   8.494   1.065   5.249 -0.2422  0.0600  0.9746
  475MOL0     C65422   8.602   1.145   5.169 -0.5902  0.3271  0.3261
  475MOL0     C65423   8.552   1.232   5.049 -1.0599 -0.0657  0.5077
  475MOL0     C65424   8.481   1.153   4.936 -0.3967 -0.5514 -0.2352
  475MOL0     C65425   8.434   1.260   4.835  0.3785  0.0731  0.6807
  475MOL0     C65426   8.326   1.360   4.882  0.0471 -0.6118  0.6069
  475MOL0     C65427   8.281   1.441   4.760 -0.3006 -0.6249  0.8471
  475MOL0     C65428   8.214   1.573   4.808 -0.2903  0.1081  0.1745
  475MOL0     N65429   8.304   1.671   4.864  0.4767 -0.6726  0.0827
  475MOL0     C65430   8.318   1.797   4.823 -1.0064 -0.4592  0.0726
  475MOL0     C65431   8.380   1.869   4.925 -0.2776 -0.1434 -0.9053
  475MOL0     C65432   8.441   1.996   4.907 -0.4080 -0.5337  0.0411
  475MOL0     C65433   8.586   2.007   4.955 -1.2286  0.3291 -0.8971
  475MOL0     C65434   8.643   2.156   4.962  1.1525 -0.0887 -0.3634
  475MOL0     C65435   8.565   2.262   4.901  0.1665  0.1114 -0.2266
  475MOL0     O65436   8.647   2.385   4.877 -0.1348 -0.3505  0.2949
  475MOL0     C65437   8.642   2.475   4.979 -0.4570  0.1148 -0.4951
  475MOL0     C65438   8.523   2.527   5.037  0.7393 -1.0494 -0.1452
  475MOL0     C65439   8.525   2.622   5.140 -0.6146 -0.0112  0.2113
  475MOL0     C65440   8.395   2.672   5.196 -1.1378 -0.7261  0.1942
  475MOL0     C65441   8.652   2.676   5.182 -0.0840  0.3609  0.7411
  475MOL0     C65442   8.672   2.785   5.292  1.0617 -0.2897  0.8026
  475MOL0     O65443   8.566   2.807   5.379  1.2395 -0.0578  0.8374
  475MOL0     C65444   8.521   2.931   5.405 -0.7675  0.0079 -0.1222
  475MOL0     C65445   8.581   3.054   5.371  0.7139  0.4140 -0.1160
  475MOL0     C65446   8.537   3.175   5.428 -0.3161 -0.1936 -0.7834
  475MOL0     C65447   8.414   3.183   5.504 -0.0612  0.0753  0.2795
  475MOL0     O65448   8.353   3.297   5.546  0.0336  0.2790  0.3733
  475MOL0     C65449   8.430   3.422   5.557 -0.0818  0.2321 -0.4528
  475MOL0     C65450   8.360   3.500   5.664 -0.0867  0.1766  0.3505
  475MOL0     C65451   8.441   3.621   5.703 -0.7452 -0.0247  0.0316
  475MOL0     C65452   8.595   3.594   5.724 -0.4216  0.3803  0.5882
  475MOL0     C65453   8.648   3.700   5.821  0.2952 -1.0361 -0.3230
  475MOL0     C65454   8.791   3.680   5.865 -0.3855 -0.7461  0.1238
  475MOL0     C65455   8.815   3.799   5.960  0.1769 -0.1250  0.0368
  475MOL0     C65456   8.970   3.817   5.994 -0.0832  0.2467  0.1406
  475MOL0    Cl65457   9.026   3.693   6.113 -0.0872  0.1036 -0.0486
  475MOL0     C65458   8.345   3.064   5.515 -1.1236  0.1563 -0.1678
  475MOL0     C65459   8.401   2.944   5.473  0.6399 -0.7784  0.1864
  475MOL0     O65460   8.770   2.856   5.283 -0.5848 -0.0907  0.7922
  475MOL0     C65461   8.772   2.632   5.124  0.8291  0.0103  0.1896
  475MOL0     C65462   8.765   2.531   5.023  1.7806 -0.2579 -0.0416
  475MOL0     N65463   8.397   1.778   5.032 -0.3425  0.5151 -0.6799
  475MOL0     N65464   8.354   1.661   4.983 -0.2599 -0.3007 -0.3618
  475MOL0     C65465   8.562   0.778   5.471  1.2819  0.1197  0.0839
  475MOL0     C65466   8.502   0.682   5.566 -0.2780  0.2830 -0.4480
  475MOL0     C65467   8.167   0.411   5.730 -0.8138  0.1432 -0.5124
  475MOL0     C65468   8.291   0.339   5.761  0.5146 -0.6211  1.0646
  475MOL0     C65469   8.283   0.209   5.807 -0.2142 -0.1938  0.1971
  475MOL0     C65470   8.165   0.143   5.831 -0.1500  0.3439  0.4120
  475MOL0     O65471   8.156   0.022   5.892  0.2482  0.9410 -0.3055
  475MOL0     C65472   8.122   0.025   6.027 -0.2935 -0.0028  0.5621
  475MOL0     C65473   8.162  -0.105   6.105  0.6054  0.4910 -0.1070
  475MOL0     C65474   8.318  -0.121   6.112 -0.3340 -0.7198 -0.1579
  475MOL0     C65475   8.351  -0.245   6.194  0.0563 -0.0195 -0.0808
  475MOL0     C65476   8.486  -0.235   6.248 -0.5257  0.0518  0.6573
  475MOL0     C65477   8.607  -0.225   6.276  1.0590 -0.7642  0.0927
  475MOL0     C65478   8.043   0.204   5.795 -0.8885 -0.6570 -0.4499
  475MOL0     C65479   8.043   0.342   5.756  0.3797  0.1994  0.3123
  475MOL0     C65480   7.911   0.404   5.722 -0.0724  0.3937 -0.4642
  475MOL0     H65481   8.190   0.803   5.550  0.0577  0.2838 -1.9774
  475MOL0     H65482   8.294   0.974   5.400 -2.7288 -2.7393 -3.6483
  475MOL0     H65483   8.433   1.138   5.304 -0.9930 -0.8893  1.4479
  475MOL0     H65484   8.425   1.021   5.177 -1.5788  1.0941  1.5760
  475MOL0     H65485   8.644   1.210   5.246 -1.5602 -1.1120  2.1610
  475MOL0     H65486   8.680   1.074   5.140 -1.4188 -2.0073  3.2860
  475MOL0     H65487   8.478   1.297   5.097  0.8032 -0.4545  4.2797
  475MOL0     H65488   8.629   1.298   5.008  1.6761 -1.9782  2.2431
  475MOL0     H65489   8.554   1.082   4.895  0.9209  1.4881 -1.6023
  475MOL0     H65490   8.398   1.097   4.981 -0.7882 -1.1754 -1.6725
  475MOL0     H65491   8.385   1.209   4.751  3.4368 -1.1857 -0.4790
  475MOL0     H65492   8.519   1.323   4.810  0.8367 -0.6985  0.2509
  475MOL0     H65493   8.237   1.310   4.921 -0.8791 -0.4051 -1.1540
  475MOL0     H65494   8.366   1.419   4.965 -2.9131 -0.2527  1.8975
  475MOL0     H65495   8.210   1.383   4.699  1.4962 -2.6708  0.5810
  475MOL0     H65496   8.367   1.466   4.697  0.8016 -1.5652  1.9420
  475MOL0     H65497   8.163   1.630   4.730  2.5205  1.7399 -0.6161
  475MOL0     H65498   8.146   1.552   4.891  1.6999 -0.9604  1.6240
  475MOL0     H65499   8.294   1.819   4.719  0.8607 -0.9069 -0.4916
  475MOL0     H65500   8.382   2.065   4.967 -1.9683 -1.4963 -0.3127
  475MOL0     H65501   8.435   2.017   4.800  1.7661 -0.7742 -0.1792
  475MOL0     H65502   8.583   1.967   5.056  2.8449 -0.1467 -0.8304
  475MOL0     H65503   8.660   1.951   4.897  0.8601 -0.0163  1.9506
  475MOL0     H65504   8.649   2.180   5.069  0.0700  0.1083 -0.3354
  475MOL0     H65505   8.743   2.156   4.918  1.0683 -2.1084 -0.6134
  475MOL0     H65506   8.529   2.224   4.805 -0.0604 -0.3670  0.0444
  475MOL0     H65507   8.478   2.279   4.966 -0.8991  0.3802 -1.6628
  475MOL0     H65508   8.423   2.499   5.006 -0.5501  0.5696  2.1672
  475MOL0     H65509   8.310   2.641   5.135 -0.4317  0.4962 -1.4924
  475MOL0     H65510   8.392   2.781   5.183 -2.1723 -0.3449  2.8546
  475MOL0     H65511   8.393   2.631   5.298  2.9126 -5.0794 -1.1309
  475MOL0     H65512   8.655   3.059   5.291  1.0100 -0.9480  0.0453
  475MOL0     H65513   8.598   3.264   5.413  1.2828 -0.8983  1.0849
  475MOL0     H65514   8.524   3.392   5.604 -0.7474 -0.3229  0.5461
  475MOL0     H65515   8.463   3.471   5.465  3.0196 -2.8644 -1.2179
  475MOL0     H65516   8.258   3.527   5.634 -2.1284 -2.0163  4.4197
  475MOL0     H65517   8.346   3.433   5.749 -0.2984  0.2997  0.4160
  475MOL0     H65518   8.394   3.652   5.797 -2.7850 -0.1259 -0.9030
  475MOL0     H65519   8.424   3.701   5.630 -2.0278 -0.9739 -0.7575
  475MOL0     H65520   8.643   3.606   5.627  1.3499  0.1165  1.3933
  475MOL0     H65521   8.630   3.502   5.772  0.8137  0.4612 -0.1221
  475MOL0     H65522   8.649   3.793   5.762  1.0493  0.3103  1.6867
  475MOL0     H65523   8.570   3.700   5.898  0.2985 -0.8928 -0.3192
  475MOL0     H65524   8.850   3.690   5.773  0.3787  1.6423  0.8081
  475MOL0     H65525   8.809   3.588   5.921 -0.5980 -2.0935 -1.8813
  475MOL0     H65526   8.759   3.802   6.054  1.2854  0.4992  0.6952
  475MOL0     H65527   8.773   3.887   5.911 -2.7654  1.1569  4.2989
  475MOL0     H65528   8.992   3.917   6.032 -0.5743  1.1140 -1.6986
  475MOL0     H65529   9.031   3.808   5.903  2.3496  3.3478  1.2571
  475MOL0     H65530   8.242   3.066   5.549 -0.4887  1.8387  1.8805
  475MOL0     H65531   8.360   2.849   5.504  2.8019 -1.1576  2.1566
  475MOL0     H65532   8.861   2.689   5.151  0.6717  0.2753  0.1449
  475MOL0     H65533   8.851   2.507   4.961  2.3623  0.6338  0.4038
  475MOL0     H65534   8.667   0.771   5.441  0.4469 -1.0628 -2.9518
  475MOL0     H65535   8.570   0.618   5.622 -1.7066 -0.1431  0.8569
  475MOL0     H65536   8.384   0.395   5.757  2.1215 -3.1828 -0.3856
  475MOL0     H65537   8.380   0.176   5.842 -0.8367 -0.2566  1.9581
  475MOL0     H65538   8.155   0.117   6.075 -1.2436 -0.5309  2.3098
  475MOL0     H65539   8.013   0.028   6.035 -0.2822  1.6339  0.3610
  475MOL0     H65540   8.106  -0.188   6.062 -0.2452  1.0111 -0.0256
  475MOL0     H65541   8.123  -0.084   6.205 -0.8460 -3.5415  0.3583
  475MOL0     H65542   8.349  -0.141   6.009 -0.3933  1.4500 -0.6423
  475MOL0     H65543   8.368  -0.035   6.156  2.1431 -2.4472  0.6593
  475MOL0     H65544   8.333  -0.340   6.143 -4.2180 -0.9174  2.5883
  475MOL0     H65545   8.289  -0.254   6.284  0.1501 -0.6706 -0.0767
  475MOL0     H65546   8.701  -0.204   6.324  2.8603 -0.8322 -3.1638
  475MOL0     H65547   7.942   0.177   5.825 -0.7116  0.6016  1.4840
  475MOL0     H65548   7.829   0.374   5.789  1.3864 -3.6028 -0.1936
  475MOL0     H65549   7.912   0.512   5.739 -1.6199  0.8789 -2.9230
  475MOL0     H65550   7.889   0.394   5.616  2.0458  1.1161 -1.0207
  476MOL0     O65551   0.215   7.460  10.224  0.9903 -0.4014 -0.1320
  476MOL0     C65552   0.243   7.364  10.300  0.4733 -0.8746 -0.3022
  476MOL0     O65553   0.159   7.262  10.331 -0.6835  0.1824  0.8178
  476MOL0     C65554   0.032   7.270  10.281  0.1858 -0.3195 -0.7160
  476MOL0     C65555  -0.009   7.206  10.172  0.1167 -0.4810  0.9656
  476MOL0     C65556  -0.134   7.232  10.127  0.0818  0.7298 -0.3783
  476MOL0     C65557  -0.233   7.286  10.213  0.6946 -0.1609  0.3335
  476MOL0     O65558  -0.359   7.321  10.180  0.4817  0.1615  0.2321
  476MOL0     C65559  -0.402   7.270  10.044 -0.3507 -0.4812 -0.2825
  476MOL0     C65560  -0.542   7.259  10.027  1.0741  0.0967  0.0062
  476MOL0     C65561  -0.607   7.394  10.003 -0.6455 -0.0856  0.3361
  476MOL0     C65562  -0.758   7.391   9.981 -0.6931 -0.3726 -0.6145
  476MOL0     C65563  -0.790   7.280   9.875  0.1853  0.1324 -0.6189
  476MOL0     C65564  -0.919   7.287   9.792  0.8605 -0.0259 -0.1871
  476MOL0     C65565  -1.030   7.224   9.876 -0.8493 -0.0848  0.3756
  476MOL0     C65566  -1.168   7.220   9.800  0.3312  0.8044  0.5178
  476MOL0     N65567  -1.275   7.167   9.883  0.4851  0.2143 -0.0209
  476MOL0     C65568  -1.297   7.030   9.912  0.4065 -0.0624  0.3410
  476MOL0     C65569  -1.382   7.035  10.018  0.1020  0.3618 -0.3004
  476MOL0     C65570  -1.413   6.912  10.098  0.2304 -1.2156 -0.1797
  476MOL0     C65571  -1.560   6.913  10.146 -0.5454  0.5228  0.1922
  476MOL0     C65572  -1.674   6.928  10.038  0.0621 -0.7321  0.6625
  476MOL0     C65573  -1.806   6.956  10.092 -0.7506  0.2459  0.1319
  476MOL0     O65574  -1.912   6.955   9.999 -0.6329 -0.0454 -0.7111
  476MOL0     C65575  -1.912   7.058   9.910  0.2577  0.0586 -0.6968
  476MOL0     C65576  -1.828   7.174   9.894 -0.3609 -0.6900 -0.2313
  476MOL0     C65577  -1.847   7.276   9.797  1.1799  0.3538 -0.0688
  476MOL0     C65578  -1.753   7.397   9.797 -0.3036 -0.7250  0.0951
  476MOL0     C65579  -1.962   7.261   9.709  0.1430 -0.1097  0.2584
  476MOL0     C65580  -2.008   7.367   9.609 -0.1522 -0.1937  0.8067
  476MOL0     O65581  -1.936   7.481   9.607  0.2068  1.0544 -0.4269
  476MOL0     C65582  -1.940   7.597   9.528  0.0691  0.2125  0.0236
  476MOL0     C65583  -2.031   7.621   9.422 -0.3249 -0.3599 -0.1648
  476MOL0     C65584  -2.024   7.747   9.351 -0.1832  0.9339  0.0105
  476MOL0     C65585  -1.939   7.850   9.385  0.6153 -1.2455 -0.3656
  476MOL0     O65586  -1.939   7.974   9.325  0.0292 -0.2695  0.1726
  476MOL0     C65587  -1.966   7.970   9.181  0.0931 -0.3715  0.2473
  476MOL0     C65588  -1.935   8.104   9.110 -0.0708 -0.5226 -0.3762
  476MOL0     C65589  -1.786   8.141   9.143  0.9601  0.5037 -0.0013
  476MOL0     C65590  -1.682   8.045   9.086  0.1284  0.2729  0.4028
  476MOL0     C65591  -1.589   7.968   9.175  0.6253 -0.2368 -0.7652
  476MOL0     C65592  -1.488   8.066   9.239 -0.0045  0.6584 -0.3630
  476MOL0     C65593  -1.417   8.003   9.370 -0.1660 -0.1040  0.6187
  476MOL0     C65594  -1.510   7.995   9.482  0.9293 -0.6380 -0.4935
  476MOL0    Cl65595  -1.596   8.153   9.517 -0.1082 -0.1399  0.1668
  476MOL0     C65596  -1.864   7.831   9.501  0.3035  0.2120 -0.0651
  476MOL0     C65597  -1.869   7.709   9.574  0.6092  0.6254 -0.4525
  476MOL0     O65598  -2.114   7.346   9.537 -0.7287 -0.3051 -0.6014
  476MOL0     C65599  -2.049   7.148   9.721  0.6643 -1.1148  0.7253
  476MOL0     C65600  -2.023   7.056   9.824 -0.7028  0.6111  0.6598
  476MOL0     N65601  -1.418   7.163  10.044 -0.3541 -0.6291 -1.0244
  476MOL0     N65602  -1.344   7.243   9.970 -0.5036 -0.6928 -0.0553
  476MOL0     C65603  -0.194   7.330  10.339 -1.1337 -0.5445  0.5914
  476MOL0     C65604  -0.057   7.323  10.377  0.1404  0.7468 -0.6916
  476MOL0     C65605   0.387   7.358  10.359 -0.0251 -0.7496 -0.1031
  476MOL0     C65606   0.433   7.233  10.401  0.0018  0.2889  0.0994
  476MOL0     C65607   0.571   7.218  10.441  0.6058 -0.8650  1.2420
  476MOL0     C65608   0.663   7.318  10.436  0.5455  0.1716  0.0993
  476MOL0     O65609   0.785   7.293  10.489  0.2076 -0.0010  0.4039
  476MOL0     C65610   0.874   7.404  10.511 -0.0789 -0.5258 -0.3838
  476MOL0     C65611   0.959   7.442  10.393  0.5653 -0.4677  0.6681
  476MOL0     C65612   1.084   7.347  10.384  0.2950  0.0106  0.1814
  476MOL0     C65613   1.171   7.396  10.269 -0.2784  0.4436  0.1757
  476MOL0     C65614   1.219   7.525  10.285  0.8975 -0.7412 -0.5495
  476MOL0     C65615   1.276   7.624  10.318 -0.2493  0.2917  0.3760
  476MOL0     C65616   0.613   7.443  10.396  0.5730  0.4700 -0.0875
  476MOL0     C65617   0.474   7.464  10.361  0.0243 -0.3505 -0.8491
  476MOL0     C65618   0.434   7.609  10.329 -0.4059  0.9065  0.3299
  476MOL0     H65619   0.059   7.157  10.102  0.6141 -0.3815  1.3756
  476MOL0     H65620  -0.153   7.204  10.024  0.0152 -5.7467  0.9919
  476MOL0     H65621  -0.374   7.166  10.027 -1.0970 -0.6633 -0.4671
  476MOL0     H65622  -0.346   7.332   9.973 -2.1928  1.5349 -0.1173
  476MOL0     H65623  -0.559   7.196   9.939 -2.8738 -2.2224  2.1745
  476MOL0     H65624  -0.593   7.202  10.104 -0.3516 -1.0169 -1.6835
  476MOL0     H65625  -0.581   7.451  10.093  0.3485  2.2991 -1.3384
  476MOL0     H65626  -0.571   7.441   9.910 -1.9991 -0.5836 -0.4544
  476MOL0     H65627  -0.811   7.359  10.071 -1.0315 -3.6209 -1.8116
  476MOL0     H65628  -0.769   7.497   9.959 -1.5499 -0.0527  1.2272
  476MOL0     H65629  -0.779   7.179   9.916  0.5889 -0.7333 -2.7385
  476MOL0     H65630  -0.714   7.278   9.796 -2.0131  0.7956 -2.8928
  476MOL0     H65631  -0.932   7.394   9.773  4.7567  0.8948  1.3228
  476MOL0     H65632  -0.911   7.242   9.692 -1.8791 -2.8385  0.7047
  476MOL0     H65633  -1.034   7.274   9.973 -1.2301  0.1299  0.2519
  476MOL0     H65634  -1.004   7.121   9.900 -0.8402 -0.0072  0.7018
  476MOL0     H65635  -1.191   7.325   9.779 -0.7452  0.6467  0.8809
  476MOL0     H65636  -1.162   7.168   9.705  0.2229 -1.5261  1.7217
  476MOL0     H65637  -1.257   6.943   9.862 -0.0336 -1.6724  2.6526
  476MOL0     H65638  -1.353   6.916  10.190 -0.6751  1.1276  0.3852
  476MOL0     H65639  -1.379   6.822  10.046 -0.7207 -2.1303  0.7434
  476MOL0     H65640  -1.577   6.819  10.199  0.5186 -0.7237 -1.5752
  476MOL0     H65641  -1.565   6.993  10.221  2.6634  0.4900  0.6027
  476MOL0     H65642  -1.642   7.005   9.967  2.2306 -0.5297  1.7857
  476MOL0     H65643  -1.679   6.843   9.969 -3.3164 -1.2933  1.3994
  476MOL0     H65644  -1.821   6.880  10.169  0.7891 -1.1622 -0.8998
  476MOL0     H65645  -1.796   7.057  10.133 -0.5964  0.6755 -0.9360
  476MOL0     H65646  -1.742   7.198   9.956 -0.0466  0.2139 -0.9883
  476MOL0     H65647  -1.810   7.483   9.836 -1.7788 -0.9642 -1.3910
  476MOL0     H65648  -1.725   7.415   9.692 -1.4135 -0.3474 -0.1579
  476MOL0     H65649  -1.656   7.384   9.845  0.2579 -2.6585 -1.4196
  476MOL0     H65650  -2.110   7.548   9.406  0.5361 -0.8518 -2.6341
  476MOL0     H65651  -2.091   7.762   9.267  1.1743  1.9027 -0.9319
  476MOL0     H65652  -1.902   7.893   9.137 -0.5966  0.6696 -2.8049
  476MOL0     H65653  -2.072   7.943   9.172 -0.0973  0.2589  0.5552
  476MOL0     H65654  -1.948   8.095   9.002 -4.8678  4.8191 -0.6797
  476MOL0     H65655  -2.005   8.182   9.139 -0.5851 -1.2989  0.5333
  476MOL0     H65656  -1.785   8.145   9.252  3.0389 -0.6745  0.0694
  476MOL0     H65657  -1.759   8.238   9.100  2.0145 -0.7365 -2.3386
  476MOL0     H65658  -1.610   8.102   9.027  3.1530 -0.1253  3.3856
  476MOL0     H65659  -1.743   7.978   9.024 -0.9966  0.6950  1.0351
  476MOL0     H65660  -1.653   7.926   9.253 -0.0450  3.5894  0.9544
  476MOL0     H65661  -1.553   7.884   9.114 -0.2046  1.7036 -4.1801
  476MOL0     H65662  -1.544   8.157   9.266 -0.6321  0.6806 -1.6180
  476MOL0     H65663  -1.416   8.090   9.160 -1.2208  1.3768 -1.2984
  476MOL0     H65664  -1.340   8.074   9.399 -0.7843  0.0094  2.0532
  476MOL0     H65665  -1.381   7.903   9.343 -1.3063 -0.2290 -0.5370
  476MOL0     H65666  -1.445   7.969   9.566  2.2157  1.9249 -0.6114
  476MOL0     H65667  -1.585   7.916   9.470  0.0612  0.1869 -0.6344
  476MOL0     H65668  -1.800   7.914   9.530 -3.0242  3.5837 -1.5287
  476MOL0     H65669  -1.818   7.694   9.668 -1.2117 -0.8871  0.3436
  476MOL0     H65670  -2.139   7.143   9.661  1.7909  0.8034 -1.2430
  476MOL0     H65671  -2.095   6.976   9.836 -0.1426  0.1629  1.0660
  476MOL0     H65672  -0.278   7.372  10.395 -1.2199  0.3980 -0.2230
  476MOL0     H65673  -0.019   7.365  10.469 -1.7990 -1.0275  1.0414
  476MOL0     H65674   0.375   7.142  10.406  2.7336 -1.5111  1.6626
  476MOL0     H65675   0.601   7.116  10.463  0.8314 -0.9432  0.6014
  476MOL0     H65676   0.817   7.492  10.544  2.3903  2.7954 -4.0684
  476MOL0     H65677   0.936   7.380  10.598 -1.7632 -2.7524  0.3066
  476MOL0     H65678   0.995   7.545  10.403  1.5701 -0.7865  0.4678
  476MOL0     H65679   0.901   7.436  10.301 -0.8516  1.0832  1.4130
  476MOL0     H65680   1.151   7.354  10.470 -0.2688  3.1476  0.4748
  476MOL0     H65681   1.047   7.244  10.373  1.2447 -0.2997 -0.2521
  476MOL0     H65682   1.117   7.375  10.176  2.9522 -3.2190 -1.1392
  476MOL0     H65683   1.260   7.335  10.252  2.4143  4.3875 -1.6751
  476MOL0     H65684   1.341   7.703  10.351 -2.2393  0.4462  4.6065
  476MOL0     H65685   0.669   7.536  10.391 -1.8347  1.9940 -0.1111
  476MOL0     H65686   0.503   7.683  10.370  1.0553  1.2162 -2.4513
  476MOL0     H65687   0.425   7.605  10.220  0.2854 -0.3280  0.2974
  476MOL0     H65688   0.340   7.650  10.366 -0.3838  2.0700 -0.8340
  477MOL0     O65689   0.781   9.623   1.997  0.1872 -0.0390  0.3915
  477MOL0     C65690   0.894   9.617   2.031 -0.6993 -0.8660  0.4572
  477MOL0     O65691   0.936   9.625   2.155 -0.2362 -0.9128  0.1791
  477MOL0     C65692   0.844   9.666   2.256  0.6668 -0.0504  0.3397
  477MOL0     C65693   0.816   9.579   2.358  0.1171  0.2624 -0.6872
  477MOL0     C65694   0.710   9.609   2.445  0.8437 -0.9134 -0.6031
  477MOL0     C65695   0.633   9.727   2.438  0.0822  0.6342  0.4289
  477MOL0     O65696   0.524   9.763   2.505  0.2131  0.2716  0.0400
  477MOL0     C65697   0.506   9.686   2.628  0.6833  0.8695 -0.0965
  477MOL0     C65698   0.402   9.743   2.710  0.3824 -0.4878 -0.2951
  477MOL0     C65699   0.258   9.718   2.663  0.0537 -0.2728 -0.0065
  477MOL0     C65700   0.147   9.755   2.766  0.4046 -0.6000  0.1225
  477MOL0     C65701   0.011   9.739   2.698 -0.4822  0.1665  0.1883
  477MOL0     C65702  -0.109   9.792   2.780 -0.2849  0.5153  0.2083
  477MOL0     C65703  -0.244   9.804   2.707 -0.3175  0.1041  0.8670
  477MOL0     C65704  -0.279   9.699   2.597  1.2544 -0.0998  0.7336
  477MOL0     N65705  -0.402   9.742   2.523 -0.7101  0.1581  0.2957
  477MOL0     C65706  -0.432   9.853   2.460 -0.6636 -0.1411 -0.0840
  477MOL0     C65707  -0.557   9.846   2.422 -0.1974 -0.7560 -0.5726
  477MOL0     C65708  -0.648   9.944   2.341  0.6356  0.5916  0.1271
  477MOL0     C65709  -0.735   9.859   2.241 -0.3737 -0.4390 -0.0249
  477MOL0     C65710  -0.838   9.937   2.164 -0.0547  0.4293 -0.1860
  477MOL0     C65711  -0.936   9.852   2.088  0.2742 -0.2833 -0.3034
  477MOL0     O65712  -1.031   9.937   2.018 -0.8170  1.3434 -0.4653
  477MOL0     C65713  -1.136   9.887   1.952  0.1317 -0.0832 -0.0303
  477MOL0     C65714  -1.205   9.973   1.860 -1.1682  0.3352  0.1818
  477MOL0     C65715  -1.318   9.926   1.792 -0.3388  0.7346 -0.8766
  477MOL0     C65716  -1.392  10.016   1.696  0.3979  0.1518  0.1809
  477MOL0     C65717  -1.363   9.797   1.818 -0.0071  0.5081 -1.3177
  477MOL0     C65718  -1.490   9.742   1.767  0.2387  1.2201 -0.2345
  477MOL0     O65719  -1.524   9.621   1.811  0.2877 -1.2772  0.3614
  477MOL0     C65720  -1.651   9.576   1.778 -0.0425 -0.3867 -0.5803
  477MOL0     C65721  -1.689   9.537   1.643  0.3072 -0.1743 -0.4036
  477MOL0     C65722  -1.811   9.488   1.611  0.2681 -0.2533 -0.5713
  477MOL0     C65723  -1.895   9.452   1.722 -1.0733 -0.1150 -1.4042
  477MOL0     O65724  -2.012   9.383   1.703  0.1231  0.5256  0.1102
  477MOL0     C65725  -2.119   9.418   1.781  0.3564  0.5011 -0.8041
  477MOL0     C65726  -2.211   9.497   1.700  0.2894  0.9815 -0.9821
  477MOL0     C65727  -2.332   9.529   1.795  0.3694  0.3460 -0.1766
  477MOL0     C65728  -2.425   9.417   1.845 -0.5722 -0.0038 -0.6567
  477MOL0     C65729  -2.531   9.472   1.937  0.0943  0.4647  0.1820
  477MOL0     C65730  -2.616   9.362   1.991  0.9804 -0.6721 -0.8076
  477MOL0     C65731  -2.718   9.415   2.103  1.1136 -0.9557  0.2627
  477MOL0     C65732  -2.783   9.295   2.178 -0.3756  1.3681  0.8219
  477MOL0    Cl65733  -2.912   9.211   2.091  0.1803  0.2114 -0.1439
  477MOL0     C65734  -1.857   9.486   1.855 -0.1827 -0.9962 -0.1931
  477MOL0     C65735  -1.737   9.553   1.885 -0.1080  0.4052  1.9385
  477MOL0     O65736  -1.553   9.796   1.682  0.7248  0.1239  0.7342
  477MOL0     C65737  -1.301   9.719   1.916 -1.1838  0.8928 -0.1410
  477MOL0     C65738  -1.186   9.764   1.976  1.4567  0.0674 -0.2341
  477MOL0     N65739  -0.603   9.718   2.461  0.4278  0.0607 -0.1554
  477MOL0     N65740  -0.508   9.659   2.523 -0.3420 -0.6736 -0.7074
  477MOL0     C65741   0.665   9.817   2.331  0.1552  0.0216 -0.4744
  477MOL0     C65742   0.774   9.789   2.250 -0.4920 -0.1836  1.0226
  477MOL0     C65743   0.993   9.546   1.938 -0.4289  0.5136  0.5276
  477MOL0     C65744   1.093   9.458   1.995  0.7788  0.0762 -0.5219
  477MOL0     C65745   1.185   9.387   1.922  0.3239  0.4248 -0.7653
  477MOL0     C65746   1.181   9.387   1.784  0.1481 -0.4960 -0.4263
  477MOL0     O65747   1.268   9.299   1.715  0.1978  0.2595 -0.1103
  477MOL0     C65748   1.293   9.314   1.573  0.6529 -0.6168 -0.1602
  477MOL0     C65749   1.399   9.219   1.533 -0.0369 -0.8664 -0.3601
  477MOL0     C65750   1.533   9.282   1.569  0.3020  0.2811  0.1713
  477MOL0     C65751   1.643   9.199   1.496  0.0498  0.1795 -0.1642
  477MOL0     C65752   1.660   9.064   1.546 -0.3217  0.5039  0.3356
  477MOL0     C65753   1.687   8.948   1.581 -0.1094  0.2496 -0.1319
  477MOL0     C65754   1.085   9.469   1.729  0.0714  0.0584  0.5117
  477MOL0     C65755   0.985   9.544   1.801  0.2861  0.3085  0.0498
  477MOL0     C65756   0.870   9.621   1.720 -0.4598  0.2792 -0.6715
  477MOL0     H65757   0.871   9.486   2.354 -1.9432 -0.9859 -2.6186
  477MOL0     H65758   0.689   9.533   2.520 -0.5336 -0.6349 -0.6973
  477MOL0     H65759   0.597   9.697   2.687 -0.2084  3.4015  0.9469
  477MOL0     H65760   0.478   9.581   2.614 -1.2955  1.0945  1.6913
  477MOL0     H65761   0.405   9.709   2.814 -1.1657  3.1188  1.1024
  477MOL0     H65762   0.421   9.851   2.708  0.2282 -0.4546  0.1177
  477MOL0     H65763   0.247   9.770   2.568 -0.2425  0.4698  0.4247
  477MOL0     H65764   0.243   9.610   2.649 -1.5869 -0.3613  1.8914
  477MOL0     H65765   0.155   9.699   2.859  2.9426  2.3873  1.8925
  477MOL0     H65766   0.163   9.862   2.785  1.3150 -0.7367  0.1817
  477MOL0     H65767   0.005   9.632   2.675  1.2039 -0.7056  3.3302
  477MOL0     H65768   0.014   9.790   2.601 -0.2698 -0.5315 -0.1738
  477MOL0     H65769  -0.128   9.731   2.868 -0.2990  1.3067  0.7593
  477MOL0     H65770  -0.087   9.894   2.815  0.1378 -0.2649  2.3236
  477MOL0     H65771  -0.243   9.901   2.657  2.1448 -0.4934 -0.4335
  477MOL0     H65772  -0.322   9.802   2.783 -0.9221  0.4720  0.2642
  477MOL0     H65773  -0.191   9.690   2.533 -0.2442  3.1723 -2.1301
  477MOL0     H65774  -0.303   9.595   2.624 -2.9016  0.2578 -0.8766
  477MOL0     H65775  -0.367   9.937   2.438  1.2046 -1.0107  1.8357
  477MOL0     H65776  -0.583  10.016   2.291 -0.7712  2.8274  1.3731
  477MOL0     H65777  -0.725   9.998   2.396 -3.5553 -0.1624 -4.3192
  477MOL0     H65778  -0.663   9.834   2.162  1.4671  0.4439  1.2949
  477MOL0     H65779  -0.778   9.767   2.282 -0.0286 -0.7463 -0.3470
  477MOL0     H65780  -0.899  10.001   2.228  0.1465  0.5113 -0.0756
  477MOL0     H65781  -0.788  10.004   2.094 -2.9986  3.2618  0.1692
  477MOL0     H65782  -0.904   9.775   2.018  0.1348  0.0234 -0.7167
  477MOL0     H65783  -0.986   9.795   2.166  2.4762 -3.1630 -0.8363
  477MOL0     H65784  -1.167  10.074   1.850  0.7930 -0.2864  0.9228
  477MOL0     H65785  -1.396   9.972   1.596  0.6181 -1.5279  0.8862
  477MOL0     H65786  -1.343  10.113   1.704 -2.9739  1.8762  2.0267
  477MOL0     H65787  -1.495  10.024   1.731 -0.2918 -3.5799 -0.5933
  477MOL0     H65788  -1.608   9.550   1.572  2.4515  1.0367  2.0904
  477MOL0     H65789  -1.828   9.448   1.511  1.3347 -0.6672 -0.5994
  477MOL0     H65790  -2.167   9.325   1.810  1.3607  0.0246 -0.6316
  477MOL0     H65791  -2.092   9.471   1.872 -0.4644 -0.0646 -0.2157
  477MOL0     H65792  -2.160   9.589   1.668 -1.5182  1.9961 -1.1123
  477MOL0     H65793  -2.249   9.447   1.610 -0.2133  0.6281 -0.5759
  477MOL0     H65794  -2.393   9.607   1.748  1.7484  0.1014 -2.5528
  477MOL0     H65795  -2.286   9.582   1.879 -2.7127 -2.4873  3.7028
  477MOL0     H65796  -2.364   9.345   1.900 -0.8921  1.1210  1.2726
  477MOL0     H65797  -2.459   9.368   1.753  1.1232  2.7354 -2.9135
  477MOL0     H65798  -2.484   9.522   2.023 -2.8511 -3.4783  4.6054
  477MOL0     H65799  -2.576   9.553   1.879  0.9770  1.1548  0.4319
  477MOL0     H65800  -2.548   9.297   2.046 -0.8910 -0.4957  1.9514
  477MOL0     H65801  -2.665   9.309   1.909 -0.0998 -1.2613  0.1947
  477MOL0     H65802  -2.799   9.469   2.054 -2.0390 -2.0609  3.8092
  477MOL0     H65803  -2.675   9.484   2.177 -1.2064  0.3488  0.4762
  477MOL0     H65804  -2.817   9.324   2.277 -2.6619 -0.7026  0.7298
  477MOL0     H65805  -2.708   9.216   2.189 -0.7381  0.6264 -1.4086
  477MOL0     H65806  -1.910   9.453   1.943 -0.0835 -0.2424  0.1554
  477MOL0     H65807  -1.716   9.586   1.986  2.3600 -0.1585  1.6815
  477MOL0     H65808  -1.326   9.618   1.948  1.1519 -0.0469 -1.0915
  477MOL0     H65809  -1.127   9.701   2.042  3.6943  1.7996 -0.4673
  477MOL0     H65810   0.590   9.895   2.322  0.0471 -0.0808 -0.4573
  477MOL0     H65811   0.808   9.849   2.166  1.3028  0.1993  1.9588
  477MOL0     H65812   1.096   9.432   2.101 -0.9615 -1.6887 -0.8416
  477MOL0     H65813   1.254   9.315   1.966  1.5663  2.3709  0.5972
  477MOL0     H65814   1.199   9.295   1.521  0.9124 -0.1349 -0.8205
  477MOL0     H65815   1.314   9.416   1.538  3.4349 -0.9109  0.4413
  477MOL0     H65816   1.399   9.213   1.423  1.7016  0.3563 -0.4600
  477MOL0     H65817   1.385   9.121   1.581 -2.1506 -0.8740 -0.8798
  477MOL0     H65818   1.545   9.388   1.542  4.2359  0.8476  3.2456
  477MOL0     H65819   1.541   9.269   1.677  1.9840  3.8833  0.6582
  477MOL0     H65820   1.741   9.245   1.508 -0.2030  0.9769 -1.0080
  477MOL0     H65821   1.627   9.192   1.388 -3.7317  2.5022  0.0526
  477MOL0     H65822   1.707   8.852   1.625 -0.8162  1.2516  2.6451
  477MOL0     H65823   1.062   9.454   1.624  0.4836  1.7778  0.1624
  477MOL0     H65824   0.855   9.718   1.768 -0.7200 -1.0158  2.0657
  477MOL0     H65825   0.906   9.630   1.618  2.8656  4.0739  0.5714
  477MOL0     H65826   0.777   9.567   1.702  0.3648 -0.8395 -1.7088
  478MOL0     O65827  11.335   4.723   5.652 -0.3617  0.3809  0.0920
  478MOL0     C65828  11.418   4.695   5.738 -0.2330 -1.5990 -0.4015
  478MOL0     O65829  11.412   4.739   5.864  0.0719  0.0931  0.0603
  478MOL0     C65830  11.320   4.836   5.909 -0.1447 -0.1734  0.0442
  478MOL0     C65831  11.294   4.821   6.048  0.9639  0.0028 -0.1676
  478MOL0     C65832  11.187   4.891   6.109  0.5582  0.6180 -0.2834
  478MOL0     C65833  11.128   4.993   6.041  0.1253  0.3000 -0.1262
  478MOL0     O65834  11.013   5.058   6.101 -0.3136  0.7653 -1.0047
  478MOL0     C65835  11.023   5.197   6.118  0.1263 -0.2414  0.3785
  478MOL0     C65836  10.884   5.240   6.139  0.7859  0.1666 -0.5910
  478MOL0     C65837  10.881   5.398   6.157  0.4700  1.0191 -0.0152
  478MOL0     C65838  10.732   5.439   6.146 -0.1610  0.7454  0.1976
  478MOL0     C65839  10.729   5.590   6.165 -0.0364  0.1416  0.6728
  478MOL0     C65840  10.582   5.633   6.157  1.1178  0.1458 -1.0434
  478MOL0     C65841  10.569   5.784   6.126 -0.4834 -0.1409  1.2053
  478MOL0     C65842  10.433   5.836   6.089 -0.4373 -0.8022 -0.2328
  478MOL0     N65843  10.379   5.825   5.951 -0.8102 -0.4026 -0.4346
  478MOL0     C65844  10.251   5.801   5.920  0.7922  0.3391 -0.0209
  478MOL0     C65845  10.246   5.780   5.784  0.3011 -0.0366 -0.0724
  478MOL0     C65846  10.114   5.737   5.719 -0.5676  0.2242 -0.2637
  478MOL0     C65847  10.082   5.832   5.600  0.2947 -0.7321 -0.0237
  478MOL0     C65848   9.965   5.767   5.517 -0.2902  0.1658 -0.5301
  478MOL0     C65849   9.922   5.863   5.410  0.6849 -0.6117  0.7198
  478MOL0     O65850   9.907   5.987   5.473  0.1009 -0.1434 -0.4351
  478MOL0     C65851   9.861   6.100   5.404  0.0425  0.0890  0.0191
  478MOL0     C65852   9.846   6.097   5.262  0.1076  0.3367  0.3485
  478MOL0     C65853   9.812   6.214   5.194  0.1202 -0.5684 -0.1722
  478MOL0     C65854   9.819   6.205   5.037 -0.3024 -0.1283  0.2927
  478MOL0     C65855   9.777   6.327   5.263 -0.1720  0.3770 -0.0440
  478MOL0     C65856   9.731   6.454   5.195  0.5397  0.1597  0.3078
  478MOL0     O65857   9.719   6.463   5.054  0.1697 -0.1789 -0.8240
  478MOL0     C65858   9.693   6.590   5.003 -1.7651  0.3090 -0.1954
  478MOL0     C65859   9.803   6.674   4.980 -0.0842  0.6874  0.1471
  478MOL0     C65860   9.777   6.796   4.910 -0.9919  0.3122  0.0642
  478MOL0     C65861   9.649   6.833   4.878  0.4312 -0.4327 -0.1130
  478MOL0     O65862   9.644   6.957   4.821 -1.0215  0.4188 -0.1496
  478MOL0     C65863   9.588   6.957   4.693  0.0714 -0.7934 -0.1170
  478MOL0     C65864   9.657   6.859   4.591  0.0261 -0.2542 -0.0169
  478MOL0     C65865   9.634   6.895   4.442 -0.2279 -0.1581  0.1408
  478MOL0     C65866   9.681   7.032   4.405 -0.2822  0.7556 -0.3904
  478MOL0     C65867   9.679   7.051   4.247 -0.6354  1.0268  0.3778
  478MOL0     C65868   9.760   6.940   4.167  0.1696  0.5400 -0.5080
  478MOL0     C65869   9.779   6.980   4.012  0.4431 -0.3574 -0.9447
  478MOL0     C65870   9.904   6.927   3.941  0.4146  0.6964  0.3954
  478MOL0    Cl65871   9.941   6.758   3.984  0.1717  0.5247 -0.0039
  478MOL0     C65872   9.542   6.747   4.905  0.7273 -0.1496 -0.5337
  478MOL0     C65873   9.565   6.628   4.969  1.2886 -0.6313 -1.8785
  478MOL0     O65874   9.703   6.547   5.274  0.4373 -0.1247  0.5985
  478MOL0     C65875   9.788   6.329   5.401  0.7841  0.7989 -0.7390
  478MOL0     C65876   9.829   6.214   5.467 -0.1508 -0.7871 -0.3765
  478MOL0     N65877  10.375   5.797   5.734  0.1896 -0.1949 -0.2170
  478MOL0     N65878  10.446   5.835   5.831  0.7711 -0.6381  0.0239
  478MOL0     C65879  11.164   5.011   5.910 -0.2664 -0.3252  0.5372
  478MOL0     C65880  11.254   4.936   5.839 -0.3924 -0.9417  0.6219
  478MOL0     C65881  11.540   4.624   5.695  0.2246 -0.0397 -0.4514
  478MOL0     C65882  11.538   4.578   5.563 -0.0595  0.7449  0.1238
  478MOL0     C65883  11.634   4.493   5.511 -0.3499  0.3435  0.5660
  478MOL0     C65884  11.739   4.447   5.589  0.1011  0.6782  0.8229
  478MOL0     O65885  11.840   4.366   5.551 -0.0635 -0.9543 -0.0524
  478MOL0     C65886  11.855   4.338   5.408  0.3582 -0.2915 -0.2436
  478MOL0     C65887  11.970   4.251   5.369 -0.2412 -0.8334 -0.1639
  478MOL0     C65888  11.978   4.222   5.214  0.5355  0.3072 -0.2704
  478MOL0     C65889  12.039   4.087   5.179  0.7309  0.3008 -0.1729
  478MOL0     C65890  12.185   4.104   5.180  0.2636 -0.8591 -1.0133
  478MOL0     C65891  12.303   4.108   5.155  0.4369  0.2125 -0.5373
  478MOL0     C65892  11.737   4.490   5.723  0.3427  0.2257  0.0624
  478MOL0     C65893  11.644   4.582   5.777  0.4202 -0.7503 -0.4393
  478MOL0     C65894  11.669   4.629   5.917 -0.2484 -0.0315 -0.0734
  478MOL0     H65895  11.341   4.744   6.109 -1.6892 -1.6521 -0.0181
  478MOL0     H65896  11.153   4.864   6.208 -1.3529 -1.2310 -1.3724
  478MOL0     H65897  11.068   5.252   6.035  0.2279  1.5825  1.5852
  478MOL0     H65898  11.083   5.205   6.208 -0.0049 -0.2611  0.4682
  478MOL0     H65899  10.828   5.213   6.050  0.0148 -2.4368  0.6047
  478MOL0     H65900  10.825   5.198   6.221 -0.1375 -0.4116 -1.5297
  478MOL0     H65901  10.912   5.430   6.257  0.7357 -0.5937  0.4415
  478MOL0     H65902  10.933   5.450   6.076 -0.9273  0.4322 -1.3357
  478MOL0     H65903  10.691   5.400   6.052 -1.3735 -0.1378  1.0542
  478MOL0     H65904  10.677   5.397   6.231  1.5640  0.5202  1.2395
  478MOL0     H65905  10.794   5.643   6.094  0.6905  0.8034  1.8025
  478MOL0     H65906  10.771   5.604   6.265  2.2055  1.7944 -0.3991
  478MOL0     H65907  10.518   5.572   6.091  0.1669 -2.4791  2.0436
  478MOL0     H65908  10.542   5.611   6.256  1.9984 -0.3754 -0.7902
  478MOL0     H65909  10.633   5.819   6.044 -1.3497  0.1678  0.6548
  478MOL0     H65910  10.608   5.833   6.216  3.6433 -0.3884 -0.2282
  478MOL0     H65911  10.361   5.804   6.165 -0.2741  0.3852  0.4646
  478MOL0     H65912  10.433   5.944   6.106 -0.4014 -0.8556  0.1232
  478MOL0     H65913  10.167   5.801   5.988  0.6082  1.3500 -0.2387
  478MOL0     H65914  10.028   5.740   5.787  0.6335  0.4046  1.3051
  478MOL0     H65915  10.122   5.632   5.687  0.2355  0.2954 -0.3213
  478MOL0     H65916  10.056   5.927   5.647  2.9113  0.3911 -0.6694
  478MOL0     H65917  10.170   5.849   5.538  1.4435 -0.0163  1.7118
  478MOL0     H65918   9.988   5.673   5.464  0.4147 -0.2540  0.4954
  478MOL0     H65919   9.882   5.750   5.586  1.2019 -1.8246  0.9098
  478MOL0     H65920   9.999   5.883   5.334 -0.5086  1.1176 -0.0848
  478MOL0     H65921   9.835   5.831   5.352 -1.2261  1.5638  2.1990
  478MOL0     H65922   9.871   6.013   5.199  0.7967  1.3467 -0.7797
  478MOL0     H65923   9.719   6.207   4.994 -0.1784 -2.7273 -0.3112
  478MOL0     H65924   9.876   6.113   5.017  1.2395  0.8625 -0.1026
  478MOL0     H65925   9.882   6.289   5.007  1.5062 -1.5304 -0.0299
  478MOL0     H65926   9.895   6.646   5.031 -1.5300  0.4506  2.7913
  478MOL0     H65927   9.856   6.867   4.893 -0.8534  0.6128  1.7709
  478MOL0     H65928   9.483   6.927   4.685 -1.2049  2.4699  2.2235
  478MOL0     H65929   9.570   7.062   4.670 -1.4598 -0.7026  1.2473
  478MOL0     H65930   9.765   6.859   4.607  0.0216  1.8891  0.3607
  478MOL0     H65931   9.625   6.757   4.612  0.2248 -0.1630  0.7404
  478MOL0     H65932   9.527   6.893   4.419  0.2680 -1.5748 -2.4942
  478MOL0     H65933   9.672   6.814   4.379 -1.3106 -1.5747  1.2582
  478MOL0     H65934   9.779   7.047   4.451  0.3148  1.2567 -1.7870
  478MOL0     H65935   9.614   7.108   4.447 -2.2731 -2.3070  2.4740
  478MOL0     H65936   9.573   7.052   4.220 -0.5931 -0.8579  0.0032
  478MOL0     H65937   9.724   7.146   4.216  0.1118 -0.5499 -3.9714
  478MOL0     H65938   9.717   6.839   4.169 -1.4960  1.2402  0.1586
  478MOL0     H65939   9.861   6.946   4.210  1.2668 -2.5003 -2.3200
  478MOL0     H65940   9.795   7.088   4.017 -1.1334 -0.1566  0.9217
  478MOL0     H65941   9.685   6.959   3.960  1.1312 -1.6626 -1.7013
  478MOL0     H65942   9.987   6.982   3.986  1.0950 -0.5703  0.7615
  478MOL0     H65943   9.906   6.935   3.832 -1.6312 -1.1439  0.1631
  478MOL0     H65944   9.440   6.775   4.884  0.9513  1.4442  0.3938
  478MOL0     H65945   9.485   6.561   4.996  1.4839  0.6657  2.8187
  478MOL0     H65946   9.767   6.416   5.463  2.0393  1.3202 -1.0157
  478MOL0     H65947   9.840   6.230   5.573 -0.2400  0.1998 -0.5060
  478MOL0     H65948  11.115   5.088   5.850  1.6689  1.2779  0.9241
  478MOL0     H65949  11.270   4.947   5.732  1.7952 -2.6170  0.6957
  478MOL0     H65950  11.448   4.608   5.509 -0.2330  1.8960  0.9846
  478MOL0     H65951  11.620   4.462   5.408  0.1134 -0.5026  0.7572
  478MOL0     H65952  11.764   4.284   5.382  0.6195 -1.9987  2.0326
  478MOL0     H65953  11.862   4.429   5.348  1.9917 -1.2427 -1.5855
  478MOL0     H65954  11.962   4.154   5.420 -0.9632  0.3577  2.1116
  478MOL0     H65955  12.066   4.285   5.410 -0.0147 -1.7118  0.0688
  478MOL0     H65956  11.879   4.217   5.169  0.2540  0.4112  0.3313
  478MOL0     H65957  12.026   4.311   5.170  0.7605  1.9089  2.9293
  478MOL0     H65958  12.019   4.069   5.074 -0.0096  2.8532 -0.5506
  478MOL0     H65959  12.002   4.006   5.242  0.8546 -0.5963 -1.2275
  478MOL0     H65960  12.404   4.131   5.125  0.6583 -1.2823 -1.0141
  478MOL0     H65961  11.811   4.450   5.792 -0.5054 -0.0972  0.8083
  478MOL0     H65962  11.777   4.639   5.933  0.1679 -2.3296 -0.9479
  478MOL0     H65963  11.625   4.725   5.945 -1.2653 -0.0222 -1.5621
  478MOL0     H65964  11.623   4.554   5.983  2.9220 -2.1446 -0.0317
  479MOL0     O65965   9.340   5.358   4.496 -0.2264 -0.5569 -0.2470
  479MOL0     C65966   9.345   5.412   4.386  0.3034 -0.1676 -0.4500
  479MOL0     O65967   9.460   5.456   4.337 -0.5266 -0.9355 -0.1412
  479MOL0     C65968   9.576   5.480   4.421 -0.0157  0.1659 -0.0525
  479MOL0     C65969   9.583   5.595   4.496  0.3768  0.0897 -0.3396
  479MOL0     C65970   9.696   5.624   4.572 -0.1340  0.0665 -0.0478
  479MOL0     C65971   9.809   5.532   4.578  0.2756 -0.2238  0.8915
  479MOL0     O65972   9.917   5.583   4.651  0.2486 -0.1919 -0.7643
  479MOL0     C65973  10.036   5.513   4.678  0.1180 -0.1282 -0.9323
  479MOL0     C65974  10.111   5.582   4.795  1.0656  0.3027  0.0394
  479MOL0     C65975  10.208   5.691   4.747 -0.2640 -0.4886 -0.6026
  479MOL0     C65976  10.130   5.816   4.690 -0.3023  0.0276  0.4205
  479MOL0     C65977  10.215   5.922   4.615 -0.3621  0.7537 -0.4574
  479MOL0     C65978  10.311   5.873   4.504  0.1039  0.8749 -0.4704
  479MOL0     C65979  10.393   5.989   4.432 -0.0279 -0.4316  0.8287
  479MOL0     C65980  10.465   6.092   4.525 -0.1846  0.2047 -0.2793
  479MOL0     N65981  10.524   6.195   4.435  0.2313  0.0217  0.2361
  479MOL0     C65982  10.658   6.229   4.421  0.3974 -0.0928  0.7600
  479MOL0     C65983  10.656   6.345   4.348  0.0395  0.7611 -0.5773
  479MOL0     C65984  10.766   6.440   4.334 -0.8608  0.5804  0.6259
  479MOL0     C65985  10.806   6.443   4.183  0.2365 -0.7577 -0.2880
  479MOL0     C65986  10.857   6.301   4.138 -0.1086 -0.9870 -0.0097
  479MOL0     C65987  10.882   6.300   3.989  0.6848 -0.0931  0.8911
  479MOL0     O65988  10.985   6.390   3.946  0.6371  0.0758 -0.0595
  479MOL0     C65989  11.115   6.342   3.925 -0.1529 -0.5057 -0.6411
  479MOL0     C65990  11.214   6.438   3.893  0.6650  0.7599 -0.7139
  479MOL0     C65991  11.352   6.412   3.882  0.1466 -0.4450 -0.5768
  479MOL0     C65992  11.438   6.528   3.849 -0.1052 -0.4850 -0.6005
  479MOL0     C65993  11.394   6.282   3.923 -0.4824 -0.1553  0.0710
  479MOL0     C65994  11.531   6.244   3.932  0.3752  0.3305  0.1512
  479MOL0     O65995  11.556   6.179   4.048 -0.0999 -0.4972 -0.3395
  479MOL0     C65996  11.693   6.170   4.077 -0.6634  0.6868 -0.6150
  479MOL0     C65997  11.767   6.283   4.112  0.5454 -0.8398  0.2554
  479MOL0     C65998  11.912   6.274   4.139  0.7712  0.4974  0.3900
  479MOL0     C65999  11.972   6.146   4.143  0.5623 -0.1028 -0.4242
  479MOL0     O66000  12.106   6.132   4.185 -0.3220  0.7472 -0.3121
  479MOL0     C66001  12.180   6.251   4.210  0.3587 -0.2717  0.0748
  479MOL0     C66002  12.329   6.214   4.237  0.4833 -0.4136 -0.1778
  479MOL0     C66003  12.407   6.189   4.109 -0.1839  0.8909 -1.1993
  479MOL0     C66004  12.520   6.090   4.140  0.6169 -0.5923  1.0784
  479MOL0     C66005  12.595   6.066   4.008  0.7220 -0.2354 -0.8342
  479MOL0     C66006  12.685   6.186   3.975  0.1890  0.2092  0.4194
  479MOL0     C66007  12.773   6.172   3.845 -0.5814 -0.8385 -0.3328
  479MOL0     C66008  12.872   6.297   3.839  0.3986  0.2575  1.2574
  479MOL0    Cl66009  12.788   6.431   3.748  0.2982  0.0435 -0.0918
  479MOL0     C66010  11.891   6.034   4.108 -0.7954  0.1834  0.5549
  479MOL0     C66011  11.753   6.045   4.072 -0.8245  0.3266  0.5333
  479MOL0     O66012  11.621   6.270   3.846 -0.0186 -0.9544  0.0816
  479MOL0     C66013  11.300   6.182   3.945 -0.5536  0.3523  0.1543
  479MOL0     C66014  11.163   6.208   3.937 -0.1166 -0.2475 -0.3707
  479MOL0     N66015  10.527   6.363   4.305  0.8644  0.1144 -0.0371
  479MOL0     N66016  10.447   6.276   4.358 -0.2888 -0.1906  0.1585
  479MOL0     C66017   9.803   5.416   4.503  0.2959 -0.9872  0.0293
  479MOL0     C66018   9.686   5.389   4.429 -0.2222 -0.1110  0.1739
  479MOL0     C66019   9.214   5.455   4.320 -0.2342  0.0140 -0.3479
  479MOL0     C66020   9.100   5.384   4.365  0.1925  0.1954  0.3940
  479MOL0     C66021   8.973   5.418   4.326 -0.5508  0.4622  0.1243
  479MOL0     C66022   8.944   5.530   4.247  0.2719 -0.0189 -0.0110
  479MOL0     O66023   8.813   5.562   4.205  0.3097 -0.5782  0.0477
  479MOL0     C66024   8.773   5.681   4.269  0.4558 -0.6818 -0.3250
  479MOL0     C66025   8.617   5.681   4.272 -0.6182  0.3353  0.9058
  479MOL0     C66026   8.579   5.812   4.337 -0.7530  0.9087  0.9706
  479MOL0     C66027   8.437   5.814   4.378  0.4533  0.0486 -0.6844
  479MOL0     C66028   8.410   5.922   4.473 -0.8423 -0.6078  0.5326
  479MOL0     C66029   8.368   6.006   4.553 -0.3161  0.1345  0.3176
  479MOL0     C66030   9.054   5.590   4.183 -0.4981  0.5231 -0.0574
  479MOL0     C66031   9.191   5.557   4.219 -0.4849  0.1997  0.5981
  479MOL0     C66032   9.308   5.625   4.143  0.1309  0.0971 -0.2819
  479MOL0     H66033   9.497   5.659   4.477  0.8259  0.1291 -2.5532
  479MOL0     H66034   9.682   5.712   4.634 -2.9095  0.6410 -1.2849
  479MOL0     H66035  10.104   5.504   4.593  0.0740  0.6777 -1.0644
  479MOL0     H66036  10.003   5.413   4.708  1.5019  0.1127  1.7506
  479MOL0     H66037  10.042   5.621   4.871  1.0391 -0.8322  0.6292
  479MOL0     H66038  10.165   5.502   4.847  0.3562  0.9128  1.7890
  479MOL0     H66039  10.271   5.724   4.831  0.5484 -0.7912 -1.0760
  479MOL0     H66040  10.275   5.645   4.674  0.6300  2.7421 -1.9893
  479MOL0     H66041  10.052   5.779   4.623  1.0044 -1.2094 -0.4888
  479MOL0     H66042  10.094   5.874   4.775 -0.4569 -0.6440  0.8293
  479MOL0     H66043  10.280   5.978   4.683  2.1328 -1.2466 -1.0686
  479MOL0     H66044  10.147   5.989   4.560 -0.0654 -0.1502 -1.9806
  479MOL0     H66045  10.386   5.810   4.551 -0.4256  0.6632  0.1119
  479MOL0     H66046  10.259   5.806   4.434 -1.5659 -0.3278  1.8025
  479MOL0     H66047  10.327   6.055   4.376 -0.0757 -1.5931 -0.5360
  479MOL0     H66048  10.455   5.948   4.352 -3.3524 -2.0645 -1.0999
  479MOL0     H66049  10.397   6.125   4.604  3.2116 -2.2701  4.1929
  479MOL0     H66050  10.543   6.048   4.588 -2.2681 -0.1308  2.2404
  479MOL0     H66051  10.754   6.199   4.462 -0.3371 -2.3088  1.0138
  479MOL0     H66052  10.852   6.409   4.395  0.3252  2.4517  0.0038
  479MOL0     H66053  10.732   6.539   4.364  1.2089  1.7719 -0.7208
  479MOL0     H66054  10.716   6.473   4.127 -1.6331 -1.2396  2.3017
  479MOL0     H66055  10.867   6.530   4.159  0.0605  0.1514  2.2673
  479MOL0     H66056  10.952   6.281   4.188  2.9567  3.0855 -3.5029
  479MOL0     H66057  10.781   6.225   4.162 -1.0814  0.8956  3.5444
  479MOL0     H66058  10.901   6.205   3.939 -0.5740  0.3957 -0.6242
  479MOL0     H66059  10.785   6.337   3.953  0.1983 -1.6904  0.5050
  479MOL0     H66060  11.184   6.542   3.902  3.2525  1.4897  0.2905
  479MOL0     H66061  11.517   6.524   3.925  1.4648  2.1017 -1.9502
  479MOL0     H66062  11.380   6.620   3.856  0.1119 -0.3036 -1.1432
  479MOL0     H66063  11.494   6.508   3.757 -1.6466 -2.3321 -1.2039
  479MOL0     H66064  11.715   6.378   4.100  1.7846 -0.3619 -1.8966
  479MOL0     H66065  11.953   6.372   4.164  3.3556 -0.6223  0.8341
  479MOL0     H66066  12.172   6.320   4.126 -2.1932 -2.1684 -1.4009
  479MOL0     H66067  12.136   6.294   4.300 -0.4575 -0.2398 -0.3255
  479MOL0     H66068  12.378   6.303   4.279  0.9244 -0.6012 -0.2851
  479MOL0     H66069  12.332   6.126   4.302  4.4620 -0.5532 -0.2914
  479MOL0     H66070  12.453   6.284   4.079  3.6273 -1.0579 -2.2625
  479MOL0     H66071  12.343   6.146   4.032 -0.3614  1.5472 -1.4291
  479MOL0     H66072  12.476   5.997   4.177  2.2191 -2.0167 -0.4336
  479MOL0     H66073  12.582   6.130   4.220 -3.6234  2.8780  3.1014
  479MOL0     H66074  12.647   5.972   4.025 -0.0955 -0.8766 -1.7936
  479MOL0     H66075  12.517   6.047   3.934 -0.7792 -3.2818  1.3399
  479MOL0     H66076  12.753   6.187   4.061 -0.7185  1.2086  1.1529
  479MOL0     H66077  12.626   6.277   3.961 -2.5403 -1.6099 -0.7688
  479MOL0     H66078  12.723   6.168   3.748  1.0982  1.9102 -1.4332
  479MOL0     H66079  12.842   6.089   3.866 -0.2805 -0.3294  0.7324
  479MOL0     H66080  12.965   6.269   3.788 -1.0337 -1.0140 -0.8178
  479MOL0     H66081  12.899   6.338   3.937 -1.4164  1.0811  1.4544
  479MOL0     H66082  11.938   5.938   4.129  0.4237  0.5545 -0.3137
  479MOL0     H66083  11.681   5.964   4.062  1.3010 -1.3668 -3.7775
  479MOL0     H66084  11.331   6.084   3.979  1.7882  1.6538  2.1417
  479MOL0     H66085  11.108   6.125   3.980  3.1604 -1.4472  1.8506
  479MOL0     H66086   9.884   5.345   4.488 -0.2718 -1.0328 -4.2872
  479MOL0     H66087   9.687   5.306   4.358  3.5552 -1.1484  1.1774
  479MOL0     H66088   9.105   5.299   4.433 -4.6050 -0.5662  0.1630
  479MOL0     H66089   8.884   5.370   4.364 -1.4259  2.6345  0.9326
  479MOL0     H66090   8.795   5.682   4.376 -1.4821  1.7175  0.1356
  479MOL0     H66091   8.818   5.769   4.221  0.6553 -0.2480  0.6280
  479MOL0     H66092   8.571   5.592   4.315  0.3539 -1.1641 -0.9784
  479MOL0     H66093   8.585   5.689   4.167 -3.8023  0.7867  1.8251
  479MOL0     H66094   8.643   5.833   4.422  0.8030  1.1393 -0.2096
  479MOL0     H66095   8.589   5.894   4.264  0.9663 -0.6160 -0.6121
  479MOL0     H66096   8.399   5.719   4.418  1.2877 -0.2003 -0.4749
  479MOL0     H66097   8.370   5.837   4.294 -1.2341  0.3950  0.6977
  479MOL0     H66098   8.341   6.074   4.632 -1.1147  2.8190 -2.0869
  479MOL0     H66099   9.043   5.669   4.110 -1.3736  0.2742 -0.2083
  479MOL0     H66100   9.272   5.693   4.065 -0.2810 -0.7777 -0.8618
  479MOL0     H66101   9.371   5.680   4.214 -1.6450 -0.4273  1.7890
  479MOL0     H66102   9.371   5.542   4.108  1.5312  0.9299  0.1736
  480MOL0     O66103   1.619   6.583   2.961  0.2306 -0.7543 -0.0763
  480MOL0     C66104   1.535   6.661   2.927 -0.3941  0.0404 -0.3885
  480MOL0     O66105   1.549   6.794   2.934  0.1828 -0.4980 -0.4704
  480MOL0     C66106   1.673   6.844   2.961  0.6666  0.3475 -0.6129
  480MOL0     C66107   1.730   6.824   3.081 -0.4927 -0.7694 -0.0237
  480MOL0     C66108   1.853   6.887   3.109 -0.5884  0.7869  0.2447
  480MOL0     C66109   1.921   6.966   3.017  0.4669  1.2884  0.5438
  480MOL0     O66110   2.042   7.032   3.040  0.5442  0.0943 -0.2403
  480MOL0     C66111   2.166   6.959   3.019  0.2591 -0.6350  0.5423
  480MOL0     C66112   2.190   6.925   2.876 -0.1046 -0.3227  0.3840
  480MOL0     C66113   2.330   6.853   2.863  0.0480  0.3648  0.6455
  480MOL0     C66114   2.443   6.943   2.875  0.1599 -0.9092  0.8283
  480MOL0     C66115   2.572   6.894   2.814 -0.4466 -0.1727 -0.0660
  480MOL0     C66116   2.644   6.811   2.915 -0.2183  0.3528  0.1955
  480MOL0     C66117   2.792   6.779   2.883 -0.2893 -0.4063  0.3231
  480MOL0     C66118   2.826   6.719   2.747 -0.3342  0.2003  0.1124
  480MOL0     N66119   2.838   6.831   2.643  0.1785  0.7731  0.5535
  480MOL0     C66120   2.947   6.902   2.626 -0.1122 -0.4299  1.3837
  480MOL0     C66121   2.934   6.968   2.511 -0.3539 -0.9592  0.1268
  480MOL0     C66122   3.007   7.068   2.434  0.0585  0.2353 -0.6584
  480MOL0     C66123   3.106   7.003   2.330 -0.6519 -0.5697  0.0682
  480MOL0     C66124   3.230   7.083   2.325 -0.3585 -0.4876  0.7166
  480MOL0     C66125   3.248   7.174   2.195 -0.5682 -0.3138 -0.5806
  480MOL0     O66126   3.271   7.090   2.082 -0.4916  0.1928  0.0375
  480MOL0     C66127   3.380   7.135   2.022 -1.0597 -0.5059  0.2462
  480MOL0     C66128   3.387   7.235   1.931  0.6333  0.1942  0.4360
  480MOL0     C66129   3.498   7.255   1.841 -0.2462 -0.2096  0.4340
  480MOL0     C66130   3.490   7.349   1.727 -0.0038  0.0933 -0.5966
  480MOL0     C66131   3.618   7.181   1.865 -0.0679  0.5140 -0.1861
  480MOL0     C66132   3.739   7.195   1.800 -0.4720  0.6225  0.4517
  480MOL0     O66133   3.785   7.319   1.784  0.1587  0.7406  0.1373
  480MOL0     C66134   3.911   7.328   1.733  0.7994  0.0390 -0.0377
  480MOL0     C66135   3.938   7.385   1.606  0.2477 -0.5649 -0.3994
  480MOL0     C66136   4.068   7.390   1.562  0.5786  0.3607  0.2581
  480MOL0     C66137   4.179   7.349   1.643 -0.0405  1.2049  0.0422
  480MOL0     O66138   4.306   7.348   1.587  0.3842 -0.3886 -0.0145
  480MOL0     C66139   4.382   7.229   1.618  0.0559  0.0079 -0.1301
  480MOL0     C66140   4.516   7.232   1.534 -0.3699  0.3636  0.0395
  480MOL0     C66141   4.588   7.097   1.549 -0.0074  0.1462  0.3132
  480MOL0     C66142   4.701   7.094   1.456 -0.8255  0.4270 -0.1459
  480MOL0     C66143   4.766   6.944   1.461 -0.6145  0.0681 -0.0475
  480MOL0     C66144   4.870   6.939   1.345 -1.2820 -0.1537  0.7574
  480MOL0     C66145   4.947   6.808   1.364 -0.0186 -0.1882 -0.1042
  480MOL0     C66146   5.050   6.790   1.250  0.3098  0.6309 -0.6816
  480MOL0    Cl66147   5.105   6.617   1.234  0.2060  0.3534  0.1226
  480MOL0     C66148   4.157   7.313   1.778  0.1546  0.5747  0.1213
  480MOL0     C66149   4.024   7.300   1.813  0.4657 -0.2232  0.9485
  480MOL0     O66150   3.797   7.090   1.762  0.0251  0.4411  0.0462
  480MOL0     C66151   3.615   7.086   1.970  1.1483 -0.1074 -0.0358
  480MOL0     C66152   3.494   7.054   2.035  0.4487  0.3527  0.2738
  480MOL0     N66153   2.817   6.928   2.461  0.6322 -0.2753 -0.0541
  480MOL0     N66154   2.752   6.850   2.536 -0.2429 -0.9693  0.1812
  480MOL0     C66155   1.856   6.988   2.899 -0.7757  0.0498 -0.2664
  480MOL0     C66156   1.737   6.932   2.869  0.7569 -0.6599 -0.3193
  480MOL0     C66157   1.404   6.613   2.875 -0.3202 -0.1094  0.2364
  480MOL0     C66158   1.295   6.706   2.862  0.6102  0.4391  0.0442
  480MOL0     C66159   1.166   6.664   2.842  0.3359 -0.1619  0.1061
  480MOL0     C66160   1.128   6.529   2.833  0.4868  0.0601  0.0823
  480MOL0     O66161   0.994   6.521   2.804 -0.3848 -0.0419 -0.0623
  480MOL0     C66162   0.953   6.414   2.708 -0.4244 -0.1136 -0.0493
  480MOL0     C66163   0.897   6.485   2.598  0.6004 -0.6654  0.5196
  480MOL0     C66164   0.751   6.522   2.615 -0.2592 -0.3405 -0.5027
  480MOL0     C66165   0.682   6.541   2.485  1.1866  0.9882  0.0955
  480MOL0     C66166   0.737   6.654   2.414 -0.7652  0.1644 -0.0556
  480MOL0     C66167   0.780   6.758   2.362 -0.1269  0.1581  0.0636
  480MOL0     C66168   1.231   6.432   2.844 -0.3468 -0.0695  0.0377
  480MOL0     C66169   1.366   6.471   2.851  0.0579 -1.0155 -0.3595
  480MOL0     C66170   1.461   6.357   2.855  0.7299 -0.1344  1.2601
  480MOL0     H66171   1.693   6.765   3.164 -1.7848  0.4731  0.3209
  480MOL0     H66172   1.911   6.859   3.197  0.4225  0.9706 -0.3379
  480MOL0     H66173   2.173   6.869   3.082  3.1013  1.3081  3.3215
  480MOL0     H66174   2.248   7.023   3.052 -0.8864  0.5558  1.1595
  480MOL0     H66175   2.117   6.854   2.838 -0.7143  1.4421 -1.9740
  480MOL0     H66176   2.177   7.008   2.807  1.6536 -3.3264 -3.9600
  480MOL0     H66177   2.351   6.782   2.943  0.3790 -1.3346 -0.8639
  480MOL0     H66178   2.332   6.803   2.765  1.7475  1.3008  0.1579
  480MOL0     H66179   2.426   7.038   2.824 -0.3117 -1.4761 -0.0915
  480MOL0     H66180   2.456   6.975   2.979 -2.9308  1.0423  0.7637
  480MOL0     H66181   2.639   6.977   2.789  1.7000 -2.3650 -2.1407
  480MOL0     H66182   2.558   6.830   2.726 -3.5188 -1.8806  1.4644
  480MOL0     H66183   2.657   6.876   3.001 -1.0228  1.4686 -0.4999
  480MOL0     H66184   2.580   6.723   2.931 -1.1483  0.8028 -0.9002
  480MOL0     H66185   2.833   6.712   2.959  1.0486 -2.6872 -2.2314
  480MOL0     H66186   2.844   6.874   2.898 -0.9335  0.0567 -0.3048
  480MOL0     H66187   2.921   6.665   2.754  0.0287  0.9788  1.6434
  480MOL0     H66188   2.753   6.641   2.730 -1.3623 -0.1582  4.8000
  480MOL0     H66189   3.044   6.899   2.675  1.4069  0.5018 -1.3677
  480MOL0     H66190   3.061   7.138   2.498 -2.1441  3.8076 -2.3371
  480MOL0     H66191   2.922   7.122   2.391 -0.3560  1.3346  1.4132
  480MOL0     H66192   3.123   6.901   2.365  1.7442  0.8880  3.7897
  480MOL0     H66193   3.068   6.989   2.229 -0.0579  1.7058 -0.5260
  480MOL0     H66194   3.245   7.141   2.417  4.0185  0.0280 -0.0785
  480MOL0     H66195   3.310   7.011   2.307 -0.0795  0.1106 -0.5871
  480MOL0     H66196   3.154   7.228   2.178  0.4650  2.5330  1.7642
  480MOL0     H66197   3.320   7.249   2.229 -1.0357  0.2460 -0.7863
  480MOL0     H66198   3.300   7.299   1.926  0.3144 -0.3134 -0.9589
  480MOL0     H66199   3.533   7.311   1.634 -0.3386 -0.8096 -0.3932
  480MOL0     H66200   3.533   7.446   1.755 -0.1788  0.3586 -1.2382
  480MOL0     H66201   3.387   7.366   1.695  0.7735 -0.8520 -4.0606
  480MOL0     H66202   3.850   7.417   1.552  0.7377 -0.5222 -1.1935
  480MOL0     H66203   4.088   7.437   1.466  0.4514  2.7400  1.3150
  480MOL0     H66204   4.398   7.212   1.724  1.5623  1.0417 -0.1489
  480MOL0     H66205   4.323   7.141   1.593 -0.1043  1.1141 -4.5451
  480MOL0     H66206   4.493   7.259   1.430 -0.1650 -0.0933 -0.1279
  480MOL0     H66207   4.565   7.316   1.582 -0.1592  1.8222 -2.5546
  480MOL0     H66208   4.525   7.009   1.538  1.6688 -0.8681 -2.0643
  480MOL0     H66209   4.627   7.090   1.652 -0.1688 -0.7984  0.3195
  480MOL0     H66210   4.768   7.174   1.488  0.1395 -1.1768  2.1393
  480MOL0     H66211   4.675   7.119   1.353 -0.8277 -0.1521 -0.2934
  480MOL0     H66212   4.824   6.929   1.553  1.3002 -0.8275 -1.3492
  480MOL0     H66213   4.690   6.867   1.440 -0.9568 -0.3148  2.3124
  480MOL0     H66214   4.936   7.024   1.363 -0.8148 -0.1757 -0.7086
  480MOL0     H66215   4.819   6.945   1.249 -1.5246 -3.2019  0.6194
  480MOL0     H66216   4.886   6.717   1.365  0.0555 -0.3412 -2.8709
  480MOL0     H66217   4.999   6.805   1.460  0.6516 -0.7006 -0.4813
  480MOL0     H66218   5.130   6.863   1.262  1.9020 -1.1563  0.2673
  480MOL0     H66219   5.002   6.815   1.155 -0.1570 -0.6640 -0.8050
  480MOL0     H66220   4.239   7.299   1.848  1.0917  0.5355 -0.9564
  480MOL0     H66221   4.015   7.273   1.917  1.9748 -0.1697  1.1210
  480MOL0     H66222   3.700   7.021   1.984  1.5944  1.0297  3.5749
  480MOL0     H66223   3.488   6.971   2.104  2.3421  1.5358  1.9970
  480MOL0     H66224   1.911   7.050   2.830  2.0607  0.2351  1.9492
  480MOL0     H66225   1.676   6.947   2.780 -1.0103 -3.2902  0.3175
  480MOL0     H66226   1.313   6.812   2.872  1.5566  0.2064  1.0337
  480MOL0     H66227   1.101   6.745   2.811 -1.0275 -0.7209  1.3373
  480MOL0     H66228   1.042   6.363   2.670  0.2312 -0.6673  2.1160
  480MOL0     H66229   0.882   6.344   2.753 -0.4124 -0.4207 -0.4939
  480MOL0     H66230   0.912   6.408   2.522  0.6603 -0.2737  0.1298
  480MOL0     H66231   0.960   6.570   2.570  0.6396 -1.1964 -1.1303
  480MOL0     H66232   0.704   6.437   2.665  0.0226 -0.0125  0.3458
  480MOL0     H66233   0.744   6.604   2.687  1.6478 -0.1770 -0.4600
  480MOL0     H66234   0.577   6.570   2.479  2.3709  5.8706 -3.8446
  480MOL0     H66235   0.683   6.453   2.421 -0.4466  0.3125  0.9391
  480MOL0     H66236   0.801   6.852   2.315 -2.9658  1.8244  1.8574
  480MOL0     H66237   1.211   6.326   2.846  0.2192 -0.1910 -0.4670
  480MOL0     H66238   1.562   6.373   2.816  0.1287 -2.5537 -1.7307
  480MOL0     H66239   1.457   6.309   2.953 -0.8763 -1.0064  0.7973
  480MOL0     H66240   1.429   6.273   2.792  0.6198 -0.6215  1.9549
  481MOL0     O66241   4.517   8.518   0.758  0.9791  0.2796  0.0379
  481MOL0     C66242   4.493   8.394   0.763 -0.3104  0.0069  0.0023
  481MOL0     O66243   4.560   8.294   0.835  0.2360 -0.7583  0.1636
  481MOL0     C66244   4.650   8.339   0.932 -0.0564  0.4348 -0.8190
  481MOL0     C66245   4.780   8.324   0.895  0.8401  0.7276  0.9210
  481MOL0     C66246   4.885   8.354   0.985  0.7538 -0.1581  0.0134
  481MOL0     C66247   4.851   8.406   1.105 -0.1726 -0.9323 -0.0477
  481MOL0     O66248   4.958   8.442   1.186  0.4483  0.4342 -0.8066
  481MOL0     C66249   4.956   8.385   1.322 -0.7762  0.5933  0.4396
  481MOL0     C66250   5.098   8.309   1.345 -0.4466  1.4018  0.2684
  481MOL0     C66251   5.097   8.261   1.489 -0.4519 -0.5093  0.6031
  481MOL0     C66252   5.227   8.198   1.541 -0.5861 -0.1255 -0.2573
  481MOL0     C66253   5.359   8.285   1.535 -0.7284  0.4763  0.5103
  481MOL0     C66254   5.467   8.195   1.599 -0.5835 -0.4049  0.2355
  481MOL0     C66255   5.598   8.271   1.604 -0.6392  0.0459 -0.4594
  481MOL0     C66256   5.714   8.199   1.687  0.4281 -1.1550  0.6440
  481MOL0     N66257   5.761   8.069   1.636  0.6683 -0.3090 -0.2694
  481MOL0     C66258   5.773   8.034   1.506 -0.0623 -0.1584 -0.5204
  481MOL0     C66259   5.806   7.898   1.515 -0.0813 -0.3678 -0.0153
  481MOL0     C66260   5.849   7.811   1.394 -0.5455  0.7713 -0.3054
  481MOL0     C66261   5.994   7.764   1.402  0.2767  0.9205 -0.3898
  481MOL0     C66262   6.011   7.627   1.328 -0.1506 -0.1969 -0.2820
  481MOL0     C66263   5.971   7.661   1.184 -0.1760  0.7782  0.6303
  481MOL0     O66264   6.015   7.785   1.121 -0.7021 -0.2704  0.3079
  481MOL0     C66265   6.147   7.798   1.085  1.2807 -0.1057 -0.4499
  481MOL0     C66266   6.244   7.703   1.103 -0.6838 -0.4394  0.6230
  481MOL0     C66267   6.375   7.730   1.044  0.6645  0.1571  0.2676
  481MOL0     C66268   6.462   7.603   1.046  1.0479  0.2216  0.3241
  481MOL0     C66269   6.409   7.857   0.992  0.1776  0.7707  0.5547
  481MOL0     C66270   6.542   7.890   0.930 -0.2986 -0.8289 -0.6491
  481MOL0     O66271   6.559   8.008   0.859 -0.0142 -0.3173  0.0203
  481MOL0     C66272   6.688   8.040   0.818  0.7201  0.6208  0.2813
  481MOL0     C66273   6.743   8.165   0.857 -0.3429 -0.1855 -0.4888
  481MOL0     C66274   6.881   8.199   0.831  0.2348  0.4269  0.4785
  481MOL0     C66275   6.957   8.109   0.757 -0.3858  0.3948 -0.0109
  481MOL0     O66276   7.086   8.158   0.731 -0.0477  0.5506  0.7173
  481MOL0     C66277   7.183   8.053   0.693 -0.3838  0.2022 -0.9710
  481MOL0     C66278   7.326   8.105   0.714 -0.3397  0.7000 -0.0557
  481MOL0     C66279   7.428   8.002   0.676  0.1059  0.6144 -1.2413
  481MOL0     C66280   7.569   8.047   0.715 -1.4463  0.0897 -0.0474
  481MOL0     C66281   7.681   7.948   0.682 -0.5899  0.4524  0.6264
  481MOL0     C66282   7.701   7.910   0.535  0.3340 -0.6352  0.0269
  481MOL0     C66283   7.823   7.835   0.508 -0.4649 -0.4737 -0.2883
  481MOL0     C66284   7.830   7.713   0.596 -0.4807  0.7021 -0.5489
  481MOL0    Cl66285   7.691   7.599   0.594 -0.0288 -0.0535 -0.1083
  481MOL0     C66286   6.903   7.992   0.713  1.0027  0.5633  0.9642
  481MOL0     C66287   6.769   7.961   0.744  0.2065  0.2715  0.1240
  481MOL0     O66288   6.630   7.818   0.963 -0.5085  0.5530 -0.0583
  481MOL0     C66289   6.313   7.958   0.998 -0.2220  0.9356  0.3794
  481MOL0     C66290   6.182   7.932   1.034 -0.2991  0.0894  0.3017
  481MOL0     N66291   5.810   7.862   1.651  0.1228  0.4059 -0.0137
  481MOL0     N66292   5.775   7.969   1.723 -1.0821  0.8419  0.5004
  481MOL0     C66293   4.721   8.423   1.138 -0.2033 -0.2966 -0.2037
  481MOL0     C66294   4.613   8.397   1.057 -0.7364 -0.8196  0.4880
  481MOL0     C66295   4.379   8.352   0.671 -0.8764  0.3072 -0.5876
  481MOL0     C66296   4.279   8.452   0.653  0.3680 -0.4063  0.2068
  481MOL0     C66297   4.153   8.433   0.581 -0.3383 -0.0022  0.9216
  481MOL0     C66298   4.142   8.303   0.517 -0.0186  0.1064  0.0122
  481MOL0     O66299   4.028   8.243   0.463 -0.9846 -1.2892 -0.0982
  481MOL0     C66300   3.916   8.323   0.453  0.1054 -0.8183 -0.7272
  481MOL0     C66301   3.800   8.254   0.388  0.7275  0.4961 -0.3402
  481MOL0     C66302   3.743   8.138   0.484  0.2045  0.1969 -0.2056
  481MOL0     C66303   3.618   8.070   0.429  0.4318  0.5931  0.1857
  481MOL0     C66304   3.505   8.168   0.450 -0.3648  0.0633 -0.0389
  481MOL0     C66305   3.415   8.246   0.472  1.5133 -0.5473  0.6466
  481MOL0     C66306   4.256   8.217   0.526 -0.1137  1.2357  0.4910
  481MOL0     C66307   4.358   8.236   0.611 -0.3010  0.6024  0.7327
  481MOL0     C66308   4.457   8.117   0.639 -1.2590  1.3373  0.6663
  481MOL0     H66309   4.801   8.282   0.798 -0.8992 -1.4144  1.4019
  481MOL0     H66310   4.989   8.347   0.954  0.5196  0.3790 -0.9437
  481MOL0     H66311   4.874   8.315   1.335  1.5464 -3.1821 -2.7838
  481MOL0     H66312   4.959   8.470   1.390  2.0024  2.5320 -1.8424
  481MOL0     H66313   5.095   8.221   1.280  0.2400 -1.5341  3.8864
  481MOL0     H66314   5.175   8.385   1.328 -0.9945  1.4821 -2.1331
  481MOL0     H66315   5.081   8.351   1.549 -3.2920 -2.0140  2.3258
  481MOL0     H66316   5.014   8.192   1.503 -1.8073  0.2083 -2.9467
  481MOL0     H66317   5.215   8.184   1.649  3.6173 -1.0106  0.2506
  481MOL0     H66318   5.241   8.100   1.494 -1.0846 -1.5666  2.3784
  481MOL0     H66319   5.347   8.368   1.606  1.9250 -1.4244  3.4747
  481MOL0     H66320   5.381   8.316   1.433 -1.7757 -0.6234 -0.0772
  481MOL0     H66321   5.445   8.163   1.701 -1.6059  0.3277  0.2635
  481MOL0     H66322   5.480   8.111   1.530  1.6113  0.4001 -0.4149
  481MOL0     H66323   5.584   8.362   1.663 -0.0374 -0.5043  0.5571
  481MOL0     H66324   5.631   8.301   1.504  1.4435 -0.8404 -0.0821
  481MOL0     H66325   5.803   8.261   1.696 -0.9333  0.9575  0.3036
  481MOL0     H66326   5.669   8.180   1.785  0.0718 -1.8581  0.3477
  481MOL0     H66327   5.752   8.092   1.417 -0.0618 -0.1024 -0.4836
  481MOL0     H66328   5.824   7.870   1.306 -0.6420 -1.9209 -2.2056
  481MOL0     H66329   5.780   7.726   1.390  0.9132 -0.4281 -1.8669
  481MOL0     H66330   6.058   7.844   1.363 -0.0800  2.5219  2.0955
  481MOL0     H66331   6.025   7.748   1.506 -0.7331 -1.7549 -0.4137
  481MOL0     H66332   6.108   7.577   1.339  0.0855  0.5734  1.4887
  481MOL0     H66333   5.934   7.556   1.359  2.3294 -2.9944 -0.0718
  481MOL0     H66334   5.998   7.571   1.127 -3.0181 -0.3689  0.9552
  481MOL0     H66335   5.862   7.662   1.178 -0.2531 -1.9864  0.1104
  481MOL0     H66336   6.214   7.602   1.129  0.6430 -1.9524 -3.0874
  481MOL0     H66337   6.523   7.609   1.137  0.7702  0.7310  0.4816
  481MOL0     H66338   6.527   7.591   0.958  0.4489  0.2987 -0.1392
  481MOL0     H66339   6.403   7.511   1.051 -0.0266  0.9903  2.5380
  481MOL0     H66340   6.683   8.238   0.910 -1.1591 -0.4764 -0.9868
  481MOL0     H66341   6.926   8.295   0.854  1.2024  0.7029 -2.2862
  481MOL0     H66342   7.174   7.968   0.761  0.1694  2.2061  1.7492
  481MOL0     H66343   7.163   8.007   0.595 -3.3327 -3.4980  1.0985
  481MOL0     H66344   7.343   8.192   0.650  0.8771  0.2238 -0.4157
  481MOL0     H66345   7.333   8.132   0.819 -0.3235  0.8859 -0.1043
  481MOL0     H66346   7.423   7.970   0.571 -0.3462  0.2494 -1.1135
  481MOL0     H66347   7.405   7.907   0.725 -1.1225  0.8684 -1.2981
  481MOL0     H66348   7.576   8.071   0.822 -1.6680 -0.7312  0.1568
  481MOL0     H66349   7.587   8.146   0.671  2.2127  0.1769  1.2337
  481MOL0     H66350   7.776   7.980   0.726 -0.7608  2.3452 -0.2550
  481MOL0     H66351   7.663   7.853   0.731  3.3061 -0.7278  0.0972
  481MOL0     H66352   7.701   8.006   0.482  0.2601  0.3472  1.7207
  481MOL0     H66353   7.616   7.855   0.495  0.9250 -1.1345 -0.5562
  481MOL0     H66354   7.920   7.885   0.500  0.2999 -1.2799  2.6834
  481MOL0     H66355   7.805   7.804   0.404  1.3835  3.0695 -1.8365
  481MOL0     H66356   7.859   7.739   0.698 -0.3657  1.1016 -0.6823
  481MOL0     H66357   7.918   7.652   0.573 -0.2225 -0.0005  2.0144
  481MOL0     H66358   6.964   7.925   0.653 -0.1380 -0.4837  0.9130
  481MOL0     H66359   6.744   7.862   0.706  5.1176 -1.1462 -0.1180
  481MOL0     H66360   6.329   8.056   0.952 -0.5801  1.7114  1.8529
  481MOL0     H66361   6.109   8.011   1.018  0.6151  1.6883  3.3039
  481MOL0     H66362   4.712   8.461   1.239 -1.1815 -2.4442  0.6063
  481MOL0     H66363   4.515   8.424   1.094  0.6176 -0.9119  4.7106
  481MOL0     H66364   4.282   8.549   0.703  2.0778 -0.1936 -0.2665
  481MOL0     H66365   4.072   8.505   0.576 -2.1462 -2.0223 -1.6923
  481MOL0     H66366   3.899   8.358   0.555  2.6790  2.9196 -1.3894
  481MOL0     H66367   3.952   8.402   0.386 -0.3994  0.9056  0.9678
  481MOL0     H66368   3.845   8.212   0.297 -0.5719 -0.9023 -0.3776
  481MOL0     H66369   3.723   8.326   0.360 -0.8899 -1.7975 -2.2765
  481MOL0     H66370   3.816   8.058   0.498 -0.8618 -0.4717  1.9364
  481MOL0     H66371   3.722   8.184   0.580  3.8263 -1.4625  1.5883
  481MOL0     H66372   3.596   7.976   0.480  0.3505  0.6923  0.3340
  481MOL0     H66373   3.628   8.061   0.320 -0.1474 -1.9681  0.2910
  481MOL0     H66374   3.335   8.312   0.498  0.7794 -0.3803 -1.8279
  481MOL0     H66375   4.256   8.127   0.464 -0.3096  1.2994  0.3960
  481MOL0     H66376   4.449   8.042   0.560  1.1356  1.9078 -0.2177
  481MOL0     H66377   4.558   8.158   0.631 -1.0890  0.7767 -0.1738
  481MOL0     H66378   4.436   8.073   0.737 -0.1080 -1.4011 -0.2164
  482MOL0     O66379   8.022   8.097  10.447  0.3209  0.7502 -0.6198
  482MOL0     C66380   8.114   8.114  10.365  0.2031  0.6728  0.7990
  482MOL0     O66381   8.204   8.215  10.357  0.4286 -0.1686  0.1331
  482MOL0     C66382   8.217   8.315  10.438  0.0371 -0.3795  0.4555
  482MOL0     C66383   8.104   8.393  10.480  0.2793 -0.7686 -0.2579
  482MOL0     C66384   8.108   8.510  10.561 -0.1449 -0.8762 -0.2840
  482MOL0     C66385   8.230   8.542  10.620 -1.5856  1.1416  0.3842
  482MOL0     O66386   8.258   8.639  10.714  0.6962  0.4040 -0.2200
  482MOL0     C66387   8.145   8.712  10.777  0.0658 -0.1118  0.4324
  482MOL0     C66388   8.197   8.814  10.882 -0.2914 -0.2994 -0.1444
  482MOL0     C66389   8.208   8.963  10.822  0.1461 -0.4462 -0.9303
  482MOL0     C66390   8.069   9.027  10.783 -1.0472 -0.5261  0.4393
  482MOL0     C66391   8.088   9.181  10.801  0.3857  0.1055  0.4665
  482MOL0     C66392   8.068   9.224  10.947  0.3037  0.0397 -0.2145
  482MOL0     C66393   7.923   9.222  10.990  0.2613 -0.2036 -0.6915
  482MOL0     C66394   7.888   9.275  11.127  1.1141 -0.7035  0.5794
  482MOL0     N66395   7.745   9.239  11.163  0.3922  0.4544 -0.9331
  482MOL0     C66396   7.632   9.258  11.090 -0.0838  0.7130  0.3768
  482MOL0     C66397   7.528   9.209  11.161  0.7051  0.7638 -0.4783
  482MOL0     C66398   7.387   9.209  11.108  0.0923 -0.5784 -0.3103
  482MOL0     C66399   7.264   9.149  11.178 -0.2086 -0.6625  0.4221
  482MOL0     C66400   7.226   9.017  11.118  0.2412 -0.4550 -0.1600
  482MOL0     C66401   7.098   8.962  11.179 -0.7536 -0.7433 -0.7017
  482MOL0     O66402   6.989   9.042  11.123  0.1258  0.4984  0.8351
  482MOL0     C66403   6.862   8.995  11.151  0.0251 -0.5433 -0.6485
  482MOL0     C66404   6.763   9.057  11.086  0.0121 -0.0775 -0.4251
  482MOL0     C66405   6.622   9.037  11.108 -0.3540 -0.3798  0.1642
  482MOL0     C66406   6.518   9.131  11.041 -0.1023 -0.2145 -0.1072
  482MOL0     C66407   6.579   8.953  11.207  0.5028 -0.4631 -0.1095
  482MOL0     C66408   6.439   8.926  11.257 -0.4474 -0.7436 -0.4149
  482MOL0     O66409   6.423   8.871  11.379 -0.2807  0.2659 -0.2271
  482MOL0     C66410   6.303   8.880  11.441  0.0950  0.5260 -0.2363
  482MOL0     C66411   6.192   8.805  11.390 -0.2335 -0.2578 -0.5933
  482MOL0     C66412   6.075   8.828  11.450 -0.6167 -0.5292 -0.2352
  482MOL0     C66413   6.059   8.907  11.563  0.0697  0.7276  0.1591
  482MOL0     O66414   5.941   8.907  11.633  0.2636 -0.1222  0.1002
  482MOL0     C66415   5.826   8.831  11.596 -0.1470 -0.0318  0.8734
  482MOL0     C66416   5.753   8.899  11.478  0.3931  0.0794 -0.1638
  482MOL0     C66417   5.602   8.863  11.490  0.0527 -0.9660 -0.6274
  482MOL0     C66418   5.515   8.955  11.403  0.5237 -0.1514 -0.3294
  482MOL0     C66419   5.374   8.893  11.396 -0.3817 -0.4612  0.1448
  482MOL0     C66420   5.295   8.887  11.525  0.2984  0.4366 -0.1667
  482MOL0     C66421   5.146   8.835  11.521  0.0394  0.4921  0.3089
  482MOL0     C66422   5.121   8.705  11.445 -0.3740 -0.5823  0.3696
  482MOL0    Cl66423   5.219   8.567  11.506 -0.2832 -0.0788  0.1374
  482MOL0     C66424   6.168   8.980  11.616 -0.4475 -0.5751 -0.2240
  482MOL0     C66425   6.291   8.960  11.550 -0.3874 -0.0299 -0.6275
  482MOL0     O66426   6.347   8.980  11.200  0.3403 -0.1192  0.2399
  482MOL0     C66427   6.684   8.878  11.271 -0.0173 -0.2829 -0.2376
  482MOL0     C66428   6.825   8.899  11.245 -0.1224 -0.0535 -0.1740
  482MOL0     N66429   7.589   9.158  11.281  0.6965  0.4523 -0.7885
  482MOL0     N66430   7.713   9.178  11.284 -0.4676 -0.7723 -0.5876
  482MOL0     C66431   8.341   8.465  10.573 -0.3566  0.4885 -0.3479
  482MOL0     C66432   8.341   8.364  10.471  0.6093  0.6401 -0.1189
  482MOL0     C66433   8.113   8.017  10.249 -0.4752 -0.5824 -0.2120
  482MOL0     C66434   8.002   7.975  10.196  0.6257  0.6733 -1.0333
  482MOL0     C66435   7.997   7.910  10.077 -0.2422  0.0406 -0.3363
  482MOL0     C66436   8.110   7.873  10.013  0.7133 -0.6221  0.2202
  482MOL0     O66437   8.108   7.808   9.893  0.2004 -0.7550 -0.6529
  482MOL0     C66438   8.226   7.739   9.851 -0.2691  0.0610 -0.2921
  482MOL0     C66439   8.192   7.629   9.745  0.3852 -0.2117 -0.7479
  482MOL0     C66440   8.145   7.686   9.609  0.3388 -0.3641 -0.0212
  482MOL0     C66441   8.271   7.732   9.534  0.5938 -0.5253  0.5923
  482MOL0     C66442   8.221   7.790   9.408  0.4769 -0.0379 -0.2772
  482MOL0     C66443   8.156   7.830   9.316  0.3959  0.1909 -0.0106
  482MOL0     C66444   8.233   7.911  10.075  0.5846 -0.0453  0.3197
  482MOL0     C66445   8.237   7.986  10.191  0.3006  0.6867 -0.1355
  482MOL0     C66446   8.373   8.037  10.237 -0.2427 -0.1467 -0.1871
  482MOL0     H66447   8.008   8.353  10.448 -0.8879  3.4060 -2.8398
  482MOL0     H66448   8.023   8.563  10.602  0.9458  0.7883 -0.0545
  482MOL0     H66449   8.098   8.631  10.832  2.3474 -1.5055  0.4558
  482MOL0     H66450   8.091   8.758  10.693  1.7231 -0.8633 -1.1062
  482MOL0     H66451   8.124   8.806  10.963  0.2799 -3.2402  0.2036
  482MOL0     H66452   8.294   8.790  10.927  0.0126  2.4352  0.8564
  482MOL0     H66453   8.268   9.023  10.891 -0.0941  0.0122 -1.1119
  482MOL0     H66454   8.274   8.965  10.734  1.5693 -0.3158  0.0927
  482MOL0     H66455   8.037   8.998  10.683 -0.7493  0.3627  0.0661
  482MOL0     H66456   7.993   8.991  10.852  0.1307 -2.5895  0.7368
  482MOL0     H66457   8.010   9.232  10.743 -2.2895 -2.2270  1.7651
  482MOL0     H66458   8.190   9.208  10.773 -0.2323 -0.1698 -2.2698
  482MOL0     H66459   8.131   9.170  11.018  1.1195  0.7126 -0.4036
  482MOL0     H66460   8.102   9.328  10.941  1.2632 -0.2643 -0.3095
  482MOL0     H66461   7.889   9.118  10.986  0.8186 -0.3704 -1.2466
  482MOL0     H66462   7.864   9.276  10.916  2.8140 -0.4993 -3.0889
  482MOL0     H66463   7.959   9.226  11.194  0.1981 -2.0123  0.6259
  482MOL0     H66464   7.903   9.383  11.131  1.8015 -0.6663 -1.5529
  482MOL0     H66465   7.627   9.307  10.993  0.8772  1.4363  0.6778
  482MOL0     H66466   7.395   9.166  11.008  2.9626  2.1666 -1.4249
  482MOL0     H66467   7.380   9.318  11.105  1.1326 -0.4650  0.8541
  482MOL0     H66468   7.275   9.152  11.286 -0.2937 -1.2183  0.4496
  482MOL0     H66469   7.184   9.210  11.136  0.8727 -0.4279 -1.4619
  482MOL0     H66470   7.214   9.027  11.010  0.0123 -2.2893 -0.3389
  482MOL0     H66471   7.312   8.952  11.134  1.2784  0.6645 -1.0317
  482MOL0     H66472   7.087   8.855  11.163 -1.1144 -1.4452  3.2060
  482MOL0     H66473   7.109   8.976  11.287  0.7533  3.3716 -1.2076
  482MOL0     H66474   6.788   9.126  11.006 -1.8120 -0.1320 -1.1065
  482MOL0     H66475   6.457   9.178  11.119 -2.4496 -0.1017 -1.9345
  482MOL0     H66476   6.458   9.071  10.973  2.4049  0.0229 -2.7042
  482MOL0     H66477   6.581   9.206  10.993 -1.9828  1.5115 -0.0002
  482MOL0     H66478   6.215   8.763  11.292  2.6030  1.4917 -0.7947
  482MOL0     H66479   5.993   8.768  11.411 -0.8015  0.9212 -2.2337
  482MOL0     H66480   5.860   8.731  11.566 -0.2241  0.5229 -1.2054
  482MOL0     H66481   5.752   8.816  11.675 -4.1028 -0.2118 -2.5767
  482MOL0     H66482   5.768   9.006  11.496  0.5981 -0.2701  2.0486
  482MOL0     H66483   5.782   8.872  11.376 -1.9838 -1.2532 -0.5757
  482MOL0     H66484   5.571   8.867  11.595  1.2004  0.6175 -0.3058
  482MOL0     H66485   5.602   8.756  11.468 -2.0383 -1.2793  0.5990
  482MOL0     H66486   5.563   8.978  11.308  0.1259  1.5332 -0.1692
  482MOL0     H66487   5.513   9.052  11.455 -0.8157  1.3768 -3.0055
  482MOL0     H66488   5.321   8.966  11.335  0.3051  2.2462  2.5334
  482MOL0     H66489   5.374   8.799  11.340  0.8098 -1.4289  1.6591
  482MOL0     H66490   5.290   8.979  11.584  0.2191 -0.2036  0.8488
  482MOL0     H66491   5.355   8.815  11.582 -0.7788 -1.8076 -1.6886
  482MOL0     H66492   5.083   8.912  11.475 -0.0914 -1.2236 -2.6603
  482MOL0     H66493   5.107   8.822  11.622  0.0190 -2.9536 -0.0394
  482MOL0     H66494   5.131   8.719  11.337  0.5898 -2.3397  0.1887
  482MOL0     H66495   5.017   8.685  11.471 -1.3433  0.6714 -2.1959
  482MOL0     H66496   6.157   9.049  11.699  1.1340  0.0985 -0.5515
  482MOL0     H66497   6.376   9.010  11.594 -0.8542  0.7237 -0.5629
  482MOL0     H66498   6.664   8.810  11.353  1.6125  1.7193  1.9560
  482MOL0     H66499   6.898   8.849  11.307 -0.6234  0.6399  1.0037
  482MOL0     H66500   8.443   8.483  10.606  0.7119 -3.2854 -1.1343
  482MOL0     H66501   8.428   8.305  10.443  0.5693 -0.0152  1.0501
  482MOL0     H66502   7.906   8.006  10.234  2.6263  2.2247  3.4948
  482MOL0     H66503   7.906   7.894  10.020  1.8683 -0.0757 -3.9873
  482MOL0     H66504   8.301   7.803   9.804  2.1038 -1.5804  1.0109
  482MOL0     H66505   8.278   7.701   9.940  0.3709  1.3992 -0.0719
  482MOL0     H66506   8.109   7.569   9.782 -0.3214 -0.3060 -2.4069
  482MOL0     H66507   8.279   7.566   9.726  0.2268 -0.7050  0.1519
  482MOL0     H66508   8.083   7.607   9.566  1.1164 -0.5284 -0.8760
  482MOL0     H66509   8.077   7.768   9.633 -0.8885 -1.2856 -0.2525
  482MOL0     H66510   8.348   7.656   9.518 -0.3948 -1.8455  1.8695
  482MOL0     H66511   8.321   7.809   9.593  0.8121 -1.2580  1.3665
  482MOL0     H66512   8.090   7.861   9.237  0.0595 -4.4888 -1.8436
  482MOL0     H66513   8.333   7.901  10.034  1.0114 -1.0957  1.5338
  482MOL0     H66514   8.374   8.146  10.252  0.2155 -0.0471 -0.8969
  482MOL0     H66515   8.423   7.974  10.311  3.0987  1.5246 -0.7923
  482MOL0     H66516   8.450   8.024  10.160 -0.7750  0.6060 -0.8730
  483MOL0     O66517   4.182   6.884  11.319  0.2915 -0.2686  0.2781
  483MOL0     C66518   4.198   6.832  11.424 -0.3682 -0.1263 -0.4963
  483MOL0     O66519   4.318   6.841  11.504 -0.3704 -0.8037 -0.1358
  483MOL0     C66520   4.424   6.914  11.463 -0.5160 -0.6293  0.6323
  483MOL0     C66521   4.471   6.896  11.335 -0.5662  0.4269  0.5121
  483MOL0     C66522   4.573   6.981  11.287  0.1349 -0.7368 -0.0333
  483MOL0     C66523   4.639   7.081  11.363 -0.8473  0.7025 -0.6146
  483MOL0     O66524   4.731   7.158  11.304 -0.3228 -0.0384 -0.3804
  483MOL0     C66525   4.783   7.277  11.381  0.0855  0.6787  0.4158
  483MOL0     C66526   4.913   7.241  11.450 -0.6352 -0.3164  0.2827
  483MOL0     C66527   5.009   7.165  11.348 -0.5974  0.3230  0.5082
  483MOL0     C66528   5.140   7.138  11.411 -0.9730 -0.7114  0.2762
  483MOL0     C66529   5.233   7.086  11.306  0.0291 -0.8919 -0.3220
  483MOL0     C66530   5.359   7.050  11.381  0.0658  0.0912  0.4389
  483MOL0     C66531   5.486   7.052  11.291 -0.0363 -0.0827  0.4363
  483MOL0     C66532   5.607   7.038  11.362 -1.3064 -0.2601 -0.2924
  483MOL0     N66533   5.722   7.040  11.269  0.4028 -0.8977 -0.6335
  483MOL0     C66534   5.786   7.158  11.238 -1.1274  0.5015  0.0899
  483MOL0     C66535   5.867   7.124  11.133 -0.0493 -0.5027  0.6877
  483MOL0     C66536   5.951   7.234  11.068 -0.0414  0.2744 -0.6094
  483MOL0     C66537   5.988   7.213  10.919 -0.5944 -0.5254 -0.1472
  483MOL0     C66538   6.102   7.113  10.891 -0.1788  0.3762 -0.2030
  483MOL0     C66539   6.219   7.126  10.982 -0.2328 -0.3993 -0.1605
  483MOL0     O66540   6.323   7.047  10.928  0.2861  0.0044  0.0893
  483MOL0     C66541   6.435   7.049  10.997 -0.2104 -0.0573 -0.5253
  483MOL0     C66542   6.465   6.956  11.099  0.2770  0.1508 -0.3895
  483MOL0     C66543   6.586   6.961  11.169  0.7198 -0.0467  1.1522
  483MOL0     C66544   6.594   6.853  11.278  0.5803 -0.4072  0.2982
  483MOL0     C66545   6.675   7.072  11.153 -1.6772  0.5324 -0.6145
  483MOL0     C66546   6.802   7.089  11.240 -0.4603 -0.1301 -0.1250
  483MOL0     O66547   6.809   7.020  11.353 -0.6543  0.1250 -0.4773
  483MOL0     C66548   6.933   6.996  11.416  0.3203  0.5731 -0.6347
  483MOL0     C66549   6.913   6.910  11.522 -0.3443  0.3934  0.2566
  483MOL0     C66550   7.024   6.869  11.606  0.2751 -0.0246 -1.4361
  483MOL0     C66551   7.150   6.914  11.580 -0.4101  0.1828 -0.1699
  483MOL0     O66552   7.249   6.867  11.669  0.2989  0.3423 -0.5268
  483MOL0     C66553   7.382   6.842  11.627  0.2331 -0.5937 -0.0212
  483MOL0     C66554   7.469   6.949  11.693 -1.1405 -0.2467  0.3144
  483MOL0     C66555   7.617   6.924  11.669 -0.2578 -0.4792  0.1754
  483MOL0     C66556   7.671   6.946  11.524  0.1446  0.0857  0.1969
  483MOL0     C66557   7.826   6.926  11.508 -0.0773 -0.6556 -0.1233
  483MOL0     C66558   7.897   7.047  11.579  0.0313  0.6749 -0.1339
  483MOL0     C66559   8.011   7.008  11.672 -0.0811  0.3601 -0.8173
  483MOL0     C66560   7.966   6.940  11.808 -0.1307 -0.1448  0.3592
  483MOL0    Cl66561   7.876   7.056  11.909  0.2051  0.2848 -0.1178
  483MOL0     C66562   7.173   7.008  11.482  0.0809 -0.4590 -0.2502
  483MOL0     C66563   7.060   7.053  11.403 -0.5980 -0.3905 -0.4059
  483MOL0     O66564   6.897   7.154  11.193 -0.0503  0.7206  0.4199
  483MOL0     C66565   6.656   7.146  11.036 -1.1554  0.2549 -0.3178
  483MOL0     C66566   6.532   7.143  10.965  0.1846  0.3491  0.7987
  483MOL0     N66567   5.836   6.994  11.096  0.1867  0.0235 -0.3007
  483MOL0     N66568   5.746   6.944  11.172 -0.7558 -1.2335  0.0770
  483MOL0     C66569   4.595   7.084  11.499  0.1215  0.3884  0.6091
  483MOL0     C66570   4.490   7.006  11.547 -0.2029 -0.1037  0.1016
  483MOL0     C66571   4.085   6.738  11.477  0.2629  0.1095  1.0732
  483MOL0     C66572   4.123   6.619  11.548 -0.0636 -1.1573 -0.2161
  483MOL0     C66573   4.021   6.539  11.602  0.7023 -0.1179  0.2964
  483MOL0     C66574   3.886   6.574  11.584  0.1991 -0.3717  0.1558
  483MOL0     O66575   3.779   6.495  11.628 -0.5747 -0.2076  0.0250
  483MOL0     C66576   3.804   6.357  11.594  0.3615  0.9506 -1.1188
  483MOL0     C66577   3.684   6.286  11.670 -0.1000  0.0092  0.4316
  483MOL0     C66578   3.708   6.136  11.690  0.0019  0.3344 -0.1881
  483MOL0     C66579   3.847   6.102  11.748  0.0348 -0.1305  0.6601
  483MOL0     C66580   3.862   5.956  11.758 -0.1470  0.2642  0.3494
  483MOL0     C66581   3.881   5.836  11.736  0.1171  0.0359 -1.0222
  483MOL0     C66582   3.842   6.686  11.516 -0.4835  0.1376 -1.1481
  483MOL0     C66583   3.943   6.763  11.458 -0.1336 -0.2690  0.0594
  483MOL0     C66584   3.892   6.888  11.396  0.2414  0.2001 -0.0220
  483MOL0     H66585   4.421   6.816  11.282 -0.1402  0.3518  0.2280
  483MOL0     H66586   4.587   6.996  11.180 -2.8517  3.8862 -0.0582
  483MOL0     H66587   4.716   7.323  11.454 -0.2167 -1.4891  1.6036
  483MOL0     H66588   4.789   7.360  11.309 -2.0439  0.9242  0.4549
  483MOL0     H66589   4.958   7.330  11.493 -1.8191  1.6187 -2.2430
  483MOL0     H66590   4.884   7.173  11.531 -0.8788  1.1957  1.5179
  483MOL0     H66591   4.970   7.068  11.318  2.3663 -0.6891 -0.3874
  483MOL0     H66592   5.018   7.210  11.249  0.3415 -0.5016  0.2130
  483MOL0     H66593   5.175   7.233  11.452  0.5599 -0.1946 -2.0777
  483MOL0     H66594   5.112   7.072  11.494 -2.1436 -1.6579 -0.8373
  483MOL0     H66595   5.244   7.168  11.234 -0.1663 -0.0850  0.5532
  483MOL0     H66596   5.194   6.996  11.257  1.1099 -0.8582 -1.2782
  483MOL0     H66597   5.378   7.130  11.453  1.8755  0.6486 -0.5990
  483MOL0     H66598   5.341   6.956  11.434  1.6968 -0.7405 -0.4227
  483MOL0     H66599   5.494   7.143  11.231  1.8281  1.1093  2.3495
  483MOL0     H66600   5.481   6.965  11.224  2.5804  0.0955 -0.0912
  483MOL0     H66601   5.622   7.120  11.433 -0.4555 -1.3881  0.8721
  483MOL0     H66602   5.621   6.944  11.415  0.1879  0.0995  0.0064
  483MOL0     H66603   5.781   7.261  11.272 -0.4314  1.6666 -2.9518
  483MOL0     H66604   6.033   7.264  11.134  0.0012  0.9422 -0.9641
  483MOL0     H66605   5.887   7.322  11.061 -2.1850 -1.2505 -1.2887
  483MOL0     H66606   5.898   7.180  10.865  0.1029 -1.9074 -0.5304
  483MOL0     H66607   6.022   7.306  10.874  1.1595 -0.5218  1.1133
  483MOL0     H66608   6.070   7.009  10.903 -0.2483  0.3864 -0.2984
  483MOL0     H66609   6.134   7.115  10.786  2.1840 -1.4863  0.3931
  483MOL0     H66610   6.251   7.231  10.987  4.3782 -1.6562  3.7727
  483MOL0     H66611   6.191   7.090  11.081 -0.9549 -1.2744 -0.6700
  483MOL0     H66612   6.393   6.878  11.122  1.3027 -0.1972  1.8676
  483MOL0     H66613   6.537   6.766  11.245  1.5992 -1.6811  1.7198
  483MOL0     H66614   6.559   6.880  11.378 -0.3573  2.8178 -0.7981
  483MOL0     H66615   6.696   6.816  11.297  0.4008 -1.1266 -0.1177
  483MOL0     H66616   6.814   6.874  11.547 -0.6888 -0.6919 -2.3586
  483MOL0     H66617   7.004   6.811  11.695  0.8113  1.6556 -0.1530
  483MOL0     H66618   7.411   6.741  11.656 -0.7217 -1.6013 -2.3249
  483MOL0     H66619   7.393   6.846  11.518 -0.9337 -1.7407 -0.1976
  483MOL0     H66620   7.440   7.051  11.666 -2.2224 -1.0654 -1.8998
  483MOL0     H66621   7.458   6.967  11.800 -0.4076  2.4223  0.0057
  483MOL0     H66622   7.626   6.821  11.705 -0.1233 -0.3684  0.4563
  483MOL0     H66623   7.677   6.988  11.734 -0.6331  0.3059 -0.2345
  483MOL0     H66624   7.636   7.044  11.489  1.8955 -0.3204 -3.1150
  483MOL0     H66625   7.626   6.882  11.448  2.1744 -0.7428 -0.3692
  483MOL0     H66626   7.859   6.835  11.559  1.8878  0.7967  1.3697
  483MOL0     H66627   7.854   6.931  11.403  1.9890  2.6088  0.4245
  483MOL0     H66628   7.832   7.105  11.644 -1.5746  0.5680 -1.6024
  483MOL0     H66629   7.941   7.109  11.500 -1.4588  0.2386 -1.3460
  483MOL0     H66630   8.068   7.097  11.698 -0.0442  0.2994 -0.6879
  483MOL0     H66631   8.087   6.949  11.621  2.1650  4.1918 -2.2925
  483MOL0     H66632   8.054   6.902  11.861 -1.7194 -4.5117  0.2107
  483MOL0     H66633   7.900   6.854  11.796  0.9001 -1.4452  3.0649
  483MOL0     H66634   7.274   7.045  11.467  0.0464 -0.8319 -1.4925
  483MOL0     H66635   7.082   7.139  11.340 -1.8212 -1.1349 -1.9028
  483MOL0     H66636   6.739   7.209  11.006 -0.4211 -0.8324 -0.6659
  483MOL0     H66637   6.511   7.203  10.877 -2.8080 -3.4181 -1.3714
  483MOL0     H66638   4.627   7.169  11.558  2.5890 -1.9122  2.8747
  483MOL0     H66639   4.462   7.021  11.651 -2.1994 -0.5838 -0.3314
  483MOL0     H66640   4.227   6.588  11.554 -0.8670 -3.9657  0.7781
  483MOL0     H66641   4.047   6.450  11.659  1.9523 -1.3166 -2.0235
  483MOL0     H66642   3.809   6.335  11.487 -1.4443 -0.2681 -0.9941
  483MOL0     H66643   3.901   6.326  11.635 -1.4404 -0.4642  2.5227
  483MOL0     H66644   3.589   6.299  11.616  1.3836 -0.6981 -2.5457
  483MOL0     H66645   3.680   6.333  11.769  1.7472  1.4356 -0.1017
  483MOL0     H66646   3.627   6.097  11.753 -1.0890 -2.4175 -3.0247
  483MOL0     H66647   3.688   6.092  11.592  0.1166  0.0157 -0.0681
  483MOL0     H66648   3.842   6.147  11.847 -1.0058  2.0420 -0.2980
  483MOL0     H66649   3.926   6.137  11.681 -2.8088  0.0134 -2.9862
  483MOL0     H66650   3.886   5.734  11.702 -0.1477 -0.4137  0.2269
  483MOL0     H66651   3.735   6.703  11.509 -0.9443 -1.8137  0.3226
  483MOL0     H66652   3.794   6.928  11.425 -0.0797 -0.6212  0.0523
  483MOL0     H66653   3.960   6.967  11.428 -1.0175  2.2171 -1.9863
  483MOL0     H66654   3.892   6.896  11.287  1.8440 -1.3673 -0.1858
  484MOL0     O66655   5.643   4.036   8.489 -0.7813 -0.7047  0.3256
  484MOL0     C66656   5.667   4.016   8.606 -0.3406 -0.3782  0.5090
  484MOL0     O66657   5.733   4.102   8.690 -0.0763 -0.4339 -0.4142
  484MOL0     C66658   5.791   4.218   8.644  1.2127 -0.6853  0.0167
  484MOL0     C66659   5.927   4.239   8.685 -0.5629 -0.1041  0.5345
  484MOL0     C66660   5.996   4.362   8.654  0.6683 -0.7538 -0.6459
  484MOL0     C66661   5.931   4.462   8.587 -0.2003  0.1536 -0.2540
  484MOL0     O66662   5.997   4.583   8.572  0.7358 -0.2097 -0.5002
  484MOL0     C66663   6.101   4.581   8.468 -0.6804  0.9910  0.2560
  484MOL0     C66664   6.123   4.721   8.417 -0.2529  0.6700 -0.2460
  484MOL0     C66665   6.203   4.732   8.287 -0.0629  0.1088 -0.5632
  484MOL0     C66666   6.128   4.811   8.180 -0.9263  0.2343 -0.4427
  484MOL0     C66667   6.190   4.783   8.040 -0.4979  0.4452 -0.5121
  484MOL0     C66668   6.163   4.906   7.949 -0.0325  0.3582  0.5171
  484MOL0     C66669   6.181   4.862   7.801 -0.1354 -0.2903  0.8668
  484MOL0     C66670   6.176   4.976   7.700  1.4581  0.4410 -0.4235
  484MOL0     N66671   6.044   5.050   7.699  0.4370 -0.0032 -0.1317
  484MOL0     C66672   5.927   5.006   7.641 -0.4093  0.3854 -0.7989
  484MOL0     C66673   5.840   5.108   7.686 -1.5362 -0.9026 -1.0078
  484MOL0     C66674   5.693   5.123   7.664 -0.0604 -0.6178  0.1232
  484MOL0     C66675   5.626   4.997   7.618 -0.5266 -0.7937 -0.1658
  484MOL0     C66676   5.472   5.019   7.609 -1.0670 -0.3860 -0.0086
  484MOL0     C66677   5.392   4.902   7.555 -0.4724  0.3007 -0.7513
  484MOL0     O66678   5.384   4.790   7.643  0.3077 -0.1667  0.4735
  484MOL0     C66679   5.273   4.707   7.641  0.4181  0.0348 -0.6311
  484MOL0     C66680   5.184   4.700   7.531 -1.4765  0.4389 -0.3737
  484MOL0     C66681   5.080   4.608   7.529 -0.1920 -0.7104  0.6840
  484MOL0     C66682   5.000   4.606   7.400  0.0934 -0.0209  0.6095
  484MOL0     C66683   5.052   4.532   7.646  0.3159 -0.0477  0.3678
  484MOL0     C66684   4.960   4.421   7.666 -0.6757  0.2938  0.0288
  484MOL0     O66685   4.927   4.372   7.792 -0.0011  0.7107 -0.3456
  484MOL0     C66686   4.827   4.285   7.780 -1.5823  0.5584 -0.2448
  484MOL0     C66687   4.696   4.325   7.791  0.8792  0.3150  0.1177
  484MOL0     C66688   4.596   4.233   7.791 -0.0287  0.0857  0.3122
  484MOL0     C66689   4.622   4.095   7.775  0.1287 -0.5464 -1.0073
  484MOL0     O66690   4.506   4.029   7.764 -0.2780  0.7382 -0.0161
  484MOL0     C66691   4.518   3.886   7.745 -0.1765 -0.3616 -0.0774
  484MOL0     C66692   4.379   3.826   7.761  0.1561 -0.2580  0.0114
  484MOL0     C66693   4.288   3.873   7.653  0.6405 -0.1306  0.0297
  484MOL0     C66694   4.143   3.830   7.674  0.9201 -0.5906  0.4170
  484MOL0     C66695   4.063   3.834   7.537 -0.7319 -0.3565 -0.1337
  484MOL0     C66696   3.910   3.846   7.555 -0.1983 -0.1504 -0.2099
  484MOL0     C66697   3.829   3.831   7.425 -0.0807  0.0864 -0.6258
  484MOL0     C66698   3.810   3.958   7.343  0.6129 -0.9307  0.0030
  484MOL0    Cl66699   3.927   3.954   7.201 -0.4532  0.4436 -0.4521
  484MOL0     C66700   4.763   4.052   7.772  1.6139 -0.5903  0.7483
  484MOL0     C66701   4.857   4.148   7.781  0.3124 -0.3193  0.1474
  484MOL0     O66702   4.912   4.374   7.559 -0.8970 -0.3739  0.4206
  484MOL0     C66703   5.118   4.571   7.766  0.3427 -0.5272  0.6599
  484MOL0     C66704   5.234   4.647   7.761  0.7138  0.2999  0.3026
  484MOL0     N66705   5.913   5.208   7.755  0.2733  0.0771  0.4791
  484MOL0     N66706   6.035   5.167   7.759  0.6178  0.0994 -0.0915
  484MOL0     C66707   5.802   4.437   8.531  0.4907  0.3747 -0.5555
  484MOL0     C66708   5.736   4.317   8.561 -0.2760 -0.0241 -0.6917
  484MOL0     C66709   5.609   3.896   8.673 -0.3996 -0.3018 -0.7965
  484MOL0     C66710   5.596   3.903   8.819  0.1049 -1.0904  0.1119
  484MOL0     C66711   5.571   3.779   8.884  0.2291 -0.1612  1.2495
  484MOL0     C66712   5.563   3.652   8.825 -0.3580 -0.7101 -0.3838
  484MOL0     O66713   5.531   3.547   8.900 -0.7278  0.3860  0.7385
  484MOL0     C66714   5.464   3.437   8.839 -1.0547  0.1839  0.2145
  484MOL0     C66715   5.420   3.325   8.934 -0.3688 -0.3244 -0.1970
  484MOL0     C66716   5.302   3.385   9.011 -0.5547 -0.3258  0.0237
  484MOL0     C66717   5.226   3.300   9.103 -0.0302 -0.2392  0.3329
  484MOL0     C66718   5.155   3.209   9.020  0.3882  0.3024  0.4185
  484MOL0     C66719   5.111   3.136   8.933  0.2144  0.3143  0.1727
  484MOL0     C66720   5.570   3.654   8.684  0.0865  0.0997  0.4878
  484MOL0     C66721   5.602   3.771   8.614  0.0834 -0.3913 -0.4011
  484MOL0     C66722   5.630   3.753   8.472  0.9204  0.8471 -0.5593
  484MOL0     H66723   5.972   4.160   8.744 -0.6539  0.2927  1.1412
  484MOL0     H66724   6.099   4.373   8.688 -0.6801 -1.3980  4.5820
  484MOL0     H66725   6.074   4.509   8.389  1.5009  0.4089 -0.0559
  484MOL0     H66726   6.197   4.553   8.514 -1.7104 -1.3198  1.1363
  484MOL0     H66727   6.021   4.759   8.409 -1.3938 -2.3731 -1.5797
  484MOL0     H66728   6.169   4.779   8.497 -1.3084 -1.3922  1.9948
  484MOL0     H66729   6.307   4.756   8.313 -0.2221 -1.5322  1.9575
  484MOL0     H66730   6.218   4.629   8.253 -2.0032 -0.8694  1.2989
  484MOL0     H66731   6.020   4.797   8.171 -1.2036  2.6521 -1.5742
  484MOL0     H66732   6.127   4.916   8.210  1.1539  0.4278 -0.8562
  484MOL0     H66733   6.147   4.699   7.984  1.8805  0.4358 -2.5129
  484MOL0     H66734   6.297   4.760   8.051 -0.7817 -1.3284 -1.0985
  484MOL0     H66735   6.067   4.952   7.972 -0.9602 -0.8977 -0.6661
  484MOL0     H66736   6.235   4.987   7.960  0.4321  0.0046  0.1553
  484MOL0     H66737   6.110   4.788   7.764 -0.1853  1.2428 -2.4418
  484MOL0     H66738   6.285   4.827   7.797  0.9508  2.6247 -3.2697
  484MOL0     H66739   6.253   5.051   7.716  0.7410  1.3889 -1.2646
  484MOL0     H66740   6.192   4.930   7.602  2.4295 -1.8203  0.7208
  484MOL0     H66741   5.892   4.929   7.574 -1.0599 -1.1648  1.2131
  484MOL0     H66742   5.685   5.187   7.575 -1.1099  1.5938  1.7080
  484MOL0     H66743   5.644   5.180   7.743  0.1587  0.8379 -0.7425
  484MOL0     H66744   5.655   4.979   7.514  1.6801 -1.5131  0.5170
  484MOL0     H66745   5.654   4.916   7.686  4.3402 -0.2429 -1.1286
  484MOL0     H66746   5.423   5.068   7.694  0.1626 -0.5673  0.8370
  484MOL0     H66747   5.458   5.094   7.530 -1.3907 -2.2038 -1.7414
  484MOL0     H66748   5.290   4.943   7.547 -0.1147  1.0495 -1.7074
  484MOL0     H66749   5.434   4.870   7.459  1.5804  1.0396 -0.1556
  484MOL0     H66750   5.197   4.755   7.438 -1.1109 -1.6408 -1.6207
  484MOL0     H66751   4.923   4.530   7.385  1.0448 -1.0211  0.6525
  484MOL0     H66752   5.070   4.590   7.316 -1.3451 -2.2028 -0.2669
  484MOL0     H66753   4.953   4.703   7.385 -2.9778 -1.5981 -0.9560
  484MOL0     H66754   4.673   4.430   7.806 -2.4062 -0.4229  0.9234
  484MOL0     H66755   4.490   4.256   7.787 -0.4371 -1.7375 -0.5714
  484MOL0     H66756   4.559   3.875   7.644 -1.0827  1.6592 -0.7156
  484MOL0     H66757   4.583   3.832   7.814 -0.6186 -0.2879  0.4000
  484MOL0     H66758   4.391   3.718   7.748 -0.6712 -0.5104  1.1779
  484MOL0     H66759   4.338   3.849   7.859 -2.3171 -3.4052 -0.1050
  484MOL0     H66760   4.332   3.831   7.562 -0.4712 -1.6176  0.1421
  484MOL0     H66761   4.291   3.983   7.647  1.8366 -0.2011 -1.2869
  484MOL0     H66762   4.093   3.900   7.740  0.9989  1.8995 -1.9807
  484MOL0     H66763   4.133   3.729   7.715  0.5432 -0.2336  1.2218
  484MOL0     H66764   4.079   3.926   7.479 -0.8026 -1.4046 -1.8759
  484MOL0     H66765   4.101   3.754   7.472  5.0314 -0.9370  3.2450
  484MOL0     H66766   3.886   3.940   7.605 -0.8202 -1.1324  1.4154
  484MOL0     H66767   3.891   3.762   7.623  1.4471  0.0337  0.5339
  484MOL0     H66768   3.734   3.791   7.462 -0.5777 -0.5136 -2.4740
  484MOL0     H66769   3.866   3.754   7.357 -0.1643  1.5459 -2.3930
  484MOL0     H66770   3.820   4.046   7.407  1.5957 -0.5641 -0.6267
  484MOL0     H66771   3.708   3.966   7.306 -0.3652 -1.3986  2.4011
  484MOL0     H66772   4.789   3.946   7.774  1.6273 -1.0763 -5.4326
  484MOL0     H66773   4.963   4.126   7.784  0.2664 -0.4791  0.5838
  484MOL0     H66774   5.088   4.530   7.862 -1.2667  0.6627  0.7103
  484MOL0     H66775   5.297   4.648   7.850  1.4935 -3.9338  0.0179
  484MOL0     H66776   5.758   4.507   8.461 -5.3486 -2.7826 -0.6551
  484MOL0     H66777   5.634   4.313   8.526 -0.1854 -1.0478 -0.8546
  484MOL0     H66778   5.610   3.990   8.882 -0.8839 -2.9141  3.1046
  484MOL0     H66779   5.566   3.767   8.992 -3.3494 -0.3271  1.1614
  484MOL0     H66780   5.387   3.467   8.768 -1.3068  0.5280  0.6267
  484MOL0     H66781   5.542   3.384   8.784  0.1043  3.5307 -1.6233
  484MOL0     H66782   5.489   3.290   9.011  0.2435  3.6587  1.2898
  484MOL0     H66783   5.388   3.241   8.871  1.7351 -0.5295 -1.0785
  484MOL0     H66784   5.349   3.467   9.066  0.4914 -0.6085 -0.4281
  484MOL0     H66785   5.229   3.425   8.940 -0.2901 -2.3284 -1.4679
  484MOL0     H66786   5.157   3.358   9.166  0.4504  0.2100  0.4563
  484MOL0     H66787   5.298   3.260   9.175  2.4568  2.6277 -0.3460
  484MOL0     H66788   5.062   3.070   8.864 -2.6413 -0.6248  2.8794
  484MOL0     H66789   5.559   3.562   8.627  0.0839 -1.9628  3.5882
  484MOL0     H66790   5.629   3.648   8.442 -1.5305  0.5688  0.3307
  484MOL0     H66791   5.560   3.796   8.400 -0.3134  0.4710  0.3978
  484MOL0     H66792   5.731   3.790   8.449  1.4214 -0.3585 -0.3738
  485MOL0     O66793   5.865   5.476   3.012  0.0618  0.6802 -0.3609
  485MOL0     C66794   5.789   5.438   2.920  0.0373  0.3132  0.9907
  485MOL0     O66795   5.834   5.377   2.805  0.4862 -0.0949 -0.0919
  485MOL0     C66796   5.964   5.390   2.773 -0.6823 -0.1401 -0.3143
  485MOL0     C66797   5.997   5.467   2.663  0.4558 -0.4034  0.1396
  485MOL0     C66798   6.125   5.475   2.612 -0.4322  0.6288 -0.8070
  485MOL0     C66799   6.230   5.401   2.667 -0.9093  0.5506 -0.0432
  485MOL0     O66800   6.361   5.432   2.627  0.5700 -0.0047  0.2224
  485MOL0     C66801   6.463   5.334   2.652 -0.1252 -0.4535 -0.1669
  485MOL0     C66802   6.539   5.362   2.779  0.5521 -0.2381 -0.0410
  485MOL0     C66803   6.587   5.508   2.787 -0.5617  0.2999  0.2722
  485MOL0     C66804   6.696   5.544   2.682 -0.1013  0.9298  0.8880
  485MOL0     C66805   6.788   5.657   2.723 -0.1940 -0.5758 -0.3045
  485MOL0     C66806   6.719   5.785   2.772  0.2152  0.5112  0.0510
  485MOL0     C66807   6.812   5.897   2.791  0.2109 -0.6809  0.1692
  485MOL0     C66808   6.855   5.918   2.939 -0.2411 -0.4534 -0.2327
  485MOL0     N66809   6.958   6.013   2.972 -0.3526  0.3956  0.5938
  485MOL0     C66810   6.954   6.148   2.969  0.6832  0.3614  0.1676
  485MOL0     C66811   7.076   6.196   2.991 -1.1313 -0.1055 -0.2044
  485MOL0     C66812   7.107   6.340   2.994 -0.2264 -0.1437 -0.1823
  485MOL0     C66813   7.167   6.381   2.862  0.2000 -0.2910  0.5277
  485MOL0     C66814   7.234   6.523   2.877 -0.6687 -0.7494 -0.6228
  485MOL0     C66815   7.341   6.536   2.987 -0.6328  0.0682  0.6642
  485MOL0     O66816   7.428   6.422   2.980 -0.4338 -0.3659 -0.9979
  485MOL0     C66817   7.533   6.413   3.052 -0.0915 -0.6049 -0.4762
  485MOL0     C66818   7.601   6.525   3.104  0.3880 -0.5291 -0.2264
  485MOL0     C66819   7.701   6.511   3.199  0.2184 -0.0677  0.9021
  485MOL0     C66820   7.775   6.639   3.237 -0.1758  0.3070 -0.2752
  485MOL0     C66821   7.755   6.385   3.232 -0.5514  0.6954  0.1205
  485MOL0     C66822   7.846   6.359   3.349 -0.2514  0.1151  0.1435
  485MOL0     O66823   7.873   6.229   3.370  0.2502 -0.6216  0.0931
  485MOL0     C66824   7.975   6.178   3.439 -0.2359  0.7059  0.8471
  485MOL0     C66825   8.098   6.237   3.466 -0.0406  0.5451 -0.2095
  485MOL0     C66826   8.194   6.178   3.551 -0.3799 -0.8976  0.6836
  485MOL0     C66827   8.162   6.057   3.610  0.2341  0.0139  0.3708
  485MOL0     O66828   8.247   6.019   3.703 -0.3755  0.5073 -0.0795
  485MOL0     C66829   8.250   5.883   3.740 -0.6585 -0.6152 -1.0787
  485MOL0     C66830   8.363   5.871   3.844 -0.2612 -0.6360  1.2580
  485MOL0     C66831   8.506   5.907   3.794  0.4874 -0.4844  0.6323
  485MOL0     C66832   8.606   5.858   3.902 -0.4598 -0.7476 -1.3340
  485MOL0     C66833   8.753   5.885   3.854 -1.0574 -0.3597  0.4237
  485MOL0     C66834   8.796   5.823   3.722 -0.3278  1.2024  0.2941
  485MOL0     C66835   8.938   5.857   3.677 -0.5745  0.4749  0.1112
  485MOL0     C66836   9.038   5.814   3.786  0.0115  0.1924  0.1411
  485MOL0    Cl66837   9.057   5.634   3.792  0.0003  0.3187 -0.5369
  485MOL0     C66838   8.052   5.984   3.572 -1.0142  0.8933  0.0154
  485MOL0     C66839   7.959   6.047   3.480 -0.5608 -0.0592  0.2353
  485MOL0     O66840   7.903   6.451   3.405 -0.4397  0.3023 -1.0598
  485MOL0     C66841   7.689   6.273   3.176 -0.0321  0.0844 -0.6055
  485MOL0     C66842   7.585   6.289   3.084 -0.8063  0.1674 -0.1277
  485MOL0     N66843   7.157   6.091   3.023 -0.4988  0.0775 -0.3995
  485MOL0     N66844   7.082   5.983   3.025  0.3033 -0.6113  0.1585
  485MOL0     C66845   6.194   5.312   2.774  0.1626 -0.0085  0.2200
  485MOL0     C66846   6.064   5.305   2.817  0.4560 -0.2623 -0.0713
  485MOL0     C66847   5.644   5.452   2.945  0.5927 -0.4880 -0.4728
  485MOL0     C66848   5.558   5.457   2.830 -1.5605  0.6788  0.2097
  485MOL0     C66849   5.428   5.486   2.851 -0.7138 -0.6484  0.1572
  485MOL0     C66850   5.370   5.518   2.975 -0.5941 -0.7327 -0.8580
  485MOL0     O66851   5.240   5.561   2.973 -0.3476 -0.7073 -0.2835
  485MOL0     C66852   5.200   5.623   3.083 -0.1624 -0.3184 -0.3781
  485MOL0     C66853   5.053   5.670   3.080  1.2269 -0.8126  0.1042
  485MOL0     C66854   4.991   5.722   2.953 -0.1071 -0.0206  0.8048
  485MOL0     C66855   4.844   5.754   2.982 -0.3254 -0.7743 -0.0428
  485MOL0     C66856   4.836   5.899   3.011 -0.1896  0.7664 -0.0186
  485MOL0     C66857   4.836   6.019   3.023 -0.8881  0.2036 -0.7350
  485MOL0     C66858   5.452   5.506   3.091 -0.3117  0.1151 -0.0633
  485MOL0     C66859   5.587   5.477   3.076  0.0224 -0.5407 -0.0223
  485MOL0     C66860   5.658   5.464   3.210  0.7749 -0.2136 -1.1581
  485MOL0     H66861   5.921   5.534   2.624  1.3005 -1.1877 -3.1743
  485MOL0     H66862   6.150   5.537   2.526  1.3032 -0.7131 -1.3213
  485MOL0     H66863   6.524   5.329   2.561 -2.5652 -2.8205 -1.8158
  485MOL0     H66864   6.431   5.230   2.665  0.0460 -0.7843 -2.0469
  485MOL0     H66865   6.481   5.348   2.871  0.8162  0.2227  0.2012
  485MOL0     H66866   6.621   5.290   2.783  1.4768  0.6561 -1.5992
  485MOL0     H66867   6.506   5.582   2.783  1.3987  2.4732 -2.6569
  485MOL0     H66868   6.637   5.513   2.884  1.4828 -2.4402 -0.5201
  485MOL0     H66869   6.749   5.452   2.654 -0.5177  1.0176 -0.2352
  485MOL0     H66870   6.646   5.566   2.587  0.2603  0.1185  0.4946
  485MOL0     H66871   6.856   5.681   2.640 -0.6432 -0.6801 -0.7055
  485MOL0     H66872   6.854   5.629   2.806  1.9196  0.6504 -1.4845
  485MOL0     H66873   6.645   5.817   2.699 -1.6644  0.6725  1.9309
  485MOL0     H66874   6.668   5.751   2.863 -0.4464  0.4558 -0.3384
  485MOL0     H66875   6.738   5.976   2.776 -0.6719 -1.6848 -0.9570
  485MOL0     H66876   6.900   5.896   2.726  1.2782  1.3783  1.4998
  485MOL0     H66877   6.761   5.945   2.987 -0.5119 -1.4814 -0.1621
  485MOL0     H66878   6.895   5.822   2.975  1.1246 -0.8375 -2.5049
  485MOL0     H66879   6.869   6.213   2.954  1.1621  0.7848 -0.8226
  485MOL0     H66880   7.175   6.360   3.077  1.0693 -0.0233 -1.2562
  485MOL0     H66881   7.020   6.402   3.017  0.8575  0.8217  1.4844
  485MOL0     H66882   7.246   6.313   2.830  1.8378  1.1023  1.3943
  485MOL0     H66883   7.092   6.382   2.782  0.8452  3.1882 -0.1859
  485MOL0     H66884   7.290   6.526   2.782  3.3172  1.1496  1.5114
  485MOL0     H66885   7.163   6.606   2.881  1.6114  1.2970  1.2189
  485MOL0     H66886   7.390   6.631   2.965 -2.4061  1.1431  1.1533
  485MOL0     H66887   7.297   6.539   3.087  0.1933 -0.0249  1.0356
  485MOL0     H66888   7.574   6.630   3.092  1.6681 -0.1930 -0.3548
  485MOL0     H66889   7.724   6.703   3.311 -0.5877  0.6981 -0.8869
  485MOL0     H66890   7.779   6.704   3.149  2.0863  2.0183  0.9664
  485MOL0     H66891   7.878   6.628   3.271 -0.5534 -1.6665  0.3593
  485MOL0     H66892   8.121   6.334   3.423 -2.5777  1.4468  0.2989
  485MOL0     H66893   8.284   6.236   3.570 -1.7385  0.8177  2.3429
  485MOL0     H66894   8.154   5.866   3.790 -0.3613  0.5290 -0.0646
  485MOL0     H66895   8.276   5.825   3.651  3.0238  1.5510 -1.6075
  485MOL0     H66896   8.350   5.929   3.936  2.9871  0.1593  1.3148
  485MOL0     H66897   8.359   5.766   3.875  3.0649 -1.4562 -0.7016
  485MOL0     H66898   8.504   6.016   3.787  3.9342 -0.2158  2.3603
  485MOL0     H66899   8.532   5.878   3.691  1.9286  0.8257  0.5987
  485MOL0     H66900   8.602   5.748   3.898 -0.3953 -0.7358 -3.9196
  485MOL0     H66901   8.591   5.897   4.002  0.8618 -0.9313 -1.0359
  485MOL0     H66902   8.774   5.991   3.867  2.1450 -0.7267 -0.8887
  485MOL0     H66903   8.821   5.833   3.923  2.2869  2.0029 -0.8201
  485MOL0     H66904   8.732   5.840   3.635  3.3525  2.1544 -2.5228
  485MOL0     H66905   8.783   5.715   3.731  0.0764  0.8258 -2.6438
  485MOL0     H66906   8.936   5.965   3.663 -2.0536  0.3043 -1.2578
  485MOL0     H66907   8.955   5.809   3.580 -1.0112 -0.1632  0.3421
  485MOL0     H66908   9.018   5.863   3.882  0.9090 -0.3844  0.6340
  485MOL0     H66909   9.139   5.850   3.764  0.2165  0.2699  1.1640
  485MOL0     H66910   8.034   5.886   3.613  0.3971  1.2500  1.5952
  485MOL0     H66911   7.872   5.986   3.460 -0.5137  0.3153 -1.2004
  485MOL0     H66912   7.728   6.175   3.201  1.0763  0.6231 -0.1483
  485MOL0     H66913   7.532   6.199   3.052  2.3055 -2.2111  0.9512
  485MOL0     H66914   6.263   5.243   2.823 -2.4011 -2.9854 -0.0060
  485MOL0     H66915   6.030   5.230   2.888 -2.3354 -0.7196 -1.7373
  485MOL0     H66916   5.594   5.437   2.730  0.7599  2.1750  0.6814
  485MOL0     H66917   5.372   5.498   2.759  0.7678  0.1977 -0.6727
  485MOL0     H66918   5.203   5.550   3.164 -0.7539 -0.9502 -0.9145
  485MOL0     H66919   5.265   5.706   3.111  1.2808 -0.4896 -2.9093
  485MOL0     H66920   5.029   5.742   3.159  0.4714 -0.2519 -0.6231
  485MOL0     H66921   4.996   5.579   3.104  0.4914 -0.0482  1.3816
  485MOL0     H66922   5.052   5.810   2.927 -2.5909  1.5457 -0.1143
  485MOL0     H66923   5.004   5.654   2.868  0.3280  1.8213 -0.6943
  485MOL0     H66924   4.796   5.691   3.058 -2.6643  2.4742  1.4254
  485MOL0     H66925   4.794   5.742   2.885 -0.9488  0.5733  0.0872
  485MOL0     H66926   4.820   6.124   3.039 -2.1584  0.3026 -2.4026
  485MOL0     H66927   5.425   5.526   3.195  1.8072  1.6868  0.2605
  485MOL0     H66928   5.591   5.437   3.292  0.5186 -0.2671 -1.3852
  485MOL0     H66929   5.729   5.381   3.207  2.4147  0.8771  2.0263
  485MOL0     H66930   5.697   5.564   3.233 -1.3217  0.0156  2.1290
  486MOL0     O66931   0.134   1.616   7.834 -0.3733 -0.4752 -0.2350
  486MOL0     C66932   0.162   1.685   7.736 -0.8302  0.4200  0.0094
  486MOL0     O66933   0.244   1.794   7.729  0.4968  0.5681 -0.6852
  486MOL0     C66934   0.305   1.831   7.855  0.4119 -0.2064  0.8368
  486MOL0     C66935   0.291   1.959   7.911 -0.1700  0.3074 -0.6846
  486MOL0     C66936   0.360   1.999   8.032  1.4229  0.5155  0.5162
  486MOL0     C66937   0.431   1.901   8.096 -0.2032  0.1419 -0.1394
  486MOL0     O66938   0.479   1.943   8.222 -0.2837  0.0494 -0.0774
  486MOL0     C66939   0.614   1.897   8.247  1.0175  0.1317 -0.0299
  486MOL0     C66940   0.658   1.995   8.363  0.9641 -0.2336  0.3970
  486MOL0     C66941   0.799   1.955   8.404 -0.7009  0.0369 -0.4222
  486MOL0     C66942   0.809   1.823   8.473 -0.2693 -0.9484 -0.5887
  486MOL0     C66943   0.956   1.792   8.534  0.8401  0.0736 -0.0422
  486MOL0     C66944   0.987   1.854   8.681 -0.2194 -0.2358  0.7833
  486MOL0     C66945   1.129   1.831   8.737  0.9764  0.6781  0.0149
  486MOL0     C66946   1.155   1.918   8.864  0.3149  0.2339  0.2883
  486MOL0     N66947   1.300   1.923   8.871  0.1318  0.1837  0.0315
  486MOL0     C66948   1.380   2.041   8.867 -0.1262 -0.1842  0.2218
  486MOL0     C66949   1.503   1.995   8.901  0.1197  0.2201  0.6994
  486MOL0     C66950   1.631   2.070   8.906  0.7380  0.2223  0.3205
  486MOL0     C66951   1.742   2.010   8.994 -0.3459  0.3668 -0.0965
  486MOL0     C66952   1.870   2.091   8.950 -0.0869  0.8852 -0.7097
  486MOL0     C66953   1.998   2.032   8.989 -1.0008 -0.3174 -0.1076
  486MOL0     O66954   2.012   2.020   9.130  0.5190 -0.4100 -0.0305
  486MOL0     C66955   2.111   2.090   9.190 -0.1478  0.4044 -0.0100
  486MOL0     C66956   2.207   2.013   9.260  0.5210 -0.6164 -0.5485
  486MOL0     C66957   2.308   2.076   9.330  0.4088 -0.3150  0.0613
  486MOL0     C66958   2.403   1.983   9.404 -0.9512  0.0440  0.2280
  486MOL0     C66959   2.314   2.220   9.329 -0.2398  0.2491 -0.6451
  486MOL0     C66960   2.427   2.297   9.391 -0.1296 -0.8629  0.8756
  486MOL0     O66961   2.391   2.419   9.415  0.0213 -0.3935 -0.3803
  486MOL0     C66962   2.474   2.511   9.477  0.2159  0.0921  0.2021
  486MOL0     C66963   2.466   2.547   9.614 -0.7020 -0.2014  0.0897
  486MOL0     C66964   2.563   2.634   9.668  0.5726 -1.1682 -0.0139
  486MOL0     C66965   2.651   2.711   9.588  0.2576  0.5381  0.3070
  486MOL0     O66966   2.732   2.799   9.648  1.0365  0.0988 -0.5764
  486MOL0     C66967   2.817   2.889   9.568  0.1217  0.0067 -0.2650
  486MOL0     C66968   2.917   2.939   9.667 -1.0733 -0.0106 -0.4201
  486MOL0     C66969   2.858   3.039   9.769  0.0515 -0.1340 -0.0898
  486MOL0     C66970   2.968   3.099   9.866  0.0013  0.2191  0.5495
  486MOL0     C66971   2.908   3.188   9.977 -0.5599  0.2559  0.1464
  486MOL0     C66972   2.836   3.312   9.925 -1.2175 -0.1250 -0.9029
  486MOL0     C66973   2.795   3.410  10.035 -0.2400  0.2474 -1.0627
  486MOL0     C66974   2.752   3.546   9.976  0.0465  0.7184  0.0490
  486MOL0    Cl66975   2.705   3.642  10.113 -0.1987  0.1932  0.2431
  486MOL0     C66976   2.636   2.693   9.452  0.2754  0.0697  0.8179
  486MOL0     C66977   2.557   2.587   9.400 -0.0728  0.4018 -0.5627
  486MOL0     O66978   2.536   2.249   9.427 -0.0666 -0.1618 -0.8817
  486MOL0     C66979   2.222   2.293   9.245  0.3983 -0.2482  0.0670
  486MOL0     C66980   2.129   2.225   9.169 -0.3913 -0.4248 -0.4153
  486MOL0     N66981   1.496   1.855   8.912 -0.6506  0.4026  0.1869
  486MOL0     N66982   1.376   1.816   8.907 -0.5409  0.1744  0.2130
  486MOL0     C66983   0.462   1.771   8.037 -0.5232  0.4188 -0.0732
  486MOL0     C66984   0.392   1.741   7.913 -0.7151  0.3211 -0.4800
  486MOL0     C66985   0.112   1.637   7.607 -0.3470  0.8358 -0.1746
  486MOL0     C66986   0.205   1.612   7.508 -0.1915  0.4563 -0.1293
  486MOL0     C66987   0.169   1.560   7.387  0.1665 -0.6116  0.5823
  486MOL0     C66988   0.030   1.532   7.359 -0.1771  0.0866 -0.1490
  486MOL0     O66989  -0.021   1.486   7.247  0.7128 -0.3740  0.8087
  486MOL0     C66990   0.071   1.453   7.141 -0.1328  0.2778 -0.0762
  486MOL0     C66991   0.008   1.429   7.010  0.1901 -0.1073 -0.5984
  486MOL0     C66992  -0.061   1.559   6.965  0.4738  0.0496  0.4823
  486MOL0     C66993  -0.210   1.530   6.940 -0.4891  0.6105  1.0705
  486MOL0     C66994  -0.262   1.634   6.849  0.5925 -0.3121 -0.2476
  486MOL0     C66995  -0.294   1.731   6.771 -1.5874  0.3656 -0.0560
  486MOL0     C66996  -0.065   1.568   7.459 -1.1857 -0.7958  1.4240
  486MOL0     C66997  -0.017   1.605   7.583  0.7185  0.5823 -0.6880
  486MOL0     C66998  -0.119   1.631   7.692 -0.7624 -0.6306  0.4643
  486MOL0     H66999   0.230   2.026   7.852  1.8372  1.2701 -1.7557
  486MOL0     H67000   0.341   2.092   8.086 -0.9644  0.2808  0.1731
  486MOL0     H67001   0.685   1.899   8.164  1.5489 -0.4005  0.4024
  486MOL0     H67002   0.612   1.794   8.283  0.8400  0.1292 -0.0470
  486MOL0     H67003   0.655   2.095   8.318 -2.1307 -0.3363  0.1857
  486MOL0     H67004   0.585   2.015   8.441 -2.0623 -1.3019 -1.9836
  486MOL0     H67005   0.869   1.965   8.321 -0.2426  4.0749  0.2593
  486MOL0     H67006   0.843   2.034   8.465  1.7291 -1.6243  0.1386
  486MOL0     H67007   0.734   1.818   8.553  1.0954 -2.5072  0.6572
  486MOL0     H67008   0.789   1.741   8.403  3.0517 -0.5830 -2.1151
  486MOL0     H67009   1.028   1.839   8.468  0.4582  3.4518  1.7551
  486MOL0     H67010   0.974   1.684   8.542  1.6857  0.2040 -0.1483
  486MOL0     H67011   0.971   1.962   8.679 -0.4776 -0.2701  1.0383
  486MOL0     H67012   0.918   1.797   8.744  1.4280 -1.6426  1.3907
  486MOL0     H67013   1.205   1.852   8.661  1.5622 -2.5052 -0.4238
  486MOL0     H67014   1.130   1.727   8.771 -0.7172  0.6383  0.0073
  486MOL0     H67015   1.125   2.022   8.847 -2.2906 -0.3172  1.0859
  486MOL0     H67016   1.106   1.875   8.952  0.7666 -1.8039 -0.3996
  486MOL0     H67017   1.349   2.140   8.835 -0.8025 -0.5618 -0.3078
  486MOL0     H67018   1.617   2.175   8.935  0.6144 -0.5268  3.3223
  486MOL0     H67019   1.681   2.071   8.809  1.5586  0.0135  0.7280
  486MOL0     H67020   1.722   2.017   9.102  2.1631  1.7167  0.3483
  486MOL0     H67021   1.758   1.905   8.968  3.1130  1.1114 -1.5198
  486MOL0     H67022   1.881   2.114   8.844  1.5781  1.0328 -0.5343
  486MOL0     H67023   1.857   2.194   8.985 -0.7484  0.4247  0.4656
  486MOL0     H67024   2.009   1.930   8.952 -0.6616 -0.7548  1.1476
  486MOL0     H67025   2.074   2.096   8.944 -0.7771  0.4096  1.2406
  486MOL0     H67026   2.184   1.907   9.254  0.3690 -0.5474 -5.2968
  486MOL0     H67027   2.389   1.879   9.371 -0.4440  0.0557 -0.0347
  486MOL0     H67028   2.393   2.002   9.511  3.3343  0.8600  0.6785
  486MOL0     H67029   2.502   2.018   9.373 -1.4172 -0.4491 -1.9412
  486MOL0     H67030   2.398   2.494   9.681 -0.2016 -0.0973  0.6946
  486MOL0     H67031   2.565   2.640   9.777 -1.6019 -1.0268  0.0710
  486MOL0     H67032   2.873   2.831   9.494  1.1648  0.1706  0.3742
  486MOL0     H67033   2.756   2.967   9.522 -0.5321  1.2811  2.5452
  486MOL0     H67034   2.961   2.858   9.725  0.8858  1.7673  0.7402
  486MOL0     H67035   3.008   2.978   9.620  0.1159 -2.7541 -0.5578
  486MOL0     H67036   2.786   2.980   9.826 -2.5596  1.0764 -1.9230
  486MOL0     H67037   2.802   3.121   9.724 -0.2511 -0.0447  0.4347
  486MOL0     H67038   3.042   3.164   9.818 -1.3676  2.5965  1.4766
  486MOL0     H67039   3.025   3.021   9.917 -2.8393 -1.3112  1.5744
  486MOL0     H67040   2.833   3.129  10.030 -0.7734 -2.1784 -2.6305
  486MOL0     H67041   2.980   3.213  10.056 -1.2395 -0.3246  0.9600
  486MOL0     H67042   2.743   3.285   9.874 -1.7737  1.4883 -0.8024
  486MOL0     H67043   2.894   3.380   9.862 -2.6480  1.1552 -0.8820
  486MOL0     H67044   2.888   3.432  10.088 -0.4958 -0.5694 -0.2700
  486MOL0     H67045   2.723   3.363  10.101 -0.4761  2.2398  0.1753
  486MOL0     H67046   2.669   3.536   9.906 -0.0100  0.9207  0.0862
  486MOL0     H67047   2.835   3.597   9.925 -0.5794  2.1516  0.4280
  486MOL0     H67048   2.683   2.760   9.381 -0.5130  0.9889  1.1392
  486MOL0     H67049   2.538   2.583   9.293 -0.6882  3.0939 -0.6341
  486MOL0     H67050   2.208   2.401   9.243 -2.6990 -0.5544 -0.3533
  486MOL0     H67051   2.054   2.284   9.116 -0.9352 -0.2469  0.5289
  486MOL0     H67052   0.520   1.701   8.096  0.2381 -0.4250 -1.7728
  486MOL0     H67053   0.420   1.648   7.865 -2.5702 -1.3098  1.3927
  486MOL0     H67054   0.307   1.632   7.538 -0.3734 -2.7199  3.2008
  486MOL0     H67055   0.244   1.524   7.317 -0.0882 -2.3506  1.1600
  486MOL0     H67056   0.144   1.534   7.131 -0.9656  1.0206 -0.1973
  486MOL0     H67057   0.125   1.363   7.172 -2.5570 -0.8196  1.2232
  486MOL0     H67058  -0.064   1.349   7.031  0.4609 -0.8328 -2.2315
  486MOL0     H67059   0.073   1.389   6.931 -0.3869  0.4970 -1.4068
  486MOL0     H67060  -0.050   1.638   7.039 -2.2568  3.6636 -2.5460
  486MOL0     H67061  -0.015   1.590   6.871  0.8621 -0.1386  0.6074
  486MOL0     H67062  -0.267   1.523   7.033 -0.5551  2.3038  1.1899
  486MOL0     H67063  -0.216   1.434   6.887  0.8482  3.1038 -4.3671
  486MOL0     H67064  -0.331   1.804   6.701 -2.1218  0.2522  0.1036
  486MOL0     H67065  -0.173   1.563   7.452 -1.6037  0.6655  4.7398
  486MOL0     H67066  -0.096   1.727   7.739 -2.9799  1.0424 -1.6487
  486MOL0     H67067  -0.221   1.631   7.653 -0.7980 -0.0324  0.5544
  486MOL0     H67068  -0.114   1.542   7.757 -1.0184 -0.2403  1.0246
  487MOL0     O67069   7.731   9.449   3.804  0.2104 -0.1353 -0.1281
  487MOL0     C67070   7.672   9.501   3.712 -0.2991 -0.2826  0.1127
  487MOL0     O67071   7.713   9.507   3.578 -0.1007 -0.0185 -0.0408
  487MOL0     C67072   7.807   9.415   3.541  0.5218  0.3500  0.2330
  487MOL0     C67073   7.939   9.444   3.529 -0.4615  0.8797  0.6831
  487MOL0     C67074   8.024   9.347   3.476  0.5297 -0.0706  0.0056
  487MOL0     C67075   7.987   9.214   3.455  0.1429 -0.2727 -1.0331
  487MOL0     O67076   8.082   9.131   3.404 -0.1108  0.1939  0.4702
  487MOL0     C67077   8.046   8.989   3.376  0.0554  0.1417 -1.0505
  487MOL0     C67078   8.153   8.913   3.303 -0.3470 -0.0529 -0.4420
  487MOL0     C67079   8.191   8.973   3.172  1.0622  0.3067 -0.2088
  487MOL0     C67080   8.296   8.879   3.093 -0.2811  0.0347 -0.2077
  487MOL0     C67081   8.286   8.725   3.094 -0.3728  0.0881  0.0386
  487MOL0     C67082   8.357   8.665   2.969 -0.4493  0.2842 -0.4599
  487MOL0     C67083   8.351   8.513   2.977 -0.1803 -0.0683 -0.3559
  487MOL0     C67084   8.412   8.435   3.102 -0.1282 -0.6194 -0.7527
  487MOL0     N67085   8.564   8.451   3.098  0.6812  0.2100 -1.0812
  487MOL0     C67086   8.648   8.381   3.022 -0.1202 -0.2869  0.2650
  487MOL0     C67087   8.769   8.425   3.056  0.5960 -0.1310 -0.2414
  487MOL0     C67088   8.906   8.380   3.004  0.9188 -1.3739 -0.2305
  487MOL0     C67089   8.932   8.235   3.070 -0.9452 -0.8085  0.2263
  487MOL0     C67090   8.959   8.123   2.961  0.5200  0.2310 -0.5620
  487MOL0     C67091   9.089   8.139   2.874 -0.3005 -0.3282  0.0783
  487MOL0     O67092   9.207   8.167   2.950 -0.0135 -0.3792  0.3194
  487MOL0     C67093   9.324   8.126   2.899 -0.5952  0.5371 -0.1099
  487MOL0     C67094   9.344   8.069   2.777 -0.3014 -0.1025 -0.0065
  487MOL0     C67095   9.469   8.016   2.749  0.0172  0.2621  0.3964
  487MOL0     C67096   9.489   7.974   2.606 -0.1638 -0.2467 -0.7829
  487MOL0     C67097   9.575   8.003   2.848  0.2053 -0.3031  0.2793
  487MOL0     C67098   9.706   7.931   2.825 -0.1935 -0.5166  0.0445
  487MOL0     O67099   9.775   7.892   2.930 -0.3902  0.3503  0.3507
  487MOL0     C67100   9.872   7.795   2.916  0.9255  0.1687  0.5656
  487MOL0     C67101   9.835   7.664   2.878 -0.4267  0.6670  0.0109
  487MOL0     C67102   9.924   7.556   2.898  0.1928  0.1557  0.7502
  487MOL0     C67103  10.063   7.594   2.952  0.5696  0.8599 -0.0696
  487MOL0     O67104  10.162   7.507   2.959  0.0663  0.5195 -1.0754
  487MOL0     C67105  10.146   7.366   2.990  0.3813 -0.4450  0.6325
  487MOL0     C67106  10.114   7.340   3.140 -0.2950  0.1259 -0.8726
  487MOL0     C67107   9.964   7.388   3.187  0.8414  0.2148 -0.3712
  487MOL0     C67108   9.921   7.349   3.326 -0.6243 -0.2090  0.0623
  487MOL0     C67109   9.774   7.392   3.349  0.6177  0.1783  0.1676
  487MOL0     C67110   9.722   7.325   3.483  0.0879 -0.7253 -0.0528
  487MOL0     C67111   9.787   7.384   3.611 -0.2580  1.1252 -0.8095
  487MOL0     C67112   9.829   7.272   3.718  0.1104 -0.7066  0.1384
  487MOL0    Cl67113   9.816   7.360   3.871  0.0944 -0.3795 -0.0662
  487MOL0     C67114  10.088   7.724   2.979 -0.5355  0.2725 -0.5275
  487MOL0     C67115  10.000   7.828   2.971 -0.3701  0.0163 -1.1668
  487MOL0     O67116   9.747   7.932   2.710 -0.6715  0.8368  0.1403
  487MOL0     C67117   9.542   8.058   2.971  0.0052  0.0646 -0.4565
  487MOL0     C67118   9.423   8.119   2.999  0.1540 -1.1933  1.0605
  487MOL0     N67119   8.757   8.513   3.163  0.1623  0.3020  1.0494
  487MOL0     N67120   8.634   8.541   3.168  0.4500 -0.6989  0.2991
  487MOL0     C67121   7.851   9.182   3.480  0.2529 -0.6115 -1.0649
  487MOL0     C67122   7.760   9.287   3.512  0.6555  0.2556 -0.3817
  487MOL0     C67123   7.537   9.539   3.740  0.4313 -1.5701 -0.7015
  487MOL0     C67124   7.454   9.555   3.624  0.6787 -0.7663  0.1006
  487MOL0     C67125   7.324   9.583   3.625  0.0229  0.0675  0.7333
  487MOL0     C67126   7.257   9.604   3.747 -0.6504 -0.6195 -0.0467
  487MOL0     O67127   7.123   9.638   3.756 -0.5159 -0.3735 -0.8651
  487MOL0     C67128   7.039   9.614   3.873  0.4534 -0.1733 -0.6627
  487MOL0     C67129   7.018   9.474   3.936 -1.0560  0.5403 -0.5030
  487MOL0     C67130   6.986   9.378   3.823  0.3961 -0.0052 -0.6818
  487MOL0     C67131   6.979   9.250   3.894  0.3920 -1.0520  0.4750
  487MOL0     C67132   6.974   9.140   3.795 -1.5799  0.2912 -0.0304
  487MOL0     C67133   6.967   9.044   3.718 -0.0761 -1.3387 -0.2259
  487MOL0     C67134   7.336   9.588   3.861  0.1695 -0.8224  0.5464
  487MOL0     C67135   7.474   9.570   3.865 -0.1388  0.7957  0.2758
  487MOL0     C67136   7.534   9.559   3.995 -0.3955  0.8925 -0.6532
  487MOL0     H67137   7.984   9.540   3.554  1.0981  0.4080 -0.2010
  487MOL0     H67138   8.129   9.371   3.457  1.0992 -1.2418  1.4765
  487MOL0     H67139   7.963   8.990   3.305 -0.4676 -0.6127 -0.4644
  487MOL0     H67140   8.023   8.936   3.469 -0.7806  0.1214 -1.2618
  487MOL0     H67141   8.232   8.912   3.378 -1.2508  0.7561  0.5554
  487MOL0     H67142   8.115   8.811   3.293 -0.8683  0.0692  0.1717
  487MOL0     H67143   8.104   8.973   3.106 -0.7689 -1.7579  2.0363
  487MOL0     H67144   8.232   9.074   3.181  3.5477 -0.6767  0.3310
  487MOL0     H67145   8.295   8.914   2.989  1.4546  1.3876  0.1754
  487MOL0     H67146   8.396   8.904   3.129 -0.7480 -0.4069  1.5009
  487MOL0     H67147   8.182   8.693   3.096  0.0292 -1.2274  1.2326
  487MOL0     H67148   8.327   8.685   3.187  0.7070 -4.4809 -2.1101
  487MOL0     H67149   8.313   8.706   2.878 -1.9806 -0.5991 -0.1400
  487MOL0     H67150   8.462   8.697   2.965  0.6384 -2.9760 -1.4792
  487MOL0     H67151   8.403   8.489   2.884 -0.1793  1.2861 -0.7192
  487MOL0     H67152   8.246   8.483   2.966 -0.8310  1.6897  0.7075
  487MOL0     H67153   8.372   8.478   3.194  2.1245 -2.4790  1.2460
  487MOL0     H67154   8.375   8.332   3.091 -2.6114  0.0438  0.7022
  487MOL0     H67155   8.617   8.323   2.936 -0.0144  3.2273 -2.3676
  487MOL0     H67156   8.981   8.452   3.037 -0.9217  1.9673 -2.6618
  487MOL0     H67157   8.904   8.381   2.894 -0.3504 -2.2812 -0.2388
  487MOL0     H67158   9.026   8.248   3.125 -1.8592 -1.2503  1.9370
  487MOL0     H67159   8.849   8.207   3.135 -0.8928 -0.7141  0.3353
  487MOL0     H67160   8.962   8.026   3.011 -0.0939  0.7816  0.5825
  487MOL0     H67161   8.880   8.135   2.886  0.0580  1.7889  0.1131
  487MOL0     H67162   9.109   8.045   2.822  1.0144  0.8772 -1.7482
  487MOL0     H67163   9.065   8.220   2.804 -2.2304 -0.8864  0.0327
  487MOL0     H67164   9.272   8.090   2.699 -0.6975  1.2841  0.6924
  487MOL0     H67165   9.505   7.866   2.599 -1.1322 -0.3060 -2.5888
  487MOL0     H67166   9.572   8.034   2.566  0.2641 -0.4394 -0.2050
  487MOL0     H67167   9.398   7.999   2.551 -0.3485  0.7729 -0.0305
  487MOL0     H67168   9.738   7.659   2.830 -0.5497 -1.9448  0.3989
  487MOL0     H67169   9.905   7.450   2.880  1.7772 -0.6330  3.2896
  487MOL0     H67170  10.069   7.315   2.930  0.7117 -1.3938  0.9920
  487MOL0     H67171  10.241   7.315   2.970  0.0784 -0.2855 -1.4859
  487MOL0     H67172  10.137   7.234   3.153  3.2501  0.8995  0.3152
  487MOL0     H67173  10.193   7.385   3.201 -0.4852  0.1644 -0.6527
  487MOL0     H67174   9.893   7.354   3.111  1.0137  0.9448 -0.8624
  487MOL0     H67175   9.968   7.497   3.187  3.4081  0.1962  1.2159
  487MOL0     H67176   9.975   7.405   3.403 -2.5291 -1.8528  2.7383
  487MOL0     H67177   9.943   7.243   3.341  0.8560  0.2307  1.2223
  487MOL0     H67178   9.769   7.501   3.355  1.1577  0.1405  2.2490
  487MOL0     H67179   9.717   7.342   3.271  1.5209 -0.4054 -0.1328
  487MOL0     H67180   9.733   7.216   3.476 -3.3236 -1.0730 -2.5588
  487MOL0     H67181   9.612   7.330   3.484 -0.2190 -4.5377  1.0406
  487MOL0     H67182   9.714   7.454   3.653  1.8166  0.3859  4.8185
  487MOL0     H67183   9.874   7.448   3.597  1.3386 -1.1151 -1.5720
  487MOL0     H67184   9.930   7.234   3.699 -0.4821 -1.4429 -1.7591
  487MOL0     H67185   9.762   7.186   3.724 -0.2382 -0.5056 -0.7646
  487MOL0     H67186  10.187   7.739   3.019  0.1650 -3.3757 -0.5147
  487MOL0     H67187  10.026   7.925   3.013 -1.0283 -0.4489  0.3765
  487MOL0     H67188   9.623   8.063   3.044 -2.1848  2.5825  2.0644
  487MOL0     H67189   9.392   8.173   3.088 -1.2324 -0.3397  0.1035
  487MOL0     H67190   7.820   9.078   3.478  1.8557 -1.1357 -0.2727
  487MOL0     H67191   7.655   9.270   3.529  0.4632  2.9789  2.0666
  487MOL0     H67192   7.495   9.528   3.527 -2.7420  2.1057 -2.3706
  487MOL0     H67193   7.271   9.598   3.532  0.2618  0.1229  0.6058
  487MOL0     H67194   7.069   9.683   3.952 -2.5747 -0.8027  1.1618
  487MOL0     H67195   6.939   9.641   3.839  1.0313  0.4271 -1.9670
  487MOL0     H67196   6.924   9.478   3.993 -2.2462 -2.6616 -2.0176
  487MOL0     H67197   7.101   9.457   4.005 -1.2838  4.3179  0.9921
  487MOL0     H67198   6.898   9.401   3.762 -0.2635  2.7564  1.1411
  487MOL0     H67199   7.073   9.370   3.756  0.0170 -0.7258 -1.1056
  487MOL0     H67200   6.889   9.250   3.956 -0.8885  1.8382 -1.1787
  487MOL0     H67201   7.070   9.250   3.956  1.2257 -0.8450 -0.7115
  487MOL0     H67202   6.971   8.962   3.649 -1.1883 -0.0775 -1.8435
  487MOL0     H67203   7.282   9.614   3.952  1.0912  1.5845  0.4672
  487MOL0     H67204   7.552   9.451   3.992 -1.5405  0.6996 -0.8499
  487MOL0     H67205   7.631   9.611   3.998  0.3336 -0.1427  5.3327
  487MOL0     H67206   7.474   9.590   4.081  2.2214  0.4439  1.4703
  488MOL0     O67207   3.111  10.787   1.088  0.3647 -0.3755  0.5896
  488MOL0     C67208   3.208  10.858   1.108 -0.9930 -0.3282 -0.1485
  488MOL0     O67209   3.322  10.858   1.029 -0.3009 -0.3018 -0.1902
  488MOL0     C67210   3.316  10.805   0.898  0.1177  0.2249  0.0226
  488MOL0     C67211   3.314  10.887   0.794  0.2695 -1.1222 -0.8967
  488MOL0     C67212   3.288  10.839   0.665 -0.5213  0.1836  0.5219
  488MOL0     C67213   3.264  10.704   0.647 -0.2092  0.2005 -0.4805
  488MOL0     O67214   3.236  10.662   0.519  0.2683 -0.6607 -0.4826
  488MOL0     C67215   3.125  10.578   0.512  0.5816  0.1734 -0.8399
  488MOL0     C67216   3.083  10.579   0.370  1.0919  0.6614 -0.4855
  488MOL0     C67217   2.993  10.466   0.332  0.8958 -0.1302  0.1913
  488MOL0     C67218   2.966  10.470   0.179 -0.2469  0.4490  0.4784
  488MOL0     C67219   2.879  10.356   0.142 -0.0928 -0.3205  0.0664
  488MOL0     C67220   2.934  10.212   0.170  0.3138  0.0493 -1.0098
  488MOL0     C67221   2.858  10.110   0.087 -0.4056  0.1628  0.1731
  488MOL0     C67222   2.888   9.966   0.128  0.4315 -0.8647 -0.3734
  488MOL0     N67223   3.036   9.950   0.121 -0.8050  0.0075 -0.2932
  488MOL0     C67224   3.121   9.992   0.015  0.7003  0.4529  0.0750
  488MOL0     C67225   3.251   9.988   0.067  0.8549  0.5861  0.4626
  488MOL0     C67226   3.378  10.032  -0.003 -1.1498 -0.3090 -0.7327
  488MOL0     C67227   3.461  10.127   0.080  0.3888 -0.1421  0.4893
  488MOL0     C67228   3.386  10.268   0.084  0.2202 -0.1737  0.2810
  488MOL0     C67229   3.404  10.346   0.213  0.1378  0.5686 -0.4308
  488MOL0     O67230   3.344  10.274   0.322 -0.4336 -0.3300 -0.3909
  488MOL0     C67231   3.418  10.254   0.435  0.5394 -0.0551 -0.2692
  488MOL0     C67232   3.462  10.361   0.518  0.6118 -0.0300  0.3436
  488MOL0     C67233   3.536  10.333   0.641  0.3150  0.2234  0.7778
  488MOL0     C67234   3.579  10.459   0.719  0.2021  0.4824 -0.5167
  488MOL0     C67235   3.575  10.196   0.675  0.6445 -0.2098  0.0486
  488MOL0     C67236   3.662  10.164   0.798 -0.4610  0.3346  0.4302
  488MOL0     O67237   3.727  10.270   0.853 -0.7657 -0.2678  0.1676
  488MOL0     C67238   3.838  10.251   0.933 -0.9960  0.0777  1.0093
  488MOL0     C67239   3.962  10.228   0.865  0.7073  0.7967 -0.4913
  488MOL0     C67240   4.073  10.210   0.947 -0.2429 -0.1098  0.5587
  488MOL0     C67241   4.062  10.200   1.083  0.3548  0.0664 -1.2350
  488MOL0     O67242   4.179  10.195   1.152 -0.4636 -0.1713  0.0508
  488MOL0     C67243   4.170  10.101   1.262 -0.6722 -0.6121 -0.1333
  488MOL0     C67244   4.303  10.039   1.265 -0.6686  0.8263  0.7305
  488MOL0     C67245   4.420  10.140   1.270 -0.1759  0.4217 -0.4520
  488MOL0     C67246   4.534  10.065   1.220 -1.4903 -0.0382  0.0432
  488MOL0     C67247   4.674  10.122   1.257  0.1985  0.2697 -0.3801
  488MOL0     C67248   4.717  10.106   1.408  0.1889  0.5875 -0.3959
  488MOL0     C67249   4.843  10.177   1.456  0.4384 -0.8314 -0.6511
  488MOL0     C67250   4.855  10.137   1.609  0.0690  0.5099  0.1400
  488MOL0    Cl67251   4.970  10.237   1.722 -0.1677  0.1483  0.2691
  488MOL0     C67252   3.934  10.225   1.143 -0.2521 -0.1604  0.0032
  488MOL0     C67253   3.826  10.243   1.070 -0.4666 -0.5697  0.3311
  488MOL0     O67254   3.662  10.048   0.838  0.1822 -0.4821 -0.0363
  488MOL0     C67255   3.517  10.090   0.600 -0.4998  0.9849  0.1944
  488MOL0     C67256   3.444  10.123   0.482  0.0172 -0.6702  0.9528
  488MOL0     N67257   3.242   9.930   0.197  0.7050 -0.3745 -0.0288
  488MOL0     N67258   3.119   9.919   0.232 -0.6379 -0.0026 -0.0188
  488MOL0     C67259   3.278  10.620   0.759 -1.2112 -0.0428 -0.0284
  488MOL0     C67260   3.292  10.666   0.888 -0.0913  0.8641 -0.0552
  488MOL0     C67261   3.211  10.946   1.223 -0.3503  0.5622 -1.0155
  488MOL0     C67262   3.338  10.973   1.274 -0.0303 -0.5331 -0.0593
  488MOL0     C67263   3.366  11.059   1.379  1.1473  0.0235  0.5950
  488MOL0     C67264   3.254  11.109   1.446 -1.6348  0.5917 -0.8526
  488MOL0     O67265   3.273  11.154   1.573 -1.3425  0.2212 -0.1489
  488MOL0     C67266   3.336  11.288   1.583  0.0830  0.8222 -0.4842
  488MOL0     C67267   3.243  11.408   1.557  0.6838  0.6355 -0.9823
  488MOL0     C67268   3.107  11.383   1.595  0.1993  0.0710 -0.8180
  488MOL0     C67269   3.016  11.502   1.581 -0.3459 -0.3381  1.1912
  488MOL0     C67270   2.871  11.456   1.593  0.2534 -0.5030 -0.4643
  488MOL0     C67271   2.753  11.426   1.604 -0.9626 -0.9110  0.0155
  488MOL0     C67272   3.128  11.084   1.395 -0.6051 -0.1132  0.0556
  488MOL0     C67273   3.105  11.008   1.282  0.4972 -0.1865 -0.3286
  488MOL0     C67274   2.958  11.009   1.227 -0.3829 -0.0288  0.2691
  488MOL0     H67275   3.343  10.990   0.807 -2.2510 -0.4335 -0.2117
  488MOL0     H67276   3.287  10.905   0.579 -0.5661 -1.0866 -0.4735
  488MOL0     H67277   3.042  10.619   0.571  1.5571 -0.4758  1.0664
  488MOL0     H67278   3.155  10.478   0.545  3.9532  1.0850 -0.7387
  488MOL0     H67279   3.040  10.679   0.362  0.0307  0.0971 -2.1130
  488MOL0     H67280   3.170  10.581   0.303  0.3656  2.0724 -1.4174
  488MOL0     H67281   3.035  10.368   0.357 -0.9350 -1.2373 -0.9060
  488MOL0     H67282   2.903  10.475   0.394  1.1801  0.0263  0.5911
  488MOL0     H67283   2.918  10.568   0.168  1.6221  1.7794  2.9188
  488MOL0     H67284   3.056  10.459   0.118  0.3579  2.1175  0.9932
  488MOL0     H67285   2.853  10.359   0.036 -0.2266 -3.0488 -0.0515
  488MOL0     H67286   2.785  10.379   0.194 -0.1048 -1.2554  0.4729
  488MOL0     H67287   3.042  10.210   0.152  1.6633 -5.1090  4.4125
  488MOL0     H67288   2.919  10.177   0.273 -0.9205 -3.0774 -2.1290
  488MOL0     H67289   2.885  10.115  -0.019  2.1884  0.7057  0.8022
  488MOL0     H67290   2.752  10.134   0.104 -0.3930 -0.3070  0.9372
  488MOL0     H67291   2.840   9.941   0.223  1.7615  1.4640  1.0260
  488MOL0     H67292   2.838   9.900   0.057 -1.4991 -0.5661  0.6631
  488MOL0     H67293   3.092  10.028  -0.084 -0.2937 -1.1139 -0.2441
  488MOL0     H67294   3.354  10.083  -0.097 -1.3860  1.8167  0.4108
  488MOL0     H67295   3.424   9.939  -0.038  0.0787 -0.1830  0.4816
  488MOL0     H67296   3.463  10.076   0.177 -1.0044 -2.4993 -0.6291
  488MOL0     H67297   3.560  10.152   0.041 -0.4985  1.8246 -0.6354
  488MOL0     H67298   3.435  10.327   0.006  1.5124 -1.3884  0.1416
  488MOL0     H67299   3.279  10.259   0.061  0.7165 -0.0896 -2.3051
  488MOL0     H67300   3.513  10.360   0.214  0.1368  0.6162 -0.8260
  488MOL0     H67301   3.360  10.447   0.217  2.2227  1.5641  3.6769
  488MOL0     H67302   3.427  10.458   0.484  2.0402  0.6317  0.7003
  488MOL0     H67303   3.524  10.542   0.674 -0.8786 -1.5349 -3.2044
  488MOL0     H67304   3.688  10.472   0.713  0.2289  1.9396  1.6236
  488MOL0     H67305   3.542  10.453   0.822  0.9359  2.5598 -0.0779
  488MOL0     H67306   3.963  10.235   0.757 -0.6428  2.8121 -0.4384
  488MOL0     H67307   4.170  10.199   0.900 -0.3721  2.1055 -0.3631
  488MOL0     H67308   4.163  10.153   1.358  1.5083  0.3523 -0.4410
  488MOL0     H67309   4.088  10.033   1.239 -2.6698  1.8162 -0.7025
  488MOL0     H67310   4.307   9.965   1.346 -1.3188 -1.5807 -1.3150
  488MOL0     H67311   4.313   9.986   1.170  0.7663  2.4076 -0.0575
  488MOL0     H67312   4.437  10.164   1.376  0.9207  0.8620 -0.7184
  488MOL0     H67313   4.412  10.230   1.209  0.4550  2.0564  1.7639
  488MOL0     H67314   4.527  10.057   1.111  0.7619  1.5405 -0.2897
  488MOL0     H67315   4.545   9.959   1.244  0.6041 -0.9266 -3.8907
  488MOL0     H67316   4.756  10.081   1.198  0.5550  0.7693 -0.2391
  488MOL0     H67317   4.661  10.227   1.230 -1.2262 -0.1030 -1.2580
  488MOL0     H67318   4.729  10.002   1.438  1.9473  0.1790 -2.2380
  488MOL0     H67319   4.635  10.151   1.464 -1.0422 -2.3773  0.3106
  488MOL0     H67320   4.833  10.286   1.457 -0.3292 -0.9025  0.1451
  488MOL0     H67321   4.937  10.148   1.407  0.7222 -0.2842 -0.4410
  488MOL0     H67322   4.895  10.035   1.613 -2.2358 -0.4170  0.9688
  488MOL0     H67323   4.754  10.136   1.650 -0.0200 -0.1243 -0.0744
  488MOL0     H67324   3.934  10.230   1.251  0.5785 -0.6608  0.0334
  488MOL0     H67325   3.738  10.268   1.128  0.2800  0.2317  1.1551
  488MOL0     H67326   3.550   9.988   0.617 -0.1663  1.2127  0.9819
  488MOL0     H67327   3.404  10.035   0.432 -1.7921  0.0249  1.0931
  488MOL0     H67328   3.261  10.513   0.748  0.3135 -0.0754 -3.4352
  488MOL0     H67329   3.295  10.614   0.983 -1.0335 -0.9774 -0.9924
  488MOL0     H67330   3.422  10.921   1.228 -0.1413  1.1597 -2.3844
  488MOL0     H67331   3.459  11.092   1.426 -1.3353 -0.0523  6.5239
  488MOL0     H67332   3.377  11.300   1.683  2.2203  2.9331 -1.5101
  488MOL0     H67333   3.425  11.300   1.520 -0.7979  1.3998 -1.6594
  488MOL0     H67334   3.239  11.420   1.448  0.2701 -1.1754 -1.1958
  488MOL0     H67335   3.281  11.505   1.592 -1.7553  1.3337 -0.0202
  488MOL0     H67336   3.070  11.300   1.534  0.8996 -0.4011 -0.6171
  488MOL0     H67337   3.112  11.352   1.699 -0.0150  0.8797 -0.5595
  488MOL0     H67338   3.015  11.549   1.482 -2.7454  2.1161  2.2638
  488MOL0     H67339   3.037  11.582   1.653 -1.5835  1.6376 -0.5122
  488MOL0     H67340   2.653  11.395   1.629 -1.7331  2.0268  1.0015
  488MOL0     H67341   3.044  11.125   1.450 -0.5335  4.3080 -2.6455
  488MOL0     H67342   2.893  10.957   1.297  0.7869 -0.7639  0.8458
  488MOL0     H67343   2.926  11.112   1.211  0.4975  0.7058  2.7954
  488MOL0     H67344   2.949  10.969   1.125  2.7842 -0.4800  0.0490
  489MOL0     O67345   2.867   7.661   8.482  0.3173  0.3023  0.0967
  489MOL0     C67346   2.968   7.642   8.419 -0.1095  0.5064 -0.6797
  489MOL0     O67347   3.016   7.718   8.309  0.1876  0.0990  0.0279
  489MOL0     C67348   2.933   7.808   8.249  0.1205 -0.3936 -0.4687
  489MOL0     C67349   2.796   7.785   8.230 -0.5449 -0.3895 -0.5282
  489MOL0     C67350   2.718   7.871   8.153 -0.0306 -0.0317 -0.7006
  489MOL0     C67351   2.774   7.980   8.097 -0.1044 -0.7412  1.0631
  489MOL0     O67352   2.711   8.055   8.000  0.9143  0.2998  0.0231
  489MOL0     C67353   2.575   8.034   7.959  0.0680  0.4249  0.3406
  489MOL0     C67354   2.537   8.123   7.844  0.2671 -0.4712 -0.1757
  489MOL0     C67355   2.570   8.267   7.876 -0.0512 -0.0511 -0.1450
  489MOL0     C67356   2.543   8.367   7.762  0.9036  0.2937  0.3783
  489MOL0     C67357   2.394   8.407   7.786 -0.6438 -0.0377 -0.0379
  489MOL0     C67358   2.366   8.534   7.709  0.6815 -0.9430  0.2949
  489MOL0     C67359   2.330   8.497   7.561  0.0019 -1.0749  0.0869
  489MOL0     C67360   2.318   8.624   7.494 -0.1259 -0.5380 -0.7546
  489MOL0     N67361   2.323   8.610   7.342  1.1475  0.3882 -0.5134
  489MOL0     C67362   2.439   8.601   7.265 -0.2549 -0.5859  0.1740
  489MOL0     C67363   2.395   8.607   7.134 -1.2362 -0.2278 -0.6438
  489MOL0     C67364   2.483   8.612   7.008  0.0381  0.0135 -0.6106
  489MOL0     C67365   2.436   8.506   6.894  0.2573 -0.5728 -0.7056
  489MOL0     C67366   2.530   8.517   6.782 -0.9256 -0.9849 -0.5872
  489MOL0     C67367   2.475   8.423   6.670 -0.1943 -0.7966  1.0317
  489MOL0     O67368   2.572   8.416   6.563  0.5861 -0.0029  0.5849
  489MOL0     C67369   2.599   8.297   6.501 -1.1354 -0.7114 -0.7474
  489MOL0     C67370   2.731   8.258   6.476 -0.0363  0.2310  0.4262
  489MOL0     C67371   2.763   8.120   6.423 -0.3107 -0.8634  1.1260
  489MOL0     C67372   2.906   8.077   6.429  0.0128  0.0982  0.6497
  489MOL0     C67373   2.658   8.038   6.386  0.2637 -0.2625  0.0705
  489MOL0     C67374   2.676   7.909   6.316  0.2470  0.5100  0.3805
  489MOL0     O67375   2.785   7.908   6.238 -1.3455 -0.0461 -1.0081
  489MOL0     C67376   2.804   7.796   6.163 -0.0678 -0.7666 -0.6078
  489MOL0     C67377   2.879   7.693   6.211  0.8361  0.1603  0.1391
  489MOL0     C67378   2.893   7.575   6.131  0.7644 -0.2775  0.1606
  489MOL0     C67379   2.848   7.570   5.998 -0.1284  0.0631 -0.4595
  489MOL0     O67380   2.864   7.454   5.922 -0.8447  0.3552  0.4465
  489MOL0     C67381   2.892   7.327   5.982  1.2591  0.2319 -0.1452
  489MOL0     C67382   2.896   7.218   5.877  0.3622  0.4338 -0.6539
  489MOL0     C67383   2.904   7.081   5.951 -0.7722 -0.0096  0.2595
  489MOL0     C67384   3.045   7.053   6.005 -0.8624  0.5191 -0.6483
  489MOL0     C67385   3.055   6.938   6.102  0.2536 -0.0485 -0.1540
  489MOL0     C67386   3.041   6.806   6.023 -0.4159  0.5344 -0.5468
  489MOL0     C67387   3.058   6.676   6.100 -0.1489  0.3776  1.1464
  489MOL0     C67388   3.063   6.562   5.992  0.1448  0.0674  0.6668
  489MOL0    Cl67389   2.911   6.543   5.881 -0.4915  0.0858 -0.2721
  489MOL0     C67390   2.793   7.691   5.944  1.2553 -0.0142 -0.0868
  489MOL0     C67391   2.766   7.801   6.025 -0.5264  0.0654  0.3316
  489MOL0     O67392   2.595   7.815   6.334  0.0627  0.0705  0.6995
  489MOL0     C67393   2.527   8.081   6.406  0.0630  0.8405 -0.0208
  489MOL0     C67394   2.500   8.211   6.451 -0.4081 -0.0886 -0.9356
  489MOL0     N67395   2.259   8.626   7.131 -0.8499  0.4304  0.0273
  489MOL0     N67396   2.218   8.612   7.256  1.0048  0.0498 -0.0514
  489MOL0     C67397   2.907   8.019   8.126 -0.0222  0.0880  0.0432
  489MOL0     C67398   2.989   7.925   8.196 -0.3904  1.0062  0.2060
  489MOL0     C67399   3.055   7.525   8.445  0.3112  0.0048  0.4756
  489MOL0     C67400   3.188   7.543   8.444 -0.1266 -0.1484 -0.7568
  489MOL0     C67401   3.277   7.441   8.481 -0.4226  0.6548 -0.5982
  489MOL0     C67402   3.229   7.316   8.522 -0.3865 -0.0201  0.6494
  489MOL0     O67403   3.316   7.212   8.538 -0.6927  0.0750  0.2883
  489MOL0     C67404   3.344   7.141   8.412  0.7840  0.3148  0.1989
  489MOL0     C67405   3.459   7.205   8.329  0.6594  0.6678 -0.0156
  489MOL0     C67406   3.529   7.118   8.227  0.6609 -1.0491 -0.0903
  489MOL0     C67407   3.617   7.212   8.148 -0.6164  0.0002  0.2789
  489MOL0     C67408   3.648   7.187   8.013  0.3433 -0.7795  0.6272
  489MOL0     C67409   3.691   7.176   7.896  0.0450 -0.2916  0.2948
  489MOL0     C67410   3.096   7.299   8.529  0.2580  0.3035 -0.2623
  489MOL0     C67411   3.006   7.402   8.490 -0.1491  0.3426 -1.1145
  489MOL0     C67412   2.859   7.376   8.496 -0.5335 -0.4259 -0.3175
  489MOL0     H67413   2.747   7.701   8.276 -0.8470  0.6292  1.0771
  489MOL0     H67414   2.616   7.836   8.141  0.9829 -3.1744 -1.0714
  489MOL0     H67415   2.497   8.038   8.037 -1.8575 -1.7450 -1.3269
  489MOL0     H67416   2.576   7.932   7.921  1.3820  1.2043 -1.9075
  489MOL0     H67417   2.579   8.089   7.749  0.8222  0.5084 -0.3008
  489MOL0     H67418   2.429   8.115   7.826 -0.1944  4.2798 -0.9233
  489MOL0     H67419   2.524   8.285   7.974  4.1052  3.0043  1.5012
  489MOL0     H67420   2.676   8.268   7.900  0.2552  2.1084 -1.3475
  489MOL0     H67421   2.616   8.448   7.773 -0.7344  1.5005  3.3363
  489MOL0     H67422   2.545   8.318   7.664 -2.6118  0.8504 -0.0800
  489MOL0     H67423   2.385   8.433   7.892  3.3850 -3.3522  1.3857
  489MOL0     H67424   2.332   8.322   7.756 -2.1285  0.5501  1.2325
  489MOL0     H67425   2.277   8.580   7.753 -0.0630 -1.9755 -0.0632
  489MOL0     H67426   2.449   8.605   7.714 -0.7593  1.0183 -1.7272
  489MOL0     H67427   2.229   8.455   7.566 -1.0026  0.8585 -2.1158
  489MOL0     H67428   2.398   8.432   7.506 -1.0290 -0.5145 -1.9566
  489MOL0     H67429   2.233   8.689   7.515  0.9722  1.0013 -0.9345
  489MOL0     H67430   2.405   8.687   7.512  0.5634 -0.6259 -3.3133
  489MOL0     H67431   2.540   8.593   7.304  0.0848 -0.7723 -0.7199
  489MOL0     H67432   2.589   8.595   7.031 -0.7867 -1.9970  2.2517
  489MOL0     H67433   2.477   8.711   6.962  1.6754  2.0583  3.1564
  489MOL0     H67434   2.419   8.405   6.931 -1.7996 -0.5979 -1.5774
  489MOL0     H67435   2.333   8.533   6.867 -1.0108  0.0794  3.9072
  489MOL0     H67436   2.540   8.619   6.743 -1.3056 -1.1376 -1.1066
  489MOL0     H67437   2.626   8.491   6.827 -0.8843 -1.3448 -0.8776
  489MOL0     H67438   2.452   8.321   6.702 -0.7732 -0.2358  2.4746
  489MOL0     H67439   2.381   8.466   6.633  1.4360  0.9552 -1.4557
  489MOL0     H67440   2.814   8.310   6.523  0.6367 -0.3253 -0.1260
  489MOL0     H67441   2.953   8.138   6.507  2.9967 -1.1441 -0.0188
  489MOL0     H67442   2.962   8.083   6.336  1.0204 -1.7481  1.0855
  489MOL0     H67443   2.924   7.972   6.453 -1.3869 -0.7559 -1.7951
  489MOL0     H67444   2.906   7.682   6.316  3.3123 -3.0700 -0.6401
  489MOL0     H67445   2.943   7.494   6.183 -1.0325  0.3281  3.1347
  489MOL0     H67446   2.992   7.329   6.026  1.3781 -0.3910 -0.3785
  489MOL0     H67447   2.809   7.315   6.052 -1.3901  1.8632 -2.7717
  489MOL0     H67448   2.808   7.222   5.812  0.7764 -1.6326 -1.4155
  489MOL0     H67449   2.980   7.235   5.809  0.2863 -2.5740 -1.6312
  489MOL0     H67450   2.875   7.008   5.875  2.6035 -0.5086 -0.7402
  489MOL0     H67451   2.826   7.072   6.026 -1.4815 -0.6520 -0.5325
  489MOL0     H67452   3.089   7.135   6.062 -0.0493  0.5106 -1.2529
  489MOL0     H67453   3.113   7.035   5.922  0.0894 -2.8921  0.7051
  489MOL0     H67454   3.136   6.947   6.175  1.0005  0.8635 -1.0594
  489MOL0     H67455   2.963   6.935   6.162 -0.5489  0.2212 -1.3469
  489MOL0     H67456   3.118   6.814   5.945  0.8963 -0.2146  0.6322
  489MOL0     H67457   2.942   6.799   5.978 -0.9167 -3.1936  0.7810
  489MOL0     H67458   2.976   6.648   6.167  1.3871  0.1691  3.0216
  489MOL0     H67459   3.157   6.688   6.145  0.9432  0.5092 -1.1115
  489MOL0     H67460   3.082   6.465   6.040 -0.2711  0.4138  1.5555
  489MOL0     H67461   3.152   6.581   5.932 -0.2523  4.7404  1.2298
  489MOL0     H67462   2.769   7.694   5.838  2.3394 -4.4897 -0.6390
  489MOL0     H67463   2.732   7.895   5.983  4.0591  1.5024 -0.7023
  489MOL0     H67464   2.445   8.022   6.365  1.1635 -0.5190 -0.3670
  489MOL0     H67465   2.399   8.250   6.450 -0.4972 -0.3156 -1.2288
  489MOL0     H67466   2.948   8.107   8.078 -0.0734 -0.2601 -0.6609
  489MOL0     H67467   3.093   7.955   8.210  0.2617 -1.1817  0.3864
  489MOL0     H67468   3.224   7.642   8.422 -0.1432  0.4899  1.7715
  489MOL0     H67469   3.384   7.456   8.472  0.2621 -3.3711 -0.9337
  489MOL0     H67470   3.379   7.040   8.435 -0.6404  0.5419  4.0746
  489MOL0     H67471   3.255   7.132   8.348 -1.0764 -0.6607  2.7626
  489MOL0     H67472   3.538   7.244   8.394 -0.8077  2.1609  0.9779
  489MOL0     H67473   3.396   7.285   8.289 -0.8270  1.4460  3.5011
  489MOL0     H67474   3.580   7.034   8.275 -1.3938 -1.3529  1.7135
  489MOL0     H67475   3.460   7.081   8.151 -2.0041  3.7062 -0.4044
  489MOL0     H67476   3.718   7.219   8.189  0.1613 -0.9361 -1.3717
  489MOL0     H67477   3.583   7.316   8.150 -1.0456 -0.1405  2.0555
  489MOL0     H67478   3.721   7.168   7.793 -0.5179  1.4314 -0.0261
  489MOL0     H67479   3.063   7.199   8.558 -3.0192  0.1379 -3.7902
  489MOL0     H67480   2.814   7.435   8.577  4.2841  1.5204  1.3067
  489MOL0     H67481   2.807   7.422   8.411  0.6321  0.1743 -0.7216
  489MOL0     H67482   2.831   7.270   8.498 -0.7638 -0.4611 -2.4504
  490MOL0     O67483   1.469   5.760   3.262  0.4631  0.3238  0.2750
  490MOL0     C67484   1.511   5.831   3.173 -0.2036 -0.0941  0.3767
  490MOL0     O67485   1.462   5.950   3.144  1.1549 -0.4227 -0.0621
  490MOL0     C67486   1.361   5.990   3.216 -0.0707 -0.0533  0.0087
  490MOL0     C67487   1.229   5.993   3.171 -0.2495  0.1799 -0.7664
  490MOL0     C67488   1.128   6.038   3.240 -0.1417 -0.4688  0.6642
  490MOL0     C67489   1.141   6.093   3.370 -0.1365 -0.2890  0.1147
  490MOL0     O67490   1.038   6.149   3.434 -0.6379 -0.4818 -0.8959
  490MOL0     C67491   1.028   6.102   3.569  0.6611  0.4046 -0.2949
  490MOL0     C67492   0.876   6.095   3.586  0.5452 -0.0170 -0.2321
  490MOL0     C67493   0.836   6.063   3.732 -0.2207  1.1834  0.2462
  490MOL0     C67494   0.682   6.032   3.746  0.5134  0.2426  0.1914
  490MOL0     C67495   0.604   6.144   3.813 -0.1328 -0.7466  0.0059
  490MOL0     C67496   0.585   6.264   3.714 -0.9697  0.0755 -0.7698
  490MOL0     C67497   0.480   6.356   3.771 -0.0136 -1.3475  0.6258
  490MOL0     C67498   0.550   6.465   3.861  0.3000 -0.2222  0.7611
  490MOL0     N67499   0.448   6.567   3.887 -0.0926  0.1464 -0.2555
  490MOL0     C67500   0.421   6.678   3.804 -0.4443 -0.2506 -0.3756
  490MOL0     C67501   0.349   6.764   3.885 -0.0854  0.3913  1.1160
  490MOL0     C67502   0.322   6.910   3.841  0.0195 -0.7261 -0.2890
  490MOL0     C67503   0.209   6.930   3.750 -0.2182 -0.7136 -0.0033
  490MOL0     C67504   0.187   7.071   3.716 -0.1404 -0.4332  0.4191
  490MOL0     C67505   0.297   7.145   3.646  0.3517  0.1944 -0.5605
  490MOL0     O67506   0.372   7.067   3.550  0.0629  0.0041  0.5166
  490MOL0     C67507   0.489   7.100   3.489  0.2586 -0.9658 -0.3547
  490MOL0     C67508   0.566   7.012   3.426 -0.2725 -0.0033  0.0642
  490MOL0     C67509   0.695   7.046   3.385 -0.8052  0.1136  0.9837
  490MOL0     C67510   0.781   6.939   3.314 -0.0305 -0.3367  0.3436
  490MOL0     C67511   0.750   7.175   3.414  0.6692  0.5513  0.3822
  490MOL0     C67512   0.889   7.213   3.398  0.0245 -0.4985  0.0389
  490MOL0     O67513   0.986   7.128   3.416 -0.0508  0.0829 -0.5358
  490MOL0     C67514   1.111   7.155   3.364  0.5641  0.7177  0.6050
  490MOL0     C67515   1.163   7.047   3.297  0.3059  0.2252  0.2999
  490MOL0     C67516   1.300   7.038   3.257  0.9115  0.1383  0.1012
  490MOL0     C67517   1.387   7.135   3.294 -0.5658 -0.8490  0.4863
  490MOL0     O67518   1.520   7.125   3.251  0.1893 -0.2254 -0.1516
  490MOL0     C67519   1.627   7.157   3.350  0.0451 -0.0320 -0.3595
  490MOL0     C67520   1.746   7.210   3.272  0.4672  0.2398  0.3558
  490MOL0     C67521   1.842   7.317   3.341  0.5772  0.8451  0.4144
  490MOL0     C67522   1.981   7.322   3.284  1.2125  0.4752  0.5227
  490MOL0     C67523   2.065   7.219   3.359  0.0214 -0.3012  0.0066
  490MOL0     C67524   2.214   7.217   3.339 -0.0257 -0.0115 -0.4435
  490MOL0     C67525   2.274   7.087   3.388 -0.9668 -0.0142  0.0029
  490MOL0     C67526   2.430   7.098   3.401 -0.3108 -0.0797 -0.2103
  490MOL0    Cl67527   2.503   7.141   3.251 -0.5423 -0.2862  0.0611
  490MOL0     C67528   1.332   7.245   3.366 -0.0831  0.2593 -0.7331
  490MOL0     C67529   1.194   7.256   3.401 -0.5430 -0.4957 -0.4145
  490MOL0     O67530   0.910   7.332   3.358 -0.1570  0.6659  0.6004
  490MOL0     C67531   0.664   7.261   3.481 -0.0768 -0.5350 -0.6923
  490MOL0     C67532   0.537   7.228   3.515  0.2931 -0.7996 -0.3586
  490MOL0     N67533   0.333   6.700   4.007 -0.5310  0.8498 -0.3020
  490MOL0     N67534   0.378   6.573   4.003 -0.3407  0.2120  0.4734
  490MOL0     C67535   1.270   6.086   3.424  0.5659 -0.7394  0.8301
  490MOL0     C67536   1.376   6.045   3.346 -0.0093 -0.1223  0.3650
  490MOL0     C67537   1.627   5.776   3.087 -0.3678  0.0265 -0.2428
  490MOL0     C67538   1.694   5.672   3.149 -0.7505  1.4769  0.6735
  490MOL0     C67539   1.799   5.614   3.085 -0.3902  0.5314 -0.0228
  490MOL0     C67540   1.843   5.656   2.962  0.5109  0.3023 -0.4193
  490MOL0     O67541   1.961   5.595   2.917  0.3880  0.3852 -0.3830
  490MOL0     C67542   2.022   5.637   2.793  0.0198  1.3675  0.6709
  490MOL0     C67543   2.168   5.602   2.801 -0.1568  0.0813  0.2144
  490MOL0     C67544   2.228   5.661   2.933  0.2719 -0.2311 -0.3202
  490MOL0     C67545   2.367   5.604   2.955  0.2153 -0.3752 -0.1427
  490MOL0     C67546   2.448   5.639   2.838 -0.7378 -0.5947 -0.0771
  490MOL0     C67547   2.511   5.664   2.737  0.4481 -0.2076  0.6815
  490MOL0     C67548   1.781   5.764   2.901  0.3772 -0.3773  0.0706
  490MOL0     C67549   1.665   5.826   2.958 -1.6558 -0.0305  0.4942
  490MOL0     C67550   1.596   5.931   2.869  0.0418 -0.6652  0.1435
  490MOL0     H67551   1.207   5.938   3.080 -0.5936 -0.6741 -0.1776
  490MOL0     H67552   1.031   6.018   3.194  0.3685 -0.2311 -0.5257
  490MOL0     H67553   1.075   6.167   3.643 -0.0654  3.1020 -2.0442
  490MOL0     H67554   1.074   6.004   3.580  0.0095  0.2160  0.8417
  490MOL0     H67555   0.828   6.190   3.562  2.3139  1.1836  0.8115
  490MOL0     H67556   0.846   6.016   3.517 -0.6902  0.1599  0.0737
  490MOL0     H67557   0.902   5.976   3.748 -0.8264  0.4171 -1.2782
  490MOL0     H67558   0.869   6.147   3.794  0.5365  1.0028  0.1064
  490MOL0     H67559   0.639   5.999   3.651 -2.1852  0.5428  1.2397
  490MOL0     H67560   0.675   5.951   3.820 -0.4270 -1.2552 -1.4687
  490MOL0     H67561   0.644   6.165   3.913 -1.0285  0.5398  0.1077
  490MOL0     H67562   0.501   6.111   3.827  0.0074 -1.0427  0.3856
  490MOL0     H67563   0.685   6.304   3.698 -0.4263 -0.9954 -0.1535
  490MOL0     H67564   0.553   6.232   3.615 -0.0216  1.3730 -1.5305
  490MOL0     H67565   0.402   6.296   3.817 -1.3896 -0.1908 -0.1238
  490MOL0     H67566   0.426   6.410   3.692  0.1635  0.4896  1.7104
  490MOL0     H67567   0.589   6.427   3.956  2.4489 -1.0171 -0.3609
  490MOL0     H67568   0.639   6.510   3.817 -0.0850  0.2686  0.4698
  490MOL0     H67569   0.469   6.700   3.709  0.4507  1.1616  0.3543
  490MOL0     H67570   0.413   6.946   3.792 -0.4507  2.0886  0.6966
  490MOL0     H67571   0.315   6.973   3.930  0.5255 -0.7228 -0.2469
  490MOL0     H67572   0.223   6.868   3.661 -0.7166 -1.0813  0.1690
  490MOL0     H67573   0.119   6.897   3.802 -0.7044 -0.9301 -0.9589
  490MOL0     H67574   0.101   7.085   3.650  0.0102  0.5223  0.4044
  490MOL0     H67575   0.175   7.129   3.809  0.5208 -1.9163  1.4777
  490MOL0     H67576   0.260   7.236   3.599  2.6630  1.6412  0.2259
  490MOL0     H67577   0.363   7.172   3.730 -2.5265  1.4360  1.4622
  490MOL0     H67578   0.519   6.917   3.401 -0.3611 -1.3022  4.3763
  490MOL0     H67579   0.856   6.892   3.379 -2.9172 -3.8795  1.4287
  490MOL0     H67580   0.830   6.982   3.226  1.9419 -1.2075  0.9448
  490MOL0     H67581   0.715   6.856   3.287  1.8573 -2.1345  0.9730
  490MOL0     H67582   1.098   6.960   3.286  2.0506 -1.4176  2.0593
  490MOL0     H67583   1.343   6.966   3.189  1.2926  1.0698 -0.6728
  490MOL0     H67584   1.600   7.221   3.435  3.0425 -0.7552  1.2893
  490MOL0     H67585   1.663   7.062   3.391  0.1960 -0.3805 -1.2800
  490MOL0     H67586   1.803   7.119   3.250  0.8798 -0.1809  2.8647
  490MOL0     H67587   1.708   7.259   3.182  0.7588 -0.7805 -0.3450
  490MOL0     H67588   1.844   7.300   3.449  0.3980  2.0272  0.6176
  490MOL0     H67589   1.791   7.413   3.326 -0.8300 -0.1949 -1.9969
  490MOL0     H67590   2.018   7.422   3.308 -1.0446  1.2822  0.8646
  490MOL0     H67591   1.990   7.321   3.175 -2.1866 -1.4778  0.1299
  490MOL0     H67592   2.043   7.226   3.466 -1.3232  0.0657 -0.2858
  490MOL0     H67593   2.037   7.115   3.338  1.1880 -1.2554  2.6842
  490MOL0     H67594   2.260   7.301   3.392 -0.0874 -1.0833  1.4056
  490MOL0     H67595   2.238   7.226   3.233  0.1073  0.4503 -0.3763
  490MOL0     H67596   2.264   7.013   3.308 -0.0215 -0.8755  0.6599
  490MOL0     H67597   2.223   7.057   3.480 -0.2569 -1.4318 -0.0461
  490MOL0     H67598   2.466   7.000   3.435  1.6671  1.1299  1.4515
  490MOL0     H67599   2.455   7.175   3.475 -2.2122  1.3793 -0.9961
  490MOL0     H67600   1.406   7.311   3.411  0.7384  0.7973 -2.7636
  490MOL0     H67601   1.159   7.334   3.468  1.0041  0.9605 -1.2019
  490MOL0     H67602   0.695   7.354   3.529 -1.6880 -0.8417  1.0837
  490MOL0     H67603   0.480   7.309   3.558  0.7805 -2.0530  2.9037
  490MOL0     H67604   1.300   6.128   3.520  3.3053 -2.4905  0.8519
  490MOL0     H67605   1.474   6.058   3.393  0.7893  1.8568 -1.6477
  490MOL0     H67606   1.666   5.625   3.243 -0.0877  1.9457  1.1148
  490MOL0     H67607   1.840   5.528   3.137  0.4106  0.1604 -1.2373
  490MOL0     H67608   1.972   5.590   2.708  0.0959  0.2342  1.2349
  490MOL0     H67609   2.028   5.743   2.768  2.7594  0.1546 -5.7881
  490MOL0     H67610   2.213   5.635   2.707  0.1091 -0.7630  0.0402
  490MOL0     H67611   2.185   5.495   2.813  0.1399  0.2973  2.1408
  490MOL0     H67612   2.244   5.768   2.922  0.3383 -0.4235 -2.6581
  490MOL0     H67613   2.171   5.642   3.024 -1.0327  1.6134 -0.7039
  490MOL0     H67614   2.362   5.495   2.962 -1.4188 -0.2497  1.5205
  490MOL0     H67615   2.411   5.654   3.042  2.9023  0.7065 -1.9828
  490MOL0     H67616   2.566   5.693   2.649 -2.1320 -1.7110 -1.5917
  490MOL0     H67617   1.824   5.799   2.808 -1.7337 -1.3275 -1.3522
  490MOL0     H67618   1.497   5.887   2.852 -0.2794  0.6582 -1.6598
  490MOL0     H67619   1.586   6.021   2.931  0.7558 -1.1888  1.0489
  490MOL0     H67620   1.647   5.962   2.778  1.6172  0.3669  1.3206
  491MOL0     O67621   9.781   7.698   2.311 -0.0138 -0.0767  0.2932
  491MOL0     C67622   9.879   7.766   2.286 -0.5546  0.4121  0.8459
  491MOL0     O67623   9.879   7.864   2.190  0.1302 -0.6391 -0.1744
  491MOL0     C67624   9.766   7.904   2.134  0.7579 -0.0428 -0.2537
  491MOL0     C67625   9.780   7.928   2.000  0.1402  0.7519  0.1651
  491MOL0     C67626   9.663   7.939   1.924 -0.7581 -0.0386  0.7093
  491MOL0     C67627   9.542   7.965   1.980  0.0785 -0.5642  0.6371
  491MOL0     O67628   9.443   8.007   1.896 -0.2738 -0.0713  0.4611
  491MOL0     C67629   9.315   8.023   1.934  0.1622  0.3017  0.6662
  491MOL0     C67630   9.225   7.897   1.966  0.0248 -0.4190  0.3830
  491MOL0     C67631   9.083   7.935   1.999  0.1074  0.2782 -0.1681
  491MOL0     C67632   8.996   7.823   2.040  0.2458  1.1976 -0.0073
  491MOL0     C67633   8.858   7.872   2.079  0.0039  0.0284 -0.2549
  491MOL0     C67634   8.767   7.752   2.116  0.5988  0.7596  0.7806
  491MOL0     C67635   8.632   7.807   2.177  0.0730 -0.2681 -0.3393
  491MOL0     C67636   8.527   7.696   2.179 -0.0549  0.4499 -0.3557
  491MOL0     N67637   8.544   7.599   2.289 -0.0501  0.1243 -0.8848
  491MOL0     C67638   8.632   7.491   2.299 -0.4276 -0.4286 -0.4567
  491MOL0     C67639   8.618   7.440   2.419 -0.1873 -0.1099 -0.6224
  491MOL0     C67640   8.705   7.329   2.477 -0.8639 -0.1800  0.3929
  491MOL0     C67641   8.845   7.372   2.517 -0.6973  0.2658 -0.0036
  491MOL0     C67642   8.855   7.409   2.667  0.1715  0.2348 -0.3444
  491MOL0     C67643   8.998   7.453   2.713  0.1702 -0.7305  0.2198
  491MOL0     O67644   9.093   7.348   2.678 -0.5204  0.2815 -0.0668
  491MOL0     C67645   9.225   7.356   2.725  0.8175  0.3060 -0.6407
  491MOL0     C67646   9.285   7.455   2.800  0.1282 -0.4921 -0.5223
  491MOL0     C67647   9.411   7.432   2.863 -0.9650  0.2690 -0.6275
  491MOL0     C67648   9.471   7.541   2.951 -0.0936  0.2952  0.9151
  491MOL0     C67649   9.489   7.319   2.823  0.2021 -0.0387 -0.1811
  491MOL0     C67650   9.625   7.287   2.870 -0.8986  0.2297 -0.1229
  491MOL0     O67651   9.707   7.239   2.772  0.0259 -0.2746 -0.0139
  491MOL0     C67652   9.826   7.185   2.808  0.3162  0.6416  0.8456
  491MOL0     C67653   9.927   7.191   2.717 -0.7671 -0.4401 -1.0804
  491MOL0     C67654  10.050   7.132   2.748 -0.5197  0.5037 -0.0954
  491MOL0     C67655  10.073   7.060   2.865 -0.5660  0.9771  0.9728
  491MOL0     O67656  10.186   6.986   2.893 -0.2882 -0.4213 -0.3179
  491MOL0     C67657  10.318   7.040   2.857 -0.7199 -0.4318  0.5502
  491MOL0     C67658  10.431   6.970   2.938  0.4222 -0.4613 -0.2412
  491MOL0     C67659  10.393   6.913   3.070  0.1357 -0.0396 -0.5106
  491MOL0     C67660  10.395   7.021   3.182 -0.5289 -0.2578  0.0625
  491MOL0     C67661  10.348   6.967   3.318  1.0034 -0.9584  0.4115
  491MOL0     C67662  10.334   7.082   3.425 -0.3722  0.6285 -0.2767
  491MOL0     C67663  10.305   7.016   3.564 -0.2178  1.0569 -0.0272
  491MOL0     C67664  10.292   7.130   3.666 -1.2369  0.8828 -0.6558
  491MOL0    Cl67665  10.169   7.253   3.618  0.1472 -0.0402 -0.3743
  491MOL0     C67666   9.972   7.054   2.957  0.0731 -1.0738 -0.3925
  491MOL0     C67667   9.846   7.107   2.923 -0.2352 -0.5823 -0.1699
  491MOL0     O67668   9.656   7.312   2.992 -0.2546  0.1886 -0.4568
  491MOL0     C67669   9.418   7.221   2.743 -0.5125  0.0897  0.2965
  491MOL0     C67670   9.294   7.246   2.691 -0.6714  0.2846 -0.2439
  491MOL0     N67671   8.520   7.511   2.476  0.2726 -0.7567 -0.5679
  491MOL0     N67672   8.473   7.602   2.399  0.3798  0.7025 -0.0834
  491MOL0     C67673   9.532   7.952   2.118 -0.4666 -0.1357 -1.2847
  491MOL0     C67674   9.641   7.922   2.199  0.4683  0.4933 -0.6731
  491MOL0     C67675  10.008   7.728   2.359 -0.1108 -0.4799  0.2977
  491MOL0     C67676  10.015   7.613   2.439 -0.5740  0.7321  0.2320
  491MOL0     C67677  10.132   7.556   2.498 -0.4885 -0.1289 -0.2108
  491MOL0     C67678  10.256   7.615   2.469 -0.5907 -0.1568  1.0055
  491MOL0     O67679  10.375   7.579   2.528 -0.2244  0.1532 -0.5197
  491MOL0     C67680  10.384   7.461   2.609  0.5645 -0.1418 -0.8525
  491MOL0     C67681  10.528   7.463   2.657 -0.5374 -0.4504  0.4535
  491MOL0     C67682  10.562   7.356   2.759 -0.0262  0.0452  0.2895
  491MOL0     C67683  10.698   7.383   2.821 -0.0013 -0.1751 -0.4251
  491MOL0     C67684  10.724   7.305   2.947 -0.0892  0.3640  0.8399
  491MOL0     C67685  10.768   7.232   3.039  0.4646 -0.2928  0.9471
  491MOL0     C67686  10.253   7.733   2.395 -0.4112 -0.4724  0.4620
  491MOL0     C67687  10.134   7.789   2.337  0.2213  0.4893 -0.1789
  491MOL0     C67688  10.151   7.913   2.247 -0.5234 -0.1123 -0.2076
  491MOL0     H67689   9.874   7.919   1.945 -1.9383 -1.1079 -3.4777
  491MOL0     H67690   9.687   7.952   1.819  0.4679 -0.9494  0.8561
  491MOL0     H67691   9.255   8.072   1.856 -1.6711 -0.4071  1.5734
  491MOL0     H67692   9.312   8.090   2.020  0.0534  0.9929  0.1365
  491MOL0     H67693   9.224   7.822   1.886  2.6441  0.0996 -0.2096
  491MOL0     H67694   9.260   7.854   2.060 -0.1627  0.6344  0.9426
  491MOL0     H67695   9.082   8.014   2.074 -1.7582 -0.9638  1.1810
  491MOL0     H67696   9.036   7.980   1.911  1.1736 -1.0028 -1.4567
  491MOL0     H67697   9.005   7.756   1.954  0.8275  3.1052 -1.5078
  491MOL0     H67698   9.046   7.771   2.122  0.6093  3.4693  1.2944
  491MOL0     H67699   8.810   7.919   1.993 -0.6138 -2.9667 -1.7059
  491MOL0     H67700   8.862   7.938   2.166 -1.4754 -0.3217  0.1051
  491MOL0     H67701   8.735   7.698   2.027 -2.7593 -0.7437  2.7127
  491MOL0     H67702   8.814   7.684   2.188 -1.7340  1.2246  2.8539
  491MOL0     H67703   8.606   7.888   2.109 -0.5572  1.1266  1.4618
  491MOL0     H67704   8.652   7.843   2.279 -1.2906 -2.1038  0.6467
  491MOL0     H67705   8.427   7.736   2.196  0.1369  1.1228 -0.8075
  491MOL0     H67706   8.543   7.650   2.081  0.2064 -1.0422  0.3489
  491MOL0     H67707   8.699   7.456   2.222 -2.0407 -3.4988 -0.6483
  491MOL0     H67708   8.721   7.263   2.392 -0.8062 -2.4321  2.0451
  491MOL0     H67709   8.659   7.263   2.551  0.4811 -1.6447 -0.0437
  491MOL0     H67710   8.912   7.290   2.490  0.2709  2.3469 -5.0218
  491MOL0     H67711   8.885   7.454   2.457  1.0515 -0.2493  0.4047
  491MOL0     H67712   8.790   7.496   2.676 -1.9560 -1.0828 -2.0509
  491MOL0     H67713   8.817   7.323   2.721  0.2909 -0.1534 -0.8650
  491MOL0     H67714   9.028   7.547   2.665 -1.4023  0.1713  0.9183
  491MOL0     H67715   8.994   7.460   2.822  0.6150 -2.7053  0.4031
  491MOL0     H67716   9.225   7.542   2.823  0.7192  0.5445 -2.6361
  491MOL0     H67717   9.389   7.586   3.006 -0.8294  2.3561 -1.6456
  491MOL0     H67718   9.512   7.634   2.910  2.1323  0.0221  2.3189
  491MOL0     H67719   9.542   7.499   3.023  0.1857  0.0152  0.4825
  491MOL0     H67720   9.918   7.246   2.624  1.1436  1.2050 -0.3453
  491MOL0     H67721  10.136   7.132   2.683 -1.1661  0.8632 -0.9711
  491MOL0     H67722  10.327   7.008   2.753 -2.1109 -0.4868  0.4159
  491MOL0     H67723  10.314   7.149   2.863 -3.3988 -0.4996  1.6582
  491MOL0     H67724  10.475   6.890   2.878  2.6500  1.2169 -0.9674
  491MOL0     H67725  10.504   7.050   2.959 -1.8405  1.4448  0.8487
  491MOL0     H67726  10.460   6.833   3.100 -2.7297 -2.2779  0.3719
  491MOL0     H67727  10.297   6.860   3.072 -0.3203  0.7671  0.1081
  491MOL0     H67728  10.321   7.095   3.150 -1.3124 -0.0382  2.2296
  491MOL0     H67729  10.499   7.053   3.184 -0.6617  0.3267 -1.1932
  491MOL0     H67730  10.247   6.935   3.288  0.8962  0.3330 -0.7076
  491MOL0     H67731  10.410   6.883   3.350 -0.2049 -0.7884  3.6031
  491MOL0     H67732  10.255   7.154   3.399 -1.8576 -0.4043  1.1319
  491MOL0     H67733  10.428   7.135   3.437  2.0027 -3.5954  2.1518
  491MOL0     H67734  10.385   6.946   3.588 -1.0926  0.1089  0.1916
  491MOL0     H67735  10.211   6.959   3.558  1.2330 -1.7613  2.0210
  491MOL0     H67736  10.389   7.181   3.674  1.5081 -3.7527 -0.6647
  491MOL0     H67737  10.272   7.089   3.765  1.5241  1.5119  0.2562
  491MOL0     H67738   9.994   7.004   3.050  1.8003 -2.0312 -1.2631
  491MOL0     H67739   9.772   7.077   2.995  0.2135 -2.9848 -0.6288
  491MOL0     H67740   9.452   7.122   2.714 -2.4051 -0.9472  1.3532
  491MOL0     H67741   9.249   7.164   2.636 -0.3150 -0.2512  0.2620
  491MOL0     H67742   9.434   7.962   2.162 -0.3530  2.2596 -1.4322
  491MOL0     H67743   9.624   7.912   2.305  0.9880 -1.8777 -0.7640
  491MOL0     H67744   9.920   7.565   2.462 -0.1388  0.8527  2.4259
  491MOL0     H67745  10.111   7.467   2.556 -1.4989  0.3642  0.2088
  491MOL0     H67746  10.315   7.471   2.693  0.3413 -2.4178 -0.6814
  491MOL0     H67747  10.364   7.370   2.551 -0.3385 -0.1186 -0.5972
  491MOL0     H67748  10.558   7.560   2.697  1.3690 -1.4637  1.6609
  491MOL0     H67749  10.586   7.429   2.571 -2.7042 -0.2538 -1.1784
  491MOL0     H67750  10.479   7.346   2.829 -0.6914 -0.0701 -0.4929
  491MOL0     H67751  10.572   7.265   2.699 -2.6439 -0.8553  1.0948
  491MOL0     H67752  10.702   7.491   2.837  2.4575  0.2590 -3.2190
  491MOL0     H67753  10.769   7.355   2.743 -1.7127  0.7963 -2.4217
  491MOL0     H67754  10.822   7.176   3.113  0.6118 -0.0339  1.0365
  491MOL0     H67755  10.345   7.790   2.391 -0.3658 -0.5422  0.4927
  491MOL0     H67756  10.093   7.989   2.299  1.1499  1.9965 -1.2975
  491MOL0     H67757  10.254   7.951   2.246 -1.4425  2.6172 -2.3801
  491MOL0     H67758  10.122   7.885   2.145  0.5404  1.1293 -0.8787
  492MOL0     O67759  10.318   3.005   1.410 -0.2746  0.3161 -0.3840
  492MOL0     C67760  10.404   3.062   1.340 -0.3015 -0.0096 -0.4112
  492MOL0     O67761  10.405   3.075   1.204  0.0770 -0.7810  0.9347
  492MOL0     C67762  10.296   3.037   1.126  0.7603  1.0610  0.6694
  492MOL0     C67763  10.157   3.060   1.154  0.4906  0.0733  1.2796
  492MOL0     C67764  10.056   3.012   1.068 -0.1800 -1.2604 -1.1925
  492MOL0     C67765  10.085   2.931   0.955  0.0720  0.8832 -1.2618
  492MOL0     O67766   9.996   2.874   0.874  0.7247  0.8219  0.3220
  492MOL0     C67767   9.859   2.859   0.920 -0.7792 -0.2877 -0.9063
  492MOL0     C67768   9.768   2.796   0.806  0.6549 -0.3692  0.7951
  492MOL0     C67769   9.828   2.665   0.748  0.5432  0.0677 -0.3166
  492MOL0     C67770   9.837   2.545   0.841  0.5690  0.6783 -0.5805
  492MOL0     C67771   9.881   2.418   0.767 -1.3684  0.5826  0.9562
  492MOL0     C67772   9.917   2.312   0.872  0.7226 -0.2012 -0.1722
  492MOL0     C67773   9.989   2.191   0.811 -0.4355  0.4120  0.5789
  492MOL0     C67774  10.009   2.070   0.907  0.0590 -0.2857 -0.6451
  492MOL0     N67775  10.043   1.946   0.832  0.1266  0.4416 -0.0659
  492MOL0     C67776   9.956   1.837   0.820 -0.0182 -0.6598  0.9203
  492MOL0     C67777  10.007   1.763   0.723  0.9689 -0.7401  0.1072
  492MOL0     C67778   9.940   1.641   0.679 -0.3545 -0.0391 -0.0902
  492MOL0     C67779  10.022   1.521   0.696  0.4474  0.0937  0.6264
  492MOL0     C67780   9.930   1.402   0.659  0.1603  0.1874 -0.4740
  492MOL0     C67781  10.002   1.272   0.678  0.1610 -0.2023 -0.0679
  492MOL0     O67782  10.022   1.276   0.820  0.6634  0.2857 -0.0190
  492MOL0     C67783  10.135   1.217   0.866 -0.0957 -0.0663 -0.1837
  492MOL0     C67784  10.230   1.149   0.794 -0.2771 -0.1442 -0.3288
  492MOL0     C67785  10.343   1.090   0.850 -0.5297  0.0893  0.2856
  492MOL0     C67786  10.445   1.053   0.750 -0.3030 -0.5621  0.3465
  492MOL0     C67787  10.359   1.085   0.989  0.5667  0.9701 -0.3440
  492MOL0     C67788  10.469   1.034   1.070 -1.0304  0.2312  0.1868
  492MOL0     O67789  10.524   1.112   1.173  0.4820  0.2385  0.0673
  492MOL0     C67790  10.612   1.056   1.266 -0.3126  0.1440 -0.3457
  492MOL0     C67791  10.681   1.139   1.347  1.1501 -0.5999  0.3992
  492MOL0     C67792  10.767   1.097   1.453 -0.6965  0.4458 -0.1262
  492MOL0     C67793  10.785   0.961   1.493  0.0888 -0.9867  0.4567
  492MOL0     O67794  10.868   0.919   1.600 -0.3392  0.0194  0.4704
  492MOL0     C67795  10.950   1.010   1.662 -0.1594  0.0046 -0.7124
  492MOL0     C67796  11.062   0.929   1.731  0.1024 -0.5293  1.0676
  492MOL0     C67797  11.151   1.041   1.789  0.1326  0.7770 -0.0630
  492MOL0     C67798  11.250   0.985   1.885 -0.5931  0.0451 -0.3292
  492MOL0     C67799  11.317   1.099   1.954  0.1909  0.4453  0.8859
  492MOL0     C67800  11.430   1.040   2.036 -0.0709  0.1509 -0.4065
  492MOL0     C67801  11.467   1.141   2.155 -0.7259 -0.0764  0.3049
  492MOL0     C67802  11.500   1.286   2.096 -0.1645 -1.0322  0.1919
  492MOL0    Cl67803  11.625   1.312   1.981  0.6601 -0.1644  0.2016
  492MOL0     C67804  10.708   0.875   1.406 -0.2210  0.1011  0.1584
  492MOL0     C67805  10.630   0.919   1.297 -0.2344  0.5129 -0.4043
  492MOL0     O67806  10.524   0.931   1.028  0.5438  0.3561  1.0053
  492MOL0     C67807  10.261   1.151   1.067  0.1239  0.0924 -0.0721
  492MOL0     C67808  10.150   1.222   1.009  0.3282  0.1579  0.3851
  492MOL0     N67809  10.117   1.822   0.663  0.0956 -0.4851  0.1985
  492MOL0     N67810  10.140   1.935   0.733 -0.8314 -0.0092  0.4199
  492MOL0     C67811  10.224   2.902   0.939 -0.1993 -0.5729  0.5213
  492MOL0     C67812  10.323   2.955   1.021  0.0156  0.0116  0.2887
  492MOL0     C67813  10.544   3.089   1.402 -0.7039 -0.6265  0.1981
  492MOL0     C67814  10.661   3.093   1.332 -1.1158  0.3679 -0.2948
  492MOL0     C67815  10.785   3.127   1.382  0.4428 -0.5052  0.4747
  492MOL0     C67816  10.807   3.174   1.503  0.1752 -0.5003 -0.2108
  492MOL0     O67817  10.935   3.181   1.549 -0.6502 -0.0758 -0.4852
  492MOL0     C67818  10.970   3.233   1.681  0.5003 -0.6979 -0.0309
  492MOL0     C67819  11.111   3.288   1.667  0.5894  0.2836 -0.5424
  492MOL0     C67820  11.137   3.387   1.549 -0.1917  0.1734  0.4887
  492MOL0     C67821  11.289   3.432   1.540  0.1508  0.0339 -1.0314
  492MOL0     C67822  11.302   3.535   1.432  0.4012  0.3403  0.0702
  492MOL0     C67823  11.310   3.618   1.342 -0.6541  0.4680  0.3616
  492MOL0     C67824  10.689   3.174   1.583  0.0405 -0.2816 -0.3304
  492MOL0     C67825  10.559   3.143   1.533  0.5106 -1.0094  0.1650
  492MOL0     C67826  10.447   3.160   1.628  0.4403 -1.1585 -0.5184
  492MOL0     H67827  10.131   3.106   1.249 -0.4106 -1.3156  1.7380
  492MOL0     H67828   9.956   3.051   1.087  0.2909  0.3717 -1.9253
  492MOL0     H67829   9.813   2.951   0.956 -1.4732 -0.4630 -1.3187
  492MOL0     H67830   9.858   2.798   1.011 -1.9596 -0.2786 -0.8905
  492MOL0     H67831   9.674   2.764   0.853 -1.1892  0.4314 -2.1100
  492MOL0     H67832   9.752   2.855   0.715 -1.6310 -1.3720  0.4776
  492MOL0     H67833   9.767   2.632   0.663  0.5888 -1.5191  0.2283
  492MOL0     H67834   9.925   2.686   0.702  1.9656 -2.6220  1.2110
  492MOL0     H67835   9.909   2.566   0.920  0.5796 -1.0065 -0.0990
  492MOL0     H67836   9.742   2.525   0.892  1.4078 -1.7942  0.1379
  492MOL0     H67837   9.968   2.434   0.703 -0.8608 -2.7968  0.5791
  492MOL0     H67838   9.812   2.368   0.697  3.9291 -4.8928 -1.3187
  492MOL0     H67839   9.986   2.346   0.949  1.4921 -1.2179 -0.3811
  492MOL0     H67840   9.831   2.268   0.923  1.6625  1.1014  2.7196
  492MOL0     H67841  10.088   2.223   0.775 -0.9390  0.0392 -1.2211
  492MOL0     H67842   9.928   2.146   0.732  0.6836 -0.8254  0.3883
  492MOL0     H67843  10.095   2.109   0.964 -1.7559  3.1271  0.0603
  492MOL0     H67844   9.920   2.058   0.969 -0.2923  2.3756 -0.5156
  492MOL0     H67845   9.861   1.831   0.872  0.1801  1.9165  1.6993
  492MOL0     H67846   9.919   1.655   0.572  0.0012  1.2615 -0.0124
  492MOL0     H67847   9.848   1.632   0.737 -0.0504  2.9492  1.0280
  492MOL0     H67848  10.097   1.528   0.617 -0.4599 -1.1078 -0.3823
  492MOL0     H67849  10.072   1.518   0.793  0.7939 -1.9459  0.4288
  492MOL0     H67850   9.840   1.401   0.721 -1.0595  2.5945 -2.0637
  492MOL0     H67851   9.902   1.402   0.554 -0.3338 -1.3267 -0.3752
  492MOL0     H67852   9.932   1.193   0.651 -3.9760  3.1167 -0.1211
  492MOL0     H67853  10.093   1.270   0.617  0.8316  0.0591  0.9112
  492MOL0     H67854  10.219   1.141   0.686  0.6313 -0.1608 -0.4259
  492MOL0     H67855  10.548   1.053   0.786 -0.0069  1.2370 -0.4081
  492MOL0     H67856  10.449   1.124   0.667 -3.9798  0.3501  0.7545
  492MOL0     H67857  10.430   0.949   0.719  3.0951 -1.2072  0.4700
  492MOL0     H67858  10.667   1.246   1.334  1.5746 -0.5434  0.3823
  492MOL0     H67859  10.813   1.177   1.510 -0.6661  0.9882 -0.8966
  492MOL0     H67860  10.990   1.089   1.598 -2.0722  2.1441  0.5869
  492MOL0     H67861  10.881   1.052   1.736 -2.0041  0.4851 -2.6341
  492MOL0     H67862  11.013   0.864   1.804 -0.8848 -0.6030  0.3516
  492MOL0     H67863  11.127   0.879   1.659  0.5518  0.4691  0.7569
  492MOL0     H67864  11.070   1.100   1.832  1.6587  2.4310  0.6657
  492MOL0     H67865  11.197   1.099   1.709  2.6135 -0.1299  0.6065
  492MOL0     H67866  11.319   0.928   1.822  1.2627  1.3710  0.3773
  492MOL0     H67867  11.206   0.918   1.959 -0.7287 -0.3621 -0.7786
  492MOL0     H67868  11.351   1.153   1.866 -3.8200  2.5792  0.3930
  492MOL0     H67869  11.256   1.165   2.016  1.5398  1.6897  0.9382
  492MOL0     H67870  11.521   1.003   1.986 -1.0382 -1.4455 -1.0691
  492MOL0     H67871  11.392   0.948   2.082  0.7541 -0.0623 -0.1261
  492MOL0     H67872  11.553   1.089   2.198 -1.3708 -1.6766 -0.2868
  492MOL0     H67873  11.398   1.154   2.238 -1.4874  1.5046 -0.5178
  492MOL0     H67874  11.531   1.340   2.186 -0.4758 -1.6442  0.6772
  492MOL0     H67875  11.409   1.342   2.075 -0.3682 -2.0298 -1.8190
  492MOL0     H67876  10.706   0.770   1.435  0.5655  0.2797  0.8791
  492MOL0     H67877  10.571   0.845   1.244 -1.1207  0.5924  0.4376
  492MOL0     H67878  10.274   1.144   1.174  2.6085 -2.5176 -0.4350
  492MOL0     H67879  10.073   1.270   1.069 -1.3699 -4.6196  2.5131
  492MOL0     H67880  10.254   2.846   0.851  0.7793  0.1558  0.3701
  492MOL0     H67881  10.429   2.941   1.004 -0.4249  0.6863 -4.2089
  492MOL0     H67882  10.651   3.056   1.230  0.4200  2.1174 -1.1477
  492MOL0     H67883  10.876   3.114   1.324 -0.3809 -1.8340 -0.5897
  492MOL0     H67884  10.900   3.312   1.709  0.8320  0.2806 -1.8087
  492MOL0     H67885  10.967   3.152   1.755 -0.6197  0.7394  1.5605
  492MOL0     H67886  11.180   3.203   1.662 -0.6452 -0.9056  1.4645
  492MOL0     H67887  11.118   3.337   1.765 -2.7647 -0.9557  0.4310
  492MOL0     H67888  11.105   3.340   1.456 -3.0537  0.7275  1.0886
  492MOL0     H67889  11.062   3.463   1.573  1.6397  2.0265  0.5636
  492MOL0     H67890  11.349   3.343   1.520  1.8656  0.0910  2.8880
  492MOL0     H67891  11.335   3.458   1.636 -1.4811 -0.4710 -0.0530
  492MOL0     H67892  11.313   3.706   1.280 -0.2938  0.6497  0.6345
  492MOL0     H67893  10.695   3.201   1.688 -0.7459 -2.3205  0.2747
  492MOL0     H67894  10.362   3.206   1.576  1.0899 -0.7059 -1.1971
  492MOL0     H67895  10.411   3.072   1.682  0.2127  1.2892  3.7206
  492MOL0     H67896  10.468   3.229   1.711  1.0300  0.3438 -1.8598
  493MOL0     O67897  10.180   8.804   2.017 -0.2383 -0.4889 -0.1300
  493MOL0     C67898  10.200   8.785   1.895  1.1435  0.1663 -0.3123
  493MOL0     O67899  10.307   8.821   1.826  0.4078  0.2665 -0.4813
  493MOL0     C67900  10.401   8.903   1.882 -1.3935  0.3105  0.5032
  493MOL0     C67901  10.475   8.879   1.999 -0.3545  0.1815 -0.4826
  493MOL0     C67902  10.575   8.972   2.042 -0.0411  0.4689 -0.2194
  493MOL0     C67903  10.589   9.085   1.971 -0.8455 -0.1984 -0.8312
  493MOL0     O67904  10.675   9.185   2.014  0.0187 -0.4212  0.2111
  493MOL0     C67905  10.599   9.289   2.081  0.8437  0.3148 -0.3998
  493MOL0     C67906  10.651   9.432   2.035  0.1476  0.7439  0.1647
  493MOL0     C67907  10.805   9.430   2.051 -0.7524  0.2290 -0.4471
  493MOL0     C67908  10.848   9.578   2.067 -0.4652  0.4457  0.1185
  493MOL0     C67909  11.013   9.588   2.087 -0.5858  0.5864 -0.5417
  493MOL0     C67910  11.057   9.512   2.217  0.7630  0.3021  0.9877
  493MOL0     C67911  11.191   9.563   2.262 -0.0337 -0.3229  0.0097
  493MOL0     C67912  11.300   9.506   2.168  0.0458  0.3904  0.8514
  493MOL0     N67913  11.431   9.488   2.236 -0.0639 -0.0924  0.0365
  493MOL0     C67914  11.537   9.571   2.224  0.4032  0.2661 -0.1820
  493MOL0     C67915  11.636   9.514   2.301 -0.1185  0.4851  0.1044
  493MOL0     C67916  11.772   9.577   2.311 -0.3397 -0.3552  0.1094
  493MOL0     C67917  11.848   9.588   2.184  0.4393 -1.0123 -1.1864
  493MOL0     C67918  11.888   9.444   2.156 -0.1719  0.5720  0.2096
  493MOL0     C67919  11.965   9.432   2.021 -0.4689 -0.4016  0.0007
  493MOL0     O67920  11.991   9.291   2.002 -0.5667  0.3249 -0.2499
  493MOL0     C67921  12.057   9.250   1.883  0.0154  0.1244 -0.8205
  493MOL0     C67922  12.017   9.127   1.835 -0.4482  0.5583 -0.8020
  493MOL0     C67923  12.076   9.075   1.716  0.3370  0.2491  0.0696
  493MOL0     C67924  12.007   8.946   1.671  0.5248 -0.2857  0.5211
  493MOL0     C67925  12.189   9.140   1.658 -0.2745 -0.0274 -0.1736
  493MOL0     C67926  12.256   9.095   1.526  0.7632  0.5918 -0.4165
  493MOL0     O67927  12.387   9.073   1.509 -0.7562  0.7381 -0.0527
  493MOL0     C67928  12.419   8.999   1.402  0.5180  0.9192  0.0947
  493MOL0     C67929  12.542   9.032   1.359  0.1224 -0.8899  0.5422
  493MOL0     C67930  12.596   8.958   1.263 -0.3322 -0.3156  0.8877
  493MOL0     C67931  12.528   8.845   1.210  0.2517 -0.3437  0.0249
  493MOL0     O67932  12.585   8.767   1.108  1.0647 -0.7056  0.0729
  493MOL0     C67933  12.617   8.632   1.141  0.0454 -0.0359 -0.3010
  493MOL0     C67934  12.696   8.567   1.037 -1.0169  0.0027  0.3042
  493MOL0     C67935  12.758   8.435   1.077 -0.5442 -1.4122 -0.3012
  493MOL0     C67936  12.855   8.372   0.980 -0.0997 -0.3335 -0.3662
  493MOL0     C67937  12.950   8.258   1.036  0.5201 -0.2464 -0.1862
  493MOL0     C67938  13.029   8.197   0.924  0.2041  0.6813 -0.0798
  493MOL0     C67939  13.131   8.299   0.869 -0.1375  0.0261  0.6732
  493MOL0     C67940  13.209   8.242   0.750  0.5819 -0.2260  0.2801
  493MOL0    Cl67941  13.316   8.121   0.810 -0.1629 -0.3407  0.0101
  493MOL0     C67942  12.398   8.813   1.250  0.0249  0.6761  1.2521
  493MOL0     C67943  12.346   8.888   1.348  0.7602 -0.2736  0.8494
  493MOL0     O67944  12.164   9.085   1.444  0.2819 -0.6344  0.2732
  493MOL0     C67945  12.234   9.262   1.714 -0.1157  0.0856 -0.5532
  493MOL0     C67946  12.165   9.318   1.820  0.0500 -0.1590  0.1667
  493MOL0     N67947  11.584   9.407   2.364  0.2551 -0.4741  0.4852
  493MOL0     N67948  11.467   9.390   2.330  0.1754 -0.2351 -0.3206
  493MOL0     C67949  10.537   9.106   1.846 -0.1103  0.7786 -0.2493
  493MOL0     C67950  10.450   9.008   1.794 -0.5618  0.1776  0.2253
  493MOL0     C67951  10.079   8.736   1.812  0.0790 -0.4919 -1.3114
  493MOL0     C67952  10.101   8.736   1.670  1.4716 -0.1558 -0.6632
  493MOL0     C67953  10.002   8.675   1.589 -0.1665  0.4026 -0.0608
  493MOL0     C67954   9.884   8.623   1.651  0.2259  0.5630  1.2439
  493MOL0     O67955   9.787   8.583   1.561 -0.0063  0.2738 -0.8479
  493MOL0     C67956   9.649   8.561   1.602 -0.0487 -0.0876  0.0276
  493MOL0     C67957   9.574   8.686   1.663  0.1089 -0.4970  0.9782
  493MOL0     C67958   9.417   8.701   1.622  0.2640 -0.3616  0.3490
  493MOL0     C67959   9.330   8.572   1.627 -0.5082  0.1876 -1.3788
  493MOL0     C67960   9.345   8.490   1.745  0.9816  0.1133  0.3191
  493MOL0     C67961   9.362   8.415   1.844 -0.3313  0.2010  0.8278
  493MOL0     C67962   9.865   8.630   1.787  1.0542  0.5232  0.8517
  493MOL0     C67963   9.961   8.679   1.868 -0.9911 -0.4053  0.0810
  493MOL0     C67964   9.926   8.669   2.016  0.3574  0.0596 -0.1268
  493MOL0     H67965  10.452   8.790   2.057 -0.2210  0.3873 -0.1106
  493MOL0     H67966  10.626   8.955   2.136 -2.9166 -2.4465  1.0198
  493MOL0     H67967  10.614   9.273   2.188  0.0555  3.4295  0.2947
  493MOL0     H67968  10.490   9.290   2.070  0.4701  0.6351  2.5403
  493MOL0     H67969  10.614   9.440   1.932 -0.0757 -0.1352  0.1609
  493MOL0     H67970  10.604   9.507   2.099 -3.6950 -1.3550  0.1494
  493MOL0     H67971  10.822   9.379   2.146  0.8008  2.2942  0.4475
  493MOL0     H67972  10.866   9.396   1.968 -0.4216  2.9533 -1.4187
  493MOL0     H67973  10.819   9.631   1.976  0.5067  0.1908 -0.3591
  493MOL0     H67974  10.785   9.618   2.146 -1.5225 -0.9313  0.0205
  493MOL0     H67975  11.039   9.695   2.088  1.7089  0.0843 -1.4129
  493MOL0     H67976  11.071   9.556   2.000 -0.1823  0.4194 -0.2140
  493MOL0     H67977  10.978   9.518   2.292  0.7182  0.2992  0.9410
  493MOL0     H67978  11.063   9.405   2.197 -1.7685  0.4289 -0.8722
  493MOL0     H67979  11.219   9.521   2.359  1.0926  0.7223  0.1769
  493MOL0     H67980  11.194   9.672   2.277  1.3372 -0.2954 -0.3042
  493MOL0     H67981  11.261   9.416   2.119  1.1714  1.6652 -2.7343
  493MOL0     H67982  11.317   9.570   2.081  1.0991 -0.5678  0.3211
  493MOL0     H67983  11.545   9.659   2.161  3.3860  1.2109  1.3192
  493MOL0     H67984  11.830   9.526   2.388 -1.0432  1.8784  2.2473
  493MOL0     H67985  11.739   9.678   2.337  0.4583 -0.1198  0.2323
  493MOL0     H67986  11.778   9.628   2.110 -1.7029 -4.0227 -0.9846
  493MOL0     H67987  11.931   9.657   2.202 -1.9924  1.1874  3.4760
  493MOL0     H67988  11.955   9.409   2.235  2.3133  0.6151 -1.7766
  493MOL0     H67989  11.807   9.370   2.158 -0.7310  1.1396 -0.7063
  493MOL0     H67990  11.928   9.484   1.933 -1.1890  2.3747  1.7955
  493MOL0     H67991  12.059   9.478   2.052  0.0773 -2.1637  1.1072
  493MOL0     H67992  11.933   9.089   1.892 -1.0520  2.5390 -0.2783
  493MOL0     H67993  12.042   8.912   1.573 -3.2336 -0.1813 -1.0144
  493MOL0     H67994  11.901   8.971   1.658  0.7574  1.3692  1.5342
  493MOL0     H67995  12.027   8.864   1.740  0.2655 -0.2101  0.6844
  493MOL0     H67996  12.594   9.117   1.403  0.1290  1.2607 -3.2624
  493MOL0     H67997  12.695   8.981   1.226 -0.3855 -0.1961  0.8172
  493MOL0     H67998  12.685   8.629   1.227  1.0587 -1.5938 -1.1097
  493MOL0     H67999  12.526   8.574   1.164  1.5351 -1.6063  2.1573
  493MOL0     H68000  12.652   8.568   0.937 -0.3184  0.2110 -0.0114
  493MOL0     H68001  12.784   8.631   1.024  0.2672 -1.4287  1.5663
  493MOL0     H68002  12.681   8.366   1.112 -0.3696 -2.3445 -1.6711
  493MOL0     H68003  12.818   8.455   1.167  0.0384  1.1119 -1.1589
  493MOL0     H68004  12.903   8.450   0.920 -0.6089 -0.4673 -0.9545
  493MOL0     H68005  12.790   8.319   0.911 -0.2131 -1.4784  0.5834
  493MOL0     H68006  13.026   8.301   1.101  3.2658  0.5634 -3.6249
  493MOL0     H68007  12.887   8.185   1.088 -0.9093  1.8410  1.1452
  493MOL0     H68008  12.963   8.167   0.842  1.2046 -1.4798 -0.1700
  493MOL0     H68009  13.077   8.108   0.966 -0.9214 -0.3150 -0.7899
  493MOL0     H68010  13.188   8.334   0.956 -1.3467  4.1837  0.0032
  493MOL0     H68011  13.079   8.387   0.831 -0.0405  0.4101  1.4137
  493MOL0     H68012  13.267   8.319   0.698 -0.4771  0.0891 -0.4826
  493MOL0     H68013  13.129   8.202   0.687  0.7168  0.1043 -0.1118
  493MOL0     H68014  12.358   8.715   1.225  2.4122  0.0932 -0.7026
  493MOL0     H68015  12.251   8.871   1.397 -0.3027  0.9270 -0.7485
  493MOL0     H68016  12.321   9.313   1.672  0.5984 -0.1226  0.6126
  493MOL0     H68017  12.187   9.418   1.855 -0.5292 -0.0409  0.1986
  493MOL0     H68018  10.555   9.195   1.786  1.4061  0.9022  0.3540
  493MOL0     H68019  10.423   9.025   1.690  0.3424  1.6001  0.1958
  493MOL0     H68020  10.200   8.752   1.629  1.3406  3.6356  0.1635
  493MOL0     H68021  10.022   8.650   1.485  0.3584 -1.9872  0.5528
  493MOL0     H68022   9.594   8.534   1.510 -0.4846  1.3877 -0.1804
  493MOL0     H68023   9.648   8.471   1.663  0.7810  0.1879  0.4571
  493MOL0     H68024   9.623   8.775   1.624 -0.1444 -0.7229  0.1094
  493MOL0     H68025   9.585   8.689   1.772  0.3714  0.5432  0.9321
  493MOL0     H68026   9.369   8.783   1.676  0.9993  1.9548 -2.2838
  493MOL0     H68027   9.415   8.743   1.521 -1.5757  0.0537  0.5102
  493MOL0     H68028   9.374   8.517   1.543  0.6061  1.5143 -1.6974
  493MOL0     H68029   9.224   8.593   1.616 -1.0986 -1.9269 -0.1839
  493MOL0     H68030   9.382   8.337   1.914 -1.6664 -2.1670 -1.2512
  493MOL0     H68031   9.777   8.588   1.836  2.0405 -1.0679  1.3283
  493MOL0     H68032   9.850   8.594   2.040  2.3324 -1.7153  0.8649
  493MOL0     H68033  10.010   8.651   2.084 -0.8080  1.3216  1.7728
  493MOL0     H68034   9.885   8.770   2.032 -0.5371 -0.4013  0.6068
  494MOL0     O68035   4.901   4.106   3.307 -0.8108  0.7201 -0.4262
  494MOL0     C68036   4.925   4.182   3.216  0.8514 -0.0098  0.5552
  494MOL0     O68037   5.019   4.276   3.207 -0.8170 -0.1914 -0.0774
  494MOL0     C68038   5.115   4.269   3.307 -0.6797 -0.1977  0.1311
  494MOL0     C68039   5.092   4.267   3.443  1.2913 -0.2307 -0.2019
  494MOL0     C68040   5.185   4.228   3.540 -0.1767  0.0599  0.4339
  494MOL0     C68041   5.313   4.187   3.492  1.4802  0.6314  0.1350
  494MOL0     O68042   5.398   4.126   3.581 -0.0568  0.0689  0.4287
  494MOL0     C68043   5.516   4.070   3.538 -0.4698 -0.4827  0.3889
  494MOL0     C68044   5.588   4.000   3.657  0.9819  0.3146  0.5813
  494MOL0     C68045   5.659   4.070   3.777  0.0178  0.6225 -0.7065
  494MOL0     C68046   5.742   3.983   3.866  0.2058 -0.1538 -0.2055
  494MOL0     C68047   5.795   4.067   3.976 -0.3005 -0.4995 -0.8389
  494MOL0     C68048   5.828   3.978   4.091 -0.3901 -0.2281 -0.9013
  494MOL0     C68049   5.823   4.054   4.230  0.2493  0.4887  0.7115
  494MOL0     C68050   5.906   4.185   4.236  0.3619 -0.6509 -0.0048
  494MOL0     N68051   6.052   4.157   4.265 -0.1745  0.0481 -0.2609
  494MOL0     C68052   6.113   4.092   4.365 -0.7564  0.3835 -0.9013
  494MOL0     C68053   6.246   4.091   4.333 -0.3041  0.6572 -0.0819
  494MOL0     C68054   6.357   4.030   4.412 -0.2704  0.1648 -0.1001
  494MOL0     C68055   6.395   3.891   4.369 -0.2400 -0.4587  0.6021
  494MOL0     C68056   6.500   3.838   4.468 -0.0229 -0.0003 -0.2182
  494MOL0     C68057   6.642   3.903   4.483 -0.4331 -0.4036 -0.1559
  494MOL0     O68058   6.706   3.892   4.352  0.0426 -0.0821  0.5187
  494MOL0     C68059   6.745   4.013   4.313  1.3879 -1.2750  1.0399
  494MOL0     C68060   6.688   4.059   4.194  0.7432 -0.8119 -0.0684
  494MOL0     C68061   6.723   4.177   4.133 -0.1653  0.1017  0.4206
  494MOL0     C68062   6.633   4.232   4.020  0.1727 -0.6897  0.0155
  494MOL0     C68063   6.834   4.244   4.184 -0.3596 -0.1828  0.4070
  494MOL0     C68064   6.886   4.379   4.131 -0.5381  0.3916 -0.2650
  494MOL0     O68065   6.895   4.478   4.224 -0.3755 -0.0545  0.5762
  494MOL0     C68066   6.949   4.598   4.178  0.1164  0.8106 -0.7382
  494MOL0     C68067   6.864   4.701   4.134  0.0894 -0.6837  1.4708
  494MOL0     C68068   6.913   4.835   4.096  0.2792  0.3165  0.3268
  494MOL0     C68069   7.051   4.849   4.101 -0.1856  0.0716  0.1864
  494MOL0     O68070   7.128   4.963   4.063  0.1777 -0.0424 -0.7189
  494MOL0     C68071   7.088   5.090   4.111 -0.3104 -0.3382  0.7703
  494MOL0     C68072   7.157   5.124   4.247 -0.6992  0.6254  0.5045
  494MOL0     C68073   7.308   5.098   4.255 -0.0509  0.2088  0.8222
  494MOL0     C68074   7.386   5.171   4.369  0.2528 -0.0664  0.0167
  494MOL0     C68075   7.375   5.325   4.367  0.1062  0.1627  0.8081
  494MOL0     C68076   7.450   5.390   4.487 -0.0327 -1.2672  0.3204
  494MOL0     C68077   7.437   5.538   4.513  0.3969  0.8604  0.3632
  494MOL0     C68078   7.521   5.575   4.638  0.3423 -0.1345  0.6230
  494MOL0    Cl68079   7.463   5.481   4.774  0.1248  0.1075  0.2764
  494MOL0     C68080   7.135   4.740   4.134 -0.5485  0.1990 -0.4948
  494MOL0     C68081   7.086   4.618   4.182  0.6844  0.0461 -0.4737
  494MOL0     O68082   6.897   4.385   4.006  0.0129 -0.3814  0.1828
  494MOL0     C68083   6.893   4.199   4.302  0.6455 -0.3756 -0.3692
  494MOL0     C68084   6.848   4.086   4.367 -0.5827 -0.4702  0.4418
  494MOL0     N68085   6.269   4.151   4.212  0.1565 -0.0741  1.2759
  494MOL0     N68086   6.149   4.194   4.169 -0.2819  0.6660 -0.1447
  494MOL0     C68087   5.342   4.193   3.359  0.0667 -0.9288  0.5806
  494MOL0     C68088   5.252   4.245   3.269  1.1263  0.0153  0.4622
  494MOL0     C68089   4.820   4.179   3.101  0.6398  0.1701  0.1608
  494MOL0     C68090   4.683   4.153   3.136  0.5474  0.2353 -0.6753
  494MOL0     C68091   4.583   4.151   3.046  0.0778 -0.3716 -0.9095
  494MOL0     C68092   4.611   4.165   2.913 -0.2828  0.2248 -0.1742
  494MOL0     O68093   4.508   4.143   2.828  0.5237 -0.1386 -0.2546
  494MOL0     C68094   4.513   4.161   2.687 -0.1671  0.1905 -0.0148
  494MOL0     C68095   4.603   4.053   2.627 -0.6619 -0.7759 -0.4125
  494MOL0     C68096   4.625   4.054   2.473  0.1520 -0.4993 -0.1562
  494MOL0     C68097   4.735   4.154   2.428 -0.5180  0.2714 -0.2337
  494MOL0     C68098   4.770   4.141   2.288  0.6513 -0.8202 -0.7001
  494MOL0     C68099   4.793   4.154   2.171 -0.3537  0.6873  0.3851
  494MOL0     C68100   4.740   4.206   2.877  0.6212 -0.0943  0.2154
  494MOL0     C68101   4.847   4.212   2.965  0.1423 -0.3823 -1.1002
  494MOL0     C68102   4.985   4.240   2.918 -0.2164 -0.1230 -0.3405
  494MOL0     H68103   4.987   4.278   3.466  0.7138 -2.7816 -1.2800
  494MOL0     H68104   5.158   4.219   3.645 -0.7862 -3.2205  0.1066
  494MOL0     H68105   5.579   4.151   3.501 -2.0407  0.5938 -0.0075
  494MOL0     H68106   5.501   4.001   3.454 -1.5146  1.5031 -1.1477
  494MOL0     H68107   5.518   3.934   3.709  2.0614  1.4240  3.7381
  494MOL0     H68108   5.665   3.944   3.603  0.5643 -0.7178  1.0253
  494MOL0     H68109   5.734   4.136   3.733  1.9951  1.3747  3.2973
  494MOL0     H68110   5.585   4.119   3.841 -0.9107 -3.5540  1.8230
  494MOL0     H68111   5.681   3.901   3.904 -4.0738  0.8425 -4.1089
  494MOL0     H68112   5.826   3.944   3.807  1.4663 -1.1647  2.1373
  494MOL0     H68113   5.720   4.141   4.002  0.0064 -0.6214  0.4983
  494MOL0     H68114   5.883   4.124   3.944 -2.0336  2.9761  0.1827
  494MOL0     H68115   5.763   3.890   4.098  0.3344 -0.6484  1.6023
  494MOL0     H68116   5.927   3.932   4.087 -0.9572 -1.4475 -1.4007
  494MOL0     H68117   5.851   3.982   4.308 -0.5071 -1.0827 -0.4072
  494MOL0     H68118   5.719   4.077   4.255 -0.7449 -1.4365 -1.2662
  494MOL0     H68119   5.903   4.247   4.147  0.9768 -0.6998 -0.0669
  494MOL0     H68120   5.879   4.245   4.324 -0.0376  0.0100 -0.5720
  494MOL0     H68121   6.060   4.053   4.452  1.6468  1.0639  0.9731
  494MOL0     H68122   6.324   4.021   4.515 -1.0805 -1.3614 -0.4611
  494MOL0     H68123   6.446   4.093   4.399  0.0510  1.0152  4.6056
  494MOL0     H68124   6.304   3.831   4.378 -1.6263  1.3907 -0.3421
  494MOL0     H68125   6.430   3.896   4.266  3.0964  1.4663  1.6857
  494MOL0     H68126   6.452   3.849   4.565 -0.7950 -1.1783 -0.4499
  494MOL0     H68127   6.522   3.735   4.438  4.3872  0.8307 -0.5543
  494MOL0     H68128   6.645   4.002   4.527  2.5244  0.1111 -1.2797
  494MOL0     H68129   6.708   3.843   4.546  1.8349 -1.4176 -3.2435
  494MOL0     H68130   6.605   4.018   4.137 -0.2986  2.6095 -1.2745
  494MOL0     H68131   6.549   4.286   4.066 -1.7599 -2.3702 -1.3905
  494MOL0     H68132   6.607   4.156   3.946  1.3317 -0.3124 -0.8038
  494MOL0     H68133   6.694   4.302   3.962 -0.2795 -0.0674  0.2727
  494MOL0     H68134   6.757   4.685   4.138 -0.0285 -0.3512  0.0842
  494MOL0     H68135   6.845   4.916   4.072  1.0652  0.6030 -1.0259
  494MOL0     H68136   7.117   5.167   4.039 -1.9636  1.6272  2.0783
  494MOL0     H68137   6.979   5.101   4.112 -0.1586  1.4977  1.0382
  494MOL0     H68138   7.137   5.229   4.266  3.3882  1.4264  1.2949
  494MOL0     H68139   7.105   5.059   4.318 -1.4421 -0.0630 -0.6295
  494MOL0     H68140   7.349   5.125   4.157 -1.2347 -0.3396  0.1604
  494MOL0     H68141   7.319   4.990   4.261 -3.5279 -0.5330 -2.3729
  494MOL0     H68142   7.490   5.138   4.363  0.8864  1.8744 -0.2913
  494MOL0     H68143   7.348   5.135   4.465 -0.9747 -3.5255 -1.5913
  494MOL0     H68144   7.410   5.360   4.269 -1.2256 -3.9035 -1.3583
  494MOL0     H68145   7.268   5.340   4.378 -0.4238 -2.8532  0.6126
  494MOL0     H68146   7.557   5.378   4.465  0.0168  1.0110 -1.0151
  494MOL0     H68147   7.414   5.336   4.575 -1.9879 -0.0650  0.3156
  494MOL0     H68148   7.330   5.541   4.535  0.2630  0.0511 -0.1118
  494MOL0     H68149   7.461   5.597   4.425  4.4677  0.2082  0.8461
  494MOL0     H68150   7.498   5.680   4.660 -1.7142 -0.8057  2.0343
  494MOL0     H68151   7.626   5.552   4.618  0.2226 -0.1231 -0.0550
  494MOL0     H68152   7.242   4.758   4.135 -0.6515  0.8344 -0.2198
  494MOL0     H68153   7.146   4.544   4.235 -0.7458  1.4116  3.3928
  494MOL0     H68154   6.971   4.259   4.348  0.5092  0.4213 -1.1482
  494MOL0     H68155   6.897   4.049   4.457  1.5090 -0.2573 -0.5366
  494MOL0     H68156   5.437   4.171   3.313 -0.2466 -0.4516 -0.3150
  494MOL0     H68157   5.281   4.252   3.165  1.3979 -1.3593  0.4263
  494MOL0     H68158   4.645   4.143   3.237 -2.9845 -1.1787 -1.9981
  494MOL0     H68159   4.483   4.118   3.071  1.4418 -3.3175  1.2120
  494MOL0     H68160   4.413   4.157   2.644 -1.3635 -0.1659  2.6116
  494MOL0     H68161   4.562   4.254   2.656 -0.5602 -0.0484 -1.4178
  494MOL0     H68162   4.534   3.968   2.632 -0.7348 -0.7015 -0.1936
  494MOL0     H68163   4.704   4.042   2.668  0.6420  5.2871 -1.1440
  494MOL0     H68164   4.654   3.953   2.442  2.6361  0.2902 -0.5673
  494MOL0     H68165   4.532   4.085   2.424  1.0591  3.4608  0.3286
  494MOL0     H68166   4.816   4.116   2.490 -1.3286 -0.6244  0.3080
  494MOL0     H68167   4.714   4.259   2.450  3.1708  0.8185  1.3923
  494MOL0     H68168   4.795   4.162   2.065  2.9941 -0.4443  0.2471
  494MOL0     H68169   4.758   4.243   2.777 -1.6762  1.0698  0.1488
  494MOL0     H68170   5.059   4.193   2.984 -0.5729  0.3837  0.4310
  494MOL0     H68171   5.004   4.206   2.816 -0.5181  2.1401 -1.2138
  494MOL0     H68172   5.003   4.348   2.927  0.3625  0.0355 -2.7497
  495MOL0     O68173   7.411   2.477   7.500  0.5417  0.2268 -0.1774
  495MOL0     C68174   7.441   2.362   7.528  0.5530  0.0519 -1.0594
  495MOL0     O68175   7.439   2.258   7.444 -0.4135 -0.2163 -0.7257
  495MOL0     C68176   7.440   2.257   7.304  0.1218  0.7683 -0.4448
  495MOL0     C68177   7.389   2.354   7.220  0.0322 -0.6154 -0.0530
  495MOL0     C68178   7.382   2.336   7.087  0.1866 -0.7371  0.1938
  495MOL0     C68179   7.434   2.212   7.033 -0.3977  0.6383 -0.2887
  495MOL0     O68180   7.430   2.195   6.896  0.2044 -0.1455  0.5589
  495MOL0     C68181   7.543   2.266   6.828  0.2074  0.6442 -0.9444
  495MOL0     C68182   7.567   2.242   6.676  0.5912 -0.6329  0.6528
  495MOL0     C68183   7.447   2.277   6.593  1.0008  0.5776 -0.7402
  495MOL0     C68184   7.467   2.252   6.445  0.1830  1.1360  0.0831
  495MOL0     C68185   7.328   2.221   6.378 -1.0230 -0.6455 -0.2624
  495MOL0     C68186   7.331   2.155   6.235 -0.4242 -0.1953 -0.0752
  495MOL0     C68187   7.379   2.263   6.138  0.8937  0.4608 -0.3365
  495MOL0     C68188   7.274   2.371   6.092 -0.6109  0.5569 -0.3994
  495MOL0     N68189   7.161   2.313   6.028  0.2283 -1.1594 -0.5362
  495MOL0     C68190   7.141   2.264   5.906  0.3780 -0.3450  0.3413
  495MOL0     C68191   7.017   2.208   5.898 -0.2081  1.1601  0.1539
  495MOL0     C68192   6.958   2.154   5.773 -0.1170  0.3556 -0.1350
  495MOL0     C68193   6.864   2.254   5.703  0.2085 -0.7060  0.8050
  495MOL0     C68194   6.719   2.247   5.764  0.2060  0.7683 -0.1176
  495MOL0     C68195   6.637   2.370   5.744  0.4097 -1.1363 -0.8478
  495MOL0     O68196   6.527   2.372   5.829  1.0987 -0.6479  0.7414
  495MOL0     C68197   6.413   2.328   5.776 -0.1209 -0.7370  1.4335
  495MOL0     C68198   6.396   2.243   5.666  0.1317 -0.1261  0.4415
  495MOL0     C68199   6.270   2.197   5.633 -0.3729  0.2443 -0.2820
  495MOL0     C68200   6.256   2.102   5.517 -0.9734  0.2098  0.2951
  495MOL0     C68201   6.163   2.244   5.709  0.3221  0.2765 -1.1111
  495MOL0     C68202   6.020   2.201   5.696  0.0826 -1.5715 -0.0118
  495MOL0     O68203   5.932   2.246   5.789 -0.2656 -0.9226  0.2168
  495MOL0     C68204   5.798   2.200   5.779  0.0342 -0.4610 -1.2146
  495MOL0     C68205   5.769   2.094   5.862  1.0891  0.0247  1.5167
  495MOL0     C68206   5.632   2.051   5.860 -0.2570  0.1330 -0.0244
  495MOL0     C68207   5.541   2.100   5.768 -0.2094 -0.3980 -0.0115
  495MOL0     O68208   5.416   2.042   5.774  0.3393  0.3421 -0.0400
  495MOL0     C68209   5.379   1.991   5.647  0.2504  0.4002 -0.3597
  495MOL0     C68210   5.246   1.909   5.668 -0.3951  0.1306  0.1790
  495MOL0     C68211   5.276   1.795   5.773  0.5223 -0.2048  0.4832
  495MOL0     C68212   5.152   1.750   5.853 -0.5815 -0.2407  0.5897
  495MOL0     C68213   5.170   1.630   5.961  0.0903 -0.9599  0.2645
  495MOL0     C68214   5.034   1.606   6.021 -0.5122 -0.2206  0.2258
  495MOL0     C68215   5.057   1.517   6.148  0.9112  0.1921 -0.3336
  495MOL0     C68216   4.927   1.515   6.223  0.4419 -0.0907 -1.1783
  495MOL0    Cl68217   4.905   1.373   6.327 -0.1542  0.0970 -0.2896
  495MOL0     C68218   5.578   2.211   5.695  1.1175  0.3081  0.2361
  495MOL0     C68219   5.703   2.262   5.699  0.1757  0.9782 -0.0116
  495MOL0     O68220   5.986   2.123   5.609 -0.3845  0.4935  0.1381
  495MOL0     C68221   6.190   2.329   5.819 -0.9652 -0.1957 -0.7571
  495MOL0     C68222   6.312   2.368   5.855 -0.5915 -0.1469  0.0526
  495MOL0     N68223   6.953   2.224   6.025 -0.0106  0.8486 -0.8562
  495MOL0     N68224   7.040   2.291   6.093  0.3915 -0.1074 -1.0014
  495MOL0     C68225   7.487   2.122   7.120 -1.1168  0.2747 -0.2724
  495MOL0     C68226   7.490   2.138   7.251 -0.2601 -0.4819 -0.0893
  495MOL0     C68227   7.458   2.328   7.677 -0.1651 -0.7896 -0.1151
  495MOL0     C68228   7.501   2.202   7.710 -0.0670 -0.7949 -0.9663
  495MOL0     C68229   7.521   2.165   7.846  0.1053 -0.2461  0.5560
  495MOL0     C68230   7.512   2.245   7.947  0.0537 -1.0035 -0.2675
  495MOL0     O68231   7.520   2.197   8.068  0.0053 -0.4004 -0.0817
  495MOL0     C68232   7.539   2.271   8.180  0.5834  0.0921 -0.0757
  495MOL0     C68233   7.569   2.174   8.290 -0.0424  0.5391  0.4317
  495MOL0     C68234   7.712   2.124   8.306  0.3748 -0.0518  0.6371
  495MOL0     C68235   7.774   2.073   8.174 -0.4862 -0.5879 -0.0727
  495MOL0     C68236   7.914   2.041   8.198 -0.1244 -0.1093  0.0314
  495MOL0     C68237   8.027   2.029   8.237 -0.0207 -0.3521  0.8934
  495MOL0     C68238   7.488   2.384   7.918  0.1971 -0.2148  0.2536
  495MOL0     C68239   7.455   2.428   7.785 -0.3516  0.0751 -0.0607
  495MOL0     C68240   7.439   2.578   7.769  0.2208 -0.1962 -0.1291
  495MOL0     H68241   7.338   2.444   7.253  0.5693  0.2905 -1.6140
  495MOL0     H68242   7.356   2.423   7.028  1.5369  1.7798  3.0116
  495MOL0     H68243   7.637   2.241   6.878 -0.6330  0.5200  0.6400
  495MOL0     H68244   7.533   2.373   6.851 -1.2904  0.0797  1.4205
  495MOL0     H68245   7.651   2.302   6.640 -0.3392 -1.5120 -3.4917
  495MOL0     H68246   7.584   2.135   6.663 -0.6167 -0.6073 -1.5578
  495MOL0     H68247   7.374   2.203   6.627  1.7343 -1.3461 -3.0365
  495MOL0     H68248   7.416   2.380   6.610  1.3445  1.0917 -2.9182
  495MOL0     H68249   7.503   2.350   6.413 -2.8418  1.2642 -3.6505
  495MOL0     H68250   7.527   2.165   6.416  0.3805  1.2287  0.2137
  495MOL0     H68251   7.280   2.319   6.370 -0.7090 -0.3748  1.0192
  495MOL0     H68252   7.267   2.164   6.449 -1.4986 -0.6039 -0.6267
  495MOL0     H68253   7.400   2.070   6.232 -1.2968 -0.9134 -2.5364
  495MOL0     H68254   7.233   2.112   6.211  0.2731 -1.2353 -1.2028
  495MOL0     H68255   7.411   2.209   6.048 -3.1031 -2.2442 -0.4069
  495MOL0     H68256   7.472   2.312   6.170  1.0191  0.3773 -0.5630
  495MOL0     H68257   7.245   2.420   6.185  2.5884  1.9965 -0.0234
  495MOL0     H68258   7.320   2.441   6.020 -2.8371  1.2995 -1.1753
  495MOL0     H68259   7.209   2.270   5.821 -0.6035  1.6721 -0.3554
  495MOL0     H68260   6.897   2.066   5.794 -1.2258  1.4280  1.3993
  495MOL0     H68261   7.037   2.134   5.700  0.2057 -1.0656  0.5685
  495MOL0     H68262   6.889   2.359   5.714  2.3369 -1.0914  0.0837
  495MOL0     H68263   6.857   2.231   5.596 -0.7821 -1.3511  0.9850
  495MOL0     H68264   6.666   2.165   5.715 -1.4038  2.7005 -1.7490
  495MOL0     H68265   6.734   2.220   5.869 -2.1495 -1.2345 -0.2132
  495MOL0     H68266   6.692   2.461   5.771  1.0119 -1.8709  0.4833
  495MOL0     H68267   6.603   2.373   5.640  1.6724 -1.1950 -1.2837
  495MOL0     H68268   6.487   2.209   5.617  0.0548  0.6955 -0.2999
  495MOL0     H68269   6.210   2.149   5.429 -0.2950 -0.8027 -0.6272
  495MOL0     H68270   6.188   2.017   5.527 -1.7568  0.5877 -1.5258
  495MOL0     H68271   6.352   2.058   5.490 -1.3130  1.4388 -3.5755
  495MOL0     H68272   5.844   2.060   5.933 -0.9209 -3.4793  2.2069
  495MOL0     H68273   5.591   1.984   5.935 -2.7012  0.0947 -1.2822
  495MOL0     H68274   5.356   2.075   5.581  2.0075  1.1340 -0.1014
  495MOL0     H68275   5.460   1.925   5.614  1.0637  1.4692 -0.5346
  495MOL0     H68276   5.182   1.972   5.731  1.1531  0.1199  1.8821
  495MOL0     H68277   5.198   1.879   5.575 -1.2258  0.5681  0.4571
  495MOL0     H68278   5.343   1.821   5.856  2.0047 -3.4033  0.4574
  495MOL0     H68279   5.304   1.705   5.718  0.3795  1.2088 -2.0382
  495MOL0     H68280   5.076   1.722   5.779 -0.7318  0.6962  0.3790
  495MOL0     H68281   5.117   1.836   5.910  0.5092 -0.2225  1.2735
  495MOL0     H68282   5.214   1.543   5.911 -0.2773 -0.6135 -0.6974
  495MOL0     H68283   5.241   1.660   6.038  2.3245 -0.5116 -1.8372
  495MOL0     H68284   4.987   1.573   5.928  0.9487  1.6033 -1.2523
  495MOL0     H68285   4.996   1.706   6.046  0.7430  1.9948 -5.3611
  495MOL0     H68286   5.144   1.557   6.201  0.7036  0.8167 -0.4587
  495MOL0     H68287   5.076   1.413   6.119  1.2219  0.6389 -1.7888
  495MOL0     H68288   4.847   1.516   6.149  1.0234  1.6929 -1.8121
  495MOL0     H68289   4.912   1.597   6.294  1.7150  1.8476 -3.0511
  495MOL0     H68290   5.508   2.259   5.627  1.2607 -0.0959 -0.2017
  495MOL0     H68291   5.730   2.349   5.640 -2.2413  3.2425  2.0233
  495MOL0     H68292   6.111   2.349   5.891  3.1212  1.3129  3.8384
  495MOL0     H68293   6.315   2.429   5.944  0.2999 -1.1893  0.7620
  495MOL0     H68294   7.523   2.026   7.084  2.8923 -0.6372  4.8791
  495MOL0     H68295   7.530   2.059   7.315  2.6121  1.5257  0.7854
  495MOL0     H68296   7.515   2.143   7.621 -1.7547  1.4974 -2.8886
  495MOL0     H68297   7.541   2.060   7.866 -2.5828 -0.3340  3.6591
  495MOL0     H68298   7.624   2.336   8.156  2.7427 -2.0675  1.2701
  495MOL0     H68299   7.449   2.329   8.203  0.2509  0.2807 -1.6938
  495MOL0     H68300   7.506   2.087   8.270 -1.2299  1.5047 -0.1878
  495MOL0     H68301   7.538   2.209   8.389  0.8557  2.7235  0.0052
  495MOL0     H68302   7.781   2.199   8.346 -1.3114  0.6373  2.3958
  495MOL0     H68303   7.699   2.039   8.374 -0.0424 -0.2446  0.3224
  495MOL0     H68304   7.771   2.149   8.095 -1.0638 -0.4010  0.1231
  495MOL0     H68305   7.716   1.985   8.144  1.3549 -2.7705  2.2908
  495MOL0     H68306   8.130   2.018   8.263  1.0588 -2.7191 -3.4030
  495MOL0     H68307   7.488   2.460   7.995  4.8955 -1.1087  1.4375
  495MOL0     H68308   7.441   2.623   7.868 -0.0800  0.2610 -0.3260
  495MOL0     H68309   7.520   2.620   7.709 -1.2482 -0.1418 -2.2072
  495MOL0     H68310   7.345   2.601   7.718  0.1511 -0.9374 -0.3560
  496MOL0     O68311   5.034   3.450   6.442  0.2869 -0.2321  0.1465
  496MOL0     C68312   4.993   3.567   6.453  0.6470  0.0476 -0.0110
  496MOL0     O68313   5.068   3.666   6.497  0.0170 -0.2294  0.4436
  496MOL0     C68314   5.204   3.652   6.496 -0.2487 -0.4386  0.6078
  496MOL0     C68315   5.288   3.695   6.597  1.0034  0.1129  0.5927
  496MOL0     C68316   5.423   3.679   6.591  1.0075  0.1178 -0.4199
  496MOL0     C68317   5.491   3.641   6.476 -0.1982 -0.0191 -0.6882
  496MOL0     O68318   5.626   3.657   6.456  0.0055 -0.1994  0.0238
  496MOL0     C68319   5.694   3.765   6.527 -0.3272  0.5846 -0.5328
  496MOL0     C68320   5.772   3.855   6.441  0.5014 -0.2033  0.6075
  496MOL0     C68321   5.890   3.913   6.510  0.7193  0.5953  0.4188
  496MOL0     C68322   6.005   3.812   6.509  0.1411  0.1579  0.1397
  496MOL0     C68323   6.110   3.857   6.609  0.0264  0.5972  0.4377
  496MOL0     C68324   6.179   3.992   6.584  0.5614  0.3413  0.2440
  496MOL0     C68325   6.297   3.974   6.484 -0.5460  0.1675  0.6091
  496MOL0     C68326   6.389   4.095   6.467 -0.2240  0.0679  0.2917
  496MOL0     N68327   6.323   4.214   6.423  0.6304  0.4950  0.6685
  496MOL0     C68328   6.295   4.226   6.294 -0.0078 -1.2740  1.0446
  496MOL0     C68329   6.254   4.360   6.289 -0.5799  0.1791 -0.1793
  496MOL0     C68330   6.222   4.437   6.172  0.3303 -0.3630  0.8052
  496MOL0     C68331   6.069   4.426   6.138  0.9214  0.2062 -0.1955
  496MOL0     C68332   5.997   4.530   6.219 -0.4786  0.3340  0.3999
  496MOL0     C68333   5.846   4.490   6.230  0.3446  0.3425 -0.0398
  496MOL0     O68334   5.788   4.471   6.103 -0.3960  0.6014  0.1057
  496MOL0     C68335   5.649   4.447   6.087  0.6340  0.6102  0.0275
  496MOL0     C68336   5.571   4.397   6.193  1.0790  1.2063  0.1401
  496MOL0     C68337   5.438   4.361   6.173 -0.3446  0.0610  1.2401
  496MOL0     C68338   5.370   4.293   6.289 -0.0647  0.1510 -0.2779
  496MOL0     C68339   5.374   4.379   6.058 -0.8050  0.4616  0.0883
  496MOL0     C68340   5.231   4.355   6.035  0.1260  0.5371  1.3266
  496MOL0     O68341   5.145   4.307   6.132 -0.0079 -0.2371 -0.6639
  496MOL0     C68342   5.015   4.317   6.108  0.2514 -0.5245  0.3950
  496MOL0     C68343   4.941   4.428   6.148 -0.7837 -0.2346  0.6418
  496MOL0     C68344   4.804   4.443   6.123 -0.4994  0.3002 -0.1128
  496MOL0     C68345   4.731   4.337   6.059 -0.4656 -0.4731  0.2214
  496MOL0     O68346   4.593   4.363   6.057 -0.4348 -0.4548 -0.5139
  496MOL0     C68347   4.511   4.270   5.986  0.0771  0.6073 -0.3720
  496MOL0     C68348   4.364   4.296   6.023 -0.3000  0.6260 -1.2278
  496MOL0     C68349   4.318   4.432   5.962 -0.1358  0.3265  0.4381
  496MOL0     C68350   4.170   4.455   5.933  0.0149  0.2297 -0.4191
  496MOL0     C68351   4.142   4.594   5.875  0.6156 -0.4222  0.3772
  496MOL0     C68352   3.999   4.630   5.897  0.2158 -0.2128 -0.1982
  496MOL0     C68353   3.963   4.651   6.046 -0.4693  0.0836  0.2847
  496MOL0     C68354   3.818   4.703   6.060  1.3827  0.5896  0.3670
  496MOL0    Cl68355   3.792   4.799   6.203  0.1466 -0.4126  0.2587
  496MOL0     C68356   4.795   4.226   6.017 -0.5720 -0.5446  0.6847
  496MOL0     C68357   4.938   4.226   6.032 -0.0044 -0.2136  0.1650
  496MOL0     O68358   5.199   4.389   5.925 -0.1405 -0.2905 -0.1042
  496MOL0     C68359   5.462   4.410   5.945 -0.6996  0.0079 -1.0167
  496MOL0     C68360   5.595   4.451   5.962 -0.2560 -0.9002 -0.4029
  496MOL0     N68361   6.257   4.419   6.414  0.4620 -0.1008  0.5787
  496MOL0     N68362   6.289   4.324   6.495 -0.4663  0.5751 -0.0135
  496MOL0     C68363   5.409   3.595   6.364  0.2774  0.3635  0.0434
  496MOL0     C68364   5.267   3.604   6.378 -0.7116 -1.0882 -0.0758
  496MOL0     C68365   4.851   3.602   6.424  0.5380  0.1925  0.2640
  496MOL0     C68366   4.781   3.709   6.491  0.0954  0.9843 -0.1151
  496MOL0     C68367   4.644   3.736   6.466  0.2651 -0.3008  0.1671
  496MOL0     C68368   4.574   3.655   6.376 -0.2767 -0.5246 -0.0363
  496MOL0     O68369   4.441   3.684   6.353  0.6729 -0.3698  0.1463
  496MOL0     C68370   4.351   3.626   6.447 -0.0838  0.3213 -0.1715
  496MOL0     C68371   4.301   3.488   6.383  0.3247  0.2137  0.7565
  496MOL0     C68372   4.176   3.433   6.452 -0.9546  0.5639  0.2214
  496MOL0     C68373   4.217   3.386   6.600 -1.0523 -0.2204 -0.5867
  496MOL0     C68374   4.098   3.352   6.680  0.6125 -0.2003  0.3037
  496MOL0     C68375   3.995   3.323   6.735  0.0937 -0.5204  0.2931
  496MOL0     C68376   4.630   3.556   6.303 -0.5118  0.6579 -1.0449
  496MOL0     C68377   4.771   3.531   6.326  0.1738 -1.0843 -0.3827
  496MOL0     C68378   4.832   3.427   6.243  0.8937 -0.0808 -0.0275
  496MOL0     H68379   5.223   3.739   6.672 -0.4046 -0.0038 -0.5243
  496MOL0     H68380   5.468   3.730   6.676 -2.7177  3.6363 -0.2141
  496MOL0     H68381   5.760   3.722   6.603  1.1907  0.1472 -2.0201
  496MOL0     H68382   5.627   3.836   6.575 -0.2230  0.0918  0.3660
  496MOL0     H68383   5.809   3.794   6.357 -2.7828  0.7968 -1.7819
  496MOL0     H68384   5.715   3.938   6.397  4.4878  2.0793 -0.8704
  496MOL0     H68385   5.909   4.010   6.465 -4.0508 -0.1026 -4.1226
  496MOL0     H68386   5.860   3.924   6.615 -1.8525 -1.6481  0.0407
  496MOL0     H68387   5.961   3.718   6.541 -1.1035  0.7036  0.1166
  496MOL0     H68388   6.053   3.797   6.412  1.0122 -0.3004  0.6293
  496MOL0     H68389   6.185   3.779   6.626  1.0059  1.7873  1.8178
  496MOL0     H68390   6.059   3.865   6.705 -1.3222  2.8130 -0.3846
  496MOL0     H68391   6.111   4.072   6.555 -0.6323 -1.0269 -0.8487
  496MOL0     H68392   6.215   4.026   6.682 -0.6867  1.1544  0.4415
  496MOL0     H68393   6.269   3.953   6.381  2.9084 -1.7946 -0.0901
  496MOL0     H68394   6.349   3.883   6.517 -0.6585 -0.8107 -1.7115
  496MOL0     H68395   6.427   4.110   6.569 -2.1788 -1.4875  1.3397
  496MOL0     H68396   6.466   4.072   6.392 -1.5012  1.2162 -1.4394
  496MOL0     H68397   6.331   4.165   6.212  1.9211  1.0259  0.0294
  496MOL0     H68398   6.279   4.391   6.091  1.3555 -1.1898  1.9661
  496MOL0     H68399   6.249   4.542   6.184  2.1509 -0.7010 -0.0418
  496MOL0     H68400   6.048   4.454   6.034  5.1007  1.0606 -0.9799
  496MOL0     H68401   6.038   4.322   6.149  1.1770  0.3292  2.2660
  496MOL0     H68402   6.048   4.542   6.315  1.2389  0.3554 -0.4715
  496MOL0     H68403   5.996   4.628   6.170  0.9512 -0.9704 -2.4797
  496MOL0     H68404   5.851   4.401   6.293  1.6394  0.5897  0.2405
  496MOL0     H68405   5.793   4.567   6.288  0.7823  1.3171 -0.9076
  496MOL0     H68406   5.607   4.386   6.295 -2.9555 -1.0177  1.5726
  496MOL0     H68407   5.308   4.357   6.351  0.4240 -0.0407  0.4166
  496MOL0     H68408   5.444   4.249   6.357  0.2143  0.1732 -0.5594
  496MOL0     H68409   5.315   4.207   6.249  1.0931 -0.7041 -0.0979
  496MOL0     H68410   5.011   4.502   6.187  0.8784 -1.0081 -0.7466
  496MOL0     H68411   4.751   4.531   6.156 -1.0171 -0.0560  0.0256
  496MOL0     H68412   4.523   4.286   5.879 -0.4377 -0.6755 -0.6404
  496MOL0     H68413   4.544   4.167   6.006  1.8369  0.9779 -1.2101
  496MOL0     H68414   4.314   4.207   5.985 -0.4961 -0.6613  1.7862
  496MOL0     H68415   4.345   4.307   6.130  0.8249  0.7979 -1.0271
  496MOL0     H68416   4.385   4.445   5.876 -0.4471 -2.4143 -0.2906
  496MOL0     H68417   4.328   4.514   6.034 -1.5346 -0.4907  1.6179
  496MOL0     H68418   4.112   4.444   6.025 -1.9970 -2.3018 -1.8535
  496MOL0     H68419   4.121   4.375   5.877  1.6405 -1.7669  0.8537
  496MOL0     H68420   4.203   4.677   5.913  0.8710  0.5609 -2.0079
  496MOL0     H68421   4.177   4.592   5.772  1.5008  1.2232  0.6178
  496MOL0     H68422   3.939   4.550   5.852  0.7197 -0.8884  0.3113
  496MOL0     H68423   3.973   4.724   5.846  1.5459  3.3423  4.8886
  496MOL0     H68424   4.033   4.724   6.089  0.0242 -0.6172  0.6888
  496MOL0     H68425   3.961   4.562   6.109 -5.0205  0.2929  0.7737
  496MOL0     H68426   3.737   4.630   6.054  0.2363  1.9020 -2.3715
  496MOL0     H68427   3.789   4.767   5.976 -4.7627 -0.8862  0.8853
  496MOL0     H68428   4.763   4.138   5.963  0.0617 -1.1536  1.2826
  496MOL0     H68429   4.986   4.139   5.988 -0.9690 -0.3877 -0.5636
  496MOL0     H68430   5.412   4.429   5.851  1.3759  2.8281 -1.6573
  496MOL0     H68431   5.664   4.482   5.885 -1.6748  0.2456 -1.2734
  496MOL0     H68432   5.457   3.569   6.270  2.3626 -2.1945  1.6564
  496MOL0     H68433   5.203   3.572   6.296 -0.4580 -0.8931 -0.3516
  496MOL0     H68434   4.841   3.775   6.554  2.2170  0.4716 -1.4862
  496MOL0     H68435   4.601   3.823   6.514  1.4034  0.4105 -0.0577
  496MOL0     H68436   4.404   3.598   6.538  1.7606 -1.3317 -1.6700
  496MOL0     H68437   4.270   3.697   6.469 -0.2790 -0.3887  1.6007
  496MOL0     H68438   4.382   3.416   6.369  1.2588  1.3043  0.3695
  496MOL0     H68439   4.262   3.534   6.292  1.1136  3.7678  2.0148
  496MOL0     H68440   4.098   3.510   6.448 -1.4709  0.0597  0.4384
  496MOL0     H68441   4.125   3.348   6.405 -1.4317 -0.1202  1.9217
  496MOL0     H68442   4.274   3.470   6.641 -0.7587 -0.9822  0.6191
  496MOL0     H68443   4.281   3.297   6.595  0.5722  0.9083 -0.6977
  496MOL0     H68444   3.905   3.297   6.786 -0.4747 -0.0489 -0.4422
  496MOL0     H68445   4.561   3.501   6.240  0.7003  1.9272 -3.6271
  496MOL0     H68446   4.761   3.396   6.166 -0.0415  1.1362  0.3114
  496MOL0     H68447   4.926   3.458   6.198  1.2701  0.4802  1.1124
  496MOL0     H68448   4.854   3.335   6.300 -1.2415 -1.9068 -1.9506
  497MOL0     O68449   7.156   9.861   7.257 -0.1315  0.0045 -0.5114
  497MOL0     C68450   7.277   9.863   7.231  0.2280  0.6105 -0.0878
  497MOL0     O68451   7.377   9.890   7.318 -0.6570 -0.4801  0.2318
  497MOL0     C68452   7.357   9.907   7.456 -0.1431  0.2907  0.4507
  497MOL0     C68453   7.462   9.868   7.547  0.8466  0.8092  0.2807
  497MOL0     C68454   7.450   9.889   7.681 -0.4845  0.0174  0.4515
  497MOL0     C68455   7.339   9.945   7.744  0.0963 -0.3494  0.2678
  497MOL0     O68456   7.319   9.962   7.878  0.3656  0.2058 -0.1290
  497MOL0     C68457   7.418   9.957   7.976 -0.4167 -0.4603 -0.8892
  497MOL0     C68458   7.352   9.992   8.114  0.6586 -0.1370 -0.2677
  497MOL0     C68459   7.247   9.893   8.183 -0.1095 -0.0826 -0.2572
  497MOL0     C68460   7.112   9.895   8.123 -0.0895  1.1086  0.2039
  497MOL0     C68461   7.043  10.029   8.148  0.5982 -0.0488  0.8160
  497MOL0     C68462   6.908  10.055   8.071  0.5036 -0.3137  0.4283
  497MOL0     C68463   6.814   9.938   8.110  0.2571 -0.0311 -0.3506
  497MOL0     C68464   6.681   9.948   8.039 -0.0661 -0.5102  0.0111
  497MOL0     N68465   6.702   9.921   7.894  0.2791  0.5650  0.0702
  497MOL0     C68466   6.721   9.797   7.835 -0.2267 -0.5301 -0.5835
  497MOL0     C68467   6.783   9.831   7.715  0.5119  0.1395 -0.2096
  497MOL0     C68468   6.805   9.721   7.609 -0.2805 -0.4834  0.4167
  497MOL0     C68469   6.953   9.675   7.602 -0.1725  0.6705 -0.6353
  497MOL0     C68470   6.964   9.554   7.507  0.4062 -0.7755 -0.1339
  497MOL0     C68471   7.106   9.506   7.504  0.4224 -0.2099  0.0774
  497MOL0     O68472   7.132   9.406   7.607 -0.6885  0.2268  0.1676
  497MOL0     C68473   7.233   9.430   7.703  0.5936  0.0563  0.0072
  497MOL0     C68474   7.260   9.324   7.793 -0.6072  1.0856  0.4260
  497MOL0     C68475   7.354   9.326   7.895 -0.4212  0.2727  0.5356
  497MOL0     C68476   7.378   9.191   7.964  0.1915  0.6814  0.1748
  497MOL0     C68477   7.417   9.445   7.921  0.7406 -0.1864 -0.0164
  497MOL0     C68478   7.514   9.464   8.026  0.3979 -0.0969  0.1806
  497MOL0     O68479   7.612   9.367   8.038 -0.3418 -0.1370 -0.0152
  497MOL0     C68480   7.689   9.350   8.148 -0.4007 -0.5229 -1.3915
  497MOL0     C68481   7.648   9.389   8.278 -0.2507  0.8601 -0.1366
  497MOL0     C68482   7.726   9.355   8.396 -0.2796  0.5820  0.1364
  497MOL0     C68483   7.849   9.291   8.384  0.4726  0.4033 -0.6413
  497MOL0     O68484   7.905   9.250   8.504 -0.0902 -0.5294  0.5251
  497MOL0     C68485   8.039   9.212   8.502 -0.4660 -0.3755 -0.3147
  497MOL0     C68486   8.077   9.169   8.649 -0.9198  0.3480  0.5801
  497MOL0     C68487   8.215   9.103   8.678  0.3256 -0.5401 -0.5153
  497MOL0     C68488   8.241   8.987   8.575  0.1466  0.9648 -0.1212
  497MOL0     C68489   8.146   8.874   8.589  0.3010  0.8164  0.1437
  497MOL0     C68490   8.188   8.761   8.489 -0.1974 -0.0932  0.2574
  497MOL0     C68491   8.300   8.677   8.538 -0.2176  0.2888  0.1441
  497MOL0     C68492   8.241   8.536   8.586 -0.2985 -0.3604 -0.1201
  497MOL0    Cl68493   8.382   8.422   8.602  0.6252  0.2382  0.3740
  497MOL0     C68494   7.886   9.248   8.256  0.5068 -0.1755  0.4802
  497MOL0     C68495   7.808   9.275   8.141  0.6643  0.6564  0.1896
  497MOL0     O68496   7.496   9.559   8.102  0.2880 -0.5005 -0.0618
  497MOL0     C68497   7.392   9.548   7.837 -0.6054  0.8942 -0.4885
  497MOL0     C68498   7.302   9.543   7.734 -0.6405 -1.1093  0.2004
  497MOL0     N68499   6.773   9.965   7.693 -0.2360 -1.0614 -0.2766
  497MOL0     N68500   6.740  10.018   7.807  0.4339 -0.2190 -0.2052
  497MOL0     C68501   7.240   9.981   7.659  1.0283 -0.2012 -0.7651
  497MOL0     C68502   7.246   9.963   7.517  0.0209 -0.5557 -0.0509
  497MOL0     C68503   7.305   9.824   7.093  0.0426 -0.1355 -0.1669
  497MOL0     C68504   7.417   9.751   7.056 -0.5585 -0.3364  0.9538
  497MOL0     C68505   7.440   9.708   6.925 -0.2427 -0.2635 -0.2307
  497MOL0     C68506   7.345   9.735   6.820  0.5051  0.5914  0.3631
  497MOL0     O68507   7.378   9.682   6.699  0.4750  0.3791  0.1548
  497MOL0     C68508   7.273   9.651   6.605 -0.2522 -0.2010  0.0422
  497MOL0     C68509   7.218   9.513   6.664 -0.2523  0.0543  0.2647
  497MOL0     C68510   7.328   9.402   6.636 -0.3538  0.5197 -0.6258
  497MOL0     C68511   7.271   9.260   6.641 -0.1187  0.0034 -0.2526
  497MOL0     C68512   7.359   9.150   6.592  0.3906 -0.0091 -1.2341
  497MOL0     C68513   7.422   9.047   6.572 -1.1962  0.7167  0.2979
  497MOL0     C68514   7.235   9.812   6.850 -0.1228 -0.3021 -0.0363
  497MOL0     C68515   7.214   9.862   6.981 -0.1042  0.4759  0.0702
  497MOL0     C68516   7.103   9.958   6.994  0.7647 -0.6711 -0.5020
  497MOL0     H68517   7.553   9.819   7.513 -0.2373 -1.2023  0.1419
  497MOL0     H68518   7.531   9.848   7.742 -1.2029 -0.5638  1.0256
  497MOL0     H68519   7.502  10.026   7.961  0.8000 -1.3756  1.1850
  497MOL0     H68520   7.472   9.862   7.977  2.1273  0.8813 -0.9826
  497MOL0     H68521   7.437   9.993   8.184  1.8038  0.9338 -1.6043
  497MOL0     H68522   7.311  10.092   8.106  1.0214  0.0368 -0.0035
  497MOL0     H68523   7.285   9.790   8.178 -1.5066 -0.5567 -2.1489
  497MOL0     H68524   7.228   9.916   8.288 -2.4220 -4.2538  0.4304
  497MOL0     H68525   7.105   9.878   8.015  0.3020 -4.0867  0.7159
  497MOL0     H68526   7.060   9.812   8.172  0.0578  1.0629  0.2832
  497MOL0     H68527   7.118  10.096   8.105 -0.9021  0.3118 -1.4181
  497MOL0     H68528   7.030  10.052   8.254  3.1053  0.6487  1.0486
  497MOL0     H68529   6.864  10.149   8.106  0.8292 -0.2509  0.6769
  497MOL0     H68530   6.923  10.058   7.963 -0.6311  0.3003  0.2754
  497MOL0     H68531   6.798   9.942   8.218 -1.6774  0.8162 -0.6423
  497MOL0     H68532   6.865   9.845   8.084 -0.4677 -0.4669 -0.2287
  497MOL0     H68533   6.600   9.886   8.078 -1.7497  1.4964 -0.0879
  497MOL0     H68534   6.648  10.052   8.038 -0.2961 -0.5828 -1.1269
  497MOL0     H68535   6.712   9.698   7.880  1.2902 -1.1705 -1.6290
  497MOL0     H68536   6.788   9.766   7.511  0.3713  1.1768  1.0246
  497MOL0     H68537   6.738   9.636   7.622  2.3686 -2.5290  1.8314
  497MOL0     H68538   7.019   9.756   7.568  4.5710 -2.2811  0.5830
  497MOL0     H68539   6.983   9.646   7.703  1.0674  1.7842 -0.6474
  497MOL0     H68540   6.894   9.476   7.539 -0.7898  0.7280  1.0791
  497MOL0     H68541   6.936   9.577   7.404 -0.3364 -0.8106  0.0488
  497MOL0     H68542   7.110   9.459   7.405  3.5146 -1.4708  0.6854
  497MOL0     H68543   7.178   9.587   7.513  0.4836 -0.4619  2.3629
  497MOL0     H68544   7.214   9.227   7.775  2.5966 -1.0247  2.6136
  497MOL0     H68545   7.367   9.205   8.071 -1.3652 -1.5630  0.3844
  497MOL0     H68546   7.477   9.147   7.949  0.5621  1.8158 -0.9021
  497MOL0     H68547   7.304   9.115   7.934 -0.8672  1.6633  0.2385
  497MOL0     H68548   7.556   9.443   8.297 -0.1235  0.0652  3.5661
  497MOL0     H68549   7.684   9.384   8.492 -3.3584  0.7209 -1.1181
  497MOL0     H68550   8.045   9.121   8.442  0.8322 -0.3085 -0.3194
  497MOL0     H68551   8.102   9.281   8.446 -1.5032  0.5464 -0.3659
  497MOL0     H68552   8.064   9.259   8.710  0.4307 -1.2273  3.3486
  497MOL0     H68553   8.006   9.091   8.676 -0.7691  0.8227  2.4739
  497MOL0     H68554   8.217   9.060   8.778 -0.0648  1.6177  0.4855
  497MOL0     H68555   8.288   9.185   8.673  1.6326 -1.6707 -0.8037
  497MOL0     H68556   8.345   8.954   8.591 -1.0324 -1.3333  4.8544
  497MOL0     H68557   8.239   9.013   8.469  0.5106 -1.7719 -0.8823
  497MOL0     H68558   8.133   8.840   8.692 -1.5658  1.3438  0.1297
  497MOL0     H68559   8.042   8.903   8.568  0.7516  0.9300 -2.1632
  497MOL0     H68560   8.212   8.803   8.391 -1.4192 -1.1192 -0.5048
  497MOL0     H68561   8.098   8.699   8.485  0.4587 -1.1003  0.7730
  497MOL0     H68562   8.370   8.722   8.607  1.5823  0.4883 -1.7225
  497MOL0     H68563   8.358   8.666   8.446 -0.5942  0.0444 -0.0710
  497MOL0     H68564   8.155   8.506   8.527 -1.9461  0.6068  1.6634
  497MOL0     H68565   8.193   8.551   8.684 -5.2464 -2.1127 -1.9689
  497MOL0     H68566   7.966   9.174   8.247 -1.1570 -2.0733  0.6062
  497MOL0     H68567   7.829   9.217   8.052  0.5219  1.6626 -0.5111
  497MOL0     H68568   7.438   9.645   7.849 -0.1610  0.7760 -1.2002
  497MOL0     H68569   7.298   9.636   7.678 -0.0012  0.6320  2.8655
  497MOL0     H68570   7.152  10.014   7.712  0.1165 -1.0787 -1.6758
  497MOL0     H68571   7.160  10.000   7.462  0.4757 -1.1701 -1.2056
  497MOL0     H68572   7.484   9.722   7.136  0.5666 -0.9751 -0.1635
  497MOL0     H68573   7.527   9.648   6.901 -0.4325 -1.0042  0.8586
  497MOL0     H68574   7.196   9.728   6.618 -0.0191 -0.4348  3.7780
  497MOL0     H68575   7.324   9.648   6.508 -2.4973  1.5216 -1.2931
  497MOL0     H68576   7.127   9.486   6.610  0.5639  0.3119 -1.2831
  497MOL0     H68577   7.184   9.523   6.768  2.4111 -2.4151  1.5137
  497MOL0     H68578   7.378   9.427   6.542  3.6956 -0.9455  0.9269
  497MOL0     H68579   7.411   9.411   6.706 -0.0931  0.5832 -0.9403
  497MOL0     H68580   7.185   9.267   6.574  1.4899 -2.2582 -2.7719
  497MOL0     H68581   7.240   9.232   6.743  1.3977  0.7717  0.4463
  497MOL0     H68582   7.464   8.949   6.562 -2.9265 -0.0892  0.7260
  497MOL0     H68583   7.166   9.848   6.774 -0.8594  1.4017  1.3767
  497MOL0     H68584   7.010   9.909   7.024 -0.2008  0.3818 -1.6244
  497MOL0     H68585   7.117  10.041   7.063 -2.1107  1.2557 -2.0111
  497MOL0     H68586   7.078  10.012   6.902 -0.9071 -0.2585  0.1560
  498MOL0     O68587   8.818   7.270   3.622 -0.2838  0.6935 -0.7231
  498MOL0     C68588   8.856   7.369   3.560 -0.2873 -0.7169  0.4563
  498MOL0     O68589   8.779   7.446   3.473  0.2359 -0.0702  0.4972
  498MOL0     C68590   8.650   7.398   3.436  0.4130  0.4685  0.3421
  498MOL0     C68591   8.616   7.258   3.425 -0.7389  0.2305 -0.1404
  498MOL0     C68592   8.491   7.225   3.373  0.2843 -0.1055  0.5692
  498MOL0     C68593   8.394   7.318   3.342 -0.1120  0.4444  0.6638
  498MOL0     O68594   8.276   7.275   3.294 -0.5154  0.3169 -0.0318
  498MOL0     C68595   8.167   7.358   3.295  0.5612 -0.0050  0.1132
  498MOL0     C68596   8.045   7.274   3.227 -0.8620  0.6789  0.4803
  498MOL0     C68597   8.015   7.146   3.312 -0.4093  0.1847 -0.1260
  498MOL0     C68598   8.080   7.025   3.243 -0.5494 -1.1503 -0.3891
  498MOL0     C68599   8.063   6.895   3.324  0.2242  0.9988  0.4838
  498MOL0     C68600   8.166   6.875   3.435  0.1150  0.7798  0.1158
  498MOL0     C68601   8.120   6.763   3.535 -0.9698 -0.6815  0.1455
  498MOL0     C68602   8.142   6.616   3.493 -0.1530 -0.2881  0.1021
  498MOL0     N68603   8.280   6.595   3.534  0.0932  1.2199  0.7809
  498MOL0     C68604   8.379   6.607   3.436 -0.3438 -0.6704 -0.1885
  498MOL0     C68605   8.488   6.572   3.511  0.2514 -0.6084  0.4679
  498MOL0     C68606   8.629   6.570   3.451 -0.0305 -0.2208 -0.8428
  498MOL0     C68607   8.737   6.651   3.536  0.2272 -0.5260 -0.5596
  498MOL0     C68608   8.700   6.803   3.541  0.4369 -0.1632 -0.4696
  498MOL0     C68609   8.814   6.893   3.587  0.4808  0.1579  0.2648
  498MOL0     O68610   8.868   6.877   3.720 -0.5070 -0.1108 -0.2416
  498MOL0     C68611   8.824   6.955   3.826 -0.5493 -0.0703  0.1917
  498MOL0     C68612   8.712   7.044   3.821 -0.1261 -0.1462  0.2337
  498MOL0     C68613   8.687   7.135   3.919  1.5680  0.7183 -0.7305
  498MOL0     C68614   8.566   7.226   3.895  0.1616 -0.8755 -0.1316
  498MOL0     C68615   8.765   7.128   4.040  0.0039  0.2015  0.1852
  498MOL0     C68616   8.747   7.217   4.158  0.2359  0.1838  0.8976
  498MOL0     O68617   8.846   7.226   4.251  0.2039 -0.5813  0.6411
  498MOL0     C68618   8.818   7.297   4.362  0.5158 -0.0949 -0.3667
  498MOL0     C68619   8.851   7.428   4.368 -0.6672 -0.2355  0.5441
  498MOL0     C68620   8.841   7.505   4.489  0.1564 -0.1255 -0.1777
  498MOL0     C68621   8.806   7.443   4.605  0.0222 -0.0150  0.5487
  498MOL0     O68622   8.813   7.525   4.709  0.1207  0.1185 -0.0966
  498MOL0     C68623   8.772   7.482   4.837  0.1811 -0.0988  0.1616
  498MOL0     C68624   8.905   7.451   4.921  0.4080 -0.2295 -0.3015
  498MOL0     C68625   8.999   7.560   4.954 -1.0408 -0.3065 -0.3290
  498MOL0     C68626   8.950   7.653   5.061  0.5616 -0.9646  0.1822
  498MOL0     C68627   9.064   7.753   5.100 -0.2505  0.9914 -0.3909
  498MOL0     C68628   8.997   7.871   5.172 -1.2683 -0.1633  0.3130
  498MOL0     C68629   9.103   7.945   5.263 -0.1254 -0.5525 -0.3168
  498MOL0     C68630   9.046   8.070   5.335  0.1566 -0.4456  0.0985
  498MOL0    Cl68631   8.983   8.184   5.207  0.8680  0.3078  0.0389
  498MOL0     C68632   8.766   7.310   4.607  0.2375  0.8136  0.2675
  498MOL0     C68633   8.776   7.239   4.482  0.4149 -0.3644  0.0706
  498MOL0     O68634   8.640   7.272   4.171 -0.0012 -1.0516 -0.1136
  498MOL0     C68635   8.868   7.037   4.049 -0.2418  0.7020 -0.6299
  498MOL0     C68636   8.896   6.952   3.937 -0.5917  0.1446 -0.3006
  498MOL0     N68637   8.462   6.533   3.637  1.2598  0.3135  0.5946
  498MOL0     N68638   8.332   6.540   3.651  0.6064  0.8002  0.3074
  498MOL0     C68639   8.431   7.449   3.353 -0.5177  0.5276  0.8005
  498MOL0     C68640   8.561   7.484   3.388 -0.1398 -0.4973  0.0280
  498MOL0     C68641   9.003   7.418   3.586  0.0046  0.2238  0.4772
  498MOL0     C68642   9.068   7.492   3.481  0.0279  0.8157 -0.1616
  498MOL0     C68643   9.188   7.551   3.507 -0.0733  1.1766  0.4057
  498MOL0     C68644   9.260   7.536   3.628 -0.1940 -0.1061 -0.2596
  498MOL0     O68645   9.376   7.605   3.659 -0.6602  0.0716 -0.6298
  498MOL0     C68646   9.435   7.692   3.566 -0.0174 -0.6888  0.0551
  498MOL0     C68647   9.577   7.733   3.613  0.3986 -0.2892  0.0008
  498MOL0     C68648   9.567   7.845   3.720  0.5433 -0.1716 -0.0208
  498MOL0     C68649   9.551   7.787   3.863  0.0405 -0.3197  0.0464
  498MOL0     C68650   9.584   7.893   3.960 -0.2395 -0.2086  1.5217
  498MOL0     C68651   9.602   7.974   4.044 -0.2179  1.0438 -0.0439
  498MOL0     C68652   9.208   7.449   3.721 -0.3866  1.0868 -0.2401
  498MOL0     C68653   9.078   7.398   3.703  0.3300 -0.5432 -0.3572
  498MOL0     C68654   9.020   7.332   3.822 -0.7547  0.2089 -0.0086
  498MOL0     H68655   8.684   7.178   3.453 -1.5701 -0.3278  0.3306
  498MOL0     H68656   8.456   7.122   3.372  1.4096 -0.5081  1.3017
  498MOL0     H68657   8.189   7.449   3.239  2.1974  0.1434  0.9436
  498MOL0     H68658   8.139   7.384   3.398  2.3196 -0.6465  0.7864
  498MOL0     H68659   7.953   7.333   3.219 -0.4553  1.1196 -2.0573
  498MOL0     H68660   8.073   7.255   3.122  1.9514  1.1122  1.0605
  498MOL0     H68661   8.051   7.164   3.414 -3.0211 -0.1052  0.9166
  498MOL0     H68662   7.907   7.131   3.321 -0.1797 -0.6698  1.7145
  498MOL0     H68663   8.046   7.005   3.140 -1.6552 -1.8031  0.0885
  498MOL0     H68664   8.188   7.042   3.231 -0.6597 -0.8043 -0.9305
  498MOL0     H68665   8.093   6.810   3.262  1.9631  1.3180  0.8440
  498MOL0     H68666   7.961   6.875   3.357  0.5747 -2.6079 -0.2181
  498MOL0     H68667   8.256   6.847   3.378  0.3252  1.5776  0.0482
  498MOL0     H68668   8.176   6.972   3.484 -1.0948  1.0046 -0.0397
  498MOL0     H68669   8.015   6.788   3.554 -0.6711  0.0133  0.9438
  498MOL0     H68670   8.172   6.782   3.629 -0.1199  0.3097 -0.5082
  498MOL0     H68671   8.068   6.555   3.546 -1.7591 -0.1453 -1.8480
  498MOL0     H68672   8.141   6.589   3.387  1.7870  0.6551 -0.1878
  498MOL0     H68673   8.381   6.625   3.329 -0.4936 -1.2036 -0.2852
  498MOL0     H68674   8.619   6.601   3.347 -1.5519 -1.4053 -1.0739
  498MOL0     H68675   8.656   6.464   3.454  2.2164  0.3150 -0.4518
  498MOL0     H68676   8.744   6.610   3.637 -2.4467 -1.5845 -0.7200
  498MOL0     H68677   8.833   6.655   3.484  0.3373  2.4117 -0.3228
  498MOL0     H68678   8.662   6.832   3.442 -0.6367 -2.2273 -0.7066
  498MOL0     H68679   8.614   6.825   3.605  1.0084 -0.4913  0.4335
  498MOL0     H68680   8.902   6.879   3.524 -0.5641  2.2008 -1.8210
  498MOL0     H68681   8.782   6.996   3.571 -2.8501 -0.9503 -1.0889
  498MOL0     H68682   8.642   7.054   3.738  2.8581 -0.0799 -2.4557
  498MOL0     H68683   8.498   7.229   3.980  0.0037  0.9083 -0.2922
  498MOL0     H68684   8.504   7.197   3.809  0.2385 -1.6068  0.0456
  498MOL0     H68685   8.602   7.329   3.891  1.1286 -1.2239 -2.3828
  498MOL0     H68686   8.901   7.467   4.280  2.1185  0.4222  2.2852
  498MOL0     H68687   8.860   7.611   4.495 -0.2197 -0.0191 -0.8234
  498MOL0     H68688   8.709   7.551   4.894  0.5665 -1.1830  2.0104
  498MOL0     H68689   8.703   7.398   4.832 -0.5915  0.5959 -1.9660
  498MOL0     H68690   8.867   7.405   5.013 -1.1394  0.3660 -0.6052
  498MOL0     H68691   8.947   7.370   4.860  0.4736  0.9778 -1.9330
  498MOL0     H68692   9.021   7.626   4.869 -2.5607 -0.2480 -0.7031
  498MOL0     H68693   9.086   7.504   4.988 -1.6076 -1.3580 -0.5828
  498MOL0     H68694   8.923   7.600   5.153  0.9672  2.9360  2.7991
  498MOL0     H68695   8.864   7.716   5.037  1.9986  1.6751  1.4878
  498MOL0     H68696   9.127   7.693   5.166 -0.1172  1.2165 -0.3142
  498MOL0     H68697   9.121   7.789   5.013 -0.2330  0.4973 -0.5876
  498MOL0     H68698   8.904   7.848   5.225 -2.6295  2.4325 -0.7460
  498MOL0     H68699   8.983   7.936   5.085 -0.5800 -0.6678 -0.1860
  498MOL0     H68700   9.177   7.991   5.197 -1.3704 -1.5229 -2.5125
  498MOL0     H68701   9.152   7.873   5.328  1.0985 -0.5008 -1.1570
  498MOL0     H68702   9.126   8.116   5.393 -1.5827 -0.0520  2.3098
  498MOL0     H68703   8.959   8.047   5.398 -0.7797 -0.4436 -1.1438
  498MOL0     H68704   8.734   7.246   4.689  1.8420 -0.2177  0.1342
  498MOL0     H68705   8.766   7.131   4.484  0.6233 -0.6214 -3.7941
  498MOL0     H68706   8.938   7.028   4.131 -1.6676 -0.6782  0.4867
  498MOL0     H68707   8.964   6.869   3.924 -1.5010 -0.3932 -1.8755
  498MOL0     H68708   8.368   7.535   3.331 -0.8152  0.6453  2.0627
  498MOL0     H68709   8.593   7.588   3.380  4.3890 -1.6396  0.4122
  498MOL0     H68710   9.026   7.499   3.382  0.2238  0.8782 -0.2404
  498MOL0     H68711   9.237   7.620   3.439  2.8558  0.1337  1.2977
  498MOL0     H68712   9.451   7.645   3.469  3.7693 -1.4294  0.8757
  498MOL0     H68713   9.377   7.782   3.541  1.3143 -0.8259 -4.4652
  498MOL0     H68714   9.631   7.765   3.524  1.9625 -1.7108  0.4005
  498MOL0     H68715   9.620   7.640   3.649  1.0157 -0.8259 -2.0174
  498MOL0     H68716   9.658   7.905   3.712  1.2890 -1.5174 -2.4978
  498MOL0     H68717   9.482   7.913   3.706 -0.1671 -0.6400  1.7246
  498MOL0     H68718   9.622   7.704   3.873  1.0060  0.2739 -1.5061
  498MOL0     H68719   9.446   7.759   3.875  0.0503  0.4331  2.2301
  498MOL0     H68720   9.637   8.043   4.118 -1.0179  0.5375  0.8477
  498MOL0     H68721   9.256   7.424   3.815  1.6932 -0.3414 -1.5871
  498MOL0     H68722   8.927   7.376   3.859 -0.2368  0.9795  0.4013
  498MOL0     H68723   8.995   7.231   3.789 -0.2623  0.7706 -2.3360
  498MOL0     H68724   9.096   7.330   3.901 -0.7580  1.1233  0.0348
  499MOL0     O68725  10.029   6.750   7.148  0.8506  0.0642  0.1389
  499MOL0     C68726  10.047   6.870   7.156  0.1092 -0.6065  0.3099
  499MOL0     O68727  10.129   6.936   7.078 -0.3788  0.2811 -0.8948
  499MOL0     C68728  10.223   6.858   7.018  0.5870 -1.0030  0.0102
  499MOL0     C68729  10.349   6.850   7.077 -0.1496 -0.0608  1.0678
  499MOL0     C68730  10.435   6.764   7.004 -0.0691 -0.5980 -0.5971
  499MOL0     C68731  10.406   6.713   6.874  0.7771 -1.1121 -0.0878
  499MOL0     O68732  10.503   6.654   6.802  0.5566 -0.4744  0.6912
  499MOL0     C68733  10.463   6.533   6.735 -1.3119 -0.1051  0.3469
  499MOL0     C68734  10.582   6.448   6.672  0.7000 -0.0848  0.3687
  499MOL0     C68735  10.687   6.544   6.612 -0.2958  0.8378 -0.8331
  499MOL0     C68736  10.782   6.459   6.522 -0.5373 -1.1256 -0.0969
  499MOL0     C68737  10.893   6.547   6.452  0.1271 -0.4899  0.7891
  499MOL0     C68738  10.988   6.482   6.343  0.4000  0.1637  0.3904
  499MOL0     C68739  11.093   6.579   6.287 -0.3548  0.2068  0.0990
  499MOL0     C68740  11.030   6.724   6.257 -0.0881  0.4415 -0.0574
  499MOL0     N68741  11.137   6.827   6.236 -0.4098  0.6330 -0.1255
  499MOL0     C68742  11.209   6.894   6.327  0.3826  0.6211 -0.1875
  499MOL0     C68743  11.269   6.994   6.258  0.0569 -0.4510 -1.1827
  499MOL0     C68744  11.371   7.094   6.313 -0.1787  0.5182  0.3778
  499MOL0     C68745  11.334   7.236   6.269 -0.0356  0.2401 -0.6688
  499MOL0     C68746  11.423   7.360   6.307 -0.6316  0.2255 -0.2198
  499MOL0     C68747  11.563   7.320   6.343  0.0743  0.1558 -0.5026
  499MOL0     O68748  11.623   7.280   6.216  0.4117 -0.3135  0.0050
  499MOL0     C68749  11.754   7.242   6.217 -0.3076  0.8847 -0.1683
  499MOL0     C68750  11.812   7.199   6.098 -0.1827 -0.7360  0.5137
  499MOL0     C68751  11.945   7.148   6.086 -0.4335  0.0549 -0.3975
  499MOL0     C68752  12.000   7.126   5.947  0.6434  0.7126  0.3035
  499MOL0     C68753  12.019   7.135   6.208  0.5332  0.8970 -0.4321
  499MOL0     C68754  12.156   7.082   6.211  0.7295  0.2685  0.4279
  499MOL0     O68755  12.224   7.107   6.318  0.8240  0.3495  0.4958
  499MOL0     C68756  12.363   7.080   6.331 -0.1509 -0.0940 -0.0667
  499MOL0     C68757  12.458   7.080   6.231  0.1010  0.2448 -0.0541
  499MOL0     C68758  12.596   7.054   6.271  0.1184  0.7858 -0.0021
  499MOL0     C68759  12.628   7.029   6.409  0.3864  0.6540 -0.6105
  499MOL0     O68760  12.759   7.012   6.423  0.5532  0.0736 -0.5300
  499MOL0     C68761  12.812   6.996   6.560  0.3172 -0.0050  0.0611
  499MOL0     C68762  12.873   6.861   6.590  0.2308 -0.2042 -0.1167
  499MOL0     C68763  12.956   6.804   6.463 -0.1642 -0.7915 -0.0002
  499MOL0     C68764  12.981   6.647   6.490 -0.3168 -0.1627 -0.6162
  499MOL0     C68765  13.080   6.597   6.383 -0.1358 -0.0201  0.3888
  499MOL0     C68766  13.160   6.486   6.450  0.8970 -0.0737 -0.3433
  499MOL0     C68767  13.292   6.533   6.502  0.3087 -0.1963 -0.7677
  499MOL0     C68768  13.370   6.436   6.585  0.5410  0.2924 -0.5335
  499MOL0    Cl68769  13.420   6.302   6.493  0.3012  0.2086 -0.0210
  499MOL0     C68770  12.525   7.025   6.506 -0.7840 -0.6441 -0.5221
  499MOL0     C68771  12.395   7.054   6.467  1.0093  0.6807  0.7189
  499MOL0     O68772  12.198   7.011   6.119  1.0535 -0.5260 -0.4872
  499MOL0     C68773  11.966   7.185   6.327 -0.4686  0.1640  0.6930
  499MOL0     C68774  11.836   7.243   6.330  0.2805  0.6239  0.2221
  499MOL0     N68775  11.248   6.965   6.122  0.0572  0.2999  0.2751
  499MOL0     N68776  11.150   6.878   6.110  0.2245  0.1969 -0.0601
  499MOL0     C68777  10.286   6.733   6.817  0.2152  0.9112 -0.5985
  499MOL0     C68778  10.185   6.791   6.896 -0.2450  0.2287 -0.3403
  499MOL0     C68779   9.956   6.953   7.253 -0.8982 -0.3047  0.5011
  499MOL0     C68780   9.922   7.076   7.204 -0.1520 -1.0248 -0.2983
  499MOL0     C68781   9.836   7.164   7.270 -0.1652  0.2819  0.3650
  499MOL0     C68782   9.776   7.115   7.388 -0.0185  0.3421  0.6106
  499MOL0     O68783   9.692   7.202   7.452  0.1144 -0.4644 -0.7833
  499MOL0     C68784   9.587   7.157   7.541 -1.1408  1.7698  0.6200
  499MOL0     C68785   9.550   7.265   7.649 -0.1689 -0.0028  0.5764
  499MOL0     C68786   9.417   7.240   7.726  0.2095  0.2478 -0.3836
  499MOL0     C68787   9.424   7.115   7.816  1.0333  0.0555 -0.2819
  499MOL0     C68788   9.291   7.059   7.854  0.0967 -1.0401 -0.2514
  499MOL0     C68789   9.197   6.995   7.896 -0.1632  0.1250 -0.4787
  499MOL0     C68790   9.797   6.983   7.431 -0.7574 -0.2238  0.0380
  499MOL0     C68791   9.898   6.904   7.369  0.0871  0.4453  0.4073
  499MOL0     C68792   9.926   6.766   7.421 -0.1260  0.9173  0.3267
  499MOL0     H68793  10.380   6.907   7.164  1.2239  0.9916 -0.0710
  499MOL0     H68794  10.533   6.735   7.043  1.8880  0.3724 -4.3289
  499MOL0     H68795  10.398   6.565   6.652 -0.1658  0.5077 -0.3358
  499MOL0     H68796  10.406   6.472   6.805 -1.4376  0.8263  1.0800
  499MOL0     H68797  10.632   6.381   6.743  2.1015 -2.2809 -2.4774
  499MOL0     H68798  10.537   6.389   6.592  1.1591 -1.1086  0.8607
  499MOL0     H68799  10.654   6.637   6.565  0.5595  1.7254  0.2650
  499MOL0     H68800  10.751   6.592   6.687  0.1184  0.2524 -0.8101
  499MOL0     H68801  10.826   6.378   6.581 -1.6416 -0.7304  1.3149
  499MOL0     H68802  10.719   6.409   6.448 -1.9347  0.4546 -0.0238
  499MOL0     H68803  10.946   6.596   6.534 -1.0771  1.7712  0.2793
  499MOL0     H68804  10.835   6.619   6.395 -0.5709 -3.8719 -3.2782
  499MOL0     H68805  11.047   6.408   6.397  0.5712  1.1605  1.6297
  499MOL0     H68806  10.925   6.452   6.259  1.9871  0.4665 -0.9711
  499MOL0     H68807  11.142   6.544   6.196  1.1261  2.5573 -0.0917
  499MOL0     H68808  11.169   6.588   6.366 -1.6954  1.8971  1.2747
  499MOL0     H68809  10.967   6.727   6.167  1.8865  3.3302 -1.5110
  499MOL0     H68810  10.974   6.760   6.343 -0.2005  1.3357 -0.4945
  499MOL0     H68811  11.216   6.873   6.433  2.5401  0.9344 -0.2215
  499MOL0     H68812  11.469   7.072   6.269  0.2265 -0.9665  1.9056
  499MOL0     H68813  11.376   7.083   6.422  0.7863 -1.9031  0.1516
  499MOL0     H68814  11.324   7.236   6.160 -0.6541  0.4837 -0.6135
  499MOL0     H68815  11.240   7.260   6.320  0.4784  1.5237 -0.2802
  499MOL0     H68816  11.420   7.434   6.227 -0.3432 -0.8026 -1.2150
  499MOL0     H68817  11.371   7.404   6.393 -2.1855 -0.5310 -0.7482
  499MOL0     H68818  11.618   7.405   6.384  0.3558  0.0411 -0.6376
  499MOL0     H68819  11.560   7.239   6.416 -0.7221  2.1444  1.7777
  499MOL0     H68820  11.759   7.208   6.004 -0.0576 -3.5077  0.0816
  499MOL0     H68821  12.041   7.025   5.939  3.0896  1.7903 -3.2275
  499MOL0     H68822  12.078   7.199   5.923 -0.1637  1.1615 -1.1243
  499MOL0     H68823  11.921   7.128   5.872  2.0407 -0.2687 -1.2706
  499MOL0     H68824  12.424   7.099   6.129 -0.7323  0.2946  0.2222
  499MOL0     H68825  12.668   7.046   6.190 -0.6258 -0.5636 -0.5579
  499MOL0     H68826  12.892   7.069   6.567 -1.2632  1.7708  0.2453
  499MOL0     H68827  12.747   7.023   6.644  0.4098 -0.5521  0.3204
  499MOL0     H68828  12.943   6.883   6.671  0.2290  1.8425 -0.6076
  499MOL0     H68829  12.798   6.789   6.625 -0.5684  0.8135  0.3130
  499MOL0     H68830  13.055   6.851   6.457  0.4350 -2.1536 -1.2077
  499MOL0     H68831  12.896   6.819   6.373 -0.8610  0.2157  0.5943
  499MOL0     H68832  12.894   6.581   6.495 -2.4100  2.3980 -0.6901
  499MOL0     H68833  13.032   6.635   6.587 -0.1281  1.5800 -0.4616
  499MOL0     H68834  13.028   6.560   6.294  2.8756 -0.1049 -1.5143
  499MOL0     H68835  13.155   6.672   6.354  1.5252 -0.7309  2.6140
  499MOL0     H68836  13.176   6.403   6.379  1.6792 -1.2177  1.1075
  499MOL0     H68837  13.110   6.438   6.534 -2.5531  0.7840 -1.7567
  499MOL0     H68838  13.263   6.626   6.551 -2.0200 -0.7644 -0.9582
  499MOL0     H68839  13.360   6.561   6.420 -1.5398 -1.7369 -2.9573
  499MOL0     H68840  13.311   6.402   6.671  3.2625 -0.5103  1.1201
  499MOL0     H68841  13.459   6.482   6.628  0.8961 -1.3674  0.5981
  499MOL0     H68842  12.558   7.004   6.607  0.6745 -0.7648 -0.9955
  499MOL0     H68843  12.308   7.055   6.533 -1.3539 -0.1069 -2.1398
  499MOL0     H68844  12.028   7.184   6.416  1.2326 -1.6407 -0.4228
  499MOL0     H68845  11.806   7.271   6.430  0.0326  0.5073  0.1829
  499MOL0     H68846  10.258   6.685   6.724 -0.5383  0.2931 -0.0629
  499MOL0     H68847  10.082   6.803   6.864 -0.7084  0.5414  1.1656
  499MOL0     H68848   9.951   7.105   7.104  0.4897 -0.0287  0.1606
  499MOL0     H68849   9.813   7.262   7.229 -1.4098  0.0594  0.4809
  499MOL0     H68850   9.496   7.130   7.487 -0.5804  0.4572  0.2891
  499MOL0     H68851   9.628   7.069   7.592 -2.4885  1.3564  1.0362
  499MOL0     H68852   9.524   7.363   7.607 -4.2085 -1.7874 -1.6139
  499MOL0     H68853   9.623   7.267   7.731  0.2542 -0.6796  0.2246
  499MOL0     H68854   9.388   7.331   7.779  1.7898  1.1024 -0.9191
  499MOL0     H68855   9.342   7.228   7.648  0.7558  1.7318 -1.1760
  499MOL0     H68856   9.485   7.122   7.906 -1.3269 -1.4886  1.5671
  499MOL0     H68857   9.472   7.046   7.745 -0.6214  0.6510 -2.0548
  499MOL0     H68858   9.122   6.945   7.954 -0.5716 -0.5196 -1.5353
  499MOL0     H68859   9.742   6.934   7.511 -0.0843 -1.6352 -0.3145
  499MOL0     H68860   9.856   6.690   7.386  2.6901 -1.9705  0.4935
  499MOL0     H68861  10.029   6.738   7.398 -1.2410 -1.8535 -1.7470
  499MOL0     H68862   9.925   6.773   7.530 -2.8805 -0.5053  0.4841
  500MOL0     O68863   6.235   5.182   2.403  0.4591 -1.1430  1.0305
  500MOL0     C68864   6.240   5.111   2.307 -0.5013 -0.2940  0.1781
  500MOL0     O68865   6.350   5.026   2.283 -0.1836  0.4708 -0.2575
  500MOL0     C68866   6.461   5.038   2.361 -0.5191  0.7909 -0.8335
  500MOL0     C68867   6.545   5.143   2.350  0.6730 -1.0379 -0.6331
  500MOL0     C68868   6.677   5.144   2.397 -0.0209  0.4579  0.5718
  500MOL0     C68869   6.726   5.033   2.465  0.4419  0.0489  0.5811
  500MOL0     O68870   6.856   5.032   2.500 -0.1882  0.1883 -0.2490
  500MOL0     C68871   6.880   5.123   2.611 -0.1807  0.2866 -0.4044
  500MOL0     C68872   6.807   5.084   2.742 -0.5751  0.6528  0.8834
  500MOL0     C68873   6.868   5.144   2.867  0.4385  0.6282 -0.7285
  500MOL0     C68874   6.991   5.069   2.914 -0.0802 -0.0941 -0.3410
  500MOL0     C68875   7.033   5.055   3.067  0.0632 -1.1637  0.3350
  500MOL0     C68876   7.109   5.181   3.105  0.1531 -0.0463  0.0072
  500MOL0     C68877   7.124   5.199   3.255 -0.9254 -0.1944  0.7838
  500MOL0     C68878   7.232   5.302   3.286  1.0740 -0.6731 -1.1071
  500MOL0     N68879   7.231   5.321   3.432  0.7786  0.4441 -0.1224
  500MOL0     C68880   7.324   5.288   3.533  0.0957  0.7709 -0.2531
  500MOL0     C68881   7.258   5.298   3.653  0.5859 -0.5444  0.5081
  500MOL0     C68882   7.320   5.263   3.786 -0.1477  0.7713  0.3540
  500MOL0     C68883   7.398   5.381   3.851  0.4913  0.3282 -0.6422
  500MOL0     C68884   7.496   5.325   3.955  0.6496  0.2463 -0.0971
  500MOL0     C68885   7.600   5.425   4.017  0.1908  0.5875 -0.0944
  500MOL0     O68886   7.658   5.360   4.130 -0.1736  0.1693 -0.6462
  500MOL0     C68887   7.751   5.433   4.205 -0.4520 -0.1020  0.2426
  500MOL0     C68888   7.800   5.367   4.318 -0.3022 -0.2554  0.2327
  500MOL0     C68889   7.887   5.431   4.408  0.4643  0.5688 -0.2947
  500MOL0     C68890   7.949   5.370   4.532 -0.1594  0.5921  0.6578
  500MOL0     C68891   7.929   5.561   4.370  0.1395  0.2632  0.2216
  500MOL0     C68892   8.017   5.640   4.456 -0.4989 -0.0744  0.1012
  500MOL0     O68893   7.967   5.676   4.577 -0.2460 -0.4863  0.3411
  500MOL0     C68894   8.058   5.735   4.664  0.2144 -1.3886  0.1864
  500MOL0     C68895   8.008   5.857   4.712 -0.1526  0.0938 -0.0374
  500MOL0     C68896   8.084   5.932   4.803  0.0840  0.5348 -1.0713
  500MOL0     C68897   8.209   5.894   4.846  0.0132 -0.5373  0.1850
  500MOL0     O68898   8.294   5.967   4.926  0.0281 -0.0220  0.5396
  500MOL0     C68899   8.257   6.102   4.955  0.3632  0.6909  0.6037
  500MOL0     C68900   8.356   6.181   5.043  0.3036  0.3783  0.2501
  500MOL0     C68901   8.486   6.180   4.962  0.9841  0.1565  0.3049
  500MOL0     C68902   8.502   6.311   4.880  0.3457  0.0224 -0.6031
  500MOL0     C68903   8.627   6.327   4.798  0.0886  0.1710  0.7042
  500MOL0     C68904   8.685   6.204   4.723  0.5762 -0.5871  0.9199
  500MOL0     C68905   8.824   6.217   4.671  0.1184 -0.2380 -0.0743
  500MOL0     C68906   8.829   6.294   4.531 -0.2138  0.7054 -1.2091
  500MOL0    Cl68907   8.742   6.199   4.396  0.1797 -0.3328  0.1068
  500MOL0     C68908   8.257   5.784   4.780 -1.4605  0.0585  1.2402
  500MOL0     C68909   8.187   5.690   4.703  0.0848 -0.9715 -0.2726
  500MOL0     O68910   8.128   5.648   4.427 -0.2678  0.2293  0.1439
  500MOL0     C68911   7.880   5.624   4.253 -0.0253 -0.0342 -0.4328
  500MOL0     C68912   7.795   5.559   4.174  0.1583  0.9119  0.0693
  500MOL0     N68913   7.121   5.329   3.632 -0.3238 -0.1404 -0.7345
  500MOL0     N68914   7.115   5.353   3.506 -0.3199  0.2303  0.2560
  500MOL0     C68915   6.645   4.925   2.483 -0.0166  0.8432  0.8347
  500MOL0     C68916   6.516   4.927   2.434  0.8662 -1.0070  0.2760
  500MOL0     C68917   6.141   5.131   2.197  0.4229 -0.8029  0.5577
  500MOL0     C68918   6.151   5.051   2.075 -0.4151 -0.1200  0.6847
  500MOL0     C68919   6.064   5.065   1.968  0.0816  0.5474 -0.5168
  500MOL0     C68920   5.969   5.157   1.968  0.5329 -1.1743  0.4507
  500MOL0     O68921   5.895   5.193   1.858 -0.2204  0.4264 -0.0323
  500MOL0     C68922   5.766   5.140   1.839  0.1662  0.6187  0.3899
  500MOL0     C68923   5.666   5.259   1.840  0.0001  0.0727  0.1597
  500MOL0     C68924   5.518   5.197   1.842  0.1407 -0.4181 -0.0514
  500MOL0     C68925   5.419   5.310   1.801  0.1894  0.4872 -0.8455
  500MOL0     C68926   5.407   5.404   1.914 -0.0391  0.6280 -0.4311
  500MOL0     C68927   5.409   5.495   1.992 -0.6693 -0.0579 -0.3799
  500MOL0     C68928   5.951   5.235   2.081 -0.0519  0.0022  0.4226
  500MOL0     C68929   6.031   5.228   2.195  0.6035  0.4462 -0.0352
  500MOL0     C68930   6.002   5.315   2.319  0.0029  0.1931  0.0998
  500MOL0     H68931   6.520   5.235   2.298  1.1002 -0.4108  0.2542
  500MOL0     H68932   6.742   5.229   2.380  3.3481 -1.9967  0.1703
  500MOL0     H68933   6.860   5.227   2.585 -2.4253 -0.2189 -0.8465
  500MOL0     H68934   6.988   5.111   2.629 -0.7772 -2.4421  2.2600
  500MOL0     H68935   6.701   5.108   2.752 -0.3114  2.2136  0.2221
  500MOL0     H68936   6.818   4.976   2.747 -0.8846  0.4535 -1.6553
  500MOL0     H68937   6.888   5.252   2.866  0.4704  0.6340 -0.1228
  500MOL0     H68938   6.793   5.127   2.945  0.2377  0.6949 -0.9063
  500MOL0     H68939   6.956   4.968   2.891  0.0920 -0.2686  0.1431
  500MOL0     H68940   7.073   5.099   2.848 -1.3537 -2.3307 -3.1621
  500MOL0     H68941   7.102   4.970   3.070  2.1693  0.2015 -3.0969
  500MOL0     H68942   6.941   5.049   3.126 -0.9203  2.4339 -0.6089
  500MOL0     H68943   7.208   5.164   3.063  0.3427  0.6902  0.1347
  500MOL0     H68944   7.055   5.263   3.057 -1.9255 -1.6830 -0.6140
  500MOL0     H68945   7.146   5.105   3.306  0.5104 -0.8457 -0.9331
  500MOL0     H68946   7.027   5.242   3.282 -0.8811  0.3473  0.1277
  500MOL0     H68947   7.335   5.271   3.264  2.0995  0.8691  1.0760
  500MOL0     H68948   7.218   5.396   3.232 -0.0110  1.3421  2.3091
  500MOL0     H68949   7.430   5.265   3.519 -0.0078  1.1031 -1.7737
  500MOL0     H68950   7.390   5.180   3.769 -1.8650 -0.6474 -0.0936
  500MOL0     H68951   7.245   5.214   3.849 -0.0085 -1.7422 -1.2835
  500MOL0     H68952   7.460   5.427   3.774  1.8540 -0.8863 -0.3189
  500MOL0     H68953   7.324   5.452   3.890 -0.8787  0.0651 -2.6053
  500MOL0     H68954   7.441   5.279   4.037  0.5308 -0.8454 -0.7631
  500MOL0     H68955   7.552   5.242   3.911 -0.3612 -0.7051  0.3697
  500MOL0     H68956   7.672   5.449   3.938  1.1662 -3.2354 -0.5297
  500MOL0     H68957   7.544   5.517   4.037 -1.2874  1.0668 -5.2012
  500MOL0     H68958   7.772   5.265   4.344  0.4524 -0.5632 -0.1556
  500MOL0     H68959   8.048   5.411   4.551 -0.2845  1.9782 -1.2999
  500MOL0     H68960   7.945   5.261   4.531 -1.3298  0.6187 -0.6412
  500MOL0     H68961   7.895   5.397   4.623 -0.1673  4.1685 -0.2431
  500MOL0     H68962   7.908   5.891   4.687  0.0713  2.1340  1.6093
  500MOL0     H68963   8.038   6.013   4.859 -0.2675 -1.9335  2.5521
  500MOL0     H68964   8.235   6.163   4.866  0.1021  0.9190  0.8197
  500MOL0     H68965   8.160   6.089   5.004  0.4598 -3.7631 -0.0240
  500MOL0     H68966   8.326   6.283   5.068  2.4773  0.7914  1.3417
  500MOL0     H68967   8.378   6.131   5.138 -0.1763  2.2391  1.4004
  500MOL0     H68968   8.483   6.096   4.892  0.2143  0.7992 -0.4573
  500MOL0     H68969   8.576   6.146   5.014  0.9606  0.4922  0.5709
  500MOL0     H68970   8.501   6.392   4.953  0.1381 -2.0436  1.8295
  500MOL0     H68971   8.413   6.307   4.817  1.4550  1.3901 -2.3603
  500MOL0     H68972   8.612   6.406   4.724  1.7050 -0.8237 -0.7566
  500MOL0     H68973   8.693   6.375   4.871 -0.2883 -0.7992  1.7174
  500MOL0     H68974   8.620   6.172   4.640  2.7835 -2.6450 -0.1542
  500MOL0     H68975   8.685   6.130   4.803 -4.3235  0.0209  1.7807
  500MOL0     H68976   8.870   6.119   4.654  0.7146  0.1968 -0.9868
  500MOL0     H68977   8.882   6.277   4.742 -1.5627  2.9865 -1.2494
  500MOL0     H68978   8.933   6.311   4.500  0.2453 -0.2434 -0.2444
  500MOL0     H68979   8.777   6.389   4.546 -1.6998 -0.2704  0.1263
  500MOL0     H68980   8.357   5.745   4.798 -1.7212 -0.8417  0.7779
  500MOL0     H68981   8.232   5.595   4.677 -0.3134 -1.6767  1.4479
  500MOL0     H68982   7.908   5.728   4.234  2.0182 -0.0469  1.8962
  500MOL0     H68983   7.774   5.597   4.075  0.1573  2.4029  0.6194
  500MOL0     H68984   6.687   4.838   2.532  1.2918  0.8206 -0.2747
  500MOL0     H68985   6.458   4.836   2.446 -0.9504  0.2966  2.0345
  500MOL0     H68986   6.227   4.975   2.063 -1.3397 -0.8048 -1.0829
  500MOL0     H68987   6.061   5.004   1.879 -1.3550 -1.4025  0.7767
  500MOL0     H68988   5.757   5.085   1.745  1.0542 -0.9494  1.1769
  500MOL0     H68989   5.731   5.073   1.919 -1.7252  1.3659  0.2194
  500MOL0     H68990   5.681   5.326   1.755  3.4944  1.1369  1.4171
  500MOL0     H68991   5.686   5.324   1.925 -1.1342  1.7968 -0.8325
  500MOL0     H68992   5.505   5.108   1.780  2.2791 -0.9714  0.1988
  500MOL0     H68993   5.492   5.167   1.944 -0.1721  3.2968  1.1112
  500MOL0     H68994   5.316   5.280   1.779 -0.4205 -0.3600  2.6121
  500MOL0     H68995   5.451   5.358   1.707 -0.2940  2.3834 -0.0882
  500MOL0     H68996   5.413   5.582   2.053  2.2576 -0.2193 -0.2211
  500MOL0     H68997   5.879   5.315   2.075 -2.1417 -1.8752 -2.1165
  500MOL0     H68998   5.993   5.246   2.404 -1.3173  1.1693  0.7907
  500MOL0     H68999   6.075   5.391   2.348 -0.8573  0.8708  0.5466
  500MOL0     H69000   5.908   5.369   2.304  1.5307  3.2075  0.7324
  501MOL0     O69001   3.641  10.695   6.775 -0.5982 -0.1470  0.1884
  501MOL0     C69002   3.668  10.672   6.888 -0.4257 -0.7179  0.3624
  501MOL0     O69003   3.789  10.675   6.949 -1.1039  0.0982 -0.4545
  501MOL0     C69004   3.892  10.729   6.868  0.4368  0.6997  0.0028
  501MOL0     C69005   3.885  10.857   6.809 -0.8263  0.3833 -0.3879
  501MOL0     C69006   4.003  10.908   6.751 -0.3203 -0.8113 -0.2071
  501MOL0     C69007   4.125  10.857   6.764 -0.9444  0.1326  0.5823
  501MOL0     O69008   4.219  10.928   6.705  0.3613 -1.0113  0.2123
  501MOL0     C69009   4.348  10.856   6.675 -0.6308  0.2015  0.1711
  501MOL0     C69010   4.324  10.731   6.578  0.0257 -0.3939  1.0582
  501MOL0     C69011   4.443  10.704   6.474  0.3124 -0.0778  0.4325
  501MOL0     C69012   4.566  10.645   6.541 -0.0129  0.7079  0.0989
  501MOL0     C69013   4.670  10.593   6.435 -0.2430 -0.2564  0.2520
  501MOL0     C69014   4.783  10.522   6.507  0.5284  0.1854  0.6482
  501MOL0     C69015   4.865  10.449   6.397  0.2321 -0.2594 -0.4349
  501MOL0     C69016   4.988  10.375   6.456 -0.3049  0.6602 -0.9612
  501MOL0     N69017   5.059  10.300   6.355 -0.2496 -0.1941 -1.0469
  501MOL0     C69018   5.151  10.353   6.268  0.4779 -0.0532 -0.5297
  501MOL0     C69019   5.187  10.257   6.189 -0.1243  0.1847 -0.8494
  501MOL0     C69020   5.266  10.275   6.069 -0.8727 -0.1576  0.6718
  501MOL0     C69021   5.414  10.242   6.092 -0.2104 -0.3099  0.1837
  501MOL0     C69022   5.449  10.110   6.153 -0.0635  0.3008 -0.6183
  501MOL0     C69023   5.397   9.991   6.071  0.0386  0.0512  0.1591
  501MOL0     O69024   5.449   9.872   6.120  0.1829  0.5772 -0.9913
  501MOL0     C69025   5.384   9.802   6.220  1.3563 -0.1757  0.2504
  501MOL0     C69026   5.456   9.687   6.264 -0.0725  0.3500  0.3839
  501MOL0     C69027   5.431   9.608   6.379  0.2574  0.5288 -0.1506
  501MOL0     C69028   5.523   9.502   6.420 -0.1496 -0.2176 -0.2422
  501MOL0     C69029   5.303   9.621   6.440 -0.2950 -0.5472 -0.3602
  501MOL0     C69030   5.246   9.543   6.543  0.8686  0.1369 -1.0980
  501MOL0     O69031   5.113   9.554   6.559  0.2549  0.1052 -1.1235
  501MOL0     C69032   5.058   9.450   6.640 -0.4206 -0.1124  0.6367
  501MOL0     C69033   4.968   9.490   6.745  0.6312  0.2572  0.0992
  501MOL0     C69034   4.907   9.401   6.832 -1.8219 -0.5683  0.3730
  501MOL0     C69035   4.917   9.265   6.793 -0.9654 -0.4390 -0.9407
  501MOL0     O69036   4.832   9.193   6.861 -0.4588  0.0444 -1.1362
  501MOL0     C69037   4.881   9.068   6.913 -0.6344 -0.0890 -0.4974
  501MOL0     C69038   4.762   8.999   6.978 -0.5835 -0.0532  0.4626
  501MOL0     C69039   4.823   8.873   7.044 -0.2689 -0.0217  0.3558
  501MOL0     C69040   4.700   8.808   7.117  0.3770  0.1065  1.0857
  501MOL0     C69041   4.761   8.714   7.229  0.3714 -0.0634  0.0071
  501MOL0     C69042   4.653   8.649   7.323 -0.7253  0.0962  0.2386
  501MOL0     C69043   4.714   8.543   7.410 -0.1931  0.3795  0.9793
  501MOL0     C69044   4.625   8.519   7.527 -0.5224 -1.3065  0.3507
  501MOL0    Cl69045   4.685   8.394   7.655 -0.1113 -0.3410  0.2938
  501MOL0     C69046   5.006   9.226   6.694 -0.2058  0.6556 -0.9549
  501MOL0     C69047   5.077   9.312   6.614 -0.4374  0.5470 -0.2268
  501MOL0     O69048   5.329   9.491   6.618 -0.6532 -0.0644 -1.0228
  501MOL0     C69049   5.226   9.734   6.392 -0.2326  0.0385 -0.3476
  501MOL0     C69050   5.261   9.823   6.293 -0.5274  0.0282  0.1985
  501MOL0     N69051   5.119  10.142   6.218  0.4079 -0.3821 -0.4284
  501MOL0     N69052   5.050  10.170   6.327 -0.0034 -0.1015  0.0159
  501MOL0     C69053   4.136  10.739   6.840  0.3209 -0.8603 -0.8902
  501MOL0     C69054   4.019  10.676   6.888  0.0911 -0.6014  0.1539
  501MOL0     C69055   3.544  10.659   6.972 -0.0036 -0.0815 -0.7679
  501MOL0     C69056   3.568  10.651   7.112 -0.6399  0.0997  0.7586
  501MOL0     C69057   3.456  10.629   7.199 -0.4969 -1.5009 -0.3646
  501MOL0     C69058   3.328  10.611   7.143  0.4915 -0.4993 -0.1989
  501MOL0     O69059   3.226  10.567   7.228  0.5049 -0.2495  0.8986
  501MOL0     C69060   3.108  10.651   7.259 -0.3965 -0.4197  0.1767
  501MOL0     C69061   3.034  10.583   7.374  0.7589 -0.0871 -0.3954
  501MOL0     C69062   2.889  10.637   7.410 -0.3422 -0.3630 -0.2246
  501MOL0     C69063   2.818  10.543   7.511 -0.6870  0.5414 -0.0388
  501MOL0     C69064   2.674  10.584   7.538 -0.6475  0.5615  0.9615
  501MOL0     C69065   2.569  10.627   7.569  0.3072 -0.1158 -1.1951
  501MOL0     C69066   3.302  10.632   7.007 -0.1336  0.2605  0.0197
  501MOL0     C69067   3.409  10.648   6.918 -0.3370  0.4950 -0.3215
  501MOL0     C69068   3.370  10.643   6.773  0.6660 -0.5500  0.7096
  501MOL0     H69069   3.792  10.913   6.809 -0.8969  0.3028  0.6896
  501MOL0     H69070   3.999  11.010   6.712  1.5798 -0.4063  0.5412
  501MOL0     H69071   4.399  10.834   6.769  0.5083 -1.2562 -0.7431
  501MOL0     H69072   4.406  10.931   6.620  1.4751 -1.0059  0.6647
  501MOL0     H69073   4.304  10.641   6.637  0.1761 -0.8448  0.4313
  501MOL0     H69074   4.226  10.746   6.532  0.2126 -0.6783  0.5636
  501MOL0     H69075   4.408  10.637   6.395  1.7567 -0.8099  0.3857
  501MOL0     H69076   4.467  10.800   6.427  1.8194 -0.7729 -0.2848
  501MOL0     H69077   4.613  10.731   6.590 -0.2908  1.4290 -0.8580
  501MOL0     H69078   4.533  10.566   6.608  1.4730  1.0245  1.2568
  501MOL0     H69079   4.706  10.687   6.393  3.4774 -0.8250  1.7483
  501MOL0     H69080   4.621  10.535   6.356 -1.3128 -1.0517  1.4572
  501MOL0     H69081   4.828  10.599   6.570 -0.8455  0.9179  0.7716
  501MOL0     H69082   4.756  10.437   6.570 -3.3239 -0.4056 -1.5007
  501MOL0     H69083   4.897  10.521   6.320 -1.4159  3.3872  2.0112
  501MOL0     H69084   4.808  10.372   6.344  1.6404 -2.2105  0.7585
  501MOL0     H69085   5.043  10.447   6.517 -1.6870 -0.2901  1.5225
  501MOL0     H69086   4.952  10.301   6.528 -4.3784 -0.7348 -3.9856
  501MOL0     H69087   5.175  10.459   6.264 -0.7759  0.2307 -0.9141
  501MOL0     H69088   5.254  10.372   6.020 -1.1138  0.6011  2.1822
  501MOL0     H69089   5.227  10.199   6.000  0.3065 -0.3605  0.2164
  501MOL0     H69090   5.455  10.235   5.990 -1.7281 -1.7457 -0.3659
  501MOL0     H69091   5.463  10.321   6.150 -0.2339 -0.4979  0.4606
  501MOL0     H69092   5.557  10.094   6.147 -0.3426 -1.2456 -3.7406
  501MOL0     H69093   5.411  10.109   6.255 -0.5659 -3.3779 -0.7115
  501MOL0     H69094   5.288   9.996   6.058  0.0718  1.0722  0.2017
  501MOL0     H69095   5.439  10.013   5.973 -3.7925  4.2799 -0.8966
  501MOL0     H69096   5.552   9.669   6.217  2.6210  0.0604  5.3210
  501MOL0     H69097   5.552   9.507   6.525 -0.2509 -1.8319 -0.1102
  501MOL0     H69098   5.613   9.503   6.358  1.2689  2.1376  1.7102
  501MOL0     H69099   5.467   9.410   6.399 -1.5820  0.4081  0.6693
  501MOL0     H69100   4.958   9.597   6.763  0.8101  0.2934 -0.0147
  501MOL0     H69101   4.840   9.421   6.916 -2.0665  0.1054  0.0234
  501MOL0     H69102   4.924   9.008   6.832 -2.3897  2.1137 -3.2651
  501MOL0     H69103   4.962   9.096   6.981 -0.0435 -2.2682 -0.2121
  501MOL0     H69104   4.713   9.062   7.053 -0.0899 -0.5746  1.2414
  501MOL0     H69105   4.690   8.967   6.903 -1.7644 -1.0629  1.9527
  501MOL0     H69106   4.903   8.902   7.112  0.5747 -1.2432 -0.0743
  501MOL0     H69107   4.871   8.799   6.979  0.7763 -2.7753  3.9409
  501MOL0     H69108   4.638   8.745   7.053  0.0430 -0.4095  1.9043
  501MOL0     H69109   4.634   8.881   7.165  0.4054  0.4714  0.5779
  501MOL0     H69110   4.814   8.629   7.186  0.9847 -0.9382  2.3132
  501MOL0     H69111   4.834   8.751   7.302  0.4112  1.6940 -0.8640
  501MOL0     H69112   4.580   8.593   7.264  2.4876 -4.3315 -0.1042
  501MOL0     H69113   4.602   8.724   7.385 -2.9550  0.0724 -1.4408
  501MOL0     H69114   4.816   8.562   7.446  0.2516  0.2373 -0.1507
  501MOL0     H69115   4.718   8.445   7.361  0.0408 -0.3921  2.4785
  501MOL0     H69116   4.522   8.492   7.504 -0.6143  1.2521 -3.0889
  501MOL0     H69117   4.614   8.619   7.571  0.4832  0.0021 -2.1688
  501MOL0     H69118   5.023   9.119   6.685 -0.3409  0.6868 -1.6885
  501MOL0     H69119   5.136   9.264   6.538 -1.3515 -0.8945 -0.0709
  501MOL0     H69120   5.136   9.762   6.445 -0.8186 -0.6683 -0.9380
  501MOL0     H69121   5.179   9.889   6.266  0.2873 -0.1419 -3.1493
  501MOL0     H69122   4.236  10.700   6.854  0.3315 -1.2730 -2.0205
  501MOL0     H69123   4.025  10.583   6.945 -2.6107 -1.2636 -0.5042
  501MOL0     H69124   3.661  10.649   7.167 -0.4830  1.0062  0.5337
  501MOL0     H69125   3.463  10.625   7.307 -0.3518  2.2271 -0.0881
  501MOL0     H69126   3.141  10.753   7.284 -1.2598 -0.8179  3.3183
  501MOL0     H69127   3.029  10.664   7.185 -0.6751 -0.2697  0.5016
  501MOL0     H69128   3.093  10.583   7.467  1.7970 -0.3251 -1.0403
  501MOL0     H69129   3.004  10.482   7.346 -2.3442  0.7867 -0.6627
  501MOL0     H69130   2.880  10.740   7.446 -2.5632 -0.3612 -0.6384
  501MOL0     H69131   2.835  10.634   7.314  0.5812  1.9369 -0.8975
  501MOL0     H69132   2.873  10.547   7.605 -3.5090  3.2260  1.7218
  501MOL0     H69133   2.817  10.442   7.470 -0.8928  1.3738 -2.2899
  501MOL0     H69134   2.474  10.671   7.594  1.0536  1.2957 -0.7316
  501MOL0     H69135   3.202  10.628   6.966 -1.2952 -1.2424  2.7096
  501MOL0     H69136   3.265  10.640   6.741  1.0787  0.4159 -0.8623
  501MOL0     H69137   3.408  10.738   6.734  0.8023  0.2517  2.6883
  501MOL0     H69138   3.420  10.557   6.727  1.0329  0.4542 -0.8723
  502MOL0     O69139   8.087   6.252   1.694  0.4877 -0.0775 -0.1524
  502MOL0     C69140   8.106   6.369   1.692 -0.2998 -1.0399 -0.0270
  502MOL0     O69141   8.021   6.461   1.642  0.1026  0.0180 -0.0570
  502MOL0     C69142   7.894   6.421   1.595  0.3642 -0.4507  0.7081
  502MOL0     C69143   7.804   6.351   1.672  0.8615 -0.1657  0.0739
  502MOL0     C69144   7.690   6.292   1.616  0.1980  0.9386  0.3455
  502MOL0     C69145   7.664   6.292   1.478  1.0772 -0.3106  0.4402
  502MOL0     O69146   7.561   6.220   1.421 -0.3443  0.1471 -0.6294
  502MOL0     C69147   7.535   6.243   1.284 -0.1186  0.0969 -0.1756
  502MOL0     C69148   7.412   6.165   1.253  0.3583 -0.5144  0.4968
  502MOL0     C69149   7.301   6.228   1.331 -0.4971 -0.1089  0.8820
  502MOL0     C69150   7.152   6.184   1.294 -0.6819 -0.7989  0.1602
  502MOL0     C69151   7.100   6.244   1.159 -0.0324  0.1759 -0.2248
  502MOL0     C69152   7.033   6.142   1.063 -0.1695 -0.4071 -0.0794
  502MOL0     C69153   6.996   6.234   0.946  0.0036 -0.3213 -0.7586
  502MOL0     C69154   6.927   6.144   0.838 -0.2701  0.4092 -0.0489
  502MOL0     N69155   6.802   6.086   0.886 -0.2522  0.6035 -0.5229
  502MOL0     C69156   6.691   6.159   0.914  0.4130 -0.7281  0.6621
  502MOL0     C69157   6.602   6.069   0.937  0.0999 -0.2441 -0.2743
  502MOL0     C69158   6.455   6.108   0.964 -0.5136  0.2589  0.5151
  502MOL0     C69159   6.357   5.990   0.928  0.1776  0.3390 -0.1571
  502MOL0     C69160   6.216   6.048   0.885  0.7121  0.1935  0.2406
  502MOL0     C69161   6.117   6.074   0.998  0.8018 -0.2483 -0.1307
  502MOL0     O69162   6.137   6.200   1.055 -0.4755  0.4792 -0.3058
  502MOL0     C69163   6.044   6.249   1.152  0.2211 -0.1415  0.0583
  502MOL0     C69164   5.929   6.189   1.196 -0.1210  0.0254  0.9154
  502MOL0     C69165   5.846   6.256   1.293 -0.1930 -0.1273 -0.4868
  502MOL0     C69166   5.703   6.210   1.290 -0.0850  0.3913  0.5587
  502MOL0     C69167   5.905   6.364   1.362  0.5902 -0.7518  0.8983
  502MOL0     C69168   5.842   6.430   1.474 -0.3362  0.2588 -0.8666
  502MOL0     O69169   5.876   6.566   1.485  0.0898  0.0452  0.3845
  502MOL0     C69170   5.828   6.650   1.585 -0.1616 -0.9089  0.2443
  502MOL0     C69171   5.781   6.608   1.710 -0.2731  0.6274 -0.2407
  502MOL0     C69172   5.747   6.702   1.813 -0.0556 -0.3657  0.2625
  502MOL0     C69173   5.758   6.836   1.783  0.4438  0.3672  0.0780
  502MOL0     O69174   5.712   6.930   1.868  0.6143  0.2004 -0.4234
  502MOL0     C69175   5.581   6.960   1.835  0.4765  0.5526  0.3610
  502MOL0     C69176   5.540   7.072   1.929  0.1755 -0.0212 -0.3421
  502MOL0     C69177   5.469   7.024   2.054 -0.2365  0.7320 -0.2376
  502MOL0     C69178   5.453   7.132   2.157 -0.6035 -0.2646 -0.5626
  502MOL0     C69179   5.415   7.066   2.291 -0.8088 -0.8268 -0.0874
  502MOL0     C69180   5.321   7.166   2.369 -0.7314  0.3280 -0.5323
  502MOL0     C69181   5.288   7.117   2.506  0.1113  0.6265 -0.7507
  502MOL0     C69182   5.250   7.229   2.603  0.3739  0.4100  0.0611
  502MOL0    Cl69183   5.192   7.159   2.755  0.1698  0.0153  0.3147
  502MOL0     C69184   5.805   6.874   1.655  0.3287 -0.9005 -0.2709
  502MOL0     C69185   5.828   6.791   1.551  0.1085  0.6038 -0.4516
  502MOL0     O69186   5.761   6.365   1.541  0.0458  0.3916 -0.1168
  502MOL0     C69187   6.031   6.413   1.325  0.0430  0.0443  0.2164
  502MOL0     C69188   6.093   6.361   1.217 -0.1430 -0.1821  0.8014
  502MOL0     N69189   6.662   5.943   0.952  0.1143 -0.6339 -0.0356
  502MOL0     N69190   6.789   5.954   0.921 -0.8793 -0.9832 -0.5246
  502MOL0     C69191   7.750   6.368   1.406 -0.6286 -0.4163  0.0539
  502MOL0     C69192   7.864   6.421   1.458 -0.5061 -0.0354  0.4872
  502MOL0     C69193   8.239   6.413   1.741 -1.1328 -0.0462  0.6754
  502MOL0     C69194   8.330   6.301   1.778  0.2579 -0.4672  0.6842
  502MOL0     C69195   8.463   6.317   1.822 -0.1773  0.0017 -0.5125
  502MOL0     C69196   8.514   6.451   1.829 -0.6859  0.0578  0.2341
  502MOL0     O69197   8.644   6.448   1.875  0.3557 -0.4760 -0.3477
  502MOL0     C69198   8.708   6.582   1.879  0.3238 -0.2110 -0.9337
  502MOL0     C69199   8.855   6.569   1.897 -1.2400 -0.3030 -0.3038
  502MOL0     C69200   8.920   6.615   1.765 -0.3232  0.3916  0.5438
  502MOL0     C69201   8.904   6.761   1.731 -0.2272  0.0552  0.1987
  502MOL0     C69202   9.020   6.824   1.787  0.1529  0.7797  0.0336
  502MOL0     C69203   9.125   6.870   1.831  0.1036  0.2903 -0.0542
  502MOL0     C69204   8.425   6.559   1.812  0.6038  0.0039  0.0851
  502MOL0     C69205   8.292   6.542   1.762  0.4304 -1.0761 -0.4257
  502MOL0     C69206   8.221   6.667   1.726  0.5774  0.8123 -0.9775
  502MOL0     H69207   7.810   6.344   1.780 -1.0849  1.9038  0.3905
  502MOL0     H69208   7.632   6.228   1.682 -1.1323  1.7068 -0.0452
  502MOL0     H69209   7.615   6.224   1.212  0.7697  2.2167  0.1711
  502MOL0     H69210   7.512   6.348   1.263  3.0547  2.1533  4.7701
  502MOL0     H69211   7.393   6.169   1.145  3.5815  0.3393 -0.1435
  502MOL0     H69212   7.423   6.058   1.270  0.6171 -1.9522 -6.1342
  502MOL0     H69213   7.309   6.188   1.433 -2.8734 -2.4452  0.2805
  502MOL0     H69214   7.306   6.337   1.327 -2.9859  0.0357 -0.9630
  502MOL0     H69215   7.152   6.074   1.290  3.7751 -0.9633 -0.0380
  502MOL0     H69216   7.091   6.220   1.378  0.7071  1.0198  0.4525
  502MOL0     H69217   7.178   6.284   1.094 -1.1343 -0.5001 -2.0694
  502MOL0     H69218   7.025   6.319   1.187  0.6344  1.1516 -1.0022
  502MOL0     H69219   7.100   6.059   1.038 -0.7450 -0.4787 -1.4246
  502MOL0     H69220   6.941   6.096   1.100  0.1856 -1.5049 -0.5186
  502MOL0     H69221   7.087   6.272   0.899  2.0895 -2.6586  1.1198
  502MOL0     H69222   6.945   6.326   0.977 -0.5337 -0.8681  0.0301
  502MOL0     H69223   6.898   6.196   0.746 -0.9586 -2.1532 -1.3762
  502MOL0     H69224   6.996   6.068   0.802  1.1760  1.8877 -0.5531
  502MOL0     H69225   6.688   6.265   0.891 -2.1717 -0.3323  2.4694
  502MOL0     H69226   6.445   6.192   0.895 -0.3593 -1.1833 -1.3456
  502MOL0     H69227   6.442   6.143   1.067 -0.7548  2.8800 -0.3476
  502MOL0     H69228   6.399   5.922   0.853  1.8713  0.3083  0.7628
  502MOL0     H69229   6.336   5.927   1.015  0.9472  1.3795  0.8169
  502MOL0     H69230   6.224   6.136   0.820 -0.4671  0.7121  0.7770
  502MOL0     H69231   6.158   5.972   0.831 -0.9720  2.0728 -0.7409
  502MOL0     H69232   6.013   6.070   0.966  0.3857 -0.8700  1.2378
  502MOL0     H69233   6.119   5.996   1.074 -1.1808  0.2995  0.5438
  502MOL0     H69234   5.887   6.106   1.139  0.1550  0.6876 -0.2833
  502MOL0     H69235   5.697   6.109   1.248 -1.8299  1.5723 -2.3388
  502MOL0     H69236   5.656   6.279   1.219  4.0542  0.5822 -2.3408
  502MOL0     H69237   5.660   6.204   1.390  0.0307  0.8182  0.6352
  502MOL0     H69238   5.762   6.509   1.751  0.9371  0.4638 -0.0152
  502MOL0     H69239   5.717   6.670   1.912 -2.6007  0.8737 -0.0335
  502MOL0     H69240   5.584   7.003   1.734  0.5707 -1.8394 -0.7185
  502MOL0     H69241   5.513   6.874   1.831 -0.3272  1.1446  0.8610
  502MOL0     H69242   5.632   7.125   1.951  0.0193  0.1927 -0.1962
  502MOL0     H69243   5.479   7.137   1.866 -0.5146  0.0325  0.3622
  502MOL0     H69244   5.530   6.952   2.109 -0.7930  0.5111  0.0929
  502MOL0     H69245   5.375   6.978   2.023  1.2401 -3.5723  0.9945
  502MOL0     H69246   5.378   7.204   2.123  0.3945  1.1825  0.1632
  502MOL0     H69247   5.551   7.177   2.175 -0.0911 -1.7023  0.3839
  502MOL0     H69248   5.364   6.971   2.275 -0.5690 -1.2090  1.2431
  502MOL0     H69249   5.510   7.060   2.346  0.7421  0.9168 -2.4089
  502MOL0     H69250   5.228   7.189   2.316 -1.0559  3.0830  1.0539
  502MOL0     H69251   5.373   7.260   2.385 -1.0721 -0.0727  4.6371
  502MOL0     H69252   5.376   7.082   2.561  0.2439 -0.6331 -1.7260
  502MOL0     H69253   5.214   7.036   2.501  0.8227 -0.0052 -1.2209
  502MOL0     H69254   5.167   7.282   2.556  0.4724  0.4239 -0.0985
  502MOL0     H69255   5.340   7.290   2.620  1.4857 -0.8352 -1.0416
  502MOL0     H69256   5.806   6.982   1.639 -0.6351 -1.3417 -4.2547
  502MOL0     H69257   5.849   6.827   1.451 -3.6843  0.3984 -1.4971
  502MOL0     H69258   6.083   6.491   1.379 -2.2653  0.2834  2.2679
  502MOL0     H69259   6.192   6.402   1.202 -0.2808  0.1347  0.7547
  502MOL0     H69260   7.733   6.387   1.300 -0.2482  2.0301  0.3645
  502MOL0     H69261   7.929   6.457   1.379 -2.1722  1.9920 -0.0352
  502MOL0     H69262   8.298   6.198   1.770 -3.1715  0.5093  0.3970
  502MOL0     H69263   8.518   6.226   1.846 -0.3184  0.4542  1.8488
  502MOL0     H69264   8.686   6.653   1.798  2.3547  1.1847 -0.3283
  502MOL0     H69265   8.659   6.633   1.963 -2.8400 -3.0803 -0.8184
  502MOL0     H69266   8.885   6.463   1.901 -2.3986 -0.8718 -3.5808
  502MOL0     H69267   8.884   6.623   1.988 -1.9877  4.0724 -2.4370
  502MOL0     H69268   9.025   6.583   1.760 -0.4980 -0.0325 -2.0258
  502MOL0     H69269   8.868   6.556   1.689  0.7045  0.3991 -0.1988
  502MOL0     H69270   8.814   6.806   1.774 -1.2747 -1.4198 -0.3277
  502MOL0     H69271   8.891   6.763   1.622  1.4397 -0.0583 -0.0243
  502MOL0     H69272   9.219   6.900   1.872 -1.1495  1.5735  2.0704
  502MOL0     H69273   8.462   6.660   1.821  1.5584 -0.2264 -1.0652
  502MOL0     H69274   8.115   6.660   1.750  0.7096 -4.1109 -0.6370
  502MOL0     H69275   8.266   6.753   1.777  0.7622 -0.8013  1.8009
  502MOL0     H69276   8.231   6.691   1.620  1.4621  1.2704 -0.8001
  503MOL0     O69277   2.919   8.426   0.837 -0.2124  0.4236 -0.4627
  503MOL0     C69278   2.939   8.317   0.795 -0.7454  0.3355  0.3337
  503MOL0     O69279   2.912   8.206   0.866  0.5344 -0.4281  0.4066
  503MOL0     C69280   2.897   8.222   1.001 -0.1901 -0.5649 -0.0334
  503MOL0     C69281   2.767   8.183   1.047  0.7756 -0.7553 -0.3352
  503MOL0     C69282   2.739   8.196   1.184  1.1875  0.0314 -0.1541
  503MOL0     C69283   2.839   8.239   1.273 -0.6141 -0.1486 -0.2090
  503MOL0     O69284   2.822   8.240   1.409  0.0905 -0.4967  0.2702
  503MOL0     C69285   2.742   8.128   1.468  0.3136 -0.2038  0.1656
  503MOL0     C69286   2.780   8.091   1.611 -0.1996  0.3854 -0.1449
  503MOL0     C69287   2.934   8.079   1.621  0.4663 -0.1342  0.4056
  503MOL0     C69288   2.971   7.981   1.739  0.1688 -0.0411  0.2419
  503MOL0     C69289   3.122   7.949   1.716 -0.2333 -0.2793 -0.8241
  503MOL0     C69290   3.191   7.941   1.858  0.0242 -0.3369 -0.0795
  503MOL0     C69291   3.203   7.805   1.917 -0.2339 -0.3733 -0.2629
  503MOL0     C69292   3.312   7.730   1.841 -0.4692  0.1105 -0.1875
  503MOL0     N69293   3.449   7.780   1.864  0.4583 -0.4706  0.1381
  503MOL0     C69294   3.543   7.748   1.963  1.1706 -0.3598 -0.2938
  503MOL0     C69295   3.661   7.796   1.926 -0.3626 -0.3764  0.5597
  503MOL0     C69296   3.792   7.790   2.006 -0.2589  0.2838  0.0115
  503MOL0     C69297   3.896   7.680   1.964  0.3122  0.0825 -0.9371
  503MOL0     C69298   4.038   7.700   2.032  0.5035 -0.0470 -0.1371
  503MOL0     C69299   4.039   7.654   2.182  0.3347  0.1989  0.4331
  503MOL0     O69300   4.025   7.513   2.179  0.5334 -0.4978  0.6606
  503MOL0     C69301   3.928   7.481   2.264 -0.7033 -0.8431  0.7203
  503MOL0     C69302   3.811   7.429   2.215  0.7347 -0.1524  0.4900
  503MOL0     C69303   3.707   7.402   2.298  0.6558  0.3132 -0.5385
  503MOL0     C69304   3.575   7.364   2.235  0.5429  0.9043 -0.0427
  503MOL0     C69305   3.729   7.407   2.443  0.9290  0.6870  0.0263
  503MOL0     C69306   3.621   7.377   2.539 -0.2498 -1.0964 -0.8266
  503MOL0     O69307   3.513   7.290   2.503  0.1779 -0.0373  0.4595
  503MOL0     C69308   3.420   7.261   2.600  0.7384 -0.0639  0.3272
  503MOL0     C69309   3.396   7.124   2.638 -0.9939 -0.0410  1.0788
  503MOL0     C69310   3.287   7.080   2.716  0.0925  0.3110 -0.0565
  503MOL0     C69311   3.194   7.169   2.761 -0.1796 -0.7387 -0.3494
  503MOL0     O69312   3.094   7.122   2.838 -0.2804  0.5035 -0.3340
  503MOL0     C69313   2.998   7.217   2.884  1.2591  0.3547 -0.2478
  503MOL0     C69314   2.894   7.155   2.987  0.6971 -0.7065  0.7405
  503MOL0     C69315   2.770   7.253   2.987  0.8252 -0.6491 -0.2053
  503MOL0     C69316   2.781   7.345   3.120 -0.4674 -0.2826 -0.0246
  503MOL0     C69317   2.691   7.464   3.092 -0.3886  0.3759 -0.8738
  503MOL0     C69318   2.545   7.437   3.108 -0.3107 -0.3425 -0.2973
  503MOL0     C69319   2.476   7.572   3.104  0.7135  0.0306  0.0778
  503MOL0     C69320   2.337   7.574   3.156 -0.1386 -0.8257 -0.1439
  503MOL0    Cl69321   2.286   7.749   3.146  0.1028  0.5484  0.1044
  503MOL0     C69322   3.226   7.310   2.736 -0.2055  0.1195 -0.0200
  503MOL0     C69323   3.333   7.353   2.656 -0.1074 -0.8003  0.0265
  503MOL0     O69324   3.636   7.434   2.645 -0.0540 -0.2588 -0.6968
  503MOL0     C69325   3.859   7.435   2.491 -0.0454 -0.6997 -0.1591
  503MOL0     C69326   3.951   7.490   2.400 -0.9512 -0.3655 -0.7345
  503MOL0     N69327   3.642   7.871   1.806  0.2003  0.6307 -0.7147
  503MOL0     N69328   3.517   7.844   1.764  0.0028 -0.5320  0.5816
  503MOL0     C69329   2.961   8.277   1.230 -0.5347  1.2965  0.8376
  503MOL0     C69330   2.993   8.271   1.091  0.5245  0.3379  0.4745
  503MOL0     C69331   2.987   8.299   0.653 -0.0148 -0.8000  0.7166
  503MOL0     C69332   3.049   8.179   0.617 -0.4018  0.1023  0.0285
  503MOL0     C69333   3.073   8.144   0.488  0.3231  0.1790  0.2039
  503MOL0     C69334   3.048   8.237   0.383 -0.0664  0.0497  0.6704
  503MOL0     O69335   3.095   8.204   0.257 -0.8020  0.9915 -0.3972
  503MOL0     C69336   3.076   8.294   0.150 -1.0706  0.3957 -0.2926
  503MOL0     C69337   3.096   8.213   0.015  0.4926  0.1961  0.3031
  503MOL0     C69338   3.251   8.206  -0.016  0.3176  0.1013 -0.5609
  503MOL0     C69339   3.270   8.150  -0.157  0.9079 -1.0153  0.4018
  503MOL0     C69340   3.414   8.149  -0.181 -0.1345 -0.3135 -0.3686
  503MOL0     C69341   3.529   8.129  -0.177  0.4061 -0.1609  0.0436
  503MOL0     C69342   2.988   8.356   0.411  0.3726 -0.9411 -0.5188
  503MOL0     C69343   2.949   8.388   0.546  0.2696 -0.5264  1.6692
  503MOL0     C69344   2.866   8.507   0.561 -0.2589 -0.9697  0.2936
  503MOL0     H69345   2.684   8.157   0.983  1.9063 -0.2688 -2.0606
  503MOL0     H69346   2.639   8.167   1.217  1.8884 -1.0631  1.1237
  503MOL0     H69347   2.749   8.033   1.414  2.4015 -0.0541  0.0906
  503MOL0     H69348   2.638   8.158   1.462  0.2766 -0.2421  0.5622
  503MOL0     H69349   2.757   8.169   1.684  1.4397 -1.8313  2.9815
  503MOL0     H69350   2.725   8.005   1.649 -1.4521  1.7630  1.2875
  503MOL0     H69351   2.971   8.049   1.523 -1.6805 -1.7326  0.0222
  503MOL0     H69352   2.970   8.180   1.645 -0.9193  0.4544  0.0997
  503MOL0     H69353   2.960   8.034   1.834  1.7837 -0.7894  0.8627
  503MOL0     H69354   2.910   7.890   1.738 -0.9672  0.5921  3.0149
  503MOL0     H69355   3.168   8.035   1.666  1.1675  0.8729  2.2067
  503MOL0     H69356   3.145   7.861   1.655  2.6935 -0.1528 -0.0645
  503MOL0     H69357   3.286   7.996   1.859  2.0135 -3.4936  1.3323
  503MOL0     H69358   3.141   8.002   1.933  2.3414 -1.8684  2.9377
  503MOL0     H69359   3.109   7.753   1.900 -0.1625 -1.4113  2.1874
  503MOL0     H69360   3.233   7.800   2.022  1.1408  0.6612 -0.5610
  503MOL0     H69361   3.309   7.628   1.880 -0.1214  1.0202  2.4297
  503MOL0     H69362   3.302   7.728   1.733  2.2458  3.6468 -0.7043
  503MOL0     H69363   3.519   7.686   2.049 -0.8234 -1.1403 -1.3485
  503MOL0     H69364   3.766   7.769   2.110  1.0842 -1.0010  0.1297
  503MOL0     H69365   3.848   7.883   1.991  4.7328 -2.6145 -1.9529
  503MOL0     H69366   3.850   7.581   1.970  0.1943  0.0369 -2.2405
  503MOL0     H69367   3.916   7.697   1.857 -1.8152 -0.7728 -1.5339
  503MOL0     H69368   4.120   7.643   1.987  2.8183 -1.0821  4.7658
  503MOL0     H69369   4.066   7.805   2.034  1.3681 -0.2699  1.5991
  503MOL0     H69370   4.141   7.678   2.215  0.7530  0.4941 -1.0249
  503MOL0     H69371   3.961   7.695   2.247 -0.8269 -3.4853  1.5810
  503MOL0     H69372   3.797   7.406   2.110 -1.7045  2.0893  0.2245
  503MOL0     H69373   3.554   7.256   2.236  1.0308  0.8128  0.5494
  503MOL0     H69374   3.562   7.393   2.130 -0.6394  2.5426  0.5165
  503MOL0     H69375   3.498   7.421   2.288 -1.6646 -2.1697  0.3882
  503MOL0     H69376   3.454   7.047   2.588  1.1441  2.6631 -0.9150
  503MOL0     H69377   3.285   6.974   2.737  2.2444 -0.1549 -1.8203
  503MOL0     H69378   3.043   7.306   2.929 -0.5617  2.5417 -2.4847
  503MOL0     H69379   2.944   7.261   2.800  0.2881  2.6100  1.4587
  503MOL0     H69380   2.871   7.059   2.941 -0.8328 -0.1180  0.2100
  503MOL0     H69381   2.927   7.150   3.091  1.9460 -0.8575  0.3461
  503MOL0     H69382   2.677   7.195   2.989  0.7039 -0.4500  0.0296
  503MOL0     H69383   2.766   7.310   2.894 -2.6970 -0.5734 -0.1217
  503MOL0     H69384   2.884   7.380   3.135 -0.1400 -2.3256  3.8836
  503MOL0     H69385   2.766   7.290   3.214 -2.1039 -2.0090 -1.2205
  503MOL0     H69386   2.728   7.534   3.167  2.7934 -1.2499 -0.7660
  503MOL0     H69387   2.699   7.507   2.992  0.1509 -3.2199 -2.5074
  503MOL0     H69388   2.515   7.388   3.201  0.3253  0.2314  0.2189
  503MOL0     H69389   2.513   7.385   3.017  0.2826  0.4614 -0.9813
  503MOL0     H69390   2.453   7.609   3.004 -2.1089 -0.1056  0.5754
  503MOL0     H69391   2.531   7.654   3.150 -1.6673  2.7114 -1.5162
  503MOL0     H69392   2.318   7.537   3.257  1.1666 -1.1931 -0.0189
  503MOL0     H69393   2.273   7.512   3.092  0.9224 -3.1238  0.9077
  503MOL0     H69394   3.152   7.373   2.786  0.1006 -2.5445  4.3014
  503MOL0     H69395   3.331   7.459   2.635 -1.0163 -1.0194 -1.1246
  503MOL0     H69396   3.877   7.441   2.598 -0.4502 -1.3244 -0.0459
  503MOL0     H69397   4.043   7.530   2.441 -0.7350 -0.9978 -0.5888
  503MOL0     H69398   3.037   8.304   1.303 -0.6235 -0.6407  1.7142
  503MOL0     H69399   3.087   8.300   1.046 -1.6764  2.8405 -2.9553
  503MOL0     H69400   3.064   8.096   0.686  2.1062 -0.4521 -1.0664
  503MOL0     H69401   3.122   8.051   0.463 -3.2135 -1.5676 -0.9034
  503MOL0     H69402   2.974   8.335   0.159  0.2514  3.6106  2.4209
  503MOL0     H69403   3.149   8.375   0.145  1.4830 -1.8386 -1.2619
  503MOL0     H69404   3.047   8.276  -0.060 -1.1004  3.2084  3.6026
  503MOL0     H69405   3.058   8.110   0.013 -0.3173  0.5054 -0.8437
  503MOL0     H69406   3.305   8.301  -0.020 -2.9649  2.3010  1.5543
  503MOL0     H69407   3.299   8.143   0.059 -1.2721  0.1695  0.5859
  503MOL0     H69408   3.222   8.220  -0.226  0.4554  0.0174  1.7022
  503MOL0     H69409   3.212   8.058  -0.169 -3.2495  1.3797  0.1790
  503MOL0     H69410   3.636   8.125  -0.177  0.4225 -0.4249 -1.7826
  503MOL0     H69411   2.952   8.422   0.333  0.8584 -1.7797 -1.4737
  503MOL0     H69412   2.817   8.540   0.469 -1.9868  6.9753  3.2782
  503MOL0     H69413   2.774   8.502   0.621 -0.5925  0.0110 -0.1225
  503MOL0     H69414   2.924   8.581   0.616 -0.6464 -0.7172  0.3674
  504MOL0     O69415   6.799   6.866   0.367  0.6493  0.6702  0.0276
  504MOL0     C69416   6.712   6.943   0.394  0.7265 -0.7250 -0.3058
  504MOL0     O69417   6.734   7.070   0.418 -0.5349  0.4911 -0.8760
  504MOL0     C69418   6.860   7.098   0.464  0.2944  0.3867  0.2733
  504MOL0     C69419   6.957   7.138   0.379 -0.0664 -0.2543  0.2998
  504MOL0     C69420   7.078   7.194   0.422 -0.9192  0.9869  0.1507
  504MOL0     C69421   7.109   7.204   0.555 -0.3119  0.7831 -0.0554
  504MOL0     O69422   7.225   7.241   0.614 -0.5986 -0.0274  0.4734
  504MOL0     C69423   7.345   7.219   0.527 -0.2877 -0.4180  0.0096
  504MOL0     C69424   7.457   7.173   0.623 -0.5045  0.5777  0.7827
  504MOL0     C69425   7.490   7.259   0.748  0.4084 -0.1810 -0.8448
  504MOL0     C69426   7.618   7.216   0.809 -0.0859  0.4534 -0.4097
  504MOL0     C69427   7.658   7.298   0.935  0.8973  0.2737 -0.0371
  504MOL0     C69428   7.746   7.221   1.033  0.2785  0.0183  0.2371
  504MOL0     C69429   7.887   7.189   0.989 -0.0335  0.4798 -0.1449
  504MOL0     C69430   7.981   7.312   1.006 -0.2892  0.2891 -0.2704
  504MOL0     N69431   8.104   7.311   0.926 -0.6160  0.8338 -0.8119
  504MOL0     C69432   8.187   7.203   0.910 -0.0495  0.9736 -0.4767
  504MOL0     C69433   8.257   7.221   0.793  0.0284 -0.9491  0.0783
  504MOL0     C69434   8.347   7.127   0.721  0.8844  0.3176 -0.2421
  504MOL0     C69435   8.256   7.023   0.662  0.0452 -0.2385 -0.2155
  504MOL0     C69436   8.329   6.922   0.576 -0.0930  1.1116 -0.1826
  504MOL0     C69437   8.370   6.989   0.437 -0.0231 -0.0652  0.2613
  504MOL0     O69438   8.428   6.885   0.341  0.2003 -0.3968 -0.0113
  504MOL0     C69439   8.390   6.754   0.359 -0.4882 -0.6380  0.5316
  504MOL0     C69440   8.468   6.669   0.437  0.4025  0.7652 -0.5322
  504MOL0     C69441   8.425   6.545   0.472 -0.2144  0.6672  0.5545
  504MOL0     C69442   8.523   6.461   0.546 -1.2249  0.5107 -0.0546
  504MOL0     C69443   8.306   6.494   0.415  0.0156 -0.8175  0.2183
  504MOL0     C69444   8.259   6.353   0.437  0.1718  0.5618  0.8320
  504MOL0     O69445   8.325   6.259   0.512 -0.1277 -0.4715 -0.1362
  504MOL0     C69446   8.253   6.147   0.553 -0.0416 -0.3483  1.0049
  504MOL0     C69447   8.119   6.152   0.601 -0.1288 -0.7068 -0.3450
  504MOL0     C69448   8.059   6.040   0.659 -0.1895 -0.4653 -0.3467
  504MOL0     C69449   8.121   5.914   0.653  0.0296 -0.1341 -1.2374
  504MOL0     O69450   8.084   5.802   0.723  0.2543 -0.1215  0.1702
  504MOL0     C69451   7.968   5.796   0.808  0.8910 -0.1881  0.1091
  504MOL0     C69452   7.942   5.651   0.853 -0.2695  0.0716 -0.6291
  504MOL0     C69453   7.853   5.585   0.765  1.1778  0.6840 -0.1258
  504MOL0     C69454   7.788   5.461   0.825  0.4212 -0.0245  0.1075
  504MOL0     C69455   7.722   5.379   0.713 -0.1175  0.4792 -1.0185
  504MOL0     C69456   7.646   5.268   0.775  0.1992  0.2396 -1.1058
  504MOL0     C69457   7.580   5.205   0.644  0.2335  0.0568 -1.3190
  504MOL0     C69458   7.502   5.071   0.663 -0.6919  0.2490 -0.5148
  504MOL0    Cl69459   7.484   5.012   0.833  0.1942 -0.1651  0.1875
  504MOL0     C69460   8.249   5.906   0.594 -0.2510  0.6664 -0.0784
  504MOL0     C69461   8.318   6.019   0.545  0.2945  0.4175  0.2740
  504MOL0     O69462   8.152   6.325   0.379 -0.3223 -0.7122  0.2930
  504MOL0     C69463   8.225   6.583   0.343 -0.2864  0.1382 -0.0029
  504MOL0     C69464   8.268   6.711   0.308 -0.1894  0.5689  0.3966
  504MOL0     N69465   8.220   7.353   0.752 -0.2194 -0.2851 -0.4534
  504MOL0     N69466   8.136   7.406   0.844  0.1010  0.4063  0.8663
  504MOL0     C69467   7.004   7.167   0.644 -0.2318  0.3195  0.4575
  504MOL0     C69468   6.880   7.115   0.605 -0.6812  0.2786  0.0950
  504MOL0     C69469   6.576   6.892   0.387  0.2686 -1.2346 -0.1728
  504MOL0     C69470   6.545   6.822   0.276 -0.6646 -0.5404 -1.2553
  504MOL0     C69471   6.418   6.770   0.269 -0.2182 -0.3409 -0.3390
  504MOL0     C69472   6.318   6.804   0.364  0.4023  0.2175  0.1711
  504MOL0     O69473   6.190   6.794   0.327 -0.1881  0.2230 -0.1981
  504MOL0     C69474   6.131   6.666   0.342  0.6869  0.1211 -0.7545
  504MOL0     C69475   6.087   6.652   0.489 -0.1852 -0.2156  0.3438
  504MOL0     C69476   5.992   6.769   0.517 -0.2970  0.4824 -0.9757
  504MOL0     C69477   5.949   6.769   0.671  0.5566 -0.0369  0.0584
  504MOL0     C69478   6.050   6.812   0.765 -0.9905 -0.0697 -0.0138
  504MOL0     C69479   6.154   6.854   0.815 -0.9845  0.6342  0.5169
  504MOL0     C69480   6.352   6.881   0.476 -0.0298 -0.7273 -0.2361
  504MOL0     C69481   6.479   6.925   0.489 -0.0804 -0.9574  0.4658
  504MOL0     C69482   6.515   6.991   0.620 -0.6711 -0.5117  0.0229
  504MOL0     H69483   6.939   7.137   0.272  0.1007  1.6889  0.2254
  504MOL0     H69484   7.151   7.227   0.349 -1.0287 -2.4944 -1.7507
  504MOL0     H69485   7.359   7.318   0.481 -1.2816 -0.3113 -0.0931
  504MOL0     H69486   7.332   7.152   0.442  1.0767  1.2005 -1.5577
  504MOL0     H69487   7.439   7.069   0.654  0.2769  0.5430  1.1652
  504MOL0     H69488   7.543   7.173   0.554 -3.2937  1.6778 -3.0262
  504MOL0     H69489   7.483   7.367   0.728 -1.4737  0.9660  4.4244
  504MOL0     H69490   7.411   7.242   0.821  1.9375 -0.1446  0.9002
  504MOL0     H69491   7.615   7.111   0.842  0.5916 -0.1695 -2.1707
  504MOL0     H69492   7.700   7.208   0.736 -0.1659 -3.8917 -0.3350
  504MOL0     H69493   7.564   7.318   0.988  1.3719 -2.1730  1.9172
  504MOL0     H69494   7.697   7.391   0.892  1.1912  0.3310  0.3431
  504MOL0     H69495   7.752   7.293   1.116 -1.1158  2.2898 -1.5006
  504MOL0     H69496   7.710   7.121   1.059  0.8292 -0.1436  0.3758
  504MOL0     H69497   7.887   7.159   0.884 -0.5616 -0.0733  0.0048
  504MOL0     H69498   7.928   7.106   1.048 -0.3481  0.7679  0.4922
  504MOL0     H69499   7.916   7.396   0.983  0.8780  2.5869  3.8035
  504MOL0     H69500   8.016   7.323   1.109  2.2051  1.3479 -1.1502
  504MOL0     H69501   8.184   7.124   0.984 -3.3234  1.1412 -0.2731
  504MOL0     H69502   8.423   7.085   0.786  1.1254 -2.5114 -2.1667
  504MOL0     H69503   8.408   7.178   0.645  0.4512 -1.4608 -1.8667
  504MOL0     H69504   8.197   6.981   0.745  3.0391 -0.8070  1.7700
  504MOL0     H69505   8.174   7.064   0.602 -0.2880  1.2822  1.1918
  504MOL0     H69506   8.417   6.897   0.636  0.4163  0.7821 -1.0418
  504MOL0     H69507   8.264   6.834   0.576 -0.0272  1.0334 -1.5612
  504MOL0     H69508   8.274   7.024   0.400 -1.3004 -3.0455  0.4823
  504MOL0     H69509   8.441   7.071   0.454  0.1432  0.5476 -2.8499
  504MOL0     H69510   8.556   6.713   0.481 -0.4603 -0.6362  2.9133
  504MOL0     H69511   8.472   6.433   0.638  1.1969 -2.0494  0.6425
  504MOL0     H69512   8.617   6.511   0.570 -0.1228 -0.9305 -1.1708
  504MOL0     H69513   8.543   6.373   0.485  1.7010  0.0990  1.3133
  504MOL0     H69514   8.083   6.254   0.612 -1.2222 -1.3422  3.1790
  504MOL0     H69515   7.962   6.060   0.704  1.1812  1.8482  1.8645
  504MOL0     H69516   7.993   5.862   0.892 -1.5310 -0.6873  1.3203
  504MOL0     H69517   7.887   5.830   0.743 -1.9461 -0.2458  3.2975
  504MOL0     H69518   8.035   5.594   0.856 -0.1870  0.2280  0.1962
  504MOL0     H69519   7.907   5.659   0.957  1.1286 -0.6134 -0.0802
  504MOL0     H69520   7.898   5.553   0.670 -0.4085 -1.3376 -0.2843
  504MOL0     H69521   7.766   5.648   0.743  1.2569  1.2025  0.9886
  504MOL0     H69522   7.705   5.491   0.889  1.1984  0.2709  0.9920
  504MOL0     H69523   7.861   5.402   0.880 -0.3370 -1.8900 -0.7687
  504MOL0     H69524   7.658   5.443   0.652 -0.5509  2.3841  1.3139
  504MOL0     H69525   7.807   5.355   0.650  3.2417  1.2129  2.8237
  504MOL0     H69526   7.566   5.287   0.847 -1.1995 -0.2790 -2.4615
  504MOL0     H69527   7.713   5.198   0.825  0.9495  0.6448 -1.5130
  504MOL0     H69528   7.660   5.175   0.575 -2.2106 -2.1564 -3.3982
  504MOL0     H69529   7.507   5.267   0.591  0.7348 -0.6759 -2.9350
  504MOL0     H69530   7.552   4.991   0.609 -1.8493 -0.7497 -0.1405
  504MOL0     H69531   7.404   5.090   0.619 -1.0006  0.2847  0.1669
  504MOL0     H69532   8.301   5.811   0.595 -4.1123 -1.6849 -0.8608
  504MOL0     H69533   8.419   6.018   0.506  0.5350 -0.1141  0.8808
  504MOL0     H69534   8.133   6.542   0.304 -1.6621  1.6644  1.4737
  504MOL0     H69535   8.198   6.763   0.244 -1.4969  1.3400  2.3746
  504MOL0     H69536   7.011   7.180   0.752 -2.5755  1.4996  0.5253
  504MOL0     H69537   6.805   7.083   0.677 -0.1847 -1.6201 -0.1741
  504MOL0     H69538   6.616   6.800   0.197  0.3423  0.0126 -0.5326
  504MOL0     H69539   6.395   6.714   0.179  2.7211 -3.8800  0.8788
  504MOL0     H69540   6.051   6.651   0.269  0.2402 -1.6546  0.0322
  504MOL0     H69541   6.210   6.592   0.326 -0.0489 -1.0598  0.7426
  504MOL0     H69542   6.180   6.646   0.547  0.6089  0.9260 -0.7803
  504MOL0     H69543   6.030   6.558   0.493 -0.2370 -0.2930 -1.4657
  504MOL0     H69544   6.035   6.867   0.493 -1.5311  1.3517  0.2136
  504MOL0     H69545   5.899   6.745   0.465 -3.4949 -1.8192  4.8765
  504MOL0     H69546   5.899   6.677   0.702 -1.3782 -0.3653 -3.4351
  504MOL0     H69547   5.869   6.843   0.686 -0.0009 -0.3463 -1.2126
  504MOL0     H69548   6.246   6.902   0.842 -1.8189  1.8965  1.2835
  504MOL0     H69549   6.267   6.910   0.537  0.7456 -0.6690  0.8195
  504MOL0     H69550   6.617   6.960   0.645 -1.6266 -3.4037  0.7228
  504MOL0     H69551   6.498   7.097   0.599  1.3387  0.3323  2.2453
  504MOL0     H69552   6.451   6.953   0.701 -1.3844  0.4994 -0.0415
  505MOL0     O69553   9.548   1.540  10.418 -0.1639  0.2854  0.4790
  505MOL0     C69554   9.511   1.581  10.522  0.5664  0.3362 -0.0179
  505MOL0     O69555   9.580   1.606  10.634  1.1201  0.3045 -0.4679
  505MOL0     C69556   9.698   1.545  10.656 -0.3097  0.0195  0.0281
  505MOL0     C69557   9.731   1.414  10.615  0.3103  0.5386  0.2375
  505MOL0     C69558   9.858   1.362  10.628  0.1438 -0.2002  0.1828
  505MOL0     C69559   9.966   1.449  10.680 -1.2397  0.8922 -0.3547
  505MOL0     O69560  10.101   1.420  10.689 -0.0616 -0.2791 -0.5450
  505MOL0     C69561  10.162   1.288  10.689  0.2042  0.0679 -0.2005
  505MOL0     C69562  10.207   1.253  10.549 -0.0054  0.8046 -1.1610
  505MOL0     C69563  10.276   1.361  10.469  0.2918 -0.2476 -0.1779
  505MOL0     C69564  10.325   1.308  10.328  0.3747  0.2372  0.0735
  505MOL0     C69565  10.331   1.409  10.215 -0.0782  0.2753  0.6609
  505MOL0     C69566  10.429   1.372  10.098  0.6788 -0.3459 -0.3236
  505MOL0     C69567  10.438   1.489  10.004  0.3045  0.0907 -0.3091
  505MOL0     C69568  10.505   1.610  10.072 -0.0184  0.0563 -1.1694
  505MOL0     N69569  10.641   1.581  10.098  0.2852 -0.2134  1.0398
  505MOL0     C69570  10.704   1.595  10.217 -0.4955 -0.3172 -0.5763
  505MOL0     C69571  10.839   1.580  10.194  0.2858 -0.0144 -0.1852
  505MOL0     C69572  10.959   1.559  10.295 -0.8112 -0.2370  0.3408
  505MOL0     C69573  10.913   1.437  10.385  0.3101 -0.0552 -0.3701
  505MOL0     C69574  10.992   1.427  10.514 -0.6086 -0.5240 -0.6283
  505MOL0     C69575  11.141   1.425  10.505  0.0119  0.3079 -0.7500
  505MOL0     O69576  11.178   1.307  10.425  0.1768 -0.1224  0.5953
  505MOL0     C69577  11.314   1.291  10.403 -0.4766 -0.1694  0.1629
  505MOL0     C69578  11.413   1.332  10.494  0.1122  0.3010  0.4163
  505MOL0     C69579  11.551   1.311  10.472  1.5020  0.4730 -0.2925
  505MOL0     C69580  11.651   1.334  10.580 -0.3004  0.4023 -0.1463
  505MOL0     C69581  11.588   1.246  10.357  0.3890 -0.3239  0.5796
  505MOL0     C69582  11.730   1.208  10.334 -0.5672 -0.1868  1.0669
  505MOL0     O69583  11.751   1.100  10.255 -0.0357 -0.7083 -0.5153
  505MOL0     C69584  11.879   1.033  10.238  0.9492 -0.1300  0.3520
  505MOL0     C69585  11.909   0.967  10.122 -0.4312  0.7928 -0.6198
  505MOL0     C69586  12.034   0.900  10.105  0.1573 -0.7758 -0.0716
  505MOL0     C69587  12.127   0.892  10.210  1.0426 -0.2270  0.0552
  505MOL0     O69588  12.252   0.838  10.205 -0.1893 -0.0015  0.2040
  505MOL0     C69589  12.328   0.868  10.087  0.4722  0.2796  0.9089
  505MOL0     C69590  12.383   1.014  10.090 -0.2870 -0.0487 -0.0123
  505MOL0     C69591  12.471   1.038  10.214  0.2196 -0.7531  0.2683
  505MOL0     C69592  12.541   1.177  10.209  0.3571 -0.0948 -0.5034
  505MOL0     C69593  12.561   1.232  10.353  0.7829  0.4179  0.1861
  505MOL0     C69594  12.673   1.152  10.432 -0.0387 -0.0559 -0.7032
  505MOL0     C69595  12.682   1.195  10.581  0.4385 -0.2210  0.7491
  505MOL0     C69596  12.737   1.335  10.602 -0.6284 -0.7280 -0.5583
  505MOL0    Cl69597  12.771   1.360  10.769  0.1305  0.4380 -0.4342
  505MOL0     C69598  12.093   0.962  10.324  0.2211  0.7277  0.0757
  505MOL0     C69599  11.979   1.033  10.341  0.0168 -0.9327  0.6206
  505MOL0     O69600  11.821   1.281  10.367 -0.1064  0.0400 -0.6658
  505MOL0     C69601  11.488   1.219  10.257  0.1903  0.4148 -0.9352
  505MOL0     C69602  11.353   1.243  10.276 -0.1418  0.8060 -0.6185
  505MOL0     N69603  10.852   1.543  10.057  0.9892 -1.0864 -0.1830
  505MOL0     N69604  10.731   1.559  10.001 -0.3757  0.6988  0.4263
  505MOL0     C69605   9.929   1.577  10.708 -0.0072  0.1362 -0.7297
  505MOL0     C69606   9.800   1.624  10.702 -0.1737  0.1535  0.5569
  505MOL0     C69607   9.371   1.619  10.527 -0.1357 -0.5206  0.7139
  505MOL0     C69608   9.328   1.723  10.614  0.6216 -0.8476  0.5995
  505MOL0     C69609   9.202   1.781  10.595  0.1484  0.0170  0.0006
  505MOL0     C69610   9.108   1.727  10.511  0.1099  0.2617 -0.4093
  505MOL0     O69611   8.989   1.780  10.475 -0.7295 -0.2734 -0.4527
  505MOL0     C69612   8.958   1.913  10.535 -0.6489  0.1606 -0.3299
  505MOL0     C69613   8.819   1.955  10.494 -0.8354  0.1106 -0.2863
  505MOL0     C69614   8.799   2.100  10.539  0.6081 -0.3826 -0.3662
  505MOL0     C69615   8.648   2.139  10.536  0.2043 -0.1123 -0.0864
  505MOL0     C69616   8.577   2.094  10.653 -0.4672 -0.0307  0.3346
  505MOL0     C69617   8.506   2.051  10.735  0.5348  0.2604 -0.7850
  505MOL0     C69618   9.149   1.626  10.434 -1.1822  0.3406  0.5925
  505MOL0     C69619   9.271   1.561  10.449  0.5956 -0.3992 -0.1563
  505MOL0     C69620   9.298   1.439  10.370 -0.5729  0.2394  0.8674
  505MOL0     H69621   9.652   1.352  10.576  0.0111  0.6540  0.6541
  505MOL0     H69622   9.878   1.256  10.614 -2.0354 -1.0139  2.4036
  505MOL0     H69623  10.088   1.215  10.721 -0.1448 -1.0290 -3.1776
  505MOL0     H69624  10.249   1.290  10.755 -0.7747 -3.0838  1.3676
  505MOL0     H69625  10.283   1.176  10.561 -1.5247 -0.6540 -0.5611
  505MOL0     H69626  10.114   1.210  10.508  0.0259  0.8947 -1.3307
  505MOL0     H69627  10.200   1.440  10.464 -0.2281 -0.7233  0.0566
  505MOL0     H69628  10.367   1.398  10.516 -0.9871  0.9641  1.4516
  505MOL0     H69629  10.428   1.275  10.344  0.6027  0.5638 -0.6621
  505MOL0     H69630  10.261   1.227  10.294  0.5234 -0.4293  1.3146
  505MOL0     H69631  10.371   1.486  10.281  1.3523 -0.5285  0.7634
  505MOL0     H69632  10.232   1.432  10.174 -0.3626 -1.7697  0.0408
  505MOL0     H69633  10.529   1.356  10.140  0.7652  1.6306  0.3262
  505MOL0     H69634  10.411   1.279  10.045  2.1554 -1.3705  0.8810
  505MOL0     H69635  10.340   1.521   9.968 -0.3602  1.8010  2.6802
  505MOL0     H69636  10.487   1.457   9.912 -2.7319 -0.3899 -1.8919
  505MOL0     H69637  10.496   1.685   9.993  1.7640  0.2790 -1.2102
  505MOL0     H69638  10.460   1.645  10.165 -0.4164  0.9110 -1.6682
  505MOL0     H69639  10.668   1.615  10.317 -0.0183  0.0468 -0.4686
  505MOL0     H69640  10.970   1.650  10.354  1.7338 -0.5881  0.5061
  505MOL0     H69641  11.047   1.529  10.237 -2.1101  2.2952 -3.2920
  505MOL0     H69642  10.806   1.454  10.397  0.5504  1.0014  0.4110
  505MOL0     H69643  10.928   1.336  10.344 -0.3006 -1.2443  2.1538
  505MOL0     H69644  10.970   1.508  10.584 -0.4132  0.1900 -1.3670
  505MOL0     H69645  10.953   1.343  10.571 -2.1715  0.0340 -0.8286
  505MOL0     H69646  11.196   1.512  10.469  1.9472 -0.4252  0.2958
  505MOL0     H69647  11.176   1.398  10.605  0.1252 -1.7023 -1.2796
  505MOL0     H69648  11.384   1.387  10.583  0.1096 -0.5961  0.9841
  505MOL0     H69649  11.718   1.416  10.553  2.0682 -1.3662  0.0488
  505MOL0     H69650  11.703   1.243  10.611 -2.2978 -0.8894 -0.3879
  505MOL0     H69651  11.604   1.365  10.674  1.4792  0.7430  0.6721
  505MOL0     H69652  11.843   0.977  10.036  0.0321  0.1812 -1.0531
  505MOL0     H69653  12.062   0.851  10.013 -5.9331 -3.0358 -1.1684
  505MOL0     H69654  12.421   0.811  10.090  0.4209  0.1366 -0.0035
  505MOL0     H69655  12.284   0.844   9.990  1.7167 -2.0394  0.8580
  505MOL0     H69656  12.439   1.026   9.997  0.0283  0.6589  0.2666
  505MOL0     H69657  12.298   1.083  10.088  0.4948  1.0192  1.6579
  505MOL0     H69658  12.546   0.959  10.225  0.3214 -0.9341 -1.5498
  505MOL0     H69659  12.407   1.035  10.303 -1.5693 -0.7103 -0.9597
  505MOL0     H69660  12.464   1.233  10.155 -0.5696 -0.8859 -0.0394
  505MOL0     H69661  12.631   1.173  10.147 -0.4457 -3.4074 -1.6741
  505MOL0     H69662  12.578   1.340  10.345 -3.4623  1.2492 -0.0399
  505MOL0     H69663  12.471   1.229  10.414  0.8009  2.9583  0.4475
  505MOL0     H69664  12.769   1.179  10.386 -0.1711  3.3802  0.7205
  505MOL0     H69665  12.666   1.043  10.423  1.1961 -0.2355  0.1933
  505MOL0     H69666  12.744   1.123  10.635 -0.5781 -1.5082  0.2590
  505MOL0     H69667  12.577   1.184  10.612  0.0159  0.7554 -0.2598
  505MOL0     H69668  12.675   1.416  10.563  2.2910  1.5619 -0.7893
  505MOL0     H69669  12.829   1.326  10.544 -1.3045 -3.1041 -1.4026
  505MOL0     H69670  12.168   0.976  10.402 -1.7837  2.7169  1.7608
  505MOL0     H69671  11.957   1.089  10.431  0.3698 -1.4570  1.0333
  505MOL0     H69672  11.516   1.172  10.163  1.8729 -1.9161  0.6072
  505MOL0     H69673  11.282   1.224  10.197  0.9763 -1.2552 -1.2082
  505MOL0     H69674  10.003   1.644  10.749 -2.1874  3.0727 -1.2418
  505MOL0     H69675   9.772   1.724  10.732 -1.3276 -0.0462  0.2066
  505MOL0     H69676   9.406   1.764  10.678  1.6193 -1.5280 -0.1579
  505MOL0     H69677   9.165   1.861  10.657 -1.4104 -0.7947  0.1693
  505MOL0     H69678   8.960   1.910  10.645 -0.5382  3.5871 -0.1517
  505MOL0     H69679   9.034   1.985  10.505 -0.7671  1.0482  1.3782
  505MOL0     H69680   8.746   1.885  10.536 -2.0044  2.1889  1.3430
  505MOL0     H69681   8.811   1.940  10.386  0.1388 -3.5858  0.0441
  505MOL0     H69682   8.845   2.115  10.636  0.2783  0.1753 -0.2901
  505MOL0     H69683   8.846   2.163  10.462  0.2237 -0.2898 -0.5290
  505MOL0     H69684   8.601   2.090  10.450  3.2267 -1.1772 -1.2830
  505MOL0     H69685   8.642   2.247  10.525 -0.8151 -0.3685 -2.4709
  505MOL0     H69686   8.432   2.011  10.802 -1.3262 -1.7609 -3.7493
  505MOL0     H69687   9.078   1.573  10.372  0.9274  0.1621 -1.8109
  505MOL0     H69688   9.343   1.361  10.433  0.0900  0.7282  0.9994
  505MOL0     H69689   9.209   1.394  10.324  0.6068  0.0701 -1.3997
  505MOL0     H69690   9.365   1.459  10.286 -3.0305  1.1697 -0.9706
  506MOL0     O69691   5.005  11.121   8.275  0.0010  0.0174  0.3962
  506MOL0     C69692   5.097  11.123   8.191  0.7230 -0.2317  0.4956
  506MOL0     O69693   5.133  11.234   8.123  0.3473  0.6328  0.3030
  506MOL0     C69694   5.128  11.355   8.184 -0.5033  0.0809  0.8473
  506MOL0     C69695   5.004  11.422   8.195  0.3931  0.5061  0.3991
  506MOL0     C69696   5.005  11.546   8.262  0.8797  0.3589  0.2101
  506MOL0     C69697   5.122  11.597   8.313 -0.3182 -0.6042 -0.2123
  506MOL0     O69698   5.142  11.724   8.359 -0.2945 -0.7319  0.0847
  506MOL0     C69699   5.074  11.821   8.289  0.2349 -0.5839 -0.3438
  506MOL0     C69700   5.121  11.964   8.303 -0.0940  0.9124 -0.3355
  506MOL0     C69701   5.264  11.986   8.255  0.1749  0.5417 -0.7472
  506MOL0     C69702   5.317  12.117   8.315  0.9293 -0.2584  0.3243
  506MOL0     C69703   5.423  12.205   8.236 -0.5552  0.7969  0.4289
  506MOL0     C69704   5.561  12.153   8.261 -0.9800 -0.2325  1.0299
  506MOL0     C69705   5.665  12.204   8.160 -0.2948  0.2256  0.3535
  506MOL0     C69706   5.637  12.157   8.016 -0.2635  0.7134 -0.2921
  506MOL0     N69707   5.726  12.210   7.918  0.3618  0.2067  0.0012
  506MOL0     C69708   5.840  12.141   7.879 -0.2208 -0.4796 -0.2319
  506MOL0     C69709   5.905  12.224   7.800  0.5524  0.1639 -0.8849
  506MOL0     C69710   6.040  12.202   7.740 -0.0603  1.1208 -0.6110
  506MOL0     C69711   6.019  12.149   7.601 -0.1967  0.0538  0.0878
  506MOL0     C69712   6.152  12.094   7.545  0.0443 -0.6226 -0.0096
  506MOL0     C69713   6.255  12.200   7.513  0.7658  0.4564  0.9823
  506MOL0     O69714   6.217  12.282   7.404  0.4090 -0.5468 -0.2471
  506MOL0     C69715   6.313  12.365   7.346 -1.0692  0.5220  0.0473
  506MOL0     C69716   6.279  12.428   7.233  0.2534 -0.5278  1.0065
  506MOL0     C69717   6.373  12.512   7.175 -0.4048 -0.3434  0.6821
  506MOL0     C69718   6.324  12.588   7.054 -0.6070 -0.2398 -0.1608
  506MOL0     C69719   6.502  12.542   7.231 -0.2562  0.1525 -0.5822
  506MOL0     C69720   6.600  12.642   7.187 -0.2179  0.7467 -1.3381
  506MOL0     O69721   6.720  12.622   7.245  0.0094 -0.4553 -0.2654
  506MOL0     C69722   6.816  12.720   7.227  0.2304  0.0897 -0.1725
  506MOL0     C69723   6.888  12.766   7.334  0.2862 -0.9932  1.2793
  506MOL0     C69724   6.982  12.864   7.319  0.0125 -0.6397  0.0737
  506MOL0     C69725   7.005  12.928   7.195  0.6391  0.2914  0.2374
  506MOL0     O69726   7.097  13.025   7.181 -0.1467  0.2289  0.1136
  506MOL0     C69727   7.038  13.149   7.140 -0.6812  0.1421  0.2887
  506MOL0     C69728   6.981  13.232   7.256  0.3938 -0.6272  0.4094
  506MOL0     C69729   7.083  13.302   7.348 -0.1538  0.0015 -0.1266
  506MOL0     C69730   7.021  13.379   7.458  0.6568 -0.3755 -0.8553
  506MOL0     C69731   7.126  13.465   7.538 -0.0850 -0.4025 -1.2241
  506MOL0     C69732   7.051  13.565   7.640  0.4964  0.3614  1.8787
  506MOL0     C69733   7.142  13.603   7.756  0.1372 -0.6075 -0.0543
  506MOL0     C69734   7.138  13.746   7.813  1.3260 -0.0333 -0.0433
  506MOL0    Cl69735   6.973  13.769   7.882 -0.3208 -0.2014 -0.2901
  506MOL0     C69736   6.946  12.868   7.080  0.3835  0.2564  0.6931
  506MOL0     C69737   6.851  12.757   7.102 -0.9304  0.6862  0.0645
  506MOL0     O69738   6.570  12.734   7.115  0.7005  0.0020 -0.6032
  506MOL0     C69739   6.530  12.476   7.353 -0.4116 -0.6515 -0.4683
  506MOL0     C69740   6.437  12.395   7.411  0.0311  0.6593 -0.7067
  506MOL0     N69741   5.837  12.337   7.782 -0.3267 -0.3515  0.0642
  506MOL0     N69742   5.729  12.332   7.858  0.2217 -0.2288 -0.0785
  506MOL0     C69743   5.238  11.518   8.319  0.4735 -0.5270 -0.0589
  506MOL0     C69744   5.239  11.395   8.252  0.0107  0.4819 -0.4292
  506MOL0     C69745   5.131  10.985   8.153  0.0054 -0.8560  0.8770
  506MOL0     C69746   5.181  10.971   8.020 -0.9263  0.1282  0.7251
  506MOL0     C69747   5.208  10.847   7.963  0.0777  0.9838 -0.3143
  506MOL0     C69748   5.192  10.727   8.041  0.6427 -0.5666  0.4130
  506MOL0     O69749   5.196  10.596   7.990 -0.6819 -0.0876  0.6760
  506MOL0     C69750   5.236  10.575   7.849 -0.0139  0.2657 -0.1618
  506MOL0     C69751   5.251  10.425   7.802  0.0455 -0.3833  0.0068
  506MOL0     C69752   5.120  10.360   7.791  0.2046 -0.1214  0.1583
  506MOL0     C69753   5.123  10.201   7.761  0.0629 -0.3101 -0.6907
  506MOL0     C69754   4.989  10.149   7.739  0.8784 -0.4115 -0.7032
  506MOL0     C69755   4.870  10.115   7.735 -0.4889 -0.2875 -0.4620
  506MOL0     C69756   5.161  10.743   8.179 -0.2195  0.1029  0.8743
  506MOL0     C69757   5.124  10.868   8.229 -1.8360  0.5650  0.0638
  506MOL0     C69758   5.096  10.879   8.375 -0.8785 -0.0993  0.1423
  506MOL0     H69759   4.918  11.385   8.141  1.7628  0.5872 -1.9761
  506MOL0     H69760   4.922  11.616   8.254  0.6496 -0.1413 -3.1686
  506MOL0     H69761   4.969  11.826   8.318  0.0816  0.5131 -1.0090
  506MOL0     H69762   5.064  11.789   8.185 -1.1232  1.9159 -1.0529
  506MOL0     H69763   5.053  12.033   8.252 -3.8883 -1.1387  1.5411
  506MOL0     H69764   5.119  11.998   8.406 -0.0632  1.7773 -0.6140
  506MOL0     H69765   5.323  11.899   8.287 -1.2796 -0.1055  0.2834
  506MOL0     H69766   5.258  11.996   8.146 -3.7613 -2.4365 -1.0306
  506MOL0     H69767   5.225  12.174   8.325  0.9102 -0.5937  2.3393
  506MOL0     H69768   5.365  12.087   8.409  1.1529  0.7335  0.5338
  506MOL0     H69769   5.413  12.305   8.277 -1.4197  0.8488  0.1027
  506MOL0     H69770   5.393  12.211   8.131 -0.0070 -1.2883  0.0983
  506MOL0     H69771   5.600  12.179   8.360 -0.2001  1.4709  0.3154
  506MOL0     H69772   5.565  12.044   8.248 -0.0960  0.0718 -2.1014
  506MOL0     H69773   5.768  12.187   8.192  0.2874 -0.1244 -1.5416
  506MOL0     H69774   5.662  12.313   8.149  0.8113  0.1394 -1.2766
  506MOL0     H69775   5.615  12.050   8.015  1.5514  0.3038 -1.7980
  506MOL0     H69776   5.554  12.225   7.991  1.0322  2.6062  0.2968
  506MOL0     H69777   5.872  12.045   7.918 -0.9832 -0.3904  0.6736
  506MOL0     H69778   6.083  12.125   7.804 -4.4041  0.2974  1.6939
  506MOL0     H69779   6.106  12.289   7.744  3.6334 -1.4786 -0.8138
  506MOL0     H69780   5.938  12.075   7.596 -0.2259 -0.1153  2.2575
  506MOL0     H69781   5.981  12.229   7.537  0.7926 -1.7130 -2.9173
  506MOL0     H69782   6.191  12.021   7.617  0.6729  3.4174  4.2492
  506MOL0     H69783   6.143  12.042   7.449 -0.9332  0.1108 -0.3273
  506MOL0     H69784   6.280  12.266   7.597 -0.9441 -0.4920  2.3152
  506MOL0     H69785   6.343  12.141   7.487 -0.7435 -0.8532 -1.5481
  506MOL0     H69786   6.182  12.416   7.185 -1.4800 -1.3486  4.4046
  506MOL0     H69787   6.262  12.524   6.990 -2.7435  0.8988  0.6688
  506MOL0     H69788   6.404  12.628   6.992 -0.5346  1.3430  0.9050
  506MOL0     H69789   6.260  12.671   7.083  2.3335  2.1345  0.0455
  506MOL0     H69790   6.862  12.751   7.438  0.3723 -1.1871  1.2739
  506MOL0     H69791   7.025  12.918   7.403  0.8268  2.1571 -1.9988
  506MOL0     H69792   7.110  13.213   7.089  0.3011 -0.4702  0.8695
  506MOL0     H69793   6.958  13.138   7.067 -3.5106 -0.5488  3.2508
  506MOL0     H69794   6.905  13.297   7.211  1.5760  1.0132  0.6843
  506MOL0     H69795   6.923  13.171   7.325 -0.0793  1.8424  2.3350
  506MOL0     H69796   7.147  13.364   7.285  1.4447 -0.2804  1.1500
  506MOL0     H69797   7.139  13.223   7.399 -1.4255  0.9510  2.9735
  506MOL0     H69798   6.972  13.316   7.533  1.8818 -1.5837 -1.0301
  506MOL0     H69799   6.935  13.424   7.408 -0.9785 -2.2606  0.1522
  506MOL0     H69800   7.191  13.399   7.598  1.2625  1.8617 -0.0302
  506MOL0     H69801   7.192  13.517   7.469 -0.9736  1.8677 -0.4509
  506MOL0     H69802   6.959  13.520   7.677  1.6096 -0.2706  4.0250
  506MOL0     H69803   7.020  13.656   7.587  1.9859 -0.1890 -0.0573
  506MOL0     H69804   7.249  13.597   7.732  0.7009  0.3510  2.0168
  506MOL0     H69805   7.119  13.536   7.839  0.5286  0.0326  0.5840
  506MOL0     H69806   7.155  13.817   7.732 -0.5234 -0.0859 -0.5277
  506MOL0     H69807   7.217  13.757   7.888  0.1611  0.5396  1.1415
  506MOL0     H69808   6.976  12.897   6.980 -1.5583  1.8128  0.5011
  506MOL0     H69809   6.797  12.703   7.025  0.0891 -0.4896  0.1468
  506MOL0     H69810   6.619  12.496   7.411 -0.2041 -0.9811 -0.6652
  506MOL0     H69811   6.463  12.367   7.513 -3.1833  0.5981  0.2243
  506MOL0     H69812   5.327  11.568   8.355  0.2728 -1.1777  1.4002
  506MOL0     H69813   5.316  11.319   8.241  0.1931  0.8282 -1.5891
  506MOL0     H69814   5.201  11.050   7.948 -0.5895 -1.1085 -0.6019
  506MOL0     H69815   5.236  10.844   7.858  1.3075  0.2290  0.0167
  506MOL0     H69816   5.158  10.618   7.785 -1.7823 -2.8430 -0.2879
  506MOL0     H69817   5.334  10.621   7.831  0.4114 -0.9479 -1.0299
  506MOL0     H69818   5.310  10.366   7.873 -1.1360  0.6480  1.9227
  506MOL0     H69819   5.295  10.424   7.701  0.3224 -0.0633  0.1213
  506MOL0     H69820   5.074  10.365   7.890  1.0045  0.7477  0.4966
  506MOL0     H69821   5.066  10.408   7.708  2.2670  0.4818 -0.8960
  506MOL0     H69822   5.166  10.157   7.851  2.0013  0.2609 -1.2983
  506MOL0     H69823   5.179  10.175   7.670 -0.5362 -1.3662 -0.7731
  506MOL0     H69824   4.772  10.088   7.771 -0.4815  0.3685  0.0753
  506MOL0     H69825   5.144  10.653   8.237  1.0074 -0.0224  1.0532
  506MOL0     H69826   5.156  10.960   8.416 -0.8361  0.0858 -0.2858
  506MOL0     H69827   4.997  10.903   8.415  0.0349 -2.3189  4.4318
  506MOL0     H69828   5.107  10.784   8.429 -0.5275  0.2478  0.6948
  507MOL0     O69829   5.819   7.844   3.807 -0.8188  0.1634 -0.6631
  507MOL0     C69830   5.905   7.765   3.839 -0.1137  0.2628  0.2492
  507MOL0     O69831   6.041   7.789   3.834 -0.2758 -0.3504 -0.5095
  507MOL0     C69832   6.082   7.921   3.816 -0.1629 -0.4979 -0.9088
  507MOL0     C69833   6.041   8.036   3.884 -0.4652  0.3990 -0.2443
  507MOL0     C69834   6.099   8.159   3.866  0.4284 -0.3774 -0.0364
  507MOL0     C69835   6.204   8.180   3.780 -0.7045  0.1522  0.4947
  507MOL0     O69836   6.249   8.308   3.757  0.1479  0.1091  1.0550
  507MOL0     C69837   6.350   8.336   3.658  0.9667  1.1521  0.6592
  507MOL0     C69838   6.389   8.484   3.653  0.5922  0.6132  0.4442
  507MOL0     C69839   6.269   8.580   3.603  0.1134  0.5959  0.3815
  507MOL0     C69840   6.226   8.551   3.459 -0.5379 -0.0265 -0.8940
  507MOL0     C69841   6.079   8.610   3.432 -0.1635  0.4241 -0.2823
  507MOL0     C69842   6.037   8.613   3.294  0.7709 -0.0537  0.7759
  507MOL0     C69843   5.909   8.682   3.270  0.2557 -1.0911 -0.3205
  507MOL0     C69844   5.805   8.590   3.333 -0.2014 -0.0634 -0.0771
  507MOL0     N69845   5.660   8.629   3.330 -0.7052 -0.1963 -0.0217
  507MOL0     C69846   5.605   8.754   3.310  0.0402  0.5295  0.5441
  507MOL0     C69847   5.471   8.726   3.279 -0.3007  0.4104 -0.0069
  507MOL0     C69848   5.377   8.836   3.236  0.1314 -0.4866  0.3612
  507MOL0     C69849   5.447   8.930   3.136  0.0249 -1.2052 -0.1962
  507MOL0     C69850   5.372   9.064   3.123  0.7597  0.4704 -0.6226
  507MOL0     C69851   5.433   9.146   3.011 -0.6056 -1.0636 -0.5893
  507MOL0     O69852   5.576   9.176   3.048  0.3367 -0.1003 -0.0964
  507MOL0     C69853   5.651   9.263   2.976  0.4375  0.8186 -0.0272
  507MOL0     C69854   5.602   9.327   2.857 -0.0489 -0.7518 -0.8352
  507MOL0     C69855   5.672   9.432   2.801  0.4984 -0.1156 -0.2534
  507MOL0     C69856   5.600   9.506   2.679  0.0791  0.0926  0.0281
  507MOL0     C69857   5.804   9.479   2.844  0.0320  0.1825  0.4365
  507MOL0     C69858   5.897   9.569   2.773 -0.6780 -0.0584 -0.9188
  507MOL0     O69859   6.030   9.552   2.800 -0.4606 -0.6354  0.0085
  507MOL0     C69860   6.132   9.623   2.732  0.2255  0.0366 -0.1093
  507MOL0     C69861   6.126   9.697   2.604  0.3815  1.0406 -0.0912
  507MOL0     C69862   6.235   9.783   2.575 -0.3638 -0.1774  0.2921
  507MOL0     C69863   6.349   9.785   2.645 -0.4248  0.2447  0.7806
  507MOL0     O69864   6.480   9.826   2.610  0.1262 -0.1677  0.8244
  507MOL0     C69865   6.496   9.883   2.482  0.4028 -0.0422 -0.1540
  507MOL0     C69866   6.644   9.920   2.447  0.4146 -0.4697  0.4861
  507MOL0     C69867   6.707  10.021   2.547  0.4838 -0.7586  0.5623
  507MOL0     C69868   6.852  10.056   2.514  1.4493  0.4387  0.5010
  507MOL0     C69869   6.930  10.103   2.639  0.3089  0.0180 -0.4827
  507MOL0     C69870   6.875  10.231   2.702  0.5044  0.1740  0.1760
  507MOL0     C69871   6.981  10.303   2.787  0.6117 -0.2823  0.1413
  507MOL0     C69872   6.930  10.440   2.835 -0.2958  0.2409 -1.1424
  507MOL0    Cl69873   6.774  10.422   2.930 -0.0261 -0.0360 -0.1138
  507MOL0     C69874   6.345   9.718   2.761 -0.0332 -0.5519 -0.4952
  507MOL0     C69875   6.251   9.629   2.803  0.1506  0.2246 -0.3008
  507MOL0     O69876   5.855   9.644   2.687 -0.5675 -0.3986  0.4580
  507MOL0     C69877   5.845   9.407   2.965 -0.7482 -0.0968  0.3056
  507MOL0     C69878   5.775   9.301   3.024  0.0800  0.7339 -0.0908
  507MOL0     N69879   5.446   8.596   3.289 -0.5950 -0.3181  0.2282
  507MOL0     N69880   5.560   8.534   3.315 -0.2848  0.3038  0.1275
  507MOL0     C69881   6.242   8.067   3.696 -0.6360 -0.4308 -0.3470
  507MOL0     C69882   6.186   7.940   3.721  0.0292 -0.1506 -0.1964
  507MOL0     C69883   5.869   7.635   3.897 -0.4025  0.5189 -0.0055
  507MOL0     C69884   5.961   7.531   3.891  0.6048  0.8289  0.0326
  507MOL0     C69885   5.935   7.407   3.935  0.0109  0.7405  0.4515
  507MOL0     C69886   5.814   7.371   3.991  0.1928 -0.2467  0.5418
  507MOL0     O69887   5.795   7.247   4.050 -0.1075  0.1526  0.2826
  507MOL0     C69888   5.697   7.216   4.152 -0.5645 -0.3073  0.3376
  507MOL0     C69889   5.764   7.181   4.289  0.6706 -0.3874 -0.3556
  507MOL0     C69890   5.647   7.163   4.393 -0.0485 -0.7416 -1.0751
  507MOL0     C69891   5.705   7.060   4.492 -0.4361  0.1514 -0.8772
  507MOL0     C69892   5.605   7.033   4.607 -0.4830 -0.7898  0.2344
  507MOL0     C69893   5.515   7.043   4.699 -1.0443 -0.5653  0.5837
  507MOL0     C69894   5.710   7.465   3.987 -0.1337 -0.5618 -0.5284
  507MOL0     C69895   5.738   7.594   3.944 -0.4686  0.8415 -0.3519
  507MOL0     C69896   5.625   7.693   3.951 -0.5403 -0.5088 -0.3628
  507MOL0     H69897   5.954   8.036   3.949  0.0922  0.4738  0.5144
  507MOL0     H69898   6.049   8.242   3.915  0.6695 -0.0387 -0.3544
  507MOL0     H69899   6.312   8.301   3.561  3.7317 -1.0362  0.2378
  507MOL0     H69900   6.431   8.263   3.666  0.0580 -0.0093 -0.2988
  507MOL0     H69901   6.404   8.524   3.754 -0.8884  1.2033  0.4619
  507MOL0     H69902   6.477   8.499   3.591  0.2430  4.3820  0.5978
  507MOL0     H69903   6.189   8.558   3.674  0.4713 -1.7777  0.1438
  507MOL0     H69904   6.299   8.683   3.619 -1.6572  2.0648 -4.1219
  507MOL0     H69905   6.289   8.605   3.387 -3.4142  2.8979 -1.4374
  507MOL0     H69906   6.223   8.446   3.429  1.9695 -0.3709 -0.1649
  507MOL0     H69907   6.085   8.717   3.458  2.1500  0.6542 -1.4556
  507MOL0     H69908   6.014   8.567   3.508 -1.6966  3.5968  0.3505
  507MOL0     H69909   6.108   8.677   3.242 -1.6334  1.1119 -1.2936
  507MOL0     H69910   6.032   8.510   3.256  2.3117 -0.1386  0.7585
  507MOL0     H69911   5.898   8.688   3.161  1.2239  1.7124 -0.3608
  507MOL0     H69912   5.903   8.784   3.308  2.0240 -1.1422  0.2070
  507MOL0     H69913   5.813   8.500   3.270 -0.5745  0.3438 -0.7220
  507MOL0     H69914   5.836   8.563   3.434 -0.9102  4.4581  1.5550
  507MOL0     H69915   5.657   8.849   3.306  0.3506  0.3333 -0.0703
  507MOL0     H69916   5.347   8.879   3.332  2.7821  1.7517  0.3215
  507MOL0     H69917   5.288   8.797   3.187 -0.5338  0.5215  0.7228
  507MOL0     H69918   5.549   8.952   3.170  0.2561 -3.5019  0.8026
  507MOL0     H69919   5.467   8.873   3.044  2.4976  0.1486 -0.5747
  507MOL0     H69920   5.265   9.048   3.103  0.6548 -0.1617  0.3624
  507MOL0     H69921   5.377   9.113   3.221 -1.0418  0.3851 -0.4495
  507MOL0     H69922   5.425   9.108   2.909  3.1027  0.2833 -1.5508
  507MOL0     H69923   5.384   9.244   3.012  0.7013 -0.3428  2.0659
  507MOL0     H69924   5.505   9.302   2.816  1.4925 -0.0217 -5.5427
  507MOL0     H69925   5.599   9.614   2.697  0.9268 -0.1251  1.5044
  507MOL0     H69926   5.495   9.476   2.667 -0.4729  1.8211  0.2095
  507MOL0     H69927   5.660   9.493   2.589 -1.6822  3.5762 -1.9036
  507MOL0     H69928   6.027   9.697   2.559  0.2151  2.9084  0.2257
  507MOL0     H69929   6.230   9.847   2.488  0.4180 -0.9889 -0.3512
  507MOL0     H69930   6.467   9.810   2.406 -2.3829  2.0707 -1.2952
  507MOL0     H69931   6.429   9.969   2.479 -0.4703 -0.6144  1.7618
  507MOL0     H69932   6.696   9.824   2.435  0.6765 -0.3541  0.6764
  507MOL0     H69933   6.637   9.960   2.345  0.1924  3.4078  1.8594
  507MOL0     H69934   6.702   9.991   2.652  1.6296  0.2839  0.9376
  507MOL0     H69935   6.646  10.112   2.548 -0.7458 -1.5354 -0.3676
  507MOL0     H69936   6.848  10.138   2.442  0.0667 -0.5659 -0.6094
  507MOL0     H69937   6.904   9.977   2.460  0.8339  0.0591  0.4568
  507MOL0     H69938   6.926  10.029   2.718  0.4534  1.8351  1.3029
  507MOL0     H69939   7.036  10.107   2.614  0.6420  0.7279  0.9806
  507MOL0     H69940   6.785  10.211   2.762  0.2667  2.7351  0.7724
  507MOL0     H69941   6.828  10.296   2.627 -3.5017 -2.1612  0.3358
  507MOL0     H69942   7.076  10.322   2.736  0.2892 -0.6681 -0.6153
  507MOL0     H69943   7.003  10.247   2.879  0.7919  0.5895  0.6433
  507MOL0     H69944   6.922  10.515   2.756 -1.4918  0.0987 -1.1753
  507MOL0     H69945   7.007  10.473   2.905 -2.1482 -0.2593  1.2515
  507MOL0     H69946   6.430   9.736   2.827  0.9679  0.0039 -1.8677
  507MOL0     H69947   6.263   9.565   2.890 -0.3955 -0.1029 -0.4673
  507MOL0     H69948   5.943   9.423   3.011 -1.1822  3.4233  0.2690
  507MOL0     H69949   5.806   9.245   3.112 -2.6414  0.0801  0.5333
  507MOL0     H69950   6.326   8.073   3.628  1.6915 -0.8289  2.2923
  507MOL0     H69951   6.207   7.857   3.654  2.9021 -0.0313  0.4263
  507MOL0     H69952   6.053   7.542   3.835 -0.2836 -0.0497 -1.6482
  507MOL0     H69953   6.022   7.342   3.939 -0.6351 -0.2423 -0.7241
  507MOL0     H69954   5.627   7.296   4.177  0.8825  0.7865  1.0999
  507MOL0     H69955   5.642   7.125   4.127  2.2071 -2.5017  1.6603
  507MOL0     H69956   5.829   7.263   4.322 -1.0739  1.3387 -1.0353
  507MOL0     H69957   5.821   7.091   4.265  0.9880  0.6181 -3.9561
  507MOL0     H69958   5.619   7.259   4.440  1.6716 -0.2654 -0.9366
  507MOL0     H69959   5.555   7.118   4.355  0.5480 -1.8619 -1.2241
  507MOL0     H69960   5.791   7.110   4.537  0.1122 -0.5013 -1.1738
  507MOL0     H69961   5.729   6.968   4.438  0.8942 -1.2367  1.8675
  507MOL0     H69962   5.440   7.057   4.774 -1.6002 -2.9049  0.5562
  507MOL0     H69963   5.609   7.441   4.018  0.6875 -3.3707  0.2630
  507MOL0     H69964   5.530   7.657   3.994 -1.8118  1.1280 -1.6708
  507MOL0     H69965   5.663   7.770   4.018  0.5682 -0.1208 -1.4246
  507MOL0     H69966   5.601   7.739   3.855 -0.7334  2.2482  0.9135
  508MOL0     O69967   2.289  10.370   1.281 -0.6689 -0.1653  0.5264
  508MOL0     C69968   2.391  10.425   1.227  0.1977 -0.0171 -0.6441
  508MOL0     O69969   2.413  10.413   1.094 -0.2340 -0.0604  0.3884
  508MOL0     C69970   2.363  10.311   1.018  0.6521 -0.1226  0.3504
  508MOL0     C69971   2.380  10.334   0.881  0.1591 -0.1615 -0.5508
  508MOL0     C69972   2.327  10.248   0.786 -0.1204 -1.4529 -0.4591
  508MOL0     C69973   2.259  10.136   0.822  0.2870  0.2667 -0.0440
  508MOL0     O69974   2.210  10.031   0.739  0.1301  0.6142  0.7704
  508MOL0     C69975   2.193  10.074   0.602 -0.4455 -1.3045 -0.0563
  508MOL0     C69976   2.106   9.986   0.514  0.3505  0.3959  0.2790
  508MOL0     C69977   2.172   9.852   0.481  0.2597 -0.1023 -0.6975
  508MOL0     C69978   2.107   9.788   0.354 -0.1768 -0.2043  0.4403
  508MOL0     C69979   2.170   9.651   0.331 -0.0230  0.2550 -0.2802
  508MOL0     C69980   2.098   9.589   0.211  0.9476  0.2867  0.2046
  508MOL0     C69981   2.195   9.479   0.155 -0.3398  0.6226 -0.0788
  508MOL0     C69982   2.157   9.438   0.017  0.1670  0.2405  0.5042
  508MOL0     N69983   2.250   9.343  -0.047  0.5643 -0.3520  0.5139
  508MOL0     C69984   2.217   9.277  -0.158  0.7073  0.4846  0.5058
  508MOL0     C69985   2.335   9.208  -0.190  0.2500  0.5740  0.6744
  508MOL0     C69986   2.348   9.116  -0.314 -0.5266  0.5714  0.2798
  508MOL0     C69987   2.289   8.976  -0.292  0.3886 -0.1579  0.4057
  508MOL0     C69988   2.333   8.893  -0.169  0.0081  0.0237 -0.5947
  508MOL0     C69989   2.488   8.861  -0.170  0.0996 -1.1312  0.0578
  508MOL0     O69990   2.530   8.798  -0.291  0.0385 -0.1291  0.4172
  508MOL0     C69991   2.656   8.749  -0.275 -0.7401 -0.3604  0.0035
  508MOL0     C69992   2.675   8.644  -0.189 -0.7783 -0.7951  1.1842
  508MOL0     C69993   2.805   8.604  -0.154  0.1387 -0.1778 -0.8542
  508MOL0     C69994   2.813   8.472  -0.071 -0.4272 -0.1022 -0.9581
  508MOL0     C69995   2.919   8.665  -0.202  0.7759 -0.2583 -0.5381
  508MOL0     C69996   3.060   8.631  -0.148 -0.0712  0.0309  0.4098
  508MOL0     O69997   3.162   8.698  -0.205 -0.2177  0.2406 -1.2797
  508MOL0     C69998   3.291   8.671  -0.163  0.0756  0.2633 -0.9838
  508MOL0     C69999   3.347   8.545  -0.174  0.7021  0.3836 -0.7636
  508MOL0     C70000   3.479   8.517  -0.145  0.6915  0.5248 -0.2394
  508MOL0     C70001   3.566   8.618  -0.104  0.1352 -0.2607  0.3990
  508MOL0     O70002   3.699   8.592  -0.077  0.2554 -0.6199  0.4137
  508MOL0     C70003   3.757   8.657   0.036  0.1786 -0.8586  0.0693
  508MOL0     C70004   3.867   8.567   0.098  0.4363 -0.1958  0.2417
  508MOL0     C70005   4.004   8.593   0.040  0.2597  0.6903 -0.4727
  508MOL0     C70006   4.117   8.511   0.111  0.4564  0.6236  0.1195
  508MOL0     C70007   4.260   8.526   0.071 -0.0985 -0.3922 -0.1478
  508MOL0     C70008   4.349   8.454   0.175 -0.4215 -0.1091 -0.8057
  508MOL0     C70009   4.355   8.304   0.161 -0.4595  0.6661 -0.4812
  508MOL0     C70010   4.475   8.241   0.223  0.3121 -0.2960 -0.3759
  508MOL0    Cl70011   4.451   8.062   0.228  0.7654  0.2105  0.1082
  508MOL0     C70012   3.511   8.747  -0.078  0.4655  0.3817  0.7345
  508MOL0     C70013   3.374   8.769  -0.112  0.7322 -0.8920  0.2996
  508MOL0     O70014   3.074   8.549  -0.051 -0.0991 -0.1762  0.5567
  508MOL0     C70015   2.903   8.768  -0.297 -0.5240  0.5010 -0.3084
  508MOL0     C70016   2.774   8.800  -0.343  0.5163  0.4114  0.6286
  508MOL0     N70017   2.432   9.240  -0.098 -0.3168  0.8727 -0.2499
  508MOL0     N70018   2.380   9.315  -0.012  0.4518 -0.1211  0.1548
  508MOL0     C70019   2.253  10.105   0.960  0.2011  0.8012  1.0883
  508MOL0     C70020   2.308  10.186   1.056  0.5227  0.2079 -0.6950
  508MOL0     C70021   2.488  10.506   1.308 -0.1600  0.7325  0.5666
  508MOL0     C70022   2.558  10.597   1.234  0.1031  0.3258  0.5716
  508MOL0     C70023   2.652  10.678   1.292  0.3307 -0.7787  0.8024
  508MOL0     C70024   2.666  10.690   1.427 -0.2788 -1.0727  0.6904
  508MOL0     O70025   2.739  10.799   1.464 -0.1338 -0.8421 -0.5299
  508MOL0     C70026   2.686  10.885   1.568  0.2125  0.6683  0.7585
  508MOL0     C70027   2.797  10.965   1.626  0.0682 -0.2622 -1.0356
  508MOL0     C70028   2.781  11.048   1.753 -0.2609  1.1647  0.3869
  508MOL0     C70029   2.927  11.067   1.796  0.6475 -0.6366 -0.4709
  508MOL0     C70030   2.933  11.167   1.903  0.6139 -0.2788 -0.3888
  508MOL0     C70031   2.920  11.255   1.986  0.1311 -0.5650 -0.3817
  508MOL0     C70032   2.589  10.607   1.505 -0.3147 -0.7638  0.0322
  508MOL0     C70033   2.502  10.508   1.450 -0.1011 -0.0309 -0.2415
  508MOL0     C70034   2.429  10.419   1.550  1.5612  0.3929 -0.2015
  508MOL0     H70035   2.425  10.427   0.849 -1.8670  0.7091 -1.0130
  508MOL0     H70036   2.335  10.278   0.682  1.0062  0.3140  0.0811
  508MOL0     H70037   2.290  10.092   0.556 -0.4451  1.3901  0.8198
  508MOL0     H70038   2.138  10.169   0.608  0.8335 -0.6237  1.6093
  508MOL0     H70039   2.014   9.976   0.573  0.5591  0.3964  0.6136
  508MOL0     H70040   2.082  10.034   0.419 -0.6257 -3.3775 -1.5676
  508MOL0     H70041   2.280   9.862   0.466  0.9740 -3.3312  1.3773
  508MOL0     H70042   2.165   9.783   0.565  1.4553  0.3395 -0.2059
  508MOL0     H70043   1.998   9.778   0.367 -0.4264  1.1728 -0.3621
  508MOL0     H70044   2.114   9.850   0.264 -1.8203 -2.0824 -1.0947
  508MOL0     H70045   2.153   9.600   0.427  0.4440  0.1342 -0.2617
  508MOL0     H70046   2.278   9.663   0.318  0.6955 -2.8914  1.7375
  508MOL0     H70047   1.998   9.556   0.240  1.1053 -0.5672 -0.1905
  508MOL0     H70048   2.075   9.668   0.138  0.0587  0.1907  0.3793
  508MOL0     H70049   2.194   9.388   0.216 -2.2889  0.1610 -0.7090
  508MOL0     H70050   2.300   9.509   0.149 -0.3279  1.1118  1.8498
  508MOL0     H70051   2.059   9.390   0.009 -0.1736  0.8818  0.8230
  508MOL0     H70052   2.149   9.531  -0.040 -0.2558 -1.7277 -2.9509
  508MOL0     H70053   2.122   9.273  -0.211  0.8509 -1.1216  0.3052
  508MOL0     H70054   2.452   9.090  -0.332 -0.8644 -2.2029  1.6385
  508MOL0     H70055   2.308   9.157  -0.407 -1.3295 -0.7099  0.0251
  508MOL0     H70056   2.180   8.981  -0.299  0.5229  1.5566 -1.1937
  508MOL0     H70057   2.314   8.916  -0.380 -1.4958 -0.7078  0.2076
  508MOL0     H70058   2.315   8.934  -0.070 -1.3159 -2.1029  0.1382
  508MOL0     H70059   2.269   8.803  -0.172 -0.1721  0.1604 -0.9203
  508MOL0     H70060   2.546   8.953  -0.155  0.8401 -1.8837  2.3012
  508MOL0     H70061   2.515   8.811  -0.077 -1.1355 -0.9763  0.5117
  508MOL0     H70062   2.590   8.600  -0.137 -0.6365 -2.6491 -0.0561
  508MOL0     H70063   2.902   8.413  -0.094  1.9619  2.9682 -0.2356
  508MOL0     H70064   2.723   8.411  -0.085 -1.6541  1.6108 -0.9296
  508MOL0     H70065   2.818   8.481   0.038  3.7904  0.6515 -1.0649
  508MOL0     H70066   3.288   8.457  -0.199  2.5581 -1.2216  0.2180
  508MOL0     H70067   3.518   8.419  -0.172  0.4498  0.2075  0.5253
  508MOL0     H70068   3.794   8.751  -0.006 -3.8115  0.5243 -0.7831
  508MOL0     H70069   3.676   8.674   0.107  1.3832 -0.7891  1.4649
  508MOL0     H70070   3.860   8.584   0.205 -0.5803 -0.4724  0.2399
  508MOL0     H70071   3.824   8.468   0.078 -1.4411  0.8518 -1.3177
  508MOL0     H70072   4.030   8.695   0.070  4.2279 -1.0535  3.0576
  508MOL0     H70073   4.002   8.575  -0.068  4.0654  2.0653 -0.9234
  508MOL0     H70074   4.087   8.406   0.110 -0.2616  0.8222  0.0345
  508MOL0     H70075   4.119   8.546   0.215 -1.7085  3.3796 -0.6510
  508MOL0     H70076   4.277   8.500  -0.034  0.7271 -0.8795  0.0971
  508MOL0     H70077   4.283   8.632   0.078  0.6569 -0.6737  2.6951
  508MOL0     H70078   4.313   8.465   0.278 -1.4847 -2.1128 -0.9124
  508MOL0     H70079   4.446   8.503   0.169 -0.7184  1.2725  3.0041
  508MOL0     H70080   4.353   8.274   0.056  2.2218 -1.3950 -0.0449
  508MOL0     H70081   4.268   8.259   0.210  0.1430  0.3802  0.3490
  508MOL0     H70082   4.484   8.272   0.328  0.6413 -2.1889  0.1981
  508MOL0     H70083   4.563   8.272   0.165 -0.9509 -1.7983 -3.2615
  508MOL0     H70084   3.575   8.825  -0.038 -1.1362  1.5217  1.1494
  508MOL0     H70085   3.340   8.872  -0.111  0.1135 -0.9778 -2.6167
  508MOL0     H70086   2.993   8.813  -0.336 -0.7384  0.9539 -0.3010
  508MOL0     H70087   2.770   8.877  -0.419 -4.6657 -0.8103 -0.7327
  508MOL0     H70088   2.214  10.008   0.988 -0.8465 -0.7064 -4.2802
  508MOL0     H70089   2.312  10.141   1.155 -1.0288 -2.6279 -1.7858
  508MOL0     H70090   2.576  10.595   1.127  3.3391  2.9785  0.9215
  508MOL0     H70091   2.713  10.741   1.227  1.1819 -0.1665  2.1616
  508MOL0     H70092   2.602  10.946   1.533 -0.3850 -0.9468 -0.7208
  508MOL0     H70093   2.642  10.833   1.654 -3.9016  0.5351 -1.1966
  508MOL0     H70094   2.844  11.017   1.542  1.6460 -2.9936 -1.9980
  508MOL0     H70095   2.885  10.903   1.643  1.2355  1.4723 -0.4362
  508MOL0     H70096   2.722  11.136   1.725  1.6703  1.7742 -2.1364
  508MOL0     H70097   2.733  10.993   1.834  0.6889 -0.5921 -0.2111
  508MOL0     H70098   2.977  11.114   1.711 -0.8371 -0.3934 -1.2370
  508MOL0     H70099   2.977  10.974   1.826  1.4904 -0.0114  0.1211
  508MOL0     H70100   2.907  11.334   2.056 -3.0506 -1.9193  0.7664
  508MOL0     H70101   2.606  10.624   1.611 -1.3465  1.8379 -0.1557
  508MOL0     H70102   2.341  10.463   1.597 -0.2099 -3.5000  0.5276
  508MOL0     H70103   2.396  10.322   1.510 -0.6678 -0.7013  3.7741
  508MOL0     H70104   2.502  10.407   1.630  0.7791 -0.2770  0.4182
  509MOL0     O70105   3.611  10.214  10.608 -0.1406 -0.1306 -0.3385
  509MOL0     C70106   3.569  10.197  10.721 -1.2803 -0.1409 -0.3796
  509MOL0     O70107   3.628  10.248  10.835  0.4709  0.4291  0.1740
  509MOL0     C70108   3.754  10.301  10.827  0.0065  0.6780  0.2430
  509MOL0     C70109   3.869  10.218  10.847  0.8116 -0.3142  0.2243
  509MOL0     C70110   3.993  10.281  10.837 -0.1559  1.3498 -0.5841
  509MOL0     C70111   4.011  10.411  10.796  0.5445 -0.4412  0.5601
  509MOL0     O70112   4.133  10.455  10.765 -0.3421  0.5353  0.2568
  509MOL0     C70113   4.143  10.543  10.650  0.8681 -0.1775  0.3800
  509MOL0     C70114   4.285  10.551  10.596  0.2307  0.1659 -0.1997
  509MOL0     C70115   4.375  10.630  10.688 -0.2078 -0.3615  0.7148
  509MOL0     C70116   4.376  10.782  10.652 -0.3279  0.1565  0.1374
  509MOL0     C70117   4.452  10.867  10.757 -0.6280 -0.3102  0.0420
  509MOL0     C70118   4.426  11.018  10.725 -0.2165 -0.5798 -0.5439
  509MOL0     C70119   4.281  11.062  10.709 -0.1133 -0.0656  0.1782
  509MOL0     C70120   4.184  11.026  10.824  0.0598  0.2259 -0.0564
  509MOL0     N70121   4.211  11.086  10.953  0.1658 -0.5493 -0.4142
  509MOL0     C70122   4.208  11.227  10.969 -0.3840 -0.3780  0.3246
  509MOL0     C70123   4.264  11.249  11.091  0.4537 -0.6271  0.5836
  509MOL0     C70124   4.288  11.386  11.149 -0.3579 -1.2730  0.2183
  509MOL0     C70125   4.349  11.501  11.049 -0.5530 -0.3662 -0.1855
  509MOL0     C70126   4.500  11.475  11.002 -0.9666  0.0223  0.2856
  509MOL0     C70127   4.545  11.343  10.935 -0.3857  0.9368 -0.0538
  509MOL0     O70128   4.523  11.338  10.797  0.1731  0.1131  0.4305
  509MOL0     C70129   4.605  11.401  10.705 -0.7811 -0.2710  0.3583
  509MOL0     C70130   4.549  11.413  10.579  0.1422  0.2316 -0.2583
  509MOL0     C70131   4.611  11.477  10.468 -0.1224 -0.2085 -0.2837
  509MOL0     C70132   4.533  11.491  10.346 -0.3070 -0.4412  0.1668
  509MOL0     C70133   4.745  11.525  10.488 -0.3411 -0.3607  0.1480
  509MOL0     C70134   4.828  11.581  10.386 -0.8472  1.1090  0.3625
  509MOL0     O70135   4.804  11.545  10.250  0.0079  0.0149 -0.5395
  509MOL0     C70136   4.870  11.619  10.152  0.8935 -0.1789 -0.8523
  509MOL0     C70137   4.958  11.547  10.077  0.1679  0.2329 -0.1300
  509MOL0     C70138   5.028  11.619   9.982 -0.4013  0.0522  0.2480
  509MOL0     C70139   5.013  11.753   9.958 -0.1317 -0.2924 -0.4475
  509MOL0     O70140   5.079  11.823   9.866 -0.0347 -0.1565  0.3618
  509MOL0     C70141   5.219  11.804   9.844 -0.0283 -0.0086 -0.3955
  509MOL0     C70142   5.277  11.953   9.838 -0.0198  0.5144 -0.3823
  509MOL0     C70143   5.233  12.034   9.719  0.3721  0.2214  0.0748
  509MOL0     C70144   5.289  11.963   9.587  0.6730 -0.1574 -0.1794
  509MOL0     C70145   5.239  12.033   9.455 -0.6071 -0.3091  0.5883
  509MOL0     C70146   5.287  11.960   9.328  0.4956 -0.5610  0.2930
  509MOL0     C70147   5.233  12.019   9.193  0.7771  0.6077  0.5091
  509MOL0     C70148   5.308  11.964   9.069  0.1880  0.0151 -0.5848
  509MOL0    Cl70149   5.223  11.978   8.912 -0.4397 -0.1261 -0.1442
  509MOL0     C70150   4.923  11.824  10.032  0.8363 -0.1932  0.9689
  509MOL0     C70151   4.852  11.755  10.136 -0.6318  0.3414 -0.5850
  509MOL0     O70152   4.923  11.652  10.420 -0.1694  0.0303  0.6841
  509MOL0     C70153   4.798  11.526  10.619 -0.1739  0.1637  0.3551
  509MOL0     C70154   4.733  11.460  10.721  0.1227  0.1364 -0.9212
  509MOL0     N70155   4.303  11.134  11.143  0.1635  0.3293 -0.9308
  509MOL0     N70156   4.268  11.035  11.067  0.4338 -0.2196  0.9988
  509MOL0     C70157   3.889  10.482  10.767 -0.1174  0.3534  0.1413
  509MOL0     C70158   3.765  10.433  10.793 -0.1088  0.4706  0.2909
  509MOL0     C70159   3.438  10.120  10.713  0.8891  0.0057 -0.5040
  509MOL0     C70160   3.328  10.188  10.743  0.2849 -0.1703  0.6909
  509MOL0     C70161   3.198  10.134  10.726 -0.0486 -0.9152 -0.4183
  509MOL0     C70162   3.173  10.013  10.670 -0.4188 -0.1626  1.0332
  509MOL0     O70163   3.046   9.968  10.645 -0.3505 -0.0299  0.5763
  509MOL0     C70164   2.997   9.958  10.517  0.7388 -0.2037  1.5467
  509MOL0     C70165   2.868  10.033  10.491  0.1690  0.3022  0.6887
  509MOL0     C70166   2.746   9.959  10.551 -0.2592 -0.7183 -0.1606
  509MOL0     C70167   2.750   9.947  10.704  0.1064 -0.3393  0.4066
  509MOL0     C70168   2.627   9.880  10.752  0.1285 -0.9961 -0.9742
  509MOL0     C70169   2.525   9.839  10.807 -0.2843 -0.0513  0.1170
  509MOL0     C70170   3.288   9.937  10.637 -0.1377  0.2072  0.5178
  509MOL0     C70171   3.417   9.983  10.662 -0.0627 -0.0259  0.6329
  509MOL0     C70172   3.537   9.893  10.642 -0.0309 -0.6408 -0.2892
  509MOL0     H70173   3.860  10.113  10.875 -0.1561  0.2877  2.3163
  509MOL0     H70174   4.092  10.239  10.857 -0.2066  1.2316 -0.5827
  509MOL0     H70175   4.114  10.646  10.670 -2.4596 -0.7760 -0.6528
  509MOL0     H70176   4.078  10.501  10.573  0.1722  0.9101  0.3602
  509MOL0     H70177   4.328  10.456  10.563 -2.0327 -2.2242  3.1181
  509MOL0     H70178   4.270  10.613  10.507  0.6299 -0.3350 -0.6267
  509MOL0     H70179   4.338  10.616  10.790 -0.2901 -4.2210  0.3069
  509MOL0     H70180   4.479  10.594  10.685 -0.1153 -0.2956  2.3742
  509MOL0     H70181   4.418  10.791  10.552  1.7232  0.8869  1.0135
  509MOL0     H70182   4.270  10.808  10.660  0.1332  2.1268  0.4424
  509MOL0     H70183   4.561  10.853  10.754 -0.4324  1.1638 -2.0188
  509MOL0     H70184   4.416  10.842  10.857  1.5965 -2.6442  0.3763
  509MOL0     H70185   4.462  11.070  10.814  2.4955  0.8788 -2.3772
  509MOL0     H70186   4.486  11.054  10.641  0.2707 -1.3619 -0.5418
  509MOL0     H70187   4.247  11.001  10.625  0.9055  0.1204 -0.3836
  509MOL0     H70188   4.282  11.168  10.682  2.2744 -0.4681 -1.6342
  509MOL0     H70189   4.080  11.049  10.798 -0.8671 -0.2447  2.8545
  509MOL0     H70190   4.171  10.918  10.838 -1.7008  0.1430 -1.8568
  509MOL0     H70191   4.160  11.294  10.898  1.2968  1.6859  1.0264
  509MOL0     H70192   4.357  11.368  11.231 -2.9303 -3.4564  2.0675
  509MOL0     H70193   4.199  11.417  11.206  1.0273 -0.0328  1.8080
  509MOL0     H70194   4.283  11.521  10.963 -1.3741  0.1508  0.5506
  509MOL0     H70195   4.352  11.596  11.103 -0.7082 -0.8355  0.6489
  509MOL0     H70196   4.526  11.554  10.930 -0.5883  1.1648  1.6405
  509MOL0     H70197   4.563  11.491  11.089  1.2934 -2.9460 -0.6254
  509MOL0     H70198   4.650  11.321  10.954 -0.4780  0.4525 -0.0852
  509MOL0     H70199   4.487  11.264  10.983  0.2662  0.2204 -0.4401
  509MOL0     H70200   4.445  11.386  10.561  0.8179 -1.3415 -2.0141
  509MOL0     H70201   4.530  11.590  10.301  0.7147 -0.6227 -0.3319
  509MOL0     H70202   4.428  11.472  10.368 -0.7927 -0.3412 -1.9107
  509MOL0     H70203   4.559  11.415  10.272 -0.0253  2.5083 -3.0015
  509MOL0     H70204   4.979  11.442  10.092  3.2048  0.7851 -0.0295
  509MOL0     H70205   5.103  11.576   9.917 -1.0811 -1.4515  0.4180
  509MOL0     H70206   5.267  11.747   9.924  1.1419 -1.9670 -2.3896
  509MOL0     H70207   5.232  11.747   9.752 -2.8231 -1.0667 -0.2314
  509MOL0     H70208   5.246  12.008   9.927  0.8155 -0.4266  0.5179
  509MOL0     H70209   5.385  11.937   9.830 -0.3217 -0.6061 -3.9780
  509MOL0     H70210   5.281  12.132   9.719  4.0015 -1.3724 -0.0706
  509MOL0     H70211   5.126  12.042   9.700  0.5135  0.0054 -0.8636
  509MOL0     H70212   5.258  11.859   9.575 -3.1277  0.9633 -1.4675
  509MOL0     H70213   5.398  11.961   9.585  0.7568  1.6603  0.6493
  509MOL0     H70214   5.131  12.048   9.453 -0.2354  2.8775 -0.9802
  509MOL0     H70215   5.275  12.136   9.455  0.5415 -0.6471 -1.6579
  509MOL0     H70216   5.240  11.862   9.342 -0.1950 -0.2780  0.0403
  509MOL0     H70217   5.396  11.953   9.324  0.5688 -0.7696  1.8679
  509MOL0     H70218   5.216  12.126   9.204 -4.2941  0.5069 -2.7235
  509MOL0     H70219   5.135  11.971   9.185  2.0138 -1.9799 -0.4691
  509MOL0     H70220   5.337  11.859   9.079  3.9126  1.0040  0.9358
  509MOL0     H70221   5.401  12.021   9.083  0.0667  0.0798  0.0020
  509MOL0     H70222   4.899  11.929  10.028  2.3332  0.2491  2.5085
  509MOL0     H70223   4.778  11.801  10.201 -0.5889  0.0124 -0.2967
  509MOL0     H70224   4.894  11.572  10.641 -0.2062  1.9102 -2.7473
  509MOL0     H70225   4.779  11.465  10.819 -0.0942  1.3604 -0.8645
  509MOL0     H70226   3.889  10.586  10.734 -0.5362 -0.3624 -2.3433
  509MOL0     H70227   3.679  10.499  10.786  0.1963  1.1837  2.4320
  509MOL0     H70228   3.321  10.292  10.773 -3.0955  0.5518 -2.0451
  509MOL0     H70229   3.113  10.193  10.760  1.0325  0.1254  0.5321
  509MOL0     H70230   3.072  10.003  10.453  0.1121  3.8610  3.3237
  509MOL0     H70231   2.982   9.853  10.489 -2.2545  1.0602 -2.5543
  509MOL0     H70232   2.853  10.058  10.385  0.8008  2.4525  1.0515
  509MOL0     H70233   2.893  10.132  10.532  2.2010 -0.0686  0.4491
  509MOL0     H70234   2.660  10.006  10.501  0.4547  1.5017  0.5781
  509MOL0     H70235   2.745   9.855  10.517 -1.9706 -0.9687  0.5608
  509MOL0     H70236   2.751  10.048  10.747 -3.0527  0.1026 -0.2809
  509MOL0     H70237   2.837   9.891  10.740  1.0457 -0.5724 -2.0415
  509MOL0     H70238   2.435   9.805  10.854  0.4862 -3.4821 -0.5503
  509MOL0     H70239   3.280   9.831  10.618  0.8190 -0.3386  2.7867
  509MOL0     H70240   3.530   9.791  10.604 -1.0645 -0.7663  0.2068
  509MOL0     H70241   3.605   9.947  10.575 -0.7047  0.2320 -0.3017
  509MOL0     H70242   3.580   9.887  10.742 -2.2359 -3.5072  0.6123
  510MOL0     O70243   2.068   8.999   2.148  0.0256 -0.2949 -0.2575
  510MOL0     C70244   1.951   9.039   2.169 -1.1650 -0.2238 -0.0785
  510MOL0     O70245   1.883   9.021   2.288 -0.0534  0.6645 -0.2031
  510MOL0     C70246   1.906   8.908   2.361  0.3399 -0.4438 -0.0165
  510MOL0     C70247   1.943   8.782   2.317  0.4217 -0.4641 -0.4068
  510MOL0     C70248   1.966   8.688   2.408 -0.5565  0.4069 -0.6223
  510MOL0     C70249   1.952   8.701   2.546  0.1271 -0.1644 -0.5803
  510MOL0     O70250   1.978   8.601   2.633  0.1029 -0.3637  0.2239
  510MOL0     C70251   1.910   8.614   2.761 -0.3075 -0.4695 -0.3142
  510MOL0     C70252   1.880   8.473   2.806 -0.2613  0.4314 -0.1216
  510MOL0     C70253   2.004   8.390   2.824  0.1628  0.0491 -0.1788
  510MOL0     C70254   1.970   8.250   2.858 -0.0095 -0.3380 -0.0863
  510MOL0     C70255   2.097   8.168   2.861 -0.4898 -0.5466 -0.1888
  510MOL0     C70256   2.063   8.018   2.889  0.7007 -0.2200  0.6027
  510MOL0     C70257   2.154   7.919   2.815  0.1369 -0.0200 -0.5510
  510MOL0     C70258   2.090   7.774   2.822  0.9140 -0.9729 -0.9609
  510MOL0     N70259   2.183   7.691   2.754 -0.8181  0.0071  0.2667
  510MOL0     C70260   2.192   7.652   2.616 -0.1643  0.7302 -0.5710
  510MOL0     C70261   2.304   7.562   2.610 -0.1054  0.9141  0.6373
  510MOL0     C70262   2.361   7.497   2.472  0.2895  0.5761  0.7157
  510MOL0     C70263   2.469   7.390   2.498  0.8886 -0.1009 -0.0222
  510MOL0     C70264   2.533   7.338   2.374  0.7172  0.3032 -0.4645
  510MOL0     C70265   2.654   7.241   2.400  0.2812  0.5596  0.3673
  510MOL0     O70266   2.751   7.304   2.480  0.2884  0.0821 -0.1380
  510MOL0     C70267   2.862   7.376   2.428  0.3418 -0.3435 -0.2311
  510MOL0     C70268   2.877   7.409   2.293 -0.3703 -0.7082  0.3938
  510MOL0     C70269   2.999   7.476   2.251  0.7434 -0.7428 -0.4115
  510MOL0     C70270   3.013   7.478   2.100  0.5390  0.1501 -0.6706
  510MOL0     C70271   3.095   7.527   2.350 -0.0110  0.2197  0.4344
  510MOL0     C70272   3.211   7.610   2.310  0.1256 -0.4180  0.3544
  510MOL0     O70273   3.265   7.684   2.409  0.1847 -0.5992 -0.9000
  510MOL0     C70274   3.391   7.726   2.390 -0.2559  0.4762  0.5209
  510MOL0     C70275   3.488   7.673   2.470 -0.1099  0.0925  0.1189
  510MOL0     C70276   3.615   7.725   2.479  1.3623 -0.8965 -0.5555
  510MOL0     C70277   3.654   7.831   2.390  0.6633  0.1925 -0.5994
  510MOL0     O70278   3.787   7.880   2.402 -0.0931  0.6736 -0.6242
  510MOL0     C70279   3.814   8.025   2.392  1.0188 -0.3139 -0.6719
  510MOL0     C70280   3.961   8.070   2.433  1.1416 -0.9427  0.5947
  510MOL0     C70281   4.016   7.966   2.528 -0.3827  0.4768  0.2375
  510MOL0     C70282   4.121   7.880   2.459 -0.5704  0.2082 -0.2110
  510MOL0     C70283   4.220   7.816   2.562 -0.0470 -0.0312  0.0760
  510MOL0     C70284   4.367   7.865   2.536 -0.1414  0.5546 -0.6849
  510MOL0     C70285   4.467   7.847   2.656  0.0357 -0.0708 -0.0245
  510MOL0     C70286   4.606   7.914   2.628 -0.4959 -0.0745  0.4149
  510MOL0    Cl70287   4.695   7.834   2.496 -0.1463  0.3614 -0.1885
  510MOL0     C70288   3.554   7.883   2.303 -0.4888  0.3344 -0.3414
  510MOL0     C70289   3.424   7.832   2.310 -1.0616 -0.4181  1.3176
  510MOL0     O70290   3.258   7.603   2.195 -0.4446 -0.6569 -0.4153
  510MOL0     C70291   3.065   7.491   2.484 -0.1048 -0.9847 -0.2741
  510MOL0     C70292   2.944   7.424   2.526 -0.9271  0.2148  1.0083
  510MOL0     N70293   2.349   7.548   2.744  0.3635 -0.3914 -0.8349
  510MOL0     N70294   2.284   7.625   2.819  0.2598 -0.0009  0.9959
  510MOL0     C70295   1.922   8.834   2.593  0.0606 -0.7881  0.0227
  510MOL0     C70296   1.902   8.931   2.493 -0.4164 -0.1632 -0.5684
  510MOL0     C70297   1.899   9.143   2.075 -0.7261  0.2709 -0.3338
  510MOL0     C70298   1.795   9.227   2.130  0.7376 -0.1500  0.3328
  510MOL0     C70299   1.733   9.332   2.052 -0.1050  0.7974 -0.5382
  510MOL0     C70300   1.775   9.360   1.923  0.6786  0.2998  0.7372
  510MOL0     O70301   1.728   9.464   1.840  0.3887 -0.0433  0.6576
  510MOL0     C70302   1.614   9.537   1.883  0.4748 -0.1142 -0.5136
  510MOL0     C70303   1.556   9.633   1.773  0.9720 -0.5457 -0.1176
  510MOL0     C70304   1.423   9.695   1.808 -0.2490  0.3472 -0.2802
  510MOL0     C70305   1.382   9.787   1.687  0.5063  0.3868 -0.3144
  510MOL0     C70306   1.244   9.820   1.714 -0.5445  0.2253  0.5758
  510MOL0     C70307   1.133   9.842   1.738  0.6760 -0.2686 -0.3348
  510MOL0     C70308   1.869   9.278   1.864 -0.3522  0.9622 -0.0895
  510MOL0     C70309   1.927   9.172   1.942 -0.2939 -0.3184  0.1268
  510MOL0     C70310   2.023   9.094   1.857  0.0711  0.5816  0.6373
  510MOL0     H70311   1.935   8.763   2.211  0.3473 -0.8496 -0.3346
  510MOL0     H70312   1.986   8.591   2.364 -1.6860  0.1896 -0.6908
  510MOL0     H70313   1.827   8.686   2.757 -0.0610 -0.1779 -0.1505
  510MOL0     H70314   1.971   8.659   2.839 -1.4592  0.6522 -0.0121
  510MOL0     H70315   1.821   8.464   2.897 -0.8121 -0.4437 -0.5495
  510MOL0     H70316   1.817   8.422   2.731 -2.5583  2.9650 -0.0763
  510MOL0     H70317   2.063   8.402   2.732  0.0704  3.7752  0.0573
  510MOL0     H70318   2.073   8.437   2.894  3.3370  0.6970 -3.4391
  510MOL0     H70319   1.911   8.244   2.949 -0.7061 -0.6513 -0.5456
  510MOL0     H70320   1.909   8.204   2.779 -0.9786  1.4663 -0.4499
  510MOL0     H70321   2.178   8.208   2.923 -1.6541 -0.6473  1.4643
  510MOL0     H70322   2.135   8.166   2.758 -2.5711 -0.9829 -1.0007
  510MOL0     H70323   2.056   7.995   2.996  0.0023 -2.1951  0.1843
  510MOL0     H70324   1.962   7.994   2.856  1.4103 -1.3664 -0.8723
  510MOL0     H70325   2.248   7.911   2.871 -0.1812 -2.0387 -0.2234
  510MOL0     H70326   2.164   7.934   2.707  0.2558 -1.0596 -0.6939
  510MOL0     H70327   2.081   7.738   2.925 -1.6003  0.5484 -0.5442
  510MOL0     H70328   1.987   7.773   2.784  1.0440  3.0794 -1.8581
  510MOL0     H70329   2.117   7.665   2.538 -1.1033 -3.6451 -0.6566
  510MOL0     H70330   2.392   7.579   2.406  0.5393 -0.7811 -0.9148
  510MOL0     H70331   2.285   7.452   2.408 -0.1531  1.8603  0.2932
  510MOL0     H70332   2.541   7.426   2.572  0.0468 -0.5536  1.0451
  510MOL0     H70333   2.426   7.300   2.541 -0.2025  0.3744 -0.0835
  510MOL0     H70334   2.446   7.292   2.326 -0.9292  1.7061  0.9989
  510MOL0     H70335   2.564   7.430   2.324  4.1214 -1.1206 -1.2371
  510MOL0     H70336   2.626   7.150   2.455 -1.0299  0.3664 -0.5736
  510MOL0     H70337   2.697   7.211   2.305 -0.2897  0.5418  0.1082
  510MOL0     H70338   2.818   7.363   2.214  3.6172 -6.4890  0.1075
  510MOL0     H70339   3.108   7.436   2.064 -0.0352 -2.1179  0.3051
  510MOL0     H70340   3.004   7.582   2.067  2.1027  1.6468  3.0105
  510MOL0     H70341   2.932   7.425   2.050 -1.3478 -0.6977  2.9847
  510MOL0     H70342   3.458   7.600   2.544 -3.0119 -0.6867 -1.6805
  510MOL0     H70343   3.695   7.686   2.541  4.1213 -1.4303 -4.1396
  510MOL0     H70344   3.806   8.055   2.287  2.1539 -2.0841 -1.3067
  510MOL0     H70345   3.739   8.077   2.453  0.4154 -0.1722 -1.5136
  510MOL0     H70346   4.019   8.075   2.341 -1.0433 -2.9698 -0.9987
  510MOL0     H70347   3.949   8.172   2.470 -1.0394 -1.2858  0.9931
  510MOL0     H70348   3.940   7.895   2.561  1.0509 -1.9126 -1.3285
  510MOL0     H70349   4.064   8.017   2.613 -0.1050  0.3561  0.1557
  510MOL0     H70350   4.176   7.942   2.388  2.5026 -1.1805  0.7875
  510MOL0     H70351   4.072   7.800   2.404  1.5954 -1.3467  0.0003
  510MOL0     H70352   4.191   7.848   2.662  1.8358  4.3802 -0.5486
  510MOL0     H70353   4.202   7.709   2.548  0.3035 -0.2153  0.9884
  510MOL0     H70354   4.375   7.973   2.520  1.8282  0.5011 -0.3687
  510MOL0     H70355   4.409   7.818   2.446  1.4526  0.2774  0.1676
  510MOL0     H70356   4.476   7.738   2.662 -1.9356 -0.3916 -1.7494
  510MOL0     H70357   4.420   7.884   2.747  0.5853 -1.9994  1.1023
  510MOL0     H70358   4.673   7.910   2.714  1.2765 -3.3142 -0.9117
  510MOL0     H70359   4.589   8.020   2.608 -0.3965  0.0562  0.9964
  510MOL0     H70360   3.576   7.976   2.252 -2.5275 -0.5502 -3.0745
  510MOL0     H70361   3.351   7.869   2.239  1.5161  0.0852 -1.2246
  510MOL0     H70362   3.129   7.513   2.568 -0.8866 -1.1996  0.3873
  510MOL0     H70363   2.928   7.406   2.632 -0.0055  1.8671  1.4668
  510MOL0     H70364   1.912   8.857   2.698 -0.2096  1.3450 -0.4294
  510MOL0     H70365   1.880   9.028   2.535 -2.9576 -1.4267  1.3174
  510MOL0     H70366   1.764   9.217   2.234 -0.3316 -0.6087 -0.0256
  510MOL0     H70367   1.666   9.390   2.115  1.6298  3.0478 -0.6026
  510MOL0     H70368   1.541   9.456   1.890  2.1768 -2.0714 -3.1937
  510MOL0     H70369   1.624   9.595   1.975 -2.9912 -3.4333  2.3309
  510MOL0     H70370   1.544   9.577   1.680 -0.7746 -0.1004 -0.1982
  510MOL0     H70371   1.628   9.716   1.765  0.1092  0.0826 -2.4096
  510MOL0     H70372   1.348   9.616   1.816  2.0758 -2.0251 -0.2865
  510MOL0     H70373   1.441   9.756   1.897  1.2279 -0.4238 -0.0161
  510MOL0     H70374   1.400   9.741   1.589 -0.0818 -1.7828  0.5489
  510MOL0     H70375   1.441   9.879   1.691  1.5971 -0.2854 -0.2832
  510MOL0     H70376   1.031   9.846   1.770  0.6508  3.6938 -0.4091
  510MOL0     H70377   1.897   9.291   1.760  1.3777  2.2433  0.4659
  510MOL0     H70378   2.110   9.150   1.821 -2.1240  4.3005  0.6329
  510MOL0     H70379   2.064   9.004   1.904  3.2634  0.5998 -1.7284
  510MOL0     H70380   1.968   9.047   1.776 -1.1056  0.2810  1.5824
  511MOL0     O70381   5.824   1.480   6.533 -0.1988  0.4331 -0.2116
  511MOL0     C70382   5.802   1.571   6.611 -0.8978 -0.1315 -0.0015
  511MOL0     O70383   5.871   1.693   6.608 -0.2531  0.0707  0.7742
  511MOL0     C70384   5.993   1.717   6.538  0.3679 -0.5131  0.4707
  511MOL0     C70385   6.039   1.847   6.522  0.5530  0.5263 -0.9692
  511MOL0     C70386   6.159   1.870   6.461  0.0942  0.0469 -0.4089
  511MOL0     C70387   6.251   1.774   6.434 -0.2125 -0.1167  0.3380
  511MOL0     O70388   6.368   1.825   6.378  0.4320  0.6277 -0.1823
  511MOL0     C70389   6.479   1.794   6.465  0.8631  0.1529  0.5504
  511MOL0     C70390   6.571   1.702   6.386 -0.6645 -0.9462  0.7946
  511MOL0     C70391   6.652   1.759   6.271 -0.4483 -0.0151 -0.5954
  511MOL0     C70392   6.741   1.878   6.310 -0.4909 -0.2904 -0.6698
  511MOL0     C70393   6.869   1.889   6.239 -0.8504  0.0197 -0.7403
  511MOL0     C70394   6.969   1.795   6.303  0.0654  0.6532 -0.5108
  511MOL0     C70395   7.111   1.801   6.237  0.2423  0.5914  0.1743
  511MOL0     C70396   7.207   1.684   6.272 -0.7263 -0.3368 -0.5964
  511MOL0     N70397   7.293   1.679   6.401  1.1121 -0.2986 -0.1921
  511MOL0     C70398   7.337   1.798   6.462 -0.4599  0.4800  0.4611
  511MOL0     C70399   7.355   1.766   6.593  0.2202 -0.0440 -1.0762
  511MOL0     C70400   7.409   1.850   6.715 -0.0455 -0.4529  0.2534
  511MOL0     C70401   7.351   1.813   6.849  0.4391 -0.0652 -0.3472
  511MOL0     C70402   7.409   1.676   6.906  0.0767  0.1319 -0.3606
  511MOL0     C70403   7.431   1.689   7.050  0.1510  0.3824 -1.2820
  511MOL0     O70404   7.564   1.744   7.071 -0.0975 -0.5644  0.5851
  511MOL0     C70405   7.604   1.766   7.202 -0.0398  0.3266 -1.1076
  511MOL0     C70406   7.526   1.759   7.320 -0.1235 -0.0970  0.3337
  511MOL0     C70407   7.577   1.786   7.454  0.4404  0.2992  0.6051
  511MOL0     C70408   7.485   1.758   7.573  0.8671  0.2150  0.1177
  511MOL0     C70409   7.712   1.834   7.460  0.7746  0.1091  0.1508
  511MOL0     C70410   7.779   1.883   7.586 -0.6170  0.1916 -0.0672
  511MOL0     O70411   7.904   1.934   7.588  1.3023  0.2008  0.8510
  511MOL0     C70412   7.940   2.006   7.695 -0.2290  0.1625  0.0389
  511MOL0     C70413   7.868   2.114   7.738  0.3562 -1.0929 -0.2002
  511MOL0     C70414   7.909   2.206   7.837  0.7953  0.5187  0.5891
  511MOL0     C70415   8.036   2.195   7.886  0.7517 -0.6876  0.6092
  511MOL0     O70416   8.085   2.276   7.980  0.1852 -0.1758 -0.2247
  511MOL0     C70417   8.058   2.417   7.964 -0.7464 -0.3570 -0.3578
  511MOL0     C70418   8.116   2.492   8.096  0.9514 -0.1561  0.7901
  511MOL0     C70419   8.032   2.447   8.225  0.5215 -0.3091 -0.3302
  511MOL0     C70420   8.107   2.508   8.350 -0.0781 -0.3681 -0.3665
  511MOL0     C70421   8.047   2.488   8.485 -0.5704  0.7518  0.6075
  511MOL0     C70422   8.011   2.339   8.503 -0.3350  0.0880  0.5463
  511MOL0     C70423   7.933   2.314   8.640  0.4137 -0.5385 -0.4022
  511MOL0     C70424   7.790   2.369   8.643 -0.4912  0.5529  0.4148
  511MOL0    Cl70425   7.708   2.345   8.796 -0.4056 -0.3082 -0.3129
  511MOL0     C70426   8.117   2.092   7.845  0.7019  0.4045 -0.3100
  511MOL0     C70427   8.065   1.994   7.753 -0.0525  0.7046 -0.9113
  511MOL0     O70428   7.720   1.866   7.691 -0.2267 -0.9266  0.4845
  511MOL0     C70429   7.783   1.851   7.339 -0.1707 -0.4347 -0.2444
  511MOL0     C70430   7.739   1.807   7.216  1.1446 -0.2837 -0.3850
  511MOL0     N70431   7.306   1.634   6.611  0.3167 -0.4552  0.7909
  511MOL0     N70432   7.266   1.588   6.499  0.6067 -0.5464 -0.1137
  511MOL0     C70433   6.213   1.639   6.463  1.1859  0.0506 -0.3427
  511MOL0     C70434   6.083   1.616   6.517  0.0764 -0.4015  0.0675
  511MOL0     C70435   5.682   1.565   6.696  0.8082 -0.2953  0.6954
  511MOL0     C70436   5.622   1.689   6.717 -0.4048 -0.1240 -0.3582
  511MOL0     C70437   5.493   1.686   6.777  0.0373  0.1007  0.4887
  511MOL0     C70438   5.432   1.569   6.813 -0.4961  0.4161 -0.0661
  511MOL0     O70439   5.303   1.601   6.866 -0.5997  0.6831 -0.0078
  511MOL0     C70440   5.223   1.505   6.926  0.3613 -0.6920  0.2183
  511MOL0     C70441   5.254   1.486   7.076  0.5114  0.1305  0.0857
  511MOL0     C70442   5.123   1.466   7.154  0.4434  0.5043  0.2485
  511MOL0     C70443   5.136   1.346   7.257  0.6060 -0.5053  0.5225
  511MOL0     C70444   5.008   1.281   7.289 -0.5298 -0.1603  0.2781
  511MOL0     C70445   4.902   1.230   7.327  0.2781 -0.9604  0.9569
  511MOL0     C70446   5.496   1.449   6.797  0.3807 -0.3111 -0.5250
  511MOL0     C70447   5.623   1.450   6.738 -0.5259 -0.3313  0.4441
  511MOL0     C70448   5.704   1.315   6.723  1.1733 -0.2835 -0.5372
  511MOL0     H70449   5.974   1.930   6.547 -1.7918 -1.0037 -1.6641
  511MOL0     H70450   6.190   1.972   6.443 -0.8707  0.2195 -1.1618
  511MOL0     H70451   6.453   1.740   6.556 -0.2218  1.4120  1.0199
  511MOL0     H70452   6.542   1.878   6.494  2.8367 -1.0009 -0.1809
  511MOL0     H70453   6.645   1.644   6.440 -1.3704 -0.8445  1.9005
  511MOL0     H70454   6.500   1.630   6.343 -1.7307 -0.2255  1.2888
  511MOL0     H70455   6.725   1.686   6.236  1.2784  0.6593  1.3666
  511MOL0     H70456   6.585   1.775   6.186  1.8660 -0.1996 -2.5513
  511MOL0     H70457   6.689   1.971   6.285  1.0068  0.1908 -2.1202
  511MOL0     H70458   6.769   1.878   6.416 -0.9014  2.7946 -0.4510
  511MOL0     H70459   6.907   1.991   6.247  1.1044 -0.7389  0.4199
  511MOL0     H70460   6.858   1.859   6.134 -3.4209  1.7828 -1.0682
  511MOL0     H70461   6.979   1.815   6.410 -1.4515  0.4183 -0.3102
  511MOL0     H70462   6.938   1.690   6.298 -1.4947  0.9919  1.0353
  511MOL0     H70463   7.168   1.894   6.250 -0.0637  0.9327 -0.7918
  511MOL0     H70464   7.096   1.788   6.129  1.6856 -0.0062  0.0212
  511MOL0     H70465   7.149   1.594   6.251 -0.5721 -0.5283 -0.2140
  511MOL0     H70466   7.281   1.679   6.192  0.6284 -0.5952  0.6442
  511MOL0     H70467   7.361   1.893   6.414  1.8102 -1.6835 -3.1427
  511MOL0     H70468   7.379   1.950   6.683 -1.8467 -1.3092 -0.9329
  511MOL0     H70469   7.518   1.840   6.717 -0.2124 -2.6777  1.4213
  511MOL0     H70470   7.356   1.902   6.912 -3.7632  0.6083 -0.6608
  511MOL0     H70471   7.242   1.803   6.841 -0.3276  3.6051  2.6241
  511MOL0     H70472   7.328   1.605   6.888  0.4521 -0.7660  1.3014
  511MOL0     H70473   7.491   1.638   6.845  0.6942 -1.0417  1.1215
  511MOL0     H70474   7.352   1.746   7.100 -1.4953 -2.8677  0.1009
  511MOL0     H70475   7.422   1.589   7.093 -2.0100  0.6632 -0.9800
  511MOL0     H70476   7.420   1.739   7.315 -0.0591 -0.9044  1.7065
  511MOL0     H70477   7.395   1.712   7.532  0.8074 -0.5315  1.0398
  511MOL0     H70478   7.456   1.854   7.616  1.1812 -0.6170  2.3124
  511MOL0     H70479   7.533   1.688   7.642  1.3618  0.3960 -0.0378
  511MOL0     H70480   7.764   2.120   7.709 -0.1814 -1.7163  1.4605
  511MOL0     H70481   7.847   2.281   7.885  0.8443  1.7671 -1.1848
  511MOL0     H70482   8.111   2.449   7.873  0.6937 -1.0095  0.2200
  511MOL0     H70483   7.955   2.452   7.969 -1.6246 -2.9674  2.2359
  511MOL0     H70484   8.219   2.453   8.103  0.7359 -1.2206 -1.0995
  511MOL0     H70485   8.118   2.599   8.075  2.8040 -0.5873 -1.7516
  511MOL0     H70486   8.004   2.341   8.229  0.2521 -0.2222  3.6288
  511MOL0     H70487   7.933   2.493   8.223 -0.0094 -1.4219 -0.4544
  511MOL0     H70488   8.114   2.617   8.337 -3.2217  0.1483  1.3758
  511MOL0     H70489   8.212   2.478   8.346 -0.0858 -0.3086 -1.2876
  511MOL0     H70490   8.124   2.517   8.558  1.2719  0.4957 -1.1425
  511MOL0     H70491   7.962   2.557   8.490  0.1015  1.6094  0.5704
  511MOL0     H70492   8.101   2.278   8.496 -0.6243 -0.1432 -1.6463
  511MOL0     H70493   7.952   2.296   8.422 -1.3175 -0.1109  1.3428
  511MOL0     H70494   7.990   2.371   8.713 -2.2918  1.0018  0.6302
  511MOL0     H70495   7.935   2.209   8.669 -0.7961 -0.8201 -1.2819
  511MOL0     H70496   7.735   2.308   8.570 -0.2561  0.4223  0.3445
  511MOL0     H70497   7.790   2.474   8.610  2.6281  0.5466  0.0787
  511MOL0     H70498   8.221   2.077   7.874  0.6710 -2.5340 -1.4219
  511MOL0     H70499   8.125   1.914   7.711 -1.3903  0.4724 -2.5193
  511MOL0     H70500   7.874   1.909   7.328 -0.0364 -0.2759  1.4539
  511MOL0     H70501   7.796   1.827   7.126 -1.1151  2.8990 -1.2557
  511MOL0     H70502   6.283   1.557   6.454  0.9211 -0.2083 -0.0662
  511MOL0     H70503   6.054   1.517   6.551  0.9546 -0.7609 -0.2077
  511MOL0     H70504   5.652   1.790   6.692 -0.7978 -0.3229 -1.7001
  511MOL0     H70505   5.455   1.787   6.789 -1.2319 -0.2138 -0.5720
  511MOL0     H70506   5.119   1.538   6.921  0.4549 -0.1523  1.4788
  511MOL0     H70507   5.225   1.407   6.878  1.5780 -1.2754  1.3941
  511MOL0     H70508   5.312   1.571   7.114  1.9643 -0.1941 -1.2774
  511MOL0     H70509   5.323   1.402   7.091 -1.9713 -1.8662  1.0791
  511MOL0     H70510   5.104   1.558   7.210 -2.2976  0.3956 -0.3670
  511MOL0     H70511   5.036   1.441   7.092 -0.2383  0.3506  1.2613
  511MOL0     H70512   5.161   1.402   7.347 -1.8457 -0.2488  1.1273
  511MOL0     H70513   5.213   1.275   7.223  0.6491  0.2957 -1.1465
  511MOL0     H70514   4.810   1.175   7.334  0.4856 -1.5291 -0.3711
  511MOL0     H70515   5.463   1.355   6.838 -1.4523  0.2985 -0.5291
  511MOL0     H70516   5.680   1.263   6.629 -0.6272  1.4503 -1.1056
  511MOL0     H70517   5.809   1.343   6.737  0.2710  3.3286  0.0704
  511MOL0     H70518   5.674   1.242   6.799  0.1886 -0.4573 -1.0689
  512MOL0     O70519   7.998   9.706   3.220 -0.0281 -1.1963 -0.3249
  512MOL0     C70520   7.975   9.811   3.281  0.0770 -0.2664  0.3969
  512MOL0     O70521   8.064   9.876   3.358  0.7250  0.4003  0.2042
  512MOL0     C70522   8.203   9.854   3.343 -0.0962 -0.9888 -1.1537
  512MOL0     C70523   8.291   9.956   3.303 -0.1479 -0.4487  0.2950
  512MOL0     C70524   8.432   9.939   3.311 -0.2372  0.3547 -0.6485
  512MOL0     C70525   8.487   9.822   3.371  0.4122 -0.0258 -0.2106
  512MOL0     O70526   8.622   9.816   3.388  0.4188  0.4191  0.4314
  512MOL0     C70527   8.677   9.681   3.402  0.1821 -0.1922  0.2198
  512MOL0     C70528   8.819   9.679   3.349  0.7470  0.4872 -0.0128
  512MOL0     C70529   8.867   9.533   3.363  0.0626 -0.5965 -0.0805
  512MOL0     C70530   9.005   9.535   3.307  0.1795 -0.2396  0.1225
  512MOL0     C70531   9.105   9.440   3.374  0.3098  0.2058 -0.1859
  512MOL0     C70532   9.243   9.428   3.296 -0.3052  0.5333 -0.5124
  512MOL0     C70533   9.222   9.344   3.172 -0.0456 -0.2331 -0.1086
  512MOL0     C70534   9.356   9.331   3.097  0.2589 -0.2682  1.4259
  512MOL0     N70535   9.451   9.252   3.164  0.5939 -0.6819  0.0177
  512MOL0     C70536   9.565   9.293   3.221 -1.4890  0.0321 -0.7712
  512MOL0     C70537   9.632   9.175   3.257  0.0689 -0.4195  1.1715
  512MOL0     C70538   9.761   9.173   3.335 -0.4941  0.0118 -0.3042
  512MOL0     C70539   9.863   9.080   3.278 -0.6058  0.1974 -0.0682
  512MOL0     C70540   9.937   9.143   3.159 -0.7416 -0.1948  0.7787
  512MOL0     C70541  10.004   9.052   3.062  0.1851  1.6356  0.2207
  512MOL0     O70542  10.111   8.967   3.113  0.2459  0.1455  0.3219
  512MOL0     C70543  10.235   9.008   3.082 -0.3437 -1.0486  0.1359
  512MOL0     C70544  10.274   9.141   3.063  0.4264  0.1334  0.0729
  512MOL0     C70545  10.405   9.178   3.042  0.1305 -0.1380  0.1324
  512MOL0     C70546  10.450   9.322   3.021 -0.2531 -0.8150 -0.1422
  512MOL0     C70547  10.510   9.073   3.058  0.2586 -0.3636 -0.8325
  512MOL0     C70548  10.658   9.095   3.036  0.0641 -0.2549 -0.4841
  512MOL0     O70549  10.728   8.974   3.020 -0.2508 -0.4558  0.9850
  512MOL0     C70550  10.864   8.980   2.980  0.5649  0.7124 -0.3044
  512MOL0     C70551  10.961   8.946   3.080  0.1761 -1.0735  0.2987
  512MOL0     C70552  11.096   8.914   3.047 -0.3471 -0.9342 -0.7054
  512MOL0     C70553  11.130   8.929   2.911  0.3173 -0.3819 -0.5876
  512MOL0     O70554  11.261   8.887   2.884  0.3612 -0.6182 -0.0921
  512MOL0     C70555  11.311   8.884   2.747 -0.3832  0.6799  0.4659
  512MOL0     C70556  11.466   8.873   2.757  0.2852 -0.3030  0.8230
  512MOL0     C70557  11.525   8.872   2.624  0.1237  0.5092  0.0386
  512MOL0     C70558  11.671   8.832   2.638  0.5085 -0.6736 -0.2132
  512MOL0     C70559  11.746   8.840   2.504  0.2041  0.1457 -0.2188
  512MOL0     C70560  11.892   8.847   2.534  0.3982  1.1313  0.2882
  512MOL0     C70561  11.967   8.839   2.395 -0.3698 -0.8816 -0.0810
  512MOL0     C70562  12.114   8.851   2.421  0.7887  1.0226 -0.3425
  512MOL0    Cl70563  12.156   8.681   2.479  0.0273 -0.0821 -0.2669
  512MOL0     C70564  11.047   8.990   2.817  0.4181  0.4980  0.1439
  512MOL0     C70565  10.913   9.007   2.853 -0.7062  0.6807  0.2154
  512MOL0     O70566  10.712   9.204   3.044 -0.7292 -0.1895  0.7882
  512MOL0     C70567  10.474   8.946   3.081  0.2936 -0.6853 -0.3011
  512MOL0     C70568  10.337   8.921   3.092 -0.1207  0.6272 -0.2184
  512MOL0     N70569   9.546   9.075   3.223 -0.0178  0.2050 -1.2328
  512MOL0     N70570   9.442   9.112   3.159 -0.8839  0.6335  0.6938
  512MOL0     C70571   8.400   9.721   3.412  0.0809 -0.2044 -0.0175
  512MOL0     C70572   8.265   9.743   3.405  0.2937  0.3677 -0.3686
  512MOL0     C70573   7.840   9.849   3.284 -0.9671 -0.3948  0.1150
  512MOL0     C70574   7.747   9.745   3.329  0.5710 -0.3251 -0.1225
  512MOL0     C70575   7.615   9.777   3.362 -0.0050  0.0694  0.9285
  512MOL0     C70576   7.573   9.910   3.353  0.5110 -0.2120  0.1768
  512MOL0     O70577   7.446   9.955   3.391  0.3373 -0.1107  0.0800
  512MOL0     C70578   7.358   9.861   3.449 -1.1746 -0.6421  0.0990
  512MOL0     C70579   7.226   9.946   3.470 -0.4873  0.4345  0.0984
  512MOL0     C70580   7.120   9.887   3.565 -1.1655  0.1894  0.0898
  512MOL0     C70581   6.997   9.976   3.595 -0.0117 -0.7151 -0.3495
  512MOL0     C70582   6.937  10.009   3.464 -0.1797  0.7871 -0.4751
  512MOL0     C70583   6.903  10.031   3.350  0.1200 -0.7012  0.4832
  512MOL0     C70584   7.658  10.010   3.311  0.3143 -0.2388 -0.0813
  512MOL0     C70585   7.793   9.986   3.272  0.4675 -0.1437 -0.2720
  512MOL0     C70586   7.869  10.104   3.223  1.0695 -0.8841 -0.0612
  512MOL0     H70587   8.251  10.049   3.265  0.5885 -0.1197  0.3127
  512MOL0     H70588   8.500  10.012   3.268 -0.3965  2.5181  2.4149
  512MOL0     H70589   8.624   9.613   3.336  2.8438 -0.0695 -2.2298
  512MOL0     H70590   8.671   9.648   3.506 -0.4260 -1.2751 -0.1456
  512MOL0     H70591   8.817   9.707   3.244 -2.3656 -1.3055 -0.5378
  512MOL0     H70592   8.880   9.742   3.416 -1.4923  1.5479  1.1494
  512MOL0     H70593   8.870   9.503   3.468  1.7409  0.6829  0.2802
  512MOL0     H70594   8.804   9.465   3.305 -3.9931  3.1130 -0.4921
  512MOL0     H70595   9.007   9.528   3.198  0.0797 -0.8034  0.1538
  512MOL0     H70596   9.047   9.634   3.328 -0.0471 -0.6813  3.0493
  512MOL0     H70597   9.050   9.347   3.386 -0.7089  1.0281  2.4863
  512MOL0     H70598   9.128   9.489   3.470  0.1546  0.0229 -0.0546
  512MOL0     H70599   9.280   9.530   3.279  0.8662  0.6590  2.2889
  512MOL0     H70600   9.321   9.385   3.359  0.3123  0.5273 -1.2732
  512MOL0     H70601   9.165   9.407   3.102 -1.6313  0.7628  1.9713
  512MOL0     H70602   9.177   9.249   3.202  2.3970 -0.7830  2.1922
  512MOL0     H70603   9.342   9.274   3.005  1.7025 -1.5824  1.9876
  512MOL0     H70604   9.385   9.430   3.061  1.8252 -1.3037 -0.3293
  512MOL0     H70605   9.595   9.397   3.231 -2.2596  0.2746 -0.8700
  512MOL0     H70606   9.742   9.156   3.441 -2.5024  0.0069 -0.6242
  512MOL0     H70607   9.800   9.275   3.345  0.3450 -0.2198 -1.0071
  512MOL0     H70608   9.932   9.057   3.360 -0.6662  0.1039 -0.0444
  512MOL0     H70609   9.810   8.992   3.242 -2.2067  1.3819 -0.7317
  512MOL0     H70610   9.863   9.205   3.106 -0.5549  0.2307  1.0102
  512MOL0     H70611  10.011   9.219   3.186  0.2258 -0.2407 -1.4862
  512MOL0     H70612   9.929   8.981   3.026  3.3547 -0.8346 -2.1623
  512MOL0     H70613  10.039   9.106   2.973  0.5921  0.2021 -0.5207
  512MOL0     H70614  10.200   9.218   3.042  1.5771  0.6992 -2.2997
  512MOL0     H70615  10.358   9.380   3.012  1.7782  2.8416  0.9728
  512MOL0     H70616  10.517   9.343   2.937 -0.0767 -3.2996 -0.7076
  512MOL0     H70617  10.493   9.354   3.116 -2.1705 -0.6226  0.7127
  512MOL0     H70618  10.927   8.943   3.183 -1.7690  0.8487 -0.2348
  512MOL0     H70619  11.174   8.892   3.120  0.4252  0.9817 -0.9009
  512MOL0     H70620  11.265   8.806   2.686  1.8986  0.8954 -1.7162
  512MOL0     H70621  11.301   8.983   2.701  2.1360  1.0427  0.5060
  512MOL0     H70622  11.503   8.960   2.813 -1.3797  1.4904 -0.7283
  512MOL0     H70623  11.502   8.784   2.810  2.7141 -0.9342 -1.6181
  512MOL0     H70624  11.511   8.975   2.589  0.4805  0.9350  1.0935
  512MOL0     H70625  11.478   8.804   2.553  0.2604  1.2627 -0.7962
  512MOL0     H70626  11.683   8.734   2.684  1.1405 -1.9444 -2.8452
  512MOL0     H70627  11.715   8.909   2.702 -1.3297  0.3131 -0.0743
  512MOL0     H70628  11.722   8.747   2.451 -2.0381  0.5691 -0.0713
  512MOL0     H70629  11.719   8.929   2.448  2.7251  3.4149  3.2835
  512MOL0     H70630  11.917   8.753   2.584 -0.3023  0.2026 -1.0370
  512MOL0     H70631  11.931   8.935   2.587  0.4808  0.2020  1.8061
  512MOL0     H70632  11.931   8.927   2.341  0.7093  0.4532  1.3041
  512MOL0     H70633  11.945   8.751   2.333 -1.0898 -0.5675 -0.2808
  512MOL0     H70634  12.150   8.929   2.489  0.0123  2.1423 -1.1880
  512MOL0     H70635  12.154   8.869   2.320 -0.5669 -0.7156 -1.2296
  512MOL0     H70636  11.082   9.013   2.717 -0.6009 -0.3774 -0.4400
  512MOL0     H70637  10.842   9.047   2.781  1.3368  0.7939 -1.8418
  512MOL0     H70638  10.541   8.861   3.088  0.6631 -0.2859  2.2700
  512MOL0     H70639  10.321   8.814   3.101  1.6466 -0.0175 -3.3823
  512MOL0     H70640   8.425   9.628   3.460  0.1704  0.4999  1.3380
  512MOL0     H70641   8.201   9.661   3.436 -1.3272  1.6488 -0.1745
  512MOL0     H70642   7.774   9.640   3.332  0.3943 -0.3785 -0.2992
  512MOL0     H70643   7.551   9.699   3.403 -2.1810  1.1452 -0.2293
  512MOL0     H70644   7.342   9.783   3.373  2.0470 -0.5441 -0.8097
  512MOL0     H70645   7.396   9.827   3.546 -2.7314  0.1927  1.0444
  512MOL0     H70646   7.180   9.963   3.373  1.1238  3.1169 -0.3060
  512MOL0     H70647   7.253  10.046   3.506 -2.1668  0.6776  0.7916
  512MOL0     H70648   7.074   9.801   3.516 -0.6114 -0.5515  0.8328
  512MOL0     H70649   7.167   9.848   3.655  2.9828  0.3639 -1.7305
  512MOL0     H70650   7.004  10.076   3.638 -3.4956  0.7746 -2.7975
  512MOL0     H70651   6.931   9.924   3.665 -1.0090  2.7740  1.5649
  512MOL0     H70652   6.889  10.058   3.247 -0.2717 -0.7927  0.5087
  512MOL0     H70653   7.617  10.111   3.315 -0.0657 -0.4281  1.3105
  512MOL0     H70654   7.978  10.094   3.224  1.0989 -0.7542  1.8124
  512MOL0     H70655   7.839  10.125   3.120 -0.8203 -1.6883  0.2937
  512MOL0     H70656   7.845  10.191   3.285 -2.6426 -4.1911  3.7746
  513MOL0     O70657   4.532   5.463   7.387  0.1187 -0.1442 -0.8771
  513MOL0     C70658   4.600   5.419   7.299  0.1486  0.1725 -0.1013
  513MOL0     O70659   4.566   5.310   7.227 -0.3663 -0.0178  0.7160
  513MOL0     C70660   4.451   5.236   7.256 -1.2311 -1.2036 -0.3504
  513MOL0     C70661   4.315   5.282   7.253  0.2939  0.5037  0.0526
  513MOL0     C70662   4.210   5.184   7.274  0.5746 -0.4071  0.1100
  513MOL0     C70663   4.232   5.054   7.267 -0.0030 -0.7171  0.1631
  513MOL0     O70664   4.127   4.968   7.282  0.0360  0.2265  0.4431
  513MOL0     C70665   4.001   5.005   7.228  1.2476  0.2263  0.7011
  513MOL0     C70666   3.905   4.904   7.296 -0.1141  0.9521 -0.7277
  513MOL0     C70667   3.754   4.900   7.253 -0.3597 -0.5152  0.7975
  513MOL0     C70668   3.686   4.773   7.304  0.6903 -0.9320 -0.4140
  513MOL0     C70669   3.536   4.774   7.276 -0.6456  0.5253 -0.3215
  513MOL0     C70670   3.474   4.634   7.303  0.1593  0.3849 -0.0848
  513MOL0     C70671   3.326   4.647   7.285  0.5566  0.5609 -0.1818
  513MOL0     C70672   3.239   4.733   7.379  0.8785  0.1387  0.0184
  513MOL0     N70673   3.093   4.740   7.351  0.2391 -0.6884 -0.6633
  513MOL0     C70674   3.015   4.628   7.334 -0.1246  0.3696 -0.5118
  513MOL0     C70675   2.895   4.677   7.315  0.5491 -0.3117  0.1054
  513MOL0     C70676   2.774   4.599   7.265  0.1716  0.0084  0.7931
  513MOL0     C70677   2.777   4.581   7.107 -0.1111  0.6690 -0.0177
  513MOL0     C70678   2.701   4.694   7.047 -1.0263  0.1977 -0.1216
  513MOL0     C70679   2.744   4.727   6.905  0.1366  0.5019 -0.1876
  513MOL0     O70680   2.681   4.633   6.819 -0.1765 -0.2728  0.1362
  513MOL0     C70681   2.643   4.656   6.691 -0.4131  0.7311 -0.3770
  513MOL0     C70682   2.573   4.557   6.627  0.6286 -0.1744 -0.0075
  513MOL0     C70683   2.533   4.572   6.491  0.3720 -0.2325  0.2400
  513MOL0     C70684   2.463   4.446   6.433 -0.1614 -0.4583 -0.8641
  513MOL0     C70685   2.578   4.688   6.422  0.3428 -0.0420 -0.0550
  513MOL0     C70686   2.563   4.702   6.278 -0.8416 -0.2420 -0.1543
  513MOL0     O70687   2.622   4.815   6.216  0.5070 -0.4294  0.2804
  513MOL0     C70688   2.618   4.827   6.075 -0.1622  0.4369 -0.6414
  513MOL0     C70689   2.555   4.943   6.025 -0.2104 -0.6058  0.4484
  513MOL0     C70690   2.570   4.969   5.889 -0.2441  0.5289 -0.4774
  513MOL0     C70691   2.638   4.879   5.802  1.2775  0.7223 -0.8325
  513MOL0     O70692   2.629   4.920   5.667  0.4363  0.8293 -0.3598
  513MOL0     C70693   2.721   4.847   5.582 -0.8861 -0.4332 -0.3305
  513MOL0     C70694   2.743   4.927   5.457  0.7740  0.1617 -0.0192
  513MOL0     C70695   2.607   4.963   5.389 -0.2420  0.1503 -0.2083
  513MOL0     C70696   2.641   5.030   5.259  0.1962  0.2870 -0.3377
  513MOL0     C70697   2.523   5.094   5.182  0.1146 -0.1676  0.2553
  513MOL0     C70698   2.424   4.985   5.130 -0.0865 -1.1318 -0.6770
  513MOL0     C70699   2.333   5.015   5.016  0.3898 -1.1478  0.7393
  513MOL0     C70700   2.224   5.114   5.046  0.5917  0.3510 -0.3275
  513MOL0    Cl70701   2.292   5.281   5.055 -0.1972  0.5396 -0.5381
  513MOL0     C70702   2.691   4.758   5.856 -0.4446 -0.4361 -0.2199
  513MOL0     C70703   2.681   4.735   5.993 -0.5724 -0.2755  0.1564
  513MOL0     O70704   2.502   4.616   6.216  0.3924 -0.1944 -0.3798
  513MOL0     C70705   2.636   4.791   6.492 -0.2450  0.2011  0.4121
  513MOL0     C70706   2.671   4.775   6.630  0.6652  0.2456 -0.3105
  513MOL0     N70707   2.890   4.811   7.341  0.2599 -0.9593 -0.4186
  513MOL0     N70708   3.012   4.848   7.367 -0.3927 -0.1808  0.1822
  513MOL0     C70709   4.370   5.006   7.263  0.4634 -0.6779  0.4032
  513MOL0     C70710   4.475   5.103   7.255 -0.4384 -0.1652 -0.3626
  513MOL0     C70711   4.726   5.491   7.267 -0.0257  0.3890  0.3327
  513MOL0     C70712   4.724   5.627   7.247 -0.0943  0.2651 -0.7903
  513MOL0     C70713   4.845   5.691   7.226 -1.3038  0.5567  0.9633
  513MOL0     C70714   4.964   5.631   7.236 -1.5563  0.6817  0.3561
  513MOL0     O70715   5.078   5.710   7.221 -0.0977 -0.1412  0.1358
  513MOL0     C70716   5.192   5.678   7.296 -0.2656  0.5010 -0.3608
  513MOL0     C70717   5.302   5.758   7.254 -0.2906 -0.2199  0.0900
  513MOL0     C70718   5.432   5.766   7.336 -0.8867 -0.3195 -1.5921
  513MOL0     C70719   5.508   5.900   7.329  0.3033  0.5903  0.0411
  513MOL0     C70720   5.634   5.899   7.400 -0.2060 -0.0642 -0.1656
  513MOL0     C70721   5.742   5.907   7.459  0.6072  0.5912 -0.7067
  513MOL0     C70722   4.972   5.491   7.266 -1.1827  0.0748 -1.2833
  513MOL0     C70723   4.850   5.418   7.281 -0.1433 -0.2094 -0.1507
  513MOL0     C70724   4.860   5.274   7.318  0.2891  0.0545 -0.1538
  513MOL0     H70725   4.286   5.386   7.243  2.0900  1.1698  1.2387
  513MOL0     H70726   4.117   5.240   7.283  0.8548  0.2007 -0.6568
  513MOL0     H70727   4.003   4.998   7.119 -1.7179  3.6598  0.2524
  513MOL0     H70728   3.970   5.106   7.256  1.5634  0.6870 -0.5408
  513MOL0     H70729   3.944   4.804   7.273  0.9652  0.7973  1.5141
  513MOL0     H70730   3.923   4.912   7.404  2.9212 -1.4377 -0.9144
  513MOL0     H70731   3.700   4.987   7.293  1.7431  1.0032  0.5625
  513MOL0     H70732   3.747   4.908   7.144 -0.8513 -0.6656  0.8160
  513MOL0     H70733   3.732   4.687   7.255  0.7199 -0.0416 -2.0252
  513MOL0     H70734   3.709   4.757   7.410 -1.6044 -2.5272 -0.0711
  513MOL0     H70735   3.515   4.798   7.172 -0.7464 -0.7611 -0.6125
  513MOL0     H70736   3.486   4.835   7.352 -2.9422  1.0442 -2.1354
  513MOL0     H70737   3.524   4.567   7.233  0.7677  0.7608 -0.0180
  513MOL0     H70738   3.491   4.605   7.407  0.3597  1.9951  0.3533
  513MOL0     H70739   3.288   4.544   7.288 -1.6333  1.3120 -0.9520
  513MOL0     H70740   3.309   4.686   7.184  0.6002  1.4203  0.1394
  513MOL0     H70741   3.246   4.690   7.480 -0.6829 -0.0934  0.0481
  513MOL0     H70742   3.288   4.830   7.384  0.9032  0.1904 -1.0017
  513MOL0     H70743   3.051   4.525   7.330 -2.6588 -0.6732  0.9273
  513MOL0     H70744   2.694   4.668   7.294  0.2782  0.5977 -0.2918
  513MOL0     H70745   2.783   4.500   7.311 -1.0710 -1.6737 -2.2737
  513MOL0     H70746   2.881   4.572   7.075  0.9277  2.3481  2.5933
  513MOL0     H70747   2.733   4.484   7.079  3.7043 -1.2709  0.1133
  513MOL0     H70748   2.595   4.674   7.033 -1.0576  0.7686 -0.7690
  513MOL0     H70749   2.725   4.781   7.108 -0.6891  0.6729 -0.9030
  513MOL0     H70750   2.710   4.830   6.886  2.0690  1.6152  1.8474
  513MOL0     H70751   2.854   4.721   6.902  0.4375  3.4672  1.0989
  513MOL0     H70752   2.548   4.462   6.674  0.0518 -0.5168 -0.9712
  513MOL0     H70753   2.526   4.417   6.348  0.6433  0.1334 -0.4871
  513MOL0     H70754   2.357   4.463   6.415 -0.3379 -2.6275 -2.3376
  513MOL0     H70755   2.474   4.355   6.493  1.9721  1.4537  1.9306
  513MOL0     H70756   2.520   5.013   6.101  0.6060 -0.6542  0.8851
  513MOL0     H70757   2.526   5.061   5.851  0.4633  0.7295 -0.8315
  513MOL0     H70758   2.823   4.824   5.616 -0.4779 -0.2282 -1.3663
  513MOL0     H70759   2.671   4.752   5.561 -0.3699 -1.6015  3.1402
  513MOL0     H70760   2.792   5.020   5.486 -0.0752  0.8862 -0.8549
  513MOL0     H70761   2.799   4.863   5.388  1.4669 -2.8522  3.0249
  513MOL0     H70762   2.548   5.030   5.452  0.5773  0.5602  0.1393
  513MOL0     H70763   2.547   4.874   5.367  0.9200  0.0108 -3.2937
  513MOL0     H70764   2.689   4.953   5.198  1.0706  0.1948  0.4293
  513MOL0     H70765   2.721   5.104   5.273  2.6389 -1.7496 -2.4521
  513MOL0     H70766   2.469   5.176   5.231 -1.6765  1.0061 -3.3296
  513MOL0     H70767   2.561   5.143   5.092 -3.7089 -0.7670 -1.9255
  513MOL0     H70768   2.364   4.960   5.218 -2.3912  4.5991 -0.1377
  513MOL0     H70769   2.474   4.897   5.090  0.4362  0.3267 -3.4833
  513MOL0     H70770   2.286   4.920   4.989 -0.8286 -1.3437  3.2267
  513MOL0     H70771   2.394   5.053   4.934 -0.8526  2.0618  1.1553
  513MOL0     H70772   2.176   5.086   5.140  1.9885  2.6561  1.1460
  513MOL0     H70773   2.151   5.104   4.964 -0.1681  1.8970  0.1248
  513MOL0     H70774   2.723   4.670   5.802 -1.6029 -2.3096  1.9872
  513MOL0     H70775   2.708   4.639   6.037 -1.6517 -1.0530 -0.8146
  513MOL0     H70776   2.654   4.886   6.444 -0.4319 -0.1600 -0.3908
  513MOL0     H70777   2.720   4.865   6.668  1.8831 -0.8119  0.7314
  513MOL0     H70778   4.398   4.902   7.249 -1.2328 -1.0323 -0.6494
  513MOL0     H70779   4.577   5.066   7.248 -0.0897  0.1360  2.1553
  513MOL0     H70780   4.628   5.679   7.248 -1.6258 -2.2797  2.0725
  513MOL0     H70781   4.861   5.798   7.222  1.9153  0.1523  0.1781
  513MOL0     H70782   5.181   5.693   7.404  0.2853 -0.7537 -0.1088
  513MOL0     H70783   5.229   5.576   7.281  1.1835  1.2621 -2.4105
  513MOL0     H70784   5.262   5.860   7.255  0.2223  0.0017 -0.7090
  513MOL0     H70785   5.317   5.719   7.153  5.3506  1.1805  0.0404
  513MOL0     H70786   5.407   5.744   7.440 -1.6714  0.2134 -1.6643
  513MOL0     H70787   5.502   5.687   7.309 -0.8167 -0.8071 -0.0544
  513MOL0     H70788   5.435   5.975   7.362 -0.7884 -0.8088  0.9078
  513MOL0     H70789   5.519   5.929   7.224 -0.1372  0.9696  0.0947
  513MOL0     H70790   5.841   5.903   7.500 -0.4501  2.5201  2.4659
  513MOL0     H70791   5.071   5.448   7.277 -0.6069  0.8097 -3.2795
  513MOL0     H70792   4.944   5.264   7.388  0.8623  1.0933 -0.6588
  513MOL0     H70793   4.768   5.242   7.367 -0.9100  4.6725  1.1127
  513MOL0     H70794   4.883   5.222   7.225 -0.7227  0.2084 -0.5025
  514MOL0     O70795  10.918   1.386   7.446  0.6739 -0.0818  0.6266
  514MOL0     C70796  10.820   1.419   7.513 -0.5906  0.1175  0.1031
  514MOL0     O70797  10.752   1.535   7.500  0.5769 -0.0948 -1.1875
  514MOL0     C70798  10.798   1.651   7.458 -0.4227 -0.0283  0.4715
  514MOL0     C70799  10.696   1.740   7.428 -0.6048 -0.1733 -0.3457
  514MOL0     C70800  10.732   1.866   7.378 -0.0426  0.6582 -0.7589
  514MOL0     C70801  10.860   1.910   7.356  0.4096  0.3953  0.1183
  514MOL0     O70802  10.890   2.041   7.336 -0.4958  0.4427 -0.2713
  514MOL0     C70803  10.800   2.101   7.243  0.0405 -0.1699  0.3200
  514MOL0     C70804  10.717   2.215   7.306  0.0357  1.2596 -0.3313
  514MOL0     C70805  10.789   2.335   7.351  0.1132 -0.7145 -0.6556
  514MOL0     C70806  10.688   2.422   7.428  0.0281  0.1542 -0.9125
  514MOL0     C70807  10.740   2.558   7.482  0.2410  0.1824 -0.1100
  514MOL0     C70808  10.655   2.633   7.585  1.1072  0.1660 -0.4183
  514MOL0     C70809  10.505   2.653   7.549  0.4497 -0.7778  0.2103
  514MOL0     C70810  10.420   2.520   7.559 -0.7504 -0.0892  0.1259
  514MOL0     N70811  10.290   2.549   7.633 -0.0540  1.0004 -0.4297
  514MOL0     C70812  10.249   2.489   7.754 -1.1267  0.5388  0.3716
  514MOL0     C70813  10.119   2.525   7.772 -0.0900  0.1734 -0.1354
  514MOL0     C70814  10.043   2.484   7.895 -0.0400 -0.1451 -0.7396
  514MOL0     C70815  10.046   2.335   7.924  0.6030 -0.3429 -0.3976
  514MOL0     C70816   9.952   2.267   7.822  0.8343  0.3944  0.5510
  514MOL0     C70817   9.825   2.225   7.888  1.1720 -0.8209  0.0813
  514MOL0     O70818   9.720   2.207   7.798  0.3778 -0.3126 -0.1928
  514MOL0     C70819   9.727   2.116   7.695 -0.6194 -0.1041  0.1688
  514MOL0     C70820   9.644   2.144   7.587 -0.0644  0.6467 -0.5374
  514MOL0     C70821   9.632   2.065   7.473  0.3396 -0.3638 -0.3701
  514MOL0     C70822   9.521   2.096   7.379  0.1509 -0.3081 -0.4854
  514MOL0     C70823   9.714   1.944   7.473  0.1356  0.4839  0.1812
  514MOL0     C70824   9.703   1.834   7.364 -0.9950  0.2207 -0.3635
  514MOL0     O70825   9.807   1.735   7.365  0.0188  0.4553 -0.0717
  514MOL0     C70826   9.799   1.636   7.271 -0.0650 -1.1538 -0.1227
  514MOL0     C70827   9.910   1.629   7.189 -0.3563  0.7695  0.6584
  514MOL0     C70828   9.907   1.521   7.101  0.2266 -0.5361 -0.1033
  514MOL0     C70829   9.812   1.420   7.097 -0.0445  0.1240  0.3043
  514MOL0     O70830   9.822   1.304   7.031 -0.0782  0.6754  0.2767
  514MOL0     C70831   9.860   1.318   6.894 -0.6698 -0.3980 -0.9951
  514MOL0     C70832   9.982   1.231   6.868 -0.0495  0.7537 -0.2303
  514MOL0     C70833   9.948   1.079   6.866  0.1310  0.0800 -0.6689
  514MOL0     C70834  10.072   0.998   6.815  0.4256 -0.0130  0.9206
  514MOL0     C70835  10.046   0.841   6.797  0.3804  0.3654  0.4355
  514MOL0     C70836   9.976   0.807   6.658  0.0537 -0.5242 -0.1493
  514MOL0     C70837  10.064   0.826   6.538 -0.4591  0.2223 -0.2417
  514MOL0     C70838   9.985   0.792   6.407 -0.0814  0.4109  1.0729
  514MOL0    Cl70839   9.868   0.926   6.352  0.0095 -0.0362 -0.0652
  514MOL0     C70840   9.707   1.435   7.186  0.4605  0.2705  0.2021
  514MOL0     C70841   9.697   1.545   7.278 -0.5038  0.2725  1.2379
  514MOL0     O70842   9.602   1.831   7.291  0.2879 -0.3496 -1.1581
  514MOL0     C70843   9.800   1.923   7.585  0.1483  0.7850 -0.1801
  514MOL0     C70844   9.810   2.005   7.695  0.7055 -0.4967 -0.8651
  514MOL0     N70845  10.083   2.582   7.654  0.1185  0.2642 -0.3804
  514MOL0     N70846  10.178   2.584   7.568  0.5566 -0.1376  0.0881
  514MOL0     C70847  10.959   1.818   7.382  0.4719 -0.6470  0.2727
  514MOL0     C70848  10.934   1.686   7.430  0.5930  0.1310  0.0232
  514MOL0     C70849  10.756   1.314   7.593  0.3050  0.0490  0.1664
  514MOL0     C70850  10.785   1.182   7.551 -0.4073 -0.2912  0.1134
  514MOL0     C70851  10.722   1.077   7.611 -0.4237 -0.6820 -0.6846
  514MOL0     C70852  10.636   1.093   7.723  0.0435 -0.0595  0.3391
  514MOL0     O70853  10.545   1.000   7.778  0.6058 -0.0949 -0.3661
  514MOL0     C70854  10.530   0.886   7.698  0.1192 -0.4475 -0.2443
  514MOL0     C70855  10.399   0.807   7.730 -0.2956 -0.5241  0.0111
  514MOL0     C70856  10.275   0.887   7.703 -0.7649  1.0536  0.1669
  514MOL0     C70857  10.152   0.790   7.730 -0.8316  0.2756  1.4108
  514MOL0     C70858  10.034   0.858   7.691  0.2050  0.0288 -0.1084
  514MOL0     C70859   9.919   0.901   7.663  0.5794  0.8610 -0.6310
  514MOL0     C70860  10.625   1.220   7.770  0.6361 -0.3659 -0.7856
  514MOL0     C70861  10.679   1.333   7.714  0.3871  1.4472  1.4103
  514MOL0     C70862  10.670   1.468   7.786 -0.5442 -0.2025  0.1181
  514MOL0     H70863  10.592   1.720   7.451 -0.5158 -0.8740 -0.5159
  514MOL0     H70864  10.645   1.928   7.362 -0.0391  1.3291  1.4992
  514MOL0     H70865  10.734   2.035   7.184 -0.9676 -0.9631  2.2471
  514MOL0     H70866  10.866   2.134   7.162  0.6179 -1.3970  0.2688
  514MOL0     H70867  10.648   2.243   7.225  1.2142  1.8085 -1.1742
  514MOL0     H70868  10.663   2.157   7.381  1.2237 -2.5164 -2.1269
  514MOL0     H70869  10.885   2.330   7.403 -0.0031 -1.4777 -0.5060
  514MOL0     H70870  10.808   2.393   7.260 -1.0259  0.0355 -0.4294
  514MOL0     H70871  10.600   2.441   7.365  0.1992  1.0688 -0.8955
  514MOL0     H70872  10.663   2.358   7.513 -2.3573 -0.4436 -1.9669
  514MOL0     H70873  10.754   2.615   7.390 -2.4247 -1.0399 -1.3891
  514MOL0     H70874  10.840   2.538   7.523 -1.1847 -3.3967  2.1181
  514MOL0     H70875  10.666   2.577   7.678  3.3492  1.9269  0.4731
  514MOL0     H70876  10.696   2.734   7.589 -0.1385  1.1226 -5.0474
  514MOL0     H70877  10.499   2.701   7.451  1.3869 -0.9174  0.0817
  514MOL0     H70878  10.450   2.720   7.616  3.5936 -2.0302  4.4888
  514MOL0     H70879  10.382   2.496   7.459 -2.0678 -0.0175  0.5791
  514MOL0     H70880  10.465   2.425   7.589  2.3819 -0.6077 -4.9133
  514MOL0     H70881  10.308   2.438   7.830 -0.8548 -3.2702 -2.0804
  514MOL0     H70882   9.938   2.510   7.881 -0.7931 -2.5561 -0.1455
  514MOL0     H70883  10.094   2.532   7.980  1.0455  0.0857 -1.4951
  514MOL0     H70884  10.150   2.302   7.914  0.8944 -0.3229  2.0568
  514MOL0     H70885  10.017   2.311   8.026  0.7461 -0.8729 -0.4806
  514MOL0     H70886   9.937   2.330   7.734 -0.7853  0.1567  0.6224
  514MOL0     H70887  10.004   2.185   7.772  0.0660  1.1755 -1.6003
  514MOL0     H70888   9.837   2.131   7.942  0.3718  0.1766  2.1322
  514MOL0     H70889   9.798   2.293   7.970 -0.0064 -0.3108 -0.6968
  514MOL0     H70890   9.572   2.224   7.599 -0.8940 -0.2506  0.6650
  514MOL0     H70891   9.426   2.050   7.406  0.2477  0.8758  2.2801
  514MOL0     H70892   9.543   2.083   7.273 -1.6100  1.2715 -1.1095
  514MOL0     H70893   9.503   2.203   7.397 -0.8780 -0.6096  0.3610
  514MOL0     H70894   9.985   1.708   7.188  3.3454 -2.2628 -3.8004
  514MOL0     H70895   9.984   1.530   7.025 -1.3344 -0.9997 -1.8399
  514MOL0     H70896   9.776   1.290   6.829 -2.3754  1.1352  0.4559
  514MOL0     H70897   9.889   1.421   6.870 -3.0404  0.0299 -2.3781
  514MOL0     H70898  10.026   1.259   6.772  1.7194  0.5999  0.5045
  514MOL0     H70899  10.060   1.261   6.939  1.1645 -1.1395 -0.6983
  514MOL0     H70900   9.858   1.070   6.805 -1.6517 -3.0387  2.1579
  514MOL0     H70901   9.923   1.064   6.971 -2.5694  4.7920 -0.3426
  514MOL0     H70902  10.152   1.009   6.889  1.5749  2.9861 -0.5685
  514MOL0     H70903  10.104   1.039   6.719 -2.9042  0.2084 -0.2247
  514MOL0     H70904  10.141   0.786   6.804 -0.1940 -0.5434  1.3056
  514MOL0     H70905   9.983   0.807   6.879  0.7988  0.1179  0.6605
  514MOL0     H70906   9.882   0.862   6.647  0.6959  0.3874 -1.3889
  514MOL0     H70907   9.953   0.700   6.660  0.9718 -0.8014 -1.9717
  514MOL0     H70908  10.156   0.772   6.559 -1.1495  0.2664  3.7221
  514MOL0     H70909  10.095   0.930   6.527  0.9007  0.0233  1.2937
  514MOL0     H70910   9.931   0.697   6.408  3.3154 -1.7037  0.9566
  514MOL0     H70911  10.063   0.782   6.331 -2.3438 -3.0716 -1.0399
  514MOL0     H70912   9.648   1.345   7.197  1.9079 -1.0956 -2.3091
  514MOL0     H70913   9.613   1.554   7.346 -0.8904  3.8507  0.4745
  514MOL0     H70914   9.869   1.840   7.594  0.9291  1.5732  1.6308
  514MOL0     H70915   9.872   1.981   7.781  0.4501 -0.3220 -0.6283
  514MOL0     H70916  11.064   1.845   7.371 -0.2451  1.2151 -3.1933
  514MOL0     H70917  11.017   1.617   7.445  0.2478  0.1820  2.5609
  514MOL0     H70918  10.844   1.162   7.462 -2.4501  3.2678 -2.3204
  514MOL0     H70919  10.726   0.975   7.574  0.9970 -1.8452  2.2545
  514MOL0     H70920  10.520   0.924   7.596  0.9923  1.8430  0.4608
  514MOL0     H70921  10.620   0.823   7.697 -0.3700 -1.1928  1.0988
  514MOL0     H70922  10.394   0.788   7.838 -0.1167 -2.9826 -0.3378
  514MOL0     H70923  10.376   0.714   7.677 -4.0980  1.3304 -2.0172
  514MOL0     H70924  10.267   0.963   7.781 -0.4893  1.7017 -0.4263
  514MOL0     H70925  10.283   0.924   7.601  0.6475  0.8860  0.1967
  514MOL0     H70926  10.152   0.756   7.834  0.2663  1.2810  1.7651
  514MOL0     H70927  10.148   0.698   7.671  1.0628  0.1304  1.4479
  514MOL0     H70928   9.817   0.928   7.641 -1.2764 -4.3306  0.1090
  514MOL0     H70929  10.561   1.246   7.853  2.0478  1.2379 -0.1320
  514MOL0     H70930  10.635   1.548   7.721  4.1037  2.7434  0.7327
  514MOL0     H70931  10.604   1.475   7.873 -0.7847  1.1988 -0.1652
  514MOL0     H70932  10.768   1.501   7.824 -0.4374 -1.3857  0.9518
  515MOL0     O70933   5.916   2.835   5.954  0.1235  0.2903  0.3965
  515MOL0     C70934   5.913   2.712   5.973 -0.5446  0.0481  0.1008
  515MOL0     O70935   6.019   2.627   5.975  0.8005 -0.0794 -0.2082
  515MOL0     C70936   6.135   2.684   5.932 -0.2877  0.5906  0.0368
  515MOL0     C70937   6.172   2.690   5.797 -0.2880  1.1548  0.0960
  515MOL0     C70938   6.300   2.741   5.769  0.4772  0.1220 -0.0848
  515MOL0     C70939   6.386   2.780   5.863 -0.3149  0.0302 -1.4126
  515MOL0     O70940   6.498   2.838   5.823  0.0328 -0.6306  0.2975
  515MOL0     C70941   6.549   2.953   5.897  0.0785  0.2094 -0.0645
  515MOL0     C70942   6.446   3.061   5.924 -0.0365  0.1652 -0.0337
  515MOL0     C70943   6.504   3.186   5.991  0.9228 -0.5277 -1.2795
  515MOL0     C70944   6.526   3.191   6.142  0.1118 -0.2223 -0.5048
  515MOL0     C70945   6.661   3.135   6.194  0.5057 -0.1314  0.0743
  515MOL0     C70946   6.796   3.211   6.152  0.2879  0.5373 -1.2169
  515MOL0     C70947   6.902   3.175   6.251  0.1827  0.2888  0.3617
  515MOL0     C70948   7.045   3.193   6.191  0.9467 -0.0758 -0.1834
  515MOL0     N70949   7.151   3.194   6.293  0.1641  0.5176  0.8981
  515MOL0     C70950   7.205   3.080   6.358 -0.4870 -0.4512 -0.3312
  515MOL0     C70951   7.320   3.133   6.416 -0.3560 -0.4313  0.0135
  515MOL0     C70952   7.415   3.072   6.514 -0.5356  0.3985  0.2874
  515MOL0     C70953   7.539   2.999   6.447  0.0960  0.6274 -0.1023
  515MOL0     C70954   7.484   2.893   6.346  0.1134 -0.4014  0.5026
  515MOL0     C70955   7.601   2.801   6.305 -0.3205  0.1813 -0.6845
  515MOL0     O70956   7.648   2.727   6.425  0.1114  0.0056  0.3805
  515MOL0     C70957   7.738   2.633   6.425  0.4851 -1.3130 -0.0958
  515MOL0     C70958   7.769   2.559   6.313  0.4718 -0.1528 -1.0824
  515MOL0     C70959   7.860   2.452   6.319 -0.2225 -0.4791  0.2161
  515MOL0     C70960   7.894   2.377   6.186  0.1197 -0.5994  1.2681
  515MOL0     C70961   7.922   2.415   6.444  0.3590  0.0517 -0.1181
  515MOL0     C70962   8.022   2.300   6.462  0.3863  0.5460  0.0666
  515MOL0     O70963   8.084   2.303   6.578 -0.3780  0.1682 -0.7816
  515MOL0     C70964   8.182   2.219   6.622  0.3587 -0.9599 -0.7727
  515MOL0     C70965   8.302   2.288   6.662 -0.6428 -0.2380 -0.1511
  515MOL0     C70966   8.410   2.216   6.714 -0.4485 -0.0885 -0.1745
  515MOL0     C70967   8.407   2.074   6.733 -1.2149  0.2471 -0.1660
  515MOL0     O70968   8.517   2.011   6.787 -0.0164 -1.1439 -0.1699
  515MOL0     C70969   8.536   1.876   6.739  0.3298  0.5876  0.1019
  515MOL0     C70970   8.681   1.832   6.774  0.2836 -0.5527 -0.6964
  515MOL0     C70971   8.789   1.909   6.694 -1.1193  0.8039 -0.0822
  515MOL0     C70972   8.921   1.872   6.753 -0.3070  0.0508 -0.2642
  515MOL0     C70973   9.041   1.930   6.681  0.2046 -0.2902  0.4404
  515MOL0     C70974   9.173   1.910   6.759  1.1885  0.4807 -0.4487
  515MOL0     C70975   9.198   2.025   6.849  0.1444 -1.0354  0.0875
  515MOL0     C70976   9.294   1.990   6.962  0.4121  0.5186  0.0537
  515MOL0    Cl70977   9.199   1.965   7.119 -0.0391 -0.3605 -0.4016
  515MOL0     C70978   8.287   2.006   6.692  0.0679  0.0754 -0.9573
  515MOL0     C70979   8.179   2.077   6.633 -0.3875 -0.3294  0.5750
  515MOL0     O70980   8.049   2.223   6.367  0.1477 -0.5930  0.0542
  515MOL0     C70981   7.882   2.493   6.560  0.1583 -0.9711 -0.3323
  515MOL0     C70982   7.794   2.599   6.539  0.4346  0.3447 -0.0463
  515MOL0     N70983   7.327   3.269   6.391 -0.0134  0.1447  0.5590
  515MOL0     N70984   7.221   3.306   6.326 -0.1743 -0.6308  0.4366
  515MOL0     C70985   6.349   2.761   5.998 -0.3308 -0.0712  0.7776
  515MOL0     C70986   6.219   2.720   6.032 -0.5712 -0.0118 -0.6713
  515MOL0     C70987   5.788   2.650   6.024  0.4653 -0.4182  0.0175
  515MOL0     C70988   5.755   2.529   5.960  0.3561 -0.7310 -0.4764
  515MOL0     C70989   5.655   2.461   6.010 -0.0970  0.4736 -0.5168
  515MOL0     C70990   5.564   2.499   6.112 -1.1292  0.2256 -0.0078
  515MOL0     O70991   5.440   2.432   6.140  0.1913  0.0246  0.4916
  515MOL0     C70992   5.376   2.349   6.045  0.3065  0.4656  0.0434
  515MOL0     C70993   5.233   2.324   6.098  0.7137  0.0400  0.4291
  515MOL0     C70994   5.195   2.177   6.130 -0.5789  1.3711  0.2511
  515MOL0     C70995   5.057   2.160   6.187 -0.0231  0.0084  0.2141
  515MOL0     C70996   5.030   2.023   6.211 -0.3761 -0.4398  0.0038
  515MOL0     C70997   5.013   1.910   6.256 -0.6303 -0.1691 -0.4502
  515MOL0     C70998   5.589   2.626   6.164  0.3817  0.1061 -0.0564
  515MOL0     C70999   5.701   2.710   6.122  0.0644  0.2458 -0.3739
  515MOL0     C71000   5.727   2.832   6.200  0.4015 -0.5829 -0.9655
  515MOL0     H71001   6.101   2.657   5.721  2.3700 -1.5555 -1.4272
  515MOL0     H71002   6.321   2.758   5.664  1.2885  1.2328  0.2394
  515MOL0     H71003   6.638   2.992   5.846 -0.0582 -1.8568 -2.0441
  515MOL0     H71004   6.581   2.927   5.998  0.7170  1.1585 -0.0044
  515MOL0     H71005   6.421   3.093   5.822  1.3466  2.2677  0.2272
  515MOL0     H71006   6.356   3.032   5.979 -0.8714  2.5302 -0.0252
  515MOL0     H71007   6.599   3.220   5.949  2.9079  0.3445  3.3726
  515MOL0     H71008   6.436   3.271   5.975  2.1500  0.5600 -0.8900
  515MOL0     H71009   6.533   3.297   6.170  0.7618 -1.0148  2.6611
  515MOL0     H71010   6.437   3.163   6.200  1.9072 -1.8871  1.6094
  515MOL0     H71011   6.684   3.031   6.167  0.6148  0.0578 -0.5795
  515MOL0     H71012   6.642   3.138   6.301 -4.1341 -3.6610 -0.3548
  515MOL0     H71013   6.821   3.169   6.054 -0.3816 -1.1299 -0.7033
  515MOL0     H71014   6.773   3.318   6.146  0.3637  0.9085  2.5920
  515MOL0     H71015   6.887   3.072   6.284  3.8207  0.5349  3.6310
  515MOL0     H71016   6.897   3.232   6.344  0.2666 -1.6389  1.6049
  515MOL0     H71017   7.075   3.117   6.118  2.3970 -0.6975  1.0066
  515MOL0     H71018   7.051   3.292   6.144 -3.8210 -0.2699 -1.8240
  515MOL0     H71019   7.175   2.976   6.366 -0.7724 -0.2999  0.6463
  515MOL0     H71020   7.357   3.002   6.574 -2.0219  1.1155 -0.2731
  515MOL0     H71021   7.457   3.155   6.570  2.7432  0.4248 -1.8872
  515MOL0     H71022   7.606   3.074   6.404  3.5069  0.9693  4.9450
  515MOL0     H71023   7.605   2.948   6.518  3.2232  0.1733 -3.0898
  515MOL0     H71024   7.400   2.842   6.395 -1.1011  0.6941 -0.3633
  515MOL0     H71025   7.446   2.944   6.257  1.7808 -0.5157 -0.3130
  515MOL0     H71026   7.565   2.737   6.224 -2.9082 -0.3998  0.8188
  515MOL0     H71027   7.692   2.854   6.274 -0.1415 -0.1620 -0.7477
  515MOL0     H71028   7.716   2.582   6.221 -3.1172  0.4270  0.9480
  515MOL0     H71029   7.847   2.418   6.096  0.2384 -0.7049  1.1581
  515MOL0     H71030   7.876   2.269   6.191 -0.7929 -0.5767 -0.5300
  515MOL0     H71031   8.002   2.377   6.166  0.0440  0.3416  0.7835
  515MOL0     H71032   8.313   2.395   6.646  0.0736 -0.2091  0.5074
  515MOL0     H71033   8.503   2.267   6.737 -0.6278  0.5520 -0.8676
  515MOL0     H71034   8.464   1.815   6.794  0.5583  0.9643  0.8276
  515MOL0     H71035   8.529   1.881   6.630 -4.1379 -1.7536  0.0682
  515MOL0     H71036   8.688   1.850   6.882 -1.0681  1.5707 -0.9027
  515MOL0     H71037   8.698   1.725   6.760  1.7330 -0.1734 -2.0831
  515MOL0     H71038   8.770   2.017   6.693 -0.3429  0.9592  0.6816
  515MOL0     H71039   8.781   1.879   6.589  0.3461 -0.0129  0.0161
  515MOL0     H71040   8.935   1.764   6.763 -0.5361 -0.0191 -0.6808
  515MOL0     H71041   8.927   1.915   6.853  0.6231  1.1180 -0.7454
  515MOL0     H71042   9.048   1.870   6.589  0.9188 -0.5391  0.6508
  515MOL0     H71043   9.025   2.036   6.658  0.4598  0.6029  3.8545
  515MOL0     H71044   9.255   1.903   6.687  3.1931 -0.3151  1.7279
  515MOL0     H71045   9.157   1.821   6.821  2.0408  1.8947  1.9698
  515MOL0     H71046   9.103   2.071   6.879  0.3927  0.1605 -0.8630
  515MOL0     H71047   9.236   2.107   6.787 -1.8394 -1.3181 -1.5948
  515MOL0     H71048   9.352   2.081   6.982 -0.6538  0.5708  3.3599
  515MOL0     H71049   9.363   1.910   6.936  0.3049 -0.6728  3.0929
  515MOL0     H71050   8.272   1.899   6.698  0.7974  0.0186  0.0675
  515MOL0     H71051   8.087   2.028   6.605 -1.7733  2.6320 -0.4356
  515MOL0     H71052   7.915   2.478   6.662  1.3685  1.3293 -0.3367
  515MOL0     H71053   7.764   2.660   6.624 -0.2978  0.0956 -0.1174
  515MOL0     H71054   6.411   2.787   6.083  0.2138  1.2836  0.0058
  515MOL0     H71055   6.171   2.703   6.128 -2.3034  0.5707 -1.4118
  515MOL0     H71056   5.824   2.495   5.884  2.1469 -0.0313  0.7832
  515MOL0     H71057   5.629   2.367   5.962 -0.3150 -0.2718  0.9962
  515MOL0     H71058   5.368   2.407   5.952  0.6149  0.0106 -0.2710
  515MOL0     H71059   5.421   2.254   6.016  2.0957  0.2166  3.1739
  515MOL0     H71060   5.148   2.359   6.038 -0.5029 -0.9069  1.5310
  515MOL0     H71061   5.224   2.390   6.184  0.0877  1.9343 -1.0020
  515MOL0     H71062   5.198   2.122   6.035 -4.9846  2.4607 -0.7440
  515MOL0     H71063   5.263   2.135   6.204 -0.4779 -3.0043 -2.0283
  515MOL0     H71064   4.987   2.204   6.115  0.5818  0.4465 -0.1172
  515MOL0     H71065   5.053   2.221   6.278  1.1170 -3.3975  2.7340
  515MOL0     H71066   4.976   1.814   6.288 -0.3967 -0.1111 -0.0105
  515MOL0     H71067   5.525   2.649   6.249  1.2455 -2.5918  1.4575
  515MOL0     H71068   5.658   2.911   6.167 -0.4801 -1.3914 -1.0825
  515MOL0     H71069   5.704   2.816   6.305  2.4124  0.6381 -0.2872
  515MOL0     H71070   5.829   2.871   6.194  1.2848 -1.9675  2.5890
  516MOL0     O71071   1.306   1.655   4.820 -0.1701  0.0613 -0.3511
  516MOL0     C71072   1.242   1.624   4.719  0.0476  0.0550 -0.2497
  516MOL0     O71073   1.287   1.582   4.592  0.1215  0.4205 -0.1585
  516MOL0     C71074   1.417   1.615   4.567  0.3836 -0.1459 -0.2459
  516MOL0     C71075   1.453   1.742   4.524 -0.4213 -0.0250 -0.8438
  516MOL0     C71076   1.589   1.770   4.491  0.0121  0.3069 -0.2555
  516MOL0     C71077   1.689   1.682   4.533 -0.4682 -0.1052 -0.0189
  516MOL0     O71078   1.820   1.724   4.497  0.7033 -0.1973  0.7788
  516MOL0     C71079   1.928   1.639   4.549 -0.2098 -0.8969 -0.2354
  516MOL0     C71080   2.067   1.694   4.504 -0.6683  0.4033 -1.0248
  516MOL0     C71081   2.131   1.782   4.615 -0.7238  0.2306 -0.0306
  516MOL0     C71082   2.162   1.710   4.741 -0.5589 -0.1937 -0.1070
  516MOL0     C71083   2.150   1.812   4.855 -0.5774  1.2840 -0.7887
  516MOL0     C71084   2.196   1.740   4.994 -0.4085 -0.0350  0.2322
  516MOL0     C71085   2.170   1.837   5.117  0.8910  0.3948  0.0371
  516MOL0     C71086   2.174   1.759   5.249 -0.6949  0.4748  0.1300
  516MOL0     N71087   2.302   1.692   5.279  0.7804  0.3821  0.0790
  516MOL0     C71088   2.315   1.558   5.257 -0.3368  0.3518  0.5458
  516MOL0     C71089   2.446   1.534   5.226 -0.2259 -0.7032  1.5561
  516MOL0     C71090   2.513   1.415   5.157 -0.0437 -0.5277 -0.0138
  516MOL0     C71091   2.669   1.448   5.152 -0.0816  0.2741 -0.4962
  516MOL0     C71092   2.744   1.409   5.281 -0.7434 -0.1867  0.6179
  516MOL0     C71093   2.864   1.506   5.296 -0.3378  0.2768 -0.4573
  516MOL0     O71094   2.956   1.449   5.392 -0.0709 -0.3916  0.0767
  516MOL0     C71095   3.087   1.413   5.348  1.1138  0.6150  0.2952
  516MOL0     C71096   3.117   1.369   5.223 -0.7438 -0.4714  0.1034
  516MOL0     C71097   3.246   1.327   5.193  0.6557  0.0954 -0.3789
  516MOL0     C71098   3.279   1.299   5.047  0.4387  0.3635  1.0139
  516MOL0     C71099   3.343   1.329   5.296  0.5513  0.1927  0.3014
  516MOL0     C71100   3.474   1.264   5.272 -0.1042 -0.7739  0.0207
  516MOL0     O71101   3.575   1.304   5.354  0.3944  0.3123  0.0778
  516MOL0     C71102   3.674   1.209   5.396 -0.2399 -0.8434  0.3103
  516MOL0     C71103   3.790   1.271   5.442  0.0516  0.0618 -0.0436
  516MOL0     C71104   3.895   1.190   5.496  1.2185 -0.9270  0.5468
  516MOL0     C71105   3.889   1.052   5.499 -0.0769  0.1236  0.2580
  516MOL0     O71106   3.978   0.977   5.568 -0.4743 -0.1710  0.3906
  516MOL0     C71107   4.108   1.012   5.623  0.4097  0.4070  1.0986
  516MOL0     C71108   4.208   1.041   5.506 -0.7189  0.4856  1.1787
  516MOL0     C71109   4.355   1.028   5.550 -0.1707  0.6211 -0.5541
  516MOL0     C71110   4.457   1.076   5.443  0.2145 -0.3128 -0.0017
  516MOL0     C71111   4.590   0.991   5.449  0.1079 -0.6624 -0.6603
  516MOL0     C71112   4.589   0.874   5.353  0.4839 -0.1072 -0.1085
  516MOL0     C71113   4.468   0.782   5.347  0.6554 -0.0768 -0.4026
  516MOL0     C71114   4.503   0.655   5.269  0.5155 -0.8444 -1.2752
  516MOL0    Cl71115   4.348   0.566   5.264 -0.0476 -0.2017  0.3389
  516MOL0     C71116   3.766   0.996   5.455  0.2703 -0.3061 -0.7912
  516MOL0     C71117   3.662   1.072   5.407  0.8050 -0.5902 -0.2505
  516MOL0     O71118   3.472   1.167   5.200  0.6165  0.2670 -0.4979
  516MOL0     C71119   3.306   1.381   5.421 -0.0428 -0.2511  0.2046
  516MOL0     C71120   3.179   1.422   5.449  1.0213 -1.5045  0.0326
  516MOL0     N71121   2.507   1.659   5.239 -0.7401 -0.0079  0.2502
  516MOL0     N71122   2.423   1.749   5.275 -0.0292  0.4506  0.1958
  516MOL0     C71123   1.658   1.560   4.583 -0.9734  0.3393 -0.7658
  516MOL0     C71124   1.526   1.527   4.602  0.2254  0.2301 -0.2222
  516MOL0     C71125   1.093   1.609   4.737 -0.5203  0.6786  0.0412
  516MOL0     C71126   1.017   1.522   4.652  0.2410 -1.1329 -0.5555
  516MOL0     C71127   0.882   1.498   4.681 -0.3282  0.3065 -0.0202
  516MOL0     C71128   0.817   1.551   4.785  0.0956  0.1613  0.0494
  516MOL0     O71129   0.687   1.518   4.796  0.1265 -1.7053  0.3784
  516MOL0     C71130   0.600   1.624   4.753  0.4041 -0.2877 -0.3420
  516MOL0     C71131   0.487   1.569   4.667 -0.2532  0.8825 -0.8506
  516MOL0     C71132   0.539   1.550   4.527 -1.1523  0.5801  0.5077
  516MOL0     C71133   0.441   1.490   4.430 -0.2596 -0.1212 -0.0041
  516MOL0     C71134   0.501   1.425   4.320  0.4889  0.1713  0.4564
  516MOL0     C71135   0.542   1.355   4.236  0.5513  0.3287 -0.6214
  516MOL0     C71136   0.879   1.647   4.859  0.5162 -0.5968  0.8940
  516MOL0     C71137   1.014   1.677   4.836 -0.2346 -0.3643 -0.8175
  516MOL0     C71138   1.075   1.792   4.917  0.2952 -0.3031 -0.8711
  516MOL0     H71139   1.377   1.819   4.513  0.2476  0.6950 -0.4964
  516MOL0     H71140   1.623   1.858   4.438 -1.0328 -0.4644 -2.3310
  516MOL0     H71141   1.914   1.535   4.518  1.5160 -2.2828  3.0548
  516MOL0     H71142   1.909   1.652   4.656  1.0239  1.3499 -0.2362
  516MOL0     H71143   2.138   1.614   4.477  2.8130  2.0086  2.4333
  516MOL0     H71144   2.055   1.750   4.411  3.0242  3.0112 -0.1714
  516MOL0     H71145   2.237   1.803   4.596  0.0441 -3.5289 -0.6254
  516MOL0     H71146   2.079   1.878   4.618  1.6520  1.6184 -0.5419
  516MOL0     H71147   2.102   1.623   4.767  1.8496 -1.7777  0.4337
  516MOL0     H71148   2.266   1.676   4.750 -0.4951 -0.0942 -0.4503
  516MOL0     H71149   2.045   1.841   4.862 -0.5112  1.5298 -0.8021
  516MOL0     H71150   2.207   1.906   4.850  0.1683  1.0996  2.2109
  516MOL0     H71151   2.148   1.645   5.020  3.7081 -2.8938 -1.5665
  516MOL0     H71152   2.304   1.724   4.991 -0.4437 -0.1643 -0.9387
  516MOL0     H71153   2.074   1.889   5.108  2.1811  2.6129 -2.4012
  516MOL0     H71154   2.237   1.923   5.127 -1.4879  2.5983 -1.6528
  516MOL0     H71155   2.146   1.837   5.320 -0.6700  1.5767 -1.0315
  516MOL0     H71156   2.092   1.687   5.255 -0.6542  0.4356  0.2199
  516MOL0     H71157   2.234   1.485   5.259 -0.2530  0.1633 -1.3716
  516MOL0     H71158   2.474   1.397   5.057 -0.3077  0.8045 -0.1590
  516MOL0     H71159   2.500   1.321   5.212  3.1109 -2.7191 -2.6517
  516MOL0     H71160   2.708   1.387   5.070 -0.3540 -0.9827  0.2830
  516MOL0     H71161   2.689   1.552   5.123 -0.2729  0.4831  0.0982
  516MOL0     H71162   2.678   1.409   5.369 -1.4565 -1.0876  0.1086
  516MOL0     H71163   2.769   1.303   5.273 -0.9478 -0.3516  1.9053
  516MOL0     H71164   2.920   1.524   5.204 -0.1447  0.5172 -0.2944
  516MOL0     H71165   2.824   1.599   5.339  3.6695  1.1193  2.0067
  516MOL0     H71166   3.059   1.378   5.131  2.3738  1.7716 -1.8209
  516MOL0     H71167   3.259   1.200   5.006 -1.2127 -0.3245  3.3016
  516MOL0     H71168   3.387   1.316   5.036  0.5175  0.1427  1.4481
  516MOL0     H71169   3.227   1.366   4.978 -3.4266 -2.3359  0.9748
  516MOL0     H71170   3.804   1.376   5.419 -4.1294  0.5620 -1.3112
  516MOL0     H71171   3.990   1.233   5.525 -0.0938  1.1432  2.0529
  516MOL0     H71172   4.094   1.103   5.681 -3.8783  1.8501 -1.7016
  516MOL0     H71173   4.144   0.931   5.687  1.8473  0.9791  1.0469
  516MOL0     H71174   4.183   0.974   5.424  0.1162  0.6698  0.7659
  516MOL0     H71175   4.203   1.144   5.469  0.3869 -0.4077 -1.7070
  516MOL0     H71176   4.373   0.925   5.580  0.2833  0.4132 -1.5054
  516MOL0     H71177   4.369   1.090   5.640 -0.5536 -0.2151  0.0950
  516MOL0     H71178   4.480   1.180   5.468 -1.6394 -0.6324  3.7089
  516MOL0     H71179   4.400   1.097   5.352 -3.5806  1.4382  2.5487
  516MOL0     H71180   4.673   1.049   5.407  1.8435 -2.1915  0.4835
  516MOL0     H71181   4.626   0.988   5.553 -0.5089  0.8874 -0.3646
  516MOL0     H71182   4.678   0.816   5.381 -1.7728 -2.7402  2.2996
  516MOL0     H71183   4.596   0.913   5.252 -2.5985  0.1810 -0.3146
  516MOL0     H71184   4.380   0.836   5.312  0.4565  0.8347  1.3892
  516MOL0     H71185   4.440   0.752   5.449  1.8563  3.5644  1.1454
  516MOL0     H71186   4.571   0.595   5.330 -0.5766 -0.7742  0.0677
  516MOL0     H71187   4.544   0.666   5.169  1.6644 -0.0714 -0.7284
  516MOL0     H71188   3.743   0.891   5.473  0.7685 -0.4888 -1.2178
  516MOL0     H71189   3.568   1.024   5.380  0.8049  0.0079 -1.3561
  516MOL0     H71190   3.366   1.382   5.511 -1.6949  0.4145  1.3655
  516MOL0     H71191   3.165   1.469   5.546  0.3846  0.4358 -0.9335
  516MOL0     H71192   1.727   1.481   4.608 -1.2745  0.2858 -0.0693
  516MOL0     H71193   1.501   1.429   4.642  2.8578 -0.4767 -0.1444
  516MOL0     H71194   1.068   1.479   4.566 -0.1127  0.2899 -1.5160
  516MOL0     H71195   0.830   1.431   4.613 -0.9539  0.7761 -0.0128
  516MOL0     H71196   0.560   1.665   4.846  2.9543  1.6921 -0.0018
  516MOL0     H71197   0.653   1.704   4.700 -0.6548 -1.2696 -3.0588
  516MOL0     H71198   0.399   1.634   4.672 -2.5712 -2.0898  1.4356
  516MOL0     H71199   0.452   1.480   4.721  2.4037 -0.6551 -1.5056
  516MOL0     H71200   0.569   1.646   4.484  5.0170 -0.5462  1.4573
  516MOL0     H71201   0.625   1.484   4.526 -2.9178 -1.8490 -1.1847
  516MOL0     H71202   0.374   1.566   4.389  0.5238  0.2162 -0.6762
  516MOL0     H71203   0.381   1.417   4.485 -2.1299 -1.2804 -3.2828
  516MOL0     H71204   0.574   1.296   4.152 -0.7511 -0.8820 -0.3110
  516MOL0     H71205   0.814   1.692   4.934 -2.3130 -0.6406 -1.3532
  516MOL0     H71206   0.998   1.861   4.952  0.5496  0.9457 -2.6249
  516MOL0     H71207   1.137   1.746   4.995  1.2385 -1.1491 -2.0795
  516MOL0     H71208   1.142   1.850   4.852  1.2898  0.4442  0.7511
  517MOL0     O71209   6.150   2.849   9.337  0.0303  0.0424 -0.3549
  517MOL0     C71210   6.119   2.876   9.224  0.0090  0.2073  0.4759
  517MOL0     O71211   6.205   2.871   9.114 -0.3913  0.2831 -0.3510
  517MOL0     C71212   6.346   2.863   9.128 -0.5429 -0.3267  0.3046
  517MOL0     C71213   6.413   2.753   9.062 -0.9578 -0.3359  0.3424
  517MOL0     C71214   6.551   2.754   9.052  0.2472  0.0853  0.1604
  517MOL0     C71215   6.627   2.846   9.127  0.3949  0.2103  0.0719
  517MOL0     O71216   6.766   2.843   9.102  0.6094 -1.1395 -0.5910
  517MOL0     C71217   6.863   2.935   9.152 -0.3202  0.0771  0.4102
  517MOL0     C71218   6.931   3.015   9.038 -0.6831 -0.4738  0.8320
  517MOL0     C71219   6.975   2.927   8.920 -0.6469  0.2594  0.1656
  517MOL0     C71220   7.107   2.847   8.929 -0.3745 -0.7006 -0.0483
  517MOL0     C71221   7.180   2.860   8.787  0.5352 -0.2799  0.0208
  517MOL0     C71222   7.253   2.991   8.760 -0.1367  0.1604  0.2607
  517MOL0     C71223   7.402   2.965   8.755 -0.1423  0.4110  0.9403
  517MOL0     C71224   7.457   2.899   8.879  0.1541 -0.0174 -0.0580
  517MOL0     N71225   7.602   2.881   8.863 -0.2153 -0.2237  0.5411
  517MOL0     C71226   7.672   2.781   8.795  0.1632 -0.1282  0.5895
  517MOL0     C71227   7.807   2.802   8.825  0.3239 -0.5262 -0.1069
  517MOL0     C71228   7.931   2.720   8.782  0.2662 -0.8099  0.6394
  517MOL0     C71229   8.071   2.768   8.847  0.4715  0.3472 -0.2248
  517MOL0     C71230   8.076   2.740   9.002 -0.5875 -0.2931 -0.5673
  517MOL0     C71231   8.086   2.586   9.030  0.2067 -0.1157  0.2905
  517MOL0     O71232   8.167   2.514   8.941 -0.4492  0.5036  0.2253
  517MOL0     C71233   8.284   2.460   8.982  0.7761  1.0210  0.4803
  517MOL0     C71234   8.340   2.365   8.895 -0.0738  0.0561 -0.8686
  517MOL0     C71235   8.465   2.301   8.928 -0.8616  0.0644  0.1686
  517MOL0     C71236   8.512   2.191   8.838 -0.0415 -0.2426  0.6195
  517MOL0     C71237   8.543   2.344   9.046  0.0523 -0.5621  0.4356
  517MOL0     C71238   8.684   2.312   9.081 -0.0003 -0.4952  0.0815
  517MOL0     O71239   8.739   2.378   9.188 -0.5543  0.1379 -0.1379
  517MOL0     C71240   8.857   2.324   9.236  0.3638 -0.5358  0.3312
  517MOL0     C71241   8.847   2.211   9.322  0.0720  0.3470  1.2169
  517MOL0     C71242   8.955   2.157   9.385  1.0853  0.1076 -0.2071
  517MOL0     C71243   9.082   2.218   9.367  0.1701  0.3000  0.6106
  517MOL0     O71244   9.182   2.169   9.446  0.4128 -0.0881 -0.2433
  517MOL0     C71245   9.309   2.224   9.419 -0.3299  0.7283 -0.6002
  517MOL0     C71246   9.422   2.162   9.513 -0.6521  0.0945  0.2366
  517MOL0     C71247   9.553   2.217   9.473  0.3348  0.2518  0.4160
  517MOL0     C71248   9.664   2.166   9.558  0.3816  0.9653  0.4126
  517MOL0     C71249   9.788   2.217   9.490 -0.1736  0.2348  0.2183
  517MOL0     C71250   9.913   2.140   9.554  0.1788  0.3697  0.2110
  517MOL0     C71251  10.030   2.239   9.571 -0.0289 -1.1871 -0.2294
  517MOL0     C71252  10.118   2.265   9.441 -0.7061 -0.3437 -0.1339
  517MOL0    Cl71253  10.189   2.101   9.408  0.0734  0.0628 -0.0488
  517MOL0     C71254   9.090   2.333   9.286  0.3126 -0.4086 -0.0649
  517MOL0     C71255   8.976   2.393   9.225  0.4353 -0.1596  1.2503
  517MOL0     O71256   8.745   2.237   9.005  0.7117  0.5406 -0.7345
  517MOL0     C71257   8.480   2.444   9.125  0.4440  0.0631 -0.5986
  517MOL0     C71258   8.353   2.488   9.100 -0.5448 -0.3492  0.0000
  517MOL0     N71259   7.806   2.923   8.897 -0.1457 -0.4248  0.0601
  517MOL0     N71260   7.691   2.968   8.914  0.1326  0.9215 -0.5530
  517MOL0     C71261   6.559   2.944   9.207 -0.5652 -0.8595 -0.0354
  517MOL0     C71262   6.424   2.949   9.212  0.0900 -0.8733 -0.1138
  517MOL0     C71263   5.974   2.881   9.190  0.2511  0.5168 -0.3346
  517MOL0     C71264   5.938   2.839   9.063  0.3403  0.4088 -0.5153
  517MOL0     C71265   5.805   2.859   9.011 -0.0556 -0.5227 -0.7862
  517MOL0     C71266   5.701   2.892   9.101  0.0550 -0.1975 -0.1640
  517MOL0     O71267   5.565   2.887   9.069  0.1175 -0.2976 -0.5611
  517MOL0     C71268   5.523   2.836   8.945  0.3403  0.5823 -0.0986
  517MOL0     C71269   5.364   2.829   8.949 -0.9464  0.4365 -0.4212
  517MOL0     C71270   5.308   2.780   8.818  0.0487  0.2917  0.8954
  517MOL0     C71271   5.373   2.644   8.780  0.3028  0.1167 -0.4931
  517MOL0     C71272   5.299   2.569   8.679 -0.6627  0.2790  0.8142
  517MOL0     C71273   5.268   2.509   8.582 -0.0861  0.7069 -0.1695
  517MOL0     C71274   5.736   2.918   9.235 -0.1363 -0.8234  0.7386
  517MOL0     C71275   5.870   2.917   9.275 -0.1771 -0.3680  0.3807
  517MOL0     C71276   5.895   2.998   9.402  0.5179  0.0814  0.5966
  517MOL0     H71277   6.349   2.702   8.992 -2.1108  1.6528 -0.1379
  517MOL0     H71278   6.606   2.692   8.982 -2.0386 -1.7311 -0.1520
  517MOL0     H71279   6.937   2.873   9.203 -0.0506  0.0971  0.0458
  517MOL0     H71280   6.818   3.006   9.222 -2.1924  0.2270 -0.8694
  517MOL0     H71281   6.873   3.100   9.001  0.6715  0.0023 -0.2989
  517MOL0     H71282   7.022   3.056   9.084  0.0465 -0.9390 -0.1427
  517MOL0     H71283   6.897   2.851   8.909  0.5021 -1.0466  0.8471
  517MOL0     H71284   6.977   2.982   8.825 -3.3199 -0.5085 -0.4385
  517MOL0     H71285   7.164   2.886   9.013 -0.2842  2.3817 -1.4016
  517MOL0     H71286   7.076   2.744   8.946 -3.5834  0.2682  0.7265
  517MOL0     H71287   7.102   2.844   8.713 -2.1137 -0.3718  2.6590
  517MOL0     H71288   7.254   2.780   8.774  0.3314 -0.1314 -2.5199
  517MOL0     H71289   7.221   3.026   8.662 -2.4845 -0.2690  0.8133
  517MOL0     H71290   7.221   3.066   8.833  2.7572  1.3605  0.4291
  517MOL0     H71291   7.445   3.062   8.728 -2.9152  1.6587  0.6847
  517MOL0     H71292   7.415   2.904   8.665 -0.0389  1.8227 -0.0561
  517MOL0     H71293   7.453   2.970   8.962  2.6614  1.7634 -1.3268
  517MOL0     H71294   7.402   2.805   8.893 -6.4533  3.0498 -1.3206
  517MOL0     H71295   7.637   2.707   8.725  0.1433  1.8956 -1.6692
  517MOL0     H71296   7.939   2.724   8.673 -1.6809 -1.3053  0.4397
  517MOL0     H71297   7.928   2.612   8.797  0.3453 -1.0078 -0.6604
  517MOL0     H71298   8.157   2.728   8.794 -0.4338 -0.0759 -1.4200
  517MOL0     H71299   8.077   2.876   8.829  0.5370  0.6209  1.2646
  517MOL0     H71300   8.166   2.793   9.034 -0.2318  0.9540 -3.3786
  517MOL0     H71301   7.994   2.786   9.059  0.0716 -0.5962  0.6717
  517MOL0     H71302   8.111   2.586   9.137 -0.7395  4.7488  0.6976
  517MOL0     H71303   7.985   2.546   9.024  0.6996 -2.0539  3.0627
  517MOL0     H71304   8.282   2.357   8.804  1.2317 -1.0932 -1.6430
  517MOL0     H71305   8.566   2.117   8.898 -2.4002 -0.8421  2.1588
  517MOL0     H71306   8.576   2.237   8.763  0.1796 -1.3106  0.1305
  517MOL0     H71307   8.437   2.142   8.775  0.3623  4.4037 -4.2051
  517MOL0     H71308   8.749   2.168   9.338 -1.4331  2.1815 -2.1136
  517MOL0     H71309   8.941   2.072   9.452  1.4083 -1.7862 -2.4045
  517MOL0     H71310   9.337   2.198   9.317  3.4171  0.7642  0.2630
  517MOL0     H71311   9.312   2.333   9.425 -0.4628  0.7394 -0.7385
  517MOL0     H71312   9.404   2.193   9.616  1.4368 -1.6284  1.2079
  517MOL0     H71313   9.422   2.054   9.492  0.9738  0.5123 -2.4299
  517MOL0     H71314   9.549   2.326   9.482  0.2391  0.6048 -2.5890
  517MOL0     H71315   9.569   2.184   9.369  2.5278 -1.8726  1.3256
  517MOL0     H71316   9.660   2.057   9.566  0.7737  0.8587 -0.6679
  517MOL0     H71317   9.673   2.216   9.655  1.2711 -1.3221  1.5939
  517MOL0     H71318   9.782   2.185   9.386 -1.2760 -2.2834  0.9750
  517MOL0     H71319   9.804   2.325   9.499  1.6104  0.2420 -2.0958
  517MOL0     H71320   9.942   2.057   9.489 -0.2574  1.8309 -1.9683
  517MOL0     H71321   9.883   2.101   9.651 -3.3061  0.1931 -0.8103
  517MOL0     H71322  10.086   2.188   9.650  2.3960  1.4480 -0.1014
  517MOL0     H71323   9.995   2.336   9.607  0.1368 -1.1691 -0.1162
  517MOL0     H71324  10.203   2.332   9.462 -1.2064  0.7836 -1.5142
  517MOL0     H71325  10.052   2.295   9.359 -1.5233 -3.1213 -0.5924
  517MOL0     H71326   9.181   2.388   9.261 -0.6944  0.8868 -1.0697
  517MOL0     H71327   8.976   2.486   9.170 -1.1238  0.7304  2.6754
  517MOL0     H71328   8.521   2.500   9.208 -1.3219  0.0437  0.3361
  517MOL0     H71329   8.311   2.572   9.154  0.5396  0.2252 -0.0205
  517MOL0     H71330   6.620   3.016   9.260  1.6333 -0.4512 -2.9042
  517MOL0     H71331   6.377   3.029   9.268 -0.1787 -1.5158  0.6018
  517MOL0     H71332   6.008   2.796   8.991  0.9861  0.4525  0.0769
  517MOL0     H71333   5.775   2.824   8.913 -1.5773  0.4120 -0.6793
  517MOL0     H71334   5.559   2.906   8.870  0.0698 -0.4527 -1.2361
  517MOL0     H71335   5.571   2.739   8.931 -0.6443  0.2023 -1.0597
  517MOL0     H71336   5.322   2.925   8.980  0.1023  0.2938  1.6424
  517MOL0     H71337   5.331   2.755   9.022  1.8868  0.1676  0.7219
  517MOL0     H71338   5.199   2.769   8.821  0.0624 -0.5369 -0.7654
  517MOL0     H71339   5.328   2.849   8.736  2.2852  0.8169  1.8133
  517MOL0     H71340   5.368   2.584   8.871 -2.2722  1.3658  0.2604
  517MOL0     H71341   5.477   2.655   8.748  1.8530 -0.5267  3.7667
  517MOL0     H71342   5.237   2.462   8.491 -0.9963 -2.3773  1.5922
  517MOL0     H71343   5.654   2.947   9.301 -1.0018 -2.8260  0.6103
  517MOL0     H71344   5.988   2.981   9.457  1.8514  0.4592 -1.4367
  517MOL0     H71345   5.900   3.105   9.382 -1.1568 -0.1289 -1.3216
  517MOL0     H71346   5.809   2.977   9.466  0.4000 -2.0565 -0.1797
  518MOL0     O71347   3.776   3.714   0.407 -0.1030  0.0579  0.7408
  518MOL0     C71348   3.671   3.666   0.364 -0.3822  0.3688 -0.9210
  518MOL0     O71349   3.663   3.550   0.295  0.6712  0.2193  0.1093
  518MOL0     C71350   3.775   3.494   0.249  0.2552 -0.1509 -0.1730
  518MOL0     C71351   3.850   3.416   0.333  0.1497 -0.3721  0.1197
  518MOL0     C71352   3.967   3.346   0.292  0.3061  1.0262  0.2736
  518MOL0     C71353   4.021   3.381   0.163 -1.2020 -0.0432  0.1896
  518MOL0     O71354   4.145   3.338   0.147  0.7267  0.2839 -0.0842
  518MOL0     C71355   4.194   3.346   0.013 -0.8065 -0.0928  0.6945
  518MOL0     C71356   4.328   3.276  -0.012  0.1330  0.5654 -0.0466
  518MOL0     C71357   4.447   3.355   0.036 -0.1199  0.1517  0.4834
  518MOL0     C71358   4.586   3.299   0.021  0.7183  0.0801  0.1555
  518MOL0     C71359   4.714   3.383   0.056  0.5070  0.1233 -0.5438
  518MOL0     C71360   4.845   3.326   0.012 -0.2845  0.8652  0.1797
  518MOL0     C71361   4.858   3.280  -0.134  0.1192 -0.3602 -0.1066
  518MOL0     C71362   4.972   3.194  -0.145  0.1174  0.1922 -0.7466
  518MOL0     N71363   5.104   3.258  -0.127 -0.0681 -0.1900 -0.6164
  518MOL0     C71364   5.159   3.354  -0.211  0.2318 -0.0835  1.1154
  518MOL0     C71365   5.281   3.387  -0.157  0.8775  1.2215  0.5414
  518MOL0     C71366   5.390   3.493  -0.201  0.3977  0.1814 -0.8897
  518MOL0     C71367   5.521   3.439  -0.225  0.4560  0.7140  0.4489
  518MOL0     C71368   5.610   3.416  -0.102 -0.3264 -0.0372  0.2304
  518MOL0     C71369   5.746   3.336  -0.137 -0.0988 -0.1556  0.0316
  518MOL0     O71370   5.846   3.366  -0.036 -0.2854 -0.3237  0.0353
  518MOL0     C71371   5.973   3.379  -0.092 -0.2991  0.1229 -0.7890
  518MOL0     C71372   6.062   3.301  -0.020 -0.8478 -0.0477  0.7171
  518MOL0     C71373   6.188   3.291  -0.066 -0.1907  0.5234  0.3170
  518MOL0     C71374   6.273   3.193   0.010  0.8422 -0.3331  0.5768
  518MOL0     C71375   6.234   3.365  -0.175 -0.0969 -0.4485  0.4133
  518MOL0     C71376   6.373   3.354  -0.217  0.9760  0.3311  0.3280
  518MOL0     O71377   6.441   3.467  -0.266 -0.6389  0.6128  0.2816
  518MOL0     C71378   6.579   3.463  -0.286 -0.1815 -0.0461 -0.2318
  518MOL0     C71379   6.632   3.395  -0.392  0.9017  0.1348 -0.4588
  518MOL0     C71380   6.762   3.387  -0.422  0.6997  0.3286 -0.9159
  518MOL0     C71381   6.858   3.459  -0.354 -0.8427  0.6847  0.5212
  518MOL0     O71382   6.991   3.445  -0.375 -0.4410 -0.1422  0.4146
  518MOL0     C71383   7.043   3.455  -0.509 -0.5146 -0.2765 -1.4287
  518MOL0     C71384   7.070   3.309  -0.542 -0.4621  0.3984  0.4727
  518MOL0     C71385   7.196   3.254  -0.471 -0.1066  0.2876  0.5142
  518MOL0     C71386   7.191   3.102  -0.478 -0.2230  0.0878  0.7652
  518MOL0     C71387   7.310   3.035  -0.412  0.7033 -0.3217  0.2985
  518MOL0     C71388   7.287   3.028  -0.262 -0.0077  0.6101 -0.7475
  518MOL0     C71389   7.430   3.021  -0.208  0.2191 -0.7210 -0.0248
  518MOL0     C71390   7.439   3.003  -0.054  0.7804 -0.7040  0.1621
  518MOL0    Cl71391   7.587   2.923   0.002 -0.0921  0.2547 -0.0237
  518MOL0     C71392   6.810   3.520  -0.240  0.1074  0.1867 -0.1733
  518MOL0     C71393   6.673   3.530  -0.210  0.2526 -0.4362 -0.0273
  518MOL0     O71394   6.405   3.237  -0.241 -0.2930  0.0206 -0.5235
  518MOL0     C71395   6.147   3.445  -0.245 -0.2774 -0.6294  0.1199
  518MOL0     C71396   6.014   3.452  -0.197  0.0730  0.4913  0.1649
  518MOL0     N71397   5.292   3.305  -0.042 -0.9207  0.6066 -0.1911
  518MOL0     N71398   5.188   3.233  -0.028  0.1985 -0.2686 -0.2678
  518MOL0     C71399   3.953   3.471   0.086  0.9782  0.1766 -0.9224
  518MOL0     C71400   3.829   3.519   0.125  0.0057 -1.0450  0.4528
  518MOL0     C71401   3.544   3.742   0.391 -0.3355  0.8961 -0.4440
  518MOL0     C71402   3.425   3.674   0.372  0.2345  0.0824  0.2575
  518MOL0     C71403   3.297   3.739   0.395  0.1224  0.1046 -0.0396
  518MOL0     C71404   3.294   3.870   0.448  0.1400 -0.3241  0.0911
  518MOL0     O71405   3.177   3.945   0.466 -0.1744  0.2201  0.7692
  518MOL0     C71406   3.044   3.904   0.436  0.4308  0.0002  0.1946
  518MOL0     C71407   3.014   3.893   0.282  0.0612  0.9132 -0.5183
  518MOL0     C71408   3.094   4.003   0.198  0.2762  1.5246  0.2271
  518MOL0     C71409   3.044   4.139   0.220 -0.7611  0.1172 -1.0058
  518MOL0     C71410   2.896   4.154   0.263  0.3455 -0.1251  0.8370
  518MOL0     C71411   2.778   4.173   0.292  0.7089 -0.4636  0.4623
  518MOL0     C71412   3.409   3.938   0.460  1.0853 -0.2777 -0.0563
  518MOL0     C71413   3.529   3.876   0.444 -0.2284 -0.6030  0.2168
  518MOL0     C71414   3.644   3.965   0.487 -0.0149  1.2248  0.8006
  518MOL0     H71415   3.815   3.397   0.434 -1.6553 -0.5909 -0.5075
  518MOL0     H71416   4.002   3.262   0.352 -0.2944  0.1376 -0.5861
  518MOL0     H71417   4.217   3.449  -0.018 -0.2233 -0.4471 -0.1003
  518MOL0     H71418   4.113   3.296  -0.041  0.1445 -3.0547  1.7832
  518MOL0     H71419   4.330   3.177   0.034  3.4240 -0.3893 -1.9041
  518MOL0     H71420   4.341   3.250  -0.117 -0.6227  1.9958 -0.5205
  518MOL0     H71421   4.439   3.451  -0.017 -2.6702 -0.7091 -0.9005
  518MOL0     H71422   4.420   3.381   0.139  1.3781  1.4683  0.5735
  518MOL0     H71423   4.583   3.207   0.079  1.3069 -0.0666 -0.0453
  518MOL0     H71424   4.583   3.275  -0.086 -1.5587 -1.5722  0.5051
  518MOL0     H71425   4.726   3.379   0.165  2.2338  1.1659 -0.6588
  518MOL0     H71426   4.709   3.487   0.025  1.7926  0.6450  0.8795
  518MOL0     H71427   4.928   3.392   0.039 -0.2868  1.8480 -2.0274
  518MOL0     H71428   4.876   3.241   0.074 -2.3311  1.5221  2.2861
  518MOL0     H71429   4.863   3.372  -0.193  2.1379  0.1715  0.7975
  518MOL0     H71430   4.769   3.220  -0.155 -0.1946  0.4184 -1.0372
  518MOL0     H71431   4.975   3.114  -0.070  0.2529 -0.1860 -1.1466
  518MOL0     H71432   4.965   3.143  -0.242 -0.8842 -0.1946 -0.4863
  518MOL0     H71433   5.106   3.413  -0.286  0.2288  0.4236  1.5125
  518MOL0     H71434   5.414   3.564  -0.122  2.0346  0.3981 -1.5462
  518MOL0     H71435   5.345   3.543  -0.288  0.8686 -4.0193 -3.8811
  518MOL0     H71436   5.506   3.337  -0.261  0.9611  0.9919 -0.5742
  518MOL0     H71437   5.559   3.498  -0.309 -2.4754  0.4835 -1.1900
  518MOL0     H71438   5.639   3.509  -0.052  0.1933  0.7622 -1.4989
  518MOL0     H71439   5.547   3.360  -0.032 -1.9176  0.3614 -0.8374
  518MOL0     H71440   5.728   3.230  -0.117  1.1102  0.1149  2.9660
  518MOL0     H71441   5.774   3.357  -0.241  0.5644  1.0656  0.4329
  518MOL0     H71442   6.032   3.242   0.066  0.0480 -1.9405 -0.2069
  518MOL0     H71443   6.261   3.094  -0.035 -1.7316  0.2621 -0.2295
  518MOL0     H71444   6.235   3.191   0.113 -0.4957 -2.8955  0.1145
  518MOL0     H71445   6.379   3.218   0.008  0.6099  0.6947 -0.2322
  518MOL0     H71446   6.557   3.344  -0.452 -2.6826  3.0567  1.1337
  518MOL0     H71447   6.792   3.335  -0.513  0.2997 -0.2554 -0.7234
  518MOL0     H71448   6.968   3.502  -0.572 -0.7124  0.3421 -0.7405
  518MOL0     H71449   7.135   3.513  -0.518  0.7370 -2.3670 -3.2660
  518MOL0     H71450   6.981   3.252  -0.515 -0.3117 -2.4342 -4.0469
  518MOL0     H71451   7.079   3.300  -0.650  1.9089 -1.5391  0.7483
  518MOL0     H71452   7.207   3.292  -0.369 -0.1584  0.1938  0.5550
  518MOL0     H71453   7.288   3.277  -0.525 -0.4599 -0.7269 -0.5711
  518MOL0     H71454   7.187   3.070  -0.583  1.7995  2.3777 -0.0897
  518MOL0     H71455   7.099   3.062  -0.434  0.8675 -2.4067  0.9645
  518MOL0     H71456   7.333   2.935  -0.449 -0.1083 -0.9145  1.3361
  518MOL0     H71457   7.397   3.098  -0.433  1.8137 -1.8480  0.1527
  518MOL0     H71458   7.226   2.944  -0.227  1.3154  0.1873  0.6907
  518MOL0     H71459   7.241   3.120  -0.223  2.3136  1.2857  0.6327
  518MOL0     H71460   7.492   3.107  -0.234 -1.7522 -0.3221 -4.1042
  518MOL0     H71461   7.480   2.936  -0.255  1.1239  0.1661 -0.7044
  518MOL0     H71462   7.363   2.927  -0.032  0.7847 -0.2134  2.0354
  518MOL0     H71463   7.414   3.093   0.002  1.9473  0.4783 -1.1376
  518MOL0     H71464   6.888   3.567  -0.180 -1.7385  1.8118  1.1053
  518MOL0     H71465   6.636   3.591  -0.128 -0.8989 -0.6793 -0.3436
  518MOL0     H71466   6.172   3.506  -0.332 -0.8941 -0.3130  0.1604
  518MOL0     H71467   5.939   3.506  -0.254  0.2330 -2.5124 -3.2616
  518MOL0     H71468   3.993   3.521  -0.002 -0.1544 -0.3799 -1.7743
  518MOL0     H71469   3.774   3.579   0.054 -0.0597 -2.6283 -0.8905
  518MOL0     H71470   3.431   3.581   0.318  0.8846  2.0264 -3.2984
  518MOL0     H71471   3.205   3.683   0.380 -2.4801  4.0307 -0.0353
  518MOL0     H71472   3.019   3.811   0.488  2.2233  0.9301  2.9484
  518MOL0     H71473   2.977   3.977   0.482 -1.2983 -1.2805 -0.1759
  518MOL0     H71474   2.907   3.901   0.261 -0.5607 -0.7450  1.6471
  518MOL0     H71475   3.053   3.796   0.248  0.3804  0.7508  0.2847
  518MOL0     H71476   3.202   3.998   0.209  0.2156  1.6406  0.9092
  518MOL0     H71477   3.069   3.978   0.095 -0.5232  0.5590  0.6385
  518MOL0     H71478   3.054   4.207   0.135  1.2876  2.9439  1.2868
  518MOL0     H71479   3.104   4.177   0.303 -1.0820 -1.6234  0.0609
  518MOL0     H71480   2.673   4.180   0.314 -0.0456 -1.9320 -2.2111
  518MOL0     H71481   3.407   4.043   0.489 -1.7100 -0.2291 -0.1774
  518MOL0     H71482   3.662   4.036   0.406 -0.4190 -0.0772 -0.4770
  518MOL0     H71483   3.616   4.004   0.585  1.8029 -1.0398  2.3439
  518MOL0     H71484   3.745   3.928   0.509  0.7782  0.8898 -2.8237
  519MOL0     O71485   6.408   0.390   5.169  0.1234 -1.0288 -0.1600
  519MOL0     C71486   6.480   0.411   5.268  0.7088 -0.1188 -0.3980
  519MOL0     O71487   6.456   0.350   5.387 -0.0604 -0.2227  0.4850
  519MOL0     C71488   6.359   0.259   5.407 -0.3472 -0.3305  0.5150
  519MOL0     C71489   6.253   0.288   5.488 -0.5459  0.9710  0.1847
  519MOL0     C71490   6.164   0.180   5.512 -0.1492 -0.1958  0.7576
  519MOL0     C71491   6.193   0.043   5.461  0.3209 -0.8975  0.0570
  519MOL0     O71492   6.111  -0.058   5.509 -0.7878  0.4656 -0.0869
  519MOL0     C71493   6.011  -0.090   5.414  0.4866  0.1388 -0.2858
  519MOL0     C71494   6.037  -0.215   5.324 -0.0716  0.3260 -0.0538
  519MOL0     C71495   5.912  -0.270   5.260  0.2143 -0.2501 -0.3346
  519MOL0     C71496   5.868  -0.185   5.139 -0.8970  0.2838  0.1543
  519MOL0     C71497   5.815  -0.262   5.014 -0.6441  0.1209  0.3405
  519MOL0     C71498   5.684  -0.329   5.057  0.6109  0.2034 -0.8841
  519MOL0     C71499   5.660  -0.466   4.980 -0.7510 -0.9592 -0.0089
  519MOL0     C71500   5.535  -0.542   5.028 -0.6278 -0.3996 -0.9485
  519MOL0     N71501   5.422  -0.448   5.034  0.1964 -0.9460 -0.1895
  519MOL0     C71502   5.375  -0.368   5.140  0.6171 -0.3008 -0.1053
  519MOL0     C71503   5.255  -0.331   5.100  0.5873  0.6952 -0.4682
  519MOL0     C71504   5.152  -0.253   5.181 -0.0578  0.0178  0.5205
  519MOL0     C71505   5.082  -0.355   5.276 -0.0741 -0.1494  0.1172
  519MOL0     C71506   4.960  -0.293   5.347  0.2675 -0.4065  0.5756
  519MOL0     C71507   4.879  -0.392   5.423  0.7218 -1.0755  0.0773
  519MOL0     O71508   4.848  -0.335   5.552 -0.0956  0.4896  0.7620
  519MOL0     C71509   4.717  -0.327   5.576 -0.1419 -0.4613  0.5837
  519MOL0     C71510   4.639  -0.231   5.514 -0.5894 -0.8266  0.3144
  519MOL0     C71511   4.495  -0.214   5.550  0.1949  0.0688  0.7032
  519MOL0     C71512   4.439  -0.093   5.491 -0.5985 -0.3570  0.1690
  519MOL0     C71513   4.430  -0.305   5.634 -0.6936  0.3364  0.0920
  519MOL0     C71514   4.283  -0.316   5.655 -0.1200 -0.5958  0.3560
  519MOL0     O71515   4.249  -0.424   5.737  0.0196  0.6011  0.2832
  519MOL0     C71516   4.125  -0.475   5.730  0.1129  0.7493 -0.1887
  519MOL0     C71517   4.077  -0.547   5.617  0.2205 -0.3247  0.7783
  519MOL0     C71518   3.946  -0.602   5.620  0.4902  0.4339 -0.5086
  519MOL0     C71519   3.861  -0.591   5.733 -0.4961  0.1001  0.8853
  519MOL0     O71520   3.734  -0.634   5.715 -0.1081  0.2985 -0.4016
  519MOL0     C71521   3.672  -0.678   5.837 -0.2886 -0.1123 -0.2167
  519MOL0     C71522   3.527  -0.733   5.808 -0.4587  0.0501 -0.3991
  519MOL0     C71523   3.431  -0.709   5.923 -0.4245 -0.8595 -0.3047
  519MOL0     C71524   3.300  -0.774   5.914  0.2585  0.7114  0.3733
  519MOL0     C71525   3.285  -0.911   5.986 -0.2635 -0.0885  0.1819
  519MOL0     C71526   3.148  -0.994   5.986  0.1619  0.6692 -0.4762
  519MOL0     C71527   3.035  -0.910   6.046  0.9441 -0.3855  0.0449
  519MOL0     C71528   3.074  -0.858   6.189 -0.4045 -0.8462 -0.2744
  519MOL0    Cl71529   3.127  -0.994   6.306  0.0332 -0.2195  0.3380
  519MOL0     C71530   3.913  -0.530   5.852  0.2273  0.3215  0.2196
  519MOL0     C71531   4.036  -0.468   5.841 -0.2454  0.0962  0.7657
  519MOL0     O71532   4.201  -0.241   5.602  0.7258  0.0142  0.6212
  519MOL0     C71533   4.522  -0.397   5.698  0.2155 -1.2343 -1.2824
  519MOL0     C71534   4.659  -0.403   5.670 -0.1231 -0.6964 -0.1138
  519MOL0     N71535   5.225  -0.386   4.978  0.4758 -0.6710  0.5494
  519MOL0     N71536   5.326  -0.452   4.938 -1.0133 -0.4487 -0.1621
  519MOL0     C71537   6.300   0.023   5.366 -0.3335 -0.7965 -0.3242
  519MOL0     C71538   6.384   0.135   5.346  0.3074 -0.3893  0.0546
  519MOL0     C71539   6.601   0.501   5.243 -0.6973  0.1682  0.2718
  519MOL0     C71540   6.713   0.472   5.311  0.0508  0.2076  0.3952
  519MOL0     C71541   6.832   0.524   5.274 -0.4672 -1.0603 -0.3074
  519MOL0     C71542   6.837   0.626   5.178 -0.1418  1.7347  0.4380
  519MOL0     O71543   6.960   0.665   5.145  0.4291 -0.2007  0.2277
  519MOL0     C71544   6.974   0.783   5.069 -0.1004 -0.2640  0.3853
  519MOL0     C71545   7.116   0.829   5.064 -0.3437  0.8659  0.3761
  519MOL0     C71546   7.166   0.878   5.200  0.1380  0.0848  0.9259
  519MOL0     C71547   7.289   0.959   5.192 -0.0694 -0.6881  0.5118
  519MOL0     C71548   7.403   0.889   5.133 -0.5354  0.3407  0.1632
  519MOL0     C71549   7.504   0.834   5.093 -0.7138 -1.7745  0.4288
  519MOL0     C71550   6.717   0.669   5.116  0.1451 -0.3902 -0.4896
  519MOL0     C71551   6.600   0.614   5.157  0.1346 -0.3798 -0.2448
  519MOL0     C71552   6.480   0.677   5.102  0.4398 -0.4591  0.5675
  519MOL0     H71553   6.253   0.388   5.530  3.7726  0.4156  2.0704
  519MOL0     H71554   6.080   0.197   5.578  0.1510  0.0594  1.0771
  519MOL0     H71555   6.005  -0.012   5.338  4.0899 -0.4674 -1.3667
  519MOL0     H71556   5.919  -0.105   5.471 -0.9662  1.6515 -2.1183
  519MOL0     H71557   6.116  -0.190   5.253  0.1906  0.8995  0.4266
  519MOL0     H71558   6.081  -0.293   5.387  1.8414  0.8810 -0.6272
  519MOL0     H71559   5.930  -0.372   5.224  1.0954 -0.8576  1.6997
  519MOL0     H71560   5.834  -0.286   5.335  2.6199 -0.2282  2.3359
  519MOL0     H71561   5.792  -0.114   5.171  1.3197  2.2651  1.3774
  519MOL0     H71562   5.959  -0.131   5.109  0.5313 -0.8040  2.3165
  519MOL0     H71563   5.894  -0.332   4.985 -1.9456 -1.5074  0.5356
  519MOL0     H71564   5.792  -0.192   4.933  0.6892 -0.1471 -0.2945
  519MOL0     H71565   5.692  -0.358   5.162 -3.4278 -0.0317 -0.4819
  519MOL0     H71566   5.603  -0.258   5.035  0.2907  0.5273  1.1267
  519MOL0     H71567   5.751  -0.525   4.988  0.6691  1.2089  0.6394
  519MOL0     H71568   5.648  -0.452   4.872  2.7226 -0.8333 -0.4639
  519MOL0     H71569   5.523  -0.627   4.960  0.1933 -0.1627 -1.4123
  519MOL0     H71570   5.542  -0.589   5.126 -2.9630 -1.4587 -1.2528
  519MOL0     H71571   5.425  -0.350   5.235  2.3990 -0.3737 -0.9834
  519MOL0     H71572   5.077  -0.214   5.111 -0.8809  1.1849  2.0020
  519MOL0     H71573   5.193  -0.165   5.230 -1.9180  2.2068 -1.5633
  519MOL0     H71574   5.036  -0.434   5.216 -1.3694  0.9137 -0.3242
  519MOL0     H71575   5.143  -0.399   5.355 -1.2257  1.1864  1.8181
  519MOL0     H71576   5.003  -0.221   5.417  1.1629 -0.5615  0.2063
  519MOL0     H71577   4.898  -0.241   5.274  1.5054  0.5308  0.1616
  519MOL0     H71578   4.790  -0.427   5.369  1.1851 -1.4138 -0.4750
  519MOL0     H71579   4.941  -0.481   5.440  2.6514  0.0867 -0.6296
  519MOL0     H71580   4.679  -0.174   5.430 -5.3318  4.3218  0.9308
  519MOL0     H71581   4.379  -0.040   5.565 -0.7253  2.3576 -1.7350
  519MOL0     H71582   4.377  -0.112   5.402  1.6888 -2.8244 -1.0406
  519MOL0     H71583   4.511  -0.015   5.466 -1.1757  0.1571  0.0824
  519MOL0     H71584   4.133  -0.565   5.526  0.8563 -2.6682  1.5467
  519MOL0     H71585   3.900  -0.653   5.535  1.3283 -3.1363  0.9802
  519MOL0     H71586   3.727  -0.757   5.889 -1.1980 -0.4014  0.3473
  519MOL0     H71587   3.663  -0.595   5.908 -0.8431 -1.6631  1.6057
  519MOL0     H71588   3.490  -0.693   5.714  0.0582  1.0585 -0.1894
  519MOL0     H71589   3.532  -0.841   5.792 -0.6411  0.1954 -1.4797
  519MOL0     H71590   3.414  -0.602   5.911  4.5102 -0.0220 -2.2378
  519MOL0     H71591   3.473  -0.732   6.022 -0.7750 -4.8979 -0.9131
  519MOL0     H71592   3.282  -0.782   5.806  1.1070  1.5008  0.1670
  519MOL0     H71593   3.223  -0.705   5.950 -0.2566  0.0527  0.5728
  519MOL0     H71594   3.356  -0.973   5.930 -2.4997 -1.6241 -1.1162
  519MOL0     H71595   3.319  -0.901   6.090 -1.7117  2.4964  0.4731
  519MOL0     H71596   3.145  -1.084   6.049 -1.1291  0.4955 -0.7673
  519MOL0     H71597   3.133  -1.027   5.883  1.9639 -2.3661  0.0939
  519MOL0     H71598   2.954  -0.982   6.060  0.6540  0.4393  3.3690
  519MOL0     H71599   3.009  -0.837   5.968  0.8938 -0.9614 -0.4830
  519MOL0     H71600   2.985  -0.812   6.232  0.4549  0.8059 -0.2163
  519MOL0     H71601   3.157  -0.787   6.186 -0.1403 -1.1273  0.2524
  519MOL0     H71602   3.851  -0.533   5.941  0.2495  2.2080  0.3427
  519MOL0     H71603   4.074  -0.419   5.930 -0.6420 -1.5370  1.8800
  519MOL0     H71604   4.502  -0.463   5.782  1.7986 -0.6469 -0.4143
  519MOL0     H71605   4.708  -0.463   5.745  3.1765  0.0730 -1.4553
  519MOL0     H71606   6.316  -0.064   5.303  1.1879  0.7215 -2.1673
  519MOL0     H71607   6.474   0.135   5.285 -0.1330 -0.3031 -0.6119
  519MOL0     H71608   6.715   0.395   5.387 -2.9654  0.2198  0.6038
  519MOL0     H71609   6.925   0.490   5.318  1.0723  2.4165 -0.5649
  519MOL0     H71610   6.933   0.778   4.968  0.7002  2.3344 -0.1613
  519MOL0     H71611   6.915   0.853   5.130  2.1384  1.5447  0.6409
  519MOL0     H71612   7.119   0.912   4.993  0.4096  1.2277  0.8300
  519MOL0     H71613   7.182   0.752   5.022 -0.4225  0.8673  0.2478
  519MOL0     H71614   7.090   0.948   5.236 -0.9285  1.2705 -3.0299
  519MOL0     H71615   7.174   0.787   5.261  0.0302 -1.0782 -0.7173
  519MOL0     H71616   7.310   0.991   5.295 -1.9468 -2.3690  1.4832
  519MOL0     H71617   7.274   1.057   5.146  1.3540 -0.1078  1.2068
  519MOL0     H71618   7.598   0.795   5.060 -1.1021 -0.7590 -2.0924
  519MOL0     H71619   6.721   0.736   5.030  2.0314 -0.1310 -0.2512
  519MOL0     H71620   6.397   0.657   5.170  1.0089  1.1217  1.7985
  519MOL0     H71621   6.503   0.784   5.091 -2.0499 -0.0875 -1.8876
  519MOL0     H71622   6.455   0.633   5.005 -2.7121  1.7039  0.2403
  520MOL0     O71623   7.689   7.936   5.115 -0.6737  0.3994  0.7532
  520MOL0     C71624   7.596   7.880   5.059 -0.0324  0.8520 -1.0993
  520MOL0     O71625   7.605   7.763   4.987  0.1043  0.1568  0.0935
  520MOL0     C71626   7.723   7.713   4.945 -0.3536  0.6513 -0.1364
  520MOL0     C71627   7.838   7.693   5.026  0.3892 -0.1895  0.3631
  520MOL0     C71628   7.945   7.635   4.970 -0.7591 -0.7669 -0.0321
  520MOL0     C71629   7.953   7.600   4.836 -0.1373  0.9112 -0.8277
  520MOL0     O71630   8.070   7.542   4.795  0.2389  0.2065 -0.0347
  520MOL0     C71631   8.079   7.487   4.661 -0.4173  0.9538 -0.7063
  520MOL0     C71632   8.229   7.450   4.642 -0.2902 -0.3045  0.5012
  520MOL0     C71633   8.281   7.353   4.755 -0.3233 -0.1760 -0.0216
  520MOL0     C71634   8.419   7.289   4.717 -0.2375  0.0973 -0.2004
  520MOL0     C71635   8.459   7.154   4.786  0.4122 -0.6078  0.1769
  520MOL0     C71636   8.391   7.042   4.715 -0.0554  0.3984  0.4780
  520MOL0     C71637   8.468   7.003   4.582 -0.6022  0.0109 -0.2435
  520MOL0     C71638   8.388   6.926   4.483  0.2336 -0.0588  0.0746
  520MOL0     N71639   8.305   7.011   4.403 -0.0889  0.1379  0.2291
  520MOL0     C71640   8.352   7.122   4.334 -0.9575 -0.1955 -0.4709
  520MOL0     C71641   8.249   7.161   4.259  0.2488 -0.3288  0.0248
  520MOL0     C71642   8.241   7.278   4.167  0.2330  0.2007 -0.1147
  520MOL0     C71643   8.206   7.411   4.244  0.5288  1.0365  0.3875
  520MOL0     C71644   8.057   7.415   4.286 -0.2484 -0.0654 -0.0041
  520MOL0     C71645   7.951   7.421   4.171 -0.0075 -0.1412 -0.9769
  520MOL0     O71646   7.830   7.367   4.223 -0.1192 -0.1217  0.0897
  520MOL0     C71647   7.747   7.456   4.278  0.5280 -0.5384 -0.3085
  520MOL0     C71648   7.784   7.584   4.333 -0.1784 -1.0908  0.4246
  520MOL0     C71649   7.681   7.664   4.388 -0.4354  0.0838 -0.5116
  520MOL0     C71650   7.703   7.813   4.411  0.2129  1.3414  0.2656
  520MOL0     C71651   7.553   7.619   4.428  1.2171  0.5844 -0.3953
  520MOL0     C71652   7.443   7.688   4.500 -0.0181 -0.3085 -0.0483
  520MOL0     O71653   7.468   7.807   4.572  0.0074 -0.6289  0.1503
  520MOL0     C71654   7.362   7.878   4.613 -0.1905 -0.7379  0.2770
  520MOL0     C71655   7.362   7.929   4.743 -0.2788 -0.9098 -0.5570
  520MOL0     C71656   7.256   8.011   4.791 -0.2818  0.3067  0.3238
  520MOL0     C71657   7.150   8.057   4.710  0.4069  0.5510 -0.1516
  520MOL0     O71658   7.042   8.131   4.736  0.5532  0.7919 -0.2764
  520MOL0     C71659   7.032   8.180   4.872  0.6204 -0.3334 -0.0345
  520MOL0     C71660   6.926   8.284   4.865 -0.3667 -0.7530 -0.1769
  520MOL0     C71661   6.787   8.239   4.814 -0.7953 -0.0083 -0.4064
  520MOL0     C71662   6.668   8.257   4.924  0.4982 -0.4030  0.6687
  520MOL0     C71663   6.529   8.234   4.854 -0.1059  0.6741 -0.4570
  520MOL0     C71664   6.416   8.176   4.945 -0.3982  0.0925 -0.3902
  520MOL0     C71665   6.294   8.120   4.866  0.6363  0.3848 -0.0368
  520MOL0     C71666   6.298   7.963   4.861  0.0180  0.0738  0.4212
  520MOL0    Cl71667   6.255   7.901   5.034 -0.1409 -0.3458  0.0206
  520MOL0     C71668   7.163   8.016   4.580 -0.0366 -0.6260  0.1663
  520MOL0     C71669   7.266   7.938   4.533 -0.1599 -0.1906 -0.5726
  520MOL0     O71670   7.328   7.643   4.472 -0.2383  0.1172  0.5628
  520MOL0     C71671   7.529   7.482   4.390 -0.2945  0.1812  0.1380
  520MOL0     C71672   7.622   7.406   4.311  0.1340 -0.4275  0.8007
  520MOL0     N71673   8.143   7.082   4.293 -0.7449  0.6804  0.0741
  520MOL0     N71674   8.183   6.989   4.361 -0.2024  0.5524 -1.1707
  520MOL0     C71675   7.845   7.618   4.755  0.0424 -0.3741  0.0014
  520MOL0     C71676   7.737   7.672   4.807  0.8736 -0.2038 -1.1836
  520MOL0     C71677   7.460   7.931   5.094  0.4726 -0.0607  0.1955
  520MOL0     C71678   7.347   7.845   5.087  1.1419  0.9229 -0.7110
  520MOL0     C71679   7.214   7.875   5.119  0.2014 -0.8092 -0.6560
  520MOL0     C71680   7.189   8.007   5.153 -0.6236  0.6650  0.6046
  520MOL0     O71681   7.076   8.039   5.195 -0.2544 -0.1964 -0.4218
  520MOL0     C71682   7.062   8.078   5.334  1.0068  1.4288 -0.2284
  520MOL0     C71683   6.921   8.045   5.381 -0.7902  1.2019 -0.1073
  520MOL0     C71684   6.908   7.890   5.387 -0.6301  0.1736  0.0804
  520MOL0     C71685   6.772   7.831   5.415 -0.4973 -0.0268 -0.1947
  520MOL0     C71686   6.680   7.877   5.311 -0.0025  0.0796 -0.0161
  520MOL0     C71687   6.599   7.928   5.237 -0.2001 -0.4969 -0.1734
  520MOL0     C71688   7.302   8.097   5.161 -0.1434 -0.0724 -0.2312
  520MOL0     C71689   7.432   8.070   5.130 -1.3370 -0.3451 -0.4694
  520MOL0     C71690   7.531   8.185   5.133 -0.3362  0.9494  0.2073
  520MOL0     H71691   7.848   7.720   5.130  1.9551  0.2590  0.1279
  520MOL0     H71692   8.034   7.614   5.028 -3.3220  0.1565  4.7548
  520MOL0     H71693   8.045   7.561   4.588  0.5163  0.4420 -1.6925
  520MOL0     H71694   8.014   7.400   4.656 -1.2455  1.4710  0.5243
  520MOL0     H71695   8.249   7.392   4.552  2.6304 -1.1627  1.5853
  520MOL0     H71696   8.294   7.538   4.648 -1.6214  0.6289  1.7934
  520MOL0     H71697   8.297   7.403   4.851 -0.1296  1.5423 -0.9017
  520MOL0     H71698   8.210   7.271   4.767 -1.7440  1.0348  0.1054
  520MOL0     H71699   8.418   7.277   4.609 -1.7100  1.3303 -0.3564
  520MOL0     H71700   8.501   7.356   4.744  1.4580 -0.2877 -3.8208
  520MOL0     H71701   8.445   7.159   4.895 -1.5146  0.8887 -0.0834
  520MOL0     H71702   8.565   7.138   4.764 -0.4118 -2.7132 -2.8765
  520MOL0     H71703   8.380   6.948   4.769 -0.9181  0.0236 -0.3224
  520MOL0     H71704   8.294   7.077   4.679  1.0229  3.5321  0.3078
  520MOL0     H71705   8.548   6.929   4.599 -2.5203 -2.6491 -2.0122
  520MOL0     H71706   8.530   7.082   4.537 -0.7824 -0.5061 -1.4339
  520MOL0     H71707   8.448   6.859   4.422 -1.5843 -2.2112  0.4970
  520MOL0     H71708   8.324   6.852   4.532  0.4279 -0.2073  0.1064
  520MOL0     H71709   8.454   7.157   4.347 -0.0782 -3.2151  2.6501
  520MOL0     H71710   8.167   7.260   4.088  0.5833 -2.0392 -0.0009
  520MOL0     H71711   8.333   7.292   4.110 -0.5865  1.3389 -1.2173
  520MOL0     H71712   8.273   7.418   4.330 -0.8466  0.5581  1.5467
  520MOL0     H71713   8.228   7.495   4.177 -0.1716  0.9131 -0.0129
  520MOL0     H71714   8.051   7.320   4.340 -1.1219 -0.9103 -1.5088
  520MOL0     H71715   8.036   7.501   4.351  1.8708  1.8163 -1.6859
  520MOL0     H71716   7.939   7.527   4.147  2.6073 -0.3399 -3.8600
  520MOL0     H71717   7.977   7.381   4.073  1.2178 -0.4047 -0.5598
  520MOL0     H71718   7.883   7.626   4.323 -0.8345  0.5814  0.5920
  520MOL0     H71719   7.617   7.863   4.367 -1.7546 -1.0115  1.2198
  520MOL0     H71720   7.792   7.850   4.359  0.4990  1.5465  0.8838
  520MOL0     H71721   7.687   7.839   4.517 -0.9892 -1.9503  1.0052
  520MOL0     H71722   7.424   7.898   4.827  1.4677 -0.7329 -1.7475
  520MOL0     H71723   7.272   8.038   4.895  0.8074 -2.5778  1.0057
  520MOL0     H71724   7.012   8.103   4.948  1.9965 -1.6954 -0.9863
  520MOL0     H71725   7.123   8.232   4.903 -1.5525  3.6584  0.3223
  520MOL0     H71726   6.908   8.327   4.964 -0.6621  0.3509 -0.6972
  520MOL0     H71727   6.968   8.362   4.800  0.4860 -0.5473  0.6110
  520MOL0     H71728   6.810   8.139   4.776  0.7263  0.2519 -0.2293
  520MOL0     H71729   6.754   8.300   4.729  1.6647  2.3483  0.1931
  520MOL0     H71730   6.668   8.355   4.972  1.3624  0.6348 -1.3300
  520MOL0     H71731   6.688   8.187   5.006  2.0817  1.1506  1.6529
  520MOL0     H71732   6.486   8.321   4.802 -3.7068 -0.3153  0.5240
  520MOL0     H71733   6.544   8.152   4.784  0.5520 -1.2368  1.7678
  520MOL0     H71734   6.396   8.252   5.020 -0.5474 -0.8793  0.5880
  520MOL0     H71735   6.465   8.094   4.999  2.6455  2.1852  0.3230
  520MOL0     H71736   6.312   8.144   4.761  2.3156 -2.4689 -0.5200
  520MOL0     H71737   6.201   8.158   4.908  0.3853  0.4001 -0.5927
  520MOL0     H71738   6.402   7.930   4.849 -0.8036 -1.8608 -2.4122
  520MOL0     H71739   6.233   7.932   4.779  2.0881 -0.3747 -1.1150
  520MOL0     H71740   7.087   8.060   4.515  0.2897  0.1086  0.2640
  520MOL0     H71741   7.271   7.904   4.430  0.2007 -0.9155 -0.3228
  520MOL0     H71742   7.432   7.439   4.412 -0.0891 -1.2565 -1.5147
  520MOL0     H71743   7.602   7.304   4.281  0.1010  0.0761 -0.9608
  520MOL0     H71744   7.837   7.579   4.654 -1.2267  1.8601 -0.8287
  520MOL0     H71745   7.649   7.679   4.744 -0.4244 -0.6532  0.4889
  520MOL0     H71746   7.361   7.741   5.060 -2.5478  0.6650 -2.1787
  520MOL0     H71747   7.137   7.799   5.111 -0.9206  0.4227 -2.0557
  520MOL0     H71748   7.130   8.022   5.400 -1.7215 -1.2556  0.5026
  520MOL0     H71749   7.091   8.184   5.341  1.4313  1.2875  0.2793
  520MOL0     H71750   6.854   8.088   5.306  0.5007  3.3960 -0.0908
  520MOL0     H71751   6.898   8.072   5.484 -1.6183 -1.8208  0.5969
  520MOL0     H71752   6.947   7.845   5.294 -3.0410  1.1806 -1.5252
  520MOL0     H71753   6.964   7.854   5.474 -1.0698  0.0509  0.3134
  520MOL0     H71754   6.732   7.857   5.513 -0.9187  0.6072 -0.5224
  520MOL0     H71755   6.792   7.724   5.402 -0.4009 -0.1673  1.0080
  520MOL0     H71756   6.536   7.982   5.170  1.1085  0.7245 -0.4828
  520MOL0     H71757   7.280   8.202   5.180  0.7341  0.1975 -0.6481
  520MOL0     H71758   7.611   8.183   5.207  1.6840  2.2635 -1.8057
  520MOL0     H71759   7.573   8.188   5.032 -2.4323  2.2413 -0.6841
  520MOL0     H71760   7.484   8.280   5.160  0.4521  1.4203 -0.0505
  521MOL0     O71761   7.765   9.725   9.604  0.4505  0.1187  0.4156
  521MOL0     C71762   7.709   9.677   9.509  0.4134  0.4686 -0.1234
  521MOL0     O71763   7.581   9.651   9.491  0.2762  0.0121  0.0864
  521MOL0     C71764   7.490   9.673   9.595 -0.2503  0.3466 -0.1911
  521MOL0     C71765   7.355   9.680   9.564 -0.3066  0.4433  0.9500
  521MOL0     C71766   7.241   9.670   9.652 -0.8086 -0.0530 -0.4157
  521MOL0     C71767   7.273   9.669   9.788 -1.1674 -0.0680 -0.5931
  521MOL0     O71768   7.188   9.658   9.893  0.2938 -0.6971  0.4623
  521MOL0     C71769   7.045   9.660   9.880 -1.1149  0.2341  0.6164
  521MOL0     C71770   7.004   9.517   9.861  0.1810  0.8134 -0.0234
  521MOL0     C71771   6.855   9.498   9.850  0.0353  0.0429  0.9142
  521MOL0     C71772   6.791   9.586   9.742  0.9169 -0.6380 -0.0804
  521MOL0     C71773   6.655   9.529   9.675 -0.3028  0.0763 -0.0630
  521MOL0     C71774   6.567   9.478   9.795  0.5061  0.4368  0.2826
  521MOL0     C71775   6.432   9.428   9.740  0.1503  0.0935 -0.4836
  521MOL0     C71776   6.321   9.413   9.846 -0.5112  0.2163  0.0410
  521MOL0     N71777   6.365   9.318   9.951 -1.2703  0.2638 -1.2827
  521MOL0     C71778   6.424   9.359  10.067  0.9600 -0.5810 -0.3104
  521MOL0     C71779   6.453   9.247  10.134  0.0915  0.5483 -0.3259
  521MOL0     C71780   6.520   9.217  10.265 -1.2684  0.2212  0.0134
  521MOL0     C71781   6.667   9.250  10.273 -0.0215  0.1943 -0.6374
  521MOL0     C71782   6.736   9.235  10.131 -0.0877  0.3605 -0.1571
  521MOL0     C71783   6.895   9.226  10.154  0.9190  0.4534  0.6935
  521MOL0     O71784   6.952   9.340  10.223 -0.3616  0.3340  0.1724
  521MOL0     C71785   7.077   9.371  10.219 -0.1408  0.5915  0.4843
  521MOL0     C71786   7.113   9.489  10.282  0.9575 -0.3275 -0.5994
  521MOL0     C71787   7.247   9.533  10.276  0.5166  0.0431 -0.9315
  521MOL0     C71788   7.282   9.645  10.376 -0.0847  0.5871 -0.3804
  521MOL0     C71789   7.346   9.469  10.208  1.0958 -0.9131 -0.3755
  521MOL0     C71790   7.491   9.515  10.203 -0.3533 -0.1574  0.0904
  521MOL0     O71791   7.510   9.647  10.175  0.1078  0.4800 -0.9215
  521MOL0     C71792   7.638   9.693  10.209  0.0722  0.1340  0.2093
  521MOL0     C71793   7.699   9.684  10.336 -0.0429 -0.7599 -0.6694
  521MOL0     C71794   7.823   9.746  10.359 -0.2692  0.2850 -0.0550
  521MOL0     C71795   7.895   9.800  10.249 -0.0580 -0.4396 -0.3732
  521MOL0     O71796   8.030   9.837  10.273  0.4141  0.1001  0.0710
  521MOL0     C71797   8.102   9.933  10.192 -0.3236  0.3106 -0.0751
  521MOL0     C71798   8.084  10.065  10.271 -0.6766  0.2258 -0.1787
  521MOL0     C71799   8.156  10.184  10.203 -0.0236 -0.2292  0.0359
  521MOL0     C71800   8.293  10.183  10.267  0.3327 -0.1605 -0.1793
  521MOL0     C71801   8.384  10.299  10.212  0.3948  0.0801 -0.1066
  521MOL0     C71802   8.406  10.314  10.059 -1.0192 -0.7983  0.4264
  521MOL0     C71803   8.502  10.207  10.007 -0.5448 -0.3930 -0.1170
  521MOL0     C71804   8.583  10.256   9.886  0.0544 -0.0364 -0.0301
  521MOL0    Cl71805   8.719  10.355   9.951 -0.9532 -0.1572  0.1445
  521MOL0     C71806   7.828   9.810  10.121 -0.5135 -0.0623 -0.7198
  521MOL0     C71807   7.711   9.751  10.101 -0.1128 -0.2122 -0.0985
  521MOL0     O71808   7.579   9.437  10.182  0.0774  0.2705  0.1571
  521MOL0     C71809   7.306   9.356  10.131  0.2364 -0.7675  0.3532
  521MOL0     C71810   7.174   9.312  10.137 -0.0596 -0.4054  0.5636
  521MOL0     N71811   6.402   9.142  10.062 -0.4067 -0.3595  0.3044
  521MOL0     N71812   6.354   9.182   9.952  0.3436 -0.0785  0.1371
  521MOL0     C71813   7.411   9.677   9.825  0.3765 -0.1482  0.5611
  521MOL0     C71814   7.512   9.674   9.731 -0.6297  0.2398  1.2400
  521MOL0     C71815   7.805   9.650   9.399  0.6052 -0.2528  0.3515
  521MOL0     C71816   7.925   9.734   9.396 -0.4913  0.0335  0.8792
  521MOL0     C71817   8.022   9.718   9.295 -0.1055 -0.2992 -0.3412
  521MOL0     C71818   8.012   9.613   9.202  0.4406 -0.5446 -0.2916
  521MOL0     O71819   8.097   9.581   9.103 -0.1586  0.8957 -0.2001
  521MOL0     C71820   8.223   9.659   9.086 -0.3498 -0.1182 -0.0422
  521MOL0     C71821   8.193   9.799   9.026  0.0750 -0.0720  0.4761
  521MOL0     C71822   8.325   9.863   8.980 -0.0675 -0.4685 -0.3214
  521MOL0     C71823   8.311  10.002   8.928 -0.6384 -0.0312  0.2722
  521MOL0     C71824   8.442  10.068   8.914  0.1148  0.2497  0.1122
  521MOL0     C71825   8.551  10.112   8.895 -1.1988  0.4164  0.9220
  521MOL0     C71826   7.891   9.536   9.207  0.3483 -0.1969 -0.0443
  521MOL0     C71827   7.785   9.561   9.294  0.3137  0.0800  0.0838
  521MOL0     C71828   7.651   9.484   9.272  0.2726 -0.2648 -0.3244
  521MOL0     H71829   7.326   9.694   9.460  2.9005 -0.0781 -0.1070
  521MOL0     H71830   7.142   9.662   9.607 -0.4394 -0.4851 -1.1765
  521MOL0     H71831   7.012   9.721   9.796 -2.0041 -2.6994 -1.2933
  521MOL0     H71832   7.014   9.704   9.975  0.0674  2.4744  0.0344
  521MOL0     H71833   7.039   9.472   9.768  0.2766  0.1637  0.3197
  521MOL0     H71834   7.032   9.467   9.954 -0.7847  0.8629  0.3108
  521MOL0     H71835   6.823   9.399   9.817 -0.5237  0.7126 -0.6163
  521MOL0     H71836   6.803   9.509   9.946  1.4973 -0.2960  1.7798
  521MOL0     H71837   6.763   9.682   9.786  0.1477  1.4041 -4.4753
  521MOL0     H71838   6.864   9.600   9.662  1.5428  0.3238  0.6295
  521MOL0     H71839   6.678   9.453   9.600  2.2302 -2.7553  3.2253
  521MOL0     H71840   6.604   9.606   9.617  1.5541  1.4575  0.0447
  521MOL0     H71841   6.620   9.403   9.855 -1.5029  1.5303  3.7110
  521MOL0     H71842   6.548   9.558   9.867 -1.0377 -0.4620  0.9133
  521MOL0     H71843   6.453   9.330   9.695  1.2210  0.1115 -0.0497
  521MOL0     H71844   6.405   9.496   9.660  1.9043  0.4520 -0.8183
  521MOL0     H71845   6.302   9.514   9.884  0.2599  0.5572 -0.4352
  521MOL0     H71846   6.233   9.378   9.792  1.8940 -0.2935 -3.9715
  521MOL0     H71847   6.451   9.462  10.087  0.2882 -0.3160 -0.7278
  521MOL0     H71848   6.509   9.109  10.279 -1.8889  0.5338  2.3799
  521MOL0     H71849   6.460   9.273  10.338  2.8878  1.4600  2.8358
  521MOL0     H71850   6.675   9.355  10.303  0.8097  1.1483 -3.8163
  521MOL0     H71851   6.718   9.192  10.350 -3.0236 -0.4353  1.0503
  521MOL0     H71852   6.703   9.139  10.092 -0.5272  0.6229 -0.4465
  521MOL0     H71853   6.710   9.323  10.071 -2.1449 -0.3397 -0.3626
  521MOL0     H71854   6.913   9.130  10.204 -0.1800 -0.6252 -0.8856
  521MOL0     H71855   6.934   9.214  10.053  0.4852 -1.7410  0.7204
  521MOL0     H71856   7.038   9.550  10.331 -0.1114 -2.2236  0.2344
  521MOL0     H71857   7.297   9.743  10.331  1.9890  0.1365 -0.7950
  521MOL0     H71858   7.376   9.625  10.429 -0.5678 -3.9865 -0.8521
  521MOL0     H71859   7.204   9.656  10.452  0.9299 -3.1536  1.4522
  521MOL0     H71860   7.646   9.659  10.427  0.6378 -0.5317 -0.1940
  521MOL0     H71861   7.870   9.751  10.457 -1.4183 -1.4423  0.6125
  521MOL0     H71862   8.206   9.903  10.179 -0.8609 -2.4358  1.2416
  521MOL0     H71863   8.070   9.941  10.087  1.5588  1.9515 -0.5994
  521MOL0     H71864   7.977  10.082  10.286 -0.9724 -0.4240 -1.4299
  521MOL0     H71865   8.128  10.049  10.370 -1.3421  1.9962  0.4436
  521MOL0     H71866   8.106  10.280  10.221  1.0730  0.5105 -0.7880
  521MOL0     H71867   8.148  10.167  10.095  2.6495 -1.4125 -0.0306
  521MOL0     H71868   8.332  10.083  10.245 -2.8121 -1.0948 -2.0445
  521MOL0     H71869   8.289  10.193  10.376 -2.5118  0.9876 -0.3269
  521MOL0     H71870   8.344  10.395  10.245  1.3479  1.0514 -1.6429
  521MOL0     H71871   8.480  10.305  10.264  1.3407 -0.1203 -1.7344
  521MOL0     H71872   8.454  10.410  10.037  1.4313 -2.0872 -0.2812
  521MOL0     H71873   8.321  10.313   9.990  0.7864  2.7218 -2.1919
  521MOL0     H71874   8.448  10.115   9.986  0.7643 -1.0926 -0.5134
  521MOL0     H71875   8.568  10.174  10.088 -0.6497  0.3732  0.2923
  521MOL0     H71876   8.515  10.317   9.825  0.5109  1.2255  0.6878
  521MOL0     H71877   8.624  10.168   9.835  0.5481  0.8680 -1.2394
  521MOL0     H71878   7.884   9.847  10.036  0.9464  1.9897  0.9931
  521MOL0     H71879   7.671   9.738  10.002 -3.4408  1.7384  0.8220
  521MOL0     H71880   7.375   9.306  10.064  3.5941  1.9673  1.4525
  521MOL0     H71881   7.145   9.228  10.073 -1.0056  0.6423 -0.4258
  521MOL0     H71882   7.438   9.688   9.930  3.0652  0.1627 -0.0978
  521MOL0     H71883   7.608   9.667   9.782  0.0249 -0.3034 -0.0070
  521MOL0     H71884   7.945   9.810   9.471 -3.1984  0.6386  1.0767
  521MOL0     H71885   8.115   9.774   9.302  0.3268 -0.0313 -5.0704
  521MOL0     H71886   8.294   9.671   9.168  2.0829  1.8369 -2.2529
  521MOL0     H71887   8.279   9.600   9.012  3.0147  1.2053  1.2534
  521MOL0     H71888   8.146   9.858   9.106 -0.3938 -0.0187  0.1630
  521MOL0     H71889   8.121   9.795   8.944 -0.5706  1.5269  0.9260
  521MOL0     H71890   8.378   9.877   9.075  2.4978 -3.2102 -1.2021
  521MOL0     H71891   8.393   9.800   8.922  1.2804 -1.4227  2.1524
  521MOL0     H71892   8.252  10.056   9.003 -0.4906  0.9319 -0.2884
  521MOL0     H71893   8.262   9.997   8.831  1.5475 -1.3102 -0.8225
  521MOL0     H71894   8.645  10.142   8.853  0.0831 -4.2653 -0.2345
  521MOL0     H71895   7.874   9.456   9.135  1.5419  0.7064 -1.3884
  521MOL0     H71896   7.635   9.414   9.354 -1.8364 -0.4955 -0.8988
  521MOL0     H71897   7.568   9.555   9.267  0.2138  0.0766  3.3204
  521MOL0     H71898   7.651   9.427   9.178 -0.7073 -1.1863  0.2221
  522MOL0     O71899   7.287   5.692   6.153  0.2793 -0.4069  1.0823
  522MOL0     C71900   7.171   5.653   6.162 -0.0198  0.3716 -0.2808
  522MOL0     O71901   7.056   5.730   6.170 -0.7718 -0.9318 -0.7036
  522MOL0     C71902   7.062   5.870   6.145 -0.2242  0.4832 -0.5918
  522MOL0     C71903   7.164   5.947   6.083  0.0077  0.0630 -0.6227
  522MOL0     C71904   7.137   6.083   6.057 -0.6624  0.3379  1.1320
  522MOL0     C71905   7.014   6.149   6.081  0.1413 -1.0388  0.0874
  522MOL0     O71906   7.009   6.275   6.038  0.8379 -0.2038 -0.5463
  522MOL0     C71907   6.878   6.339   6.053 -0.5875  0.3984  0.7049
  522MOL0     C71908   6.865   6.468   5.976  0.7090  0.4805  0.2022
  522MOL0     C71909   6.978   6.568   5.991  0.9551  0.0168 -0.4264
  522MOL0     C71910   7.087   6.547   5.890  0.5336 -0.1630  0.3421
  522MOL0     C71911   7.217   6.564   5.967  0.2639 -0.0980  0.8556
  522MOL0     C71912   7.251   6.712   5.979  0.0567  0.4917  0.1341
  522MOL0     C71913   7.389   6.734   6.048  0.7217 -0.6584  0.0406
  522MOL0     C71914   7.412   6.889   6.077  0.1089  0.5731 -0.6849
  522MOL0     N71915   7.557   6.922   6.089 -0.8282  0.0851  0.4813
  522MOL0     C71916   7.644   6.861   6.176  1.5896 -0.2765  0.0114
  522MOL0     C71917   7.757   6.927   6.163  0.3368 -0.1461 -0.0088
  522MOL0     C71918   7.864   6.893   6.259 -0.2760  0.4578  0.0514
  522MOL0     C71919   7.861   6.988   6.387  0.7255  0.4275  1.2341
  522MOL0     C71920   7.969   6.937   6.486  0.3894  0.9294  0.6980
  522MOL0     C71921   8.116   6.962   6.438  0.1426 -0.7795  0.7699
  522MOL0     O71922   8.138   7.086   6.378 -0.0970 -1.0768  0.7188
  522MOL0     C71923   8.195   7.085   6.248 -0.4624  0.0498 -0.2763
  522MOL0     C71924   8.136   7.140   6.135  0.1699 -1.1405 -0.1835
  522MOL0     C71925   8.181   7.113   6.004  0.1961  0.4833 -0.5022
  522MOL0     C71926   8.077   7.163   5.905 -0.3288  0.0891  0.5864
  522MOL0     C71927   8.303   7.043   5.988  0.5758 -1.2296  0.0169
  522MOL0     C71928   8.358   7.016   5.859 -0.3021 -0.4666 -0.5237
  522MOL0     O71929   8.427   6.901   5.843  0.5274 -0.0866  0.4357
  522MOL0     C71930   8.481   6.864   5.720  0.0482 -0.2995  0.7395
  522MOL0     C71931   8.420   6.880   5.593 -0.0195  0.0473  0.3058
  522MOL0     C71932   8.475   6.819   5.482 -0.6893  0.0881  0.8696
  522MOL0     C71933   8.596   6.748   5.485 -0.9296 -0.7358  0.8214
  522MOL0     O71934   8.650   6.662   5.389  0.4447 -0.8015  0.0481
  522MOL0     C71935   8.552   6.591   5.310  0.2393 -0.7515 -0.4060
  522MOL0     C71936   8.622   6.504   5.205  0.1865  0.0870  0.8524
  522MOL0     C71937   8.717   6.399   5.259 -0.0934 -0.2271 -0.5768
  522MOL0     C71938   8.802   6.339   5.145  0.0291  0.0539 -0.1981
  522MOL0     C71939   8.883   6.214   5.180 -0.9440 -0.0750 -1.0944
  522MOL0     C71940   8.939   6.162   5.046 -0.6966  0.3138  0.0277
  522MOL0     C71941   9.046   6.056   5.081 -0.6091  0.8231 -0.5855
  522MOL0     C71942   9.120   6.011   4.952  0.0117 -0.1705 -0.1092
  522MOL0    Cl71943   9.254   5.889   5.001 -0.1761 -0.1479  0.1804
  522MOL0     C71944   8.651   6.735   5.611 -1.2634  0.0205  0.4894
  522MOL0     C71945   8.597   6.786   5.731 -0.4364 -0.0627  0.2641
  522MOL0     O71946   8.346   7.105   5.776  0.0221  0.6949  0.2578
  522MOL0     C71947   8.367   6.993   6.107 -0.5046 -0.6464  0.7629
  522MOL0     C71948   8.309   7.007   6.229  1.0133  0.4553 -0.5682
  522MOL0     N71949   7.749   7.018   6.064 -0.5946  0.0429  0.0167
  522MOL0     N71950   7.628   7.026   6.018  0.6426 -0.5013 -0.4116
  522MOL0     C71951   6.920   6.074   6.150  0.9315  0.3873  0.7007
  522MOL0     C71952   6.945   5.935   6.178 -0.1171  0.3151 -0.2358
  522MOL0     C71953   7.144   5.500   6.180  0.3877  0.1687 -0.6910
  522MOL0     C71954   7.011   5.461   6.153  1.2874 -0.0303  0.0872
  522MOL0     C71955   6.978   5.326   6.162  0.2693 -0.5371 -0.4805
  522MOL0     C71956   7.063   5.223   6.198 -0.3782 -0.2784 -0.1164
  522MOL0     O71957   7.020   5.096   6.205  0.2734 -0.2782 -0.2531
  522MOL0     C71958   7.112   5.005   6.265 -0.0705  0.4401  0.3231
  522MOL0     C71959   7.032   4.864   6.277 -0.6223  0.5731 -0.0257
  522MOL0     C71960   7.124   4.780   6.369 -1.1464 -0.8241  0.2769
  522MOL0     C71961   7.068   4.650   6.417  0.5538  0.4186  0.9754
  522MOL0     C71962   6.989   4.663   6.543  0.4118 -0.2061  0.8656
  522MOL0     C71963   6.927   4.688   6.640 -0.2561  0.5260  0.1123
  522MOL0     C71964   7.193   5.267   6.223  0.7788  0.2663  0.1835
  522MOL0     C71965   7.239   5.407   6.222  0.5012 -0.0576  0.0115
  522MOL0     C71966   7.386   5.441   6.254 -0.2667  0.2462  0.1557
  522MOL0     H71967   7.256   5.899   6.051 -0.3522 -0.6014 -0.6826
  522MOL0     H71968   7.217   6.139   6.010  0.5412 -3.4490 -1.7534
  522MOL0     H71969   6.855   6.360   6.158  2.3276 -1.9553  1.9586
  522MOL0     H71970   6.811   6.265   6.009  0.4861  1.2043 -2.5653
  522MOL0     H71971   6.848   6.450   5.869 -1.2988 -2.2562  0.8814
  522MOL0     H71972   6.775   6.518   6.013  0.8691  0.3393  0.7932
  522MOL0     H71973   6.953   6.675   5.982  0.5216 -0.0560 -0.1409
  522MOL0     H71974   7.016   6.550   6.092  0.3461 -3.4253 -0.6947
  522MOL0     H71975   7.085   6.443   5.856 -0.9224 -0.4569  1.2520
  522MOL0     H71976   7.069   6.617   5.808  1.2439  0.6421  0.8589
  522MOL0     H71977   7.293   6.513   5.907  1.4348  0.8122  1.5142
  522MOL0     H71978   7.223   6.524   6.069  0.0283  2.5555  1.9905
  522MOL0     H71979   7.255   6.744   5.874 -2.3076 -4.0633 -1.6095
  522MOL0     H71980   7.174   6.758   6.041 -2.1408 -4.1582  1.2516
  522MOL0     H71981   7.466   6.690   5.984  1.2684 -0.1185  0.3154
  522MOL0     H71982   7.384   6.673   6.138  0.7622 -1.9323 -0.7965
  522MOL0     H71983   7.371   6.948   5.995 -2.8139 -0.4884 -0.1375
  522MOL0     H71984   7.356   6.922   6.165  0.4560 -1.4779  0.3791
  522MOL0     H71985   7.624   6.780   6.246  1.2838 -1.3854 -1.3021
  522MOL0     H71986   7.963   6.905   6.212 -0.1133 -0.7968  0.0560
  522MOL0     H71987   7.838   6.793   6.294 -1.2441  0.6316 -0.1358
  522MOL0     H71988   7.882   7.090   6.355  0.0433  0.5935  1.3124
  522MOL0     H71989   7.761   6.988   6.432 -0.6057 -1.2303 -1.4942
  522MOL0     H71990   7.952   6.996   6.577 -3.1092  3.3082 -1.2477
  522MOL0     H71991   7.947   6.834   6.516 -0.1771  1.0928  0.8579
  522MOL0     H71992   8.178   6.968   6.528 -0.9847  0.7270  1.5021
  522MOL0     H71993   8.142   6.874   6.378 -1.7041 -1.0957  0.3671
  522MOL0     H71994   8.044   7.192   6.161  0.6084 -1.2056  1.6024
  522MOL0     H71995   8.118   7.254   5.861  1.3431 -1.4184 -1.2112
  522MOL0     H71996   7.981   7.173   5.956 -1.3084  4.2389 -1.6851
  522MOL0     H71997   8.067   7.091   5.823  1.7406 -2.4014  2.3572
  522MOL0     H71998   8.334   6.942   5.569  0.0900 -0.0955 -0.5077
  522MOL0     H71999   8.420   6.821   5.388  1.7138 -1.1664 -0.6916
  522MOL0     H72000   8.489   6.537   5.382  1.6003 -0.2066  1.2734
  522MOL0     H72001   8.495   6.664   5.251 -0.2391 -0.8710 -0.0988
  522MOL0     H72002   8.552   6.448   5.141  1.6902 -0.8856 -0.0321
  522MOL0     H72003   8.672   6.579   5.143  0.2182  0.6948  1.6106
  522MOL0     H72004   8.654   6.322   5.305  0.1709 -0.0607  0.0804
  522MOL0     H72005   8.781   6.438   5.339 -0.7106  0.0706 -0.2170
  522MOL0     H72006   8.872   6.423   5.131 -0.2886  1.2684  3.9260
  522MOL0     H72007   8.735   6.315   5.062 -1.9891  3.8562  0.0717
  522MOL0     H72008   8.969   6.239   5.243 -2.1597 -0.5701  0.8429
  522MOL0     H72009   8.816   6.147   5.235 -1.1321  0.7580 -0.2994
  522MOL0     H72010   8.987   6.247   4.996 -0.5698  0.4694  0.4080
  522MOL0     H72011   8.857   6.122   4.986 -1.4379  0.7376  0.7351
  522MOL0     H72012   9.002   5.966   5.125  1.5466  0.2536  0.5361
  522MOL0     H72013   9.126   6.103   5.138  0.4318 -1.9602  0.4395
  522MOL0     H72014   9.150   6.099   4.895  0.2578 -0.3570 -0.2688
  522MOL0     H72015   9.052   5.943   4.899  2.0697 -2.4249 -0.0372
  522MOL0     H72016   8.732   6.663   5.618 -0.7986  0.5400  0.5344
  522MOL0     H72017   8.641   6.778   5.830 -0.8244  0.4115  0.4831
  522MOL0     H72018   8.462   6.942   6.100 -1.2557 -1.9487 -0.8567
  522MOL0     H72019   8.358   6.972   6.319 -1.1809  0.8116  0.8468
  522MOL0     H72020   6.821   6.108   6.180 -0.2108 -2.0566 -0.0557
  522MOL0     H72021   6.872   5.880   6.237  1.6633 -1.0338  0.7778
  522MOL0     H72022   6.934   5.535   6.130  0.9045 -0.5827 -0.4464
  522MOL0     H72023   6.875   5.294   6.145  0.0179 -1.2087  1.8897
  522MOL0     H72024   7.193   4.983   6.196  0.1780 -1.4204  1.1512
  522MOL0     H72025   7.149   5.033   6.364  0.0674  0.2870  0.3151
  522MOL0     H72026   7.019   4.814   6.181 -1.8976 -1.1581  0.9824
  522MOL0     H72027   6.928   4.865   6.312 -0.6847 -3.8046  0.4976
  522MOL0     H72028   7.223   4.764   6.324 -0.2624 -1.4329  2.3086
  522MOL0     H72029   7.138   4.840   6.459 -1.6935  0.2177 -0.3164
  522MOL0     H72030   7.152   4.583   6.436 -0.4298 -1.0078  0.5385
  522MOL0     H72031   7.001   4.596   6.349  1.4393  0.5934 -0.0628
  522MOL0     H72032   6.861   4.706   6.722 -0.2104 -1.6308  0.6921
  522MOL0     H72033   7.275   5.198   6.239  0.4225 -0.0986  0.4449
  522MOL0     H72034   7.432   5.343   6.267 -2.7941 -0.9616  0.5037
  522MOL0     H72035   7.437   5.498   6.175 -0.2001 -1.0638 -0.7869
  522MOL0     H72036   7.391   5.495   6.349 -1.9666  0.3212  0.2219
  523MOL0     O72037   9.189   7.457   8.441  0.0473 -0.2663  0.4700
  523MOL0     C72038   9.130   7.365   8.384  0.1200 -0.0310  0.5823
  523MOL0     O72039   9.125   7.361   8.238  0.2390  0.9477 -0.1069
  523MOL0     C72040   9.165   7.469   8.159  0.7193  1.3139  0.0774
  523MOL0     C72041   9.167   7.599   8.199 -0.1103  0.2605 -0.9428
  523MOL0     C72042   9.211   7.703   8.113 -0.1379  0.2873 -0.1177
  523MOL0     C72043   9.251   7.668   7.986  0.4886  0.2210 -1.2691
  523MOL0     O72044   9.258   7.772   7.894  0.6234 -0.0365 -0.3091
  523MOL0     C72045   9.296   7.764   7.760  0.0774  0.4491 -0.4104
  523MOL0     C72046   9.449   7.745   7.747 -0.3240 -0.1693 -0.1345
  523MOL0     C72047   9.543   7.861   7.797  0.0318  0.1558  0.0736
  523MOL0     C72048   9.548   7.879   7.955  0.7185  0.6395  0.1991
  523MOL0     C72049   9.681   7.936   7.986 -0.0810 -0.2922 -0.1858
  523MOL0     C72050   9.701   8.075   7.934 -0.4786 -0.0587 -0.0218
  523MOL0     C72051   9.816   8.152   7.994 -0.6536  0.7634  0.3506
  523MOL0     C72052   9.953   8.103   7.926 -0.2851 -0.5828 -0.1532
  523MOL0     N72053  10.043   8.224   7.943 -0.3279 -0.3081  0.5039
  523MOL0     C72054  10.058   8.318   8.051  0.3779  0.0736 -0.2342
  523MOL0     C72055  10.144   8.408   7.997  0.5254  0.4594 -1.1519
  523MOL0     C72056  10.182   8.525   8.085  1.2415 -1.0661  0.3226
  523MOL0     C72057  10.319   8.501   8.145  0.4225  0.4618 -0.0973
  523MOL0     C72058  10.349   8.610   8.250 -1.0186  0.6521  0.8059
  523MOL0     C72059  10.488   8.574   8.321  0.3493  0.1615 -0.2622
  523MOL0     O72060  10.599   8.603   8.229 -0.6027 -0.3048 -0.0732
  523MOL0     C72061  10.723   8.573   8.276  0.3195 -0.5275 -0.0167
  523MOL0     C72062  10.753   8.518   8.401 -0.3555  0.3778  0.5640
  523MOL0     C72063  10.886   8.499   8.430 -0.7230  0.0642 -0.4348
  523MOL0     C72064  10.915   8.444   8.571 -0.2431  0.2222 -0.3376
  523MOL0     C72065  10.999   8.518   8.339  1.6485  0.1821 -0.1838
  523MOL0     C72066  11.135   8.476   8.358  0.8860 -0.0059 -0.2714
  523MOL0     O72067  11.222   8.534   8.284  0.2643  0.0010  0.1628
  523MOL0     C72068  11.355   8.504   8.286 -0.3167 -0.0008  1.1210
  523MOL0     C72069  11.410   8.455   8.167  0.1247  0.5546 -0.2876
  523MOL0     C72070  11.544   8.414   8.166 -0.0282 -0.1023  0.4726
  523MOL0     C72071  11.623   8.423   8.281 -0.2033 -0.4158  0.3722
  523MOL0     O72072  11.758   8.390   8.264  0.2100 -0.1781 -0.2393
  523MOL0     C72073  11.855   8.395   8.369  0.1559 -0.3159  0.5090
  523MOL0     C72074  11.962   8.480   8.310  0.3867  0.4591  0.4171
  523MOL0     C72075  12.080   8.492   8.398 -0.8163  1.0276 -0.1047
  523MOL0     C72076  12.132   8.353   8.427 -0.5246 -0.1293  0.3348
  523MOL0     C72077  12.276   8.370   8.468 -0.8105  0.6566  0.6376
  523MOL0     C72078  12.313   8.240   8.547 -0.1286 -0.1815 -1.0547
  523MOL0     C72079  12.467   8.222   8.546 -0.0296  0.2521 -0.4724
  523MOL0     C72080  12.519   8.172   8.413  0.7800 -0.2304  0.1806
  523MOL0    Cl72081  12.694   8.160   8.412 -0.2114  0.1404  0.5322
  523MOL0     C72082  11.567   8.490   8.390 -0.2148 -0.0505 -0.5494
  523MOL0     C72083  11.427   8.536   8.398 -0.6780  0.2124  0.2128
  523MOL0     O72084  11.153   8.387   8.436 -0.4527  0.1250 -0.1092
  523MOL0     C72085  10.960   8.578   8.212 -0.8270  0.8032 -0.2317
  523MOL0     C72086  10.824   8.607   8.183 -0.7307 -0.1191  0.8273
  523MOL0     N72087  10.191   8.362   7.872  0.0247  0.2614  0.2215
  523MOL0     N72088  10.133   8.251   7.838 -0.0165 -0.4656 -0.1627
  523MOL0     C72089   9.262   7.535   7.947  0.2488 -0.0135  0.9738
  523MOL0     C72090   9.219   7.437   8.037  0.0574  1.0489 -0.1320
  523MOL0     C72091   9.055   7.258   8.452  0.5906  0.0481  0.6638
  523MOL0     C72092   8.952   7.187   8.385 -0.1616 -0.3036  0.1503
  523MOL0     C72093   8.883   7.077   8.438 -0.2763 -0.0921 -0.5347
  523MOL0     C72094   8.917   7.026   8.561 -0.1407 -0.4805  0.3684
  523MOL0     O72095   8.853   6.916   8.603 -0.8975  0.9303  0.2558
  523MOL0     C72096   8.871   6.792   8.526  0.0673 -0.9821  0.7170
  523MOL0     C72097   8.951   6.701   8.623  0.6347  0.2255 -0.4872
  523MOL0     C72098   8.980   6.568   8.558  0.5154  0.3126 -0.5464
  523MOL0     C72099   8.852   6.474   8.546  0.1941 -0.0033  0.6659
  523MOL0     C72100   8.739   6.494   8.455  0.1651  0.3075  0.2389
  523MOL0     C72101   8.647   6.502   8.374 -0.7586 -0.0084  0.1929
  523MOL0     C72102   9.022   7.091   8.627  0.0365  0.0925  0.0847
  523MOL0     C72103   9.086   7.213   8.581 -0.2760  0.5412 -0.0310
  523MOL0     C72104   9.168   7.301   8.685  0.7487 -0.4946 -0.2922
  523MOL0     H72105   9.135   7.627   8.299  4.4189 -0.8827  1.0660
  523MOL0     H72106   9.210   7.807   8.141 -2.3508  0.9672 -2.3449
  523MOL0     H72107   9.276   7.855   7.703  1.1212  0.3678 -0.9369
  523MOL0     H72108   9.239   7.682   7.715  0.9861 -1.8397  2.2737
  523MOL0     H72109   9.472   7.648   7.793  1.1606  0.2197 -0.0020
  523MOL0     H72110   9.482   7.746   7.642  1.3951  3.8929  0.2466
  523MOL0     H72111   9.644   7.825   7.779 -0.1802 -0.1787 -0.4925
  523MOL0     H72112   9.519   7.952   7.742  1.9004  1.4522  1.3190
  523MOL0     H72113   9.471   7.946   7.993  0.2376 -1.3743  3.1004
  523MOL0     H72114   9.533   7.782   8.004  1.7405  1.6657  2.7186
  523MOL0     H72115   9.762   7.873   7.949 -0.9778  0.4632 -3.7312
  523MOL0     H72116   9.694   7.945   8.095  2.0973 -0.0421 -0.4136
  523MOL0     H72117   9.709   8.071   7.825 -0.4705  0.2483 -0.0354
  523MOL0     H72118   9.611   8.135   7.952 -1.2404 -1.6062  1.6278
  523MOL0     H72119   9.816   8.128   8.100 -0.6549  2.5133  0.7728
  523MOL0     H72120   9.814   8.261   7.984  3.3264  0.9378 -0.2031
  523MOL0     H72121   9.988   8.022   7.991 -0.8957 -0.2956  0.5582
  523MOL0     H72122   9.935   8.071   7.823 -1.0163 -0.1714 -0.1621
  523MOL0     H72123  10.025   8.323   8.154  2.7687  5.1617  0.5871
  523MOL0     H72124  10.114   8.544   8.168  0.3755  1.0369 -0.7637
  523MOL0     H72125  10.172   8.614   8.021  0.1079  0.5789  2.6376
  523MOL0     H72126  10.301   8.405   8.194  3.4588 -0.2789 -0.2920
  523MOL0     H72127  10.390   8.484   8.064  0.0800 -2.0401  0.0586
  523MOL0     H72128  10.353   8.710   8.206  1.9442 -0.1088 -0.9635
  523MOL0     H72129  10.265   8.611   8.320 -2.1632 -0.6718 -0.4895
  523MOL0     H72130  10.515   8.649   8.396 -1.6756  2.1923 -1.4377
  523MOL0     H72131  10.492   8.469   8.353 -1.5253  0.2022  0.2118
  523MOL0     H72132  10.674   8.495   8.472 -2.5259 -1.1689 -2.1442
  523MOL0     H72133  10.819   8.452   8.623 -0.2124 -0.0827 -0.2339
  523MOL0     H72134  10.986   8.509   8.623 -0.3520  0.7856 -0.8788
  523MOL0     H72135  10.952   8.342   8.565  3.3597  1.3097  0.7584
  523MOL0     H72136  11.360   8.468   8.072  0.5396  1.4878 -0.3896
  523MOL0     H72137  11.574   8.380   8.068 -1.1558 -5.0555  1.5779
  523MOL0     H72138  11.815   8.431   8.464  0.1468 -1.5202  0.9857
  523MOL0     H72139  11.889   8.291   8.381  2.9067  0.4407 -0.0897
  523MOL0     H72140  11.993   8.440   8.213 -0.3932  0.8544 -0.0073
  523MOL0     H72141  11.924   8.582   8.298  1.9420  0.9830 -0.3852
  523MOL0     H72142  12.043   8.536   8.491 -1.2725  2.2555 -0.8375
  523MOL0     H72143  12.165   8.548   8.359  1.0433 -0.4208  1.6308
  523MOL0     H72144  12.124   8.290   8.337 -0.9016  0.8924 -0.3591
  523MOL0     H72145  12.062   8.319   8.504  0.1538  0.6805  1.3401
  523MOL0     H72146  12.340   8.391   8.382 -1.2708  2.3295  0.6758
  523MOL0     H72147  12.289   8.450   8.541  1.7767  0.4127  0.5297
  523MOL0     H72148  12.253   8.154   8.516  0.8830 -1.0004 -0.8014
  523MOL0     H72149  12.285   8.270   8.649  2.2500  1.7582 -0.8569
  523MOL0     H72150  12.500   8.157   8.627  3.6747 -0.2336 -2.1632
  523MOL0     H72151  12.512   8.319   8.569  0.1751  0.0958 -0.2109
  523MOL0     H72152  12.493   8.247   8.337 -0.0363  0.6942  1.3342
  523MOL0     H72153  12.473   8.078   8.383 -0.8849  1.1561 -1.9308
  523MOL0     H72154  11.629   8.506   8.478  0.0929  0.7081 -0.8965
  523MOL0     H72155  11.394   8.585   8.489  0.3267  1.3583 -0.0128
  523MOL0     H72156  11.034   8.591   8.134  0.9030 -2.2342  0.7447
  523MOL0     H72157  10.800   8.645   8.083 -0.5782 -0.5266  0.6339
  523MOL0     H72158   9.293   7.511   7.846 -2.2670  0.0013  0.1338
  523MOL0     H72159   9.230   7.335   8.003  3.1137  1.2340 -0.0535
  523MOL0     H72160   8.934   7.210   8.280  0.7582 -2.0485 -0.4227
  523MOL0     H72161   8.804   7.032   8.379 -1.2909 -0.1071  0.7857
  523MOL0     H72162   8.771   6.751   8.510 -0.5373 -0.3576  2.5932
  523MOL0     H72163   8.918   6.800   8.428 -0.3788 -0.4540  0.5422
  523MOL0     H72164   8.906   6.692   8.723  2.6367 -1.6086  0.3389
  523MOL0     H72165   9.049   6.747   8.639  1.0450 -0.8983  0.3636
  523MOL0     H72166   9.005   6.589   8.453  2.1271  2.3077  0.1623
  523MOL0     H72167   9.061   6.516   8.609 -0.1694 -0.8173 -0.5763
  523MOL0     H72168   8.813   6.467   8.648  1.4839 -0.0073  1.1722
  523MOL0     H72169   8.891   6.374   8.525 -0.8430 -0.7294  2.0602
  523MOL0     H72170   8.567   6.524   8.306  0.4028  2.6701 -0.4439
  523MOL0     H72171   9.027   7.055   8.729 -0.0784  1.2346  0.5071
  523MOL0     H72172   9.159   7.252   8.783 -2.4348  0.0670 -0.2055
  523MOL0     H72173   9.269   7.324   8.650 -0.3971 -0.3598 -3.8667
  523MOL0     H72174   9.116   7.397   8.695 -0.9645 -1.5153  1.2193
  524MOL0     O72175   9.938   9.951   8.283 -0.9463  0.8155 -0.9761
  524MOL0     C72176   9.955   9.827   8.297 -0.8279  0.1637 -0.3734
  524MOL0     O72177   9.851   9.744   8.345  0.2520  0.1074 -0.7789
  524MOL0     C72178   9.719   9.794   8.357 -0.2468 -0.4044 -1.0938
  524MOL0     C72179   9.641   9.830   8.243 -0.3368  0.3446 -0.0733
  524MOL0     C72180   9.503   9.867   8.265  0.6357  0.5889 -0.6704
  524MOL0     C72181   9.436   9.863   8.398 -0.5238  0.3846 -0.1328
  524MOL0     O72182   9.302   9.868   8.393  0.2135  0.1984 -0.4221
  524MOL0     C72183   9.232   9.860   8.516  1.3614  0.5119  0.0274
  524MOL0     C72184   9.082   9.854   8.469  0.4304 -0.0787 -0.7304
  524MOL0     C72185   8.977   9.866   8.579 -0.6063 -0.7089 -0.4125
  524MOL0     C72186   8.850   9.770   8.567  0.7012 -0.3285 -0.3536
  524MOL0     C72187   8.761   9.768   8.699 -0.1063 -0.6781 -0.0609
  524MOL0     C72188   8.652   9.666   8.708 -0.2879 -0.8000 -0.9933
  524MOL0     C72189   8.721   9.525   8.709 -0.4966  0.9079 -0.3642
  524MOL0     C72190   8.640   9.422   8.787 -0.3185 -0.0224 -1.2084
  524MOL0     N72191   8.627   9.472   8.925  0.8499 -0.0301 -0.4865
  524MOL0     C72192   8.737   9.509   8.996  0.0882 -0.5350  0.1018
  524MOL0     C72193   8.692   9.571   9.106 -0.0430  0.6717 -0.0635
  524MOL0     C72194   8.779   9.631   9.215 -0.6337 -0.1664 -0.3502
  524MOL0     C72195   8.858   9.751   9.190 -0.0897  0.4764  0.7377
  524MOL0     C72196   8.763   9.875   9.156  0.6435 -0.3052  0.4117
  524MOL0     C72197   8.842  10.004   9.133 -0.6126 -0.2310  0.1851
  524MOL0     O72198   8.920   9.994   9.012 -0.0852  0.0933  0.5340
  524MOL0     C72199   9.050   9.957   9.035  0.8798 -0.4628 -0.4849
  524MOL0     C72200   9.098   9.862   8.957 -1.3618  0.5112 -0.1162
  524MOL0     C72201   9.230   9.808   8.967 -0.1978  0.5533  0.2926
  524MOL0     C72202   9.260   9.700   8.867 -0.1841  0.2337 -0.7073
  524MOL0     C72203   9.320   9.863   9.063  0.9942  0.4456  0.1468
  524MOL0     C72204   9.465   9.825   9.058 -0.4431  0.1918 -0.2358
  524MOL0     O72205   9.525   9.815   9.179  0.5201 -0.8156  0.1907
  524MOL0     C72206   9.640   9.749   9.189  0.5182 -0.8795  0.4865
  524MOL0     C72207   9.766   9.818   9.167 -0.1124 -0.6611  0.3685
  524MOL0     C72208   9.887   9.758   9.192  0.1854  0.5875 -0.3396
  524MOL0     C72209   9.886   9.625   9.229 -0.8493  0.1276  0.2748
  524MOL0     O72210  10.000   9.544   9.256 -0.2123 -0.6930  0.4120
  524MOL0     C72211  10.135   9.599   9.244 -0.2824  0.7001 -0.5136
  524MOL0     C72212  10.224   9.533   9.352 -1.1105  0.3307 -0.5198
  524MOL0     C72213  10.360   9.608   9.376  0.4301  0.2183 -0.5580
  524MOL0     C72214  10.422   9.564   9.510 -0.0742  0.0610 -0.4824
  524MOL0     C72215  10.532   9.656   9.558 -0.1068  0.5446  1.0494
  524MOL0     C72216  10.498   9.775   9.631 -0.8389 -0.3813  0.0968
  524MOL0     C72217  10.609   9.878   9.654 -0.4043 -0.4973  0.4121
  524MOL0     C72218  10.687   9.836   9.782 -0.0544 -0.1312  0.7053
  524MOL0    Cl72219  10.822   9.950   9.804  0.0010  0.0638 -0.3345
  524MOL0     C72220   9.771   9.562   9.263  0.1954  0.2211 -0.0750
  524MOL0     C72221   9.640   9.617   9.231  0.0796  0.9334 -0.2026
  524MOL0     O72222   9.518   9.788   8.953  0.4318  0.1845  0.7330
  524MOL0     C72223   9.269   9.958   9.148 -0.9621 -0.6430  0.2772
  524MOL0     C72224   9.140  10.013   9.132  0.4974  0.5874 -0.7880
  524MOL0     N72225   8.550   9.576   9.103 -0.1455 -0.0157  0.8251
  524MOL0     N72226   8.515   9.517   8.992  0.3852  0.5180 -0.2249
  524MOL0     C72227   9.529   9.838   8.510  0.0707 -0.3850 -0.4164
  524MOL0     C72228   9.665   9.803   8.487 -0.2352 -1.3009 -0.7902
  524MOL0     C72229  10.099   9.783   8.283 -0.1112  0.1769 -0.2728
  524MOL0     C72230  10.204   9.875   8.261  0.5089  0.7622 -0.4617
  524MOL0     C72231  10.330   9.838   8.233  0.1773  0.8822  0.2925
  524MOL0     C72232  10.360   9.703   8.236  0.3793  0.9720 -0.0984
  524MOL0     O72233  10.493   9.655   8.228  0.6125  0.2484 -0.6705
  524MOL0     C72234  10.594   9.743   8.187  0.2646  0.4993  0.5505
  524MOL0     C72235  10.738   9.688   8.170  0.1303 -0.2559 -0.2501
  524MOL0     C72236  10.797   9.618   8.285 -0.4709  0.6915 -0.6247
  524MOL0     C72237  10.735   9.485   8.307 -0.2916 -0.6395  0.7347
  524MOL0     C72238  10.828   9.394   8.371  0.1417  0.1575 -0.5653
  524MOL0     C72239  10.905   9.309   8.409 -0.4513  0.7454 -0.3589
  524MOL0     C72240  10.263   9.610   8.279  0.3313 -0.4372  0.2528
  524MOL0     C72241  10.133   9.641   8.293  0.6730 -0.0669 -1.3076
  524MOL0     C72242  10.029   9.525   8.316  0.7842 -0.0303  0.6624
  524MOL0     H72243   9.678   9.828   8.141  0.6189  0.0159  0.2646
  524MOL0     H72244   9.444   9.897   8.179 -1.8846  0.3439  0.8652
  524MOL0     H72245   9.240   9.951   8.576 -0.2678  0.3909  0.4849
  524MOL0     H72246   9.259   9.769   8.570  1.1181  0.6836  0.4411
  524MOL0     H72247   9.062   9.941   8.405  0.3384  1.1212  0.8573
  524MOL0     H72248   9.052   9.772   8.403  3.1589  0.2369 -2.5334
  524MOL0     H72249   9.028   9.828   8.669 -0.7820  1.3160  0.5808
  524MOL0     H72250   8.945   9.967   8.604 -1.2582 -1.1880  0.7720
  524MOL0     H72251   8.790   9.803   8.482  0.8831  0.0790 -0.3216
  524MOL0     H72252   8.869   9.663   8.552  0.3246 -0.6473  1.2933
  524MOL0     H72253   8.712   9.865   8.713  3.5616  1.5058 -1.0020
  524MOL0     H72254   8.825   9.752   8.785 -0.7294  1.7300  0.9274
  524MOL0     H72255   8.594   9.688   8.798  2.2686 -0.4514  0.6362
  524MOL0     H72256   8.581   9.683   8.626 -1.0478  0.1992 -0.1698
  524MOL0     H72257   8.820   9.538   8.755 -0.9841 -0.2498  1.1142
  524MOL0     H72258   8.742   9.482   8.611  2.7742  0.1131  0.5499
  524MOL0     H72259   8.541   9.398   8.747 -0.5439  0.1625 -0.7666
  524MOL0     H72260   8.701   9.331   8.782 -1.3837 -0.7915 -0.5273
  524MOL0     H72261   8.841   9.493   8.970  0.4617  1.0378  0.5128
  524MOL0     H72262   8.844   9.556   9.261 -0.6067 -0.4038 -0.7658
  524MOL0     H72263   8.712   9.668   9.293 -0.0457  4.4180 -1.7634
  524MOL0     H72264   8.921   9.780   9.275  1.9594  2.6242 -1.3717
  524MOL0     H72265   8.926   9.739   9.105  1.4452 -0.3416  2.0258
  524MOL0     H72266   8.685   9.854   9.082  1.7780  0.9173 -1.1907
  524MOL0     H72267   8.702   9.903   9.243  0.9939 -1.2260  0.9698
  524MOL0     H72268   8.770  10.086   9.129  1.1297  1.4800  1.5938
  524MOL0     H72269   8.900  10.023   9.224  1.6132 -2.4512 -0.6413
  524MOL0     H72270   9.028   9.825   8.882 -2.0666  2.5038 -0.5155
  524MOL0     H72271   9.334   9.634   8.914 -1.4669 -0.3630  0.5170
  524MOL0     H72272   9.296   9.736   8.770  1.6691  1.0485  0.2324
  524MOL0     H72273   9.176   9.633   8.849 -1.4125  1.3164  0.8039
  524MOL0     H72274   9.756   9.923   9.142  1.7377 -0.0279  2.0967
  524MOL0     H72275   9.979   9.814   9.186 -1.0278  2.7415  0.0320
  524MOL0     H72276  10.178   9.577   9.146 -2.8447  1.8787 -2.0102
  524MOL0     H72277  10.132   9.708   9.247 -3.1696  0.6916  0.3667
  524MOL0     H72278  10.160   9.533   9.440  0.0274 -0.2916  0.3283
  524MOL0     H72279  10.240   9.431   9.316  0.6684  0.9659 -1.6713
  524MOL0     H72280  10.340   9.715   9.363 -3.2848 -0.5401 -2.4247
  524MOL0     H72281  10.428   9.579   9.296  2.4583  0.3748  1.0155
  524MOL0     H72282  10.459   9.463   9.492 -0.1907  0.4146 -3.0000
  524MOL0     H72283  10.344   9.562   9.587 -0.6973  1.5345 -1.0449
  524MOL0     H72284  10.593   9.592   9.623 -2.9217 -1.5899  1.8103
  524MOL0     H72285  10.591   9.677   9.468 -2.2789  0.4632 -0.4931
  524MOL0     H72286  10.438   9.747   9.718  2.7794 -3.8214  1.8037
  524MOL0     H72287  10.436   9.844   9.572 -0.2874  1.3578  1.4524
  524MOL0     H72288  10.579   9.983   9.661  1.6687  0.1627 -0.2046
  524MOL0     H72289  10.679   9.881   9.570  1.3339  1.6729  1.8353
  524MOL0     H72290  10.732   9.737   9.775  0.6151  0.2490 -0.7234
  524MOL0     H72291  10.620   9.851   9.867  1.2696  0.7205  1.6264
  524MOL0     H72292   9.772   9.469   9.317 -1.4875  1.2224  1.7970
  524MOL0     H72293   9.544   9.571   9.251  0.3196  1.1843  1.8064
  524MOL0     H72294   9.343  10.003   9.212 -0.0614  1.6366 -2.1861
  524MOL0     H72295   9.106  10.090   9.200 -1.7762 -0.1058 -1.0544
  524MOL0     H72296   9.507   9.847   8.616  2.1101  5.9724 -0.1214
  524MOL0     H72297   9.737   9.794   8.568  0.0825  2.4176 -0.4813
  524MOL0     H72298  10.175   9.980   8.258 -1.6598  0.3872  2.6503
  524MOL0     H72299  10.396   9.920   8.207 -0.9561  2.3000  1.6450
  524MOL0     H72300  10.562   9.803   8.102 -0.1360 -0.3709  0.0685
  524MOL0     H72301  10.621   9.813   8.266  2.4892  1.8652 -1.2871
  524MOL0     H72302  10.802   9.774   8.147  0.8548  0.1746  2.9873
  524MOL0     H72303  10.745   9.621   8.084 -0.3534 -2.0919  1.0986
  524MOL0     H72304  10.903   9.599   8.267 -0.7966 -2.0653 -0.0306
  524MOL0     H72305  10.787   9.684   8.372  0.3366 -2.3099  1.9320
  524MOL0     H72306  10.708   9.445   8.209 -0.6137 -1.0415  0.9853
  524MOL0     H72307  10.651   9.513   8.372 -0.3575  1.0447 -0.0117
  524MOL0     H72308  10.988   9.245   8.432 -0.5376  0.3903 -1.0237
  524MOL0     H72309  10.291   9.507   8.257 -0.4201 -0.7865  0.9055
  524MOL0     H72310   9.957   9.530   8.234  0.7698  0.7941  0.7112
  524MOL0     H72311  10.087   9.433   8.308 -2.0970 -1.9967  1.1646
  524MOL0     H72312   9.962   9.529   8.402 -2.9382  0.5830 -2.0210
  525MOL0     O72313   7.068  10.068   5.393  0.0753 -0.2311  0.3214
  525MOL0     C72314   6.962  10.092   5.339 -0.1858 -0.4005  0.9196
  525MOL0     O72315   6.957  10.123   5.204  1.0258  0.6717 -0.2761
  525MOL0     C72316   7.064  10.161   5.128 -0.2067  0.1181  0.2153
  525MOL0     C72317   7.048  10.162   4.985 -0.5862 -0.1447  0.1973
  525MOL0     C72318   7.140  10.215   4.902 -0.4235  0.1087 -0.5685
  525MOL0     C72319   7.253  10.269   4.946 -0.4101  0.5241  0.5013
  525MOL0     O72320   7.332  10.329   4.853  1.1708  0.0767 -0.6763
  525MOL0     C72321   7.466  10.285   4.867  0.3987 -0.5448 -0.2831
  525MOL0     C72322   7.543  10.344   4.750 -1.0189 -0.3655  0.5732
  525MOL0     C72323   7.564  10.497   4.755 -0.0079  0.1822 -0.3578
  525MOL0     C72324   7.601  10.550   4.621 -0.5235  0.1996 -0.4700
  525MOL0     C72325   7.657  10.691   4.655 -0.0654 -0.0241  0.4820
  525MOL0     C72326   7.668  10.776   4.525 -0.4717  0.1657 -0.3229
  525MOL0     C72327   7.755  10.899   4.548 -0.0083 -0.7384 -0.4215
  525MOL0     C72328   7.702  10.989   4.657 -0.0972  0.3468 -0.2754
  525MOL0     N72329   7.795  11.110   4.686 -0.4024  0.2702 -0.0660
  525MOL0     C72330   7.893  11.118   4.781  0.2870  0.5372 -0.3000
  525MOL0     C72331   7.915  11.249   4.800  0.6347  0.2956 -0.0509
  525MOL0     C72332   8.003  11.299   4.902 -0.4085  0.4509  0.7939
  525MOL0     C72333   8.148  11.287   4.872  0.0051  0.2181 -0.9472
  525MOL0     C72334   8.224  11.389   4.956  0.6703 -0.7592 -0.0398
  525MOL0     C72335   8.368  11.403   4.923 -0.5170 -0.6179  0.2037
  525MOL0     O72336   8.429  11.520   4.977 -0.7051 -0.5768  0.5781
  525MOL0     C72337   8.547  11.563   4.932 -0.1956  0.5128  0.4455
  525MOL0     C72338   8.583  11.681   4.991  0.6805 -0.9864  0.7823
  525MOL0     C72339   8.704  11.736   4.956  1.0470 -0.5131 -0.0531
  525MOL0     C72340   8.746  11.877   5.009 -0.6690  0.5103 -0.3967
  525MOL0     C72341   8.799  11.656   4.876 -0.9455 -0.6312 -0.3519
  525MOL0     C72342   8.927  11.704   4.820  0.0202 -1.0638 -0.1098
  525MOL0     O72343   9.013  11.610   4.781  0.1704  0.3967 -0.2306
  525MOL0     C72344   9.150  11.628   4.784  0.1456  0.6847  0.8300
  525MOL0     C72345   9.223  11.703   4.877  0.4884  0.4031  0.5520
  525MOL0     C72346   9.364  11.717   4.855  0.7547 -0.7826 -0.6237
  525MOL0     C72347   9.427  11.638   4.755 -0.5942  0.5812  0.9153
  525MOL0     O72348   9.566  11.637   4.755 -0.1516  0.0741  0.0995
  525MOL0     C72349   9.619  11.503   4.746 -0.9628 -1.2539  0.3278
  525MOL0     C72350   9.576  11.410   4.867  0.6907 -1.2527 -0.5200
  525MOL0     C72351   9.677  11.299   4.890 -1.0282 -0.9040  0.4760
  525MOL0     C72352   9.632  11.186   4.990  0.4081  0.3065 -0.4529
  525MOL0     C72353   9.755  11.124   5.055  0.2221 -0.9402 -0.6217
  525MOL0     C72354   9.737  10.993   5.140  0.6152 -0.0965  0.5036
  525MOL0     C72355   9.632  10.992   5.251  0.4874 -0.5572  0.1996
  525MOL0     C72356   9.675  10.906   5.361 -0.4296 -0.3755  0.7509
  525MOL0    Cl72357   9.678  10.737   5.310  0.3411  0.1122 -0.1792
  525MOL0     C72358   9.355  11.564   4.671  0.0843 -0.1852 -0.0157
  525MOL0     C72359   9.215  11.554   4.683 -1.1161  0.4980  0.4702
  525MOL0     O72360   8.950  11.825   4.813 -0.0903  0.2481  1.1513
  525MOL0     C72361   8.761  11.532   4.833  0.4114 -0.1591 -0.2256
  525MOL0     C72362   8.635  11.482   4.861 -0.1799 -0.0854  0.1490
  525MOL0     N72363   7.829  11.323   4.715  0.4486  0.4414 -0.0759
  525MOL0     N72364   7.758  11.232   4.642  0.2582 -0.4130 -0.6491
  525MOL0     C72365   7.281  10.266   5.083  0.1156 -0.1937 -0.2771
  525MOL0     C72366   7.183  10.221   5.172 -0.6791  0.8212 -1.0900
  525MOL0     C72367   6.830  10.072   5.405 -0.2371 -0.1740  0.2927
  525MOL0     C72368   6.723  10.155   5.383 -1.0999  0.3615 -0.4377
  525MOL0     C72369   6.593  10.131   5.436  0.0160  0.6751  0.4318
  525MOL0     C72370   6.569  10.011   5.502 -0.2987 -0.9297 -0.2983
  525MOL0     O72371   6.444   9.973   5.536 -0.2621 -0.6333 -0.5560
  525MOL0     C72372   6.410  10.020   5.668  1.9192 -0.1461 -0.5433
  525MOL0     C72373   6.277   9.954   5.715  0.1450 -0.9743 -0.7636
  525MOL0     C72374   6.158   9.985   5.627 -0.3526 -0.0084 -0.5313
  525MOL0     C72375   6.107  10.126   5.603  0.1211  0.7396  0.0612
  525MOL0     C72376   6.053  10.178   5.730 -0.3979 -0.5661 -0.8076
  525MOL0     C72377   6.001  10.235   5.828 -0.0174  0.6369  0.0198
  525MOL0     C72378   6.676   9.927   5.529  0.5692  0.7715  0.2904
  525MOL0     C72379   6.805   9.950   5.473 -0.8518 -0.6195  0.1905
  525MOL0     C72380   6.908   9.850   5.505 -0.7552 -0.8344  0.8683
  525MOL0     H72381   6.951  10.126   4.951 -1.7579  3.8527 -1.1854
  525MOL0     H72382   7.104  10.226   4.800 -0.6872  4.8299 -0.1822
  525MOL0     H72383   7.478  10.179   4.846  0.2911 -0.5561 -0.2922
  525MOL0     H72384   7.513  10.310   4.962  0.3326 -0.7651 -0.1914
  525MOL0     H72385   7.643  10.300   4.752 -1.6085 -1.7797  2.2183
  525MOL0     H72386   7.498  10.329   4.652 -2.4772  2.5559  0.7022
  525MOL0     H72387   7.480  10.554   4.797 -1.2962 -2.1990  0.4765
  525MOL0     H72388   7.644  10.513   4.829  0.2931  0.1500 -0.6735
  525MOL0     H72389   7.689  10.503   4.577  0.7725  1.0852  1.0618
  525MOL0     H72390   7.519  10.550   4.548 -0.8081 -0.1552 -0.1589
  525MOL0     H72391   7.757  10.688   4.700  0.5025  2.8528 -0.3836
  525MOL0     H72392   7.597  10.753   4.723 -0.3274  1.1164 -0.7578
  525MOL0     H72393   7.703  10.711   4.444 -0.9727  1.4827 -1.6360
  525MOL0     H72394   7.563  10.801   4.506 -0.4049  1.2833  0.6654
  525MOL0     H72395   7.768  10.962   4.460 -0.6937 -1.0028 -0.7239
  525MOL0     H72396   7.855  10.869   4.581  0.2627  1.6829  1.2210
  525MOL0     H72397   7.612  11.030   4.611 -0.0130  0.4361 -0.3620
  525MOL0     H72398   7.683  10.931   4.748  0.6206 -1.4450 -1.2251
  525MOL0     H72399   7.941  11.036   4.833  1.8330  1.9116  0.5447
  525MOL0     H72400   7.982  11.259   5.002  0.9559  0.2082  1.0071
  525MOL0     H72401   7.976  11.405   4.908  0.9631  0.8353  0.5514
  525MOL0     H72402   8.171  11.185   4.904 -0.6656  0.7423  1.4536
  525MOL0     H72403   8.170  11.298   4.766  1.0093  1.7895 -0.6103
  525MOL0     H72404   8.182  11.489   4.940  0.9503 -0.8479 -1.4844
  525MOL0     H72405   8.211  11.360   5.061  2.1682  0.1453  0.4308
  525MOL0     H72406   8.426  11.316   4.954  0.2502 -0.3910 -0.5461
  525MOL0     H72407   8.371  11.412   4.814 -1.2306  1.0695  0.2906
  525MOL0     H72408   8.501  11.729   5.043 -0.6524 -1.4623 -0.8219
  525MOL0     H72409   8.778  11.951   4.936  2.4767  0.3853  0.7183
  525MOL0     H72410   8.823  11.869   5.087  2.1950  0.4782 -3.0334
  525MOL0     H72411   8.670  11.937   5.061  0.1294 -0.9414  2.7149
  525MOL0     H72412   9.168  11.753   4.956  0.8601 -2.3278  2.6638
  525MOL0     H72413   9.432  11.773   4.918  0.0594 -3.0248  2.3172
  525MOL0     H72414   9.592  11.465   4.648 -1.8024  0.1585 -0.0182
  525MOL0     H72415   9.729  11.498   4.743 -0.8301  0.3303  1.2680
  525MOL0     H72416   9.549  11.477   4.949 -0.9227  1.6101 -3.1845
  525MOL0     H72417   9.475  11.375   4.846  0.0706  0.3776 -0.4229
  525MOL0     H72418   9.772  11.343   4.923 -1.4576 -0.3485  0.9937
  525MOL0     H72419   9.696  11.258   4.790 -0.1387 -1.3588  0.8188
  525MOL0     H72420   9.574  11.106   4.944  0.0736  1.1142 -1.4654
  525MOL0     H72421   9.577  11.237   5.070  1.1771 -2.7953  2.3045
  525MOL0     H72422   9.833  11.100   4.983 -0.6343 -0.3699 -1.7723
  525MOL0     H72423   9.786  11.203   5.125 -1.4315 -0.3940 -0.4532
  525MOL0     H72424   9.833  10.967   5.185  0.0379 -1.3204  1.0801
  525MOL0     H72425   9.713  10.917   5.064 -1.4957 -1.3079  2.2723
  525MOL0     H72426   9.541  10.944   5.215 -0.3575  0.5915  0.7306
  525MOL0     H72427   9.601  11.091   5.287  0.8339 -1.7445  4.2503
  525MOL0     H72428   9.625  10.921   5.457 -1.8210 -0.8322  0.1294
  525MOL0     H72429   9.771  10.953   5.385 -0.9058  1.5292 -0.7652
  525MOL0     H72430   9.400  11.525   4.581 -0.7725 -1.4823  0.0888
  525MOL0     H72431   9.158  11.500   4.608 -0.3726  0.8757 -0.3816
  525MOL0     H72432   8.828  11.469   4.777 -0.7320 -1.1219 -0.5497
  525MOL0     H72433   8.618  11.379   4.829  0.5804  0.1013 -0.9187
  525MOL0     H72434   7.372  10.310   5.123 -0.4323  0.0829  0.6987
  525MOL0     H72435   7.202  10.233   5.279 -1.3783  1.9842 -1.0772
  525MOL0     H72436   6.730  10.245   5.323 -0.5392 -0.0552 -0.9948
  525MOL0     H72437   6.510  10.195   5.409 -1.2166  0.3165  3.0813
  525MOL0     H72438   6.491  10.006   5.740  2.3615  2.2517 -0.4701
  525MOL0     H72439   6.398  10.129   5.668  0.1734 -0.2525  1.9196
  525MOL0     H72440   6.250   9.979   5.818  0.3610  2.4284 -1.3898
  525MOL0     H72441   6.284   9.845   5.718 -0.6640 -1.0338 -0.7671
  525MOL0     H72442   6.181   9.945   5.528  3.3227 -1.4382  0.7101
  525MOL0     H72443   6.079   9.925   5.673  0.2480 -1.6479 -1.5574
  525MOL0     H72444   6.035  10.139   5.522  2.8359  1.5219 -2.3807
  525MOL0     H72445   6.185  10.198   5.578 -0.4129  1.5032  0.5272
  525MOL0     H72446   5.958  10.283   5.913 -0.1627  1.2751 -0.4084
  525MOL0     H72447   6.663   9.838   5.588 -1.1422  2.4647  2.6543
  525MOL0     H72448   6.985   9.836   5.429 -1.7235 -0.6558 -0.1681
  525MOL0     H72449   6.951   9.874   5.603 -2.1370  0.5102  1.1899
  525MOL0     H72450   6.855   9.755   5.494  1.8239 -2.3397  0.6207
  526MOL0     O72451   2.958   7.588   2.844  0.4038 -0.1244  0.2236
  526MOL0     C72452   2.969   7.704   2.878  1.2590 -0.2069  0.2469
  526MOL0     O72453   3.081   7.751   2.942 -0.1863 -0.5892  0.2191
  526MOL0     C72454   3.188   7.670   2.958 -0.2396  0.3525 -0.6451
  526MOL0     C72455   3.309   7.685   2.890 -0.0535  1.2524  0.1533
  526MOL0     C72456   3.420   7.602   2.916 -0.2557 -0.3464 -0.4856
  526MOL0     C72457   3.407   7.497   3.006  0.7776 -0.0318 -0.2260
  526MOL0     O72458   3.509   7.412   3.035 -0.1017 -0.1619 -0.0141
  526MOL0     C72459   3.565   7.341   2.928 -0.2430 -0.1568  0.1332
  526MOL0     C72460   3.643   7.224   2.971 -0.6263  0.0954  0.2331
  526MOL0     C72461   3.557   7.135   3.065  0.1254  0.1325 -0.5280
  526MOL0     C72462   3.418   7.082   3.019  0.0284  0.2542  0.1630
  526MOL0     C72463   3.372   6.960   3.106  0.3616 -0.9594  0.3917
  526MOL0     C72464   3.243   6.892   3.050 -0.1375 -0.1074 -0.1743
  526MOL0     C72465   3.224   6.746   3.097  0.6060  0.7366 -0.0733
  526MOL0     C72466   3.283   6.646   3.001 -0.5767 -0.4575  0.1664
  526MOL0     N72467   3.190   6.624   2.886 -0.5120 -0.0900  0.4523
  526MOL0     C72468   3.205   6.665   2.751 -0.6470 -0.1442 -0.8829
  526MOL0     C72469   3.147   6.573   2.676  0.6931  0.1831 -0.6932
  526MOL0     C72470   3.137   6.573   2.529  0.5768  0.1727  0.2760
  526MOL0     C72471   3.255   6.625   2.442  0.5477  0.2580  0.5601
  526MOL0     C72472   3.255   6.586   2.291  0.7119 -0.5217 -0.5061
  526MOL0     C72473   3.367   6.650   2.220 -0.4310 -0.0385 -0.2165
  526MOL0     O72474   3.358   6.639   2.078 -0.4748  0.3189 -0.2232
  526MOL0     C72475   3.470   6.676   2.001 -0.3210 -0.5889 -0.4575
  526MOL0     C72476   3.600   6.679   2.051  1.0075 -1.1841  0.2706
  526MOL0     C72477   3.704   6.700   1.959 -0.2024  0.7433  0.2642
  526MOL0     C72478   3.839   6.678   2.024  0.4716 -0.4277  1.2002
  526MOL0     C72479   3.683   6.742   1.825 -0.0478 -0.2583  0.4795
  526MOL0     C72480   3.794   6.762   1.724  0.5150  0.1596  0.1414
  526MOL0     O72481   3.918   6.800   1.775  0.2577 -0.4068  0.7790
  526MOL0     C72482   4.021   6.770   1.697 -0.1587 -1.2429  0.3604
  526MOL0     C72483   4.099   6.871   1.655 -0.2744 -0.0287  1.1379
  526MOL0     C72484   4.222   6.848   1.590 -0.5661 -0.1059 -0.4344
  526MOL0     C72485   4.257   6.720   1.560 -0.2228 -0.1478  0.6720
  526MOL0     O72486   4.374   6.714   1.492 -0.4043 -0.2055 -0.0850
  526MOL0     C72487   4.392   6.627   1.379 -0.3345  0.6761  0.1869
  526MOL0     C72488   4.535   6.639   1.324 -0.4685 -0.0431 -0.4458
  526MOL0     C72489   4.566   6.533   1.228  0.2454 -0.6164  0.5307
  526MOL0     C72490   4.704   6.555   1.173 -0.2288  0.6635  0.5845
  526MOL0     C72491   4.737   6.441   1.069 -0.0804  0.5908 -0.5953
  526MOL0     C72492   4.866   6.475   1.006 -0.2951  0.2858  0.1686
  526MOL0     C72493   4.928   6.339   0.961 -0.7527 -0.3157  0.2667
  526MOL0     C72494   5.070   6.358   0.904 -0.5283 -0.1807  0.0547
  526MOL0    Cl72495   5.149   6.210   0.883 -0.4747 -0.3920 -0.1023
  526MOL0     C72496   4.176   6.610   1.590 -0.4991  0.4170  0.6278
  526MOL0     C72497   4.053   6.636   1.659 -0.3622  0.2300 -0.8589
  526MOL0     O72498   3.771   6.730   1.609 -0.8971 -0.5832  0.5596
  526MOL0     C72499   3.551   6.734   1.778 -0.0588 -0.5832 -0.0066
  526MOL0     C72500   3.443   6.694   1.865 -0.4767  0.5992  0.8654
  526MOL0     N72501   3.083   6.486   2.757  0.5877  0.3734  0.4934
  526MOL0     N72502   3.118   6.510   2.878  0.8021  0.3177  0.0688
  526MOL0     C72503   3.282   7.475   3.070  0.5087  1.0099 -0.2549
  526MOL0     C72504   3.180   7.567   3.052 -0.3953 -0.5000  0.2910
  526MOL0     C72505   2.874   7.814   2.834  0.2601  0.1463 -0.1661
  526MOL0     C72506   2.911   7.943   2.876 -0.1027 -0.2192  0.3954
  526MOL0     C72507   2.832   8.047   2.834 -0.0851 -0.6384  0.2728
  526MOL0     C72508   2.720   8.031   2.747  0.1490 -0.3024  0.0874
  526MOL0     O72509   2.638   8.141   2.719  0.3731 -0.2116  0.4638
  526MOL0     C72510   2.512   8.135   2.650  0.6953 -0.0439 -0.3903
  526MOL0     C72511   2.545   8.130   2.498 -0.2962 -0.1237 -0.6298
  526MOL0     C72512   2.431   8.088   2.408  0.0535 -0.9357 -0.4920
  526MOL0     C72513   2.402   7.946   2.414  0.3431  0.0202  0.9247
  526MOL0     C72514   2.504   7.854   2.355 -0.2960  0.6990  0.0777
  526MOL0     C72515   2.586   7.774   2.313  0.0742  0.3980  0.3570
  526MOL0     C72516   2.687   7.901   2.711 -0.1233  0.4414  0.1172
  526MOL0     C72517   2.753   7.788   2.760 -0.3139 -0.2021  2.1157
  526MOL0     C72518   2.720   7.650   2.692 -0.0375  0.3497 -0.1682
  526MOL0     H72519   3.314   7.743   2.798  1.7763  0.1420 -0.5121
  526MOL0     H72520   3.508   7.621   2.855 -0.4620 -0.3117 -0.7787
  526MOL0     H72521   3.633   7.414   2.884 -0.4309 -0.5750 -0.8822
  526MOL0     H72522   3.486   7.315   2.857 -0.9142  4.1687 -1.0361
  526MOL0     H72523   3.661   7.156   2.888 -2.5523 -1.7677  1.2293
  526MOL0     H72524   3.737   7.256   3.017 -0.6691  2.1607 -0.9757
  526MOL0     H72525   3.612   7.043   3.087 -2.6567 -1.0931  2.0864
  526MOL0     H72526   3.538   7.192   3.157 -1.4686  0.3865 -0.9815
  526MOL0     H72527   3.335   7.154   3.018 -1.3571 -1.0946 -4.1453
  526MOL0     H72528   3.418   7.046   2.916 -1.7208  1.8362 -0.4472
  526MOL0     H72529   3.361   6.994   3.210  0.6525 -1.1290  0.4787
  526MOL0     H72530   3.442   6.876   3.096 -0.5961 -1.6540 -0.7060
  526MOL0     H72531   3.157   6.953   3.077 -0.8520 -1.4155  0.6587
  526MOL0     H72532   3.245   6.899   2.941 -0.6836  4.0111 -0.0789
  526MOL0     H72533   3.116   6.736   3.111  0.7759  0.8170  1.5369
  526MOL0     H72534   3.260   6.732   3.200 -1.6306 -0.6675  0.5980
  526MOL0     H72535   3.382   6.685   2.977  0.4784  0.0739  4.5184
  526MOL0     H72536   3.301   6.555   3.059  1.1856 -0.2756 -0.0320
  526MOL0     H72537   3.248   6.757   2.712  3.2229  0.0572  3.1163
  526MOL0     H72538   3.057   6.640   2.494  0.3122 -1.6183 -2.9367
  526MOL0     H72539   3.118   6.472   2.493 -0.7813 -0.0964  1.6487
  526MOL0     H72540   3.264   6.732   2.463  0.7505 -0.1804  3.0018
  526MOL0     H72541   3.342   6.576   2.485  1.9555  2.0949 -0.0566
  526MOL0     H72542   3.245   6.478   2.277 -0.2674 -0.5197  0.1176
  526MOL0     H72543   3.163   6.625   2.247 -0.3388 -0.2893  1.7434
  526MOL0     H72544   3.383   6.753   2.252 -3.8777  0.2908  0.8214
  526MOL0     H72545   3.451   6.593   2.263  2.4687  2.0721 -2.6399
  526MOL0     H72546   3.629   6.658   2.154  2.4564  0.0217  0.1549
  526MOL0     H72547   3.902   6.767   2.021  2.3592 -1.6967  1.1586
  526MOL0     H72548   3.897   6.606   1.965 -1.6489 -0.4971 -0.9929
  526MOL0     H72549   3.833   6.633   2.123 -1.4693  0.4825  1.5306
  526MOL0     H72550   4.072   6.976   1.664 -2.0096  0.0503 -3.0825
  526MOL0     H72551   4.288   6.931   1.566 -0.2285  0.6653  2.7166
  526MOL0     H72552   4.384   6.525   1.419 -0.2335 -0.6817 -2.9464
  526MOL0     H72553   4.314   6.635   1.303 -0.9050 -1.6787  0.4425
  526MOL0     H72554   4.557   6.738   1.283  1.6629 -0.2497  0.0748
  526MOL0     H72555   4.606   6.633   1.406 -1.0116 -0.1623  0.0221
  526MOL0     H72556   4.493   6.537   1.146  2.2736  1.1361 -1.3245
  526MOL0     H72557   4.560   6.434   1.274  1.4885  0.8285  4.1915
  526MOL0     H72558   4.771   6.546   1.259 -0.4163  1.2273  0.7910
  526MOL0     H72559   4.713   6.651   1.121 -0.7306  0.7289  0.6134
  526MOL0     H72560   4.735   6.344   1.120  2.8142  0.3667 -0.7364
  526MOL0     H72561   4.665   6.433   0.987  0.3172  2.6306 -1.1971
  526MOL0     H72562   4.925   6.538   1.072  2.1053 -1.1711 -0.4390
  526MOL0     H72563   4.868   6.544   0.921  2.1175  0.5403  0.3647
  526MOL0     H72564   4.867   6.296   0.881  4.6596 -1.1386 -4.0408
  526MOL0     H72565   4.942   6.277   1.050  0.7840  1.1823  1.1358
  526MOL0     H72566   5.128   6.418   0.974 -1.8628  0.8799  0.2958
  526MOL0     H72567   5.063   6.412   0.809 -0.5656  0.1440  0.2397
  526MOL0     H72568   4.197   6.513   1.547  3.0348  2.6768 -3.5362
  526MOL0     H72569   3.991   6.553   1.690  2.2511 -1.9679 -1.1513
  526MOL0     H72570   3.523   6.751   1.674  0.9895  1.1052 -0.0594
  526MOL0     H72571   3.345   6.677   1.821 -0.1788  0.9087  0.0566
  526MOL0     H72572   3.266   7.398   3.144  1.6288  0.3099 -0.7054
  526MOL0     H72573   3.083   7.555   3.100 -0.1056  1.3982  1.4807
  526MOL0     H72574   2.994   7.969   2.940 -0.9100 -1.0868  1.8474
  526MOL0     H72575   2.855   8.141   2.883 -0.5424 -1.4736  2.1889
  526MOL0     H72576   2.457   8.050   2.690 -0.8636  0.0558 -2.2017
  526MOL0     H72577   2.441   8.216   2.669  1.3384  1.2754 -3.0577
  526MOL0     H72578   2.618   8.052   2.477 -0.1556  0.1551 -1.1936
  526MOL0     H72579   2.600   8.218   2.465  2.3248 -1.3140  0.3339
  526MOL0     H72580   2.344   8.148   2.439  1.4773 -0.2959  2.7386
  526MOL0     H72581   2.449   8.113   2.303  1.5778 -0.5001 -0.1470
  526MOL0     H72582   2.304   7.922   2.373  1.8114 -2.1256 -1.6165
  526MOL0     H72583   2.384   7.918   2.518  1.5769  4.1490  2.4851
  526MOL0     H72584   2.649   7.700   2.267 -1.8684 -0.6007 -0.8069
  526MOL0     H72585   2.616   7.897   2.629  1.3413 -1.9922 -1.1199
  526MOL0     H72586   2.653   7.656   2.606  1.7876 -0.2399 -1.7220
  526MOL0     H72587   2.820   7.627   2.653  0.4265 -0.3646  1.3686
  526MOL0     H72588   2.680   7.580   2.766  1.5908 -0.3004  0.1519
  527MOL0     O72589   6.301   2.377   8.856 -0.5020 -0.4079 -0.4549
  527MOL0     C72590   6.374   2.401   8.957 -0.2991  0.2024  0.3116
  527MOL0     O72591   6.323   2.403   9.081  0.3374 -0.0417 -0.1665
  527MOL0     C72592   6.181   2.407   9.092  0.2798  1.0619 -1.1086
  527MOL0     C72593   6.105   2.281   9.096 -1.0424  0.1820  0.5706
  527MOL0     C72594   5.990   2.280   9.170 -0.3220  1.1689  0.9300
  527MOL0     C72595   5.931   2.396   9.221 -0.0683  0.7626  0.0869
  527MOL0     O72596   5.820   2.376   9.295 -0.3004 -0.9504 -0.2790
  527MOL0     C72597   5.701   2.354   9.215 -0.0188  0.1935  0.3207
  527MOL0     C72598   5.598   2.351   9.325 -0.6378  0.7510 -0.1093
  527MOL0     C72599   5.464   2.342   9.250 -0.0220  0.4681 -0.3189
  527MOL0     C72600   5.350   2.339   9.349 -0.1339 -0.3565  0.0998
  527MOL0     C72601   5.208   2.373   9.290  0.2020  0.7445  0.1858
  527MOL0     C72602   5.106   2.371   9.402  0.5672 -0.5968 -1.5187
  527MOL0     C72603   4.976   2.444   9.360  0.0760 -0.1420  0.4263
  527MOL0     C72604   4.873   2.354   9.286  0.6795 -0.5017  0.1193
  527MOL0     N72605   4.852   2.226   9.350 -0.3527  0.6644  0.4937
  527MOL0     C72606   4.815   2.203   9.481 -0.2639  0.1171 -0.8607
  527MOL0     C72607   4.806   2.069   9.501  0.3188 -0.1497 -0.0540
  527MOL0     C72608   4.768   1.994   9.621  0.3880  1.2997  0.2686
  527MOL0     C72609   4.867   2.002   9.738  0.0590 -0.1823  0.1564
  527MOL0     C72610   4.880   2.145   9.802 -0.3432 -0.1802  0.0460
  527MOL0     C72611   5.005   2.178   9.881 -0.6127 -0.0294  0.1336
  527MOL0     O72612   5.110   2.156   9.798  0.7525 -0.5894 -0.4235
  527MOL0     C72613   5.229   2.198   9.849 -0.5479 -0.2641  0.1366
  527MOL0     C72614   5.329   2.233   9.758  0.5140 -1.5644 -0.3399
  527MOL0     C72615   5.448   2.301   9.796 -0.0647  0.1556 -0.1464
  527MOL0     C72616   5.549   2.324   9.682  0.4986  0.3607 -0.2893
  527MOL0     C72617   5.473   2.325   9.932  0.1579  0.3661  0.5311
  527MOL0     C72618   5.602   2.380   9.980  0.0955  0.0950 -0.4429
  527MOL0     O72619   5.593   2.500  10.062 -0.4178  0.4577 -0.0060
  527MOL0     C72620   5.711   2.552  10.095 -0.1929 -0.1711 -0.6093
  527MOL0     C72621   5.782   2.509  10.209 -0.7111 -0.5106  0.4596
  527MOL0     C72622   5.897   2.573  10.243 -0.6720 -0.1166 -0.6567
  527MOL0     C72623   5.945   2.675  10.174 -0.3058 -0.8873  0.1740
  527MOL0     O72624   6.050   2.727  10.242  0.2399 -0.4466  0.0128
  527MOL0     C72625   6.137   2.829  10.176 -0.5914  1.0216 -1.2246
  527MOL0     C72626   6.225   2.780  10.060 -0.0714 -0.3742  0.0387
  527MOL0     C72627   6.289   2.643  10.089  0.2981 -0.6265 -0.9904
  527MOL0     C72628   6.352   2.570   9.965  0.2142 -0.5619 -0.1124
  527MOL0     C72629   6.380   2.424   9.989 -0.6139  0.4457 -0.1597
  527MOL0     C72630   6.413   2.348   9.861  0.0354  0.2356 -0.2727
  527MOL0     C72631   6.569   2.329   9.831  0.4304  0.0368  0.2254
  527MOL0     C72632   6.598   2.228   9.719  0.2186 -0.1644 -0.2346
  527MOL0    Cl72633   6.500   2.077   9.732  0.2214  0.3275 -0.0753
  527MOL0     C72634   5.871   2.727  10.064 -0.6536 -0.6613  0.2459
  527MOL0     C72635   5.757   2.657  10.016 -0.4358  0.1979  0.0114
  527MOL0     O72636   5.704   2.316   9.966 -1.2886  0.4977  0.8791
  527MOL0     C72637   5.376   2.279  10.028  0.0458 -0.6188  0.3750
  527MOL0     C72638   5.255   2.225   9.986 -0.3155 -0.3126 -0.3764
  527MOL0     N72639   4.841   2.016   9.377  0.3012 -0.3656 -0.1321
  527MOL0     N72640   4.866   2.102   9.286  0.0508  0.0390  0.0574
  527MOL0     C72641   5.999   2.510   9.216  0.3016 -0.1853  0.1537
  527MOL0     C72642   6.115   2.520   9.145 -0.4103 -0.3325 -0.1252
  527MOL0     C72643   6.518   2.407   8.932 -0.1239 -0.4951  0.2756
  527MOL0     C72644   6.595   2.429   9.044 -0.2725 -0.2043 -0.0867
  527MOL0     C72645   6.733   2.443   9.037 -0.3386 -0.4074  1.3826
  527MOL0     C72646   6.792   2.440   8.915  0.1713  0.6212 -0.1522
  527MOL0     O72647   6.927   2.459   8.909  0.0583 -0.0935 -0.2317
  527MOL0     C72648   7.013   2.405   9.014  0.1547  0.0396 -0.2069
  527MOL0     C72649   7.169   2.422   8.979  0.3797 -1.0257 -0.1869
  527MOL0     C72650   7.233   2.366   8.852 -0.7026 -0.7833 -0.7055
  527MOL0     C72651   7.197   2.445   8.718  0.1787  0.3390  0.1786
  527MOL0     C72652   7.264   2.399   8.600 -0.2942 -0.3246 -0.3003
  527MOL0     C72653   7.318   2.370   8.502 -0.1468 -0.1273  0.5313
  527MOL0     C72654   6.720   2.417   8.796  0.8244  0.9494 -0.3199
  527MOL0     C72655   6.585   2.405   8.800 -0.2315  0.2202  0.5572
  527MOL0     C72656   6.521   2.386   8.666 -0.0247  0.3131 -0.5787
  527MOL0     H72657   6.142   2.194   9.042 -2.4597  1.9747 -3.7522
  527MOL0     H72658   5.947   2.180   9.172  3.6726 -0.9448 -2.5723
  527MOL0     H72659   5.712   2.259   9.163 -3.0968 -0.3094  0.4258
  527MOL0     H72660   5.696   2.438   9.145 -1.3278 -1.7056 -2.0033
  527MOL0     H72661   5.620   2.264   9.388  0.0164  1.7620  1.0842
  527MOL0     H72662   5.603   2.439   9.389 -1.0823  1.6421 -1.2735
  527MOL0     H72663   5.444   2.422   9.178  0.5634 -0.8376 -2.0158
  527MOL0     H72664   5.456   2.249   9.191 -1.0835 -0.7688  1.6790
  527MOL0     H72665   5.345   2.242   9.400 -2.8410 -0.6698 -0.6067
  527MOL0     H72666   5.367   2.420   9.420  0.3820  0.7043 -1.2014
  527MOL0     H72667   5.177   2.308   9.208 -1.5522  0.3208  1.1236
  527MOL0     H72668   5.203   2.469   9.238 -0.8742  0.7959  0.3506
  527MOL0     H72669   5.078   2.269   9.430  1.6115 -0.2925  0.7941
  527MOL0     H72670   5.153   2.420   9.487 -1.5634  1.4272 -1.4211
  527MOL0     H72671   5.001   2.523   9.289  1.8261 -0.6594  0.4329
  527MOL0     H72672   4.914   2.482   9.441 -1.5673  0.2821 -0.9703
  527MOL0     H72673   4.780   2.410   9.283  0.4488 -0.9045 -0.4835
  527MOL0     H72674   4.906   2.341   9.182 -1.3400  0.7456 -0.7411
  527MOL0     H72675   4.781   2.286   9.542 -2.0189  0.2015 -1.9025
  527MOL0     H72676   4.771   1.889   9.591  2.2972  0.5678  2.6714
  527MOL0     H72677   4.667   2.019   9.654  0.0977 -0.1833  0.6048
  527MOL0     H72678   4.828   1.938   9.818 -0.5805  0.6844  0.5668
  527MOL0     H72679   4.964   1.962   9.710  1.2562  1.3594  1.8656
  527MOL0     H72680   4.883   2.214   9.717 -0.1127  0.3822  0.5045
  527MOL0     H72681   4.793   2.146   9.868 -0.1147  1.1949  0.3484
  527MOL0     H72682   5.004   2.284   9.909 -1.3477  0.5349 -1.8718
  527MOL0     H72683   5.005   2.121   9.974  0.8093 -1.9870 -1.0138
  527MOL0     H72684   5.314   2.211   9.652  1.2788  1.1100 -1.0701
  527MOL0     H72685   5.548   2.430   9.653 -2.0568  0.1989 -1.0198
  527MOL0     H72686   5.519   2.260   9.599  0.1757 -2.1813  1.6692
  527MOL0     H72687   5.649   2.298   9.716  0.2475 -0.8803 -0.4626
  527MOL0     H72688   5.745   2.425  10.267  0.8021  1.4653  4.7146
  527MOL0     H72689   5.955   2.535  10.327 -0.1211  0.5202 -0.7448
  527MOL0     H72690   6.069   2.903  10.134 -2.1414 -0.6948 -1.8503
  527MOL0     H72691   6.206   2.861  10.255  1.9790 -3.4510 -1.2787
  527MOL0     H72692   6.163   2.787   9.970 -2.4216  1.5462  1.6928
  527MOL0     H72693   6.311   2.846  10.042 -0.3621 -0.8158 -3.8654
  527MOL0     H72694   6.207   2.573  10.111  0.3602 -1.2169 -2.5650
  527MOL0     H72695   6.358   2.657  10.173 -1.0746 -0.6025  0.1905
  527MOL0     H72696   6.447   2.623   9.950  1.0487 -0.5204  3.9810
  527MOL0     H72697   6.280   2.582   9.883 -1.3747  0.7150  1.3840
  527MOL0     H72698   6.460   2.411  10.062 -0.9653 -1.5585 -0.0764
  527MOL0     H72699   6.289   2.378  10.029 -1.7522  4.4479  2.3793
  527MOL0     H72700   6.364   2.394   9.775  0.9938 -1.2257 -1.6431
  527MOL0     H72701   6.381   2.245   9.874 -0.2400  0.2705 -0.6553
  527MOL0     H72702   6.614   2.297   9.925  0.4414 -2.3131 -0.4993
  527MOL0     H72703   6.608   2.427   9.802  1.6200 -0.1135  1.2474
  527MOL0     H72704   6.700   2.187   9.716  0.5457  0.5705  0.5694
  527MOL0     H72705   6.584   2.255   9.614  4.0591 -2.0369 -1.4560
  527MOL0     H72706   5.890   2.810   9.997 -1.3365  1.0312  2.0476
  527MOL0     H72707   5.698   2.690   9.931  2.0870  1.5515 -1.3072
  527MOL0     H72708   5.395   2.286  10.134 -2.9026 -0.4182  0.9816
  527MOL0     H72709   5.182   2.196  10.061  0.6355 -1.3125  0.1848
  527MOL0     H72710   5.959   2.601   9.260  2.5756  1.0780 -0.2028
  527MOL0     H72711   6.171   2.612   9.159  0.3961 -0.9342  0.7572
  527MOL0     H72712   6.543   2.431   9.140  4.2668 -2.4526  2.7959
  527MOL0     H72713   6.787   2.450   9.131  2.4100  1.2691 -0.2137
  527MOL0     H72714   6.986   2.460   9.104 -0.7442  2.2884 -1.7449
  527MOL0     H72715   6.989   2.299   9.017  1.3218 -0.2609 -0.7946
  527MOL0     H72716   7.226   2.378   9.062  2.4097  1.9082  0.1378
  527MOL0     H72717   7.199   2.527   8.983 -0.2262 -0.7898 -1.3991
  527MOL0     H72718   7.341   2.365   8.864 -0.6147 -1.2724 -1.4702
  527MOL0     H72719   7.204   2.261   8.841 -0.6069 -0.9605  0.6189
  527MOL0     H72720   7.215   2.551   8.742  3.1953 -0.0532  0.0545
  527MOL0     H72721   7.091   2.436   8.694  0.6061  0.2727 -1.8928
  527MOL0     H72722   7.356   2.339   8.407 -1.8925  0.5631 -0.4451
  527MOL0     H72723   6.763   2.404   8.697  1.1987 -3.3240  0.2042
  527MOL0     H72724   6.454   2.470   8.650  0.3227  0.3158 -2.1834
  527MOL0     H72725   6.595   2.366   8.588 -0.6986 -0.0809 -1.1322
  527MOL0     H72726   6.456   2.298   8.671  0.7752 -0.4321 -2.2573
  528MOL0     O72727  10.670   9.877   9.006 -0.5420  0.4222  0.7709
  528MOL0     C72728  10.624   9.887   8.888 -0.3556  0.0555  0.0119
  528MOL0     O72729  10.661   9.987   8.807  0.4279 -0.0885  0.5016
  528MOL0     C72730  10.752  10.072   8.852 -0.7389 -0.0581 -0.3336
  528MOL0     C72731  10.885  10.039   8.819 -0.5363  0.1409  1.1279
  528MOL0     C72732  10.990  10.123   8.847 -0.2069 -0.6765 -0.1909
  528MOL0     C72733  10.970  10.245   8.912  0.4714 -0.1743 -0.2579
  528MOL0     O72734  11.085  10.320   8.933 -0.5758 -0.5366  0.9070
  528MOL0     C72735  11.075  10.421   9.024 -0.5252 -1.5306  0.7494
  528MOL0     C72736  11.216  10.476   9.043  0.6143  0.5276 -0.0978
  528MOL0     C72737  11.207  10.585   9.156  0.2399 -0.1703  0.1347
  528MOL0     C72738  11.342  10.582   9.220 -0.7517 -0.3133 -0.0738
  528MOL0     C72739  11.379  10.691   9.327 -0.3414  0.1264 -0.6152
  528MOL0     C72740  11.528  10.685   9.354 -0.1155  0.5187 -0.4747
  528MOL0     C72741  11.557  10.557   9.435  0.5647  0.1065  0.1787
  528MOL0     C72742  11.693  10.550   9.509 -0.7769  0.7499  0.3212
  528MOL0     N72743  11.791  10.609   9.408 -0.1496  0.6461 -0.5167
  528MOL0     C72744  11.862  10.533   9.319 -0.0473 -0.3617 -0.0645
  528MOL0     C72745  11.929  10.623   9.244 -0.2124  0.0214  0.8679
  528MOL0     C72746  12.032  10.597   9.143 -0.7075  0.2293 -0.6785
  528MOL0     C72747  12.171  10.558   9.203  0.4386  0.3730 -1.1747
  528MOL0     C72748  12.240  10.629   9.319  0.7202  0.3916  0.3030
  528MOL0     C72749  12.243  10.773   9.308  0.5803 -0.4675 -0.3975
  528MOL0     O72750  12.312  10.812   9.196  0.0735 -0.7312  0.4046
  528MOL0     C72751  12.447  10.826   9.213  1.0157  0.0748  0.0258
  528MOL0     C72752  12.520  10.890   9.113 -0.2647  0.3288  0.4363
  528MOL0     C72753  12.662  10.907   9.111  0.0582 -0.8889  0.2144
  528MOL0     C72754  12.731  10.979   9.000 -0.4308 -0.1743  0.4771
  528MOL0     C72755  12.736  10.860   9.229 -0.4033  0.5279  0.0888
  528MOL0     C72756  12.876  10.882   9.246  0.5966 -0.0396 -0.3205
  528MOL0     O72757  12.912  10.899   9.386  0.0567 -0.2493  0.3731
  528MOL0     C72758  13.042  10.893   9.432 -0.1150 -0.5571  0.3575
  528MOL0     C72759  13.068  10.946   9.556  0.2637 -0.4171 -0.4890
  528MOL0     C72760  13.189  10.927   9.611 -0.4423 -0.2641 -0.1833
  528MOL0     C72761  13.294  10.869   9.540 -0.6344 -0.1778  0.5403
  528MOL0     O72762  13.415  10.858   9.596 -0.3381  0.0043 -0.6382
  528MOL0     C72763  13.466  10.723   9.583 -0.4899  0.7171 -0.7426
  528MOL0     C72764  13.602  10.715   9.646 -0.6145  0.2867 -0.0508
  528MOL0     C72765  13.628  10.560   9.666  0.8787  0.3061  0.5912
  528MOL0     C72766  13.764  10.523   9.716 -0.1837  0.2432  0.3286
  528MOL0     C72767  13.785  10.369   9.722  0.1796  0.1827 -0.2551
  528MOL0     C72768  13.928  10.313   9.767  0.6521 -0.2305 -0.2360
  528MOL0     C72769  13.948  10.159   9.746  0.5829 -0.2532 -0.0817
  528MOL0     C72770  14.088  10.127   9.803 -0.1492 -0.1855  0.3158
  528MOL0    Cl72771  14.217  10.193   9.690  0.2486 -0.0402 -0.4612
  528MOL0     C72772  13.266  10.829   9.404 -0.0747  1.0476 -0.1415
  528MOL0     C72773  13.138  10.832   9.353  0.6567 -0.0707 -0.5084
  528MOL0     O72774  12.949  10.888   9.141  0.3403 -0.0424 -0.4528
  528MOL0     C72775  12.668  10.792   9.331  1.2604  0.0038 -0.1724
  528MOL0     C72776  12.527  10.780   9.321  0.2607  0.5874  0.6721
  528MOL0     N72777  11.881  10.754   9.272 -0.4413  0.3733  0.5182
  528MOL0     N72778  11.807  10.737   9.374 -1.1192 -0.1273 -0.5872
  528MOL0     C72779  10.840  10.286   8.943 -0.1427  0.5444 -0.0766
  528MOL0     C72780  10.728  10.197   8.915 -0.8144 -0.7174  0.4283
  528MOL0     C72781  10.545   9.777   8.832 -0.5868  1.3883  0.5651
  528MOL0     C72782  10.499   9.679   8.922 -1.1514  0.5769  0.6282
  528MOL0     C72783  10.437   9.570   8.873  0.1160 -0.4783  0.7239
  528MOL0     C72784  10.416   9.542   8.733  0.1495 -0.3657 -0.8257
  528MOL0     O72785  10.352   9.428   8.699 -0.1818  0.7259 -0.1922
  528MOL0     C72786  10.329   9.379   8.565  0.2093 -0.3245  0.4801
  528MOL0     C72787  10.462   9.319   8.519  0.1711  0.4069  0.7143
  528MOL0     C72788  10.457   9.258   8.382  0.5269  0.3239  0.2883
  528MOL0     C72789  10.324   9.190   8.339  0.0375  0.0050  0.3433
  528MOL0     C72790  10.279   9.083   8.427  0.0195  0.4534  0.0894
  528MOL0     C72791  10.241   8.999   8.507 -0.7462 -0.6262  0.6837
  528MOL0     C72792  10.462   9.638   8.650  0.0616  0.4312  0.6048
  528MOL0     C72793  10.533   9.753   8.690 -0.6293  0.5560  0.1171
  528MOL0     C72794  10.578   9.845   8.578 -0.5886  0.5055  0.0440
  528MOL0     H72795  10.899   9.947   8.763 -1.1797  0.0855  1.0431
  528MOL0     H72796  11.092  10.104   8.816 -0.4478 -2.6929  0.1609
  528MOL0     H72797  11.030  10.395   9.120 -2.8941 -1.0566 -0.1538
  528MOL0     H72798  11.015  10.510   9.000  2.9414  1.1262  1.2032
  528MOL0     H72799  11.281  10.392   9.068  0.1962  0.8568  2.3708
  528MOL0     H72800  11.241  10.520   8.946 -1.8292 -0.1291 -1.1094
  528MOL0     H72801  11.160  10.675   9.117  1.6415  0.8463  0.7218
  528MOL0     H72802  11.132  10.560   9.231 -1.9896 -3.4377 -2.8407
  528MOL0     H72803  11.343  10.488   9.276  2.3907  0.8030  2.1045
  528MOL0     H72804  11.418  10.585   9.142  0.5660  1.1167  1.1900
  528MOL0     H72805  11.318  10.674   9.417  0.6145  2.1324  0.4772
  528MOL0     H72806  11.364  10.790   9.284 -0.8452  0.4817  0.3447
  528MOL0     H72807  11.570  10.691   9.254 -0.2376  0.0447 -0.5546
  528MOL0     H72808  11.561  10.774   9.408  0.7950  1.0315 -1.8314
  528MOL0     H72809  11.554  10.476   9.361 -0.8986  0.6438 -0.3907
  528MOL0     H72810  11.471  10.529   9.496 -1.9764  2.6719 -1.9730
  528MOL0     H72811  11.689  10.614   9.598 -1.6758  2.3161 -0.7964
  528MOL0     H72812  11.721  10.448   9.535  2.5933  1.6624  0.8084
  528MOL0     H72813  11.856  10.425   9.307 -2.4931 -0.5369  1.8283
  528MOL0     H72814  12.055  10.681   9.077 -0.6236 -0.6891 -1.8360
  528MOL0     H72815  11.991  10.525   9.072  2.2484 -0.0581 -2.2038
  528MOL0     H72816  12.152  10.457   9.241 -1.1077  0.4600 -1.6202
  528MOL0     H72817  12.237  10.550   9.116  1.8482  1.6698 -0.2639
  528MOL0     H72818  12.188  10.593   9.408  2.2134 -3.5991 -0.2337
  528MOL0     H72819  12.342  10.590   9.323  1.8084  2.9324 -0.4690
  528MOL0     H72820  12.144  10.819   9.305  0.0113 -1.6740 -0.5134
  528MOL0     H72821  12.289  10.824   9.393  0.2529 -0.6967 -0.0802
  528MOL0     H72822  12.464  10.933   9.031  0.6537  0.9246  0.1160
  528MOL0     H72823  12.659  11.042   8.948  0.1288 -0.6986 -1.0005
  528MOL0     H72824  12.771  10.903   8.932  1.6458  0.5220  0.8305
  528MOL0     H72825  12.815  11.040   9.034 -0.8031  0.0410  1.0263
  528MOL0     H72826  12.993  11.000   9.614  0.1146 -0.2077 -0.8757
  528MOL0     H72827  13.186  10.958   9.715 -2.4855 -0.0054 -0.2795
  528MOL0     H72828  13.406  10.648   9.635  3.2683 -1.5635  0.6931
  528MOL0     H72829  13.479  10.685   9.482 -0.9186 -0.6807 -0.2988
  528MOL0     H72830  13.680  10.775   9.599  0.1597 -1.1498 -0.6730
  528MOL0     H72831  13.599  10.752   9.749  0.5579  0.5619 -0.1072
  528MOL0     H72832  13.622  10.521   9.565 -3.6696  0.5557  0.5740
  528MOL0     H72833  13.553  10.512   9.730 -1.9890 -0.7271 -3.2240
  528MOL0     H72834  13.788  10.568   9.813  2.0737 -5.7342  3.0543
  528MOL0     H72835  13.842  10.563   9.650 -0.9728  0.9182 -0.2105
  528MOL0     H72836  13.708  10.317   9.779  1.0218 -0.6924  0.1012
  528MOL0     H72837  13.767  10.334   9.620 -0.3846  0.1081 -0.1336
  528MOL0     H72838  13.954  10.320   9.873 -0.0522 -0.7269 -0.0268
  528MOL0     H72839  14.005  10.373   9.717  0.7468  1.8523  2.2344
  528MOL0     H72840  13.946  10.134   9.640  0.2930  0.6837 -0.3048
  528MOL0     H72841  13.865  10.108   9.796  1.1460  0.3851  1.5957
  528MOL0     H72842  14.084  10.018   9.812 -0.5256 -0.3947 -1.8135
  528MOL0     H72843  14.099  10.161   9.907  1.4786 -2.6947  1.0617
  528MOL0     H72844  13.343  10.788   9.339 -0.4156  0.4066 -0.1439
  528MOL0     H72845  13.129  10.789   9.254 -1.0351  0.4716 -0.6095
  528MOL0     H72846  12.727  10.750   9.412  0.1965  1.2024  1.2744
  528MOL0     H72847  12.484  10.730   9.408 -1.7370  2.7825  1.0546
  528MOL0     H72848  10.823  10.378   8.997 -0.5561 -1.1601  2.9538
  528MOL0     H72849  10.623  10.223   8.923 -0.9086 -0.0100 -2.2084
  528MOL0     H72850  10.520   9.695   9.028  1.0580  1.7761  0.0617
  528MOL0     H72851  10.418   9.498   8.952  1.7508 -2.2870 -0.4370
  528MOL0     H72852  10.244   9.310   8.559  0.9643 -1.2182 -0.4296
  528MOL0     H72853  10.299   9.467   8.507  0.4464 -0.2987  0.3957
  528MOL0     H72854  10.496   9.236   8.582 -1.6707 -3.3034 -2.7607
  528MOL0     H72855  10.534   9.401   8.530 -0.4114  0.9053  0.8538
  528MOL0     H72856  10.479   9.335   8.307  1.6167  1.8022  2.0342
  528MOL0     H72857  10.541   9.188   8.376  1.5826  1.4105  1.7200
  528MOL0     H72858  10.339   9.152   8.238  0.8274 -1.0319  0.8212
  528MOL0     H72859  10.237   9.257   8.334  0.3975  0.3695 -2.4929
  528MOL0     H72860  10.214   8.915   8.568  2.9875 -3.5478 -1.2032
  528MOL0     H72861  10.443   9.642   8.543  3.7680  1.5172 -0.1556
  528MOL0     H72862  10.528   9.942   8.586 -1.8591 -0.2024  0.9918
  528MOL0     H72863  10.683   9.871   8.595 -1.8031  5.0063  2.3906
  528MOL0     H72864  10.570   9.804   8.477  0.4607 -1.1855  0.5989
  529MOL0     O72865   4.603  11.290   9.801  0.1362  0.4493 -0.6769
  529MOL0     C72866   4.680  11.390   9.803 -0.0915  0.0268 -0.2302
  529MOL0     O72867   4.651  11.508   9.858 -0.0198  0.5033  0.3788
  529MOL0     C72868   4.520  11.528   9.911  0.2068  0.3287  0.5720
  529MOL0     C72869   4.404  11.506   9.831  0.4413 -0.1962 -0.6314
  529MOL0     C72870   4.271  11.525   9.879  0.3223  0.2238 -0.9083
  529MOL0     C72871   4.259  11.568  10.011  0.7247  0.5470  0.4770
  529MOL0     O72872   4.140  11.599  10.075 -0.3607 -0.1218  0.3708
  529MOL0     C72873   4.093  11.724  10.022 -0.1541 -0.2274 -1.0059
  529MOL0     C72874   4.122  11.843  10.116 -0.6448 -0.1853 -0.0875
  529MOL0     C72875   4.016  11.839  10.228 -0.6217 -0.2453 -1.3789
  529MOL0     C72876   4.031  11.960  10.339 -0.1413  0.5629  1.2234
  529MOL0     C72877   3.944  11.928  10.465 -1.0873 -0.2043  0.5046
  529MOL0     C72878   3.813  11.992  10.438 -0.4460  0.3572 -0.9065
  529MOL0     C72879   3.718  11.978  10.555  0.3289 -0.2736 -0.1413
  529MOL0     C72880   3.720  12.101  10.648  0.5043  0.2414 -0.6612
  529MOL0     N72881   3.611  12.080  10.749 -0.7067  0.2009  0.6662
  529MOL0     C72882   3.500  12.167  10.757 -0.3100 -0.2416  0.2624
  529MOL0     C72883   3.449  12.129  10.874  0.3305 -0.7214 -0.1570
  529MOL0     C72884   3.326  12.189  10.941  0.6104 -0.0744  0.0561
  529MOL0     C72885   3.353  12.251  11.079 -0.4603  0.0202 -0.0610
  529MOL0     C72886   3.230  12.310  11.151 -0.2218 -0.1301 -0.5386
  529MOL0     C72887   3.203  12.440  11.077  1.1912 -0.2855  0.0941
  529MOL0     O72888   3.130  12.516  11.170  0.0501 -0.2318 -0.1240
  529MOL0     C72889   2.991  12.505  11.175 -0.3124 -0.3902 -0.7411
  529MOL0     C72890   2.931  12.577  11.276 -0.3826  0.4672 -0.1827
  529MOL0     C72891   2.793  12.577  11.295 -0.6455 -1.1547  0.8450
  529MOL0     C72892   2.743  12.654  11.409 -0.1586  0.4200 -1.0132
  529MOL0     C72893   2.715  12.500  11.204  0.2678  1.4575  0.1891
  529MOL0     C72894   2.569  12.508  11.191 -0.0815 -0.2024 -0.4794
  529MOL0     O72895   2.510  12.411  11.115  0.2653  0.3973  0.2551
  529MOL0     C72896   2.376  12.425  11.070 -0.7344 -0.1997  1.2129
  529MOL0     C72897   2.345  12.508  10.959  0.2877 -0.0378  0.1785
  529MOL0     C72898   2.210  12.504  10.909  0.1454  0.5271 -0.1497
  529MOL0     C72899   2.124  12.403  10.950 -0.1910 -0.4087 -0.2010
  529MOL0     O72900   2.005  12.392  10.881 -0.0044 -0.4633 -0.2750
  529MOL0     C72901   1.883  12.406  10.951 -0.0606 -0.1424 -0.2324
  529MOL0     C72902   1.842  12.552  10.959 -0.4006  0.2887 -0.6218
  529MOL0     C72903   1.709  12.581  11.026 -0.4333  0.3605 -0.9614
  529MOL0     C72904   1.596  12.526  10.937  0.4625  0.9656 -0.6759
  529MOL0     C72905   1.452  12.540  10.991 -0.1991 -0.9177 -0.4478
  529MOL0     C72906   1.450  12.482  11.131 -0.8349  1.2554 -1.2118
  529MOL0     C72907   1.317  12.437  11.172  0.2072 -0.1775  0.3885
  529MOL0     C72908   1.307  12.389  11.316 -0.6183  0.0287  0.0503
  529MOL0    Cl72909   1.438  12.265  11.351  0.1063  0.3590 -0.5849
  529MOL0     C72910   2.169  12.310  11.048  0.7591 -0.0057 -0.5014
  529MOL0     C72911   2.293  12.327  11.104 -0.7596  0.0594  0.0551
  529MOL0     O72912   2.513  12.614  11.226  0.5694 -0.0173 -0.0564
  529MOL0     C72913   2.776  12.424  11.108  0.1533 -0.1418  0.5597
  529MOL0     C72914   2.915  12.430  11.085  0.2883  0.6630  0.4043
  529MOL0     N72915   3.532  12.044  10.938 -0.3757  0.2528  0.4793
  529MOL0     N72916   3.625  12.011  10.863 -0.4338 -0.3010  0.0106
  529MOL0     C72917   4.371  11.593  10.085  0.2150  0.3780 -1.4052
  529MOL0     C72918   4.502  11.574  10.039 -1.0116  0.1573 -0.4280
  529MOL0     C72919   4.817  11.377   9.744  0.4263 -0.8358 -0.6215
  529MOL0     C72920   4.882  11.494   9.700  0.1679 -0.3673  0.6362
  529MOL0     C72921   4.999  11.487   9.628 -0.7378 -0.4419  0.3048
  529MOL0     C72922   5.053  11.367   9.591 -0.6991 -0.5091 -1.2037
  529MOL0     O72923   5.177  11.375   9.534  0.9312 -0.3989  0.2925
  529MOL0     C72924   5.220  11.256   9.465  0.0200  0.2011 -0.5614
  529MOL0     C72925   5.320  11.263   9.350 -0.4355 -0.8649  0.3535
  529MOL0     C72926   5.250  11.317   9.224 -0.5436 -0.5850  0.6715
  529MOL0     C72927   5.250  11.473   9.237 -0.3716 -0.3626 -0.0451
  529MOL0     C72928   5.205  11.533   9.112 -0.4746 -0.6876 -0.3848
  529MOL0     C72929   5.170  11.561   9.005 -0.2166  0.3471  0.5085
  529MOL0     C72930   4.985  11.246   9.630 -0.0335  0.6830 -0.1405
  529MOL0     C72931   4.873  11.250   9.714 -0.2208 -0.0933 -0.4165
  529MOL0     C72932   4.818  11.116   9.742  0.5811 -0.6707  0.1118
  529MOL0     H72933   4.414  11.468   9.729  3.3706 -3.4089  0.6541
  529MOL0     H72934   4.192  11.495   9.811 -0.3814  0.6050 -0.2779
  529MOL0     H72935   3.986  11.707  10.003 -1.0144 -0.1600  2.8913
  529MOL0     H72936   4.135  11.744   9.923  0.9655 -1.3320 -0.7875
  529MOL0     H72937   4.221  11.834  10.160  0.2717  2.0133 -1.5149
  529MOL0     H72938   4.124  11.943  10.070 -1.3238  0.0910  0.4563
  529MOL0     H72939   3.917  11.840  10.180 -0.9119 -0.8908 -0.8029
  529MOL0     H72940   4.017  11.749  10.290  0.6261  1.4240  1.1372
  529MOL0     H72941   4.137  11.966  10.362  0.7530 -3.7137 -0.8009
  529MOL0     H72942   4.002  12.052  10.286  0.2488  0.6795  1.2140
  529MOL0     H72943   3.988  11.963  10.558  1.8987 -2.3475  0.0606
  529MOL0     H72944   3.929  11.819  10.470  2.2966 -0.8308 -0.6178
  529MOL0     H72945   3.832  12.099  10.423 -1.8842  1.0909  1.9141
  529MOL0     H72946   3.773  11.935  10.354  2.1121 -0.6742 -1.5282
  529MOL0     H72947   3.757  11.884  10.595  0.6542  0.8487  2.3483
  529MOL0     H72948   3.614  11.971  10.523 -0.7462  1.6949  2.5225
  529MOL0     H72949   3.819  12.102  10.694  0.6810 -3.2614 -0.6792
  529MOL0     H72950   3.703  12.197  10.599 -0.3593  1.7293  2.3023
  529MOL0     H72951   3.462  12.243  10.690  0.9917  1.1622  1.0560
  529MOL0     H72952   3.251  12.109  10.943 -0.1877  0.6321 -0.7492
  529MOL0     H72953   3.279  12.263  10.876  1.2717  1.2049  0.9974
  529MOL0     H72954   3.410  12.195  11.153  2.2875  1.9365 -0.5639
  529MOL0     H72955   3.428  12.329  11.062 -1.1724  0.1222 -3.4070
  529MOL0     H72956   3.141  12.247  11.148 -0.0115 -0.4020 -1.7883
  529MOL0     H72957   3.251  12.340  11.254 -1.7516  6.0333 -1.5903
  529MOL0     H72958   3.297  12.495  11.066  2.0489 -1.9385 -1.4674
  529MOL0     H72959   3.149  12.416  10.984 -1.0438 -2.4061  1.7958
  529MOL0     H72960   3.001  12.613  11.352 -1.3433  0.7607  0.5811
  529MOL0     H72961   2.703  12.752  11.382  0.9834  0.5930 -2.1595
  529MOL0     H72962   2.818  12.667  11.487  0.8593  0.3132 -1.9517
  529MOL0     H72963   2.660  12.594  11.449  0.6310  0.6012  0.9916
  529MOL0     H72964   2.410  12.585  10.918  0.1015 -1.5197 -3.1616
  529MOL0     H72965   2.190  12.562  10.819  0.3428  0.1873 -0.4205
  529MOL0     H72966   1.811  12.354  10.887 -0.1921 -1.4644  0.9207
  529MOL0     H72967   1.885  12.365  11.053  1.2732  0.2292 -0.0861
  529MOL0     H72968   1.911  12.598  11.030 -0.2960  2.5258 -2.0722
  529MOL0     H72969   1.855  12.602  10.863  1.2303 -0.7445 -0.9711
  529MOL0     H72970   1.708  12.688  11.051 -1.8983  0.4611 -1.3939
  529MOL0     H72971   1.712  12.525  11.120  3.8128  3.2831  0.9957
  529MOL0     H72972   1.607  12.419  10.917 -1.1320  1.0024 -1.8889
  529MOL0     H72973   1.599  12.583  10.843 -3.1756  3.8400  0.7133
  529MOL0     H72974   1.429  12.647  10.991  0.1879 -0.6503  3.8064
  529MOL0     H72975   1.373  12.494  10.931 -4.2649  0.3942  3.3282
  529MOL0     H72976   1.486  12.553  11.206 -0.4108 -1.1402  1.0202
  529MOL0     H72977   1.511  12.391  11.127 -0.1552  1.6631 -0.4029
  529MOL0     H72978   1.298  12.355  11.102  3.8647  1.1224 -2.4860
  529MOL0     H72979   1.245  12.516  11.151  0.1179 -0.5082 -0.6420
  529MOL0     H72980   1.208  12.356  11.347 -1.0383 -1.6996 -2.7973
  529MOL0     H72981   1.332  12.474  11.380 -0.1047 -1.3811  1.8193
  529MOL0     H72982   2.102  12.227  11.068  1.0998 -0.4558 -1.1746
  529MOL0     H72983   2.339  12.264  11.180 -0.5223 -1.6933 -1.4877
  529MOL0     H72984   2.717  12.360  11.042 -1.3172 -1.1232  2.7046
  529MOL0     H72985   2.950  12.367  11.004 -2.7281  1.6365 -1.8546
  529MOL0     H72986   4.345  11.627  10.184 -0.1091 -0.7536 -1.0834
  529MOL0     H72987   4.583  11.612  10.101 -0.2469 -0.6486 -0.9031
  529MOL0     H72988   4.839  11.591   9.725 -0.3589 -0.9483  2.0741
  529MOL0     H72989   5.056  11.574   9.597 -1.7465  0.4443  0.8694
  529MOL0     H72990   5.278  11.192   9.531 -0.4141  0.4365  0.0612
  529MOL0     H72991   5.133  11.201   9.428  0.7404 -0.0903 -1.8749
  529MOL0     H72992   5.358  11.163   9.325  0.2495 -0.2653 -1.0553
  529MOL0     H72993   5.398  11.330   9.388 -1.9530 -0.4570  3.0046
  529MOL0     H72994   5.306  11.302   9.131 -1.1838 -0.0343  0.1838
  529MOL0     H72995   5.148  11.278   9.224  0.5787 -4.3304 -3.3224
  529MOL0     H72996   5.349  11.512   9.259 -0.4992 -0.3524  0.5247
  529MOL0     H72997   5.180  11.509   9.313 -0.5199 -2.3821  0.8594
  529MOL0     H72998   5.132  11.610   8.917  5.3679  3.5320 -0.5941
  529MOL0     H72999   5.047  11.157   9.625 -0.7840  0.0452  1.3273
  529MOL0     H73000   4.723  11.108   9.688  1.7928  0.6841 -2.4481
  529MOL0     H73001   4.880  11.031   9.710  0.0212 -1.6733  1.5967
  529MOL0     H73002   4.810  11.109   9.850 -2.5500  4.1359  0.4919
  530MOL0     O73003   3.200   7.306   1.159  0.5909  0.3129 -0.2188
  530MOL0     C73004   3.154   7.346   1.049  0.0096  0.0793  0.3980
  530MOL0     O73005   3.214   7.327   0.929 -0.0197  0.2034 -0.0878
  530MOL0     C73006   3.344   7.302   0.917 -0.6553 -0.7075  0.9427
  530MOL0     C73007   3.402   7.192   0.973 -0.0215  0.4870 -0.0923
  530MOL0     C73008   3.540   7.178   0.970  0.1887 -0.2286  0.1160
  530MOL0     C73009   3.620   7.274   0.924  0.0625 -0.0291  0.4242
  530MOL0     O73010   3.754   7.278   0.938  0.2212 -0.5384 -0.8817
  530MOL0     C73011   3.844   7.170   0.929 -0.3782 -0.2618  0.5951
  530MOL0     C73012   3.902   7.148   0.791 -0.2168  0.2339 -0.3603
  530MOL0     C73013   3.976   7.020   0.788  0.0422  0.2600  0.4133
  530MOL0     C73014   4.082   7.002   0.676 -0.8717 -0.6962 -1.2526
  530MOL0     C73015   4.016   6.987   0.546 -0.8644 -0.3936  0.6554
  530MOL0     C73016   4.124   6.960   0.437 -1.0122 -0.2408 -0.5171
  530MOL0     C73017   4.078   6.952   0.292 -0.6942 -0.0305 -0.4528
  530MOL0     C73018   4.038   7.094   0.240 -0.1548  0.1524 -0.0450
  530MOL0     N73019   4.154   7.170   0.183 -0.1600  0.0313 -0.5686
  530MOL0     C73020   4.167   7.191   0.051 -1.4871  1.0188 -0.1667
  530MOL0     C73021   4.268   7.276   0.047 -0.5916  0.2897  0.0746
  530MOL0     C73022   4.322   7.337  -0.079  0.4140  0.2443  0.0203
  530MOL0     C73023   4.234   7.453  -0.128 -0.1277  0.6596 -0.7926
  530MOL0     C73024   4.280   7.502  -0.269  0.6334  0.5967 -0.0987
  530MOL0     C73025   4.441   7.524  -0.282 -0.7704  0.6355  0.8684
  530MOL0     O73026   4.475   7.621  -0.185 -0.2087 -0.8944  0.2731
  530MOL0     C73027   4.613   7.661  -0.169 -0.4242  0.0843  1.2503
  530MOL0     C73028   4.711   7.612  -0.244  0.9747  0.3964  1.0865
  530MOL0     C73029   4.844   7.654  -0.231 -0.3718 -0.5097 -0.3031
  530MOL0     C73030   4.941   7.593  -0.330 -0.0947  0.1004  0.7591
  530MOL0     C73031   4.876   7.753  -0.136 -0.3651 -0.0501  0.5939
  530MOL0     C73032   5.011   7.824  -0.127  0.2900  0.7032 -0.4270
  530MOL0     O73033   5.096   7.815  -0.233  0.3460  0.2515 -0.5126
  530MOL0     C73034   5.229   7.856  -0.228  0.4312 -0.0147 -1.4978
  530MOL0     C73035   5.315   7.819  -0.121  0.3954  0.3202 -0.1928
  530MOL0     C73036   5.453   7.864  -0.118  0.5415 -0.0575  0.0199
  530MOL0     C73037   5.504   7.927  -0.220  0.5218 -0.7155 -0.6492
  530MOL0     O73038   5.640   7.945  -0.234 -0.0725  0.7705 -0.3776
  530MOL0     C73039   5.741   7.926  -0.139 -0.5128  0.4365 -0.0287
  530MOL0     C73040   5.876   8.004  -0.179 -0.8242 -0.1555  0.1683
  530MOL0     C73041   5.989   7.979  -0.083 -0.4334 -0.0880  0.3055
  530MOL0     C73042   6.110   8.073  -0.111 -0.7264  0.1460  1.2662
  530MOL0     C73043   6.250   8.018  -0.070 -0.0229 -0.7312  0.6347
  530MOL0     C73044   6.362   8.134  -0.081  0.1046  0.5444 -1.0999
  530MOL0     C73045   6.494   8.101   0.000  0.0178  0.0852 -0.1177
  530MOL0     C73046   6.599   8.211  -0.002  0.5679  0.5915  0.9838
  530MOL0    Cl73047   6.711   8.196  -0.140 -0.1957 -0.7496  0.3477
  530MOL0     C73048   5.427   7.957  -0.330  0.1593 -0.7462 -0.5484
  530MOL0     C73049   5.294   7.925  -0.328 -0.2455 -0.7333 -0.1840
  530MOL0     O73050   5.033   7.879  -0.014 -0.2456 -0.7082  0.3405
  530MOL0     C73051   4.772   7.800  -0.047  0.1329  0.7450  0.8807
  530MOL0     C73052   4.638   7.752  -0.062 -0.2301 -0.0090  0.1743
  530MOL0     N73053   4.313   7.307   0.172 -0.2782 -0.1304 -0.0763
  530MOL0     N73054   4.236   7.249   0.259 -0.3074 -0.2207  0.2215
  530MOL0     C73055   3.563   7.384   0.844 -0.1151  0.5229  0.4230
  530MOL0     C73056   3.421   7.394   0.848 -0.2253 -0.5911  0.7004
  530MOL0     C73057   3.023   7.411   1.041  0.4876  0.8427  0.4048
  530MOL0     C73058   2.983   7.481   0.921 -0.5715 -0.3845  0.2078
  530MOL0     C73059   2.853   7.530   0.902  0.7622 -1.2075  0.4078
  530MOL0     C73060   2.767   7.530   1.009  1.2424  0.4957 -0.3610
  530MOL0     O73061   2.657   7.601   1.022  0.7290  0.3709  0.9225
  530MOL0     C73062   2.626   7.693   0.921 -0.3992  0.1415 -0.0997
  530MOL0     C73063   2.494   7.759   0.948  1.0971  0.2730  0.2863
  530MOL0     C73064   2.375   7.676   0.905  0.2799 -0.4866 -0.8556
  530MOL0     C73065   2.326   7.718   0.761  0.7069  0.0077 -0.4000
  530MOL0     C73066   2.423   7.671   0.653 -0.0490  0.0881  0.1701
  530MOL0     C73067   2.498   7.639   0.569  0.0151  0.1498  0.3573
  530MOL0     C73068   2.793   7.454   1.129 -0.1713 -0.4152 -0.0999
  530MOL0     C73069   2.926   7.388   1.147  0.2604  0.3883  0.0521
  530MOL0     C73070   2.947   7.319   1.280 -0.6897  0.6839  0.2075
  530MOL0     H73071   3.342   7.112   1.016  1.3638 -0.3437  0.3869
  530MOL0     H73072   3.579   7.089   1.017  0.3162  0.1529  0.7461
  530MOL0     H73073   3.804   7.077   0.971  0.0924 -1.2391 -1.0534
  530MOL0     H73074   3.926   7.193   0.998 -0.9679 -0.3475  1.3372
  530MOL0     H73075   3.821   7.139   0.718 -0.6396  1.0936 -0.0154
  530MOL0     H73076   3.958   7.237   0.760 -2.4600  0.8011 -3.1648
  530MOL0     H73077   4.035   7.009   0.880 -0.3655 -0.5529  0.5804
  530MOL0     H73078   3.897   6.944   0.788  1.2803 -1.2261 -2.7090
  530MOL0     H73079   4.150   7.086   0.670 -1.0613 -0.5790 -1.7515
  530MOL0     H73080   4.128   6.908   0.710  0.7192  0.7428  0.8511
  530MOL0     H73081   3.963   7.078   0.515  0.6558  0.1981 -0.3124
  530MOL0     H73082   3.943   6.906   0.551 -0.1695 -1.0364  0.5754
  530MOL0     H73083   4.201   7.038   0.443  1.4654 -2.5363 -0.2393
  530MOL0     H73084   4.163   6.860   0.462 -2.3046 -1.0859 -1.7616
  530MOL0     H73085   3.997   6.881   0.276 -1.6196 -0.0744  3.3918
  530MOL0     H73086   4.155   6.906   0.229 -1.1027 -3.6400  1.4087
  530MOL0     H73087   3.967   7.060   0.163 -1.3853  2.7291 -0.1359
  530MOL0     H73088   3.992   7.151   0.321 -0.2138  1.0232 -0.6699
  530MOL0     H73089   4.127   7.150  -0.041  2.0436 -3.7736  0.0153
  530MOL0     H73090   4.324   7.262  -0.158  2.6740  0.1973  0.0541
  530MOL0     H73091   4.425   7.360  -0.050  1.2165 -3.4788  0.5826
  530MOL0     H73092   4.129   7.422  -0.132 -0.4142  1.3204  0.8510
  530MOL0     H73093   4.235   7.531  -0.051  0.5369 -1.7662  1.8076
  530MOL0     H73094   4.254   7.428  -0.345 -3.0858 -0.3119  1.8050
  530MOL0     H73095   4.230   7.598  -0.290  1.0408  0.5237 -1.5439
  530MOL0     H73096   4.492   7.430  -0.259  1.3705  1.7414  0.8509
  530MOL0     H73097   4.467   7.557  -0.383  1.7692  0.4826  1.4063
  530MOL0     H73098   4.680   7.538  -0.316 -1.4069 -0.8232  3.2477
  530MOL0     H73099   5.035   7.561  -0.283 -0.9718 -1.8842  1.2678
  530MOL0     H73100   4.970   7.670  -0.401  1.1000 -0.3168  0.7684
  530MOL0     H73101   4.895   7.507  -0.380 -3.5533  1.7861  0.7840
  530MOL0     H73102   5.273   7.768  -0.035  0.3581 -0.3141 -0.5876
  530MOL0     H73103   5.520   7.838  -0.036 -0.0983  3.0342  1.6817
  530MOL0     H73104   5.696   7.972  -0.051 -2.8499  1.3587 -1.6009
  530MOL0     H73105   5.760   7.820  -0.125 -1.8118  0.3047  0.8206
  530MOL0     H73106   5.917   7.971  -0.275  4.0889  1.4842  1.4089
  530MOL0     H73107   5.852   8.111  -0.176  2.6703  0.7269  1.7070
  530MOL0     H73108   6.011   7.872  -0.089 -3.2018 -0.6628 -1.4823
  530MOL0     H73109   5.962   8.003   0.021  4.1727  2.3776  1.1940
  530MOL0     H73110   6.091   8.176  -0.077  1.6157  2.2313 -2.9119
  530MOL0     H73111   6.110   8.075  -0.221  1.1743 -0.8251  1.2183
  530MOL0     H73112   6.247   7.994   0.037  3.2076  1.7818  1.4415
  530MOL0     H73113   6.269   7.926  -0.126 -0.4083  0.1473 -1.0045
  530MOL0     H73114   6.316   8.227  -0.047 -0.8268  0.3837 -1.8569
  530MOL0     H73115   6.382   8.140  -0.189  4.8573 -5.0275 -1.0208
  530MOL0     H73116   6.544   8.015  -0.044  0.3484 -0.1858  0.7593
  530MOL0     H73117   6.465   8.091   0.105 -2.5001 -1.3056 -0.8604
  530MOL0     H73118   6.655   8.192   0.089  0.1083 -0.2212  1.1097
  530MOL0     H73119   6.548   8.307   0.007 -0.2362  0.1114  1.7304
  530MOL0     H73120   5.477   8.012  -0.409  1.7858  0.6927  1.3637
  530MOL0     H73121   5.244   7.945  -0.422 -0.7839 -3.0197 -0.4439
  530MOL0     H73122   4.784   7.884   0.021 -3.2250  1.4381  0.7961
  530MOL0     H73123   4.562   7.778   0.011  0.6524 -1.5672  1.7259
  530MOL0     H73124   3.622   7.459   0.793  0.2063 -1.5348 -2.4784
  530MOL0     H73125   3.374   7.474   0.792  0.3679 -1.9725 -1.9407
  530MOL0     H73126   3.045   7.491   0.832 -4.2907 -0.2112 -2.6012
  530MOL0     H73127   2.829   7.587   0.812  0.2046 -0.2787  1.1343
  530MOL0     H73128   2.695   7.778   0.919  0.4925 -0.5728 -1.4044
  530MOL0     H73129   2.633   7.641   0.825  2.3403 -2.6797  1.4186
  530MOL0     H73130   2.480   7.860   0.908 -1.5119 -0.4050 -0.7012
  530MOL0     H73131   2.493   7.770   1.056  1.3172 -2.2659  0.5911
  530MOL0     H73132   2.385   7.567   0.916  0.4166 -0.5124 -1.2183
  530MOL0     H73133   2.297   7.698   0.978 -0.6362 -2.0856 -1.2876
  530MOL0     H73134   2.321   7.827   0.752 -0.9487  0.0381  0.4336
  530MOL0     H73135   2.225   7.678   0.751  0.4931  0.8130 -1.7643
  530MOL0     H73136   2.565   7.621   0.487  0.0958 -1.2183  0.6857
  530MOL0     H73137   2.709   7.448   1.198 -1.9699  0.7408 -2.0609
  530MOL0     H73138   2.861   7.312   1.346 -0.0482  2.1023  1.2393
  530MOL0     H73139   2.978   7.216   1.260 -2.5754  0.3599 -1.4074
  530MOL0     H73140   3.026   7.373   1.332  0.1353  0.8386 -1.1565
  531MOL0     O73141   6.877   0.439   8.133  0.6792  0.1314 -0.3308
  531MOL0     C73142   6.789   0.498   8.200 -0.6590  0.7182 -0.8202
  531MOL0     O73143   6.680   0.429   8.252  0.3053 -0.3675 -1.0466
  531MOL0     C73144   6.664   0.301   8.205  1.1155  0.0509  0.2028
  531MOL0     C73145   6.615   0.281   8.080  0.2399  1.7456  0.7603
  531MOL0     C73146   6.598   0.149   8.028  0.0131  0.8262  0.0544
  531MOL0     C73147   6.613   0.035   8.109  0.1735 -0.0556  1.2040
  531MOL0     O73148   6.577  -0.100   8.075 -0.9022 -0.6073 -0.0218
  531MOL0     C73149   6.538  -0.139   7.942 -0.8433  0.0302  0.3826
  531MOL0     C73150   6.557  -0.288   7.940 -0.8966 -0.4700 -0.0856
  531MOL0     C73151   6.519  -0.340   7.808  0.5094 -0.0257 -0.0090
  531MOL0     C73152   6.529  -0.490   7.802  0.5047  1.3373 -0.7491
  531MOL0     C73153   6.440  -0.539   7.697 -0.4139  0.3069 -0.5055
  531MOL0     C73154   6.296  -0.553   7.746 -0.1361  0.1583  1.2951
  531MOL0     C73155   6.218  -0.626   7.639  0.5310  0.6148 -1.1373
  531MOL0     C73156   6.238  -0.582   7.494  0.5520  0.2126 -0.6646
  531MOL0     N73157   6.170  -0.687   7.414 -0.1681  0.5895 -0.3328
  531MOL0     C73158   6.230  -0.802   7.371 -0.1752 -0.1265  0.2887
  531MOL0     C73159   6.125  -0.874   7.333  0.8226  0.0560 -0.2885
  531MOL0     C73160   6.125  -1.027   7.274  0.3934  0.5514  0.5773
  531MOL0     C73161   6.027  -1.117   7.343 -0.3397 -0.7578  0.1081
  531MOL0     C73162   6.079  -1.140   7.487  0.5593  0.2997  0.7734
  531MOL0     C73163   6.000  -1.253   7.566  0.0241 -0.6775  0.2401
  531MOL0     O73164   5.988  -1.366   7.485 -0.5325 -0.6571  0.4891
  531MOL0     C73165   5.875  -1.444   7.490  1.4663 -1.2083  1.0820
  531MOL0     C73166   5.841  -1.502   7.367  0.8555  0.6644 -0.3979
  531MOL0     C73167   5.723  -1.570   7.344 -0.3126  0.5228  0.1381
  531MOL0     C73168   5.720  -1.633   7.200  0.1675 -0.9151 -0.3022
  531MOL0     C73169   5.622  -1.577   7.445 -0.6870  0.9286 -1.7646
  531MOL0     C73170   5.493  -1.651   7.440 -0.3779  0.2993 -0.1835
  531MOL0     O73171   5.393  -1.617   7.530 -0.2997 -0.4702  0.9142
  531MOL0     C73172   5.294  -1.693   7.567 -0.0344  0.8552 -0.3825
  531MOL0     C73173   5.188  -1.627   7.641 -0.4337 -0.3817 -0.2134
  531MOL0     C73174   5.068  -1.699   7.674 -0.1857  0.3243  0.0735
  531MOL0     C73175   5.060  -1.836   7.650  0.1294  0.4332 -0.0070
  531MOL0     O73176   4.965  -1.918   7.709 -0.0945 -0.1538  0.8245
  531MOL0     C73177   4.848  -1.852   7.761 -0.8035 -0.2814 -0.0006
  531MOL0     C73178   4.748  -1.963   7.792  0.4753 -0.3092 -0.2272
  531MOL0     C73179   4.775  -2.027   7.935  0.6771  0.0911  0.1038
  531MOL0     C73180   4.694  -2.152   7.950 -0.5729  0.5955  0.2373
  531MOL0     C73181   4.544  -2.144   7.962  0.2041 -0.6385 -0.3100
  531MOL0     C73182   4.467  -2.274   8.004  0.5141  0.1462 -0.0050
  531MOL0     C73183   4.479  -2.296   8.155 -0.6290 -0.0722  0.4303
  531MOL0     C73184   4.428  -2.442   8.192 -0.1331 -0.2048 -0.1054
  531MOL0    Cl73185   4.342  -2.438   8.344 -0.3369  0.3797 -0.3043
  531MOL0     C73186   5.163  -1.898   7.590 -0.5869  0.4503 -0.5396
  531MOL0     C73187   5.276  -1.832   7.537  0.6316 -0.4916 -0.3237
  531MOL0     O73188   5.482  -1.725   7.348  0.5546  0.2367 -0.0423
  531MOL0     C73189   5.658  -1.514   7.572  0.4492  0.0723  0.1020
  531MOL0     C73190   5.782  -1.458   7.597  0.1280  0.0508  0.2177
  531MOL0     N73191   6.002  -0.810   7.362 -0.0674  0.5325 -0.2705
  531MOL0     N73192   6.036  -0.696   7.412 -0.0357 -0.2102 -0.4077
  531MOL0     C73193   6.658   0.062   8.241  0.2204  0.1763 -0.3077
  531MOL0     C73194   6.683   0.185   8.287 -0.4857  0.1907  0.0603
  531MOL0     C73195   6.785   0.644   8.218 -0.7341 -0.4288  0.2529
  531MOL0     C73196   6.702   0.695   8.315  0.6780  0.7026 -0.8593
  531MOL0     C73197   6.690   0.831   8.351  0.6806  0.3409  0.4403
  531MOL0     C73198   6.771   0.909   8.274 -1.4418 -1.0041  0.8867
  531MOL0     O73199   6.799   1.041   8.293  0.5917  0.5824  0.1788
  531MOL0     C73200   6.690   1.112   8.356  0.4969 -0.6868 -0.1669
  531MOL0     C73201   6.730   1.262   8.361  0.4818 -0.1594 -0.2117
  531MOL0     C73202   6.635   1.343   8.450  0.8553 -0.8107 -0.2474
  531MOL0     C73203   6.482   1.329   8.406 -0.3177 -0.0679 -0.0222
  531MOL0     C73204   6.420   1.214   8.471  0.1245 -0.1834 -0.7493
  531MOL0     C73205   6.382   1.111   8.518 -0.1992 -0.6861  0.8217
  531MOL0     C73206   6.855   0.871   8.166  0.3127  1.3936 -0.2696
  531MOL0     C73207   6.855   0.735   8.130 -0.7102 -0.6065 -0.7564
  531MOL0     C73208   6.948   0.691   8.011 -0.0440 -0.3292 -0.2309
  531MOL0     H73209   6.599   0.368   8.016  0.5092  0.7432 -0.7406
  531MOL0     H73210   6.565   0.140   7.925  0.6026  3.8515 -0.5158
  531MOL0     H73211   6.600  -0.083   7.871  0.2681  0.4541  1.6681
  531MOL0     H73212   6.432  -0.112   7.941 -0.9958 -0.5671 -0.2602
  531MOL0     H73213   6.661  -0.317   7.955  0.0381  1.1563 -2.6543
  531MOL0     H73214   6.505  -0.325   8.029  0.2807 -0.3318  0.6783
  531MOL0     H73215   6.417  -0.311   7.782  0.2531 -1.6655 -0.9917
  531MOL0     H73216   6.593  -0.307   7.735 -0.2893 -0.7359 -1.1739
  531MOL0     H73217   6.629  -0.528   7.778  0.1415 -0.1667 -0.0152
  531MOL0     H73218   6.499  -0.533   7.898  0.4917 -0.5124 -1.5275
  531MOL0     H73219   6.478  -0.639   7.676  0.7221  1.0075 -2.0037
  531MOL0     H73220   6.456  -0.474   7.610  3.4666 -0.3693 -0.4913
  531MOL0     H73221   6.295  -0.616   7.835 -0.0324 -1.1171  0.4309
  531MOL0     H73222   6.250  -0.459   7.777 -1.3447  0.2524 -0.6278
  531MOL0     H73223   6.111  -0.623   7.661  0.8787 -1.2478  1.2291
  531MOL0     H73224   6.234  -0.735   7.642  0.0816  0.5643  1.9368
  531MOL0     H73225   6.200  -0.483   7.467 -1.6460 -1.4107 -4.3883
  531MOL0     H73226   6.345  -0.590   7.470  1.1944  1.8559  1.3349
  531MOL0     H73227   6.336  -0.827   7.376 -0.7537 -3.3032 -0.7770
  531MOL0     H73228   6.224  -1.068   7.293  0.5516  0.1322 -1.0064
  531MOL0     H73229   6.093  -1.029   7.169  0.1396 -0.3582  0.6637
  531MOL0     H73230   5.925  -1.079   7.349 -0.2335 -0.6806  2.0293
  531MOL0     H73231   6.027  -1.206   7.280  1.4431  1.5465 -3.4522
  531MOL0     H73232   6.187  -1.152   7.486  0.9925  3.3116  1.5196
  531MOL0     H73233   6.065  -1.045   7.539  0.0120  1.4551 -1.3523
  531MOL0     H73234   6.052  -1.276   7.659  0.0726 -0.6521  0.2194
  531MOL0     H73235   5.903  -1.216   7.599 -0.3984 -0.0579 -1.5416
  531MOL0     H73236   5.902  -1.487   7.279 -0.3630  3.4505 -0.8823
  531MOL0     H73237   5.814  -1.613   7.148  0.8088  2.1620  1.7489
  531MOL0     H73238   5.637  -1.583   7.148 -0.7257 -1.4418  0.5906
  531MOL0     H73239   5.692  -1.737   7.216 -2.3167 -0.4555 -1.1329
  531MOL0     H73240   5.203  -1.525   7.675 -0.0284 -0.3123 -0.6022
  531MOL0     H73241   4.999  -1.631   7.722  0.8610  1.0759  0.5605
  531MOL0     H73242   4.869  -1.797   7.854  1.7180  0.6521 -1.0297
  531MOL0     H73243   4.798  -1.779   7.696 -1.5464 -2.6124 -2.1685
  531MOL0     H73244   4.648  -1.921   7.786  0.9419  0.6767 -1.8986
  531MOL0     H73245   4.751  -2.031   7.707 -0.2736  3.3666 -3.4676
  531MOL0     H73246   4.741  -1.953   8.008 -2.9241 -0.2417 -1.0304
  531MOL0     H73247   4.884  -2.038   7.939  0.7259  0.7814  1.2297
  531MOL0     H73248   4.722  -2.194   8.047 -1.0277  0.6808  0.4058
  531MOL0     H73249   4.716  -2.221   7.868 -1.8008  1.3351 -0.7481
  531MOL0     H73250   4.514  -2.065   8.032 -0.0551 -0.9956 -0.0136
  531MOL0     H73251   4.495  -2.115   7.870 -2.6194  1.5894  1.7200
  531MOL0     H73252   4.495  -2.364   7.949 -0.9981 -1.0221  1.0312
  531MOL0     H73253   4.364  -2.249   7.974  0.1339  1.2467  2.0414
  531MOL0     H73254   4.407  -2.232   8.207 -1.5995 -0.4929 -0.3584
  531MOL0     H73255   4.578  -2.291   8.202 -0.0253 -2.8560 -0.4013
  531MOL0     H73256   4.515  -2.509   8.195  0.6157  0.2706 -4.2353
  531MOL0     H73257   4.354  -2.482   8.122 -0.7764  0.9126 -0.0846
  531MOL0     H73258   5.163  -2.002   7.560 -0.0164 -0.1073  1.2698
  531MOL0     H73259   5.351  -1.884   7.479  2.1077  0.4255  0.6805
  531MOL0     H73260   5.591  -1.520   7.658 -0.1999  0.1371 -0.3913
  531MOL0     H73261   5.803  -1.420   7.697  0.3196 -1.1364  0.6435
  531MOL0     H73262   6.662  -0.023   8.308 -2.9985 -1.1411 -1.5746
  531MOL0     H73263   6.722   0.203   8.387  1.3600 -0.6901 -0.4452
  531MOL0     H73264   6.649   0.627   8.381 -0.9068  1.2874 -1.4765
  531MOL0     H73265   6.642   0.855   8.445  0.8939 -0.3051  0.7167
  531MOL0     H73266   6.599   1.108   8.296  2.0853  2.2216 -3.0785
  531MOL0     H73267   6.680   1.088   8.462  1.9885 -0.1937  0.1151
  531MOL0     H73268   6.712   1.299   8.260  1.6185  0.7783 -0.1037
  531MOL0     H73269   6.837   1.278   8.378  0.7958 -0.4871 -1.7606
  531MOL0     H73270   6.649   1.332   8.558  1.3785 -1.0722 -0.3413
  531MOL0     H73271   6.660   1.448   8.433 -0.3163 -0.3976  0.3805
  531MOL0     H73272   6.476   1.322   8.297  1.0723 -1.3290 -0.0592
  531MOL0     H73273   6.419   1.417   8.424  0.1596  1.0968 -3.3084
  531MOL0     H73274   6.341   1.026   8.570 -0.0000 -0.8473  0.7164
  531MOL0     H73275   6.924   0.929   8.106  1.4324 -1.0605 -1.4751
  531MOL0     H73276   7.027   0.639   8.064 -0.3298 -0.0787  0.4465
  531MOL0     H73277   6.908   0.626   7.932  4.1358  0.9464 -3.8487
  531MOL0     H73278   6.986   0.769   7.943  0.2338 -0.1402  0.1365
  532MOL0     O73279  10.537   2.054   1.929 -0.0277 -0.2389  0.2995
  532MOL0     C73280  10.509   2.173   1.939 -0.5640 -0.7751  1.1095
  532MOL0     O73281  10.604   2.272   1.958 -0.3321 -0.2799  0.6377
  532MOL0     C73282  10.738   2.255   1.969  0.0033  0.8036  0.5263
  532MOL0     C73283  10.788   2.155   2.051 -0.2250 -0.4196 -1.4627
  532MOL0     C73284  10.924   2.162   2.087  0.3343 -0.3594 -1.0898
  532MOL0     C73285  11.015   2.268   2.036  0.4544  0.3041  0.2031
  532MOL0     O73286  11.147   2.290   2.058  0.2308 -0.4224  0.1726
  532MOL0     C73287  11.236   2.181   2.071 -0.1909  0.0072  0.2584
  532MOL0     C73288  11.390   2.221   2.063 -0.3302 -0.7056 -0.3200
  532MOL0     C73289  11.421   2.264   1.922  0.5619  0.8749 -0.1374
  532MOL0     C73290  11.564   2.241   1.870  0.7952  0.6185 -0.9116
  532MOL0     C73291  11.680   2.260   1.966  0.0994 -0.3423  0.4099
  532MOL0     C73292  11.805   2.209   1.902 -0.0656 -0.4747 -0.1463
  532MOL0     C73293  11.889   2.295   1.800  0.8610  0.5262 -0.0257
  532MOL0     C73294  11.896   2.437   1.854  0.6470  0.9673  0.3487
  532MOL0     N73295  12.021   2.499   1.794 -0.6716 -0.1405  0.2127
  532MOL0     C73296  12.110   2.576   1.870 -0.1767 -0.8782  0.0921
  532MOL0     C73297  12.208   2.608   1.779 -0.1364  0.7656  0.1568
  532MOL0     C73298  12.322   2.692   1.809 -0.4884  0.6162  0.0434
  532MOL0     C73299  12.425   2.607   1.882 -0.2513  0.5675 -0.6230
  532MOL0     C73300  12.560   2.681   1.893 -0.1392 -0.6168  1.0138
  532MOL0     C73301  12.641   2.590   1.984  0.2397 -0.6376 -1.0436
  532MOL0     O73302  12.604   2.575   2.125 -0.4848 -0.0985 -1.1239
  532MOL0     C73303  12.682   2.647   2.212  0.1670 -0.4220  0.3492
  532MOL0     C73304  12.692   2.589   2.342 -0.4285  0.9143 -0.4329
  532MOL0     C73305  12.774   2.649   2.442 -1.2259  0.0614 -0.1873
  532MOL0     C73306  12.776   2.580   2.573 -0.5827 -0.0908 -0.0558
  532MOL0     C73307  12.841   2.774   2.418  0.2876 -0.2057  0.0642
  532MOL0     C73308  12.919   2.850   2.508  0.1459  0.4532  0.0464
  532MOL0     O73309  12.914   2.981   2.486 -0.1291 -0.4786  0.4081
  532MOL0     C73310  13.023   3.065   2.523 -1.1903 -0.9365 -0.0327
  532MOL0     C73311  12.997   3.198   2.531 -0.5101  0.3496 -0.1999
  532MOL0     C73312  13.103   3.289   2.565  0.8179  0.0866 -0.6045
  532MOL0     C73313  13.233   3.249   2.571  0.1729 -0.7716 -1.0244
  532MOL0     O73314  13.340   3.333   2.601  1.2996  0.9674  0.5018
  532MOL0     C73315  13.323   3.423   2.711 -0.8535  0.4047  1.0252
  532MOL0     C73316  13.464   3.481   2.758 -0.1114 -0.4621  0.0008
  532MOL0     C73317  13.481   3.626   2.723  0.1567 -0.1804  1.0836
  532MOL0     C73318  13.626   3.666   2.714  0.6965 -0.9715  0.4916
  532MOL0     C73319  13.660   3.814   2.743  0.9577 -0.1569  0.9283
  532MOL0     C73320  13.644   3.844   2.887 -1.5458  0.2057  0.4010
  532MOL0     C73321  13.635   3.989   2.912  0.3173 -0.2117 -0.1429
  532MOL0     C73322  13.624   4.013   3.061 -0.0645 -0.1621 -0.0947
  532MOL0    Cl73323  13.460   4.080   3.104  0.0254  0.1751  0.0780
  532MOL0     C73324  13.260   3.115   2.555 -0.4297  0.6790  0.1704
  532MOL0     C73325  13.157   3.024   2.533  0.5632  0.8014  0.5270
  532MOL0     O73326  12.984   2.793   2.593 -0.0045  0.0376 -0.5917
  532MOL0     C73327  12.833   2.819   2.280  0.1142  0.2628  0.1635
  532MOL0     C73328  12.743   2.770   2.188 -0.8306 -0.2475  0.3686
  532MOL0     N73329  12.181   2.547   1.660  0.7696 -0.3348  0.2479
  532MOL0     N73330  12.065   2.494   1.664 -0.4331  0.8400 -0.0754
  532MOL0     C73331  10.958   2.361   1.952  0.2238  0.0171 -0.1777
  532MOL0     C73332  10.824   2.350   1.909 -0.1106  0.2020 -0.1439
  532MOL0     C73333  10.362   2.211   1.932 -0.0100 -0.3506  0.3065
  532MOL0     C73334  10.331   2.350   1.943 -0.7021 -1.0904  0.4912
  532MOL0     C73335  10.208   2.397   1.924 -0.2696 -0.0052 -0.6343
  532MOL0     C73336  10.101   2.311   1.929  0.2770 -0.2278  0.4045
  532MOL0     O73337   9.965   2.346   1.933  0.8158  0.2668  0.2240
  532MOL0     C73338   9.934   2.487   1.948 -0.7699 -0.1600 -0.2869
  532MOL0     C73339   9.784   2.497   1.959 -0.5151 -0.3922 -0.7457
  532MOL0     C73340   9.717   2.442   1.828  0.6170 -0.2979  0.4366
  532MOL0     C73341   9.558   2.440   1.847 -0.0641 -0.0917  0.4752
  532MOL0     C73342   9.492   2.432   1.717  0.6081  0.2304 -0.0690
  532MOL0     C73343   9.447   2.432   1.608  0.2498  0.3907 -0.4446
  532MOL0     C73344  10.126   2.177   1.943  0.3084  1.3474  0.0663
  532MOL0     C73345  10.255   2.119   1.946 -0.2542 -0.5646  0.6352
  532MOL0     C73346  10.264   1.973   1.959  0.8054  0.0566 -0.4120
  532MOL0     H73347  10.722   2.077   2.089  2.3857 -2.3205 -0.5974
  532MOL0     H73348  10.962   2.081   2.149  2.9780  0.6759 -1.2476
  532MOL0     H73349  11.216   2.115   1.986 -1.0419  1.1615 -0.4604
  532MOL0     H73350  11.212   2.132   2.166  2.3484 -0.3195  0.7992
  532MOL0     H73351  11.419   2.300   2.133  1.8944 -1.3503 -0.4112
  532MOL0     H73352  11.450   2.134   2.091  3.1456  0.9398 -1.8780
  532MOL0     H73353  11.349   2.223   1.852  1.0369 -0.3385  0.0654
  532MOL0     H73354  11.411   2.373   1.932  1.6201  0.8543  1.6463
  532MOL0     H73355  11.569   2.133   1.849  5.2730 -0.1950  2.7693
  532MOL0     H73356  11.568   2.294   1.774 -1.7345  0.7097 -1.0307
  532MOL0     H73357  11.669   2.201   2.057 -0.1976  0.7140  1.0755
  532MOL0     H73358  11.684   2.367   1.985  1.6275 -0.1709 -0.6322
  532MOL0     H73359  11.865   2.183   1.990 -3.5424 -2.2133  1.9690
  532MOL0     H73360  11.786   2.114   1.852 -0.2047  0.1381 -1.2820
  532MOL0     H73361  11.837   2.295   1.704  0.7080 -1.8089 -0.0003
  532MOL0     H73362  11.989   2.253   1.779  1.2807  3.2229 -4.8362
  532MOL0     H73363  11.803   2.481   1.816  1.1048  1.2222 -0.5303
  532MOL0     H73364  11.889   2.444   1.963 -2.2323 -0.6192  0.3651
  532MOL0     H73365  12.100   2.597   1.976 -1.5418 -3.0368  0.4498
  532MOL0     H73366  12.290   2.781   1.865  0.1657  0.9584 -0.1049
  532MOL0     H73367  12.371   2.727   1.718 -1.1331  2.7488  0.4469
  532MOL0     H73368  12.396   2.587   1.986 -0.4352  0.3470 -0.7164
  532MOL0     H73369  12.423   2.514   1.824 -0.0581  0.8470 -1.0832
  532MOL0     H73370  12.612   2.707   1.800  0.3721  2.9289  2.1482
  532MOL0     H73371  12.556   2.776   1.947  1.8273  1.2099 -1.8123
  532MOL0     H73372  12.653   2.492   1.938  2.2455 -0.4122 -1.1082
  532MOL0     H73373  12.747   2.616   1.993  0.0760 -0.6551  1.5086
  532MOL0     H73374  12.635   2.502   2.373 -1.2464  1.8239  0.6910
  532MOL0     H73375  12.692   2.512   2.589  1.5053 -2.4282  1.8161
  532MOL0     H73376  12.754   2.653   2.652  1.0841 -0.8246  1.1426
  532MOL0     H73377  12.872   2.532   2.591 -0.2062 -0.8857 -3.4511
  532MOL0     H73378  12.901   3.242   2.505 -0.8872  0.5458  1.4014
  532MOL0     H73379  13.083   3.395   2.574  2.9773  0.4809  0.0125
  532MOL0     H73380  13.256   3.503   2.678 -1.3194 -0.6064 -0.5911
  532MOL0     H73381  13.276   3.363   2.789  2.6001 -0.4924  2.5897
  532MOL0     H73382  13.474   3.470   2.866  0.6105  0.3269  0.0200
  532MOL0     H73383  13.544   3.420   2.716  2.9279  4.2786 -1.9605
  532MOL0     H73384  13.431   3.680   2.805 -3.7650 -0.4705 -0.8813
  532MOL0     H73385  13.429   3.654   2.631  2.8669  0.7546 -0.2977
  532MOL0     H73386  13.651   3.645   2.609  1.8996  4.7224 -0.7320
  532MOL0     H73387  13.684   3.605   2.783  0.2998  0.1218  1.8248
  532MOL0     H73388  13.762   3.833   2.708  0.9122 -3.1751 -1.2336
  532MOL0     H73389  13.603   3.875   2.672 -1.9141 -2.8439  0.6965
  532MOL0     H73390  13.714   3.795   2.955 -1.3034  1.2534  0.9097
  532MOL0     H73391  13.546   3.808   2.921 -0.4825 -2.0080  1.3658
  532MOL0     H73392  13.545   4.023   2.860  0.1305 -1.3435 -0.6041
  532MOL0     H73393  13.720   4.040   2.865 -0.6861 -0.2715 -2.1558
  532MOL0     H73394  13.696   4.090   3.091 -0.2788  1.0335 -2.4085
  532MOL0     H73395  13.656   3.923   3.113 -1.5567 -1.0749 -0.6887
  532MOL0     H73396  13.359   3.071   2.550 -1.5827 -2.0121 -2.9055
  532MOL0     H73397  13.175   2.918   2.522  1.8325  1.0844 -0.3118
  532MOL0     H73398  12.885   2.911   2.255  3.9629 -1.3428  1.5623
  532MOL0     H73399  12.734   2.838   2.104  4.0612 -1.4423 -1.4751
  532MOL0     H73400  11.008   2.451   1.919 -2.4810  1.1568 -1.5034
  532MOL0     H73401  10.772   2.424   1.849 -2.5183  0.9860  2.6754
  532MOL0     H73402  10.414   2.420   1.940  0.9156 -2.8955 -3.0453
  532MOL0     H73403  10.191   2.504   1.916  0.5040  0.1760  0.0522
  532MOL0     H73404   9.980   2.514   2.043  1.4065  1.7232 -1.7592
  532MOL0     H73405   9.963   2.561   1.873 -3.9017  0.4292 -1.0786
  532MOL0     H73406   9.744   2.595   1.986  0.7888 -0.1184  0.2762
  532MOL0     H73407   9.752   2.429   2.038  4.7356 -4.1646 -1.3354
  532MOL0     H73408   9.744   2.508   1.745 -0.7756 -0.5952 -0.2788
  532MOL0     H73409   9.747   2.340   1.802 -1.3656 -0.9571  0.5868
  532MOL0     H73410   9.526   2.534   1.894  1.6121  1.7719 -1.8786
  532MOL0     H73411   9.533   2.355   1.912 -1.6587 -0.9579 -1.1779
  532MOL0     H73412   9.412   2.424   1.507 -3.9738  0.7203  0.7929
  532MOL0     H73413  10.040   2.111   1.956  0.3269  1.6869  2.1610
  532MOL0     H73414  10.328   1.934   2.039  0.4435  3.2064  1.6021
  532MOL0     H73415  10.163   1.931   1.961  0.0589  1.2371 -4.2141
  532MOL0     H73416  10.315   1.927   1.874  0.7303 -1.1516  0.1816
  533MOL0     O73417   0.546   9.447   4.525 -0.1117  0.4430  0.6951
  533MOL0     C73418   0.491   9.419   4.629 -0.2652  0.5728 -0.0743
  533MOL0     O73419   0.540   9.343   4.730  0.0004 -0.4092  0.3690
  533MOL0     C73420   0.653   9.271   4.698  0.9160  0.9834  0.2670
  533MOL0     C73421   0.661   9.128   4.688 -0.0200 -0.4853 -0.3063
  533MOL0     C73422   0.788   9.066   4.695  0.1339 -0.2038 -0.7608
  533MOL0     C73423   0.908   9.141   4.686  0.3825 -0.4468  0.1115
  533MOL0     O73424   1.023   9.068   4.697  0.3247  0.6696  0.5628
  533MOL0     C73425   1.138   9.132   4.751  0.4494  0.7391  0.4249
  533MOL0     C73426   1.255   9.029   4.745 -0.5716 -0.3840  0.4697
  533MOL0     C73427   1.393   9.096   4.771  0.7684  0.1725  0.2548
  533MOL0     C73428   1.513   9.005   4.740 -1.0019  1.0776 -0.1230
  533MOL0     C73429   1.522   8.867   4.808  0.9132  0.3470 -0.7408
  533MOL0     C73430   1.574   8.885   4.949  0.5026 -0.3583  0.1535
  533MOL0     C73431   1.564   8.757   5.047  0.1960  0.1717  0.5577
  533MOL0     C73432   1.661   8.761   5.165  0.6965 -0.3250  1.3107
  533MOL0     N73433   1.798   8.752   5.126 -0.3857 -0.8175 -0.2150
  533MOL0     C73434   1.864   8.654   5.069 -0.4363  0.5485  0.3453
  533MOL0     C73435   1.986   8.700   5.051 -0.3313 -0.2563  0.5640
  533MOL0     C73436   2.099   8.627   4.986  0.1449 -0.1585  0.1353
  533MOL0     C73437   2.069   8.624   4.839  0.1088  0.3224  0.6654
  533MOL0     C73438   2.183   8.542   4.766  0.0930  0.0666 -0.6374
  533MOL0     C73439   2.298   8.638   4.727 -0.1891  0.4536  0.2404
  533MOL0     O73440   2.381   8.587   4.629  0.2305 -1.1039  0.2727
  533MOL0     C73441   2.477   8.680   4.577 -0.6313  0.1254  0.4973
  533MOL0     C73442   2.581   8.634   4.492 -0.4959  0.3648 -0.2883
  533MOL0     C73443   2.683   8.721   4.449 -0.0843 -0.2277 -0.0890
  533MOL0     C73444   2.780   8.669   4.353  0.1200  0.2344  0.0709
  533MOL0     C73445   2.691   8.846   4.504 -0.5804 -0.2790 -0.5620
  533MOL0     C73446   2.790   8.935   4.458 -0.0860 -0.4823 -0.2043
  533MOL0     O73447   2.739   9.053   4.414  0.1339 -0.3555  0.2613
  533MOL0     C73448   2.803   9.151   4.341  0.3378 -0.0942 -0.2234
  533MOL0     C73449   2.931   9.142   4.277  0.5856 -0.4576 -0.2496
  533MOL0     C73450   2.977   9.238   4.184 -0.9018 -0.9643 -0.4073
  533MOL0     C73451   2.916   9.366   4.183 -0.1246  0.4139 -0.1507
  533MOL0     O73452   2.981   9.459   4.111  0.0133 -0.4104  0.1342
  533MOL0     C73453   2.984   9.587   4.171  0.2211  0.8301  0.0682
  533MOL0     C73454   3.072   9.676   4.090 -0.1419  0.2626  0.8534
  533MOL0     C73455   3.213   9.623   4.103 -0.1397 -0.3642  0.0932
  533MOL0     C73456   3.318   9.722   4.059 -0.5630  0.2830  0.2047
  533MOL0     C73457   3.343   9.834   4.158  0.2933  0.2781 -0.1658
  533MOL0     C73458   3.386   9.773   4.297  0.9164 -0.6382  0.7128
  533MOL0     C73459   3.426   9.888   4.392 -0.1459 -0.6461  0.4441
  533MOL0     C73460   3.500   9.838   4.512 -0.2549  0.1281  1.4186
  533MOL0    Cl73461   3.560   9.991   4.581  0.1536  0.0765 -0.2216
  533MOL0     C73462   2.794   9.380   4.254 -1.0998 -0.4189 -0.5368
  533MOL0     C73463   2.739   9.277   4.329 -0.5469 -0.5174 -0.9627
  533MOL0     O73464   2.910   8.903   4.472  0.3865  0.0031  0.0400
  533MOL0     C73465   2.592   8.894   4.586 -0.3281 -0.9335 -0.3970
  533MOL0     C73466   2.485   8.812   4.619  0.0438 -0.6383  0.1379
  533MOL0     N73467   2.005   8.822   5.106  0.4520  0.4036  0.0153
  533MOL0     N73468   1.885   8.855   5.146  0.3384  0.2064  0.2830
  533MOL0     C73469   0.896   9.281   4.701 -0.2859  0.3376  0.7347
  533MOL0     C73470   0.782   9.343   4.699  0.7391 -0.3199  0.7218
  533MOL0     C73471   0.356   9.466   4.644 -0.1843 -0.3216  0.0274
  533MOL0     C73472   0.293   9.515   4.526  0.8871 -0.6333  0.7562
  533MOL0     C73473   0.169   9.588   4.542  0.2922 -0.0258  0.2268
  533MOL0     C73474   0.088   9.598   4.654 -0.8472  0.5961  0.1540
  533MOL0     O73475  -0.038   9.660   4.650 -0.0875  0.1425 -0.5420
  533MOL0     C73476  -0.114   9.673   4.775 -0.3382 -1.2310 -0.6484
  533MOL0     C73477  -0.244   9.748   4.752 -0.1360  0.4816 -0.2932
  533MOL0     C73478  -0.240   9.885   4.676 -0.6219 -0.3042  1.2421
  533MOL0     C73479  -0.361   9.976   4.691  0.0421  0.6603  0.2490
  533MOL0     C73480  -0.376  10.038   4.824 -0.1444 -0.2371 -0.3978
  533MOL0     C73481  -0.379  10.079   4.941 -0.4902 -0.4357  0.1535
  533MOL0     C73482   0.142   9.530   4.763 -0.7162  0.3872  0.7404
  533MOL0     C73483   0.273   9.474   4.759 -0.4489  0.2557 -0.9997
  533MOL0     C73484   0.322   9.417   4.898  0.1621 -0.4152  0.9118
  533MOL0     H73485   0.568   9.074   4.705  1.7774 -3.3568  1.1819
  533MOL0     H73486   0.800   8.958   4.697 -1.7246 -0.4409  1.5706
  533MOL0     H73487   1.119   9.168   4.852 -0.8142  0.9565  0.1365
  533MOL0     H73488   1.156   9.214   4.681  0.2715 -2.3954 -3.6932
  533MOL0     H73489   1.235   8.958   4.825  0.4911 -0.5399  0.6172
  533MOL0     H73490   1.253   8.988   4.643  1.9813  2.8086 -1.0769
  533MOL0     H73491   1.402   9.171   4.692 -0.9617 -0.2744 -0.4130
  533MOL0     H73492   1.388   9.137   4.872  0.5543  0.9538 -0.0679
  533MOL0     H73493   1.516   8.989   4.632  1.2371 -1.4384  0.2329
  533MOL0     H73494   1.609   9.052   4.764  0.2723 -0.8517 -1.2503
  533MOL0     H73495   1.589   8.809   4.744  1.8926  1.6940 -0.9828
  533MOL0     H73496   1.419   8.829   4.803  0.9413  0.3206 -1.1121
  533MOL0     H73497   1.675   8.922   4.931  0.4285  0.0469  0.5626
  533MOL0     H73498   1.526   8.970   4.999  0.2758  0.3961 -1.2994
  533MOL0     H73499   1.588   8.664   4.995 -0.3105  0.7955 -0.8595
  533MOL0     H73500   1.463   8.749   5.089 -0.0684  0.6267  0.0368
  533MOL0     H73501   1.642   8.859   5.210  1.7317  0.3622  0.3091
  533MOL0     H73502   1.647   8.683   5.240 -0.4714 -1.7657 -0.3329
  533MOL0     H73503   1.819   8.558   5.048 -0.5812  0.2704  1.8235
  533MOL0     H73504   2.103   8.523   5.020  1.7265  0.0418  0.6537
  533MOL0     H73505   2.198   8.671   5.000  0.3748 -0.0942 -1.4917
  533MOL0     H73506   1.970   8.578   4.827 -0.1424  0.9667  0.2056
  533MOL0     H73507   2.067   8.726   4.799  2.9432  1.6697  3.5255
  533MOL0     H73508   2.203   8.458   4.833 -0.1981  0.0616 -0.5529
  533MOL0     H73509   2.151   8.502   4.669 -0.8349  0.9350 -0.7084
  533MOL0     H73510   2.244   8.724   4.687 -3.0744 -2.2476 -2.2267
  533MOL0     H73511   2.346   8.675   4.817 -0.5932 -0.0838  0.6879
  533MOL0     H73512   2.589   8.530   4.461  1.0309  0.3993 -0.0917
  533MOL0     H73513   2.758   8.719   4.258  2.9887 -2.8644 -2.4511
  533MOL0     H73514   2.761   8.563   4.334  0.4559  0.2091 -0.1332
  533MOL0     H73515   2.888   8.671   4.371  0.0193 -3.0417  1.8656
  533MOL0     H73516   2.979   9.044   4.271 -1.5615 -1.4905 -3.7134
  533MOL0     H73517   3.065   9.214   4.125 -1.4316 -1.0064 -1.1813
  533MOL0     H73518   2.884   9.625   4.193  1.1350  2.8399  0.9721
  533MOL0     H73519   3.029   9.579   4.271  1.8045  1.5088 -0.5608
  533MOL0     H73520   3.053   9.690   3.984 -1.4673 -0.7957  0.9241
  533MOL0     H73521   3.073   9.774   4.139 -0.3797 -0.3580  2.1400
  533MOL0     H73522   3.218   9.540   4.032  1.1637 -0.9186  0.7962
  533MOL0     H73523   3.229   9.572   4.198  0.7928 -0.1182  0.0769
  533MOL0     H73524   3.288   9.772   3.966 -0.6030  0.3005  0.2277
  533MOL0     H73525   3.412   9.669   4.040  0.3383  2.9433 -4.4975
  533MOL0     H73526   3.424   9.897   4.121  1.2530 -1.1774 -0.5834
  533MOL0     H73527   3.264   9.906   4.183 -0.4080 -0.5079 -0.0831
  533MOL0     H73528   3.477   9.715   4.280  1.6303  1.1990 -2.5674
  533MOL0     H73529   3.308   9.719   4.352 -1.6636  3.2552  1.2623
  533MOL0     H73530   3.345   9.952   4.428  1.6341  0.9131  1.8117
  533MOL0     H73531   3.499   9.947   4.336 -1.4890 -1.8525 -2.9064
  533MOL0     H73532   3.582   9.774   4.478 -1.5465  0.0930 -1.9135
  533MOL0     H73533   3.440   9.779   4.582 -1.4060 -0.7060 -0.2188
  533MOL0     H73534   2.744   9.476   4.248  1.7481  1.1493 -5.5171
  533MOL0     H73535   2.642   9.296   4.373 -0.5025  3.7785 -2.2496
  533MOL0     H73536   2.602   8.994   4.629 -2.4158 -0.1198 -1.6447
  533MOL0     H73537   2.410   8.855   4.684  0.9154  0.4371  0.4560
  533MOL0     H73538   0.985   9.343   4.690  0.0254 -0.3514 -0.8990
  533MOL0     H73539   0.787   9.450   4.714 -0.9604  0.0636 -1.0523
  533MOL0     H73540   0.342   9.516   4.429  0.6574 -1.1534  0.6312
  533MOL0     H73541   0.134   9.644   4.456  0.3595  0.6472  0.6275
  533MOL0     H73542  -0.137   9.578   4.822  2.9605 -1.8288  0.0363
  533MOL0     H73543  -0.044   9.731   4.837 -1.0682  0.0722 -0.9898
  533MOL0     H73544  -0.290   9.764   4.850  2.1956 -0.7413  1.1125
  533MOL0     H73545  -0.303   9.680   4.690  0.2342  0.2913 -0.4453
  533MOL0     H73546  -0.151   9.941   4.707 -1.2856  1.4308  0.1592
  533MOL0     H73547  -0.224   9.856   4.571  4.6915  2.4757  0.9450
  533MOL0     H73548  -0.458   9.930   4.669  0.1679  1.4125 -2.2391
  533MOL0     H73549  -0.350  10.062   4.625  1.5755  1.3190  1.3087
  533MOL0     H73550  -0.393  10.106   5.044 -0.1995 -1.7466  0.5653
  533MOL0     H73551   0.088   9.537   4.857 -2.5221  0.7256 -0.2632
  533MOL0     H73552   0.334   9.309   4.885 -1.8979 -0.5706 -0.0961
  533MOL0     H73553   0.423   9.455   4.912  0.6240  0.3847 -3.2570
  533MOL0     H73554   0.247   9.437   4.975 -2.4848 -3.2669 -0.6856
  534MOL0     O73555   3.881   4.671   8.753  0.3767  0.9764 -0.0446
  534MOL0     C73556   3.917   4.649   8.635  0.0807  0.0788 -0.4673
  534MOL0     O73557   3.923   4.530   8.577 -0.3224  1.1061  0.0305
  534MOL0     C73558   3.842   4.433   8.631 -0.2910 -0.2755  0.1689
  534MOL0     C73559   3.898   4.334   8.716  0.1341  1.0912  0.4458
  534MOL0     C73560   3.816   4.229   8.757 -0.6841 -0.0232  0.2130
  534MOL0     C73561   3.683   4.220   8.727  0.4594  0.1931 -0.2958
  534MOL0     O73562   3.601   4.123   8.788 -0.7943 -0.2054 -0.5027
  534MOL0     C73563   3.610   3.990   8.745 -0.6094 -0.5804 -0.3959
  534MOL0     C73564   3.508   3.914   8.824  0.0285 -0.0537  0.4877
  534MOL0     C73565   3.361   3.953   8.782  0.5133  0.4313 -0.9739
  534MOL0     C73566   3.254   3.859   8.825 -0.4027  0.3617 -0.3917
  534MOL0     C73567   3.273   3.716   8.771  0.3656 -0.0238  0.2648
  534MOL0     C73568   3.146   3.642   8.801  0.4537  0.0093 -0.7736
  534MOL0     C73569   3.024   3.685   8.721  0.0690  0.5909  0.6395
  534MOL0     C73570   2.914   3.581   8.689  0.8779 -0.3180 -0.3638
  534MOL0     N73571   2.813   3.642   8.598 -0.4217  0.2341 -0.3485
  534MOL0     C73572   2.710   3.726   8.630 -1.2826  0.6886  0.8597
  534MOL0     C73573   2.644   3.747   8.514  0.2919 -0.5311 -0.2892
  534MOL0     C73574   2.521   3.833   8.489 -0.6001  0.2977  0.2150
  534MOL0     C73575   2.396   3.777   8.557 -0.4815 -0.8155 -0.1101
  534MOL0     C73576   2.376   3.639   8.496 -0.3973 -0.1607 -0.0257
  534MOL0     C73577   2.249   3.577   8.542 -0.4418 -0.2802  0.1696
  534MOL0     O73578   2.227   3.469   8.445 -0.3240  0.2650 -0.4850
  534MOL0     C73579   2.120   3.475   8.370 -0.0057 -1.1307  0.4723
  534MOL0     C73580   2.022   3.379   8.388 -0.3908  0.8929 -1.3303
  534MOL0     C73581   1.915   3.353   8.308 -0.2004  0.7839 -1.0387
  534MOL0     C73582   1.815   3.239   8.347 -0.5265 -0.3269  0.2429
  534MOL0     C73583   1.905   3.429   8.196  0.0188  0.6903  0.0370
  534MOL0     C73584   1.796   3.417   8.085 -0.1107 -0.3015  0.6353
  534MOL0     O73585   1.820   3.498   7.975 -0.5188  0.4733 -0.2313
  534MOL0     C73586   1.761   3.465   7.855  0.8736  0.2655 -0.2113
  534MOL0     C73587   1.759   3.337   7.794  0.2300  0.9912 -0.0434
  534MOL0     C73588   1.707   3.309   7.667  0.5462 -0.4782  0.2025
  534MOL0     C73589   1.649   3.413   7.600  0.3530  0.3357  0.4525
  534MOL0     O73590   1.601   3.396   7.466 -0.4987  0.0078 -0.2165
  534MOL0     C73591   1.608   3.267   7.398  0.1248  0.5308 -0.3305
  534MOL0     C73592   1.494   3.180   7.447 -0.9712 -0.5530  0.0066
  534MOL0     C73593   1.365   3.236   7.386 -0.8580  0.6778  0.2602
  534MOL0     C73594   1.248   3.157   7.437  0.7105  0.3945 -0.0822
  534MOL0     C73595   1.252   3.016   7.372  0.1883  0.0584 -0.0275
  534MOL0     C73596   1.131   2.926   7.415  0.2289  0.3353  0.0305
  534MOL0     C73597   1.182   2.817   7.523 -0.4250 -0.0741  0.5922
  534MOL0     C73598   1.209   2.891   7.656  0.1383  0.7098  0.0250
  534MOL0    Cl73599   1.232   2.758   7.776  0.5451 -0.2960 -0.0917
  534MOL0     C73600   1.656   3.546   7.649  0.2564  0.1880  0.3425
  534MOL0     C73601   1.711   3.564   7.776 -0.7912 -1.1749  0.0243
  534MOL0     O73602   1.697   3.351   8.108  0.2973  0.1451 -0.2292
  534MOL0     C73603   1.989   3.546   8.181 -0.2945 -0.8545  0.2414
  534MOL0     C73604   2.097   3.564   8.263 -0.4457 -0.1272  0.0964
  534MOL0     N73605   2.701   3.665   8.415 -0.6441 -0.7004  0.1515
  534MOL0     N73606   2.801   3.605   8.466  0.5273 -0.5108  0.7449
  534MOL0     C73607   3.624   4.316   8.642  0.0666  0.9206 -0.6581
  534MOL0     C73608   3.708   4.424   8.598  0.7957 -0.0335 -0.4420
  534MOL0     C73609   4.008   4.749   8.567  0.6566  0.1946 -0.2162
  534MOL0     C73610   4.074   4.853   8.648 -0.1578  0.1394 -0.4188
  534MOL0     C73611   4.155   4.951   8.581  0.4276  0.2691 -0.5340
  534MOL0     C73612   4.172   4.956   8.445  0.9021 -0.5548  0.4790
  534MOL0     O73613   4.226   5.068   8.393  0.0699  0.0050  0.3005
  534MOL0     C73614   4.266   5.072   8.254  0.0483 -0.4342  0.3748
  534MOL0     C73615   4.338   5.211   8.218  0.6327  0.2150  0.0569
  534MOL0     C73616   4.272   5.319   8.291  0.9341  0.3947 -0.3686
  534MOL0     C73617   4.340   5.450   8.256  0.0995  0.2538 -0.6200
  534MOL0     C73618   4.255   5.565   8.298 -1.4367 -0.7524 -0.6724
  534MOL0     C73619   4.208   5.673   8.311  0.7304 -0.0416  0.8797
  534MOL0     C73620   4.120   4.850   8.371  0.3029  0.1906 -0.1992
  534MOL0     C73621   4.027   4.754   8.429 -0.4813  0.1743  0.2088
  534MOL0     C73622   3.950   4.669   8.333  0.0963  0.2351 -0.5085
  534MOL0     H73623   3.997   4.338   8.761  0.0455  1.1816  0.6325
  534MOL0     H73624   3.851   4.164   8.836  0.1909 -1.3483 -1.2182
  534MOL0     H73625   3.715   3.969   8.771 -1.1993 -1.7575  1.1653
  534MOL0     H73626   3.605   3.979   8.636  1.3774  0.7536 -0.6852
  534MOL0     H73627   3.537   3.811   8.803  2.6772  0.7799 -0.3779
  534MOL0     H73628   3.529   3.936   8.929 -1.1381  1.2368  0.4924
  534MOL0     H73629   3.334   4.053   8.817  1.1429  0.1573  0.3784
  534MOL0     H73630   3.360   3.961   8.673  0.8190 -4.4253 -1.5790
  534MOL0     H73631   3.267   3.862   8.934 -0.7977  0.4151 -0.3441
  534MOL0     H73632   3.158   3.907   8.803  0.2428  2.8302  1.6279
  534MOL0     H73633   3.354   3.670   8.828  1.5722 -0.6642 -1.8577
  534MOL0     H73634   3.299   3.720   8.665 -0.7672  1.1027 -0.0013
  534MOL0     H73635   3.158   3.534   8.798 -1.1123 -0.1678 -2.7023
  534MOL0     H73636   3.123   3.653   8.908 -2.9152  0.9560 -1.4797
  534MOL0     H73637   3.064   3.717   8.625  0.8448 -1.1638  0.3468
  534MOL0     H73638   2.967   3.766   8.767 -0.6747  1.0890 -1.0917
  534MOL0     H73639   2.957   3.492   8.642 -1.1911 -1.8777  0.5528
  534MOL0     H73640   2.869   3.543   8.781  0.9248 -1.7753 -0.9331
  534MOL0     H73641   2.701   3.766   8.730 -0.2222 -2.0797  2.1697
  534MOL0     H73642   2.496   3.842   8.383  2.7817  1.0080 -0.6533
  534MOL0     H73643   2.541   3.937   8.516 -0.3619  0.0686  0.9498
  534MOL0     H73644   2.415   3.775   8.665 -0.1819 -1.9733 -0.1690
  534MOL0     H73645   2.315   3.849   8.548 -0.0256  0.1021  2.2183
  534MOL0     H73646   2.380   3.651   8.387 -0.8825 -0.3381 -0.0665
  534MOL0     H73647   2.459   3.572   8.518  0.3671  0.4856 -0.8974
  534MOL0     H73648   2.266   3.539   8.643  1.0385  1.4928  0.6486
  534MOL0     H73649   2.163   3.644   8.540  0.0389  0.4974  2.4190
  534MOL0     H73650   2.040   3.322   8.479 -4.3393 -1.3669 -1.7236
  534MOL0     H73651   1.830   3.157   8.276 -3.4532 -0.2653 -0.5729
  534MOL0     H73652   1.712   3.266   8.326  0.1237  0.6007 -2.0818
  534MOL0     H73653   1.821   3.218   8.454 -0.4634  3.0415  1.0170
  534MOL0     H73654   1.805   3.251   7.843 -2.7849 -1.3290 -0.9519
  534MOL0     H73655   1.706   3.206   7.631 -1.1932  0.2414 -2.0339
  534MOL0     H73656   1.608   3.285   7.290 -1.3331  2.6075 -0.0432
  534MOL0     H73657   1.697   3.208   7.418 -0.2837 -0.6005 -1.6646
  534MOL0     H73658   1.514   3.078   7.412 -0.9731 -0.5419 -0.0249
  534MOL0     H73659   1.487   3.197   7.555 -1.4015  2.4397 -0.4135
  534MOL0     H73660   1.372   3.236   7.277  1.3971  0.0019  0.3645
  534MOL0     H73661   1.369   3.340   7.420  0.1120  2.1300 -3.7239
  534MOL0     H73662   1.154   3.209   7.418 -0.8985 -1.7161  1.5913
  534MOL0     H73663   1.262   3.133   7.543  1.1283 -0.4578 -0.3243
  534MOL0     H73664   1.241   3.034   7.265  0.0512  2.5396  0.3407
  534MOL0     H73665   1.342   2.953   7.378  1.0731  1.4360  3.0084
  534MOL0     H73666   1.090   2.867   7.332 -1.6946  0.6463  0.7163
  534MOL0     H73667   1.049   2.987   7.453 -1.6763 -1.6639 -0.6642
  534MOL0     H73668   1.272   2.766   7.489  0.3079  0.7370  1.3018
  534MOL0     H73669   1.096   2.750   7.538 -0.4215 -0.6351 -1.5548
  534MOL0     H73670   1.121   2.948   7.689 -0.4656 -0.4656  0.5243
  534MOL0     H73671   1.300   2.950   7.643 -0.2114  2.0735  2.9748
  534MOL0     H73672   1.629   3.632   7.588 -0.4305 -0.0990  0.2338
  534MOL0     H73673   1.726   3.660   7.825  1.9763 -1.4252 -0.1706
  534MOL0     H73674   1.966   3.626   8.111 -3.6129 -0.7014  1.3299
  534MOL0     H73675   2.167   3.645   8.245 -2.1837  1.1923 -1.0249
  534MOL0     H73676   3.521   4.306   8.610 -0.1613 -1.4841  0.5358
  534MOL0     H73677   3.665   4.493   8.525 -0.6186  1.2057  1.4437
  534MOL0     H73678   4.053   4.853   8.754 -1.3715 -0.8246 -0.6379
  534MOL0     H73679   4.203   5.036   8.630  0.1774  1.0036 -1.5292
  534MOL0     H73680   4.334   4.989   8.232 -2.7094 -2.3772 -1.5383
  534MOL0     H73681   4.175   5.060   8.194  1.3055  2.0478 -2.2969
  534MOL0     H73682   4.326   5.229   8.111 -0.9364 -0.4783  0.0778
  534MOL0     H73683   4.444   5.202   8.244  0.5265  3.9732  2.6289
  534MOL0     H73684   4.165   5.320   8.269  0.5609 -0.8998  1.2089
  534MOL0     H73685   4.268   5.308   8.400 -0.0712  0.2186 -0.4160
  534MOL0     H73686   4.357   5.452   8.148 -1.1840 -1.6691 -0.9096
  534MOL0     H73687   4.441   5.450   8.298 -0.4008 -0.3833  0.6223
  534MOL0     H73688   4.161   5.765   8.338  0.0707  0.4733 -1.7492
  534MOL0     H73689   4.149   4.864   8.267  2.1042  1.9378  0.4773
  534MOL0     H73690   3.972   4.562   8.335  0.3435  0.2678 -1.1904
  534MOL0     H73691   3.844   4.688   8.350  0.7408  2.0709  2.0246
  534MOL0     H73692   3.968   4.707   8.232 -3.3242  0.2476 -1.2144
  535MOL0     O73693   3.634   8.035   2.936  0.2348 -0.0789  0.1671
  535MOL0     C73694   3.606   7.962   2.848  0.0797 -0.5587  0.4703
  535MOL0     O73695   3.679   7.854   2.798  0.0928 -0.0008 -0.0844
  535MOL0     C73696   3.806   7.823   2.832  0.0491  0.9351 -0.6244
  535MOL0     C73697   3.849   7.687   2.812 -0.6215 -0.3023 -0.5329
  535MOL0     C73698   3.986   7.655   2.818  0.7088 -0.3839 -0.2429
  535MOL0     C73699   4.080   7.738   2.882  0.6869  0.2857 -0.6967
  535MOL0     O73700   4.208   7.694   2.901  0.0582  0.1211  0.7889
  535MOL0     C73701   4.282   7.745   3.011  1.0700 -0.4531  0.8818
  535MOL0     C73702   4.379   7.634   3.052  0.7960  0.4829 -0.6878
  535MOL0     C73703   4.316   7.508   3.121  0.6386  0.3535  0.0334
  535MOL0     C73704   4.380   7.461   3.254  0.7599  0.0713  0.0124
  535MOL0     C73705   4.338   7.326   3.299 -0.7344  0.8567 -0.9152
  535MOL0     C73706   4.449   7.262   3.389 -0.0672  0.0407  0.1251
  535MOL0     C73707   4.423   7.110   3.444 -0.2007 -0.3330 -0.7262
  535MOL0     C73708   4.556   7.056   3.491  0.2843  0.5287 -0.7462
  535MOL0     N73709   4.638   6.984   3.388  0.1826 -0.3893  0.6644
  535MOL0     C73710   4.731   7.054   3.312 -0.6487 -0.0458  1.1284
  535MOL0     C73711   4.807   6.964   3.247  0.8073  1.3980  0.2662
  535MOL0     C73712   4.926   6.990   3.164  0.9880  0.9183  1.1799
  535MOL0     C73713   4.956   6.869   3.067 -0.4470 -1.4684  0.1453
  535MOL0     C73714   4.850   6.848   2.954 -0.5032  0.3143  0.0819
  535MOL0     C73715   4.915   6.761   2.837  0.8556 -0.1589  0.1238
  535MOL0     O73716   4.957   6.644   2.907 -0.0959  0.5781  0.3929
  535MOL0     C73717   4.996   6.541   2.830  0.3803  0.9107 -0.3996
  535MOL0     C73718   4.964   6.514   2.699 -0.6847 -0.0072  0.3158
  535MOL0     C73719   5.010   6.400   2.632  0.2021  0.1902  0.2319
  535MOL0     C73720   4.966   6.381   2.485 -0.1358  0.0431  0.1012
  535MOL0     C73721   5.095   6.310   2.702 -0.3944 -0.3121 -0.0040
  535MOL0     C73722   5.151   6.191   2.642  0.3238  0.4874 -0.6913
  535MOL0     O73723   5.151   6.078   2.726 -0.3953  0.0492 -0.0150
  535MOL0     C73724   5.240   5.978   2.691 -0.7634 -1.0010 -0.3075
  535MOL0     C73725   5.375   6.009   2.713  0.5844 -0.3065  0.3714
  535MOL0     C73726   5.477   5.925   2.670  0.4615 -0.2932 -0.7296
  535MOL0     C73727   5.449   5.808   2.600  0.6145  1.1094  0.3950
  535MOL0     O73728   5.534   5.719   2.553 -0.4455 -0.3382  0.1376
  535MOL0     C73729   5.671   5.761   2.540  1.0547  0.5939  0.7816
  535MOL0     C73730   5.749   5.665   2.445 -0.4479 -0.2848 -0.8913
  535MOL0     C73731   5.693   5.660   2.297  0.5586 -0.4269  0.8016
  535MOL0     C73732   5.742   5.777   2.220  0.1032 -0.1922  0.5754
  535MOL0     C73733   5.711   5.777   2.067 -0.5173 -0.2646  0.3030
  535MOL0     C73734   5.765   5.661   1.988  0.0078  0.3378  0.5387
  535MOL0     C73735   5.920   5.637   1.998 -0.3704 -0.4790  0.1100
  535MOL0     C73736   6.016   5.749   1.954 -0.0065 -0.3393 -0.0875
  535MOL0    Cl73737   6.017   5.896   2.049 -0.1688 -0.2128  0.2122
  535MOL0     C73738   5.314   5.765   2.587 -0.8364 -0.2621  0.9338
  535MOL0     C73739   5.214   5.852   2.624 -0.6052  0.1288 -0.0015
  535MOL0     O73740   5.204   6.195   2.528  0.0778  0.1543 -0.7100
  535MOL0     C73741   5.125   6.340   2.835  0.1136  1.4808 -0.0026
  535MOL0     C73742   5.066   6.443   2.899  0.5460  0.7084  0.6877
  535MOL0     N73743   4.746   6.840   3.279 -0.5968  0.4905  0.0443
  535MOL0     N73744   4.645   6.850   3.359  0.5446  0.8987 -0.0693
  535MOL0     C73745   4.032   7.872   2.907  0.3245 -0.2621  0.1533
  535MOL0     C73746   3.897   7.915   2.885 -0.2395 -0.3482 -0.1753
  535MOL0     C73747   3.482   7.999   2.780 -0.3713 -0.0081  0.2379
  535MOL0     C73748   3.500   8.021   2.643  0.3001  0.1806  0.4979
  535MOL0     C73749   3.394   8.053   2.565 -0.0688  1.1166  0.8631
  535MOL0     C73750   3.270   8.074   2.621 -1.1575 -0.8908 -0.4372
  535MOL0     O73751   3.162   8.123   2.556 -0.3253  0.4902 -0.3163
  535MOL0     C73752   3.123   8.034   2.448 -1.0881 -0.2027 -0.0699
  535MOL0     C73753   2.960   8.018   2.455  0.0088  0.5576 -0.2511
  535MOL0     C73754   2.902   8.009   2.307 -0.9508 -0.1177  0.3719
  535MOL0     C73755   2.959   7.882   2.240  0.9518 -0.2264  0.1616
  535MOL0     C73756   2.890   7.859   2.111  0.6347  0.3058 -0.7721
  535MOL0     C73757   2.822   7.846   2.010 -0.5117 -0.4483  0.1942
  535MOL0     C73758   3.250   8.062   2.758  0.7157 -0.1265  0.1051
  535MOL0     C73759   3.361   8.032   2.838  0.6120  1.1332 -0.0953
  535MOL0     C73760   3.333   8.011   2.990  0.0294 -0.6461 -0.1514
  535MOL0     H73761   3.781   7.611   2.775 -1.1929 -1.0565  1.8950
  535MOL0     H73762   4.004   7.553   2.784 -1.9058 -1.2662  0.7239
  535MOL0     H73763   4.226   7.772   3.101  0.5046  1.7451 -0.0693
  535MOL0     H73764   4.342   7.831   2.980 -1.6922  2.0201  1.9708
  535MOL0     H73765   4.439   7.607   2.965  2.7069 -2.3631  1.3374
  535MOL0     H73766   4.450   7.679   3.122  3.2763 -2.4410 -1.1498
  535MOL0     H73767   4.213   7.527   3.154  0.1785 -2.8108  0.7111
  535MOL0     H73768   4.310   7.426   3.050  0.2406 -1.1989  1.7617
  535MOL0     H73769   4.487   7.460   3.230  0.7133 -0.7250 -0.1733
  535MOL0     H73770   4.360   7.533   3.334  0.5274  2.6734 -2.2150
  535MOL0     H73771   4.331   7.267   3.207  3.5550  1.9322 -2.1485
  535MOL0     H73772   4.238   7.333   3.343 -0.8303  0.8849 -1.1392
  535MOL0     H73773   4.540   7.268   3.329  1.3145 -3.8876  1.5367
  535MOL0     H73774   4.464   7.333   3.471 -4.6435  0.7407  0.6261
  535MOL0     H73775   4.386   7.043   3.366  0.9407 -3.6075  1.3355
  535MOL0     H73776   4.356   7.123   3.530  1.6693  0.0579  0.7360
  535MOL0     H73777   4.620   7.135   3.532  1.9328 -2.2510  2.6007
  535MOL0     H73778   4.534   6.997   3.580 -1.5789 -0.2961 -1.6869
  535MOL0     H73779   4.745   7.161   3.311 -0.4496 -0.0512  2.3184
  535MOL0     H73780   5.015   7.006   3.226  2.1831 -0.7894 -0.0152
  535MOL0     H73781   4.913   7.083   3.108 -2.1508 -0.0589  0.1174
  535MOL0     H73782   5.056   6.887   3.028  0.2926  0.1733  2.6126
  535MOL0     H73783   4.964   6.776   3.125  0.1169 -2.5044 -1.5267
  535MOL0     H73784   4.763   6.791   2.987 -0.6370  0.1583 -0.5284
  535MOL0     H73785   4.809   6.945   2.923 -0.6899 -0.1402 -1.1321
  535MOL0     H73786   4.841   6.744   2.758 -0.1088 -0.8147  1.1396
  535MOL0     H73787   5.003   6.809   2.794 -0.3554  0.1599 -2.1275
  535MOL0     H73788   4.906   6.582   2.638 -0.7905  1.5091  2.0292
  535MOL0     H73789   5.049   6.386   2.414 -1.8750 -0.6382 -2.1039
  535MOL0     H73790   4.890   6.456   2.460 -0.3976 -0.0129  0.7155
  535MOL0     H73791   4.921   6.282   2.469 -0.4062 -0.5365  3.6524
  535MOL0     H73792   5.394   6.103   2.763 -3.3233  0.5452  0.5114
  535MOL0     H73793   5.578   5.961   2.690  0.8425  0.5860 -3.7639
  535MOL0     H73794   5.677   5.861   2.495 -1.9662  0.4228 -0.2402
  535MOL0     H73795   5.721   5.751   2.636  2.2394  0.7999  0.2014
  535MOL0     H73796   5.857   5.684   2.445 -0.4695 -0.1268 -1.4041
  535MOL0     H73797   5.729   5.567   2.489  0.4771 -1.0026 -1.9937
  535MOL0     H73798   5.583   5.655   2.302  0.6085 -1.8968  0.6138
  535MOL0     H73799   5.737   5.570   2.254  0.6160 -1.6694  3.2726
  535MOL0     H73800   5.850   5.784   2.233  0.2188 -1.6622  0.5888
  535MOL0     H73801   5.695   5.866   2.261 -0.0739  0.0437 -0.1243
  535MOL0     H73802   5.602   5.785   2.060 -0.6746 -2.4856 -0.7670
  535MOL0     H73803   5.752   5.866   2.018  0.6063 -0.4332  0.8964
  535MOL0     H73804   5.743   5.673   1.882 -0.7919  1.9560  0.8536
  535MOL0     H73805   5.725   5.563   2.015  1.3491 -0.6315 -0.8668
  535MOL0     H73806   5.945   5.547   1.940  2.0157  0.3480 -0.2366
  535MOL0     H73807   5.950   5.595   2.095 -0.0022 -0.6593 -0.0805
  535MOL0     H73808   5.993   5.766   1.848  1.7037 -2.5917 -0.9067
  535MOL0     H73809   6.119   5.711   1.957  0.3525  0.2867 -2.2849
  535MOL0     H73810   5.303   5.669   2.539 -0.4656  1.1327 -2.1858
  535MOL0     H73811   5.113   5.818   2.602 -1.6228  2.2839  1.1145
  535MOL0     H73812   5.196   6.274   2.883 -0.7582 -0.8371 -1.6810
  535MOL0     H73813   5.083   6.459   3.006 -2.3451  1.1880  1.1489
  535MOL0     H73814   4.087   7.954   2.953 -1.4227  0.8976  0.2998
  535MOL0     H73815   3.871   8.019   2.899  0.0221 -0.5714  2.5204
  535MOL0     H73816   3.597   8.012   2.594  1.0436 -1.9939  2.1896
  535MOL0     H73817   3.416   8.054   2.459 -1.7985  0.7412  0.4807
  535MOL0     H73818   3.156   8.077   2.353 -3.4599  0.9702 -0.4566
  535MOL0     H73819   3.171   7.937   2.460 -1.1855 -0.0729  1.6790
  535MOL0     H73820   2.912   8.102   2.506 -0.8618 -0.1528  0.1334
  535MOL0     H73821   2.933   7.924   2.505  1.8027  0.0753 -0.1327
  535MOL0     H73822   2.794   8.008   2.320 -0.8347 -1.1697  1.4220
  535MOL0     H73823   2.923   8.096   2.244  0.8025  0.9586  2.2891
  535MOL0     H73824   2.950   7.793   2.303  1.4374 -2.0892 -2.2466
  535MOL0     H73825   3.067   7.892   2.230  1.2400 -0.9270  2.0814
  535MOL0     H73826   2.757   7.856   1.925  0.8636  3.8236 -0.6167
  535MOL0     H73827   3.149   8.077   2.796  0.6967 -0.7317  0.3071
  535MOL0     H73828   3.349   8.106   3.042 -0.4082 -0.2402 -0.7462
  535MOL0     H73829   3.232   7.977   3.015 -0.5387  1.5679  0.7703
  535MOL0     H73830   3.403   7.938   3.032 -0.5760 -1.0455  0.1866
  536MOL0     O73831   4.347   5.659   1.892 -0.5782 -0.0591  0.1931
  536MOL0     C73832   4.438   5.572   1.895  0.1540 -0.6966  0.3909
  536MOL0     O73833   4.496   5.529   2.016 -0.4460 -0.2190  0.1228
  536MOL0     C73834   4.421   5.562   2.129 -0.0200 -0.3724 -0.1407
  536MOL0     C73835   4.297   5.508   2.164  0.3842  0.1150 -0.2584
  536MOL0     C73836   4.230   5.541   2.275 -0.4756  0.2991 -1.2393
  536MOL0     C73837   4.284   5.636   2.365  0.4534  0.3366 -0.8244
  536MOL0     O73838   4.226   5.676   2.480  0.3424  0.2488  0.6845
  536MOL0     C73839   4.125   5.600   2.542 -0.3649  0.0320 -0.5278
  536MOL0     C73840   4.184   5.541   2.677 -0.6763  0.3261  0.1608
  536MOL0     C73841   4.293   5.440   2.650 -0.1061  0.0951 -0.5579
  536MOL0     C73842   4.315   5.347   2.779 -0.4715  0.5419 -0.3106
  536MOL0     C73843   4.427   5.240   2.757 -0.5693  0.0481 -0.3831
  536MOL0     C73844   4.558   5.319   2.745  0.3545  0.5863 -0.8083
  536MOL0     C73845   4.667   5.219   2.797 -0.1315 -0.9257 -0.3127
  536MOL0     C73846   4.810   5.289   2.792 -0.3301 -1.1437  0.4988
  536MOL0     N73847   4.924   5.199   2.812  0.4751  0.9537 -0.3660
  536MOL0     C73848   5.054   5.242   2.806  0.3073 -0.0231 -0.0304
  536MOL0     C73849   5.126   5.143   2.851  0.6064 -0.1030  0.2490
  536MOL0     C73850   5.281   5.149   2.871  0.6225  0.3283 -0.0299
  536MOL0     C73851   5.320   5.098   3.010  0.1043  0.0153 -0.0147
  536MOL0     C73852   5.463   5.095   3.030 -0.2946  0.6885  0.2269
  536MOL0     C73853   5.511   5.015   3.155  0.4983 -0.8520  0.3118
  536MOL0     O73854   5.648   5.049   3.176  0.3341 -0.3966 -0.4136
  536MOL0     C73855   5.700   5.045   3.300 -0.2076  0.5865 -0.1127
  536MOL0     C73856   5.656   4.945   3.393  0.3953 -0.5129 -0.4075
  536MOL0     C73857   5.722   4.928   3.512 -0.0801 -0.2327 -1.0403
  536MOL0     C73858   5.677   4.810   3.593 -1.2119 -0.4404  0.2354
  536MOL0     C73859   5.846   5.006   3.537  0.0006  0.7295 -0.3755
  536MOL0     C73860   5.937   4.992   3.660  0.2230  0.8052  0.2303
  536MOL0     O73861   6.032   5.079   3.669  0.2415 -0.2336 -0.1580
  536MOL0     C73862   6.113   5.082   3.776  0.1133  1.3260  0.2102
  536MOL0     C73863   6.080   5.089   3.908  0.3489  0.5447  0.3298
  536MOL0     C73864   6.176   5.096   4.007 -0.2679  0.5531 -0.0341
  536MOL0     C73865   6.310   5.085   3.972 -0.7814 -0.1752  0.5821
  536MOL0     O73866   6.403   5.084   4.074 -0.2014 -0.1263 -0.4478
  536MOL0     C73867   6.403   4.953   4.139  0.3462  0.9951  0.4206
  536MOL0     C73868   6.526   4.935   4.226 -1.0803 -0.2794  0.2856
  536MOL0     C73869   6.510   5.006   4.362 -0.9953 -0.2162 -0.7823
  536MOL0     C73870   6.609   4.951   4.465 -0.6622 -0.4396  0.1489
  536MOL0     C73871   6.572   4.998   4.614  0.1928 -0.6350 -0.6292
  536MOL0     C73872   6.598   5.150   4.640 -0.3265  0.4872  0.5902
  536MOL0     C73873   6.496   5.252   4.581 -0.2603  0.4683  0.1131
  536MOL0     C73874   6.352   5.219   4.606 -0.0637 -0.4058 -0.2561
  536MOL0    Cl73875   6.268   5.375   4.570  0.2469 -0.6700  0.2628
  536MOL0     C73876   6.349   5.066   3.836  0.2928  0.1850  0.6094
  536MOL0     C73877   6.247   5.062   3.743 -0.8838 -1.5102 -0.0799
  536MOL0     O73878   5.910   4.910   3.748 -0.3416 -0.8395 -0.0027
  536MOL0     C73879   5.875   5.106   3.445 -0.2877 -0.4814 -0.7684
  536MOL0     C73880   5.807   5.124   3.321 -0.5376 -0.0290 -0.5108
  536MOL0     N73881   5.042   5.037   2.875  0.2461  0.3905  0.5569
  536MOL0     N73882   4.921   5.068   2.854  0.7186 -0.2826  0.1021
  536MOL0     C73883   4.399   5.705   2.328  1.7671 -0.8443  0.0622
  536MOL0     C73884   4.467   5.672   2.210  0.2935  0.6393  0.7167
  536MOL0     C73885   4.470   5.513   1.769 -0.9667 -0.4046 -0.9033
  536MOL0     C73886   4.454   5.601   1.660 -0.4143 -0.3864  0.1458
  536MOL0     C73887   4.470   5.552   1.530  0.6626 -0.4728 -0.5553
  536MOL0     C73888   4.517   5.422   1.510  0.4860 -0.4311 -0.5443
  536MOL0     O73889   4.517   5.385   1.382  0.4689  0.7340  0.7773
  536MOL0     C73890   4.567   5.254   1.344 -0.5392 -0.0469  1.1906
  536MOL0     C73891   4.717   5.248   1.369  0.0732 -0.9728 -0.0206
  536MOL0     C73892   4.770   5.116   1.325  0.0538 -0.1513  0.3807
  536MOL0     C73893   4.925   5.122   1.333 -0.0820 -0.5512  0.4090
  536MOL0     C73894   4.990   5.198   1.228  0.4014 -0.2803  0.8040
  536MOL0     C73895   5.066   5.285   1.174  0.8090 -0.4792 -0.1440
  536MOL0     C73896   4.523   5.337   1.619 -0.2568 -0.3988 -0.1113
  536MOL0     C73897   4.519   5.380   1.754 -0.6614 -1.1723 -0.0560
  536MOL0     C73898   4.519   5.273   1.861  1.0288  0.0063  0.3358
  536MOL0     H73899   4.253   5.441   2.090  2.9911 -1.3277 -0.6124
  536MOL0     H73900   4.130   5.503   2.290  0.3312 -1.3968  0.3231
  536MOL0     H73901   4.075   5.526   2.478 -0.7315 -1.3268  1.2637
  536MOL0     H73902   4.048   5.673   2.572 -1.7138 -2.2111  1.8954
  536MOL0     H73903   4.225   5.626   2.732  0.6063  0.1482 -0.4786
  536MOL0     H73904   4.100   5.506   2.738  0.5444 -1.5767  0.8643
  536MOL0     H73905   4.274   5.374   2.564 -0.5709 -0.8144  0.2196
  536MOL0     H73906   4.383   5.502   2.643 -0.7631  1.2237  0.5638
  536MOL0     H73907   4.334   5.405   2.869 -1.2232 -0.3950  0.4766
  536MOL0     H73908   4.219   5.295   2.787  0.5339 -1.5705 -1.2354
  536MOL0     H73909   4.408   5.179   2.668 -0.8996 -1.6395  0.7837
  536MOL0     H73910   4.422   5.182   2.850 -0.7281  0.9954  0.2083
  536MOL0     H73911   4.558   5.346   2.639  2.0390  0.0861 -0.9682
  536MOL0     H73912   4.564   5.409   2.808 -0.7415 -0.3527  0.6928
  536MOL0     H73913   4.663   5.121   2.747  0.2147 -1.1900  0.1718
  536MOL0     H73914   4.648   5.206   2.904  2.2407  1.6576  0.5301
  536MOL0     H73915   4.813   5.346   2.698  1.1621 -1.0055  0.5976
  536MOL0     H73916   4.819   5.372   2.863 -2.0241  0.0527 -0.6026
  536MOL0     H73917   5.084   5.343   2.779  2.0379 -0.9227 -1.7357
  536MOL0     H73918   5.315   5.252   2.858  0.9314  0.1127 -0.9803
  536MOL0     H73919   5.325   5.077   2.802 -0.3274  0.4865 -0.8139
  536MOL0     H73920   5.283   5.163   3.089 -0.2440 -1.2794  0.9189
  536MOL0     H73921   5.277   4.998   3.021  0.8249 -0.3692 -0.5678
  536MOL0     H73922   5.507   5.047   2.942 -1.0405  2.7564 -1.3372
  536MOL0     H73923   5.508   5.195   3.031 -1.5636  1.3281 -1.7169
  536MOL0     H73924   5.451   5.043   3.242  1.6604  0.6652  0.6681
  536MOL0     H73925   5.491   4.908   3.143 -0.6612 -0.9353  2.5360
  536MOL0     H73926   5.576   4.875   3.368 -2.4812  1.6785  2.0217
  536MOL0     H73927   5.595   4.756   3.544 -0.8207 -1.5380  0.7517
  536MOL0     H73928   5.656   4.828   3.699  1.1021 -1.6922  0.9987
  536MOL0     H73929   5.763   4.744   3.579 -0.8043  0.0591  0.3906
  536MOL0     H73930   5.977   5.079   3.941  0.0534 -1.4803 -1.0485
  536MOL0     H73931   6.155   5.092   4.113 -0.3730 -1.9772 -0.0739
  536MOL0     H73932   6.310   4.942   4.196  0.1706  1.9504  0.3464
  536MOL0     H73933   6.401   4.879   4.059 -1.3833 -0.2327  1.5192
  536MOL0     H73934   6.553   4.829   4.230 -0.7292 -0.2533 -1.1020
  536MOL0     H73935   6.606   4.973   4.162 -2.1394  3.0307  0.7356
  536MOL0     H73936   6.414   4.988   4.411  0.7343 -0.8471  2.6893
  536MOL0     H73937   6.521   5.114   4.348 -2.4411  0.6990  3.4223
  536MOL0     H73938   6.711   4.977   4.436 -1.0507 -1.0651 -1.9231
  536MOL0     H73939   6.613   4.842   4.470  3.0385 -0.3759  1.4973
  536MOL0     H73940   6.470   4.970   4.644  0.0131  1.8019  1.3597
  536MOL0     H73941   6.639   4.941   4.680  1.2088  3.2065  1.9587
  536MOL0     H73942   6.696   5.179   4.603 -0.3595  0.5010  0.5115
  536MOL0     H73943   6.620   5.162   4.747  3.0733 -0.9585  0.1668
  536MOL0     H73944   6.513   5.265   4.474 -2.2194 -1.5610 -0.5175
  536MOL0     H73945   6.515   5.348   4.630 -0.6648  1.6824 -1.9931
  536MOL0     H73946   6.344   5.196   4.713  0.0356 -0.6815 -0.3051
  536MOL0     H73947   6.303   5.136   4.553  0.7235 -0.9988 -0.0821
  536MOL0     H73948   6.451   5.048   3.806  0.1076 -2.1207  1.2324
  536MOL0     H73949   6.283   5.056   3.640  2.5219 -0.0911  0.8692
  536MOL0     H73950   5.958   5.176   3.442 -1.9912  1.9034  2.0678
  536MOL0     H73951   5.842   5.198   3.250  0.6375  1.8189  1.8334
  536MOL0     H73952   4.441   5.771   2.403 -2.0761  3.7461 -1.3256
  536MOL0     H73953   4.566   5.710   2.186  0.0926  1.7451  1.5840
  536MOL0     H73954   4.414   5.701   1.670  1.5008  0.3962  0.4372
  536MOL0     H73955   4.449   5.618   1.447  0.0694 -1.7806 -1.4754
  536MOL0     H73956   4.505   5.171   1.379 -4.2570  0.5189 -3.1531
  536MOL0     H73957   4.555   5.251   1.235 -0.2252  2.3966  1.0453
  536MOL0     H73958   4.741   5.262   1.475  1.0859 -1.9457 -0.1009
  536MOL0     H73959   4.763   5.324   1.306 -2.4653  1.8765  1.3560
  536MOL0     H73960   4.738   5.033   1.388 -1.3073  0.3388  0.3796
  536MOL0     H73961   4.742   5.094   1.221  4.5831  0.7499 -1.2860
  536MOL0     H73962   4.971   5.023   1.333  2.6171  0.5341  3.0516
  536MOL0     H73963   4.960   5.176   1.422  2.9604  4.8167 -3.4164
  536MOL0     H73964   5.131   5.358   1.131  1.8654 -1.8867 -0.9899
  536MOL0     H73965   4.545   5.233   1.598  1.9476 -1.0675  4.1800
  536MOL0     H73966   4.418   5.281   1.904  1.4784  1.0810  1.2342
  536MOL0     H73967   4.534   5.182   1.803  0.5386  0.7420 -0.9848
  536MOL0     H73968   4.594   5.276   1.940  1.0973 -1.2091  0.3276
  537MOL0     O73969   6.977   6.361  10.242 -0.5715 -0.2288 -0.2780
  537MOL0     C73970   6.992   6.264  10.310  0.1779  0.5591 -0.9244
  537MOL0     O73971   7.105   6.218  10.373  0.3160 -0.9467  0.2710
  537MOL0     C73972   7.217   6.274  10.315  0.2999 -0.5531 -0.0165
  537MOL0     C73973   7.282   6.391  10.366  0.2921  0.3685 -0.0794
  537MOL0     C73974   7.408   6.427  10.325 -0.3697 -0.1494  0.2521
  537MOL0     C73975   7.485   6.348  10.243 -0.1457 -0.8715 -0.2795
  537MOL0     O73976   7.615   6.373  10.204 -0.0253  0.9067  0.0550
  537MOL0     C73977   7.674   6.500  10.233 -0.5816  0.2533 -0.5678
  537MOL0     C73978   7.822   6.478  10.200  0.5014  0.6147 -0.3294
  537MOL0     C73979   7.904   6.384  10.288  0.4567 -0.7314  0.2681
  537MOL0     C73980   7.902   6.423  10.435  0.1745 -0.1550 -0.3809
  537MOL0     C73981   7.999   6.341  10.517  0.3810  0.0964 -0.5809
  537MOL0     C73982   7.977   6.377  10.676  0.2033 -0.1942 -1.0461
  537MOL0     C73983   8.051   6.250  10.748 -0.3921  0.0425 -1.4086
  537MOL0     C73984   8.020   6.237  10.901 -0.7698 -0.4556 -0.2771
  537MOL0     N73985   8.047   6.360  10.973  0.3429 -0.3812 -0.0896
  537MOL0     C73986   7.951   6.439  11.032 -0.7011 -0.6811  0.1322
  537MOL0     C73987   8.014   6.556  11.059  0.2410 -0.4375 -0.3050
  537MOL0     C73988   7.943   6.687  11.082  0.9115  0.9612 -1.2145
  537MOL0     C73989   7.818   6.682  11.174  0.7362 -0.1970  0.0778
  537MOL0     C73990   7.682   6.728  11.097 -0.1087  0.2064  0.1838
  537MOL0     C73991   7.549   6.715  11.175 -0.1154  0.2606  0.2928
  537MOL0     O73992   7.548   6.632  11.290  0.6125  1.0820 -0.9994
  537MOL0     C73993   7.426   6.594  11.335 -0.9044 -0.4857 -0.2889
  537MOL0     C73994   7.413   6.468  11.394 -0.4182 -0.2723  0.2542
  537MOL0     C73995   7.287   6.428  11.432 -0.3344  0.9557 -1.2338
  537MOL0     C73996   7.281   6.284  11.499 -0.3535  0.3651  0.0911
  537MOL0     C73997   7.176   6.519  11.424 -0.0865  0.2490  0.1749
  537MOL0     C73998   7.041   6.484  11.470  0.9391 -0.4224  0.5654
  537MOL0     O73999   6.940   6.572  11.427  0.0075  1.3639  0.4519
  537MOL0     C74000   6.812   6.538  11.471 -0.2487  0.2873  0.0294
  537MOL0     C74001   6.768   6.575  11.601  0.1100 -0.9480  0.1587
  537MOL0     C74002   6.641   6.530  11.648  0.0030 -0.9899  1.3017
  537MOL0     C74003   6.556   6.464  11.557 -0.0585  0.1712 -0.0553
  537MOL0     O74004   6.432   6.429  11.600 -0.5031  0.6842  0.1676
  537MOL0     C74005   6.373   6.312  11.550 -0.4531 -0.0001 -0.1903
  537MOL0     C74006   6.257   6.259  11.640 -0.8510 -0.6495 -0.4379
  537MOL0     C74007   6.133   6.334  11.590  0.2938  0.2185  0.4075
  537MOL0     C74008   6.011   6.319  11.693  0.1307 -0.9416 -1.1266
  537MOL0     C74009   5.876   6.370  11.637  0.4757  0.3424  0.1316
  537MOL0     C74010   5.768   6.396  11.743 -0.7427  0.4264  0.9669
  537MOL0     C74011   5.723   6.272  11.819 -0.1418  1.1846  0.7705
  537MOL0     C74012   5.657   6.171  11.715  0.0083 -0.0424 -0.7130
  537MOL0    Cl74013   5.576   6.038  11.815 -0.3031 -0.3602 -0.0715
  537MOL0     C74014   6.596   6.429  11.427  1.0723  0.2673  0.7550
  537MOL0     C74015   6.727   6.463  11.383 -0.1896  0.0059  0.0795
  537MOL0     O74016   7.019   6.387  11.538  0.1263  0.0258 -0.0579
  537MOL0     C74017   7.196   6.645  11.361 -0.2367  0.7131  0.7022
  537MOL0     C74018   7.322   6.686  11.330 -1.1002 -0.3152  0.6048
  537MOL0     N74019   8.146   6.544  11.029 -0.8032 -0.1306  0.1374
  537MOL0     N74020   8.168   6.425  10.983  0.6272 -0.3430 -0.2291
  537MOL0     C74021   7.429   6.231  10.194 -0.1103 -0.0575 -0.1288
  537MOL0     C74022   7.293   6.192  10.227  0.3904  0.2159  0.4230
  537MOL0     C74023   6.864   6.186  10.338 -0.8785 -0.3039  0.6034
  537MOL0     C74024   6.755   6.257  10.386 -0.2548  1.0504 -0.1798
  537MOL0     C74025   6.634   6.190  10.412  1.1152  0.0917  0.3163
  537MOL0     C74026   6.627   6.050  10.403  1.1814  0.0514 -0.0184
  537MOL0     O74027   6.508   5.988  10.437  0.6758  0.6708  0.5662
  537MOL0     C74028   6.429   5.939  10.329 -0.6565  0.4426  0.1088
  537MOL0     C74029   6.343   6.057  10.270 -0.3519  0.5616  0.1470
  537MOL0     C74030   6.261   6.132  10.373  0.1413  0.6981 -1.2558
  537MOL0     C74031   6.118   6.175  10.329 -0.0444  0.4343 -1.0014
  537MOL0     C74032   6.042   6.250  10.436 -0.4711 -0.0356 -0.0737
  537MOL0     C74033   5.986   6.303  10.530  0.3236  0.7967 -0.5383
  537MOL0     C74034   6.739   5.976  10.367  0.6456  0.5203  0.1838
  537MOL0     C74035   6.856   6.049  10.330 -0.0316  0.4654  0.3048
  537MOL0     C74036   6.957   5.957  10.274 -0.0933 -0.6375  0.0621
  537MOL0     H74037   7.231   6.457  10.436  0.8372  0.8679 -0.1393
  537MOL0     H74038   7.455   6.519  10.358  1.0763  0.2183 -2.5086
  537MOL0     H74039   7.674   6.526  10.340 -0.4734 -0.4983 -0.3800
  537MOL0     H74040   7.623   6.584  10.185 -2.6663 -1.4038 -1.3720
  537MOL0     H74041   7.828   6.438  10.098  2.5484 -0.4818  0.1555
  537MOL0     H74042   7.865   6.578  10.191 -1.6021  1.3884 -2.7328
  537MOL0     H74043   7.875   6.280  10.269 -3.0543 -0.4386  3.0397
  537MOL0     H74044   8.005   6.398  10.250  0.8550  0.3642  1.6405
  537MOL0     H74045   7.932   6.525  10.457  3.5289 -1.1839  0.4654
  537MOL0     H74046   7.804   6.419  10.485  0.0469  0.7701 -0.5380
  537MOL0     H74047   8.102   6.344  10.481  1.0472 -3.1149  0.7252
  537MOL0     H74048   7.979   6.234  10.513  0.5973 -0.0888  1.7838
  537MOL0     H74049   8.032   6.467  10.705  0.4578 -0.2463 -1.3620
  537MOL0     H74050   7.872   6.390  10.704  0.0499  0.1168 -1.7578
  537MOL0     H74051   8.160   6.249  10.741 -0.2705 -3.4314 -0.7243
  537MOL0     H74052   8.023   6.160  10.693  2.3269 -0.6458 -1.8055
  537MOL0     H74053   7.914   6.208  10.902 -1.0621  0.4998  1.9746
  537MOL0     H74054   8.080   6.155  10.941 -0.7475 -0.2097  0.1976
  537MOL0     H74055   7.845   6.424  11.043 -0.7308  0.7285  2.3284
  537MOL0     H74056   7.920   6.739  10.989 -2.4851  1.6433 -0.1363
  537MOL0     H74057   8.017   6.742  11.142  0.6514  1.5230 -1.4032
  537MOL0     H74058   7.804   6.583  11.218 -0.8983  0.6004  1.4962
  537MOL0     H74059   7.831   6.739  11.267  0.0040  0.3962 -0.1668
  537MOL0     H74060   7.694   6.831  11.064  2.9682  0.0417  0.4654
  537MOL0     H74061   7.670   6.664  11.009 -1.0848 -0.0163  0.4743
  537MOL0     H74062   7.532   6.819  11.204  0.4449  0.5303 -0.3142
  537MOL0     H74063   7.466   6.684  11.111  0.8700 -2.3990  0.1969
  537MOL0     H74064   7.499   6.404  11.385  0.6569  1.3134 -1.7156
  537MOL0     H74065   7.205   6.224  11.447 -0.5458 -0.3414  1.1558
  537MOL0     H74066   7.265   6.289  11.607  0.8365 -0.7470  0.3505
  537MOL0     H74067   7.375   6.232  11.480 -0.5392  0.5741 -1.5182
  537MOL0     H74068   6.828   6.645  11.659 -0.1277  2.0154 -2.8389
  537MOL0     H74069   6.602   6.547  11.748  0.0919  0.9517  1.0472
  537MOL0     H74070   6.326   6.343  11.456 -1.1960  1.6358  0.6636
  537MOL0     H74071   6.433   6.227  11.519 -1.4187 -0.7467 -0.0676
  537MOL0     H74072   6.244   6.153  11.617  0.5473 -0.7879 -0.6671
  537MOL0     H74073   6.273   6.271  11.747  2.3857  1.7283 -1.0469
  537MOL0     H74074   6.097   6.281  11.502 -0.2181  0.0669  0.7039
  537MOL0     H74075   6.158   6.437  11.563 -1.6613  0.0173 -2.6641
  537MOL0     H74076   6.033   6.383  11.779 -0.8592 -1.6573 -0.3129
  537MOL0     H74077   6.015   6.219  11.736 -0.5688 -0.6558 -0.3570
  537MOL0     H74078   5.881   6.459  11.573 -0.0310  0.1598 -0.1667
  537MOL0     H74079   5.842   6.294  11.566  1.6455 -2.4722  2.4155
  537MOL0     H74080   5.685   6.434  11.683  1.5620 -0.1445 -2.8882
  537MOL0     H74081   5.808   6.466  11.817  0.8423 -0.4755  0.9817
  537MOL0     H74082   5.640   6.298  11.886  0.6797  0.4088  2.1325
  537MOL0     H74083   5.803   6.223  11.876 -0.8697 -1.0772 -0.0634
  537MOL0     H74084   5.733   6.124  11.653  0.2940  0.2710 -0.6028
  537MOL0     H74085   5.580   6.219  11.655 -0.2401 -0.6145 -0.8580
  537MOL0     H74086   6.535   6.384  11.349  1.7613  3.6474 -2.0314
  537MOL0     H74087   6.770   6.446  11.285  2.1567  0.2872  0.9848
  537MOL0     H74088   7.119   6.720  11.341  1.1050  1.4582 -2.1498
  537MOL0     H74089   7.338   6.785  11.289 -2.3451 -0.3953 -0.1205
  537MOL0     H74090   7.492   6.155  10.149 -1.9095 -0.5485 -2.0164
  537MOL0     H74091   7.249   6.097  10.197 -2.7084  1.8605 -0.7175
  537MOL0     H74092   6.754   6.366  10.385 -2.4065  1.1060 -2.6472
  537MOL0     H74093   6.549   6.251  10.436 -0.6801 -1.4960 -1.6116
  537MOL0     H74094   6.481   5.893  10.244 -2.4998 -2.0985  0.2497
  537MOL0     H74095   6.360   5.862  10.365 -0.5339 -0.1191 -0.8202
  537MOL0     H74096   6.276   6.025  10.189  0.7976 -3.2313  0.4998
  537MOL0     H74097   6.413   6.133  10.232  1.7857 -2.2759 -2.0180
  537MOL0     H74098   6.256   6.064  10.458  0.2412  2.6309  0.3685
  537MOL0     H74099   6.314   6.221  10.407  0.1785 -0.0623  0.7732
  537MOL0     H74100   6.053   6.094  10.296  1.8189 -1.4819 -0.1479
  537MOL0     H74101   6.127   6.236  10.239 -2.5367  1.8058 -0.4316
  537MOL0     H74102   5.936   6.349  10.613 -1.8676 -0.6363 -0.9748
  537MOL0     H74103   6.728   5.868  10.361  1.4139  0.3445  1.4671
  537MOL0     H74104   6.924   5.854  10.261 -0.4742 -0.9990  3.1659
  537MOL0     H74105   6.975   5.995  10.173  0.7530  3.0127  1.4190
  537MOL0     H74106   7.051   5.950  10.330 -0.3407 -1.1664  0.4211
  538MOL0     O74107   8.580   3.785   2.799 -1.1135 -0.1589 -0.7804
  538MOL0     C74108   8.545   3.755   2.682 -0.3938 -0.0414 -0.7146
  538MOL0     O74109   8.419   3.768   2.638  0.2030 -0.4059 -0.6883
  538MOL0     C74110   8.324   3.836   2.706  0.1639  0.2957 -0.8139
  538MOL0     C74111   8.196   3.804   2.658  0.2120  0.2457  0.3216
  538MOL0     C74112   8.075   3.852   2.714  0.0464 -0.3225  0.0484
  538MOL0     C74113   8.083   3.948   2.816 -0.1012 -0.1684  0.0176
  538MOL0     O74114   7.965   3.993   2.869  0.6354 -0.2050  0.2942
  538MOL0     C74115   7.901   3.919   2.973 -0.3957  0.0310  0.9373
  538MOL0     C74116   7.875   3.991   3.101 -0.4271 -0.5177  0.1480
  538MOL0     C74117   8.000   4.046   3.169 -1.5881 -0.2667 -0.4662
  538MOL0     C74118   8.109   3.949   3.226 -0.0324 -0.6530 -0.4381
  538MOL0     C74119   8.196   4.034   3.321 -0.2030  0.5577  0.5186
  538MOL0     C74120   8.259   4.167   3.277  0.6621  0.4224 -0.4401
  538MOL0     C74121   8.383   4.202   3.361  0.6426 -0.2525 -0.6810
  538MOL0     C74122   8.525   4.148   3.318 -0.2796  0.0950  0.3946
  538MOL0     N74123   8.575   4.192   3.192  0.2750 -0.0463  1.0129
  538MOL0     C74124   8.546   4.134   3.068  0.1795  0.8475  1.0037
  538MOL0     C74125   8.606   4.206   2.973  1.1435 -0.3043  1.6078
  538MOL0     C74126   8.614   4.171   2.829  0.0485  0.3201  0.7402
  538MOL0     C74127   8.754   4.111   2.802  0.0383 -0.7909 -0.2686
  538MOL0     C74128   8.782   4.119   2.647  0.6016  0.4686 -0.1921
  538MOL0     C74129   8.871   4.235   2.607 -0.8378  0.1343  0.2025
  538MOL0     O74130   8.996   4.217   2.682 -0.4682  1.1847 -0.2118
  538MOL0     C74131   9.066   4.326   2.712 -0.2372 -0.6591 -0.0815
  538MOL0     C74132   9.143   4.310   2.834 -0.2152  0.2284  0.9131
  538MOL0     C74133   9.229   4.414   2.869  0.0773 -0.6177 -0.9102
  538MOL0     C74134   9.294   4.402   3.003  0.1315  0.0819  0.7145
  538MOL0     C74135   9.248   4.523   2.786  0.1036  0.2525 -0.0007
  538MOL0     C74136   9.340   4.638   2.825 -0.5051  0.3729  0.5541
  538MOL0     O74137   9.327   4.754   2.756 -0.2729  0.3078  0.9175
  538MOL0     C74138   9.428   4.845   2.763 -0.1244  0.0551 -0.0386
  538MOL0     C74139   9.550   4.822   2.706 -0.4145  0.1385  0.0174
  538MOL0     C74140   9.653   4.921   2.712  0.6086 -0.4106 -0.3052
  538MOL0     C74141   9.633   5.046   2.774 -0.0471  0.1135  0.2243
  538MOL0     O74142   9.720   5.157   2.786  0.1227  0.7381  0.4376
  538MOL0     C74143   9.843   5.154   2.709  0.4095 -0.4587  0.3591
  538MOL0     C74144   9.906   5.289   2.681 -0.0794  0.2852 -0.0799
  538MOL0     C74145  10.009   5.278   2.565  0.0300  0.8017 -0.1262
  538MOL0     C74146  10.111   5.392   2.572  0.6040 -0.4421  0.4640
  538MOL0     C74147  10.231   5.374   2.476  0.4945  0.0585  0.3239
  538MOL0     C74148  10.295   5.507   2.457  0.0465  0.3194 -0.7643
  538MOL0     C74149  10.412   5.516   2.352  0.5231 -0.9530 -0.4262
  538MOL0     C74150  10.399   5.645   2.277 -0.8365 -0.5203 -0.0550
  538MOL0    Cl74151  10.454   5.782   2.379 -0.4659  0.2861 -0.2630
  538MOL0     C74152   9.499   5.059   2.829 -0.0130  0.4023 -0.4144
  538MOL0     C74153   9.391   4.964   2.823 -0.1277 -0.2141  0.2145
  538MOL0     O74154   9.423   4.624   2.920  0.0211  0.1893  0.0549
  538MOL0     C74155   9.167   4.536   2.672 -0.2458 -0.7183 -0.7264
  538MOL0     C74156   9.068   4.440   2.640 -0.7894  0.2510 -0.2029
  538MOL0     N74157   8.660   4.309   3.039  0.4020 -0.6105  0.4240
  538MOL0     N74158   8.639   4.306   3.162  0.3059  0.2515  0.3892
  538MOL0     C74159   8.209   3.984   2.861  0.1086 -0.3072  0.1389
  538MOL0     C74160   8.330   3.930   2.814 -0.3955 -0.3461 -0.4098
  538MOL0     C74161   8.635   3.661   2.611  1.4841  0.3112 -0.5906
  538MOL0     C74162   8.710   3.554   2.680  1.4060 -0.3458  0.7971
  538MOL0     C74163   8.796   3.480   2.604  0.0482 -0.3822 -0.5423
  538MOL0     C74164   8.818   3.490   2.474 -0.2846  0.0737 -0.0232
  538MOL0     O74165   8.892   3.409   2.397 -0.1028  0.1588 -0.3240
  538MOL0     C74166   8.864   3.263   2.416 -0.1322 -1.0153  0.7584
  538MOL0     C74167   8.919   3.193   2.291 -0.0770  0.2480 -0.3189
  538MOL0     C74168   8.962   3.050   2.329 -0.1995  0.1654 -0.0176
  538MOL0     C74169   9.034   2.975   2.219  0.5350 -0.5755  0.3902
  538MOL0     C74170   9.051   2.841   2.274 -0.4642 -0.1852  1.3838
  538MOL0     C74171   9.081   2.740   2.342  0.5193 -1.1822  0.6685
  538MOL0     C74172   8.747   3.597   2.411 -0.0277  1.1699  0.4420
  538MOL0     C74173   8.652   3.685   2.467 -0.2210  0.4836  0.4972
  538MOL0     C74174   8.593   3.791   2.373 -0.1858  0.1833  0.0472
  538MOL0     H74175   8.189   3.727   2.581  0.9907 -1.7160  2.1162
  538MOL0     H74176   7.979   3.821   2.673 -0.2386 -0.3178  0.7059
  538MOL0     H74177   7.956   3.826   2.990  0.2594  0.7662  3.2703
  538MOL0     H74178   7.802   3.885   2.942  0.5090 -0.0803 -2.0553
  538MOL0     H74179   7.820   4.079   3.065  0.0449  0.0734  0.8266
  538MOL0     H74180   7.808   3.930   3.162  0.3211 -0.8293  0.6642
  538MOL0     H74181   8.042   4.112   3.093 -4.1984  0.4766 -1.3805
  538MOL0     H74182   7.953   4.108   3.245 -2.4930  0.1207 -1.3211
  538MOL0     H74183   8.054   3.869   3.279 -0.0763  0.2954  1.0144
  538MOL0     H74184   8.176   3.910   3.150  1.5057 -1.6761  1.3483
  538MOL0     H74185   8.283   3.973   3.345 -1.3423 -2.0576 -1.5561
  538MOL0     H74186   8.140   4.047   3.414 -0.3093 -0.6943  0.6422
  538MOL0     H74187   8.287   4.156   3.171 -2.0484 -1.7654 -1.0468
  538MOL0     H74188   8.189   4.247   3.299 -0.3946 -0.9786  1.5430
  538MOL0     H74189   8.351   4.169   3.460 -1.8611  2.4368 -0.4459
  538MOL0     H74190   8.380   4.311   3.367  1.5444 -0.1352 -1.9326
  538MOL0     H74191   8.596   4.187   3.391 -0.3029 -0.8757  0.9499
  538MOL0     H74192   8.522   4.038   3.321 -0.3990 -0.0250 -1.9410
  538MOL0     H74193   8.488   4.046   3.043  1.5006  0.8087 -2.4830
  538MOL0     H74194   8.616   4.265   2.772 -3.6014 -2.1348 -4.2697
  538MOL0     H74195   8.540   4.099   2.792 -0.3857  1.3817 -0.5297
  538MOL0     H74196   8.836   4.167   2.847 -0.9775  1.6430 -1.2776
  538MOL0     H74197   8.753   4.005   2.829  1.6947 -1.1978 -1.6498
  538MOL0     H74198   8.847   4.036   2.617  1.8677  1.7110 -1.0559
  538MOL0     H74199   8.692   4.125   2.586  0.3489 -1.2697 -0.0349
  538MOL0     H74200   8.895   4.238   2.501 -2.2688  1.6918 -0.1131
  538MOL0     H74201   8.822   4.328   2.636  2.2502  1.5087  1.4137
  538MOL0     H74202   9.125   4.226   2.900  0.7394 -0.3853  0.4214
  538MOL0     H74203   9.249   4.326   3.068  3.3693 -3.4218 -0.7589
  538MOL0     H74204   9.285   4.500   3.050 -0.1660  0.6606 -0.5119
  538MOL0     H74205   9.397   4.376   2.977  1.1811  2.0418  2.6051
  538MOL0     H74206   9.553   4.736   2.640  1.0730 -0.2130  0.5106
  538MOL0     H74207   9.746   4.898   2.662  2.9138  3.7965  1.5870
  538MOL0     H74208   9.918   5.085   2.749 -0.1831 -0.5907  1.2688
  538MOL0     H74209   9.812   5.122   2.608  2.3354  1.9655 -1.1124
  538MOL0     H74210   9.841   5.375   2.662  1.8415  1.3673 -2.2158
  538MOL0     H74211   9.951   5.322   2.775 -0.7409 -0.7079  0.6000
  538MOL0     H74212   9.959   5.292   2.469  0.4516  2.7524 -0.1000
  538MOL0     H74213  10.056   5.180   2.570 -0.4016  0.5814 -0.3729
  538MOL0     H74214  10.147   5.409   2.674  1.3299  3.4937 -0.2921
  538MOL0     H74215  10.045   5.473   2.541 -1.9708 -2.9035 -1.0245
  538MOL0     H74216  10.313   5.325   2.529  0.8535 -0.7987 -0.9761
  538MOL0     H74217  10.208   5.323   2.382  3.7659  0.7618 -0.9931
  538MOL0     H74218  10.326   5.559   2.549 -0.9285 -1.8631  0.8761
  538MOL0     H74219  10.210   5.566   2.423 -2.0730  0.6058  4.1637
  538MOL0     H74220  10.400   5.437   2.277 -0.0181  0.2071 -1.6108
  538MOL0     H74221  10.505   5.507   2.408 -0.2586  0.1721  1.1670
  538MOL0     H74222  10.300   5.669   2.238 -0.6488  0.7326  0.2010
  538MOL0     H74223  10.469   5.643   2.193 -0.2603 -0.3681  0.4139
  538MOL0     H74224   9.481   5.147   2.890  2.3915 -0.0381  1.0382
  538MOL0     H74225   9.295   5.002   2.858 -0.5465  0.0370 -1.1523
  538MOL0     H74226   9.168   4.629   2.617 -0.2951  1.1912  2.2964
  538MOL0     H74227   9.009   4.465   2.552  0.2410  0.5961 -0.8148
  538MOL0     H74228   8.209   4.061   2.937 -1.9630  0.7518 -0.8680
  538MOL0     H74229   8.416   3.955   2.876 -0.1386 -2.9569  0.4234
  538MOL0     H74230   8.708   3.530   2.786  1.5379 -3.4174  0.1834
  538MOL0     H74231   8.835   3.395   2.659  4.0821  1.5935 -0.0283
  538MOL0     H74232   8.908   3.238   2.513  1.5906  1.7322  0.7959
  538MOL0     H74233   8.756   3.249   2.423 -0.6120  1.0332 -1.2496
  538MOL0     H74234   9.005   3.247   2.250 -0.2209  0.6014 -0.1579
  538MOL0     H74235   8.844   3.183   2.212 -0.6314  2.4900 -0.1489
  538MOL0     H74236   9.045   3.074   2.396  1.0386  1.4459 -1.9237
  538MOL0     H74237   8.879   2.998   2.377 -2.6958  2.4051 -1.6577
  538MOL0     H74238   9.127   3.030   2.202  0.5552 -0.7010  0.0868
  538MOL0     H74239   8.967   2.964   2.133 -0.9590  0.2039  1.4042
  538MOL0     H74240   9.110   2.659   2.405  2.4928  0.4634  1.9919
  538MOL0     H74241   8.761   3.611   2.304 -0.4232  0.2635  0.2662
  538MOL0     H74242   8.632   3.885   2.416 -3.8073  0.6222  2.8535
  538MOL0     H74243   8.628   3.771   2.272 -0.1886  1.0715 -0.1409
  538MOL0     H74244   8.484   3.796   2.378 -0.2181 -0.2295 -0.2336
  539MOL0     O74245   6.603   5.567   8.702  0.3720 -0.1989  0.7035
  539MOL0     C74246   6.558   5.654   8.624 -0.7089  0.1763  0.3574
  539MOL0     O74247   6.437   5.646   8.556 -0.1591 -0.3220  0.4017
  539MOL0     C74248   6.353   5.542   8.568 -0.1342 -0.2159  0.4576
  539MOL0     C74249   6.397   5.413   8.542 -0.5228  0.6321  0.2583
  539MOL0     C74250   6.304   5.309   8.539 -0.5139 -0.0249  0.5633
  539MOL0     C74251   6.167   5.339   8.541 -0.1571  0.0260 -0.2532
  539MOL0     O74252   6.080   5.228   8.555 -0.7172 -0.4173  0.8229
  539MOL0     C74253   6.099   5.141   8.670  0.3633  0.7322  0.2164
  539MOL0     C74254   5.999   5.027   8.658 -1.0028 -0.3781  0.1882
  539MOL0     C74255   6.041   4.923   8.760 -0.9034 -0.0132 -0.0271
  539MOL0     C74256   5.926   4.827   8.811  0.6891 -1.6652  0.0099
  539MOL0     C74257   5.994   4.723   8.894 -0.4753 -0.1411  0.0538
  539MOL0     C74258   5.908   4.622   8.954  0.4290  0.4063  0.9781
  539MOL0     C74259   5.810   4.653   9.053 -0.1998 -0.0896 -0.4036
  539MOL0     C74260   5.864   4.707   9.179  0.2460 -1.0858 -0.8019
  539MOL0     N74261   5.875   4.853   9.172 -1.0195 -0.2080 -0.6610
  539MOL0     C74262   5.987   4.918   9.216 -0.5887  0.4283  0.8141
  539MOL0     C74263   5.960   5.049   9.179  0.4970 -0.4261 -0.9096
  539MOL0     C74264   6.049   5.168   9.204  0.0628 -0.4999  0.6505
  539MOL0     C74265   6.073   5.210   9.348 -0.2386  0.5821 -0.4715
  539MOL0     C74266   6.188   5.316   9.345  0.3541  0.0255  0.4136
  539MOL0     C74267   6.234   5.341   9.487 -0.0407 -0.4689 -0.8352
  539MOL0     O74268   6.279   5.217   9.556 -0.1009 -0.4102  0.9737
  539MOL0     C74269   6.389   5.147   9.504 -0.3304  0.4832  0.0832
  539MOL0     C74270   6.413   5.028   9.570  0.2226 -0.3251  0.1061
  539MOL0     C74271   6.531   4.947   9.564 -0.7397 -0.2746  0.2190
  539MOL0     C74272   6.538   4.819   9.647  0.1357 -0.0108  0.3200
  539MOL0     C74273   6.626   4.977   9.463  0.5301 -0.6195 -0.0497
  539MOL0     C74274   6.755   4.904   9.448  0.4939 -0.3282  0.5609
  539MOL0     O74275   6.839   4.954   9.348 -0.1088  0.7363 -0.0778
  539MOL0     C74276   6.963   4.898   9.317  1.2222  0.5950 -1.1231
  539MOL0     C74277   7.025   4.782   9.371  0.0666 -0.1096  0.2579
  539MOL0     C74278   7.150   4.743   9.332  0.3627  1.3455 -0.5198
  539MOL0     C74279   7.225   4.801   9.226  0.9749  0.4589  0.0485
  539MOL0     O74280   7.343   4.766   9.178 -0.0675  0.8528 -0.1969
  539MOL0     C74281   7.439   4.735   9.278  0.0831 -0.0159  0.1757
  539MOL0     C74282   7.559   4.659   9.211 -1.2169 -0.4085  0.2817
  539MOL0     C74283   7.685   4.755   9.189  0.0634 -0.4301 -0.5563
  539MOL0     C74284   7.796   4.658   9.121  0.6060  0.2139 -0.2699
  539MOL0     C74285   7.903   4.749   9.053  0.0434  0.2034 -0.1097
  539MOL0     C74286   8.022   4.660   9.000  0.4498  0.1634  0.1975
  539MOL0     C74287   8.117   4.642   9.125 -0.1179  0.3280  0.6971
  539MOL0     C74288   8.249   4.579   9.079 -0.1493  0.6403  0.5134
  539MOL0    Cl74289   8.366   4.682   8.993 -0.0536 -0.3607  0.1332
  539MOL0     C74290   7.166   4.914   9.166  0.5558  0.1965 -0.5380
  539MOL0     C74291   7.037   4.957   9.208  0.2379 -0.0136 -0.4723
  539MOL0     O74292   6.778   4.805   9.520  0.2140 -0.5943  0.7425
  539MOL0     C74293   6.599   5.099   9.395  0.8125 -0.0049  0.3048
  539MOL0     C74294   6.486   5.179   9.415  0.6492  0.8751 -0.0781
  539MOL0     N74295   5.831   5.055   9.121  0.9257 -0.2725 -0.2082
  539MOL0     N74296   5.774   4.938   9.122 -0.0976 -0.6100  1.1479
  539MOL0     C74297   6.119   5.469   8.563 -0.6490  0.2048 -0.4909
  539MOL0     C74298   6.214   5.582   8.571  0.3509  1.4449 -0.9014
  539MOL0     C74299   6.627   5.781   8.624 -0.8875 -0.3152  0.8002
  539MOL0     C74300   6.584   5.880   8.526  0.0582 -0.6719  0.3044
  539MOL0     C74301   6.634   6.004   8.520 -0.2886 -0.1200  0.5000
  539MOL0     C74302   6.727   6.053   8.617 -0.5383  0.0021 -0.2822
  539MOL0     O74303   6.782   6.178   8.584 -0.0877 -0.4954  0.0551
  539MOL0     C74304   6.895   6.218   8.662  0.8339 -0.3775  0.3217
  539MOL0     C74305   6.990   6.319   8.590 -0.1926  0.2222  0.7161
  539MOL0     C74306   7.075   6.284   8.472  0.6926 -0.6332  0.0915
  539MOL0     C74307   7.009   6.246   8.345 -0.2512 -0.5667 -0.0990
  539MOL0     C74308   7.103   6.218   8.239  0.6057  0.3856 -0.4982
  539MOL0     C74309   7.154   6.207   8.131  0.5068  0.8359  0.2360
  539MOL0     C74310   6.761   5.963   8.719  0.4152 -0.3972  0.3456
  539MOL0     C74311   6.722   5.830   8.718  0.2939 -0.0532 -0.0367
  539MOL0     C74312   6.766   5.746   8.840  0.6779 -0.0527 -0.3347
  539MOL0     H74313   6.497   5.390   8.507 -0.9115  1.0336 -1.1896
  539MOL0     H74314   6.324   5.204   8.516 -0.1991  0.1737 -0.1005
  539MOL0     H74315   6.080   5.190   8.766  2.8308 -3.7009  3.3669
  539MOL0     H74316   6.196   5.091   8.676 -1.4633 -3.0908  4.2313
  539MOL0     H74317   5.901   5.068   8.685 -0.2258  0.8891  1.2094
  539MOL0     H74318   5.992   4.995   8.554  4.4637 -0.1369 -0.5302
  539MOL0     H74319   6.116   4.855   8.718 -2.1368 -4.0661  3.5852
  539MOL0     H74320   6.091   4.968   8.846  0.6492  2.4167 -2.0562
  539MOL0     H74321   5.853   4.885   8.869 -1.3059 -0.4774 -3.3716
  539MOL0     H74322   5.882   4.779   8.723 -0.0505  3.5438 -2.9190
  539MOL0     H74323   6.052   4.765   8.977  2.1981  0.1683 -1.8187
  539MOL0     H74324   6.068   4.672   8.831 -0.2159  1.1559 -0.7228
  539MOL0     H74325   5.859   4.574   8.869  1.7933  1.0946 -0.2393
  539MOL0     H74326   5.971   4.550   9.007 -2.7925 -2.7375  0.9158
  539MOL0     H74327   5.753   4.564   9.080  1.0760 -0.4852  1.1466
  539MOL0     H74328   5.727   4.714   9.015 -0.2757 -0.1110 -0.2749
  539MOL0     H74329   5.800   4.678   9.263 -0.7303  0.4109 -0.9924
  539MOL0     H74330   5.964   4.671   9.202  0.0560 -1.3523 -0.3799
  539MOL0     H74331   6.078   4.889   9.267 -0.0545 -0.1902 -0.4731
  539MOL0     H74332   6.020   5.247   9.134 -0.5257 -1.3481 -0.0925
  539MOL0     H74333   6.149   5.139   9.172 -0.3409 -1.3869  0.1692
  539MOL0     H74334   5.988   5.261   9.394 -0.6618 -0.0072 -0.5846
  539MOL0     H74335   6.107   5.124   9.405  2.7413  0.2245 -2.5442
  539MOL0     H74336   6.266   5.272   9.282  1.0450 -0.2764  1.4615
  539MOL0     H74337   6.156   5.407   9.293  1.8883  0.7870  0.7542
  539MOL0     H74338   6.325   5.401   9.495 -1.9666  2.4280  1.8408
  539MOL0     H74339   6.157   5.393   9.545  1.5162  1.3097 -0.2628
  539MOL0     H74340   6.342   4.999   9.647  0.3746 -2.8540 -0.6121
  539MOL0     H74341   6.451   4.810   9.713 -0.8824 -0.5709 -1.0265
  539MOL0     H74342   6.624   4.807   9.713 -1.8949 -2.7823  2.7167
  539MOL0     H74343   6.537   4.733   9.578  0.8256 -3.0857  3.8096
  539MOL0     H74344   6.966   4.720   9.438  0.1449 -0.5061 -0.0379
  539MOL0     H74345   7.190   4.654   9.379  0.4775 -0.2100 -3.3225
  539MOL0     H74346   7.457   4.829   9.332  0.7533  0.8682 -1.5020
  539MOL0     H74347   7.398   4.665   9.352 -1.4732  0.4069 -0.2493
  539MOL0     H74348   7.594   4.590   9.289  2.1892  1.7788  0.9376
  539MOL0     H74349   7.534   4.615   9.114  0.2278 -1.2696  0.2627
  539MOL0     H74350   7.716   4.800   9.284 -3.5600 -1.4324  1.2808
  539MOL0     H74351   7.662   4.828   9.111 -0.6598  0.3475  0.3638
  539MOL0     H74352   7.744   4.599   9.045 -0.7024  0.3648  0.4741
  539MOL0     H74353   7.841   4.589   9.193  0.9149  0.6565 -0.0334
  539MOL0     H74354   7.865   4.797   8.962 -2.3954  0.6509  1.0732
  539MOL0     H74355   7.938   4.830   9.117 -1.8071  0.8021  0.1952
  539MOL0     H74356   8.078   4.698   8.914 -0.3039 -1.9327 -1.3161
  539MOL0     H74357   7.972   4.568   8.968  1.4849 -0.7934  1.2278
  539MOL0     H74358   8.077   4.565   9.192  0.3884 -0.3249  0.2696
  539MOL0     H74359   8.136   4.731   9.185 -2.6141  1.9569 -0.7750
  539MOL0     H74360   8.232   4.483   9.029  2.9679  0.3736 -0.2227
  539MOL0     H74361   8.309   4.545   9.164  1.1843 -0.0808 -0.6677
  539MOL0     H74362   7.214   4.953   9.077 -0.3176 -1.3611 -1.7507
  539MOL0     H74363   6.991   5.040   9.156  0.1530  0.3803  0.2163
  539MOL0     H74364   6.682   5.141   9.339  0.3079 -1.8578 -2.0230
  539MOL0     H74365   6.503   5.279   9.375  0.5196  0.7513 -0.4443
  539MOL0     H74366   6.014   5.483   8.586 -0.7780 -1.9878  0.5483
  539MOL0     H74367   6.178   5.683   8.586  0.8392  1.3364  1.2415
  539MOL0     H74368   6.507   5.863   8.451  0.2050  0.4300 -0.1140
  539MOL0     H74369   6.604   6.073   8.441  1.0553 -0.6982 -0.5399
  539MOL0     H74370   6.859   6.263   8.755 -1.8175 -0.4396 -0.6159
  539MOL0     H74371   6.960   6.131   8.680  2.9353  0.7152 -1.4821
  539MOL0     H74372   7.046   6.373   8.667  1.7632 -0.5403 -0.0919
  539MOL0     H74373   6.921   6.394   8.551 -0.4769 -0.2275  0.3472
  539MOL0     H74374   7.140   6.366   8.441 -0.6765  0.1730 -0.7111
  539MOL0     H74375   7.131   6.193   8.498 -1.6488 -1.4582  2.7331
  539MOL0     H74376   6.963   6.340   8.314  0.1275 -0.2338  0.3484
  539MOL0     H74377   6.938   6.163   8.354  0.3417 -1.4550 -2.5653
  539MOL0     H74378   7.170   6.176   8.030 -1.4629 -1.0445  0.4224
  539MOL0     H74379   6.825   5.999   8.799 -1.5141  2.0295  0.9371
  539MOL0     H74380   6.840   5.795   8.903  0.9562 -2.0243  0.9672
  539MOL0     H74381   6.679   5.724   8.903  0.0033  3.6757  0.2910
  539MOL0     H74382   6.809   5.653   8.801 -1.2348 -0.7917 -0.8056
  540MOL0     O74383   5.208  10.072  10.672  0.1599  0.0734  0.0477
  540MOL0     C74384   5.220  10.058  10.555 -0.3646 -0.0468 -0.2957
  540MOL0     O74385   5.319  10.000  10.488 -0.2657 -0.3064 -0.2360
  540MOL0     C74386   5.442   9.985  10.549  0.2644 -0.3722  0.0539
  540MOL0     C74387   5.490  10.070  10.647 -0.7769 -1.1682  0.1401
  540MOL0     C74388   5.618  10.061  10.698 -0.9861 -0.3880 -0.5600
  540MOL0     C74389   5.704   9.970  10.647  0.0795  1.0073  0.8707
  540MOL0     O74390   5.827   9.958  10.694  0.2788  0.8060 -1.1767
  540MOL0     C74391   5.932   9.977  10.596 -0.3164  0.9011 -0.9608
  540MOL0     C74392   6.071   9.976  10.678  0.0694  0.3221  0.1880
  540MOL0     C74393   6.186   9.951  10.578 -0.9939  0.2346 -0.5253
  540MOL0     C74394   6.321   9.988  10.634 -0.9576  0.0355 -0.3210
  540MOL0     C74395   6.431  10.003  10.527  0.6276  0.6348 -1.1942
  540MOL0     C74396   6.555  10.064  10.595 -0.7662 -0.5405 -0.5238
  540MOL0     C74397   6.674  10.097  10.497 -0.1622  0.1413 -0.1680
  540MOL0     C74398   6.648  10.227  10.425 -0.0227  0.3987  0.2774
  540MOL0     N74399   6.647  10.349  10.507  0.4200  0.2610 -0.5939
  540MOL0     C74400   6.756  10.437  10.533 -0.4496 -0.6819  0.6652
  540MOL0     C74401   6.707  10.545  10.591 -0.5129  0.6665  0.4613
  540MOL0     C74402   6.775  10.660  10.652  0.0635  0.5385 -0.4405
  540MOL0     C74403   6.777  10.785  10.550  0.1671 -0.8148 -0.3864
  540MOL0     C74404   6.824  10.745  10.407 -0.8078 -1.2905 -0.4183
  540MOL0     C74405   6.975  10.715  10.387  0.1327  0.6131 -0.7444
  540MOL0     O74406   7.055  10.839  10.382 -0.0009 -0.1223  0.2629
  540MOL0     C74407   7.185  10.824  10.341 -0.0989  0.8338 -0.3704
  540MOL0     C74408   7.248  10.704  10.320 -0.6258  0.6203 -0.0941
  540MOL0     C74409   7.387  10.700  10.294 -0.3098  0.1315  0.4769
  540MOL0     C74410   7.446  10.564  10.267 -0.9073  0.5487 -0.5467
  540MOL0     C74411   7.467  10.817  10.299 -0.3649 -0.4030 -0.1111
  540MOL0     C74412   7.612  10.834  10.286 -0.4415  0.3103  0.0788
  540MOL0     O74413   7.675  10.966  10.285  0.8612 -0.1613  0.1554
  540MOL0     C74414   7.814  10.961  10.269 -0.3085  0.1439 -0.1606
  540MOL0     C74415   7.885  10.980  10.149  0.5490 -0.0430 -0.8988
  540MOL0     C74416   8.025  10.950  10.153 -0.0254 -0.5411 -0.2797
  540MOL0     C74417   8.093  10.919  10.263 -0.6305  0.9058 -0.0337
  540MOL0     O74418   8.230  10.903  10.253 -0.4176 -0.0692 -0.4857
  540MOL0     C74419   8.293  10.828  10.357 -0.2476 -0.3037  0.4486
  540MOL0     C74420   8.454  10.818  10.337 -0.6731  0.0791 -0.5759
  540MOL0     C74421   8.520  10.757  10.213 -0.9696 -0.9399 -0.6537
  540MOL0     C74422   8.666  10.799  10.177 -0.4809 -0.1607 -0.1219
  540MOL0     C74423   8.751  10.682  10.128 -0.1285 -0.8336  0.6536
  540MOL0     C74424   8.875  10.726  10.053 -0.6921 -0.3134 -0.4219
  540MOL0     C74425   8.981  10.624  10.001  0.3404 -0.1973 -1.1567
  540MOL0     C74426   9.079  10.711   9.919 -0.6649 -0.0861 -0.0149
  540MOL0    Cl74427   9.239  10.634   9.903 -0.2875 -0.3850  0.4617
  540MOL0     C74428   8.021  10.904  10.389 -0.3095  0.7007  0.3327
  540MOL0     C74429   7.889  10.927  10.391 -0.1286 -0.8731  0.2585
  540MOL0     O74430   7.673  10.728  10.274  0.3374  0.1145 -0.4200
  540MOL0     C74431   7.393  10.944  10.312  0.1386 -1.1338 -0.3445
  540MOL0     C74432   7.260  10.935  10.334  0.0713 -0.0909  0.0531
  540MOL0     N74433   6.573  10.525  10.617  1.3764  0.6786  0.0187
  540MOL0     N74434   6.538  10.403  10.568 -1.1693 -0.6802  0.5907
  540MOL0     C74435   5.656   9.875  10.561 -0.3595 -0.1144 -0.1221
  540MOL0     C74436   5.528   9.883  10.512 -0.0603  0.7335 -0.5599
  540MOL0     C74437   5.120  10.112  10.464 -0.1208  0.3398 -0.5507
  540MOL0     C74438   5.172  10.195  10.359  0.3660 -0.1409 -1.0521
  540MOL0     C74439   5.089  10.265  10.277 -1.3194  0.2084 -0.7248
  540MOL0     C74440   4.958  10.275  10.304  0.0130 -0.3465 -0.4630
  540MOL0     O74441   4.878  10.364  10.239  1.3784  0.1955  0.1827
  540MOL0     C74442   4.766  10.422  10.308 -0.3051 -0.6394  0.8475
  540MOL0     C74443   4.734  10.550  10.232  0.0545 -0.6230 -0.4922
  540MOL0     C74444   4.646  10.545  10.104 -0.3845 -0.0561 -0.9199
  540MOL0     C74445   4.494  10.523  10.116  0.3309 -0.2104  0.4909
  540MOL0     C74446   4.427  10.633  10.188 -0.4087 -0.1482 -0.9509
  540MOL0     C74447   4.374  10.725  10.256  0.7063  0.3588  0.4816
  540MOL0     C74448   4.904  10.202  10.409  0.6803  0.9319  0.1443
  540MOL0     C74449   4.976  10.107  10.485  0.6593  0.2478  0.1600
  540MOL0     C74450   4.905  10.016  10.585 -0.0981 -0.0557 -0.9437
  540MOL0     H74451   5.432  10.155  10.679  1.9169  1.5807 -1.7330
  540MOL0     H74452   5.663  10.141  10.755 -3.3421  0.2000  0.6135
  540MOL0     H74453   5.907  10.073  10.550  1.0945  2.6881  1.7533
  540MOL0     H74454   5.933   9.902  10.516  1.3476 -2.2308  1.7589
  540MOL0     H74455   6.087  10.068  10.735 -2.9311  0.3945  1.1209
  540MOL0     H74456   6.065   9.894  10.751 -0.0314  0.3628  0.2257
  540MOL0     H74457   6.182   9.847  10.542 -3.1536  0.6971 -1.7992
  540MOL0     H74458   6.159  10.019  10.496 -3.4075  1.3033  1.0439
  540MOL0     H74459   6.306  10.083  10.686 -0.2012 -1.3180  2.5749
  540MOL0     H74460   6.349   9.905  10.699  1.1797 -0.3468 -1.6339
  540MOL0     H74461   6.393  10.063  10.444 -2.4668  1.9579  0.9794
  540MOL0     H74462   6.453   9.906  10.483 -0.2863 -0.2485  0.2434
  540MOL0     H74463   6.526  10.155  10.648  0.5593  0.0325 -0.7560
  540MOL0     H74464   6.579   9.994  10.676 -2.1937 -1.1736 -0.6216
  540MOL0     H74465   6.681  10.016  10.424 -3.6353 -1.1811  0.7643
  540MOL0     H74466   6.766  10.104  10.557  1.0843 -1.5658 -1.7418
  540MOL0     H74467   6.727  10.240  10.351  1.9645  1.2425  2.4060
  540MOL0     H74468   6.549  10.212  10.381  0.3575 -1.0949 -0.1398
  540MOL0     H74469   6.860  10.420  10.506 -0.9471 -0.4832 -1.5854
  540MOL0     H74470   6.872  10.629  10.692 -2.0529 -1.4184  3.7980
  540MOL0     H74471   6.709  10.679  10.737  1.5152 -1.8590  1.3543
  540MOL0     H74472   6.675  10.824  10.539 -0.6046 -1.6079  2.9334
  540MOL0     H74473   6.848  10.854  10.594 -0.4000 -1.5053  1.7226
  540MOL0     H74474   6.774  10.651  10.383  1.4996 -2.6794 -0.0783
  540MOL0     H74475   6.801  10.822  10.333  2.8669 -1.0842 -1.5729
  540MOL0     H74476   7.012  10.638  10.455  2.0675  2.5231  0.5010
  540MOL0     H74477   6.986  10.673  10.286  1.9548  0.5487 -0.5525
  540MOL0     H74478   7.211  10.604  10.343  1.5446 -0.2110 -0.0233
  540MOL0     H74479   7.375  10.485  10.243  0.8939 -0.9494 -1.1767
  540MOL0     H74480   7.501  10.527  10.354  0.6492  1.2842 -1.1713
  540MOL0     H74481   7.512  10.577  10.180 -2.7319  1.9508 -1.8138
  540MOL0     H74482   7.826  11.009  10.063 -0.9153  1.7406  0.5924
  540MOL0     H74483   8.075  10.965  10.058  1.2958  2.2868  0.7208
  540MOL0     H74484   8.281  10.878  10.453 -2.7627  0.4095 -0.1547
  540MOL0     H74485   8.257  10.725  10.368 -2.8275  0.5760  0.8315
  540MOL0     H74486   8.487  10.922  10.336  4.9022 -1.3626 -1.1064
  540MOL0     H74487   8.500  10.773  10.426  2.5994 -0.1551 -2.2467
  540MOL0     H74488   8.459  10.784  10.126 -2.0737  3.1262  1.1137
  540MOL0     H74489   8.505  10.649  10.224 -3.6151 -0.6255 -0.4121
  540MOL0     H74490   8.712  10.824  10.273 -2.3387  0.4574  0.6558
  540MOL0     H74491   8.668  10.886  10.110 -0.6042 -0.3280 -0.3467
  540MOL0     H74492   8.786  10.627  10.216  1.4556 -0.3554  0.3630
  540MOL0     H74493   8.707  10.607  10.061  4.6068 -2.3489 -1.2056
  540MOL0     H74494   8.931  10.803  10.107 -0.0980 -0.5028 -0.7474
  540MOL0     H74495   8.832  10.775   9.965  1.2420  0.1643 -1.1649
  540MOL0     H74496   8.934  10.546   9.940 -0.0498 -1.6992  0.9468
  540MOL0     H74497   9.010  10.567  10.089 -1.8401 -2.3522 -1.7318
  540MOL0     H74498   9.108  10.806   9.966  0.7763 -0.1277 -0.7561
  540MOL0     H74499   9.035  10.738   9.823 -2.8048 -1.2057  0.6028
  540MOL0     H74500   8.074  10.885  10.482 -0.8081  2.0971  0.9235
  540MOL0     H74501   7.832  10.922  10.483 -0.0944  1.3052  0.4532
  540MOL0     H74502   7.443  11.040  10.311  0.0700 -1.0805 -2.1094
  540MOL0     H74503   7.212  11.032  10.338 -0.4999 -0.2558 -1.8425
  540MOL0     H74504   5.718   9.787  10.553  1.0999  0.8940 -0.2105
  540MOL0     H74505   5.497   9.805  10.443 -0.2113 -1.1042  1.4897
  540MOL0     H74506   5.280  10.206  10.345  0.6150  1.5933  1.5267
  540MOL0     H74507   5.135  10.323  10.197 -1.7000  0.9093 -0.4446
  540MOL0     H74508   4.677  10.358  10.313  0.0551 -1.3773 -1.3290
  540MOL0     H74509   4.794  10.450  10.410  1.9652  0.4263 -0.0126
  540MOL0     H74510   4.818  10.615  10.210  0.2023 -1.2501 -1.8359
  540MOL0     H74511   4.677  10.612  10.303 -2.0729  0.5847 -3.0806
  540MOL0     H74512   4.655  10.641  10.052 -1.9775  1.1062  0.8402
  540MOL0     H74513   4.683  10.463  10.041  0.6577  0.4496 -0.9835
  540MOL0     H74514   4.472  10.436  10.180  0.9577 -0.9213 -0.2415
  540MOL0     H74515   4.447  10.508  10.019  1.2981  0.8332 -0.1626
  540MOL0     H74516   4.326  10.791  10.325  2.8615  1.1942  1.2395
  540MOL0     H74517   4.799  10.209  10.435  1.3310  0.2528  3.4327
  540MOL0     H74518   4.946   9.916  10.601 -3.1410 -1.1142  1.2291
  540MOL0     H74519   4.900  10.067  10.682  0.4000 -0.7182 -0.5612
  540MOL0     H74520   4.801  10.005  10.552  0.2240 -3.8373 -1.1007
  541MOL0     O74521   0.436   3.386   5.405  0.2608 -0.3215  0.1670
  541MOL0     C74522   0.377   3.299   5.333 -0.2565 -0.1808 -0.7142
  541MOL0     O74523   0.454   3.210   5.266  0.1390 -0.1883 -0.0818
  541MOL0     C74524   0.590   3.196   5.283 -0.3802  0.4383 -0.4045
  541MOL0     C74525   0.691   3.278   5.334 -0.6297 -0.4398 -0.7617
  541MOL0     C74526   0.828   3.239   5.331 -0.5912  0.5152  0.3209
  541MOL0     C74527   0.873   3.112   5.268  1.4682  0.0106  0.4844
  541MOL0     O74528   0.993   3.055   5.260  0.1544  0.2767  0.9401
  541MOL0     C74529   1.093   3.133   5.308 -1.1504 -0.2638  0.9157
  541MOL0     C74530   1.208   3.036   5.328  0.9453  0.6836  0.1272
  541MOL0     C74531   1.311   3.039   5.213 -0.4307  0.7056 -0.0606
  541MOL0     C74532   1.413   2.929   5.244  0.0164  0.8262 -0.1860
  541MOL0     C74533   1.523   2.923   5.138 -0.8157  0.6075  0.2781
  541MOL0     C74534   1.637   2.837   5.185  1.1809  0.9552  0.0481
  541MOL0     C74535   1.599   2.689   5.209  0.3270 -0.4595 -0.3916
  541MOL0     C74536   1.731   2.610   5.209 -0.1218  0.0264  1.8984
  541MOL0     N74537   1.711   2.471   5.213 -0.3998  0.0384  0.4970
  541MOL0     C74538   1.743   2.394   5.322  0.0477  0.2070 -0.1995
  541MOL0     C74539   1.724   2.269   5.273 -0.2592  0.0036 -0.2350
  541MOL0     C74540   1.741   2.146   5.350 -0.3837  0.2877  0.3586
  541MOL0     C74541   1.856   2.127   5.449 -0.0332 -1.1456  0.2376
  541MOL0     C74542   1.985   2.119   5.363  0.3968 -0.9109  0.2387
  541MOL0     C74543   2.106   2.114   5.455  0.5847 -0.3984  0.0633
  541MOL0     O74544   2.217   2.099   5.368 -0.2457  0.0132 -0.0470
  541MOL0     C74545   2.342   2.101   5.414 -0.0218  0.0263  0.6602
  541MOL0     C74546   2.451   2.096   5.322 -0.0867  0.7924 -0.0346
  541MOL0     C74547   2.587   2.089   5.371 -0.2684  0.2347 -0.4030
  541MOL0     C74548   2.696   2.078   5.265  0.4284 -0.9190 -0.4721
  541MOL0     C74549   2.615   2.100   5.508 -0.0770  0.8486  0.1237
  541MOL0     C74550   2.754   2.112   5.561 -0.2512  0.3454  0.3900
  541MOL0     O74551   2.764   2.204   5.652  0.8007 -1.1782  0.2372
  541MOL0     C74552   2.860   2.210   5.746 -0.5719  0.1165 -0.1515
  541MOL0     C74553   2.980   2.133   5.761 -0.2575 -0.3713 -0.4933
  541MOL0     C74554   3.068   2.166   5.872 -0.1843  0.6190  0.7550
  541MOL0     C74555   3.042   2.274   5.957  0.5580  0.3643 -0.6572
  541MOL0     O74556   3.132   2.302   6.058 -0.4016 -0.0650  0.5162
  541MOL0     C74557   3.196   2.434   6.035 -0.0768 -0.8165 -0.0908
  541MOL0     C74558   3.327   2.452   6.124  0.4446  0.0703 -0.0315
  541MOL0     C74559   3.283   2.453   6.266  0.3657  0.1033  0.6656
  541MOL0     C74560   3.403   2.483   6.356 -0.9024 -0.6182 -0.0400
  541MOL0     C74561   3.436   2.636   6.332 -0.2816 -0.7485  0.2784
  541MOL0     C74562   3.548   2.693   6.423 -0.6420  0.3269  1.2215
  541MOL0     C74563   3.487   2.715   6.569  0.4271 -0.9320  0.2887
  541MOL0     C74564   3.607   2.762   6.653  0.3848  0.6797 -0.3815
  541MOL0    Cl74565   3.723   2.878   6.578  0.3573 -0.0253  0.1554
  541MOL0     C74566   2.923   2.344   5.944  0.3286  0.1398  0.1139
  541MOL0     C74567   2.828   2.311   5.841  0.5391  0.5083  0.6385
  541MOL0     O74568   2.840   2.045   5.510  0.3123  0.0266  0.0654
  541MOL0     C74569   2.509   2.100   5.597 -0.2017  0.4236 -0.3765
  541MOL0     C74570   2.374   2.106   5.553 -0.1599 -0.0530 -0.3927
  541MOL0     N74571   1.691   2.268   5.144 -0.3358 -0.0002 -0.2231
  541MOL0     N74572   1.679   2.392   5.103  0.0104  0.6821  0.4104
  541MOL0     C74573   0.769   3.038   5.210 -0.4755 -0.0326  0.1697
  541MOL0     C74574   0.631   3.078   5.216 -0.6959 -0.9704 -0.3827
  541MOL0     C74575   0.231   3.307   5.318 -0.7529 -0.1644  0.5505
  541MOL0     C74576   0.158   3.380   5.411 -0.1146 -0.5734 -1.2214
  541MOL0     C74577   0.019   3.372   5.411 -0.4403 -0.5313 -0.6317
  541MOL0     C74578  -0.047   3.301   5.312 -0.0316 -0.7884 -0.6020
  541MOL0     O74579  -0.183   3.297   5.314  0.8973 -0.0582  0.4178
  541MOL0     C74580  -0.249   3.420   5.288  0.4253 -0.1397 -0.0253
  541MOL0     C74581  -0.376   3.435   5.382 -0.6323  0.5135 -0.0678
  541MOL0     C74582  -0.333   3.437   5.529  0.1823 -0.7456  0.4522
  541MOL0     C74583  -0.342   3.580   5.591 -0.1953 -0.0039 -0.2225
  541MOL0     C74584  -0.214   3.648   5.566  0.3527  1.1175 -0.0592
  541MOL0     C74585  -0.098   3.680   5.564 -0.2834  0.9020  0.8463
  541MOL0     C74586   0.027   3.240   5.218 -0.6972  0.2312  1.0958
  541MOL0     C74587   0.163   3.227   5.223  0.0493 -0.0184 -0.6465
  541MOL0     C74588   0.235   3.139   5.125  0.6960  0.4346  0.2817
  541MOL0     H74589   0.669   3.380   5.364  2.4222  0.9146 -2.6356
  541MOL0     H74590   0.902   3.303   5.378 -0.9673  0.7125  0.6472
  541MOL0     H74591   1.076   3.201   5.393 -1.8968  0.4906  0.1850
  541MOL0     H74592   1.137   3.198   5.232 -0.6457  0.7860  2.0635
  541MOL0     H74593   1.259   3.067   5.420  1.0774  1.0171 -0.0566
  541MOL0     H74594   1.169   2.934   5.339 -3.2861  2.3649  2.9291
  541MOL0     H74595   1.255   3.026   5.120 -0.5238 -0.8766  0.1776
  541MOL0     H74596   1.356   3.138   5.208 -2.4989  1.7693  1.3024
  541MOL0     H74597   1.468   2.938   5.338  3.7893 -1.3050 -1.9357
  541MOL0     H74598   1.357   2.836   5.242 -0.7357  1.1375  2.4818
  541MOL0     H74599   1.570   3.020   5.119  0.2966  0.1488  0.6082
  541MOL0     H74600   1.481   2.888   5.043  2.2477  0.8541 -1.2862
  541MOL0     H74601   1.709   2.836   5.102  1.5464 -1.9683  0.3018
  541MOL0     H74602   1.687   2.880   5.272  0.3887 -1.1429  1.5953
  541MOL0     H74603   1.534   2.651   5.130 -0.8857 -1.8698  1.1873
  541MOL0     H74604   1.544   2.675   5.303  0.8921 -2.1987 -0.2798
  541MOL0     H74605   1.784   2.634   5.116 -1.1673 -1.9227  0.7462
  541MOL0     H74606   1.798   2.645   5.288  3.0419  1.0420 -1.0063
  541MOL0     H74607   1.781   2.433   5.416  1.8728 -1.5895 -0.1296
  541MOL0     H74608   1.748   2.066   5.276  1.7416  1.1080 -0.3894
  541MOL0     H74609   1.655   2.127   5.414  0.5542 -0.3367  1.4641
  541MOL0     H74610   1.861   2.208   5.522  0.7479 -0.0462 -0.9781
  541MOL0     H74611   1.842   2.026   5.489 -2.2572 -0.6945  0.7111
  541MOL0     H74612   1.976   2.033   5.296  2.3814  1.6164 -3.6636
  541MOL0     H74613   1.984   2.212   5.306  0.3186 -0.0562  1.5878
  541MOL0     H74614   2.111   2.198   5.524 -1.1685 -0.2964  0.1108
  541MOL0     H74615   2.096   2.031   5.526 -0.9034  1.3316  2.0009
  541MOL0     H74616   2.430   2.081   5.216 -0.4184  0.2851  0.0996
  541MOL0     H74617   2.655   2.079   5.163  0.2175  1.6736 -0.4317
  541MOL0     H74618   2.756   1.988   5.280  1.9527  0.2400  0.7010
  541MOL0     H74619   2.763   2.165   5.264  0.9484 -1.2953 -1.8162
  541MOL0     H74620   3.016   2.056   5.694 -0.7509  0.2382 -1.4810
  541MOL0     H74621   3.153   2.098   5.878 -2.2294 -1.9906  2.0961
  541MOL0     H74622   3.225   2.448   5.931  0.1349 -0.5131  0.0083
  541MOL0     H74623   3.126   2.517   6.046  1.6315  0.7116 -0.4255
  541MOL0     H74624   3.396   2.368   6.109  1.5002  1.1816 -1.7686
  541MOL0     H74625   3.374   2.540   6.081  0.9484 -0.2972 -0.2383
  541MOL0     H74626   3.245   2.353   6.288 -0.7443  0.1458 -0.8933
  541MOL0     H74627   3.209   2.529   6.291  0.4132 -0.4466  2.6414
  541MOL0     H74628   3.492   2.425   6.331 -0.3622  1.5144 -3.7285
  541MOL0     H74629   3.373   2.474   6.461 -0.3926 -0.8947  0.0863
  541MOL0     H74630   3.474   2.656   6.231 -0.8232  0.0568  0.2284
  541MOL0     H74631   3.342   2.692   6.334 -0.9338 -1.8134  0.1881
  541MOL0     H74632   3.584   2.784   6.374  0.0422  0.6673  2.3154
  541MOL0     H74633   3.635   2.627   6.418 -1.0601 -0.1567 -2.1188
  541MOL0     H74634   3.450   2.619   6.607  0.1883 -1.3021 -0.8218
  541MOL0     H74635   3.402   2.784   6.570  0.8453 -0.4167  0.3093
  541MOL0     H74636   3.671   2.675   6.668  0.6971  0.3621 -3.0561
  541MOL0     H74637   3.575   2.807   6.747  3.2802  1.0062  0.5517
  541MOL0     H74638   2.901   2.426   6.011 -2.6674  1.0092 -1.7719
  541MOL0     H74639   2.735   2.367   5.850  1.0955  1.0478  4.2837
  541MOL0     H74640   2.525   2.114   5.703  0.9697  0.6096 -0.5604
  541MOL0     H74641   2.302   2.117   5.633 -1.5701  0.1937 -1.6471
  541MOL0     H74642   0.796   2.947   5.157 -1.0485  0.0678 -0.3098
  541MOL0     H74643   0.553   3.020   5.166 -1.2291  0.0506 -0.7564
  541MOL0     H74644   0.213   3.435   5.487  1.2818 -0.1091 -2.5291
  541MOL0     H74645  -0.031   3.425   5.492  2.9092 -1.5439  2.3135
  541MOL0     H74646  -0.178   3.503   5.287 -0.6389  0.9310  2.6845
  541MOL0     H74647  -0.289   3.413   5.187  4.1557  0.4433 -1.7027
  541MOL0     H74648  -0.441   3.347   5.370  1.1691 -1.0425  0.9384
  541MOL0     H74649  -0.439   3.519   5.353 -0.5864  0.3984 -0.5123
  541MOL0     H74650  -0.405   3.375   5.583 -2.6785  2.6915  0.9443
  541MOL0     H74651  -0.238   3.383   5.541 -0.2172 -1.9482 -1.3669
  541MOL0     H74652  -0.355   3.556   5.696 -1.1814 -0.8655 -0.5259
  541MOL0     H74653  -0.424   3.640   5.550  1.0134 -0.3058 -3.3691
  541MOL0     H74654   0.008   3.692   5.557 -0.1319 -0.4866  0.4835
  541MOL0     H74655  -0.026   3.178   5.145  1.2995  0.7469 -0.8823
  541MOL0     H74656   0.265   3.047   5.176 -3.9913 -0.0038  2.8446
  541MOL0     H74657   0.165   3.106   5.047  0.6517 -0.0016  0.5048
  541MOL0     H74658   0.318   3.190   5.076  1.8538  1.8943  3.5150
  542MOL0     O74659   8.736  10.826   8.708 -0.2096 -0.6219  0.4934
  542MOL0     C74660   8.762  10.872   8.816 -0.2990 -0.7280 -0.9642
  542MOL0     O74661   8.891  10.873   8.873  0.1012  0.6870  0.8649
  542MOL0     C74662   8.989  10.843   8.787  1.0306 -0.4201  1.0007
  542MOL0     C74663   9.038  10.942   8.695  0.3119  0.2549  1.0185
  542MOL0     C74664   9.151  10.911   8.613  0.7858  0.3605 -0.1411
  542MOL0     C74665   9.220  10.791   8.636 -0.2129 -0.5221  0.6468
  542MOL0     O74666   9.337  10.757   8.570 -0.9656 -0.1107 -0.0444
  542MOL0     C74667   9.400  10.837   8.470  0.9853 -0.9054 -0.0584
  542MOL0     C74668   9.541  10.791   8.437 -0.3579 -0.6437 -0.2654
  542MOL0     C74669   9.569  10.646   8.393  0.5210 -0.1418  0.0471
  542MOL0     C74670   9.714  10.618   8.377 -0.1028  0.7909 -0.7810
  542MOL0     C74671   9.745  10.467   8.381  0.5575  0.3652  1.5487
  542MOL0     C74672   9.691  10.401   8.255 -1.1954  0.2239 -0.0594
  542MOL0     C74673   9.739  10.253   8.259 -0.3204  0.3144  0.1468
  542MOL0     C74674   9.747  10.185   8.118 -0.0482  0.6013  0.7151
  542MOL0     N74675   9.838  10.241   8.015 -0.7105  0.2880 -0.2126
  542MOL0     C74676   9.971  10.232   8.014  0.3128 -1.4121 -0.0406
  542MOL0     C74677  10.004  10.314   7.908 -0.3675 -0.3915  0.2573
  542MOL0     C74678  10.139  10.339   7.848 -0.4493 -0.7154 -0.4638
  542MOL0     C74679  10.224  10.459   7.906 -1.1074  0.0221  0.1085
  542MOL0     C74680  10.333  10.525   7.823 -0.6573 -0.7971  0.5276
  542MOL0     C74681  10.389  10.442   7.699  0.0657  0.7150 -0.3269
  542MOL0     O74682  10.531  10.410   7.711  0.2675  0.3096  0.3359
  542MOL0     C74683  10.628  10.493   7.659  0.0038  0.2966  0.2897
  542MOL0     C74684  10.750  10.449   7.677 -0.4872  0.5649  0.7442
  542MOL0     C74685  10.858  10.511   7.615  0.3146 -0.1463  0.8587
  542MOL0     C74686  10.998  10.458   7.640  0.9195 -0.9340  0.6576
  542MOL0     C74687  10.838  10.618   7.528 -0.2712  0.8132  0.6946
  542MOL0     C74688  10.949  10.700   7.481 -0.8305 -0.3970 -0.0270
  542MOL0     O74689  10.921  10.831   7.464  0.7303 -0.2574 -0.1823
  542MOL0     C74690  11.021  10.925   7.460  0.2532 -0.1782  0.8758
  542MOL0     C74691  10.989  11.038   7.390 -0.1789 -0.7407 -0.5470
  542MOL0     C74692  11.072  11.157   7.395  0.3119  0.8237  0.1892
  542MOL0     C74693  11.186  11.154   7.462  0.1654 -0.0285 -0.2054
  542MOL0     O74694  11.264  11.269   7.451  0.3903 -0.1147  0.2146
  542MOL0     C74695  11.406  11.255   7.449  0.0832 -0.3887 -1.1448
  542MOL0     C74696  11.439  11.383   7.518 -0.5588 -0.4599 -0.5466
  542MOL0     C74697  11.588  11.413   7.535 -0.1077  0.4500 -0.2956
  542MOL0     C74698  11.632  11.419   7.682 -0.5812  0.5374  0.5935
  542MOL0     C74699  11.777  11.481   7.691  0.2483  0.6228 -0.1075
  542MOL0     C74700  11.826  11.472   7.834  0.1757  0.0050 -0.8498
  542MOL0     C74701  11.948  11.567   7.853  0.0757  1.0060  0.1218
  542MOL0     C74702  11.995  11.578   7.997  0.2983 -0.5162  0.7290
  542MOL0    Cl74703  11.860  11.626   8.098 -0.0519  0.0920  0.1840
  542MOL0     C74704  11.221  11.038   7.536  0.6946 -0.4747  0.2308
  542MOL0     C74705  11.133  10.925   7.541  0.3856 -0.2580  0.1474
  542MOL0     O74706  11.049  10.642   7.444 -0.0556 -0.0821  0.0618
  542MOL0     C74707  10.707  10.658   7.504  0.2922 -0.2913 -0.3289
  542MOL0     C74708  10.594  10.601   7.571 -0.4166 -0.9680  0.2935
  542MOL0     N74709   9.888  10.380   7.873 -0.1253  1.0930  0.3052
  542MOL0     N74710   9.786  10.336   7.936  0.3213  0.5296 -0.2240
  542MOL0     C74711   9.166  10.693   8.727 -0.1231 -0.8222 -1.1286
  542MOL0     C74712   9.055  10.722   8.803  0.4381  0.0632 -0.0137
  542MOL0     C74713   8.657  10.928   8.902 -1.2398 -0.5315 -0.6703
  542MOL0     C74714   8.696  10.995   9.029  0.4674 -0.7281  0.4369
  542MOL0     C74715   8.600  11.071   9.105  1.1510 -0.2217  0.2791
  542MOL0     C74716   8.471  11.068   9.063  0.3921  0.5053 -0.1849
  542MOL0     O74717   8.371  11.139   9.119  0.2823  0.3505  0.3490
  542MOL0     C74718   8.386  11.220   9.239  0.3445  0.3778  0.2521
  542MOL0     C74719   8.257  11.283   9.269  0.5170  0.8782  0.0681
  542MOL0     C74720   8.194  11.349   9.144 -0.0441 -0.1959  0.8744
  542MOL0     C74721   8.055  11.383   9.166  0.1737  0.2037  0.0524
  542MOL0     C74722   8.033  11.458   9.284  0.5472  0.6345  0.4726
  542MOL0     C74723   8.013  11.531   9.378 -0.7370 -0.1895  0.2023
  542MOL0     C74724   8.432  10.995   8.956  0.5125 -0.5554 -0.7980
  542MOL0     C74725   8.518  10.929   8.874 -0.1555  0.6351 -0.6331
  542MOL0     C74726   8.451  10.866   8.749  0.2645 -0.6502  0.5622
  542MOL0     H74727   8.992  11.039   8.681 -0.7843 -0.6247 -2.5379
  542MOL0     H74728   9.184  10.976   8.533 -0.6917  0.6096 -0.5597
  542MOL0     H74729   9.398  10.944   8.490 -0.7799 -1.0233  0.5897
  542MOL0     H74730   9.348  10.824   8.375  0.2819  3.0589 -0.3687
  542MOL0     H74731   9.579  10.850   8.353 -0.0891 -0.2535  0.1276
  542MOL0     H74732   9.607  10.809   8.522  0.3548  1.0770 -1.1370
  542MOL0     H74733   9.515  10.586   8.467  5.6739  1.8201  6.3303
  542MOL0     H74734   9.531  10.637   8.291  1.8038  1.5535 -0.6288
  542MOL0     H74735   9.751  10.659   8.282  0.2526 -0.8382 -1.3890
  542MOL0     H74736   9.762  10.668   8.461 -2.2899 -0.3583  1.2689
  542MOL0     H74737   9.690  10.435   8.470  1.7995 -0.4041  2.0607
  542MOL0     H74738   9.850  10.446   8.406  0.8710 -1.2131 -0.7924
  542MOL0     H74739   9.582  10.404   8.248 -1.2548 -0.2890  0.5035
  542MOL0     H74740   9.739  10.438   8.165  1.5771 -1.9777  0.3571
  542MOL0     H74741   9.674  10.194   8.325 -0.9524 -1.7053 -2.1232
  542MOL0     H74742   9.845  10.246   8.285  0.6298 -2.3334 -3.5849
  542MOL0     H74743   9.797  10.088   8.119  3.5259  2.2706  0.2290
  542MOL0     H74744   9.646  10.190   8.078  0.2401  4.6302  0.1052
  542MOL0     H74745  10.034  10.156   8.059  0.0474 -3.0231 -2.1933
  542MOL0     H74746  10.125  10.356   7.741  1.1873  2.6798 -0.2547
  542MOL0     H74747  10.190  10.242   7.860  0.3090 -0.2726 -0.0529
  542MOL0     H74748  10.156  10.542   7.926  0.8358  1.6926  0.0772
  542MOL0     H74749  10.275  10.416   7.993  0.3179 -2.6601 -1.8611
  542MOL0     H74750  10.293  10.618   7.782 -1.2434 -1.1410  0.3119
  542MOL0     H74751  10.413  10.556   7.891  0.5536  0.0956 -1.2530
  542MOL0     H74752  10.335  10.346   7.694 -1.0149  1.1967  1.1763
  542MOL0     H74753  10.361  10.485   7.603 -3.4452 -2.3148 -0.9002
  542MOL0     H74754  10.767  10.364   7.742  3.1397 -0.7922 -1.6674
  542MOL0     H74755  11.065  10.543   7.658 -1.6862  2.3826 -3.3536
  542MOL0     H74756  11.036  10.399   7.556  0.8417 -0.9407  0.6268
  542MOL0     H74757  10.992  10.398   7.731 -0.3910 -0.1815  1.0962
  542MOL0     H74758  10.897  11.044   7.332  0.8564 -1.2298 -2.3077
  542MOL0     H74759  11.057  11.250   7.339 -1.9021 -0.4313 -1.4932
  542MOL0     H74760  11.452  11.172   7.502  2.5789  1.3129 -0.4853
  542MOL0     H74761  11.432  11.258   7.343 -0.3393  1.5433 -1.2366
  542MOL0     H74762  11.402  11.465   7.456 -0.4713 -0.7078 -0.9348
  542MOL0     H74763  11.392  11.396   7.615 -2.1482  0.4898 -1.4111
  542MOL0     H74764  11.614  11.508   7.487  2.1836 -0.4989 -1.0529
  542MOL0     H74765  11.645  11.339   7.479  2.6463  1.6120  0.8044
  542MOL0     H74766  11.625  11.316   7.718 -1.1252  0.0756 -0.7921
  542MOL0     H74767  11.563  11.488   7.732 -3.3703 -0.3240 -1.7995
  542MOL0     H74768  11.846  11.443   7.615  0.8485  2.0373 -0.3193
  542MOL0     H74769  11.775  11.587   7.664 -1.4799  0.2293 -1.6997
  542MOL0     H74770  11.855  11.369   7.859  1.0639  0.4438 -0.0037
  542MOL0     H74771  11.740  11.501   7.895 -0.0631 -0.4434 -0.9693
  542MOL0     H74772  11.915  11.666   7.818 -2.9812 -0.0212 -0.2118
  542MOL0     H74773  12.022  11.536   7.778 -1.2941  0.3808 -1.0196
  542MOL0     H74774  12.080  11.648   7.998  0.4112 -0.6589  1.1565
  542MOL0     H74775  12.019  11.476   8.028 -0.9210 -0.8445  0.6486
  542MOL0     H74776  11.311  11.044   7.596 -1.5241 -0.6789  3.8662
  542MOL0     H74777  11.139  10.839   7.608 -1.6480 -1.1745 -0.7592
  542MOL0     H74778  10.688  10.735   7.430 -1.8119  0.4355  0.8739
  542MOL0     H74779  10.492  10.635   7.554 -0.3572 -1.5540 -1.5190
  542MOL0     H74780   9.201  10.592   8.746 -0.1258 -0.4255  1.3127
  542MOL0     H74781   9.016  10.643   8.867  1.8219  1.1229  2.2618
  542MOL0     H74782   8.801  10.991   9.056  0.9561  0.5599 -1.0867
  542MOL0     H74783   8.642  11.135   9.181  2.0384 -0.4570  0.0028
  542MOL0     H74784   8.431  11.159   9.318 -0.9899  0.7939  1.3682
  542MOL0     H74785   8.465  11.296   9.231 -1.4879  2.4663  1.1295
  542MOL0     H74786   8.280  11.356   9.348  0.4240 -0.2199  1.1517
  542MOL0     H74787   8.193  11.204   9.308  2.1727 -0.5268  0.0596
  542MOL0     H74788   8.249  11.438   9.113  1.8115 -1.5525  0.1069
  542MOL0     H74789   8.206  11.274   9.065  1.3553 -1.7656  2.4922
  542MOL0     H74790   7.997  11.291   9.178 -0.0624  0.4582  0.9472
  542MOL0     H74791   8.021  11.438   9.078  0.1175 -1.6676 -1.1584
  542MOL0     H74792   8.011  11.605   9.455  0.3135 -0.5684  0.6181
  542MOL0     H74793   8.329  11.006   8.924  0.9394  1.5646 -1.6268
  542MOL0     H74794   8.477  10.762   8.730 -1.7030 -1.4963  2.0705
  542MOL0     H74795   8.342  10.863   8.763  0.4079 -0.9319  1.7613
  542MOL0     H74796   8.471  10.927   8.661 -1.7326 -0.5849  0.0988
  543MOL0     O74797   9.427   4.138   4.199  0.0668  0.1532 -0.2901
  543MOL0     C74798   9.359   4.227   4.251  0.1846  0.3414  0.5881
  543MOL0     O74799   9.404   4.317   4.340  0.3821  0.1362  0.0925
  543MOL0     C74800   9.534   4.302   4.374 -0.2692 -0.1885 -0.5761
  543MOL0     C74801   9.567   4.264   4.508 -0.2414 -0.3208  0.1165
  543MOL0     C74802   9.700   4.229   4.545  0.0339 -0.1873 -0.0336
  543MOL0     C74803   9.802   4.239   4.444 -0.9056  0.0773 -0.7836
  543MOL0     O74804   9.935   4.206   4.465  0.4326  0.4473 -0.5330
  543MOL0     C74805   9.961   4.098   4.555 -0.1040  0.7338  0.6492
  543MOL0     C74806  10.108   4.083   4.580 -0.3103  0.1258 -0.4199
  543MOL0     C74807  10.185   4.053   4.457 -0.2651  0.2411 -0.7651
  543MOL0     C74808  10.333   4.023   4.499 -0.4401 -0.9411 -0.1748
  543MOL0     C74809  10.446   4.028   4.386 -0.0587  0.4858  0.2238
  543MOL0     C74810  10.462   4.167   4.327 -0.7145  0.2427  0.9598
  543MOL0     C74811  10.613   4.197   4.284  0.4463  0.5645  1.0918
  543MOL0     C74812  10.634   4.124   4.142  0.2766 -0.1956  0.8982
  543MOL0     N74813  10.750   4.164   4.069 -1.4006 -0.2682  0.1544
  543MOL0     C74814  10.788   4.127   3.942  0.1460  0.4815  0.1866
  543MOL0     C74815  10.912   4.183   3.923 -0.2466  0.0899  0.0696
  543MOL0     C74816  10.982   4.204   3.783 -0.3414 -0.3300  0.1569
  543MOL0     C74817  11.085   4.323   3.774  0.5989  0.4885 -0.2456
  543MOL0     C74818  11.175   4.303   3.652 -0.4498 -0.2181 -0.1929
  543MOL0     C74819  11.261   4.428   3.640  0.1624  0.1338  1.7089
  543MOL0     O74820  11.346   4.412   3.523 -0.7210 -0.0240 -0.7940
  543MOL0     C74821  11.447   4.504   3.498 -0.0387  0.0194  0.0223
  543MOL0     C74822  11.468   4.611   3.583  0.2706 -0.3295  0.2697
  543MOL0     C74823  11.563   4.704   3.557 -0.6403 -1.1168  0.5454
  543MOL0     C74824  11.580   4.811   3.663  0.0180 -0.4109  0.8071
  543MOL0     C74825  11.651   4.689   3.440  0.8065  0.4553  1.1888
  543MOL0     C74826  11.766   4.778   3.411 -0.1543  0.4496 -0.4510
  543MOL0     O74827  11.757   4.907   3.448 -0.4702  0.3657  0.0264
  543MOL0     C74828  11.856   4.984   3.410  0.5558 -0.1501  0.1432
  543MOL0     C74829  11.836   5.074   3.299 -0.1787 -0.1899  0.1559
  543MOL0     C74830  11.941   5.153   3.252  0.4068  0.4805 -0.3968
  543MOL0     C74831  12.066   5.153   3.317 -0.5905  0.7181 -0.8243
  543MOL0     O74832  12.166   5.233   3.272  0.2466  0.5602  0.5380
  543MOL0     C74833  12.285   5.148   3.245  0.4476  0.8705 -0.0572
  543MOL0     C74834  12.375   5.207   3.147  0.0879 -0.5409  0.0383
  543MOL0     C74835  12.496   5.118   3.117  0.7809 -0.6943 -0.3945
  543MOL0     C74836  12.581   5.145   2.992 -0.2525  0.9634 -0.1191
  543MOL0     C74837  12.683   5.264   3.005 -0.0085 -0.2323 -0.7136
  543MOL0     C74838  12.775   5.257   3.134 -0.3036  0.1818  0.2034
  543MOL0     C74839  12.864   5.389   3.147  0.3554  0.3522 -0.1583
  543MOL0     C74840  13.002   5.356   3.099 -0.8299 -0.6824 -0.5361
  543MOL0    Cl74841  13.102   5.282   3.233  0.4823 -0.0443 -0.0449
  543MOL0     C74842  12.073   5.081   3.447 -0.1963  0.8129 -1.4023
  543MOL0     C74843  11.975   5.000   3.490  0.1018  0.1200 -0.1046
  543MOL0     O74844  11.851   4.729   3.344  0.3069 -0.1038 -0.1067
  543MOL0     C74845  11.627   4.573   3.362 -0.5627 -0.4027  0.3947
  543MOL0     C74846  11.527   4.490   3.387  0.2558 -0.0025 -0.1438
  543MOL0     N74847  10.949   4.244   4.038 -0.3431 -0.2799 -0.1969
  543MOL0     N74848  10.856   4.236   4.118 -1.0529  0.1434  0.4305
  543MOL0     C74849   9.767   4.284   4.321 -0.5119 -0.6462  0.2618
  543MOL0     C74850   9.639   4.314   4.284 -0.5298  0.4348 -0.0565
  543MOL0     C74851   9.220   4.247   4.196  0.7938 -0.5527  0.0084
  543MOL0     C74852   9.176   4.381   4.182  0.2840  0.2044  0.0927
  543MOL0     C74853   9.054   4.406   4.118  0.2555 -0.3929 -0.0676
  543MOL0     C74854   8.971   4.311   4.081  0.1336  0.3091  0.2735
  543MOL0     O74855   8.847   4.332   4.015 -0.2535  0.2332 -0.1741
  543MOL0     C74856   8.801   4.460   3.976 -0.3976  0.5196 -0.2838
  543MOL0     C74857   8.668   4.464   3.913 -0.0720 -1.0542  1.1791
  543MOL0     C74858   8.679   4.391   3.771 -0.9153  0.1489 -0.7249
  543MOL0     C74859   8.555   4.321   3.704  0.9924 -0.1890  0.2097
  543MOL0     C74860   8.439   4.408   3.692  0.4024  0.1791  0.1370
  543MOL0     C74861   8.347   4.481   3.672 -1.0008 -0.5835  0.6218
  543MOL0     C74862   9.010   4.178   4.091  0.3671 -0.0941  0.0692
  543MOL0     C74863   9.138   4.145   4.147  0.9628 -0.4383 -0.5937
  543MOL0     C74864   9.183   3.999   4.146 -0.1795  0.2066  0.3881
  543MOL0     H74865   9.491   4.268   4.586 -0.1784  0.8788  0.1265
  543MOL0     H74866   9.715   4.198   4.648  0.0127  2.6020  0.8785
  543MOL0     H74867   9.914   4.006   4.521  1.2615 -0.7758  2.5890
  543MOL0     H74868   9.920   4.129   4.652 -1.0878  1.5903 -0.0208
  543MOL0     H74869  10.151   4.171   4.628  1.4076  0.4755 -2.4348
  543MOL0     H74870  10.117   4.000   4.650 -0.3921  1.1740  0.8611
  543MOL0     H74871  10.137   3.972   4.402 -0.1142 -0.7572  0.5101
  543MOL0     H74872  10.180   4.142   4.394  0.1262 -0.8936 -2.4835
  543MOL0     H74873  10.360   4.100   4.572 -3.1435  1.5368 -1.6000
  543MOL0     H74874  10.342   3.922   4.542  1.6955 -0.1105  1.5218
  543MOL0     H74875  10.412   3.951   4.316 -0.0213  0.6549  0.0203
  543MOL0     H74876  10.535   3.986   4.434  0.4445  0.0083 -1.0628
  543MOL0     H74877  10.402   4.177   4.236  5.0305 -0.3440 -3.4714
  543MOL0     H74878  10.435   4.242   4.402 -2.7895  0.3675  0.1639
  543MOL0     H74879  10.679   4.150   4.358 -0.3120 -1.7084  0.3913
  543MOL0     H74880  10.637   4.304   4.282  0.8479  0.5180  2.5586
  543MOL0     H74881  10.623   4.016   4.156 -1.4299 -0.0130  1.1276
  543MOL0     H74882  10.546   4.142   4.079  0.1932  0.3874  1.1721
  543MOL0     H74883  10.738   4.067   3.867 -1.7888  1.9348  0.2200
  543MOL0     H74884  10.905   4.214   3.707  0.3143 -1.4717 -0.7019
  543MOL0     H74885  11.037   4.112   3.758  1.3926  0.7058 -0.0009
  543MOL0     H74886  11.048   4.425   3.760  3.5428  1.8405  0.8924
  543MOL0     H74887  11.134   4.315   3.872  0.4410  0.8592 -0.1330
  543MOL0     H74888  11.233   4.211   3.653 -1.3390 -0.8178 -1.2905
  543MOL0     H74889  11.114   4.299   3.561 -1.2390  0.5489  0.2894
  543MOL0     H74890  11.199   4.513   3.610 -0.2141 -1.2272 -1.7903
  543MOL0     H74891  11.315   4.454   3.731  3.3713 -0.3762  0.0723
  543MOL0     H74892  11.415   4.630   3.675  0.6374  1.2948  0.1721
  543MOL0     H74893  11.567   4.913   3.626 -2.4019 -0.6286  0.9312
  543MOL0     H74894  11.681   4.799   3.704  0.7776  2.2379 -0.0800
  543MOL0     H74895  11.514   4.801   3.749  0.6272  0.9130  1.4499
  543MOL0     H74896  11.737   5.095   3.259 -1.0342  1.8428  3.0047
  543MOL0     H74897  11.935   5.207   3.158  3.7796  0.5032 -0.7409
  543MOL0     H74898  12.324   5.130   3.345 -3.1981  1.4897  1.6527
  543MOL0     H74899  12.269   5.046   3.209  2.7588  0.4949 -0.1362
  543MOL0     H74900  12.318   5.220   3.054  1.3229  0.3382 -0.6296
  543MOL0     H74901  12.393   5.310   3.181  1.6672 -1.5827  2.5949
  543MOL0     H74902  12.461   5.014   3.114  2.3905 -1.2573 -2.1239
  543MOL0     H74903  12.561   5.123   3.204  1.3610  2.6451 -0.9042
  543MOL0     H74904  12.524   5.166   2.901  0.0609  2.2065 -0.0472
  543MOL0     H74905  12.641   5.055   2.978 -0.9830  0.0945  1.9471
  543MOL0     H74906  12.751   5.262   2.919 -0.6718  2.4992 -1.3982
  543MOL0     H74907  12.633   5.361   3.000  2.2030  1.0654  0.4410
  543MOL0     H74908  12.833   5.164   3.135 -1.2174 -0.3968  0.7973
  543MOL0     H74909  12.704   5.270   3.216 -0.9303 -1.6952  0.0075
  543MOL0     H74910  12.866   5.426   3.250 -0.2565 -2.9483  1.1528
  543MOL0     H74911  12.821   5.459   3.074  1.4036  2.0743  0.8118
  543MOL0     H74912  13.048   5.453   3.076 -1.2458  0.0913  1.6614
  543MOL0     H74913  12.995   5.302   3.004 -2.2801 -0.4929 -0.5595
  543MOL0     H74914  12.161   5.075   3.511 -0.8624 -1.7247 -0.5985
  543MOL0     H74915  11.993   4.948   3.584 -1.1613 -0.9045 -0.3949
  543MOL0     H74916  11.678   4.541   3.272  2.0227 -0.5175  1.8330
  543MOL0     H74917  11.498   4.405   3.326  1.9804 -1.0707  0.4631
  543MOL0     H74918   9.842   4.295   4.243 -0.0832  3.1734  1.0057
  543MOL0     H74919   9.622   4.344   4.181  1.3637 -0.7211 -0.7720
  543MOL0     H74920   9.245   4.459   4.210  2.9641 -2.0285  0.0838
  543MOL0     H74921   9.023   4.508   4.105 -0.5272 -0.6405 -0.1749
  543MOL0     H74922   8.786   4.511   4.072 -0.3000  2.9674 -1.4828
  543MOL0     H74923   8.883   4.508   3.921  0.4767 -1.8050 -1.1136
  543MOL0     H74924   8.642   4.566   3.882  1.6608 -1.9460 -4.1276
  543MOL0     H74925   8.600   4.423   3.988  0.5856 -1.5288  1.5262
  543MOL0     H74926   8.735   4.461   3.707  0.4880  1.6601  1.9733
  543MOL0     H74927   8.758   4.315   3.777  0.0288  1.1681  0.5526
  543MOL0     H74928   8.539   4.234   3.768 -1.1300 -0.2161 -0.2962
  543MOL0     H74929   8.574   4.271   3.608  2.8584  1.0716 -0.1256
  543MOL0     H74930   8.268   4.554   3.666 -1.0055 -0.2379  3.5307
  543MOL0     H74931   8.956   4.093   4.049 -0.6602  0.8588 -0.5930
  543MOL0     H74932   9.259   3.978   4.071  1.3033  0.2111  1.8270
  543MOL0     H74933   9.216   3.971   4.247  0.3121 -1.2803 -0.1668
  543MOL0     H74934   9.095   3.942   4.114  0.8550 -0.1953 -1.8516
  544MOL0     O74935   9.474   5.787   0.436 -0.6779 -0.4067 -0.1141
  544MOL0     C74936   9.400   5.874   0.406  0.5910 -0.2332  0.8495
  544MOL0     O74937   9.311   5.933   0.487 -0.5483 -0.3968  0.6961
  544MOL0     C74938   9.315   5.912   0.624  0.3657 -0.2407 -0.3611
  544MOL0     C74939   9.407   5.990   0.702 -0.3351  0.4290 -0.9293
  544MOL0     C74940   9.410   5.981   0.843 -0.1861 -0.5535 -0.2058
  544MOL0     C74941   9.330   5.881   0.898 -0.1478 -0.1785 -0.3441
  544MOL0     O74942   9.334   5.862   1.033  0.5161 -0.4024 -0.6879
  544MOL0     C74943   9.460   5.827   1.088  0.4584 -0.2981  0.5676
  544MOL0     C74944   9.457   5.708   1.177  0.0569 -0.3498 -0.1874
  544MOL0     C74945   9.399   5.580   1.113  0.6462  0.1909  0.4667
  544MOL0     C74946   9.484   5.522   1.010  0.3606  0.0924 -0.7720
  544MOL0     C74947   9.399   5.412   0.933  0.5354 -0.1884  0.1829
  544MOL0     C74948   9.477   5.367   0.803 -0.5393  0.1239 -0.0838
  544MOL0     C74949   9.632   5.330   0.819 -1.1193 -0.2414  0.5803
  544MOL0     C74950   9.709   5.283   0.692 -0.0000 -0.6448 -0.6498
  544MOL0     N74951   9.699   5.138   0.703 -0.1763 -0.2312 -0.3272
  544MOL0     C74952   9.819   5.069   0.708 -0.0396 -0.0466 -0.1944
  544MOL0     C74953   9.774   4.940   0.717  0.7827 -0.4638 -0.8390
  544MOL0     C74954   9.860   4.822   0.725 -0.6356  0.2918  0.0872
  544MOL0     C74955   9.891   4.775   0.586 -0.7927  0.0369 -0.1560
  544MOL0     C74956   9.779   4.759   0.485  0.1987  0.8487  0.8549
  544MOL0     C74957   9.832   4.716   0.345  0.1512  0.5411  0.0580
  544MOL0     O74958   9.851   4.575   0.363  0.0326  0.0310  0.1288
  544MOL0     C74959   9.944   4.511   0.284 -0.2463 -0.2683 -0.2882
  544MOL0     C74960   9.946   4.548   0.150  0.2381  0.0363 -0.0302
  544MOL0     C74961  10.037   4.487   0.059  0.3227  0.4819 -0.0109
  544MOL0     C74962  10.029   4.535  -0.079 -0.3135  0.7698 -0.2679
  544MOL0     C74963  10.131   4.387   0.109  0.2890 -0.4651 -0.5433
  544MOL0     C74964  10.227   4.307   0.031 -0.2545  0.3840  0.1261
  544MOL0     O74965  10.277   4.364  -0.081 -0.3894 -0.3131  0.7014
  544MOL0     C74966  10.384   4.299  -0.147  0.2564 -0.0097  0.6695
  544MOL0     C74967  10.495   4.254  -0.084 -0.2520 -0.5057  0.1093
  544MOL0     C74968  10.594   4.185  -0.151  0.5193  0.1352  0.5704
  544MOL0     C74969  10.584   4.168  -0.292 -0.4751 -0.3962 -0.1040
  544MOL0     O74970  10.691   4.098  -0.352 -0.6934  0.7091  0.5272
  544MOL0     C74971  10.704   4.086  -0.494  0.2446  0.1780  0.6634
  544MOL0     C74972  10.769   4.213  -0.545  0.1694 -0.4862 -0.2414
  544MOL0     C74973  10.742   4.232  -0.692 -0.5634  0.9468  0.6899
  544MOL0     C74974  10.844   4.148  -0.780  0.2367 -0.8018 -0.4488
  544MOL0     C74975  10.971   4.228  -0.809  0.0209  0.0038 -0.1429
  544MOL0     C74976  11.083   4.148  -0.875 -0.3900  0.5091 -0.3516
  544MOL0     C74977  11.040   4.104  -1.019  0.0631 -0.5651 -0.6676
  544MOL0     C74978  11.147   4.035  -1.095 -0.1072  0.6357  0.4008
  544MOL0    Cl74979  11.248   4.172  -1.145 -0.5823 -0.1555 -0.5751
  544MOL0     C74980  10.470   4.212  -0.356  0.1527 -0.2058  0.5004
  544MOL0     C74981  10.368   4.276  -0.284 -1.0119  0.5885  0.4196
  544MOL0     O74982  10.277   4.201   0.082  0.6103  0.3068  0.0196
  544MOL0     C74983  10.124   4.347   0.244  0.0076  0.1167  0.2857
  544MOL0     C74984  10.031   4.415   0.331  0.5951 -0.5121  0.0269
  544MOL0     N74985   9.640   4.940   0.724 -0.0072  0.1445 -0.1431
  544MOL0     N74986   9.593   5.056   0.710 -0.2739  0.1230  0.0304
  544MOL0     C74987   9.242   5.797   0.819 -0.2944  0.0822 -0.2985
  544MOL0     C74988   9.234   5.814   0.689 -0.3101  0.0924 -0.4968
  544MOL0     C74989   9.388   5.911   0.268 -0.2406 -0.9351  0.1629
  544MOL0     C74990   9.257   5.906   0.210 -0.3408 -0.2523  0.2503
  544MOL0     C74991   9.238   5.948   0.081  0.3821  0.7429  0.4706
  544MOL0     C74992   9.340   5.970  -0.007 -0.3890  0.3638  0.8010
  544MOL0     O74993   9.329   5.984  -0.145 -0.6971 -0.2182  0.1882
  544MOL0     C74994   9.205   6.022  -0.199  0.8327 -0.4358  0.6518
  544MOL0     C74995   9.234   6.127  -0.306  0.0470  0.0209 -0.0291
  544MOL0     C74996   9.318   6.070  -0.422  0.1748 -0.0877 -0.7218
  544MOL0     C74997   9.309   6.161  -0.537  0.1256 -0.5245 -0.2991
  544MOL0     C74998   9.225   6.101  -0.643 -0.6375 -0.5870 -0.3930
  544MOL0     C74999   9.133   6.049  -0.704 -0.7492 -0.2196  0.1005
  544MOL0     C75000   9.469   5.970   0.050  0.4076 -0.7521  0.5687
  544MOL0     C75001   9.490   5.947   0.184  0.8947  0.5219 -0.3313
  544MOL0     C75002   9.630   5.951   0.233 -0.0406 -0.1530 -0.2960
  544MOL0     H75003   9.464   6.064   0.646 -0.5462  1.4800  0.2223
  544MOL0     H75004   9.468   6.051   0.903 -3.0509  1.6688  0.2146
  544MOL0     H75005   9.497   5.916   1.141 -3.5485  1.0519  1.4396
  544MOL0     H75006   9.527   5.802   1.005 -0.6000  0.9558 -0.7044
  544MOL0     H75007   9.550   5.683   1.230  0.5555 -1.8135 -1.6414
  544MOL0     H75008   9.392   5.735   1.260  0.5113 -0.6046  0.2543
  544MOL0     H75009   9.405   5.509   1.196  0.4804  1.2658  1.4299
  544MOL0     H75010   9.293   5.589   1.084  0.7971 -2.4254 -1.1762
  544MOL0     H75011   9.504   5.598   0.934  2.7673  2.8263  2.2843
  544MOL0     H75012   9.583   5.489   1.045 -0.1215 -2.2575 -1.4461
  544MOL0     H75013   9.299   5.449   0.909  1.0943  1.0556 -0.3333
  544MOL0     H75014   9.387   5.328   1.002  0.1497  0.0502  0.4135
  544MOL0     H75015   9.428   5.279   0.761  3.1924 -2.7384  1.0366
  544MOL0     H75016   9.485   5.448   0.729  1.1239  0.6817  0.6579
  544MOL0     H75017   9.655   5.264   0.904 -1.6108 -2.4386 -0.9129
  544MOL0     H75018   9.670   5.430   0.844 -1.1065 -0.2877  0.7466
  544MOL0     H75019   9.668   5.325   0.600  0.2655 -0.3891 -0.6518
  544MOL0     H75020   9.813   5.314   0.699 -0.8282  2.0912  3.0632
  544MOL0     H75021   9.919   5.113   0.708  0.2302 -0.6537 -0.3991
  544MOL0     H75022   9.810   4.740   0.777  1.1315 -2.4678 -2.3089
  544MOL0     H75023   9.955   4.837   0.777 -1.1417 -0.3349  1.2452
  544MOL0     H75024   9.969   4.841   0.547 -0.4489 -0.0355  0.4071
  544MOL0     H75025   9.950   4.684   0.595 -0.5034  0.2881  0.5954
  544MOL0     H75026   9.694   4.697   0.515 -0.5706  1.7021  0.5140
  544MOL0     H75027   9.737   4.858   0.465  1.3182  0.7559 -2.6668
  544MOL0     H75028   9.767   4.734   0.259  3.2310 -0.6430 -2.7454
  544MOL0     H75029   9.929   4.763   0.327  1.1459 -0.8518  1.5142
  544MOL0     H75030   9.882   4.625   0.108 -2.7895 -1.5424  1.3709
  544MOL0     H75031  10.003   4.458  -0.153  0.9137  1.4047 -1.3914
  544MOL0     H75032  10.120   4.588  -0.107  0.5928 -0.0106  1.0725
  544MOL0     H75033   9.946   4.606  -0.080 -0.2055  0.8928 -0.4589
  544MOL0     H75034  10.517   4.270   0.021 -0.7071  0.2948  0.0865
  544MOL0     H75035  10.687   4.159  -0.102  1.6439  1.5641 -0.6834
  544MOL0     H75036  10.774   4.008  -0.527 -2.8870 -1.8705 -1.7547
  544MOL0     H75037  10.607   4.064  -0.539  1.2457 -1.5042 -0.7775
  544MOL0     H75038  10.721   4.294  -0.489  1.6894  0.8819 -0.8441
  544MOL0     H75039  10.874   4.215  -0.515 -0.6246 -3.1734  3.3525
  544MOL0     H75040  10.749   4.338  -0.719 -0.0313  1.0287  1.1294
  544MOL0     H75041  10.641   4.193  -0.709  1.0988 -4.2472  1.1207
  544MOL0     H75042  10.789   4.127  -0.872 -1.7113 -0.3293  0.5438
  544MOL0     H75043  10.861   4.045  -0.746 -3.6679 -1.4252  0.0875
  544MOL0     H75044  10.947   4.299  -0.889  1.0617 -1.7427 -2.0906
  544MOL0     H75045  10.995   4.276  -0.713  2.8857  0.6212 -1.1052
  544MOL0     H75046  11.113   4.062  -0.816 -1.1008  1.0718  0.8672
  544MOL0     H75047  11.171   4.213  -0.886 -0.7329  0.8388 -1.2802
  544MOL0     H75048  11.018   4.194  -1.076  1.0786  2.5658  3.4149
  544MOL0     H75049  10.945   4.051  -1.002 -0.9319  1.4584  0.4653
  544MOL0     H75050  11.112   3.980  -1.182  0.3344 -0.0132  0.6302
  544MOL0     H75051  11.207   3.975  -1.026  2.6628  0.2487 -2.1457
  544MOL0     H75052  10.460   4.197  -0.463 -0.6463 -0.0865  0.5473
  544MOL0     H75053  10.278   4.307  -0.337 -1.2965  0.3344  0.7543
  544MOL0     H75054  10.187   4.268   0.283 -1.4551 -0.7633  0.9615
  544MOL0     H75055  10.034   4.386   0.436  1.3089  0.1949  0.2146
  544MOL0     H75056   9.188   5.719   0.871  1.0288 -0.1425  0.7811
  544MOL0     H75057   9.159   5.767   0.627 -1.0484  0.1178  0.3602
  544MOL0     H75058   9.171   5.863   0.260 -1.0103  0.3838 -0.3384
  544MOL0     H75059   9.135   5.947   0.046  0.6025  2.0192 -0.2692
  544MOL0     H75060   9.148   5.937  -0.239 -1.5138  0.7992  1.1640
  544MOL0     H75061   9.138   6.072  -0.129  2.2535  1.2587  0.8623
  544MOL0     H75062   9.290   6.202  -0.249  2.6840 -2.8731  1.5454
  544MOL0     H75063   9.142   6.177  -0.336 -1.4781 -1.8907  1.2148
  544MOL0     H75064   9.422   6.054  -0.394 -0.0531 -0.8857 -0.3085
  544MOL0     H75065   9.270   5.974  -0.444 -1.1126  0.7773 -1.9116
  544MOL0     H75066   9.412   6.173  -0.573  1.0150 -1.5132  1.7261
  544MOL0     H75067   9.273   6.259  -0.505 -0.2251 -1.5107  2.6244
  544MOL0     H75068   9.050   6.008  -0.759 -0.1138  1.3497 -2.1563
  544MOL0     H75069   9.555   5.988  -0.014 -1.3058  1.3998 -1.3353
  544MOL0     H75070   9.678   5.855   0.255  0.2875 -0.1593 -1.0390
  544MOL0     H75071   9.684   6.010   0.159 -5.4719  2.7607 -2.5273
  544MOL0     H75072   9.632   5.990   0.336  2.7734 -0.7545 -0.0431
  545MOL0     O75073   9.393   1.774   2.952  0.7506  0.8255 -0.0299
  545MOL0     C75074   9.437   1.806   3.059 -0.0146  0.3536 -0.4227
  545MOL0     O75075   9.556   1.752   3.116 -0.1504  0.5550  0.0070
  545MOL0     C75076   9.640   1.660   3.062 -0.0768 -0.0803 -0.3558
  545MOL0     C75077   9.779   1.679   3.085 -0.3567  0.0009 -0.4375
  545MOL0     C75078   9.860   1.571   3.050  0.7412  0.6887 -0.1924
  545MOL0     C75079   9.812   1.446   3.001  0.9063  0.5436 -0.0900
  545MOL0     O75080   9.904   1.341   2.981 -0.1304  0.3857  0.2088
  545MOL0     C75081   9.887   1.279   2.850  0.2665 -0.6463  0.1614
  545MOL0     C75082   9.985   1.176   2.815  0.1490  0.8992  0.7039
  545MOL0     C75083  10.128   1.225   2.793  0.1186 -0.7526  0.7396
  545MOL0     C75084  10.206   1.280   2.914 -0.4492 -0.0654 -0.1027
  545MOL0     C75085  10.296   1.400   2.876  0.3463  0.0487 -0.2818
  545MOL0     C75086  10.395   1.444   2.988 -0.1176 -0.7423  0.0862
  545MOL0     C75087  10.488   1.565   2.937  0.0382 -0.1574 -0.3434
  545MOL0     C75088  10.596   1.604   3.030  0.0200  0.5467  1.1547
  545MOL0     N75089  10.685   1.481   3.045  0.5648  0.1694  0.0052
  545MOL0     C75090  10.701   1.421   3.167  0.0991  0.7681  0.2071
  545MOL0     C75091  10.776   1.314   3.148  0.5840 -0.0509 -1.5096
  545MOL0     C75092  10.834   1.234   3.258 -0.9785  0.0183 -0.8712
  545MOL0     C75093  10.981   1.250   3.289  0.2996  0.0597  0.2932
  545MOL0     C75094  11.029   1.114   3.349  0.0636 -0.2506  0.4109
  545MOL0     C75095  11.175   1.136   3.388 -0.6976  0.6139  0.5069
  545MOL0     O75096  11.223   1.027   3.474 -0.3269  0.8927  0.2620
  545MOL0     C75097  11.357   1.039   3.509  0.6771 -0.0592 -0.3449
  545MOL0     C75098  11.442   1.142   3.462  0.0478  0.1733 -0.1253
  545MOL0     C75099  11.579   1.136   3.490  0.0049  0.2132  0.1065
  545MOL0     C75100  11.652   1.259   3.446 -0.6622  0.3537  1.0960
  545MOL0     C75101  11.641   1.027   3.561  0.6615 -0.7594 -1.2144
  545MOL0     C75102  11.788   1.021   3.586 -0.0670 -0.4477  0.6499
  545MOL0     O75103  11.832   0.955   3.698  0.1276  0.2925 -0.3458
  545MOL0     C75104  11.962   0.933   3.722  0.9416  0.2854 -0.1136
  545MOL0     C75105  11.993   0.919   3.855 -0.3832  0.3680 -0.5983
  545MOL0     C75106  12.124   0.906   3.898 -0.1083 -0.6006 -0.8271
  545MOL0     C75107  12.235   0.904   3.808 -0.4772 -0.1437 -0.4407
  545MOL0     O75108  12.362   0.892   3.853 -0.1910  0.3550  0.0824
  545MOL0     C75109  12.440   0.796   3.782 -0.6496  0.4689  0.1502
  545MOL0     C75110  12.591   0.819   3.804 -0.0667 -0.0995  0.7413
  545MOL0     C75111  12.654   0.763   3.923 -0.2424  0.0319 -1.2265
  545MOL0     C75112  12.640   0.614   3.932 -0.1993  0.4778 -0.7188
  545MOL0     C75113  12.724   0.575   4.050 -0.8463 -0.4112 -0.2767
  545MOL0     C75114  12.713   0.432   4.100  0.5876 -0.7844 -0.4996
  545MOL0     C75115  12.770   0.423   4.245  0.1816  0.6625  0.3353
  545MOL0     C75116  12.815   0.280   4.290 -1.0914 -0.7779 -0.5741
  545MOL0    Cl75117  12.951   0.212   4.187 -0.1827 -0.0145  0.2240
  545MOL0     C75118  12.197   0.913   3.671  0.6067  0.6385 -0.0204
  545MOL0     C75119  12.066   0.928   3.629  0.3729 -0.1487 -0.6501
  545MOL0     O75120  11.855   1.073   3.492  0.5271  0.5900 -0.4185
  545MOL0     C75121  11.551   0.940   3.621  0.1027  0.3605  0.3548
  545MOL0     C75122  11.410   0.947   3.592  0.8727  1.1589  0.4029
  545MOL0     N75123  10.806   1.313   3.013  0.0024  0.8978  0.0749
  545MOL0     N75124  10.750   1.416   2.946 -0.2393 -0.3858 -0.4194
  545MOL0     C75125   9.674   1.428   2.976 -0.1312  0.2670 -0.0781
  545MOL0     C75126   9.585   1.538   3.011  0.2285  0.1454 -0.0631
  545MOL0     C75127   9.374   1.912   3.146  0.1116  0.1006 -1.0442
  545MOL0     C75128   9.413   1.924   3.287 -0.1626 -0.1732  0.0435
  545MOL0     C75129   9.357   2.023   3.371  0.4230  0.4150  0.1249
  545MOL0     C75130   9.271   2.117   3.326 -0.0162  0.0681 -0.0008
  545MOL0     O75131   9.235   2.211   3.410  0.7514 -0.6160 -0.6563
  545MOL0     C75132   9.147   2.176   3.520  0.4584  0.0838 -0.3006
  545MOL0     C75133   9.117   2.302   3.600  0.4573 -0.2587  0.3743
  545MOL0     C75134   9.056   2.417   3.523 -0.6570  0.0854  0.0422
  545MOL0     C75135   8.911   2.394   3.480 -0.4572 -0.1492  0.9213
  545MOL0     C75136   8.858   2.503   3.397 -0.2356 -0.6770 -0.0195
  545MOL0     C75137   8.814   2.593   3.326 -0.5170 -0.0104  0.8116
  545MOL0     C75138   9.239   2.112   3.192  0.8503 -0.0630  0.1440
  545MOL0     C75139   9.281   2.010   3.105  0.0165  0.5325 -0.6815
  545MOL0     C75140   9.241   2.034   2.964  0.7547 -0.2229  0.8318
  545MOL0     H75141   9.818   1.768   3.134 -0.4725  1.3216 -2.6207
  545MOL0     H75142   9.967   1.572   3.068  0.9534 -2.2373 -0.7790
  545MOL0     H75143   9.897   1.356   2.773  0.4527  2.3745  2.9956
  545MOL0     H75144   9.788   1.233   2.844 -0.0058  0.0348 -0.8844
  545MOL0     H75145   9.984   1.098   2.892 -0.4201 -1.3257 -1.4378
  545MOL0     H75146   9.942   1.123   2.730  1.8293 -1.1716  1.0419
  545MOL0     H75147  10.169   1.129   2.759 -0.5538 -0.1741 -1.9050
  545MOL0     H75148  10.131   1.290   2.706  0.2289 -3.5249 -1.4806
  545MOL0     H75149  10.135   1.319   2.987  0.7372  1.8246  0.0899
  545MOL0     H75150  10.269   1.201   2.955  0.0264  0.8416  0.9524
  545MOL0     H75151  10.223   1.475   2.846 -0.5532 -0.8943 -0.5363
  545MOL0     H75152  10.361   1.371   2.794  2.9825 -1.8640  2.2569
  545MOL0     H75153  10.337   1.481   3.074  1.5701 -0.5125  1.1719
  545MOL0     H75154  10.448   1.355   3.023 -1.8214 -1.6657  0.4186
  545MOL0     H75155  10.429   1.656   2.920  3.2464  2.8200  2.8088
  545MOL0     H75156  10.543   1.533   2.848 -1.0246 -1.7753 -0.4655
  545MOL0     H75157  10.649   1.690   2.989  1.2653 -0.0325  1.5035
  545MOL0     H75158  10.542   1.631   3.122 -0.8372  2.0279  0.2576
  545MOL0     H75159  10.643   1.448   3.255 -4.6038 -2.0020 -1.6705
  545MOL0     H75160  10.826   1.129   3.229 -1.0043  0.5095 -2.7694
  545MOL0     H75161  10.781   1.249   3.353  0.3138 -0.7293 -0.0012
  545MOL0     H75162  11.041   1.286   3.205 -0.8921  2.1962  0.2657
  545MOL0     H75163  11.006   1.321   3.369  1.7781  0.5329 -0.5565
  545MOL0     H75164  10.966   1.092   3.436  0.6446 -2.7046  0.2909
  545MOL0     H75165  11.034   1.033   3.275 -0.5461  2.4993 -2.9297
  545MOL0     H75166  11.235   1.134   3.297  0.5301 -0.2772  1.2984
  545MOL0     H75167  11.178   1.228   3.448 -3.1413  2.0725 -1.4013
  545MOL0     H75168  11.404   1.222   3.400 -1.9618 -0.7583 -0.1673
  545MOL0     H75169  11.588   1.344   3.419 -0.4224  0.0749 -0.4511
  545MOL0     H75170  11.714   1.246   3.357  1.2898  0.9594  2.3003
  545MOL0     H75171  11.718   1.303   3.521  1.0477  0.4530 -0.4082
  545MOL0     H75172  11.917   0.917   3.932 -1.8604 -2.8517 -1.9295
  545MOL0     H75173  12.142   0.909   4.005 -1.2855  0.0595 -0.6289
  545MOL0     H75174  12.403   0.699   3.818  0.3891 -1.5471 -3.6031
  545MOL0     H75175  12.427   0.795   3.673 -0.9532 -0.0175  0.1870
  545MOL0     H75176  12.653   0.784   3.722  0.4228 -1.1956  1.5467
  545MOL0     H75177  12.599   0.928   3.806  0.6900  0.0577 -3.3837
  545MOL0     H75178  12.613   0.812   4.012 -2.1681 -1.1661 -1.3828
  545MOL0     H75179  12.760   0.789   3.929  0.0545 -1.3574  0.2302
  545MOL0     H75180  12.664   0.558   3.842  2.3689 -3.1695  1.9596
  545MOL0     H75181  12.538   0.584   3.960  1.2479 -1.3649  3.4128
  545MOL0     H75182  12.830   0.595   4.034 -0.6171 -2.1404 -1.1101
  545MOL0     H75183  12.694   0.649   4.125 -1.7307  1.0327 -1.9835
  545MOL0     H75184  12.774   0.368   4.035  0.8270 -3.4800  2.1112
  545MOL0     H75185  12.611   0.393   4.112  1.0474 -1.3214  2.3886
  545MOL0     H75186  12.704   0.458   4.324  3.0692  4.5774  1.3204
  545MOL0     H75187  12.863   0.480   4.247  3.3261 -3.9211  0.0490
  545MOL0     H75188  12.732   0.210   4.278 -1.1124 -0.5883 -1.6102
  545MOL0     H75189  12.849   0.291   4.394 -1.8155  2.6521 -0.5900
  545MOL0     H75190  12.276   0.895   3.599  1.1435 -0.6709  0.8508
  545MOL0     H75191  12.043   0.927   3.523 -1.8432  2.9759 -0.3256
  545MOL0     H75192  11.605   0.872   3.687 -0.3320  1.6614  2.1426
  545MOL0     H75193  11.348   0.871   3.638  0.6908  2.9291  3.3453
  545MOL0     H75194   9.621   1.336   2.953 -0.2760  0.2393  0.3473
  545MOL0     H75195   9.479   1.522   2.995  0.1128  2.1288 -1.8053
  545MOL0     H75196   9.487   1.855   3.327  2.0391  2.0523  0.0592
  545MOL0     H75197   9.381   2.011   3.476 -3.5651 -2.6496  0.9693
  545MOL0     H75198   9.053   2.143   3.475  0.8284  0.5801 -1.4726
  545MOL0     H75199   9.200   2.109   3.588 -1.3219 -1.0973 -0.0287
  545MOL0     H75200   9.212   2.333   3.646 -0.1313 -0.7193  1.9479
  545MOL0     H75201   9.049   2.269   3.679  0.8350 -1.5799  0.1816
  545MOL0     H75202   9.075   2.505   3.586 -0.1118 -0.8232  1.1810
  545MOL0     H75203   9.116   2.429   3.431 -1.0097  1.5920 -0.0164
  545MOL0     H75204   8.845   2.395   3.567  0.6571  0.1721  1.7901
  545MOL0     H75205   8.909   2.297   3.430  1.1337 -0.3229  1.1170
  545MOL0     H75206   8.746   2.649   3.266 -1.3404 -1.1447  0.6398
  545MOL0     H75207   9.194   2.205   3.157  3.1206  0.6019 -1.2087
  545MOL0     H75208   9.199   1.942   2.922  1.9302 -0.5298  0.3040
  545MOL0     H75209   9.149   2.094   2.957 -0.5932 -1.8316  3.2596
  545MOL0     H75210   9.321   2.070   2.899  1.3200 -0.0779  1.5857
  546MOL0     O75211   8.826   1.636   8.149 -0.3283  0.5333  0.2521
  546MOL0     C75212   8.871   1.736   8.090 -0.6138  0.6229  0.8352
  546MOL0     O75213   8.980   1.734   8.012 -0.4156 -0.9953  0.4911
  546MOL0     C75214   9.071   1.632   8.005  0.0573 -0.4190  0.4274
  546MOL0     C75215   9.040   1.506   7.967  0.2530 -0.0948  0.1906
  546MOL0     C75216   9.141   1.409   7.963  0.0148  0.0300  0.7074
  546MOL0     C75217   9.279   1.430   8.007  0.1543  0.4966  0.6046
  546MOL0     O75218   9.378   1.336   7.986 -0.1416 -0.4809 -0.2461
  546MOL0     C75219   9.365   1.208   7.914 -0.0203 -0.3909  0.4838
  546MOL0     C75220   9.497   1.141   7.894 -0.6287 -0.2947 -0.1716
  546MOL0     C75221   9.587   1.142   8.018  0.4671 -0.5207  0.3577
  546MOL0     C75222   9.712   1.065   7.979  0.8594  0.2758  0.1088
  546MOL0     C75223   9.822   1.093   8.080  0.0519  0.5945 -0.0059
  546MOL0     C75224   9.958   1.065   8.012 -0.4750  0.8312 -0.7996
  546MOL0     C75225  10.074   1.086   8.108  1.1596  0.3456  0.0538
  546MOL0     C75226  10.215   1.064   8.049 -0.3889  0.9801 -0.8622
  546MOL0     N75227  10.317   1.053   8.151 -0.9894 -0.2473  1.1111
  546MOL0     C75228  10.421   1.143   8.150 -0.2994 -0.9706 -0.3155
  546MOL0     C75229  10.497   1.113   8.255 -1.0947  0.5510 -0.7362
  546MOL0     C75230  10.618   1.184   8.298 -1.2376 -0.0879 -0.1131
  546MOL0     C75231  10.749   1.103   8.244  0.5395 -0.7327  0.3584
  546MOL0     C75232  10.763   0.965   8.312  0.1631 -0.6303  0.2908
  546MOL0     C75233  10.903   0.899   8.295  0.0097  0.2345 -0.2211
  546MOL0     O75234  10.990   0.938   8.406  0.6428  0.1162  0.4593
  546MOL0     C75235  11.107   0.991   8.369  0.2789 -0.3938  0.2579
  546MOL0     C75236  11.220   0.917   8.347 -0.4074  0.0596  0.3922
  546MOL0     C75237  11.345   0.982   8.315  0.4918  0.4305  0.5880
  546MOL0     C75238  11.474   0.894   8.311  0.5082  0.5490  0.1113
  546MOL0     C75239  11.354   1.121   8.308 -0.2852  1.0509  0.2843
  546MOL0     C75240  11.478   1.194   8.277 -0.3956 -1.4832  0.0205
  546MOL0     O75241  11.545   1.168   8.166  0.0367 -0.0840  0.0422
  546MOL0     C75242  11.665   1.230   8.140  1.4270  0.2201 -0.3215
  546MOL0     C75243  11.776   1.149   8.127  1.2311 -0.2270 -0.0680
  546MOL0     C75244  11.892   1.197   8.096 -0.1646  0.4297 -0.0144
  546MOL0     C75245  11.917   1.333   8.094  0.6535  0.5967  0.9223
  546MOL0     O75246  12.033   1.397   8.064  0.1763 -0.0739 -0.0193
  546MOL0     C75247  12.145   1.319   8.022 -1.0484 -0.1524 -0.3710
  546MOL0     C75248  12.229   1.427   7.937 -0.2200  0.4399 -0.0224
  546MOL0     C75249  12.311   1.522   8.027 -1.3760  0.1534  0.7287
  546MOL0     C75250  12.376   1.643   7.931  0.9299  0.4631  0.0126
  546MOL0     C75251  12.419   1.768   8.009 -0.2128 -0.4015  0.9978
  546MOL0     C75252  12.509   1.862   7.917  0.6917  1.2433  0.7458
  546MOL0     C75253  12.609   1.953   7.990  0.5522 -0.5460  0.9203
  546MOL0     C75254  12.664   1.905   8.115 -1.3675 -0.0398 -1.5577
  546MOL0    Cl75255  12.801   2.016   8.142 -0.0759 -0.0414 -0.4327
  546MOL0     C75256  11.806   1.412   8.116  1.3567 -0.4474 -0.1192
  546MOL0     C75257  11.680   1.364   8.135 -0.1594 -0.3554 -0.7395
  546MOL0     O75258  11.505   1.288   8.358  0.9219 -0.6508 -0.0339
  546MOL0     C75259  11.239   1.195   8.326 -1.0141  0.0295  0.0265
  546MOL0     C75260  11.112   1.136   8.357 -1.4983  1.0339  0.3934
  546MOL0     N75261  10.443   0.995   8.305 -0.6548 -0.3907 -0.2406
  546MOL0     N75262  10.344   0.955   8.240 -1.2385 -0.3166  0.7519
  546MOL0     C75263   9.297   1.555   8.058 -0.5027  0.1924  1.0964
  546MOL0     C75264   9.198   1.659   8.055 -0.4311 -0.3120  0.2212
  546MOL0     C75265   8.795   1.863   8.099  0.5167  0.1606  0.0338
  546MOL0     C75266   8.655   1.846   8.119 -0.5789  0.0440  0.1420
  546MOL0     C75267   8.568   1.954   8.101  0.6727  0.8471  0.3222
  546MOL0     C75268   8.616   2.082   8.082  0.7354  0.7902  0.2940
  546MOL0     O75269   8.539   2.192   8.058 -0.0776 -0.1700  0.1772
  546MOL0     C75270   8.400   2.183   8.088 -0.9966 -0.1976 -0.0648
  546MOL0     C75271   8.357   2.227   8.227 -0.4046 -0.1820 -0.8484
  546MOL0     C75272   8.451   2.173   8.338 -0.9927 -0.3519  0.0062
  546MOL0     C75273   8.450   2.238   8.477  1.1792 -0.0004 -0.5498
  546MOL0     C75274   8.523   2.357   8.486  0.6178  0.5491  0.7388
  546MOL0     C75275   8.593   2.458   8.476  0.0306 -0.0494  1.2893
  546MOL0     C75276   8.755   2.101   8.072 -0.1355 -0.2089  0.0443
  546MOL0     C75277   8.847   2.000   8.078 -0.0886  0.7299 -0.7288
  546MOL0     C75278   8.995   2.034   8.078  0.3424 -0.3441 -0.1271
  546MOL0     H75279   8.944   1.491   7.917 -0.2625 -0.4107  1.2295
  546MOL0     H75280   9.114   1.307   7.935 -1.6887  0.3797  0.9894
  546MOL0     H75281   9.320   1.234   7.818  0.9202  3.0171  0.8386
  546MOL0     H75282   9.298   1.142   7.970  2.2662  0.1055  4.1011
  546MOL0     H75283   9.471   1.037   7.870  0.6418 -1.1630  1.9166
  546MOL0     H75284   9.550   1.182   7.807  1.6897  0.2918  1.4137
  546MOL0     H75285   9.603   1.249   8.032 -0.1433 -0.4145  0.2683
  546MOL0     H75286   9.539   1.109   8.110 -0.0087  2.9123  1.4456
  546MOL0     H75287   9.689   0.959   7.968  1.5773  0.2092 -0.8985
  546MOL0     H75288   9.743   1.099   7.880  1.3627 -1.0459 -0.2070
  546MOL0     H75289   9.807   1.025   8.164  3.4659 -1.9826 -1.2180
  546MOL0     H75290   9.821   1.199   8.105 -1.6194  1.3159 -2.6856
  546MOL0     H75291   9.945   0.963   7.973 -3.7886  1.8866 -2.8835
  546MOL0     H75292   9.981   1.123   7.922 -1.0590  1.4707 -0.5483
  546MOL0     H75293  10.047   1.026   8.195 -2.0226  3.2948  1.3096
  546MOL0     H75294  10.080   1.187   8.149 -0.2248  0.1936  0.6786
  546MOL0     H75295  10.217   0.968   7.995  1.2326 -0.2933  1.2652
  546MOL0     H75296  10.238   1.143   7.977 -1.0859  2.6584  0.6833
  546MOL0     H75297  10.455   1.218   8.079  3.4871 -1.8808  0.3103
  546MOL0     H75298  10.628   1.186   8.407 -1.6035 -1.5240 -0.0314
  546MOL0     H75299  10.627   1.286   8.258 -2.1540 -0.2838 -0.8586
  546MOL0     H75300  10.730   1.093   8.137 -1.1492 -1.9511  0.7369
  546MOL0     H75301  10.829   1.173   8.270 -0.1759  0.3411 -0.2947
  546MOL0     H75302  10.748   0.970   8.420  0.1410  2.3671  0.2399
  546MOL0     H75303  10.693   0.897   8.262 -0.9427 -0.0722  1.0618
  546MOL0     H75304  10.889   0.790   8.298 -2.4682  0.5364  0.8649
  546MOL0     H75305  10.936   0.927   8.195 -1.0338  0.4805 -0.5024
  546MOL0     H75306  11.222   0.809   8.353  1.0899  0.1365  2.2262
  546MOL0     H75307  11.537   0.908   8.399  2.5812 -3.7138 -0.4475
  546MOL0     H75308  11.534   0.896   8.220 -0.3228 -2.0622 -0.5871
  546MOL0     H75309  11.435   0.792   8.317 -0.6021  1.0179  2.0130
  546MOL0     H75310  11.770   1.044   8.153  2.6002  0.3140  2.9312
  546MOL0     H75311  11.972   1.126   8.076 -0.8616 -0.1744 -0.7027
  546MOL0     H75312  12.200   1.303   8.115 -0.8583 -0.0148 -0.4591
  546MOL0     H75313  12.127   1.228   7.963  1.4353 -0.6627 -0.4506
  546MOL0     H75314  12.302   1.367   7.880  0.7041  3.2610 -1.9988
  546MOL0     H75315  12.175   1.477   7.857  1.9438  1.7607 -0.7490
  546MOL0     H75316  12.389   1.459   8.070  0.9578  4.0993  2.7909
  546MOL0     H75317  12.242   1.564   8.101 -0.0624 -0.4418  2.3483
  546MOL0     H75318  12.297   1.678   7.864  1.2403 -2.1050 -1.8640
  546MOL0     H75319  12.466   1.615   7.876  3.3820  0.6482  3.6384
  546MOL0     H75320  12.327   1.818   8.042 -0.6562  0.5674 -1.4994
  546MOL0     H75321  12.472   1.748   8.102 -1.7775 -0.1696  1.9828
  546MOL0     H75322  12.449   1.930   7.856 -3.9921 -1.4563  1.8264
  546MOL0     H75323  12.580   1.805   7.855 -1.5786  0.2378 -1.0897
  546MOL0     H75324  12.551   2.043   8.013  3.1429  1.7258 -0.8718
  546MOL0     H75325  12.692   1.982   7.926  1.2292  2.0140  2.7960
  546MOL0     H75326  12.696   1.800   8.119 -0.3584  0.2741 -1.1344
  546MOL0     H75327  12.590   1.905   8.196 -1.5364 -4.1853 -1.4800
  546MOL0     H75328  11.823   1.519   8.123  1.7767 -0.5243  0.0509
  546MOL0     H75329  11.599   1.435   8.147  1.6112  1.8667 -1.1778
  546MOL0     H75330  11.230   1.303   8.318 -2.6863 -0.0893 -0.0914
  546MOL0     H75331  11.019   1.190   8.371 -1.3544  1.2744  0.4231
  546MOL0     H75332   9.399   1.575   8.088 -0.1479  1.0270 -0.5834
  546MOL0     H75333   9.215   1.764   8.077  0.8620 -0.4345 -0.1206
  546MOL0     H75334   8.607   1.753   8.148  0.9620 -0.7465  0.2350
  546MOL0     H75335   8.463   1.933   8.088  0.4595  0.3674  2.4202
  546MOL0     H75336   8.347   2.254   8.023  0.4841  2.1588  1.1953
  546MOL0     H75337   8.357   2.083   8.076 -2.9853  0.7045 -1.0429
  546MOL0     H75338   8.250   2.223   8.248  0.1935 -0.9861  2.7052
  546MOL0     H75339   8.376   2.335   8.217  0.2903 -0.4633 -3.0239
  546MOL0     H75340   8.427   2.067   8.354  2.4254 -1.5584 -1.8210
  546MOL0     H75341   8.558   2.188   8.319 -0.5661 -2.1134  0.7571
  546MOL0     H75342   8.493   2.176   8.556  0.2967 -1.9609 -1.5459
  546MOL0     H75343   8.347   2.269   8.501  1.8941  1.5440  0.7310
  546MOL0     H75344   8.650   2.548   8.482  0.6976 -0.4493  1.0852
  546MOL0     H75345   8.784   2.205   8.056 -2.5183  0.2777 -1.6510
  546MOL0     H75346   9.034   2.025   7.976  0.0691  2.7271 -0.5966
  546MOL0     H75347   9.024   2.137   8.102  5.0270 -1.1611 -1.2712
  546MOL0     H75348   9.055   1.975   8.148  0.8826  1.0473  0.6231
  547MOL0     O75349   8.446  10.794   5.832  0.2662 -0.8257  0.5882
  547MOL0     C75350   8.520  10.895   5.856 -0.3131  1.1974 -0.3963
  547MOL0     O75351   8.468  11.017   5.883  0.0120 -0.7405 -0.1858
  547MOL0     C75352   8.331  11.032   5.868  0.1937 -0.0441 -0.3318
  547MOL0     C75353   8.232  10.937   5.907 -0.1479 -0.2879  0.3644
  547MOL0     C75354   8.094  10.962   5.900 -0.5456  0.0660  0.0422
  547MOL0     C75355   8.055  11.077   5.853  0.4242  0.2423  0.2661
  547MOL0     O75356   7.920  11.089   5.867 -0.0902  0.1044 -0.5255
  547MOL0     C75357   7.863  11.217   5.834  0.1528  0.5000 -0.0577
  547MOL0     C75358   7.841  11.222   5.685  0.0480 -0.7012  0.5520
  547MOL0     C75359   7.777  11.098   5.621 -0.3699 -0.2007 -0.3107
  547MOL0     C75360   7.699  11.138   5.493  0.2997 -0.1289  0.0373
  547MOL0     C75361   7.565  11.201   5.520 -0.2642 -0.0077 -0.2807
  547MOL0     C75362   7.459  11.094   5.558 -0.0343  0.3043  0.2744
  547MOL0     C75363   7.325  11.102   5.478 -0.1916  0.5421  0.6692
  547MOL0     C75364   7.246  11.224   5.501  0.3891 -0.3762 -0.5641
  547MOL0     N75365   7.182  11.217   5.635 -0.1486 -0.5081 -0.3093
  547MOL0     C75366   7.237  11.257   5.747 -0.0514  0.1864 -0.5215
  547MOL0     C75367   7.135  11.237   5.834  0.3301 -0.1858 -0.6925
  547MOL0     C75368   7.169  11.242   5.986  0.5513 -1.7444  1.0221
  547MOL0     C75369   7.217  11.116   6.055 -0.0934  0.2741  0.1618
  547MOL0     C75370   7.135  10.987   6.013  0.5859 -0.9671 -0.4754
  547MOL0     C75371   7.193  10.907   5.900 -0.0664  0.7531 -0.3994
  547MOL0     O75372   7.318  10.864   5.946 -0.7441  0.0452  0.5897
  547MOL0     C75373   7.395  10.813   5.841  0.0577  0.2849  0.3192
  547MOL0     C75374   7.527  10.812   5.852 -0.7016 -0.2813 -0.6380
  547MOL0     C75375   7.630  10.772   5.769 -0.3197  0.4571 -0.0684
  547MOL0     C75376   7.773  10.793   5.824 -0.4163 -0.9163 -0.3083
  547MOL0     C75377   7.581  10.703   5.649  0.7259  0.3473 -0.2302
  547MOL0     C75378   7.671  10.637   5.555  0.6005  0.5262  0.1152
  547MOL0     O75379   7.622  10.638   5.415 -0.2075 -0.2336 -0.3096
  547MOL0     C75380   7.703  10.574   5.322 -0.4532 -0.3176 -0.7608
  547MOL0     C75381   7.644  10.473   5.245 -0.2981  0.2042 -0.4283
  547MOL0     C75382   7.714  10.401   5.156 -0.5417 -0.3708  0.4649
  547MOL0     C75383   7.852  10.429   5.140  0.2368 -0.1262  0.6021
  547MOL0     O75384   7.905  10.343   5.045  0.0079 -0.0712 -0.3914
  547MOL0     C75385   7.971  10.421   4.952  0.0223 -0.2952  0.5675
  547MOL0     C75386   8.011  10.322   4.836  0.3237  1.1678 -0.1498
  547MOL0     C75387   8.024  10.400   4.702  0.2403 -0.2049  0.5425
  547MOL0     C75388   8.022  10.312   4.583  0.0968 -0.4224  0.3536
  547MOL0     C75389   8.032  10.379   4.453  0.0090 -0.0422  0.6234
  547MOL0     C75390   8.037  10.289   4.332 -0.2813  0.3174  0.4098
  547MOL0     C75391   8.023  10.371   4.202  0.1660 -0.5349 -0.9427
  547MOL0     C75392   8.055  10.260   4.100 -0.9857 -0.5256 -0.4371
  547MOL0    Cl75393   8.031  10.335   3.946  0.1459  0.5587  0.8624
  547MOL0     C75394   7.914  10.533   5.210  0.4437  0.5904  0.3512
  547MOL0     C75395   7.836  10.607   5.306 -0.7467 -0.2050 -0.7792
  547MOL0     O75396   7.760  10.574   5.598 -0.4031  0.8499 -0.5027
  547MOL0     C75397   7.444  10.692   5.639 -0.6647 -0.2537  0.5934
  547MOL0     C75398   7.346  10.738   5.735  0.0976 -1.2612  0.5700
  547MOL0     N75399   7.020  11.204   5.779 -0.3839  0.2460 -0.5594
  547MOL0     N75400   7.048  11.194   5.653 -0.2128  0.4813  0.1658
  547MOL0     C75401   8.152  11.168   5.798 -0.6854  0.3230 -0.5415
  547MOL0     C75402   8.290  11.144   5.796  0.4406  0.5498 -0.4571
  547MOL0     C75403   8.670  10.868   5.881  0.0755 -0.5907 -0.4849
  547MOL0     C75404   8.733  10.971   5.965  0.8752 -0.0114  0.1709
  547MOL0     C75405   8.863  10.959   5.993  0.0735  0.4668 -0.5898
  547MOL0     C75406   8.940  10.853   5.956 -0.2721  0.6614  0.2112
  547MOL0     O75407   9.068  10.861   6.011  0.4424  0.3286 -0.3667
  547MOL0     C75408   9.146  10.744   6.006 -0.1332 -0.2256 -0.1073
  547MOL0     C75409   9.229  10.752   5.873 -0.1879 -0.1175 -0.5358
  547MOL0     C75410   9.331  10.866   5.863  0.0656 -0.9338 -0.1768
  547MOL0     C75411   9.425  10.844   5.739  0.0535  0.0664 -0.5065
  547MOL0     C75412   9.504  10.967   5.724  1.2440 -0.6884  0.2964
  547MOL0     C75413   9.560  11.073   5.700  0.4679 -0.0514  0.4399
  547MOL0     C75414   8.882  10.757   5.871 -0.5926  0.0847 -0.4228
  547MOL0     C75415   8.750  10.761   5.826  1.3622 -0.7835 -0.4961
  547MOL0     C75416   8.706  10.637   5.748 -0.0851  0.6478 -0.3069
  547MOL0     H75417   8.255  10.844   5.958  2.0244  0.3146  0.5501
  547MOL0     H75418   8.023  10.884   5.925  1.2651 -1.7830 -0.2694
  547MOL0     H75419   7.931  11.295   5.870  0.6875  0.4743 -0.9854
  547MOL0     H75420   7.758  11.233   5.863 -1.8274 -2.9867 -4.1270
  547MOL0     H75421   7.781  11.311   5.665 -1.7902 -2.1889 -0.8440
  547MOL0     H75422   7.935  11.240   5.632 -2.0454  1.9186 -2.6440
  547MOL0     H75423   7.854  11.025   5.599 -0.6648 -0.8341  0.6710
  547MOL0     H75424   7.720  11.057   5.705  0.1240  1.3668  0.8471
  547MOL0     H75425   7.755  11.208   5.430  0.1538  0.9330  1.0571
  547MOL0     H75426   7.694  11.048   5.432 -0.1954  0.1409 -0.3330
  547MOL0     H75427   7.538  11.268   5.437 -0.1040 -1.2828 -1.4051
  547MOL0     H75428   7.591  11.261   5.607 -1.0407 -1.0488  0.6943
  547MOL0     H75429   7.497  10.994   5.537  3.1040  0.7833  2.8978
  547MOL0     H75430   7.432  11.087   5.664 -2.8457 -3.5341 -0.4753
  547MOL0     H75431   7.258  11.019   5.503  0.2105  0.3139  0.9976
  547MOL0     H75432   7.345  11.097   5.370  1.5053  0.4693  0.9698
  547MOL0     H75433   7.310  11.313   5.499 -0.8759  0.6753  1.5208
  547MOL0     H75434   7.159  11.224   5.435 -1.2491 -1.4975  1.4873
  547MOL0     H75435   7.338  11.287   5.771 -0.3330 -0.3885  1.5993
  547MOL0     H75436   7.083  11.283   6.040  1.0490 -0.8795  1.1841
  547MOL0     H75437   7.246  11.317   6.003 -0.0398 -1.2013  1.3499
  547MOL0     H75438   7.318  11.091   6.022  0.3892  3.7119 -1.3646
  547MOL0     H75439   7.219  11.136   6.162 -0.3844  1.3636 -0.0193
  547MOL0     H75440   7.122  10.928   6.104  0.0514  2.9354  2.2146
  547MOL0     H75441   7.035  11.027   5.994  0.6390  0.9776  2.7544
  547MOL0     H75442   7.126  10.823   5.881 -0.1743  0.6893  0.2289
  547MOL0     H75443   7.195  10.959   5.804 -0.3043  0.0321 -0.8041
  547MOL0     H75444   7.545  10.841   5.955 -0.4616 -2.8764  0.1244
  547MOL0     H75445   7.804  10.693   5.854  0.1986 -1.0665 -1.3911
  547MOL0     H75446   7.780  10.866   5.906  4.3672 -1.6678  0.2415
  547MOL0     H75447   7.844  10.825   5.747  1.4093  0.8989  1.9513
  547MOL0     H75448   7.540  10.448   5.262 -0.4320 -0.3269 -1.9043
  547MOL0     H75449   7.672  10.327   5.090 -1.8861 -0.4833  1.3947
  547MOL0     H75450   7.909  10.499   4.907  0.4382 -1.7615 -2.8403
  547MOL0     H75451   8.060  10.476   4.984  0.3766  0.2838 -1.2836
  547MOL0     H75452   8.106  10.275   4.864 -0.4679 -0.8523 -0.7081
  547MOL0     H75453   7.934  10.245   4.825  0.7963  0.1165  2.8455
  547MOL0     H75454   8.109  10.468   4.692 -1.0839  1.1869 -2.5516
  547MOL0     H75455   7.933  10.459   4.696 -2.0549 -3.4318  0.8195
  547MOL0     H75456   7.936  10.245   4.587 -0.0997 -0.2306 -0.4693
  547MOL0     H75457   8.112  10.251   4.594  0.2218 -0.5841 -1.2337
  547MOL0     H75458   7.946  10.444   4.439  1.1827  0.9456 -3.3471
  547MOL0     H75459   8.121  10.442   4.447 -0.1959  0.1295 -1.1391
  547MOL0     H75460   7.956  10.216   4.336  1.2996 -1.5500  0.0339
  547MOL0     H75461   8.134  10.238   4.327  0.0435  1.0409 -1.0881
  547MOL0     H75462   8.095  10.453   4.207  1.2826 -1.1141 -4.2950
  547MOL0     H75463   7.920  10.406   4.191 -0.2019 -1.8602 -2.0642
  547MOL0     H75464   7.987  10.176   4.110 -1.6092 -0.0373 -0.5379
  547MOL0     H75465   8.158  10.225   4.113 -1.4610 -2.8273 -2.1648
  547MOL0     H75466   8.020  10.555   5.202  0.9978 -2.1676 -1.4435
  547MOL0     H75467   7.879  10.684   5.368 -2.1783 -1.5436  2.0444
  547MOL0     H75468   7.416  10.640   5.547  0.7525  0.3241 -0.1921
  547MOL0     H75469   7.243  10.713   5.715 -0.6147  1.7457  0.0375
  547MOL0     H75470   8.114  11.265   5.770 -2.1563  0.6089  2.0659
  547MOL0     H75471   8.363  11.209   5.749  0.4127  0.0512 -1.1940
  547MOL0     H75472   8.667  11.054   5.991  0.0185 -0.7924  0.5718
  547MOL0     H75473   8.911  11.036   6.054 -2.5473  1.9964 -0.3063
  547MOL0     H75474   9.215  10.749   6.090  0.1354 -0.4753 -0.3115
  547MOL0     H75475   9.091  10.649   6.005 -0.4047 -0.0633 -0.8977
  547MOL0     H75476   9.156  10.776   5.796  0.6438  1.0835 -0.9791
  547MOL0     H75477   9.280  10.655   5.870  0.9184  0.3748  0.9145
  547MOL0     H75478   9.285  10.965   5.851  2.2233  0.0214 -1.1614
  547MOL0     H75479   9.393  10.869   5.953  0.6467 -2.1208 -0.5283
  547MOL0     H75480   9.356  10.822   5.657 -0.9831  1.8904 -0.1941
  547MOL0     H75481   9.486  10.754   5.741  0.1662  0.1178 -1.3212
  547MOL0     H75482   9.592  11.172   5.675 -1.7044  0.4636 -0.5432
  547MOL0     H75483   8.950  10.672   5.864  2.5895  1.7204  4.9052
  547MOL0     H75484   8.656  10.570   5.819 -0.2236  0.7287 -0.3288
  547MOL0     H75485   8.646  10.658   5.659  1.9543 -0.9035 -2.1549
  547MOL0     H75486   8.795  10.582   5.716  0.6428  1.5650  0.0914
  548MOL0     O75487   5.203   2.019   4.402 -0.4675  0.4350 -0.1907
  548MOL0     C75488   5.180   2.060   4.288  0.1345 -1.0852 -0.5297
  548MOL0     O75489   5.274   2.071   4.188 -0.2784 -0.6575  0.0304
  548MOL0     C75490   5.388   1.990   4.202 -0.3180  0.0438  0.0396
  548MOL0     C75491   5.508   2.052   4.166  0.0729 -0.3172 -0.7213
  548MOL0     C75492   5.629   1.984   4.190  0.5909 -0.0813 -0.8628
  548MOL0     C75493   5.631   1.863   4.265  0.1300 -0.4809  0.2909
  548MOL0     O75494   5.748   1.815   4.308  0.3542  0.5081 -0.3445
  548MOL0     C75495   5.844   1.793   4.210 -0.4406  0.1002 -0.5589
  548MOL0     C75496   5.970   1.741   4.271 -0.1416  0.0142 -0.4844
  548MOL0     C75497   6.079   1.703   4.175  0.8939  0.6991  0.4288
  548MOL0     C75498   6.184   1.610   4.257 -0.2438  0.6991  0.2483
  548MOL0     C75499   6.322   1.613   4.200  0.7635  0.3238  0.4035
  548MOL0     C75500   6.413   1.509   4.273 -0.5356 -0.2596 -0.3266
  548MOL0     C75501   6.552   1.539   4.232 -0.1018 -0.0072 -0.4390
  548MOL0     C75502   6.648   1.447   4.313 -0.3849 -0.4034  0.1972
  548MOL0     N75503   6.781   1.505   4.336 -0.8499 -0.3643 -0.0675
  548MOL0     C75504   6.887   1.459   4.418 -0.7835  0.6272  0.6823
  548MOL0     C75505   6.993   1.541   4.396  1.0725  0.2055  0.1139
  548MOL0     C75506   7.119   1.552   4.467  0.1830 -0.3653  0.0483
  548MOL0     C75507   7.238   1.597   4.394  0.3907  0.3862 -0.2561
  548MOL0     C75508   7.361   1.584   4.491  0.1994  0.5300 -0.0295
  548MOL0     C75509   7.482   1.665   4.461  0.5037  0.1853 -0.7205
  548MOL0     O75510   7.575   1.641   4.569  0.0220  0.0399 -0.7782
  548MOL0     C75511   7.680   1.734   4.584  0.4697  0.3340  0.1268
  548MOL0     C75512   7.746   1.743   4.706 -1.1864  0.9248  1.5219
  548MOL0     C75513   7.849   1.838   4.726  1.1464 -0.3330 -0.2495
  548MOL0     C75514   7.919   1.832   4.856  0.1471 -0.6739 -0.6829
  548MOL0     C75515   7.881   1.929   4.630  0.1514  0.1277  0.0733
  548MOL0     C75516   7.983   2.030   4.655 -0.0978  0.2664  0.4233
  548MOL0     O75517   7.950   2.162   4.609 -0.3855  0.0646  0.0821
  548MOL0     C75518   8.045   2.254   4.611 -0.0418  0.0383 -0.2102
  548MOL0     C75519   8.074   2.328   4.499 -0.5280  0.3039  0.5893
  548MOL0     C75520   8.169   2.428   4.497  0.2208  0.3300  0.5593
  548MOL0     C75521   8.252   2.444   4.600 -0.1743  0.1278 -0.2817
  548MOL0     O75522   8.348   2.534   4.576  0.6607 -0.0318 -0.4273
  548MOL0     C75523   8.465   2.514   4.651 -0.2119 -0.5400  0.6806
  548MOL0     C75524   8.582   2.594   4.591  0.2331  0.7682  0.3708
  548MOL0     C75525   8.567   2.737   4.616  0.5227  0.5612 -0.2121
  548MOL0     C75526   8.635   2.783   4.741 -0.2509  0.1956  0.3835
  548MOL0     C75527   8.786   2.799   4.718 -0.4407 -0.5156 -0.5573
  548MOL0     C75528   8.860   2.844   4.841  0.6404  0.2403 -0.6057
  548MOL0     C75529   9.013   2.825   4.839 -0.1695 -1.4811 -0.2873
  548MOL0     C75530   9.082   2.971   4.802 -1.0907 -0.8180 -0.2388
  548MOL0    Cl75531   9.051   3.106   4.931 -0.1937 -0.1603  0.1400
  548MOL0     C75532   8.232   2.375   4.718  0.3120  0.5548  0.5269
  548MOL0     C75533   8.119   2.283   4.724 -0.7026 -0.2193 -0.8124
  548MOL0     O75534   8.097   1.989   4.691  1.0833 -0.3465 -0.1850
  548MOL0     C75535   7.814   1.921   4.508 -0.5120 -0.2987 -0.1472
  548MOL0     C75536   7.721   1.830   4.483  0.1874  0.3379  0.0358
  548MOL0     N75537   6.949   1.639   4.312 -1.1589 -0.0357  0.9431
  548MOL0     N75538   6.829   1.627   4.289  0.5459 -0.2284  0.4265
  548MOL0     C75539   5.515   1.801   4.285 -0.1134  0.1575 -0.0525
  548MOL0     C75540   5.390   1.859   4.250  0.5284  0.6851  0.0288
  548MOL0     C75541   5.042   2.110   4.261 -0.0597 -0.0914  0.2702
  548MOL0     C75542   4.943   2.067   4.353 -0.2346 -0.1773  0.1154
  548MOL0     C75543   4.809   2.103   4.340  0.1343 -0.6320  0.1429
  548MOL0     C75544   4.767   2.181   4.233  0.9250 -0.1095 -0.0634
  548MOL0     O75545   4.632   2.204   4.226  0.6462 -0.1755 -0.4980
  548MOL0     C75546   4.570   2.294   4.141 -0.2819  0.0981 -0.0855
  548MOL0     C75547   4.421   2.308   4.180 -0.0169  0.0827 -0.5946
  548MOL0     C75548   4.348   2.398   4.090  0.1230  0.0576 -0.3004
  548MOL0     C75549   4.203   2.412   4.142 -0.2199 -0.0641 -0.8518
  548MOL0     C75550   4.125   2.510   4.074  0.3817  0.5809  0.0422
  548MOL0     C75551   4.061   2.578   4.001  0.1142  1.3100  0.4682
  548MOL0     C75552   4.866   2.225   4.140  0.5879  0.3880 -0.5311
  548MOL0     C75553   5.002   2.187   4.148  0.0291  0.4674 -0.1530
  548MOL0     C75554   5.094   2.233   4.040  0.0285 -0.1016  0.1151
  548MOL0     H75555   5.493   2.150   4.123 -0.2671 -0.6502 -1.3769
  548MOL0     H75556   5.727   2.024   4.163  1.5091 -2.6560 -1.5946
  548MOL0     H75557   5.867   1.874   4.141  2.3437 -0.9989 -1.0227
  548MOL0     H75558   5.814   1.713   4.141  0.0767 -0.6356  0.0547
  548MOL0     H75559   6.016   1.798   4.352  3.4917 -0.9833 -1.6676
  548MOL0     H75560   5.939   1.652   4.325 -1.5124  1.6221  1.5402
  548MOL0     H75561   6.045   1.647   4.087  0.6605  0.3664  0.7337
  548MOL0     H75562   6.124   1.796   4.138 -1.4660  1.9643  0.5571
  548MOL0     H75563   6.187   1.653   4.358  1.4974  1.4101 -0.0857
  548MOL0     H75564   6.145   1.509   4.270 -0.6971  1.1315  2.7425
  548MOL0     H75565   6.349   1.717   4.217 -1.6826  1.3079 -1.1739
  548MOL0     H75566   6.327   1.600   4.091  2.0119 -0.4247  0.5290
  548MOL0     H75567   6.408   1.539   4.378  2.5745 -0.8502  0.0622
  548MOL0     H75568   6.394   1.406   4.242 -2.5557  0.5228 -2.0187
  548MOL0     H75569   6.566   1.645   4.251 -1.1126 -0.2896  2.2776
  548MOL0     H75570   6.564   1.521   4.124 -0.2993 -1.6212 -0.2250
  548MOL0     H75571   6.608   1.415   4.409  0.0615 -2.6130 -0.2933
  548MOL0     H75572   6.668   1.359   4.252 -0.1995 -0.6052  0.5439
  548MOL0     H75573   6.883   1.367   4.476 -1.3331 -0.6532 -1.2926
  548MOL0     H75574   7.139   1.459   4.522  1.7718  0.1210  0.3412
  548MOL0     H75575   7.115   1.626   4.546  1.3084 -2.7320  2.4934
  548MOL0     H75576   7.251   1.529   4.309  2.3431  0.6715 -0.2411
  548MOL0     H75577   7.230   1.694   4.344  0.3727  0.6874  0.3316
  548MOL0     H75578   7.328   1.621   4.588 -0.3082 -1.1510  0.4723
  548MOL0     H75579   7.375   1.477   4.510 -1.2310  0.6424  1.8964
  548MOL0     H75580   7.529   1.631   4.368  0.1061  1.4809 -1.4275
  548MOL0     H75581   7.450   1.770   4.461  0.2977  0.2040  2.1990
  548MOL0     H75582   7.725   1.662   4.776  0.1601 -2.0284 -1.1993
  548MOL0     H75583   7.891   1.750   4.922  0.5511 -1.3870 -1.3774
  548MOL0     H75584   7.906   1.931   4.901  2.1798 -0.5726 -0.2103
  548MOL0     H75585   8.028   1.829   4.862  0.1856  1.6839  1.5695
  548MOL0     H75586   8.033   2.305   4.401  0.0004  2.0502 -0.0782
  548MOL0     H75587   8.191   2.489   4.410 -3.1468  1.1791  0.1643
  548MOL0     H75588   8.455   2.549   4.754  1.1356 -1.1037  1.0311
  548MOL0     H75589   8.493   2.408   4.654  0.2746 -0.4892 -1.1602
  548MOL0     H75590   8.675   2.558   4.636 -1.1650 -0.0276  2.8007
  548MOL0     H75591   8.590   2.566   4.485 -1.9077  0.3691  0.2701
  548MOL0     H75592   8.463   2.768   4.604  0.8473  1.2675 -1.4517
  548MOL0     H75593   8.614   2.795   4.535 -1.3919  1.1001 -0.9820
  548MOL0     H75594   8.609   2.720   4.827  1.6168  0.7242  1.3691
  548MOL0     H75595   8.588   2.880   4.759 -1.9546 -0.2261 -1.3830
  548MOL0     H75596   8.834   2.702   4.701  1.5409  0.6676 -2.1823
  548MOL0     H75597   8.805   2.861   4.630 -1.0588  1.7074  0.7766
  548MOL0     H75598   8.819   2.790   4.928  2.1020  1.2600  0.7797
  548MOL0     H75599   8.838   2.950   4.855 -0.6046  0.2879 -2.5767
  548MOL0     H75600   9.037   2.753   4.760 -0.7949 -1.5623 -0.4115
  548MOL0     H75601   9.054   2.797   4.936  1.2964  1.5586  0.0798
  548MOL0     H75602   9.051   3.014   4.706  1.1194  0.9419 -0.2435
  548MOL0     H75603   9.188   2.955   4.782 -0.3742  3.8567 -1.3249
  548MOL0     H75604   8.291   2.375   4.809 -0.7276 -0.5053  1.2180
  548MOL0     H75605   8.094   2.225   4.812 -1.8409  3.1088  1.2115
  548MOL0     H75606   7.844   1.981   4.422  0.7924 -2.2271 -1.1113
  548MOL0     H75607   7.681   1.823   4.382  0.4455  1.3887 -0.1513
  548MOL0     H75608   5.506   1.712   4.346 -3.3428  0.0383 -0.4925
  548MOL0     H75609   5.298   1.804   4.269 -0.0387  1.0869 -1.4023
  548MOL0     H75610   4.975   2.020   4.446  0.0471  0.1225  0.1742
  548MOL0     H75611   4.743   2.106   4.427  0.2872  0.1943  0.2375
  548MOL0     H75612   4.609   2.396   4.149  0.2443 -0.1474  0.5384
  548MOL0     H75613   4.586   2.265   4.037 -2.3401  1.7247 -0.9479
  548MOL0     H75614   4.409   2.336   4.285 -1.5832 -0.7469 -0.5120
  548MOL0     H75615   4.383   2.206   4.170 -1.3951  0.5297 -0.1245
  548MOL0     H75616   4.392   2.498   4.093 -4.0022  2.1014  0.3310
  548MOL0     H75617   4.350   2.367   3.986 -1.7488 -0.4111 -0.2296
  548MOL0     H75618   4.193   2.433   4.249  4.7760  1.3219 -0.3830
  548MOL0     H75619   4.152   2.316   4.126  1.6335 -1.8471  2.7096
  548MOL0     H75620   4.013   2.658   3.949  0.5348  2.5177  1.8841
  548MOL0     H75621   4.835   2.290   4.059  2.4252  2.5054  0.3408
  548MOL0     H75622   5.049   2.305   3.971 -0.4112 -0.2255  0.2687
  548MOL0     H75623   5.181   2.278   4.089  2.0187 -2.1192 -1.3758
  548MOL0     H75624   5.142   2.147   3.994  1.7478  1.5465 -1.3190
  549MOL0     O75625  10.555  10.459   3.460  0.6111  0.5101  0.4246
  549MOL0     C75626  10.473  10.372   3.488 -0.3417  0.0520 -0.0182
  549MOL0     O75627  10.499  10.260   3.569 -0.9565  0.1061  0.2610
  549MOL0     C75628  10.620  10.253   3.635  0.4002 -0.0703 -0.4071
  549MOL0     C75629  10.647  10.333   3.748  1.4775  0.1220  0.5707
  549MOL0     C75630  10.759  10.316   3.824 -1.2426 -0.9797  0.5127
  549MOL0     C75631  10.862  10.229   3.788  0.6016 -0.3976 -0.1488
  549MOL0     O75632  10.976  10.237   3.862  0.1176 -0.0045  0.1716
  549MOL0     C75633  11.095  10.232   3.785  0.0642 -0.4799 -0.0587
  549MOL0     C75634  11.223  10.262   3.853 -0.3019 -0.2561  0.5813
  549MOL0     C75635  11.351  10.264   3.757 -0.4156  0.1868  0.4459
  549MOL0     C75636  11.476  10.297   3.843 -0.8279  0.0999 -0.8532
  549MOL0     C75637  11.594  10.296   3.748 -0.9705  0.4696  0.2378
  549MOL0     C75638  11.724  10.364   3.800  0.3092 -0.7543 -0.3415
  549MOL0     C75639  11.847  10.360   3.703 -0.8572 -0.6830  0.5583
  549MOL0     C75640  11.893  10.221   3.664 -0.2842  0.3854  0.1117
  549MOL0     N75641  12.042  10.219   3.631  0.4519  0.3103 -0.4358
  549MOL0     C75642  12.131  10.231   3.729  0.0903  0.1836 -0.5882
  549MOL0     C75643  12.246  10.230   3.662  0.0958 -0.5034 -0.3263
  549MOL0     C75644  12.390  10.226   3.713  0.1422 -0.3074 -0.0444
  549MOL0     C75645  12.501  10.224   3.616  1.3780 -0.0752 -1.0567
  549MOL0     C75646  12.535  10.354   3.540 -0.0316  0.5445 -0.1939
  549MOL0     C75647  12.645  10.347   3.440  0.7738  0.8327  0.0845
  549MOL0     O75648  12.778  10.342   3.498 -0.2681  0.5185  0.1058
  549MOL0     C75649  12.874  10.249   3.454 -1.1650 -0.4242 -0.3658
  549MOL0     C75650  12.986  10.228   3.525 -0.2037 -0.4940  0.9467
  549MOL0     C75651  13.090  10.146   3.472  0.3352 -0.1259 -0.6902
  549MOL0     C75652  13.201  10.135   3.568  0.1888  0.8121  0.3996
  549MOL0     C75653  13.075  10.072   3.352  0.2803 -0.0189  0.1281
  549MOL0     C75654  13.180   9.982   3.299 -1.0422 -0.5220  0.1788
  549MOL0     O75655  13.305  10.001   3.357  0.3109  0.1164  0.1971
  549MOL0     C75656  13.416   9.908   3.347  0.7083 -0.3523 -0.7166
  549MOL0     C75657  13.419   9.787   3.272 -0.1795  0.3146  0.3117
  549MOL0     C75658  13.547   9.722   3.250  0.6946 -0.4508 -0.6555
  549MOL0     C75659  13.661   9.779   3.307 -0.2391 -0.6920 -0.3143
  549MOL0     O75660  13.768   9.706   3.287 -0.2143 -0.1783  1.0900
  549MOL0     C75661  13.879   9.727   3.379 -0.1786  0.0361 -0.2090
  549MOL0     C75662  13.978   9.606   3.389  0.5704  0.2921 -0.3675
  549MOL0     C75663  14.050   9.595   3.252 -1.1420  0.2131  0.0304
  549MOL0     C75664  14.161   9.500   3.277  0.5058  0.3005  0.3275
  549MOL0     C75665  14.243   9.461   3.151  0.2691  0.6824  0.8729
  549MOL0     C75666  14.355   9.369   3.191  0.2576 -0.0208 -0.2946
  549MOL0     C75667  14.461   9.448   3.270 -0.0678  0.1320  0.5178
  549MOL0     C75668  14.519   9.372   3.391  0.2367  0.2443 -0.4693
  549MOL0    Cl75669  14.642   9.250   3.321 -0.1540  0.7058 -0.3570
  549MOL0     C75670  13.640   9.882   3.406 -0.1443 -0.3520 -0.3268
  549MOL0     C75671  13.526   9.950   3.423  0.0521  0.8796  0.4075
  549MOL0     O75672  13.157   9.930   3.192 -0.1280  0.0163  0.4190
  549MOL0     C75673  12.958  10.093   3.276  0.8094 -0.0497  0.4073
  549MOL0     C75674  12.862  10.183   3.333 -0.5001 -0.0788 -0.1863
  549MOL0     N75675  12.225  10.195   3.525  0.0478 -0.4442  0.0267
  549MOL0     N75676  12.092  10.179   3.512 -0.1793 -0.7613 -0.9203
  549MOL0     C75677  10.837  10.155   3.670 -0.0843  0.1849 -0.2376
  549MOL0     C75678  10.720  10.160   3.593  0.7025 -0.1930  0.7646
  549MOL0     C75679  10.341  10.389   3.414  0.8480 -0.6791 -0.2293
  549MOL0     C75680  10.309  10.511   3.356 -0.9466  0.1056 -0.3157
  549MOL0     C75681  10.192  10.528   3.283 -0.0420  0.6717  0.1469
  549MOL0     C75682  10.088  10.428   3.279 -1.3096 -0.1707  0.0725
  549MOL0     O75683   9.976  10.440   3.199 -0.4634  0.9427  0.7275
  549MOL0     C75684   9.883  10.324   3.190  0.2572 -0.0432 -0.2861
  549MOL0     C75685   9.764  10.350   3.088 -0.1343 -0.0200  0.4201
  549MOL0     C75686   9.654  10.430   3.155 -0.9693 -0.2245  0.1677
  549MOL0     C75687   9.522  10.437   3.089  0.0859  0.0175  0.5821
  549MOL0     C75688   9.536  10.553   2.996 -1.0633  0.2212  0.7543
  549MOL0     C75689   9.566  10.645   2.925  0.5401 -0.8138 -0.8137
  549MOL0     C75690  10.131  10.312   3.336 -0.0688  0.1601  0.2245
  549MOL0     C75691  10.241  10.290   3.411 -0.4191 -0.3773 -0.3859
  549MOL0     C75692  10.258  10.150   3.473  0.8411 -0.4163  0.2045
  549MOL0     H75693  10.577  10.403   3.793  1.8301  0.2046  0.9953
  549MOL0     H75694  10.767  10.378   3.913 -1.7382  0.2149 -0.2486
  549MOL0     H75695  11.078  10.307   3.707 -1.8752 -0.6932  0.1074
  549MOL0     H75696  11.101  10.132   3.741 -1.5646 -1.1525  1.1690
  549MOL0     H75697  11.213  10.365   3.889 -1.0354 -0.2706  0.4239
  549MOL0     H75698  11.241  10.196   3.938  1.4373 -3.4952 -2.0904
  549MOL0     H75699  11.374  10.164   3.717 -2.3579 -0.1952  0.2153
  549MOL0     H75700  11.323  10.334   3.678 -1.5293 -0.8011 -0.0706
  549MOL0     H75701  11.474  10.401   3.876  3.4005  0.4334 -1.0653
  549MOL0     H75702  11.503  10.229   3.925 -0.4123  2.1683  0.8213
  549MOL0     H75703  11.570  10.344   3.653  2.3191  0.8008 -0.5367
  549MOL0     H75704  11.613  10.192   3.724  0.0647 -0.0386  2.9053
  549MOL0     H75705  11.701  10.469   3.818  1.0962 -0.7316  0.6008
  549MOL0     H75706  11.753  10.318   3.895 -1.3120 -0.0287  0.5515
  549MOL0     H75707  11.929  10.413   3.753 -0.4946  2.0083 -2.5238
  549MOL0     H75708  11.836  10.413   3.608  0.3935  2.3842  1.9940
  549MOL0     H75709  11.869  10.152   3.746 -3.0099 -0.4021 -1.2520
  549MOL0     H75710  11.830  10.186   3.582 -4.0546 -0.4305  3.0737
  549MOL0     H75711  12.129  10.250   3.836  0.6484 -2.7568  0.0367
  549MOL0     H75712  12.394  10.143   3.784 -0.7807 -1.3223 -1.1344
  549MOL0     H75713  12.406  10.312   3.778  1.9418 -0.9111  0.3747
  549MOL0     H75714  12.582  10.177   3.672 -1.7841 -4.2061  0.6110
  549MOL0     H75715  12.479  10.153   3.535 -2.2670  0.0772 -0.3415
  549MOL0     H75716  12.447  10.388   3.485 -0.8922 -1.7581 -0.3174
  549MOL0     H75717  12.573  10.436   3.602 -2.3115  0.9512  0.7508
  549MOL0     H75718  12.622  10.269   3.366  0.2622  0.0132  1.0931
  549MOL0     H75719  12.641  10.445   3.390 -0.6338  0.1701 -1.1766
  549MOL0     H75720  12.984  10.268   3.626  0.7522  0.9972  0.4187
  549MOL0     H75721  13.226  10.031   3.590  1.4180  0.8984 -0.4686
  549MOL0     H75722  13.184  10.186   3.663 -0.4471 -0.7192  1.1329
  549MOL0     H75723  13.292  10.181   3.529  1.3690 -1.5479  0.1957
  549MOL0     H75724  13.332   9.761   3.213  0.5073 -0.5616 -0.3210
  549MOL0     H75725  13.551   9.646   3.172  1.2597 -0.5933 -0.4936
  549MOL0     H75726  13.934   9.818   3.353 -3.1892  2.6185  1.7184
  549MOL0     H75727  13.832   9.738   3.477  0.4815  1.9963 -0.0746
  549MOL0     H75728  14.052   9.630   3.466  3.0868 -3.4726 -1.3224
  549MOL0     H75729  13.929   9.513   3.418 -0.5982  0.6355 -1.1629
  549MOL0     H75730  14.088   9.691   3.217  1.8573 -0.3341  1.4458
  549MOL0     H75731  13.986   9.567   3.168  1.1861  0.8500 -2.0874
  549MOL0     H75732  14.123   9.414   3.333 -3.3414  1.4108 -0.2945
  549MOL0     H75733  14.227   9.548   3.349 -2.1937 -0.7996  3.8105
  549MOL0     H75734  14.185   9.403   3.079  0.2690  1.1515  0.4942
  549MOL0     H75735  14.288   9.540   3.090  3.5353 -0.2303  1.8513
  549MOL0     H75736  14.407   9.335   3.100 -2.2582  4.8904 -4.0757
  549MOL0     H75737  14.315   9.278   3.236  0.9778 -1.1564 -1.8190
  549MOL0     H75738  14.428   9.546   3.306  1.5052  0.9785 -0.2279
  549MOL0     H75739  14.543   9.489   3.210 -0.0045 -0.1281  0.4275
  549MOL0     H75740  14.436   9.320   3.440  0.3178 -0.9714 -1.5535
  549MOL0     H75741  14.567   9.450   3.451 -1.7775  1.9933 -1.0012
  549MOL0     H75742  13.728   9.912   3.463 -2.1385  1.4514  1.9918
  549MOL0     H75743  13.516  10.029   3.497 -1.4287 -0.1704  1.3907
  549MOL0     H75744  12.932  10.039   3.186 -1.6773 -2.3210  2.3290
  549MOL0     H75745  12.782  10.190   3.261 -1.4457 -0.3834  0.8149
  549MOL0     H75746  10.907  10.088   3.623 -1.0111 -1.2765  0.3957
  549MOL0     H75747  10.710  10.103   3.501  0.5225  2.3517 -0.9239
  549MOL0     H75748  10.383  10.590   3.360  0.7600 -1.4715  0.3558
  549MOL0     H75749  10.189  10.615   3.218  2.5741  0.5859 -0.1833
  549MOL0     H75750   9.936  10.232   3.165 -1.2289 -1.4970  1.5395
  549MOL0     H75751   9.842  10.310   3.291 -4.8187  0.4078 -1.9819
  549MOL0     H75752   9.714  10.258   3.056  1.0733 -0.2388 -0.9514
  549MOL0     H75753   9.797  10.411   3.003  1.1187  1.5719  1.9550
  549MOL0     H75754   9.637  10.385   3.254 -0.8678  0.4696  0.5115
  549MOL0     H75755   9.699  10.526   3.184  0.5739 -0.3159 -1.7674
  549MOL0     H75756   9.456  10.467   3.171  2.7995 -1.1352  3.4033
  549MOL0     H75757   9.490  10.344   3.042  1.6358  0.4407 -1.4469
  549MOL0     H75758   9.599  10.719   2.855 -2.0443  1.4157  0.1168
  549MOL0     H75759  10.072  10.220   3.335 -0.7149  0.5683  0.5949
  549MOL0     H75760  10.240  10.171   3.579 -2.7425  2.1905 -0.7258
  549MOL0     H75761  10.182  10.084   3.430 -1.3946  1.9066  0.3315
  549MOL0     H75762  10.356  10.111   3.443  1.2452 -0.7829  1.8715
  550MOL0     O75763   1.471   8.887   6.018  0.0934 -0.0525  0.1229
  550MOL0     C75764   1.483   8.957   5.915  0.5393  0.0247 -0.2541
  550MOL0     O75765   1.597   9.031   5.886  0.9455 -0.2504  0.3006
  550MOL0     C75766   1.721   8.998   5.910 -0.0313  0.2109  0.7501
  550MOL0     C75767   1.822   9.102   5.887  0.3717  0.1868 -0.0314
  550MOL0     C75768   1.956   9.071   5.895 -0.4655  0.2139  0.2070
  550MOL0     C75769   2.005   8.941   5.933  0.3094 -1.9716  1.3213
  550MOL0     O75770   2.140   8.916   5.931 -0.0117 -0.4770  0.1259
  550MOL0     C75771   2.195   8.815   6.013  0.5925 -0.0206 -0.6169
  550MOL0     C75772   2.341   8.793   5.969 -0.1263  0.4961 -0.2439
  550MOL0     C75773   2.427   8.918   5.984 -0.0151  0.3845 -0.1452
  550MOL0     C75774   2.471   8.932   6.133 -0.2662 -0.4423 -0.0947
  550MOL0     C75775   2.518   9.076   6.166 -0.8649 -0.2183 -0.5595
  550MOL0     C75776   2.414   9.185   6.205 -0.1035  0.4364  0.5855
  550MOL0     C75777   2.369   9.262   6.079 -0.4890  0.7033  1.1992
  550MOL0     C75778   2.264   9.366   6.109  0.4362 -0.2511  0.5655
  550MOL0     N75779   2.263   9.458   5.992 -0.8919 -0.6640  0.3271
  550MOL0     C75780   2.367   9.540   5.947 -0.0061 -0.4121  0.0927
  550MOL0     C75781   2.324   9.586   5.830 -0.2536 -0.0058 -0.3267
  550MOL0     C75782   2.414   9.663   5.745  0.1844  0.4726  0.7635
  550MOL0     C75783   2.337   9.747   5.641  0.5024  0.2211  1.2036
  550MOL0     C75784   2.412   9.862   5.563 -1.3431 -0.5362 -0.4733
  550MOL0     C75785   2.519   9.797   5.481 -0.2945 -0.9239  0.9027
  550MOL0     O75786   2.543   9.888   5.368  0.6182 -0.0336 -0.3583
  550MOL0     C75787   2.634   9.849   5.274  0.0542 -0.4257 -0.8209
  550MOL0     C75788   2.645   9.931   5.163 -0.2096  0.5633 -0.1975
  550MOL0     C75789   2.745   9.912   5.071 -0.1392  0.9538 -0.5719
  550MOL0     C75790   2.736  10.000   4.961  0.3968 -0.0358  0.1093
  550MOL0     C75791   2.843   9.812   5.095 -0.7607 -0.6631 -0.3185
  550MOL0     C75792   2.967   9.792   5.012 -0.3629 -0.2614  0.6417
  550MOL0     O75793   3.058   9.713   5.070 -0.0067 -0.1237 -0.5318
  550MOL0     C75794   3.160   9.647   5.008  0.4628 -0.6459  0.6666
  550MOL0     C75795   3.293   9.690   5.033 -0.1911 -1.0834 -1.3071
  550MOL0     C75796   3.402   9.616   4.985  1.0517  0.4712  0.5168
  550MOL0     C75797   3.382   9.501   4.907  0.2040 -0.1412  0.0292
  550MOL0     O75798   3.496   9.424   4.878 -0.0549  0.4458  0.0971
  550MOL0     C75799   3.627   9.461   4.929  0.4932  0.3173  0.5427
  550MOL0     C75800   3.741   9.386   4.859 -0.5527 -0.0302  0.4545
  550MOL0     C75801   3.732   9.236   4.843 -0.2083  0.6460 -0.6609
  550MOL0     C75802   3.861   9.175   4.783 -0.2956 -0.5364  0.7716
  550MOL0     C75803   3.863   9.024   4.791 -0.5799  0.1175  0.0642
  550MOL0     C75804   3.941   8.964   4.667  0.9971  0.4735 -0.5034
  550MOL0     C75805   4.092   8.995   4.692  0.0805 -0.2814  0.1831
  550MOL0     C75806   4.189   8.953   4.584 -1.4640 -0.3610  0.6239
  550MOL0    Cl75807   4.350   8.914   4.664  0.2111  0.0442 -0.2417
  550MOL0     C75808   3.256   9.457   4.886  0.1736  0.1096 -0.2657
  550MOL0     C75809   3.145   9.519   4.939  0.4926  0.0881  0.7154
  550MOL0     O75810   2.963   9.824   4.894  0.1277 -0.3812 -0.5654
  550MOL0     C75811   2.831   9.730   5.211 -0.2126 -0.1607  0.6582
  550MOL0     C75812   2.728   9.751   5.301 -1.0974  1.7044  0.3634
  550MOL0     N75813   2.196   9.533   5.806  0.3150  0.7243  0.1278
  550MOL0     N75814   2.164   9.460   5.903  0.8833  0.4933 -0.3938
  550MOL0     C75815   1.905   8.842   5.961  0.1146  0.0047  0.7761
  550MOL0     C75816   1.767   8.876   5.938 -0.3496 -0.6996  0.1855
  550MOL0     C75817   1.381   8.970   5.818  0.8207 -0.2445  1.2690
  550MOL0     C75818   1.370   9.092   5.740 -0.5135  0.8468  0.4294
  550MOL0     C75819   1.275   9.107   5.642  0.3690 -0.0388 -0.4493
  550MOL0     C75820   1.180   9.007   5.622  0.5041  0.1000  0.6485
  550MOL0     O75821   1.091   9.009   5.512 -0.8158 -0.3860 -0.7917
  550MOL0     C75822   1.007   9.115   5.504 -0.1929 -0.5596  0.6674
  550MOL0     C75823   0.880   9.078   5.577 -0.0656  0.0352  0.7984
  550MOL0     C75824   0.830   8.938   5.525  0.0456 -0.7546  0.1987
  550MOL0     C75825   0.683   8.899   5.572  0.2344 -0.4586  0.7666
  550MOL0     C75826   0.642   8.768   5.520 -1.4171  0.4460 -0.8500
  550MOL0     C75827   0.582   8.671   5.480 -0.5927 -0.4848  0.6603
  550MOL0     C75828   1.174   8.896   5.700 -0.8040  1.0627  0.9056
  550MOL0     C75829   1.277   8.869   5.795  0.2059 -0.1540  0.0512
  550MOL0     C75830   1.257   8.740   5.871  0.1701  0.3837  0.2095
  550MOL0     H75831   1.794   9.202   5.853  0.5743  1.9447  4.2700
  550MOL0     H75832   2.017   9.155   5.866  0.7667 -0.8700 -0.4300
  550MOL0     H75833   2.138   8.725   5.988 -2.2110  1.4864 -0.0734
  550MOL0     H75834   2.181   8.844   6.118  2.1443  0.7148 -0.5937
  550MOL0     H75835   2.381   8.703   6.017 -0.7001 -0.2113 -1.0509
  550MOL0     H75836   2.338   8.763   5.864  1.4171 -0.2596 -0.1035
  550MOL0     H75837   2.524   8.901   5.937 -0.0307  2.0654 -0.8662
  550MOL0     H75838   2.381   9.004   5.935 -0.4504  0.0423 -0.3477
  550MOL0     H75839   2.382   8.932   6.197  0.1210  0.8043  0.4774
  550MOL0     H75840   2.538   8.851   6.165 -1.6572 -3.1340 -3.4413
  550MOL0     H75841   2.569   9.115   6.078 -0.2233  2.5031  0.8949
  550MOL0     H75842   2.600   9.069   6.238 -2.2988  1.5295  1.3700
  550MOL0     H75843   2.325   9.140   6.250 -0.2721  0.0985 -0.0747
  550MOL0     H75844   2.442   9.271   6.267 -0.9652 -0.3109  2.0689
  550MOL0     H75845   2.326   9.189   6.009  0.9186 -0.4902  1.5130
  550MOL0     H75846   2.453   9.304   6.023 -1.6704 -0.6183 -1.7858
  550MOL0     H75847   2.163   9.326   6.118  0.0193 -0.1831 -2.5249
  550MOL0     H75848   2.290   9.422   6.199  2.2882  1.5509 -0.9800
  550MOL0     H75849   2.459   9.559   6.001  1.0399  0.9400 -2.0676
  550MOL0     H75850   2.490   9.599   5.699 -1.2983  1.4933 -3.6214
  550MOL0     H75851   2.478   9.728   5.806 -0.0551  0.6046  0.8756
  550MOL0     H75852   2.293   9.683   5.564  0.1836  2.3283 -0.4571
  550MOL0     H75853   2.258   9.800   5.696  1.2754 -0.0695  2.6344
  550MOL0     H75854   2.340   9.908   5.494  1.5736  2.3050 -1.9422
  550MOL0     H75855   2.457   9.937   5.628 -0.1193  1.6759 -3.6246
  550MOL0     H75856   2.606   9.792   5.547  1.2374 -0.2771 -0.9742
  550MOL0     H75857   2.483   9.703   5.439  2.1770 -0.7837 -1.8839
  550MOL0     H75858   2.570  10.009   5.151 -0.2574  0.3594 -1.2921
  550MOL0     H75859   2.640  10.049   4.941  0.6109  0.1253 -0.5858
  550MOL0     H75860   2.765   9.941   4.873  0.8732 -2.9982  2.1193
  550MOL0     H75861   2.813  10.074   4.985 -0.1700  0.4835  0.3791
  550MOL0     H75862   3.311   9.781   5.089 -4.4984 -0.4788 -0.5880
  550MOL0     H75863   3.502   9.651   5.008  1.5295  1.2678 -2.2838
  550MOL0     H75864   3.656   9.562   4.899 -0.9462  0.0201 -2.1849
  550MOL0     H75865   3.627   9.463   5.038 -0.3762 -0.8571  0.5813
  550MOL0     H75866   3.735   9.435   4.761 -1.0362  1.2026  1.0839
  550MOL0     H75867   3.831   9.412   4.916 -0.2675 -1.1642  0.5509
  550MOL0     H75868   3.648   9.215   4.777 -0.9885  1.4909  0.0421
  550MOL0     H75869   3.699   9.192   4.937 -1.0792  0.2819 -1.1269
  550MOL0     H75870   3.953   9.218   4.823 -0.3000  0.8452 -0.6273
  550MOL0     H75871   3.856   9.195   4.676  1.0588 -0.6355  0.6774
  550MOL0     H75872   3.911   8.990   4.883 -2.0344 -0.3985  0.6628
  550MOL0     H75873   3.760   8.989   4.804 -0.7858  0.8248  0.3532
  550MOL0     H75874   3.904   8.995   4.569  1.1032  1.3040 -0.2895
  550MOL0     H75875   3.942   8.855   4.660 -3.4138  0.2632 -0.4741
  550MOL0     H75876   4.118   8.949   4.788 -0.7667 -1.0211  0.0663
  550MOL0     H75877   4.096   9.104   4.702 -0.3245 -0.1222 -1.2252
  550MOL0     H75878   4.209   9.026   4.505 -3.0021  0.5733  1.0535
  550MOL0     H75879   4.144   8.862   4.543 -0.1592 -2.1811  2.9744
  550MOL0     H75880   3.253   9.355   4.848  1.9545 -0.2213  0.3626
  550MOL0     H75881   3.039   9.505   4.920  0.3466  1.1893  0.6791
  550MOL0     H75882   2.890   9.640   5.222 -1.2659 -0.8877  0.4511
  550MOL0     H75883   2.717   9.690   5.390 -3.4254  0.7167 -0.5023
  550MOL0     H75884   1.920   8.739   5.993  2.9801 -0.0365 -0.4106
  550MOL0     H75885   1.706   8.786   5.931 -1.5348  0.2164 -3.0141
  550MOL0     H75886   1.449   9.162   5.763  0.0741  0.2182  0.3595
  550MOL0     H75887   1.267   9.196   5.581 -1.9614  1.1048  1.3806
  550MOL0     H75888   1.051   9.206   5.548 -0.0680 -1.2214  1.9551
  550MOL0     H75889   0.978   9.129   5.400  0.2433  1.1896  0.7394
  550MOL0     H75890   0.802   9.154   5.572 -1.4716 -1.3479  1.0851
  550MOL0     H75891   0.913   9.062   5.680 -1.4622 -0.5740  1.1726
  550MOL0     H75892   0.824   8.931   5.416  1.1246  0.4753  0.0343
  550MOL0     H75893   0.900   8.859   5.553  2.8133  1.4780  0.0786
  550MOL0     H75894   0.611   8.979   5.552  0.1944 -0.9293 -1.2821
  550MOL0     H75895   0.700   8.896   5.679 -0.2031  0.9778  0.8937
  550MOL0     H75896   0.544   8.579   5.440 -0.4913  0.7988 -2.7661
  550MOL0     H75897   1.091   8.829   5.681 -1.4036  2.2622 -1.0718
  550MOL0     H75898   1.185   8.675   5.821 -1.1625  1.3171  0.8352
  550MOL0     H75899   1.356   8.694   5.877 -0.6153 -1.6726 -1.4316
  550MOL0     H75900   1.228   8.759   5.974  0.0325  1.0144  0.0625
  551MOL0     O75901   1.345   7.712   6.883  1.0306  0.1388 -0.7555
  551MOL0     C75902   1.365   7.751   6.766  0.1585 -0.5410 -0.3393
  551MOL0     O75903   1.456   7.845   6.731  0.3455 -0.6097  0.2768
  551MOL0     C75904   1.517   7.920   6.824 -0.3371 -1.4886 -0.1732
  551MOL0     C75905   1.464   7.998   6.927  0.0928  0.8627  0.7972
  551MOL0     C75906   1.545   8.080   7.007  0.8041 -0.0473 -0.0769
  551MOL0     C75907   1.684   8.090   6.986  0.3306  0.4458  0.4584
  551MOL0     O75908   1.750   8.171   7.072  0.8884 -0.4304  0.3063
  551MOL0     C75909   1.893   8.149   7.084  0.5125  0.6993 -0.2251
  551MOL0     C75910   1.952   8.257   7.178  0.1606 -0.1708  0.0410
  551MOL0     C75911   2.089   8.213   7.225 -0.2742  0.6313  0.0231
  551MOL0     C75912   2.195   8.245   7.126  0.1142 -0.2824  0.4481
  551MOL0     C75913   2.338   8.265   7.186  0.2332  0.5960 -0.8380
  551MOL0     C75914   2.393   8.140   7.270  0.1948  0.2651 -0.1220
  551MOL0     C75915   2.528   8.176   7.322  0.2672 -0.2065  0.5967
  551MOL0     C75916   2.607   8.053   7.364 -0.7352 -0.7922 -0.0919
  551MOL0     N75917   2.630   7.938   7.268 -0.4834  0.8842 -0.7103
  551MOL0     C75918   2.709   7.935   7.166  0.2085 -0.1674  1.1022
  551MOL0     C75919   2.726   7.799   7.141 -0.1797 -0.0076 -0.8441
  551MOL0     C75920   2.813   7.727   7.034  0.6432  0.8131 -0.7421
  551MOL0     C75921   2.932   7.652   7.101  0.5093  0.3881  0.8197
  551MOL0     C75922   3.046   7.753   7.129  0.4628  0.2251 -0.4407
  551MOL0     C75923   3.148   7.695   7.223 -0.3740  0.4139  1.2602
  551MOL0     O75924   3.241   7.615   7.148  0.4600  0.2731 -0.6673
  551MOL0     C75925   3.339   7.667   7.065 -0.9434 -0.7795 -0.0227
  551MOL0     C75926   3.417   7.578   6.985 -1.4176 -0.5474  0.5725
  551MOL0     C75927   3.521   7.620   6.907 -0.6692 -0.0089  0.8867
  551MOL0     C75928   3.592   7.512   6.833  0.3492 -0.2690  0.3281
  551MOL0     C75929   3.547   7.758   6.895 -0.4548  0.4931  0.1888
  551MOL0     C75930   3.648   7.811   6.806 -0.3574  0.8263  0.1699
  551MOL0     O75931   3.667   7.755   6.683  0.7832 -0.0186 -0.2179
  551MOL0     C75932   3.741   7.806   6.580  0.3851  0.7681  0.2965
  551MOL0     C75933   3.682   7.794   6.449 -0.1610 -0.5293 -0.2533
  551MOL0     C75934   3.743   7.850   6.345 -0.0079 -0.4342 -0.0449
  551MOL0     C75935   3.863   7.923   6.360 -0.5509  0.1930 -0.5115
  551MOL0     O75936   3.917   7.988   6.249  0.9689 -0.3325  0.1761
  551MOL0     C75937   4.060   7.992   6.237  0.2737  0.1587 -1.0453
  551MOL0     C75938   4.088   8.079   6.122 -0.1676 -0.6276  0.4249
  551MOL0     C75939   4.235   8.121   6.131 -0.2063 -0.2627  0.0421
  551MOL0     C75940   4.330   7.998   6.116 -0.2837 -0.1503 -0.2524
  551MOL0     C75941   4.472   8.050   6.121 -0.0683 -0.3133  0.6350
  551MOL0     C75942   4.581   7.950   6.108 -0.4961 -0.6019  0.8030
  551MOL0     C75943   4.603   7.915   5.955 -1.1968  0.0749 -0.2903
  551MOL0     C75944   4.724   7.823   5.928 -0.6912  0.3260 -0.5346
  551MOL0    Cl75945   4.732   7.669   6.021  0.2807  0.0066  0.5204
  551MOL0     C75946   3.925   7.924   6.487  0.4959 -0.0314 -0.4296
  551MOL0     C75947   3.868   7.860   6.595  0.1018 -0.2910 -0.1060
  551MOL0     O75948   3.707   7.910   6.844 -0.3796 -0.1142 -0.9829
  551MOL0     C75949   3.455   7.846   6.955  0.0652 -0.5772  1.0233
  551MOL0     C75950   3.355   7.803   7.035  0.0974  0.5057 -0.7083
  551MOL0     N75951   2.650   7.726   7.226 -0.1653 -0.4265 -0.2713
  551MOL0     N75952   2.602   7.806   7.305  0.0046 -0.3951 -0.3688
  551MOL0     C75953   1.741   8.005   6.889 -0.1262 -0.2726 -0.0537
  551MOL0     C75954   1.657   7.927   6.808 -0.4892 -0.0469  0.1170
  551MOL0     C75955   1.292   7.698   6.657 -0.2671 -0.2998 -0.4442
  551MOL0     C75956   1.368   7.636   6.557  0.2037  0.7220 -0.1705
  551MOL0     C75957   1.302   7.556   6.462  0.7182 -0.7136  0.5636
  551MOL0     C75958   1.167   7.545   6.455  0.6621  0.0245  0.0359
  551MOL0     O75959   1.111   7.475   6.351 -0.1679  0.3219 -0.0184
  551MOL0     C75960   0.971   7.468   6.328  0.6245 -0.4088 -0.5260
  551MOL0     C75961   0.960   7.445   6.189 -0.3629  0.4511  0.5792
  551MOL0     C75962   0.811   7.417   6.138 -0.4402  0.3137  0.4155
  551MOL0     C75963   0.808   7.416   5.987 -0.5443  0.1937  0.1005
  551MOL0     C75964   0.855   7.291   5.928 -0.8404  0.7067  0.3210
  551MOL0     C75965   0.891   7.191   5.867  0.3484  0.0638 -0.0326
  551MOL0     C75966   1.094   7.624   6.545  0.1405  0.6522  0.1937
  551MOL0     C75967   1.153   7.695   6.649 -0.1039  1.4625  0.4697
  551MOL0     C75968   1.067   7.773   6.751  0.0638 -0.8977  0.8223
  551MOL0     H75969   1.356   8.009   6.930 -0.1198  1.7821 -3.4712
  551MOL0     H75970   1.506   8.144   7.086 -1.0519 -2.0001  0.6963
  551MOL0     H75971   1.949   8.156   6.990 -0.8712 -2.6533 -1.4473
  551MOL0     H75972   1.900   8.048   7.126  1.0130 -0.2044 -2.3098
  551MOL0     H75973   1.951   8.357   7.135 -2.3815 -0.6841 -1.2999
  551MOL0     H75974   1.885   8.254   7.265 -0.1034  0.5948 -0.1317
  551MOL0     H75975   2.111   8.264   7.319  0.2792 -3.0750  2.0883
  551MOL0     H75976   2.077   8.106   7.241 -0.7310  0.5835 -0.6009
  551MOL0     H75977   2.189   8.163   7.054 -1.6998 -2.1362  2.5233
  551MOL0     H75978   2.172   8.344   7.087  1.1724  0.7221  2.2549
  551MOL0     H75979   2.339   8.336   7.270  0.5603 -2.2715  1.7770
  551MOL0     H75980   2.414   8.295   7.114  0.5809  1.1691 -0.2378
  551MOL0     H75981   2.330   8.113   7.355  2.0695  0.2714  1.3362
  551MOL0     H75982   2.397   8.051   7.207 -4.1528  1.0948 -1.9135
  551MOL0     H75983   2.523   8.251   7.401  1.8870  2.9533 -2.0340
  551MOL0     H75984   2.586   8.232   7.248  0.5206 -0.2242  0.7801
  551MOL0     H75985   2.699   8.097   7.401 -0.9591  0.1203 -0.5983
  551MOL0     H75986   2.550   8.014   7.450 -0.9255 -3.0193 -1.1415
  551MOL0     H75987   2.757   8.019   7.116  1.4352 -1.3781  0.1414
  551MOL0     H75988   2.837   7.804   6.961 -1.1172 -0.1289 -2.4138
  551MOL0     H75989   2.753   7.653   6.979  0.5028 -0.4274  0.9849
  551MOL0     H75990   2.894   7.594   7.185  0.5873 -2.8036 -1.1842
  551MOL0     H75991   2.972   7.578   7.031  0.5739  2.0499 -0.9882
  551MOL0     H75992   3.095   7.771   7.033 -0.0782  1.5924 -0.4942
  551MOL0     H75993   3.019   7.841   7.188  0.9077 -1.6589  2.7872
  551MOL0     H75994   3.206   7.769   7.280  1.9282 -0.5563  0.2837
  551MOL0     H75995   3.103   7.635   7.303 -2.3701 -0.9809 -0.7671
  551MOL0     H75996   3.400   7.471   6.984 -5.5509 -0.0567  0.8981
  551MOL0     H75997   3.580   7.415   6.882 -0.3676  0.4149  1.5756
  551MOL0     H75998   3.697   7.540   6.845  0.2658 -0.1110  0.7046
  551MOL0     H75999   3.568   7.521   6.727 -1.9161  0.7944  0.8648
  551MOL0     H76000   3.578   7.763   6.446  0.2490 -2.4492  2.0099
  551MOL0     H76001   3.689   7.851   6.251 -0.6754  1.4060  0.2965
  551MOL0     H76002   4.099   8.044   6.325 -0.6387  0.5222 -0.8383
  551MOL0     H76003   4.110   7.896   6.229  0.8936 -0.1015  3.2989
  551MOL0     H76004   4.065   8.024   6.030 -0.1995  0.4760 -0.2457
  551MOL0     H76005   4.021   8.165   6.138 -2.2036 -2.3910  1.9053
  551MOL0     H76006   4.251   8.174   6.226  0.6794  1.7193 -1.1479
  551MOL0     H76007   4.249   8.184   6.043 -1.2155  0.0709  0.1079
  551MOL0     H76008   4.310   7.958   6.016 -2.3315  1.5287 -0.5977
  551MOL0     H76009   4.324   7.925   6.197 -2.9176 -1.4094 -1.4539
  551MOL0     H76010   4.482   8.121   6.038  2.8609  0.8984  1.8785
  551MOL0     H76011   4.478   8.103   6.216  2.8669 -0.1601  0.4484
  551MOL0     H76012   4.547   7.859   6.158 -0.1291 -1.3194 -0.2140
  551MOL0     H76013   4.672   7.982   6.159 -2.2731  1.0950  3.1394
  551MOL0     H76014   4.614   8.006   5.895  1.3723  0.8494  1.2150
  551MOL0     H76015   4.512   7.858   5.931 -0.1540 -1.8839  0.1828
  551MOL0     H76016   4.819   7.873   5.950 -0.6007 -0.2381  0.4317
  551MOL0     H76017   4.727   7.795   5.823 -1.4160 -2.1879  0.0381
  551MOL0     H76018   4.017   7.978   6.510  1.7986 -2.3318  0.1158
  551MOL0     H76019   3.917   7.861   6.693 -0.7615 -1.2063  0.3593
  551MOL0     H76020   3.471   7.952   6.935  1.5861 -0.6553  1.7594
  551MOL0     H76021   3.296   7.879   7.086  2.4329  1.3767  0.8348
  551MOL0     H76022   1.846   7.993   6.864 -0.0806  1.1317 -0.5819
  551MOL0     H76023   1.691   7.865   6.726 -1.4357 -0.8386  0.2892
  551MOL0     H76024   1.476   7.651   6.561  0.2599  0.1353  3.2199
  551MOL0     H76025   1.358   7.502   6.386 -1.5218 -2.0434 -0.2137
  551MOL0     H76026   0.921   7.391   6.389  0.5212  0.3578  0.3774
  551MOL0     H76027   0.925   7.565   6.345  0.6040 -0.5907  0.5557
  551MOL0     H76028   1.019   7.356   6.167  2.1065  2.0913  0.1050
  551MOL0     H76029   1.009   7.526   6.134  4.8311 -1.7599  1.3737
  551MOL0     H76030   0.786   7.313   6.163  1.8366  0.2044  2.7000
  551MOL0     H76031   0.732   7.480   6.179 -2.0801 -0.5957 -1.2104
  551MOL0     H76032   0.866   7.496   5.940 -1.6737  0.5704 -0.7006
  551MOL0     H76033   0.703   7.429   5.958 -2.1197 -2.5467  3.8069
  551MOL0     H76034   0.939   7.125   5.798 -1.4167 -0.8034 -0.4768
  551MOL0     H76035   0.986   7.622   6.548  0.1491  0.3637  0.3658
  551MOL0     H76036   1.090   7.758   6.857 -1.2222  1.3979  1.5109
  551MOL0     H76037   1.076   7.880   6.729 -3.8302 -0.4144  0.7832
  551MOL0     H76038   0.965   7.735   6.740 -0.2803 -0.4030  2.1477
  552MOL0     O76039   2.009   3.511   4.326  0.0316  0.5687  0.9502
  552MOL0     C76040   1.958   3.439   4.407  0.7839 -1.6235  0.3287
  552MOL0     O76041   2.021   3.349   4.494  0.7486  0.3559  0.2180
  552MOL0     C76042   2.154   3.334   4.504  0.6137 -0.4249  0.5947
  552MOL0     C76043   2.225   3.314   4.393  0.8589  0.0915  0.0611
  552MOL0     C76044   2.364   3.304   4.405  0.3240 -1.3045  0.5285
  552MOL0     C76045   2.431   3.316   4.524  0.0188  0.4203  0.5951
  552MOL0     O76046   2.570   3.306   4.525  0.7594  0.4943  0.2000
  552MOL0     C76047   2.616   3.195   4.604 -0.2438  0.0604 -0.0687
  552MOL0     C76048   2.762   3.163   4.574  0.1235  0.1385  0.3291
  552MOL0     C76049   2.804   3.043   4.662  0.3127 -0.0511 -0.3188
  552MOL0     C76050   2.951   3.002   4.630  0.8037 -0.0159  0.0689
  552MOL0     C76051   3.013   2.894   4.716  0.1242  0.5835 -0.4587
  552MOL0     C76052   3.150   2.830   4.681  0.2665 -0.8903 -0.1337
  552MOL0     C76053   3.148   2.765   4.539  0.0047 -0.2276  0.5067
  552MOL0     C76054   3.284   2.748   4.472 -0.1614  0.2518  0.2546
  552MOL0     N76055   3.377   2.700   4.568 -0.3454  0.8151  0.2401
  552MOL0     C76056   3.377   2.573   4.623  0.1230 -0.0090  0.5580
  552MOL0     C76057   3.473   2.572   4.723  0.4514  0.1408  0.9922
  552MOL0     C76058   3.515   2.459   4.816 -0.6132  0.5406 -0.1639
  552MOL0     C76059   3.610   2.361   4.741  0.3981 -0.6939 -0.3629
  552MOL0     C76060   3.745   2.429   4.704 -0.5946  0.0140 -0.8450
  552MOL0     C76061   3.830   2.335   4.618  0.3451  0.8785 -0.0525
  552MOL0     O76062   3.856   2.213   4.689 -0.2398  0.2216  0.0737
  552MOL0     C76063   3.948   2.196   4.789 -0.3830 -1.0147 -0.0220
  552MOL0     C76064   3.926   2.092   4.869  0.6144  0.1363 -0.3660
  552MOL0     C76065   4.026   2.060   4.965  1.3626 -1.3867 -0.3295
  552MOL0     C76066   3.985   1.946   5.053  0.7590 -0.3742 -0.8953
  552MOL0     C76067   4.155   2.126   4.969 -0.4696  0.6891 -1.3626
  552MOL0     C76068   4.262   2.094   5.071  0.1943  0.0914  0.6251
  552MOL0     O76069   4.352   2.195   5.092 -0.6962 -0.3670 -0.0598
  552MOL0     C76070   4.478   2.160   5.146  0.0696  0.9992 -0.1711
  552MOL0     C76071   4.584   2.137   5.057  0.0076 -0.6084  0.9025
  552MOL0     C76072   4.708   2.083   5.102  0.7560  0.3153  0.0357
  552MOL0     C76073   4.720   2.053   5.243  0.0839  0.0000 -0.0088
  552MOL0     O76074   4.839   1.999   5.288  0.5118  0.2102  0.7199
  552MOL0     C76075   4.963   2.071   5.254  0.3905 -1.2177 -0.4333
  552MOL0     C76076   5.029   2.105   5.391  0.0942  0.2283  0.2542
  552MOL0     C76077   4.938   2.176   5.498  0.0779  0.9146  0.3803
  552MOL0     C76078   4.998   2.229   5.622 -0.3980  0.5752 -0.0276
  552MOL0     C76079   4.915   2.226   5.750 -0.4054 -1.5527  0.2266
  552MOL0     C76080   4.855   2.093   5.810  0.6376 -0.3080 -0.4122
  552MOL0     C76081   4.722   2.107   5.899  0.4264 -0.3570  0.7667
  552MOL0     C76082   4.594   2.167   5.829  0.1215  0.0669  0.6356
  552MOL0    Cl76083   4.514   2.059   5.714 -0.1346 -0.4534  0.3849
  552MOL0     C76084   4.621   2.082   5.332  0.4206 -0.7189  0.4614
  552MOL0     C76085   4.492   2.129   5.284 -0.7936 -0.5966  0.6737
  552MOL0     O76086   4.260   1.985   5.130 -0.3658  0.4585  0.6945
  552MOL0     C76087   4.179   2.226   4.870 -0.1957  0.5197  0.5792
  552MOL0     C76088   4.074   2.257   4.784  0.4227 -1.2796 -0.3820
  552MOL0     N76089   3.532   2.698   4.726  0.3083 -0.1339  0.7605
  552MOL0     N76090   3.467   2.771   4.636 -0.1663  0.0407 -0.0672
  552MOL0     C76091   2.356   3.346   4.640 -0.0401 -0.2507  0.0381
  552MOL0     C76092   2.216   3.355   4.632  1.0711 -0.0816 -0.9643
  552MOL0     C76093   1.812   3.459   4.418  0.1858 -0.8445 -0.4475
  552MOL0     C76094   1.750   3.566   4.350 -0.7263 -0.5053  0.3742
  552MOL0     C76095   1.609   3.596   4.358  0.4588 -0.0337  0.3056
  552MOL0     C76096   1.529   3.523   4.446  0.0206  0.9318  0.6062
  552MOL0     O76097   1.393   3.548   4.446  0.3330 -0.3328  0.3853
  552MOL0     C76098   1.299   3.453   4.505  0.7395 -0.8450  0.1485
  552MOL0     C76099   1.176   3.456   4.419 -0.8512  0.2625 -0.1803
  552MOL0     C76100   1.049   3.395   4.488 -0.1477  1.1950 -0.0520
  552MOL0     C76101   0.922   3.391   4.398 -0.0843 -0.9154  0.6671
  552MOL0     C76102   0.878   3.527   4.371  0.6624 -0.3582  0.0133
  552MOL0     C76103   0.856   3.645   4.344 -0.2556 -0.0923 -0.1274
  552MOL0     C76104   1.599   3.410   4.510  1.3787  0.1913 -0.2782
  552MOL0     C76105   1.731   3.376   4.491 -0.1879 -0.1463 -0.1677
  552MOL0     C76106   1.779   3.256   4.566  0.3010 -0.1968  0.8551
  552MOL0     H76107   2.185   3.312   4.292  0.2681  1.8236  0.2150
  552MOL0     H76108   2.428   3.292   4.318  1.0263  1.7143  0.5104
  552MOL0     H76109   2.565   3.104   4.571  2.9152 -1.3215 -1.5063
  552MOL0     H76110   2.606   3.221   4.710  1.4093 -0.4695  0.2385
  552MOL0     H76111   2.766   3.142   4.466  1.9539  2.8442 -0.2325
  552MOL0     H76112   2.828   3.249   4.586  0.5532 -0.1477  0.0278
  552MOL0     H76113   2.807   3.079   4.766  2.2022  0.8187 -0.6329
  552MOL0     H76114   2.734   2.960   4.660 -0.6656  0.6986  0.9333
  552MOL0     H76115   2.951   2.967   4.527 -0.7067  0.4333 -0.1026
  552MOL0     H76116   3.009   3.093   4.648 -0.0752  0.3628  1.0753
  552MOL0     H76117   2.943   2.812   4.701 -0.8435  1.6349 -1.8829
  552MOL0     H76118   2.995   2.911   4.823 -0.6696  2.8097 -0.8959
  552MOL0     H76119   3.227   2.909   4.678  2.0316 -2.3963  2.0444
  552MOL0     H76120   3.187   2.761   4.757 -1.2584 -0.0585  1.4222
  552MOL0     H76121   3.098   2.829   4.467  0.5847  0.4134  0.6651
  552MOL0     H76122   3.091   2.671   4.541  2.3411 -1.7504  2.1513
  552MOL0     H76123   3.282   2.697   4.375 -0.9044  2.0022 -0.7002
  552MOL0     H76124   3.312   2.850   4.443 -0.3943  0.1757 -0.2447
  552MOL0     H76125   3.315   2.489   4.592  0.3967  0.6946 -2.1215
  552MOL0     H76126   3.427   2.398   4.840 -0.0637 -0.8270 -1.4431
  552MOL0     H76127   3.562   2.483   4.911 -0.0600 -0.2154 -0.2371
  552MOL0     H76128   3.630   2.276   4.807 -0.4300 -0.6521 -0.0536
  552MOL0     H76129   3.565   2.316   4.652 -1.8264 -1.7788  1.2262
  552MOL0     H76130   3.729   2.521   4.649 -0.0932 -1.2079 -3.1815
  552MOL0     H76131   3.797   2.450   4.798 -1.5200 -0.8209 -0.1248
  552MOL0     H76132   3.767   2.313   4.531  1.9289 -2.2052 -0.5556
  552MOL0     H76133   3.922   2.380   4.580  1.1480  0.4310  1.2838
  552MOL0     H76134   3.833   2.036   4.858 -0.2817  1.0432  1.8190
  552MOL0     H76135   3.993   1.973   5.159  0.8233 -2.3412 -0.3749
  552MOL0     H76136   4.051   1.859   5.051 -2.1646 -2.8570  1.2432
  552MOL0     H76137   3.889   1.903   5.022  1.3241 -2.6638  0.3729
  552MOL0     H76138   4.580   2.183   4.959  2.1763 -1.9056  0.1503
  552MOL0     H76139   4.792   2.061   5.038 -0.5564 -1.6776 -1.1233
  552MOL0     H76140   5.030   2.023   5.181  1.5751  3.0324 -2.5313
  552MOL0     H76141   4.940   2.165   5.202  2.8225  0.2195  0.8719
  552MOL0     H76142   5.046   2.008   5.438  4.3206 -0.0444 -1.3766
  552MOL0     H76143   5.131   2.146   5.390  0.8070 -1.1200  3.6499
  552MOL0     H76144   4.861   2.103   5.524 -0.9241  0.4038 -3.3207
  552MOL0     H76145   4.883   2.254   5.444  0.6443  0.9798 -0.1135
  552MOL0     H76146   5.039   2.329   5.604  1.3051 -0.3481 -1.7046
  552MOL0     H76147   5.081   2.160   5.644 -2.5187 -2.8144 -1.7700
  552MOL0     H76148   4.980   2.267   5.829 -0.7789  1.0760 -0.7131
  552MOL0     H76149   4.837   2.303   5.744  0.4547 -0.7200 -0.5814
  552MOL0     H76150   4.932   2.051   5.877  0.0533  2.3724  2.1216
  552MOL0     H76151   4.824   2.022   5.732  1.9289 -0.1331 -1.1199
  552MOL0     H76152   4.757   2.173   5.979  0.3128  1.0153 -0.2795
  552MOL0     H76153   4.685   2.019   5.952 -2.4236  0.5688  0.4674
  552MOL0     H76154   4.625   2.262   5.783  3.0327 -1.7963 -1.6518
  552MOL0     H76155   4.521   2.191   5.907 -3.1516 -1.9936 -1.5550
  552MOL0     H76156   4.642   2.074   5.438  0.7263 -1.7839  0.3357
  552MOL0     H76157   4.411   2.137   5.357 -2.8061 -0.8996 -1.4080
  552MOL0     H76158   4.276   2.275   4.869  1.6991 -2.7751  3.7022
  552MOL0     H76159   4.091   2.344   4.722  0.7948  0.9056  2.5776
  552MOL0     H76160   2.406   3.341   4.736  4.1083 -1.2138 -1.9393
  552MOL0     H76161   2.163   3.364   4.726  3.7802 -2.5438  1.0008
  552MOL0     H76162   1.800   3.634   4.282  0.7217 -1.0702  0.8479
  552MOL0     H76163   1.576   3.693   4.323  1.5170  0.4384  0.5813
  552MOL0     H76164   1.338   3.350   4.500 -0.7816 -1.3988 -1.4068
  552MOL0     H76165   1.295   3.477   4.611  0.0707 -1.1783  0.2039
  552MOL0     H76166   1.210   3.403   4.330  1.0509  1.0599  0.0400
  552MOL0     H76167   1.161   3.561   4.395  0.9238  1.0788  1.9711
  552MOL0     H76168   1.070   3.290   4.509 -2.3916  1.2154  2.9733
  552MOL0     H76169   1.037   3.434   4.590 -2.0088 -0.0900  0.2784
  552MOL0     H76170   0.838   3.344   4.451  0.2555 -1.1405  1.0078
  552MOL0     H76171   0.933   3.340   4.302  0.4173  0.3957  0.0031
  552MOL0     H76172   0.854   3.750   4.327 -0.7776 -0.3744 -2.0063
  552MOL0     H76173   1.540   3.360   4.586  0.7411 -0.7024 -1.3483
  552MOL0     H76174   1.698   3.218   4.629 -1.3613  1.5244 -0.1669
  552MOL0     H76175   1.819   3.180   4.499  1.1994  0.1129  1.0124
  552MOL0     H76176   1.855   3.290   4.638 -0.2377  5.5758 -0.8465
  553MOL0     O76177   0.263   0.322   4.470  0.0131 -1.1682  0.1264
  553MOL0     C76178   0.323   0.381   4.561  0.2794  0.1142  0.2581
  553MOL0     O76179   0.432   0.336   4.629  0.4106  0.5026  0.3369
  553MOL0     C76180   0.503   0.220   4.601  0.5175 -0.0710 -0.1821
  553MOL0     C76181   0.594   0.175   4.703  0.8496 -0.2457 -0.2454
  553MOL0     C76182   0.684   0.071   4.676  0.5975  0.4141 -0.1967
  553MOL0     C76183   0.672  -0.003   4.559 -0.6132 -0.7533  0.0139
  553MOL0     O76184   0.754  -0.108   4.556 -0.8556  0.2331  0.4968
  553MOL0     C76185   0.715  -0.218   4.479  0.8905 -0.9508  0.0734
  553MOL0     C76186   0.818  -0.320   4.515 -0.7493  0.2662  0.9001
  553MOL0     C76187   0.803  -0.372   4.656 -0.3485  1.0895  0.4608
  553MOL0     C76188   0.897  -0.495   4.678  0.9227 -0.7946  0.1409
  553MOL0     C76189   0.885  -0.557   4.820  0.3505 -0.0505  1.0118
  553MOL0     C76190   0.896  -0.455   4.930  0.4082 -0.1218 -0.6586
  553MOL0     C76191   0.916  -0.538   5.058 -0.4713 -0.2594  0.3515
  553MOL0     C76192   0.906  -0.452   5.188  1.2877  0.4035  0.6351
  553MOL0     N76193   1.026  -0.369   5.192 -0.8331  0.1543 -0.3963
  553MOL0     C76194   1.148  -0.408   5.245  0.0677 -0.6093  1.1245
  553MOL0     C76195   1.231  -0.302   5.211  0.5990 -0.0638 -0.0555
  553MOL0     C76196   1.379  -0.290   5.224 -0.0275 -0.0143  0.3691
  553MOL0     C76197   1.429  -0.366   5.349 -0.0754 -0.5509  0.1441
  553MOL0     C76198   1.577  -0.341   5.362 -0.3159 -0.1480  0.8065
  553MOL0     C76199   1.631  -0.433   5.471  0.0062 -0.3465  0.3772
  553MOL0     O76200   1.766  -0.463   5.427 -0.3295 -0.1558  0.3542
  553MOL0     C76201   1.872  -0.383   5.456 -0.7517  0.0880  1.3297
  553MOL0     C76202   1.999  -0.425   5.421  0.2234  1.1097 -1.2081
  553MOL0     C76203   2.110  -0.342   5.442  0.5478 -0.1174  0.0831
  553MOL0     C76204   2.240  -0.405   5.409  0.7860 -0.0146  0.6308
  553MOL0     C76205   2.099  -0.221   5.512  0.0160  0.2889  0.0796
  553MOL0     C76206   2.218  -0.150   5.556  0.3864  0.5434  0.2143
  553MOL0     O76207   2.198  -0.092   5.675  0.1424 -0.5027 -0.2402
  553MOL0     C76208   2.286   0.002   5.726  0.0288 -0.6170  0.1424
  553MOL0     C76209   2.233   0.110   5.794  0.3445 -0.5052 -0.1529
  553MOL0     C76210   2.312   0.193   5.864 -0.0691 -0.2911  0.6918
  553MOL0     C76211   2.457   0.185   5.860  0.2862 -0.0051 -0.0448
  553MOL0     O76212   2.534   0.277   5.933  0.0924  0.1535  0.2184
  553MOL0     C76213   2.653   0.234   5.996 -0.3379  0.4556 -0.6247
  553MOL0     C76214   2.724   0.349   6.061  0.3627 -0.5573  0.3702
  553MOL0     C76215   2.835   0.292   6.154  0.4916 -0.2569  0.4330
  553MOL0     C76216   2.910   0.403   6.215 -0.2443  0.2966 -0.4835
  553MOL0     C76217   2.993   0.345   6.331  0.8953 -0.5184  0.8489
  553MOL0     C76218   3.062   0.455   6.404  0.3441 -0.7534  0.0383
  553MOL0     C76219   3.189   0.490   6.324  0.6025 -0.0011  0.1303
  553MOL0     C76220   3.256   0.604   6.399  0.5792  0.0132  0.4240
  553MOL0    Cl76221   3.413   0.654   6.325  0.3688  0.0349 -0.0725
  553MOL0     C76222   2.510   0.068   5.797  0.6756 -0.1203  0.7815
  553MOL0     C76223   2.424  -0.021   5.724 -0.6641 -0.6604 -0.1632
  553MOL0     O76224   2.303  -0.128   5.480 -0.0958 -1.1727  0.2854
  553MOL0     C76225   1.969  -0.188   5.557  0.0573 -0.1699  0.8983
  553MOL0     C76226   1.860  -0.251   5.511  0.1040 -0.9588 -1.2163
  553MOL0     N76227   1.159  -0.207   5.147  0.4614 -0.3681 -0.5594
  553MOL0     N76228   1.033  -0.245   5.136  0.0544 -0.2591 -0.2017
  553MOL0     C76229   0.565   0.025   4.472 -0.1691 -0.8459 -0.5316
  553MOL0     C76230   0.487   0.138   4.491  1.0253  0.9318  0.1542
  553MOL0     C76231   0.285   0.519   4.592  1.0837 -0.8346  0.4633
  553MOL0     C76232   0.345   0.598   4.696 -0.4115 -0.3036 -0.0318
  553MOL0     C76233   0.303   0.729   4.728 -0.1627 -0.0680 -0.5885
  553MOL0     C76234   0.198   0.789   4.672  0.3042 -0.2135 -0.1198
  553MOL0     O76235   0.156   0.914   4.703 -0.9381  0.2188  1.1584
  553MOL0     C76236   0.029   0.915   4.777 -0.6183 -0.1778 -0.5615
  553MOL0     C76237   0.033   0.851   4.908 -0.1584 -0.3365  0.3259
  553MOL0     C76238   0.147   0.912   4.999 -0.5163  0.9099  0.5348
  553MOL0     C76239   0.172   0.806   5.115  0.2050  1.4333 -0.5188
  553MOL0     C76240   0.314   0.813   5.159  0.4706  0.3135  0.5019
  553MOL0     C76241   0.429   0.828   5.183 -0.2898 -0.0139  0.8453
  553MOL0     C76242   0.148   0.726   4.566  0.6709 -0.0396  0.1594
  553MOL0     C76243   0.187   0.600   4.522  0.6823  0.7110  0.0833
  553MOL0     C76244   0.140   0.559   4.388 -0.4498 -1.1211 -0.2158
  553MOL0     H76245   0.602   0.248   4.783  0.6473  0.5268 -0.9156
  553MOL0     H76246   0.762   0.037   4.744  1.9992 -0.9766 -2.3851
  553MOL0     H76247   0.719  -0.187   4.374  1.5658  1.8502  0.8447
  553MOL0     H76248   0.612  -0.237   4.512  0.4826  2.1060  0.8172
  553MOL0     H76249   0.795  -0.396   4.439 -1.5248  0.8236  0.5661
  553MOL0     H76250   0.915  -0.277   4.490 -0.0457 -0.1853  2.7154
  553MOL0     H76251   0.823  -0.297   4.733  0.2023 -0.0479  1.4792
  553MOL0     H76252   0.698  -0.401   4.655  0.6689 -3.5177  1.5538
  553MOL0     H76253   0.881  -0.570   4.600  1.2526 -1.8241  1.0418
  553MOL0     H76254   0.994  -0.444   4.670 -0.6506  2.5569  0.5823
  553MOL0     H76255   0.969  -0.625   4.834  0.6246  0.6638  3.5629
  553MOL0     H76256   0.789  -0.609   4.824  0.7051 -0.6688  1.5060
  553MOL0     H76257   0.982  -0.389   4.927  0.1581  0.2636  0.2111
  553MOL0     H76258   0.809  -0.390   4.918  0.2106 -0.5360 -1.5891
  553MOL0     H76259   1.011  -0.592   5.061 -0.1995  0.2506  2.0657
  553MOL0     H76260   0.838  -0.615   5.056 -1.0454  0.2955  0.9320
  553MOL0     H76261   0.816  -0.392   5.200  0.6044  0.3797 -3.2101
  553MOL0     H76262   0.904  -0.529   5.266 -1.1992 -2.0595 -1.6426
  553MOL0     H76263   1.161  -0.510   5.280 -2.7761 -2.3530 -2.2818
  553MOL0     H76264   1.400  -0.183   5.231 -1.3511  0.6008 -3.2955
  553MOL0     H76265   1.427  -0.329   5.134 -0.7072 -0.5175  0.2206
  553MOL0     H76266   1.372  -0.334   5.437 -1.6925 -1.7534 -0.4144
  553MOL0     H76267   1.415  -0.475   5.342 -0.4564 -0.7118  2.5138
  553MOL0     H76268   1.624  -0.350   5.263  0.2600  2.9553  0.6962
  553MOL0     H76269   1.605  -0.240   5.392 -0.3456 -0.2606  1.2238
  553MOL0     H76270   1.627  -0.378   5.566  0.5216  0.8081 -0.2506
  553MOL0     H76271   1.571  -0.524   5.474  1.1738 -1.1130  2.1243
  553MOL0     H76272   2.009  -0.519   5.366 -4.0135 -1.9643  2.5485
  553MOL0     H76273   2.244  -0.494   5.472  0.1589 -0.1393  0.5088
  553MOL0     H76274   2.330  -0.343   5.411 -0.4965  1.9319  0.6238
  553MOL0     H76275   2.221  -0.457   5.315  3.1452 -2.4912  1.4069
  553MOL0     H76276   2.127   0.129   5.789  0.7935  2.1023 -1.0341
  553MOL0     H76277   2.267   0.278   5.913 -3.0642 -3.0051  3.1362
  553MOL0     H76278   2.625   0.156   6.068  0.9574  0.3683 -0.2021
  553MOL0     H76279   2.729   0.197   5.928  1.3309  1.6828  0.4933
  553MOL0     H76280   2.773   0.419   5.993  0.1263 -0.3715  0.3920
  553MOL0     H76281   2.647   0.410   6.107 -2.0955 -1.6341 -2.0256
  553MOL0     H76282   2.902   0.224   6.100  2.0931  1.9569 -0.5234
  553MOL0     H76283   2.795   0.226   6.231 -1.4852  0.2037 -0.1191
  553MOL0     H76284   2.840   0.477   6.255 -0.4199  1.0347 -2.1113
  553MOL0     H76285   2.982   0.450   6.147 -0.4007  1.7067  0.2701
  553MOL0     H76286   2.925   0.293   6.399 -0.4536 -0.4665 -0.4209
  553MOL0     H76287   3.065   0.268   6.301 -1.5489 -1.9710 -1.6597
  553MOL0     H76288   3.094   0.416   6.501 -1.9773 -1.4018  0.5895
  553MOL0     H76289   3.007   0.550   6.407  1.9121  0.2098 -0.4882
  553MOL0     H76290   3.169   0.517   6.220  2.2833 -1.7144 -0.7070
  553MOL0     H76291   3.262   0.409   6.334 -1.4548 -1.8418  1.0604
  553MOL0     H76292   3.285   0.578   6.501  0.4679  0.3859  0.5551
  553MOL0     H76293   3.188   0.690   6.404  1.5620  0.7480  4.2975
  553MOL0     H76294   2.617   0.047   5.795  1.0123  1.5618 -0.8046
  553MOL0     H76295   2.469  -0.108   5.678 -1.3966 -0.4890 -1.2334
  553MOL0     H76296   1.947  -0.105   5.623 -4.6461 -1.7288  1.6474
  553MOL0     H76297   1.765  -0.208   5.541  0.1623 -1.4686 -0.2998
  553MOL0     H76298   0.549  -0.048   4.393  0.7013 -2.0365  0.3664
  553MOL0     H76299   0.423   0.173   4.410  2.4657 -2.9447 -3.0003
  553MOL0     H76300   0.434   0.558   4.744  0.7961  0.4708 -1.5569
  553MOL0     H76301   0.351   0.779   4.812  0.9339 -0.9335 -0.6732
  553MOL0     H76302   0.013   1.021   4.802 -0.6172 -0.9261  3.1343
  553MOL0     H76303  -0.064   0.876   4.733 -1.4331  0.9234  0.1041
  553MOL0     H76304   0.036   0.742   4.899  1.9300 -0.2198 -1.0457
  553MOL0     H76305  -0.061   0.873   4.960 -0.9805 -1.6306 -0.5629
  553MOL0     H76306   0.235   0.926   4.935 -1.7385 -2.0155 -2.0791
  553MOL0     H76307   0.115   1.009   5.039  1.2675  0.8827  2.1445
  553MOL0     H76308   0.167   0.699   5.092 -1.6764  0.7458  2.4665
  553MOL0     H76309   0.092   0.821   5.189 -2.9232  0.6198 -3.4505
  553MOL0     H76310   0.533   0.846   5.198  0.0487 -1.6747  0.6029
  553MOL0     H76311   0.084   0.786   4.502 -2.4608  0.0336  3.0683
  553MOL0     H76312   0.059   0.486   4.384 -2.3137  0.7267  1.1011
  553MOL0     H76313   0.103   0.647   4.335  5.1772  1.7967 -0.1074
  553MOL0     H76314   0.234   0.531   4.340  1.2836  0.7753  1.8199
  554MOL0     O76315  10.946   9.429   1.545 -0.1247  0.1736 -0.3524
  554MOL0     C76316  10.984   9.518   1.622  0.6848  0.1344  0.0018
  554MOL0     O76317  10.920   9.640   1.635  1.0652  0.2565 -0.0427
  554MOL0     C76318  10.792   9.658   1.583 -0.1553 -0.1941  0.0342
  554MOL0     C76319  10.755   9.649   1.448  1.3043  0.0969 -0.4724
  554MOL0     C76320  10.619   9.672   1.403 -0.8569 -0.7422 -1.3352
  554MOL0     C76321  10.522   9.711   1.495 -0.3857  0.7048 -0.0284
  554MOL0     O76322  10.394   9.734   1.450 -0.6160  0.2279 -0.0016
  554MOL0     C76323  10.293   9.686   1.540 -0.4625 -0.5057 -0.3822
  554MOL0     C76324  10.168   9.654   1.454 -1.1437 -0.6237  0.9132
  554MOL0     C76325  10.197   9.515   1.396 -0.6734  0.5267 -0.0458
  554MOL0     C76326  10.097   9.480   1.283 -0.3879  1.0381  0.3118
  554MOL0     C76327  10.152   9.377   1.180 -0.1367  0.6615  0.3271
  554MOL0     C76328  10.065   9.394   1.050  0.5880 -0.6078 -0.4818
  554MOL0     C76329  10.112   9.320   0.924  0.1654 -0.5914 -0.6989
  554MOL0     C76330  10.110   9.167   0.944 -0.1645  0.4263  1.1860
  554MOL0     N76331  10.160   9.110   0.815 -0.5341  0.0859  0.3910
  554MOL0     C76332  10.288   9.081   0.777  0.4127 -0.6818  0.3984
  554MOL0     C76333  10.300   9.080   0.643  0.2064  0.1615  0.5538
  554MOL0     C76334  10.432   9.083   0.565  0.2769  0.4791  0.2846
  554MOL0     C76335  10.420   9.191   0.452 -1.1575 -0.3198  0.4109
  554MOL0     C76336  10.551   9.205   0.392 -0.8330 -0.3001 -0.2747
  554MOL0     C76337  10.561   9.327   0.298  0.5778  0.9769 -0.4971
  554MOL0     O76338  10.561   9.449   0.367  0.4173  1.1958 -0.1376
  554MOL0     C76339  10.683   9.512   0.373  0.6638  0.5268 -1.0984
  554MOL0     C76340  10.740   9.551   0.495  0.5930 -0.3394 -0.6912
  554MOL0     C76341  10.865   9.622   0.503 -0.2269 -0.4657  0.6250
  554MOL0     C76342  10.942   9.618   0.635  0.1532 -0.3591 -0.2382
  554MOL0     C76343  10.931   9.646   0.374 -0.3486 -0.7600 -0.1114
  554MOL0     C76344  11.073   9.696   0.368 -0.8022  0.3721 -0.0608
  554MOL0     O76345  11.139   9.676   0.251 -0.0285 -0.4816 -0.3644
  554MOL0     C76346  11.276   9.713   0.244  1.1388  0.5899  0.0248
  554MOL0     C76347  11.356   9.594   0.238 -0.5038 -0.3341  0.2320
  554MOL0     C76348  11.497   9.613   0.218  0.0613  0.0254 -0.4034
  554MOL0     C76349  11.549   9.746   0.203  0.0700  1.0880  0.7480
  554MOL0     O76350  11.681   9.770   0.183 -0.7547 -0.2733  0.1656
  554MOL0     C76351  11.778   9.681   0.253 -0.0112 -0.6685 -0.6693
  554MOL0     C76352  11.892   9.625   0.163  0.3979  0.2196 -0.3408
  554MOL0     C76353  11.844   9.494   0.098  0.2934 -0.2936  0.3245
  554MOL0     C76354  11.762   9.523  -0.032 -0.6431  0.9108 -0.2910
  554MOL0     C76355  11.705   9.405  -0.097 -0.0138  0.6522  0.7381
  554MOL0     C76356  11.589   9.423  -0.187  0.2447  0.6494 -0.6238
  554MOL0     C76357  11.528   9.290  -0.232  0.3453  0.1481  0.8736
  554MOL0     C76358  11.444   9.196  -0.132 -1.4483 -0.2209  0.3885
  554MOL0    Cl76359  11.368   9.304  -0.008 -0.0588 -0.0522 -0.5380
  554MOL0     C76360  11.465   9.861   0.218  0.4527  0.4814  1.1509
  554MOL0     C76361  11.324   9.845   0.235 -0.5480  0.0372  1.4716
  554MOL0     O76362  11.128   9.747   0.463  0.0721  0.2320 -0.1274
  554MOL0     C76363  10.870   9.612   0.253  0.3984 -0.2870 -0.2878
  554MOL0     C76364  10.753   9.538   0.252 -0.4183 -0.5431  0.1299
  554MOL0     N76365  10.168   9.095   0.604 -0.5936  0.2114 -0.1942
  554MOL0     N76366  10.088   9.114   0.703  0.1913 -0.0818  0.9127
  554MOL0     C76367  10.563   9.723   1.629 -0.1960 -0.0218  0.2694
  554MOL0     C76368  10.698   9.705   1.671 -0.3687 -0.1538  0.1445
  554MOL0     C76369  11.104   9.490   1.690 -0.4609 -0.5401 -0.7802
  554MOL0     C76370  11.186   9.603   1.707  0.4773  0.3238 -1.6230
  554MOL0     C76371  11.308   9.599   1.771  0.1394  0.4585  0.1069
  554MOL0     C76372  11.372   9.474   1.815  0.7856 -0.6336  0.2092
  554MOL0     O76373  11.504   9.464   1.860  0.0294 -0.0819 -0.4680
  554MOL0     C76374  11.562   9.340   1.910 -0.8462  0.7855 -0.4213
  554MOL0     C76375  11.613   9.236   1.802  0.0886 -0.4647 -0.4481
  554MOL0     C76376  11.694   9.297   1.686  0.6945 -0.1247 -0.6042
  554MOL0     C76377  11.678   9.211   1.559  0.6715  0.2643  1.0265
  554MOL0     C76378  11.540   9.205   1.507  0.4681  0.6916  0.0882
  554MOL0     C76379  11.418   9.214   1.458 -0.3858  0.6137 -0.3344
  554MOL0     C76380  11.280   9.362   1.809  0.0566 -0.1747 -1.0086
  554MOL0     C76381  11.151   9.368   1.744 -0.2378 -0.3767  0.2756
  554MOL0     C76382  11.072   9.243   1.741 -0.0650  0.4560  0.5624
  554MOL0     H76383  10.837   9.615   1.386  0.2303  0.2137 -2.0154
  554MOL0     H76384  10.600   9.645   1.300  0.3705 -4.3718 -0.7629
  554MOL0     H76385  10.274   9.766   1.612  0.4541  0.6880 -1.4132
  554MOL0     H76386  10.319   9.597   1.598 -2.6818 -1.1035 -0.2050
  554MOL0     H76387  10.080   9.651   1.519 -2.3545  1.4790 -0.5271
  554MOL0     H76388  10.165   9.726   1.372  4.0002 -0.3682  0.6274
  554MOL0     H76389  10.298   9.512   1.357 -1.4371 -0.1636 -2.0859
  554MOL0     H76390  10.182   9.441   1.475  1.3900  1.0787  0.9344
  554MOL0     H76391  10.004   9.436   1.320  0.7011 -1.4602  0.3104
  554MOL0     H76392  10.091   9.578   1.234  2.4771  1.7839  1.2515
  554MOL0     H76393  10.147   9.278   1.227  0.2051  1.3589  1.9002
  554MOL0     H76394  10.260   9.391   1.172 -0.0035  0.2109  1.2087
  554MOL0     H76395   9.970   9.344   1.073  1.7089 -1.9891  1.4567
  554MOL0     H76396  10.046   9.498   1.023 -1.8272 -0.8589 -0.0601
  554MOL0     H76397  10.205   9.364   0.888 -0.7551  2.7821  0.6894
  554MOL0     H76398  10.054   9.348   0.835 -0.8852  2.2786  0.7695
  554MOL0     H76399  10.172   9.140   1.030 -0.0244 -0.8559  0.7106
  554MOL0     H76400  10.007   9.136   0.964  0.4431 -3.8129 -1.1069
  554MOL0     H76401  10.375   9.085   0.843 -1.6172  4.2596  3.3717
  554MOL0     H76402  10.431   8.981   0.526  0.8428  1.2371 -1.8215
  554MOL0     H76403  10.507   9.103   0.642 -1.3669 -0.9615  2.3724
  554MOL0     H76404  10.351   9.154   0.376 -1.0452  0.0102  0.1467
  554MOL0     H76405  10.388   9.286   0.495 -0.9355 -0.7059  1.4742
  554MOL0     H76406  10.629   9.220   0.467 -0.1042 -1.8948 -0.6616
  554MOL0     H76407  10.578   9.118   0.331 -0.7137  0.1175 -0.8132
  554MOL0     H76408  10.654   9.322   0.241  1.6474  2.0748  1.0775
  554MOL0     H76409  10.482   9.327   0.221 -1.2832 -2.3594  1.1928
  554MOL0     H76410  10.681   9.525   0.583 -0.0685  1.4752 -0.5382
  554MOL0     H76411  11.030   9.553   0.631 -1.6420 -3.1051  1.6599
  554MOL0     H76412  10.876   9.581   0.714 -1.3426  1.7443 -0.4136
  554MOL0     H76413  10.970   9.723   0.648  1.3162 -0.5698 -0.8962
  554MOL0     H76414  11.296   9.504   0.248 -0.8151 -0.2340 -0.6189
  554MOL0     H76415  11.543   9.514   0.219 -2.2918 -1.1576  0.8331
  554MOL0     H76416  11.820   9.740   0.335 -0.8982  0.0051 -0.6817
  554MOL0     H76417  11.730   9.595   0.301 -0.9205 -1.6179 -3.1391
  554MOL0     H76418  11.914   9.702   0.089 -0.2257 -0.5804 -1.4061
  554MOL0     H76419  11.974   9.609   0.233 -1.1790 -0.3973  1.4445
  554MOL0     H76420  11.786   9.425   0.159 -0.8677  0.6595  0.3406
  554MOL0     H76421  11.930   9.442   0.055  0.1718  1.3988 -2.1712
  554MOL0     H76422  11.828   9.580  -0.097  2.1693  0.0668  1.6547
  554MOL0     H76423  11.676   9.583  -0.002 -1.6487  0.1601 -1.5299
  554MOL0     H76424  11.787   9.353  -0.148 -0.9217 -0.0552 -0.0526
  554MOL0     H76425  11.666   9.342  -0.017 -2.1189  1.6972  0.6069
  554MOL0     H76426  11.617   9.489  -0.270  1.7249 -0.0833 -0.7229
  554MOL0     H76427  11.516   9.480  -0.128 -2.1708 -1.7383 -1.0747
  554MOL0     H76428  11.603   9.229  -0.283 -2.0517  0.4838 -3.5906
  554MOL0     H76429  11.458   9.323  -0.310  1.0413 -1.4195 -0.4807
  554MOL0     H76430  11.509   9.123  -0.083 -1.8284 -0.6300  0.2888
  554MOL0     H76431  11.362   9.141  -0.180  0.6312 -3.3397  0.1450
  554MOL0     H76432  11.501   9.963   0.214 -0.5041  0.8626 -2.9730
  554MOL0     H76433  11.264   9.935   0.241  2.5077  2.3584  0.3279
  554MOL0     H76434  10.918   9.633   0.158 -0.3425 -0.3747 -0.6937
  554MOL0     H76435  10.712   9.509   0.156  0.9650 -2.7056  0.1343
  554MOL0     H76436  10.496   9.759   1.706  2.1710  4.9505  0.4054
  554MOL0     H76437  10.728   9.716   1.774  3.0105  1.8518 -0.9026
  554MOL0     H76438  11.158   9.706   1.687 -3.4428  0.5606  3.3461
  554MOL0     H76439  11.373   9.684   1.785  0.9895  0.1666 -1.6571
  554MOL0     H76440  11.652   9.358   1.970 -0.2574 -2.1565 -0.2533
  554MOL0     H76441  11.498   9.290   1.983  0.2211  0.8006  0.5530
  554MOL0     H76442  11.523   9.179   1.775  0.1272 -0.4604 -0.5898
  554MOL0     H76443  11.677   9.167   1.858 -1.2071 -0.9331  0.4947
  554MOL0     H76444  11.658   9.397   1.657  0.6617  0.4492  1.2488
  554MOL0     H76445  11.798   9.321   1.708  0.4879  3.2458 -2.5930
  554MOL0     H76446  11.717   9.113   1.588  1.6655  0.5562  0.7207
  554MOL0     H76447  11.731   9.253   1.474 -1.8716  0.8833 -0.3387
  554MOL0     H76448  11.316   9.211   1.424 -0.8116  1.1406  0.8300
  554MOL0     H76449  11.303   9.264   1.850  1.6279 -0.4813 -2.4986
  554MOL0     H76450  11.030   9.220   1.642 -0.7720 -2.1685  1.4025
  554MOL0     H76451  11.128   9.156   1.777 -0.2009  0.4493  0.7523
  554MOL0     H76452  10.990   9.266   1.809 -0.3303 -1.1113  0.7942
  555MOL0     O76453   9.366   8.294   5.167 -0.2047  0.6910 -0.2725
  555MOL0     C76454   9.437   8.355   5.247  0.6716 -0.5169  0.2463
  555MOL0     O76455   9.572   8.369   5.233  1.0025  0.6749 -0.3253
  555MOL0     C76456   9.647   8.318   5.128 -0.0601 -0.0516  0.4966
  555MOL0     C76457   9.610   8.336   4.991  0.1442 -0.3402 -0.6673
  555MOL0     C76458   9.686   8.279   4.887 -0.7786 -0.4422 -1.6470
  555MOL0     C76459   9.814   8.232   4.922 -1.1808  0.2104  0.5859
  555MOL0     O76460   9.906   8.207   4.823  0.0788  0.2388  0.4763
  555MOL0     C76461  10.040   8.166   4.846 -0.2451 -0.2173 -0.1277
  555MOL0     C76462  10.116   8.119   4.720  0.1992 -0.6409 -0.1866
  555MOL0     C76463  10.239   8.031   4.748  0.4103  0.6467 -0.4927
  555MOL0     C76464  10.277   7.946   4.625 -0.2923  0.6002  0.0210
  555MOL0     C76465  10.382   7.838   4.671  0.4745  0.5095 -0.2692
  555MOL0     C76466  10.446   7.758   4.557 -0.4715  0.7864  0.3724
  555MOL0     C76467  10.357   7.685   4.467 -0.1006 -0.4463  0.8856
  555MOL0     C76468  10.433   7.579   4.381  0.4841  1.0208 -0.3670
  555MOL0     N76469  10.373   7.544   4.259 -0.6053  0.2020  0.0731
  555MOL0     C76470  10.255   7.482   4.249  0.1231 -0.8222  0.4015
  555MOL0     C76471  10.248   7.453   4.124 -0.0300 -0.2699  0.2230
  555MOL0     C76472  10.135   7.379   4.044 -0.5832 -0.4254 -0.4005
  555MOL0     C76473  10.163   7.240   3.998  0.2569 -0.4629 -0.0104
  555MOL0     C76474  10.202   7.144   4.113 -1.8430  0.1244  0.6200
  555MOL0     C76475  10.107   7.123   4.233 -1.0627  0.0187  0.7659
  555MOL0     O76476  10.088   7.254   4.298 -0.5374 -0.0189 -0.9617
  555MOL0     C76477  10.017   7.255   4.413  0.6174  1.0136 -0.2317
  555MOL0     C76478   9.903   7.333   4.418  0.1927 -0.8841 -0.2346
  555MOL0     C76479   9.816   7.334   4.533 -0.5546 -0.3177  0.5618
  555MOL0     C76480   9.675   7.380   4.498  0.0338 -0.8195  0.3267
  555MOL0     C76481   9.858   7.265   4.646  1.5638  0.7079 -0.5302
  555MOL0     C76482   9.778   7.258   4.767 -0.1851 -0.9912 -1.0940
  555MOL0     O76483   9.836   7.203   4.880  0.2003  0.3011  0.2191
  555MOL0     C76484   9.790   7.235   5.005  0.5341  0.1369 -0.2018
  555MOL0     C76485   9.775   7.367   5.042  0.7346 -0.4692  0.1036
  555MOL0     C76486   9.734   7.404   5.171  0.6050  1.0839  0.2275
  555MOL0     C76487   9.699   7.319   5.265  0.5404 -0.3104  0.2157
  555MOL0     O76488   9.677   7.365   5.395  0.5796 -0.1142 -0.1069
  555MOL0     C76489   9.667   7.276   5.505 -0.1979  0.4108  0.2489
  555MOL0     C76490   9.523   7.252   5.543 -0.0123  0.7327  1.1792
  555MOL0     C76491   9.503   7.126   5.628 -0.5073 -0.0455  0.1538
  555MOL0     C76492   9.365   7.076   5.630  0.0541  0.3640 -0.3588
  555MOL0     C76493   9.349   6.956   5.728 -0.0143  0.7931  0.5798
  555MOL0     C76494   9.212   6.893   5.729 -0.2952  0.7214 -1.1294
  555MOL0     C76495   9.096   6.985   5.778  0.5190  1.2371 -0.3254
  555MOL0     C76496   8.998   6.923   5.871  0.2471 -0.1191  0.3069
  555MOL0    Cl76497   8.942   6.776   5.792  0.3084  0.0623 -0.5711
  555MOL0     C76498   9.715   7.174   5.232  0.2033 -0.1610 -0.3814
  555MOL0     C76499   9.767   7.138   5.104  0.1672 -0.4804 -0.1716
  555MOL0     O76500   9.687   7.339   4.771 -0.3235  0.1099 -0.4233
  555MOL0     C76501   9.967   7.181   4.642  1.3295 -0.5057  0.0245
  555MOL0     C76502  10.044   7.180   4.527 -0.6388  0.2047  0.3072
  555MOL0     N76503  10.369   7.479   4.052  0.6011 -0.3431 -1.2300
  555MOL0     N76504  10.452   7.526   4.143  0.0927 -0.3035 -0.9381
  555MOL0     C76505   9.840   8.200   5.054  0.4013 -0.4660  0.1383
  555MOL0     C76506   9.762   8.239   5.159 -0.2518  0.2165  0.5868
  555MOL0     C76507   9.375   8.409   5.372 -0.1111  0.0123 -0.1495
  555MOL0     C76508   9.243   8.446   5.371 -0.2099  0.3164  0.2798
  555MOL0     C76509   9.175   8.509   5.477 -0.5566 -0.4826 -0.4468
  555MOL0     C76510   9.237   8.535   5.596  0.0141  0.3666 -0.5140
  555MOL0     O76511   9.177   8.596   5.696  0.4873  0.1410  0.1066
  555MOL0     C76512   9.053   8.678   5.671  0.4354  0.2637 -1.2685
  555MOL0     C76513   8.996   8.739   5.804 -0.2290  0.7444  0.0691
  555MOL0     C76514   8.882   8.657   5.868 -0.6262  0.5234  0.0797
  555MOL0     C76515   8.795   8.745   5.957  0.3076 -0.5254 -0.3426
  555MOL0     C76516   8.874   8.815   6.051 -0.9617  0.3952  0.0208
  555MOL0     C76517   8.941   8.863   6.140  0.0380 -0.0449 -0.1088
  555MOL0     C76518   9.368   8.490   5.601 -0.1350 -0.1407  0.2034
  555MOL0     C76519   9.438   8.429   5.496 -0.8341 -0.8886  0.0593
  555MOL0     C76520   9.578   8.376   5.525 -0.0844 -0.4856  0.1156
  555MOL0     H76521   9.514   8.382   4.969  0.6764  1.8364  1.2000
  555MOL0     H76522   9.674   8.287   4.779  3.7418 -0.7147 -2.3605
  555MOL0     H76523  10.037   8.090   4.925  0.2016  2.3824  2.5854
  555MOL0     H76524  10.090   8.251   4.895  1.4711 -0.9276 -0.5828
  555MOL0     H76525  10.047   8.056   4.663 -2.2604 -1.0483  2.9326
  555MOL0     H76526  10.142   8.207   4.661 -0.2913  0.0439  0.5895
  555MOL0     H76527  10.319   8.086   4.798  0.2413  1.2954 -0.9320
  555MOL0     H76528  10.218   7.953   4.823  0.2396  0.7034 -0.4821
  555MOL0     H76529  10.190   7.894   4.583  2.7457 -2.2853 -3.5416
  555MOL0     H76530  10.318   8.002   4.540 -2.4530  1.0834 -0.7640
  555MOL0     H76531  10.333   7.780   4.750 -1.3336  1.1926 -0.8438
  555MOL0     H76532  10.468   7.887   4.717  1.8195 -2.3107  0.4420
  555MOL0     H76533  10.512   7.825   4.501 -0.3601 -0.2816 -0.8162
  555MOL0     H76534  10.521   7.695   4.605  0.6744  0.5053 -1.6985
  555MOL0     H76535  10.292   7.756   4.416 -0.6738 -2.6420 -1.6870
  555MOL0     H76536  10.281   7.631   4.524 -3.5631  2.8703 -0.1642
  555MOL0     H76537  10.530   7.626   4.362 -0.2854  1.9540 -2.2574
  555MOL0     H76538  10.443   7.489   4.443 -0.3020  0.6985 -0.6881
  555MOL0     H76539  10.174   7.473   4.320 -2.0726 -1.0734 -1.9628
  555MOL0     H76540  10.122   7.436   3.951 -0.9577 -0.6802 -0.5071
  555MOL0     H76541  10.043   7.382   4.103 -0.4022 -0.0547 -0.1310
  555MOL0     H76542  10.087   7.197   3.932 -1.0409  1.0059  0.4840
  555MOL0     H76543  10.252   7.230   3.934  0.3700 -4.6182  0.5169
  555MOL0     H76544  10.227   7.043   4.078  0.1733  0.5473  0.7231
  555MOL0     H76545  10.295   7.184   4.152 -1.2109 -1.6299  1.0236
  555MOL0     H76546  10.010   7.087   4.198 -1.6755  0.5129  1.8976
  555MOL0     H76547  10.154   7.058   4.307  0.6939  0.1788 -0.1774
  555MOL0     H76548   9.863   7.394   4.337 -0.3713 -0.2574  0.4974
  555MOL0     H76549   9.660   7.358   4.392  0.1403  1.1439 -0.1385
  555MOL0     H76550   9.655   7.485   4.523 -1.0750 -0.4486 -1.8840
  555MOL0     H76551   9.598   7.317   4.543 -1.1834  0.4969  0.1429
  555MOL0     H76552   9.794   7.447   4.970  0.9712 -0.7483 -0.1444
  555MOL0     H76553   9.744   7.511   5.185 -1.9875  1.1762  2.2744
  555MOL0     H76554   9.739   7.193   5.505 -1.4372 -0.7444 -1.7572
  555MOL0     H76555   9.701   7.342   5.585 -1.6865  2.6586 -0.8682
  555MOL0     H76556   9.486   7.344   5.589 -0.3510  1.9225 -1.3080
  555MOL0     H76557   9.460   7.238   5.455  0.9200  0.6030  0.5188
  555MOL0     H76558   9.543   7.136   5.729  1.0785 -1.1137 -0.3388
  555MOL0     H76559   9.565   7.044   5.591 -0.7150 -0.2087  0.1623
  555MOL0     H76560   9.326   7.044   5.533 -0.7669  1.0918 -0.2891
  555MOL0     H76561   9.306   7.158   5.672  0.8908 -0.2279  2.1635
  555MOL0     H76562   9.425   6.881   5.704  0.0062  1.1518 -0.5353
  555MOL0     H76563   9.365   6.993   5.829  1.3287  1.5225  0.1296
  555MOL0     H76564   9.219   6.806   5.794 -1.0918 -0.4592 -2.5534
  555MOL0     H76565   9.190   6.848   5.632  0.7252 -0.5949 -0.7774
  555MOL0     H76566   9.040   7.033   5.698  0.2398  2.1047  0.3697
  555MOL0     H76567   9.137   7.070   5.834 -2.0205  1.5209  1.2201
  555MOL0     H76568   8.916   6.992   5.892  0.5465 -0.0525  1.3535
  555MOL0     H76569   9.042   6.900   5.969  0.7791  0.0125  0.1002
  555MOL0     H76570   9.701   7.100   5.310 -1.6069  1.2932  0.7754
  555MOL0     H76571   9.807   7.038   5.091  2.4432  0.2021  0.9431
  555MOL0     H76572  10.003   7.122   4.725  0.7519 -0.8335  0.0500
  555MOL0     H76573  10.142   7.134   4.533 -0.3508  0.7149 -0.3507
  555MOL0     H76574   9.924   8.134   5.074  0.7067 -0.7232 -1.8113
  555MOL0     H76575   9.798   8.200   5.254  0.2714 -1.5979 -0.3018
  555MOL0     H76576   9.181   8.432   5.284 -0.8757 -2.7747  1.1341
  555MOL0     H76577   9.070   8.520   5.452 -0.1766 -0.1931 -2.0706
  555MOL0     H76578   9.069   8.755   5.595 -0.4913  1.7562 -0.0075
  555MOL0     H76579   8.993   8.596   5.630  0.6431 -0.4761 -0.1302
  555MOL0     H76580   8.957   8.834   5.767 -0.7337  0.7107  0.5008
  555MOL0     H76581   9.080   8.752   5.873  2.7002  0.3537 -3.1285
  555MOL0     H76582   8.814   8.610   5.797 -1.6319 -0.0913  1.4066
  555MOL0     H76583   8.924   8.578   5.931 -0.2028  1.0898  0.5259
  555MOL0     H76584   8.716   8.685   6.002  0.7075  0.9603  2.5924
  555MOL0     H76585   8.746   8.822   5.896 -0.5276 -0.0433  0.8985
  555MOL0     H76586   8.997   8.888   6.228 -0.6324  1.7318 -0.1448
  555MOL0     H76587   9.420   8.508   5.694  1.0676 -0.0143 -0.4756
  555MOL0     H76588   9.591   8.271   5.496 -2.1481 -1.0532  1.0618
  555MOL0     H76589   9.660   8.433   5.479 -1.2466  0.0329 -1.4048
  555MOL0     H76590   9.600   8.392   5.631 -1.8129  2.8720  0.0994
  556MOL0     O76591   2.365   9.661   8.726 -0.0057 -0.5001 -0.2029
  556MOL0     C76592   2.475   9.704   8.757 -0.2217 -0.5720 -0.3421
  556MOL0     O76593   2.538   9.696   8.879  0.9451  0.1528  0.5636
  556MOL0     C76594   2.496   9.629   8.988  0.4889  0.6459  0.3056
  556MOL0     C76595   2.411   9.513   8.980 -0.5371 -0.2586  0.8246
  556MOL0     C76596   2.391   9.440   9.100 -0.8253  0.0236  0.1116
  556MOL0     C76597   2.447   9.476   9.218 -0.7504 -0.3931  0.3076
  556MOL0     O76598   2.423   9.396   9.325  0.2008  0.2762  0.6504
  556MOL0     C76599   2.528   9.361   9.423  0.0479  0.3201  0.1080
  556MOL0     C76600   2.471   9.266   9.532 -0.9925  0.4966  0.1866
  556MOL0     C76601   2.578   9.211   9.623 -0.1463  0.9095 -0.0365
  556MOL0     C76602   2.659   9.317   9.707 -0.4202  0.0935 -0.2248
  556MOL0     C76603   2.734   9.256   9.826 -0.1586  0.1277 -0.0115
  556MOL0     C76604   2.850   9.342   9.881  0.0034  0.1875 -0.7500
  556MOL0     C76605   2.803   9.453   9.972  0.0188  0.4869  0.0950
  556MOL0     C76606   2.922   9.542  10.012 -0.1085 -0.7640  0.1860
  556MOL0     N76607   2.879   9.659  10.086  0.4483  0.1434 -0.5558
  556MOL0     C76608   2.812   9.762  10.025  0.5731  0.7430 -0.7075
  556MOL0     C76609   2.800   9.850  10.123  0.2430 -0.4986  0.1491
  556MOL0     C76610   2.704   9.959  10.113  0.1922 -0.6872  1.1981
  556MOL0     C76611   2.578   9.949  10.209 -0.6732  0.6938  0.3439
  556MOL0     C76612   2.503   9.812  10.199  0.1269 -0.2189 -0.3246
  556MOL0     C76613   2.385   9.810  10.295  0.2803 -0.4185 -0.0885
  556MOL0     O76614   2.410   9.844  10.431 -0.4042  0.5357 -0.2873
  556MOL0     C76615   2.300   9.855  10.505  0.5550  0.0650 -0.0452
  556MOL0     C76616   2.168   9.796  10.478  0.3491 -0.3955  0.3701
  556MOL0     C76617   2.052   9.819  10.551 -0.7220 -1.0392  0.5095
  556MOL0     C76618   1.922   9.763  10.511  0.0251  0.4020 -0.6425
  556MOL0     C76619   2.062   9.898  10.669  0.2923 -1.7126  0.6252
  556MOL0     C76620   1.940   9.945  10.742 -1.0435  0.5990 -0.2025
  556MOL0     O76621   1.966   9.975  10.870 -0.6869 -0.1293 -0.3199
  556MOL0     C76622   1.859  10.021  10.943 -0.1886 -0.2818  0.1416
  556MOL0     C76623   1.754   9.938  10.985 -0.4034 -0.1269 -0.4721
  556MOL0     C76624   1.655   9.988  11.068  0.1841  1.2798 -0.8141
  556MOL0     C76625   1.653  10.121  11.105  0.3588  0.4771 -0.5520
  556MOL0     O76626   1.562  10.166  11.202 -0.0218  0.0524 -0.1741
  556MOL0     C76627   1.427  10.132  11.170  0.5916 -1.5945  0.0328
  556MOL0     C76628   1.362  10.073  11.294  0.4501  0.5468  0.1258
  556MOL0     C76629   1.305   9.931  11.264 -0.0169  0.3953  0.1710
  556MOL0     C76630   1.161   9.915  11.325  0.6589  0.1993 -0.1929
  556MOL0     C76631   1.114   9.772  11.322  0.2234 -0.2917 -0.7966
  556MOL0     C76632   1.219   9.655  11.368  0.3154  0.2346  0.2948
  556MOL0     C76633   1.263   9.672  11.516 -0.3286 -0.3223 -0.2431
  556MOL0     C76634   1.387   9.597  11.551 -0.4079  0.2967 -0.1584
  556MOL0    Cl76635   1.351   9.428  11.538  0.0561  0.1921 -0.2923
  556MOL0     C76636   1.758  10.200  11.075  0.4264 -0.3968 -0.3774
  556MOL0     C76637   1.865  10.156  11.000 -0.7782 -0.1461  0.0666
  556MOL0     O76638   1.836   9.963  10.679  0.4074 -0.1717 -0.4132
  556MOL0     C76639   2.189   9.952  10.700  0.3460 -0.0316  0.5957
  556MOL0     C76640   2.300   9.931  10.622  0.0101  0.2572  0.6464
  556MOL0     N76641   2.872   9.813  10.239  1.1137  0.4572  0.5126
  556MOL0     N76642   2.918   9.700  10.212  0.0091 -0.1816 -0.8280
  556MOL0     C76643   2.533   9.588   9.220 -0.3325 -0.0822  0.5590
  556MOL0     C76644   2.556   9.664   9.105 -0.4378 -0.6416 -0.4872
  556MOL0     C76645   2.564   9.767   8.653 -0.0956  0.1861  0.3458
  556MOL0     C76646   2.514   9.882   8.591  0.1570  0.6227 -0.5184
  556MOL0     C76647   2.598   9.952   8.503 -0.6862  0.3569 -0.0207
  556MOL0     C76648   2.726   9.909   8.480 -0.4570 -0.3036  0.8791
  556MOL0     O76649   2.802   9.984   8.397 -0.2872 -0.3158  0.1187
  556MOL0     C76650   2.942  10.013   8.424 -0.6479 -0.3056 -0.1103
  556MOL0     C76651   3.016  10.053   8.294 -0.2776 -0.6588 -0.2754
  556MOL0     C76652   3.158  10.109   8.299  0.0178 -0.4146 -0.4823
  556MOL0     C76653   3.219  10.117   8.160 -0.1675 -0.7930  1.0704
  556MOL0     C76654   3.353  10.173   8.160  0.3442  0.4199  0.1223
  556MOL0     C76655   3.464  10.215   8.142  0.1459  0.9681 -0.1503
  556MOL0     C76656   2.773   9.791   8.534  0.5235 -0.1753  0.5874
  556MOL0     C76657   2.694   9.713   8.624 -0.2903  0.0728  0.2729
  556MOL0     C76658   2.739   9.582   8.695  0.2494  0.7118  0.0605
  556MOL0     H76659   2.372   9.479   8.884 -1.2177  0.2092  0.9312
  556MOL0     H76660   2.334   9.348   9.099  1.3205 -1.3780 -0.3328
  556MOL0     H76661   2.574   9.450   9.467  1.4995 -1.6322  2.9588
  556MOL0     H76662   2.607   9.303   9.374  0.6822 -0.9540  2.4381
  556MOL0     H76663   2.389   9.309   9.592 -0.0690  0.8126  1.2702
  556MOL0     H76664   2.435   9.180   9.475 -0.1914 -0.7120  1.4481
  556MOL0     H76665   2.522   9.149   9.694  2.0114 -1.3867 -0.2202
  556MOL0     H76666   2.646   9.141   9.576 -2.5871 -3.2544  2.0212
  556MOL0     H76667   2.737   9.358   9.641 -0.5245  0.1561 -0.3090
  556MOL0     H76668   2.594   9.398   9.741  0.0986  1.1732 -1.6577
  556MOL0     H76669   2.772   9.160   9.790  1.0054  0.1310  1.1296
  556MOL0     H76670   2.662   9.231   9.904 -2.2772 -2.1434 -2.4995
  556MOL0     H76671   2.920   9.277   9.935 -2.1769 -0.7991  1.0465
  556MOL0     H76672   2.902   9.384   9.795  1.3639 -0.4804 -0.2783
  556MOL0     H76673   2.769   9.418  10.070 -1.2101  2.4189  0.4094
  556MOL0     H76674   2.721   9.506   9.923  0.5185  0.2980 -0.9603
  556MOL0     H76675   2.986   9.487  10.081  1.1332  0.5615  0.1319
  556MOL0     H76676   2.991   9.572   9.932  1.3118 -1.9065  0.9353
  556MOL0     H76677   2.772   9.756   9.924 -1.1854 -0.1278 -0.0002
  556MOL0     H76678   2.655   9.964  10.015 -1.1010  0.8295  1.8724
  556MOL0     H76679   2.757  10.054  10.120  1.1005 -0.8276 -2.1892
  556MOL0     H76680   2.615   9.960  10.311 -0.6999  2.6282  0.1788
  556MOL0     H76681   2.517  10.038  10.192 -1.1735  0.4564  0.8914
  556MOL0     H76682   2.457   9.792  10.102 -0.5555 -2.2077  0.3492
  556MOL0     H76683   2.568   9.725  10.214  0.9176  0.5419  0.8305
  556MOL0     H76684   2.312   9.884  10.260 -0.9853 -1.6776 -0.2069
  556MOL0     H76685   2.327   9.718  10.289 -0.0655 -0.2574  0.5852
  556MOL0     H76686   2.166   9.745  10.383  1.8245 -0.7731  0.5289
  556MOL0     H76687   1.862   9.734  10.598 -0.6765  1.7559 -0.6585
  556MOL0     H76688   1.950   9.672  10.456 -1.5411  0.3190 -1.3660
  556MOL0     H76689   1.871   9.836  10.447 -0.3500  2.0397  1.4388
  556MOL0     H76690   1.758   9.834  10.952  1.2748  0.1576 -1.2730
  556MOL0     H76691   1.578   9.924  11.108 -0.7637  3.6257  1.3554
  556MOL0     H76692   1.367  10.221  11.147  2.6051 -0.9051 -3.1691
  556MOL0     H76693   1.412  10.069  11.081 -0.7659 -0.7609 -0.3556
  556MOL0     H76694   1.443  10.056  11.366  1.8273  1.6438 -1.0982
  556MOL0     H76695   1.289  10.148  11.327 -1.1567 -0.3532 -1.1937
  556MOL0     H76696   1.376   9.858  11.303  2.0599  1.7937 -0.8118
  556MOL0     H76697   1.297   9.909  11.157  6.3069 -0.4947 -0.5000
  556MOL0     H76698   1.093   9.977  11.266 -1.2111  0.7692  2.3843
  556MOL0     H76699   1.158   9.936  11.433  0.8254 -1.5313  0.1924
  556MOL0     H76700   1.033   9.766  11.395  0.1920  1.8550 -0.5869
  556MOL0     H76701   1.078   9.750  11.221  2.2320  2.3346 -2.2135
  556MOL0     H76702   1.298   9.662  11.294 -0.3401  0.3928 -0.4047
  556MOL0     H76703   1.171   9.557  11.358  2.0451 -0.3953 -2.9467
  556MOL0     H76704   1.176   9.640  11.574 -0.5918  0.0912 -0.4030
  556MOL0     H76705   1.273   9.781  11.526  4.4663 -0.3833 -1.7681
  556MOL0     H76706   1.433   9.611  11.650  0.7583 -1.7104 -0.3775
  556MOL0     H76707   1.468   9.622  11.482  2.3841 -2.5220  1.8379
  556MOL0     H76708   1.762  10.300  11.118  1.9108 -0.6430  0.1487
  556MOL0     H76709   1.953  10.217  10.979 -0.7347  0.2809  1.4466
  556MOL0     H76710   2.207  10.015  10.786 -2.1217  2.4234 -0.5604
  556MOL0     H76711   2.395   9.978  10.645  0.1843  0.2979 -0.1308
  556MOL0     H76712   2.577   9.611   9.317 -1.3643 -0.1867  1.0658
  556MOL0     H76713   2.636   9.737   9.108 -1.2487  0.2532 -0.1420
  556MOL0     H76714   2.420   9.925   8.624  0.0269 -0.2934  0.3778
  556MOL0     H76715   2.554  10.041   8.460 -2.4173 -0.1986  0.5145
  556MOL0     H76716   2.945  10.096   8.495 -0.8836  0.0738 -0.5391
  556MOL0     H76717   2.989   9.926   8.470  1.8012  3.0751  4.7326
  556MOL0     H76718   2.945  10.127   8.257 -0.8865 -0.7203  0.7180
  556MOL0     H76719   3.009   9.963   8.232  2.9428 -1.2711  0.0672
  556MOL0     H76720   3.166  10.209   8.342 -1.6394  0.0817 -1.2301
  556MOL0     H76721   3.228  10.051   8.359  3.6184  3.2957 -0.7110
  556MOL0     H76722   3.155  10.177   8.095  0.3913 -2.6033 -1.2546
  556MOL0     H76723   3.224  10.019   8.112  0.0970 -0.2767  0.0205
  556MOL0     H76724   3.564  10.245   8.120  1.0923 -0.4561  1.9822
  556MOL0     H76725   2.872   9.755   8.505  0.0049 -0.0944 -1.4636
  556MOL0     H76726   2.828   9.537   8.650  0.5000 -2.4171  3.2390
  556MOL0     H76727   2.757   9.607   8.800 -0.6185 -0.7654  0.5879
  556MOL0     H76728   2.661   9.506   8.682  1.2536  0.0248 -2.5971
  557MOL0     O76729  10.845   7.821  10.195  0.3148  0.0318  0.0537
  557MOL0     C76730  10.803   7.882  10.295 -1.0175  0.8404 -0.1178
  557MOL0     O76731  10.872   7.980  10.363  0.1236 -0.0013 -0.2910
  557MOL0     C76732  11.009   7.999  10.336  0.4884  0.4341  0.1932
  557MOL0     C76733  11.056   8.029  10.215 -1.0132 -1.5054  0.0928
  557MOL0     C76734  11.192   8.063  10.201  0.4109 -0.9031 -0.2046
  557MOL0     C76735  11.284   8.068  10.305 -0.6769  0.6363  0.4792
  557MOL0     O76736  11.416   8.090  10.277  0.4589  0.1110  0.3087
  557MOL0     C76737  11.506   8.134  10.370 -0.1234 -0.0627 -0.6528
  557MOL0     C76738  11.599   8.244  10.313  0.1505  0.1063  0.0255
  557MOL0     C76739  11.634   8.223  10.174 -0.5274  0.0061  0.2433
  557MOL0     C76740  11.711   8.090  10.145  0.1561  0.2810  0.0753
  557MOL0     C76741  11.745   8.084   9.990  0.0843 -0.9536 -0.5381
  557MOL0     C76742  11.774   7.944   9.950  0.2093  0.2847  0.4009
  557MOL0     C76743  11.906   7.891  10.012  0.3115 -0.3337 -0.9106
  557MOL0     C76744  11.941   7.766   9.946  0.7283  1.0702 -0.8091
  557MOL0     N76745  12.072   7.704   9.982  0.1995 -0.4778 -0.3532
  557MOL0     C76746  12.194   7.773   9.970 -0.5902 -0.1806 -0.4602
  557MOL0     C76747  12.286   7.688  10.002 -1.1021 -0.0306  0.4694
  557MOL0     C76748  12.432   7.720  10.008  0.2702 -0.3634 -0.5833
  557MOL0     C76749  12.491   7.753   9.868 -0.7787 -0.1732  0.4487
  557MOL0     C76750  12.647   7.774   9.867 -0.3942  0.9755  0.4028
  557MOL0     C76751  12.701   7.882   9.964  0.3807 -0.6079  0.0634
  557MOL0     O76752  12.663   8.016   9.930 -0.0320 -0.4510 -0.1030
  557MOL0     C76753  12.728   8.115  10.002  0.1615 -0.2428  0.1996
  557MOL0     C76754  12.824   8.203   9.945  0.0800  0.8737  0.2149
  557MOL0     C76755  12.905   8.287  10.022  0.3226 -0.0437  0.2077
  557MOL0     C76756  13.009   8.372   9.937 -0.0290 -1.3150  0.0202
  557MOL0     C76757  12.881   8.302  10.155 -0.9852  1.5653 -0.5934
  557MOL0     C76758  12.981   8.386  10.239 -0.2740  0.1742  0.0433
  557MOL0     O76759  13.004   8.333  10.355  0.5097 -0.1904  0.6475
  557MOL0     C76760  13.053   8.409  10.454 -0.4188 -0.1805  0.0546
  557MOL0     C76761  13.184   8.432  10.439 -0.4731 -0.1448 -0.9429
  557MOL0     C76762  13.253   8.505  10.530 -0.0080  0.3850 -0.3081
  557MOL0     C76763  13.186   8.560  10.643 -0.1839  0.6200 -0.1917
  557MOL0     O76764  13.251   8.609  10.752  0.4048  0.3241  0.0828
  557MOL0     C76765  13.379   8.674  10.739 -0.2170 -0.8170  0.5643
  557MOL0     C76766  13.377   8.810  10.820 -0.2298  0.6885  0.0056
  557MOL0     C76767  13.336   8.800  10.969  0.1497  0.4032 -0.3303
  557MOL0     C76768  13.432   8.723  11.056  0.5325  0.3557  0.0453
  557MOL0     C76769  13.380   8.728  11.204 -0.1289 -1.0286 -0.0825
  557MOL0     C76770  13.457   8.623  11.283  0.5144  0.4227 -0.9164
  557MOL0     C76771  13.467   8.660  11.429  0.3719 -0.4543 -0.1623
  557MOL0     C76772  13.337   8.614  11.510  0.1374  0.2679  0.6300
  557MOL0    Cl76773  13.357   8.657  11.682  0.0042  0.1062 -0.7609
  557MOL0     C76774  13.050   8.527  10.655  0.2050  0.1289  0.2178
  557MOL0     C76775  12.986   8.444  10.565 -0.8558  0.6749 -0.3680
  557MOL0     O76776  13.016   8.495  10.196 -0.3299  0.8563 -0.5764
  557MOL0     C76777  12.799   8.204  10.212  0.5342  0.1048  0.4320
  557MOL0     C76778  12.715   8.126  10.136  0.0220  0.4038  0.3306
  557MOL0     N76779  12.223   7.570  10.035  0.3544  0.2196  0.2272
  557MOL0     N76780  12.093   7.576  10.017 -1.5725 -0.1235  0.2188
  557MOL0     C76781  11.229   8.036  10.427 -0.0364 -0.1418 -0.2442
  557MOL0     C76782  11.091   8.005  10.446  0.0553  0.4999  0.6034
  557MOL0     C76783  10.659   7.856  10.342 -0.7291  0.5105 -0.4551
  557MOL0     C76784  10.612   7.926  10.459 -0.9870 -0.6871  0.1108
  557MOL0     C76785  10.483   7.919  10.498  0.2621  0.4767  0.4061
  557MOL0     C76786  10.387   7.828  10.437  0.6225 -0.1298 -0.0884
  557MOL0     O76787  10.257   7.801  10.480 -0.0781 -0.1694 -0.3901
  557MOL0     C76788  10.217   7.887  10.577  0.4057  0.4099 -0.9054
  557MOL0     C76789  10.061   7.866  10.585 -0.6611 -0.1430 -0.0374
  557MOL0     C76790  10.008   7.920  10.453 -0.5810 -0.5853 -0.2066
  557MOL0     C76791   9.865   7.925  10.443  0.8476 -0.5387 -0.4909
  557MOL0     C76792   9.813   7.793  10.486  0.0784 -0.7814  0.9297
  557MOL0     C76793   9.749   7.696  10.511  1.3965 -1.2504  0.1688
  557MOL0     C76794  10.433   7.750  10.326  0.3283  0.3593  0.3894
  557MOL0     C76795  10.564   7.762  10.280  0.3456 -0.0673 -0.2317
  557MOL0     C76796  10.605   7.674  10.158  0.5729  0.3128 -1.1266
  557MOL0     H76797  10.999   8.038  10.123  3.0224  0.6359 -2.5190
  557MOL0     H76798  11.233   8.094  10.105  0.4414  1.0669  0.4131
  557MOL0     H76799  11.566   8.043  10.383  0.3526  0.2405 -0.7039
  557MOL0     H76800  11.466   8.163  10.467 -0.4939 -0.4933 -0.6774
  557MOL0     H76801  11.548   8.340  10.324 -0.5545 -0.0944 -1.3163
  557MOL0     H76802  11.696   8.243  10.363  0.8478 -0.0509 -1.3158
  557MOL0     H76803  11.542   8.220  10.116 -2.5593  2.5247  3.0490
  557MOL0     H76804  11.691   8.310  10.138  1.3414 -1.1234  0.3384
  557MOL0     H76805  11.795   8.082  10.214  1.8170 -2.0818 -2.0492
  557MOL0     H76806  11.634   8.014  10.165 -0.4194  0.4672 -1.3458
  557MOL0     H76807  11.823   8.157   9.966 -0.5187 -0.2839 -0.5026
  557MOL0     H76808  11.657   8.121   9.936 -0.6821  2.0763  2.4379
  557MOL0     H76809  11.685   7.885   9.973  0.8814 -1.3366 -0.9451
  557MOL0     H76810  11.802   7.941   9.845 -0.7398 -1.5487  0.1690
  557MOL0     H76811  11.898   7.862  10.117 -1.6176  0.9061 -0.6750
  557MOL0     H76812  11.990   7.961  10.009 -1.4547  2.0316  1.2048
  557MOL0     H76813  11.858   7.699   9.971  3.9718 -2.4382  1.7878
  557MOL0     H76814  11.941   7.782   9.838 -0.8103  3.6127 -0.4991
  557MOL0     H76815  12.208   7.880   9.960 -1.4688 -0.0076  0.0370
  557MOL0     H76816  12.485   7.636  10.053 -0.8936  1.3792  4.9262
  557MOL0     H76817  12.447   7.801  10.080 -0.8603  0.5487 -1.3278
  557MOL0     H76818  12.465   7.678   9.793 -0.9404 -0.4479  0.7762
  557MOL0     H76819  12.447   7.839   9.816  0.3003 -0.2166 -0.5697
  557MOL0     H76820  12.704   7.683   9.887 -2.5852 -0.9287 -1.3363
  557MOL0     H76821  12.684   7.820   9.774  1.4676  0.0182  0.6255
  557MOL0     H76822  12.681   7.858  10.069  1.6350 -1.9352  0.0316
  557MOL0     H76823  12.810   7.878   9.955  0.6840 -0.0731  2.5958
  557MOL0     H76824  12.838   8.193   9.838  2.6121  0.6930  0.5050
  557MOL0     H76825  13.022   8.333   9.836 -1.8037  1.2491 -1.3118
  557MOL0     H76826  13.111   8.376   9.976 -0.2529  0.0314  0.5012
  557MOL0     H76827  12.973   8.475   9.939  0.3992 -1.1458 -0.7047
  557MOL0     H76828  13.239   8.392  10.355 -1.4044 -1.1339 -1.1017
  557MOL0     H76829  13.360   8.509  10.514  0.1782 -0.8967  0.4312
  557MOL0     H76830  13.463   8.617  10.781  0.8317  2.6165  3.7641
  557MOL0     H76831  13.400   8.698  10.634  1.3606 -3.1376  0.2822
  557MOL0     H76832  13.476   8.857  10.819  0.3757 -0.5132  0.2703
  557MOL0     H76833  13.303   8.882  10.785  0.1626  2.4493  2.5181
  557MOL0     H76834  13.241   8.745  10.973 -0.5708  1.3412 -2.6238
  557MOL0     H76835  13.327   8.905  11.000  2.1032  0.8120 -1.0230
  557MOL0     H76836  13.529   8.773  11.059  1.0752 -0.6724 -0.2376
  557MOL0     H76837  13.438   8.619  11.025  0.4606  0.4646 -0.3302
  557MOL0     H76838  13.407   8.824  11.250 -3.6786  0.4612 -0.7836
  557MOL0     H76839  13.272   8.718  11.216 -0.2712  2.4309  4.0839
  557MOL0     H76840  13.555   8.631  11.235  1.3649 -1.0341  0.4910
  557MOL0     H76841  13.421   8.520  11.278  0.4957  0.4588 -1.7093
  557MOL0     H76842  13.492   8.766  11.442  2.9967 -1.0116 -0.1885
  557MOL0     H76843  13.555   8.609  11.467  0.8003  0.3132 -0.1005
  557MOL0     H76844  13.314   8.507  11.513  0.5489  0.1795  0.7786
  557MOL0     H76845  13.251   8.666  11.468  1.9614  1.1254 -2.3839
  557MOL0     H76846  13.003   8.577  10.740  0.0899  0.4907 -0.0575
  557MOL0     H76847  12.884   8.413  10.585 -0.1300 -0.5096  1.8464
  557MOL0     H76848  12.779   8.201  10.318  2.2203  2.2187  0.8939
  557MOL0     H76849  12.641   8.064  10.185 -0.0855 -2.0003 -2.6417
  557MOL0     H76850  11.288   8.034  10.518 -0.9078  0.9003  0.3686
  557MOL0     H76851  11.061   7.980  10.548  0.5334 -1.2435  0.3561
  557MOL0     H76852  10.678   7.995  10.509  0.3994 -0.4006 -1.9860
  557MOL0     H76853  10.474   7.970  10.594  2.5533  1.2773  0.2759
  557MOL0     H76854  10.260   7.867  10.676 -0.4018 -0.5667 -0.7341
  557MOL0     H76855  10.251   7.989  10.554  1.7362  0.7213  2.0097
  557MOL0     H76856  10.033   7.927  10.672 -0.4326  2.6937 -1.8547
  557MOL0     H76857  10.039   7.760  10.606 -2.5697  0.4464  1.2837
  557MOL0     H76858  10.032   8.026  10.459 -1.0884 -0.4571 -0.4034
  557MOL0     H76859  10.052   7.871  10.365 -0.0217 -0.6898  0.1221
  557MOL0     H76860   9.838   7.956  10.341 -0.2259  1.1581  0.2683
  557MOL0     H76861   9.822   8.000  10.510 -1.7526 -2.3276 -0.0348
  557MOL0     H76862   9.687   7.612  10.532  0.7643 -1.1417 -1.1153
  557MOL0     H76863  10.365   7.674  10.291 -0.9706  1.2604  0.8804
  557MOL0     H76864  10.621   7.732  10.067 -0.1791  3.5929  0.6493
  557MOL0     H76865  10.699   7.622  10.179 -0.1600 -0.6671 -0.1741
  557MOL0     H76866  10.531   7.595  10.145 -1.2790  0.7116  4.2821
  558MOL0     O76867   7.064   0.773   0.589 -0.2910  0.0507  0.2494
  558MOL0     C76868   6.992   0.868   0.624 -0.4375  0.4650  0.2781
  558MOL0     O76869   6.998   0.998   0.569  0.2852  0.3002  0.2919
  558MOL0     C76870   7.097   1.020   0.477  0.2910  0.7651 -0.0280
  558MOL0     C76871   7.204   1.096   0.515 -0.2756 -0.1120 -0.7537
  558MOL0     C76872   7.310   1.120   0.429  0.8869 -0.1641  0.4670
  558MOL0     C76873   7.313   1.065   0.303  0.3370 -0.5731  0.0135
  558MOL0     O76874   7.418   1.083   0.211 -0.1437  0.3136 -0.5744
  558MOL0     C76875   7.490   1.199   0.211 -0.5012 -0.5680 -0.3157
  558MOL0     C76876   7.542   1.224   0.061  0.0424  0.2787  0.4528
  558MOL0     C76877   7.689   1.192   0.037 -0.5475 -0.2275  0.4201
  558MOL0     C76878   7.712   1.042   0.027  0.5299 -0.5378  0.0531
  558MOL0     C76879   7.854   0.999   0.006  0.1109 -0.7622 -0.3509
  558MOL0     C76880   7.867   0.854  -0.007  0.6162  0.6828 -0.7665
  558MOL0     C76881   8.010   0.817  -0.046  0.1065  0.2993 -0.3706
  558MOL0     C76882   8.009   0.684  -0.126 -0.1341 -0.9160 -0.2674
  558MOL0     N76883   8.142   0.613  -0.119  0.2028  0.0963 -0.0042
  558MOL0     C76884   8.153   0.481  -0.110 -0.5359  0.4543 -0.4572
  558MOL0     C76885   8.284   0.457  -0.142  0.2658  0.1820  0.1106
  558MOL0     C76886   8.340   0.319  -0.151  1.1972  0.5693 -0.6221
  558MOL0     C76887   8.446   0.297  -0.047 -0.3177 -0.2686  0.7390
  558MOL0     C76888   8.589   0.317  -0.107 -0.2857  1.0895 -0.2609
  558MOL0     C76889   8.703   0.290  -0.010 -0.6582  0.6441 -0.5423
  558MOL0     O76890   8.818   0.302  -0.091 -0.1961  0.4637  1.0651
  558MOL0     C76891   8.938   0.332  -0.028  0.7015  0.2036  0.5054
  558MOL0     C76892   9.039   0.331  -0.113  0.2135  0.5622  0.0373
  558MOL0     C76893   9.175   0.350  -0.077  0.5782  0.7698 -0.5793
  558MOL0     C76894   9.296   0.336  -0.173 -1.0338  0.2734  0.0401
  558MOL0     C76895   9.201   0.376   0.058  0.0167 -0.0130  0.3151
  558MOL0     C76896   9.338   0.387   0.111 -1.2385 -0.7487 -0.6789
  558MOL0     O76897   9.392   0.511   0.105 -0.4245  0.0629  0.0533
  558MOL0     C76898   9.522   0.530   0.155  0.5688  0.0682  0.3928
  558MOL0     C76899   9.546   0.631   0.248  0.3221  0.7023  0.3780
  558MOL0     C76900   9.670   0.662   0.290 -0.4965  0.2037  0.9369
  558MOL0     C76901   9.777   0.582   0.246  1.0444 -0.1099 -0.0803
  558MOL0     O76902   9.905   0.616   0.297 -0.8700  0.0123 -0.1365
  558MOL0     C76903  10.013   0.537   0.232  0.7190  1.0085 -0.4730
  558MOL0     C76904  10.135   0.543   0.329  0.4956  1.1875 -0.8912
  558MOL0     C76905  10.236   0.426   0.304 -0.0856 -0.3321  0.1224
  558MOL0     C76906  10.296   0.431   0.162 -0.8911  0.3128  0.6250
  558MOL0     C76907  10.385   0.302   0.143  0.5968 -0.5284 -0.4294
  558MOL0     C76908  10.472   0.334   0.025 -0.0609 -0.2775  0.0725
  558MOL0     C76909  10.563   0.208   0.000 -0.0360  0.5213 -0.3553
  558MOL0     C76910  10.698   0.242  -0.072 -0.4038 -0.2847 -0.5595
  558MOL0    Cl76911  10.791   0.326   0.051 -0.3351  0.2636  0.2716
  558MOL0     C76912   9.761   0.487   0.144  0.1537  0.0415 -0.7239
  558MOL0     C76913   9.630   0.460   0.107  0.4891 -0.9153  0.6121
  558MOL0     O76914   9.381   0.294   0.176  0.4352  0.4746 -0.0330
  558MOL0     C76915   9.097   0.369   0.154  1.1435 -0.3067  0.3950
  558MOL0     C76916   8.960   0.351   0.107  0.8695 -0.0311  0.7373
  558MOL0     N76917   8.343   0.573  -0.190 -0.0354  0.0484  0.8209
  558MOL0     N76918   8.255   0.671  -0.171 -0.9061 -0.0771 -1.0818
  558MOL0     C76919   7.191   0.991   0.253 -0.2740  0.4302 -0.0919
  558MOL0     C76920   7.086   0.971   0.341  0.2141  0.2100 -0.4698
  558MOL0     C76921   6.877   0.842   0.720  0.0894 -0.2419  1.0402
  558MOL0     C76922   6.761   0.919   0.692  0.3943 -0.4513  0.7133
  558MOL0     C76923   6.649   0.918   0.773 -0.3387 -0.5363 -0.7259
  558MOL0     C76924   6.644   0.821   0.873  0.4006  0.0222 -0.1949
  558MOL0     O76925   6.523   0.824   0.947 -0.4514  0.6767 -0.1700
  558MOL0     C76926   6.524   0.764   1.080  0.4045 -0.3863 -0.1247
  558MOL0     C76927   6.405   0.831   1.158 -0.1231 -0.3943  0.6991
  558MOL0     C76928   6.264   0.795   1.109 -0.2955 -0.1004 -0.3354
  558MOL0     C76929   6.236   0.648   1.121 -0.3108 -0.3650 -0.2583
  558MOL0     C76930   6.208   0.608   1.260 -0.0291 -0.4676 -0.4121
  558MOL0     C76931   6.188   0.571   1.381  0.1936  0.0793 -0.2539
  558MOL0     C76932   6.746   0.729   0.895  0.1740  0.2337  0.4554
  558MOL0     C76933   6.864   0.741   0.815  0.3694 -0.1427  0.4000
  558MOL0     C76934   6.974   0.647   0.857 -0.6862 -0.0228  0.3590
  558MOL0     H76935   7.199   1.143   0.612 -3.4698 -1.6590 -0.0508
  558MOL0     H76936   7.396   1.178   0.459  2.6226 -1.6614 -1.3026
  558MOL0     H76937   7.577   1.189   0.276 -1.1960 -1.8659  0.4558
  558MOL0     H76938   7.423   1.282   0.236 -0.2739  0.5348 -3.0162
  558MOL0     H76939   7.473   1.174  -0.007  0.1403 -1.2416  1.4390
  558MOL0     H76940   7.531   1.329   0.032 -1.7963 -0.9907 -4.5852
  558MOL0     H76941   7.727   1.237  -0.055 -2.8211 -1.8016 -1.3960
  558MOL0     H76942   7.743   1.239   0.120 -0.3795 -3.1117  2.0784
  558MOL0     H76943   7.681   1.007   0.126  0.3792 -1.5082 -0.3203
  558MOL0     H76944   7.639   1.001  -0.043 -0.6417  0.6747  0.5342
  558MOL0     H76945   7.919   1.033   0.087  0.1682 -1.8526  0.0788
  558MOL0     H76946   7.887   1.044  -0.088  0.9024  1.2624  0.8249
  558MOL0     H76947   7.852   0.807   0.090  0.6875  0.7315 -0.7312
  558MOL0     H76948   7.790   0.816  -0.075 -1.6370  3.4515  0.0618
  558MOL0     H76949   8.064   0.796   0.046 -1.1738  2.6939  1.0346
  558MOL0     H76950   8.070   0.897  -0.092  2.8528 -1.0155  0.7053
  558MOL0     H76951   7.926   0.627  -0.085 -0.7034  0.9552  1.3294
  558MOL0     H76952   7.996   0.709  -0.231  1.4514  4.7078  0.5480
  558MOL0     H76953   8.074   0.419  -0.069  1.6415 -2.2068  0.0269
  558MOL0     H76954   8.380   0.306  -0.252 -0.7287 -0.3121 -1.3057
  558MOL0     H76955   8.259   0.251  -0.124  1.7085 -0.5206 -1.7317
  558MOL0     H76956   8.436   0.367   0.036 -0.9173  0.3477  0.1584
  558MOL0     H76957   8.430   0.193  -0.017 -1.0191 -0.0940  0.9933
  558MOL0     H76958   8.594   0.247  -0.191 -2.5872  1.0845 -0.4653
  558MOL0     H76959   8.596   0.417  -0.151  3.7226  0.7771 -0.6530
  558MOL0     H76960   8.689   0.364   0.069 -2.7069 -0.1410 -0.0935
  558MOL0     H76961   8.677   0.192   0.031  0.7658  0.2612 -0.4981
  558MOL0     H76962   9.027   0.318  -0.220 -1.9552  0.5911  0.2316
  558MOL0     H76963   9.391   0.302  -0.132 -0.2444  0.6546 -1.4132
  558MOL0     H76964   9.325   0.428  -0.223 -1.0914 -0.9560 -2.4207
  558MOL0     H76965   9.271   0.272  -0.258  0.4218  1.0913 -1.0368
  558MOL0     H76966   9.462   0.685   0.291  1.3310 -0.3949  4.0344
  558MOL0     H76967   9.696   0.737   0.363  1.4376  0.4669  0.0472
  558MOL0     H76968   9.976   0.434   0.224 -0.2369  1.4832 -3.0747
  558MOL0     H76969  10.039   0.570   0.131  0.9644  0.7468 -0.4968
  558MOL0     H76970  10.177   0.644   0.339  1.3319  0.8479 -0.9003
  558MOL0     H76971  10.094   0.522   0.428 -0.3735 -0.9440 -1.6399
  558MOL0     H76972  10.179   0.333   0.297 -3.4063  1.5650 -0.0289
  558MOL0     H76973  10.313   0.421   0.381 -0.3919 -1.0065  0.3911
  558MOL0     H76974  10.359   0.519   0.148 -2.4982  1.2981 -0.7267
  558MOL0     H76975  10.213   0.439   0.091 -0.5439  1.0413  0.2860
  558MOL0     H76976  10.444   0.275   0.231  0.6169  1.7542  0.3128
  558MOL0     H76977  10.312   0.222   0.128  0.1889 -0.2687  0.1503
  558MOL0     H76978  10.540   0.418   0.042  0.5266 -0.1988 -2.3876
  558MOL0     H76979  10.401   0.346  -0.058 -0.6306  0.2413  0.6264
  558MOL0     H76980  10.503   0.143  -0.065  1.3835  0.3382 -1.5210
  558MOL0     H76981  10.586   0.157   0.095  1.6098  0.3371 -0.8230
  558MOL0     H76982  10.675   0.304  -0.159  0.9389 -0.4278 -1.0334
  558MOL0     H76983  10.746   0.151  -0.109  1.3164  1.3454 -2.5443
  558MOL0     H76984   9.829   0.426   0.085  0.8569 -2.0761  2.0596
  558MOL0     H76985   9.615   0.377   0.039 -4.2108 -0.8147  1.1956
  558MOL0     H76986   9.117   0.381   0.259 -0.1831  0.2128  0.6141
  558MOL0     H76987   8.875   0.354   0.175 -0.0615  1.0947 -0.4470
  558MOL0     H76988   7.185   0.954   0.151 -0.3094  0.4242 -0.0874
  558MOL0     H76989   6.995   0.923   0.307  1.4502 -0.8102 -2.5049
  558MOL0     H76990   6.760   1.000   0.619  3.4833 -1.5018 -0.6507
  558MOL0     H76991   6.571   0.993   0.758  1.1164  1.3979  0.8151
  558MOL0     H76992   6.527   0.655   1.078 -0.1217 -0.4020 -0.3630
  558MOL0     H76993   6.600   0.803   1.148 -1.5776 -0.9881  2.6194
  558MOL0     H76994   6.437   0.935   1.146 -1.5934  0.6263  4.2555
  558MOL0     H76995   6.398   0.807   1.265 -0.8014 -0.3194  0.6747
  558MOL0     H76996   6.192   0.851   1.169  0.4434  0.3467  0.1495
  558MOL0     H76997   6.259   0.820   1.002 -2.0382  0.9470 -0.0466
  558MOL0     H76998   6.321   0.584   1.096  0.6964 -0.4716  2.9572
  558MOL0     H76999   6.157   0.630   1.048  0.2030 -1.2178 -0.6217
  558MOL0     H77000   6.160   0.528   1.475 -1.2850 -1.7496 -1.4568
  558MOL0     H77001   6.733   0.656   0.974 -0.6148  1.6819  1.7215
  558MOL0     H77002   7.057   0.707   0.896 -2.9999  2.6959  1.5441
  558MOL0     H77003   6.945   0.578   0.937  1.4799 -1.4179  0.0171
  558MOL0     H77004   7.015   0.584   0.778 -1.2325  0.1063 -0.0339
  559MOL0     O77005   2.372   1.644   2.489  0.8668  1.1032  1.0081
  559MOL0     C77006   2.295   1.614   2.395 -0.3413 -0.5530 -0.4702
  559MOL0     O77007   2.322   1.650   2.271  1.0146  0.2216  0.2523
  559MOL0     C77008   2.403   1.754   2.247 -1.0565  0.7471 -0.4932
  559MOL0     C77009   2.538   1.728   2.236 -0.0522 -0.1455 -0.2125
  559MOL0     C77010   2.630   1.824   2.190  0.2485  0.0758  0.3560
  559MOL0     C77011   2.577   1.957   2.166  0.3474  1.2784 -0.0259
  559MOL0     O77012   2.642   2.063   2.111 -0.8575  0.9579  0.4011
  559MOL0     C77013   2.791   2.059   2.115 -0.1477 -0.5296 -1.0701
  559MOL0     C77014   2.855   2.191   2.077 -0.3972 -0.0714  0.5724
  559MOL0     C77015   3.004   2.182   2.042 -1.7200  0.4745 -0.0474
  559MOL0     C77016   3.093   2.305   2.060 -0.4547  0.1527 -1.3618
  559MOL0     C77017   3.236   2.263   2.069 -0.6798 -0.3021 -0.0047
  559MOL0     C77018   3.275   2.190   1.934  0.2081  0.0818  0.2250
  559MOL0     C77019   3.263   2.268   1.802  0.7520  0.0521  0.8451
  559MOL0     C77020   3.323   2.203   1.678  0.2812  0.4371 -0.4355
  559MOL0     N77021   3.460   2.218   1.670  0.1201 -0.3641 -0.4136
  559MOL0     C77022   3.563   2.140   1.704 -0.4896 -0.5169 -0.3531
  559MOL0     C77023   3.677   2.207   1.676 -0.8602  0.0148  1.1839
  559MOL0     C77024   3.818   2.162   1.706 -0.9412 -0.0405  1.0369
  559MOL0     C77025   3.908   2.176   1.580  0.0979  0.5164 -0.5948
  559MOL0     C77026   4.033   2.112   1.606  0.6048  0.8097 -0.5791
  559MOL0     C77027   4.149   2.136   1.511  0.8365 -0.5681  0.7313
  559MOL0     O77028   4.133   2.053   1.394 -0.2440 -0.2100  0.4684
  559MOL0     C77029   4.230   2.058   1.300 -0.6848 -0.3433  0.1457
  559MOL0     C77030   4.349   2.123   1.307 -0.0826 -0.3468 -0.6341
  559MOL0     C77031   4.434   2.124   1.199 -0.3008 -0.3934  0.4103
  559MOL0     C77032   4.573   2.183   1.222  0.0453 -0.6458 -0.2103
  559MOL0     C77033   4.396   2.071   1.072  0.9037 -0.3341  0.8357
  559MOL0     C77034   4.469   2.100   0.951 -0.5502 -0.2798 -0.1544
  559MOL0     O77035   4.505   2.227   0.924 -0.1236 -0.5835  0.6923
  559MOL0     C77036   4.601   2.256   0.836  0.1649 -0.5770 -0.2782
  559MOL0     C77037   4.580   2.360   0.750 -0.3775  0.3840  0.0263
  559MOL0     C77038   4.683   2.375   0.656  0.5858 -0.9647  1.3674
  559MOL0     C77039   4.798   2.305   0.641  0.1791  0.2104 -0.4079
  559MOL0     O77040   4.873   2.329   0.531  0.1429  0.9115  0.2999
  559MOL0     C77041   4.986   2.241   0.507 -0.1237  0.3902  0.0986
  559MOL0     C77042   5.067   2.283   0.385 -0.0885 -0.3317  0.1731
  559MOL0     C77043   5.209   2.330   0.393 -0.5594  0.8130 -0.3874
  559MOL0     C77044   5.247   2.428   0.506  0.0147  0.7654  0.0649
  559MOL0     C77045   5.376   2.517   0.494  0.3341 -0.3909 -0.5299
  559MOL0     C77046   5.383   2.623   0.597  0.4130  0.0137 -0.0112
  559MOL0     C77047   5.425   2.576   0.738  0.0620 -0.2890  0.4299
  559MOL0     C77048   5.427   2.703   0.829  0.4735 -0.0328  0.6936
  559MOL0    Cl77049   5.470   2.639   0.983 -0.1985 -0.1933  0.0052
  559MOL0     C77050   4.826   2.204   0.735  1.6053 -0.3764 -0.0041
  559MOL0     C77051   4.724   2.181   0.832  0.9831  0.3326 -0.2040
  559MOL0     O77052   4.504   2.003   0.881 -0.3539  0.2907 -0.0106
  559MOL0     C77053   4.269   2.009   1.060 -0.7193  0.2898 -0.0011
  559MOL0     C77054   4.191   2.003   1.176 -0.1368 -0.4383 -0.1053
  559MOL0     N77055   3.645   2.327   1.616  0.4492 -0.2370 -0.6421
  559MOL0     N77056   3.516   2.330   1.620  0.1552 -0.0830 -0.9215
  559MOL0     C77057   2.445   1.988   2.199  0.3461  0.5562  0.6620
  559MOL0     C77058   2.359   1.876   2.227 -0.0588 -1.1116 -0.8094
  559MOL0     C77059   2.170   1.531   2.407 -0.3709  0.2042 -0.9729
  559MOL0     C77060   2.184   1.410   2.485  0.0224  0.8990 -0.1789
  559MOL0     C77061   2.068   1.340   2.511 -0.3472  0.4178  0.4882
  559MOL0     C77062   1.937   1.383   2.454  0.1925  1.2228 -0.2042
  559MOL0     O77063   1.815   1.320   2.466 -0.2152  0.3005 -0.1036
  559MOL0     C77064   1.791   1.236   2.579 -1.0541 -0.6939  0.4225
  559MOL0     C77065   1.643   1.225   2.609 -0.2521 -0.0024 -0.0207
  559MOL0     C77066   1.597   1.119   2.520 -0.5131 -0.5061 -0.3438
  559MOL0     C77067   1.453   1.067   2.542 -0.4893 -0.0857 -0.7592
  559MOL0     C77068   1.436   0.940   2.470  0.4495 -1.3511 -0.2680
  559MOL0     C77069   1.440   0.828   2.428  0.0041 -0.5502  0.8932
  559MOL0     C77070   1.928   1.496   2.369  0.6195 -1.1670 -0.7427
  559MOL0     C77071   2.044   1.571   2.356 -0.3372 -0.6488  0.2251
  559MOL0     C77072   2.040   1.703   2.279  0.5682 -0.5544 -1.0861
  559MOL0     H77073   2.564   1.625   2.254 -4.4029 -1.6852 -1.4205
  559MOL0     H77074   2.731   1.791   2.168  0.3991  0.3614  0.6054
  559MOL0     H77075   2.833   1.983   2.049  0.8943 -2.0885  1.2477
  559MOL0     H77076   2.826   2.034   2.215  0.8016 -1.1555 -1.5489
  559MOL0     H77077   2.794   2.237   1.999  0.4463 -0.1268 -0.1347
  559MOL0     H77078   2.855   2.261   2.161 -0.0871 -0.7643  1.1605
  559MOL0     H77079   3.051   2.110   2.110  0.3529  1.6362 -0.1914
  559MOL0     H77080   3.008   2.150   1.938  0.2231 -2.8984  0.8983
  559MOL0     H77081   3.076   2.368   1.973 -1.8397  1.4019 -0.2332
  559MOL0     H77082   3.060   2.353   2.152  1.0847 -0.4342 -0.4640
  559MOL0     H77083   3.256   2.195   2.153  2.3299  1.7608  1.1219
  559MOL0     H77084   3.298   2.350   2.092 -0.7063 -0.6343  1.4214
  559MOL0     H77085   3.380   2.161   1.944  0.0735 -0.3904  0.2984
  559MOL0     H77086   3.206   2.106   1.922  1.0817 -0.2967 -3.1194
  559MOL0     H77087   3.312   2.365   1.817  1.0507 -0.3827  3.0264
  559MOL0     H77088   3.159   2.298   1.783  0.7234 -1.5564 -2.1243
  559MOL0     H77089   3.300   2.096   1.684 -2.9275  0.9741 -1.3316
  559MOL0     H77090   3.272   2.252   1.594 -0.5289 -2.3680 -1.7276
  559MOL0     H77091   3.558   2.046   1.758 -3.1493 -0.1317  0.2163
  559MOL0     H77092   3.818   2.058   1.739  1.1537 -0.0680  1.0976
  559MOL0     H77093   3.856   2.223   1.789  1.0482 -2.3073  1.9147
  559MOL0     H77094   3.844   2.138   1.500  0.4329 -2.6269  0.5165
  559MOL0     H77095   3.925   2.283   1.562 -2.5601  1.7262  2.9511
  559MOL0     H77096   4.067   2.157   1.700 -1.0705  2.5899 -0.7490
  559MOL0     H77097   4.019   2.004   1.615  1.9156  0.7529  1.4279
  559MOL0     H77098   4.158   2.241   1.480  3.2487 -0.8823  0.1651
  559MOL0     H77099   4.236   2.113   1.573  0.5119 -0.6261  1.1725
  559MOL0     H77100   4.384   2.161   1.403 -0.4377 -0.9933 -0.2400
  559MOL0     H77101   4.653   2.142   1.159  1.1084 -1.7305  1.7501
  559MOL0     H77102   4.599   2.182   1.328 -3.0699  0.2771  0.6533
  559MOL0     H77103   4.571   2.289   1.196  2.0247 -0.4987  0.0551
  559MOL0     H77104   4.495   2.427   0.749 -1.3911 -0.8406  0.9283
  559MOL0     H77105   4.665   2.452   0.582 -1.6046 -2.3805  0.3296
  559MOL0     H77106   5.052   2.252   0.593 -0.4746  1.4373  0.2517
  559MOL0     H77107   4.957   2.136   0.510  0.4337  0.2526  1.3373
  559MOL0     H77108   5.080   2.206   0.308  3.6658  1.6760 -1.4505
  559MOL0     H77109   5.024   2.370   0.335  0.0763  0.1104  0.7965
  559MOL0     H77110   5.239   2.388   0.306 -3.0269  2.5128 -0.2043
  559MOL0     H77111   5.278   2.245   0.401 -1.6109  0.0855  1.8838
  559MOL0     H77112   5.260   2.367   0.596 -2.6817  0.4170  0.2951
  559MOL0     H77113   5.161   2.492   0.527 -0.1453  0.9416 -1.0566
  559MOL0     H77114   5.464   2.453   0.500 -0.1986 -1.0922 -0.0893
  559MOL0     H77115   5.383   2.569   0.398 -0.7141  0.7561 -0.0144
  559MOL0     H77116   5.284   2.669   0.608 -1.4859 -3.2824 -1.7376
  559MOL0     H77117   5.459   2.693   0.560  2.0581 -1.7440 -0.0995
  559MOL0     H77118   5.527   2.535   0.737  1.5624  3.0762  0.8189
  559MOL0     H77119   5.354   2.501   0.772 -0.1762 -0.0139  0.5394
  559MOL0     H77120   5.328   2.748   0.830  0.2592 -0.5015  1.2743
  559MOL0     H77121   5.502   2.775   0.795 -0.6714  1.9392  2.1077
  559MOL0     H77122   4.918   2.146   0.742  1.7538 -0.1862 -0.3153
  559MOL0     H77123   4.736   2.108   0.912 -1.4212 -1.1277 -1.0811
  559MOL0     H77124   4.240   1.980   0.959  1.1675 -0.5372 -0.3511
  559MOL0     H77125   4.090   1.966   1.186  0.2041 -0.8768  2.4118
  559MOL0     H77126   2.411   2.091   2.207 -2.7904 -0.4587  2.8131
  559MOL0     H77127   2.254   1.900   2.244  0.7390  1.9750  0.2799
  559MOL0     H77128   2.269   1.378   2.544 -0.0397 -0.7614 -0.9290
  559MOL0     H77129   2.081   1.252   2.573 -3.0163 -1.1898 -1.0610
  559MOL0     H77130   1.844   1.144   2.553  4.4942  2.1452  0.2591
  559MOL0     H77131   1.843   1.270   2.669 -1.9874  2.6879 -0.1547
  559MOL0     H77132   1.587   1.316   2.586  2.1235  2.1123  1.8995
  559MOL0     H77133   1.616   1.204   2.713  1.9522  0.8575  0.7900
  559MOL0     H77134   1.615   1.148   2.416  3.0665  0.6620  0.4919
  559MOL0     H77135   1.655   1.028   2.539  1.5558  0.4624 -1.6682
  559MOL0     H77136   1.378   1.143   2.518 -1.6701 -1.3571 -1.2268
  559MOL0     H77137   1.452   1.044   2.649 -1.6286 -1.7288 -1.0954
  559MOL0     H77138   1.430   0.731   2.383  2.5069 -0.1212 -0.7866
  559MOL0     H77139   1.835   1.510   2.314  1.1120  0.3123 -1.2351
  559MOL0     H77140   1.937   1.723   2.245  0.3574  0.4000  0.0324
  559MOL0     H77141   2.078   1.791   2.332  0.9543 -0.2866 -1.7920
  559MOL0     H77142   2.096   1.697   2.186  1.2230 -0.2926 -0.7110
  560MOL0     O77143   9.552   2.796   5.573 -0.6008 -0.4273  0.3059
  560MOL0     C77144   9.527   2.861   5.474  0.0829  0.4487  0.7645
  560MOL0     O77145   9.405   2.872   5.419  0.1794 -0.2523 -0.1930
  560MOL0     C77146   9.291   2.876   5.495  0.6601  0.0719  0.5106
  560MOL0     C77147   9.167   2.878   5.430  0.0466  0.1382  0.0957
  560MOL0     C77148   9.044   2.898   5.500 -0.0088  0.5622  0.2900
  560MOL0     C77149   9.039   2.917   5.641 -0.5463  0.0949 -0.8043
  560MOL0     O77150   8.922   2.945   5.717  0.4368  0.3829 -0.0559
  560MOL0     C77151   8.805   2.992   5.639 -0.7673  0.2393 -0.5029
  560MOL0     C77152   8.692   3.050   5.719 -0.0234 -0.3989 -0.4735
  560MOL0     C77153   8.740   3.167   5.798 -0.2031 -0.5251  0.1796
  560MOL0     C77154   8.647   3.192   5.934  0.1241  0.9358  0.3557
  560MOL0     C77155   8.711   3.296   6.023  0.4451 -0.4846 -0.2273
  560MOL0     C77156   8.615   3.344   6.137  0.2394 -0.4298  0.3658
  560MOL0     C77157   8.521   3.445   6.075 -1.2128  0.4794  1.4294
  560MOL0     C77158   8.415   3.498   6.157 -0.2723 -0.4336  0.8135
  560MOL0     N77159   8.311   3.402   6.194  0.5248 -0.9620  1.1530
  560MOL0     C77160   8.323   3.300   6.289  0.6354 -0.3808  0.0147
  560MOL0     C77161   8.223   3.211   6.269  0.3395  0.5174  0.3082
  560MOL0     C77162   8.194   3.093   6.355 -0.8733 -0.4741  0.1695
  560MOL0     C77163   8.067   3.125   6.436 -0.0501  0.1605 -0.3004
  560MOL0     C77164   8.062   3.059   6.572  0.5671 -0.0463 -0.1756
  560MOL0     C77165   7.998   2.918   6.556  0.4766  0.7452  1.2024
  560MOL0     O77166   8.074   2.825   6.479 -0.5204 -0.5057  0.3518
  560MOL0     C77167   8.188   2.787   6.544 -0.0416  0.8194  0.8971
  560MOL0     C77168   8.223   2.774   6.681  0.9915  0.2593 -0.3452
  560MOL0     C77169   8.344   2.723   6.722 -0.3784  0.2453 -0.2836
  560MOL0     C77170   8.369   2.706   6.866 -0.5349 -0.4955 -0.6551
  560MOL0     C77171   8.442   2.696   6.621  0.1257  0.7169  0.6215
  560MOL0     C77172   8.583   2.660   6.647 -0.2517  0.4937 -1.0155
  560MOL0     O77173   8.611   2.602   6.770 -0.1017  0.0979 -0.5216
  560MOL0     C77174   8.739   2.613   6.821  1.3139  0.5053  0.0273
  560MOL0     C77175   8.773   2.495   6.875 -0.6155 -1.3545 -0.3708
  560MOL0     C77176   8.896   2.482   6.938  1.4019 -0.2350 -0.3048
  560MOL0     C77177   8.986   2.588   6.948  0.0692 -0.4944 -0.9443
  560MOL0     O77178   9.119   2.575   6.991  0.8105 -0.2663  0.5514
  560MOL0     C77179   9.173   2.445   6.986  0.5728 -0.0178 -0.3570
  560MOL0     C77180   9.321   2.436   7.028 -0.1831  0.1847 -0.6291
  560MOL0     C77181   9.313   2.466   7.179 -1.6701  0.1716 -0.9085
  560MOL0     C77182   9.451   2.507   7.229  0.1247 -0.4856  0.4447
  560MOL0     C77183   9.451   2.521   7.376 -0.2365 -0.7362 -0.3075
  560MOL0     C77184   9.586   2.572   7.435 -0.0122  0.2229  0.4493
  560MOL0     C77185   9.695   2.472   7.414 -0.1785 -0.9600  0.6824
  560MOL0     C77186   9.827   2.535   7.473 -0.0539  0.6122  0.8369
  560MOL0    Cl77187   9.898   2.640   7.342  0.4749  0.0346 -0.2065
  560MOL0     C77188   8.942   2.710   6.891 -0.0302 -0.4682  0.4488
  560MOL0     C77189   8.814   2.728   6.835  0.4604  0.3880  0.5376
  560MOL0     O77190   8.667   2.684   6.560 -0.9388  0.5065 -0.5831
  560MOL0     C77191   8.402   2.699   6.486  0.0202  0.7752 -0.6769
  560MOL0     C77192   8.283   2.752   6.452  0.5150  0.4575  0.4737
  560MOL0     N77193   8.155   3.252   6.155 -0.0653  0.2928 -0.9793
  560MOL0     N77194   8.202   3.371   6.122  0.1458 -0.0006 -0.4934
  560MOL0     C77195   9.167   2.929   5.709 -0.6853  0.6777  0.2582
  560MOL0     C77196   9.286   2.903   5.636 -0.2277 -0.3716 -0.1035
  560MOL0     C77197   9.646   2.932   5.422 -0.1803  0.3895  0.7904
  560MOL0     C77198   9.782   2.901   5.462 -0.4107 -0.4992  0.7513
  560MOL0     C77199   9.894   2.959   5.404  0.3857 -0.2680  0.8652
  560MOL0     C77200   9.877   3.064   5.309  1.0596 -0.1650 -0.4155
  560MOL0     O77201   9.990   3.131   5.273  0.0649 -0.0075 -1.6579
  560MOL0     C77202   9.987   3.274   5.276  0.0083 -0.6225 -0.0831
  560MOL0     C77203  10.016   3.343   5.409 -0.2838  0.2541  0.6067
  560MOL0     C77204  10.159   3.328   5.468  0.7749 -0.0093 -0.7989
  560MOL0     C77205  10.188   3.430   5.583  0.4763 -0.4853  0.0085
  560MOL0     C77206  10.121   3.390   5.697  0.0869  0.3609 -0.9030
  560MOL0     C77207  10.058   3.367   5.802  0.0081 -0.2814 -0.0944
  560MOL0     C77208   9.745   3.109   5.276 -0.5936 -0.1525 -0.3771
  560MOL0     C77209   9.632   3.042   5.324 -0.3725 -0.3454 -0.4656
  560MOL0     C77210   9.496   3.088   5.271 -0.2291  0.3944 -0.4474
  560MOL0     H77211   9.183   2.853   5.326 -0.6228 -2.3840  0.5404
  560MOL0     H77212   8.951   2.895   5.444  1.2215 -0.5050 -1.8758
  560MOL0     H77213   8.753   2.915   5.581 -0.1628  1.7798 -3.3150
  560MOL0     H77214   8.853   3.062   5.569  2.7787 -0.1105  1.3530
  560MOL0     H77215   8.600   3.073   5.664  0.3449  2.7116  0.0180
  560MOL0     H77216   8.669   2.980   5.800 -1.3866  0.3818 -0.1532
  560MOL0     H77217   8.845   3.151   5.823  0.3496 -2.5375 -2.8788
  560MOL0     H77218   8.736   3.262   5.745 -0.9088 -0.6577 -0.0100
  560MOL0     H77219   8.544   3.221   5.910 -0.1810 -0.8794 -0.7346
  560MOL0     H77220   8.646   3.102   5.996  2.5027 -1.3980 -2.6311
  560MOL0     H77221   8.729   3.386   5.963  0.5799 -0.7430 -0.5822
  560MOL0     H77222   8.806   3.266   6.067  0.9512 -1.1049 -1.6822
  560MOL0     H77223   8.550   3.268   6.182 -2.1079  0.5360 -1.2323
  560MOL0     H77224   8.662   3.403   6.216 -1.4886  1.2982  0.1666
  560MOL0     H77225   8.474   3.398   5.988  0.5703 -0.2658  0.8121
  560MOL0     H77226   8.578   3.533   6.043 -0.6531 -0.7716 -1.3099
  560MOL0     H77227   8.464   3.543   6.244  0.1755 -2.2868  1.5603
  560MOL0     H77228   8.355   3.571   6.101  0.0799 -0.5719  0.2456
  560MOL0     H77229   8.389   3.300   6.375 -0.2939  0.2232  0.7546
  560MOL0     H77230   8.272   3.067   6.428 -0.1250 -1.4117 -0.9284
  560MOL0     H77231   8.194   3.003   6.292 -1.1824 -0.3462 -0.0154
  560MOL0     H77232   8.068   3.232   6.458  2.1296  0.1428 -0.0832
  560MOL0     H77233   7.974   3.103   6.383 -0.3616  0.1081  0.2590
  560MOL0     H77234   8.161   3.047   6.617  1.0919  1.1058 -0.9799
  560MOL0     H77235   8.007   3.121   6.644 -2.0033 -2.0616 -0.2633
  560MOL0     H77236   7.980   2.885   6.658  0.1850  1.5228  1.4082
  560MOL0     H77237   7.900   2.943   6.514  0.0258  1.7798  2.7789
  560MOL0     H77238   8.142   2.781   6.752  0.8569 -2.0205 -0.1758
  560MOL0     H77239   8.464   2.748   6.900 -0.1868 -2.8310  1.5379
  560MOL0     H77240   8.375   2.602   6.898  1.1298 -0.2965 -0.2458
  560MOL0     H77241   8.299   2.763   6.928 -0.3976 -0.2953 -0.6831
  560MOL0     H77242   8.708   2.410   6.855 -0.7084 -1.1666 -0.8708
  560MOL0     H77243   8.921   2.390   6.991  3.3345  1.1090  1.2461
  560MOL0     H77244   9.110   2.376   7.044  0.6630  1.7712  1.9869
  560MOL0     H77245   9.176   2.409   6.882 -1.8119 -1.9719  0.1453
  560MOL0     H77246   9.359   2.338   6.997  0.5218  0.7598 -1.6596
  560MOL0     H77247   9.377   2.508   6.967  0.5696 -1.2107 -1.6515
  560MOL0     H77248   9.287   2.373   7.231  1.5514 -0.6650 -0.6095
  560MOL0     H77249   9.244   2.548   7.203 -0.3786  1.1652 -0.4689
  560MOL0     H77250   9.485   2.599   7.180  0.9045 -1.0412 -0.0858
  560MOL0     H77251   9.521   2.427   7.203  0.4282  0.4669 -1.9670
  560MOL0     H77252   9.362   2.577   7.408 -1.4476 -2.9210  0.3764
  560MOL0     H77253   9.433   2.418   7.409 -1.2433 -0.4179  0.1857
  560MOL0     H77254   9.577   2.592   7.542 -2.5327  1.8632  0.0312
  560MOL0     H77255   9.613   2.659   7.375 -1.4324  0.3091 -0.1224
  560MOL0     H77256   9.699   2.442   7.309 -0.5545 -0.9614  0.6691
  560MOL0     H77257   9.677   2.378   7.467 -1.6396 -1.2128 -0.2025
  560MOL0     H77258   9.893   2.450   7.490 -2.0743 -1.5049 -1.1317
  560MOL0     H77259   9.818   2.589   7.567  3.1719 -0.5397  1.9457
  560MOL0     H77260   9.011   2.794   6.890  0.9771 -1.2779  0.4533
  560MOL0     H77261   8.794   2.823   6.786  1.3221  0.2450 -0.1043
  560MOL0     H77262   8.456   2.652   6.404 -1.8577 -0.6184 -1.1686
  560MOL0     H77263   8.252   2.764   6.349 -2.8142  0.6457  1.3792
  560MOL0     H77264   9.182   2.964   5.810  0.0905  3.7241 -0.8021
  560MOL0     H77265   9.378   2.913   5.692 -0.2907  0.8609 -0.1970
  560MOL0     H77266   9.806   2.814   5.522  1.5983 -1.5066 -1.3300
  560MOL0     H77267   9.998   2.931   5.419  0.6239  0.3368  0.3842
  560MOL0     H77268  10.069   3.307   5.211  1.8658  0.6638  2.6866
  560MOL0     H77269   9.888   3.315   5.258  2.4624  5.2648 -2.8789
  560MOL0     H77270   9.941   3.304   5.479  0.1897 -1.0348  0.4294
  560MOL0     H77271   9.998   3.450   5.400 -0.6671  0.0597 -1.5370
  560MOL0     H77272  10.168   3.224   5.501 -1.0879  0.3654  1.1170
  560MOL0     H77273  10.229   3.355   5.388 -2.2069  1.9722 -2.9887
  560MOL0     H77274  10.146   3.526   5.550 -1.1518 -0.8212  0.9457
  560MOL0     H77275  10.295   3.419   5.597  0.7643  0.4233 -1.2819
  560MOL0     H77276   9.994   3.342   5.884  2.0112  0.2421  1.7262
  560MOL0     H77277   9.728   3.186   5.202 -1.9164 -0.2816 -0.2441
  560MOL0     H77278   9.451   3.027   5.193  0.4481 -1.9085  0.8777
  560MOL0     H77279   9.416   3.087   5.346 -0.4410  1.3166 -0.6366
  560MOL0     H77280   9.506   3.192   5.238  1.3444  1.2327  2.2701
  561MOL0     O77281   0.864   1.682   2.828 -0.1336 -0.7540 -0.6554
  561MOL0     C77282   0.918   1.683   2.940 -0.3641 -0.6201  0.2777
  561MOL0     O77283   0.973   1.583   3.008 -0.5889  0.2038  0.3502
  561MOL0     C77284   0.959   1.467   2.928  0.1957 -0.7337  0.7471
  561MOL0     C77285   0.857   1.390   2.953  0.2495 -1.2343  0.4787
  561MOL0     C77286   0.838   1.270   2.885  0.6659  0.9833 -0.0793
  561MOL0     C77287   0.908   1.241   2.769  0.0287 -0.8592  0.2371
  561MOL0     O77288   0.887   1.147   2.679  0.4780 -0.2461  0.0886
  561MOL0     C77289   0.762   1.085   2.680  0.1173 -0.4691  0.5228
  561MOL0     C77290   0.763   0.970   2.575  0.0678 -0.2617  0.3806
  561MOL0     C77291   0.798   1.023   2.430  1.1433 -1.4298 -0.3962
  561MOL0     C77292   0.768   0.934   2.317  0.5063  0.3296  0.8146
  561MOL0     C77293   0.867   0.814   2.307  0.4849  0.4701 -0.3928
  561MOL0     C77294   0.831   0.697   2.392  0.2778  0.1418 -0.5348
  561MOL0     C77295   0.924   0.581   2.359 -0.0387 -0.5855 -0.2547
  561MOL0     C77296   1.077   0.609   2.359  0.1772 -0.8644  0.0840
  561MOL0     N77297   1.137   0.626   2.495  0.4522  0.8531  0.7852
  561MOL0     C77298   1.150   0.745   2.552  0.3749  0.3857 -0.6838
  561MOL0     C77299   1.198   0.720   2.678 -1.5066 -0.2223  0.1554
  561MOL0     C77300   1.249   0.825   2.770  0.1773 -0.8938  0.4880
  561MOL0     C77301   1.144   0.931   2.798 -1.1083 -0.3640  0.1759
  561MOL0     C77302   1.142   0.995   2.938 -1.1836  0.4519  0.1140
  561MOL0     C77303   1.270   1.068   2.979 -0.4633  0.2617  0.3522
  561MOL0     O77304   1.294   1.172   2.882  0.4581 -0.1113  0.4390
  561MOL0     C77305   1.398   1.261   2.890 -0.7427 -0.0692  0.8387
  561MOL0     C77306   1.512   1.242   2.984  0.5745 -0.6217 -0.4675
  561MOL0     C77307   1.628   1.329   2.980  0.1551 -0.3153  0.1871
  561MOL0     C77308   1.745   1.306   3.079  0.5320  0.2405  0.5729
  561MOL0     C77309   1.633   1.442   2.890 -0.3720 -0.6496  0.2413
  561MOL0     C77310   1.744   1.541   2.892 -0.2562 -0.0351  0.2216
  561MOL0     O77311   1.769   1.601   2.770  0.8685 -0.1389  0.5753
  561MOL0     C77312   1.878   1.688   2.775  0.6743 -0.3894  0.2382
  561MOL0     C77313   2.006   1.649   2.725  0.0668 -0.3229  0.2811
  561MOL0     C77314   2.104   1.746   2.722 -0.8394 -0.3831  0.2482
  561MOL0     C77315   2.076   1.875   2.766 -0.6737  0.1355  0.1603
  561MOL0     O77316   2.160   1.984   2.745  0.5771  0.5506  0.0900
  561MOL0     C77317   2.290   1.958   2.707  0.1409 -0.2477  0.0515
  561MOL0     C77318   2.356   2.087   2.748 -0.7988 -0.3101 -0.1913
  561MOL0     C77319   2.505   2.094   2.699 -0.4259  0.2972 -0.4921
  561MOL0     C77320   2.577   2.226   2.706  0.3983  0.5449  0.3111
  561MOL0     C77321   2.732   2.231   2.701  1.4574 -0.5368 -1.4335
  561MOL0     C77322   2.799   2.198   2.562  0.7543 -0.0669  0.3710
  561MOL0     C77323   2.944   2.203   2.583 -0.1657  0.0733  0.6476
  561MOL0     C77324   3.016   2.202   2.452  0.2037  0.0627  0.5279
  561MOL0    Cl77325   3.166   2.298   2.445 -0.2371 -0.2812  0.0281
  561MOL0     C77326   1.956   1.909   2.822  0.0742  0.4936 -1.2492
  561MOL0     C77327   1.860   1.810   2.833 -0.3784 -0.3801 -0.1289
  561MOL0     O77328   1.798   1.577   2.996 -0.6172  0.4384 -0.0117
  561MOL0     C77329   1.529   1.458   2.797  0.2010 -0.0449  0.2594
  561MOL0     C77330   1.422   1.369   2.795 -0.1039  0.1441  0.0769
  561MOL0     N77331   1.218   0.577   2.690  0.6776  0.0106 -0.7267
  561MOL0     N77332   1.179   0.525   2.578 -0.3254  0.2038  0.4460
  561MOL0     C77333   1.020   1.325   2.745 -0.4241  0.2618 -1.3314
  561MOL0     C77334   1.043   1.441   2.813 -0.5016  1.0313  0.7473
  561MOL0     C77335   0.919   1.827   2.996 -0.4874 -0.4741  0.4548
  561MOL0     C77336   1.036   1.884   3.048 -0.2925  0.7480 -0.1339
  561MOL0     C77337   1.036   2.008   3.106 -0.0933 -0.2094 -0.2581
  561MOL0     C77338   0.928   2.092   3.108 -0.6429  0.7283 -0.4158
  561MOL0     O77339   0.933   2.222   3.157 -0.5595  1.1792  0.0395
  561MOL0     C77340   1.062   2.282   3.183 -0.6564  0.2874  0.2104
  561MOL0     C77341   1.128   2.345   3.058 -0.2100 -0.2468 -0.2036
  561MOL0     C77342   1.063   2.454   2.979 -0.6148 -0.3410  0.5030
  561MOL0     C77343   0.926   2.422   2.918  0.1278 -0.4972  1.0084
  561MOL0     C77344   0.906   2.482   2.786 -0.2760  0.4169 -0.5527
  561MOL0     C77345   0.877   2.542   2.686  0.1683 -0.0991  0.2830
  561MOL0     C77346   0.819   2.046   3.040 -0.7159  0.5610 -0.5959
  561MOL0     C77347   0.809   1.919   2.976 -0.4056  0.6114 -0.1037
  561MOL0     C77348   0.680   1.884   2.910 -0.7550  0.6934 -0.3083
  561MOL0     H77349   0.798   1.421   3.038  3.2375  2.4120  1.5202
  561MOL0     H77350   0.764   1.196   2.915 -0.2998  0.5232 -3.2080
  561MOL0     H77351   0.680   1.154   2.657 -3.0560 -3.9554  0.3558
  561MOL0     H77352   0.745   1.032   2.774  1.3505 -3.9976 -1.0457
  561MOL0     H77353   0.827   0.891   2.617 -1.7424 -0.9493  1.9811
  561MOL0     H77354   0.665   0.922   2.571  0.1701 -0.6864  1.9974
  561MOL0     H77355   0.740   1.114   2.410  1.3698 -0.3615  3.0781
  561MOL0     H77356   0.901   1.060   2.430  1.0299 -1.0827 -1.2123
  561MOL0     H77357   0.667   0.890   2.320 -0.1505  1.3434 -2.4977
  561MOL0     H77358   0.758   0.994   2.226  0.3823  2.9570  2.4304
  561MOL0     H77359   0.966   0.851   2.336  0.2733  0.3356  0.5568
  561MOL0     H77360   0.865   0.782   2.203 -2.8938  0.3921 -0.4261
  561MOL0     H77361   0.838   0.720   2.499 -1.6418  1.6309 -0.6932
  561MOL0     H77362   0.731   0.658   2.369 -0.5035  1.7850 -0.0220
  561MOL0     H77363   0.886   0.537   2.267 -2.8459  1.6004 -0.2538
  561MOL0     H77364   0.907   0.506   2.436 -0.2070 -1.8909 -1.5256
  561MOL0     H77365   1.130   0.529   2.307  2.0153  0.6855 -0.5551
  561MOL0     H77366   1.108   0.703   2.312  2.5961 -2.6946 -2.2454
  561MOL0     H77367   1.136   0.845   2.513 -1.4204  0.3268 -0.2958
  561MOL0     H77368   1.341   0.874   2.735 -0.1743 -0.9310 -0.5330
  561MOL0     H77369   1.261   0.768   2.863 -0.6048 -0.4758  0.8549
  561MOL0     H77370   1.169   1.013   2.730  0.5188  1.9164  3.2601
  561MOL0     H77371   1.049   0.883   2.773  0.6090 -2.4782 -3.1086
  561MOL0     H77372   1.065   1.072   2.948 -0.8746  0.4679  3.7189
  561MOL0     H77373   1.120   0.913   3.008  0.2381 -2.4235 -2.5658
  561MOL0     H77374   1.262   1.111   3.079 -1.3514  0.8209  0.0459
  561MOL0     H77375   1.349   0.992   2.991 -1.3810 -0.3932  2.9111
  561MOL0     H77376   1.510   1.167   3.062  1.2234 -0.0576  0.0974
  561MOL0     H77377   1.841   1.311   3.028  1.6366  3.2221  2.6633
  561MOL0     H77378   1.735   1.210   3.130  0.3438  1.0241  2.0825
  561MOL0     H77379   1.752   1.390   3.148  1.6289  0.2469  0.4748
  561MOL0     H77380   2.018   1.545   2.696  0.2699 -0.5234  1.0652
  561MOL0     H77381   2.206   1.725   2.690 -0.8406 -2.8716  1.6055
  561MOL0     H77382   2.350   1.876   2.748  0.9613  0.1263 -0.3757
  561MOL0     H77383   2.289   1.949   2.598  0.6821 -2.5423  0.1832
  561MOL0     H77384   2.300   2.170   2.703  3.3117  1.6882 -2.1133
  561MOL0     H77385   2.362   2.088   2.857  0.3270 -0.9288 -0.2372
  561MOL0     H77386   2.522   2.061   2.596  1.1353  1.6620 -0.7075
  561MOL0     H77387   2.551   2.018   2.764 -2.4902  0.2190  0.9829
  561MOL0     H77388   2.542   2.274   2.798 -0.9677  1.3504 -0.6001
  561MOL0     H77389   2.535   2.265   2.612  1.1795  0.3167 -0.1397
  561MOL0     H77390   2.760   2.335   2.720 -0.4553 -0.0656 -0.8800
  561MOL0     H77391   2.754   2.164   2.785 -2.9421 -1.1034 -0.4745
  561MOL0     H77392   2.771   2.270   2.485  0.5246 -0.0759  0.4453
  561MOL0     H77393   2.767   2.100   2.524 -1.9378  1.4081 -1.4790
  561MOL0     H77394   2.977   2.113   2.636 -0.7063  0.2461  1.2827
  561MOL0     H77395   2.972   2.290   2.644  0.4828  0.2919  0.0501
  561MOL0     H77396   2.953   2.235   2.369 -1.1460 -1.4729  0.9065
  561MOL0     H77397   3.052   2.101   2.428 -1.5943 -0.8737  1.5788
  561MOL0     H77398   1.955   2.006   2.872 -1.5057 -0.3236  0.4347
  561MOL0     H77399   1.771   1.829   2.893  1.3870  0.9391  2.2033
  561MOL0     H77400   1.527   1.541   2.727  1.2328 -1.1620 -1.1473
  561MOL0     H77401   1.341   1.404   2.732 -0.3881  0.0238  0.3719
  561MOL0     H77402   1.078   1.309   2.654 -0.9725 -0.7294 -1.5217
  561MOL0     H77403   1.121   1.504   2.773  0.9629 -1.7083 -1.0386
  561MOL0     H77404   1.120   1.815   3.055 -2.2730 -1.6489  1.6190
  561MOL0     H77405   1.135   2.038   3.142 -0.4146  0.1216  0.3685
  561MOL0     H77406   1.045   2.353   3.264 -1.2615 -1.1166  1.3569
  561MOL0     H77407   1.128   2.213   3.236  0.2501 -2.5226 -4.0347
  561MOL0     H77408   1.162   2.268   2.989 -0.0339  0.9372 -1.4838
  561MOL0     H77409   1.222   2.386   3.098 -0.9462  0.6192  0.6884
  561MOL0     H77410   1.064   2.549   3.034  4.4877  0.0694  0.2227
  561MOL0     H77411   1.133   2.483   2.899 -0.2253 -0.8338  0.6630
  561MOL0     H77412   0.846   2.464   2.979 -3.1770 -2.6020 -1.5469
  561MOL0     H77413   0.913   2.314   2.904  4.5054 -0.8875 -2.4642
  561MOL0     H77414   0.847   2.594   2.597 -0.8222 -1.3409 -0.1458
  561MOL0     H77415   0.733   2.111   3.055 -2.9461 -1.4969 -3.3653
  561MOL0     H77416   0.607   1.966   2.914 -0.0726  1.3275 -0.6015
  561MOL0     H77417   0.690   1.846   2.808  0.3714 -4.6643  1.4774
  561MOL0     H77418   0.625   1.812   2.971 -2.2559  0.5746 -1.7438
  562MOL0     O77419   9.197   9.558   7.082 -0.4251 -0.3750 -0.5746
  562MOL0     C77420   9.170   9.637   6.993 -0.5178  0.9785 -0.6281
  562MOL0     O77421   9.254   9.722   6.944  0.3080 -0.6349  0.2172
  562MOL0     C77422   9.390   9.703   6.939 -0.1722  0.0882 -0.1373
  562MOL0     C77423   9.471   9.637   7.029 -0.3886  0.1206 -0.1141
  562MOL0     C77424   9.609   9.634   7.004  0.1420 -0.6252 -0.6064
  562MOL0     C77425   9.668   9.704   6.894 -0.3838  0.6220  0.2868
  562MOL0     O77426   9.802   9.684   6.874 -0.0194 -0.6374  0.3690
  562MOL0     C77427   9.865   9.552   6.864  0.3978 -0.1875 -0.3642
  562MOL0     C77428   9.988   9.562   6.768  0.1557 -0.0535  0.5733
  562MOL0     C77429  10.107   9.645   6.827 -0.1703 -0.1349  0.3202
  562MOL0     C77430  10.237   9.555   6.818  0.3020  0.2323  0.4458
  562MOL0     C77431  10.363   9.632   6.843 -0.0915 -0.3193 -0.0885
  562MOL0     C77432  10.489   9.558   6.813  0.3325 -0.0045 -0.0697
  562MOL0     C77433  10.611   9.638   6.843 -0.2219  1.4558 -0.0265
  562MOL0     C77434  10.742   9.563   6.798  0.2227  0.3586  0.8913
  562MOL0     N77435  10.866   9.641   6.833  0.3161 -0.1485  0.4738
  562MOL0     C77436  10.887   9.775   6.808  0.6794  0.5598  0.0441
  562MOL0     C77437  11.019   9.794   6.823 -0.1429 -0.2115 -0.1208
  562MOL0     C77438  11.088   9.929   6.822 -0.2030 -0.2513  0.5344
  562MOL0     C77439  11.073   9.991   6.960  0.7495 -0.1110 -0.3963
  562MOL0     C77440  11.156   9.923   7.061  0.5070  0.2727 -0.2415
  562MOL0     C77441  11.162   9.989   7.201  0.0448 -0.5338 -0.8347
  562MOL0     O77442  11.217  10.118   7.197  1.0553 -1.0952 -0.4253
  562MOL0     C77443  11.233  10.180   7.325 -0.0873 -0.0229 -0.5832
  562MOL0     C77444  11.290  10.308   7.317  0.3624  0.2410  0.2940
  562MOL0     C77445  11.343  10.379   7.429  0.4464  0.6857 -0.4037
  562MOL0     C77446  11.413  10.508   7.387  0.1320 -0.1130 -0.4608
  562MOL0     C77447  11.327  10.326   7.557  0.2622  1.0919  0.6443
  562MOL0     C77448  11.358  10.387   7.679  0.3697  0.5928  0.8258
  562MOL0     O77449  11.489  10.367   7.698  0.0721  0.2927 -0.7560
  562MOL0     C77450  11.554  10.447   7.799  0.4006 -0.4156  0.2953
  562MOL0     C77451  11.515  10.573   7.843  0.4600  0.1599 -0.1632
  562MOL0     C77452  11.576  10.629   7.957 -0.5887 -0.9272  0.2411
  562MOL0     C77453  11.681  10.569   8.022 -0.4473  0.2798  0.1128
  562MOL0     O77454  11.754  10.640   8.114 -0.4139 -0.3810  0.3144
  562MOL0     C77455  11.677  10.739   8.191 -0.4602 -0.2957  0.2661
  562MOL0     C77456  11.730  10.765   8.326  0.4375  0.7292  0.5089
  562MOL0     C77457  11.730  10.635   8.404 -1.2382 -0.5300  0.2192
  562MOL0     C77458  11.845  10.630   8.504 -0.1789 -0.2512 -0.2159
  562MOL0     C77459  11.856  10.490   8.569  0.3962 -0.8609 -0.7985
  562MOL0     C77460  11.751  10.481   8.680  0.9497 -0.2185  0.1709
  562MOL0     C77461  11.779  10.382   8.788 -0.6409 -0.2566 -0.5189
  562MOL0     C77462  11.664  10.346   8.887  0.3482  0.3838  0.6463
  562MOL0    Cl77463  11.613  10.486   8.987  0.3521 -0.1647 -0.2016
  562MOL0     C77464  11.714  10.436   7.990 -0.5010  0.5999  0.1615
  562MOL0     C77465  11.650  10.380   7.876  0.1604  0.0104  0.5297
  562MOL0     O77466  11.274  10.401   7.767 -0.4475  0.3762  0.3441
  562MOL0     C77467  11.255  10.199   7.571 -0.0395 -0.0376  0.8155
  562MOL0     C77468  11.216  10.127   7.458  0.1432  0.1828 -0.5224
  562MOL0     N77469  11.079   9.680   6.862 -0.3084  1.0713 -0.0455
  562MOL0     N77470  10.979   9.596   6.874 -0.1368 -0.7303  0.4840
  562MOL0     C77471   9.587   9.772   6.808 -0.3227  0.5906 -0.5752
  562MOL0     C77472   9.448   9.778   6.824 -0.0316  1.2547 -0.7784
  562MOL0     C77473   9.036   9.647   6.943 -0.1004 -0.0044  0.4577
  562MOL0     C77474   8.940   9.640   7.034  0.1977  0.1450 -0.3738
  562MOL0     C77475   8.808   9.634   6.999 -0.5641  0.0627  0.3314
  562MOL0     C77476   8.771   9.654   6.866  0.0543 -0.5220  0.6500
  562MOL0     O77477   8.639   9.661   6.824  0.4796  0.5895 -0.0125
  562MOL0     C77478   8.542   9.587   6.896  0.6596  0.0253 -0.8100
  562MOL0     C77479   8.423   9.562   6.800  0.8043  0.1948  0.4813
  562MOL0     C77480   8.452   9.503   6.660  0.0589 -0.2445 -0.2382
  562MOL0     C77481   8.551   9.386   6.653  1.1869  0.7895  0.5362
  562MOL0     C77482   8.525   9.267   6.733 -1.1865 -0.8606 -0.5402
  562MOL0     C77483   8.505   9.175   6.803 -0.4563  0.2952 -0.3690
  562MOL0     C77484   8.876   9.664   6.771 -0.4809  0.7053  0.9219
  562MOL0     C77485   9.007   9.663   6.806 -0.6297  0.1034 -0.0150
  562MOL0     C77486   9.113   9.675   6.700  0.4206 -0.3617 -0.0441
  562MOL0     H77487   9.429   9.581   7.112  0.6685  0.0091  0.3621
  562MOL0     H77488   9.669   9.579   7.076  1.2703  2.7527  1.2533
  562MOL0     H77489   9.794   9.479   6.824 -1.5104  0.1367  2.1710
  562MOL0     H77490   9.899   9.511   6.959  0.2010 -0.6028 -0.4737
  562MOL0     H77491  10.015   9.458   6.749 -1.2501 -0.1212 -1.2403
  562MOL0     H77492   9.960   9.607   6.673 -3.5634 -4.0655 -0.5134
  562MOL0     H77493  10.122   9.737   6.770 -0.1661 -0.9159 -0.9795
  562MOL0     H77494  10.075   9.668   6.929 -0.2145 -0.6231  0.4193
  562MOL0     H77495  10.230   9.466   6.881  1.3670 -1.2252 -1.3781
  562MOL0     H77496  10.251   9.514   6.718 -2.8471 -1.5912  0.6248
  562MOL0     H77497  10.368   9.654   6.950  0.3364 -0.5458 -0.0611
  562MOL0     H77498  10.373   9.716   6.773  3.2306 -2.6851 -2.8224
  562MOL0     H77499  10.487   9.468   6.876 -4.2490 -1.6727 -2.1443
  562MOL0     H77500  10.489   9.524   6.709  0.7794  0.8918 -0.3713
  562MOL0     H77501  10.626   9.670   6.946  2.0933  1.9105 -0.4472
  562MOL0     H77502  10.611   9.730   6.784  1.7754  2.0602  0.8166
  562MOL0     H77503  10.742   9.465   6.848 -1.3415  0.0433  0.3394
  562MOL0     H77504  10.734   9.549   6.689  1.0272 -1.0818  0.9868
  562MOL0     H77505  10.811   9.844   6.776  0.2245  0.2688  0.4792
  562MOL0     H77506  11.038   9.992   6.748 -0.5034  2.7260  3.0703
  562MOL0     H77507  11.193   9.931   6.792 -0.5286 -1.8408 -0.8049
  562MOL0     H77508  11.107  10.095   6.958  0.2375  0.0634 -0.1128
  562MOL0     H77509  10.968   9.990   6.987  0.0020  0.4927 -2.9531
  562MOL0     H77510  11.119   9.821   7.078  1.4509  0.2841  2.2701
  562MOL0     H77511  11.255   9.913   7.015 -0.2851 -2.6367 -1.6023
  562MOL0     H77512  11.065  10.000   7.251  0.7444 -1.1601  0.7313
  562MOL0     H77513  11.229   9.942   7.273 -1.2668 -0.1620  0.6958
  562MOL0     H77514  11.299  10.347   7.216 -4.0192  2.6572  0.5905
  562MOL0     H77515  11.352  10.598   7.402  1.0904  1.2206 -3.6770
  562MOL0     H77516  11.440  10.512   7.281  1.6681  1.6838 -0.0650
  562MOL0     H77517  11.507  10.515   7.442 -0.7003  0.7532  0.9150
  562MOL0     H77518  11.451  10.632   7.779  0.4688  0.3292 -0.0163
  562MOL0     H77519  11.539  10.728   7.983 -1.6742 -1.5984  1.3352
  562MOL0     H77520  11.660  10.828   8.129 -1.5057 -0.9410 -0.3939
  562MOL0     H77521  11.580  10.691   8.197  0.0045 -1.5315 -1.3157
  562MOL0     H77522  11.831  10.806   8.321  0.5094  0.5001  0.0263
  562MOL0     H77523  11.666  10.839   8.375  0.4969  0.6045  0.7774
  562MOL0     H77524  11.737  10.546   8.341 -0.6148  2.1151 -3.7858
  562MOL0     H77525  11.634  10.625   8.456 -1.2080 -0.4258  0.2941
  562MOL0     H77526  11.832  10.708   8.580 -0.4812 -0.6864  0.1848
  562MOL0     H77527  11.935  10.643   8.443  0.9852  0.6672  1.5752
  562MOL0     H77528  11.842  10.405   8.501  0.9649  0.1562 -2.2382
  562MOL0     H77529  11.956  10.481   8.612  0.8343 -5.8839 -2.2543
  562MOL0     H77530  11.655  10.461   8.631  1.5208 -0.7864 -0.7386
  562MOL0     H77531  11.746  10.583   8.720 -1.0738  2.1056 -5.1143
  562MOL0     H77532  11.854  10.433   8.849 -1.7042 -0.1467  0.7637
  562MOL0     H77533  11.823  10.296   8.737 -0.9484 -1.6057  1.4150
  562MOL0     H77534  11.686  10.253   8.940 -1.4035 -1.5666 -1.7870
  562MOL0     H77535  11.574  10.323   8.829 -1.0437 -1.1527  3.2271
  562MOL0     H77536  11.777  10.366   8.044 -1.3617 -1.1407 -0.9979
  562MOL0     H77537  11.663  10.277   7.843  0.5843  0.8739 -2.2909
  562MOL0     H77538  11.242  10.163   7.672 -1.5044 -1.1327  0.2598
  562MOL0     H77539  11.160  10.035   7.469 -2.0593  1.2646 -1.9694
  562MOL0     H77540   9.623   9.821   6.718  0.2302 -1.7607 -1.7438
  562MOL0     H77541   9.389   9.827   6.748 -1.0351  0.0021 -0.8343
  562MOL0     H77542   8.962   9.654   7.139  1.1048  1.0213 -0.6613
  562MOL0     H77543   8.733   9.620   7.077  1.6866 -4.4387  2.0925
  562MOL0     H77544   8.580   9.489   6.925  0.9133 -0.0126 -1.2581
  562MOL0     H77545   8.516   9.645   6.985  2.1321 -0.1937 -0.2083
  562MOL0     H77546   8.372   9.656   6.774  0.3831  0.1281  1.0453
  562MOL0     H77547   8.351   9.498   6.851  1.9550 -2.7979 -1.4332
  562MOL0     H77548   8.355   9.470   6.621 -0.8420  1.8123  0.1364
  562MOL0     H77549   8.486   9.585   6.595  0.9965 -1.1466 -0.9231
  562MOL0     H77550   8.653   9.420   6.673  0.9566  1.4824  0.5666
  562MOL0     H77551   8.527   9.344   6.555  2.7367 -2.1759  1.2994
  562MOL0     H77552   8.491   9.087   6.864 -0.1057  0.6748  0.2671
  562MOL0     H77553   8.852   9.675   6.666  2.1526  1.7029  0.3692
  562MOL0     H77554   9.201   9.620   6.736 -0.8363 -1.1195  2.0702
  562MOL0     H77555   9.086   9.633   6.603 -2.2725 -0.4577  0.6700
  562MOL0     H77556   9.133   9.781   6.681 -2.6584  0.1500 -0.9617
  563MOL0     O77557   6.524  10.074   0.901  0.5554 -0.7175  0.5354
  563MOL0     C77558   6.435   9.991   0.901 -0.8765  0.5784 -0.3531
  563MOL0     O77559   6.300  10.020   0.893  0.2165 -0.5895  0.5503
  563MOL0     C77560   6.258  10.153   0.895  0.3915  0.1768 -0.5027
  563MOL0     C77561   6.227  10.211   1.018 -0.4898  0.1640 -0.5169
  563MOL0     C77562   6.196  10.350   1.024  0.9730  0.0042 -0.4875
  563MOL0     C77563   6.203  10.432   0.910  0.2497 -0.7980 -0.4518
  563MOL0     O77564   6.175  10.563   0.932 -0.2937 -0.2599 -0.1609
  563MOL0     C77565   6.257  10.655   0.852 -0.3049  0.5057 -0.7396
  563MOL0     C77566   6.216  10.800   0.876 -0.9118  0.4724 -0.7962
  563MOL0     C77567   6.309  10.890   0.794 -0.1913  0.6760 -0.1967
  563MOL0     C77568   6.266  11.031   0.789 -0.2126 -0.0813  0.0437
  563MOL0     C77569   6.356  11.130   0.713  0.8236  0.0449  0.7209
  563MOL0     C77570   6.323  11.273   0.738  0.2705 -0.0385  0.3136
  563MOL0     C77571   6.430  11.359   0.808 -0.3355  0.5309 -0.2377
  563MOL0     C77572   6.555  11.388   0.724  0.1235 -0.7288 -0.1840
  563MOL0     N77573   6.528  11.470   0.608  0.3009 -1.4480 -0.0234
  563MOL0     C77574   6.555  11.439   0.477 -0.1545  0.2823  0.0108
  563MOL0     C77575   6.554  11.554   0.408  0.0916  0.6422 -0.4505
  563MOL0     C77576   6.592  11.562   0.261  0.4442  0.5067  0.0930
  563MOL0     C77577   6.730  11.607   0.237 -0.3767 -0.6127 -1.1325
  563MOL0     C77578   6.846  11.509   0.281  0.1659 -0.7852 -0.1532
  563MOL0     C77579   6.983  11.576   0.282 -0.1087 -0.3138  0.6018
  563MOL0     O77580   6.991  11.695   0.363  0.0161 -0.2083 -0.0722
  563MOL0     C77581   7.002  11.681   0.498 -0.1107  0.4232 -0.6682
  563MOL0     C77582   6.892  11.673   0.587  0.2883  0.0595  0.0087
  563MOL0     C77583   6.912  11.685   0.732 -0.2019 -0.0972  0.1897
  563MOL0     C77584   6.790  11.712   0.816  0.6646 -0.6709  0.9947
  563MOL0     C77585   7.051  11.681   0.779 -0.6116 -0.5507 -0.0261
  563MOL0     C77586   7.096  11.671   0.922 -0.7146 -0.0485 -0.3407
  563MOL0     O77587   7.229  11.649   0.952 -0.4705 -0.0778 -0.0390
  563MOL0     C77588   7.260  11.605   1.082 -0.6736 -0.3367  0.2355
  563MOL0     C77589   7.393  11.630   1.127  0.0074 -0.7447  0.1131
  563MOL0     C77590   7.437  11.568   1.250 -0.3207 -0.3034  0.1346
  563MOL0     C77591   7.348  11.505   1.334 -0.0877  0.3257 -0.7948
  563MOL0     O77592   7.389  11.443   1.457 -0.5576  0.3873  0.1088
  563MOL0     C77593   7.526  11.453   1.502  0.1681  0.7716 -0.1624
  563MOL0     C77594   7.537  11.364   1.625 -0.7433  0.2245 -0.1516
  563MOL0     C77595   7.512  11.206   1.598 -0.4612 -0.4726  0.4309
  563MOL0     C77596   7.609  11.133   1.495  0.1850  0.3191 -0.1640
  563MOL0     C77597   7.549  11.132   1.352  0.1857 -0.4359  0.0676
  563MOL0     C77598   7.643  11.079   1.250 -0.6703 -0.6345 -0.2916
  563MOL0     C77599   7.573  11.045   1.120 -0.1595  0.2826 -0.6032
  563MOL0     C77600   7.684  10.992   1.023  0.7820 -0.3327 -0.9466
  563MOL0    Cl77601   7.797  11.127   0.965 -0.3256  0.2999  0.4259
  563MOL0     C77602   7.215  11.501   1.306 -0.0492 -0.1207  0.6630
  563MOL0     C77603   7.173  11.543   1.177 -0.2633  0.0039  0.6254
  563MOL0     O77604   7.009  11.712   0.999 -0.0302  0.1547  0.2054
  563MOL0     C77605   7.151  11.699   0.684  0.5158  1.0281 -0.1236
  563MOL0     C77606   7.127  11.707   0.548  0.3916 -0.2060  0.3739
  563MOL0     N77607   6.515  11.652   0.494  0.3640 -0.1927  1.3758
  563MOL0     N77608   6.516  11.607   0.613  0.4166 -0.1535  0.9095
  563MOL0     C77609   6.228  10.367   0.786  0.6377  0.0435 -0.1144
  563MOL0     C77610   6.261  10.231   0.785  0.7764  0.3912 -0.0147
  563MOL0     C77611   6.466   9.842   0.913 -0.0496 -0.5800 -0.3301
  563MOL0     C77612   6.352   9.754   0.923 -0.3516  0.0669 -0.0539
  563MOL0     C77613   6.364   9.621   0.922  0.7011 -1.1719  0.1829
  563MOL0     C77614   6.484   9.562   0.915 -0.6466  0.0521 -0.0373
  563MOL0     O77615   6.480   9.424   0.915 -0.2404  0.0072 -0.0228
  563MOL0     C77616   6.590   9.344   0.953 -0.3749  0.1503 -0.6902
  563MOL0     C77617   6.624   9.384   1.101  0.4258  0.2961  0.3862
  563MOL0     C77618   6.665   9.263   1.179  0.0909 -0.0265 -0.1962
  563MOL0     C77619   6.709   9.290   1.326  0.2799  0.3142  1.2780
  563MOL0     C77620   6.839   9.354   1.338  0.6128  0.1534 -0.6763
  563MOL0     C77621   6.943   9.409   1.363  0.1192 -1.0867 -0.3799
  563MOL0     C77622   6.601   9.640   0.919  0.4333 -0.3221  0.1564
  563MOL0     C77623   6.587   9.780   0.907 -0.7213  0.5764  0.7670
  563MOL0     C77624   6.716   9.856   0.902  0.3194  0.1013 -0.6393
  563MOL0     H77625   6.228  10.146   1.105  0.9318 -1.0698 -1.4148
  563MOL0     H77626   6.164  10.398   1.117  1.1824 -2.8808  1.1838
  563MOL0     H77627   6.255  10.623   0.748 -1.4742 -2.7439  0.1345
  563MOL0     H77628   6.357  10.639   0.893 -0.9818 -1.0220  0.4401
  563MOL0     H77629   6.111  10.816   0.848 -1.3202 -0.1220  0.3407
  563MOL0     H77630   6.220  10.828   0.982 -2.9501  2.2007 -1.1099
  563MOL0     H77631   6.402  10.899   0.850 -1.2948  2.5998  1.4711
  563MOL0     H77632   6.334  10.853   0.694 -0.0708 -0.8337  0.3681
  563MOL0     H77633   6.165  11.041   0.748 -0.3372  1.6752  0.6832
  563MOL0     H77634   6.255  11.056   0.895  0.4037 -0.6165  0.2380
  563MOL0     H77635   6.342  11.116   0.606 -2.7873  1.6814  0.8558
  563MOL0     H77636   6.460  11.109   0.742 -0.3792 -4.8250  2.3590
  563MOL0     H77637   6.309  11.327   0.644 -0.0097  2.0028  1.4620
  563MOL0     H77638   6.228  11.271   0.792  1.0837 -1.1301  1.8140
  563MOL0     H77639   6.475  11.302   0.889 -0.6627 -1.7040 -1.5488
  563MOL0     H77640   6.372  11.442   0.850 -1.3483 -0.2414 -0.0835
  563MOL0     H77641   6.632  11.432   0.789  0.8909 -2.8956  0.4881
  563MOL0     H77642   6.597  11.290   0.699 -0.6346 -1.8781  2.6897
  563MOL0     H77643   6.578  11.343   0.431  0.2774  1.8015 -3.2692
  563MOL0     H77644   6.512  11.620   0.212 -0.3776 -1.0956 -0.5225
  563MOL0     H77645   6.592  11.468   0.206  0.0958  0.1060  0.7638
  563MOL0     H77646   6.755  11.626   0.133  2.7793 -2.3547 -0.8183
  563MOL0     H77647   6.744  11.694   0.302 -1.6666 -1.2776  0.0961
  563MOL0     H77648   6.831  11.492   0.388  1.8066 -0.7134  0.1249
  563MOL0     H77649   6.856  11.419   0.219  1.0697  0.3813 -1.7695
  563MOL0     H77650   7.061  11.506   0.313  0.6237  0.3362  0.2675
  563MOL0     H77651   7.002  11.605   0.178 -0.0071 -0.8967  0.4513
  563MOL0     H77652   6.792  11.693   0.548  0.4645 -0.7948 -0.9236
  563MOL0     H77653   6.799  11.816   0.847 -2.5255  1.2260 -3.3836
  563MOL0     H77654   6.767  11.640   0.896 -1.6446 -0.9166  0.2016
  563MOL0     H77655   6.701  11.708   0.753  0.9196 -3.1507  0.6728
  563MOL0     H77656   7.467  11.678   1.063  0.1597 -0.9385  0.1409
  563MOL0     H77657   7.542  11.559   1.275 -1.1319 -1.0209  4.0253
  563MOL0     H77658   7.593  11.409   1.429  2.2767  0.8006  1.6561
  563MOL0     H77659   7.548  11.557   1.527 -1.8120  0.7849  1.9493
  563MOL0     H77660   7.640  11.382   1.657 -0.4551  2.0225 -1.8471
  563MOL0     H77661   7.459  11.385   1.698 -1.5326  0.3271 -1.0111
  563MOL0     H77662   7.408  11.194   1.568 -0.3722 -0.8440  0.2683
  563MOL0     H77663   7.520  11.147   1.690 -1.3319 -1.7269 -0.2761
  563MOL0     H77664   7.635  11.032   1.528 -0.0005  0.4469  0.3837
  563MOL0     H77665   7.706  11.184   1.486  1.0866 -1.4477 -1.0397
  563MOL0     H77666   7.468  11.059   1.353 -1.0255  0.8387 -0.9432
  563MOL0     H77667   7.505  11.228   1.322  0.2738  0.2953  2.1481
  563MOL0     H77668   7.686  10.990   1.298 -2.0392 -1.4606 -0.5380
  563MOL0     H77669   7.725  11.147   1.228 -1.5510  0.0358 -1.6551
  563MOL0     H77670   7.510  11.128   1.088 -2.6237 -1.2801 -0.0720
  563MOL0     H77671   7.509  10.958   1.141  1.2671 -0.4783  0.7880
  563MOL0     H77672   7.634  10.942   0.940 -0.3986  2.4704 -2.0562
  563MOL0     H77673   7.746  10.920   1.077  2.8677  1.5802 -0.6409
  563MOL0     H77674   7.136  11.453   1.364  0.1520  0.3455  1.3251
  563MOL0     H77675   7.071  11.520   1.150  0.9320 -2.9011 -2.0729
  563MOL0     H77676   7.258  11.696   0.705  0.8367  1.2957 -1.5756
  563MOL0     H77677   7.201  11.749   0.482 -0.3495  2.1373  0.9398
  563MOL0     H77678   6.226  10.418   0.690 -1.3002 -2.8254 -1.7775
  563MOL0     H77679   6.289  10.181   0.693  1.0965 -1.5879  1.1092
  563MOL0     H77680   6.248   9.785   0.922 -0.4144 -0.0572  1.1318
  563MOL0     H77681   6.267   9.572   0.926 -1.6497  2.9653 -0.3955
  563MOL0     H77682   6.569   9.238   0.935 -2.8054  0.1240  1.6303
  563MOL0     H77683   6.677   9.366   0.890  1.9769 -0.8750  1.9839
  563MOL0     H77684   6.536   9.430   1.147 -0.5587 -1.2352  0.0836
  563MOL0     H77685   6.708   9.455   1.103  0.1522  0.7294 -1.5044
  563MOL0     H77686   6.580   9.195   1.180 -3.4406  3.9487 -1.3890
  563MOL0     H77687   6.750   9.220   1.124  1.3303  1.3107  0.5967
  563MOL0     H77688   6.724   9.202   1.390  2.0652  1.2276  2.1842
  563MOL0     H77689   6.634   9.353   1.375  0.8092  3.1360 -1.2888
  563MOL0     H77690   7.031   9.461   1.394 -0.5721  0.8478 -1.5163
  563MOL0     H77691   6.691   9.581   0.930  0.7758  0.1104 -0.3144
  563MOL0     H77692   6.732   9.898   1.002 -4.0981 -1.7739  1.1445
  563MOL0     H77693   6.807   9.797   0.893  0.3533 -0.1530  0.9609
  563MOL0     H77694   6.716   9.937   0.829 -2.8829  0.3974 -0.4762
  564MOL0     O77695   0.323   3.249   4.693  0.0478 -0.9965 -0.6499
  564MOL0     C77696   0.292   3.320   4.785 -0.3199  0.0076  0.5494
  564MOL0     O77697   0.384   3.401   4.848  0.6663  0.0261 -0.2987
  564MOL0     C77698   0.520   3.368   4.838  0.5447  0.1001 -0.2407
  564MOL0     C77699   0.582   3.310   4.944 -0.2023 -0.4399  0.5783
  564MOL0     C77700   0.722   3.300   4.946 -0.6314 -0.2356  0.0642
  564MOL0     C77701   0.807   3.363   4.843 -0.1324  0.5346 -0.1445
  564MOL0     O77702   0.939   3.367   4.851 -0.0600  0.0465 -0.2411
  564MOL0     C77703   1.007   3.295   4.966 -0.4883 -0.2624  0.3055
  564MOL0     C77704   1.152   3.271   4.919  0.1660  0.1049 -0.7289
  564MOL0     C77705   1.166   3.151   4.828 -0.0324  1.2178  0.5054
  564MOL0     C77706   1.313   3.126   4.794  0.6335 -1.1542  0.1175
  564MOL0     C77707   1.322   3.041   4.677 -0.3282  0.4285 -0.3098
  564MOL0     C77708   1.464   2.986   4.676 -0.0199  0.6604 -0.4383
  564MOL0     C77709   1.505   2.950   4.537 -0.6618  0.5179  0.3573
  564MOL0     C77710   1.620   2.850   4.533  0.5125 -0.0555  0.3305
  564MOL0     N77711   1.736   2.890   4.619 -0.5249  1.1027 -0.1356
  564MOL0     C77712   1.852   2.932   4.572  0.6407 -1.5336 -0.5150
  564MOL0     C77713   1.927   2.951   4.679  0.8877 -0.2114 -0.4151
  564MOL0     C77714   2.077   2.980   4.665  0.6492  0.3748 -0.4339
  564MOL0     C77715   2.168   2.980   4.789  0.5894  0.0630 -0.1424
  564MOL0     C77716   2.313   2.982   4.751  0.8662 -0.0938 -0.2544
  564MOL0     C77717   2.403   2.985   4.870 -0.0829  1.0034 -0.3958
  564MOL0     O77718   2.408   3.122   4.912 -0.6246  0.3086 -0.1464
  564MOL0     C77719   2.508   3.157   5.003  1.0892 -0.9837 -1.2195
  564MOL0     C77720   2.606   3.085   5.063 -0.3223  0.2641 -0.2241
  564MOL0     C77721   2.699   3.136   5.155 -0.0591 -0.9627 -0.5634
  564MOL0     C77722   2.797   3.038   5.219 -0.3353 -0.3329 -0.0575
  564MOL0     C77723   2.681   3.269   5.201  0.3359  0.4067 -0.9036
  564MOL0     C77724   2.747   3.329   5.318 -0.8117 -0.0196  0.0186
  564MOL0     O77725   2.854   3.265   5.366  0.2289 -0.0360  0.2123
  564MOL0     C77726   2.939   3.334   5.440 -0.0128 -0.5829 -0.2170
  564MOL0     C77727   3.009   3.260   5.542  0.6266  0.5970  0.0079
  564MOL0     C77728   3.116   3.318   5.615 -0.7196  0.9662  0.4287
  564MOL0     C77729   3.166   3.451   5.585 -0.0882  0.1287  0.4092
  564MOL0     O77730   3.255   3.502   5.670 -0.1662 -0.1627 -0.0727
  564MOL0     C77731   3.228   3.646   5.707 -0.0140 -0.3420  0.1373
  564MOL0     C77732   3.329   3.687   5.806 -0.2230 -0.2173  0.5068
  564MOL0     C77733   3.334   3.842   5.799  0.5780  0.5184 -0.4361
  564MOL0     C77734   3.435   3.900   5.892  0.3236  0.1547 -0.1938
  564MOL0     C77735   3.423   4.059   5.892 -0.5963 -0.6093  0.9553
  564MOL0     C77736   3.535   4.119   5.982  0.6186 -0.5644 -0.0494
  564MOL0     C77737   3.669   4.125   5.914  0.0457  0.9971 -0.3778
  564MOL0     C77738   3.774   4.180   6.012 -0.9703 -0.1976  0.0659
  564MOL0    Cl77739   3.749   4.366   6.031 -0.0258 -0.0178  0.2450
  564MOL0     C77740   3.103   3.517   5.477 -0.1947  0.4305  0.0079
  564MOL0     C77741   2.994   3.458   5.406 -0.6476  0.0910 -0.9317
  564MOL0     O77742   2.696   3.430   5.376 -0.0379  0.0564  0.2404
  564MOL0     C77743   2.578   3.349   5.138  0.7511 -0.3467  1.3506
  564MOL0     C77744   2.499   3.294   5.038 -0.1432  0.8822  0.0863
  564MOL0     N77745   1.863   2.917   4.794  0.0942 -0.1703  0.8152
  564MOL0     N77746   1.745   2.880   4.753 -0.2413 -0.3627 -0.1480
  564MOL0     C77747   0.735   3.432   4.748  0.3269  0.4017  0.0298
  564MOL0     C77748   0.597   3.433   4.742  0.2663 -0.7263  0.0674
  564MOL0     C77749   0.145   3.349   4.812  0.5941  0.1338  0.9074
  564MOL0     C77750   0.114   3.418   4.925 -0.2061  0.5440 -0.3040
  564MOL0     C77751  -0.017   3.438   4.961 -0.6890 -0.0567 -0.5278
  564MOL0     C77752  -0.118   3.403   4.872 -0.6295 -0.2184  0.5816
  564MOL0     O77753  -0.244   3.409   4.931  0.1435 -0.5517  0.4090
  564MOL0     C77754  -0.351   3.347   4.859  0.9561  0.5459  0.1311
  564MOL0     C77755  -0.484   3.385   4.930  0.0511 -0.5715  0.1591
  564MOL0     C77756  -0.523   3.285   5.041 -0.6229  0.6470 -0.1663
  564MOL0     C77757  -0.636   3.347   5.126 -0.9874 -0.2845 -0.1945
  564MOL0     C77758  -0.676   3.252   5.229  1.0053 -0.0890 -0.1386
  564MOL0     C77759  -0.722   3.184   5.321  0.6814  0.1029  0.3661
  564MOL0     C77760  -0.088   3.340   4.753  0.0014  0.0991 -0.8452
  564MOL0     C77761   0.042   3.296   4.727  0.7429  0.8753  0.5109
  564MOL0     C77762   0.061   3.205   4.599 -0.3354  0.4906 -0.0780
  564MOL0     H77763   0.524   3.263   5.022 -2.7899  0.8769 -0.4367
  564MOL0     H77764   0.770   3.244   5.025  2.0143 -1.1463 -2.0059
  564MOL0     H77765   0.966   3.196   4.988  0.0477 -0.9357 -1.5952
  564MOL0     H77766   1.007   3.343   5.065  0.6974 -0.2164  0.2976
  564MOL0     H77767   1.190   3.361   4.869  0.1970  1.3857  1.4951
  564MOL0     H77768   1.207   3.245   5.010 -2.9638 -0.6820  1.1013
  564MOL0     H77769   1.132   3.058   4.874  1.3319  0.0471 -0.7324
  564MOL0     H77770   1.103   3.171   4.741  1.5743 -1.8437 -1.5573
  564MOL0     H77771   1.348   3.227   4.771  0.2305 -0.5739  1.8982
  564MOL0     H77772   1.364   3.084   4.882  2.0277  0.6420  0.2312
  564MOL0     H77773   1.318   3.112   4.593 -0.8404 -0.8917 -1.4481
  564MOL0     H77774   1.239   2.969   4.682 -1.4144  1.7034  0.7489
  564MOL0     H77775   1.532   3.064   4.709 -1.1992  0.2001  3.6251
  564MOL0     H77776   1.459   2.905   4.750  2.8950 -0.6654 -1.5234
  564MOL0     H77777   1.534   3.046   4.493 -2.1391  2.4151  3.1960
  564MOL0     H77778   1.424   2.908   4.477 -1.8191  0.7812  1.6788
  564MOL0     H77779   1.591   2.756   4.580 -1.3228  1.1108  1.6661
  564MOL0     H77780   1.665   2.841   4.434  1.0301  2.5713  0.2450
  564MOL0     H77781   1.872   2.940   4.466  1.5936 -1.0723 -0.3050
  564MOL0     H77782   2.088   3.067   4.600 -0.9445 -0.3084 -1.7195
  564MOL0     H77783   2.119   2.904   4.598  0.2579  1.2110 -1.6623
  564MOL0     H77784   2.145   3.065   4.853  2.0517  0.1444  0.2948
  564MOL0     H77785   2.135   2.896   4.850 -1.2893  0.0304 -1.1095
  564MOL0     H77786   2.334   2.896   4.687 -0.9780 -2.0585  1.5704
  564MOL0     H77787   2.336   3.068   4.688 -1.9331  1.0178  0.1045
  564MOL0     H77788   2.365   2.916   4.945 -0.9530 -0.2638 -1.9398
  564MOL0     H77789   2.504   2.948   4.850 -0.8563 -2.2739  1.1922
  564MOL0     H77790   2.637   2.985   5.037  0.7921  0.5517 -0.0260
  564MOL0     H77791   2.815   2.953   5.153 -0.6244 -0.2419 -0.2601
  564MOL0     H77792   2.765   3.009   5.319  1.8738 -1.5646  0.3387
  564MOL0     H77793   2.891   3.093   5.225 -2.2505  3.5620 -1.6656
  564MOL0     H77794   2.977   3.163   5.579  3.0883 -0.6728 -0.9522
  564MOL0     H77795   3.166   3.266   5.696 -1.6939  0.9424  1.0208
  564MOL0     H77796   3.253   3.713   5.624  3.1568 -1.3337  0.1487
  564MOL0     H77797   3.122   3.650   5.732 -0.3044 -0.6801 -0.9937
  564MOL0     H77798   3.287   3.652   5.900 -2.3823 -1.9208 -0.9694
  564MOL0     H77799   3.424   3.638   5.787 -0.5045 -0.2500 -1.0203
  564MOL0     H77800   3.233   3.875   5.822 -1.1633 -3.3826 -1.5425
  564MOL0     H77801   3.374   3.874   5.702 -0.1188  2.0098 -0.2581
  564MOL0     H77802   3.529   3.874   5.841 -0.9110 -1.9186 -1.5954
  564MOL0     H77803   3.431   3.866   5.996  0.0894  1.7228  0.3366
  564MOL0     H77804   3.437   4.094   5.790  0.6222  0.3935  1.4358
  564MOL0     H77805   3.327   4.102   5.923  0.3758  1.0024  1.8753
  564MOL0     H77806   3.546   4.051   6.067 -1.0960  0.1820  0.8025
  564MOL0     H77807   3.508   4.220   6.014 -0.0707 -1.1736  1.4115
  564MOL0     H77808   3.670   4.183   5.821  0.2126 -1.7933 -2.2390
  564MOL0     H77809   3.701   4.028   5.875 -0.5278  0.3987  0.6089
  564MOL0     H77810   3.869   4.165   5.961  0.2389 -0.2507  2.2221
  564MOL0     H77811   3.778   4.127   6.107  0.0433 -1.6166 -0.7397
  564MOL0     H77812   3.136   3.613   5.437  0.8392 -0.5246 -1.5614
  564MOL0     H77813   2.948   3.511   5.324 -3.8986 -3.1603 -1.4961
  564MOL0     H77814   2.572   3.455   5.163 -1.0918  0.1873 -0.9730
  564MOL0     H77815   2.429   3.353   4.980 -0.2891 -0.6321 -1.3633
  564MOL0     H77816   0.783   3.495   4.674 -1.9456  1.3133 -0.7554
  564MOL0     H77817   0.547   3.488   4.662 -1.0076  0.1085  1.3852
  564MOL0     H77818   0.193   3.458   4.988  1.0765 -1.2860 -0.6671
  564MOL0     H77819  -0.050   3.496   5.047 -1.5695 -2.0183  0.5215
  564MOL0     H77820  -0.348   3.375   4.753 -1.4914  1.3649  0.1990
  564MOL0     H77821  -0.341   3.238   4.862  3.0207  0.7099  0.2833
  564MOL0     H77822  -0.562   3.370   4.854 -0.8247 -1.0806  1.1267
  564MOL0     H77823  -0.474   3.490   4.958  0.9590 -0.3489 -0.9408
  564MOL0     H77824  -0.546   3.188   4.996  1.5906  0.1535 -0.3406
  564MOL0     H77825  -0.438   3.257   5.104 -1.3298  1.8306  1.3766
  564MOL0     H77826  -0.730   3.365   5.073 -1.5158 -0.8148  0.5404
  564MOL0     H77827  -0.596   3.441   5.164 -0.9957  0.3622 -1.7233
  564MOL0     H77828  -0.752   3.124   5.405 -1.0277 -1.0460 -0.9936
  564MOL0     H77829  -0.158   3.310   4.675  0.4127 -0.6923 -0.9243
  564MOL0     H77830  -0.030   3.158   4.561  0.2602 -2.5680  1.9531
  564MOL0     H77831   0.117   3.258   4.521  2.4215 -3.8687 -1.4115
  564MOL0     H77832   0.114   3.113   4.623 -1.8733 -0.5193 -0.4189
  565MOL0     O77833   5.065   5.425   7.882 -0.6016 -0.4289 -0.0800
  565MOL0     C77834   4.997   5.412   7.783 -0.2879  0.0558  0.2896
  565MOL0     O77835   5.042   5.429   7.654  0.5655  0.1374 -0.4103
  565MOL0     C77836   5.174   5.447   7.618 -0.4972  0.5396  0.3001
  565MOL0     C77837   5.231   5.366   7.515 -0.4615 -0.2601 -0.1413
  565MOL0     C77838   5.368   5.377   7.488  0.4188  0.3277  0.2379
  565MOL0     C77839   5.444   5.464   7.555  0.5027  0.0243 -1.0860
  565MOL0     O77840   5.579   5.460   7.519 -0.9008 -0.1151 -0.1731
  565MOL0     C77841   5.673   5.548   7.580 -0.4117 -0.0794 -0.9218
  565MOL0     C77842   5.819   5.541   7.528  0.2826 -0.2600  0.2832
  565MOL0     C77843   5.914   5.616   7.623  0.1275  0.3623  0.0202
  565MOL0     C77844   6.052   5.619   7.554  0.7778 -0.5562  0.0809
  565MOL0     C77845   6.154   5.642   7.669  0.0816  0.9309  0.0185
  565MOL0     C77846   6.293   5.620   7.598 -0.4267  0.3325  0.5699
  565MOL0     C77847   6.398   5.661   7.707 -0.1972 -0.5054 -0.1472
  565MOL0     C77848   6.537   5.667   7.651  0.2493  0.1171  0.6360
  565MOL0     N77849   6.567   5.535   7.589 -0.1528 -0.0081 -1.6509
  565MOL0     C77850   6.665   5.520   7.508 -0.9854  0.2382  0.5653
  565MOL0     C77851   6.675   5.384   7.497 -0.0543 -0.7009  0.6488
  565MOL0     C77852   6.759   5.325   7.394 -0.4442 -0.0713  0.3630
  565MOL0     C77853   6.909   5.353   7.412  0.7102  0.2646 -0.1752
  565MOL0     C77854   6.969   5.427   7.286  0.0074 -0.3070 -0.3410
  565MOL0     C77855   6.963   5.364   7.160  0.4622  0.2728 -0.7302
  565MOL0     O77856   7.020   5.445   7.061 -0.5097 -0.7182  0.4480
  565MOL0     C77857   7.149   5.460   7.043 -0.1595 -0.5511 -0.8072
  565MOL0     C77858   7.244   5.393   7.125 -0.4237  0.4495  0.8727
  565MOL0     C77859   7.381   5.425   7.104  0.4088 -1.0791 -0.1319
  565MOL0     C77860   7.477   5.351   7.187 -0.2317  0.5308 -0.2188
  565MOL0     C77861   7.419   5.525   7.011 -0.0672  0.0151  0.3439
  565MOL0     C77862   7.558   5.580   7.004 -0.6062 -0.3025 -0.4210
  565MOL0     O77863   7.617   5.614   7.116 -0.4316  0.3980  0.0840
  565MOL0     C77864   7.737   5.689   7.115 -1.2079 -0.3099  0.2292
  565MOL0     C77865   7.722   5.821   7.077 -0.8929  0.4742  0.0672
  565MOL0     C77866   7.835   5.902   7.053 -0.3215  1.1146  0.4190
  565MOL0     C77867   7.962   5.857   7.072  0.1706  0.1352 -0.3323
  565MOL0     O77868   8.076   5.934   7.072 -0.0312  0.1499  0.3270
  565MOL0     C77869   8.054   6.077   7.077  0.0214 -1.4031  0.4576
  565MOL0     C77870   8.206   6.127   7.090  0.4060 -0.8579  0.2193
  565MOL0     C77871   8.226   6.280   7.109 -0.4964 -0.1817 -0.5696
  565MOL0     C77872   8.221   6.312   7.263 -0.2522 -0.0738  0.5608
  565MOL0     C77873   8.223   6.460   7.292 -1.0550  0.1337 -0.0016
  565MOL0     C77874   8.359   6.528   7.268 -0.3700 -0.3231  0.0249
  565MOL0     C77875   8.362   6.672   7.306  0.1875  0.1778  0.1838
  565MOL0     C77876   8.503   6.731   7.284  0.0605 -0.1107  0.2771
  565MOL0    Cl77877   8.617   6.673   7.411  0.0427  0.3407 -0.4113
  565MOL0     C77878   7.969   5.729   7.129 -0.3264 -0.1181  0.0641
  565MOL0     C77879   7.863   5.642   7.146 -1.1866  0.3546 -0.1091
  565MOL0     O77880   7.598   5.596   6.893 -0.6461  0.1319  0.3390
  565MOL0     C77881   7.328   5.582   6.929 -0.6220  0.6905 -0.3454
  565MOL0     C77882   7.193   5.553   6.948  0.0982 -0.4782 -0.4909
  565MOL0     N77883   6.590   5.321   7.580 -0.1459  0.1789 -0.3778
  565MOL0     N77884   6.540   5.417   7.642 -0.8805  1.2128 -0.0603
  565MOL0     C77885   5.388   5.551   7.652  0.6488 -0.4430 -0.4529
  565MOL0     C77886   5.255   5.539   7.683 -1.0854  0.5736  0.1694
  565MOL0     C77887   4.857   5.378   7.795 -0.1703 -0.6703 -0.1194
  565MOL0     C77888   4.773   5.375   7.686  0.1197  0.8246  0.1097
  565MOL0     C77889   4.636   5.337   7.697  0.0859 -0.4085  0.2885
  565MOL0     C77890   4.580   5.296   7.812  0.7452  0.4404  0.4022
  565MOL0     O77891   4.453   5.254   7.826 -0.2181  0.3674 -0.4149
  565MOL0     C77892   4.360   5.271   7.710 -1.3130 -0.3757 -0.5525
  565MOL0     C77893   4.216   5.230   7.738  0.6574  0.7549 -1.2774
  565MOL0     C77894   4.195   5.075   7.769 -0.1797 -0.5753 -0.6681
  565MOL0     C77895   4.226   4.993   7.639  0.4605 -0.9448  0.5832
  565MOL0     C77896   4.142   4.873   7.629  1.1154  0.4142  0.3115
  565MOL0     C77897   4.054   4.790   7.601 -0.3378  0.2256  0.8656
  565MOL0     C77898   4.661   5.298   7.926  0.3273  0.2012  0.5694
  565MOL0     C77899   4.789   5.344   7.922  0.0989 -0.3884  0.5115
  565MOL0     C77900   4.847   5.361   8.064 -0.7309  0.4621 -0.5205
  565MOL0     H77901   5.171   5.283   7.479  1.1941 -1.7359  0.3905
  565MOL0     H77902   5.409   5.308   7.415 -0.6009 -0.9322  0.8152
  565MOL0     H77903   5.681   5.523   7.687 -0.1444 -0.0136 -0.9256
  565MOL0     H77904   5.647   5.654   7.568  0.6016  0.1775 -0.9913
  565MOL0     H77905   5.851   5.437   7.511  0.1337 -0.3755  0.7209
  565MOL0     H77906   5.820   5.596   7.433  0.5986  1.0935  1.0544
  565MOL0     H77907   5.882   5.718   7.644  4.1563  2.6817 -3.5486
  565MOL0     H77908   5.921   5.565   7.719  1.9470 -1.3272 -0.9282
  565MOL0     H77909   6.071   5.518   7.514 -0.4498 -0.1638 -1.6057
  565MOL0     H77910   6.061   5.696   7.477  3.1008  0.5145  1.3317
  565MOL0     H77911   6.149   5.574   7.755  0.8518 -1.0419 -1.4176
  565MOL0     H77912   6.149   5.746   7.703  0.6067 -0.0113  3.3584
  565MOL0     H77913   6.312   5.514   7.580  3.2311  0.8806  0.4564
  565MOL0     H77914   6.308   5.674   7.504 -2.4810  1.0633  0.6105
  565MOL0     H77915   6.382   5.597   7.794  1.4389  0.9443  1.2936
  565MOL0     H77916   6.367   5.760   7.741 -0.5113 -1.3452  2.1522
  565MOL0     H77917   6.547   5.745   7.576 -3.3879 -1.3657 -1.6637
  565MOL0     H77918   6.609   5.679   7.733 -0.7344  0.3743  1.4907
  565MOL0     H77919   6.719   5.595   7.451 -2.7397  2.8419  2.1191
  565MOL0     H77920   6.728   5.364   7.297  2.6177  0.1907 -0.6170
  565MOL0     H77921   6.746   5.217   7.385  0.1918  0.0107 -2.1359
  565MOL0     H77922   6.930   5.415   7.499 -0.9777  1.5405 -0.6283
  565MOL0     H77923   6.959   5.256   7.414 -0.6532 -0.4758 -0.4167
  565MOL0     H77924   6.908   5.518   7.281 -0.0505 -0.3233  0.0573
  565MOL0     H77925   7.073   5.456   7.302 -0.0347 -0.8483  0.9884
  565MOL0     H77926   7.012   5.266   7.163  0.3242  0.1654 -1.6939
  565MOL0     H77927   6.857   5.353   7.134  0.7835  1.8472 -2.9050
  565MOL0     H77928   7.221   5.312   7.194  2.3777 -2.9381 -1.7757
  565MOL0     H77929   7.569   5.410   7.201 -1.2438  2.4236 -1.1109
  565MOL0     H77930   7.512   5.261   7.137  1.9299 -0.8506  3.3749
  565MOL0     H77931   7.438   5.322   7.285 -1.1577  2.9987  0.2346
  565MOL0     H77932   7.628   5.868   7.052 -1.0541  0.2293  0.2063
  565MOL0     H77933   7.822   6.005   7.020 -2.1742  0.3856 -1.3427
  565MOL0     H77934   8.015   6.118   6.984  1.5155 -0.0920  0.3669
  565MOL0     H77935   7.990   6.104   7.162  0.8067 -0.6458  0.8255
  565MOL0     H77936   8.252   6.069   7.171 -0.1694 -0.2439  0.9991
  565MOL0     H77937   8.262   6.104   6.999  3.4794  1.0838  1.4485
  565MOL0     H77938   8.144   6.322   7.051 -3.4903 -2.2474  1.8685
  565MOL0     H77939   8.327   6.298   7.070  0.8677 -1.0254  2.2281
  565MOL0     H77940   8.304   6.261   7.314 -0.2109 -0.3540  0.2196
  565MOL0     H77941   8.127   6.269   7.299  0.9061 -2.7672  0.5806
  565MOL0     H77942   8.151   6.514   7.230  0.7572  3.2441  0.3677
  565MOL0     H77943   8.199   6.467   7.398  0.6636 -0.5764  0.4786
  565MOL0     H77944   8.401   6.517   7.167  3.7081 -1.5936  1.6216
  565MOL0     H77945   8.430   6.477   7.334  0.5666  2.0632  0.9765
  565MOL0     H77946   8.335   6.697   7.409 -1.0909  2.6551 -0.6655
  565MOL0     H77947   8.291   6.721   7.238 -2.4062 -2.0574  1.1114
  565MOL0     H77948   8.507   6.839   7.298  1.3963 -0.3464  2.1112
  565MOL0     H77949   8.547   6.707   7.187  1.2689  2.6828  0.0399
  565MOL0     H77950   8.069   5.701   7.163 -0.7101 -0.7151  0.7251
  565MOL0     H77951   7.866   5.539   7.181 -1.0621 -0.6168 -2.7363
  565MOL0     H77952   7.356   5.663   6.862 -2.6097  1.0200 -0.8465
  565MOL0     H77953   7.108   5.601   6.901 -0.3578 -1.2922 -0.5181
  565MOL0     H77954   5.446   5.623   7.708 -0.1007  1.1146 -1.5746
  565MOL0     H77955   5.212   5.601   7.761 -0.0554  2.6277 -0.8309
  565MOL0     H77956   4.803   5.391   7.583 -1.5510  1.1952 -0.3579
  565MOL0     H77957   4.583   5.332   7.603 -0.6775  0.2019  0.6770
  565MOL0     H77958   4.358   5.373   7.671  2.4000  0.3333  0.8034
  565MOL0     H77959   4.404   5.212   7.629  3.0164 -0.0787  1.3317
  565MOL0     H77960   4.154   5.250   7.650 -2.1133 -4.9570 -1.0511
  565MOL0     H77961   4.169   5.295   7.813  2.7089  1.8514 -0.8670
  565MOL0     H77962   4.263   5.038   7.846  1.0869 -0.7944 -1.8643
  565MOL0     H77963   4.098   5.051   7.813  0.2844  0.0886  0.7552
  565MOL0     H77964   4.328   4.954   7.643  1.1570  0.5771 -0.7997
  565MOL0     H77965   4.203   5.049   7.547 -1.4767  0.0039  1.5879
  565MOL0     H77966   3.986   4.709   7.585  1.8417 -1.3745 -1.1150
  565MOL0     H77967   4.606   5.265   8.014  0.4164  1.6416  1.1943
  565MOL0     H77968   4.925   5.439   8.056  1.0572 -1.3721 -2.1922
  565MOL0     H77969   4.778   5.398   8.140  1.3547  0.9065  1.2610
  565MOL0     H77970   4.886   5.264   8.096  1.2038  1.1141 -0.7052
  566MOL0     O77971   1.701   0.462  10.292  0.1732 -1.0566  0.3815
  566MOL0     C77972   1.642   0.559  10.239 -0.4798 -0.0106  0.0695
  566MOL0     O77973   1.706   0.655  10.157  0.1842 -0.0395  0.1874
  566MOL0     C77974   1.841   0.665  10.146 -0.1963 -0.3483  0.2408
  566MOL0     C77975   1.929   0.642  10.255  0.2071  0.6908  0.1974
  566MOL0     C77976   2.062   0.647  10.247  0.2827 -0.2446 -0.3303
  566MOL0     C77977   2.124   0.708  10.138 -0.7226 -0.0523 -0.5237
  566MOL0     O77978   2.259   0.740  10.130  0.2740  0.7618  0.1940
  566MOL0     C77979   2.305   0.817  10.240 -0.0613 -0.5868  0.2100
  566MOL0     C77980   2.419   0.901  10.192 -0.1533 -0.0827  0.8371
  566MOL0     C77981   2.350   1.018  10.102  0.3262 -0.3225  0.1715
  566MOL0     C77982   2.258   1.117  10.167 -0.3669 -0.2626  0.4937
  566MOL0     C77983   2.225   1.231  10.065  0.1683  0.2428 -0.0193
  566MOL0     C77984   2.138   1.336  10.128 -0.4420  0.2837 -0.3446
  566MOL0     C77985   2.048   1.416  10.024  0.6580 -0.7348  0.3458
  566MOL0     C77986   1.951   1.331   9.932 -0.5494 -1.1597  0.3069
  566MOL0     N77987   1.856   1.249  10.015  0.1685  0.5514  0.6004
  566MOL0     C77988   1.872   1.134  10.087 -0.0447 -0.3676  0.0029
  566MOL0     C77989   1.766   1.132  10.170 -0.1512  0.1603  0.5592
  566MOL0     C77990   1.754   1.033  10.276  0.1731  0.9469  0.8038
  566MOL0     C77991   1.884   1.040  10.360  0.1708 -0.1091 -0.2479
  566MOL0     C77992   1.881   0.955  10.488  1.1186  0.5319  0.2310
  566MOL0     C77993   2.019   0.894  10.525  0.1757  0.0066  0.1036
  566MOL0     O77994   2.129   0.986  10.527 -0.1925 -0.1983  0.2528
  566MOL0     C77995   2.258   0.944  10.574 -0.4111  0.5126  0.4356
  566MOL0     C77996   2.368   1.033  10.585 -0.9585  0.0649  0.3081
  566MOL0     C77997   2.489   0.992  10.639 -0.0551 -1.0562 -0.2000
  566MOL0     C77998   2.597   1.098  10.624  0.0383 -0.3287  0.8836
  566MOL0     C77999   2.499   0.870  10.706 -0.3946  0.5832  0.5743
  566MOL0     C78000   2.625   0.825  10.774  0.8094  0.6172 -0.6535
  566MOL0     O78001   2.604   0.704  10.839 -0.3921 -1.0147 -0.7752
  566MOL0     C78002   2.694   0.642  10.924 -0.4132  0.4951 -0.7438
  566MOL0     C78003   2.637   0.573  11.031 -0.2032 -0.6013 -0.5108
  566MOL0     C78004   2.724   0.507  11.121 -0.1070  0.0250 -0.2200
  566MOL0     C78005   2.866   0.516  11.119 -0.1988 -0.6585 -0.1320
  566MOL0     O78006   2.954   0.456  11.204 -0.4090 -0.6549  0.8060
  566MOL0     C78007   2.990   0.538  11.314  0.3164 -0.2293  0.5233
  566MOL0     C78008   3.071   0.445  11.406  0.1020  0.4080  0.2223
  566MOL0     C78009   3.203   0.389  11.346  0.7648  0.8551  1.0137
  566MOL0     C78010   3.306   0.491  11.310 -0.1255  0.2044 -0.8374
  566MOL0     C78011   3.438   0.434  11.243 -0.2148 -0.3776 -0.4347
  566MOL0     C78012   3.518   0.341  11.332  1.0422 -0.0851  0.2762
  566MOL0     C78013   3.660   0.290  11.267  1.1207  0.6811  0.1371
  566MOL0     C78014   3.721   0.189  11.367  0.5775  0.0976  0.3065
  566MOL0    Cl78015   3.835   0.073  11.297  0.0077  0.1973 -0.7776
  566MOL0     C78016   2.922   0.593  11.014  0.3252  0.4788 -0.3538
  566MOL0     C78017   2.836   0.652  10.916 -0.1743  0.3107  0.6631
  566MOL0     O78018   2.732   0.884  10.773  0.3792  0.5671  0.1408
  566MOL0     C78019   2.391   0.783  10.698 -0.0012 -0.3624  0.6903
  566MOL0     C78020   2.272   0.818  10.633 -1.3093  0.3283  0.0297
  566MOL0     N78021   1.680   1.244  10.155  0.0530  0.0238  0.0162
  566MOL0     N78022   1.747   1.316  10.061 -0.2156  0.0812 -0.6677
  566MOL0     C78023   2.036   0.743  10.031  0.1537  0.4325  0.1347
  566MOL0     C78024   1.896   0.715  10.027  0.0055 -0.1147 -0.6374
  566MOL0     C78025   1.507   0.612  10.283 -0.4188  0.4948 -0.8119
  566MOL0     C78026   1.469   0.739  10.247  0.2844 -0.7332 -0.4345
  566MOL0     C78027   1.342   0.787  10.291  0.2637 -0.5083  1.7842
  566MOL0     C78028   1.253   0.706  10.361 -0.4347  0.0122 -0.5409
  566MOL0     O78029   1.134   0.769  10.404 -0.3219  0.4927  0.3485
  566MOL0     C78030   1.026   0.685  10.461 -0.6400 -0.4946 -0.1872
  566MOL0     C78031   1.063   0.678  10.611 -0.1368 -0.3743 -0.4276
  566MOL0     C78032   1.058   0.825  10.664 -0.3381 -0.4534 -0.1431
  566MOL0     C78033   1.085   0.818  10.822 -1.2182  1.1245  0.1827
  566MOL0     C78034   1.067   0.951  10.882 -0.3785  0.4480 -0.6601
  566MOL0     C78035   1.042   1.062  10.927  0.3182 -0.1807 -0.1953
  566MOL0     C78036   1.290   0.578  10.393  0.2879  0.1453 -0.2608
  566MOL0     C78037   1.413   0.530  10.344 -0.1316  0.7194  0.1692
  566MOL0     C78038   1.439   0.385  10.353  0.2572 -0.1412 -0.3978
  566MOL0     H78039   1.882   0.616  10.350 -0.0003  1.1660  0.2248
  566MOL0     H78040   2.125   0.606  10.325  1.2878 -0.6607 -1.3338
  566MOL0     H78041   2.346   0.762  10.325  1.4750  2.2889  1.4780
  566MOL0     H78042   2.230   0.887  10.279  0.0187  0.9328 -2.1668
  566MOL0     H78043   2.479   0.941  10.274  0.1825  0.1702  0.4737
  566MOL0     H78044   2.488   0.849  10.124  0.9610  1.2748  0.8939
  566MOL0     H78045   2.438   1.068  10.060 -0.9020 -0.1967 -2.4885
  566MOL0     H78046   2.295   0.969  10.021 -0.1210 -2.1189  1.4890
  566MOL0     H78047   2.164   1.066  10.190 -1.9132  1.6830 -1.2095
  566MOL0     H78048   2.307   1.155  10.257  2.0666  2.3987 -1.7455
  566MOL0     H78049   2.174   1.198   9.975  0.8543  3.2005 -1.6449
  566MOL0     H78050   2.318   1.272  10.024 -0.2652  0.7331 -0.5379
  566MOL0     H78051   2.084   1.281  10.206 -1.3592 -0.9343 -1.7768
  566MOL0     H78052   2.199   1.409  10.183  0.9075 -1.0361 -0.0437
  566MOL0     H78053   2.104   1.483   9.959  0.2046 -2.1764 -1.6389
  566MOL0     H78054   1.983   1.484  10.081  0.1760 -0.1991 -0.8230
  566MOL0     H78055   1.895   1.402   9.869 -2.4593 -1.2327  1.8351
  566MOL0     H78056   2.017   1.270   9.870  1.6473 -0.9474  2.3268
  566MOL0     H78057   1.938   1.052  10.061  0.5595  0.5105 -1.3430
  566MOL0     H78058   1.731   0.930  10.250  3.5382  0.1965  0.3976
  566MOL0     H78059   1.664   1.045  10.337 -0.1299  1.2407  0.3019
  566MOL0     H78060   1.969   1.009  10.299 -0.6498 -1.0503 -0.9462
  566MOL0     H78061   1.907   1.144  10.388 -0.2527  0.8540 -3.1300
  566MOL0     H78062   1.848   1.022  10.568  0.3100 -1.8491  2.0174
  566MOL0     H78063   1.807   0.875  10.484 -1.4411  2.7382  0.6532
  566MOL0     H78064   2.003   0.840  10.618  0.8353 -1.3293 -0.5206
  566MOL0     H78065   2.041   0.813  10.455 -0.8447  1.6010 -2.1794
  566MOL0     H78066   2.363   1.131  10.539  1.1834  0.5717  1.0579
  566MOL0     H78067   2.577   1.162  10.711 -0.8931  0.0604  0.3977
  566MOL0     H78068   2.580   1.155  10.532 -0.6800 -0.4324  0.9470
  566MOL0     H78069   2.695   1.051  10.619  0.7130  0.8235  2.3302
  566MOL0     H78070   2.529   0.569  11.036 -0.3707  2.1934 -0.3399
  566MOL0     H78071   2.686   0.437  11.195 -2.0671  2.4296  1.2187
  566MOL0     H78072   3.048   0.625  11.282  1.2514 -1.7552 -2.3813
  566MOL0     H78073   2.897   0.570  11.361  0.0378  5.9380 -3.1050
  566MOL0     H78074   3.097   0.503  11.496  0.5878  0.9625 -0.2676
  566MOL0     H78075   3.002   0.367  11.440 -0.7920  0.1125 -2.1220
  566MOL0     H78076   3.186   0.331  11.255 -1.2579  0.7501  1.4120
  566MOL0     H78077   3.248   0.327  11.424 -1.3770  0.4280  1.9922
  566MOL0     H78078   3.333   0.539  11.404 -0.0390  1.0260 -1.2740
  566MOL0     H78079   3.264   0.571  11.248  0.2364  1.9457  1.0770
  566MOL0     H78080   3.413   0.389  11.146 -1.7599 -0.7991  0.1295
  566MOL0     H78081   3.509   0.513  11.216 -0.2080  0.6587  2.3636
  566MOL0     H78082   3.457   0.253  11.353  1.6988 -0.2621  1.5605
  566MOL0     H78083   3.543   0.381  11.431  1.7143 -0.5108  0.2878
  566MOL0     H78084   3.722   0.379  11.250 -0.6041  1.4027 -3.5408
  566MOL0     H78085   3.638   0.238  11.173  1.7702  0.1611  0.2632
  566MOL0     H78086   3.639   0.131  11.411 -1.0973  2.4480  0.4531
  566MOL0     H78087   3.770   0.254  11.440  0.9345  0.9415 -0.6624
  566MOL0     H78088   3.030   0.605  11.008  0.3650 -0.2099 -1.1648
  566MOL0     H78089   2.888   0.715  10.845 -0.6229 -1.4032 -1.2991
  566MOL0     H78090   2.397   0.685  10.745  1.6307 -2.2024 -2.9683
  566MOL0     H78091   2.187   0.751  10.643 -0.3202 -0.6928  2.3772
  566MOL0     H78092   2.084   0.787   9.944  1.4446 -0.9200  0.1209
  566MOL0     H78093   1.836   0.741   9.940 -1.1248  0.2556  0.2266
  566MOL0     H78094   1.535   0.801  10.187  1.6862 -1.9193 -0.2008
  566MOL0     H78095   1.325   0.893  10.272  0.6467 -0.5085  1.4034
  566MOL0     H78096   0.924   0.720  10.443 -0.2128  0.7207 -0.3656
  566MOL0     H78097   1.033   0.584  10.421  0.7867  0.3237 -2.1319
  566MOL0     H78098   1.162   0.636  10.630  1.0503  1.4388 -2.2488
  566MOL0     H78099   0.984   0.618  10.657 -1.5705 -0.1630 -2.5026
  566MOL0     H78100   1.118   0.901  10.613  0.4160 -0.6401  0.4504
  566MOL0     H78101   0.955   0.861  10.657 -1.4707 -3.5401 -1.1175
  566MOL0     H78102   1.189   0.793  10.841 -1.5957  0.4322  1.5024
  566MOL0     H78103   1.016   0.748  10.870  0.8132 -1.5858 -0.6533
  566MOL0     H78104   1.022   1.159  10.966  1.6798 -0.4369  1.2595
  566MOL0     H78105   1.225   0.513  10.451  1.7214  0.3604  1.7295
  566MOL0     H78106   1.347   0.336  10.387 -0.5872  1.6288 -0.0219
  566MOL0     H78107   1.475   0.345  10.258 -0.5504  2.7896 -2.0551
  566MOL0     H78108   1.507   0.367  10.436 -1.4679 -1.4167  0.8114
  567MOL0     O78109  10.602   8.913   7.666  0.4159 -0.1306 -0.1947
  567MOL0     C78110  10.582   8.789   7.643  0.5284 -0.7464 -0.8831
  567MOL0     O78111  10.683   8.691   7.660 -0.3607  0.3948 -0.2782
  567MOL0     C78112  10.805   8.732   7.716  0.1416  0.6297 -0.2300
  567MOL0     C78113  10.917   8.733   7.637  0.1226  0.6304  0.0072
  567MOL0     C78114  11.042   8.763   7.690 -0.4032  0.2288 -0.4313
  567MOL0     C78115  11.050   8.796   7.824 -0.0461  0.4282 -0.5327
  567MOL0     O78116  11.177   8.830   7.868  0.2888 -0.0775 -0.5611
  567MOL0     C78117  11.244   8.715   7.918 -0.1514 -0.1105  0.1917
  567MOL0     C78118  11.365   8.774   7.974  0.0050  0.2789 -0.6406
  567MOL0     C78119  11.333   8.853   8.106  0.6267 -0.0806  0.4150
  567MOL0     C78120  11.457   8.930   8.168 -0.3682 -0.5889  0.1830
  567MOL0     C78121  11.503   9.056   8.087  0.0631  0.4272  0.1460
  567MOL0     C78122  11.569   9.161   8.170 -0.5604 -0.5785 -0.1136
  567MOL0     C78123  11.706   9.121   8.234  0.5423 -0.0975  0.4786
  567MOL0     C78124  11.800   9.232   8.272  0.0670 -0.1463 -0.2800
  567MOL0     N78125  11.842   9.279   8.147 -0.8071 -0.1412 -0.2134
  567MOL0     C78126  11.935   9.223   8.066  0.2269  0.5054 -0.3098
  567MOL0     C78127  11.948   9.315   7.961 -0.5059 -0.6274 -0.1016
  567MOL0     C78128  12.042   9.293   7.840  0.4161 -0.2119 -0.4783
  567MOL0     C78129  12.186   9.320   7.884 -0.5193  0.3659  0.3557
  567MOL0     C78130  12.283   9.275   7.771 -0.4856 -0.6743 -0.2688
  567MOL0     C78131  12.432   9.285   7.811 -0.4042 -0.4217  0.4090
  567MOL0     O78132  12.467   9.428   7.812 -0.4871  0.5024  0.3076
  567MOL0     C78133  12.594   9.454   7.859 -0.5827 -0.1796  0.1683
  567MOL0     C78134  12.619   9.508   7.988  0.7372  1.0473  0.6055
  567MOL0     C78135  12.743   9.545   8.029 -1.4318  0.5400 -0.4388
  567MOL0     C78136  12.752   9.570   8.179  0.8815 -0.5269 -0.3713
  567MOL0     C78137  12.848   9.553   7.937 -0.4814  0.1035 -0.1971
  567MOL0     C78138  12.981   9.613   7.965  0.0521  0.5152  0.0016
  567MOL0     O78139  13.081   9.547   7.907 -0.4992 -0.4590  0.1498
  567MOL0     C78140  13.207   9.594   7.903 -0.7216 -0.1752 -0.0174
  567MOL0     C78141  13.246   9.728   7.877  0.5778  0.8844 -0.6432
  567MOL0     C78142  13.377   9.760   7.856 -0.6842  0.6124 -1.0606
  567MOL0     C78143  13.475   9.666   7.864 -0.3006  0.1516  0.0130
  567MOL0     O78144  13.603   9.701   7.831 -0.5293 -0.3181  0.3599
  567MOL0     C78145  13.707   9.638   7.899  0.5314  0.2235  0.1968
  567MOL0     C78146  13.804   9.748   7.946 -0.1867  0.7935 -0.6046
  567MOL0     C78147  13.757   9.810   8.073  0.5928 -0.2221 -0.7739
  567MOL0     C78148  13.861   9.914   8.114 -0.0981 -0.6032 -0.1581
  567MOL0     C78149  13.851  10.047   8.030  0.5833  0.8038 -0.3036
  567MOL0     C78150  13.984  10.110   8.010 -0.4406 -0.0541 -0.1197
  567MOL0     C78151  14.053  10.062   7.889  0.5765  0.2927 -0.3130
  567MOL0     C78152  14.160  10.150   7.842  0.0616 -0.0655 -0.5277
  567MOL0    Cl78153  14.271  10.201   7.971 -0.1143 -0.2106 -0.0042
  567MOL0     C78154  13.436   9.531   7.887 -0.0783 -0.2845 -1.2425
  567MOL0     C78155  13.305   9.494   7.911 -0.6955 -0.0832 -0.3611
  567MOL0     O78156  12.991   9.711   8.044  0.7087  0.4284  0.2606
  567MOL0     C78157  12.821   9.518   7.799  0.1509  0.9219  0.2465
  567MOL0     C78158  12.703   9.458   7.774 -0.0318  0.8546  0.1015
  567MOL0     N78159  11.874   9.430   7.993  0.0492  0.2875 -0.1637
  567MOL0     N78160  11.802   9.405   8.102  0.1983  0.9643 -0.5711
  567MOL0     C78161  10.939   8.802   7.907  0.2588 -0.3173  0.4389
  567MOL0     C78162  10.811   8.772   7.857  0.3202  0.3100 -0.0397
  567MOL0     C78163  10.450   8.733   7.596  0.1775 -0.0551  0.1702
  567MOL0     C78164  10.420   8.600   7.613 -0.5544  0.1053 -0.4055
  567MOL0     C78165  10.309   8.542   7.561 -0.2490 -0.3053 -0.6073
  567MOL0     C78166  10.218   8.609   7.485  0.5023  0.2369 -0.3108
  567MOL0     O78167  10.106   8.538   7.446 -0.7939  0.1091 -0.6133
  567MOL0     C78168   9.993   8.601   7.392 -0.3804  0.3008 -0.0586
  567MOL0     C78169   9.890   8.493   7.360  0.2807  0.7259  0.4253
  567MOL0     C78170   9.920   8.396   7.235  0.5614  0.3618 -0.1940
  567MOL0     C78171   9.787   8.325   7.181  1.1750 -0.0650  0.0832
  567MOL0     C78172   9.730   8.239   7.282  0.1122 -0.9479  0.1956
  567MOL0     C78173   9.698   8.176   7.376  0.5184 -0.2202  0.1160
  567MOL0     C78174  10.246   8.747   7.460 -0.0383  0.4036  0.3364
  567MOL0     C78175  10.354   8.811   7.523  0.4215 -0.0119 -0.1893
  567MOL0     C78176  10.375   8.958   7.497 -0.4884 -0.7142  0.0649
  567MOL0     H78177  10.909   8.712   7.531  1.3468  0.9305 -0.1630
  567MOL0     H78178  11.128   8.771   7.624 -0.1437 -2.9279 -0.6376
  567MOL0     H78179  11.262   8.637   7.844 -0.4760  0.1282 -0.1474
  567MOL0     H78180  11.187   8.665   7.998 -2.3727 -1.3336 -2.0190
  567MOL0     H78181  11.427   8.688   7.999 -0.1747 -0.4684 -2.5906
  567MOL0     H78182  11.422   8.833   7.903 -0.4750  0.8886 -0.5309
  567MOL0     H78183  11.257   8.929   8.086 -0.3179 -0.7276  1.4155
  567MOL0     H78184  11.287   8.781   8.175 -1.3377  0.6115 -0.0999
  567MOL0     H78185  11.424   8.966   8.265 -4.1461 -3.7509  0.3119
  567MOL0     H78186  11.539   8.861   8.185 -1.6771 -1.6999  2.4505
  567MOL0     H78187  11.420   9.095   8.027  1.3576  1.0521 -1.3171
  567MOL0     H78188  11.574   9.012   8.016 -0.3467 -0.7496  0.4460
  567MOL0     H78189  11.570   9.251   8.109 -0.5669 -0.6261 -0.1832
  567MOL0     H78190  11.497   9.188   8.248  1.7424 -1.9881  2.6896
  567MOL0     H78191  11.757   9.053   8.165 -0.2495 -0.6724  0.4459
  567MOL0     H78192  11.682   9.080   8.332 -1.9168 -0.3635 -0.1693
  567MOL0     H78193  11.758   9.310   8.337 -2.7694 -0.8516 -1.1060
  567MOL0     H78194  11.875   9.178   8.331 -3.1688 -1.6463  2.9285
  567MOL0     H78195  11.990   9.130   8.072 -1.4131 -0.4445  0.5470
  567MOL0     H78196  12.007   9.364   7.765  1.2635 -0.5949 -1.2453
  567MOL0     H78197  12.015   9.196   7.796  1.3823 -1.4336  1.4697
  567MOL0     H78198  12.194   9.428   7.901  0.0890  0.8572 -2.4847
  567MOL0     H78199  12.198   9.261   7.975 -1.4596 -1.0355 -0.3931
  567MOL0     H78200  12.251   9.176   7.738 -1.2865 -0.8593  0.9977
  567MOL0     H78201  12.266   9.342   7.686 -2.5942 -1.1167 -0.2600
  567MOL0     H78202  12.451   9.238   7.909  0.5476  0.8776  0.8755
  567MOL0     H78203  12.489   9.227   7.737 -1.9747 -0.1061 -1.0889
  567MOL0     H78204  12.537   9.522   8.057 -0.5360  1.3034 -0.8995
  567MOL0     H78205  12.689   9.490   8.217  1.9220 -1.6823 -1.0209
  567MOL0     H78206  12.707   9.666   8.207 -1.2449 -1.5603 -0.0715
  567MOL0     H78207  12.843   9.537   8.230 -0.6461 -1.5771  1.7528
  567MOL0     H78208  13.173   9.804   7.855 -2.5591 -1.7026  0.0504
  567MOL0     H78209  13.382   9.867   7.839 -0.0350  0.5898 -1.0183
  567MOL0     H78210  13.668   9.582   7.985 -2.1072 -0.2019 -1.1793
  567MOL0     H78211  13.768   9.578   7.830 -0.7579  2.5770 -3.2366
  567MOL0     H78212  13.903   9.709   7.968  0.7957  1.9856 -2.6309
  567MOL0     H78213  13.821   9.825   7.870  1.2397  1.5144  0.4048
  567MOL0     H78214  13.742   9.742   8.157  0.7840  1.5870  0.7811
  567MOL0     H78215  13.662   9.860   8.054  0.0252 -1.9630 -3.1087
  567MOL0     H78216  13.961   9.870   8.116  0.1356 -0.1630 -1.3228
  567MOL0     H78217  13.831   9.942   8.215 -1.6434  0.7601 -0.9519
  567MOL0     H78218  13.799  10.040   7.934  1.5979  1.7991 -0.9532
  567MOL0     H78219  13.788  10.118   8.083  2.1012  0.5249  2.0158
  567MOL0     H78220  14.046  10.095   8.099 -0.3754  1.4015  0.1060
  567MOL0     H78221  13.965  10.218   8.006 -1.4475 -0.2505 -1.2597
  567MOL0     H78222  13.976  10.044   7.814  0.3935 -2.4589  0.4127
  567MOL0     H78223  14.106   9.969   7.910  1.5116  0.4719 -1.7163
  567MOL0     H78224  14.116  10.247   7.817 -3.0591 -0.9702  0.9351
  567MOL0     H78225  14.212  10.113   7.752  0.6344 -0.1251 -0.1754
  567MOL0     H78226  13.510   9.452   7.881  0.4299  0.0099  0.6290
  567MOL0     H78227  13.287   9.389   7.932 -1.6374 -0.1499 -1.4044
  567MOL0     H78228  12.899   9.530   7.725  3.5164 -2.4264  2.7827
  567MOL0     H78229  12.692   9.408   7.678 -1.6121 -1.2783  1.3090
  567MOL0     H78230  10.943   8.834   8.011  3.1814 -1.8024  0.8869
  567MOL0     H78231  10.722   8.755   7.916 -0.7820  1.9522 -1.1503
  567MOL0     H78232  10.488   8.530   7.662 -0.9670 -0.7766 -1.0563
  567MOL0     H78233  10.301   8.435   7.581  1.4578 -0.1957  0.9214
  567MOL0     H78234   9.959   8.678   7.462  0.5590 -0.8667  1.7869
  567MOL0     H78235  10.026   8.639   7.295  1.6404  0.1595  0.5226
  567MOL0     H78236   9.802   8.553   7.337  0.4142  2.0526  3.0223
  567MOL0     H78237   9.861   8.442   7.452 -3.0172  0.2988 -0.7062
  567MOL0     H78238   9.968   8.461   7.161 -3.9554  3.3901 -0.8258
  567MOL0     H78239   9.985   8.314   7.267 -0.6504 -0.1952  0.9358
  567MOL0     H78240   9.802   8.284   7.081  0.7328  0.1951 -0.0925
  567MOL0     H78241   9.717   8.406   7.157  1.0853 -1.0611 -3.6760
  567MOL0     H78242   9.668   8.108   7.452 -0.3918 -0.3826 -0.3803
  567MOL0     H78243  10.184   8.792   7.383  2.7095  0.8236 -1.7945
  567MOL0     H78244  10.306   9.000   7.423  0.0916  1.3002  0.6251
  567MOL0     H78245  10.360   9.004   7.595  1.3078  0.9859 -0.4044
  567MOL0     H78246  10.474   8.976   7.455 -0.9178 -1.4118 -1.3269
  568MOL0     O78247   2.363   8.854   7.735 -0.3588  0.5170 -0.0218
  568MOL0     C78248   2.300   8.904   7.828 -0.0149  0.1101  0.0030
  568MOL0     O78249   2.307   9.029   7.870 -0.4000 -0.0373 -1.1244
  568MOL0     C78250   2.400   9.114   7.804  1.1276  0.3240  0.1545
  568MOL0     C78251   2.338   9.219   7.729 -0.8110  0.9760 -0.1647
  568MOL0     C78252   2.423   9.316   7.662  0.1688 -0.5768  0.6624
  568MOL0     C78253   2.549   9.324   7.678 -0.1689  0.2474  1.1950
  568MOL0     O78254   2.610   9.427   7.615 -0.2599  0.0069  0.1305
  568MOL0     C78255   2.734   9.470   7.659 -0.9421  0.0684 -0.1309
  568MOL0     C78256   2.721   9.615   7.689 -0.0623 -0.5960  0.4105
  568MOL0     C78257   2.860   9.676   7.734  0.4661  1.3522 -0.3170
  568MOL0     C78258   2.865   9.817   7.775 -0.3405 -0.8978 -0.2212
  568MOL0     C78259   2.996   9.869   7.828  0.0162 -0.2926  0.3798
  568MOL0     C78260   3.094   9.907   7.727  1.0208 -0.4850  0.1197
  568MOL0     C78261   3.225   9.982   7.781  0.0149 -0.6681  0.4912
  568MOL0     C78262   3.326  10.015   7.669  0.8356 -0.0025 -0.1269
  568MOL0     N78263   3.413   9.903   7.626 -0.9541  0.0666 -0.6294
  568MOL0     C78264   3.542   9.918   7.584  1.0623  0.2372  0.1464
  568MOL0     C78265   3.583   9.795   7.555  0.1630  0.1577  0.1287
  568MOL0     C78266   3.724   9.758   7.502 -0.2583 -0.0445  0.1120
  568MOL0     C78267   3.838   9.817   7.580 -0.2650  0.3406 -0.2476
  568MOL0     C78268   3.862   9.754   7.721  0.2139 -0.3917 -0.1640
  568MOL0     C78269   4.000   9.776   7.777  0.0828  0.0381 -0.8322
  568MOL0     O78270   4.077   9.695   7.700  0.0270  0.0100 -0.1342
  568MOL0     C78271   4.197   9.722   7.645  0.0501  0.0746  0.4298
  568MOL0     C78272   4.285   9.802   7.714  0.2505 -0.1529  0.0854
  568MOL0     C78273   4.417   9.832   7.665 -0.0002  0.5109  0.2114
  568MOL0     C78274   4.502   9.909   7.752 -0.3221 -0.0316 -0.6214
  568MOL0     C78275   4.460   9.762   7.550  0.9698 -0.0658  0.1159
  568MOL0     C78276   4.595   9.781   7.497 -0.1113  0.2778  0.0398
  568MOL0     O78277   4.635   9.694   7.398 -0.3823 -0.9028 -1.5599
  568MOL0     C78278   4.765   9.707   7.346 -0.0788  0.0957  0.6760
  568MOL0     C78279   4.769   9.635   7.227 -0.8550  0.1728 -0.2670
  568MOL0     C78280   4.890   9.632   7.152  0.2119  0.0671  0.3905
  568MOL0     C78281   5.002   9.715   7.190  0.7776  0.2533  0.3686
  568MOL0     O78282   5.109   9.722   7.105 -0.5798  0.0887  0.8363
  568MOL0     C78283   5.232   9.697   7.166  0.0146  0.2609 -0.7666
  568MOL0     C78284   5.342   9.640   7.074  0.0763 -0.3854  0.0553
  568MOL0     C78285   5.426   9.745   6.992  0.2419 -1.2816 -0.2638
  568MOL0     C78286   5.531   9.678   6.901  0.6086 -0.3952  0.1765
  568MOL0     C78287   5.632   9.775   6.829  0.5616  0.2492  0.4189
  568MOL0     C78288   5.632   9.743   6.679  0.1758  0.0127 -0.0814
  568MOL0     C78289   5.714   9.835   6.602  0.1626  0.4237  0.7165
  568MOL0     C78290   5.874   9.803   6.603  0.5168  0.2162  0.7415
  568MOL0    Cl78291   5.965   9.943   6.539 -0.3781  0.3657  0.2181
  568MOL0     C78292   5.000   9.780   7.312  1.9199  0.1676 -0.3850
  568MOL0     C78293   4.876   9.778   7.389  0.1030  0.4595 -0.0983
  568MOL0     O78294   4.654   9.886   7.523  0.4213 -0.0317  0.4391
  568MOL0     C78295   4.368   9.670   7.490  0.6154 -0.1095  0.8413
  568MOL0     C78296   4.237   9.658   7.534 -0.5812  0.1195 -0.5097
  568MOL0     N78297   3.480   9.706   7.583 -0.2112  0.1274  0.4934
  568MOL0     N78298   3.378   9.775   7.611  0.1753  0.3886 -0.1575
  568MOL0     C78299   2.619   9.210   7.739  0.2657 -0.4723 -0.4282
  568MOL0     C78300   2.545   9.103   7.803  0.3339 -0.0042 -0.4329
  568MOL0     C78301   2.215   8.813   7.916  0.3139  0.3968 -0.0952
  568MOL0     C78302   2.288   8.728   7.996  0.7986  2.0805 -1.0901
  568MOL0     C78303   2.219   8.651   8.082 -0.5625  0.7689  0.5597
  568MOL0     C78304   2.078   8.643   8.077 -0.4212 -0.4507 -0.1429
  568MOL0     O78305   2.018   8.558   8.165  0.9661 -0.3830  0.8951
  568MOL0     C78306   1.875   8.572   8.186  0.8499  0.4010 -0.1275
  568MOL0     C78307   1.836   8.473   8.304  0.1165 -0.0547 -0.0180
  568MOL0     C78308   1.691   8.494   8.334  0.6494 -0.0868 -0.6288
  568MOL0     C78309   1.649   8.441   8.466 -0.4295  0.1403 -0.5855
  568MOL0     C78310   1.722   8.489   8.583  0.4615 -0.5010 -0.5712
  568MOL0     C78311   1.788   8.565   8.649 -0.9859  0.7565  0.3580
  568MOL0     C78312   2.008   8.730   7.997 -0.9724 -0.2147  0.4180
  568MOL0     C78313   2.077   8.816   7.911 -0.1301 -0.1593  0.3328
  568MOL0     C78314   2.005   8.914   7.814  0.0443  0.1126  0.0190
  568MOL0     H78315   2.231   9.219   7.713 -0.9450  0.2060  0.6816
  568MOL0     H78316   2.381   9.403   7.614 -1.4957 -1.2487  0.8543
  568MOL0     H78317   2.789   9.436   7.570 -0.6371  0.8716 -0.2527
  568MOL0     H78318   2.767   9.422   7.752 -2.7422  0.4317  0.7391
  568MOL0     H78319   2.687   9.645   7.589  0.8096 -0.4434  0.1439
  568MOL0     H78320   2.649   9.638   7.767 -0.3595  0.6403 -0.2013
  568MOL0     H78321   2.888   9.618   7.822 -0.0829 -0.3219 -1.2016
  568MOL0     H78322   2.935   9.644   7.662 -0.6506 -5.0817  0.7191
  568MOL0     H78323   2.844   9.877   7.686  3.2918  2.3377  0.8504
  568MOL0     H78324   2.785   9.834   7.848  1.7168  3.2973  1.4143
  568MOL0     H78325   3.036   9.789   7.891 -0.9420 -0.6712  0.5285
  568MOL0     H78326   2.975   9.963   7.880 -0.1731  0.4831 -1.0691
  568MOL0     H78327   3.125   9.820   7.667  2.9706 -0.8416  1.5390
  568MOL0     H78328   3.041   9.979   7.664  0.1049  1.4057  2.8745
  568MOL0     H78329   3.273   9.915   7.853 -0.5979 -1.9070 -0.2073
  568MOL0     H78330   3.194  10.077   7.825  5.4658  1.6774  0.0399
  568MOL0     H78331   3.269  10.054   7.584 -0.1838  0.3013  0.6763
  568MOL0     H78332   3.384  10.100   7.706 -1.8967  1.3418  1.3781
  568MOL0     H78333   3.589  10.015   7.570 -2.4793  1.9713 -1.2219
  568MOL0     H78334   3.716   9.796   7.400 -4.5434 -1.6776 -0.3700
  568MOL0     H78335   3.741   9.650   7.498  1.7587  0.2487 -0.4019
  568MOL0     H78336   3.928   9.793   7.523 -0.8375 -4.3614  0.4107
  568MOL0     H78337   3.820   9.924   7.591  0.5510  0.5564 -0.9319
  568MOL0     H78338   3.779   9.793   7.780 -0.8925  0.5562 -2.2634
  568MOL0     H78339   3.839   9.648   7.706  2.0802 -0.7383 -0.9083
  568MOL0     H78340   4.029   9.881   7.772  0.4318 -0.0894 -1.6720
  568MOL0     H78341   4.005   9.745   7.882  2.4903  0.8288 -0.6594
  568MOL0     H78342   4.251   9.852   7.805  1.0114 -2.1884  1.5643
  568MOL0     H78343   4.609   9.888   7.756 -0.4641 -1.1902 -2.0969
  568MOL0     H78344   4.471   9.892   7.856 -0.5515  0.5838 -0.5886
  568MOL0     H78345   4.476  10.014   7.736  1.1642  0.8822  2.1907
  568MOL0     H78346   4.685   9.575   7.193 -2.7237  3.7268 -2.6640
  568MOL0     H78347   4.892   9.574   7.060  2.1305 -3.0812  2.2299
  568MOL0     H78348   5.274   9.785   7.216 -0.8409  0.3011 -0.1040
  568MOL0     H78349   5.217   9.621   7.244  1.0505  2.0737  1.3347
  568MOL0     H78350   5.411   9.583   7.136 -0.2287  1.2702  2.0247
  568MOL0     H78351   5.286   9.579   7.003 -1.8391  2.4026 -1.0100
  568MOL0     H78352   5.490   9.794   7.066 -0.4522  0.1288 -0.5785
  568MOL0     H78353   5.363   9.818   6.942  0.9858  0.4192  1.1775
  568MOL0     H78354   5.470   9.628   6.824 -0.4890  1.2947 -0.1010
  568MOL0     H78355   5.585   9.610   6.968  0.5076 -0.4273  0.2270
  568MOL0     H78356   5.602   9.880   6.832 -0.2548  0.0985 -1.2055
  568MOL0     H78357   5.725   9.759   6.884 -1.4393 -0.1084  4.0187
  568MOL0     H78358   5.529   9.748   6.643 -1.2979  0.0787  3.7057
  568MOL0     H78359   5.669   9.642   6.662 -0.0154  0.1616 -1.5156
  568MOL0     H78360   5.669   9.934   6.617 -1.2896  0.2895 -2.0348
  568MOL0     H78361   5.706   9.805   6.497 -0.3705  0.4945  0.7324
  568MOL0     H78362   5.886   9.709   6.547 -0.6230  1.5415 -1.8967
  568MOL0     H78363   5.910   9.792   6.706 -0.9970  1.1226  1.4048
  568MOL0     H78364   5.091   9.829   7.346  2.6218 -0.3881 -1.3779
  568MOL0     H78365   4.879   9.823   7.488  0.8024 -0.1347  0.1611
  568MOL0     H78366   4.390   9.606   7.406 -5.6944 -1.1967 -0.4835
  568MOL0     H78367   4.164   9.586   7.496 -1.4761  1.0636 -0.6113
  568MOL0     H78368   2.727   9.206   7.747  0.1907  0.1166  1.2737
  568MOL0     H78369   2.589   9.018   7.855 -1.0720 -1.2519 -1.2081
  568MOL0     H78370   2.396   8.730   8.014  0.4346 -0.9017  3.0198
  568MOL0     H78371   2.285   8.593   8.146 -0.4441  1.2938  0.9141
  568MOL0     H78372   1.835   8.673   8.198 -1.4905 -0.5217  0.3385
  568MOL0     H78373   1.823   8.535   8.097 -0.3793 -3.3143  1.9461
  568MOL0     H78374   1.901   8.495   8.388  1.4179 -2.1954 -0.3766
  568MOL0     H78375   1.857   8.371   8.270  0.7689 -0.5910  1.9226
  568MOL0     H78376   1.664   8.599   8.341  2.5356  0.3238  1.3885
  568MOL0     H78377   1.641   8.436   8.256  1.0162 -0.8947 -0.2754
  568MOL0     H78378   1.678   8.336   8.468  1.1862  0.5612 -0.4263
  568MOL0     H78379   1.542   8.444   8.486 -0.5296 -2.6193 -0.3398
  568MOL0     H78380   1.864   8.610   8.710 -0.1274  0.3248 -0.3721
  568MOL0     H78381   1.900   8.734   7.991 -1.0826  0.0209  2.1592
  568MOL0     H78382   2.068   8.946   7.731 -2.2601 -0.9173 -2.2568
  568MOL0     H78383   1.929   8.870   7.749 -0.2329  1.9498 -0.9447
  568MOL0     H78384   1.958   9.005   7.851 -0.4953  1.1323 -2.9521
  569MOL0     O78385   6.367   2.566   8.151  0.1781 -0.4272  0.2382
  569MOL0     C78386   6.290   2.654   8.105 -0.0663 -0.4506 -0.5072
  569MOL0     O78387   6.322   2.760   8.017 -0.4010 -0.0343 -0.1080
  569MOL0     C78388   6.453   2.787   7.969 -0.8439  0.0539  0.1663
  569MOL0     C78389   6.455   2.885   7.869  0.3362  0.4177 -0.0611
  569MOL0     C78390   6.569   2.922   7.808 -0.2312 -0.1933  0.2657
  569MOL0     C78391   6.694   2.868   7.846 -0.7511 -0.6019  0.3109
  569MOL0     O78392   6.807   2.908   7.776 -0.8314  0.0588 -0.3692
  569MOL0     C78393   6.935   2.837   7.796  0.8862 -0.0929  0.4953
  569MOL0     C78394   7.053   2.905   7.725 -0.8804 -1.5425  0.2480
  569MOL0     C78395   7.187   2.913   7.792 -0.4166 -0.8057 -0.0745
  569MOL0     C78396   7.195   3.028   7.891 -0.2536  0.7064 -0.1460
  569MOL0     C78397   7.304   3.011   8.006  0.3537 -0.1012 -0.2309
  569MOL0     C78398   7.263   3.103   8.124  0.2916  0.1221 -0.8034
  569MOL0     C78399   7.375   3.117   8.225 -0.1449 -0.4502  0.5887
  569MOL0     C78400   7.382   3.255   8.285  0.1733  0.4860 -0.6940
  569MOL0     N78401   7.457   3.250   8.409 -0.2238 -0.3155  0.5821
  569MOL0     C78402   7.452   3.347   8.508  0.8910  0.4079  0.6496
  569MOL0     C78403   7.569   3.331   8.583  0.7548 -0.4011  0.3078
  569MOL0     C78404   7.614   3.411   8.701 -0.0300  0.0979  0.2689
  569MOL0     C78405   7.656   3.552   8.665 -0.4741  0.1532 -0.5149
  569MOL0     C78406   7.671   3.638   8.792  0.1404 -0.1950  0.3080
  569MOL0     C78407   7.704   3.785   8.760  0.0990 -0.1608 -0.0170
  569MOL0     O78408   7.842   3.795   8.718  0.1118  0.7025  0.7382
  569MOL0     C78409   7.861   3.863   8.600  0.4601 -0.3427  0.3921
  569MOL0     C78410   7.771   3.958   8.543  0.4046  0.6362 -0.3069
  569MOL0     C78411   7.800   4.031   8.427 -0.5349  0.7311  0.3936
  569MOL0     C78412   7.695   4.133   8.378  0.7944 -0.0086  0.0618
  569MOL0     C78413   7.927   4.016   8.373  0.9926 -0.3943 -0.3027
  569MOL0     C78414   7.962   4.099   8.248 -0.0927  0.2719 -0.8504
  569MOL0     O78415   8.086   4.159   8.241 -0.3895  0.1614  0.5013
  569MOL0     C78416   8.123   4.266   8.164  1.2086 -0.6868 -0.0407
  569MOL0     C78417   8.261   4.288   8.158 -0.1286  0.4456  0.1863
  569MOL0     C78418   8.316   4.382   8.068 -0.0348  0.0932 -0.4146
  569MOL0     C78419   8.226   4.470   8.008  0.1432 -0.6003 -0.1157
  569MOL0     O78420   8.293   4.570   7.946  0.0996  0.3244  0.6742
  569MOL0     C78421   8.213   4.681   7.896 -0.2663  0.2131 -0.5693
  569MOL0     C78422   8.315   4.774   7.824 -0.5388 -0.0401  0.3955
  569MOL0     C78423   8.438   4.714   7.747 -0.4328  1.4799  0.2470
  569MOL0     C78424   8.549   4.818   7.727  0.3587 -0.1308  0.4734
  569MOL0     C78425   8.681   4.750   7.703 -0.8080  0.9996 -0.6505
  569MOL0     C78426   8.789   4.843   7.756  0.0719 -0.1046 -0.4556
  569MOL0     C78427   8.938   4.776   7.724  0.6561 -1.1323 -0.3849
  569MOL0     C78428   9.028   4.889   7.656 -0.3329  0.4039 -0.5215
  569MOL0    Cl78429   9.184   4.810   7.640  0.0255  0.1953 -0.3085
  569MOL0     C78430   8.088   4.465   8.026 -0.8612  0.0505  0.2075
  569MOL0     C78431   8.035   4.361   8.104 -0.0470  0.9271  0.1388
  569MOL0     O78432   7.885   4.098   8.155 -0.1196  0.0662  0.2986
  569MOL0     C78433   8.016   3.936   8.431  0.8383  0.3694  0.7320
  569MOL0     C78434   7.983   3.860   8.542 -0.4922 -0.3579 -0.2434
  569MOL0     N78435   7.637   3.220   8.534 -0.5178  0.7022  0.6575
  569MOL0     N78436   7.563   3.172   8.433  0.5162  0.4644 -0.4182
  569MOL0     C78437   6.697   2.773   7.950  0.5055 -0.5560 -0.2803
  569MOL0     C78438   6.578   2.727   8.008  0.3520  0.3199 -0.1763
  569MOL0     C78439   6.144   2.639   8.135  0.2284  1.6200 -0.2800
  569MOL0     C78440   6.054   2.708   8.061  0.5366 -0.1586  0.2264
  569MOL0     C78441   5.913   2.704   8.086 -0.3790 -0.4976 -0.0807
  569MOL0     C78442   5.866   2.628   8.194 -0.3368  0.9465 -0.6328
  569MOL0     O78443   5.735   2.626   8.231  0.8305  0.6386  0.4016
  569MOL0     C78444   5.630   2.684   8.153  0.5149  0.5563 -0.5122
  569MOL0     C78445   5.497   2.709   8.237 -0.0235  0.2710  0.7933
  569MOL0     C78446   5.525   2.790   8.366 -0.2810  0.2327  0.0601
  569MOL0     C78447   5.407   2.876   8.403 -0.2764  0.9067  0.3142
  569MOL0     C78448   5.430   2.954   8.524 -0.5255 -0.0882 -0.0414
  569MOL0     C78449   5.422   3.043   8.611 -0.9245  0.0456 -0.6111
  569MOL0     C78450   5.959   2.555   8.270 -0.3706  0.3356 -0.2052
  569MOL0     C78451   6.099   2.561   8.240  0.7312 -0.5726  0.0593
  569MOL0     C78452   6.180   2.468   8.325 -0.2902  0.2739  0.4822
  569MOL0     H78453   6.361   2.933   7.844 -1.1332 -2.0752  0.3333
  569MOL0     H78454   6.570   2.992   7.725 -0.8355 -1.7600 -1.1204
  569MOL0     H78455   6.930   2.734   7.761  1.8628 -0.1068  0.3639
  569MOL0     H78456   6.956   2.831   7.903 -2.3280  0.4260  1.2511
  569MOL0     H78457   7.054   2.843   7.635 -1.4804  0.8922 -1.5340
  569MOL0     H78458   7.023   3.007   7.699  0.7333 -0.9091  0.7563
  569MOL0     H78459   7.207   2.829   7.858  0.7607 -0.4664  0.0205
  569MOL0     H78460   7.271   2.906   7.722 -0.6542 -1.1817 -0.3280
  569MOL0     H78461   7.214   3.124   7.841  0.9736  1.7405  2.1428
  569MOL0     H78462   7.094   3.041   7.930 -1.4888  2.0898 -3.3843
  569MOL0     H78463   7.407   3.028   7.973  0.4164 -0.6428 -0.3234
  569MOL0     H78464   7.297   2.907   8.037  1.2852  0.0778  0.6279
  569MOL0     H78465   7.227   3.201   8.093 -0.1733  0.5493  0.9855
  569MOL0     H78466   7.186   3.048   8.178 -0.2122  0.8266 -0.7898
  569MOL0     H78467   7.471   3.095   8.177  2.1896  1.6188  3.8544
  569MOL0     H78468   7.351   3.046   8.305  1.3942 -1.1127  0.4995
  569MOL0     H78469   7.426   3.334   8.224  1.5672  2.5436  2.6960
  569MOL0     H78470   7.279   3.286   8.303  0.4548  0.6366  0.8222
  569MOL0     H78471   7.376   3.422   8.525  1.9570  1.4635  0.9290
  569MOL0     H78472   7.703   3.354   8.729  0.1578 -1.0133 -2.3206
  569MOL0     H78473   7.544   3.404   8.785  1.5015 -4.8256  1.4411
  569MOL0     H78474   7.749   3.548   8.609 -2.5481  0.2836 -4.2645
  569MOL0     H78475   7.579   3.600   8.605 -1.7875  2.4049  2.6811
  569MOL0     H78476   7.586   3.635   8.861 -0.5869  0.1548 -0.5513
  569MOL0     H78477   7.748   3.584   8.847 -2.0978 -2.9097  1.0445
  569MOL0     H78478   7.631   3.817   8.686 -1.1002 -0.2223  1.0981
  569MOL0     H78479   7.685   3.834   8.856 -2.2292 -0.4662 -0.2558
  569MOL0     H78480   7.669   3.962   8.581  1.0069 -1.5882  1.8178
  569MOL0     H78481   7.636   4.090   8.296  0.6459  2.9444 -1.5266
  569MOL0     H78482   7.743   4.224   8.340  0.8706  0.7120  1.7976
  569MOL0     H78483   7.628   4.168   8.458 -0.3364 -2.4320  0.2710
  569MOL0     H78484   8.330   4.225   8.212 -1.4308 -0.2027  1.1613
  569MOL0     H78485   8.423   4.388   8.057 -0.0210  0.1213 -0.2715
  569MOL0     H78486   8.132   4.645   7.832 -0.8374  1.5690 -0.6455
  569MOL0     H78487   8.172   4.733   7.983 -1.4368  0.2663 -1.1266
  569MOL0     H78488   8.257   4.826   7.747 -0.0950 -1.1963 -0.7610
  569MOL0     H78489   8.356   4.849   7.892 -1.8160  2.0420 -1.0170
  569MOL0     H78490   8.411   4.673   7.649  0.3857  1.8508 -0.1459
  569MOL0     H78491   8.473   4.622   7.792 -2.1884  0.0785 -1.0741
  569MOL0     H78492   8.555   4.885   7.813  0.4304 -0.0276  0.3889
  569MOL0     H78493   8.521   4.886   7.646 -0.6999  0.7899  1.5702
  569MOL0     H78494   8.696   4.660   7.763  1.3524  2.8096  1.7131
  569MOL0     H78495   8.679   4.734   7.594 -0.5699  0.0360 -0.5225
  569MOL0     H78496   8.785   4.862   7.864 -0.1578  2.0827 -0.8159
  569MOL0     H78497   8.777   4.940   7.707 -1.9372  0.7405  1.5255
  569MOL0     H78498   8.917   4.695   7.653 -2.0940 -0.8549 -0.0054
  569MOL0     H78499   8.984   4.738   7.815  1.4236  2.0594  0.6876
  569MOL0     H78500   9.032   4.972   7.728  0.6283 -0.2243  0.1750
  569MOL0     H78501   8.994   4.913   7.555  0.0167 -0.5940 -0.8906
  569MOL0     H78502   8.019   4.531   7.975  2.4047  2.1479 -1.8883
  569MOL0     H78503   7.928   4.341   8.102 -0.2781  2.1581 -1.6658
  569MOL0     H78504   8.114   3.928   8.383  0.5182  2.1614 -0.3298
  569MOL0     H78505   8.049   3.783   8.581 -1.7968 -1.4351 -0.0973
  569MOL0     H78506   6.791   2.734   7.987  1.3138  1.7656  0.3133
  569MOL0     H78507   6.579   2.656   8.090  0.3253  1.0694  0.4848
  569MOL0     H78508   6.082   2.765   7.972 -0.5005 -1.2922 -0.8698
  569MOL0     H78509   5.855   2.773   8.025  1.3226  0.9851 -0.0904
  569MOL0     H78510   5.665   2.785   8.128  1.3191  0.9579  1.9035
  569MOL0     H78511   5.625   2.629   8.059  2.0096  1.2188 -1.0221
  569MOL0     H78512   5.440   2.622   8.269 -1.7384  1.1342  0.1972
  569MOL0     H78513   5.433   2.767   8.170  1.7722 -0.8707 -2.1143
  569MOL0     H78514   5.554   2.717   8.442  1.4822 -0.3097 -1.0745
  569MOL0     H78515   5.611   2.855   8.348  0.0619 -0.0566  0.6475
  569MOL0     H78516   5.321   2.811   8.422  0.2126 -0.9120 -2.9609
  569MOL0     H78517   5.387   2.941   8.318 -0.4497  0.9638  0.3992
  569MOL0     H78518   5.425   3.116   8.690 -1.0102 -0.1904 -0.3905
  569MOL0     H78519   5.929   2.480   8.342  3.7872 -1.3484  0.0713
  569MOL0     H78520   6.181   2.367   8.283  2.7092  0.0464  0.8946
  569MOL0     H78521   6.279   2.499   8.361  0.7257 -0.5557 -1.4453
  569MOL0     H78522   6.126   2.462   8.420  1.0772 -1.4554  1.1929
  570MOL0     O78523   3.825   8.654   0.805 -0.5572 -0.3549 -0.4291
  570MOL0     C78524   3.813   8.603   0.918  0.7142  0.3505 -0.3257
  570MOL0     O78525   3.868   8.645   1.037  0.5410 -0.3169  0.3706
  570MOL0     C78526   3.941   8.758   1.034 -0.5355  0.1385  0.5035
  570MOL0     C78527   3.903   8.888   1.057  0.3485 -1.4175 -0.4527
  570MOL0     C78528   4.003   8.989   1.049  0.5329 -0.4693  0.2957
  570MOL0     C78529   4.130   8.960   1.016 -0.4486  0.3329 -0.6825
  570MOL0     O78530   4.228   9.052   1.014 -0.0081 -0.7002  0.7278
  570MOL0     C78531   4.326   9.037   0.902 -0.1440  0.8346 -0.7366
  570MOL0     C78532   4.368   9.175   0.841 -0.7353 -0.4151  0.3813
  570MOL0     C78533   4.493   9.171   0.753  0.0649 -0.9694  0.7114
  570MOL0     C78534   4.579   9.298   0.773  0.4990  1.1721  0.3913
  570MOL0     C78535   4.720   9.298   0.716 -0.3409 -0.1349  0.3272
  570MOL0     C78536   4.824   9.201   0.786  0.7221 -0.0695  0.0181
  570MOL0     C78537   4.946   9.170   0.694 -0.1014  0.7828 -0.9187
  570MOL0     C78538   5.053   9.287   0.688  1.1852 -0.2598  0.1519
  570MOL0     N78539   5.192   9.237   0.656 -0.0237  0.0459 -1.2272
  570MOL0     C78540   5.242   9.175   0.542  0.7372 -0.5853  0.6963
  570MOL0     C78541   5.368   9.131   0.564  0.3983  0.0254 -0.1559
  570MOL0     C78542   5.464   9.068   0.466 -0.2250 -0.7575 -0.1969
  570MOL0     C78543   5.589   9.148   0.462 -0.2720  0.5884  0.1834
  570MOL0     C78544   5.695   9.092   0.364  0.7198 -0.2789  0.4713
  570MOL0     C78545   5.837   9.150   0.381  1.2470  0.5570 -0.7219
  570MOL0     O78546   5.894   9.134   0.512  0.4553 -0.3753 -0.1321
  570MOL0     C78547   6.030   9.161   0.518  0.1339  0.8764 -0.7068
  570MOL0     C78548   6.097   9.118   0.631  0.1784 -0.3577 -0.0322
  570MOL0     C78549   6.230   9.137   0.656  0.5640 -0.4198  0.0993
  570MOL0     C78550   6.283   9.058   0.772  0.0989  0.7556 -0.0481
  570MOL0     C78551   6.299   9.224   0.569  0.1281 -0.9598 -1.2759
  570MOL0     C78552   6.447   9.251   0.576  0.5396 -0.1760  0.8421
  570MOL0     O78553   6.500   9.342   0.494  0.8506  0.3980  0.0158
  570MOL0     C78554   6.635   9.348   0.490 -0.2984  0.1418 -0.0429
  570MOL0     C78555   6.712   9.273   0.398  0.5450  0.0964  0.3155
  570MOL0     C78556   6.845   9.301   0.367  0.5768 -0.1634 -0.1584
  570MOL0     C78557   6.913   9.401   0.449  0.5621  0.7040  0.9531
  570MOL0     O78558   7.050   9.425   0.435  0.3718 -0.3084 -0.5436
  570MOL0     C78559   7.125   9.324   0.356  0.6960  0.3237 -0.0131
  570MOL0     C78560   7.151   9.373   0.210  0.6397 -0.3611  0.2990
  570MOL0     C78561   7.252   9.485   0.180 -0.2290 -0.1350  0.7780
  570MOL0     C78562   7.320   9.465   0.048 -1.2464  0.4826  0.6744
  570MOL0     C78563   7.401   9.588  -0.006  0.2391  0.0338 -0.3164
  570MOL0     C78564   7.499   9.563  -0.132 -0.6290 -0.2523 -0.3634
  570MOL0     C78565   7.526   9.700  -0.183  0.7347 -0.7852 -0.5598
  570MOL0     C78566   7.637   9.701  -0.283 -0.2825 -1.1260  0.0718
  570MOL0    Cl78567   7.603   9.597  -0.411 -0.2531  0.1627  0.1460
  570MOL0     C78568   6.841   9.467   0.551  0.7006  0.2950  0.2146
  570MOL0     C78569   6.706   9.442   0.573 -0.2900  0.2388 -0.4877
  570MOL0     O78570   6.511   9.181   0.656 -0.7161 -0.8324  0.0470
  570MOL0     C78571   6.234   9.270   0.456  0.0162  0.2484 -0.0880
  570MOL0     C78572   6.103   9.236   0.430  0.6311 -0.5206 -0.1587
  570MOL0     N78573   5.392   9.145   0.700  0.5326  0.4563  0.3036
  570MOL0     N78574   5.288   9.208   0.749  0.0816 -0.3272 -0.3780
  570MOL0     C78575   4.172   8.827   0.997 -0.0668 -0.5132 -0.2343
  570MOL0     C78576   4.077   8.731   1.018  0.6234  0.4064 -0.0097
  570MOL0     C78577   3.737   8.468   0.914 -0.4350 -0.0233  0.5443
  570MOL0     C78578   3.676   8.425   0.790  0.9856 -0.0035 -0.5816
  570MOL0     C78579   3.590   8.319   0.789  0.8592  0.3443 -0.3119
  570MOL0     C78580   3.572   8.240   0.907  0.2601 -0.2154 -0.1934
  570MOL0     O78581   3.467   8.158   0.945 -0.7056  0.2437 -0.1799
  570MOL0     C78582   3.370   8.123   0.851 -0.5436  0.0395  0.2352
  570MOL0     C78583   3.281   8.013   0.904 -0.2656 -0.2837 -0.0040
  570MOL0     C78584   3.357   7.904   0.985  0.1049 -0.3390  0.4422
  570MOL0     C78585   3.255   7.821   1.063 -0.0632 -0.1313  0.8596
  570MOL0     C78586   3.163   7.896   1.156  0.3180  0.4697  0.9306
  570MOL0     C78587   3.084   7.952   1.223  0.6571 -0.3083 -1.0989
  570MOL0     C78588   3.646   8.263   1.018 -0.5155  0.0514 -0.3012
  570MOL0     C78589   3.729   8.376   1.027  0.2985  0.0771 -0.6594
  570MOL0     C78590   3.785   8.396   1.162 -0.2097 -0.9556 -0.0332
  570MOL0     H78591   3.797   8.910   1.051  0.8212  0.8786 -1.4953
  570MOL0     H78592   3.974   9.094   1.040 -0.2679 -0.7589 -0.8293
  570MOL0     H78593   4.275   8.982   0.823  0.0570  1.3780 -1.2459
  570MOL0     H78594   4.415   8.983   0.937 -1.1262 -0.1161  0.3984
  570MOL0     H78595   4.292   9.228   0.781 -0.1061  2.9756  2.3091
  570MOL0     H78596   4.394   9.239   0.926 -2.2169  0.2239  0.3909
  570MOL0     H78597   4.548   9.080   0.779  2.4004  0.3489  0.6709
  570MOL0     H78598   4.465   9.159   0.648  0.7996 -1.7170  0.5908
  570MOL0     H78599   4.532   9.375   0.711  4.3834  2.1448 -1.7005
  570MOL0     H78600   4.587   9.325   0.879 -0.4163  1.0339  0.5002
  570MOL0     H78601   4.751   9.402   0.725  0.3945 -0.3898  0.7660
  570MOL0     H78602   4.708   9.273   0.610 -0.7147 -0.3887  0.4262
  570MOL0     H78603   4.860   9.240   0.881  1.8142  0.3268 -0.5479
  570MOL0     H78604   4.770   9.106   0.793 -1.0244  0.6542 -2.2835
  570MOL0     H78605   4.928   9.114   0.602 -2.3032  0.2758 -0.2443
  570MOL0     H78606   5.003   9.099   0.755  1.9140  1.0242 -2.4317
  570MOL0     H78607   5.022   9.361   0.613 -0.2837  0.2634  1.2405
  570MOL0     H78608   5.059   9.343   0.782 -0.1908  2.2294 -1.1177
  570MOL0     H78609   5.191   9.172   0.447 -1.2767  2.2072  1.5258
  570MOL0     H78610   5.412   9.066   0.370 -2.1036 -0.7861  0.7618
  570MOL0     H78611   5.483   8.965   0.499  0.5786 -0.4257  0.4164
  570MOL0     H78612   5.563   9.248   0.424  1.8314 -0.1110 -3.5926
  570MOL0     H78613   5.639   9.151   0.559  2.7196 -0.0647 -1.2146
  570MOL0     H78614   5.694   8.984   0.382 -2.6083 -0.2055  1.2775
  570MOL0     H78615   5.664   9.098   0.259 -0.5927 -0.4595  0.8352
  570MOL0     H78616   5.891   9.084   0.312 -1.4133 -3.8981  1.0413
  570MOL0     H78617   5.835   9.253   0.345 -0.0243  1.0947  0.7991
  570MOL0     H78618   6.033   9.067   0.702  0.1699 -2.1250 -1.2496
  570MOL0     H78619   6.208   9.000   0.826  1.7997 -0.9987  0.5391
  570MOL0     H78620   6.341   9.116   0.844 -0.1681  0.2278  0.6052
  570MOL0     H78621   6.357   8.990   0.729  2.6801  1.1852  3.3203
  570MOL0     H78622   6.656   9.208   0.332 -3.3820  0.0328  3.2734
  570MOL0     H78623   6.906   9.242   0.299  4.0429 -0.5868  3.0112
  570MOL0     H78624   7.223   9.317   0.403  0.3118  0.4051  0.8152
  570MOL0     H78625   7.073   9.228   0.356 -1.2955  1.3264 -1.2047
  570MOL0     H78626   7.192   9.284   0.161  1.4253  0.7120 -1.0461
  570MOL0     H78627   7.060   9.401   0.156 -1.0645 -1.5102  2.4205
  570MOL0     H78628   7.330   9.479   0.257  1.7949 -1.2943 -1.2386
  570MOL0     H78629   7.206   9.584   0.183 -3.5844 -1.5000 -0.5724
  570MOL0     H78630   7.244   9.428  -0.021 -2.0746 -1.6334  2.6081
  570MOL0     H78631   7.393   9.384   0.055 -1.2671  0.1198 -2.2196
  570MOL0     H78632   7.336   9.676  -0.020 -0.1245 -0.3138 -0.8728
  570MOL0     H78633   7.462   9.624   0.077 -1.4958  0.7155  0.7214
  570MOL0     H78634   7.444   9.506  -0.208 -0.2162  0.4495 -1.2050
  570MOL0     H78635   7.589   9.507  -0.105 -1.2915 -1.0870  0.1832
  570MOL0     H78636   7.556   9.769  -0.104 -2.7638 -1.1741  1.3215
  570MOL0     H78637   7.428   9.738  -0.211  0.0238  0.3797  2.9884
  570MOL0     H78638   7.726   9.661  -0.233  1.0364  0.8422 -0.5791
  570MOL0     H78639   7.658   9.803  -0.317 -1.0973 -1.2367 -0.7757
  570MOL0     H78640   6.884   9.516   0.637 -1.1131 -2.0234  2.5972
  570MOL0     H78641   6.652   9.501   0.647 -0.5185 -1.1803  0.5273
  570MOL0     H78642   6.284   9.329   0.380 -0.2272 -0.8106 -1.1092
  570MOL0     H78643   6.062   9.285   0.342 -0.0028  0.8548  0.8599
  570MOL0     H78644   4.278   8.802   0.994  0.1613  0.3418  0.2891
  570MOL0     H78645   4.090   8.623   1.014  1.4133  0.4016  1.7697
  570MOL0     H78646   3.684   8.489   0.703 -2.5564  1.4274 -0.0322
  570MOL0     H78647   3.530   8.319   0.698  1.8927  1.8636 -1.0371
  570MOL0     H78648   3.310   8.213   0.835  2.5361  2.9152  3.0671
  570MOL0     H78649   3.403   8.087   0.754 -0.7558  2.6846 -0.9099
  570MOL0     H78650   3.232   7.965   0.819 -0.1320 -0.6659  0.1340
  570MOL0     H78651   3.198   8.049   0.966 -1.3154 -1.4441 -0.6969
  570MOL0     H78652   3.415   7.835   0.924  0.0223  1.1479 -1.3883
  570MOL0     H78653   3.429   7.964   1.043  1.2225 -0.7052 -0.5470
  570MOL0     H78654   3.307   7.753   1.131  1.4135 -0.3017 -0.4097
  570MOL0     H78655   3.203   7.754   0.994 -0.1167  0.8436 -0.0635
  570MOL0     H78656   3.012   7.998   1.288 -2.3977 -0.6539 -3.9648
  570MOL0     H78657   3.636   8.189   1.097 -2.9141 -0.3110 -0.8684
  570MOL0     H78658   3.881   8.446   1.151 -0.5328 -0.9660 -4.5133
  570MOL0     H78659   3.710   8.445   1.226 -3.0325 -2.7708 -1.7065
  570MOL0     H78660   3.805   8.295   1.199 -0.0133 -1.0491 -0.3981
  571MOL0     O78661   5.957   5.808   3.996 -0.1134 -0.1625 -0.8051
  571MOL0     C78662   5.938   5.850   4.115 -0.1387  0.3411  0.3432
  571MOL0     O78663   6.018   5.939   4.188 -0.2082  0.1972  0.0205
  571MOL0     C78664   6.122   6.004   4.117 -0.2817  0.0310  0.7644
  571MOL0     C78665   6.110   6.056   3.987 -0.4761 -0.0189  0.7452
  571MOL0     C78666   6.221   6.116   3.927  0.2608  0.0998  0.6550
  571MOL0     C78667   6.343   6.132   3.991  0.8193  0.3291  0.8666
  571MOL0     O78668   6.454   6.186   3.923  0.4130  0.5872  0.0418
  571MOL0     C78669   6.521   6.293   3.989 -0.3186 -0.7556  0.3351
  571MOL0     C78670   6.655   6.262   4.047  0.1200  0.3392  0.9390
  571MOL0     C78671   6.724   6.395   4.091  0.3109 -0.0014 -0.4939
  571MOL0     C78672   6.876   6.370   4.100 -0.5475 -0.5327 -0.8643
  571MOL0     C78673   6.939   6.500   4.152 -0.3178  0.4741  0.0013
  571MOL0     C78674   7.075   6.462   4.190 -0.5447  0.4697 -0.1075
  571MOL0     C78675   7.157   6.588   4.232  0.3206 -0.3506  0.6358
  571MOL0     C78676   7.308   6.545   4.273 -0.2193 -0.7531  0.3053
  571MOL0     N78677   7.400   6.655   4.268 -0.0495  0.0790 -0.0323
  571MOL0     C78678   7.375   6.775   4.338 -0.4693  0.5856  0.4298
  571MOL0     C78679   7.486   6.853   4.322  1.2167  0.1494 -0.9283
  571MOL0     C78680   7.526   6.989   4.389 -0.7449 -0.0734 -0.2017
  571MOL0     C78681   7.438   7.022   4.513 -0.6256  0.5001 -0.3214
  571MOL0     C78682   7.462   6.922   4.626  1.1513 -0.2928 -0.6457
  571MOL0     C78683   7.338   6.924   4.734  0.0168  0.3872  0.1613
  571MOL0     O78684   7.216   6.899   4.669  0.1659  0.5133 -0.0943
  571MOL0     C78685   7.167   6.772   4.636 -0.9863  0.2784  0.1817
  571MOL0     C78686   7.251   6.655   4.653  0.1880  1.0026  0.3771
  571MOL0     C78687   7.208   6.523   4.633 -0.1067 -0.4120 -0.9777
  571MOL0     C78688   7.307   6.412   4.647  0.7498 -0.1734  0.2689
  571MOL0     C78689   7.073   6.512   4.597 -0.0475  0.4663 -0.6976
  571MOL0     C78690   7.007   6.377   4.567  0.1409  0.5624  0.7431
  571MOL0     O78691   6.880   6.384   4.542  0.8749 -0.1321  0.6995
  571MOL0     C78692   6.784   6.283   4.523  1.0041  0.2331  0.9956
  571MOL0     C78693   6.659   6.325   4.471  0.1585 -0.1040  0.1308
  571MOL0     C78694   6.560   6.226   4.432 -1.2125 -0.0565 -0.3638
  571MOL0     C78695   6.594   6.090   4.457  0.1533 -0.9421 -0.9260
  571MOL0     O78696   6.499   6.008   4.415  0.8657 -0.7084  0.1319
  571MOL0     C78697   6.513   5.867   4.446  0.2707 -0.5325  0.1609
  571MOL0     C78698   6.482   5.830   4.591 -0.1310 -0.2976  0.5377
  571MOL0     C78699   6.336   5.869   4.635  0.6155  0.1214  0.2461
  571MOL0     C78700   6.241   5.754   4.642 -1.0188  0.4342  0.8191
  571MOL0     C78701   6.115   5.774   4.562  0.3493  0.3411  0.1572
  571MOL0     C78702   6.031   5.642   4.594  0.3726  0.7066  0.4643
  571MOL0     C78703   5.894   5.630   4.519 -0.7196  0.9252  0.4273
  571MOL0     C78704   5.815   5.504   4.528  0.2190 -0.4869  0.4502
  571MOL0    Cl78705   5.778   5.471   4.692  0.3375 -0.2990 -0.6547
  571MOL0     C78706   6.712   6.053   4.526 -0.4732  0.0856  0.2700
  571MOL0     C78707   6.810   6.153   4.560  0.3325  0.7463 -0.5046
  571MOL0     O78708   7.083   6.287   4.526  0.3141  0.0941  0.7028
  571MOL0     C78709   6.990   6.629   4.578  0.1454 -0.3723 -0.7432
  571MOL0     C78710   7.045   6.757   4.592  0.3093  0.1490  1.4514
  571MOL0     N78711   7.572   6.777   4.242 -0.7171 -0.5677  0.8016
  571MOL0     N78712   7.520   6.667   4.207 -0.3055  0.6670  0.2901
  571MOL0     C78713   6.353   6.087   4.124  0.6242 -0.4542  0.5207
  571MOL0     C78714   6.242   6.022   4.186 -0.0984 -0.2725 -0.4795
  571MOL0     C78715   5.802   5.806   4.170 -0.5111  0.3909  0.8982
  571MOL0     C78716   5.784   5.845   4.298 -0.5386 -1.2694  0.4106
  571MOL0     C78717   5.667   5.821   4.378 -0.8500 -0.0832  0.0898
  571MOL0     C78718   5.577   5.735   4.316 -0.4099 -0.0908  0.0372
  571MOL0     O78719   5.461   5.694   4.386  0.4751 -0.2024  1.0970
  571MOL0     C78720   5.448   5.681   4.523  0.7934  0.0697  0.1630
  571MOL0     C78721   5.311   5.616   4.548  0.9224  1.0165  0.8814
  571MOL0     C78722   5.198   5.726   4.553  0.2981 -0.3852 -0.0052
  571MOL0     C78723   5.053   5.665   4.553 -0.1959 -0.0982  0.8364
  571MOL0     C78724   5.025   5.587   4.432 -0.1752 -0.2311 -0.3134
  571MOL0     C78725   4.991   5.525   4.338 -0.2642  0.1568  0.2567
  571MOL0     C78726   5.596   5.702   4.187  0.0152  0.0638 -0.0003
  571MOL0     C78727   5.702   5.737   4.106 -0.6471  0.7614  0.3680
  571MOL0     C78728   5.702   5.691   3.964  0.2830  0.7220 -0.7066
  571MOL0     H78729   6.017   6.059   3.930 -0.6791 -0.5816  1.0408
  571MOL0     H78730   6.203   6.166   3.832 -1.2724 -0.7369  0.4737
  571MOL0     H78731   6.454   6.342   4.060 -0.2000  0.7737 -0.5597
  571MOL0     H78732   6.530   6.369   3.910 -0.1076 -1.5197 -0.3965
  571MOL0     H78733   6.649   6.179   4.119 -1.3695 -3.3689 -3.0032
  571MOL0     H78734   6.715   6.223   3.964 -3.0872 -3.7125  0.1535
  571MOL0     H78735   6.705   6.460   4.005  2.2351 -2.2920 -2.8351
  571MOL0     H78736   6.681   6.428   4.186  1.5565  0.5444 -0.0988
  571MOL0     H78737   6.896   6.281   4.161  0.6247 -1.3561 -2.3743
  571MOL0     H78738   6.916   6.347   4.001 -0.2139 -0.6292 -0.7065
  571MOL0     H78739   6.870   6.533   4.231 -0.4799 -1.3258  0.6642
  571MOL0     H78740   6.945   6.583   4.081  1.5311 -0.3496 -0.8452
  571MOL0     H78741   7.077   6.402   4.281  1.0681  2.2218  1.1190
  571MOL0     H78742   7.128   6.404   4.114 -0.8297 -1.4544  1.1201
  571MOL0     H78743   7.109   6.640   4.316  2.4068  0.1827  1.5740
  571MOL0     H78744   7.160   6.648   4.141  1.0069 -1.5923 -0.1835
  571MOL0     H78745   7.307   6.509   4.376 -2.7177 -0.9619  0.2679
  571MOL0     H78746   7.346   6.470   4.203 -0.4370  1.2114 -2.0638
  571MOL0     H78747   7.292   6.785   4.408 -0.9454 -0.6470  0.0742
  571MOL0     H78748   7.523   7.078   4.325  0.4304  0.2291  0.1274
  571MOL0     H78749   7.631   6.980   4.419 -0.8324 -1.4327 -0.2427
  571MOL0     H78750   7.473   7.122   4.540 -1.5153  0.8713 -0.4934
  571MOL0     H78751   7.331   7.033   4.490 -0.9089  2.2734  1.6098
  571MOL0     H78752   7.461   6.819   4.587 -4.5423 -0.8749  0.1496
  571MOL0     H78753   7.551   6.952   4.682  0.1019  1.6883  0.0617
  571MOL0     H78754   7.364   6.847   4.808  1.9550 -0.3742 -1.2241
  571MOL0     H78755   7.349   7.018   4.788  1.5824 -0.1759  0.9006
  571MOL0     H78756   7.355   6.662   4.682  0.9457 -3.3301 -0.6140
  571MOL0     H78757   7.352   6.391   4.550  0.4083  1.5547 -0.2918
  571MOL0     H78758   7.264   6.321   4.689 -0.5082  0.6158  0.7512
  571MOL0     H78759   7.386   6.444   4.717  2.5241 -4.4173  0.5383
  571MOL0     H78760   6.651   6.430   4.445 -0.8811 -0.5917 -1.7701
  571MOL0     H78761   6.467   6.253   4.384 -1.0200 -2.3812 -2.2594
  571MOL0     H78762   6.448   5.809   4.379  0.1429 -0.7912  0.5077
  571MOL0     H78763   6.615   5.848   4.413  1.2649 -0.1751  2.7826
  571MOL0     H78764   6.500   5.722   4.600 -0.5573 -0.2992  1.4458
  571MOL0     H78765   6.550   5.875   4.663  1.8718  0.1870 -1.5262
  571MOL0     H78766   6.290   5.945   4.571 -0.0848  1.3864  2.1775
  571MOL0     H78767   6.346   5.901   4.739 -1.0764  1.7798 -0.0520
  571MOL0     H78768   6.220   5.719   4.744  2.9264  0.2349  1.7286
  571MOL0     H78769   6.295   5.667   4.603 -0.1449 -0.2818  3.3664
  571MOL0     H78770   6.061   5.859   4.605  0.6246  1.7953 -2.2179
  571MOL0     H78771   6.125   5.801   4.457 -0.2353 -3.3687 -0.9958
  571MOL0     H78772   6.009   5.640   4.701 -1.8930  2.8226  0.1400
  571MOL0     H78773   6.087   5.553   4.565  2.5961  2.2119 -0.1479
  571MOL0     H78774   5.911   5.654   4.414 -0.6994  0.5345  0.3405
  571MOL0     H78775   5.839   5.718   4.555 -2.4963  0.7798 -1.6944
  571MOL0     H78776   5.884   5.427   4.492  3.0023  1.5364  1.1765
  571MOL0     H78777   5.719   5.508   4.476  2.0227  2.1708 -3.1022
  571MOL0     H78778   6.737   5.953   4.559  1.3973 -0.2046 -1.7980
  571MOL0     H78779   6.908   6.128   4.598  1.7855  2.0663 -3.0846
  571MOL0     H78780   6.885   6.629   4.553 -0.7792  1.1928  2.6558
  571MOL0     H78781   6.999   6.853   4.571  0.9213 -0.0614 -1.1860
  571MOL0     H78782   6.450   6.105   4.171  1.2153  2.4459 -1.5165
  571MOL0     H78783   6.239   5.988   4.289 -1.0965  1.5209  0.1327
  571MOL0     H78784   5.867   5.891   4.352  1.1503 -0.2008 -2.8109
  571MOL0     H78785   5.659   5.854   4.480 -0.3974  1.1515 -0.2623
  571MOL0     H78786   5.522   5.612   4.565 -0.3540 -2.3266 -1.5181
  571MOL0     H78787   5.450   5.772   4.585 -0.4445  0.4102 -0.2532
  571MOL0     H78788   5.318   5.541   4.627  2.1300  0.0059 -0.1333
  571MOL0     H78789   5.278   5.555   4.463  0.2913 -1.9060  3.1031
  571MOL0     H78790   5.218   5.796   4.634  3.1271  1.3621 -2.0682
  571MOL0     H78791   5.217   5.787   4.464 -1.8699  2.5737  1.4097
  571MOL0     H78792   4.979   5.746   4.553 -1.6392 -1.3567  1.3563
  571MOL0     H78793   5.034   5.605   4.643 -2.0677 -1.8401 -0.6290
  571MOL0     H78794   4.943   5.466   4.262  1.9661 -0.2431 -0.9263
  571MOL0     H78795   5.507   5.654   4.147 -0.1418 -0.9614  1.4760
  571MOL0     H78796   5.617   5.630   3.931  1.1696  0.1759 -2.1089
  571MOL0     H78797   5.696   5.778   3.898 -1.9401 -0.7375 -2.6304
  571MOL0     H78798   5.789   5.629   3.943 -0.6444 -0.7840 -0.2462
  572MOL0     O78799   0.120   5.434   3.057  0.0986  0.1487 -0.0101
  572MOL0     C78800   0.144   5.492   2.952 -0.6399  0.1183 -0.3707
  572MOL0     O78801   0.213   5.440   2.848  0.0678  0.6426  0.1809
  572MOL0     C78802   0.272   5.314   2.874 -0.6073 -0.2351 -0.0685
  572MOL0     C78803   0.192   5.201   2.859  0.6388 -0.2079 -0.1448
  572MOL0     C78804   0.247   5.075   2.879  0.3500  0.5835  0.3794
  572MOL0     C78805   0.384   5.064   2.907 -1.4427 -0.3857  0.8189
  572MOL0     O78806   0.430   4.935   2.924  0.3476 -0.2569  0.5147
  572MOL0     C78807   0.556   4.912   2.986 -0.6152  0.1144 -0.8990
  572MOL0     C78808   0.598   4.768   3.019  0.8128  0.4263 -0.7087
  572MOL0     C78809   0.738   4.762   3.080 -0.1976  1.0875 -0.1670
  572MOL0     C78810   0.850   4.783   2.991 -0.0012  0.9196 -0.3194
  572MOL0     C78811   0.983   4.744   3.057 -0.5047  0.6144  0.1137
  572MOL0     C78812   1.105   4.768   2.974  0.4169  0.4291 -0.6183
  572MOL0     C78813   1.238   4.793   3.050  0.6406 -0.7324 -0.0354
  572MOL0     C78814   1.372   4.783   2.986 -0.0124  0.4731 -0.4089
  572MOL0     N78815   1.428   4.648   2.972  0.1486 -0.2199 -0.2973
  572MOL0     C78816   1.528   4.597   3.054 -0.0681 -1.0532  0.0125
  572MOL0     C78817   1.558   4.480   2.999  0.0315 -0.0434 -0.1964
  572MOL0     C78818   1.656   4.377   3.045 -0.4755 -0.5124 -0.0758
  572MOL0     C78819   1.599   4.231   3.064  0.1962 -0.1858  0.6295
  572MOL0     C78820   1.460   4.220   3.131 -0.1865 -0.1756  0.1498
  572MOL0     C78821   1.398   4.087   3.124 -0.5851  0.9901  0.2010
  572MOL0     O78822   1.486   3.977   3.172 -1.2942 -0.1077 -1.1693
  572MOL0     C78823   1.430   3.858   3.200  0.1573 -0.6235 -0.3345
  572MOL0     C78824   1.505   3.799   3.299  0.2053  0.2470 -0.4151
  572MOL0     C78825   1.464   3.681   3.356  0.0530 -0.4423  0.4274
  572MOL0     C78826   1.546   3.637   3.476 -0.0920 -0.0963  0.3751
  572MOL0     C78827   1.349   3.613   3.313 -0.4620 -0.6885  0.1951
  572MOL0     C78828   1.305   3.478   3.355 -0.4514  1.4477 -0.0833
  572MOL0     O78829   1.175   3.439   3.330 -0.5726 -0.5511  0.0679
  572MOL0     C78830   1.127   3.310   3.322  0.1433  0.5558 -0.4267
  572MOL0     C78831   1.196   3.191   3.342 -0.6786  0.9422  0.3345
  572MOL0     C78832   1.135   3.066   3.303  0.2679  0.2458 -1.3029
  572MOL0     C78833   0.997   3.061   3.265  0.3595  0.2496  0.2699
  572MOL0     O78834   0.944   2.941   3.233 -0.0809 -0.0436 -0.2792
  572MOL0     C78835   0.807   2.933   3.197 -0.3827 -1.0558 -0.8700
  572MOL0     C78836   0.780   2.789   3.158  0.2351  0.9256 -0.0900
  572MOL0     C78837   0.636   2.772   3.112 -0.1463  0.2225 -0.8454
  572MOL0     C78838   0.621   2.810   2.963 -0.3587 -0.5631 -0.6436
  572MOL0     C78839   0.483   2.864   2.922  0.4681 -0.2596 -0.2731
  572MOL0     C78840   0.385   2.754   2.906 -0.0550  0.4714  0.2674
  572MOL0     C78841   0.335   2.668   3.025 -1.3011 -0.1355 -0.1218
  572MOL0     C78842   0.234   2.564   2.979 -0.1154  0.2684  0.3844
  572MOL0    Cl78843   0.073   2.620   2.911 -0.2545 -0.0012 -0.1137
  572MOL0     C78844   0.922   3.181   3.257  0.3724 -0.2968 -0.3177
  572MOL0     C78845   0.986   3.305   3.276  0.2331 -0.4968  0.2982
  572MOL0     O78846   1.394   3.401   3.392 -0.3481 -0.1967 -0.7827
  572MOL0     C78847   1.275   3.675   3.215 -0.0668  0.2714  0.7540
  572MOL0     C78848   1.305   3.801   3.161  1.0447  0.0534 -0.2878
  572MOL0     N78849   1.494   4.461   2.876  0.4236 -0.8852 -1.1604
  572MOL0     N78850   1.403   4.561   2.869 -1.1444 -0.3961  0.4796
  572MOL0     C78851   0.466   5.176   2.903 -0.3110  0.1241  0.6765
  572MOL0     C78852   0.410   5.304   2.875 -0.3273  0.6349 -0.1123
  572MOL0     C78853   0.115   5.632   2.941  0.7544 -0.9566 -0.3096
  572MOL0     C78854   0.125   5.700   2.815 -0.5179  0.2155 -0.0468
  572MOL0     C78855   0.066   5.824   2.777 -1.1579  0.7979  0.2259
  572MOL0     C78856  -0.003   5.899   2.873  1.1390  0.6961 -0.4704
  572MOL0     O78857  -0.067   6.024   2.866 -0.2124  0.6515  0.4625
  572MOL0     C78858  -0.165   6.034   2.756 -0.5475 -0.2498 -0.6111
  572MOL0     C78859  -0.286   5.945   2.781  0.2844  0.1738  0.2496
  572MOL0     C78860  -0.361   5.949   2.918 -1.0100  0.5758  0.3447
  572MOL0     C78861  -0.352   6.086   2.989 -1.1423 -0.1353 -0.0473
  572MOL0     C78862  -0.439   6.179   2.925  1.0708 -0.3760 -0.5602
  572MOL0     C78863  -0.500   6.272   2.868  0.5513  0.1577 -0.0253
  572MOL0     C78864  -0.015   5.831   2.999  0.3991  0.0228  1.5808
  572MOL0     C78865   0.034   5.703   3.038 -0.1529  0.3335  0.5363
  572MOL0     C78866   0.005   5.654   3.176 -0.5820 -0.6449  0.1498
  572MOL0     H78867   0.085   5.215   2.850  0.5378 -1.5348 -1.1528
  572MOL0     H78868   0.183   4.988   2.873 -0.0577  0.9808 -1.9754
  572MOL0     H78869   0.559   4.969   3.079 -1.3237  1.3838 -1.6315
  572MOL0     H78870   0.629   4.949   2.914 -1.4926  0.9332 -1.3811
  572MOL0     H78871   0.530   4.724   3.092  0.1952 -0.4499 -1.7895
  572MOL0     H78872   0.585   4.707   2.929 -2.1758  1.6545 -1.2269
  572MOL0     H78873   0.755   4.824   3.168 -0.3535  1.9561 -0.7324
  572MOL0     H78874   0.743   4.656   3.107 -3.5371  0.8395 -0.1351
  572MOL0     H78875   0.842   4.732   2.894  0.0376  0.0281  0.1390
  572MOL0     H78876   0.854   4.886   2.955  0.7962  0.0912 -2.8185
  572MOL0     H78877   0.980   4.639   3.087  2.1950  0.7136  0.9624
  572MOL0     H78878   1.005   4.797   3.150 -1.6717 -0.8815  1.2933
  572MOL0     H78879   1.130   4.683   2.910 -2.1746  0.2719 -1.5373
  572MOL0     H78880   1.083   4.855   2.912 -3.2974  0.4639  0.5179
  572MOL0     H78881   1.239   4.726   3.136 -0.2773  1.3815  1.7378
  572MOL0     H78882   1.220   4.888   3.101  1.3827 -0.2579 -0.6359
  572MOL0     H78883   1.364   4.826   2.886 -0.4383 -1.1464 -1.0942
  572MOL0     H78884   1.443   4.845   3.042  0.5030  0.3908 -0.9598
  572MOL0     H78885   1.580   4.646   3.136  2.2653 -1.5404 -1.0871
  572MOL0     H78886   1.684   4.411   3.145 -1.1920  5.0485 -1.4569
  572MOL0     H78887   1.740   4.383   2.975 -0.9613  0.5755 -0.5793
  572MOL0     H78888   1.590   4.183   2.966 -2.5232 -0.7788  1.1017
  572MOL0     H78889   1.676   4.178   3.122  1.1493 -2.1947 -2.2534
  572MOL0     H78890   1.474   4.243   3.237 -0.5397 -2.4604  0.7464
  572MOL0     H78891   1.393   4.294   3.085  0.8831  0.3199 -0.6571
  572MOL0     H78892   1.307   4.088   3.185 -2.4038  1.0412 -2.3200
  572MOL0     H78893   1.377   4.078   3.017  0.3505  2.3508 -0.1120
  572MOL0     H78894   1.598   3.847   3.326 -0.1516 -0.3343  2.0308
  572MOL0     H78895   1.618   3.711   3.515 -0.6634 -1.2585  4.0164
  572MOL0     H78896   1.594   3.542   3.452 -1.4811 -1.3817  2.4514
  572MOL0     H78897   1.479   3.628   3.561  2.4394 -1.4464  2.3788
  572MOL0     H78898   1.303   3.190   3.359 -0.4060  0.0479 -1.2748
  572MOL0     H78899   1.171   2.964   3.304  0.5252  0.3368 -1.1450
  572MOL0     H78900   0.736   2.965   3.273  0.8074  0.1621 -0.2250
  572MOL0     H78901   0.806   2.993   3.105  0.8146 -2.1292 -1.6381
  572MOL0     H78902   0.845   2.774   3.072 -2.7630 -0.0034 -2.3527
  572MOL0     H78903   0.804   2.720   3.240 -1.0680  0.0257 -0.4344
  572MOL0     H78904   0.563   2.833   3.166 -2.7607 -2.2358 -1.3916
  572MOL0     H78905   0.603   2.669   3.126  1.6251 -0.3155 -0.3748
  572MOL0     H78906   0.633   2.715   2.910 -1.7263 -3.4453  3.7312
  572MOL0     H78907   0.696   2.882   2.927 -1.0589 -0.1529 -1.3260
  572MOL0     H78908   0.456   2.941   2.995  1.5512 -0.6914  0.6057
  572MOL0     H78909   0.500   2.904   2.821  5.7502 -0.1120  0.3887
  572MOL0     H78910   0.443   2.689   2.840  1.2532  3.5733 -1.8543
  572MOL0     H78911   0.292   2.780   2.855  0.4825  0.9437 -0.4836
  572MOL0     H78912   0.299   2.731   3.107  1.0656 -0.2946  1.1481
  572MOL0     H78913   0.422   2.615   3.066 -0.6927  2.2497  1.9101
  572MOL0     H78914   0.225   2.489   3.057 -0.2295  0.5649  0.6592
  572MOL0     H78915   0.278   2.510   2.894 -1.3562  0.9887 -0.7666
  572MOL0     H78916   0.826   3.172   3.208 -0.8164 -1.1838  2.0006
  572MOL0     H78917   0.937   3.402   3.273 -2.0996 -1.4069  3.7795
  572MOL0     H78918   1.195   3.616   3.172 -0.8377  1.1679  0.9475
  572MOL0     H78919   1.234   3.855   3.099 -0.6652 -2.9784 -1.1726
  572MOL0     H78920   0.574   5.173   2.913 -0.2119 -3.5736  0.1057
  572MOL0     H78921   0.479   5.386   2.861  0.1810  0.4790  1.3657
  572MOL0     H78922   0.187   5.646   2.744  0.4420  1.4833 -0.2196
  572MOL0     H78923   0.077   5.863   2.676 -2.2963 -0.6593 -0.5047
  572MOL0     H78924  -0.193   6.139   2.750 -2.8447 -0.5503  2.6609
  572MOL0     H78925  -0.120   6.008   2.659  0.8974 -1.6587  0.3826
  572MOL0     H78926  -0.257   5.840   2.776 -0.3866  0.0269 -0.7824
  572MOL0     H78927  -0.362   5.967   2.706 -1.2389  2.1591  2.1997
  572MOL0     H78928  -0.465   5.914   2.920 -0.6955 -0.3444  1.3664
  572MOL0     H78929  -0.302   5.890   2.988 -3.5561  0.6662  2.7104
  572MOL0     H78930  -0.251   6.126   3.003 -1.3512 -0.1186  1.5756
  572MOL0     H78931  -0.381   6.051   3.089  1.2555 -3.1331 -0.2309
  572MOL0     H78932  -0.556   6.348   2.818 -0.6439 -2.3771 -2.8324
  572MOL0     H78933  -0.077   5.891   3.065 -0.1144 -0.9348  1.9935
  572MOL0     H78934  -0.041   5.733   3.236 -0.4976 -0.5884  0.1408
  572MOL0     H78935  -0.054   5.562   3.173  0.6932 -1.5451 -3.6949
  572MOL0     H78936   0.098   5.613   3.217  1.0096 -0.7695 -3.2339
  573MOL0     O78937   8.834   4.772   0.036  0.1444 -0.0556 -0.3419
  573MOL0     C78938   8.715   4.749   0.014  0.1866 -0.0476 -0.2933
  573MOL0     O78939   8.654   4.800  -0.095 -0.4940 -0.2142 -0.0560
  573MOL0     C78940   8.704   4.904  -0.165  0.3117 -0.1641  0.4144
  573MOL0     C78941   8.747   5.022  -0.109 -0.6761 -0.4871  0.1181
  573MOL0     C78942   8.796   5.130  -0.195  0.4027  0.2249 -0.1998
  573MOL0     C78943   8.804   5.113  -0.335 -0.1293  0.1001  0.5494
  573MOL0     O78944   8.844   5.219  -0.407  0.3056 -0.3117  0.1277
  573MOL0     C78945   8.874   5.194  -0.543 -0.2510  0.4165  0.4644
  573MOL0     C78946   8.936   5.318  -0.605 -0.3566  0.7811 -0.0082
  573MOL0     C78947   8.925   5.334  -0.763  0.4226 -0.5360  0.5778
  573MOL0     C78948   9.026   5.429  -0.827  0.6002  0.8821  0.1090
  573MOL0     C78949   8.992   5.442  -0.981 -0.2119  0.1554  0.3618
  573MOL0     C78950   9.092   5.531  -1.062  0.3352 -0.2537 -0.5038
  573MOL0     C78951   9.060   5.684  -1.049 -0.0228 -0.0911 -0.3766
  573MOL0     C78952   9.135   5.784  -1.138  0.9790 -0.3213 -0.0256
  573MOL0     N78953   9.082   5.748  -1.272  0.3930  0.6850 -0.6238
  573MOL0     C78954   9.157   5.705  -1.380 -0.2206  0.3484 -0.8141
  573MOL0     C78955   9.074   5.724  -1.485 -0.6732 -0.1735  0.0641
  573MOL0     C78956   9.099   5.692  -1.635 -0.1161  0.2538  0.2260
  573MOL0     C78957   9.089   5.540  -1.669 -0.0846  0.5996  0.5695
  573MOL0     C78958   9.163   5.508  -1.800 -0.1695  0.2560  0.0088
  573MOL0     C78959   9.310   5.554  -1.822 -0.4552  0.5373 -0.3292
  573MOL0     O78960   9.308   5.691  -1.862 -0.2549 -0.4129 -0.2159
  573MOL0     C78961   9.423   5.737  -1.908 -0.2456 -0.3251 -0.0631
  573MOL0     C78962   9.430   5.783  -2.041  0.3027 -0.0261 -0.0488
  573MOL0     C78963   9.549   5.843  -2.090  0.3229  0.1755 -0.8753
  573MOL0     C78964   9.565   5.907  -2.219  0.4181  0.4328  0.0321
  573MOL0     C78965   9.664   5.841  -2.006 -0.0677  0.2218 -0.0919
  573MOL0     C78966   9.800   5.876  -2.044 -0.9479 -0.5973 -0.4012
  573MOL0     O78967   9.824   6.003  -2.077  0.1008 -0.1289 -0.0396
  573MOL0     C78968   9.959   6.047  -2.069 -0.3628 -0.2368  1.2958
  573MOL0     C78969  10.012   6.117  -2.175 -0.1132  0.2025 -0.1461
  573MOL0     C78970  10.148   6.152  -2.175 -0.7861  0.1858 -0.4327
  573MOL0     C78971  10.226   6.119  -2.063  0.6044 -0.2857  0.0837
  573MOL0     O78972  10.356   6.159  -2.051  0.2791  0.9982  0.2268
  573MOL0     C78973  10.386   6.282  -2.103 -0.5866  0.0707 -0.3862
  573MOL0     C78974  10.527   6.314  -2.047 -0.8120 -0.8918  1.0727
  573MOL0     C78975  10.525   6.351  -1.899  0.0424  0.7035  0.7600
  573MOL0     C78976  10.669   6.331  -1.836  0.9508  0.6401  0.3545
  573MOL0     C78977  10.662   6.318  -1.680 -0.6464 -0.5238  0.3817
  573MOL0     C78978  10.811   6.327  -1.628  0.2768 -0.0136  0.3563
  573MOL0     C78979  10.824   6.257  -1.491  0.0310  1.0814  1.6837
  573MOL0     C78980  10.770   6.352  -1.379  0.8452  0.2352  0.2197
  573MOL0    Cl78981  10.892   6.482  -1.357 -0.0812 -0.0035  0.4032
  573MOL0     C78982  10.174   6.045  -1.956  0.1647  0.2527 -0.2912
  573MOL0     C78983  10.036   6.021  -1.955 -0.1341  0.0519 -0.3411
  573MOL0     O78984   9.883   5.781  -2.034 -0.2952 -0.5398 -0.0705
  573MOL0     C78985   9.654   5.796  -1.873 -0.2480 -0.0564  0.5346
  573MOL0     C78986   9.533   5.751  -1.830 -0.6234 -0.3093  0.2700
  573MOL0     N78987   8.964   5.797  -1.444  0.6460 -0.2170  0.0418
  573MOL0     N78988   8.971   5.804  -1.317  0.2550  0.0594 -0.5283
  573MOL0     C78989   8.747   5.000  -0.388 -0.4625 -0.4237 -0.5176
  573MOL0     C78990   8.707   4.895  -0.298  0.7692 -0.4516  1.2771
  573MOL0     C78991   8.645   4.651   0.095 -0.3271 -0.3391  0.0176
  573MOL0     C78992   8.662   4.663   0.228  0.8491 -0.2800 -0.7722
  573MOL0     C78993   8.580   4.586   0.320 -0.4085 -0.6079  0.0053
  573MOL0     C78994   8.502   4.482   0.274  0.3947 -0.8171  0.0873
  573MOL0     O78995   8.429   4.401   0.359 -0.4595  0.3972 -0.0443
  573MOL0     C78996   8.437   4.418   0.504 -0.3194  0.7449  0.8766
  573MOL0     C78997   8.366   4.306   0.572  0.3299 -0.2700  0.4948
  573MOL0     C78998   8.222   4.321   0.565  0.0983  0.1394  0.3271
  573MOL0     C78999   8.168   4.396   0.684 -0.1917 -0.2779  0.1468
  573MOL0     C79000   8.040   4.449   0.658  0.6694 -0.0733 -0.2928
  573MOL0     C79001   7.930   4.488   0.631 -0.4101  1.0238  0.1092
  573MOL0     C79002   8.496   4.460   0.136  0.3965  1.2421  0.8330
  573MOL0     C79003   8.566   4.542   0.050  0.9044 -0.8317  0.6539
  573MOL0     C79004   8.551   4.508  -0.093 -0.2158  0.3703 -0.9574
  573MOL0     H79005   8.753   5.028  -0.001  1.9430  0.4568 -0.0228
  573MOL0     H79006   8.834   5.219  -0.146  1.3668  0.8949 -2.0470
  573MOL0     H79007   8.782   5.158  -0.590 -0.3729 -0.6328  1.4765
  573MOL0     H79008   8.940   5.106  -0.549 -1.5632 -0.5832  0.3505
  573MOL0     H79009   8.899   5.410  -0.557 -3.7385  0.2558 -1.3639
  573MOL0     H79010   9.044   5.303  -0.594 -0.6201 -2.2391 -0.7781
  573MOL0     H79011   8.917   5.244  -0.824 -0.2884 -0.4941  0.5979
  573MOL0     H79012   8.831   5.382  -0.793  1.8333  0.9018 -1.8946
  573MOL0     H79013   9.016   5.530  -0.788  1.1419  1.5557 -1.4002
  573MOL0     H79014   9.124   5.385  -0.805  1.3775  0.0789 -4.0445
  573MOL0     H79015   8.889   5.471  -1.003 -0.4546 -0.5455  0.5554
  573MOL0     H79016   9.017   5.345  -1.026  1.8989  0.2441  1.2112
  573MOL0     H79017   9.192   5.533  -1.017  0.0320  1.1365  0.1726
  573MOL0     H79018   9.098   5.490  -1.163 -0.1383 -0.3675 -0.4876
  573MOL0     H79019   9.090   5.718  -0.949 -0.8225  0.2444 -0.2452
  573MOL0     H79020   8.952   5.697  -1.054 -0.2694 -1.8756 -0.6282
  573MOL0     H79021   9.108   5.888  -1.115 -0.9985 -0.1115 -2.7894
  573MOL0     H79022   9.243   5.767  -1.131  1.2957  1.9980  2.7411
  573MOL0     H79023   9.253   5.655  -1.377  0.9029  2.4503  1.5930
  573MOL0     H79024   9.200   5.729  -1.653  0.1060  1.4182  3.2996
  573MOL0     H79025   9.023   5.753  -1.685 -0.6853 -1.0057 -0.4944
  573MOL0     H79026   9.127   5.468  -1.595 -0.7629 -1.8404 -1.3273
  573MOL0     H79027   8.986   5.513  -1.691  0.1372 -0.8795  1.1998
  573MOL0     H79028   9.165   5.398  -1.800 -1.1027  0.2265  0.4400
  573MOL0     H79029   9.105   5.540  -1.887  0.3713 -0.5499 -0.6694
  573MOL0     H79030   9.377   5.537  -1.737  1.3752 -1.5820 -2.0958
  573MOL0     H79031   9.338   5.496  -1.910 -1.1225  1.3217 -1.0705
  573MOL0     H79032   9.334   5.783  -2.092 -1.3953  0.4927  2.9076
  573MOL0     H79033   9.473   5.907  -2.278  0.6398  4.6477 -0.6617
  573MOL0     H79034   9.644   5.860  -2.278  1.9117 -0.6561  2.7111
  573MOL0     H79035   9.592   6.011  -2.196 -2.0179  1.8821 -2.9050
  573MOL0     H79036   9.948   6.133  -2.261  1.1132  3.8082 -0.5745
  573MOL0     H79037  10.192   6.203  -2.260 -1.4590 -1.0841 -1.5793
  573MOL0     H79038  10.380   6.278  -2.213 -0.5962  0.0320 -0.3845
  573MOL0     H79039  10.319   6.358  -2.063 -0.1178 -0.5293  1.6660
  573MOL0     H79040  10.580   6.219  -2.055 -4.0904 -2.8116  0.6676
  573MOL0     H79041  10.586   6.390  -2.098  1.3701 -0.6775  3.6832
  573MOL0     H79042  10.471   6.276  -1.840  2.4423 -0.1534  1.9669
  573MOL0     H79043  10.486   6.452  -1.888 -1.8933  0.0935 -0.0166
  573MOL0     H79044  10.723   6.424  -1.859 -0.0965  1.0836 -0.3866
  573MOL0     H79045  10.726   6.248  -1.877  0.7243  1.0142 -0.7615
  573MOL0     H79046  10.612   6.404  -1.635  2.3571  0.4661  2.1367
  573MOL0     H79047  10.620   6.229  -1.632  1.4736 -1.6044  0.3503
  573MOL0     H79048  10.850   6.428  -1.617 -0.7398  0.3234  1.0193
  573MOL0     H79049  10.874   6.268  -1.696  1.3327 -0.5286  1.7223
  573MOL0     H79050  10.930   6.236  -1.473 -0.5040 -0.8621  2.9403
  573MOL0     H79051  10.762   6.167  -1.497 -1.4163  1.8545  3.7919
  573MOL0     H79052  10.773   6.304  -1.281  1.6315  3.5136  1.9238
  573MOL0     H79053  10.668   6.386  -1.403  1.0925 -0.2186 -1.6030
  573MOL0     H79054  10.243   5.992  -1.891  3.7620 -0.6461 -4.4124
  573MOL0     H79055   9.992   5.963  -1.874  0.9214  0.5187  0.5885
  573MOL0     H79056   9.738   5.807  -1.804 -0.1088  0.4722  0.2823
  573MOL0     H79057   9.512   5.732  -1.725 -2.5800  0.7495  0.1252
  573MOL0     H79058   8.733   4.981  -0.494 -1.2500 -1.9988 -0.1529
  573MOL0     H79059   8.694   4.800  -0.348  3.5089 -1.5568  2.4606
  573MOL0     H79060   8.707   4.757   0.259 -0.5533  0.6099 -1.3059
  573MOL0     H79061   8.579   4.609   0.427  0.0632 -1.1833  0.1369
  573MOL0     H79062   8.546   4.418   0.516 -0.2382  2.4250  0.3975
  573MOL0     H79063   8.395   4.516   0.531 -1.0887  0.5044  0.5747
  573MOL0     H79064   8.399   4.291   0.676  5.2344 -1.6348 -0.9700
  573MOL0     H79065   8.396   4.212   0.525 -1.5364 -0.6544  0.0220
  573MOL0     H79066   8.188   4.370   0.473  1.3035  0.2519 -0.0735
  573MOL0     H79067   8.193   4.216   0.567  0.6650 -0.0241  0.1185
  573MOL0     H79068   8.233   4.479   0.713  1.1537  0.7798 -4.8814
  573MOL0     H79069   8.153   4.326   0.767 -1.4575  2.5472  2.4853
  573MOL0     H79070   7.828   4.516   0.615 -1.1866 -1.9841 -0.7877
  573MOL0     H79071   8.430   4.380   0.103  1.0564  0.1575  2.0630
  573MOL0     H79072   8.498   4.414  -0.109  0.9044 -0.6922  1.1667
  573MOL0     H79073   8.485   4.586  -0.133 -2.1715 -1.1689 -0.8420
  573MOL0     H79074   8.648   4.508  -0.143  0.3855  2.3223  0.0820
  574MOL0     O79075   2.669   8.868   1.907 -0.6711  0.4596  0.2320
  574MOL0     C79076   2.698   8.980   1.861  0.0220 -1.0664 -0.0066
  574MOL0     O79077   2.830   9.023   1.825 -0.7229 -0.4079 -0.0783
  574MOL0     C79078   2.948   8.961   1.872  0.1699 -0.6764 -0.3039
  574MOL0     C79079   2.961   8.923   2.008  1.1658  0.1303  0.2732
  574MOL0     C79080   3.079   8.877   2.052 -0.7210  0.6997  0.2861
  574MOL0     C79081   3.186   8.862   1.965  0.1795  0.1676  0.3456
  574MOL0     O79082   3.302   8.816   2.029  0.0026  0.2548 -0.7937
  574MOL0     C79083   3.388   8.739   1.940  0.3542 -0.3705 -0.1295
  574MOL0     C79084   3.480   8.653   2.032 -0.1021 -0.4141  0.0584
  574MOL0     C79085   3.619   8.636   1.959  0.1304  0.8501 -0.3375
  574MOL0     C79086   3.576   8.578   1.824 -0.3028  0.0426 -0.3408
  574MOL0     C79087   3.691   8.492   1.760  0.0382  0.0403 -0.7237
  574MOL0     C79088   3.661   8.465   1.611  0.0987 -0.1188  0.2859
  574MOL0     C79089   3.763   8.380   1.536  0.0692 -0.2068 -0.2664
  574MOL0     C79090   3.817   8.253   1.610 -0.3355  0.7148 -0.6503
  574MOL0     N79091   3.932   8.173   1.554 -0.1831 -1.0811 -0.1106
  574MOL0     C79092   3.982   8.062   1.609 -0.7778  0.9497  0.6377
  574MOL0     C79093   4.077   8.017   1.516 -0.6987 -0.4443 -0.4877
  574MOL0     C79094   4.161   7.897   1.522  0.2979 -0.1945  0.6741
  574MOL0     C79095   4.106   7.771   1.447 -0.3490 -0.3163  0.2991
  574MOL0     C79096   4.100   7.783   1.291  0.2794  1.1766  0.4638
  574MOL0     C79097   4.240   7.776   1.227 -0.7126  0.3373 -0.0941
  574MOL0     O79098   4.287   7.644   1.216  0.5070 -0.1948  0.1021
  574MOL0     C79099   4.414   7.612   1.255 -0.5460 -0.0401 -0.1748
  574MOL0     C79100   4.481   7.683   1.355 -0.3154 -0.6225 -0.8179
  574MOL0     C79101   4.616   7.647   1.395  1.0189 -0.2370 -1.0561
  574MOL0     C79102   4.691   7.726   1.503 -0.7700 -0.2599  0.1501
  574MOL0     C79103   4.687   7.542   1.339 -0.2002  1.0420 -0.9489
  574MOL0     C79104   4.819   7.482   1.375 -0.0786  0.6398 -0.6570
  574MOL0     O79105   4.851   7.374   1.296  0.1022 -0.1474 -0.4693
  574MOL0     C79106   4.972   7.314   1.300  0.0612  0.4480  0.1110
  574MOL0     C79107   5.061   7.301   1.416  0.5562 -0.3261 -0.3541
  574MOL0     C79108   5.182   7.226   1.411  0.3321 -0.4596 -0.5592
  574MOL0     C79109   5.216   7.167   1.290  0.6775  0.2629 -0.2785
  574MOL0     O79110   5.325   7.078   1.293  0.2274  0.1258  0.0970
  574MOL0     C79111   5.396   7.069   1.160 -0.0374  0.1483  0.2736
  574MOL0     C79112   5.532   7.028   1.201  0.1548 -0.5286  0.3470
  574MOL0     C79113   5.625   7.127   1.266  0.0727 -0.8320 -0.5707
  574MOL0     C79114   5.587   7.158   1.412  0.5385  0.2042 -0.8558
  574MOL0     C79115   5.661   7.267   1.482 -1.1464 -0.9239 -0.2397
  574MOL0     C79116   5.601   7.284   1.631  0.2897  0.1446  1.0047
  574MOL0     C79117   5.626   7.426   1.703  0.1536  0.1771  0.4712
  574MOL0     C79118   5.641   7.420   1.852 -0.0418 -1.0770 -0.0214
  574MOL0    Cl79119   5.468   7.404   1.906 -0.6314  0.3407  0.3052
  574MOL0     C79120   5.123   7.170   1.181  0.6353 -0.8889  0.2441
  574MOL0     C79121   5.008   7.238   1.190 -0.4087 -0.3702 -0.0005
  574MOL0     O79122   4.885   7.528   1.468  0.3198 -0.1085 -0.0217
  574MOL0     C79123   4.606   7.459   1.258  0.0196 -0.0823  0.3305
  574MOL0     C79124   4.478   7.491   1.214 -0.6171  0.2937  0.0512
  574MOL0     N79125   4.082   8.108   1.412  0.2727 -0.5547 -0.2170
  574MOL0     N79126   3.997   8.204   1.438  0.6002  0.1058 -0.0187
  574MOL0     C79127   3.175   8.899   1.826  0.0467  0.6604  1.5464
  574MOL0     C79128   3.059   8.958   1.785  0.0726 -0.2456  0.4053
  574MOL0     C79129   2.600   9.084   1.873  0.3999 -0.1362 -0.2466
  574MOL0     C79130   2.497   9.066   1.969 -0.0559  0.1348  0.2965
  574MOL0     C79131   2.399   9.161   1.991  0.7122  0.1584 -0.8529
  574MOL0     C79132   2.422   9.288   1.932  0.7008  0.3868 -0.2242
  574MOL0     O79133   2.345   9.397   1.953  0.3008 -0.5332 -0.2963
  574MOL0     C79134   2.233   9.399   2.041 -0.1575 -0.5452 -0.0681
  574MOL0     C79135   2.157   9.534   2.030  0.1394  0.5805 -0.6873
  574MOL0     C79136   2.110   9.563   1.892 -0.5172 -0.1559  0.4002
  574MOL0     C79137   2.075   9.708   1.862  0.1498 -0.1571 -0.3383
  574MOL0     C79138   1.994   9.735   1.743 -0.4357 -0.0251  0.0464
  574MOL0     C79139   1.930   9.751   1.642 -0.1068  0.4491  0.8883
  574MOL0     C79140   2.522   9.317   1.847 -0.0800 -0.3277  0.6203
  574MOL0     C79141   2.615   9.213   1.814 -0.4874  0.5326  0.4972
  574MOL0     C79142   2.728   9.245   1.717 -0.2558  0.7321  0.3364
  574MOL0     H79143   2.872   8.940   2.067 -0.4103  2.0084 -2.3861
  574MOL0     H79144   3.087   8.857   2.158  1.0909  1.0293  0.2375
  574MOL0     H79145   3.453   8.815   1.896 -1.4251  1.6042  0.4894
  574MOL0     H79146   3.336   8.684   1.861 -1.5948  0.4594  0.5048
  574MOL0     H79147   3.491   8.719   2.119  0.8894 -0.0202 -0.3380
  574MOL0     H79148   3.438   8.559   2.068  1.1717 -0.6901  0.8843
  574MOL0     H79149   3.674   8.729   1.945  0.1556  0.6631 -1.6044
  574MOL0     H79150   3.686   8.572   2.016 -2.0234  0.0978  1.4752
  574MOL0     H79151   3.490   8.511   1.829  0.0150 -0.3390  0.0392
  574MOL0     H79152   3.563   8.658   1.750  2.2238  0.0325 -0.8849
  574MOL0     H79153   3.699   8.396   1.813  2.8868  0.9819  0.7695
  574MOL0     H79154   3.784   8.549   1.771 -0.6956  1.3677 -1.2615
  574MOL0     H79155   3.569   8.405   1.606 -0.0221  0.1456 -1.8043
  574MOL0     H79156   3.638   8.550   1.545  1.2876 -1.5416 -2.0913
  574MOL0     H79157   3.841   8.450   1.507 -0.5302  1.0417  1.0298
  574MOL0     H79158   3.713   8.356   1.442  0.4293  1.6038 -0.9445
  574MOL0     H79159   3.851   8.284   1.710  2.5197  1.6513 -1.8119
  574MOL0     H79160   3.740   8.177   1.628  0.7952 -0.4676 -0.6880
  574MOL0     H79161   3.931   8.016   1.694  4.2712 -3.7058  1.7281
  574MOL0     H79162   4.155   7.879   1.630 -4.5256 -0.1340  0.6318
  574MOL0     H79163   4.261   7.917   1.483 -1.0951  1.9579 -2.1804
  574MOL0     H79164   4.169   7.685   1.470  1.5566  0.7603 -0.6614
  574MOL0     H79165   4.007   7.746   1.488  0.2289 -1.9961  0.7852
  574MOL0     H79166   4.059   7.687   1.260  4.4417 -0.8451  0.5912
  574MOL0     H79167   4.034   7.866   1.261 -0.8146 -0.5755 -2.3736
  574MOL0     H79168   4.243   7.816   1.125  2.4862  0.4795 -0.0380
  574MOL0     H79169   4.310   7.845   1.274 -0.4397  0.2227 -0.3297
  574MOL0     H79170   4.441   7.764   1.416  2.2987 -1.1773  1.8929
  574MOL0     H79171   4.718   7.665   1.590  4.3784  1.2684 -0.1073
  574MOL0     H79172   4.633   7.810   1.542  0.6657 -0.3278  2.6371
  574MOL0     H79173   4.781   7.774   1.464 -2.6779  1.7621 -2.0810
  574MOL0     H79174   5.039   7.360   1.504  1.8339 -0.0683 -0.1826
  574MOL0     H79175   5.254   7.216   1.491  0.9076 -0.5657 -1.0812
  574MOL0     H79176   5.353   6.985   1.106 -1.4255 -1.0580  3.0438
  574MOL0     H79177   5.393   7.166   1.110  0.4966  1.3951  2.5469
  574MOL0     H79178   5.512   6.950   1.274 -1.5561  3.6187  4.8505
  574MOL0     H79179   5.578   6.979   1.115  1.8279  0.5290  0.5852
  574MOL0     H79180   5.617   7.223   1.215 -3.3628 -0.5033  0.3316
  574MOL0     H79181   5.729   7.094   1.264  0.5569  0.2894  2.1495
  574MOL0     H79182   5.608   7.065   1.465  2.2046  1.1887  0.3268
  574MOL0     H79183   5.481   7.183   1.426  0.6064  0.8182 -1.3621
  574MOL0     H79184   5.763   7.227   1.490  0.1483  1.8056 -1.7043
  574MOL0     H79185   5.662   7.357   1.420 -0.3913 -0.7942 -0.0501
  574MOL0     H79186   5.656   7.212   1.693  4.0913  0.6693 -1.4409
  574MOL0     H79187   5.493   7.268   1.632  0.1034  1.2840  0.4180
  574MOL0     H79188   5.548   7.497   1.676 -0.1383  0.4899  2.0431
  574MOL0     H79189   5.716   7.476   1.667  0.3364  0.0022  0.6806
  574MOL0     H79190   5.690   7.509   1.893  0.4186 -1.6057  0.6050
  574MOL0     H79191   5.698   7.332   1.884  1.3980 -0.0036  0.4910
  574MOL0     H79192   5.136   7.125   1.083 -1.6956 -3.2186  0.8912
  574MOL0     H79193   4.941   7.242   1.105 -1.3814  0.5113  0.7744
  574MOL0     H79194   4.643   7.364   1.221 -1.7565 -0.5914 -0.2660
  574MOL0     H79195   4.438   7.429   1.134  1.6739 -1.1313 -0.0612
  574MOL0     H79196   3.258   8.890   1.756  1.6047 -0.6274  3.4248
  574MOL0     H79197   3.048   9.002   1.686 -2.3669 -3.8973 -1.1498
  574MOL0     H79198   2.477   8.977   2.026  0.6575 -0.0112  0.3273
  574MOL0     H79199   2.322   9.144   2.064  1.5545 -0.6421 -0.1245
  574MOL0     H79200   2.162   9.324   2.007 -2.2220  0.3193  2.0526
  574MOL0     H79201   2.278   9.371   2.137  2.8065  1.4794 -0.7245
  574MOL0     H79202   2.213   9.621   2.065  1.2496 -0.1171 -0.6885
  574MOL0     H79203   2.072   9.527   2.099  1.2999 -2.2828  0.5885
  574MOL0     H79204   2.191   9.534   1.825  0.3747  0.7846  1.0438
  574MOL0     H79205   2.019   9.507   1.871 -1.7532  2.4985 -2.1558
  574MOL0     H79206   2.166   9.769   1.865  0.4819 -0.6029 -1.1050
  574MOL0     H79207   2.011   9.751   1.940  0.9525  0.4755  0.0008
  574MOL0     H79208   1.869   9.759   1.554 -2.1910  2.8473  2.3952
  574MOL0     H79209   2.533   9.414   1.799 -0.7644  0.3596  1.8267
  574MOL0     H79210   2.761   9.162   1.654  0.2812  0.5784  0.8062
  574MOL0     H79211   2.693   9.321   1.647  0.8960  0.4714 -0.5471
  574MOL0     H79212   2.816   9.268   1.778 -0.8528 -0.8258  1.9027
  575MOL0     O79213   9.929   3.862   2.199 -0.7347  0.5184 -0.2528
  575MOL0     C79214   9.884   3.979   2.196  0.2608 -0.3345  0.3463
  575MOL0     O79215   9.802   4.036   2.292 -0.7126  0.7587  0.4677
  575MOL0     C79216   9.773   3.947   2.390 -0.2947  0.1780 -0.1951
  575MOL0     C79217   9.856   3.916   2.504 -0.2775  1.1084  0.2126
  575MOL0     C79218   9.823   3.818   2.601  0.6584 -0.3388  0.9570
  575MOL0     C79219   9.699   3.755   2.587  0.6153  0.2511  0.5711
  575MOL0     O79220   9.678   3.663   2.689  0.1429  0.6865 -0.3804
  575MOL0     C79221   9.558   3.589   2.680 -0.4484 -0.0489 -0.6839
  575MOL0     C79222   9.552   3.485   2.795  0.2588 -0.1312 -0.2523
  575MOL0     C79223   9.658   3.384   2.769 -0.2630  0.4661  0.8094
  575MOL0     C79224   9.647   3.262   2.867  1.6320  0.2084  0.0115
  575MOL0     C79225   9.769   3.183   2.865 -0.7820 -0.8554 -0.2031
  575MOL0     C79226   9.819   3.138   2.728 -0.1697 -0.3247  0.3940
  575MOL0     C79227   9.725   3.045   2.641 -0.4101  0.0890  1.0547
  575MOL0     C79228   9.699   2.905   2.708 -0.7206  0.0357 -0.3608
  575MOL0     N79229   9.566   2.885   2.768  1.1207 -0.3888 -0.3162
  575MOL0     C79230   9.533   2.919   2.896  0.1529  0.0875  0.2141
  575MOL0     C79231   9.398   2.887   2.910 -0.3562  0.4763 -0.2136
  575MOL0     C79232   9.334   2.905   3.043  0.0669 -0.3927  0.4559
  575MOL0     C79233   9.363   3.051   3.087 -0.2864 -0.2596  0.1810
  575MOL0     C79234   9.310   3.163   2.988  0.2699  0.3510 -0.0712
  575MOL0     C79235   9.167   3.136   2.945 -1.2955  0.3071 -0.8739
  575MOL0     O79236   9.115   3.244   2.870  0.4145  0.0034  0.2452
  575MOL0     C79237   9.168   3.271   2.737 -0.3968 -0.5282  0.5515
  575MOL0     C79238   9.244   3.176   2.667 -0.0600  0.8093  0.1920
  575MOL0     C79239   9.277   3.184   2.538 -0.0767 -0.0456 -0.2981
  575MOL0     C79240   9.349   3.063   2.483  0.4410 -0.1008 -0.7284
  575MOL0     C79241   9.244   3.311   2.471 -1.2383  0.3544 -1.5841
  575MOL0     C79242   9.302   3.351   2.339 -0.8970 -0.6073  0.7539
  575MOL0     O79243   9.302   3.480   2.298  0.0282 -0.4182 -0.1285
  575MOL0     C79244   9.388   3.509   2.197  0.8800 -0.8423  0.9222
  575MOL0     C79245   9.350   3.494   2.054 -1.0732 -0.7231 -0.0749
  575MOL0     C79246   9.445   3.545   1.959  0.5970  0.0540  0.4404
  575MOL0     C79247   9.560   3.608   1.998 -0.1359  0.2504 -0.1635
  575MOL0     O79248   9.639   3.659   1.896 -0.5179  0.1688  0.4477
  575MOL0     C79249   9.769   3.721   1.905  1.0078  0.4299 -0.3200
  575MOL0     C79250   9.795   3.787   1.779 -0.1409 -0.6500 -0.0926
  575MOL0     C79251   9.693   3.893   1.749  0.4667  0.4897  0.4825
  575MOL0     C79252   9.726   3.970   1.612 -0.5859  0.5099  0.3484
  575MOL0     C79253   9.626   4.089   1.604  0.4100 -0.1403 -0.1523
  575MOL0     C79254   9.481   4.045   1.605  0.7021 -0.7575 -0.3158
  575MOL0     C79255   9.375   4.150   1.571  0.0034  0.1283 -0.5654
  575MOL0     C79256   9.391   4.240   1.439 -0.2354  0.5326  0.0475
  575MOL0    Cl79257   9.252   4.360   1.406 -0.2128 -0.1466  0.4242
  575MOL0     C79258   9.587   3.625   2.136 -0.2852  1.1444  0.6679
  575MOL0     C79259   9.505   3.570   2.235  0.7077 -0.8999 -0.2464
  575MOL0     O79260   9.360   3.263   2.266  0.4438  0.6651  0.0106
  575MOL0     C79261   9.188   3.416   2.548 -0.3211  0.1611  0.4260
  575MOL0     C79262   9.138   3.391   2.673 -0.5431  0.0594 -1.4613
  575MOL0     N79263   9.359   2.821   2.789  0.4295 -0.0047  0.1380
  575MOL0     N79264   9.462   2.819   2.710  0.6985 -0.7259 -0.1769
  575MOL0     C79265   9.612   3.794   2.477  0.5732  0.4749  0.0547
  575MOL0     C79266   9.656   3.878   2.382  1.1210  0.0813  1.2261
  575MOL0     C79267   9.900   4.047   2.066 -1.2144 -0.1703  0.1282
  575MOL0     C79268   9.810   4.146   2.035  0.1504 -0.4805  1.0582
  575MOL0     C79269   9.817   4.222   1.920  0.0780  0.4382  0.7677
  575MOL0     C79270   9.924   4.196   1.828  0.4303 -0.1102 -1.0723
  575MOL0     O79271   9.921   4.275   1.713 -0.6023 -0.0951 -0.7096
  575MOL0     C79272  10.025   4.261   1.613 -0.7402 -0.1065 -0.5014
  575MOL0     C79273  10.165   4.326   1.641  0.5917 -0.6558  0.5182
  575MOL0     C79274  10.133   4.477   1.659 -0.1875  0.2011  0.2735
  575MOL0     C79275  10.225   4.576   1.584 -0.1325  0.5847 -0.1677
  575MOL0     C79276  10.361   4.576   1.633  0.7089 -0.1601  0.8074
  575MOL0     C79277  10.478   4.559   1.661 -0.2898 -0.2610  0.6702
  575MOL0     C79278  10.025   4.110   1.871  0.0745  0.4106 -0.8564
  575MOL0     C79279  10.019   4.039   1.995 -0.1160  0.1504 -0.4855
  575MOL0     C79280  10.140   3.955   2.036 -0.5225 -0.0230 -0.2145
  575MOL0     H79281   9.960   3.948   2.509 -0.2854  1.0800  0.5649
  575MOL0     H79282   9.887   3.794   2.685 -0.6814  2.2425  2.8601
  575MOL0     H79283   9.567   3.532   2.587  0.4359 -1.9353  0.4995
  575MOL0     H79284   9.472   3.656   2.673 -0.2986  0.7018  2.8988
  575MOL0     H79285   9.570   3.536   2.890 -3.7127 -0.4651  0.8708
  575MOL0     H79286   9.454   3.436   2.794  0.3286 -0.3122  0.7820
  575MOL0     H79287   9.645   3.357   2.664  1.5852 -1.9256  1.1219
  575MOL0     H79288   9.757   3.426   2.788  1.0347 -1.3707 -1.4867
  575MOL0     H79289   9.621   3.297   2.967 -4.2529  1.1197 -1.4568
  575MOL0     H79290   9.565   3.194   2.842  1.1507 -1.0340  4.1531
  575MOL0     H79291   9.759   3.098   2.934  4.1568 -1.4002  0.2035
  575MOL0     H79292   9.843   3.254   2.903 -2.7945  2.5475 -2.2022
  575MOL0     H79293   9.834   3.226   2.665 -0.0380  0.7212  1.8284
  575MOL0     H79294   9.916   3.092   2.744  0.9309  2.3206  2.0068
  575MOL0     H79295   9.756   3.029   2.538 -1.7760  3.9056 -0.0904
  575MOL0     H79296   9.635   3.105   2.626  2.4231  4.0136 -2.2809
  575MOL0     H79297   9.706   2.831   2.628  0.0438 -0.9408  0.5782
  575MOL0     H79298   9.777   2.887   2.783 -0.5724 -3.9943 -1.2421
  575MOL0     H79299   9.599   2.957   2.974  0.2039  1.2928 -0.3906
  575MOL0     H79300   9.371   2.834   3.117 -0.9987 -0.1528  1.2345
  575MOL0     H79301   9.225   2.907   3.039  0.0578  2.6773 -0.6629
  575MOL0     H79302   9.326   3.084   3.184  1.1073  1.8518  0.0606
  575MOL0     H79303   9.471   3.067   3.094 -0.1956  0.7450 -2.2753
  575MOL0     H79304   9.322   3.264   3.029 -3.2905  1.7433 -1.9603
  575MOL0     H79305   9.370   3.169   2.896  0.2557  0.7723 -0.0555
  575MOL0     H79306   9.156   3.048   2.880  1.6748 -3.2356  2.9054
  575MOL0     H79307   9.105   3.111   3.031 -4.1699  0.5167 -2.7348
  575MOL0     H79308   9.290   3.092   2.718  0.9494  0.8548 -0.6172
  575MOL0     H79309   9.335   2.978   2.551 -1.8859 -0.4244 -1.5088
  575MOL0     H79310   9.454   3.092   2.485  0.2087  0.7495 -0.2087
  575MOL0     H79311   9.305   3.029   2.389 -2.1790 -1.9611  0.9969
  575MOL0     H79312   9.256   3.455   2.016 -2.8591  2.6224  0.5088
  575MOL0     H79313   9.425   3.520   1.856 -0.3968 -0.8293  0.8278
  575MOL0     H79314   9.762   3.796   1.984 -0.9380 -1.7604  1.7501
  575MOL0     H79315   9.847   3.654   1.941  1.0940  0.4369 -0.4924
  575MOL0     H79316   9.897   3.823   1.765  0.5555 -2.6344 -0.4017
  575MOL0     H79317   9.788   3.704   1.708  3.5934 -0.2880 -1.0685
  575MOL0     H79318   9.702   3.968   1.828 -1.3167  0.7854  0.4482
  575MOL0     H79319   9.589   3.859   1.750 -0.0197  1.8877  2.1160
  575MOL0     H79320   9.705   3.901   1.529  0.1199 -2.2624  2.3071
  575MOL0     H79321   9.823   4.019   1.604 -0.8156  0.6873 -2.8167
  575MOL0     H79322   9.633   4.147   1.696  3.3602  0.4173 -0.6459
  575MOL0     H79323   9.643   4.147   1.513 -1.7591  0.2770 -0.3538
  575MOL0     H79324   9.449   4.005   1.701 -0.8595  1.0775 -0.0038
  575MOL0     H79325   9.468   3.970   1.526 -0.8171 -1.4408  0.5497
  575MOL0     H79326   9.358   4.217   1.655  1.5185 -2.2616  1.8358
  575MOL0     H79327   9.282   4.094   1.562  1.2776 -1.8059 -3.3499
  575MOL0     H79328   9.396   4.192   1.341  2.6805  1.1906 -0.1997
  575MOL0     H79329   9.489   4.287   1.436 -0.1704  0.3973  0.0084
  575MOL0     H79330   9.681   3.671   2.166  0.4206  0.1273  0.0850
  575MOL0     H79331   9.532   3.581   2.339  3.0510  1.3907 -0.9814
  575MOL0     H79332   9.167   3.511   2.500  0.0866 -0.8568 -1.9069
  575MOL0     H79333   9.086   3.468   2.729  1.9486  2.6078 -2.4869
  575MOL0     H79334   9.507   3.766   2.483  0.8980 -0.5099  1.8087
  575MOL0     H79335   9.587   3.901   2.301  0.2600 -1.2155  1.5538
  575MOL0     H79336   9.727   4.144   2.105  0.8578 -5.8974  2.1680
  575MOL0     H79337   9.734   4.286   1.893 -1.7372 -1.5808  1.3004
  575MOL0     H79338  10.033   4.153   1.593  1.3647  0.0672 -0.8410
  575MOL0     H79339   9.995   4.308   1.519  2.3016 -0.0343 -1.5607
  575MOL0     H79340  10.244   4.315   1.566 -0.6085  1.4000 -1.1534
  575MOL0     H79341  10.207   4.294   1.737 -2.4463  2.0128  3.0128
  575MOL0     H79342  10.030   4.498   1.627 -0.7892  0.2085  2.1179
  575MOL0     H79343  10.139   4.501   1.766  1.0548  1.5507 -0.0711
  575MOL0     H79344  10.179   4.675   1.579 -3.0037 -0.7077 -1.8076
  575MOL0     H79345  10.219   4.541   1.481 -0.8576  0.1987  0.0021
  575MOL0     H79346  10.583   4.554   1.679  0.4858  1.2804 -2.6759
  575MOL0     H79347  10.117   4.100   1.816  0.5061 -0.6071  0.0109
  575MOL0     H79348  10.221   3.966   1.964  0.0470  0.3034  0.4613
  575MOL0     H79349  10.162   3.984   2.139 -0.2493 -1.1760  0.0677
  575MOL0     H79350  10.121   3.848   2.044  2.3268 -0.4417  3.8475
  576MOL0     O79351   7.351   8.341   5.898  0.0791  0.3169  0.7495
  576MOL0     C79352   7.352   8.468   5.891  0.3318  1.3627 -0.5450
  576MOL0     O79353   7.459   8.544   5.880 -1.2333  0.8965  0.5436
  576MOL0     C79354   7.581   8.487   5.920  0.8398  0.3405  0.0360
  576MOL0     C79355   7.639   8.369   5.860  0.1413 -0.5388 -0.0675
  576MOL0     C79356   7.764   8.332   5.891  0.5633  0.1320  0.4526
  576MOL0     C79357   7.840   8.406   5.984  0.6534  0.3728 -0.4694
  576MOL0     O79358   7.948   8.351   6.033  0.4712  0.6405  0.5577
  576MOL0     C79359   8.058   8.341   5.936 -0.0103  0.2410  0.6192
  576MOL0     C79360   8.147   8.214   5.958  0.7235  0.4117  0.2606
  576MOL0     C79361   8.239   8.210   6.083 -0.3207  0.4437 -0.3180
  576MOL0     C79362   8.383   8.271   6.066  0.4269  0.4383  1.2391
  576MOL0     C79363   8.476   8.227   6.178  0.6494  0.1929 -0.5271
  576MOL0     C79364   8.619   8.286   6.167 -1.2752  0.5485  1.1299
  576MOL0     C79365   8.707   8.219   6.047 -0.2321  0.0523  0.2254
  576MOL0     C79366   8.851   8.288   6.042  0.7312 -0.5080  0.4508
  576MOL0     N79367   8.937   8.240   5.926  0.1864 -0.8783 -0.6848
  576MOL0     C79368   8.977   8.116   5.896 -0.7032 -0.7504  0.0240
  576MOL0     C79369   9.048   8.120   5.782 -0.1762 -0.4777  0.8699
  576MOL0     C79370   9.121   8.009   5.709 -0.7555 -1.0232  0.0273
  576MOL0     C79371   9.269   8.041   5.678 -0.2641  0.6035  0.3457
  576MOL0     C79372   9.323   7.925   5.585  0.1228 -0.2144  0.4298
  576MOL0     C79373   9.472   7.927   5.568 -0.7020 -0.1896  0.2990
  576MOL0     O79374   9.511   8.036   5.487  0.2042  0.0254  0.7927
  576MOL0     C79375   9.580   8.000   5.372  1.0308 -1.0029 -0.5477
  576MOL0     C79376   9.697   7.934   5.395  0.6485 -0.6708  0.0815
  576MOL0     C79377   9.771   7.891   5.283  0.7766  0.1678 -0.2729
  576MOL0     C79378   9.900   7.822   5.325  0.2846 -0.0306  0.0811
  576MOL0     C79379   9.705   7.899   5.150 -0.7828 -0.0618  0.0643
  576MOL0     C79380   9.773   7.871   5.020  0.3309 -0.4631  0.4568
  576MOL0     O79381   9.703   7.889   4.897  0.0749 -0.4512 -0.6571
  576MOL0     C79382   9.754   7.856   4.777 -0.9428  0.5098 -1.4645
  576MOL0     C79383   9.760   7.952   4.670 -0.6636  0.6236 -0.2219
  576MOL0     C79384   9.825   7.911   4.547 -0.1500 -0.3468  0.6630
  576MOL0     C79385   9.893   7.785   4.531  0.6434 -0.5870  0.0447
  576MOL0     O79386   9.951   7.743   4.412  0.7919  0.5478  0.0235
  576MOL0     C79387   9.965   7.834   4.297 -0.6685 -0.6796  0.5150
  576MOL0     C79388  10.021   7.760   4.178 -1.2051 -0.4584 -0.6889
  576MOL0     C79389  10.016   7.847   4.051 -0.2966  0.2142 -0.2156
  576MOL0     C79390  10.019   7.748   3.932  0.1424 -0.8287  0.3730
  576MOL0     C79391  10.010   7.808   3.799  0.5140 -0.2257  0.9884
  576MOL0     C79392  10.004   7.690   3.702  0.3134  0.1769  1.1653
  576MOL0     C79393  10.011   7.743   3.552 -0.7901 -0.0295  0.2089
  576MOL0     C79394  10.143   7.722   3.485  0.4405  0.6205 -0.3895
  576MOL0    Cl79395  10.235   7.872   3.511 -0.4330  0.4150  0.5693
  576MOL0     C79396   9.876   7.691   4.632  0.3179  0.7006 -0.0921
  576MOL0     C79397   9.803   7.727   4.753 -0.0030 -0.1534  0.2024
  576MOL0     O79398   9.884   7.813   5.028 -0.0157 -0.4029 -0.9171
  576MOL0     C79399   9.578   7.966   5.134 -0.0070 -0.1778  0.9673
  576MOL0     C79400   9.519   8.017   5.247  0.1295 -0.4156  0.3523
  576MOL0     N79401   9.033   8.255   5.728 -0.3951  0.3184  0.4691
  576MOL0     N79402   8.965   8.319   5.817 -0.1695 -0.8288 -0.1342
  576MOL0     C79403   7.785   8.525   6.039 -0.9185  0.3406  0.1822
  576MOL0     C79404   7.658   8.569   5.997 -0.1339 -0.3560  0.1072
  576MOL0     C79405   7.216   8.541   5.883  0.7287  0.1830  0.1907
  576MOL0     C79406   7.109   8.458   5.884  0.3413 -0.2901 -0.3166
  576MOL0     C79407   6.972   8.502   5.901  0.1579  0.8222  1.4521
  576MOL0     C79408   6.948   8.633   5.899 -0.4305  0.7260 -0.1428
  576MOL0     O79409   6.809   8.660   5.883  0.1066  0.1302  0.0319
  576MOL0     C79410   6.754   8.655   5.749  0.5728 -0.3572 -1.0851
  576MOL0     C79411   6.603   8.677   5.753  0.6465  0.0577 -0.5783
  576MOL0     C79412   6.533   8.760   5.648  0.7575  0.1741 -0.1665
  576MOL0     C79413   6.492   8.900   5.694  0.2786 -0.0434  0.5037
  576MOL0     C79414   6.416   8.963   5.593 -0.4836  0.5099  0.1870
  576MOL0     C79415   6.354   9.031   5.511  0.5171  0.4310  0.9298
  576MOL0     C79416   7.055   8.726   5.890 -0.2738  0.2891  0.4384
  576MOL0     C79417   7.191   8.682   5.887 -0.4578  0.8261 -0.7635
  576MOL0     C79418   7.298   8.769   5.840 -0.2819 -0.6311  0.5116
  576MOL0     H79419   7.581   8.303   5.796  1.4549 -2.1840  0.3390
  576MOL0     H79420   7.798   8.236   5.853 -0.4889  0.7006 -2.1291
  576MOL0     H79421   8.129   8.424   5.938  3.8072 -2.5215 -2.4273
  576MOL0     H79422   8.018   8.341   5.834 -1.9356  1.5463  1.3414
  576MOL0     H79423   8.074   8.133   5.960  0.4401  0.2289 -4.5518
  576MOL0     H79424   8.201   8.181   5.869  3.5504 -2.3539  2.7810
  576MOL0     H79425   8.190   8.257   6.169  1.7041  4.2262 -1.0367
  576MOL0     H79426   8.250   8.101   6.091  0.5094  0.6119  1.2044
  576MOL0     H79427   8.428   8.240   5.972 -2.6736  0.9385 -0.5524
  576MOL0     H79428   8.364   8.378   6.059  1.7900  0.5521 -3.4265
  576MOL0     H79429   8.484   8.119   6.163  1.3738  0.1989 -0.2207
  576MOL0     H79430   8.444   8.259   6.277  3.0282 -1.3115  0.8207
  576MOL0     H79431   8.602   8.393   6.161 -0.6106  0.5666 -1.2934
  576MOL0     H79432   8.673   8.260   6.259  1.1547  0.3156 -0.2526
  576MOL0     H79433   8.652   8.235   5.954  1.0150 -2.7702 -1.1183
  576MOL0     H79434   8.714   8.110   6.056 -0.2999  0.1496  1.7113
  576MOL0     H79435   8.835   8.395   6.034 -0.3965 -0.7155 -0.3085
  576MOL0     H79436   8.903   8.275   6.138  1.8578 -3.0078 -0.3987
  576MOL0     H79437   8.962   8.024   5.952  0.8819 -0.9943  0.1182
  576MOL0     H79438   9.075   7.998   5.611 -1.9772  2.1381  0.1300
  576MOL0     H79439   9.113   7.912   5.758  1.9907 -2.6879 -2.4413
  576MOL0     H79440   9.286   8.141   5.635  2.8085  0.8397  1.8505
  576MOL0     H79441   9.331   8.046   5.768  1.9905  1.6368 -1.1426
  576MOL0     H79442   9.292   7.831   5.633 -0.2805  1.4575  3.7855
  576MOL0     H79443   9.285   7.938   5.483  2.3710 -1.6608 -0.6607
  576MOL0     H79444   9.517   7.948   5.665 -0.1836 -0.7859  0.1893
  576MOL0     H79445   9.499   7.829   5.527 -0.0548 -0.0039  0.2706
  576MOL0     H79446   9.745   7.938   5.493 -0.9158 -0.5187  0.8800
  576MOL0     H79447   9.985   7.853   5.264  0.1136 -0.8382 -0.5716
  576MOL0     H79448   9.893   7.713   5.320  1.2204 -0.2235  1.9507
  576MOL0     H79449   9.934   7.852   5.425  0.1239 -1.7319  0.6684
  576MOL0     H79450   9.721   8.053   4.676 -1.1522  0.5330 -1.5802
  576MOL0     H79451   9.831   7.976   4.460  1.1295  1.6883  2.1741
  576MOL0     H79452   9.872   7.882   4.265  0.0667  0.0633 -0.5726
  576MOL0     H79453  10.040   7.912   4.312  0.7010 -1.8949  0.2658
  576MOL0     H79454  10.129   7.755   4.193 -1.0606 -2.2291 -2.0455
  576MOL0     H79455   9.972   7.664   4.162  2.3730 -2.2289 -2.0380
  576MOL0     H79456  10.103   7.911   4.037  1.4934 -1.2370  2.9665
  576MOL0     H79457   9.922   7.902   4.043  0.4066  1.5961  0.6722
  576MOL0     H79458   9.929   7.688   3.943 -0.4460  0.3471  2.5650
  576MOL0     H79459  10.100   7.674   3.936 -0.5841 -1.8068 -1.6085
  576MOL0     H79460   9.924   7.876   3.790  1.1197  0.2760 -2.1595
  576MOL0     H79461  10.092   7.878   3.784 -0.4444  1.4029  2.8924
  576MOL0     H79462   9.909   7.638   3.713  1.3043 -2.5705 -1.8793
  576MOL0     H79463  10.078   7.612   3.721  2.8167  1.1629 -3.2523
  576MOL0     H79464   9.980   7.848   3.547  1.2356  0.6243  0.4864
  576MOL0     H79465   9.941   7.674   3.504 -0.0220 -3.5447  3.6478
  576MOL0     H79466  10.123   7.702   3.380 -0.6190 -0.1724 -0.0458
  576MOL0     H79467  10.204   7.638   3.521  0.2262  1.0125  0.9282
  576MOL0     H79468   9.917   7.590   4.624 -2.0933 -0.2829 -0.8018
  576MOL0     H79469   9.820   7.650   4.828 -2.4622 -0.7948  0.1818
  576MOL0     H79470   9.534   7.983   5.036  0.6662  0.5838  0.7814
  576MOL0     H79471   9.425   8.069   5.232 -0.6074 -1.8944 -0.3925
  576MOL0     H79472   7.846   8.576   6.113 -2.6133 -0.1262  1.9724
  576MOL0     H79473   7.639   8.668   6.036 -0.1004  1.1014 -3.1984
  576MOL0     H79474   7.118   8.350   5.875  0.2413 -0.1209 -3.9373
  576MOL0     H79475   6.882   8.442   5.910  0.4846 -0.0535 -0.5492
  576MOL0     H79476   6.809   8.729   5.689  1.9254  0.6301  1.2319
  576MOL0     H79477   6.771   8.557   5.704 -1.1030 -0.3151 -1.8806
  576MOL0     H79478   6.581   8.723   5.849  1.4466 -2.8504  1.1200
  576MOL0     H79479   6.552   8.581   5.763 -1.6465  1.4330  2.5086
  576MOL0     H79480   6.601   8.779   5.564 -0.6733 -0.3578 -1.5052
  576MOL0     H79481   6.445   8.703   5.616  2.2567 -1.9282 -0.7182
  576MOL0     H79482   6.574   8.973   5.700  1.2349 -1.0140 -0.4500
  576MOL0     H79483   6.442   8.893   5.792 -0.4575 -0.4935  0.1027
  576MOL0     H79484   6.315   9.090   5.430  3.3883 -0.8010 -1.5476
  576MOL0     H79485   7.037   8.833   5.887 -1.4877  0.0843 -0.6829
  576MOL0     H79486   7.262   8.868   5.810  0.5974 -0.7016 -0.8675
  576MOL0     H79487   7.374   8.780   5.919 -1.5350  0.4486  1.6120
  576MOL0     H79488   7.340   8.721   5.751 -2.3921 -2.2903  0.3360
  577MOL0     O79489   5.994   3.745  11.405  0.0707  0.1634 -0.0880
  577MOL0     C79490   5.986   3.779  11.526  0.6467 -0.4076 -0.7047
  577MOL0     O79491   6.089   3.800  11.607 -0.0577  0.1622 -0.1632
  577MOL0     C79492   6.209   3.845  11.545  0.6203 -0.4341 -0.5503
  577MOL0     C79493   6.289   3.767  11.462 -0.0647  0.0393  0.5155
  577MOL0     C79494   6.413   3.807  11.406 -0.3587  0.4241 -0.4813
  577MOL0     C79495   6.470   3.932  11.447  0.1928  0.3881  0.7321
  577MOL0     O79496   6.593   3.984  11.404  0.2691  0.4544  0.0151
  577MOL0     C79497   6.645   3.936  11.281  0.4260  0.3900 -0.5653
  577MOL0     C79498   6.763   4.021  11.225  0.0435  0.8644 -0.5949
  577MOL0     C79499   6.877   4.019  11.326  0.1999 -0.7684 -0.3645
  577MOL0     C79500   6.955   3.900  11.352  0.7601  0.8868 -0.6834
  577MOL0     C79501   7.084   3.914  11.436  0.6097 -0.6015 -0.4717
  577MOL0     C79502   7.156   3.787  11.446 -0.4607  0.1062 -0.0148
  577MOL0     C79503   7.221   3.740  11.317 -0.5125  0.4655 -0.1132
  577MOL0     C79504   7.358   3.803  11.270  0.8042  0.2059 -0.1083
  577MOL0     N79505   7.446   3.698  11.198  0.7253 -0.2636 -0.0342
  577MOL0     C79506   7.512   3.606  11.265  0.1242 -0.2782 -0.2325
  577MOL0     C79507   7.553   3.519  11.166  0.1864 -0.9774  0.0086
  577MOL0     C79508   7.640   3.395  11.194  0.4042  0.2244  0.4090
  577MOL0     C79509   7.794   3.415  11.178  1.2565  0.0026 -1.0242
  577MOL0     C79510   7.868   3.283  11.181 -0.2250  0.5600 -0.3306
  577MOL0     C79511   8.031   3.308  11.195  0.8231 -0.2425 -0.1228
  577MOL0     O79512   8.094   3.185  11.178  0.0503  0.0826  0.3624
  577MOL0     C79513   8.225   3.171  11.212  0.1086  0.1396  0.0056
  577MOL0     C79514   8.285   3.054  11.173  0.5896  0.7116 -0.2430
  577MOL0     C79515   8.416   3.025  11.202 -0.6772  0.2497 -1.3425
  577MOL0     C79516   8.475   2.895  11.169 -0.2309  0.7393 -0.0374
  577MOL0     C79517   8.493   3.131  11.252 -1.2318 -0.3448  0.5982
  577MOL0     C79518   8.634   3.112  11.304 -0.6299 -0.2090 -0.5801
  577MOL0     O79519   8.664   3.178  11.419  0.2392  0.1164 -0.0575
  577MOL0     C79520   8.793   3.202  11.473 -0.1146  0.1394 -0.3734
  577MOL0     C79521   8.906   3.119  11.453  0.6243  0.7184 -0.5920
  577MOL0     C79522   9.033   3.154  11.515  0.5802 -0.4068  0.1152
  577MOL0     C79523   9.036   3.268  11.600 -0.7529  1.0099 -0.7138
  577MOL0     O79524   9.163   3.298  11.651 -0.0923 -0.9746 -0.3252
  577MOL0     C79525   9.164   3.315  11.792 -0.4175  0.0374 -0.2976
  577MOL0     C79526   9.237   3.434  11.858  0.0391 -0.3822  0.5336
  577MOL0     C79527   9.371   3.462  11.790 -0.9332  0.1187  0.2342
  577MOL0     C79528   9.365   3.556  11.660 -0.4556  0.8060  0.4395
  577MOL0     C79529   9.508   3.574  11.620 -0.6401 -0.3443  0.6124
  577MOL0     C79530   9.516   3.666  11.491 -0.8197  0.3992  0.2249
  577MOL0     C79531   9.658   3.706  11.464  0.1340 -0.4905 -0.0148
  577MOL0     C79532   9.670   3.791  11.339 -0.2924  0.8118  0.9283
  577MOL0    Cl79533   9.646   3.673  11.199 -0.0229 -0.0111 -0.1600
  577MOL0     C79534   8.917   3.337  11.624  0.0261 -0.3692 -0.2401
  577MOL0     C79535   8.797   3.313  11.554 -0.0713 -0.5616 -0.1798
  577MOL0     O79536   8.714   3.041  11.238  0.0466  0.1826  0.2744
  577MOL0     C79537   8.427   3.247  11.296 -0.2103  0.5648  0.2730
  577MOL0     C79538   8.299   3.271  11.271  0.7125 -0.3384 -0.1577
  577MOL0     N79539   7.503   3.569  11.041 -0.8718 -0.2154 -0.4027
  577MOL0     N79540   7.426   3.671  11.065 -0.8147 -0.3360  0.7034
  577MOL0     C79541   6.395   4.015  11.546 -0.2283  0.7682 -0.8540
  577MOL0     C79542   6.262   3.972  11.593 -1.0471  0.4189  0.8154
  577MOL0     C79543   5.843   3.790  11.582 -0.4303  0.3674  0.0723
  577MOL0     C79544   5.729   3.758  11.497 -0.3485 -0.1914 -0.0244
  577MOL0     C79545   5.603   3.764  11.547  0.8728 -0.4249 -0.8186
  577MOL0     C79546   5.577   3.815  11.679  1.3987  0.4810  0.5088
  577MOL0     O79547   5.448   3.814  11.721  0.3785  0.7755  0.2921
  577MOL0     C79548   5.413   3.804  11.860 -0.3233 -0.2196 -0.0115
  577MOL0     C79549   5.262   3.789  11.890 -0.9883 -0.1289 -0.5876
  577MOL0     C79550   5.200   3.657  11.863  0.0558  0.5945 -0.6475
  577MOL0     C79551   5.261   3.582  11.752 -0.2592 -0.7956 -0.3222
  577MOL0     C79552   5.181   3.463  11.725  0.1416 -0.2167 -0.3639
  577MOL0     C79553   5.114   3.360  11.724 -0.4412  0.4230  0.4402
  577MOL0     C79554   5.679   3.854  11.756  0.0249 -0.6435  0.4439
  577MOL0     C79555   5.813   3.840  11.708 -0.2497  0.5448  0.7670
  577MOL0     C79556   5.910   3.916  11.792  0.2413  0.0246  0.9005
  577MOL0     H79557   6.250   3.673  11.423  0.9408  0.6039 -2.0814
  577MOL0     H79558   6.453   3.732  11.338  0.9476 -1.7887  2.5067
  577MOL0     H79559   6.566   3.922  11.207 -0.4657  1.0619  0.2525
  577MOL0     H79560   6.685   3.835  11.297  0.9911  0.5772 -0.7609
  577MOL0     H79561   6.796   3.976  11.131  1.5260 -1.8135  1.0928
  577MOL0     H79562   6.726   4.123  11.208 -0.1812  0.8266 -0.3467
  577MOL0     H79563   6.944   4.103  11.306 -0.4184  0.0820  1.0397
  577MOL0     H79564   6.828   4.042  11.421  3.3814  0.1029  1.1835
  577MOL0     H79565   6.886   3.826  11.395  0.7343 -0.1482 -2.4024
  577MOL0     H79566   6.975   3.865  11.250 -0.0035 -2.3502  0.1556
  577MOL0     H79567   7.066   3.937  11.542  2.6567 -0.6785 -0.0779
  577MOL0     H79568   7.137   3.998  11.392 -0.3008  2.4715  3.6956
  577MOL0     H79569   7.238   3.807  11.515  0.3926 -0.2765 -0.8849
  577MOL0     H79570   7.090   3.710  11.489  1.7748 -1.7247  0.3645
  577MOL0     H79571   7.151   3.749  11.233  0.7736  2.0082 -1.0760
  577MOL0     H79572   7.250   3.636  11.337  0.9076  0.8496 -0.0723
  577MOL0     H79573   7.330   3.891  11.211  2.4193 -0.6666 -2.2995
  577MOL0     H79574   7.408   3.831  11.363  2.3402 -1.2029 -0.4695
  577MOL0     H79575   7.541   3.592  11.369  0.7171  0.7941 -0.2354
  577MOL0     H79576   7.609   3.308  11.136  0.1531 -1.8199  3.4227
  577MOL0     H79577   7.629   3.369  11.299 -0.0370 -0.3577  0.2216
  577MOL0     H79578   7.817   3.460  11.082  1.3710  0.6737 -0.6895
  577MOL0     H79579   7.841   3.479  11.253  6.6931 -4.3067 -0.0968
  577MOL0     H79580   7.841   3.233  11.274  0.1921  1.2603  0.1843
  577MOL0     H79581   7.847   3.223  11.092  2.5558 -1.4425  0.2230
  577MOL0     H79582   8.053   3.379  11.114  0.5107 -1.2622 -1.1320
  577MOL0     H79583   8.058   3.355  11.290  1.2513 -1.3703  0.3217
  577MOL0     H79584   8.225   2.984  11.115  2.4685 -0.6964 -0.5808
  577MOL0     H79585   8.522   2.846  11.255 -1.1287  1.9790  1.2129
  577MOL0     H79586   8.543   2.897  11.084  0.4126 -1.4604  0.3674
  577MOL0     H79587   8.393   2.831  11.135 -2.0275  0.2875  4.4074
  577MOL0     H79588   8.905   3.031  11.390 -1.3521  0.5341 -0.3654
  577MOL0     H79589   9.123   3.094  11.507 -0.5000 -1.9409 -1.2017
  577MOL0     H79590   9.063   3.314  11.834 -0.7766 -0.6200 -1.1339
  577MOL0     H79591   9.215   3.223  11.821 -3.9455 -1.9529  0.1858
  577MOL0     H79592   9.169   3.518  11.844  2.6354  2.0131  1.4192
  577MOL0     H79593   9.248   3.418  11.965  2.9820 -0.0304  0.3706
  577MOL0     H79594   9.402   3.360  11.766 -0.2637  0.2516  0.5050
  577MOL0     H79595   9.438   3.504  11.865 -1.3685  0.1664  0.6002
  577MOL0     H79596   9.310   3.647  11.685 -2.1454  0.4662 -1.7505
  577MOL0     H79597   9.319   3.501  11.577  3.5945 -0.9915 -0.8719
  577MOL0     H79598   9.553   3.633  11.701 -1.1278 -0.5545  1.0452
  577MOL0     H79599   9.556   3.478  11.602 -1.5061 -0.6269 -0.2506
  577MOL0     H79600   9.456   3.754  11.515  0.9061  1.5812  0.3637
  577MOL0     H79601   9.475   3.619  11.401  1.2002  2.8706 -2.1418
  577MOL0     H79602   9.729   3.622  11.464  0.6065 -0.1982  3.0583
  577MOL0     H79603   9.698   3.771  11.543  1.0881  2.3217 -2.6287
  577MOL0     H79604   9.769   3.837  11.338 -0.6538  1.6249  1.4832
  577MOL0     H79605   9.596   3.871  11.334 -1.2758  0.0218  2.2282
  577MOL0     H79606   8.924   3.429  11.681  1.0969  0.8198 -2.1657
  577MOL0     H79607   8.725   3.391  11.577  1.4902  1.0855 -0.6382
  577MOL0     H79608   8.476   3.325  11.352 -4.1567  2.5370  1.3417
  577MOL0     H79609   8.249   3.363  11.299 -0.2811 -0.9943  0.2868
  577MOL0     H79610   6.459   4.092  11.588  0.9210 -0.2425 -0.6791
  577MOL0     H79611   6.205   4.032  11.664  2.2268  1.6112  2.6898
  577MOL0     H79612   5.741   3.704  11.404  1.4249 -1.2528  0.7595
  577MOL0     H79613   5.521   3.727  11.487 -1.0079 -0.9825  1.9356
  577MOL0     H79614   5.469   3.719  11.901  3.1187  1.4121 -0.9711
  577MOL0     H79615   5.445   3.899  11.903 -0.7532 -0.7224  1.4708
  577MOL0     H79616   5.211   3.859  11.823 -2.6743  0.3814  1.1589
  577MOL0     H79617   5.248   3.825  11.993 -0.0491 -0.2320 -0.4151
  577MOL0     H79618   5.201   3.593  11.951 -2.7465 -5.5717 -4.4300
  577MOL0     H79619   5.092   3.668  11.852 -0.0653 -1.3413 -1.9093
  577MOL0     H79620   5.364   3.552  11.773  0.8666  3.7559  1.9981
  577MOL0     H79621   5.275   3.644  11.663  4.9440  0.0034  0.6961
  577MOL0     H79622   5.073   3.262  11.713 -0.9760  0.9368 -3.2229
  577MOL0     H79623   5.668   3.898  11.854  2.4119  0.4081  0.2821
  577MOL0     H79624   5.851   3.990  11.847 -1.1547 -1.1687  1.0699
  577MOL0     H79625   5.964   3.857  11.866  0.3840  0.2756  0.9966
  577MOL0     H79626   5.983   3.974  11.734  2.3137 -0.1552  3.1717
  578MOL0     O79627   0.366   7.673   8.414 -0.2252 -0.0867  0.0531
  578MOL0     C79628   0.280   7.697   8.331 -0.1222 -1.1704  0.1900
  578MOL0     O79629   0.292   7.780   8.219  0.4140 -0.4384  0.2623
  578MOL0     C79630   0.402   7.867   8.207  0.5042 -0.9872  0.2470
  578MOL0     C79631   0.446   7.880   8.076  0.3949  1.1648 -0.4000
  578MOL0     C79632   0.539   7.980   8.039  0.0543  1.2773  0.4497
  578MOL0     C79633   0.610   8.051   8.138 -1.2809 -0.1675  0.4204
  578MOL0     O79634   0.704   8.145   8.113 -0.5128 -0.1221  0.1300
  578MOL0     C79635   0.734   8.180   7.976 -0.0028 -0.1960  0.1514
  578MOL0     C79636   0.834   8.298   7.974  0.5379 -0.3195  0.3352
  578MOL0     C79637   0.981   8.261   8.016  0.4831 -0.2394  0.0636
  578MOL0     C79638   1.061   8.389   8.013  0.3639 -0.0627 -0.4110
  578MOL0     C79639   1.156   8.428   7.897  0.0692  0.1183  0.1161
  578MOL0     C79640   1.277   8.350   7.914 -0.5673  0.2826  0.5410
  578MOL0     C79641   1.380   8.387   7.795 -0.3193 -0.3574  0.0208
  578MOL0     C79642   1.507   8.295   7.814 -0.5429  0.8024 -0.5602
  578MOL0     N79643   1.642   8.342   7.769  0.9921 -0.4874 -0.5352
  578MOL0     C79644   1.691   8.350   7.642 -0.4013 -0.0867  0.1288
  578MOL0     C79645   1.813   8.409   7.662 -0.1935  1.6443 -0.3835
  578MOL0     C79646   1.928   8.434   7.574 -0.2214 -0.4892 -0.1129
  578MOL0     C79647   1.913   8.546   7.473  0.3248  0.2813  0.4693
  578MOL0     C79648   1.867   8.673   7.552  0.2509 -0.1327  0.6375
  578MOL0     C79649   1.877   8.806   7.471 -0.5809 -0.6669 -0.9064
  578MOL0     O79650   2.011   8.864   7.477  0.2907 -0.3737  0.1548
  578MOL0     C79651   2.044   8.971   7.402 -0.4401  0.6757 -1.1707
  578MOL0     C79652   2.048   8.955   7.265 -0.2119 -0.4263  0.6345
  578MOL0     C79653   2.091   9.060   7.179 -1.1581  0.7946 -0.8683
  578MOL0     C79654   2.107   9.019   7.035 -0.5297 -0.6558  0.5009
  578MOL0     C79655   2.143   9.180   7.239  0.0332  0.6484 -0.5310
  578MOL0     C79656   2.199   9.303   7.167 -0.5244  0.5698 -0.2610
  578MOL0     O79657   2.211   9.421   7.247 -0.5291 -0.1817  0.0325
  578MOL0     C79658   2.286   9.524   7.192 -0.5040 -0.1099 -0.4480
  578MOL0     C79659   2.427   9.518   7.158 -0.1087 -0.7175 -0.7504
  578MOL0     C79660   2.491   9.626   7.097 -0.3942 -0.3345 -0.1551
  578MOL0     C79661   2.417   9.739   7.065  0.3435  0.6044  0.1465
  578MOL0     O79662   2.460   9.844   6.987 -0.1499  0.0325 -0.2635
  578MOL0     C79663   2.598   9.857   6.944 -0.7009  0.0603  0.2153
  578MOL0     C79664   2.681   9.918   7.055  0.2442 -0.2619  0.1372
  578MOL0     C79665   2.827   9.911   7.028 -0.3624  0.2577  0.3958
  578MOL0     C79666   2.889   9.758   7.028 -0.5331  0.5168 -0.1633
  578MOL0     C79667   3.036   9.762   6.983  0.4292  0.1504  0.2476
  578MOL0     C79668   3.055   9.816   6.843 -0.3474 -0.2035 -0.2795
  578MOL0     C79669   3.200   9.766   6.787  0.8815 -0.1828  0.0265
  578MOL0     C79670   3.249   9.848   6.671 -0.4453 -0.2899  0.2372
  578MOL0    Cl79671   3.304   9.745   6.522 -0.8624  0.0401  0.2724
  578MOL0     C79672   2.285   9.742   7.105 -0.0907 -0.5633 -0.3884
  578MOL0     C79673   2.221   9.636   7.178 -0.1006 -0.5059 -0.1866
  578MOL0     O79674   2.220   9.299   7.048  0.5530 -0.1982  0.0261
  578MOL0     C79675   2.144   9.188   7.382 -0.2741  0.5674 -0.8381
  578MOL0     C79676   2.094   9.085   7.469  0.4162  0.9057  0.7814
  578MOL0     N79677   1.830   8.446   7.796  0.0540  0.2012 -0.1342
  578MOL0     N79678   1.728   8.393   7.858  0.7769  0.2273  0.0371
  578MOL0     C79679   0.586   8.020   8.271  0.3943 -0.4446 -0.5093
  578MOL0     C79680   0.478   7.934   8.306 -1.0918 -0.3606 -0.5692
  578MOL0     C79681   0.157   7.619   8.334 -0.2277  0.6915  0.0535
  578MOL0     C79682   0.087   7.577   8.216  0.5888  0.5573  0.9150
  578MOL0     C79683  -0.022   7.484   8.234  0.7354  0.0037 -0.8185
  578MOL0     C79684  -0.073   7.440   8.358 -0.1797 -0.3468  0.6535
  578MOL0     O79685  -0.177   7.352   8.383 -0.1568 -0.1273  0.1429
  578MOL0     C79686  -0.250   7.299   8.276  0.1475 -0.3803  0.4913
  578MOL0     C79687  -0.361   7.213   8.339 -0.4425  0.3754  0.3844
  578MOL0     C79688  -0.295   7.095   8.414 -0.2364 -0.3078 -1.0782
  578MOL0     C79689  -0.405   7.003   8.463  0.1787  0.3608  0.2772
  578MOL0     C79690  -0.361   6.867   8.494  0.3828 -0.4767  0.3364
  578MOL0     C79691  -0.323   6.756   8.528  0.0391  0.3633  0.0943
  578MOL0     C79692  -0.014   7.493   8.467  0.2890  0.2554 -0.0279
  578MOL0     C79693   0.095   7.588   8.462  1.5172 -0.2345 -0.6568
  578MOL0     C79694   0.143   7.645   8.595 -0.6494 -0.2521  1.3769
  578MOL0     H79695   0.381   7.837   8.001 -0.8203  0.7363  0.8636
  578MOL0     H79696   0.560   7.988   7.933 -2.6772  4.0429 -0.0036
  578MOL0     H79697   0.650   8.209   7.913  0.1268  0.0002  0.0672
  578MOL0     H79698   0.792   8.098   7.933 -0.4246 -0.7768  0.6866
  578MOL0     H79699   0.827   8.351   7.878  2.2687 -0.3508  0.1556
  578MOL0     H79700   0.793   8.368   8.047 -1.3130  0.8947 -1.7083
  578MOL0     H79701   0.983   8.227   8.119 -1.3538  3.3962  1.4810
  578MOL0     H79702   1.025   8.184   7.952  0.4474 -0.7518  0.6481
  578MOL0     H79703   1.004   8.474   8.052  0.2794  0.3162 -1.3389
  578MOL0     H79704   1.129   8.377   8.097 -2.0455 -1.2361  1.5157
  578MOL0     H79705   1.165   8.537   7.897 -1.3806  0.2708  0.9400
  578MOL0     H79706   1.103   8.399   7.806  0.2124 -0.5600  0.2446
  578MOL0     H79707   1.325   8.369   8.010  2.4244 -1.6193 -0.4297
  578MOL0     H79708   1.251   8.244   7.910  0.5048  0.0343 -1.6378
  578MOL0     H79709   1.405   8.493   7.788 -2.2380  0.0116 -2.3446
  578MOL0     H79710   1.347   8.367   7.693  1.4685 -2.9492 -0.1340
  578MOL0     H79711   1.527   8.268   7.918  0.1814 -0.1413 -0.9310
  578MOL0     H79712   1.487   8.200   7.763  1.8242 -0.5946  0.9314
  578MOL0     H79713   1.654   8.300   7.553 -3.4520  0.8059  0.8042
  578MOL0     H79714   1.957   8.334   7.540  3.2500  0.0703  0.7788
  578MOL0     H79715   2.017   8.462   7.632 -0.9266  2.3130 -0.2380
  578MOL0     H79716   2.006   8.551   7.416 -0.7136  1.8528 -1.1911
  578MOL0     H79717   1.840   8.509   7.401  0.8313  2.5190 -1.3270
  578MOL0     H79718   1.760   8.672   7.573 -0.0199  0.7010 -0.6181
  578MOL0     H79719   1.931   8.675   7.641  1.7828 -0.0011 -0.4327
  578MOL0     H79720   1.849   8.785   7.368 -2.3717  1.4256 -0.9200
  578MOL0     H79721   1.810   8.882   7.511  1.4367  0.6724  0.1389
  578MOL0     H79722   2.015   8.863   7.218 -5.0482  1.1324  0.4899
  578MOL0     H79723   2.100   9.102   6.964 -0.5996 -0.7954  0.3427
  578MOL0     H79724   2.018   8.960   7.009 -1.7617  0.2327  2.4600
  578MOL0     H79725   2.198   8.961   7.019 -0.7095 -0.3337 -2.0360
  578MOL0     H79726   2.474   9.424   7.184  0.3098 -0.2801  0.0941
  578MOL0     H79727   2.597   9.614   7.075 -0.4145  0.5189 -0.7684
  578MOL0     H79728   2.639   9.758   6.920 -0.1602  0.3168  0.0778
  578MOL0     H79729   2.623   9.904   6.849  1.1646 -3.2412 -1.1132
  578MOL0     H79730   2.638  10.018   7.070 -1.2414 -0.5639 -1.6673
  578MOL0     H79731   2.657   9.867   7.149  0.4006  1.8987  1.4179
  578MOL0     H79732   2.886   9.968   7.100 -0.9908  0.7630  0.5192
  578MOL0     H79733   2.850   9.959   6.933 -0.2107  0.8810  0.7462
  578MOL0     H79734   2.833   9.699   6.955  1.7022  1.4924 -2.8237
  578MOL0     H79735   2.886   9.715   7.129  0.9424 -1.9501 -1.0656
  578MOL0     H79736   3.081   9.826   7.060 -0.9932 -0.4254  1.6136
  578MOL0     H79737   3.078   9.662   6.995 -0.5185 -0.1439  1.3376
  578MOL0     H79738   3.046   9.925   6.843 -0.0986 -0.1814 -0.1562
  578MOL0     H79739   2.973   9.785   6.778 -0.3456 -0.7860 -0.0083
  578MOL0     H79740   3.183   9.663   6.752 -0.8085 -2.3703  6.0313
  578MOL0     H79741   3.273   9.763   6.869 -0.9528  0.0683  1.7611
  578MOL0     H79742   3.333   9.914   6.693 -0.4179  0.4163 -1.7393
  578MOL0     H79743   3.166   9.911   6.638  0.2877 -0.4500 -2.1379
  578MOL0     H79744   2.222   9.825   7.075  0.6391  0.5387  0.9952
  578MOL0     H79745   2.118   9.649   7.210  0.4544  2.8202  0.6322
  578MOL0     H79746   2.195   9.272   7.427  0.8203 -0.9531  0.9308
  578MOL0     H79747   2.081   9.095   7.576  0.2383 -0.4641  0.9017
  578MOL0     H79748   0.649   8.064   8.348  0.0516  1.7391 -1.4259
  578MOL0     H79749   0.452   7.912   8.409  0.4407  0.9271  0.1461
  578MOL0     H79750   0.124   7.602   8.118 -3.1472  2.0642 -0.3185
  578MOL0     H79751  -0.061   7.432   8.147  1.1221 -0.5113 -0.6903
  578MOL0     H79752  -0.285   7.391   8.229 -1.9452 -1.1903  0.3493
  578MOL0     H79753  -0.193   7.236   8.207  0.8030  0.8842 -0.1542
  578MOL0     H79754  -0.426   7.178   8.258 -1.5620  1.4395  0.7935
  578MOL0     H79755  -0.424   7.277   8.401  0.7640  3.2381 -1.1421
  578MOL0     H79756  -0.229   7.045   8.343  0.5647  0.7592 -1.1052
  578MOL0     H79757  -0.238   7.132   8.499 -0.1692 -1.9202 -0.3930
  578MOL0     H79758  -0.487   6.989   8.392 -1.0577  1.1887  1.5044
  578MOL0     H79759  -0.453   7.049   8.549 -0.1740 -0.1335  0.3488
  578MOL0     H79760  -0.285   6.659   8.552 -0.1092  0.2377 -0.1729
  578MOL0     H79761  -0.047   7.447   8.560 -1.3927 -1.0113 -1.1949
  578MOL0     H79762   0.052   7.681   8.645 -1.6795 -0.7697 -0.0628
  578MOL0     H79763   0.199   7.572   8.654  1.4473  0.4661  0.3592
  578MOL0     H79764   0.214   7.727   8.583 -1.8845  0.6314 -0.3277
  579MOL0     O79765   5.976   3.927   1.668  0.1189  0.1750  0.8813
  579MOL0     C79766   6.026   3.941   1.553 -0.4734 -0.1087  0.0842
  579MOL0     O79767   5.952   3.972   1.437  0.4055 -0.2472 -0.2830
  579MOL0     C79768   5.816   3.967   1.448  0.7959  0.8697 -0.2494
  579MOL0     C79769   5.753   3.848   1.497 -0.5047  0.3104  0.6613
  579MOL0     C79770   5.617   3.824   1.475 -0.7640  0.0498 -0.3276
  579MOL0     C79771   5.536   3.921   1.412  0.2031 -0.3813 -0.1487
  579MOL0     O79772   5.405   3.889   1.383  0.1081 -0.3279  0.1290
  579MOL0     C79773   5.310   3.999   1.343  0.4208  0.4364 -0.1137
  579MOL0     C79774   5.176   3.933   1.321 -0.3029  0.2717 -0.4172
  579MOL0     C79775   5.077   4.043   1.313 -0.0083 -0.3935 -0.2174
  579MOL0     C79776   4.935   3.988   1.289  0.6795  0.5821  0.3273
  579MOL0     C79777   4.849   4.124   1.285 -0.2613 -0.1328  0.5506
  579MOL0     C79778   4.764   4.174   1.398  0.3555  0.4636  0.0766
  579MOL0     C79779   4.852   4.213   1.519  0.5561  0.4556  0.7916
  579MOL0     C79780   4.774   4.260   1.637 -0.2756 -0.5595  0.4132
  579MOL0     N79781   4.868   4.294   1.747 -0.3934  0.5729  0.9805
  579MOL0     C79782   4.919   4.207   1.833  0.2896 -0.4578 -1.1097
  579MOL0     C79783   5.014   4.283   1.906 -0.5175 -0.3051  0.4571
  579MOL0     C79784   5.110   4.232   2.018  0.3899 -0.1988 -0.0199
  579MOL0     C79785   5.141   4.347   2.123  0.5692  0.3433 -0.4065
  579MOL0     C79786   5.263   4.426   2.088  0.4618  0.0218 -0.6433
  579MOL0     C79787   5.288   4.525   2.196 -0.5540  0.1555  0.4518
  579MOL0     O79788   5.412   4.598   2.182 -0.0123  0.0653 -0.2903
  579MOL0     C79789   5.456   4.653   2.292  0.2822  0.1847 -0.1331
  579MOL0     C79790   5.399   4.764   2.361 -0.1979  0.1390 -0.0145
  579MOL0     C79791   5.459   4.813   2.485 -0.5472  0.1438  0.6960
  579MOL0     C79792   5.373   4.912   2.569 -0.4155 -0.1657 -0.3846
  579MOL0     C79793   5.581   4.755   2.530 -0.1793 -0.0256 -0.3571
  579MOL0     C79794   5.649   4.794   2.660  0.7627 -0.1921 -0.6461
  579MOL0     O79795   5.714   4.690   2.724  0.4657 -0.4910 -0.3669
  579MOL0     C79796   5.787   4.713   2.833  0.2416 -0.2890  0.1110
  579MOL0     C79797   5.763   4.798   2.935 -0.1963 -0.0564 -0.5302
  579MOL0     C79798   5.856   4.814   3.042  0.5691 -0.3532 -0.6121
  579MOL0     C79799   5.976   4.746   3.041  0.2165 -0.2209 -0.1828
  579MOL0     O79800   6.067   4.757   3.146 -0.6080 -0.4564  0.2343
  579MOL0     C79801   6.048   4.853   3.250 -0.3152 -0.1075  1.0824
  579MOL0     C79802   6.164   4.858   3.348 -1.1179  0.5719  0.9623
  579MOL0     C79803   6.139   4.746   3.446 -0.3724 -1.5222  0.5267
  579MOL0     C79804   6.261   4.714   3.534 -0.3786 -0.1161  0.2315
  579MOL0     C79805   6.232   4.659   3.679  0.6113 -0.1014 -0.3531
  579MOL0     C79806   6.345   4.557   3.721  0.4371 -0.8698  0.1336
  579MOL0     C79807   6.488   4.611   3.710 -0.8020 -0.5284 -0.3052
  579MOL0     C79808   6.531   4.719   3.815  0.2129  0.4376 -0.5740
  579MOL0    Cl79809   6.712   4.741   3.809 -0.0113 -0.1617  0.3558
  579MOL0     C79810   6.007   4.657   2.938 -0.4248 -0.7900  0.1236
  579MOL0     C79811   5.910   4.639   2.839  0.4378 -0.3347 -0.3975
  579MOL0     O79812   5.631   4.907   2.708  0.2690  0.4633  0.8035
  579MOL0     C79813   5.641   4.655   2.447 -0.0008 -0.4303  0.3898
  579MOL0     C79814   5.573   4.595   2.338 -0.3202 -0.2353  0.7643
  579MOL0     N79815   5.018   4.406   1.847 -0.6753 -1.1007 -0.1310
  579MOL0     N79816   4.941   4.407   1.751  0.1916  0.3442  0.2086
  579MOL0     C79817   5.592   4.043   1.375 -0.0523  0.1222  1.6373
  579MOL0     C79818   5.734   4.064   1.386 -0.0756 -1.4027  0.0142
  579MOL0     C79819   6.168   3.937   1.535  0.4051 -0.0106  0.0043
  579MOL0     C79820   6.224   3.960   1.406 -0.5832  0.2469  0.0460
  579MOL0     C79821   6.353   3.950   1.380 -0.2783  0.4167  0.2207
  579MOL0     C79822   6.443   3.912   1.477  0.6803  0.1484  0.2754
  579MOL0     O79823   6.579   3.889   1.469 -0.1199 -0.0112 -0.1831
  579MOL0     C79824   6.647   3.909   1.345  0.5139  0.4830 -0.4521
  579MOL0     C79825   6.796   3.918   1.369 -1.0432  0.1017  0.3560
  579MOL0     C79826   6.832   4.029   1.473  0.2152  0.5619  0.8162
  579MOL0     C79827   6.983   4.055   1.488  0.2451 -0.1704 -0.8439
  579MOL0     C79828   7.049   3.922   1.500 -1.2346 -0.0252  0.0834
  579MOL0     C79829   7.107   3.815   1.512 -0.4425  0.0494 -0.3882
  579MOL0     C79830   6.400   3.912   1.608  0.8348 -0.5837  0.1869
  579MOL0     C79831   6.264   3.919   1.643 -0.4658 -0.0606  0.9659
  579MOL0     C79832   6.225   3.898   1.783  0.5046 -0.8191 -0.5505
  579MOL0     H79833   5.805   3.770   1.553 -0.5720 -1.4108 -1.5452
  579MOL0     H79834   5.574   3.728   1.504  0.0917 -0.7380 -1.5479
  579MOL0     H79835   5.350   4.050   1.255 -5.2739  3.8080 -1.1733
  579MOL0     H79836   5.308   4.080   1.416  1.5343  2.4461 -2.1693
  579MOL0     H79837   5.175   3.869   1.232  0.9738 -0.9992  0.4317
  579MOL0     H79838   5.150   3.858   1.397 -1.3020 -0.3967 -1.3779
  579MOL0     H79839   5.081   4.106   1.403  2.1150 -1.6141  0.6279
  579MOL0     H79840   5.113   4.103   1.228  5.7943 -1.6810  0.8606
  579MOL0     H79841   4.922   3.933   1.195 -4.8652  2.7518 -0.6086
  579MOL0     H79842   4.909   3.911   1.362 -1.9116  1.3522  0.3453
  579MOL0     H79843   4.783   4.117   1.198  0.4028  0.7917 -0.0448
  579MOL0     H79844   4.911   4.208   1.250 -0.5280 -0.6206 -1.1956
  579MOL0     H79845   4.713   4.265   1.367  2.6571  1.6093 -0.5523
  579MOL0     H79846   4.695   4.096   1.433 -0.6426  1.2792 -0.0303
  579MOL0     H79847   4.934   4.283   1.503  0.5890  0.8062  2.3215
  579MOL0     H79848   4.904   4.122   1.547  1.7025  1.0563  0.6666
  579MOL0     H79849   4.710   4.346   1.616  2.2423  1.6960  1.4647
  579MOL0     H79850   4.709   4.184   1.682  2.3868 -2.9766  0.4113
  579MOL0     H79851   4.898   4.101   1.842 -0.8166 -0.1931 -0.5219
  579MOL0     H79852   5.203   4.187   1.980 -0.2899 -2.3559  0.7252
  579MOL0     H79853   5.067   4.140   2.059 -0.0426 -1.1009 -2.3159
  579MOL0     H79854   5.051   4.409   2.125  0.0871 -0.3152 -1.2266
  579MOL0     H79855   5.139   4.304   2.224 -0.4935  1.8366  0.2438
  579MOL0     H79856   5.348   4.356   2.083 -0.6902 -1.4427 -0.4285
  579MOL0     H79857   5.254   4.481   1.995  0.4964 -0.2920 -0.8356
  579MOL0     H79858   5.209   4.601   2.201  0.0387  0.7089  2.9503
  579MOL0     H79859   5.284   4.471   2.291  0.8522  0.6213  0.7878
  579MOL0     H79860   5.309   4.813   2.325 -1.5992  0.4594  3.5397
  579MOL0     H79861   5.415   5.013   2.558  1.7983 -1.1820 -1.9051
  579MOL0     H79862   5.368   4.895   2.676  3.6949  2.7414  0.5118
  579MOL0     H79863   5.273   4.917   2.525 -0.0098 -1.2508 -1.4734
  579MOL0     H79864   5.670   4.852   2.940 -0.2451  0.3209 -3.4508
  579MOL0     H79865   5.823   4.879   3.122  1.7225 -0.1526 -0.2919
  579MOL0     H79866   6.047   4.950   3.200  0.0134  0.4476  2.1134
  579MOL0     H79867   5.956   4.837   3.308  0.0092  0.3294  1.7275
  579MOL0     H79868   6.261   4.846   3.299 -1.3834 -1.2389  0.8039
  579MOL0     H79869   6.179   4.955   3.395  1.4745  0.2942  0.8374
  579MOL0     H79870   6.099   4.652   3.406 -0.6138 -2.0710  1.9874
  579MOL0     H79871   6.064   4.788   3.514 -0.2137  4.4178 -2.3261
  579MOL0     H79872   6.323   4.804   3.528 -0.0170 -0.4197 -0.8003
  579MOL0     H79873   6.321   4.636   3.487 -0.5154 -0.9459  1.3889
  579MOL0     H79874   6.236   4.746   3.745  0.0433  0.4738 -1.0611
  579MOL0     H79875   6.132   4.614   3.684 -0.8086  2.8154 -0.5898
  579MOL0     H79876   6.340   4.473   3.650 -0.0276  0.0509 -0.9440
  579MOL0     H79877   6.309   4.522   3.819 -2.9023  0.0257 -0.6455
  579MOL0     H79878   6.506   4.660   3.614 -2.0706 -3.2396 -2.0553
  579MOL0     H79879   6.560   4.529   3.720  2.6158  2.1393 -1.0781
  579MOL0     H79880   6.506   4.671   3.910  3.1964 -0.4245 -0.0955
  579MOL0     H79881   6.475   4.812   3.799  0.5514  0.9294  0.9345
  579MOL0     H79882   6.098   4.598   2.944  1.3508  1.6793 -1.0377
  579MOL0     H79883   5.926   4.562   2.764 -1.2545 -0.1638 -0.9765
  579MOL0     H79884   5.734   4.606   2.474 -0.1714  0.3688  2.6906
  579MOL0     H79885   5.617   4.516   2.280 -2.7994 -0.7337 -0.6024
  579MOL0     H79886   5.533   4.114   1.318  0.1040 -1.7451 -1.0370
  579MOL0     H79887   5.771   4.161   1.353 -0.3994 -1.5634 -0.8636
  579MOL0     H79888   6.169   4.006   1.324 -0.2090  0.1727 -0.2479
  579MOL0     H79889   6.403   3.966   1.285  1.8643 -0.4663  1.1356
  579MOL0     H79890   6.620   3.827   1.278 -0.2417  1.8371 -1.8842
  579MOL0     H79891   6.611   3.999   1.293  1.0215 -0.0453 -1.7776
  579MOL0     H79892   6.847   3.935   1.274  2.9695 -2.4240  1.8161
  579MOL0     H79893   6.836   3.822   1.402 -0.5148 -0.3351 -1.4298
  579MOL0     H79894   6.790   4.125   1.441 -2.2241 -0.1264  1.7039
  579MOL0     H79895   6.771   4.009   1.561 -3.8924  3.5496 -1.0395
  579MOL0     H79896   6.996   4.120   1.575 -2.9670  1.9247 -1.8015
  579MOL0     H79897   7.018   4.115   1.404  3.6049  1.6850  1.6244
  579MOL0     H79898   7.153   3.719   1.512 -1.9466 -0.7614  1.8076
  579MOL0     H79899   6.477   3.906   1.684 -0.3893 -2.0979  1.3856
  579MOL0     H79900   6.305   3.857   1.847 -1.1477 -1.4075  1.2362
  579MOL0     H79901   6.175   3.982   1.831  1.0273 -1.9330  2.1266
  579MOL0     H79902   6.151   3.818   1.784 -0.0689 -0.2941 -0.8001
  580MOL0     O79903   1.611   9.313   2.438 -0.2113 -0.3442 -0.2829
  580MOL0     C79904   1.500   9.283   2.485 -0.4014 -0.4168  0.1515
  580MOL0     O79905   1.397   9.374   2.499  0.1889  0.2083  0.5445
  580MOL0     C79906   1.393   9.487   2.415 -0.4473 -0.0539 -0.3498
  580MOL0     C79907   1.450   9.610   2.463 -0.3151  0.9143  0.2828
  580MOL0     C79908   1.471   9.719   2.375 -0.1281  0.7079  0.2864
  580MOL0     C79909   1.444   9.710   2.241  0.4122  0.3312 -0.3915
  580MOL0     O79910   1.487   9.799   2.148  0.5259 -0.1997  0.0033
  580MOL0     C79911   1.586   9.896   2.183  0.6377  0.1250  0.4243
  580MOL0     C79912   1.671   9.925   2.061  0.1127 -0.0549 -1.6040
  580MOL0     C79913   1.590  10.020   1.965 -0.5308 -0.4959  0.6819
  580MOL0     C79914   1.687  10.089   1.869 -0.2110 -0.9549  0.3886
  580MOL0     C79915   1.630  10.163   1.745  0.2049 -0.1258  0.9331
  580MOL0     C79916   1.563  10.292   1.788  0.2834  0.8527  0.0955
  580MOL0     C79917   1.508  10.367   1.673  0.4998  0.2830  0.1011
  580MOL0     C79918   1.483  10.510   1.715  0.1013 -0.3834 -0.6789
  580MOL0     N79919   1.605  10.587   1.716  0.2183 -0.1171  0.0606
  580MOL0     C79920   1.687  10.613   1.828 -0.6482 -0.1220 -0.0507
  580MOL0     C79921   1.786  10.688   1.787 -0.4029 -0.4933  1.0458
  580MOL0     C79922   1.888  10.748   1.877 -1.1982  0.4208 -0.4794
  580MOL0     C79923   1.828  10.860   1.969 -0.0312 -0.9474  0.2003
  580MOL0     C79924   1.941  10.950   2.025 -0.0918 -0.4489 -0.2471
  580MOL0     C79925   1.899  11.045   2.146 -0.2682  0.4567 -0.9697
  580MOL0     O79926   1.859  10.975   2.266  0.6474 -0.2635 -0.7394
  580MOL0     C79927   1.730  10.929   2.287  0.4769 -0.9348 -0.4660
  580MOL0     C79928   1.709  10.823   2.377  0.4309 -0.1091 -0.2161
  580MOL0     C79929   1.590  10.764   2.398  0.4434 -0.1788 -0.1288
  580MOL0     C79930   1.593  10.652   2.496 -0.1608  0.1661  0.4305
  580MOL0     C79931   1.469  10.807   2.332 -0.8212 -1.2909 -0.5117
  580MOL0     C79932   1.336  10.740   2.343 -1.0628  0.3991 -0.5015
  580MOL0     O79933   1.239  10.801   2.269 -0.0053  0.3320  0.4162
  580MOL0     C79934   1.106  10.750   2.270 -0.2759 -0.0723  0.7636
  580MOL0     C79935   1.063  10.615   2.300 -0.0947 -0.4147 -0.4094
  580MOL0     C79936   0.928  10.591   2.307 -0.0636  0.2259 -0.0552
  580MOL0     C79937   0.832  10.686   2.294  0.8483  0.5704  0.6048
  580MOL0     O79938   0.700  10.661   2.317 -0.0829  0.2978  1.0733
  580MOL0     C79939   0.621  10.628   2.198 -0.0321 -0.7057 -0.1717
  580MOL0     C79940   0.583  10.474   2.197 -0.3687  0.5026  0.7825
  580MOL0     C79941   0.695  10.392   2.136 -0.0717 -0.0572  0.3016
  580MOL0     C79942   0.712  10.247   2.205  0.3517  0.3765 -0.1804
  580MOL0     C79943   0.796  10.165   2.113 -0.5249  0.1275 -0.2066
  580MOL0     C79944   0.944  10.196   2.102  0.0564 -0.4540  0.8338
  580MOL0     C79945   1.025  10.101   2.012 -0.6577  1.2885 -0.2670
  580MOL0     C79946   1.172  10.128   1.989 -0.4084  0.0979  0.0678
  580MOL0    Cl79947   1.194  10.273   1.909  0.1481 -0.3562 -0.0454
  580MOL0     C79948   0.866  10.819   2.266  0.5950  0.6297  0.3121
  580MOL0     C79949   1.007  10.852   2.244  0.5409 -0.1066 -0.0995
  580MOL0     O79950   1.326  10.640   2.409  0.4365  0.9025  0.3903
  580MOL0     C79951   1.487  10.926   2.251  0.3710  0.6433  0.4182
  580MOL0     C79952   1.611  10.981   2.237 -0.5835  0.3492 -0.4472
  580MOL0     N79953   1.763  10.712   1.649  0.0750  0.1573  0.1276
  580MOL0     N79954   1.665  10.647   1.611  0.2832  1.3201 -0.1445
  580MOL0     C79955   1.373   9.597   2.197 -0.9843 -0.4310 -0.1077
  580MOL0     C79956   1.345   9.486   2.281  0.0721  0.2802 -0.0276
  580MOL0     C79957   1.490   9.153   2.561  0.2707 -1.3571 -0.2587
  580MOL0     C79958   1.565   9.040   2.517  1.3824 -0.0399 -0.0261
  580MOL0     C79959   1.563   8.921   2.590  0.1562  0.5970 -0.3121
  580MOL0     C79960   1.497   8.908   2.705 -0.6376  0.5853 -0.2154
  580MOL0     O79961   1.511   8.784   2.758 -0.5838  0.3565 -0.1490
  580MOL0     C79962   1.419   8.733   2.864 -0.4117 -1.0386  0.2399
  580MOL0     C79963   1.476   8.606   2.923  0.3703 -0.6489  0.4873
  580MOL0     C79964   1.401   8.583   3.064 -0.4078 -0.3820  0.6425
  580MOL0     C79965   1.494   8.515   3.170 -0.2172 -1.0561  0.3183
  580MOL0     C79966   1.444   8.470   3.297  0.9335 -0.2967 -0.0479
  580MOL0     C79967   1.401   8.417   3.403 -0.5340  0.9885  0.2516
  580MOL0     C79968   1.430   9.018   2.761  1.8971  0.6906 -0.4896
  580MOL0     C79969   1.425   9.141   2.692 -0.6820 -0.3032  0.0833
  580MOL0     C79970   1.342   9.250   2.760  0.2380 -0.1528  0.7068
  580MOL0     H79971   1.499   9.624   2.559  2.9990  0.2358 -1.1657
  580MOL0     H79972   1.515   9.808   2.420 -0.6541  1.6070 -0.9222
  580MOL0     H79973   1.653   9.860   2.261 -0.3828  0.0558  1.2951
  580MOL0     H79974   1.531   9.986   2.213 -0.5283 -0.1666 -0.7143
  580MOL0     H79975   1.759   9.977   2.098  0.0678 -1.2660  0.4031
  580MOL0     H79976   1.691   9.832   2.007 -1.3379 -0.3437 -1.6835
  580MOL0     H79977   1.512   9.965   1.912 -0.4624  1.0877 -1.1873
  580MOL0     H79978   1.537  10.101   2.016  2.9891  1.2353  1.9218
  580MOL0     H79979   1.739  10.165   1.927  2.1760 -2.1340 -0.1131
  580MOL0     H79980   1.757  10.014   1.833  0.8517  0.9021 -1.6556
  580MOL0     H79981   1.571  10.093   1.686  1.9129 -1.3144  0.5531
  580MOL0     H79982   1.716  10.189   1.683  0.0722 -0.5259  0.5802
  580MOL0     H79983   1.479  10.286   1.858 -0.4449 -0.1420 -0.8301
  580MOL0     H79984   1.640  10.354   1.835 -2.6585  2.2750  3.5119
  580MOL0     H79985   1.413  10.317   1.653 -0.8403  1.0578  3.6785
  580MOL0     H79986   1.577  10.368   1.589 -0.8445 -0.9285 -1.0625
  580MOL0     H79987   1.410  10.565   1.656  0.5954  2.7749  1.4046
  580MOL0     H79988   1.435  10.510   1.813 -1.2376  0.8833 -1.3065
  580MOL0     H79989   1.670  10.593   1.934 -2.0225 -0.9214 -0.3992
  580MOL0     H79990   1.962  10.795   1.813 -1.6789 -0.4318 -1.6944
  580MOL0     H79991   1.935  10.670   1.938  0.5748  0.5450 -1.6336
  580MOL0     H79992   1.755  10.920   1.914  0.3556  1.0856  1.8137
  580MOL0     H79993   1.777  10.809   2.053 -0.8622 -1.2722 -0.4842
  580MOL0     H79994   2.019  10.885   2.067  1.3886  0.7221 -1.0687
  580MOL0     H79995   1.982  11.010   1.944  0.1910 -0.9540 -0.4799
  580MOL0     H79996   1.987  11.107   2.167  0.9317 -1.1086 -1.2109
  580MOL0     H79997   1.813  11.108   2.120 -2.4174 -2.4038 -1.2051
  580MOL0     H79998   1.801  10.794   2.426  1.8181 -0.5099 -2.8333
  580MOL0     H79999   1.678  10.677   2.560  0.5639 -0.5245 -0.2299
  580MOL0     H80000   1.614  10.558   2.445 -2.6714  0.1331 -0.6421
  580MOL0     H80001   1.504  10.649   2.558  1.0781  0.0411  2.2672
  580MOL0     H80002   1.142  10.541   2.313 -1.2420 -1.3707  1.6951
  580MOL0     H80003   0.903  10.490   2.338  1.9029 -1.0118 -2.2161
  580MOL0     H80004   0.530  10.687   2.186  2.0979  2.3954 -2.9296
  580MOL0     H80005   0.667  10.657   2.103 -1.4716  2.4812 -0.0080
  580MOL0     H80006   0.544  10.425   2.287 -0.7953 -0.9243 -0.1414
  580MOL0     H80007   0.504  10.469   2.121 -2.3123 -0.2670  2.7257
  580MOL0     H80008   0.788  10.449   2.147  2.1979 -3.5857  0.9511
  580MOL0     H80009   0.670  10.375   2.031  0.4285 -0.0689  0.1842
  580MOL0     H80010   0.613  10.200   2.207  0.5725 -0.2099 -1.6567
  580MOL0     H80011   0.760  10.262   2.302  0.8542 -1.9685  0.0098
  580MOL0     H80012   0.796  10.068   2.163 -1.5437  1.3525  2.3452
  580MOL0     H80013   0.748  10.153   2.016 -0.2151  0.3405 -0.3908
  580MOL0     H80014   0.994  10.203   2.199 -0.8516  0.7508  1.2346
  580MOL0     H80015   0.952  10.302   2.077  1.4504 -0.8723 -0.7266
  580MOL0     H80016   0.979  10.096   1.912  0.3641  2.0437 -0.7889
  580MOL0     H80017   1.030  10.000   2.052  2.6883  0.9517 -1.2597
  580MOL0     H80018   1.222  10.045   1.937 -2.0876 -1.1074  0.2730
  580MOL0     H80019   1.216  10.132   2.088 -0.2034  2.3699 -0.0573
  580MOL0     H80020   0.791  10.897   2.260 -0.3713 -0.1287  2.0215
  580MOL0     H80021   1.041  10.954   2.229  1.1142 -0.2230  0.3662
  580MOL0     H80022   1.407  10.977   2.197  1.2331  1.9392  0.3223
  580MOL0     H80023   1.623  11.065   2.169  2.1135  0.9492  0.6078
  580MOL0     H80024   1.350   9.578   2.093  0.5625  0.1000 -0.5768
  580MOL0     H80025   1.286   9.405   2.240  0.7090 -1.4295  2.2637
  580MOL0     H80026   1.631   9.046   2.431  0.1362  1.9862 -0.8995
  580MOL0     H80027   1.617   8.835   2.551  1.6584  0.4972  1.8202
  580MOL0     H80028   1.413   8.811   2.941 -0.9004  0.0210 -0.8400
  580MOL0     H80029   1.321   8.716   2.816 -0.0929  1.8416 -1.6631
  580MOL0     H80030   1.583   8.623   2.938  0.9506 -2.2667 -1.2838
  580MOL0     H80031   1.477   8.518   2.857 -1.7679 -1.7354  1.8009
  580MOL0     H80032   1.372   8.681   3.102  0.9735 -0.1716  1.2318
  580MOL0     H80033   1.320   8.514   3.039 -1.3888  1.2671 -0.9972
  580MOL0     H80034   1.578   8.580   3.198 -2.0404  1.2128  0.8360
  580MOL0     H80035   1.527   8.423   3.122 -2.6232 -0.4198 -2.8429
  580MOL0     H80036   1.388   8.376   3.501 -3.2109  2.0209  0.4122
  580MOL0     H80037   1.381   9.002   2.856  1.1401 -0.1701 -1.0054
  580MOL0     H80038   1.236   9.226   2.745  0.8197 -1.7583 -1.2923
  580MOL0     H80039   1.344   9.258   2.869  2.2139  2.1063  0.5845
  580MOL0     H80040   1.376   9.349   2.727 -3.1010 -0.0626 -3.4638
  581MOL0     O80041   9.000   5.411   8.284  0.0324  0.4323  0.0300
  581MOL0     C80042   8.896   5.477   8.260 -0.3747  0.8588  0.0335
  581MOL0     O80043   8.890   5.561   8.157  0.0212  0.1830 -0.5820
  581MOL0     C80044   9.013   5.619   8.111  0.2490  0.7234  0.2441
  581MOL0     C80045   9.107   5.550   8.042  0.3269  0.4110  0.2715
  581MOL0     C80046   9.229   5.599   7.994  0.5425 -0.8756  0.1546
  581MOL0     C80047   9.259   5.731   8.022  0.5434 -0.3991  0.0593
  581MOL0     O80048   9.382   5.788   7.964 -0.4929 -0.1290 -0.8843
  581MOL0     C80049   9.427   5.738   7.839 -0.2405  0.0831 -0.8881
  581MOL0     C80050   9.516   5.837   7.761  0.0005 -0.2381 -0.2194
  581MOL0     C80051   9.665   5.827   7.792  0.0592 -0.1501 -0.0694
  581MOL0     C80052   9.756   5.918   7.708  0.5877  0.0560  0.1511
  581MOL0     C80053   9.723   6.076   7.734  0.4472  0.1581 -1.1359
  581MOL0     C80054   9.781   6.172   7.631  0.1903 -0.1266  1.0276
  581MOL0     C80055   9.797   6.319   7.685 -0.2194 -0.3008  0.3194
  581MOL0     C80056   9.813   6.425   7.576  0.5453  0.1432  0.1679
  581MOL0     N80057   9.938   6.427   7.502  0.4084  0.1549  0.1784
  581MOL0     C80058  10.044   6.510   7.526 -0.0316  0.4479  0.1260
  581MOL0     C80059  10.136   6.474   7.438 -0.3569 -0.6737  1.3833
  581MOL0     C80060  10.275   6.521   7.414  0.1682 -0.3118  0.1346
  581MOL0     C80061  10.311   6.531   7.263  0.0473 -0.0044 -0.6779
  581MOL0     C80062  10.360   6.394   7.211  0.5536  0.0950 -0.7818
  581MOL0     C80063  10.489   6.418   7.126  0.2536  0.8495  0.4714
  581MOL0     O80064  10.595   6.469   7.217 -0.4551 -0.1480  1.1019
  581MOL0     C80065  10.710   6.518   7.159  0.1058  0.1446  0.3274
  581MOL0     C80066  10.772   6.456   7.053  0.0748 -0.0612 -0.6848
  581MOL0     C80067  10.882   6.511   6.995  0.5538  0.1630 -0.0426
  581MOL0     C80068  10.940   6.445   6.866  0.2401 -0.4798  0.0781
  581MOL0     C80069  10.942   6.626   7.046 -0.5144 -0.2884 -0.4779
  581MOL0     C80070  11.075   6.679   7.005  0.7353 -0.7673  0.2825
  581MOL0     O80071  11.157   6.573   6.963  0.3831 -0.5543 -0.7591
  581MOL0     C80072  11.255   6.603   6.867  0.8529  0.3072  0.4607
  581MOL0     C80073  11.225   6.665   6.745 -0.4174 -0.7568  0.4849
  581MOL0     C80074  11.326   6.682   6.652 -0.2165  0.4338  0.4967
  581MOL0     C80075  11.456   6.625   6.677 -0.0437 -0.3060 -0.3588
  581MOL0     O80076  11.557   6.637   6.589 -0.2521 -0.0598 -0.0414
  581MOL0     C80077  11.592   6.769   6.532  0.0155 -0.0939  0.0403
  581MOL0     C80078  11.733   6.762   6.477 -1.1195 -0.1085  1.1537
  581MOL0     C80079  11.838   6.770   6.589  0.9312 -0.0091 -0.5558
  581MOL0     C80080  11.980   6.719   6.543 -0.3059 -0.6344  0.2926
  581MOL0     C80081  12.101   6.808   6.588  0.0534 -0.0753  0.5612
  581MOL0     C80082  12.233   6.746   6.547  0.4406 -0.3010 -0.2409
  581MOL0     C80083  12.254   6.731   6.392 -0.0799 -0.1067  0.7604
  581MOL0     C80084  12.390   6.700   6.335 -0.2581 -0.0846 -0.4632
  581MOL0    Cl80085  12.386   6.633   6.167 -0.1527 -0.0679 -0.2972
  581MOL0     C80086  11.479   6.551   6.791 -0.3897  0.3374  0.5173
  581MOL0     C80087  11.377   6.540   6.892 -0.4016  0.3925 -0.3421
  581MOL0     O80088  11.094   6.803   7.005 -0.2580  0.6448  0.1165
  581MOL0     C80089  10.872   6.691   7.149 -0.0600  0.3002 -0.4843
  581MOL0     C80090  10.755   6.644   7.204 -0.0434 -0.2484  0.2384
  581MOL0     N80091  10.093   6.361   7.372  0.1343 -0.5141 -0.1951
  581MOL0     N80092   9.974   6.336   7.411  0.4759 -0.5515 -0.3995
  581MOL0     C80093   9.159   5.811   8.084  0.5269  0.5560 -0.4008
  581MOL0     C80094   9.038   5.752   8.135 -0.2842 -0.5648 -0.1711
  581MOL0     C80095   8.766   5.458   8.332 -0.2043  0.2400  0.2184
  581MOL0     C80096   8.641   5.479   8.269  0.0810 -0.2946  0.2651
  581MOL0     C80097   8.523   5.489   8.335  0.3647  0.1096 -0.0923
  581MOL0     C80098   8.519   5.461   8.468  0.1493 -0.9551 -0.1481
  581MOL0     O80099   8.398   5.444   8.534  0.0421 -0.0568 -0.1448
  581MOL0     C80100   8.289   5.534   8.506  0.1301 -0.5792 -0.4856
  581MOL0     C80101   8.224   5.579   8.635  0.1332  0.0501  0.6373
  581MOL0     C80102   8.294   5.696   8.699 -0.0215 -0.1491  0.3247
  581MOL0     C80103   8.218   5.720   8.826 -0.1366  0.7495 -0.5986
  581MOL0     C80104   8.237   5.846   8.887  0.2147 -0.6831 -0.6456
  581MOL0     C80105   8.247   5.953   8.949 -0.6168  0.1051  0.1452
  581MOL0     C80106   8.633   5.424   8.534  0.5782  0.3017  0.1901
  581MOL0     C80107   8.755   5.419   8.470 -0.0215 -0.0490 -0.4189
  581MOL0     C80108   8.880   5.413   8.553 -0.1709  0.2797 -0.1780
  581MOL0     H80109   9.081   5.449   8.010 -0.9512 -0.0226  2.4962
  581MOL0     H80110   9.297   5.547   7.928 -1.2464 -0.1990 -2.4086
  581MOL0     H80111   9.346   5.705   7.773  1.1365 -1.5548 -1.8612
  581MOL0     H80112   9.484   5.645   7.854 -0.7198 -0.3547 -1.6902
  581MOL0     H80113   9.498   5.845   7.653  0.2383 -0.7490 -0.2950
  581MOL0     H80114   9.480   5.934   7.798  1.0570 -1.0292  3.1532
  581MOL0     H80115   9.685   5.846   7.898  1.5931 -0.4305 -0.2843
  581MOL0     H80116   9.693   5.722   7.781 -1.3874 -0.8564  2.2139
  581MOL0     H80117   9.862   5.893   7.717  0.3700 -2.3516 -2.6777
  581MOL0     H80118   9.739   5.907   7.601  0.4623  1.1056  0.0544
  581MOL0     H80119   9.770   6.109   7.827 -1.0481  1.9121 -0.9273
  581MOL0     H80120   9.615   6.094   7.741  0.1795 -0.6694 -2.7813
  581MOL0     H80121   9.885   6.143   7.616  0.6483  1.2797  1.3521
  581MOL0     H80122   9.719   6.162   7.541  0.6586 -2.1881  0.8743
  581MOL0     H80123   9.877   6.326   7.758 -0.6157  1.2718  0.6374
  581MOL0     H80124   9.705   6.343   7.740  1.4702  2.3665  2.1899
  581MOL0     H80125   9.730   6.412   7.507 -0.2312  1.6958  0.7519
  581MOL0     H80126   9.796   6.520   7.628  0.0615  0.2783 -0.2279
  581MOL0     H80127  10.047   6.586   7.604  0.2353  2.6784 -1.9395
  581MOL0     H80128  10.345   6.465   7.476  0.3738 -0.4868 -0.2506
  581MOL0     H80129  10.277   6.629   7.434 -2.8121  0.1532 -1.4986
  581MOL0     H80130  10.231   6.579   7.206  1.4822  2.0450 -1.1018
  581MOL0     H80131  10.396   6.600   7.264  1.2878 -1.4719 -0.5738
  581MOL0     H80132  10.382   6.329   7.296 -1.3208 -3.3633 -2.7662
  581MOL0     H80133  10.275   6.347   7.161 -2.9604  3.4522  1.4676
  581MOL0     H80134  10.520   6.326   7.075 -0.8330  0.0809  1.1314
  581MOL0     H80135  10.466   6.489   7.046  3.2383 -2.1541 -3.5278
  581MOL0     H80136  10.739   6.364   7.007  3.4226  0.0541 -3.6989
  581MOL0     H80137  11.025   6.382   6.894  0.2102 -1.5594 -2.0489
  581MOL0     H80138  10.975   6.510   6.786 -1.0331 -1.8903 -1.7065
  581MOL0     H80139  10.870   6.377   6.816 -0.3396 -1.0445  1.5970
  581MOL0     H80140  11.128   6.703   6.713  0.6532  0.6988 -1.2963
  581MOL0     H80141  11.302   6.734   6.559 -3.1016  1.3058  1.6239
  581MOL0     H80142  11.517   6.788   6.455  0.8506 -0.6920 -0.9582
  581MOL0     H80143  11.581   6.836   6.618 -1.1549  0.6216 -0.6392
  581MOL0     H80144  11.745   6.663   6.432  0.5293  0.3817  0.4537
  581MOL0     H80145  11.750   6.838   6.400  2.3951 -1.2729  0.6275
  581MOL0     H80146  11.793   6.699   6.658  1.9852 -1.1216 -0.9860
  581MOL0     H80147  11.842   6.871   6.632  1.6499 -1.2829  2.6382
  581MOL0     H80148  11.971   6.690   6.438 -3.4796 -4.2234  1.3317
  581MOL0     H80149  12.000   6.624   6.593 -0.2301 -0.1251  1.2391
  581MOL0     H80150  12.089   6.908   6.545  0.2862 -1.3993 -2.8513
  581MOL0     H80151  12.093   6.819   6.697 -1.4215  1.3013  0.3501
  581MOL0     H80152  12.227   6.652   6.602 -2.1712 -0.4673 -0.6959
  581MOL0     H80153  12.311   6.810   6.590 -1.0419  2.0316 -0.8471
  581MOL0     H80154  12.203   6.809   6.336  1.7049 -0.6658 -1.8336
  581MOL0     H80155  12.197   6.641   6.366  1.6047 -0.6331 -1.4200
  581MOL0     H80156  12.453   6.637   6.399  0.2274 -0.4908 -1.3167
  581MOL0     H80157  12.442   6.793   6.312 -1.0926  0.1628 -1.4300
  581MOL0     H80158  11.572   6.496   6.794 -1.4646 -1.7631 -1.4914
  581MOL0     H80159  11.378   6.488   6.987 -1.6435  1.0789  0.0700
  581MOL0     H80160  10.915   6.785   7.183 -0.6401  1.2633 -2.2364
  581MOL0     H80161  10.689   6.693   7.274 -2.2740 -1.7671 -0.7012
  581MOL0     H80162   9.182   5.917   8.091 -0.8947  0.9140 -0.9090
  581MOL0     H80163   8.975   5.806   8.206  0.6224 -0.4164  0.5335
  581MOL0     H80164   8.622   5.497   8.164 -0.5904 -0.2493  0.3916
  581MOL0     H80165   8.431   5.509   8.281  1.0591  0.3650 -1.2239
  581MOL0     H80166   8.306   5.616   8.436 -0.1456  0.0049  0.1256
  581MOL0     H80167   8.215   5.468   8.459 -1.2529  1.7441 -1.7733
  581MOL0     H80168   8.220   5.500   8.711  1.5953  0.8812  1.6213
  581MOL0     H80169   8.120   5.609   8.616 -0.0980 -1.1780 -0.1476
  581MOL0     H80170   8.398   5.673   8.724  0.3272  2.1928  1.2792
  581MOL0     H80171   8.284   5.783   8.633 -2.6814 -0.5081  0.1520
  581MOL0     H80172   8.242   5.644   8.902 -0.9193  1.1050  0.0156
  581MOL0     H80173   8.112   5.704   8.807 -0.4589  0.4034  1.2596
  581MOL0     H80174   8.259   6.048   8.999  3.8393 -0.9720  1.5727
  581MOL0     H80175   8.621   5.395   8.638  2.6442 -4.6239 -0.6394
  581MOL0     H80176   8.856   5.407   8.660 -1.2020 -1.8654 -0.4681
  581MOL0     H80177   8.950   5.339   8.513 -0.4402  1.5462 -3.2609
  581MOL0     H80178   8.936   5.505   8.538  1.0934 -0.2289  1.1649
  582MOL0     O80179   2.931   2.636  10.411 -0.0874 -0.7605 -0.3375
  582MOL0     C80180   3.035   2.701  10.414 -0.4084 -0.9734  0.9003
  582MOL0     O80181   3.040   2.844  10.432 -0.6799  0.2205 -0.1782
  582MOL0     C80182   2.938   2.925  10.461  0.2090  0.7224 -1.0825
  582MOL0     C80183   2.831   2.887  10.542  0.6256  0.7144 -0.3659
  582MOL0     C80184   2.717   2.966  10.560  0.0592 -1.0469  0.3578
  582MOL0     C80185   2.729   3.101  10.516 -0.1042  0.8104 -1.0964
  582MOL0     O80186   2.632   3.198  10.524  0.0628 -0.3385  0.6671
  582MOL0     C80187   2.509   3.161  10.468  0.2182  0.7218 -0.3067
  582MOL0     C80188   2.401   3.268  10.508  0.8507  0.2797 -0.2113
  582MOL0     C80189   2.277   3.258  10.418 -0.0904  0.1555 -0.0185
  582MOL0     C80190   2.170   3.357  10.459 -0.0067  0.8147 -0.2700
  582MOL0     C80191   2.069   3.392  10.354  0.3536 -0.2667  0.3391
  582MOL0     C80192   1.947   3.450  10.431  0.3596 -0.4048  0.5463
  582MOL0     C80193   1.838   3.487  10.334 -0.3683 -0.4594  0.5644
  582MOL0     C80194   1.847   3.639  10.318  0.0776  0.8028 -0.2349
  582MOL0     N80195   1.844   3.725  10.436  0.0257 -0.4853 -0.4717
  582MOL0     C80196   1.728   3.774  10.497 -0.1208 -0.0156  0.2616
  582MOL0     C80197   1.770   3.866  10.583 -0.1738 -0.1724  0.3943
  582MOL0     C80198   1.690   3.956  10.678  0.4138 -0.0952  0.4464
  582MOL0     C80199   1.654   3.878  10.810  0.0229  0.3384 -0.3727
  582MOL0     C80200   1.779   3.840  10.897 -0.0699 -0.4369  0.0143
  582MOL0     C80201   1.791   3.690  10.929 -0.9114 -0.1025 -0.2171
  582MOL0     O80202   1.910   3.638  10.999  0.3756 -0.5435 -0.0914
  582MOL0     C80203   2.028   3.684  10.973 -0.8716  0.6967  0.5485
  582MOL0     C80204   2.088   3.679  10.852 -1.0802 -0.7796 -0.6348
  582MOL0     C80205   2.212   3.745  10.811 -0.2568 -0.6658 -0.6881
  582MOL0     C80206   2.249   3.741  10.667  0.6903  0.9897 -0.1271
  582MOL0     C80207   2.294   3.803  10.920  0.7684  0.1658  0.0431
  582MOL0     C80208   2.424   3.864  10.903 -0.4747  0.1505 -0.0045
  582MOL0     O80209   2.513   3.849  11.007  0.8064 -0.5157  0.7605
  582MOL0     C80210   2.631   3.918  10.988  0.3990 -0.5364 -0.0215
  582MOL0     C80211   2.640   4.041  11.048  0.5995  0.3590 -0.3925
  582MOL0     C80212   2.756   4.116  11.040 -0.3767 -0.7834  0.1673
  582MOL0     C80213   2.881   4.068  10.989  0.0604 -0.1121  0.4611
  582MOL0     O80214   3.004   4.137  10.983  0.4663 -0.7104 -0.5141
  582MOL0     C80215   3.012   4.279  11.021  0.9023  0.0522 -0.2334
  582MOL0     C80216   3.157   4.319  10.974 -0.4370  0.2036 -0.9031
  582MOL0     C80217   3.262   4.243  11.045 -0.5419  0.0283  0.0718
  582MOL0     C80218   3.255   4.241  11.196 -0.2964 -0.4875  0.1444
  582MOL0     C80219   3.289   4.374  11.264 -0.4105 -0.7662  0.8643
  582MOL0     C80220   3.304   4.371  11.413  1.0740  0.3309 -0.1177
  582MOL0     C80221   3.298   4.514  11.475 -0.2112  0.0105  0.5456
  582MOL0     C80222   3.272   4.508  11.631  0.2929 -0.1989  0.2014
  582MOL0    Cl80223   3.422   4.446  11.698  0.1838  0.4256 -0.4692
  582MOL0     C80224   2.873   3.929  10.948 -0.3034 -0.0726  0.4724
  582MOL0     C80225   2.747   3.866  10.930  0.1163 -0.2552  0.2116
  582MOL0     O80226   2.439   3.937  10.806  0.0950  0.1908  0.0909
  582MOL0     C80227   2.239   3.785  11.043 -0.2836  0.9438 -0.7862
  582MOL0     C80228   2.116   3.729  11.069  0.3651 -0.3662  0.4688
  582MOL0     N80229   1.909   3.876  10.571  0.6407  0.0154 -0.4771
  582MOL0     N80230   1.951   3.794  10.486 -0.2745  1.1941 -0.5240
  582MOL0     C80231   2.840   3.145  10.445 -0.8473 -0.0725 -0.5663
  582MOL0     C80232   2.934   3.056  10.410  0.6660  0.7193  0.5073
  582MOL0     C80233   3.166   2.625  10.401  0.4855 -0.4817 -0.5244
  582MOL0     C80234   3.278   2.694  10.447  0.0812  0.4565  0.4326
  582MOL0     C80235   3.401   2.629  10.453  0.4618  0.5975 -0.2981
  582MOL0     C80236   3.409   2.496  10.421  0.5721  0.2103  0.3375
  582MOL0     O80237   3.539   2.449  10.434 -0.0151 -0.3761 -0.2206
  582MOL0     C80238   3.580   2.323  10.376  0.1618 -0.2848 -1.0439
  582MOL0     C80239   3.719   2.287  10.434 -0.5251  0.1339 -0.0933
  582MOL0     C80240   3.843   2.365  10.377  0.2402  0.9427  0.6723
  582MOL0     C80241   3.979   2.352  10.436  0.6245  0.2172 -0.3359
  582MOL0     C80242   4.055   2.223  10.403  0.1834  1.3582  0.3883
  582MOL0     C80243   4.117   2.125  10.374  0.5879 -0.4602 -2.0437
  582MOL0     C80244   3.299   2.427  10.369 -0.5871 -0.4573 -0.3071
  582MOL0     C80245   3.178   2.489  10.364  0.1463 -0.7403  1.0511
  582MOL0     C80246   3.070   2.414  10.292 -0.2108  0.9011 -0.2455
  582MOL0     H80247   2.821   2.786  10.579  1.3690  0.5923 -0.4801
  582MOL0     H80248   2.631   2.941  10.621  0.8393 -0.3650  1.7859
  582MOL0     H80249   2.478   3.062  10.504  1.6797  0.2027 -0.3948
  582MOL0     H80250   2.513   3.154  10.359  3.5009  1.4644 -0.3274
  582MOL0     H80251   2.374   3.242  10.611  0.2814  1.5379 -0.0301
  582MOL0     H80252   2.448   3.366  10.495  1.7172 -0.2776 -1.3919
  582MOL0     H80253   2.309   3.281  10.316  0.9554  0.8852  0.4631
  582MOL0     H80254   2.243   3.154  10.409  2.5175 -0.7491 -0.3137
  582MOL0     H80255   2.120   3.312  10.545 -0.4141  0.3164 -0.7603
  582MOL0     H80256   2.225   3.444  10.495 -0.7535  0.5122  1.7103
  582MOL0     H80257   2.020   3.307  10.306 -0.3414 -0.0970  0.7300
  582MOL0     H80258   2.117   3.459  10.282 -1.0097  1.2788  0.7955
  582MOL0     H80259   1.911   3.372  10.500  1.1317 -0.7427  0.5837
  582MOL0     H80260   1.975   3.536  10.493 -2.3369  2.4610 -1.8744
  582MOL0     H80261   1.740   3.466  10.378 -0.7253  0.4278  0.2029
  582MOL0     H80262   1.850   3.438  10.237 -1.3692  1.8783 -0.8121
  582MOL0     H80263   1.941   3.661  10.266  1.0647 -0.0332  1.1270
  582MOL0     H80264   1.762   3.669  10.256  0.8129  1.0468 -1.1554
  582MOL0     H80265   1.629   3.737  10.472 -0.2573 -0.5924  1.5783
  582MOL0     H80266   1.600   3.989  10.624  0.8615 -0.8595 -0.8188
  582MOL0     H80267   1.743   4.049  10.699 -0.0894  0.8091 -1.9314
  582MOL0     H80268   1.587   3.945  10.865  0.4767  2.4216 -2.2292
  582MOL0     H80269   1.595   3.786  10.799  2.8936 -1.6324 -0.4955
  582MOL0     H80270   1.867   3.873  10.842 -2.3182  0.5090 -3.3215
  582MOL0     H80271   1.771   3.898  10.989  0.3361  2.1647 -1.5031
  582MOL0     H80272   1.706   3.672  10.996 -1.5061  0.7161 -0.7346
  582MOL0     H80273   1.792   3.633  10.836  3.8116  0.5744 -0.8258
  582MOL0     H80274   2.033   3.633  10.771  1.2524 -1.2452 -2.0628
  582MOL0     H80275   2.237   3.641  10.626 -1.8023  0.9468  0.5350
  582MOL0     H80276   2.353   3.774  10.658  0.6203  0.7416 -2.3674
  582MOL0     H80277   2.182   3.803  10.607  0.4923  1.1397  0.2415
  582MOL0     H80278   2.548   4.074  11.096 -0.2338 -2.0767 -0.1684
  582MOL0     H80279   2.761   4.214  11.087  3.7941 -1.5606  1.7745
  582MOL0     H80280   2.935   4.332  10.964 -1.6022 -3.8270 -0.8037
  582MOL0     H80281   2.989   4.290  11.128 -1.0280 -1.8020 -0.3846
  582MOL0     H80282   3.169   4.290  10.869  1.2128 -1.6634 -0.2387
  582MOL0     H80283   3.170   4.427  10.988 -0.1198  0.2498 -1.5177
  582MOL0     H80284   3.353   4.295  11.014 -2.8293  3.0283 -2.2786
  582MOL0     H80285   3.268   4.139  11.010 -1.5267  0.5882 -1.9003
  582MOL0     H80286   3.331   4.168  11.226  1.2263  0.6812 -0.6626
  582MOL0     H80287   3.159   4.209  11.238  0.8330  0.3590  3.7923
  582MOL0     H80288   3.384   4.418  11.230 -0.8662 -1.7503 -1.9235
  582MOL0     H80289   3.206   4.442  11.244 -1.0378 -1.6332  0.4838
  582MOL0     H80290   3.401   4.324  11.432  0.3000 -1.6100 -0.7356
  582MOL0     H80291   3.224   4.310  11.457  1.7166 -1.2074 -1.0082
  582MOL0     H80292   3.208   4.565  11.437  0.7986  1.3190 -0.1724
  582MOL0     H80293   3.388   4.572  11.454 -2.6052  4.6190  1.4216
  582MOL0     H80294   3.190   4.442  11.659 -0.2772 -0.5581 -2.1628
  582MOL0     H80295   3.238   4.605  11.669 -0.1703 -1.3296  2.9163
  582MOL0     H80296   2.965   3.878  10.921 -0.4098  0.7293 -1.6005
  582MOL0     H80297   2.745   3.768  10.883 -1.2342  0.9728 -2.4798
  582MOL0     H80298   2.309   3.788  11.126 -1.2233 -2.1411  0.2757
  582MOL0     H80299   2.076   3.734  11.170  0.8867  0.8513  0.6373
  582MOL0     H80300   2.837   3.248  10.413 -0.7569 -0.0162 -0.3948
  582MOL0     H80301   3.008   3.093  10.340  0.0471  1.4308  0.2144
  582MOL0     H80302   3.275   2.793  10.491 -1.3622  0.2268  0.9055
  582MOL0     H80303   3.480   2.692  10.492  0.0024 -0.1300  1.9713
  582MOL0     H80304   3.509   2.243  10.396  1.8573 -1.0653  2.9677
  582MOL0     H80305   3.585   2.339  10.268 -0.8105  2.2601 -0.7822
  582MOL0     H80306   3.744   2.181  10.422  0.0003  0.2134  0.2899
  582MOL0     H80307   3.719   2.296  10.543 -3.8477 -2.4170  0.2588
  582MOL0     H80308   3.862   2.336  10.273  0.4045 -2.9288  1.6185
  582MOL0     H80309   3.815   2.470  10.367 -0.6400  0.9383  2.6949
  582MOL0     H80310   3.975   2.358  10.546 -0.6072  1.3151 -0.4152
  582MOL0     H80311   4.038   2.435  10.397  0.2831  0.1979 -0.9094
  582MOL0     H80312   4.168   2.031  10.379  0.5661 -0.4372 -1.3214
  582MOL0     H80313   3.305   2.323  10.338 -4.7843 -1.3772  1.3009
  582MOL0     H80314   2.988   2.383  10.359 -0.5315  1.6605 -0.2792
  582MOL0     H80315   3.017   2.478  10.221  0.5739 -0.7611 -2.4251
  582MOL0     H80316   3.108   2.325  10.241 -1.9612 -0.8143  1.2286
  583MOL0     O80317   1.692  10.047   4.510 -0.1275 -0.1714 -0.5211
  583MOL0     C80318   1.732  10.144   4.578 -0.1970  0.7358  0.9763
  583MOL0     O80319   1.808  10.134   4.690  0.6504 -0.8742  0.8015
  583MOL0     C80320   1.829  10.012   4.750  0.3407  0.4931 -0.2187
  583MOL0     C80321   1.758   9.996   4.863 -0.1391  0.5375 -0.0040
  583MOL0     C80322   1.782   9.884   4.944  0.6594  0.8525 -0.4681
  583MOL0     C80323   1.870   9.786   4.901 -0.1030 -0.6354  0.4718
  583MOL0     O80324   1.899   9.669   4.964  0.3120  0.6972  0.6279
  583MOL0     C80325   1.901   9.665   5.110 -0.1212  0.2541  0.9642
  583MOL0     C80326   1.993   9.546   5.144  0.1362 -0.7212 -0.7442
  583MOL0     C80327   2.132   9.575   5.103 -0.0492  0.2023  0.1781
  583MOL0     C80328   2.223   9.462   5.148  0.4579  0.3290 -1.1270
  583MOL0     C80329   2.374   9.505   5.132 -0.0869  0.6789  0.8713
  583MOL0     C80330   2.469   9.382   5.133  0.4595  0.2739 -0.6442
  583MOL0     C80331   2.608   9.411   5.187 -0.3982 -0.2448  0.5068
  583MOL0     C80332   2.685   9.282   5.155  0.5785  0.4772 -0.5002
  583MOL0     N80333   2.817   9.291   5.213 -0.2825  0.4226  0.2719
  583MOL0     C80334   2.934   9.308   5.140 -0.9021  1.0626  0.2757
  583MOL0     C80335   3.026   9.326   5.239 -0.6884 -0.0131 -1.2585
  583MOL0     C80336   3.176   9.316   5.232  0.4672  0.0893 -0.2822
  583MOL0     C80337   3.264   9.435   5.277 -0.2341  0.3922  0.2237
  583MOL0     C80338   3.416   9.414   5.263  0.0926 -0.1236  0.1592
  583MOL0     C80339   3.495   9.533   5.319  0.7061 -1.2391  0.6391
  583MOL0     O80340   3.634   9.522   5.272  0.2289 -0.6503 -0.3874
  583MOL0     C80341   3.727   9.473   5.359  0.4675  0.0098 -0.2839
  583MOL0     C80342   3.721   9.477   5.500 -0.7701 -1.1537  0.6260
  583MOL0     C80343   3.837   9.439   5.583  0.7964  0.2686 -0.1795
  583MOL0     C80344   3.833   9.466   5.729  0.3180 -0.1905 -0.5178
  583MOL0     C80345   3.949   9.371   5.524 -0.7875  0.3035 -0.9549
  583MOL0     C80346   4.056   9.318   5.609  0.2625  0.1513 -1.0372
  583MOL0     O80347   4.152   9.404   5.656  0.2688 -0.0949 -0.6132
  583MOL0     C80348   4.249   9.352   5.733  0.9264 -0.2262 -0.6206
  583MOL0     C80349   4.317   9.235   5.707  0.2535  0.8928 -0.3875
  583MOL0     C80350   4.422   9.183   5.800 -0.5869  0.3426 -0.0190
  583MOL0     C80351   4.444   9.253   5.919  0.7598 -0.0510 -0.6013
  583MOL0     O80352   4.537   9.223   6.009 -0.1225 -0.9047 -0.4554
  583MOL0     C80353   4.649   9.137   5.973 -0.7631 -0.2792 -0.3181
  583MOL0     C80354   4.728   9.126   6.105  0.1917  0.5265  0.1040
  583MOL0     C80355   4.865   9.055   6.084 -0.2736  0.4808 -0.0763
  583MOL0     C80356   4.934   9.011   6.209  0.1568 -0.1094 -1.2155
  583MOL0     C80357   5.022   9.117   6.265  0.1957  0.0959 -0.1075
  583MOL0     C80358   5.145   9.131   6.186  0.7372  0.3019  0.0046
  583MOL0     C80359   5.235   9.243   6.230 -0.3742 -0.1390  0.4764
  583MOL0     C80360   5.313   9.314   6.115 -0.0397  0.1008  0.8303
  583MOL0    Cl80361   5.455   9.216   6.095  0.0665  0.4086 -0.5804
  583MOL0     C80362   4.374   9.366   5.945 -0.4828 -0.1557  0.3585
  583MOL0     C80363   4.281   9.417   5.857  0.3387 -0.3218  0.7775
  583MOL0     O80364   4.045   9.200   5.627 -0.3719 -0.3981  0.5101
  583MOL0     C80365   3.944   9.353   5.387 -0.3668 -0.1297 -0.3974
  583MOL0     C80366   3.836   9.402   5.314  0.2226  0.2549  0.2952
  583MOL0     N80367   2.961   9.332   5.362 -0.7960  0.5266  0.0328
  583MOL0     N80368   2.838   9.300   5.344  0.8307 -0.2439 -0.4299
  583MOL0     C80369   1.924   9.798   4.771  0.1205 -0.7877 -0.3937
  583MOL0     C80370   1.907   9.913   4.696  0.6869 -0.7610  0.4109
  583MOL0     C80371   1.687  10.268   4.518  0.1082 -0.0838 -0.2240
  583MOL0     C80372   1.612  10.269   4.394 -0.4226 -0.8037 -0.4953
  583MOL0     C80373   1.557  10.385   4.341 -0.3916  0.0116  0.5809
  583MOL0     C80374   1.569  10.507   4.403 -0.3473 -0.4524  0.1160
  583MOL0     O80375   1.506  10.610   4.343 -0.0338  0.3451  0.3975
  583MOL0     C80376   1.584  10.735   4.347 -0.2597  0.2860 -0.5508
  583MOL0     C80377   1.522  10.853   4.281 -0.1598 -1.0944 -0.2445
  583MOL0     C80378   1.618  10.980   4.309 -0.7681  0.0185  0.5051
  583MOL0     C80379   1.548  11.108   4.244  0.5146 -0.5459 -0.5381
  583MOL0     C80380   1.423  11.141   4.319  0.2347 -0.6691  0.7704
  583MOL0     C80381   1.345  11.199   4.388 -0.9201  0.0592  0.7855
  583MOL0     C80382   1.654  10.510   4.518  0.2116 -0.2258  0.2581
  583MOL0     C80383   1.713  10.398   4.579 -0.5683  0.3048  0.7828
  583MOL0     C80384   1.796  10.429   4.702 -0.8501 -0.5974 -0.2009
  583MOL0     H80385   1.684  10.067   4.897  0.0667  1.1159 -0.7376
  583MOL0     H80386   1.723   9.869   5.034 -0.8932  1.4837 -1.3376
  583MOL0     H80387   1.796   9.658   5.140 -2.2709  2.9101 -4.5750
  583MOL0     H80388   1.941   9.759   5.152 -0.3260  0.2388  1.1946
  583MOL0     H80389   1.984   9.539   5.253 -2.4602  2.3685 -0.5862
  583MOL0     H80390   1.952   9.450   5.112  1.2301 -1.6459  0.5158
  583MOL0     H80391   2.142   9.580   4.994 -1.2942  0.9285  0.0769
  583MOL0     H80392   2.173   9.665   5.150  2.0084  0.5884 -2.1478
  583MOL0     H80393   2.209   9.436   5.254  2.8624  1.8066 -0.3833
  583MOL0     H80394   2.200   9.370   5.094  0.1982 -1.9518  2.5045
  583MOL0     H80395   2.397   9.570   5.217 -0.5419  2.4167 -0.2964
  583MOL0     H80396   2.401   9.562   5.043 -0.8311  1.1091  0.9174
  583MOL0     H80397   2.414   9.306   5.189  0.3955  0.5792 -0.2896
  583MOL0     H80398   2.473   9.340   5.032  0.8210 -1.8283  0.1873
  583MOL0     H80399   2.614   9.435   5.294  0.4010 -1.4032  0.7438
  583MOL0     H80400   2.655   9.494   5.133  0.4318 -1.5600 -0.8667
  583MOL0     H80401   2.634   9.198   5.203  0.0084  0.9816 -0.2105
  583MOL0     H80402   2.699   9.247   5.052  0.7076 -0.0933 -0.2926
  583MOL0     H80403   2.949   9.294   5.033  1.4186  0.1442  0.6739
  583MOL0     H80404   3.198   9.295   5.127 -0.8465 -1.6326 -0.2576
  583MOL0     H80405   3.209   9.232   5.294  1.3607 -0.7857 -1.8754
  583MOL0     H80406   3.237   9.520   5.215  0.5430  1.8157  1.7432
  583MOL0     H80407   3.230   9.455   5.379 -0.9842  0.0741  0.0415
  583MOL0     H80408   3.450   9.322   5.311 -0.6223 -0.6116 -0.2544
  583MOL0     H80409   3.442   9.405   5.157 -1.5185  0.1841 -0.2826
  583MOL0     H80410   3.449   9.623   5.275 -0.7761 -1.1634  2.2414
  583MOL0     H80411   3.473   9.535   5.426  1.7542 -0.4405  0.8612
  583MOL0     H80412   3.634   9.529   5.539  0.1213  2.6198 -1.8642
  583MOL0     H80413   3.837   9.374   5.789  0.4254  0.3574  0.3401
  583MOL0     H80414   3.739   9.512   5.760  0.9759  1.5349 -0.9668
  583MOL0     H80415   3.911   9.538   5.755  0.7707 -0.8042 -0.1433
  583MOL0     H80416   4.292   9.185   5.614 -1.9726  0.3535  0.4528
  583MOL0     H80417   4.464   9.085   5.781 -1.9969 -0.2609 -0.1576
  583MOL0     H80418   4.626   9.035   5.940  4.8427 -1.3465 -1.8905
  583MOL0     H80419   4.710   9.178   5.892 -1.1947 -2.1927 -1.6780
  583MOL0     H80420   4.750   9.224   6.149 -2.6639  0.4758  1.8542
  583MOL0     H80421   4.667   9.073   6.178 -0.1530  2.1041  1.0072
  583MOL0     H80422   4.925   9.122   6.022 -1.0911  0.6459 -0.7126
  583MOL0     H80423   4.855   8.970   6.017  4.8983  0.6158 -1.3967
  583MOL0     H80424   4.998   8.923   6.194  1.1223 -0.1126  2.2147
  583MOL0     H80425   4.862   8.987   6.287  0.8080  2.1914  0.1888
  583MOL0     H80426   4.978   9.218   6.267  0.5113  0.3590  4.0509
  583MOL0     H80427   5.049   9.099   6.370  1.5981 -1.9794 -0.7861
  583MOL0     H80428   5.113   9.152   6.083 -0.3679 -1.7596 -0.1280
  583MOL0     H80429   5.205   9.040   6.179  0.2741  0.0814 -1.2951
  583MOL0     H80430   5.302   9.213   6.311 -0.6417 -1.8323  0.1146
  583MOL0     H80431   5.164   9.317   6.269 -0.1613 -0.2775  1.1462
  583MOL0     H80432   5.346   9.415   6.144 -0.2035 -0.1261  1.8404
  583MOL0     H80433   5.258   9.312   6.021 -3.2842 -3.1550  2.5300
  583MOL0     H80434   4.412   9.418   6.032 -1.5355 -0.6868  1.1678
  583MOL0     H80435   4.233   9.513   5.872  3.1413  1.1931  0.8162
  583MOL0     H80436   4.034   9.312   5.342 -0.9252  0.7455 -2.4211
  583MOL0     H80437   3.820   9.383   5.208  0.7937 -2.0936  0.5897
  583MOL0     H80438   1.981   9.715   4.731  1.3981 -0.4981  0.7691
  583MOL0     H80439   1.957   9.932   4.601  2.3973  0.3682  1.4763
  583MOL0     H80440   1.607  10.171   4.347 -1.2545 -0.7955 -0.4410
  583MOL0     H80441   1.498  10.367   4.252  0.7607 -1.6540  0.1110
  583MOL0     H80442   1.597  10.755   4.454  2.1426 -3.3211 -0.0143
  583MOL0     H80443   1.682  10.721   4.300  1.3156  1.9090  2.0111
  583MOL0     H80444   1.416  10.863   4.306  0.3590 -0.5337  1.9621
  583MOL0     H80445   1.519  10.856   4.172  0.1441  1.8854 -0.2590
  583MOL0     H80446   1.637  11.000   4.415  1.2718 -0.6374  0.3058
  583MOL0     H80447   1.716  10.960   4.267  0.3844 -1.2985  3.4781
  583MOL0     H80448   1.530  11.102   4.136  0.1576  0.2518 -0.5367
  583MOL0     H80449   1.620  11.188   4.266 -0.5126  0.1700  0.3147
  583MOL0     H80450   1.275  11.252   4.449 -1.2147 -2.0641  2.4273
  583MOL0     H80451   1.668  10.607   4.563 -1.6627 -0.0514  0.5616
  583MOL0     H80452   1.904  10.421   4.691 -0.4557 -0.9017  3.0082
  583MOL0     H80453   1.775  10.532   4.735  1.7911 -0.2427  0.6034
  583MOL0     H80454   1.764  10.357   4.778 -1.9104 -0.8475 -0.8522
  584MOL0     O80455   4.134   0.638   9.109  0.5272 -0.0781 -0.4180
  584MOL0     C80456   4.239   0.629   9.169 -0.0523  0.4315  0.2513
  584MOL0     O80457   4.363   0.628   9.104 -0.3587 -0.7559  0.2211
  584MOL0     C80458   4.377   0.678   8.979 -1.4063 -0.5396 -0.1181
  584MOL0     C80459   4.439   0.794   8.947  0.0565 -0.6318  0.5877
  584MOL0     C80460   4.454   0.829   8.815 -0.2633  0.4334 -0.3041
  584MOL0     C80461   4.423   0.746   8.706 -0.2494 -0.4704  0.1826
  584MOL0     O80462   4.445   0.799   8.587 -0.3190  0.5569  0.8827
  584MOL0     C80463   4.478   0.713   8.475  0.6458 -0.6523 -0.1174
  584MOL0     C80464   4.617   0.745   8.424 -0.7225  0.6752 -0.0525
  584MOL0     C80465   4.730   0.730   8.514  0.2906  1.0849 -0.6133
  584MOL0     C80466   4.863   0.750   8.444 -0.3717  0.9791  0.3065
  584MOL0     C80467   4.970   0.758   8.554  0.6602 -0.2347  0.4031
  584MOL0     C80468   4.974   0.909   8.621  0.2431  0.0736  0.8037
  584MOL0     C80469   5.055   0.903   8.745 -0.2012  0.0238 -0.6223
  584MOL0     C80470   5.064   1.040   8.828 -0.1216  0.3670  0.0987
  584MOL0     N80471   4.931   1.096   8.864  0.5931  0.4208 -0.3191
  584MOL0     C80472   4.863   1.196   8.799 -0.0803  0.6609  0.0293
  584MOL0     C80473   4.746   1.201   8.867  0.4474 -0.3271 -0.1262
  584MOL0     C80474   4.640   1.304   8.837 -1.0924  0.5090 -0.0449
  584MOL0     C80475   4.618   1.396   8.944 -0.2320 -0.0595  0.5438
  584MOL0     C80476   4.511   1.495   8.913 -1.1046  0.8907  0.4161
  584MOL0     C80477   4.537   1.565   8.771 -0.7225 -0.3060  1.0088
  584MOL0     O80478   4.456   1.686   8.755  0.0801 -0.3018 -0.3744
  584MOL0     C80479   4.322   1.665   8.748  0.5825 -0.4928  0.1539
  584MOL0     C80480   4.251   1.545   8.715  0.1346  0.6482  0.8677
  584MOL0     C80481   4.112   1.533   8.710  0.0752  0.3520  0.4563
  584MOL0     C80482   4.059   1.395   8.694  0.0597  0.2712  0.4206
  584MOL0     C80483   4.033   1.644   8.733 -0.2815  0.4744 -0.4048
  584MOL0     C80484   3.884   1.638   8.742  0.2868  0.2340 -0.0622
  584MOL0     O80485   3.833   1.718   8.831  0.6148 -0.7879  0.2173
  584MOL0     C80486   3.694   1.741   8.832 -0.8094  0.7607 -0.8815
  584MOL0     C80487   3.649   1.774   8.964 -0.9156 -0.0467  0.3650
  584MOL0     C80488   3.529   1.834   8.984  0.8063 -0.4491  0.3179
  584MOL0     C80489   3.443   1.855   8.878 -0.1007  0.0656 -0.5070
  584MOL0     O80490   3.320   1.907   8.908 -0.8423 -0.5382  0.5411
  584MOL0     C80491   3.222   1.903   8.802 -0.0360 -0.9135  0.2884
  584MOL0     C80492   3.096   1.987   8.849 -0.0794  0.8369  0.3238
  584MOL0     C80493   3.137   2.133   8.873 -0.3654  0.0683 -0.5063
  584MOL0     C80494   3.016   2.216   8.921 -0.6160  0.7633 -0.1929
  584MOL0     C80495   3.036   2.366   8.927 -0.9568  0.8423  0.0136
  584MOL0     C80496   2.989   2.422   8.799  0.3240  0.0090 -0.5226
  584MOL0     C80497   2.994   2.575   8.804  0.3986  0.2439 -0.8059
  584MOL0     C80498   2.958   2.636   8.669  0.5626 -0.5039 -0.6221
  584MOL0    Cl80499   2.777   2.643   8.650 -0.3776  0.3878  0.2474
  584MOL0     C80500   3.473   1.816   8.747 -0.3855 -0.7298  0.3977
  584MOL0     C80501   3.601   1.751   8.732  0.4953  0.6034  0.3607
  584MOL0     O80502   3.825   1.555   8.668  0.6975 -0.2875 -0.2661
  584MOL0     C80503   4.099   1.767   8.751 -0.5287 -0.9728  0.7844
  584MOL0     C80504   4.245   1.781   8.747  0.0774  0.4167  0.2048
  584MOL0     N80505   4.740   1.108   8.969  0.5234  0.4785 -0.0126
  584MOL0     N80506   4.854   1.050   8.972  0.6746  0.3328 -0.0816
  584MOL0     C80507   4.366   0.625   8.732 -0.1876 -0.7041 -0.4671
  584MOL0     C80508   4.345   0.595   8.871 -0.3845 -0.1062  0.0299
  584MOL0     C80509   4.248   0.632   9.317  0.3109  0.7563 -0.3814
  584MOL0     C80510   4.180   0.738   9.374 -0.2170  0.1493 -0.0566
  584MOL0     C80511   4.178   0.755   9.512 -0.0073 -0.5363  0.3508
  584MOL0     C80512   4.262   0.669   9.593  0.8586 -1.7550 -0.6829
  584MOL0     O80513   4.279   0.686   9.735  0.2722 -0.4235 -0.0111
  584MOL0     C80514   4.274   0.827   9.777  0.4299 -0.0157  0.0721
  584MOL0     C80515   4.294   0.839   9.932 -0.2202 -0.0868  1.1357
  584MOL0     C80516   4.282   0.971   9.987 -0.4730 -0.4348  0.3008
  584MOL0     C80517   4.248   0.980  10.136 -0.8771 -0.4249  0.4744
  584MOL0     C80518   4.275   1.118  10.184 -0.3117  0.7502  0.7953
  584MOL0     C80519   4.295   1.226  10.229 -0.7397  0.1458  1.0563
  584MOL0     C80520   4.335   0.569   9.538  0.0893  0.5235 -0.3766
  584MOL0     C80521   4.323   0.546   9.400 -0.1792  1.8546  0.2328
  584MOL0     C80522   4.398   0.424   9.348  0.0866 -0.8700  0.7222
  584MOL0     H80523   4.470   0.862   9.025  0.1779  1.3686 -1.1220
  584MOL0     H80524   4.500   0.924   8.787  1.0493  0.2494  1.1300
  584MOL0     H80525   4.399   0.714   8.398  0.9255  1.3777 -0.4200
  584MOL0     H80526   4.482   0.605   8.493  1.9422 -0.7217 -0.7466
  584MOL0     H80527   4.628   0.676   8.340  1.7043  2.6280 -1.4688
  584MOL0     H80528   4.632   0.839   8.370  1.2479 -0.8803 -2.3677
  584MOL0     H80529   4.714   0.802   8.595  2.7903 -0.5868  1.5715
  584MOL0     H80530   4.727   0.631   8.562 -1.4919  1.7203  0.6909
  584MOL0     H80531   4.890   0.670   8.375 -2.3404  0.6323 -0.1264
  584MOL0     H80532   4.880   0.843   8.389 -1.9836  0.9292 -0.3594
  584MOL0     H80533   5.060   0.732   8.497  0.4422 -4.8053  1.7530
  584MOL0     H80534   4.947   0.680   8.627 -1.6675  0.8808  0.9475
  584MOL0     H80535   5.023   0.963   8.539 -1.9723 -0.7734 -1.2190
  584MOL0     H80536   4.879   0.957   8.649  1.6306  1.7423  2.9354
  584MOL0     H80537   5.158   0.879   8.718 -0.9100 -1.6388 -2.0392
  584MOL0     H80538   5.009   0.831   8.813 -3.4006  2.0656 -0.4050
  584MOL0     H80539   5.128   1.023   8.915  1.5438  1.0982 -0.9168
  584MOL0     H80540   5.124   1.104   8.762 -1.8110  0.8416 -1.0360
  584MOL0     H80541   4.898   1.262   8.720 -0.7598 -1.0099 -1.7380
  584MOL0     H80542   4.549   1.249   8.812  0.2801 -1.9938  0.2158
  584MOL0     H80543   4.669   1.350   8.742 -0.0922  0.0142  0.0097
  584MOL0     H80544   4.601   1.349   9.041  0.9999 -2.6238 -0.4012
  584MOL0     H80545   4.707   1.460   8.946  0.0451 -0.4568  1.4132
  584MOL0     H80546   4.418   1.439   8.898 -0.8124  0.0966  1.4216
  584MOL0     H80547   4.496   1.570   8.991 -2.2567 -1.3404  2.4547
  584MOL0     H80548   4.639   1.603   8.765 -0.8028 -0.1770  0.3585
  584MOL0     H80549   4.532   1.493   8.688  0.6597  1.8635 -1.0875
  584MOL0     H80550   4.317   1.463   8.688  0.3337  1.5661 -1.6817
  584MOL0     H80551   4.139   1.321   8.679  0.0436 -0.0328  1.7058
  584MOL0     H80552   3.996   1.394   8.605  0.9765  2.0855 -0.3062
  584MOL0     H80553   3.985   1.356   8.764 -0.0139 -0.4829 -0.0703
  584MOL0     H80554   3.714   1.746   9.046  0.2927 -1.7549 -1.0903
  584MOL0     H80555   3.491   1.870   9.079 -3.5602 -2.6902 -0.2967
  584MOL0     H80556   3.241   1.941   8.701  1.0184  2.6014  1.6794
  584MOL0     H80557   3.179   1.802   8.798 -2.9002  0.1461  1.4265
  584MOL0     H80558   3.012   1.971   8.782  0.3538 -0.3699  0.0518
  584MOL0     H80559   3.065   1.943   8.944 -0.9594 -3.4940 -1.7516
  584MOL0     H80560   3.183   2.183   8.787  1.8266  1.2050  1.2108
  584MOL0     H80561   3.213   2.149   8.950  0.8742  2.1254 -2.0280
  584MOL0     H80562   2.983   2.185   9.021 -2.9785 -0.2184 -1.2164
  584MOL0     H80563   2.926   2.194   8.864 -0.8955  0.8878  0.1984
  584MOL0     H80564   2.963   2.401   9.002 -0.8415 -2.9670  2.1737
  584MOL0     H80565   3.140   2.391   8.947 -0.5625 -1.5949  1.4760
  584MOL0     H80566   2.890   2.387   8.768 -0.5313 -0.0039  1.9772
  584MOL0     H80567   3.072   2.405   8.730  0.3199  1.8791 -1.0431
  584MOL0     H80568   3.094   2.613   8.829 -0.0127  1.9797 -1.6359
  584MOL0     H80569   2.921   2.606   8.880 -1.1411 -1.5480 -1.4926
  584MOL0     H80570   3.015   2.591   8.586  1.5872  1.4065 -1.0166
  584MOL0     H80571   2.992   2.739   8.677 -1.2932  0.0540  0.3556
  584MOL0     H80572   3.408   1.809   8.660 -0.7017  0.4594  0.5249
  584MOL0     H80573   3.633   1.732   8.630 -3.1742  0.5280 -0.8996
  584MOL0     H80574   4.038   1.856   8.754 -0.0402 -0.6341  0.7516
  584MOL0     H80575   4.295   1.877   8.753  1.9552 -0.3569 -1.8354
  584MOL0     H80576   4.336   0.565   8.647 -3.2383  0.9645 -0.7290
  584MOL0     H80577   4.296   0.500   8.886 -0.1326 -0.2944 -0.3244
  584MOL0     H80578   4.121   0.799   9.306 -0.6571 -0.0699  0.1275
  584MOL0     H80579   4.112   0.825   9.562  0.1492 -1.2179  1.5605
  584MOL0     H80580   4.357   0.888   9.739  1.7607 -1.0882  1.1429
  584MOL0     H80581   4.184   0.879   9.743 -1.2081 -2.0421  1.0741
  584MOL0     H80582   4.385   0.786   9.960 -1.3057 -1.3899  2.3324
  584MOL0     H80583   4.212   0.784   9.979 -0.9263  0.0189  0.0776
  584MOL0     H80584   4.380   1.019   9.981 -1.3521  1.5698  1.0931
  584MOL0     H80585   4.219   1.041   9.930  0.7539  2.3448  2.1451
  584MOL0     H80586   4.324   0.921  10.187 -1.4604 -1.1545  0.5201
  584MOL0     H80587   4.143   0.951  10.146 -1.5924  1.9582  0.4999
  584MOL0     H80588   4.320   1.327  10.256  1.7426 -0.7870  2.5845
  584MOL0     H80589   4.386   0.494   9.596 -0.1855  0.8708  0.3215
  584MOL0     H80590   4.340   0.375   9.270  0.8763  1.9802 -1.8714
  584MOL0     H80591   4.483   0.476   9.303 -1.8841  1.6705 -0.3582
  584MOL0     H80592   4.436   0.357   9.425  0.4349  0.0867  1.4122
  585MOL0     O80593   9.968  10.262   6.933 -0.1213  0.3968 -0.1997
  585MOL0     C80594   9.906  10.151   6.944 -0.0273  0.1731 -0.4548
  585MOL0     O80595   9.958  10.030   6.906 -0.9981 -0.2872 -0.7817
  585MOL0     C80596  10.095  10.027   6.877  0.2332  0.6126  0.8284
  585MOL0     C80597  10.199  10.065   6.965  0.1836 -0.3119  0.2857
  585MOL0     C80598  10.327  10.071   6.915  0.0950 -0.5656 -0.3350
  585MOL0     C80599  10.358  10.027   6.789 -0.9659 -0.0278  0.1570
  585MOL0     O80600  10.490  10.015   6.737 -0.2577 -0.0421  0.0434
  585MOL0     C80601  10.589  10.101   6.791 -1.1383  0.2027 -1.0268
  585MOL0     C80602  10.716  10.104   6.713 -0.3419 -0.4284  0.1087
  585MOL0     C80603  10.699  10.168   6.568  0.5400 -0.9016 -0.7364
  585MOL0     C80604  10.835  10.167   6.502 -0.6432 -1.1197 -0.1463
  585MOL0     C80605  10.883  10.288   6.435  0.6735  0.1916  0.7154
  585MOL0     C80606  10.814  10.317   6.301 -0.6239  1.1479  0.6132
  585MOL0     C80607  10.860  10.452   6.241  0.9083  1.3871 -0.3709
  585MOL0     C80608  10.994  10.425   6.172  0.6163 -1.0130 -0.0821
  585MOL0     N80609  11.052  10.549   6.108  0.2230 -0.2541  0.3944
  585MOL0     C80610  11.185  10.591   6.094  0.0634  0.6410  0.1275
  585MOL0     C80611  11.193  10.652   5.970 -0.7933  0.8153  0.1237
  585MOL0     C80612  11.320  10.671   5.894 -0.7304 -0.3620  0.1408
  585MOL0     C80613  11.415  10.778   5.968  0.0490  0.4425 -1.3559
  585MOL0     C80614  11.433  10.764   6.120  0.4557  0.1917  0.2470
  585MOL0     C80615  11.529  10.874   6.168 -0.3022  0.5342 -0.4815
  585MOL0     O80616  11.662  10.845   6.112 -0.4518 -0.0927  0.4963
  585MOL0     C80617  11.760  10.920   6.154  0.4494 -0.8482 -0.1913
  585MOL0     C80618  11.797  11.038   6.080 -1.2404  0.9268 -1.0142
  585MOL0     C80619  11.903  11.111   6.134  0.8711 -0.2774 -0.3566
  585MOL0     C80620  11.940  11.245   6.071  0.4013 -0.1602 -0.4299
  585MOL0     C80621  11.965  11.082   6.263 -0.8916 -0.1613  1.1621
  585MOL0     C80622  12.083  11.155   6.311  0.2477  0.3589  0.3367
  585MOL0     O80623  12.200  11.112   6.266  0.1913  0.1712  0.2873
  585MOL0     C80624  12.309  11.171   6.317 -0.1779  0.8791 -0.5811
  585MOL0     C80625  12.391  11.100   6.406  0.1733  0.3020 -0.2850
  585MOL0     C80626  12.500  11.151   6.480  0.1084  0.4018 -0.3552
  585MOL0     C80627  12.537  11.286   6.459  0.6573 -0.1583 -0.4438
  585MOL0     O80628  12.634  11.336   6.539 -0.5279  0.3247  0.7163
  585MOL0     C80629  12.732  11.435   6.493 -0.4808  0.1397  0.6274
  585MOL0     C80630  12.816  11.454   6.614  0.9462  0.1471 -0.0691
  585MOL0     C80631  12.944  11.529   6.578  0.0845 -0.4628 -0.0491
  585MOL0     C80632  13.033  11.556   6.705  0.3721 -0.5210  0.2628
  585MOL0     C80633  13.171  11.627   6.666  0.9255  0.1730  0.2242
  585MOL0     C80634  13.289  11.534   6.664 -0.4243  0.4346 -0.3451
  585MOL0     C80635  13.340  11.490   6.812  0.6639  0.2342  0.7740
  585MOL0     C80636  13.456  11.401   6.787  0.4321 -0.1018  0.2163
  585MOL0    Cl80637  13.487  11.304   6.933 -0.2870 -0.0496  0.4194
  585MOL0     C80638  12.465  11.365   6.361  0.1905 -0.4897 -0.4956
  585MOL0     C80639  12.350  11.308   6.300 -0.2875 -0.2297  0.3358
  585MOL0     O80640  12.071  11.228   6.411  0.2675  0.4687  0.3016
  585MOL0     C80641  11.921  10.970   6.330 -0.3412 -1.2746  0.6752
  585MOL0     C80642  11.828  10.889   6.265  0.8735  1.0645  0.1199
  585MOL0     N80643  11.066  10.656   5.921 -1.4927  0.3875 -0.0439
  585MOL0     N80644  10.986  10.589   6.000 -0.0460  0.1263  0.3590
  585MOL0     C80645  10.256   9.985   6.703 -0.2401 -0.0463 -0.2388
  585MOL0     C80646  10.121   9.986   6.746 -0.2164  0.0134  0.4734
  585MOL0     C80647   9.757  10.153   6.998 -0.8786  0.5998  0.9350
  585MOL0     C80648   9.710  10.026   7.023 -0.3246 -0.5657  0.0648
  585MOL0     C80649   9.583  10.001   7.064  0.3122 -1.3159  1.2150
  585MOL0     C80650   9.497  10.113   7.074 -0.0688  0.1322  0.7919
  585MOL0     O80651   9.365  10.088   7.107 -0.2734  0.6293 -0.2766
  585MOL0     C80652   9.266  10.075   7.006  0.3658 -0.1548 -0.8689
  585MOL0     C80653   9.135  10.064   7.083 -0.0489  0.0401  0.2345
  585MOL0     C80654   9.028  10.120   6.994  0.2043 -0.2855  0.5926
  585MOL0     C80655   8.998  10.039   6.867  0.4694  0.3393  0.0496
  585MOL0     C80656   8.916  10.116   6.770  0.3562  0.2883 -0.6672
  585MOL0     C80657   8.843  10.184   6.702  1.3292  0.5456  0.4067
  585MOL0     C80658   9.543  10.240   7.041 -0.5677 -0.2314 -0.7492
  585MOL0     C80659   9.678  10.268   7.004 -0.3374 -0.3598  0.1404
  585MOL0     C80660   9.721  10.418   6.984  0.4116  0.3090  0.1057
  585MOL0     H80661  10.181  10.087   7.070 -0.4226 -0.6496  0.2583
  585MOL0     H80662  10.401  10.094   6.991 -1.2753  1.0019  0.5864
  585MOL0     H80663  10.604  10.068   6.895 -0.8221  1.6120 -0.5971
  585MOL0     H80664  10.557  10.204   6.808 -2.2801 -0.4279  1.0105
  585MOL0     H80665  10.800  10.149   6.767 -0.6249  0.8206 -0.4456
  585MOL0     H80666  10.739   9.999   6.698  1.2213 -0.2977  1.3924
  585MOL0     H80667  10.612  10.116   6.527 -0.2784 -0.8349  0.8538
  585MOL0     H80668  10.668  10.271   6.589 -1.9005 -1.9866  1.7021
  585MOL0     H80669  10.908  10.155   6.582  0.5332  1.3360 -0.7581
  585MOL0     H80670  10.849  10.075   6.443  0.0433 -0.9911 -0.1934
  585MOL0     H80671  10.982  10.267   6.393  0.6169 -0.2203  0.7760
  585MOL0     H80672  10.882  10.380   6.494 -4.1814  1.4688 -0.8995
  585MOL0     H80673  10.822  10.224   6.243 -0.7472 -0.7660  3.4520
  585MOL0     H80674  10.708  10.327   6.328 -0.9006  1.9454 -0.6878
  585MOL0     H80675  10.875  10.522   6.324  1.0126  0.0617  0.7802
  585MOL0     H80676  10.782  10.483   6.171  0.5148  1.4803  0.1021
  585MOL0     H80677  11.074  10.384   6.235 -0.4100  1.2657  2.9310
  585MOL0     H80678  10.977  10.344   6.100 -0.5080 -2.5959  1.8564
  585MOL0     H80679  11.260  10.548   6.160 -3.3247 -0.4304  3.6306
  585MOL0     H80680  11.304  10.695   5.788 -2.4612 -3.8442 -0.5585
  585MOL0     H80681  11.373  10.575   5.902  0.3412  0.0828 -1.1949
  585MOL0     H80682  11.514  10.773   5.922  0.8064 -1.9775  0.3517
  585MOL0     H80683  11.372  10.878   5.951 -0.3890  0.2878 -1.1595
  585MOL0     H80684  11.332  10.773   6.160 -0.2161 -1.9686 -0.7665
  585MOL0     H80685  11.468  10.664   6.149 -0.7913 -0.6236 -0.8655
  585MOL0     H80686  11.498  10.977   6.147 -1.1876  0.6342  1.1931
  585MOL0     H80687  11.544  10.875   6.276  0.1660  1.0964 -0.5429
  585MOL0     H80688  11.735  11.077   5.999 -0.2646  0.4267 -2.0388
  585MOL0     H80689  11.848  11.305   6.064  0.2474 -0.5243 -1.8715
  585MOL0     H80690  11.981  11.223   5.972 -0.3429 -0.2535 -0.7216
  585MOL0     H80691  12.006  11.315   6.124  1.5013 -0.8446 -0.8558
  585MOL0     H80692  12.364  10.996   6.424 -1.2728  0.2281 -2.5384
  585MOL0     H80693  12.553  11.088   6.550 -0.1212  3.0597  2.4330
  585MOL0     H80694  12.786  11.396   6.405 -1.2701  0.4394 -0.0051
  585MOL0     H80695  12.692  11.532   6.464 -0.9437 -1.1101 -3.6941
  585MOL0     H80696  12.766  11.516   6.689  2.7900 -0.1521  1.4757
  585MOL0     H80697  12.838  11.358   6.661  1.8077  0.7636  0.8179
  585MOL0     H80698  12.921  11.623   6.526  0.2718  0.2882  1.1907
  585MOL0     H80699  13.004  11.472   6.506  1.3662  2.0433 -1.1099
  585MOL0     H80700  13.054  11.461   6.755 -1.6193 -0.6302  0.9711
  585MOL0     H80701  12.980  11.628   6.768  3.3469  4.5177 -2.3393
  585MOL0     H80702  13.141  11.676   6.574  0.0304  0.7130  0.7859
  585MOL0     H80703  13.182  11.711   6.735 -1.0200  0.8489 -0.2307
  585MOL0     H80704  13.363  11.594   6.611  2.4500 -1.7198  0.9423
  585MOL0     H80705  13.265  11.444   6.607  0.8389 -0.5821  0.6596
  585MOL0     H80706  13.265  11.425   6.857 -1.2320 -0.4202 -2.9782
  585MOL0     H80707  13.366  11.573   6.879  1.0290  0.3085  0.5453
  585MOL0     H80708  13.548  11.457   6.767  1.6763 -1.1112  2.6904
  585MOL0     H80709  13.437  11.338   6.700  0.8228  0.6721 -0.4474
  585MOL0     H80710  12.495  11.459   6.315  2.2362  0.2855  2.1776
  585MOL0     H80711  12.289  11.364   6.229 -2.0180 -1.6260  0.6462
  585MOL0     H80712  11.960  10.950   6.429 -0.2740 -0.6147  0.7830
  585MOL0     H80713  11.803  10.807   6.331 -0.9346  1.4259 -0.0644
  585MOL0     H80714  10.270   9.944   6.604  0.1157 -0.9668  0.1822
  585MOL0     H80715  10.044   9.948   6.681  0.6293 -3.1544  1.1485
  585MOL0     H80716   9.765   9.935   7.004 -0.1465 -0.0421 -2.3639
  585MOL0     H80717   9.557   9.899   7.087 -0.1382 -1.4413  0.2330
  585MOL0     H80718   9.273  10.162   6.939 -0.2175  0.6998  0.1533
  585MOL0     H80719   9.280   9.983   6.949  2.7530 -1.4657  1.5868
  585MOL0     H80720   9.131  10.130   7.171  2.2131  0.4750  0.0735
  585MOL0     H80721   9.112   9.961   7.110 -2.5994  1.2233  3.1652
  585MOL0     H80722   8.932  10.137   7.045 -1.7349  0.0054 -2.8354
  585MOL0     H80723   9.052  10.224   6.966  1.1724 -0.7379 -0.3217
  585MOL0     H80724   8.940   9.952   6.899  0.3559  0.2451 -0.4181
  585MOL0     H80725   9.094  10.010   6.822  1.0261 -1.5733  2.2576
  585MOL0     H80726   8.782  10.246   6.640 -0.2405 -1.9859 -0.7038
  585MOL0     H80727   9.463  10.314   7.046  0.1226  0.7613 -2.9482
  585MOL0     H80728   9.798  10.451   7.054  0.7300  1.9499 -0.9580
  585MOL0     H80729   9.760  10.422   6.882 -0.0450 -3.1428 -0.3133
  585MOL0     H80730   9.638  10.490   6.991  0.8464  1.0018 -1.5380
  586MOL0     O80731   2.983   5.179   6.160 -1.0364  0.3028  0.1627
  586MOL0     C80732   2.968   5.193   6.039  0.2169 -0.1382  0.1128
  586MOL0     O80733   2.908   5.302   5.981 -0.7228 -0.7500 -0.1218
  586MOL0     C80734   2.815   5.376   6.049 -0.6380 -1.1470 -0.0989
  586MOL0     C80735   2.685   5.332   6.071  0.6248 -0.8901 -0.4080
  586MOL0     C80736   2.587   5.419   6.132 -0.2577  0.4540 -0.2272
  586MOL0     C80737   2.618   5.550   6.166  0.3634 -0.0011 -0.0732
  586MOL0     O80738   2.515   5.618   6.227 -0.1649  0.4267  0.7518
  586MOL0     C80739   2.532   5.764   6.215  0.6102  0.4891  0.1099
  586MOL0     C80740   2.395   5.811   6.253  0.3430  0.5726  0.2413
  586MOL0     C80741   2.365   5.957   6.241 -0.4034 -0.1890  0.0034
  586MOL0     C80742   2.458   6.048   6.322  0.0641 -0.3552  0.2653
  586MOL0     C80743   2.403   6.193   6.296  0.9015 -0.0217  0.1914
  586MOL0     C80744   2.296   6.230   6.398  1.0030 -0.0377 -0.5188
  586MOL0     C80745   2.299   6.381   6.438 -0.4864 -0.6865 -0.3743
  586MOL0     C80746   2.262   6.471   6.322  0.4902 -1.0475 -0.3488
  586MOL0     N80747   2.278   6.613   6.354  0.3550 -0.7478  0.8195
  586MOL0     C80748   2.388   6.693   6.344 -0.4373 -1.0796 -0.4899
  586MOL0     C80749   2.356   6.821   6.375 -0.3965  0.3059 -1.4922
  586MOL0     C80750   2.440   6.943   6.382  0.8810 -0.2457 -0.2955
  586MOL0     C80751   2.446   7.020   6.519 -0.3778 -1.4972 -0.1744
  586MOL0     C80752   2.513   6.961   6.639 -0.6222  0.6361 -0.3782
  586MOL0     C80753   2.472   6.815   6.665 -0.4772  0.2245 -0.5641
  586MOL0     O80754   2.514   6.778   6.801  0.4176 -0.4783 -0.1769
  586MOL0     C80755   2.607   6.680   6.808 -0.1361  0.2812 -0.1612
  586MOL0     C80756   2.734   6.712   6.759  0.1261  0.1047 -1.3291
  586MOL0     C80757   2.851   6.636   6.794  0.6707 -0.4060  0.0470
  586MOL0     C80758   2.985   6.703   6.770 -0.0328 -0.0765  0.3453
  586MOL0     C80759   2.834   6.524   6.869  0.2082 -0.5057  0.0291
  586MOL0     C80760   2.942   6.450   6.932 -0.6368  0.0719 -0.1238
  586MOL0     O80761   2.910   6.362   7.040 -0.3927  0.1402  0.3310
  586MOL0     C80762   2.993   6.271   7.102 -0.4748 -0.1900 -0.0246
  586MOL0     C80763   3.127   6.263   7.085 -0.2876 -0.0138 -0.4562
  586MOL0     C80764   3.211   6.179   7.157 -0.2652  0.1763  0.4608
  586MOL0     C80765   3.162   6.109   7.264  0.2594  1.0374  0.4511
  586MOL0     O80766   3.247   6.018   7.327  0.3122  0.1802  0.1170
  586MOL0     C80767   3.216   5.981   7.467 -0.1049 -0.8470  0.5110
  586MOL0     C80768   3.330   5.898   7.530 -0.7309  0.1733 -0.1873
  586MOL0     C80769   3.380   5.770   7.447  0.4016  0.0250 -0.5246
  586MOL0     C80770   3.272   5.658   7.468  0.4532 -0.5285  0.6143
  586MOL0     C80771   3.311   5.509   7.451  0.2577 -0.2037  0.2238
  586MOL0     C80772   3.398   5.475   7.324  0.6153  0.0725  0.4477
  586MOL0     C80773   3.444   5.334   7.340  1.2027 -0.3270 -0.2243
  586MOL0     C80774   3.338   5.222   7.355 -0.0288 -0.5231 -0.3017
  586MOL0    Cl80775   3.441   5.079   7.361 -0.0209  0.1402 -0.2244
  586MOL0     C80776   3.022   6.117   7.285 -0.6428 -0.8578 -0.1838
  586MOL0     C80777   2.936   6.198   7.206 -0.0476  0.7779 -0.5654
  586MOL0     O80778   3.052   6.452   6.873 -0.9069  0.3811  0.0505
  586MOL0     C80779   2.706   6.483   6.911  0.2495 -0.9757  0.6879
  586MOL0     C80780   2.589   6.566   6.892  0.3086  0.2314  0.8516
  586MOL0     N80781   2.226   6.816   6.418  0.9930 -0.2083 -0.1374
  586MOL0     N80782   2.184   6.693   6.398 -0.8001  0.1850 -0.6953
  586MOL0     C80783   2.750   5.597   6.137 -0.1738 -0.0103 -0.3228
  586MOL0     C80784   2.841   5.517   6.066 -0.4573 -0.3115 -0.1655
  586MOL0     C80785   3.012   5.088   5.946 -0.2436 -0.3945 -0.9088
  586MOL0     C80786   3.025   5.117   5.809  0.4211  0.3528  0.0375
  586MOL0     C80787   3.067   5.020   5.714 -1.3064  0.1991 -0.7536
  586MOL0     C80788   3.091   4.884   5.757 -0.0465 -0.4131 -0.2951
  586MOL0     O80789   3.100   4.780   5.666 -0.4950 -0.4930  0.2546
  586MOL0     C80790   3.116   4.812   5.526 -0.0107 -0.6617 -0.0219
  586MOL0     C80791   3.266   4.861   5.508  0.2682  0.4267  0.6929
  586MOL0     C80792   3.292   4.907   5.359 -0.2739  0.2143  0.7771
  586MOL0     C80793   3.259   5.056   5.344  0.8980  0.9706  1.1515
  586MOL0     C80794   3.269   5.073   5.194 -0.4126 -0.0517  0.3881
  586MOL0     C80795   3.272   5.094   5.077  0.0686  0.2460  0.2403
  586MOL0     C80796   3.077   4.863   5.893  0.3825  0.3132 -0.2282
  586MOL0     C80797   3.037   4.955   5.993 -0.8243 -0.3214  0.4576
  586MOL0     C80798   3.015   4.896   6.134 -0.5538  1.3452 -0.2173
  586MOL0     H80799   2.669   5.225   6.065 -0.2947 -0.7908  0.0098
  586MOL0     H80800   2.488   5.375   6.133  0.2788 -0.8244  1.4160
  586MOL0     H80801   2.555   5.799   6.114  2.2686  2.8855  1.2145
  586MOL0     H80802   2.614   5.783   6.285  1.2568 -3.3208  0.5864
  586MOL0     H80803   2.324   5.759   6.189 -1.4257  2.4810  0.5728
  586MOL0     H80804   2.382   5.774   6.355 -0.1790  2.8269  1.0454
  586MOL0     H80805   2.377   5.990   6.137 -0.6709  1.5632  0.4957
  586MOL0     H80806   2.260   5.972   6.267 -0.0470 -1.5514  2.6431
  586MOL0     H80807   2.468   6.021   6.428 -0.9995  0.7766  0.6772
  586MOL0     H80808   2.556   6.041   6.275 -0.9214 -4.3487 -1.5701
  586MOL0     H80809   2.364   6.207   6.195  0.8526  0.2432  0.2457
  586MOL0     H80810   2.496   6.250   6.308  1.9056 -1.4741 -0.4170
  586MOL0     H80811   2.196   6.197   6.367 -0.0987  1.0994  1.5576
  586MOL0     H80812   2.316   6.178   6.492  3.0875 -1.1992 -1.5359
  586MOL0     H80813   2.401   6.397   6.476 -0.4070 -1.5434 -0.2116
  586MOL0     H80814   2.223   6.397   6.514 -0.0976  0.1710 -0.1581
  586MOL0     H80815   2.324   6.456   6.233 -2.5800 -0.0450 -2.8476
  586MOL0     H80816   2.159   6.444   6.299 -0.0154 -0.3059  0.9185
  586MOL0     H80817   2.478   6.651   6.300  0.4902 -2.2500  2.2944
  586MOL0     H80818   2.396   7.020   6.319 -2.0343  0.0309  1.8910
  586MOL0     H80819   2.544   6.933   6.348  0.9783 -1.0230  0.2050
  586MOL0     H80820   2.489   7.120   6.502 -0.7089 -1.2121  0.6158
  586MOL0     H80821   2.344   7.043   6.550  0.8004  3.1757  1.0577
  586MOL0     H80822   2.622   6.964   6.630  0.0491 -1.2143  4.2160
  586MOL0     H80823   2.482   7.017   6.728  0.4341 -0.8738  1.0188
  586MOL0     H80824   2.363   6.810   6.656 -0.6990  0.3488  1.6217
  586MOL0     H80825   2.513   6.748   6.589  0.4029  0.3288 -0.1895
  586MOL0     H80826   2.743   6.803   6.701  1.1905  3.2683  3.2698
  586MOL0     H80827   3.029   6.735   6.865  1.9777 -0.2151 -0.4767
  586MOL0     H80828   2.968   6.801   6.724  0.1003  0.3396  1.1664
  586MOL0     H80829   3.050   6.647   6.702 -0.5342  1.9231 -1.9230
  586MOL0     H80830   3.188   6.319   7.014  1.0311  0.6238  1.1044
  586MOL0     H80831   3.317   6.179   7.131 -0.7856  2.2980 -2.0197
  586MOL0     H80832   3.201   6.064   7.536  1.5242  0.5503 -0.7373
  586MOL0     H80833   3.136   5.906   7.459  3.5727 -5.2648  0.6067
  586MOL0     H80834   3.417   5.964   7.539  0.5267 -1.1107 -2.1129
  586MOL0     H80835   3.297   5.871   7.631  0.8799 -1.0843  0.0412
  586MOL0     H80836   3.475   5.738   7.490 -0.9367 -2.7447  0.5786
  586MOL0     H80837   3.400   5.784   7.340  0.8438 -1.7098 -0.6979
  586MOL0     H80838   3.184   5.676   7.405  2.3073  0.0418 -1.9404
  586MOL0     H80839   3.245   5.656   7.574  0.6709 -0.0642  0.6835
  586MOL0     H80840   3.374   5.489   7.538  0.9941  0.1344 -0.2221
  586MOL0     H80841   3.216   5.457   7.466  0.2237  0.2286  1.6505
  586MOL0     H80842   3.486   5.540   7.324  0.3993  0.4517  2.8693
  586MOL0     H80843   3.349   5.489   7.227  0.9435  1.1975  0.4277
  586MOL0     H80844   3.510   5.333   7.427  1.3264  0.1686 -0.3135
  586MOL0     H80845   3.502   5.312   7.249  0.3147 -0.2792 -0.8102
  586MOL0     H80846   3.260   5.225   7.278  0.3537  0.1257 -0.6750
  586MOL0     H80847   3.289   5.220   7.453  0.0906 -1.8376 -0.2516
  586MOL0     H80848   2.965   6.071   7.365 -3.1231  0.6893 -0.9429
  586MOL0     H80849   2.832   6.209   7.235 -0.5618  1.9921 -2.6345
  586MOL0     H80850   2.682   6.392   6.966 -0.2837 -0.2440  1.6922
  586MOL0     H80851   2.493   6.551   6.940 -0.0280  1.1946  0.5093
  586MOL0     H80852   2.780   5.698   6.162  2.4960 -0.4397 -1.4494
  586MOL0     H80853   2.933   5.566   6.037  0.2875  0.3843  2.9431
  586MOL0     H80854   3.017   5.222   5.786 -2.1513  0.7449  2.2942
  586MOL0     H80855   3.083   5.053   5.611 -0.2078  0.6481 -0.4446
  586MOL0     H80856   3.103   4.729   5.457 -2.6814  0.2328 -0.6989
  586MOL0     H80857   3.037   4.878   5.490 -1.1148 -2.3309 -0.7763
  586MOL0     H80858   3.323   4.769   5.526 -1.3702 -0.8362 -0.2694
  586MOL0     H80859   3.294   4.939   5.580 -3.5468  1.8499  0.8499
  586MOL0     H80860   3.401   4.900   5.345 -0.4291  1.8458 -1.9451
  586MOL0     H80861   3.243   4.847   5.282  2.4658 -1.9910  0.5885
  586MOL0     H80862   3.332   5.111   5.404  1.9309 -2.2647  3.1033
  586MOL0     H80863   3.160   5.085   5.382  1.7036  1.5391  2.9287
  586MOL0     H80864   3.297   5.112   4.975  4.4177 -2.3343  0.5694
  586MOL0     H80865   3.081   4.760   5.927 -0.2881 -0.3913 -2.1541
  586MOL0     H80866   3.106   4.903   6.195 -1.0431 -1.8992  1.0299
  586MOL0     H80867   2.931   4.943   6.186 -0.9948  0.3867 -0.0618
  586MOL0     H80868   2.989   4.790   6.130 -0.6302  1.3765 -0.5977
  587MOL0     O80869   2.763   2.977   3.776  0.2299  0.8775  0.2793
  587MOL0     C80870   2.745   3.054   3.673 -0.2279  0.6040 -0.8941
  587MOL0     O80871   2.834   3.145   3.639  0.1971  0.3880  0.3177
  587MOL0     C80872   2.970   3.121   3.659 -0.2720 -1.1510  0.3305
  587MOL0     C80873   3.032   3.001   3.656 -0.1562 -0.3521  0.6195
  587MOL0     C80874   3.170   2.995   3.669  0.2065 -0.5326  0.1963
  587MOL0     C80875   3.256   3.102   3.705 -0.1420  0.5873 -0.6645
  587MOL0     O80876   3.395   3.089   3.705 -0.1088  0.5960  0.1303
  587MOL0     C80877   3.453   3.006   3.806  0.4010 -0.1157  0.3644
  587MOL0     C80878   3.534   3.090   3.904 -0.4090  0.5438  0.5757
  587MOL0     C80879   3.629   2.995   3.978 -0.0455  0.9795 -1.2143
  587MOL0     C80880   3.567   2.922   4.101 -0.3255  0.3076  0.3932
  587MOL0     C80881   3.665   2.813   4.153  0.0708 -0.1776  0.1743
  587MOL0     C80882   3.615   2.779   4.294 -0.2714  0.1991  0.5069
  587MOL0     C80883   3.720   2.706   4.381 -0.0109 -0.3549  0.4095
  587MOL0     C80884   3.845   2.794   4.420  0.1246  0.2911 -0.3635
  587MOL0     N80885   3.907   2.739   4.548 -0.4901  0.1442 -0.3238
  587MOL0     C80886   3.877   2.783   4.678 -1.4081 -0.0858 -0.2253
  587MOL0     C80887   3.963   2.708   4.757  0.2515 -0.0810 -0.0030
  587MOL0     C80888   3.982   2.730   4.908  0.1940  0.2831  0.7340
  587MOL0     C80889   4.089   2.830   4.936 -0.8568  0.2073 -0.6625
  587MOL0     C80890   4.223   2.779   4.895  0.6223 -0.4266 -0.6299
  587MOL0     C80891   4.338   2.797   4.990 -0.0200 -0.9157 -0.6581
  587MOL0     O80892   4.350   2.943   5.030  0.1470  0.7295  0.8065
  587MOL0     C80893   4.471   2.992   5.070  0.1100  0.3540 -0.1935
  587MOL0     C80894   4.474   3.128   5.045  0.4432  0.6949  0.4140
  587MOL0     C80895   4.590   3.199   5.083  0.2688  0.3873  0.6172
  587MOL0     C80896   4.580   3.347   5.066 -0.1218  0.9150  0.2006
  587MOL0     C80897   4.705   3.132   5.134  0.2733  0.2399 -0.7295
  587MOL0     C80898   4.834   3.201   5.142  0.3652 -0.5052 -0.6453
  587MOL0     O80899   4.942   3.121   5.180  0.4095 -0.3657 -0.1279
  587MOL0     C80900   5.070   3.166   5.133  0.1454  1.0235  0.3277
  587MOL0     C80901   5.090   3.167   4.991  0.0133  0.2664  0.4767
  587MOL0     C80902   5.212   3.217   4.936 -0.3828  0.1877 -0.9405
  587MOL0     C80903   5.316   3.247   5.024  0.5949  0.5870  0.6246
  587MOL0     O80904   5.450   3.269   4.984  0.5509  0.3032 -0.1441
  587MOL0     C80905   5.486   3.262   4.844 -0.1581  0.5645  0.0745
  587MOL0     C80906   5.631   3.210   4.839 -0.5278 -1.7531 -1.4100
  587MOL0     C80907   5.721   3.345   4.862 -0.1477 -0.1852  0.0790
  587MOL0     C80908   5.871   3.292   4.853  0.6508  0.3736  0.1163
  587MOL0     C80909   5.968   3.410   4.898 -0.6216 -0.7077  0.7851
  587MOL0     C80910   6.115   3.365   4.926  0.6022 -0.6346 -0.3443
  587MOL0     C80911   6.187   3.324   4.799  0.3870  0.5000  0.4991
  587MOL0     C80912   6.335   3.319   4.818 -0.2403  0.1177 -0.5913
  587MOL0    Cl80913   6.421   3.490   4.813 -0.2102 -0.1271  0.2807
  587MOL0     C80914   5.300   3.235   5.165  0.4921  0.0293  0.3215
  587MOL0     C80915   5.176   3.194   5.216  1.0197 -0.2143  0.9229
  587MOL0     O80916   4.845   3.319   5.108  0.2393  0.0929  0.4528
  587MOL0     C80917   4.694   2.992   5.152  0.3709  0.2899  0.1311
  587MOL0     C80918   4.583   2.915   5.123 -0.3496 -0.2562 -0.2761
  587MOL0     N80919   4.032   2.617   4.680  0.1160  0.0958 -0.3892
  587MOL0     N80920   3.995   2.639   4.558  0.5477  0.0645 -0.1156
  587MOL0     C80921   3.193   3.229   3.702 -0.2109  0.5400  0.6938
  587MOL0     C80922   3.051   3.242   3.679  0.0033 -0.3479 -1.0233
  587MOL0     C80923   2.608   3.045   3.608  0.3617 -0.1837 -0.1422
  587MOL0     C80924   2.522   2.958   3.667  0.2017 -0.1607  0.7150
  587MOL0     C80925   2.387   2.943   3.615 -0.7885 -0.4370 -0.3110
  587MOL0     C80926   2.336   3.025   3.514 -0.0673  1.2331  0.1342
  587MOL0     O80927   2.213   2.994   3.469  0.0753  0.3907 -0.8455
  587MOL0     C80928   2.137   3.099   3.407  0.4541 -0.2738 -0.3008
  587MOL0     C80929   2.019   3.012   3.341 -0.3244 -0.2986 -0.3470
  587MOL0     C80930   1.926   2.947   3.446 -0.3772  0.7888  1.2019
  587MOL0     C80931   1.801   2.889   3.369  0.5513 -0.3826  0.0776
  587MOL0     C80932   1.847   2.782   3.274 -0.1154  0.6645 -0.4759
  587MOL0     C80933   1.851   2.719   3.163 -0.4758  0.8022 -0.7248
  587MOL0     C80934   2.429   3.111   3.459 -0.1379 -0.2079  0.5709
  587MOL0     C80935   2.559   3.126   3.504 -0.2843 -0.3713 -0.0578
  587MOL0     C80936   2.637   3.231   3.432 -0.8326  0.1490  0.7145
  587MOL0     H80937   2.982   2.904   3.655  0.4749 -0.6806  0.6240
  587MOL0     H80938   3.220   2.899   3.661 -0.7466 -1.1013  0.8722
  587MOL0     H80939   3.519   2.935   3.757 -0.0630 -1.0533  1.0677
  587MOL0     H80940   3.373   2.953   3.859  0.3312  0.6147  1.0144
  587MOL0     H80941   3.592   3.148   3.833  1.5565 -1.1943  0.6622
  587MOL0     H80942   3.478   3.164   3.963  0.2816  0.8857  0.8137
  587MOL0     H80943   3.665   2.918   3.909  0.6795  0.7337 -0.5780
  587MOL0     H80944   3.718   3.050   4.010 -0.3281  0.3922  0.6844
  587MOL0     H80945   3.546   3.003   4.172  0.4435  0.0314  0.9432
  587MOL0     H80946   3.473   2.873   4.077 -0.9038  1.2211  0.7296
  587MOL0     H80947   3.766   2.856   4.158 -0.4083  1.1901 -1.0325
  587MOL0     H80948   3.662   2.729   4.084 -1.7757  0.7707 -0.9784
  587MOL0     H80949   3.567   2.864   4.343 -2.9219 -0.6319 -0.4880
  587MOL0     H80950   3.541   2.699   4.280  1.5257 -1.8768  1.9966
  587MOL0     H80951   3.752   2.615   4.330  2.1546 -0.0483  1.1412
  587MOL0     H80952   3.672   2.667   4.470  1.5997 -0.9398  1.0520
  587MOL0     H80953   3.924   2.783   4.346  0.1914 -2.9373  0.0424
  587MOL0     H80954   3.815   2.899   4.427  1.2524  0.5933  0.2521
  587MOL0     H80955   3.807   2.860   4.709 -1.1413 -0.5196  1.5743
  587MOL0     H80956   4.012   2.642   4.965  0.5294 -0.3110 -0.3401
  587MOL0     H80957   3.885   2.755   4.953 -0.3403  0.5163 -0.4814
  587MOL0     H80958   4.071   2.922   4.880  0.3434  1.5522  1.0686
  587MOL0     H80959   4.083   2.856   5.041 -1.3414  1.0159 -0.8836
  587MOL0     H80960   4.222   2.670   4.886 -0.1520 -0.4477 -0.3779
  587MOL0     H80961   4.243   2.809   4.792  0.0936  2.8130  0.0906
  587MOL0     H80962   4.320   2.739   5.081  0.2813  0.2368  0.1651
  587MOL0     H80963   4.432   2.762   4.945 -0.1390 -2.8392  0.4615
  587MOL0     H80964   4.391   3.174   4.993 -1.5675 -4.1998 -1.3223
  587MOL0     H80965   4.631   3.385   4.977 -0.1159 -2.2165 -1.2764
  587MOL0     H80966   4.625   3.396   5.152 -1.7146 -1.6190  2.6750
  587MOL0     H80967   4.475   3.374   5.050 -0.6330 -1.4400 -0.8545
  587MOL0     H80968   5.009   3.127   4.931 -1.3481 -0.0755  2.4382
  587MOL0     H80969   5.219   3.209   4.828 -1.6982 -1.7236 -0.9339
  587MOL0     H80970   5.426   3.194   4.783 -2.0209  1.4462  0.8334
  587MOL0     H80971   5.469   3.362   4.802 -1.1504  1.1668  1.7947
  587MOL0     H80972   5.642   3.155   4.933 -0.8057 -1.3565 -1.1434
  587MOL0     H80973   5.644   3.160   4.743 -0.8051 -1.8269 -1.4085
  587MOL0     H80974   5.703   3.379   4.964 -0.3729 -3.2732  1.1510
  587MOL0     H80975   5.713   3.429   4.791  0.5719 -1.5665 -1.7006
  587MOL0     H80976   5.893   3.257   4.752 -0.3213  1.0452 -0.3434
  587MOL0     H80977   5.882   3.200   4.910 -1.8926 -0.6167 -0.8232
  587MOL0     H80978   5.968   3.481   4.815 -1.5509  0.8130  2.0309
  587MOL0     H80979   5.920   3.469   4.976  1.0230 -0.3752  1.5631
  587MOL0     H80980   6.105   3.288   5.002 -3.9823  0.3191  0.3282
  587MOL0     H80981   6.165   3.454   4.965 -1.8318  0.0819  1.4409
  587MOL0     H80982   6.162   3.405   4.729  0.5634  0.2281  0.1162
  587MOL0     H80983   6.153   3.228   4.758 -0.8506  0.8506  0.6506
  587MOL0     H80984   6.389   3.253   4.750  2.1215  0.0140  1.2331
  587MOL0     H80985   6.373   3.274   4.911 -0.9114  0.3689 -0.1815
  587MOL0     H80986   5.385   3.251   5.230  1.3602 -1.2251 -0.4486
  587MOL0     H80987   5.153   3.185   5.321 -0.0215 -2.0185  0.5865
  587MOL0     H80988   4.788   2.946   5.182  0.0483  0.3566  1.2999
  587MOL0     H80989   4.579   2.807   5.134  1.1153 -0.4296 -1.2180
  587MOL0     H80990   3.264   3.311   3.706  1.1850 -0.5977  0.2441
  587MOL0     H80991   3.017   3.344   3.663  0.6294  0.0065 -0.1642
  587MOL0     H80992   2.551   2.889   3.745  2.6043  0.3568  0.3604
  587MOL0     H80993   2.325   2.863   3.656  0.4709 -2.8037 -2.7214
  587MOL0     H80994   2.096   3.166   3.482 -0.3606 -1.7721  0.6518
  587MOL0     H80995   2.191   3.149   3.326 -2.7190 -1.7402 -3.6549
  587MOL0     H80996   2.062   2.947   3.264  2.2497  0.1308  0.6556
  587MOL0     H80997   1.954   3.090   3.301  1.6107  0.3069 -2.5615
  587MOL0     H80998   1.983   2.869   3.497 -1.4704 -0.9014 -0.0531
  587MOL0     H80999   1.901   3.015   3.528 -0.0059 -1.6480  3.4396
  587MOL0     H81000   1.750   2.967   3.312  1.4934 -1.3306 -2.1828
  587MOL0     H81001   1.726   2.848   3.437  1.3637 -1.5492  0.3020
  587MOL0     H81002   1.854   2.652   3.080 -2.0216 -1.2498  0.7495
  587MOL0     H81003   2.396   3.171   3.375 -1.3105 -1.3378  0.1971
  587MOL0     H81004   2.578   3.268   3.348 -0.8402 -1.2751  0.0477
  587MOL0     H81005   2.672   3.304   3.505  1.9062 -1.5478  1.2537
  587MOL0     H81006   2.729   3.188   3.390  0.0063 -0.1838  2.7568
  588MOL0     O81007   9.178  10.609   2.845 -0.5106 -0.4267  0.3631
  588MOL0     C81008   9.091  10.539   2.885  0.8330 -0.1862 -0.6003
  588MOL0     O81009   9.063  10.409   2.852 -0.3520  0.6368 -0.1477
  588MOL0     C81010   9.151  10.329   2.784  0.3242 -0.5110  0.4009
  588MOL0     C81011   9.098  10.217   2.714 -0.6769 -0.0770 -0.7853
  588MOL0     C81012   9.192  10.135   2.639  0.2121  0.0953  0.3870
  588MOL0     C81013   9.326  10.166   2.640 -1.7026 -0.3025  0.4118
  588MOL0     O81014   9.405  10.082   2.571 -0.8465  0.6612 -0.1796
  588MOL0     C81015   9.537  10.142   2.534  0.2693 -0.1620  0.1899
  588MOL0     C81016   9.602  10.058   2.420  0.3959  0.3576  0.7665
  588MOL0     C81017   9.599   9.908   2.465 -0.6124 -0.1703  0.6269
  588MOL0     C81018   9.684   9.838   2.369 -0.5710 -0.9073  0.2530
  588MOL0     C81019   9.678   9.689   2.417  0.4050  0.0648 -0.7515
  588MOL0     C81020   9.747   9.604   2.317  0.4263 -0.3201  0.7399
  588MOL0     C81021   9.903   9.604   2.342  0.0028  0.0911 -0.4146
  588MOL0     C81022   9.990   9.512   2.259  0.3864  0.6396 -0.3263
  588MOL0     N81023  10.124   9.526   2.307 -0.0289  0.3544  0.1033
  588MOL0     C81024  10.186   9.478   2.422  1.3125  0.3352 -0.1605
  588MOL0     C81025  10.317   9.501   2.395  0.8521 -0.1488  0.8452
  588MOL0     C81026  10.420   9.510   2.501 -0.4471  0.4163 -0.2484
  588MOL0     C81027  10.549   9.439   2.454  0.1277  0.1751 -0.5299
  588MOL0     C81028  10.628   9.390   2.582  0.3970  0.0832  0.1680
  588MOL0     C81029  10.778   9.349   2.559 -0.0688  0.0012  0.5630
  588MOL0     O81030  10.776   9.254   2.447 -0.1673 -0.2631  0.1097
  588MOL0     C81031  10.895   9.213   2.407 -0.1459  0.7507  0.3209
  588MOL0     C81032  10.898   9.143   2.285 -0.3606 -0.5105 -0.5655
  588MOL0     C81033  11.018   9.102   2.221  0.2355 -0.2621 -0.3051
  588MOL0     C81034  11.021   9.031   2.085  0.2626  0.4634 -0.1915
  588MOL0     C81035  11.137   9.124   2.293  0.3376 -1.2434  1.0112
  588MOL0     C81036  11.266   9.071   2.259  0.1020  0.0242 -0.0920
  588MOL0     O81037  11.299   9.084   2.127  0.5033  0.1409  0.0190
  588MOL0     C81038  11.418   9.034   2.090 -0.2728  0.2764  0.1172
  588MOL0     C81039  11.422   8.930   2.002 -0.2522  0.6270  0.2178
  588MOL0     C81040  11.548   8.870   1.973  0.0409 -0.2320  0.1977
  588MOL0     C81041  11.668   8.917   2.020 -0.7498  0.1820 -0.4288
  588MOL0     O81042  11.792   8.876   1.982  0.3005  0.3498  0.7955
  588MOL0     C81043  11.822   8.736   1.992  0.3650 -0.5771 -0.0729
  588MOL0     C81044  11.971   8.703   1.965  0.3572  0.7527 -1.2688
  588MOL0     C81045  12.011   8.582   2.041 -0.1822 -0.3356  0.2448
  588MOL0     C81046  12.122   8.503   1.971 -0.5113 -0.3927 -0.3995
  588MOL0     C81047  12.252   8.583   1.951 -0.9472 -0.4512 -0.0905
  588MOL0     C81048  12.323   8.623   2.076 -0.0725 -0.0699  0.4741
  588MOL0     C81049  12.379   8.494   2.149  0.4710  0.3669 -0.2032
  588MOL0     C81050  12.471   8.394   2.078 -0.3041 -0.8590 -0.0908
  588MOL0    Cl81051  12.633   8.468   2.042 -0.4717 -0.0247  0.3833
  588MOL0     C81052  11.661   9.025   2.112  0.1510 -0.2406 -0.2131
  588MOL0     C81053  11.538   9.084   2.145  0.7193 -0.3175  0.0306
  588MOL0     O81054  11.328   9.005   2.343 -0.0839 -0.5662  0.0558
  588MOL0     C81055  11.131   9.196   2.418 -0.0075 -0.1088 -0.5350
  588MOL0     C81056  11.016   9.251   2.466 -0.8847  0.1771 -0.4672
  588MOL0     N81057  10.340   9.546   2.267 -0.0138 -0.2134  0.3377
  588MOL0     N81058  10.226   9.556   2.220  0.0876 -0.6809 -0.0293
  588MOL0     C81059   9.377  10.275   2.714 -0.0957 -0.2555  0.0763
  588MOL0     C81060   9.292  10.352   2.789 -0.1629  0.3068  0.8607
  588MOL0     C81061   8.994  10.600   2.985 -0.0156 -0.6419 -0.6727
  588MOL0     C81062   8.920  10.505   3.060 -0.2810 -0.0402  0.7161
  588MOL0     C81063   8.825  10.566   3.155 -0.5845 -1.0801 -0.3525
  588MOL0     C81064   8.814  10.705   3.175  0.1067 -0.6204  0.5144
  588MOL0     O81065   8.724  10.760   3.264 -0.4814  0.5305  0.1132
  588MOL0     C81066   8.610  10.687   3.313 -0.0803  0.1031 -0.6165
  588MOL0     C81067   8.513  10.783   3.395 -0.0065 -0.0629  0.1685
  588MOL0     C81068   8.391  10.712   3.453 -0.5402 -1.0741 -0.1932
  588MOL0     C81069   8.268  10.798   3.450  0.4798  0.5513  0.4870
  588MOL0     C81070   8.165  10.700   3.488  0.1939  0.2260 -0.0334
  588MOL0     C81071   8.087  10.617   3.530  0.2717  0.4955  0.1663
  588MOL0     C81072   8.883  10.790   3.096  0.5277 -0.5463 -0.3625
  588MOL0     C81073   8.982  10.747   3.010 -0.0520 -0.0150  0.1637
  588MOL0     C81074   9.067  10.856   2.946 -0.5118 -0.6218  1.0158
  588MOL0     H81075   8.990  10.210   2.708 -0.8408  1.0322  0.4193
  588MOL0     H81076   9.153  10.060   2.572 -5.0989  0.3703  2.6384
  588MOL0     H81077   9.600  10.138   2.624 -0.3312  0.2266  0.6381
  588MOL0     H81078   9.516  10.242   2.497 -0.4403 -1.4418 -3.2489
  588MOL0     H81079   9.547  10.067   2.325 -0.0863  1.6455  1.1430
  588MOL0     H81080   9.697  10.110   2.403 -0.0717  1.2205  0.7166
  588MOL0     H81081   9.629   9.903   2.570 -0.0752  1.1882  0.5667
  588MOL0     H81082   9.495   9.883   2.444 -1.1344  1.7604  0.7365
  588MOL0     H81083   9.646   9.846   2.267 -3.0616 -2.0121  1.0039
  588MOL0     H81084   9.788   9.867   2.385 -1.2492  0.9453  1.7583
  588MOL0     H81085   9.574   9.659   2.429  1.7099 -3.8861  3.5975
  588MOL0     H81086   9.721   9.688   2.517 -0.0476 -0.5732 -0.5603
  588MOL0     H81087   9.698   9.506   2.321  1.2274 -0.7468  0.2910
  588MOL0     H81088   9.732   9.653   2.221  0.2699  2.8611  2.2661
  588MOL0     H81089   9.927   9.564   2.441  0.8281 -1.3347 -1.1401
  588MOL0     H81090   9.935   9.707   2.324  0.8660 -0.4994 -2.6389
  588MOL0     H81091   9.947   9.412   2.271 -1.3744  1.2716 -1.0790
  588MOL0     H81092   9.982   9.527   2.151 -2.1722 -3.0080 -0.8246
  588MOL0     H81093  10.133   9.453   2.514  1.3756 -0.8709 -0.4382
  588MOL0     H81094  10.374   9.457   2.584 -0.8831 -0.6368 -1.1361
  588MOL0     H81095  10.449   9.610   2.534  1.1723 -0.1735  0.2188
  588MOL0     H81096  10.534   9.353   2.388 -0.5471 -1.2235  1.3609
  588MOL0     H81097  10.613   9.512   2.402 -1.3908  4.4863  3.0550
  588MOL0     H81098  10.613   9.449   2.672 -4.7994 -1.6132  0.8034
  588MOL0     H81099  10.583   9.297   2.620  1.6665 -1.6072 -2.1451
  588MOL0     H81100  10.833   9.436   2.523 -1.0058 -0.5045 -2.3187
  588MOL0     H81101  10.823   9.309   2.651 -2.3351 -1.5405  1.0835
  588MOL0     H81102  10.806   9.126   2.230 -0.5421  0.4873 -0.5914
  588MOL0     H81103  10.920   8.999   2.058 -0.7120  2.1601  1.1912
  588MOL0     H81104  11.093   8.949   2.086  0.6619  0.6749  3.3200
  588MOL0     H81105  11.053   9.101   2.008 -0.8421  0.9424 -0.2362
  588MOL0     H81106  11.333   8.892   1.954  0.1974 -0.1192 -0.0412
  588MOL0     H81107  11.571   8.787   1.907  0.9419  0.1291  0.0396
  588MOL0     H81108  11.798   8.715   2.097  1.0980  0.0484  0.2370
  588MOL0     H81109  11.757   8.678   1.927 -0.0028  0.3272 -0.5263
  588MOL0     H81110  11.963   8.687   1.857 -0.2556 -0.9392 -0.9999
  588MOL0     H81111  12.036   8.786   1.994  1.8921 -0.5764 -0.7843
  588MOL0     H81112  11.930   8.510   2.057 -0.6973  0.5926  2.1878
  588MOL0     H81113  12.043   8.605   2.143  1.5602 -0.6215 -0.2201
  588MOL0     H81114  12.080   8.481   1.872  1.2583 -0.1150 -1.2622
  588MOL0     H81115  12.131   8.410   2.027 -1.4606  0.5715  1.4545
  588MOL0     H81116  12.328   8.534   1.890  0.2349 -2.0531  2.4883
  588MOL0     H81117  12.223   8.674   1.898  3.3402  0.5577 -1.0735
  588MOL0     H81118  12.262   8.682   2.145  1.9177  1.5956  0.8998
  588MOL0     H81119  12.406   8.688   2.047  0.7595 -2.0761 -2.0649
  588MOL0     H81120  12.304   8.427   2.191  2.6545 -1.6014  0.8189
  588MOL0     H81121  12.424   8.522   2.245 -2.1166 -1.4463  1.6963
  588MOL0     H81122  12.423   8.358   1.986 -0.3880 -0.4596 -0.2063
  588MOL0     H81123  12.483   8.306   2.142  0.0082 -1.6200 -1.1604
  588MOL0     H81124  11.758   9.061   2.144  1.1162 -3.0935  0.3447
  588MOL0     H81125  11.525   9.164   2.217  0.8650 -1.1476  1.0037
  588MOL0     H81126  11.223   9.218   2.470 -0.7506  0.4665  0.5796
  588MOL0     H81127  11.026   9.306   2.559 -0.2003  0.5774 -0.7684
  588MOL0     H81128   9.480  10.308   2.725  0.0301  0.9653 -3.4975
  588MOL0     H81129   9.323  10.431   2.857  1.2748 -0.6465  1.3537
  588MOL0     H81130   8.919  10.397   3.050  0.5713 -0.0818  1.0479
  588MOL0     H81131   8.765  10.507   3.224 -0.6568  0.4312  0.9336
  588MOL0     H81132   8.562  10.641   3.227 -1.7079 -0.2894  0.4480
  588MOL0     H81133   8.641  10.608   3.382 -0.9556  2.5932  2.9178
  588MOL0     H81134   8.481  10.856   3.319 -0.1460 -1.2137 -0.9204
  588MOL0     H81135   8.565  10.829   3.479 -1.7343 -1.6764  2.2406
  588MOL0     H81136   8.373  10.621   3.395 -3.3111  1.1268 -3.1988
  588MOL0     H81137   8.422  10.678   3.552 -4.8894 -1.5196  1.2165
  588MOL0     H81138   8.244  10.849   3.357 -1.6552 -0.0887  0.6193
  588MOL0     H81139   8.279  10.874   3.528  2.0010  1.9683 -1.0296
  588MOL0     H81140   8.012  10.549   3.564  0.0664 -0.5719 -2.2017
  588MOL0     H81141   8.878  10.897   3.111  0.7535 -0.8298  2.3604
  588MOL0     H81142   9.164  10.858   2.995 -0.2997 -1.6996  0.6810
  588MOL0     H81143   9.083  10.829   2.841  2.2567 -1.2846  1.5370
  588MOL0     H81144   9.024  10.957   2.948  1.3494  0.2102  2.5685
  589MOL0     O81145   3.233   6.552   0.746  0.3743 -0.4095  0.1336
  589MOL0     C81146   3.160   6.526   0.835  0.5917 -0.0569 -0.8656
  589MOL0     O81147   3.197   6.486   0.961  0.1492 -0.3368 -0.3213
  589MOL0     C81148   3.323   6.430   0.974 -0.5913  0.7573  0.6535
  589MOL0     C81149   3.447   6.494   0.974  0.4674  0.6519  0.2685
  589MOL0     C81150   3.561   6.422   1.003 -0.3599 -0.6605  0.0993
  589MOL0     C81151   3.550   6.281   1.025 -0.4459  0.1894 -0.3148
  589MOL0     O81152   3.662   6.206   1.051 -0.4135  0.4840 -0.1920
  589MOL0     C81153   3.794   6.260   1.081  0.0773 -0.6132  0.5883
  589MOL0     C81154   3.864   6.315   0.953 -0.3549  0.1437 -1.3352
  589MOL0     C81155   3.981   6.214   0.904  0.5272 -0.3500 -0.6742
  589MOL0     C81156   3.918   6.090   0.858 -0.1420 -0.8378 -0.0253
  589MOL0     C81157   4.023   6.000   0.791 -0.1427 -1.1534 -0.6095
  589MOL0     C81158   4.110   6.072   0.684 -0.1530  0.0665 -1.4114
  589MOL0     C81159   4.145   5.977   0.567 -0.1547 -0.3170  1.1504
  589MOL0     C81160   4.284   6.015   0.517  0.1535  0.9189 -0.5111
  589MOL0     N81161   4.299   6.158   0.472  0.0389  0.2540 -1.3511
  589MOL0     C81162   4.369   6.261   0.524 -0.1227 -0.1080  0.3866
  589MOL0     C81163   4.324   6.372   0.470 -0.5235  0.4957  0.2984
  589MOL0     C81164   4.376   6.511   0.488  0.4730 -0.0038 -0.1691
  589MOL0     C81165   4.457   6.560   0.363 -0.8294 -0.4566  0.2598
  589MOL0     C81166   4.483   6.712   0.340 -0.2943 -0.8571  0.1959
  589MOL0     C81167   4.581   6.773   0.443  0.4141 -0.8709 -0.3949
  589MOL0     O81168   4.713   6.724   0.427  0.3103  0.1673 -0.3321
  589MOL0     C81169   4.803   6.756   0.526  0.6304  0.1122 -0.3622
  589MOL0     C81170   4.783   6.826   0.640 -0.6080 -0.6750  0.6670
  589MOL0     C81171   4.875   6.856   0.739  0.2292  0.7355  0.1960
  589MOL0     C81172   4.830   6.928   0.864  0.3043 -0.5466 -0.0445
  589MOL0     C81173   5.005   6.793   0.717  0.3616  0.6071  0.0805
  589MOL0     C81174   5.114   6.804   0.806 -1.6534 -0.9070 -0.3570
  589MOL0     O81175   5.200   6.695   0.814  0.2305  0.1863  0.0951
  589MOL0     C81176   5.323   6.717   0.849 -0.6430  0.5109  0.7525
  589MOL0     C81177   5.406   6.790   0.756  0.7875  0.7560 -0.7247
  589MOL0     C81178   5.543   6.795   0.796 -1.0812 -0.2871 -0.6919
  589MOL0     C81179   5.598   6.728   0.911 -0.6727  0.8990 -1.1096
  589MOL0     O81180   5.737   6.743   0.929  0.7562 -0.6598  0.8320
  589MOL0     C81181   5.795   6.640   1.002  0.7714  0.2752  0.7620
  589MOL0     C81182   5.863   6.697   1.132 -0.6084 -0.2283  0.8969
  589MOL0     C81183   5.994   6.768   1.108 -0.2956 -0.5956 -0.5845
  589MOL0     C81184   6.072   6.784   1.241 -0.6818  0.0677  0.6956
  589MOL0     C81185   6.218   6.827   1.205  0.9829  0.9196 -0.2211
  589MOL0     C81186   6.299   6.812   1.333  0.0602  0.5325  0.2280
  589MOL0     C81187   6.437   6.862   1.316 -1.3672 -0.4053  0.4495
  589MOL0     C81188   6.532   6.799   1.418 -0.2249 -0.8139  0.5735
  589MOL0    Cl81189   6.477   6.815   1.585  0.0491 -0.7717  0.1812
  589MOL0     C81190   5.500   6.665   1.000 -0.3382 -0.0389  0.1008
  589MOL0     C81191   5.363   6.655   0.966  0.1829 -1.3523  0.5877
  589MOL0     O81192   5.137   6.912   0.863 -0.4605 -1.1519  0.0556
  589MOL0     C81193   5.017   6.705   0.609 -0.5437  0.7838 -0.3990
  589MOL0     C81194   4.924   6.688   0.515 -0.4020 -0.7563  0.4657
  589MOL0     N81195   4.223   6.344   0.390  0.6163  0.1492  0.1595
  589MOL0     N81196   4.205   6.212   0.395  0.7628 -0.6546 -0.6450
  589MOL0     C81197   3.430   6.211   1.016 -0.1042 -0.3372  0.9630
  589MOL0     C81198   3.318   6.293   0.992 -0.3989  1.1406  0.2180
  589MOL0     C81199   3.010   6.542   0.821  0.0682  0.0721 -0.4729
  589MOL0     C81200   2.937   6.502   0.936  0.1696  0.1755 -0.1459
  589MOL0     C81201   2.801   6.505   0.941  0.5846  0.0836 -0.1458
  589MOL0     C81202   2.727   6.555   0.834 -1.0336 -0.0387 -0.0712
  589MOL0     O81203   2.599   6.586   0.830 -0.0031  0.3862  0.1395
  589MOL0     C81204   2.514   6.561   0.938 -1.3597 -0.0345 -0.5164
  589MOL0     C81205   2.368   6.588   0.888 -0.3666  0.2391  0.2563
  589MOL0     C81206   2.259   6.559   0.991  0.1611  0.1963 -0.2477
  589MOL0     C81207   2.124   6.572   0.925 -0.0015  0.3852 -0.7791
  589MOL0     C81208   2.018   6.559   1.027 -0.3042  0.2764 -0.5976
  589MOL0     C81209   1.937   6.533   1.111  0.5877 -0.9185 -0.3368
  589MOL0     C81210   2.800   6.598   0.719  0.0744 -0.5494 -0.1356
  589MOL0     C81211   2.941   6.587   0.706  0.2682  0.0981  0.9629
  589MOL0     C81212   3.012   6.628   0.575  0.3075 -0.0723  0.2165
  589MOL0     H81213   3.451   6.602   0.961 -0.3445  0.6915  0.3178
  589MOL0     H81214   3.650   6.484   1.009  0.1790 -0.5749 -4.7279
  589MOL0     H81215   3.845   6.187   1.144 -0.6672 -0.1835  1.7377
  589MOL0     H81216   3.771   6.339   1.153 -2.7786  0.6713 -1.5468
  589MOL0     H81217   3.791   6.327   0.873 -0.8790 -0.2541 -0.9213
  589MOL0     H81218   3.918   6.409   0.968 -0.1464 -0.0763 -0.6574
  589MOL0     H81219   4.032   6.268   0.824  0.8134  1.6864  0.7870
  589MOL0     H81220   4.059   6.188   0.977  1.7608 -0.4493 -1.9999
  589MOL0     H81221   3.873   6.038   0.943  0.2543 -2.1908 -0.6257
  589MOL0     H81222   3.833   6.117   0.794  1.3374 -0.5534 -1.9851
  589MOL0     H81223   3.972   5.916   0.743 -3.3652  2.3184 -3.8567
  589MOL0     H81224   4.089   5.954   0.866  0.3884 -0.6089 -0.7329
  589MOL0     H81225   4.055   6.158   0.644 -2.7917 -1.0040 -0.3201
  589MOL0     H81226   4.194   6.113   0.740 -1.8491 -1.1324  2.3652
  589MOL0     H81227   4.069   5.993   0.489  1.5640  1.3185 -0.2848
  589MOL0     H81228   4.143   5.869   0.583 -1.8283 -1.0555 -2.7068
  589MOL0     H81229   4.359   5.995   0.595  1.3372 -0.1221 -1.8496
  589MOL0     H81230   4.313   5.945   0.438  2.4539  0.1020  0.9466
  589MOL0     H81231   4.445   6.258   0.602  0.8934  1.4138 -0.4864
  589MOL0     H81232   4.443   6.529   0.572  1.9344 -3.5630 -0.3896
  589MOL0     H81233   4.296   6.583   0.508  0.6783 -0.1767  1.3383
  589MOL0     H81234   4.555   6.510   0.362  0.1150  1.1864  2.1581
  589MOL0     H81235   4.402   6.519   0.278 -1.8079 -0.0461  0.6807
  589MOL0     H81236   4.518   6.727   0.237 -1.4509 -0.7481 -0.1981
  589MOL0     H81237   4.387   6.759   0.362  0.3318  0.0942  0.9291
  589MOL0     H81238   4.582   6.880   0.422  0.3695 -0.3479  1.9800
  589MOL0     H81239   4.542   6.761   0.544  1.6618 -0.1365  0.1962
  589MOL0     H81240   4.684   6.866   0.658  0.0268  1.6310 -0.6442
  589MOL0     H81241   4.854   7.035   0.857 -3.6195  0.6516  1.6963
  589MOL0     H81242   4.869   6.881   0.954 -1.3019 -1.4151  0.2486
  589MOL0     H81243   4.721   6.925   0.878  0.5115  0.3831  2.1111
  589MOL0     H81244   5.379   6.827   0.658  1.4629  1.9184 -0.4855
  589MOL0     H81245   5.616   6.844   0.732 -1.3312 -0.6756 -1.2802
  589MOL0     H81246   5.729   6.555   1.018  1.6026 -0.1040  2.2485
  589MOL0     H81247   5.878   6.622   0.933 -0.9708 -0.9031 -1.1580
  589MOL0     H81248   5.787   6.758   1.181 -1.7501 -0.3039 -0.7087
  589MOL0     H81249   5.888   6.612   1.197 -1.4615 -2.1301 -1.1023
  589MOL0     H81250   5.973   6.868   1.070 -1.2199 -1.5706 -2.7988
  589MOL0     H81251   6.058   6.705   1.045 -0.1225 -1.1258  0.1038
  589MOL0     H81252   6.082   6.686   1.288  0.8819 -1.9221 -3.3369
  589MOL0     H81253   6.021   6.851   1.311 -1.6084 -0.5307  0.6087
  589MOL0     H81254   6.261   6.756   1.134 -1.3043 -1.4542  0.5878
  589MOL0     H81255   6.216   6.931   1.171  3.9613  1.6645  1.4995
  589MOL0     H81256   6.291   6.704   1.353 -0.0486  0.6827  1.0512
  589MOL0     H81257   6.254   6.861   1.420 -0.8454  0.3450 -0.1258
  589MOL0     H81258   6.437   6.971   1.317  2.1083 -0.3090  0.5375
  589MOL0     H81259   6.475   6.831   1.218 -1.7333  1.6966 -0.4003
  589MOL0     H81260   6.633   6.839   1.403 -0.2261 -0.4627  1.4538
  589MOL0     H81261   6.541   6.692   1.397 -4.1651 -1.4118  1.2517
  589MOL0     H81262   5.527   6.614   1.092 -0.1769  2.0627  1.3025
  589MOL0     H81263   5.304   6.597   1.037 -0.6505  0.7100  1.6815
  589MOL0     H81264   5.106   6.645   0.601 -1.9789 -1.4322 -0.7052
  589MOL0     H81265   4.940   6.635   0.422  0.7728 -0.3792  0.4465
  589MOL0     H81266   3.415   6.106   1.035 -0.8561 -0.3513  0.3417
  589MOL0     H81267   3.217   6.253   0.994  0.4510 -1.1473 -0.1105
  589MOL0     H81268   2.984   6.453   1.020  1.7636  1.0352 -0.5008
  589MOL0     H81269   2.759   6.499   1.041 -0.8723 -1.3132 -0.8019
  589MOL0     H81270   2.514   6.458   0.975 -1.5926  0.6431  1.4960
  589MOL0     H81271   2.535   6.626   1.023 -0.0495 -0.8411 -0.1926
  589MOL0     H81272   2.371   6.510   0.810  1.3216  0.3662  0.1581
  589MOL0     H81273   2.361   6.687   0.842  2.7007  1.4294  2.0476
  589MOL0     H81274   2.283   6.467   1.044  2.2592  0.2146 -1.0495
  589MOL0     H81275   2.267   6.630   1.074  0.0415 -2.4052  2.1309
  589MOL0     H81276   2.118   6.497   0.846  2.0729  1.2472 -1.8173
  589MOL0     H81277   2.113   6.671   0.881 -1.5262  0.4258 -0.3746
  589MOL0     H81278   1.865   6.510   1.187 -0.4171 -3.2254 -1.8748
  589MOL0     H81279   2.730   6.634   0.645 -0.7299 -0.6389  0.5695
  589MOL0     H81280   3.041   6.540   0.516  0.4392 -1.0231  1.6348
  589MOL0     H81281   2.948   6.691   0.513  2.4548  2.4702  0.4319
  589MOL0     H81282   3.098   6.687   0.606 -0.9788  0.7680  2.4381
  590MOL0     O81283   1.946   6.374   7.100  0.0268  0.3569  0.3609
  590MOL0     C81284   1.990   6.434   6.997  0.5466  1.0189  0.0746
  590MOL0     O81285   1.919   6.525   6.923 -0.1948  0.5404 -0.6128
  590MOL0     C81286   1.783   6.546   6.932 -0.0478 -0.8151 -1.1275
  590MOL0     C81287   1.737   6.654   6.858  0.9326 -0.6427 -0.4099
  590MOL0     C81288   1.606   6.692   6.859  0.4713 -0.7440  0.3556
  590MOL0     C81289   1.512   6.618   6.933 -0.2809 -0.0424  0.1375
  590MOL0     O81290   1.379   6.653   6.928 -0.1943  0.0045 -0.1834
  590MOL0     C81291   1.295   6.575   6.847  0.7220 -0.1709 -0.4908
  590MOL0     C81292   1.153   6.638   6.831  0.4900  0.3730 -0.0437
  590MOL0     C81293   1.077   6.564   6.716  0.2606 -0.1253 -0.1113
  590MOL0     C81294   1.060   6.411   6.739  0.0577 -1.0947 -0.2186
  590MOL0     C81295   0.956   6.374   6.843  0.3046  0.3280  0.5694
  590MOL0     C81296   0.919   6.225   6.832 -0.2966 -0.3887  1.6027
  590MOL0     C81297   1.024   6.124   6.875  0.9580  1.2762 -0.4429
  590MOL0     C81298   1.054   6.127   7.025  0.9522  1.0608  0.2997
  590MOL0     N81299   1.152   6.030   7.064  0.0253  0.1357 -0.1953
  590MOL0     C81300   1.200   5.923   6.993  0.0792  0.4583  0.4991
  590MOL0     C81301   1.289   5.871   7.084  0.2270 -0.3218  0.0629
  590MOL0     C81302   1.379   5.749   7.059 -0.4465 -0.9073  0.1330
  590MOL0     C81303   1.483   5.781   6.948 -0.2834 -0.6305 -0.0041
  590MOL0     C81304   1.600   5.687   6.950 -0.0961  0.0546 -0.9620
  590MOL0     C81305   1.721   5.721   6.863  0.3425  0.6766 -0.7663
  590MOL0     O81306   1.824   5.624   6.876 -0.6799 -0.0740  0.6224
  590MOL0     C81307   1.950   5.655   6.825  0.3976 -0.2689 -0.1531
  590MOL0     C81308   1.992   5.769   6.756  0.4392  0.1804  0.2441
  590MOL0     C81309   2.124   5.788   6.723  0.1001 -0.5417  1.2099
  590MOL0     C81310   2.150   5.907   6.636  0.2424 -1.1432 -0.3598
  590MOL0     C81311   2.227   5.694   6.764 -0.5983 -0.2030 -0.3066
  590MOL0     C81312   2.376   5.711   6.723  0.5817 -0.2246 -0.2395
  590MOL0     O81313   2.447   5.600   6.736  0.8296 -0.5264 -0.3489
  590MOL0     C81314   2.572   5.580   6.688  0.3428 -0.1742  0.3238
  590MOL0     C81315   2.597   5.551   6.553  0.0478  0.5499  1.0315
  590MOL0     C81316   2.735   5.539   6.510  1.2415 -0.2513 -0.4674
  590MOL0     C81317   2.843   5.572   6.597  0.3095  0.8680 -0.7024
  590MOL0     O81318   2.975   5.578   6.584 -0.6081  0.1353  0.1887
  590MOL0     C81319   3.023   5.502   6.465  0.1755  0.1051 -0.0331
  590MOL0     C81320   3.167   5.539   6.440 -0.2370 -0.2321 -1.1033
  590MOL0     C81321   3.239   5.450   6.347 -0.5143 -0.2651  0.2646
  590MOL0     C81322   3.185   5.452   6.202 -0.9450  0.8763  0.5207
  590MOL0     C81323   3.295   5.398   6.100  0.3690  1.2404  0.2549
  590MOL0     C81324   3.252   5.412   5.951  0.2554  0.7345 -1.1265
  590MOL0     C81325   3.327   5.315   5.869  0.0109 -0.0294 -0.4528
  590MOL0     C81326   3.320   5.345   5.725  0.4519 -0.0029  0.2750
  590MOL0    Cl81327   3.429   5.255   5.624 -0.8282  0.1899 -0.4542
  590MOL0     C81328   2.814   5.584   6.731  0.2639 -0.6136  0.7188
  590MOL0     C81329   2.681   5.597   6.779 -0.8910  0.0685  0.0531
  590MOL0     O81330   2.430   5.815   6.680  0.2098  0.1013  0.0128
  590MOL0     C81331   2.184   5.581   6.834 -0.5529  0.2094  0.8819
  590MOL0     C81332   2.050   5.565   6.870 -0.5351 -0.4853  0.4216
  590MOL0     N81333   1.296   5.953   7.195  0.6076  0.2096 -0.4171
  590MOL0     N81334   1.208   6.038   7.189  0.5268  0.1324 -0.4700
  590MOL0     C81335   1.552   6.512   7.010  0.6479  0.4731  0.4634
  590MOL0     C81336   1.682   6.475   7.008  0.3609 -0.1197 -0.0786
  590MOL0     C81337   2.123   6.399   6.940 -0.0252  0.6957 -0.1817
  590MOL0     C81338   2.167   6.268   6.957 -0.2001  0.1487 -0.3886
  590MOL0     C81339   2.287   6.224   6.899 -0.1539 -1.0188 -0.4330
  590MOL0     C81340   2.356   6.312   6.803  0.1428  0.0226  0.5788
  590MOL0     O81341   2.476   6.296   6.738 -0.8076 -0.3885 -0.9245
  590MOL0     C81342   2.528   6.161   6.733  1.9496 -0.5979 -0.2077
  590MOL0     C81343   2.678   6.171   6.770  0.5495 -0.8273 -0.2888
  590MOL0     C81344   2.757   6.042   6.734  0.5741  0.4553  0.3813
  590MOL0     C81345   2.903   6.062   6.765 -0.2176 -0.6888  0.0776
  590MOL0     C81346   2.981   5.959   6.704  0.6180 -0.2537 -0.7458
  590MOL0     C81347   3.058   5.881   6.652  0.6717  0.9909 -0.7417
  590MOL0     C81348   2.308   6.444   6.792  0.7263  0.8568  0.0130
  590MOL0     C81349   2.193   6.487   6.861 -0.9758 -0.1505  0.1766
  590MOL0     C81350   2.152   6.630   6.853  0.1201 -0.0136  0.2150
  590MOL0     H81351   1.815   6.705   6.801 -2.3854  2.2924 -2.8260
  590MOL0     H81352   1.572   6.770   6.792 -4.6289 -2.2460  0.8019
  590MOL0     H81353   1.295   6.472   6.882 -1.3233 -0.1406 -0.2889
  590MOL0     H81354   1.346   6.574   6.750  0.8514  1.0009 -0.4542
  590MOL0     H81355   1.090   6.629   6.921 -1.5920  1.6188 -1.3126
  590MOL0     H81356   1.159   6.746   6.814 -2.1026  1.1392  2.8902
  590MOL0     H81357   0.978   6.607   6.697  0.6808 -0.1930 -2.7736
  590MOL0     H81358   1.136   6.580   6.626 -0.1583  5.3947  0.2689
  590MOL0     H81359   1.029   6.373   6.641  3.6313 -1.4453 -1.3565
  590MOL0     H81360   1.159   6.370   6.758  0.7057  1.6129  3.1858
  590MOL0     H81361   0.870   6.435   6.812  0.4342 -0.1430 -0.7536
  590MOL0     H81362   0.996   6.399   6.942 -1.4853  0.3057  1.3428
  590MOL0     H81363   0.837   6.205   6.902 -1.2159  1.9774  1.2813
  590MOL0     H81364   0.889   6.205   6.729  1.1949 -1.3287  1.3306
  590MOL0     H81365   1.115   6.143   6.817  2.0891 -1.8631  0.1459
  590MOL0     H81366   0.979   6.028   6.849  3.9213  0.1502 -1.9161
  590MOL0     H81367   1.093   6.227   7.048 -0.7915  1.9972 -0.6275
  590MOL0     H81368   0.963   6.106   7.081  1.4171 -0.1461  0.6324
  590MOL0     H81369   1.192   5.894   6.889  1.9193  1.4434  0.0423
  590MOL0     H81370   1.313   5.665   7.033 -0.8852 -1.0057  1.4998
  590MOL0     H81371   1.426   5.716   7.152  2.8800 -0.7937 -1.3482
  590MOL0     H81372   1.430   5.776   6.852 -0.0026  0.2809 -0.2151
  590MOL0     H81373   1.517   5.885   6.953 -1.4401 -0.2690  0.6405
  590MOL0     H81374   1.635   5.675   7.053 -2.2077  2.4231  0.1419
  590MOL0     H81375   1.551   5.597   6.913 -1.1131  1.2035 -2.5346
  590MOL0     H81376   1.683   5.720   6.761  1.5292  1.2175 -1.2308
  590MOL0     H81377   1.771   5.816   6.885  2.3141 -0.8366  1.8755
  590MOL0     H81378   1.916   5.840   6.723 -2.0619 -2.2985  0.2349
  590MOL0     H81379   2.100   5.895   6.540  1.2241 -2.6820 -0.7100
  590MOL0     H81380   2.254   5.940   6.624  0.9337 -2.4209  1.6766
  590MOL0     H81381   2.104   5.993   6.686  0.4838 -1.0669 -0.2670
  590MOL0     H81382   2.511   5.528   6.491  1.2608 -0.0372 -0.4946
  590MOL0     H81383   2.747   5.498   6.410 -0.7379 -2.6906  0.1937
  590MOL0     H81384   3.020   5.392   6.469  2.0333  0.0637  1.8065
  590MOL0     H81385   2.957   5.545   6.389 -4.1876  1.1018  3.8678
  590MOL0     H81386   3.175   5.647   6.423 -2.8620  0.7919  2.8814
  590MOL0     H81387   3.220   5.525   6.534  4.1545  0.5374 -3.1953
  590MOL0     H81388   3.236   5.349   6.389  2.3531  0.4171  2.4127
  590MOL0     H81389   3.342   5.486   6.345 -1.5877  3.1834 -0.6157
  590MOL0     H81390   3.165   5.556   6.176 -1.1515  0.8201  0.4529
  590MOL0     H81391   3.093   5.395   6.188  3.4641 -7.0973 -2.7460
  590MOL0     H81392   3.391   5.446   6.120  0.5642  0.7820  0.4272
  590MOL0     H81393   3.314   5.295   6.133  0.4871  1.8471  2.1899
  590MOL0     H81394   3.269   5.516   5.921  0.2376  0.4899 -2.0079
  590MOL0     H81395   3.146   5.394   5.928 -0.3365  2.4585  0.0193
  590MOL0     H81396   3.295   5.210   5.876  1.9717 -0.8855 -2.8719
  590MOL0     H81397   3.432   5.327   5.896 -0.0971  2.6646 -1.0375
  590MOL0     H81398   3.323   5.451   5.699  0.2008 -0.3274 -1.1804
  590MOL0     H81399   3.219   5.317   5.691 -0.4173  3.3041 -0.1871
  590MOL0     H81400   2.902   5.605   6.790  1.4118 -2.9362 -0.0527
  590MOL0     H81401   2.654   5.623   6.881  0.2976 -3.0546  1.2640
  590MOL0     H81402   2.248   5.501   6.871 -1.8648 -1.3372 -0.1122
  590MOL0     H81403   2.015   5.486   6.937 -0.1455 -0.2158  0.9519
  590MOL0     H81404   1.474   6.456   7.061  0.0342  0.3178 -0.6216
  590MOL0     H81405   1.696   6.388   7.071 -1.2614 -1.1029 -0.9880
  590MOL0     H81406   2.118   6.200   7.027  0.3260  0.6077  0.4415
  590MOL0     H81407   2.309   6.122   6.928 -2.6892 -0.6691  3.5342
  590MOL0     H81408   2.472   6.087   6.790 -1.9329  0.6339 -2.1413
  590MOL0     H81409   2.506   6.125   6.632 -2.0694 -3.5057  1.4289
  590MOL0     H81410   2.685   6.186   6.879 -1.6874  2.0054 -0.4063
  590MOL0     H81411   2.720   6.259   6.722 -2.7311 -0.5733 -3.0540
  590MOL0     H81412   2.714   5.955   6.783  2.4546 -2.8272 -3.2953
  590MOL0     H81413   2.744   6.018   6.628  0.0862 -0.6142  0.6727
  590MOL0     H81414   2.911   6.071   6.873 -1.3658 -1.3021  0.2264
  590MOL0     H81415   2.944   6.157   6.729  0.0495 -0.8292  0.0044
  590MOL0     H81416   3.132   5.815   6.610  0.1526 -0.4275  0.5009
  590MOL0     H81417   2.365   6.513   6.731 -1.3869  1.8886 -0.9080
  590MOL0     H81418   2.073   6.651   6.780  0.6162 -0.5059 -0.4703
  590MOL0     H81419   2.111   6.666   6.948 -1.3922  0.2160 -0.5036
  590MOL0     H81420   2.240   6.693   6.833 -0.2870  0.8758  1.1462
  591MOL0     O81421   5.382   8.953   3.795 -0.0940 -0.4276  0.9227
  591MOL0     C81422   5.358   8.856   3.722 -0.7377 -0.3872 -0.4496
  591MOL0     O81423   5.280   8.864   3.608 -0.0816 -0.4575  0.2304
  591MOL0     C81424   5.208   8.977   3.578 -0.4396  0.0158  0.2453
  591MOL0     C81425   5.268   9.103   3.555 -0.1137 -0.0888  0.2576
  591MOL0     C81426   5.170   9.204   3.532 -1.0760  0.3890 -0.1485
  591MOL0     C81427   5.028   9.183   3.524  0.4972  0.3534 -0.5995
  591MOL0     O81428   4.933   9.276   3.493  0.5907 -0.6537  0.2029
  591MOL0     C81429   4.975   9.411   3.463 -0.2578  0.5886 -0.7715
  591MOL0     C81430   4.859   9.485   3.395 -0.3570 -0.1589 -0.3981
  591MOL0     C81431   4.728   9.497   3.480  0.5115 -0.7994 -0.1183
  591MOL0     C81432   4.625   9.601   3.412  0.9421 -0.2779 -0.2215
  591MOL0     C81433   4.485   9.605   3.469 -0.0745  0.0878  0.2505
  591MOL0     C81434   4.392   9.705   3.401 -0.3416 -0.3243 -0.1681
  591MOL0     C81435   4.258   9.714   3.475  1.1177  0.1813  0.1347
  591MOL0     C81436   4.167   9.817   3.398  0.8547 -0.7570  0.1627
  591MOL0     N81437   4.063   9.746   3.322  0.7398 -0.2001 -0.6630
  591MOL0     C81438   4.090   9.637   3.237 -0.7619  0.9900 -0.3456
  591MOL0     C81439   3.964   9.597   3.200 -0.0534 -0.0966 -0.6764
  591MOL0     C81440   3.942   9.468   3.127  0.2536 -0.6270  0.2889
  591MOL0     C81441   3.983   9.337   3.196  0.3291 -0.3760  0.1408
  591MOL0     C81442   3.963   9.343   3.352  0.0498 -0.6188 -0.2863
  591MOL0     C81443   4.057   9.248   3.419 -0.0333  0.9302 -0.6263
  591MOL0     O81444   4.198   9.279   3.403  0.2695 -0.0950  0.3597
  591MOL0     C81445   4.278   9.169   3.371 -0.7444 -0.9140  0.1858
  591MOL0     C81446   4.264   9.072   3.273  0.1257 -0.5903  0.7272
  591MOL0     C81447   4.366   8.973   3.252  0.6988  0.0830  0.1476
  591MOL0     C81448   4.345   8.876   3.130 -0.0029  0.5241 -0.7376
  591MOL0     C81449   4.489   8.974   3.330 -0.6166  0.1050  0.2325
  591MOL0     C81450   4.608   8.894   3.297 -0.7484 -0.0684 -0.1540
  591MOL0     O81451   4.617   8.827   3.176 -0.5707 -0.4025  0.3200
  591MOL0     C81452   4.717   8.738   3.133  0.0374  0.4522 -0.4024
  591MOL0     C81453   4.717   8.701   2.997  0.1198 -0.3103 -0.1558
  591MOL0     C81454   4.815   8.625   2.943 -0.4360 -0.6486 -0.0080
  591MOL0     C81455   4.921   8.584   3.014 -0.5613  0.1958 -0.8953
  591MOL0     O81456   5.028   8.518   2.963 -0.3244 -0.3274  0.6973
  591MOL0     C81457   5.077   8.565   2.837  0.3160 -0.1914 -0.1440
  591MOL0     C81458   5.211   8.491   2.808  0.5388  0.5492  0.1624
  591MOL0     C81459   5.322   8.569   2.884 -1.3775  0.1803  0.7363
  591MOL0     C81460   5.462   8.501   2.860  0.2664 -0.0205  0.5430
  591MOL0     C81461   5.586   8.559   2.946 -0.3924  0.8666 -0.0585
  591MOL0     C81462   5.714   8.489   2.903  0.2236 -0.6335  0.3029
  591MOL0     C81463   5.736   8.367   2.988 -0.9374  0.5287  0.0178
  591MOL0     C81464   5.873   8.300   2.984  0.4105 -0.9050  0.1556
  591MOL0    Cl81465   6.010   8.406   3.017  0.1206 -0.4078  0.4307
  591MOL0     C81466   4.925   8.608   3.157  0.0441  0.4660 -0.9453
  591MOL0     C81467   4.818   8.681   3.212  1.2480 -0.3619  0.1696
  591MOL0     O81468   4.693   8.893   3.388 -0.0922 -0.0373  0.1412
  591MOL0     C81469   4.490   9.064   3.436 -0.9291  0.0240 -0.4030
  591MOL0     C81470   4.387   9.159   3.454  0.7535 -0.0391  0.1942
  591MOL0     N81471   3.867   9.685   3.239 -0.4460  0.2709  0.2995
  591MOL0     N81472   3.927   9.769   3.314  0.1191  0.5193 -1.1262
  591MOL0     C81473   4.983   9.048   3.530  0.5133 -0.6927 -0.5964
  591MOL0     C81474   5.076   8.951   3.568  0.2399  0.7623  0.2803
  591MOL0     C81475   5.427   8.730   3.752  0.5193 -0.7033  0.7826
  591MOL0     C81476   5.458   8.651   3.640 -0.5959  0.8517 -0.1697
  591MOL0     C81477   5.513   8.521   3.650 -0.5354 -0.2675 -1.1357
  591MOL0     C81478   5.577   8.482   3.766 -0.4427 -0.4165 -0.0596
  591MOL0     O81479   5.636   8.357   3.769 -0.0251 -0.8384  0.8333
  591MOL0     C81480   5.718   8.312   3.868  0.0221 -0.4932 -0.9037
  591MOL0     C81481   5.661   8.185   3.930  0.5383  0.2270 -0.0445
  591MOL0     C81482   5.506   8.176   3.942  0.3191  0.0315  0.4173
  591MOL0     C81483   5.469   8.041   4.013  0.7553 -0.4009 -0.6650
  591MOL0     C81484   5.327   8.018   4.031  0.0999  0.8378 -0.0777
  591MOL0     C81485   5.206   7.997   4.021 -0.3955  0.5498  0.6119
  591MOL0     C81486   5.574   8.568   3.879  0.3171  0.7879  0.2661
  591MOL0     C81487   5.481   8.682   3.874 -0.4860  0.4385  0.0907
  591MOL0     C81488   5.447   8.749   4.005  0.2753  0.0260 -0.2704
  591MOL0     H81489   5.375   9.112   3.565  0.3316 -2.9761 -0.7573
  591MOL0     H81490   5.212   9.304   3.522 -1.1970  0.3129 -1.6461
  591MOL0     H81491   5.057   9.400   3.392  2.9287 -1.1386  2.8397
  591MOL0     H81492   5.018   9.461   3.550  0.3908 -0.0563 -0.7128
  591MOL0     H81493   4.881   9.591   3.379  1.6302 -0.0378  2.3991
  591MOL0     H81494   4.840   9.456   3.291  2.8285  4.0265 -2.4684
  591MOL0     H81495   4.680   9.399   3.483 -1.2393  0.0279 -0.2158
  591MOL0     H81496   4.748   9.519   3.586  1.1710  0.7430 -0.5382
  591MOL0     H81497   4.674   9.699   3.415 -0.9708  0.7104 -0.1601
  591MOL0     H81498   4.610   9.574   3.307 -0.8449  0.2787 -0.1449
  591MOL0     H81499   4.494   9.635   3.573 -0.7945  3.2045 -0.4865
  591MOL0     H81500   4.435   9.508   3.458 -1.4589  0.6197  1.6185
  591MOL0     H81501   4.442   9.801   3.418  1.4917 -1.7292  3.3671
  591MOL0     H81502   4.381   9.697   3.292 -1.0266 -0.0722 -0.1186
  591MOL0     H81503   4.268   9.761   3.573  0.7622 -0.1059  0.3090
  591MOL0     H81504   4.203   9.619   3.479  3.5683 -1.3625 -0.1330
  591MOL0     H81505   4.113   9.874   3.475 -2.8815 -1.9975 -1.3229
  591MOL0     H81506   4.221   9.891   3.338  0.9115  0.1113  1.2464
  591MOL0     H81507   4.183   9.590   3.206 -2.2832 -0.7973 -2.5418
  591MOL0     H81508   3.986   9.477   3.027  2.1156  1.2578  1.2021
  591MOL0     H81509   3.836   9.468   3.101 -0.0692 -0.1899  1.5479
  591MOL0     H81510   3.915   9.265   3.150 -0.5990  1.4488 -1.5143
  591MOL0     H81511   4.086   9.304   3.179 -0.0913 -2.0609  0.6635
  591MOL0     H81512   3.995   9.438   3.397 -0.5615 -1.4725  2.0714
  591MOL0     H81513   3.861   9.315   3.379 -0.6938  0.4245 -1.8449
  591MOL0     H81514   4.034   9.238   3.526  0.6718  1.6592 -0.3934
  591MOL0     H81515   4.044   9.147   3.380 -0.3120  0.3244  0.9340
  591MOL0     H81516   4.173   9.072   3.215  0.6798 -0.5425 -0.1654
  591MOL0     H81517   4.246   8.888   3.084 -1.5276 -0.2631  2.0617
  591MOL0     H81518   4.358   8.769   3.145 -1.1837  0.2864 -1.2847
  591MOL0     H81519   4.421   8.902   3.056  0.8021  0.5589  0.0821
  591MOL0     H81520   4.643   8.745   2.930  1.1171 -0.0465 -1.1136
  591MOL0     H81521   4.813   8.608   2.835 -0.7479 -4.2706  0.4191
  591MOL0     H81522   5.003   8.553   2.758 -0.7878 -1.9694  1.0768
  591MOL0     H81523   5.106   8.670   2.850  1.1045 -0.5646  1.3849
  591MOL0     H81524   5.221   8.388   2.843 -0.9287  0.4565  0.3783
  591MOL0     H81525   5.235   8.495   2.702  1.7069  2.3867  0.4381
  591MOL0     H81526   5.308   8.587   2.991  2.4053  2.2597  1.0365
  591MOL0     H81527   5.338   8.665   2.834  4.2634 -1.2521 -0.9532
  591MOL0     H81528   5.490   8.493   2.754  0.9099  0.5902  0.6583
  591MOL0     H81529   5.453   8.401   2.903  0.5929 -0.1550  0.3027
  591MOL0     H81530   5.594   8.663   2.916  0.1884  0.4412 -1.4586
  591MOL0     H81531   5.559   8.544   3.051 -2.8612 -2.9110 -1.0248
  591MOL0     H81532   5.781   8.574   2.922 -0.9847  0.7239 -1.1840
  591MOL0     H81533   5.717   8.471   2.795  0.9073 -1.1846  0.4055
  591MOL0     H81534   5.662   8.291   2.961 -1.2605  0.4959  0.9641
  591MOL0     H81535   5.726   8.400   3.092 -1.7335  2.4104 -0.6138
  591MOL0     H81536   5.870   8.259   2.882 -2.1425  1.1713 -0.7394
  591MOL0     H81537   5.869   8.218   3.056  0.8068  1.9658  3.7633
  591MOL0     H81538   4.997   8.577   3.232 -0.4030  2.7036  0.5183
  591MOL0     H81539   4.816   8.711   3.316  1.5868 -0.2170  0.1363
  591MOL0     H81540   4.566   9.059   3.514 -0.8290  1.2750 -0.3960
  591MOL0     H81541   4.396   9.239   3.527 -1.0006 -0.2946  0.7327
  591MOL0     H81542   4.878   9.030   3.511 -0.6740  3.8215  0.4678
  591MOL0     H81543   5.043   8.849   3.581  2.8600 -0.3793 -1.2999
  591MOL0     H81544   5.420   8.682   3.543 -0.7633  0.0484 -0.3664
  591MOL0     H81545   5.511   8.453   3.566  3.6374 -2.7004  0.4690
  591MOL0     H81546   5.815   8.293   3.821  0.8376  4.1479 -1.5765
  591MOL0     H81547   5.740   8.387   3.945 -0.3670 -2.2773  1.0134
  591MOL0     H81548   5.715   8.163   4.023 -0.4809  0.4199  0.6040
  591MOL0     H81549   5.688   8.104   3.862  0.8139 -0.1806  0.5336
  591MOL0     H81550   5.474   8.263   4.000  0.6472  1.4551 -1.4382
  591MOL0     H81551   5.463   8.182   3.842 -0.6606  1.1622  0.8945
  591MOL0     H81552   5.515   8.035   4.112  2.2950  2.9029 -1.0381
  591MOL0     H81553   5.493   7.956   3.949  1.7183  0.7023 -1.8335
  591MOL0     H81554   5.103   7.970   4.020 -0.5889  0.9511 -3.1371
  591MOL0     H81555   5.608   8.553   3.981 -2.0923  0.0342  1.0262
  591MOL0     H81556   5.361   8.816   4.001  0.5290  0.5393  1.8863
  591MOL0     H81557   5.427   8.671   4.079 -1.2408 -0.3299 -1.0126
  591MOL0     H81558   5.529   8.814   4.039  0.3082  0.5149 -1.2473
  592MOL0     O81559   8.133   8.760   0.448  0.6500  0.6249 -0.0369
  592MOL0     C81560   8.166   8.791   0.568 -0.5374  0.1791  1.0204
  592MOL0     O81561   8.295   8.809   0.604  0.1283 -0.2920 -0.1095
  592MOL0     C81562   8.398   8.812   0.511  0.5744  0.2200 -0.3811
  592MOL0     C81563   8.511   8.770   0.559 -0.5209  0.0389 -0.0228
  592MOL0     C81564   8.631   8.773   0.485  0.2999  0.2562  0.8491
  592MOL0     C81565   8.627   8.825   0.345 -0.4996 -0.2324 -0.8750
  592MOL0     O81566   8.724   8.825   0.243  0.2102  0.1121  0.0437
  592MOL0     C81567   8.839   8.738   0.269  0.0674 -0.2042  1.3159
  592MOL0     C81568   8.941   8.750   0.159  0.0793 -0.0005  0.6291
  592MOL0     C81569   9.059   8.666   0.183 -0.3305 -0.2517  0.4490
  592MOL0     C81570   9.183   8.754   0.171 -0.1060  0.1655 -1.3360
  592MOL0     C81571   9.311   8.674   0.199 -0.4264  0.1020  0.6374
  592MOL0     C81572   9.415   8.786   0.186 -0.5083 -0.0766 -0.0966
  592MOL0     C81573   9.562   8.735   0.192  0.7116 -0.3628 -0.6113
  592MOL0     C81574   9.614   8.698   0.056  0.6935  0.5797 -0.1937
  592MOL0     N81575   9.629   8.552   0.032 -0.3444  0.2897 -0.4249
  592MOL0     C81576   9.736   8.472   0.065 -0.2126  0.0543  0.5255
  592MOL0     C81577   9.715   8.355   0.013 -0.4346  0.2757  0.1596
  592MOL0     C81578   9.805   8.240   0.035  0.3333 -0.3083  0.2842
  592MOL0     C81579   9.789   8.180   0.172  0.9034  1.2636 -1.1797
  592MOL0     C81580   9.899   8.072   0.192 -0.5619  0.4603  0.2270
  592MOL0     C81581  10.018   8.135   0.257  0.5477  0.2518 -0.0501
  592MOL0     O81582   9.981   8.171   0.390  0.7844  0.2623  0.2884
  592MOL0     C81583  10.061   8.265   0.450  0.5918  1.3115 -0.2546
  592MOL0     C81584  10.009   8.331   0.562 -0.0652  0.9949 -0.9779
  592MOL0     C81585  10.068   8.436   0.636 -0.5092  0.1774  0.2140
  592MOL0     C81586   9.991   8.493   0.747 -1.0380  0.6588  1.3269
  592MOL0     C81587  10.198   8.478   0.589  1.7459  0.9254  0.5594
  592MOL0     C81588  10.289   8.579   0.648 -1.2366 -0.4345  1.5819
  592MOL0     O81589  10.382   8.630   0.565 -0.7733  0.1600 -0.1319
  592MOL0     C81590  10.505   8.678   0.615  0.8948  0.1309  0.5218
  592MOL0     C81591  10.560   8.645   0.737 -0.0433  0.0656 -0.7392
  592MOL0     C81592  10.677   8.704   0.769 -0.2742 -0.0589 -0.3114
  592MOL0     C81593  10.749   8.791   0.687  0.0917  0.3280  0.6426
  592MOL0     O81594  10.866   8.861   0.720  1.8457 -0.0571  0.2178
  592MOL0     C81595  10.980   8.777   0.728  0.9978 -0.1316  0.2405
  592MOL0     C81596  11.094   8.877   0.756 -0.4985  0.0741 -0.3092
  592MOL0     C81597  11.227   8.790   0.754 -0.1012 -0.4156  0.3446
  592MOL0     C81598  11.339   8.882   0.785  0.1551 -0.0728 -0.1514
  592MOL0     C81599  11.472   8.821   0.752  0.0115 -0.5106 -0.2550
  592MOL0     C81600  11.510   8.836   0.609  0.2863 -0.7669  0.1645
  592MOL0     C81601  11.652   8.782   0.576  0.7250  0.9056  0.4520
  592MOL0     C81602  11.666   8.773   0.426 -0.6245 -0.0854 -0.8594
  592MOL0    Cl81603  11.833   8.715   0.397  0.0199  0.1726 -0.1028
  592MOL0     C81604  10.699   8.821   0.566  0.0923 -0.1199  1.2363
  592MOL0     C81605  10.581   8.762   0.529  0.6138  0.0472  0.8426
  592MOL0     O81606  10.264   8.612   0.762 -0.6974 -0.6773 -0.3257
  592MOL0     C81607  10.250   8.399   0.483  0.0586 -0.3602 -0.0747
  592MOL0     C81608  10.181   8.299   0.420 -1.1259 -0.0661  0.1664
  592MOL0     N81609   9.596   8.359  -0.053 -0.3057  0.6236  0.0269
  592MOL0     N81610   9.542   8.475  -0.030 -0.1334 -0.4146 -0.7049
  592MOL0     C81611   8.510   8.891   0.304 -0.1666  0.2970  0.5968
  592MOL0     C81612   8.386   8.880   0.384  0.1003  0.5421  0.2338
  592MOL0     C81613   8.059   8.819   0.671  0.1109  0.4168  0.7482
  592MOL0     C81614   8.087   8.893   0.780 -0.2518 -0.0645 -0.6304
  592MOL0     C81615   7.991   8.924   0.878 -0.5406  0.1593  0.1090
  592MOL0     C81616   7.857   8.884   0.863 -0.3310 -0.5271 -1.0293
  592MOL0     O81617   7.775   8.915   0.973 -0.3407  0.3542  0.5894
  592MOL0     C81618   7.641   8.871   0.985 -0.1846 -0.3088 -0.3562
  592MOL0     C81619   7.582   8.922   1.119 -0.5080 -0.2426  0.3326
  592MOL0     C81620   7.455   8.846   1.157  0.3413  0.4938 -0.1203
  592MOL0     C81621   7.327   8.871   1.063  0.6971  0.0121 -0.8731
  592MOL0     C81622   7.283   9.010   1.061  0.5696  1.1747 -0.4500
  592MOL0     C81623   7.244   9.118   1.053  0.3158  0.0868 -0.7494
  592MOL0     C81624   7.823   8.819   0.744 -0.7503 -0.2065  1.2757
  592MOL0     C81625   7.918   8.784   0.647 -0.0410  0.2028 -0.2886
  592MOL0     C81626   7.859   8.706   0.521  0.1126  0.2968 -0.1186
  592MOL0     H81627   8.508   8.722   0.656 -1.3927  0.9011  0.3830
  592MOL0     H81628   8.722   8.730   0.525  0.6067 -0.5508 -0.6613
  592MOL0     H81629   8.801   8.636   0.275 -0.1230 -0.1531  1.0047
  592MOL0     H81630   8.898   8.762   0.358  1.1809 -1.6680  0.9943
  592MOL0     H81631   8.901   8.704   0.068  2.8065  0.2574 -0.7940
  592MOL0     H81632   8.975   8.853   0.144  0.9854 -0.0277  2.2519
  592MOL0     H81633   9.053   8.617   0.280 -0.3521 -3.4282 -1.0314
  592MOL0     H81634   9.073   8.587   0.109 -3.4071  0.5377 -1.1516
  592MOL0     H81635   9.188   8.803   0.074 -0.6564  2.8555 -0.1003
  592MOL0     H81636   9.180   8.839   0.241 -0.2783 -0.0551 -1.0733
  592MOL0     H81637   9.317   8.606   0.114 -0.5872 -0.3343  0.9711
  592MOL0     H81638   9.315   8.618   0.293 -0.5505 -0.8392  0.0907
  592MOL0     H81639   9.397   8.842   0.094  0.2859 -1.6030 -1.2403
  592MOL0     H81640   9.401   8.854   0.270  0.1748  1.8314 -1.4721
  592MOL0     H81641   9.583   8.668   0.276 -0.6983  0.1490  0.1807
  592MOL0     H81642   9.606   8.831   0.220 -0.4966  0.7552 -2.3288
  592MOL0     H81643   9.549   8.746  -0.017  0.0395  3.5455  2.1257
  592MOL0     H81644   9.715   8.740   0.053  0.8296  0.2087 -2.3904
  592MOL0     H81645   9.818   8.500   0.129 -0.7729  0.7476  0.9585
  592MOL0     H81646   9.908   8.271   0.018  0.5445 -2.5880 -4.1560
  592MOL0     H81647   9.789   8.164  -0.042 -1.1701  1.5125 -1.3474
  592MOL0     H81648   9.808   8.264   0.240 -2.6611  3.6361 -2.8262
  592MOL0     H81649   9.692   8.134   0.193  0.8780  1.8111 -0.0154
  592MOL0     H81650   9.874   7.984   0.250  2.1564  0.0257  0.8776
  592MOL0     H81651   9.939   8.036   0.096 -1.1993  0.0567  0.1102
  592MOL0     H81652  10.104   8.068   0.252  0.3935  0.1387 -1.9552
  592MOL0     H81653  10.039   8.225   0.198 -1.3416 -0.7685 -2.4648
  592MOL0     H81654   9.905   8.318   0.592  0.9623  2.8377  4.5862
  592MOL0     H81655   9.957   8.591   0.712  0.5439 -0.1925 -3.3084
  592MOL0     H81656  10.041   8.496   0.845 -2.0885  0.0610  1.8984
  592MOL0     H81657   9.897   8.440   0.764 -0.4626 -1.8280 -2.2160
  592MOL0     H81658  10.522   8.586   0.819  1.9586  0.8508  0.8308
  592MOL0     H81659  10.715   8.668   0.864 -4.5393  3.0139  3.0344
  592MOL0     H81660  10.973   8.696   0.802  0.0128 -0.7809 -0.5458
  592MOL0     H81661  11.002   8.731   0.631  1.3633 -0.3674  0.4300
  592MOL0     H81662  11.102   8.955   0.680 -0.6695  0.9759  0.5727
  592MOL0     H81663  11.086   8.934   0.849 -0.9344  1.8449 -1.3995
  592MOL0     H81664  11.237   8.742   0.656 -1.3651  1.5361 -0.8233
  592MOL0     H81665  11.214   8.715   0.833 -0.8463 -0.0751  0.5531
  592MOL0     H81666  11.334   8.915   0.890 -1.5864  1.5890 -0.6868
  592MOL0     H81667  11.321   8.972   0.725 -2.5338  0.8640  1.8401
  592MOL0     H81668  11.543   8.883   0.808 -2.8076 -0.2436  3.4566
  592MOL0     H81669  11.478   8.720   0.794  0.5616 -0.5950 -0.5259
  592MOL0     H81670  11.503   8.939   0.572 -0.7027 -1.0919 -0.5987
  592MOL0     H81671  11.442   8.784   0.541  0.1219 -2.9499  1.8978
  592MOL0     H81672  11.658   8.681   0.617 -1.0643  0.2852 -0.6831
  592MOL0     H81673  11.735   8.843   0.611 -1.0123  3.9550 -0.4112
  592MOL0     H81674  11.653   8.873   0.384 -0.0846 -0.9452 -3.1891
  592MOL0     H81675  11.589   8.706   0.388 -2.6649  1.5030  0.2542
  592MOL0     H81676  10.753   8.883   0.496  1.6505 -0.0425  2.4584
  592MOL0     H81677  10.548   8.791   0.429  0.9424 -1.0494  0.3991
  592MOL0     H81678  10.349   8.429   0.451  0.1314  3.1694  2.7835
  592MOL0     H81679  10.231   8.238   0.346 -2.7857 -0.0369 -1.0112
  592MOL0     H81680   8.522   8.924   0.202  1.8184 -0.5344  0.5069
  592MOL0     H81681   8.291   8.911   0.343  0.1009 -0.3627 -0.4786
  592MOL0     H81682   8.187   8.926   0.803 -0.4131 -0.2837  0.4780
  592MOL0     H81683   8.024   8.978   0.966 -1.6067 -0.9752  1.2590
  592MOL0     H81684   7.579   8.910   0.903  0.5769 -0.3296 -0.9553
  592MOL0     H81685   7.635   8.762   0.976  1.3072 -0.3617 -0.9003
  592MOL0     H81686   7.555   9.027   1.103  0.4141 -0.4566 -3.3624
  592MOL0     H81687   7.663   8.919   1.192 -1.5798 -0.5390  1.5566
  592MOL0     H81688   7.480   8.740   1.147 -2.4762 -0.3766  1.0613
  592MOL0     H81689   7.421   8.872   1.258  1.3068 -0.8530  0.5867
  592MOL0     H81690   7.238   8.817   1.097  2.1168 -0.2062  2.9827
  592MOL0     H81691   7.361   8.839   0.964 -0.2164  0.2546 -1.2788
  592MOL0     H81692   7.232   9.225   1.046  4.6180  0.7332 -1.2607
  592MOL0     H81693   7.724   8.777   0.728 -0.9609  0.0747  1.8141
  592MOL0     H81694   7.882   8.759   0.428  1.3778 -1.2441 -0.7365
  592MOL0     H81695   7.912   8.611   0.515 -0.4295  0.0299 -0.9287
  592MOL0     H81696   7.751   8.688   0.530 -0.2151  1.5327 -1.1833
  593MOL0     O81697   0.807   8.513  11.070 -0.4782 -0.1929 -0.0489
  593MOL0     C81698   0.829   8.472  11.187  0.1302 -0.9570  0.0826
  593MOL0     O81699   0.853   8.342  11.217 -0.3430  0.0413 -1.3447
  593MOL0     C81700   0.835   8.239  11.128 -0.6774 -0.2369  0.9955
  593MOL0     C81701   0.796   8.122  11.188  0.7134 -0.1033 -0.6325
  593MOL0     C81702   0.791   8.000  11.119 -0.1500  0.3231  0.0804
  593MOL0     C81703   0.819   7.991  10.978 -0.1767  1.1965 -0.5116
  593MOL0     O81704   0.806   7.871  10.913 -0.5592  0.4742 -0.1776
  593MOL0     C81705   0.833   7.853  10.772  0.1664 -1.2667 -1.0926
  593MOL0     C81706   0.781   7.717  10.722  0.0649 -1.2263  0.2538
  593MOL0     C81707   0.624   7.726  10.726 -0.8577 -0.1169  0.1144
  593MOL0     C81708   0.553   7.596  10.748  0.2934  0.1414  0.1078
  593MOL0     C81709   0.399   7.620  10.740  0.9530  0.3327 -0.2370
  593MOL0     C81710   0.321   7.494  10.760  0.7217  0.1678 -0.2653
  593MOL0     C81711   0.166   7.519  10.731  0.1532 -1.1026  1.1401
  593MOL0     C81712   0.077   7.407  10.798 -0.1805  0.7641 -0.1778
  593MOL0     N81713   0.066   7.420  10.947 -0.0935  0.2832  0.8428
  593MOL0     C81714  -0.025   7.486  11.013 -0.8526  0.8773 -0.1432
  593MOL0     C81715  -0.026   7.420  11.129  0.2659  0.1969 -0.5033
  593MOL0     C81716  -0.128   7.460  11.232  0.1318 -0.0654  0.3245
  593MOL0     C81717  -0.228   7.358  11.274 -0.6196  0.8923 -0.1612
  593MOL0     C81718  -0.280   7.376  11.413 -0.0991  0.3232 -1.0920
  593MOL0     C81719  -0.349   7.513  11.450 -0.3893 -0.4569  0.3130
  593MOL0     O81720  -0.458   7.530  11.359 -0.2002 -0.0356 -0.9381
  593MOL0     C81721  -0.584   7.520  11.402  0.7833  0.6193 -0.0416
  593MOL0     C81722  -0.632   7.463  11.519 -0.4625 -1.0004 -0.1514
  593MOL0     C81723  -0.767   7.464  11.544  0.1334 -0.4675  0.5637
  593MOL0     C81724  -0.797   7.412  11.677  1.1351  0.1904  0.4350
  593MOL0     C81725  -0.859   7.530  11.459  0.6272  0.2296 -0.0763
  593MOL0     C81726  -1.007   7.544  11.481 -0.1938  0.5332  0.3393
  593MOL0     O81727  -1.076   7.637  11.405 -0.2918  0.3069 -0.5210
  593MOL0     C81728  -1.214   7.634  11.398  0.8683  1.0829  0.1760
  593MOL0     C81729  -1.295   7.519  11.395 -0.2912  0.0658  1.3050
  593MOL0     C81730  -1.433   7.530  11.373  0.1336  0.4003  0.1354
  593MOL0     C81731  -1.497   7.656  11.371  0.6784 -0.4075 -0.2327
  593MOL0     O81732  -1.635   7.658  11.362 -0.1613 -0.0578  0.6025
  593MOL0     C81733  -1.697   7.773  11.408  1.0664  0.2290 -0.5736
  593MOL0     C81734  -1.854   7.751  11.422 -0.6912  0.9978 -0.7057
  593MOL0     C81735  -1.924   7.867  11.463  0.0996 -0.2223  0.9576
  593MOL0     C81736  -2.073   7.852  11.489 -0.2833  0.2289 -0.0777
  593MOL0     C81737  -2.108   7.987  11.552  0.0536  0.4107 -0.0838
  593MOL0     C81738  -2.258   8.004  11.575 -0.4544 -0.1733 -0.3913
  593MOL0     C81739  -2.276   8.132  11.658 -0.0974 -0.4504 -0.0010
  593MOL0     C81740  -2.317   8.252  11.575 -0.5191  0.6630 -0.2194
  593MOL0    Cl81741  -2.439   8.224  11.448  0.0319  0.3623 -0.0237
  593MOL0     C81742  -1.413   7.763  11.385 -0.3326 -0.2388 -0.3306
  593MOL0     C81743  -1.274   7.755  11.388 -0.2398  0.3344 -0.0438
  593MOL0     O81744  -1.063   7.471  11.562 -0.7484 -0.2065  0.0730
  593MOL0     C81745  -0.806   7.585  11.342 -0.3079 -0.5580 -0.5506
  593MOL0     C81746  -0.678   7.577  11.311  0.1903 -0.3432 -0.6654
  593MOL0     N81747   0.065   7.325  11.138 -0.9663 -0.5688 -0.3046
  593MOL0     N81748   0.132   7.334  11.028  0.2966  0.9405 -0.2402
  593MOL0     C81749   0.852   8.113  10.917 -0.2873 -0.4604  0.4961
  593MOL0     C81750   0.866   8.235  10.991 -0.7202  0.6759 -0.5606
  593MOL0     C81751   0.811   8.573  11.294 -0.8706 -0.6555  0.8770
  593MOL0     C81752   0.740   8.545  11.409  0.3659  0.0062  0.5639
  593MOL0     C81753   0.723   8.644  11.503 -0.0523  0.0642 -0.2844
  593MOL0     C81754   0.757   8.777  11.486 -0.4314  0.6248  0.5232
  593MOL0     O81755   0.718   8.883  11.564 -0.6107 -0.0129  0.5482
  593MOL0     C81756   0.624   8.875  11.674  0.2317 -0.2053  0.3926
  593MOL0     C81757   0.487   8.934  11.633  0.0292 -0.7601 -0.3669
  593MOL0     C81758   0.414   8.864  11.524  0.2349  0.4786  0.9612
  593MOL0     C81759   0.272   8.907  11.517  0.2466 -0.1599 -0.4561
  593MOL0     C81760   0.170   8.825  11.456 -0.3555 -0.2049  0.7774
  593MOL0     C81761   0.089   8.745  11.413 -0.1290  1.1430 -0.1252
  593MOL0     C81762   0.847   8.799  11.378 -0.5460 -0.2575 -0.3632
  593MOL0     C81763   0.877   8.693  11.283  0.4416 -1.0222 -0.5047
  593MOL0     C81764   0.982   8.729  11.182 -0.7929  0.6601  0.2439
  593MOL0     H81765   0.765   8.122  11.292  3.2436 -1.0015  0.2073
  593MOL0     H81766   0.764   7.908  11.170 -0.7604 -0.2321 -1.2014
  593MOL0     H81767   0.941   7.851  10.758  0.1150 -1.8734 -1.4386
  593MOL0     H81768   0.793   7.942  10.723 -0.0677 -2.2044 -2.6868
  593MOL0     H81769   0.810   7.708  10.617  0.4178  1.4085  0.0709
  593MOL0     H81770   0.807   7.629  10.782 -4.9102 -1.4589  2.5548
  593MOL0     H81771   0.587   7.801  10.797  1.1145  1.6254 -0.5899
  593MOL0     H81772   0.594   7.756  10.625  0.9525 -0.9674 -0.7277
  593MOL0     H81773   0.583   7.521  10.674  0.8101 -0.4558  0.8999
  593MOL0     H81774   0.563   7.555  10.849 -4.7893 -2.5927 -0.1342
  593MOL0     H81775   0.368   7.671  10.649  0.2963  0.2781 -0.0462
  593MOL0     H81776   0.369   7.682  10.825  1.3522  0.7505 -0.3987
  593MOL0     H81777   0.355   7.402  10.711  1.4083 -0.7225  1.8053
  593MOL0     H81778   0.333   7.467  10.865 -0.0614  0.7121 -0.0291
  593MOL0     H81779   0.147   7.524  10.624  0.3937  1.2270  1.1605
  593MOL0     H81780   0.145   7.620  10.768  1.3705 -0.4478  0.1258
  593MOL0     H81781  -0.024   7.412  10.756 -1.1167  0.0285  1.8785
  593MOL0     H81782   0.120   7.311  10.770 -1.2401  0.8480 -2.3583
  593MOL0     H81783  -0.095   7.557  10.972 -0.4409 -0.8616 -4.3519
  593MOL0     H81784  -0.191   7.546  11.206 -1.0075 -0.6267  1.1470
  593MOL0     H81785  -0.060   7.480  11.316  1.0808 -1.9880  0.0855
  593MOL0     H81786  -0.315   7.350  11.207 -0.9818  1.4911  0.2264
  593MOL0     H81787  -0.169   7.266  11.274  1.4353  2.1538 -0.9318
  593MOL0     H81788  -0.344   7.291  11.439  2.7139 -1.0881  1.8707
  593MOL0     H81789  -0.198   7.364  11.484  0.4168  0.5345 -1.6410
  593MOL0     H81790  -0.365   7.527  11.557  0.3083  1.0159  0.2516
  593MOL0     H81791  -0.280   7.593  11.421 -1.4885  0.5906  0.5250
  593MOL0     H81792  -0.571   7.416  11.595 -2.6909  1.0214  3.1173
  593MOL0     H81793  -0.792   7.484  11.759 -1.2932 -1.5932  2.3106
  593MOL0     H81794  -0.734   7.325  11.700  0.4017 -0.4306  0.1313
  593MOL0     H81795  -0.891   7.357  11.689  2.4632 -2.2065  0.6198
  593MOL0     H81796  -1.245   7.423  11.393  3.3496  1.7588 -0.3469
  593MOL0     H81797  -1.493   7.439  11.373 -0.7758  0.8402 -3.3212
  593MOL0     H81798  -1.648   7.807  11.500  3.0293  1.1714 -1.8946
  593MOL0     H81799  -1.678   7.842  11.326 -2.2641  2.6069  0.4665
  593MOL0     H81800  -1.882   7.704  11.328 -0.4766 -0.1170 -0.2348
  593MOL0     H81801  -1.869   7.681  11.505 -0.4142  3.7367  1.8443
  593MOL0     H81802  -1.910   7.947  11.390 -5.0225  2.6032  2.5997
  593MOL0     H81803  -1.872   7.904  11.553  1.3927  1.9653 -0.5832
  593MOL0     H81804  -2.103   7.773  11.557 -0.7583  1.7138  1.5172
  593MOL0     H81805  -2.135   7.839  11.399 -3.5046 -2.9448  2.3300
  593MOL0     H81806  -2.048   7.986  11.643  0.9459 -1.6815 -0.6365
  593MOL0     H81807  -2.069   8.061  11.482  1.5598 -0.1245  0.1439
  593MOL0     H81808  -2.302   7.916  11.623  0.8395 -0.2326  0.7650
  593MOL0     H81809  -2.308   8.011  11.478 -1.5448  3.2581  0.2660
  593MOL0     H81810  -2.181   8.155  11.707  0.5558 -3.0159  0.1127
  593MOL0     H81811  -2.353   8.106  11.731  0.3279 -4.3994 -0.7472
  593MOL0     H81812  -2.225   8.290  11.529 -0.3238  0.6090  0.1205
  593MOL0     H81813  -2.361   8.334  11.632  2.4504  2.3392 -0.1530
  593MOL0     H81814  -1.460   7.861  11.392 -2.4259 -1.0671 -1.9231
  593MOL0     H81815  -1.206   7.839  11.387  3.1711 -2.1133  2.5374
  593MOL0     H81816  -0.869   7.640  11.273  0.7051 -0.5619 -1.5037
  593MOL0     H81817  -0.627   7.629  11.231  3.3747  0.7276  1.8512
  593MOL0     H81818   0.885   8.107  10.814  0.7983 -1.8498  0.8912
  593MOL0     H81819   0.924   8.313  10.943  2.4828  0.0082  1.9235
  593MOL0     H81820   0.707   8.445  11.436  3.0483 -0.6838  1.5762
  593MOL0     H81821   0.678   8.592  11.587  1.6403  1.2677  1.4505
  593MOL0     H81822   0.595   8.771  11.692  3.0843 -1.0421  0.6687
  593MOL0     H81823   0.666   8.922  11.763  0.4656  1.8034 -0.7097
  593MOL0     H81824   0.499   9.037  11.599 -1.3167  0.7273  3.2161
  593MOL0     H81825   0.418   8.932  11.718 -2.5113  0.4766 -2.2565
  593MOL0     H81826   0.463   8.881  11.427  0.4558 -3.5673  0.2099
  593MOL0     H81827   0.419   8.757  11.546  0.6202  0.4252  0.6338
  593MOL0     H81828   0.269   9.004  11.467  0.3596  0.0396 -0.0780
  593MOL0     H81829   0.239   8.919  11.621  1.5090  3.5621 -0.3433
  593MOL0     H81830   0.009   8.695  11.362  1.4159  1.5869 -3.1973
  593MOL0     H81831   0.897   8.894  11.367 -2.2315  0.7324  0.1528
  593MOL0     H81832   1.044   8.638  11.180 -2.4990 -0.5362 -1.5951
  593MOL0     H81833   0.930   8.756  11.090 -1.0103  1.6381  0.6473
  593MOL0     H81834   1.047   8.814  11.205  2.0857 -0.7562 -1.9657
  594MOL0     O81835  10.975   2.682  10.277  0.8191 -0.0523 -0.0152
  594MOL0     C81836  10.962   2.588  10.346  0.1070 -0.3800  0.5599
  594MOL0     O81837  10.863   2.572  10.440 -0.2940  0.2943 -0.4984
  594MOL0     C81838  10.753   2.648  10.438  0.0258 -0.2377 -0.2526
  594MOL0     C81839  10.626   2.591  10.413  0.0521 -0.1387 -0.6509
  594MOL0     C81840  10.514   2.678  10.425  0.4335  0.0767  0.1544
  594MOL0     C81841  10.524   2.813  10.461  0.1054  0.2344  0.0715
  594MOL0     O81842  10.403   2.879  10.480  0.3433  0.3967 -0.0194
  594MOL0     C81843  10.399   2.927  10.615 -1.5867 -0.2298  0.5673
  594MOL0     C81844  10.257   2.918  10.664  0.0271 -0.1361 -0.5613
  594MOL0     C81845  10.201   2.778  10.685 -0.6442 -0.9833 -0.2127
  594MOL0     C81846  10.050   2.777  10.704  1.1022 -0.4776 -0.3602
  594MOL0     C81847   9.991   2.640  10.680  0.2356 -0.2394  0.3088
  594MOL0     C81848   9.861   2.612  10.751 -0.3548 -0.2763 -0.2678
  594MOL0     C81849   9.736   2.694  10.704 -0.2122 -0.0589  0.8554
  594MOL0     C81850   9.716   2.825  10.777  0.4270 -0.1931  0.2836
  594MOL0     N81851   9.587   2.891  10.767  0.2553  0.1889  0.2985
  594MOL0     C81852   9.483   2.855  10.850 -0.3458 -0.2648 -0.1204
  594MOL0     C81853   9.381   2.927  10.803  0.1653 -0.0435 -0.5263
  594MOL0     C81854   9.236   2.923  10.838  0.3732 -0.1178 -0.2817
  594MOL0     C81855   9.139   3.020  10.778 -0.0533  1.0797 -0.3437
  594MOL0     C81856   8.993   2.993  10.828 -0.1914 -0.5942 -0.1497
  594MOL0     C81857   8.904   3.105  10.797 -0.0166  0.2480 -0.4855
  594MOL0     O81858   8.781   3.093  10.865 -0.3653  0.7035  0.5391
  594MOL0     C81859   8.685   3.166  10.813  0.4012 -0.0551 -0.1092
  594MOL0     C81860   8.674   3.231  10.697 -0.3614 -0.4387  0.2742
  594MOL0     C81861   8.567   3.312  10.650  0.1443  0.5523  0.2992
  594MOL0     C81862   8.562   3.371  10.508 -0.0590 -0.8924 -0.1107
  594MOL0     C81863   8.458   3.315  10.737 -0.1014  0.2039 -0.1078
  594MOL0     C81864   8.335   3.389  10.696 -0.2509 -0.5632  0.2499
  594MOL0     O81865   8.225   3.336  10.763 -0.1808 -0.9809 -0.6329
  594MOL0     C81866   8.095   3.377  10.728  0.1147 -0.8942  0.2981
  594MOL0     C81867   8.061   3.459  10.613 -0.1655  0.7807 -0.0177
  594MOL0     C81868   7.929   3.485  10.586 -0.5306  0.4602 -0.3648
  594MOL0     C81869   7.830   3.426  10.666  0.0882 -0.2425 -0.1368
  594MOL0     O81870   7.708   3.457  10.627 -0.1763 -0.7651  0.5517
  594MOL0     C81871   7.645   3.562  10.702  0.4081 -0.1726  0.1424
  594MOL0     C81872   7.501   3.570  10.662  0.5821  0.8254  0.4360
  594MOL0     C81873   7.405   3.448  10.695  0.4417  0.4755  0.4068
  594MOL0     C81874   7.292   3.414  10.599 -0.4325 -0.0219  0.6544
  594MOL0     C81875   7.199   3.532  10.602 -0.3428  0.2790 -0.1448
  594MOL0     C81876   7.057   3.488  10.575  0.0626 -0.9557  0.3479
  594MOL0     C81877   6.962   3.602  10.622  0.1887 -0.3252 -0.1527
  594MOL0     C81878   6.806   3.577  10.618  0.7528  0.3983 -0.1862
  594MOL0    Cl81879   6.771   3.420  10.713  0.5805 -0.1834  0.4930
  594MOL0     C81880   7.867   3.352  10.779  0.0945 -1.0420  0.3901
  594MOL0     C81881   7.999   3.321  10.806  0.2456 -0.4381  0.2102
  594MOL0     O81882   8.339   3.496  10.632  0.3232  0.3552 -0.4914
  594MOL0     C81883   8.463   3.259  10.863 -0.0864 -0.4958 -0.9210
  594MOL0     C81884   8.572   3.182  10.899  0.1892  0.0542  0.1516
  594MOL0     N81885   9.427   3.003  10.697  0.7752 -0.0406  0.2795
  594MOL0     N81886   9.550   2.991  10.682  0.1521  0.4706 -0.9164
  594MOL0     C81887  10.648   2.865  10.480 -0.2322  0.1987  0.2615
  594MOL0     C81888  10.762   2.789  10.472 -0.5820  0.7212 -0.1745
  594MOL0     C81889  11.077   2.489  10.353  0.4313 -0.4389 -0.5107
  594MOL0     C81890  11.203   2.542  10.319  0.0098 -0.4167  1.3287
  594MOL0     C81891  11.323   2.464  10.322  0.4305 -0.0262 -0.6003
  594MOL0     C81892  11.305   2.325  10.352  0.2607 -0.2021  0.8378
  594MOL0     O81893  11.408   2.243  10.352 -0.7436 -0.2573  0.0643
  594MOL0     C81894  11.529   2.299  10.411 -0.1461  1.0540  0.0476
  594MOL0     C81895  11.597   2.199  10.487 -0.8947 -0.0674 -1.1922
  594MOL0     C81896  11.500   2.119  10.582  0.0335 -0.1851  0.0731
  594MOL0     C81897  11.456   2.195  10.713  0.6559  0.1945  0.1010
  594MOL0     C81898  11.571   2.220  10.801 -0.9001  0.4173  0.4641
  594MOL0     C81899  11.670   2.232  10.868  0.0524 -0.2678  0.6396
  594MOL0     C81900  11.187   2.278  10.400  0.1817  0.4834 -0.1091
  594MOL0     C81901  11.074   2.360  10.407 -0.6702 -0.7915  0.0670
  594MOL0     C81902  10.947   2.303  10.467  0.1597 -0.3391 -0.4013
  594MOL0     H81903  10.604   2.496  10.365 -0.6550 -0.1878 -0.2390
  594MOL0     H81904  10.415   2.639  10.402  2.1444 -3.7034 -1.9514
  594MOL0     H81905  10.442   3.027  10.609  0.9840 -1.3141 -0.6447
  594MOL0     H81906  10.462   2.875  10.688  0.5562  3.5006  1.6545
  594MOL0     H81907  10.223   2.971  10.754 -1.3772  2.0031 -2.2549
  594MOL0     H81908  10.214   2.966  10.576  0.8769  0.1248 -0.8493
  594MOL0     H81909  10.236   2.725  10.596 -0.9776  0.6961 -1.3864
  594MOL0     H81910  10.254   2.739  10.772  1.0662 -2.4059 -1.8093
  594MOL0     H81911  10.021   2.827  10.797  0.9209 -1.5205  0.1580
  594MOL0     H81912  10.011   2.855  10.637  2.1576  1.5364  1.2319
  594MOL0     H81913  10.064   2.566  10.713  1.0933  0.1740 -0.6289
  594MOL0     H81914   9.988   2.624  10.572  1.6723  2.3942 -0.2020
  594MOL0     H81915   9.826   2.509  10.745 -0.9278 -0.0145 -1.8353
  594MOL0     H81916   9.876   2.609  10.860  0.5149 -0.3893 -0.3815
  594MOL0     H81917   9.646   2.634  10.721  0.0852 -0.5562  0.7072
  594MOL0     H81918   9.744   2.699  10.595  1.5928 -1.8099  0.8550
  594MOL0     H81919   9.727   2.821  10.885 -1.0459  0.5497  0.4914
  594MOL0     H81920   9.794   2.888  10.732 -1.0368  1.4434 -0.0837
  594MOL0     H81921   9.480   2.774  10.923  2.2225 -0.2206  0.1103
  594MOL0     H81922   9.233   2.921  10.948 -1.1237 -1.3141 -0.2979
  594MOL0     H81923   9.199   2.821  10.823  2.6032 -1.3790  2.0082
  594MOL0     H81924   9.165   3.124  10.804 -0.4707  1.4733 -1.4187
  594MOL0     H81925   9.146   3.007  10.669 -3.9012  0.0572 -0.6202
  594MOL0     H81926   8.941   2.918  10.767 -1.1224  1.3692 -1.8841
  594MOL0     H81927   8.999   2.967  10.934  0.3800 -0.5163 -0.1621
  594MOL0     H81928   8.955   3.200  10.818 -1.7796  1.1904 -0.2518
  594MOL0     H81929   8.892   3.094  10.689  1.5812 -0.5671 -0.6137
  594MOL0     H81930   8.759   3.233  10.629 -1.6394  2.3868 -1.4334
  594MOL0     H81931   8.478   3.325  10.455 -0.0010 -0.1467 -0.8568
  594MOL0     H81932   8.655   3.358  10.452 -1.3811 -2.3625 -2.1047
  594MOL0     H81933   8.539   3.478  10.510 -1.7311 -1.1991 -1.1847
  594MOL0     H81934   8.130   3.486  10.534  0.1722 -1.7440 -0.6823
  594MOL0     H81935   7.895   3.532  10.494 -0.5089 -1.5548 -1.4716
  594MOL0     H81936   7.647   3.552  10.811  0.7365  0.6273  0.2128
  594MOL0     H81937   7.701   3.651  10.674 -2.0407  1.3612 -0.2186
  594MOL0     H81938   7.465   3.661  10.710 -0.0744  2.0460 -2.2055
  594MOL0     H81939   7.486   3.606  10.559 -2.1982 -0.2560  0.3831
  594MOL0     H81940   7.375   3.453  10.800 -0.4106  2.9748  0.1016
  594MOL0     H81941   7.463   3.355  10.691 -3.5879 -2.4177  2.0105
  594MOL0     H81942   7.252   3.316  10.629  0.0059  0.5030  3.1885
  594MOL0     H81943   7.333   3.391  10.500 -0.6711  0.1706  0.5119
  594MOL0     H81944   7.211   3.579  10.699  1.6820  1.0399 -0.6985
  594MOL0     H81945   7.243   3.605  10.533  0.2633  1.9704  1.9407
  594MOL0     H81946   7.022   3.388  10.601 -1.8559 -1.1702 -2.5068
  594MOL0     H81947   7.042   3.496  10.466  1.8318 -0.1526  0.1261
  594MOL0     H81948   6.983   3.686  10.555  0.1574  1.3510  1.8287
  594MOL0     H81949   6.985   3.622  10.727  1.6985 -1.2947 -0.2679
  594MOL0     H81950   6.770   3.564  10.516  0.1543  1.9797 -0.2047
  594MOL0     H81951   6.744   3.655  10.664  2.4790  0.2945  2.5312
  594MOL0     H81952   7.792   3.302  10.839 -0.6387 -2.6792 -1.7803
  594MOL0     H81953   8.030   3.256  10.887 -0.3767 -0.8366  0.1328
  594MOL0     H81954   8.383   3.286  10.931 -0.7488 -2.3460 -0.9124
  594MOL0     H81955   8.587   3.125  10.991  0.7344  1.0804  0.7186
  594MOL0     H81956  10.658   2.970  10.503 -0.9736  0.4957 -0.7279
  594MOL0     H81957  10.860   2.833  10.488  0.1082 -0.3026 -1.3567
  594MOL0     H81958  11.225   2.643  10.287  0.3621 -1.1772 -1.0304
  594MOL0     H81959  11.417   2.510  10.292  0.2664 -0.8385 -2.5548
  594MOL0     H81960  11.603   2.340  10.341  0.8892 -1.4076 -0.4011
  594MOL0     H81961  11.488   2.370  10.484 -3.0006 -1.5986  1.2401
  594MOL0     H81962  11.670   2.235  10.560 -3.5318  3.7497 -0.1480
  594MOL0     H81963  11.653   2.137  10.416 -0.8871 -1.1479 -0.2582
  594MOL0     H81964  11.417   2.078  10.524 -0.0601  0.8262 -0.5308
  594MOL0     H81965  11.556   2.031  10.617  2.2527 -0.5697 -3.8442
  594MOL0     H81966  11.382   2.134  10.765 -1.9628  2.4655 -0.6918
  594MOL0     H81967  11.408   2.286  10.676 -0.7026 -1.0060 -1.1946
  594MOL0     H81968  11.758   2.243  10.930 -1.4653 -2.4931  3.4268
  594MOL0     H81969  11.172   2.184  10.452 -0.0217  1.3626  1.4915
  594MOL0     H81970  10.898   2.362  10.545 -2.4136 -0.2756 -1.9504
  594MOL0     H81971  10.868   2.286  10.393 -0.5734  0.3069  0.2279
  594MOL0     H81972  10.967   2.204  10.509  0.9336  0.2359  0.6253
  595MOL0     O81973   9.867   1.886   2.005  0.0456 -0.6104  0.0205
  595MOL0     C81974   9.843   1.903   2.121 -0.4039 -0.1465 -1.0220
  595MOL0     O81975   9.896   1.824   2.222 -0.1569 -0.7400  0.2191
  595MOL0     C81976  10.007   1.743   2.185  0.6188 -0.0357  0.2426
  595MOL0     C81977   9.991   1.616   2.120 -0.0859 -0.0791 -1.3640
  595MOL0     C81978  10.102   1.540   2.081 -0.2755 -0.0397  0.5368
  595MOL0     C81979  10.236   1.584   2.107  0.3403  0.2072  0.2735
  595MOL0     O81980  10.332   1.507   2.054 -0.2259 -0.5925 -0.1831
  595MOL0     C81981  10.471   1.542   2.081 -0.0282  0.7949 -1.5663
  595MOL0     C81982  10.574   1.438   2.032  0.7637  0.1499 -0.4444
  595MOL0     C81983  10.718   1.469   2.076  0.4243 -0.4674 -0.0783
  595MOL0     C81984  10.816   1.353   2.067 -0.2400  0.5592 -0.4663
  595MOL0     C81985  10.958   1.397   2.094  0.3992  0.4504 -0.0369
  595MOL0     C81986  10.985   1.418   2.246  0.0141  0.4154 -0.0209
  595MOL0     C81987  11.137   1.430   2.262 -0.2618 -0.0579 -0.2639
  595MOL0     C81988  11.174   1.428   2.412  0.2131 -0.0932  0.5384
  595MOL0     N81989  11.187   1.290   2.474  0.0718 -0.0430 -0.0867
  595MOL0     C81990  11.150   1.264   2.611 -0.0656 -0.5650  0.4660
  595MOL0     C81991  11.166   1.131   2.629 -0.2789 -1.0754 -0.5690
  595MOL0     C81992  11.140   1.057   2.756  0.9919  0.1000 -0.6901
  595MOL0     C81993  10.992   1.077   2.801  0.0897  0.7128 -0.1503
  595MOL0     C81994  10.959   0.978   2.912  0.2455 -0.6545 -0.3515
  595MOL0     C81995  10.806   0.964   2.939  0.3706 -0.2052  1.2376
  595MOL0     O81996  10.764   0.843   2.863  0.7308 -0.1429  0.3670
  595MOL0     C81997  10.640   0.844   2.807  0.0582  0.4879  0.2341
  595MOL0     C81998  10.634   0.784   2.683 -0.4513  0.7380 -0.6798
  595MOL0     C81999  10.530   0.794   2.596  0.8751  0.1645 -0.1274
  595MOL0     C82000  10.546   0.725   2.461 -0.5299  0.2102  0.2629
  595MOL0     C82001  10.411   0.851   2.651  1.0787  0.0847 -0.7195
  595MOL0     C82002  10.274   0.845   2.582  1.1387  0.0812 -0.0430
  595MOL0     O82003  10.266   0.738   2.493  0.5197 -0.3591  0.1635
  595MOL0     C82004  10.148   0.724   2.422 -0.4142  0.6638 -0.8721
  595MOL0     C82005  10.051   0.634   2.463 -0.7345  0.1744  0.6103
  595MOL0     C82006   9.940   0.597   2.393  0.8812 -0.4418 -0.1861
  595MOL0     C82007   9.921   0.652   2.269 -0.4487 -0.1346 -0.1749
  595MOL0     O82008   9.804   0.631   2.196  0.4583 -0.2804 -0.6434
  595MOL0     C82009   9.790   0.612   2.053 -0.3219  0.5737  1.1988
  595MOL0     C82010   9.639   0.607   2.021  0.7144  0.0633 -0.1658
  595MOL0     C82011   9.565   0.742   2.026  0.0085  0.4320 -0.4122
  595MOL0     C82012   9.541   0.796   2.163  0.6704  0.3913  0.0165
  595MOL0     C82013   9.437   0.909   2.160  0.8174 -0.6135  0.0961
  595MOL0     C82014   9.385   0.934   2.310  0.1945 -1.1914  0.9035
  595MOL0     C82015   9.263   1.024   2.311  0.5310 -0.0677  0.5655
  595MOL0     C82016   9.202   1.037   2.448 -0.4729 -0.2607  0.7002
  595MOL0    Cl82017   9.152   0.877   2.513 -0.2255 -0.1366  0.0613
  595MOL0     C82018  10.021   0.741   2.218  0.5343  0.7116  0.5883
  595MOL0     C82019  10.124   0.788   2.300 -0.7196  0.3374 -0.2104
  595MOL0     O82020  10.186   0.929   2.609  0.0363  0.0110  0.1562
  595MOL0     C82021  10.415   0.914   2.781  0.0513  0.2814 -0.1163
  595MOL0     C82022  10.528   0.911   2.860 -1.2438 -0.2850  0.1850
  595MOL0     N82023  11.208   1.078   2.505  0.0394  0.6213  0.5186
  595MOL0     N82024  11.214   1.166   2.412  0.1541 -0.3575 -0.2831
  595MOL0     C82025  10.250   1.709   2.167  0.0650 -0.4100  0.0489
  595MOL0     C82026  10.139   1.785   2.203 -0.3633 -0.0814  0.4816
  595MOL0     C82027   9.729   1.992   2.152 -0.2107  0.1331  0.7138
  595MOL0     C82028   9.617   1.973   2.076 -0.2682  0.0322  0.8902
  595MOL0     C82029   9.504   2.050   2.097  0.2337 -0.1539 -0.4343
  595MOL0     C82030   9.502   2.151   2.203  0.4383 -0.1356  0.7004
  595MOL0     O82031   9.403   2.238   2.236  0.2499  1.3457  0.1873
  595MOL0     C82032   9.276   2.217   2.175  0.1337 -0.8521 -0.4765
  595MOL0     C82033   9.270   2.270   2.035 -0.6283  0.4830  1.0918
  595MOL0     C82034   9.124   2.267   1.983  0.6430 -0.3083  0.4621
  595MOL0     C82035   9.127   2.245   1.831  0.7528 -0.4601  0.2270
  595MOL0     C82036   8.987   2.254   1.785  0.7992 -0.1581  0.3971
  595MOL0     C82037   8.871   2.290   1.763 -0.3980  0.7364 -0.4080
  595MOL0     C82038   9.620   2.171   2.270 -0.9581  0.4335  0.1642
  595MOL0     C82039   9.733   2.093   2.253  0.1994  0.2515 -0.2454
  595MOL0     C82040   9.853   2.128   2.343 -0.4023  0.3484  0.1416
  595MOL0     H82041   9.896   1.566   2.106 -0.0054 -1.1604  1.2907
  595MOL0     H82042  10.094   1.447   2.024  0.6740  0.4130 -0.3585
  595MOL0     H82043  10.485   1.564   2.187 -1.2935 -0.4720 -1.1043
  595MOL0     H82044  10.503   1.639   2.041 -0.1211  1.4116 -0.1938
  595MOL0     H82045  10.554   1.338   2.073  1.9511  0.3162  0.5789
  595MOL0     H82046  10.566   1.423   1.923  2.4993  1.0169 -0.7289
  595MOL0     H82047  10.749   1.555   2.016 -0.3594 -0.4774 -0.5228
  595MOL0     H82048  10.718   1.515   2.176  1.0864  2.7277 -1.4101
  595MOL0     H82049  10.779   1.291   2.150  1.1250  1.3476  0.7775
  595MOL0     H82050  10.809   1.302   1.971 -0.9191  0.3993 -0.3382
  595MOL0     H82051  10.973   1.486   2.032  1.7541  1.0744  1.1247
  595MOL0     H82052  11.028   1.317   2.069 -1.7551 -1.9937  1.2638
  595MOL0     H82053  10.934   1.511   2.274 -0.5807  0.3334 -0.7835
  595MOL0     H82054  10.944   1.341   2.311  2.3279 -1.3273 -0.4906
  595MOL0     H82055  11.167   1.533   2.240  0.3403 -0.3213 -0.6641
  595MOL0     H82056  11.197   1.354   2.212 -0.8300 -0.4998 -0.2911
  595MOL0     H82057  11.271   1.477   2.404 -1.1741  2.6376 -1.1653
  595MOL0     H82058  11.099   1.485   2.468 -2.3599 -0.4455 -2.3160
  595MOL0     H82059  11.104   1.325   2.688  1.0020 -0.2715  0.8930
  595MOL0     H82060  11.201   1.084   2.843 -0.7792 -0.0318  0.6572
  595MOL0     H82061  11.159   0.950   2.741 -3.0563 -0.7210 -0.9929
  595MOL0     H82062  10.977   1.179   2.836  2.1419  1.4540 -1.2674
  595MOL0     H82063  10.924   1.059   2.717 -1.5757 -0.3952  1.3652
  595MOL0     H82064  10.992   0.876   2.889  1.8916 -0.6284  1.6387
  595MOL0     H82065  11.007   1.019   3.002 -1.9628  4.3279 -1.0731
  595MOL0     H82066  10.789   0.947   3.046 -0.8537  1.4798  1.3369
  595MOL0     H82067  10.760   1.057   2.907 -0.4029  0.0794  3.0762
  595MOL0     H82068  10.732   0.752   2.650 -0.7243  0.3865 -1.1537
  595MOL0     H82069  10.648   0.714   2.422 -0.0662  1.6329  0.9979
  595MOL0     H82070  10.480   0.779   2.393  0.1992 -0.2030 -0.7831
  595MOL0     H82071  10.490   0.633   2.477 -0.3611  0.3109  1.5584
  595MOL0     H82072  10.079   0.580   2.552 -0.0383 -1.5475 -0.5935
  595MOL0     H82073   9.869   0.531   2.443 -0.0797  0.1657 -0.7440
  595MOL0     H82074   9.836   0.694   1.998 -1.7750  0.4442 -0.2641
  595MOL0     H82075   9.843   0.522   2.021 -1.5216 -0.3872  1.8123
  595MOL0     H82076   9.625   0.570   1.918 -3.5197  2.0492 -0.5461
  595MOL0     H82077   9.579   0.543   2.087 -0.4856 -0.2298 -1.4603
  595MOL0     H82078   9.467   0.733   1.978 -1.2814  3.2846  1.3702
  595MOL0     H82079   9.619   0.813   1.963 -3.3725  3.5265 -0.1869
  595MOL0     H82080   9.635   0.824   2.213  2.4560 -0.6524 -2.5081
  595MOL0     H82081   9.503   0.716   2.227  0.5080 -0.7889 -1.5076
  595MOL0     H82082   9.495   0.994   2.122  0.2538 -0.7989 -1.2470
  595MOL0     H82083   9.353   0.890   2.092  0.9272  0.6988 -0.4336
  595MOL0     H82084   9.465   0.994   2.353 -0.6721  1.0870 -0.4483
  595MOL0     H82085   9.359   0.843   2.364  1.2506  0.1663  3.8760
  595MOL0     H82086   9.191   0.980   2.241 -0.4025  4.0670 -1.3632
  595MOL0     H82087   9.270   1.125   2.270 -0.1285 -0.7975 -1.4576
  595MOL0     H82088   9.116   1.104   2.447  0.0135  0.3809 -1.0903
  595MOL0     H82089   9.275   1.092   2.508  1.9669 -0.2247 -2.0962
  595MOL0     H82090  10.005   0.787   2.121 -1.2627  1.2429  1.0876
  595MOL0     H82091  10.193   0.864   2.264 -1.6820  0.3592 -2.1077
  595MOL0     H82092  10.331   0.968   2.823 -0.1320  0.0152 -0.1405
  595MOL0     H82093  10.522   0.955   2.958  2.1685 -0.1576  0.4732
  595MOL0     H82094  10.346   1.759   2.172 -1.3556  2.5443  0.3578
  595MOL0     H82095  10.156   1.881   2.250  0.8790 -0.2463  0.4020
  595MOL0     H82096   9.609   1.891   2.005 -1.0982 -0.0717  1.0955
  595MOL0     H82097   9.405   2.020   2.064 -0.9302  1.9737  0.8988
  595MOL0     H82098   9.231   2.117   2.172 -0.5076 -0.8472  3.2543
  595MOL0     H82099   9.202   2.276   2.230  1.8917  0.9424  0.1357
  595MOL0     H82100   9.340   2.222   1.965 -0.4558  1.9362  0.2260
  595MOL0     H82101   9.298   2.376   2.029 -0.9238  0.4984 -1.1686
  595MOL0     H82102   9.062   2.193   2.034  2.1823 -3.0868 -1.4155
  595MOL0     H82103   9.086   2.366   2.008 -0.0206 -0.6555  0.8698
  595MOL0     H82104   9.159   2.141   1.826  0.0089 -0.7611  1.3194
  595MOL0     H82105   9.199   2.305   1.774  1.1562 -0.5915  0.5874
  595MOL0     H82106   8.778   2.340   1.746 -0.4000  1.7614  2.1863
  595MOL0     H82107   9.616   2.245   2.349 -1.5101 -1.2345  1.7988
  595MOL0     H82108   9.831   2.217   2.403  2.1245  1.1382  0.0015
  595MOL0     H82109   9.884   2.047   2.409  2.1824  2.9487  2.3785
  595MOL0     H82110   9.940   2.161   2.286 -0.5227 -0.2957 -0.4348
  596MOL0     O82111   9.580   7.347   7.104 -0.8472  0.5145 -0.2068
  596MOL0     C82112   9.490   7.272   7.132  0.7407  0.0917  1.0779
  596MOL0     O82113   9.476   7.137   7.092 -0.4987 -0.2155 -0.2114
  596MOL0     C82114   9.561   7.079   6.998 -0.3774  0.7390  1.0802
  596MOL0     C82115   9.609   6.947   7.014 -0.6828 -0.1448 -1.4012
  596MOL0     C82116   9.693   6.886   6.925  0.7241  0.7177 -0.0311
  596MOL0     C82117   9.714   6.942   6.795 -0.7563 -0.2876  0.6004
  596MOL0     O82118   9.798   6.880   6.707 -0.3878 -0.5910 -0.4709
  596MOL0     C82119   9.806   6.917   6.570 -0.1254 -0.0930 -0.0542
  596MOL0     C82120   9.922   6.840   6.500  0.3457 -0.1326 -0.1364
  596MOL0     C82121   9.922   6.862   6.346 -0.0551 -0.1535  0.3017
  596MOL0     C82122  10.003   6.764   6.267  0.1330  0.2108  0.1788
  596MOL0     C82123   9.990   6.803   6.119  0.8353  0.1072 -0.0537
  596MOL0     C82124  10.057   6.696   6.035 -0.0764 -0.1084  0.1628
  596MOL0     C82125  10.087   6.722   5.885  0.1135  0.7276  0.3054
  596MOL0     C82126  10.163   6.597   5.823 -1.0918  1.1374  0.1800
  596MOL0     N82127  10.173   6.604   5.676  1.1437  0.3361 -0.3841
  596MOL0     C82128  10.073   6.580   5.583  0.0134  0.6928 -0.7795
  596MOL0     C82129  10.142   6.588   5.464 -0.5756  0.3041  0.3154
  596MOL0     C82130  10.085   6.551   5.333 -0.3157  0.2702  0.4013
  596MOL0     C82131  10.196   6.466   5.257 -0.7703  0.8834  0.0287
  596MOL0     C82132  10.136   6.383   5.148 -0.0403  0.7832  0.2086
  596MOL0     C82133  10.238   6.278   5.076  0.3527 -0.4353 -0.8306
  596MOL0     O82134  10.267   6.168   5.163 -0.6179  0.1338 -0.0464
  596MOL0     C82135  10.381   6.100   5.138  0.3225  0.7490 -0.1440
  596MOL0     C82136  10.416   6.003   5.231  0.5022  0.2437  0.9372
  596MOL0     C82137  10.536   5.934   5.227  0.4422 -0.3075 -0.5223
  596MOL0     C82138  10.556   5.834   5.344  0.4222 -0.9369  0.1510
  596MOL0     C82139  10.637   5.982   5.135 -0.2374 -0.8774 -0.3642
  596MOL0     C82140  10.784   5.939   5.123 -0.6499 -0.0317 -0.1372
  596MOL0     O82141  10.828   5.839   5.204  0.2156 -0.1223 -0.3543
  596MOL0     C82142  10.959   5.788   5.193 -0.2824 -0.0553 -0.6901
  596MOL0     C82143  11.051   5.791   5.085  0.2368  0.8171 -0.7052
  596MOL0     C82144  11.174   5.720   5.084 -0.1816  0.4133 -0.1735
  596MOL0     C82145  11.196   5.624   5.183  0.2508 -0.0944 -0.4991
  596MOL0     O82146  11.312   5.543   5.181 -0.5329 -0.1502 -0.0366
  596MOL0     C82147  11.413   5.542   5.083  0.3071 -0.0232 -0.3255
  596MOL0     C82148  11.522   5.440   5.115 -0.5885  0.5124  0.0728
  596MOL0     C82149  11.638   5.496   5.187  1.2170  0.0790  0.2575
  596MOL0     C82150  11.764   5.407   5.190 -0.5012 -0.1665  0.2834
  596MOL0     C82151  11.853   5.458   5.299  0.4609  0.2893 -0.5613
  596MOL0     C82152  12.005   5.426   5.286 -0.0078  0.7898  0.4941
  596MOL0     C82153  12.082   5.490   5.399  0.3058 -0.5189  0.5872
  596MOL0     C82154  12.228   5.447   5.392 -0.7835 -0.2855 -0.2838
  596MOL0    Cl82155  12.303   5.549   5.516  0.2513  0.3019 -0.0963
  596MOL0     C82156  11.105   5.615   5.290 -0.6342 -0.1977  0.2716
  596MOL0     C82157  10.992   5.696   5.298 -0.8012 -0.1268 -0.9649
  596MOL0     O82158  10.864   6.022   5.072  0.2277  0.1373 -0.4463
  596MOL0     C82159  10.596   6.065   5.037  0.8323 -0.5361 -0.2914
  596MOL0     C82160  10.458   6.102   5.021  0.1542 -0.9340 -0.7569
  596MOL0     N82161  10.261   6.651   5.487  0.3504  0.2732  1.0639
  596MOL0     N82162  10.282   6.647   5.610  0.0371 -0.0001 -0.0287
  596MOL0     C82163   9.641   7.060   6.759 -1.2834 -0.2074 -1.3348
  596MOL0     C82164   9.569   7.133   6.867 -0.6999  0.9903  0.1515
  596MOL0     C82165   9.382   7.324   7.224  0.0990  0.8580  0.6020
  596MOL0     C82166   9.273   7.233   7.261  0.1589 -0.4320 -0.5256
  596MOL0     C82167   9.180   7.268   7.359  0.1232 -0.5550  0.4658
  596MOL0     C82168   9.193   7.401   7.412  0.2253  0.0520 -0.8820
  596MOL0     O82169   9.095   7.454   7.483  0.2729 -0.7108 -0.4922
  596MOL0     C82170   9.020   7.365   7.573 -0.1671 -0.2842  0.5337
  596MOL0     C82171   8.940   7.439   7.687  0.4543  0.5102  0.0924
  596MOL0     C82172   8.863   7.330   7.766  0.2984 -0.5741 -0.3705
  596MOL0     C82173   8.962   7.285   7.880 -0.7230  0.1123 -0.0660
  596MOL0     C82174   8.896   7.173   7.939 -0.2928  0.1990  0.6087
  596MOL0     C82175   8.846   7.076   7.995 -0.2586  0.6537 -0.0977
  596MOL0     C82176   9.291   7.482   7.373 -1.4433 -0.2447  0.2144
  596MOL0     C82177   9.398   7.450   7.283  1.7473 -0.2391  0.2052
  596MOL0     C82178   9.505   7.561   7.248  0.7338  0.4706  0.1080
  596MOL0     H82179   9.590   6.915   7.116 -1.5073 -1.4770 -1.9415
  596MOL0     H82180   9.730   6.787   6.951  0.6269  0.2943 -1.3814
  596MOL0     H82181   9.831   7.021   6.548  1.6077 -0.0379  1.8551
  596MOL0     H82182   9.711   6.894   6.522  0.0263 -0.0087 -0.4007
  596MOL0     H82183  10.017   6.873   6.545 -0.8220  2.3444  0.7143
  596MOL0     H82184   9.930   6.733   6.520  3.0836  0.3526  2.0686
  596MOL0     H82185   9.818   6.874   6.316  0.1006  1.5604  0.3620
  596MOL0     H82186   9.956   6.966   6.340 -2.0933  0.5533  0.3423
  596MOL0     H82187  10.110   6.761   6.290  1.2690 -1.1983 -4.2936
  596MOL0     H82188   9.960   6.663   6.275 -1.1696  0.4952 -2.1832
  596MOL0     H82189  10.039   6.897   6.095 -1.7689  0.6163 -4.5290
  596MOL0     H82190   9.884   6.805   6.091  1.0542 -0.1213 -0.9097
  596MOL0     H82191  10.153   6.681   6.086  0.9998  5.1712  0.2975
  596MOL0     H82192   9.995   6.607   6.049 -0.8911  0.4960  0.4962
  596MOL0     H82193  10.152   6.804   5.855  0.3511  0.3338 -0.2862
  596MOL0     H82194   9.994   6.730   5.828  0.3779  2.4158  0.0559
  596MOL0     H82195  10.260   6.591   5.872 -0.1579  2.0613 -1.4645
  596MOL0     H82196  10.111   6.503   5.847  0.8356 -0.4335 -1.4488
  596MOL0     H82197   9.979   6.530   5.603  0.5023 -0.2355 -0.7301
  596MOL0     H82198  10.053   6.644   5.285  1.4381  1.4217  1.3769
  596MOL0     H82199   9.999   6.486   5.350  0.5849 -1.0621 -0.0109
  596MOL0     H82200  10.276   6.526   5.213  0.6629 -1.6722 -1.0573
  596MOL0     H82201  10.244   6.399   5.328 -1.8173  0.4484  0.3376
  596MOL0     H82202  10.059   6.320   5.194  0.0121  0.7399  0.2375
  596MOL0     H82203  10.081   6.445   5.076  1.1860 -0.3348 -1.7750
  596MOL0     H82204  10.191   6.240   4.985  1.6263  0.1527 -1.7697
  596MOL0     H82205  10.327   6.333   5.041 -0.4431  0.6525 -1.2172
  596MOL0     H82206  10.348   5.977   5.311  0.6296 -1.2091  0.6036
  596MOL0     H82207  10.466   5.827   5.406 -1.1884  0.4343 -1.8929
  596MOL0     H82208  10.639   5.866   5.408  0.0164  2.9224 -0.9584
  596MOL0     H82209  10.576   5.731   5.313 -2.4893 -0.9865 -1.9641
  596MOL0     H82210  11.033   5.861   5.005 -3.5392  1.1623  0.2485
  596MOL0     H82211  11.250   5.742   5.009 -0.7519  0.7235 -0.6700
  596MOL0     H82212  11.361   5.512   4.992  0.2502  0.0722 -0.3239
  596MOL0     H82213  11.448   5.645   5.066 -1.4398  0.2202 -3.2026
  596MOL0     H82214  11.471   5.365   5.176 -0.9190 -0.1307 -0.9618
  596MOL0     H82215  11.557   5.387   5.025 -1.2898 -0.9037  0.5993
  596MOL0     H82216  11.601   5.506   5.290 -0.6010 -1.0088 -0.2504
  596MOL0     H82217  11.665   5.591   5.139  0.7851 -1.6812 -3.8563
  596MOL0     H82218  11.816   5.417   5.095  1.1110  1.1231  1.2403
  596MOL0     H82219  11.736   5.306   5.221  0.3796 -0.9108 -1.2943
  596MOL0     H82220  11.859   5.567   5.303  1.7189  0.1963  1.1600
  596MOL0     H82221  11.819   5.421   5.396  2.0755  1.1584  0.3881
  596MOL0     H82222  12.048   5.461   5.192 -0.2194 -0.6185 -0.1534
  596MOL0     H82223  12.025   5.318   5.293  1.0880  1.0638  2.4721
  596MOL0     H82224  12.040   5.450   5.492  0.0562 -1.9197 -0.0878
  596MOL0     H82225  12.090   5.599   5.396 -1.2343 -0.3870 -2.1212
  596MOL0     H82226  12.268   5.466   5.292 -1.1519  1.4339 -0.1208
  596MOL0     H82227  12.232   5.338   5.407 -1.5200 -0.1547  0.9219
  596MOL0     H82228  11.123   5.542   5.368  0.7385  0.2019  0.3448
  596MOL0     H82229  10.924   5.693   5.383  1.8517 -1.2308  1.2862
  596MOL0     H82230  10.665   6.095   4.959 -2.4099  0.2762 -3.1101
  596MOL0     H82231  10.435   6.154   4.929  1.4553  2.8611  0.8760
  596MOL0     H82232   9.658   7.094   6.658  2.8426  1.0796 -0.4007
  596MOL0     H82233   9.543   7.237   6.854 -2.1285  0.5991 -0.2769
  596MOL0     H82234   9.268   7.133   7.219 -1.3027  0.5491 -2.9327
  596MOL0     H82235   9.105   7.192   7.379 -0.8360 -0.3430 -1.8912
  596MOL0     H82236   8.950   7.310   7.510 -0.2952 -0.3231  0.7080
  596MOL0     H82237   9.082   7.288   7.619  2.5643  0.4618 -1.6107
  596MOL0     H82238   8.869   7.512   7.646  1.0757  1.5398  0.7895
  596MOL0     H82239   9.006   7.498   7.750  2.2241  0.8265 -1.9449
  596MOL0     H82240   8.773   7.373   7.809  1.0990  0.5984  0.1921
  596MOL0     H82241   8.832   7.245   7.704 -2.7565 -1.8859  2.5917
  596MOL0     H82242   8.980   7.365   7.952 -3.4563  0.8189 -0.0584
  596MOL0     H82243   9.060   7.259   7.839 -0.8457 -1.0983  0.3880
  596MOL0     H82244   8.801   6.992   8.044  2.1591 -0.6177  0.0853
  596MOL0     H82245   9.287   7.586   7.404 -0.6128  0.5390 -2.1235
  596MOL0     H82246   9.600   7.526   7.289  0.0362  1.0548  2.3347
  596MOL0     H82247   9.516   7.575   7.140  0.8079  0.0647  0.0606
  596MOL0     H82248   9.497   7.661   7.290  2.2903  1.0823 -0.9303
  597MOL0     O82249  10.035   6.697   3.231  0.5918  0.1504 -0.4153
  597MOL0     C82250   9.914   6.656   3.240  0.3092 -0.0205 -0.8467
  597MOL0     O82251   9.873   6.525   3.263  1.2328  0.2503  0.8949
  597MOL0     C82252   9.962   6.420   3.262 -0.2912 -0.7692 -1.3474
  597MOL0     C82253  10.071   6.406   3.175  0.9736  0.2757 -0.1204
  597MOL0     C82254  10.144   6.289   3.164  0.1626 -0.1086 -0.1022
  597MOL0     C82255  10.108   6.168   3.232  0.8346 -0.3102  0.7825
  597MOL0     O82256  10.155   6.038   3.211 -0.3226 -0.3241  0.0239
  597MOL0     C82257  10.271   6.016   3.125 -0.0940 -0.0325 -0.2675
  597MOL0     C82258  10.290   5.866   3.135 -0.1458 -0.2407 -0.8965
  597MOL0     C82259  10.322   5.789   3.267  0.3409 -0.7139 -0.3242
  597MOL0     C82260  10.471   5.751   3.262 -0.1429 -0.0017  0.0823
  597MOL0     C82261  10.525   5.685   3.392  1.2216 -0.0653 -0.5637
  597MOL0     C82262  10.670   5.639   3.371  0.5674  0.0418 -0.2811
  597MOL0     C82263  10.740   5.602   3.507  0.2103  0.5839  0.3547
  597MOL0     C82264  10.701   5.472   3.581 -0.5130 -0.6488 -0.3977
  597MOL0     N82265  10.816   5.435   3.675  0.5718 -0.2372 -0.2918
  597MOL0     C82266  10.867   5.514   3.777 -0.2336  0.0259 -0.0360
  597MOL0     C82267  10.984   5.449   3.815  0.7106 -0.1097  0.0244
  597MOL0     C82268  11.073   5.489   3.930  0.9581  0.0756  0.0846
  597MOL0     C82269  11.211   5.546   3.880 -0.5533  0.4044  0.4490
  597MOL0     C82270  11.198   5.693   3.844  0.5124 -0.2182  0.0106
  597MOL0     C82271  11.319   5.758   3.781 -0.6402 -0.2353  1.0443
  597MOL0     O82272  11.346   5.695   3.655 -0.1942  0.1166 -0.1669
  597MOL0     C82273  11.252   5.712   3.551  0.6651  0.5506 -0.7761
  597MOL0     C82274  11.194   5.600   3.485  0.6798 -0.6352 -0.4182
  597MOL0     C82275  11.106   5.611   3.381  0.0778 -0.2384 -0.2373
  597MOL0     C82276  11.056   5.494   3.303  0.3928 -0.7598  0.2503
  597MOL0     C82277  11.069   5.736   3.329  0.0014  0.1247  0.3721
  597MOL0     C82278  10.984   5.768   3.205  0.5127  0.3060  0.1461
  597MOL0     O82279  10.894   5.870   3.222  0.1257  0.5023  0.3177
  597MOL0     C82280  10.807   5.899   3.115  0.7772 -0.3189  0.5228
  597MOL0     C82281  10.760   6.029   3.095  0.8377  0.0429 -0.1618
  597MOL0     C82282  10.656   6.060   3.005 -0.1219  0.3263 -0.0616
  597MOL0     C82283  10.591   5.969   2.928  0.1342 -0.1543 -0.0192
  597MOL0     O82284  10.485   6.016   2.851  0.0281  0.4043  0.6985
  597MOL0     C82285  10.440   5.928   2.741  0.5743 -0.3309 -0.1047
  597MOL0     C82286  10.354   5.996   2.632 -0.4774  0.1505  0.4631
  597MOL0     C82287  10.211   6.037   2.660  0.0987  0.1747 -0.2643
  597MOL0     C82288  10.131   6.073   2.536 -0.3027  0.6266  0.1651
  597MOL0     C82289   9.986   6.115   2.575 -0.5517 -0.1779  0.9696
  597MOL0     C82290   9.897   6.112   2.451 -0.5612 -1.0251 -0.9006
  597MOL0     C82291   9.938   6.207   2.337 -0.1087 -0.0213 -0.6531
  597MOL0     C82292   9.970   6.352   2.375 -0.8104 -0.0400 -0.4252
  597MOL0    Cl82293   9.829   6.461   2.365  0.5970  0.1651  0.0370
  597MOL0     C82294  10.644   5.836   2.940  0.0425 -0.1784  0.5738
  597MOL0     C82295  10.742   5.796   3.036  0.8629  0.0942  0.5151
  597MOL0     O82296  11.019   5.713   3.104 -0.0853  0.1486 -0.3131
  597MOL0     C82297  11.124   5.849   3.393  0.0873  0.4943 -0.4914
  597MOL0     C82298  11.215   5.835   3.496 -0.5082 -0.5302 -0.5344
  597MOL0     N82299  11.000   5.337   3.735 -0.7508 -0.1320  0.4778
  597MOL0     N82300  10.899   5.330   3.652  0.8853  0.3748  0.7677
  597MOL0     C82301  10.000   6.181   3.323  0.3677  0.1606 -0.5008
  597MOL0     C82302   9.927   6.304   3.335  0.3730 -0.8262 -0.0718
  597MOL0     C82303   9.809   6.752   3.230  1.0808 -1.0783  0.0746
  597MOL0     C82304   9.688   6.706   3.174  0.2078  0.3214 -0.1051
  597MOL0     C82305   9.581   6.790   3.154 -0.4829 -1.0646 -0.9285
  597MOL0     C82306   9.581   6.916   3.210 -0.2767  0.2384  0.3198
  597MOL0     O82307   9.459   6.986   3.196  0.0914 -0.2651 -0.1606
  597MOL0     C82308   9.458   7.127   3.230  0.0098  0.0895 -0.0725
  597MOL0     C82309   9.334   7.184   3.167 -0.2747 -0.5388 -0.4646
  597MOL0     C82310   9.302   7.328   3.209 -0.0785 -0.4393 -0.5606
  597MOL0     C82311   9.187   7.377   3.124 -0.1739 -0.2674 -0.1639
  597MOL0     C82312   9.051   7.348   3.172 -0.2274 -0.9599  0.6710
  597MOL0     C82313   8.936   7.322   3.191  0.7865 -0.3667  0.4065
  597MOL0     C82314   9.694   6.965   3.278  0.5512  0.5643  0.1562
  597MOL0     C82315   9.814   6.887   3.277  0.0570 -0.6214  0.0713
  597MOL0     C82316   9.934   6.943   3.362  1.0439  0.1029  0.0442
  597MOL0     H82317  10.099   6.488   3.109  0.8198  2.7116  2.6242
  597MOL0     H82318  10.233   6.299   3.102  0.5573  2.6727  0.7868
  597MOL0     H82319  10.353   6.078   3.161  0.0439 -0.3593 -0.0074
  597MOL0     H82320  10.246   6.036   3.021 -0.5632 -3.1966 -0.8636
  597MOL0     H82321  10.192   5.823   3.111  0.2091  0.0826 -3.2061
  597MOL0     H82322  10.352   5.827   3.054  0.2638 -0.5447 -0.4445
  597MOL0     H82323  10.313   5.851   3.357  3.1276  1.0218 -1.1147
  597MOL0     H82324  10.261   5.698   3.274 -0.2603 -0.2984 -0.0342
  597MOL0     H82325  10.485   5.682   3.178  0.8265  2.0492 -1.5380
  597MOL0     H82326  10.531   5.836   3.228 -1.4796  0.2486 -1.8321
  597MOL0     H82327  10.461   5.599   3.413  0.1778  0.9654  0.6538
  597MOL0     H82328  10.505   5.753   3.476 -0.0813 -0.5700 -0.4354
  597MOL0     H82329  10.664   5.548   3.310  2.1132  2.2537 -4.0986
  597MOL0     H82330  10.730   5.715   3.319  1.3773  0.2930  0.9762
  597MOL0     H82331  10.711   5.690   3.566 -1.8923  1.6147 -2.0680
  597MOL0     H82332  10.846   5.593   3.482 -0.2591 -1.1451 -1.1386
  597MOL0     H82333  10.610   5.485   3.641 -0.0871  1.8393 -0.1926
  597MOL0     H82334  10.692   5.387   3.512 -0.1333 -2.1609  1.3377
  597MOL0     H82335  10.844   5.611   3.818 -2.4431 -0.1318 -0.7856
  597MOL0     H82336  11.086   5.393   3.981 -2.4820 -1.7688 -2.2008
  597MOL0     H82337  11.015   5.560   3.989 -2.0635 -0.5795 -1.8833
  597MOL0     H82338  11.285   5.525   3.958  1.5866  0.1188 -1.5453
  597MOL0     H82339  11.251   5.495   3.792 -1.4140  0.7709 -0.1609
  597MOL0     H82340  11.109   5.702   3.781 -2.3377  0.9146  3.7977
  597MOL0     H82341  11.176   5.750   3.935  0.1202  1.0698 -0.8728
  597MOL0     H82342  11.307   5.867   3.774  0.9349 -0.1249 -0.5390
  597MOL0     H82343  11.403   5.738   3.848 -1.2979  1.7337  2.5556
  597MOL0     H82344  11.218   5.501   3.521  0.9224 -0.5381 -0.3131
  597MOL0     H82345  11.117   5.486   3.212 -1.3287  2.3088 -1.3825
  597MOL0     H82346  10.950   5.494   3.276  1.0174 -0.7970 -2.5598
  597MOL0     H82347  11.070   5.403   3.361 -1.0879 -2.5251 -1.9657
  597MOL0     H82348  10.795   6.102   3.168  0.7409 -1.0226  0.9915
  597MOL0     H82349  10.620   6.162   3.017 -3.2395 -0.8477  1.5699
  597MOL0     H82350  10.531   5.896   2.690  0.8503 -1.1889  0.9011
  597MOL0     H82351  10.383   5.845   2.784 -0.2481  0.3077  0.0652
  597MOL0     H82352  10.406   6.087   2.600  1.2964 -0.9309  0.1435
  597MOL0     H82353  10.346   5.921   2.552 -0.5277 -0.0099  0.6184
  597MOL0     H82354  10.206   6.106   2.745 -0.4922  0.0753 -0.2174
  597MOL0     H82355  10.164   5.953   2.712  4.7605 -2.9208 -0.4510
  597MOL0     H82356  10.123   5.988   2.467  1.5844  0.5338  0.0137
  597MOL0     H82357  10.188   6.145   2.476 -0.9311  1.4780  0.5738
  597MOL0     H82358   9.957   6.049   2.657 -0.9998 -2.3822 -0.8510
  597MOL0     H82359   9.986   6.217   2.614  0.3540  1.1887 -2.2735
  597MOL0     H82360   9.794   6.142   2.470 -0.7455  0.7443 -4.0013
  597MOL0     H82361   9.897   6.010   2.413 -0.5617 -1.5344  0.4262
  597MOL0     H82362   9.854   6.201   2.267  0.0297 -0.8526 -0.7606
  597MOL0     H82363  10.032   6.167   2.298  0.6264  1.5293 -0.5233
  597MOL0     H82364  10.057   6.377   2.314  0.5529 -1.2315  0.9642
  597MOL0     H82365  10.005   6.355   2.478  0.3966  1.8047 -0.8531
  597MOL0     H82366  10.577   5.762   2.897 -1.4840  0.9635  0.8638
  597MOL0     H82367  10.760   5.690   3.046 -0.9221 -0.6001 -2.5051
  597MOL0     H82368  11.109   5.954   3.369 -0.3711  0.2935 -1.1157
  597MOL0     H82369  11.271   5.923   3.526  0.5518 -0.9284 -1.2728
  597MOL0     H82370   9.967   6.101   3.387 -0.7573  3.0695  2.8872
  597MOL0     H82371   9.840   6.309   3.400  0.2958  1.0635 -0.2863
  597MOL0     H82372   9.678   6.607   3.130 -0.0292 -1.4076  3.5295
  597MOL0     H82373   9.494   6.764   3.096 -2.0082  0.0837  0.7290
  597MOL0     H82374   9.452   7.147   3.338 -0.8220 -1.3467  0.1855
  597MOL0     H82375   9.550   7.177   3.199 -0.4005 -0.0588 -1.5809
  597MOL0     H82376   9.251   7.126   3.211  2.1047 -1.8432  2.6984
  597MOL0     H82377   9.337   7.169   3.059  2.8647  2.4099 -0.9621
  597MOL0     H82378   9.279   7.321   3.315  0.6292  1.9232 -0.1962
  597MOL0     H82379   9.379   7.403   3.188  0.1631 -0.2381  0.9777
  597MOL0     H82380   9.201   7.331   3.026 -0.0203  0.1101 -0.3214
  597MOL0     H82381   9.207   7.482   3.104  1.3692 -0.2567  1.2525
  597MOL0     H82382   8.831   7.319   3.214  0.8332  1.3486  1.0498
  597MOL0     H82383   9.696   7.063   3.325  1.6004  0.2312  0.8457
  597MOL0     H82384   9.973   6.868   3.431  3.2604  2.4398  1.5043
  597MOL0     H82385  10.006   6.987   3.293 -2.4130  3.3562 -1.8571
  597MOL0     H82386   9.902   7.028   3.423  0.5104 -0.4467  0.5438
  598MOL0     O82387   2.203   0.175  11.097  0.6178 -0.2081 -0.1009
  598MOL0     C82388   2.218   0.065  11.144 -0.3530 -0.3555  0.1043
  598MOL0     O82389   2.338   0.009  11.180 -0.4481  0.5730  0.1753
  598MOL0     C82390   2.462   0.065  11.136 -0.6097  0.4599 -0.1326
  598MOL0     C82391   2.562   0.034  11.230 -0.1820  0.4898  0.2242
  598MOL0     C82392   2.693   0.075  11.201 -0.8622  0.3762  0.6473
  598MOL0     C82393   2.718   0.148  11.074 -0.6080 -0.2352  0.3146
  598MOL0     O82394   2.849   0.171  11.044 -0.2302  0.1401 -0.0028
  598MOL0     C82395   2.870   0.226  10.919 -0.8726  0.5239  0.4905
  598MOL0     C82396   3.011   0.274  10.903 -0.6540  0.2490 -0.4972
  598MOL0     C82397   3.117   0.164  10.915  0.8637  0.1691 -0.1906
  598MOL0     C82398   3.268   0.227  10.904  0.2955 -0.1525 -0.3343
  598MOL0     C82399   3.365   0.103  10.899  1.0897  0.3231  0.0772
  598MOL0     C82400   3.513   0.144  10.875 -0.2684 -0.1737 -0.5242
  598MOL0     C82401   3.602   0.015  10.872 -0.2655  0.6473 -0.5012
  598MOL0     C82402   3.728   0.036  10.787 -0.5645  0.6781 -0.0065
  598MOL0     N82403   3.841   0.095  10.870 -0.2853 -0.4931  0.1767
  598MOL0     C82404   3.832   0.209  10.948  0.5098  0.8708 -0.3525
  598MOL0     C82405   3.953   0.198  11.013 -0.0417 -0.0227  0.5993
  598MOL0     C82406   4.014   0.302  11.104 -0.0434 -0.8491  0.2349
  598MOL0     C82407   4.142   0.374  11.054 -0.4510  0.6028 -0.3249
  598MOL0     C82408   4.128   0.467  10.935  0.4369 -0.0877 -0.1048
  598MOL0     C82409   4.253   0.543  10.902  0.4400  0.6039  0.5857
  598MOL0     O82410   4.276   0.662  10.967  0.3392  0.2743 -0.3850
  598MOL0     C82411   4.380   0.748  10.938 -0.6032  0.0111  0.6915
  598MOL0     C82412   4.381   0.882  10.984 -0.2147  0.1200 -0.7314
  598MOL0     C82413   4.468   0.980  10.940  0.0014 -0.6326  0.8377
  598MOL0     C82414   4.433   1.119  10.989  0.2969  1.2175  0.3370
  598MOL0     C82415   4.584   0.941  10.862 -0.5096 -0.0536  0.0656
  598MOL0     C82416   4.706   1.025  10.823  0.3758  0.4271 -0.8126
  598MOL0     O82417   4.792   0.987  10.737 -0.8393  0.3412  0.0353
  598MOL0     C82418   4.892   1.057  10.677  0.2250  0.4150  0.0205
  598MOL0     C82419   4.940   1.000  10.562 -0.5334 -1.1430  0.9920
  598MOL0     C82420   5.053   1.055  10.490  0.0436 -0.3369  0.2278
  598MOL0     C82421   5.115   1.171  10.540 -0.0084 -0.4954 -0.3946
  598MOL0     O82422   5.220   1.228  10.463  0.7057  0.2555  0.0378
  598MOL0     C82423   5.210   1.371  10.445  0.6246  0.2930  0.2617
  598MOL0     C82424   5.297   1.433  10.343  0.5084  0.5859  0.6892
  598MOL0     C82425   5.293   1.341  10.223  0.2051  0.2329  0.2065
  598MOL0     C82426   5.392   1.381  10.120  0.0538 -0.5682 -0.3014
  598MOL0     C82427   5.380   1.336   9.983  0.2524  0.3271  0.1282
  598MOL0     C82428   5.271   1.393   9.900 -0.1862 -0.8248 -0.0798
  598MOL0     C82429   5.252   1.303   9.776  0.6340 -0.1635 -0.5670
  598MOL0     C82430   5.170   1.372   9.663 -0.0532 -0.0121  0.4079
  598MOL0    Cl82431   5.275   1.511   9.615  0.1479  0.1150 -0.4871
  598MOL0     C82432   5.065   1.230  10.655  1.2413  0.7949  0.8142
  598MOL0     C82433   4.949   1.178  10.726 -0.7159 -0.7339  0.5583
  598MOL0     O82434   4.710   1.128  10.889 -0.8736 -0.1161  0.1203
  598MOL0     C82435   4.581   0.811  10.812  0.0206  0.8161 -0.6217
  598MOL0     C82436   4.478   0.722  10.844 -0.3134 -0.2721  0.0941
  598MOL0     N82437   4.026   0.088  10.983 -0.0865  0.0793  0.6316
  598MOL0     N82438   3.952   0.020  10.904  0.7808  0.7810  0.2045
  598MOL0     C82439   2.615   0.171  10.983  0.2474 -0.1845 -0.5201
  598MOL0     C82440   2.481   0.142  11.017  0.9387  0.3840 -0.7100
  598MOL0     C82441   2.107  -0.022  11.188  1.7251  0.2337 -0.2123
  598MOL0     C82442   2.132  -0.135  11.267 -0.1020  0.1320 -0.4066
  598MOL0     C82443   2.031  -0.227  11.318  0.5018 -0.8750 -0.4702
  598MOL0     C82444   1.896  -0.189  11.300  0.0073 -0.6209  0.0837
  598MOL0     O82445   1.789  -0.258  11.353  0.0524 -0.5223  0.1404
  598MOL0     C82446   1.797  -0.256  11.501  0.4299 -0.1336 -1.2874
  598MOL0     C82447   1.672  -0.283  11.578  0.6586 -0.1091  1.2421
  598MOL0     C82448   1.574  -0.378  11.510 -0.3473  0.2286 -0.7868
  598MOL0     C82449   1.478  -0.301  11.414  0.7037  0.2725  0.9910
  598MOL0     C82450   1.415  -0.392  11.312  0.1974  0.4864 -0.4990
  598MOL0     C82451   1.351  -0.458  11.235  0.2844  0.5486 -0.1461
  598MOL0     C82452   1.869  -0.081  11.207  0.6056 -0.6902 -0.4512
  598MOL0     C82453   1.968   0.002  11.159  0.7798  1.1971  1.0356
  598MOL0     C82454   1.928   0.089  11.038  0.3768 -0.7520 -0.6224
  598MOL0     H82455   2.526  -0.012  11.321 -2.9416 -0.3586 -1.1704
  598MOL0     H82456   2.776   0.058  11.270 -1.5490 -0.9887  1.1732
  598MOL0     H82457   2.817   0.322  10.909  2.0315  2.4968  2.5175
  598MOL0     H82458   2.843   0.166  10.832  0.8585  0.7533 -0.2480
  598MOL0     H82459   3.036   0.322  10.808  1.3591  0.0293 -0.1132
  598MOL0     H82460   3.024   0.348  10.982  0.5313  0.5118 -0.9271
  598MOL0     H82461   3.104   0.097  11.000  1.4060  1.0922  0.6471
  598MOL0     H82462   3.103   0.106  10.824  0.5072  0.4426 -0.3120
  598MOL0     H82463   3.283   0.291  10.817 -1.9980  0.6075 -0.2340
  598MOL0     H82464   3.289   0.286  10.993  1.3640  2.8243 -2.4023
  598MOL0     H82465   3.336   0.040  10.814  0.2416  0.1417  0.4927
  598MOL0     H82466   3.355   0.040  10.987  0.7143  0.1131 -0.1095
  598MOL0     H82467   3.523   0.197  10.780  0.1319  0.5181 -0.0994
  598MOL0     H82468   3.551   0.220  10.943  0.1118  1.7457 -2.7813
  598MOL0     H82469   3.546  -0.057  10.811 -2.2442 -0.9703  2.9370
  598MOL0     H82470   3.628  -0.046  10.959  0.1324 -0.6589 -1.4934
  598MOL0     H82471   3.776  -0.056  10.752  0.0561  0.1487  2.1106
  598MOL0     H82472   3.699   0.094  10.698  0.3536  0.5713 -0.3870
  598MOL0     H82473   3.758   0.287  10.956 -1.4660 -0.8984 -0.6139
  598MOL0     H82474   4.035   0.248  11.197  0.5978  1.5222  1.5385
  598MOL0     H82475   3.939   0.381  11.113  0.3173 -0.2463 -1.5645
  598MOL0     H82476   4.185   0.436  11.134  1.3391  2.4785 -2.5775
  598MOL0     H82477   4.217   0.301  11.023 -2.9980 -1.4623 -2.0393
  598MOL0     H82478   4.112   0.393  10.856 -2.4249  1.3921 -1.0561
  598MOL0     H82479   4.043   0.534  10.951  0.4098  0.2612 -1.5420
  598MOL0     H82480   4.331   0.467  10.916 -0.4713 -1.8525 -4.9869
  598MOL0     H82481   4.245   0.561  10.795  1.3493  0.8412  0.5514
  598MOL0     H82482   4.302   0.902  11.056 -0.4501 -3.9726  0.4005
  598MOL0     H82483   4.494   1.147  11.076  1.2706  2.4222 -0.7057
  598MOL0     H82484   4.326   1.128  11.007  0.3064 -0.7732  1.7818
  598MOL0     H82485   4.450   1.183  10.902  0.5296 -0.4792 -0.9297
  598MOL0     H82486   4.887   0.916  10.518 -0.7286  1.0691 -3.6341
  598MOL0     H82487   5.095   1.005  10.404  1.7395 -2.7834  2.3321
  598MOL0     H82488   5.107   1.403  10.425  0.0881  0.4322  2.8794
  598MOL0     H82489   5.218   1.428  10.538  0.6892  0.8566 -0.0883
  598MOL0     H82490   5.260   1.530  10.306  1.7296  0.8200  0.0372
  598MOL0     H82491   5.396   1.444  10.387  0.6029 -0.2010  0.6801
  598MOL0     H82492   5.193   1.342  10.179 -0.3096 -2.7084  1.0974
  598MOL0     H82493   5.310   1.235  10.242 -0.0487 -0.2965 -2.2377
  598MOL0     H82494   5.492   1.347  10.148  0.7016  0.4764 -1.2245
  598MOL0     H82495   5.396   1.490  10.129  2.1185 -0.7519  1.6080
  598MOL0     H82496   5.481   1.342   9.942 -0.1271 -1.0786 -1.0990
  598MOL0     H82497   5.367   1.228   9.987  0.0774  0.2380 -1.8965
  598MOL0     H82498   5.303   1.490   9.861 -1.8390 -1.3628 -3.1394
  598MOL0     H82499   5.177   1.401   9.954 -1.3172 -3.5483 -1.4193
  598MOL0     H82500   5.198   1.210   9.798  2.4946 -1.4863 -1.3753
  598MOL0     H82501   5.345   1.278   9.725  1.4454 -0.1603  0.8427
  598MOL0     H82502   5.073   1.404   9.702 -0.3065 -1.6068  1.1374
  598MOL0     H82503   5.148   1.305   9.580  4.0506 -0.9562 -0.1346
  598MOL0     H82504   5.114   1.317  10.698  1.8133  0.2429  1.3040
  598MOL0     H82505   4.915   1.229  10.815 -1.3079 -0.1117 -0.0034
  598MOL0     H82506   4.661   0.781  10.745 -1.4690 -0.2072 -2.0263
  598MOL0     H82507   4.471   0.621  10.804  1.2718 -0.3496 -0.0850
  598MOL0     H82508   2.630   0.229  10.893 -0.6712  0.1082 -0.4945
  598MOL0     H82509   2.399   0.160  10.949 -0.5724  0.4305  1.0367
  598MOL0     H82510   2.231  -0.174  11.289 -0.1878  0.0992 -0.0801
  598MOL0     H82511   2.065  -0.297  11.394  2.2014  0.5553  0.1555
  598MOL0     H82512   1.873  -0.326  11.535  1.0144  0.8388 -0.5205
  598MOL0     H82513   1.838  -0.158  11.531  1.6036 -1.1677  0.6964
  598MOL0     H82514   1.632  -0.183  11.599  1.5116  0.9560 -1.6781
  598MOL0     H82515   1.702  -0.323  11.676 -0.0493  1.4511  2.1451
  598MOL0     H82516   1.609  -0.473  11.471  2.0096  0.5958  0.2589
  598MOL0     H82517   1.517  -0.405  11.600  0.5873 -0.8689 -0.5024
  598MOL0     H82518   1.533  -0.233  11.348 -3.1090  0.7024 -2.0889
  598MOL0     H82519   1.407  -0.239  11.469 -2.9396 -0.8344 -2.0183
  598MOL0     H82520   1.297  -0.516  11.163 -0.3533  1.6455 -0.5632
  598MOL0     H82521   1.764  -0.062  11.187  0.0927  0.7116  2.9214
  598MOL0     H82522   2.004   0.088  10.960  0.9483 -3.5365 -0.1521
  598MOL0     H82523   1.832   0.052  11.000  0.0479 -2.1269  1.3903
  598MOL0     H82524   1.920   0.195  11.062 -0.0088 -0.7794 -0.6245
  599MOL0     O82525   4.154   6.931   8.614 -0.5382 -0.2094  1.1079
  599MOL0     C82526   4.086   6.915   8.514 -0.0429 -0.3660  0.2353
  599MOL0     O82527   4.118   6.965   8.387 -0.3318 -0.6498 -0.2854
  599MOL0     C82528   4.240   7.022   8.353  1.3767 -0.2726  0.4099
  599MOL0     C82529   4.242   7.065   8.218 -0.0518  0.5546  1.0549
  599MOL0     C82530   4.357   7.119   8.155 -0.0528  0.4713  0.2093
  599MOL0     C82531   4.473   7.128   8.223  0.1702 -0.3874 -0.2555
  599MOL0     O82532   4.579   7.188   8.152 -0.0852 -0.4406  1.1819
  599MOL0     C82533   4.701   7.204   8.218  0.3107  1.0860  0.3181
  599MOL0     C82534   4.790   7.274   8.119 -0.0476  0.9917 -0.0939
  599MOL0     C82535   4.935   7.290   8.162  0.4719  0.0911 -0.1370
  599MOL0     C82536   5.016   7.169   8.203  0.3066  0.0297 -0.1728
  599MOL0     C82537   5.163   7.210   8.228  1.1885 -0.3173  0.8434
  599MOL0     C82538   5.258   7.089   8.242  0.3585  0.0590  0.2447
  599MOL0     C82539   5.408   7.137   8.255 -0.7137  0.4242 -0.2274
  599MOL0     C82540   5.485   7.171   8.121 -0.9356  0.2656  0.5188
  599MOL0     N82541   5.628   7.199   8.144 -0.6514 -0.2229 -0.1433
  599MOL0     C82542   5.674   7.300   8.225 -0.2022 -0.4343  0.1985
  599MOL0     C82543   5.814   7.299   8.212  0.0190 -0.0714 -0.3813
  599MOL0     C82544   5.904   7.386   8.277 -1.1478 -0.1984 -0.2036
  599MOL0     C82545   5.976   7.497   8.196 -0.7509 -1.0996  1.2880
  599MOL0     C82546   5.869   7.604   8.157  0.3735 -0.1917  0.1405
  599MOL0     C82547   5.922   7.746   8.189  0.0648  0.2235  0.5751
  599MOL0     O82548   6.008   7.771   8.069  0.4930 -0.0321 -0.6691
  599MOL0     C82549   6.100   7.875   8.058  0.6012  0.6786  0.6066
  599MOL0     C82550   6.093   7.988   8.143 -0.2054  0.7028  0.0249
  599MOL0     C82551   6.185   8.096   8.129  0.1309 -0.3194 -0.1886
  599MOL0     C82552   6.162   8.210   8.217  0.0598  0.9403 -1.4050
  599MOL0     C82553   6.294   8.091   8.041  0.4175 -0.2866  0.3503
  599MOL0     C82554   6.409   8.187   8.021  0.4750  0.3561 -0.9620
  599MOL0     O82555   6.516   8.137   7.958 -0.0989 -0.1195  0.3145
  599MOL0     C82556   6.627   8.212   7.923 -0.1917 -0.1146  0.6516
  599MOL0     C82557   6.749   8.146   7.925  0.4945 -0.4113 -0.2550
  599MOL0     C82558   6.870   8.213   7.898  0.5662 -0.2236  0.0723
  599MOL0     C82559   6.874   8.348   7.853 -0.4016 -0.9005  0.0424
  599MOL0     O82560   6.986   8.432   7.835 -0.4141  0.0504 -0.3084
  599MOL0     C82561   7.110   8.360   7.850  0.2089 -0.3095  0.4396
  599MOL0     C82562   7.159   8.352   7.995 -0.2318 -0.7118 -0.3312
  599MOL0     C82563   7.302   8.293   8.004 -0.0950  1.0222 -1.0920
  599MOL0     C82564   7.347   8.288   8.155 -0.3990 -0.2615 -0.1605
  599MOL0     C82565   7.481   8.216   8.176 -0.0787  0.4210 -0.0512
  599MOL0     C82566   7.493   8.164   8.315  0.3215 -0.4331  0.0939
  599MOL0     C82567   7.630   8.123   8.352 -0.1877  0.1219 -0.7156
  599MOL0     C82568   7.666   7.990   8.299 -0.1706  0.5967 -0.4774
  599MOL0    Cl82569   7.576   7.851   8.371  0.1962  0.2974 -0.3091
  599MOL0     C82570   6.746   8.406   7.839 -0.1234 -0.7162 -0.6087
  599MOL0     C82571   6.623   8.350   7.886  1.0795  0.2820  0.3606
  599MOL0     O82572   6.402   8.299   8.070  0.0864  0.5379  0.3149
  599MOL0     C82573   6.293   7.975   7.954  0.2715 -0.9514  0.0724
  599MOL0     C82574   6.209   7.872   7.963  1.0537 -0.4860  0.2288
  599MOL0     N82575   5.846   7.204   8.116  0.3814  0.1117 -0.4945
  599MOL0     N82576   5.740   7.135   8.090  0.4472  0.0324 -0.5157
  599MOL0     C82577   4.470   7.083   8.354 -0.2361  0.0072 -0.3264
  599MOL0     C82578   4.361   7.033   8.422 -0.1790 -0.8295  0.6166
  599MOL0     C82579   3.954   6.855   8.532 -0.5750 -0.1281 -0.1661
  599MOL0     C82580   3.887   6.824   8.412  0.5724 -0.7677 -0.2250
  599MOL0     C82581   3.761   6.764   8.417  0.9543  0.1802  0.6520
  599MOL0     C82582   3.698   6.726   8.544 -0.1778  0.9813  0.4527
  599MOL0     O82583   3.585   6.649   8.545  0.0931  0.4132  0.4096
  599MOL0     C82584   3.477   6.713   8.606  0.6594 -0.3647 -0.5042
  599MOL0     C82585   3.350   6.637   8.568 -0.3134 -0.2290  0.2127
  599MOL0     C82586   3.221   6.721   8.592 -1.3824  0.5166  0.5852
  599MOL0     C82587   3.094   6.641   8.583 -0.9654 -0.4876 -0.4721
  599MOL0     C82588   3.072   6.569   8.456 -0.4789  0.4125  0.6393
  599MOL0     C82589   3.050   6.517   8.351  0.2097 -0.1367 -0.2199
  599MOL0     C82590   3.778   6.755   8.654  0.6675  0.1925 -0.1871
  599MOL0     C82591   3.898   6.818   8.655  0.3819 -0.0405 -0.5989
  599MOL0     C82592   3.970   6.837   8.782  0.0130  0.0277  0.3609
  599MOL0     H82593   4.153   7.043   8.162  1.0958 -0.8867 -0.2747
  599MOL0     H82594   4.353   7.139   8.048 -1.3913 -3.3530 -0.6170
  599MOL0     H82595   4.745   7.104   8.223 -2.0916 -0.1565 -1.0762
  599MOL0     H82596   4.692   7.259   8.312  1.8637 -0.9048  1.7168
  599MOL0     H82597   4.785   7.222   8.023 -1.3656  2.2282 -0.7160
  599MOL0     H82598   4.749   7.374   8.104  0.8666  1.2889 -0.7281
  599MOL0     H82599   4.992   7.348   8.090 -1.4660  1.0076 -0.9972
  599MOL0     H82600   4.935   7.349   8.255 -2.8776 -2.3700  1.6792
  599MOL0     H82601   4.985   7.124   8.298  0.7614  0.1091  0.0174
  599MOL0     H82602   5.000   7.089   8.131  0.7632 -1.0487  0.8796
  599MOL0     H82603   5.174   7.272   8.317  1.3524  1.3387 -0.2808
  599MOL0     H82604   5.192   7.275   8.146  1.4967 -0.3117  0.9569
  599MOL0     H82605   5.236   7.020   8.324  0.0403 -1.3678 -0.9926
  599MOL0     H82606   5.251   7.029   8.151 -2.1737  0.7589 -0.0902
  599MOL0     H82607   5.466   7.053   8.296 -1.3160 -0.6997 -1.5858
  599MOL0     H82608   5.409   7.214   8.333 -2.4216  2.2459 -1.9352
  599MOL0     H82609   5.488   7.085   8.054  1.8054 -0.3266  1.2593
  599MOL0     H82610   5.442   7.254   8.065  2.6710  0.7324 -1.8900
  599MOL0     H82611   5.616   7.363   8.291 -1.0806  0.8752 -1.7211
  599MOL0     H82612   5.982   7.325   8.324 -1.4200 -1.0438 -0.8148
  599MOL0     H82613   5.859   7.425   8.369  1.4554  0.0075  1.0898
  599MOL0     H82614   6.049   7.547   8.260  0.2661 -1.0362  0.1129
  599MOL0     H82615   6.034   7.460   8.112 -2.5402  0.2150 -0.6357
  599MOL0     H82616   5.840   7.585   8.053  1.3555 -0.1820 -0.1454
  599MOL0     H82617   5.783   7.591   8.223 -1.7006  1.4050 -2.1003
  599MOL0     H82618   5.846   7.824   8.196  0.6615  1.2141 -2.5321
  599MOL0     H82619   5.996   7.746   8.270  4.4395  1.4562 -3.0018
  599MOL0     H82620   6.018   7.985   8.222 -1.5193  2.1790 -1.0952
  599MOL0     H82621   6.245   8.223   8.287 -0.3346  0.4557 -0.8396
  599MOL0     H82622   6.066   8.201   8.268  1.1761  1.5157  0.9118
  599MOL0     H82623   6.151   8.303   8.161  1.1798  2.3185  0.5390
  599MOL0     H82624   6.757   8.042   7.953  0.9458 -0.3141 -0.0118
  599MOL0     H82625   6.958   8.149   7.891  0.1010 -0.7211 -2.1531
  599MOL0     H82626   7.116   8.264   7.798 -1.0584 -0.2243  0.0878
  599MOL0     H82627   7.174   8.426   7.791 -1.4983  2.5393  1.5542
  599MOL0     H82628   7.159   8.447   8.048  0.4230 -1.4187  1.0010
  599MOL0     H82629   7.090   8.285   8.048  1.3761 -3.4309 -1.4266
  599MOL0     H82630   7.377   8.354   7.953  2.6667  0.1312  1.5659
  599MOL0     H82631   7.306   8.190   7.966 -0.8645 -0.3461  2.1899
  599MOL0     H82632   7.270   8.238   8.215 -0.0335  1.4493  1.8838
  599MOL0     H82633   7.354   8.385   8.205 -0.9950 -1.0341  1.4965
  599MOL0     H82634   7.499   8.135   8.105  1.0017  1.2142 -0.7237
  599MOL0     H82635   7.555   8.296   8.171  0.9067 -0.1820  2.8368
  599MOL0     H82636   7.438   8.070   8.321  1.4619 -1.0695  1.0493
  599MOL0     H82637   7.438   8.230   8.384  0.5655 -0.3970  0.2553
  599MOL0     H82638   7.629   8.129   8.461  1.4975  0.6017 -0.7112
  599MOL0     H82639   7.706   8.193   8.317 -0.8168  0.4277 -1.5032
  599MOL0     H82640   7.772   7.982   8.323 -0.3314  1.2359  0.5502
  599MOL0     H82641   7.645   7.985   8.192 -1.3627 -1.5093 -0.2162
  599MOL0     H82642   6.723   8.506   7.805 -1.8302 -0.5483  0.8933
  599MOL0     H82643   6.530   8.406   7.876 -0.9932 -3.2449 -2.3046
  599MOL0     H82644   6.369   7.970   7.877  1.2244  1.8329  0.6860
  599MOL0     H82645   6.228   7.789   7.896  3.7707 -0.0555  0.3353
  599MOL0     H82646   4.566   7.088   8.405 -1.0116  1.2036  1.1127
  599MOL0     H82647   4.373   7.002   8.525 -2.1296  3.1342  2.2252
  599MOL0     H82648   3.941   6.832   8.318  0.3566 -1.9860 -0.4768
  599MOL0     H82649   3.704   6.745   8.326  0.6259  1.3699  0.5909
  599MOL0     H82650   3.488   6.716   8.715 -0.0434  1.3136 -0.4382
  599MOL0     H82651   3.471   6.819   8.577  0.1857  0.1313  1.2685
  599MOL0     H82652   3.347   6.546   8.629  1.7802 -0.8499 -0.5176
  599MOL0     H82653   3.363   6.608   8.464  1.1643  4.1966 -1.0857
  599MOL0     H82654   3.231   6.777   8.686  2.7834  3.6539 -1.4206
  599MOL0     H82655   3.211   6.803   8.520  0.5194 -0.0174 -0.3621
  599MOL0     H82656   3.012   6.712   8.599  1.8338  3.2014 -0.9271
  599MOL0     H82657   3.097   6.572   8.668  0.0515  0.1958  0.0676
  599MOL0     H82658   3.020   6.473   8.258 -2.6513  0.1640  0.4498
  599MOL0     H82659   3.736   6.723   8.748  1.1563  0.4535  0.1265
  599MOL0     H82660   3.980   6.942   8.810 -0.1747 -0.4083  2.2089
  599MOL0     H82661   3.916   6.801   8.870  1.1778  1.5637  1.7676
  599MOL0     H82662   4.059   6.775   8.797 -1.0150 -2.0959 -1.7094
  600MOL0     O82663   9.365   1.127   4.881 -0.3082  0.5182 -0.2584
  600MOL0     C82664   9.330   1.243   4.904 -0.4811  0.4913 -0.3451
  600MOL0     O82665   9.412   1.346   4.942 -0.3293  0.2780 -0.8066
  600MOL0     C82666   9.366   1.468   4.995  0.1695  0.4611 -0.1852
  600MOL0     C82667   9.433   1.580   4.951 -0.0397  1.2603  0.0513
  600MOL0     C82668   9.393   1.711   4.979 -0.0234 -0.2871  0.4800
  600MOL0     C82669   9.284   1.732   5.065 -0.7653 -0.1508  0.2642
  600MOL0     O82670   9.256   1.859   5.094 -0.0660  0.0229  0.1706
  600MOL0     C82671   9.132   1.905   5.153  0.2928 -0.0653 -0.6631
  600MOL0     C82672   9.128   1.909   5.312  0.1243  0.3706  0.0866
  600MOL0     C82673   9.009   1.981   5.359  0.0415 -0.7129  0.1968
  600MOL0     C82674   8.876   1.897   5.336  0.1547  0.1307 -0.5427
  600MOL0     C82675   8.752   1.964   5.392  0.5891 -0.6724 -1.0458
  600MOL0     C82676   8.628   1.904   5.344  0.0759 -0.0011 -0.0384
  600MOL0     C82677   8.509   1.898   5.437 -0.1395  1.3518 -0.5112
  600MOL0     C82678   8.388   1.834   5.381 -0.0416  0.3701 -0.3835
  600MOL0     N82679   8.290   1.828   5.490 -0.1922 -0.3138  0.1069
  600MOL0     C82680   8.273   1.727   5.579 -0.3737  0.1624  0.4634
  600MOL0     C82681   8.169   1.759   5.653 -0.5065 -0.4463 -0.1064
  600MOL0     C82682   8.116   1.685   5.770  0.8208  0.0575 -0.6090
  600MOL0     C82683   8.198   1.687   5.901  0.3657 -0.1324  0.2872
  600MOL0     C82684   8.179   1.829   5.980 -0.9671  0.6270 -0.0811
  600MOL0     C82685   8.296   1.912   5.938  0.3344 -1.0575 -0.9080
  600MOL0     O82686   8.408   1.900   6.021 -0.8692 -0.3529 -0.3260
  600MOL0     C82687   8.514   1.987   5.991  0.0633  0.1097 -0.2439
  600MOL0     C82688   8.641   1.929   5.975  0.5504  0.4226  0.6775
  600MOL0     C82689   8.758   1.999   5.931  0.6092  0.7791 -0.9876
  600MOL0     C82690   8.882   1.907   5.914 -1.0250 -0.8116  0.1330
  600MOL0     C82691   8.753   2.133   5.920 -0.7661  0.2614 -0.3233
  600MOL0     C82692   8.859   2.223   5.889  0.5054 -0.4307  0.2745
  600MOL0     O82693   8.872   2.350   5.946  0.2966  0.0710 -0.3094
  600MOL0     C82694   8.997   2.402   5.957  0.3092 -0.1517 -0.2060
  600MOL0     C82695   9.055   2.468   5.848  0.2766 -0.1704  0.4374
  600MOL0     C82696   9.186   2.513   5.856  0.2124 -0.5267 -0.5145
  600MOL0     C82697   9.263   2.510   5.974 -0.0333  0.0566 -0.5490
  600MOL0     O82698   9.388   2.568   5.987 -0.1221 -0.3275 -0.4357
  600MOL0     C82699   9.400   2.687   5.898  0.5113  0.0326 -0.6832
  600MOL0     C82700   9.524   2.764   5.935  0.2886  0.7185  0.0959
  600MOL0     C82701   9.637   2.668   5.962 -0.4243 -0.1908 -0.1392
  600MOL0     C82702   9.754   2.760   6.004  0.0044  0.5057  0.1087
  600MOL0     C82703   9.870   2.673   6.046 -0.1533 -0.2170 -0.1293
  600MOL0     C82704   9.868   2.623   6.194  0.9032 -0.1618  0.2312
  600MOL0     C82705   9.992   2.564   6.244 -0.1945 -0.1827 -0.6845
  600MOL0     C82706   9.993   2.557   6.398  0.2530 -0.3229 -0.8054
  600MOL0    Cl82707  10.151   2.499   6.485 -0.6110  0.0005  0.3961
  600MOL0     C82708   9.205   2.437   6.078 -0.4834  0.5894  0.2191
  600MOL0     C82709   9.078   2.384   6.072 -0.5196 -0.1367  0.3585
  600MOL0     O82710   8.944   2.179   5.821 -0.2846 -0.3000 -0.6668
  600MOL0     C82711   8.629   2.193   5.954  0.1371  0.4831  0.4424
  600MOL0     C82712   8.511   2.125   5.983 -0.3585  0.6229  0.5756
  600MOL0     N82713   8.134   1.884   5.613  0.1304 -0.0720 -0.2845
  600MOL0     N82714   8.207   1.922   5.516 -0.5206  0.0603 -1.0330
  600MOL0     C82715   9.207   1.616   5.105  0.2558  0.2084 -0.5517
  600MOL0     C82716   9.246   1.493   5.067 -0.5142  0.5632 -0.0316
  600MOL0     C82717   9.185   1.260   4.864 -0.7931  0.7959  0.3626
  600MOL0     C82718   9.087   1.190   4.922  0.0231  0.5023 -0.3378
  600MOL0     C82719   8.955   1.199   4.886  0.1924 -0.4621  1.0183
  600MOL0     C82720   8.912   1.284   4.774 -0.1286  0.4066 -0.6073
  600MOL0     O82721   8.781   1.290   4.740  0.2977  0.6248 -0.0464
  600MOL0     C82722   8.751   1.252   4.602 -0.3566  0.4083  0.0701
  600MOL0     C82723   8.704   1.102   4.615 -0.1675  0.1421  0.7313
  600MOL0     C82724   8.691   1.053   4.467  0.2638  0.0180 -0.0988
  600MOL0     C82725   8.575   0.950   4.462 -1.6582 -0.0679  0.5247
  600MOL0     C82726   8.574   0.905   4.320 -0.3970 -0.3415  0.4298
  600MOL0     C82727   8.600   0.872   4.205  0.5401 -0.0499 -1.1834
  600MOL0     C82728   9.015   1.353   4.714  0.1378 -0.2286  0.6209
  600MOL0     C82729   9.153   1.342   4.754 -0.1694 -1.0016 -0.1907
  600MOL0     C82730   9.258   1.406   4.670  0.2997  0.2884  0.5248
  600MOL0     H82731   9.516   1.555   4.887 -1.2409 -1.4396 -0.5780
  600MOL0     H82732   9.450   1.794   4.939 -0.0301 -0.0970  0.8581
  600MOL0     H82733   9.050   1.845   5.112  0.6960 -0.5684 -0.7452
  600MOL0     H82734   9.120   2.007   5.116 -1.3411 -0.5970 -1.7187
  600MOL0     H82735   9.135   1.806   5.348  2.5215  0.6811  0.6960
  600MOL0     H82736   9.221   1.953   5.348  1.0205 -0.6025 -0.9664
  600MOL0     H82737   9.028   2.007   5.464 -2.3559 -1.7801  0.9784
  600MOL0     H82738   9.004   2.071   5.297 -1.8270 -0.4508  0.6647
  600MOL0     H82739   8.857   1.879   5.230  0.2548  1.2449 -0.7590
  600MOL0     H82740   8.901   1.801   5.384  0.7205  1.8647  2.9627
  600MOL0     H82741   8.745   2.069   5.361  0.2773  0.2465  1.8551
  600MOL0     H82742   8.766   1.953   5.500  1.2224 -1.3837 -1.1962
  600MOL0     H82743   8.603   1.952   5.249  1.9750 -2.3375 -1.8406
  600MOL0     H82744   8.651   1.800   5.318 -1.4397 -0.4499  0.3378
  600MOL0     H82745   8.483   2.000   5.467  0.7461  0.5853  3.2893
  600MOL0     H82746   8.536   1.846   5.529  2.1616 -0.5430 -2.1321
  600MOL0     H82747   8.360   1.905   5.303 -1.9630 -1.5746 -1.5424
  600MOL0     H82748   8.409   1.739   5.331 -4.0937 -1.4453  0.9256
  600MOL0     H82749   8.336   1.639   5.593 -1.2197 -0.2162  2.1025
  600MOL0     H82750   8.096   1.579   5.749 -0.5351  0.4368 -1.3915
  600MOL0     H82751   8.020   1.732   5.792  1.2460  0.2305  0.9725
  600MOL0     H82752   8.168   1.604   5.965 -0.3385  0.9120  1.3494
  600MOL0     H82753   8.303   1.668   5.877  0.0223 -0.0960 -1.3538
  600MOL0     H82754   8.088   1.874   5.939 -1.3877  0.0963  0.2608
  600MOL0     H82755   8.170   1.809   6.087  1.8881 -3.1908 -0.3353
  600MOL0     H82756   8.324   1.893   5.834  0.8754  0.1817 -1.0034
  600MOL0     H82757   8.261   2.016   5.941 -2.5901 -1.9450 -1.7353
  600MOL0     H82758   8.647   1.823   5.994 -1.8671  0.1792  0.3353
  600MOL0     H82759   8.895   1.875   5.810 -0.3965  0.4188 -0.1940
  600MOL0     H82760   8.883   1.815   5.974  1.9940 -0.4606  0.7911
  600MOL0     H82761   8.978   1.944   5.952  0.2165 -3.6629  0.0226
  600MOL0     H82762   8.999   2.483   5.756  2.3795  0.2849 -0.8344
  600MOL0     H82763   9.230   2.559   5.768 -2.1273  2.3051 -0.3506
  600MOL0     H82764   9.412   2.665   5.792 -1.5373 -0.3428 -0.8730
  600MOL0     H82765   9.324   2.765   5.910  3.3519  2.8623  0.5469
  600MOL0     H82766   9.546   2.833   5.853 -1.1144  1.4637  0.3090
  600MOL0     H82767   9.494   2.818   6.025  0.6917  0.4484  0.3922
  600MOL0     H82768   9.642   2.608   5.871 -0.9335 -0.2682 -0.1195
  600MOL0     H82769   9.615   2.595   6.041  2.5414 -2.4114 -1.1710
  600MOL0     H82770   9.718   2.824   6.085  0.6422 -0.1131  0.9002
  600MOL0     H82771   9.773   2.822   5.915  0.2136 -0.9789 -0.9291
  600MOL0     H82772   9.891   2.590   5.979  7.1503 -0.8005  2.0287
  600MOL0     H82773   9.954   2.741   6.030  0.2511 -0.7005 -0.0654
  600MOL0     H82774   9.787   2.551   6.205  3.3798 -3.1496  0.0882
  600MOL0     H82775   9.844   2.714   6.251 -1.1715  0.3454 -1.3210
  600MOL0     H82776  10.080   2.620   6.213  1.1741 -0.8246  1.7475
  600MOL0     H82777  10.000   2.462   6.207 -0.9191 -1.0309  1.3449
  600MOL0     H82778   9.916   2.486   6.432  0.4074 -0.7798 -1.4033
  600MOL0     H82779   9.985   2.658   6.441 -0.2449 -0.1378 -1.3228
  600MOL0     H82780   9.266   2.432   6.168 -0.6596  1.6442  0.4091
  600MOL0     H82781   9.040   2.325   6.155 -1.4403 -1.5725 -1.0370
  600MOL0     H82782   8.616   2.300   5.972 -1.1973  0.3319  0.4488
  600MOL0     H82783   8.425   2.188   6.002  0.2251  1.8413 -0.7238
  600MOL0     H82784   9.125   1.632   5.174 -0.2348 -0.4871 -0.9579
  600MOL0     H82785   9.200   1.403   5.108 -1.1338  0.8646 -0.0649
  600MOL0     H82786   9.107   1.106   4.987 -1.8584 -1.0851 -1.7173
  600MOL0     H82787   8.881   1.147   4.946 -0.4387  1.1215  1.7023
  600MOL0     H82788   8.683   1.317   4.546  0.1480 -1.1512 -2.5117
  600MOL0     H82789   8.838   1.247   4.536 -1.5215  0.6122 -1.5534
  600MOL0     H82790   8.625   1.101   4.690 -2.9526 -0.2274 -1.9976
  600MOL0     H82791   8.787   1.045   4.658  2.6276  3.9811  0.9692
  600MOL0     H82792   8.666   1.126   4.389 -3.0745 -0.7262  0.0904
  600MOL0     H82793   8.775   0.996   4.427 -1.9394 -0.4470 -4.6813
  600MOL0     H82794   8.477   0.992   4.489 -0.1271  2.6211  2.3835
  600MOL0     H82795   8.604   0.867   4.527  1.4897  0.4906 -0.0414
  600MOL0     H82796   8.617   0.835   4.106  1.7556  0.9022 -1.3579
  600MOL0     H82797   8.995   1.414   4.626  4.6318  0.5497 -0.1160
  600MOL0     H82798   9.330   1.461   4.731 -1.8829 -0.1142  3.7464
  600MOL0     H82799   9.313   1.330   4.614  0.2957 -0.3594  1.3693
  600MOL0     H82800   9.219   1.470   4.591  1.9554 -1.0600 -1.5019
  601MOL0     O82801   3.100   4.583   5.142 -0.4196  0.2296 -0.3842
  601MOL0     C82802   3.010   4.600   5.057 -0.5439 -0.0212  0.6493
  601MOL0     O82803   3.039   4.633   4.919 -0.6476 -0.0662 -0.0404
  601MOL0     C82804   3.173   4.647   4.898  0.5158  0.7510  0.4788
  601MOL0     C82805   3.244   4.763   4.941 -0.3564 -0.0335 -1.2182
  601MOL0     C82806   3.376   4.788   4.908 -0.2734 -0.7403 -0.5704
  601MOL0     C82807   3.446   4.687   4.843 -0.5458 -0.2636 -0.3512
  601MOL0     O82808   3.580   4.684   4.813 -0.1373  0.5929  0.5741
  601MOL0     C82809   3.668   4.806   4.825 -0.2471 -0.0421  0.3641
  601MOL0     C82810   3.792   4.777   4.735  0.8624  0.3817 -0.1550
  601MOL0     C82811   3.880   4.902   4.720  0.0618  0.2064  0.0195
  601MOL0     C82812   3.975   4.940   4.833 -0.6549  0.0006  0.1044
  601MOL0     C82813   4.105   4.865   4.832  0.5655 -0.0431 -0.8013
  601MOL0     C82814   4.214   4.918   4.919  0.3619 -0.5157  0.8313
  601MOL0     C82815   4.351   4.850   4.894 -0.5783  0.0529  0.9004
  601MOL0     C82816   4.421   4.879   4.757  0.5145 -0.6041 -0.1595
  601MOL0     N82817   4.546   4.811   4.725  0.6625 -0.3120  0.0309
  601MOL0     C82818   4.610   4.800   4.606  0.4056 -0.2931  0.8221
  601MOL0     C82819   4.722   4.726   4.630  0.4359  0.2963 -0.1274
  601MOL0     C82820   4.826   4.678   4.532 -0.4493  0.1369 -0.8767
  601MOL0     C82821   4.966   4.756   4.530  0.1194 -0.0273  0.0210
  601MOL0     C82822   5.071   4.671   4.465 -0.2014  0.9063  0.2699
  601MOL0     C82823   5.047   4.629   4.320 -0.1036 -0.0865 -0.3800
  601MOL0     O82824   5.089   4.725   4.219 -0.3081 -0.7188  0.4110
  601MOL0     C82825   5.222   4.743   4.191 -0.8062 -0.4212 -0.7810
  601MOL0     C82826   5.258   4.838   4.092 -0.6776  0.9373  0.1191
  601MOL0     C82827   5.390   4.868   4.064  0.4899 -0.2679  0.2012
  601MOL0     C82828   5.407   4.966   3.949  0.7135  0.2377 -0.8828
  601MOL0     C82829   5.495   4.798   4.132  0.5228 -0.5710 -0.0601
  601MOL0     C82830   5.644   4.830   4.120 -0.3023  0.1396 -0.2655
  601MOL0     O82831   5.723   4.733   4.166  0.4848  0.0889 -0.4799
  601MOL0     C82832   5.860   4.721   4.152  0.2296  0.1258  0.1038
  601MOL0     C82833   5.931   4.644   4.251  0.5050  0.9985 -0.7714
  601MOL0     C82834   6.059   4.596   4.231 -0.9716 -0.1868 -0.4427
  601MOL0     C82835   6.133   4.634   4.115 -0.0157 -0.6460 -0.0913
  601MOL0     O82836   6.262   4.598   4.088 -0.4277 -0.4078  0.0051
  601MOL0     C82837   6.325   4.496   4.167  0.5227  1.4904  0.3147
  601MOL0     C82838   6.394   4.535   4.304  0.5332 -0.9783  0.5731
  601MOL0     C82839   6.471   4.412   4.357 -0.6326  0.6005  0.6434
  601MOL0     C82840   6.556   4.442   4.483  1.2135 -0.9894  0.0836
  601MOL0     C82841   6.625   4.321   4.537  1.0295  0.1288  0.2249
  601MOL0     C82842   6.723   4.344   4.651 -0.2475 -0.2603 -0.4202
  601MOL0     C82843   6.809   4.470   4.661  0.3325  0.2290  0.8436
  601MOL0     C82844   6.885   4.493   4.531 -0.0299  0.0609  0.0130
  601MOL0    Cl82845   7.023   4.590   4.604 -0.1707 -0.0169 -0.1556
  601MOL0     C82846   6.067   4.706   4.012  1.4434  0.2637 -0.2617
  601MOL0     C82847   5.930   4.749   4.033  0.5181 -0.2661  0.1839
  601MOL0     O82848   5.685   4.938   4.079 -0.0349  0.2698  0.7033
  601MOL0     C82849   5.454   4.691   4.220 -0.2481 -0.0076 -0.4807
  601MOL0     C82850   5.326   4.665   4.248  1.5365  0.1426  0.8321
  601MOL0     N82851   4.722   4.697   4.758 -0.8229  0.2985 -0.1975
  601MOL0     N82852   4.618   4.742   4.819  0.0232  0.2496  0.5177
  601MOL0     C82853   3.374   4.574   4.787  0.3680  0.5753 -0.3090
  601MOL0     C82854   3.235   4.551   4.813 -0.8068 -0.0930  0.4331
  601MOL0     C82855   2.869   4.612   5.103 -0.9795 -0.1778 -0.1280
  601MOL0     C82856   2.771   4.651   5.008 -0.1982  0.6501 -0.3005
  601MOL0     C82857   2.638   4.661   5.056 -0.0390  0.8500  0.0812
  601MOL0     C82858   2.594   4.621   5.184 -0.4609 -0.2841 -0.8313
  601MOL0     O82859   2.461   4.637   5.209 -0.2382  0.3054  0.4100
  601MOL0     C82860   2.417   4.602   5.342  0.5247  0.5744  1.0009
  601MOL0     C82861   2.282   4.659   5.365  0.1756 -0.7869 -0.1675
  601MOL0     C82862   2.233   4.651   5.517 -0.3615  0.6149  0.4268
  601MOL0     C82863   2.076   4.662   5.538  0.5378  0.3351  0.1327
  601MOL0     C82864   2.011   4.535   5.486  0.0221 -1.0740  0.0994
  601MOL0     C82865   1.959   4.433   5.450 -0.2698  0.2624  0.2509
  601MOL0     C82866   2.686   4.565   5.264  0.4658 -0.2051 -0.5459
  601MOL0     C82867   2.823   4.573   5.231  0.5167  0.5989 -0.8418
  601MOL0     C82868   2.908   4.507   5.337 -1.0666 -0.1458  0.2730
  601MOL0     H82869   3.192   4.833   5.006  1.3081 -0.5315  0.7326
  601MOL0     H82870   3.414   4.880   4.950 -4.1853  0.8581 -0.1239
  601MOL0     H82871   3.699   4.822   4.929  2.0297  3.9094 -0.7423
  601MOL0     H82872   3.610   4.891   4.789 -0.6759 -0.5660 -0.1862
  601MOL0     H82873   3.841   4.690   4.779 -0.3312 -0.7381 -1.0023
  601MOL0     H82874   3.762   4.744   4.635 -0.7743  0.6721  0.2140
  601MOL0     H82875   3.950   4.885   4.638  1.6261 -2.9783  1.7986
  601MOL0     H82876   3.805   4.981   4.710 -2.0926 -1.7579 -0.1968
  601MOL0     H82877   4.002   5.046   4.823  1.0909 -0.3021  1.2677
  601MOL0     H82878   3.927   4.931   4.931 -0.3388 -0.7761  0.1940
  601MOL0     H82879   4.144   4.853   4.731 -2.8425 -3.3035 -2.0024
  601MOL0     H82880   4.066   4.769   4.869 -1.9328  1.3826  0.6003
  601MOL0     H82881   4.229   5.025   4.902 -0.9629 -0.1458  1.8447
  601MOL0     H82882   4.190   4.892   5.023  2.9790 -1.4332  1.2720
  601MOL0     H82883   4.327   4.745   4.911 -1.7382  0.1737  0.1251
  601MOL0     H82884   4.423   4.892   4.965  0.3806  0.5710 -0.3433
  601MOL0     H82885   4.352   4.845   4.680 -1.1011  1.0058  0.5175
  601MOL0     H82886   4.448   4.985   4.748 -1.6839 -0.0568 -1.0578
  601MOL0     H82887   4.577   4.847   4.513  1.8144  0.5615  0.7109
  601MOL0     H82888   4.781   4.680   4.433 -2.8475 -1.1075  0.1152
  601MOL0     H82889   4.837   4.574   4.565  3.7440  1.2770  2.1681
  601MOL0     H82890   4.955   4.857   4.488  2.9717  0.7209  0.8165
  601MOL0     H82891   5.003   4.774   4.631  1.6862 -1.9153 -0.1394
  601MOL0     H82892   5.171   4.716   4.458  0.1370 -0.0640 -2.4195
  601MOL0     H82893   5.075   4.592   4.541 -0.8323  1.1056  0.5196
  601MOL0     H82894   5.087   4.528   4.303 -1.0592 -1.0073  2.3519
  601MOL0     H82895   4.939   4.612   4.313 -0.1132 -0.5232  0.6823
  601MOL0     H82896   5.183   4.881   4.027 -0.0054 -1.3063 -2.2868
  601MOL0     H82897   5.315   4.981   3.891 -1.5269 -5.2144  0.6663
  601MOL0     H82898   5.487   4.924   3.888  2.4593 -0.7266  1.8965
  601MOL0     H82899   5.451   5.056   3.993  0.4555 -0.0703  0.0187
  601MOL0     H82900   5.873   4.619   4.339  0.1139  0.1178 -1.2665
  601MOL0     H82901   6.092   4.538   4.317 -2.3837 -0.0484  0.2367
  601MOL0     H82902   6.254   4.414   4.185  0.5999  1.0970 -1.0098
  601MOL0     H82903   6.403   4.452   4.104  2.2358  2.3235  1.7893
  601MOL0     H82904   6.466   4.616   4.288 -0.0091 -0.1307  2.2140
  601MOL0     H82905   6.317   4.575   4.370  1.8410  3.4491 -0.2391
  601MOL0     H82906   6.547   4.376   4.288 -0.7767 -0.7575  1.1551
  601MOL0     H82907   6.410   4.322   4.372  2.3599 -1.5955  0.4357
  601MOL0     H82908   6.501   4.484   4.568  1.4727  0.6631 -0.5365
  601MOL0     H82909   6.628   4.518   4.453 -1.4699  1.2812 -0.9496
  601MOL0     H82910   6.548   4.250   4.568  1.1656  0.8451  2.4170
  601MOL0     H82911   6.673   4.275   4.451 -1.0317 -0.4743 -0.6510
  601MOL0     H82912   6.789   4.257   4.643 -0.0152 -0.2201  0.8213
  601MOL0     H82913   6.663   4.325   4.740 -1.0841  0.9916 -0.6940
  601MOL0     H82914   6.885   4.450   4.738  2.1449 -0.0158 -0.9062
  601MOL0     H82915   6.750   4.558   4.689  1.6533  1.2714  0.4704
  601MOL0     H82916   6.829   4.550   4.456  0.4605  0.3310 -0.1500
  601MOL0     H82917   6.927   4.402   4.489  0.3020  1.1645 -2.2004
  601MOL0     H82918   6.107   4.710   3.911 -1.4593  0.2381 -1.5113
  601MOL0     H82919   5.867   4.798   3.959 -0.3000 -2.0410 -0.3515
  601MOL0     H82920   5.537   4.636   4.262  0.4046  1.6206  0.4725
  601MOL0     H82921   5.306   4.578   4.309  1.1293 -1.5053 -1.5336
  601MOL0     H82922   3.433   4.505   4.728 -1.6653  0.7865 -2.7177
  601MOL0     H82923   3.181   4.465   4.775 -3.9699  0.3716  3.4349
  601MOL0     H82924   2.806   4.682   4.910 -0.6250  2.2280  0.0279
  601MOL0     H82925   2.569   4.699   4.981 -1.4672 -0.4633  0.6667
  601MOL0     H82926   2.411   4.493   5.348 -0.7115  0.6611  1.5170
  601MOL0     H82927   2.491   4.644   5.412 -0.3969  3.4859  0.3791
  601MOL0     H82928   2.210   4.612   5.299  1.7217 -0.9441 -1.8156
  601MOL0     H82929   2.280   4.761   5.325 -0.9530 -1.2921 -1.4633
  601MOL0     H82930   2.259   4.554   5.561  0.3013  0.9848  0.8579
  601MOL0     H82931   2.284   4.724   5.579 -2.2943  1.3372  1.2499
  601MOL0     H82932   2.031   4.748   5.487  1.6830  1.3959  0.8325
  601MOL0     H82933   2.053   4.664   5.645 -2.2019 -1.0949 -0.3358
  601MOL0     H82934   1.909   4.343   5.420 -2.0702  1.0249  0.7850
  601MOL0     H82935   2.657   4.519   5.358 -2.0605 -2.6985 -2.3773
  601MOL0     H82936   2.974   4.429   5.297  0.6597  1.1797  0.3942
  601MOL0     H82937   2.969   4.581   5.390 -2.4001  2.0556 -1.0932
  601MOL0     H82938   2.857   4.451   5.415 -0.1647 -2.0928 -0.4723
  602MOL0     O82939  11.177   7.347   0.355  0.1888 -0.2158  0.4968
  602MOL0     C82940  11.142   7.275   0.443 -0.2915 -0.2463  0.1744
  602MOL0     O82941  11.177   7.148   0.449 -0.2535  0.1878  0.3216
  602MOL0     C82942  11.225   7.090   0.334  0.1715  0.1126  0.6969
  602MOL0     C82943  11.367   7.088   0.311 -0.4840  0.4085 -0.6334
  602MOL0     C82944  11.411   7.037   0.193 -0.4323  0.9119 -0.4005
  602MOL0     C82945  11.318   6.976   0.099 -0.2251  0.1172  0.0012
  602MOL0     O82946  11.353   6.924  -0.025 -0.4620 -0.4808 -0.2532
  602MOL0     C82947  11.441   7.011  -0.107  0.0084 -0.4858  0.3878
  602MOL0     C82948  11.574   6.938  -0.115 -0.2059  1.5348 -0.1873
  602MOL0     C82949  11.580   6.810  -0.193  0.0628 -0.1437  0.5777
  602MOL0     C82950  11.705   6.734  -0.154  0.3963  0.1487  0.3599
  602MOL0     C82951  11.696   6.580  -0.172  0.3006 -0.8648  0.8229
  602MOL0     C82952  11.844   6.529  -0.183  0.2106 -0.0685  0.0615
  602MOL0     C82953  11.847   6.375  -0.205 -0.2353  0.4802  0.0332
  602MOL0     C82954  11.799   6.292  -0.084 -0.7702  0.0474  0.1994
  602MOL0     N82955  11.882   6.325   0.033  0.0127  0.1484 -0.9800
  602MOL0     C82956  12.005   6.260   0.078 -0.5031  0.2280  0.9945
  602MOL0     C82957  12.025   6.292   0.207  0.0542  0.1430  0.7192
  602MOL0     C82958  12.142   6.265   0.286 -0.0932 -0.4269  0.4127
  602MOL0     C82959  12.124   6.127   0.354  0.1295  0.4514  0.0436
  602MOL0     C82960  12.231   6.079   0.453 -0.3275 -1.1305  0.5235
  602MOL0     C82961  12.368   6.058   0.415 -0.3630 -0.0179  0.5095
  602MOL0     O82962  12.367   5.981   0.292  0.3035 -0.8810 -0.4278
  602MOL0     C82963  12.482   5.951   0.216  0.7263 -0.0866  0.0336
  602MOL0     C82964  12.610   5.955   0.271 -0.0537  0.0639 -0.5747
  602MOL0     C82965  12.713   5.922   0.184 -0.3890  0.1267  0.4403
  602MOL0     C82966  12.838   5.918   0.257 -0.8464  0.4120 -0.4914
  602MOL0     C82967  12.694   5.902   0.043 -0.0183  0.0118  0.9381
  602MOL0     C82968  12.799   5.879  -0.059 -0.1515 -0.5248  0.8284
  602MOL0     O82969  12.925   5.924  -0.029  0.5812  0.7261 -0.3424
  602MOL0     C82970  13.013   5.925  -0.133  0.1614 -1.0012  0.1314
  602MOL0     C82971  13.129   5.856  -0.116  0.9993  1.4645 -0.2264
  602MOL0     C82972  13.223   5.851  -0.210 -0.1377 -0.7525 -0.4985
  602MOL0     C82973  13.219   5.933  -0.321 -0.0063 -0.0586  0.2778
  602MOL0     O82974  13.320   5.942  -0.409 -0.4629 -0.9574 -0.1068
  602MOL0     C82975  13.456   5.927  -0.364 -0.5514  0.3667  0.9047
  602MOL0     C82976  13.553   5.996  -0.457 -0.2008 -1.3603  0.1897
  602MOL0     C82977  13.639   6.103  -0.386 -0.5893  0.3305 -0.0912
  602MOL0     C82978  13.759   6.042  -0.299  0.3232 -0.2534  0.0651
  602MOL0     C82979  13.844   6.157  -0.238 -0.0554 -0.1490 -0.3774
  602MOL0     C82980  13.925   6.102  -0.130  0.1334  0.5723 -0.2915
  602MOL0     C82981  14.059   6.052  -0.176  0.1739 -0.5004  0.4140
  602MOL0     C82982  14.156   6.065  -0.067 -0.8017  0.2705  0.0849
  602MOL0    Cl82983  14.117   5.947   0.064 -0.3122  0.2309  0.3119
  602MOL0     C82984  13.100   6.003  -0.346  0.9145  1.4355 -0.8577
  602MOL0     C82985  13.001   6.004  -0.247  0.1209  0.5241 -0.8446
  602MOL0     O82986  12.770   5.813  -0.159 -0.3950  0.2837  0.3462
  602MOL0     C82987  12.558   5.893  -0.006 -0.1848  0.2056  0.0147
  602MOL0     C82988  12.454   5.918   0.083  0.0092  0.1265  0.4490
  602MOL0     N82989  11.919   6.371   0.244 -0.3268  0.4757  0.6451
  602MOL0     N82990  11.849   6.391   0.147 -0.2934  0.0903  0.5587
  602MOL0     C82991  11.179   6.976   0.125  0.1922  0.2203  0.1582
  602MOL0     C82992  11.130   7.034   0.239 -0.3928 -0.1248 -0.0873
  602MOL0     C82993  11.071   7.322   0.558  0.1672 -0.0450  0.8289
  602MOL0     C82994  10.958   7.254   0.597 -0.0431 -0.7706 -0.9683
  602MOL0     C82995  10.889   7.301   0.698  0.1261  0.2371  0.6641
  602MOL0     C82996  10.914   7.423   0.760 -0.8465 -1.3112  1.2768
  602MOL0     O82997  10.843   7.451   0.880 -0.5443 -0.5357  1.1104
  602MOL0     C82998  10.893   7.543   0.971 -0.0997 -0.2338  0.6563
  602MOL0     C82999  10.828   7.537   1.112 -0.4990  0.0163  0.8595
  602MOL0     C83000  10.882   7.642   1.212  0.1217 -0.0536 -0.0340
  602MOL0     C83001  10.784   7.666   1.327  0.3650  0.6931  0.5389
  602MOL0     C83002  10.845   7.768   1.414  0.2308 -0.4656 -0.0687
  602MOL0     C83003  10.886   7.855   1.487  0.0859  0.0545 -0.4147
  602MOL0     C83004  11.029   7.495   0.718  0.0226  0.6559  0.3467
  602MOL0     C83005  11.094   7.448   0.608 -0.0715 -0.0849  0.0914
  602MOL0     C83006  11.217   7.528   0.573  0.2950  0.5338  0.1310
  602MOL0     H83007  11.439   7.139   0.374 -0.3335  2.9300 -2.6537
  602MOL0     H83008  11.519   7.035   0.179 -0.3929 -0.9807 -0.1273
  602MOL0     H83009  11.443   7.115  -0.072  0.0035 -1.1945  2.6057
  602MOL0     H83010  11.392   7.022  -0.204 -1.9953  2.1625  1.5754
  602MOL0     H83011  11.642   7.003  -0.172 -0.8729  2.1389 -0.3074
  602MOL0     H83012  11.613   6.924  -0.014 -0.4198 -2.5875 -0.5182
  602MOL0     H83013  11.497   6.745  -0.166  0.7914 -1.2677  0.1955
  602MOL0     H83014  11.579   6.830  -0.301  1.1070  1.4033  0.8163
  602MOL0     H83015  11.785   6.767  -0.221  0.1114 -0.4564 -0.2948
  602MOL0     H83016  11.746   6.748  -0.054  1.0015  2.0739 -0.1170
  602MOL0     H83017  11.637   6.558  -0.261 -1.2611  2.8794  0.7675
  602MOL0     H83018  11.641   6.541  -0.085  0.9532 -0.2878  1.5082
  602MOL0     H83019  11.898   6.574  -0.267 -3.2638 -0.2517 -2.4487
  602MOL0     H83020  11.897   6.560  -0.092  0.0541 -0.6022  0.3335
  602MOL0     H83021  11.953   6.354  -0.222  0.7819  1.9907  3.5602
  602MOL0     H83022  11.776   6.369  -0.288 -0.4205  0.5123  0.1910
  602MOL0     H83023  11.693   6.317  -0.071 -0.4151  0.6461  2.2362
  602MOL0     H83024  11.815   6.189  -0.116  2.1776  0.9051 -1.4557
  602MOL0     H83025  12.073   6.199   0.020 -1.2200 -0.7021  1.1049
  602MOL0     H83026  12.151   6.340   0.365  1.9461 -0.7055  0.5087
  602MOL0     H83027  12.234   6.267   0.227  0.4860 -1.6839  1.2219
  602MOL0     H83028  12.024   6.119   0.396 -0.0204  0.4492 -0.3102
  602MOL0     H83029  12.126   6.052   0.274 -0.9222  1.2065 -0.7138
  602MOL0     H83030  12.228   6.148   0.539 -0.2873  0.9970 -1.0976
  602MOL0     H83031  12.195   5.982   0.489  0.1715 -1.3324  0.4775
  602MOL0     H83032  12.417   6.152   0.388 -1.6646  0.3018 -0.8525
  602MOL0     H83033  12.414   6.007   0.501  1.2477 -0.7145 -0.7062
  602MOL0     H83034  12.634   5.969   0.376 -0.5755  0.3054 -0.4832
  602MOL0     H83035  12.838   5.867   0.354 -1.2284  1.8510  0.2914
  602MOL0     H83036  12.890   6.014   0.263 -1.3930  0.6611  0.4477
  602MOL0     H83037  12.908   5.851   0.206 -1.5205 -0.6356 -0.0880
  602MOL0     H83038  13.147   5.785  -0.036  0.3098 -0.2539 -1.5518
  602MOL0     H83039  13.298   5.774  -0.196 -1.1996 -1.5161  1.6085
  602MOL0     H83040  13.479   5.961  -0.263  2.0702 -2.0358  1.2503
  602MOL0     H83041  13.485   5.822  -0.360  2.4259  1.1065  1.9194
  602MOL0     H83042  13.620   5.920  -0.497  1.5929 -0.0147  0.5126
  602MOL0     H83043  13.502   6.038  -0.544  1.2248  0.1129  0.0192
  602MOL0     H83044  13.574   6.171  -0.329 -2.3472 -1.9072  0.6920
  602MOL0     H83045  13.682   6.165  -0.465  3.5592 -0.4391  1.3215
  602MOL0     H83046  13.825   5.981  -0.361  1.9683  0.2276  1.2598
  602MOL0     H83047  13.708   5.981  -0.223 -1.8778  1.6352  0.2013
  602MOL0     H83048  13.905   6.205  -0.315 -0.0125 -2.9338 -2.2249
  602MOL0     H83049  13.779   6.229  -0.188 -1.7051  0.2490 -2.8941
  602MOL0     H83050  13.875   6.018  -0.080 -1.3743 -0.5659 -3.4370
  602MOL0     H83051  13.938   6.189  -0.064 -2.0436  0.0590  0.9200
  602MOL0     H83052  14.085   6.105  -0.269 -1.9169  0.9439  0.5692
  602MOL0     H83053  14.058   5.950  -0.215  0.2457 -0.0214 -0.8907
  602MOL0     H83054  14.160   6.168  -0.033 -2.4063 -0.0689  1.4405
  602MOL0     H83055  14.246   6.025  -0.114 -0.9048 -2.8914  2.2381
  602MOL0     H83056  13.092   6.068  -0.432  0.1210  0.0696 -1.8506
  602MOL0     H83057  12.909   6.063  -0.252  0.7558  2.6635  5.0741
  602MOL0     H83058  12.539   5.866  -0.109  1.7404 -1.6695  0.0929
  602MOL0     H83059  12.352   5.904   0.050 -0.9032 -0.5888  3.2526
  602MOL0     H83060  11.108   6.921   0.063 -1.0329  0.9428  0.8869
  602MOL0     H83061  11.023   7.028   0.253 -0.3267 -0.3487  0.3358
  602MOL0     H83062  10.914   7.161   0.561 -2.6812 -0.8890  2.0897
  602MOL0     H83063  10.805   7.252   0.746 -1.5349  2.5515  0.2446
  602MOL0     H83064  11.002   7.535   0.973 -0.0579 -0.4880 -0.9832
  602MOL0     H83065  10.866   7.640   0.930  3.1888  0.3248 -0.4736
  602MOL0     H83066  10.857   7.435   1.140  2.0023 -0.8126 -3.7598
  602MOL0     H83067  10.718   7.536   1.111 -0.6013  1.2367  3.4412
  602MOL0     H83068  10.972   7.591   1.247  2.6971  1.1579 -4.1081
  602MOL0     H83069  10.910   7.734   1.159  2.3726 -1.1639 -0.9085
  602MOL0     H83070  10.759   7.577   1.386 -0.5439  1.5948  1.5713
  602MOL0     H83071  10.693   7.703   1.279  0.1887 -2.0102 -1.4502
  602MOL0     H83072  10.933   7.925   1.554  2.8775 -2.7036  0.7414
  602MOL0     H83073  11.066   7.589   0.758  0.7568 -0.0086  1.2878
  602MOL0     H83074  11.204   7.581   0.478 -0.2506  0.3350  0.0874
  602MOL0     H83075  11.256   7.604   0.641 -1.3982  0.8100  0.8422
  602MOL0     H83076  11.298   7.455   0.563  1.5238  1.7581  0.8266
  603MOL0     O83077   1.186   8.596   6.202  0.2060  0.5200 -0.0752
  603MOL0     C83078   1.202   8.514   6.296 -0.2509  0.1307  0.5766
  603MOL0     O83079   1.296   8.522   6.385 -0.2922  0.0027 -0.7741
  603MOL0     C83080   1.414   8.591   6.380  0.1524  0.3235 -0.5194
  603MOL0     C83081   1.482   8.643   6.264 -0.5342  0.3080  0.0695
  603MOL0     C83082   1.609   8.702   6.281  0.6566 -0.2239 -1.2197
  603MOL0     C83083   1.669   8.715   6.410 -0.2205  0.0681 -0.2363
  603MOL0     O83084   1.792   8.770   6.432  0.1389 -0.7024 -0.0466
  603MOL0     C83085   1.831   8.868   6.335 -0.5350 -0.2578 -0.4909
  603MOL0     C83086   1.960   8.935   6.379 -0.0783 -1.0899  0.0612
  603MOL0     C83087   1.969   8.966   6.532 -0.6060  0.1185  0.4058
  603MOL0     C83088   2.069   9.082   6.552  0.5408 -0.1674  0.8481
  603MOL0     C83089   2.217   9.046   6.517 -0.0251 -0.0610  0.1329
  603MOL0     C83090   2.283   8.958   6.622  0.0383  0.3593  0.2919
  603MOL0     C83091   2.432   8.951   6.601  0.4956  0.0056 -0.3835
  603MOL0     C83092   2.510   9.077   6.655 -0.3444  0.8649  0.3860
  603MOL0     N83093   2.558   9.042   6.790  0.3328 -0.6243 -0.1053
  603MOL0     C83094   2.491   9.088   6.905  0.5804  0.5338 -0.1497
  603MOL0     C83095   2.556   9.014   7.002  0.0575 -0.9147 -0.7701
  603MOL0     C83096   2.524   9.029   7.148 -0.2567  0.1821  0.1021
  603MOL0     C83097   2.615   9.131   7.226 -0.1240 -0.2367 -0.3227
  603MOL0     C83098   2.545   9.138   7.372  0.9186 -0.1527 -0.8002
  603MOL0     C83099   2.562   9.007   7.457  0.9456 -0.4007 -0.6324
  603MOL0     O83100   2.701   8.984   7.451 -0.6447  0.2033  0.3426
  603MOL0     C83101   2.730   8.845   7.430  0.7110 -0.4765 -0.7716
  603MOL0     C83102   2.811   8.808   7.322 -0.9042  0.5454  0.3690
  603MOL0     C83103   2.844   8.673   7.310 -1.3365 -0.0036  0.8067
  603MOL0     C83104   2.910   8.630   7.182  0.6535 -0.8797 -0.1150
  603MOL0     C83105   2.810   8.579   7.412 -0.0265  0.4046  0.2797
  603MOL0     C83106   2.847   8.435   7.403 -0.5511 -0.4036 -0.3408
  603MOL0     O83107   2.881   8.369   7.522  0.0714 -0.0980 -0.0600
  603MOL0     C83108   2.932   8.235   7.523  0.1603  0.0366  1.2486
  603MOL0     C83109   2.875   8.147   7.609 -0.0564 -0.3867 -0.7643
  603MOL0     C83110   2.892   8.014   7.590 -0.4022 -0.6740  0.5237
  603MOL0     C83111   2.965   7.969   7.475 -0.3730  0.1187  0.4279
  603MOL0     O83112   2.978   7.839   7.435  0.1461 -0.0260 -0.1047
  603MOL0     C83113   2.944   7.723   7.518 -0.6001  0.0813  0.5218
  603MOL0     C83114   3.069   7.681   7.588 -0.3538 -0.2297 -0.4137
  603MOL0     C83115   3.055   7.706   7.740  0.1903  0.5489 -0.4599
  603MOL0     C83116   2.965   7.596   7.798 -0.4685  0.2129  0.0557
  603MOL0     C83117   2.980   7.599   7.952  0.1256 -0.0440  0.5376
  603MOL0     C83118   3.103   7.517   8.000  0.3836 -0.3366  0.0195
  603MOL0     C83119   3.074   7.372   8.017 -0.3008  0.6518 -0.4147
  603MOL0     C83120   3.192   7.294   8.091  0.0674 -0.3759  0.1278
  603MOL0    Cl83121   3.344   7.329   7.995 -0.2158  0.1713 -0.4765
  603MOL0     C83122   3.032   8.061   7.402 -0.5479  0.0182  0.3257
  603MOL0     C83123   3.024   8.190   7.425 -0.0254 -0.2078 -0.4208
  603MOL0     O83124   2.815   8.372   7.300 -0.4530 -0.3003  0.3613
  603MOL0     C83125   2.734   8.619   7.521  1.0136  0.0100  0.3148
  603MOL0     C83126   2.692   8.750   7.537  0.3613 -0.4708  0.6096
  603MOL0     N83127   2.648   8.923   6.947 -0.4299 -0.4812 -0.1223
  603MOL0     N83128   2.642   8.938   6.819 -0.0084  0.3188  0.1901
  603MOL0     C83129   1.604   8.660   6.519  0.4716  0.2405  0.1726
  603MOL0     C83130   1.474   8.607   6.513  1.0320  0.1517 -0.1785
  603MOL0     C83131   1.086   8.430   6.325  0.0196  0.2726 -0.5268
  603MOL0     C83132   1.021   8.375   6.217  0.3150 -0.7951  1.5455
  603MOL0     C83133   0.895   8.328   6.223  0.8386 -0.3100 -0.0482
  603MOL0     C83134   0.820   8.308   6.350 -0.2952 -0.3003 -0.1384
  603MOL0     O83135   0.690   8.261   6.367 -0.1953 -0.1192 -0.5157
  603MOL0     C83136   0.636   8.176   6.269 -0.3149 -0.0821 -0.1989
  603MOL0     C83137   0.482   8.181   6.258  0.0996 -0.2997  0.9915
  603MOL0     C83138   0.413   8.143   6.388 -0.5094 -0.0649  0.4881
  603MOL0     C83139   0.375   7.997   6.385  0.1008  0.1519  0.3790
  603MOL0     C83140   0.275   7.961   6.281 -0.1654  0.1998  0.2908
  603MOL0     C83141   0.181   7.952   6.203 -0.0911 -0.3459 -0.1000
  603MOL0     C83142   0.887   8.358   6.461  0.9931  0.8860 -0.2339
  603MOL0     C83143   1.013   8.422   6.448  0.3781  0.0814 -0.6221
  603MOL0     C83144   1.061   8.490   6.573 -0.5649  0.1975 -0.0990
  603MOL0     H83145   1.448   8.648   6.161 -2.1055  1.2887  0.5932
  603MOL0     H83146   1.641   8.758   6.194 -1.5480  1.4655 -1.0380
  603MOL0     H83147   1.761   8.952   6.330  1.1281  1.2137  0.0727
  603MOL0     H83148   1.835   8.817   6.238  2.4922 -0.5821 -0.2743
  603MOL0     H83149   2.041   8.870   6.345 -1.5093 -2.9170  0.0058
  603MOL0     H83150   1.972   9.032   6.331 -0.9917  1.7227  4.7970
  603MOL0     H83151   1.871   8.990   6.576 -0.5476 -1.4033  1.4481
  603MOL0     H83152   2.004   8.873   6.578 -0.4547  0.7851  1.6963
  603MOL0     H83153   2.035   9.165   6.489 -0.8762 -3.0510 -2.5345
  603MOL0     H83154   2.057   9.106   6.658 -3.3685 -3.0603  1.2936
  603MOL0     H83155   2.277   9.136   6.502 -1.4108  0.4371 -3.8421
  603MOL0     H83156   2.218   8.987   6.424  0.3661  0.0605  0.0589
  603MOL0     H83157   2.268   9.008   6.718 -0.3623  3.1184 -1.0829
  603MOL0     H83158   2.237   8.859   6.618 -0.3746  0.5865 -1.5998
  603MOL0     H83159   2.446   8.931   6.494 -0.6194  1.4717 -0.8457
  603MOL0     H83160   2.463   8.862   6.657 -0.5334  0.0614  0.3073
  603MOL0     H83161   2.597   9.101   6.593  0.6125 -0.5506  1.1133
  603MOL0     H83162   2.455   9.171   6.658  2.3183  2.6500 -1.4857
  603MOL0     H83163   2.419   9.170   6.909  0.1069  0.1150 -0.0383
  603MOL0     H83164   2.526   8.928   7.189 -2.6078 -0.3673 -0.9352
  603MOL0     H83165   2.419   9.062   7.148  0.4883  2.7605  0.0806
  603MOL0     H83166   2.716   9.092   7.237 -0.2147 -1.0508 -2.1393
  603MOL0     H83167   2.618   9.229   7.177 -1.7754 -0.5909 -1.1984
  603MOL0     H83168   2.599   9.213   7.431 -0.4256  1.1886 -1.2467
  603MOL0     H83169   2.441   9.172   7.368  1.4099  1.5778  0.0796
  603MOL0     H83170   2.518   9.026   7.555 -4.1717  0.0659 -2.7114
  603MOL0     H83171   2.503   8.921   7.423 -0.5037  0.6856 -0.9672
  603MOL0     H83172   2.847   8.874   7.243 -2.6172 -1.1928 -2.0233
  603MOL0     H83173   2.845   8.572   7.116  0.8384  1.4329 -2.4642
  603MOL0     H83174   2.995   8.569   7.213  0.5539 -0.4768  1.0145
  603MOL0     H83175   2.949   8.717   7.128 -0.8268 -0.6046 -0.7914
  603MOL0     H83176   2.818   8.182   7.694  1.6481  1.8364 -0.4438
  603MOL0     H83177   2.858   7.944   7.666 -1.0492 -0.1023  0.7629
  603MOL0     H83178   2.859   7.745   7.582 -0.7819  2.2605 -0.3631
  603MOL0     H83179   2.909   7.639   7.456 -2.1173  0.2046  1.1695
  603MOL0     H83180   3.087   7.574   7.573 -1.4830 -0.8484  2.1243
  603MOL0     H83181   3.156   7.740   7.557 -1.1334  1.1624 -0.0419
  603MOL0     H83182   3.004   7.798   7.768 -2.9066 -0.8792 -0.8485
  603MOL0     H83183   3.157   7.693   7.778  1.9822  1.7583 -4.3555
  603MOL0     H83184   2.991   7.495   7.767  0.1697 -0.9373  3.8283
  603MOL0     H83185   2.860   7.609   7.773  0.1601 -0.0432 -3.1484
  603MOL0     H83186   3.000   7.703   7.982  0.4751  0.3242 -0.8866
  603MOL0     H83187   2.886   7.568   7.997 -0.4384  1.9900  0.8768
  603MOL0     H83188   3.125   7.565   8.095 -0.2007  3.3090 -1.5132
  603MOL0     H83189   3.191   7.529   7.937  0.8210 -0.0719  0.6758
  603MOL0     H83190   3.038   7.315   7.931 -1.6264  0.6575  0.0952
  603MOL0     H83191   2.988   7.352   8.082  2.7289 -2.2733  3.0782
  603MOL0     H83192   3.161   7.189   8.089 -0.9358 -0.0789 -1.1741
  603MOL0     H83193   3.194   7.327   8.195  1.0103  1.6559 -0.4695
  603MOL0     H83194   3.101   8.034   7.324  1.9520  1.6870  1.8304
  603MOL0     H83195   3.066   8.275   7.373 -0.3561  1.0443  1.2877
  603MOL0     H83196   2.707   8.546   7.596  0.9694 -2.1596 -1.6694
  603MOL0     H83197   2.644   8.780   7.630 -1.2143 -1.9548  0.3300
  603MOL0     H83198   1.657   8.668   6.614  1.3804  1.3348 -0.4009
  603MOL0     H83199   1.406   8.581   6.594 -0.7718 -0.1296 -1.7114
  603MOL0     H83200   1.072   8.376   6.121 -1.6195 -1.4945  0.4380
  603MOL0     H83201   0.856   8.293   6.128 -1.9051 -4.8974  2.4167
  603MOL0     H83202   0.679   8.200   6.172  0.4915 -0.5779  0.0255
  603MOL0     H83203   0.673   8.076   6.293 -1.5735 -0.4082  0.4677
  603MOL0     H83204   0.452   8.118   6.174 -2.9781  1.5098  0.6105
  603MOL0     H83205   0.454   8.282   6.226 -0.8723 -1.4395 -2.1755
  603MOL0     H83206   0.474   8.173   6.474 -1.1338  1.9131  0.3067
  603MOL0     H83207   0.325   8.208   6.387 -1.1831 -0.9019  1.9240
  603MOL0     H83208   0.331   7.966   6.480 -0.7359 -0.6290 -0.2415
  603MOL0     H83209   0.457   7.927   6.368 -1.7700 -1.6609 -1.9353
  603MOL0     H83210   0.092   7.928   6.148 -0.9955 -1.8406  1.8813
  603MOL0     H83211   0.843   8.354   6.560  2.1211 -1.4197  0.2295
  603MOL0     H83212   1.047   8.599   6.564  0.6607  0.5028  1.3276
  603MOL0     H83213   1.005   8.447   6.657 -1.1826 -1.5621 -1.3640
  603MOL0     H83214   1.164   8.455   6.583 -0.6193 -0.5167 -1.7925
  604MOL0     O83215   9.512   2.614   8.300  0.1854  0.4324  0.0675
  604MOL0     C83216   9.449   2.670   8.395  0.2506  0.5753 -0.3729
  604MOL0     O83217   9.503   2.710   8.511 -0.5873  0.3072  0.3040
  604MOL0     C83218   9.624   2.648   8.546  1.0436  0.2152  0.2781
  604MOL0     C83219   9.613   2.513   8.586  0.5517  0.4424  0.8777
  604MOL0     C83220   9.723   2.434   8.622 -0.0364  0.0427 -0.8672
  604MOL0     C83221   9.843   2.502   8.632  0.0005  0.2280 -0.2880
  604MOL0     O83222   9.962   2.444   8.673 -0.2400 -0.5196  0.8928
  604MOL0     C83223   9.962   2.309   8.713  0.3025 -0.0438 -0.3021
  604MOL0     C83224  10.110   2.265   8.744 -1.0456  0.8188 -0.1643
  604MOL0     C83225  10.195   2.381   8.796 -0.3362  0.3427  0.2774
  604MOL0     C83226  10.285   2.428   8.674  0.8213 -0.4097  0.5926
  604MOL0     C83227  10.398   2.512   8.730  0.1983 -0.6240 -0.4205
  604MOL0     C83228  10.486   2.590   8.633  1.2327  1.0877  0.1269
  604MOL0     C83229  10.635   2.572   8.666 -0.9584  0.2631  0.0541
  604MOL0     C83230  10.752   2.602   8.552 -0.5924 -0.2338  0.2785
  604MOL0     N83231  10.731   2.731   8.490  0.0002 -0.1738  0.1356
  604MOL0     C83232  10.724   2.852   8.553 -0.4006 -0.3934  0.4428
  604MOL0     C83233  10.718   2.949   8.458  0.5243 -0.2341  0.8209
  604MOL0     C83234  10.727   3.099   8.487 -0.2486 -0.9087 -0.3351
  604MOL0     C83235  10.581   3.137   8.529 -0.2634 -0.3870  0.5460
  604MOL0     C83236  10.564   3.291   8.556 -0.6692  0.7704  0.5264
  604MOL0     C83237  10.418   3.344   8.533  0.7743 -0.0098  0.1905
  604MOL0     O83238  10.350   3.318   8.660  0.3971  0.4110 -0.3558
  604MOL0     C83239  10.222   3.362   8.678 -0.3385  1.1382  0.7665
  604MOL0     C83240  10.140   3.430   8.589  0.8269 -0.3713 -0.0625
  604MOL0     C83241  10.009   3.461   8.630  1.2119 -1.1320  0.5338
  604MOL0     C83242   9.920   3.521   8.516  1.0900 -0.4503  0.5364
  604MOL0     C83243   9.962   3.435   8.756 -0.2816  0.0638 -0.5116
  604MOL0     C83244   9.832   3.464   8.812 -0.5635 -0.2166  0.3596
  604MOL0     O83245   9.821   3.514   8.939 -0.0601  0.1347  0.5326
  604MOL0     C83246   9.691   3.524   8.983  0.4431 -0.3590 -0.0951
  604MOL0     C83247   9.619   3.646   8.999  0.4640 -0.2490  0.7350
  604MOL0     C83248   9.489   3.643   9.053  0.7596  0.2500  0.0118
  604MOL0     C83249   9.436   3.520   9.095  0.0762 -0.6862 -0.3586
  604MOL0     O83250   9.319   3.524   9.161  0.2864  0.1462 -0.1083
  604MOL0     C83251   9.207   3.501   9.080  1.0434 -0.2874 -0.1381
  604MOL0     C83252   9.093   3.473   9.187 -0.4326  1.4369 -0.5132
  604MOL0     C83253   8.947   3.497   9.144 -0.0414 -0.8442  0.6281
  604MOL0     C83254   8.855   3.482   9.266  0.2193 -0.4324 -0.1263
  604MOL0     C83255   8.722   3.562   9.254  0.4912  0.0458  0.1922
  604MOL0     C83256   8.646   3.529   9.127  0.5337  0.3811  0.0681
  604MOL0     C83257   8.499   3.582   9.128  0.0855  0.2280  0.9011
  604MOL0     C83258   8.406   3.531   9.003  0.0162 -0.3798 -0.9223
  604MOL0    Cl83259   8.477   3.592   8.854  0.0580 -0.1819 -0.0095
  604MOL0     C83260   9.509   3.405   9.082 -0.5810  0.5611  0.9087
  604MOL0     C83261   9.636   3.406   9.026  0.1376  0.8301 -0.0880
  604MOL0     O83262   9.739   3.432   8.740 -0.4042  0.0576 -0.3987
  604MOL0     C83263  10.054   3.372   8.840 -0.0642 -0.1024 -0.2538
  604MOL0     C83264  10.183   3.339   8.805 -1.2185 -0.5353  0.7262
  604MOL0     N83265  10.727   2.887   8.333  0.0068 -0.3982 -0.3929
  604MOL0     N83266  10.742   2.760   8.354  0.1702  0.3460  0.0828
  604MOL0     C83267   9.855   2.634   8.597  0.8140 -0.6007  0.1908
  604MOL0     C83268   9.746   2.713   8.556  0.3755  0.9633  0.2566
  604MOL0     C83269   9.309   2.707   8.371  0.4710  0.9148  0.7354
  604MOL0     C83270   9.209   2.664   8.457 -0.3163 -0.0867 -0.4891
  604MOL0     C83271   9.075   2.695   8.443 -0.0071  0.2047  0.2153
  604MOL0     C83272   9.033   2.773   8.331  0.7574 -0.2502  0.0443
  604MOL0     O83273   8.898   2.792   8.324  0.5789  0.3865 -0.1183
  604MOL0     C83274   8.848   2.900   8.242  0.1122  0.5065  0.1480
  604MOL0     C83275   8.890   3.046   8.284 -0.5861  1.2148  0.0079
  604MOL0     C83276   8.775   3.133   8.295  0.0696 -0.6342  0.2920
  604MOL0     C83277   8.743   3.225   8.175 -0.2355  0.2144 -0.9666
  604MOL0     C83278   8.714   3.159   8.049  0.2712 -0.5938 -0.4848
  604MOL0     C83279   8.681   3.104   7.948 -0.4776  0.4308 -0.2522
  604MOL0     C83280   9.138   2.825   8.245 -0.4884 -0.3530 -0.1801
  604MOL0     C83281   9.279   2.796   8.267 -0.3161  0.2020  0.6554
  604MOL0     C83282   9.389   2.851   8.178  0.1095 -0.4344 -0.9006
  604MOL0     H83283   9.513   2.473   8.575  0.8492  0.0449 -0.6749
  604MOL0     H83284   9.706   2.336   8.667 -3.4038  0.8352 -0.1835
  604MOL0     H83285   9.908   2.241   8.648 -3.1852  0.7402  1.5387
  604MOL0     H83286   9.901   2.301   8.804  0.1361 -2.0532 -0.5426
  604MOL0     H83287  10.113   2.170   8.798  2.0867  0.1369 -1.3055
  604MOL0     H83288  10.160   2.225   8.656  1.2753  0.1979  1.3338
  604MOL0     H83289  10.138   2.459   8.847  0.5354 -1.2579  4.0900
  604MOL0     H83290  10.268   2.352   8.873 -1.3004 -0.0815  1.0507
  604MOL0     H83291  10.328   2.341   8.624  1.3787  0.3350 -0.2783
  604MOL0     H83292  10.227   2.475   8.594 -0.2298 -1.0495  0.9680
  604MOL0     H83293  10.456   2.438   8.785 -1.7672 -3.3999 -1.8515
  604MOL0     H83294  10.358   2.591   8.795  0.6023  0.2642 -1.2136
  604MOL0     H83295  10.472   2.540   8.537  1.5815  2.6704 -0.7987
  604MOL0     H83296  10.451   2.694   8.631  0.2016  0.8113  2.0499
  604MOL0     H83297  10.648   2.465   8.687  2.3729  0.6248  0.3610
  604MOL0     H83298  10.654   2.631   8.756 -0.6104  0.6577 -0.2725
  604MOL0     H83299  10.843   2.596   8.613 -1.4031 -0.8325  1.4707
  604MOL0     H83300  10.757   2.528   8.471 -4.3001  2.3988 -2.6898
  604MOL0     H83301  10.727   2.879   8.658 -4.1886  0.9748  0.3428
  604MOL0     H83302  10.759   3.164   8.406 -2.9476  1.2039  0.1570
  604MOL0     H83303  10.798   3.105   8.570 -0.3495  2.2781 -0.3770
  604MOL0     H83304  10.511   3.108   8.450  1.7196  1.0587 -1.8972
  604MOL0     H83305  10.545   3.085   8.618 -1.8420  2.6728  1.8469
  604MOL0     H83306  10.615   3.312   8.650  2.5362 -3.8141  0.1200
  604MOL0     H83307  10.622   3.350   8.485  1.3634  1.2590  2.4990
  604MOL0     H83308  10.415   3.450   8.504  1.6870  0.3043  1.1556
  604MOL0     H83309  10.373   3.283   8.454  4.1324  1.6263 -3.3693
  604MOL0     H83310  10.164   3.462   8.488 -0.6895  0.2221 -0.2675
  604MOL0     H83311   9.971   3.605   8.468 -0.9937  0.8983  0.5372
  604MOL0     H83312   9.822   3.556   8.551  0.7925 -0.5888 -0.1284
  604MOL0     H83313   9.919   3.449   8.433  3.2171 -2.4016  2.0722
  604MOL0     H83314   9.657   3.741   8.964  0.9797 -1.1198 -1.1751
  604MOL0     H83315   9.432   3.732   9.078 -3.1712 -1.2992 -2.4932
  604MOL0     H83316   9.178   3.589   9.022  2.4704  0.0640 -0.3443
  604MOL0     H83317   9.232   3.413   9.020  2.9859  0.6777 -0.8305
  604MOL0     H83318   9.117   3.375   9.229  2.8354  2.1623 -0.4151
  604MOL0     H83319   9.107   3.546   9.266 -2.3040 -0.3947  1.6357
  604MOL0     H83320   8.917   3.427   9.066 -2.3081  0.4232  0.2599
  604MOL0     H83321   8.931   3.597   9.101 -2.0515 -1.5328 -0.3203
  604MOL0     H83322   8.899   3.525   9.357 -1.8628  0.2628  0.6052
  604MOL0     H83323   8.849   3.374   9.284  0.6189 -0.6602 -1.2344
  604MOL0     H83324   8.658   3.526   9.335 -0.0022 -3.8512 -1.7130
  604MOL0     H83325   8.737   3.671   9.255 -2.0833  0.5024 -1.5432
  604MOL0     H83326   8.648   3.421   9.110 -0.9832  0.5521 -1.3560
  604MOL0     H83327   8.696   3.569   9.039 -0.0413 -0.8838 -0.8645
  604MOL0     H83328   8.505   3.690   9.136 -0.2545  0.1717  2.2134
  604MOL0     H83329   8.444   3.546   9.216 -0.7344  1.3811  0.8876
  604MOL0     H83330   8.304   3.571   9.012 -0.3203 -1.1716 -1.1740
  604MOL0     H83331   8.406   3.422   8.993 -1.9656 -0.6647  1.3893
  604MOL0     H83332   9.476   3.303   9.101  3.0511 -0.7817  0.9498
  604MOL0     H83333   9.687   3.311   9.011 -0.0279  0.6083  0.6802
  604MOL0     H83334  10.036   3.358   8.946  1.7404  3.4919  0.6515
  604MOL0     H83335  10.253   3.284   8.868  0.4491 -2.5438 -2.5990
  604MOL0     H83336   9.954   2.676   8.587  2.7740 -4.6941  0.3132
  604MOL0     H83337   9.771   2.817   8.535  0.6735  2.0506  4.8000
  604MOL0     H83338   9.227   2.618   8.553  0.2366  1.5220  0.2088
  604MOL0     H83339   9.016   2.652   8.523 -1.9064 -0.3830 -1.4185
  604MOL0     H83340   8.892   2.884   8.144  0.0226  0.5216  0.1054
  604MOL0     H83341   8.739   2.888   8.246  0.2759 -1.2827 -0.2984
  604MOL0     H83342   8.958   3.090   8.210 -0.5729  0.9908 -0.1133
  604MOL0     H83343   8.937   3.052   8.382 -1.7264  2.1254  0.5332
  604MOL0     H83344   8.691   3.067   8.316 -0.6454  0.8426  2.4124
  604MOL0     H83345   8.778   3.198   8.383  1.4329  1.2124 -1.0476
  604MOL0     H83346   8.815   3.300   8.139 -0.2705  0.6830 -0.0978
  604MOL0     H83347   8.660   3.286   8.210  0.5358  1.1389 -0.6999
  604MOL0     H83348   8.649   3.038   7.870 -1.1729 -0.1469  0.5203
  604MOL0     H83349   9.116   2.883   8.156 -1.1713 -1.1300 -0.5270
  604MOL0     H83350   9.445   2.775   8.123  0.3169 -1.2828  0.4307
  604MOL0     H83351   9.352   2.915   8.098  3.1335  2.8882  0.0871
  604MOL0     H83352   9.457   2.912   8.239 -2.7390  0.7063  1.3560
  605MOL0     O83353   8.484   0.337   8.182 -0.5310 -0.4853  0.1393
  605MOL0     C83354   8.531   0.243   8.119 -0.1657 -0.0102 -0.5460
  605MOL0     O83355   8.456   0.131   8.077 -0.4555 -0.0093 -0.1196
  605MOL0     C83356   8.323   0.161   8.058  0.1386 -0.1871  0.7315
  605MOL0     C83357   8.241   0.133   8.165  0.2929  0.2892 -0.5823
  605MOL0     C83358   8.104   0.129   8.150  0.8595 -0.3909 -0.6864
  605MOL0     C83359   8.046   0.153   8.026 -1.0632  0.4126  0.8861
  605MOL0     O83360   7.909   0.168   8.002 -0.1378  0.2874  0.3971
  605MOL0     C83361   7.823   0.206   8.104 -0.5513 -0.0569  0.3334
  605MOL0     C83362   7.711   0.277   8.038  0.6887  0.6263 -0.1734
  605MOL0     C83363   7.579   0.266   8.112 -0.3007 -0.8953 -0.5058
  605MOL0     C83364   7.475   0.362   8.060 -0.1219  0.5666 -0.3537
  605MOL0     C83365   7.394   0.301   7.936  0.1761  0.6245 -0.6290
  605MOL0     C83366   7.284   0.394   7.883  0.0962 -0.3107  0.4943
  605MOL0     C83367   7.224   0.334   7.757  0.7602  0.5009  1.3809
  605MOL0     C83368   7.126   0.409   7.669 -0.4302  0.1217  0.0634
  605MOL0     N83369   7.192   0.529   7.613 -0.0374  0.2947 -0.5561
  605MOL0     C83370   7.278   0.535   7.511  0.1602  0.3569 -0.0391
  605MOL0     C83371   7.359   0.638   7.537  0.0499  0.1898 -0.6518
  605MOL0     C83372   7.475   0.653   7.449  0.3350  0.5140  0.5593
  605MOL0     C83373   7.604   0.573   7.486 -0.0242 -0.3352  0.1978
  605MOL0     C83374   7.634   0.565   7.637 -0.6354  0.3514  0.3962
  605MOL0     C83375   7.788   0.560   7.668  0.3312  0.1810 -0.0948
  605MOL0     O83376   7.848   0.451   7.591  0.4495  0.3637 -0.2136
  605MOL0     C83377   7.985   0.437   7.597 -0.1402  0.2147 -0.2995
  605MOL0     C83378   8.037   0.324   7.528 -0.7350 -0.2227 -0.2497
  605MOL0     C83379   8.174   0.301   7.532  0.0802  0.3533 -0.2016
  605MOL0     C83380   8.225   0.166   7.467  0.0512 -0.4228  0.4792
  605MOL0     C83381   8.263   0.385   7.610 -0.6476  0.3386 -0.0283
  605MOL0     C83382   8.408   0.360   7.631  0.1092  0.7798  0.1008
  605MOL0     O83383   8.481   0.306   7.535 -0.0444  0.7331  0.0196
  605MOL0     C83384   8.617   0.322   7.545 -0.1170 -0.3451  0.3684
  605MOL0     C83385   8.678   0.448   7.554  0.1482 -0.7623 -0.2619
  605MOL0     C83386   8.817   0.462   7.554 -0.1395  0.0926  0.0565
  605MOL0     C83387   8.898   0.347   7.549 -0.1105 -0.6204  0.2173
  605MOL0     O83388   9.031   0.376   7.522 -0.3718  0.1852  0.2535
  605MOL0     C83389   9.121   0.264   7.552 -0.3752  0.2655  0.1669
  605MOL0     C83390   9.267   0.313   7.562  0.7850  0.1530 -0.4482
  605MOL0     C83391   9.319   0.361   7.427  0.2738  0.3716  0.6930
  605MOL0     C83392   9.462   0.419   7.426 -0.6004 -0.1530 -1.6054
  605MOL0     C83393   9.504   0.451   7.282  0.2209 -0.3916  0.1532
  605MOL0     C83394   9.621   0.537   7.284 -0.9637  0.1466 -0.2766
  605MOL0     C83395   9.760   0.503   7.351  0.8306 -0.6729 -0.7620
  605MOL0     C83396   9.770   0.548   7.502 -0.4775  0.1554 -0.3637
  605MOL0    Cl83397   9.939   0.522   7.572 -0.0794 -0.5144  0.3300
  605MOL0     C83398   8.834   0.215   7.546 -0.1942  0.9057  0.2470
  605MOL0     C83399   8.695   0.203   7.539  0.6658 -0.5075 -0.0849
  605MOL0     O83400   8.453   0.384   7.746 -0.5611 -0.2323  0.4427
  605MOL0     C83401   8.207   0.503   7.673  0.1760 -0.4398  0.1610
  605MOL0     C83402   8.067   0.526   7.676 -1.0455 -1.8169 -0.1150
  605MOL0     N83403   7.296   0.721   7.631  0.0959  0.8120  0.2898
  605MOL0     N83404   7.199   0.646   7.685  0.2626 -0.4331  0.0409
  605MOL0     C83405   8.129   0.181   7.919 -0.3327  0.4112 -0.6006
  605MOL0     C83406   8.274   0.170   7.929  0.3635 -0.6704 -0.3161
  605MOL0     C83407   8.681   0.238   8.088 -0.3007 -0.3317 -0.6514
  605MOL0     C83408   8.736   0.366   8.054  0.2556 -0.5969  1.1711
  605MOL0     C83409   8.872   0.387   8.023  0.4965 -0.7207 -0.0878
  605MOL0     C83410   8.954   0.271   8.025  0.5738  0.2823 -0.2173
  605MOL0     O83411   9.093   0.275   8.009 -0.3661 -0.1954 -0.0678
  605MOL0     C83412   9.162   0.405   7.976 -0.2520 -0.5570  0.2395
  605MOL0     C83413   9.311   0.365   7.938  0.1895  0.0833 -0.3872
  605MOL0     C83414   9.393   0.493   7.884 -0.3286  0.1503 -0.2796
  605MOL0     C83415   9.534   0.455   7.835  0.1036  0.0386  0.0787
  605MOL0     C83416   9.626   0.570   7.860  1.1357 -0.6358 -1.3411
  605MOL0     C83417   9.695   0.665   7.881 -0.0954  0.3792 -0.2939
  605MOL0     C83418   8.907   0.146   8.065 -1.0867  0.1827  0.1988
  605MOL0     C83419   8.776   0.125   8.094 -0.2381 -0.3678  0.9896
  605MOL0     C83420   8.728  -0.018   8.130  0.6831 -0.0443  0.0260
  605MOL0     H83421   8.287   0.114   8.262 -0.4094 -1.6667 -0.5847
  605MOL0     H83422   8.042   0.121   8.239  1.6633 -0.3360 -0.1147
  605MOL0     H83423   7.878   0.276   8.166 -1.3545  0.5446  0.3850
  605MOL0     H83424   7.790   0.116   8.158 -0.8135 -0.3757 -0.3352
  605MOL0     H83425   7.746   0.380   8.023  0.1079  1.4865  3.4969
  605MOL0     H83426   7.692   0.237   7.938 -0.7112  0.8923 -0.0402
  605MOL0     H83427   7.542   0.164   8.094 -2.7646 -0.0295 -0.7042
  605MOL0     H83428   7.613   0.274   8.216  0.9212  0.2788 -0.9756
  605MOL0     H83429   7.410   0.401   8.140  1.5211  0.5655  1.0356
  605MOL0     H83430   7.521   0.454   8.024 -0.7210  1.7528  1.7234
  605MOL0     H83431   7.336   0.216   7.973 -1.0019  1.1990 -1.1163
  605MOL0     H83432   7.455   0.272   7.850  3.3135  0.1072  1.6001
  605MOL0     H83433   7.207   0.416   7.957 -0.5558  0.7119 -0.4653
  605MOL0     H83434   7.311   0.497   7.859 -4.0219  0.6406 -0.9098
  605MOL0     H83435   7.166   0.244   7.779 -1.5562  0.8563 -2.2639
  605MOL0     H83436   7.309   0.310   7.693  0.8138  1.1661  1.1956
  605MOL0     H83437   7.088   0.338   7.595  1.9951 -2.6282  1.2413
  605MOL0     H83438   7.044   0.447   7.730  0.5284 -0.7625  1.9646
  605MOL0     H83439   7.284   0.459   7.433  2.2742  2.0352 -1.6180
  605MOL0     H83440   7.493   0.760   7.436 -1.2607  0.5703 -2.0600
  605MOL0     H83441   7.451   0.629   7.345 -3.2505 -1.1476  1.6140
  605MOL0     H83442   7.592   0.472   7.447 -1.3765 -0.4023  0.7412
  605MOL0     H83443   7.683   0.614   7.422 -1.7585  0.9842 -1.2072
  605MOL0     H83444   7.601   0.653   7.693 -2.0482 -1.0342  1.8403
  605MOL0     H83445   7.590   0.482   7.694 -1.4575  1.8232  1.9848
  605MOL0     H83446   7.832   0.657   7.643 -0.2834  0.2870 -0.7927
  605MOL0     H83447   7.793   0.543   7.776 -1.6692 -1.0527 -0.1340
  605MOL0     H83448   7.957   0.268   7.480 -0.5154 -2.6544  1.9910
  605MOL0     H83449   8.302   0.126   7.533  1.2523  1.8277  0.5398
  605MOL0     H83450   8.276   0.175   7.371  0.0123  0.5718  0.5445
  605MOL0     H83451   8.136   0.104   7.450 -0.3989  0.3935 -0.2563
  605MOL0     H83452   8.611   0.534   7.551  1.1262 -0.0127 -1.5629
  605MOL0     H83453   8.879   0.551   7.560 -0.3223  0.1639  1.2699
  605MOL0     H83454   9.096   0.209   7.643  2.7117  1.0229  1.5897
  605MOL0     H83455   9.117   0.188   7.474 -1.2639  1.2923 -0.8194
  605MOL0     H83456   9.261   0.392   7.638  0.6147 -1.5534  1.3903
  605MOL0     H83457   9.329   0.230   7.595 -0.0393  0.2992  1.6056
  605MOL0     H83458   9.247   0.437   7.395  0.5885  1.8184  3.1950
  605MOL0     H83459   9.324   0.283   7.349  1.9816  1.8011 -0.7112
  605MOL0     H83460   9.527   0.342   7.467 -0.1263  0.8379 -0.4262
  605MOL0     H83461   9.469   0.507   7.492  0.5069 -1.6056  0.3206
  605MOL0     H83462   9.526   0.354   7.236 -1.4659  0.6311 -3.1989
  605MOL0     H83463   9.428   0.496   7.217  0.7779  2.3440  1.2731
  605MOL0     H83464   9.593   0.638   7.316  0.3321  0.0766  1.1982
  605MOL0     H83465   9.651   0.531   7.179 -0.9837 -0.9561 -0.2324
  605MOL0     H83466   9.832   0.560   7.292  1.1519  1.6346  1.6596
  605MOL0     H83467   9.786   0.398   7.336  0.0115 -0.6845 -2.3123
  605MOL0     H83468   9.702   0.495   7.569 -1.1923  1.7233  0.2029
  605MOL0     H83469   9.748   0.655   7.507  1.4388  0.5348  1.5105
  605MOL0     H83470   8.888   0.121   7.542  1.2304  1.6463  1.1748
  605MOL0     H83471   8.648   0.105   7.531 -0.0088 -0.3888  1.9161
  605MOL0     H83472   8.281   0.557   7.732  1.6576 -0.4682 -1.5816
  605MOL0     H83473   8.030   0.603   7.744 -1.9157 -2.9053  0.6735
  605MOL0     H83474   8.085   0.189   7.821 -1.7616 -0.4049 -0.0550
  605MOL0     H83475   8.329   0.180   7.836 -3.9314 -2.5448 -3.3342
  605MOL0     H83476   8.679   0.458   8.058 -1.8095 -1.5061 -2.3858
  605MOL0     H83477   8.897   0.489   7.995 -1.5444  0.4123  1.8124
  605MOL0     H83478   9.125   0.456   7.887  2.9316 -0.5164 -1.2034
  605MOL0     H83479   9.170   0.473   8.061 -2.2222 -0.8254  0.6850
  605MOL0     H83480   9.305   0.281   7.868  0.8720 -1.3118  1.1580
  605MOL0     H83481   9.363   0.320   8.023  1.1313  0.6036 -0.6788
  605MOL0     H83482   9.341   0.542   7.801  2.1205 -2.2758 -3.4963
  605MOL0     H83483   9.406   0.563   7.967  2.2605 -3.9315  3.1796
  605MOL0     H83484   9.529   0.439   7.727 -2.9161  2.8116 -0.3601
  605MOL0     H83485   9.567   0.364   7.885  1.2238  0.3816 -0.0238
  605MOL0     H83486   9.758   0.746   7.910  0.1222 -0.0403  0.4228
  605MOL0     H83487   8.973   0.059   8.068  0.1706  1.1106  0.1533
  605MOL0     H83488   8.635  -0.008   8.187 -0.4991  1.8632 -2.0603
  605MOL0     H83489   8.710  -0.079   8.041  0.8453 -1.2632  0.8141
  605MOL0     H83490   8.809  -0.068   8.184  3.7858 -0.1533 -4.1980
  606MOL0     O83491  10.872   0.811   4.452  0.0205 -0.7390 -0.6435
  606MOL0     C83492  10.850   0.911   4.518  0.4018 -0.5326  0.6002
  606MOL0     O83493  10.917   0.947   4.634 -0.2174 -1.3177 -0.2697
  606MOL0     C83494  10.982   0.846   4.700 -0.2406  0.1510  0.6593
  606MOL0     C83495  11.108   0.857   4.740  0.2501 -0.1959 -0.0539
  606MOL0     C83496  11.165   0.741   4.808  0.3359  0.0381 -0.3357
  606MOL0     C83497  11.093   0.625   4.823 -0.8070  1.0966  0.3831
  606MOL0     O83498  11.157   0.517   4.881  0.9821 -0.0518 -0.0568
  606MOL0     C83499  11.200   0.418   4.791  0.4824  0.4400  0.2391
  606MOL0     C83500  11.296   0.330   4.865 -0.6027 -0.8137 -0.6031
  606MOL0     C83501  11.388   0.244   4.775  0.6880  0.4195 -0.0961
  606MOL0     C83502  11.482   0.162   4.866 -0.0270  0.4449  0.4192
  606MOL0     C83503  11.533   0.057   4.770  0.7341 -0.0129 -0.6942
  606MOL0     C83504  11.621  -0.048   4.847  0.1560 -0.2251 -0.7131
  606MOL0     C83505  11.718  -0.131   4.760  0.3649  0.6274  0.1808
  606MOL0     C83506  11.645  -0.217   4.667 -0.1116  0.8120 -0.4370
  606MOL0     N83507  11.729  -0.332   4.621  0.3035  0.1370 -0.5800
  606MOL0     C83508  11.758  -0.451   4.679 -0.3417 -0.2841 -0.3036
  606MOL0     C83509  11.839  -0.513   4.587 -0.4229 -0.0255  0.8773
  606MOL0     C83510  11.911  -0.645   4.590 -0.1121 -0.1163  0.9499
  606MOL0     C83511  11.919  -0.712   4.455  0.6217 -0.2349 -0.1997
  606MOL0     C83512  11.999  -0.845   4.464 -0.2094  1.1978 -0.7662
  606MOL0     C83513  11.923  -0.961   4.534 -0.3435 -1.0880 -0.7562
  606MOL0     O83514  12.004  -1.082   4.540  0.2979 -0.8236  0.3127
  606MOL0     C83515  12.075  -1.121   4.656  0.0381 -0.1067  1.0936
  606MOL0     C83516  12.164  -1.224   4.640  0.1689  0.7546  0.6875
  606MOL0     C83517  12.228  -1.283   4.755 -0.2156 -0.5694  0.3721
  606MOL0     C83518  12.335  -1.390   4.726  0.3520  0.1589 -0.4456
  606MOL0     C83519  12.212  -1.227   4.883  0.2502 -0.3732  0.3624
  606MOL0     C83520  12.278  -1.276   5.007 -0.1715 -0.6311  0.6505
  606MOL0     O83521  12.203  -1.247   5.119  0.2478 -0.1425  0.2041
  606MOL0     C83522  12.229  -1.304   5.245 -0.3164  0.1850 -0.5532
  606MOL0     C83523  12.199  -1.228   5.363 -0.5408  0.1258  0.4800
  606MOL0     C83524  12.202  -1.303   5.490  0.0748 -0.3863  0.1359
  606MOL0     C83525  12.245  -1.437   5.508  0.1373 -0.3205  0.9161
  606MOL0     O83526  12.251  -1.487   5.630  0.3196 -0.1158  0.7223
  606MOL0     C83527  12.279  -1.624   5.668 -0.5427 -0.6479  0.1973
  606MOL0     C83528  12.433  -1.645   5.687  0.1898 -0.7162 -0.4271
  606MOL0     C83529  12.473  -1.552   5.806  0.0610  1.0195  0.2729
  606MOL0     C83530  12.607  -1.604   5.873 -0.6549 -0.5141 -0.8005
  606MOL0     C83531  12.636  -1.514   5.997 -0.0434  0.6291  0.4919
  606MOL0     C83532  12.770  -1.534   6.056 -0.6441  0.9512 -0.0219
  606MOL0     C83533  12.797  -1.442   6.178  0.0657 -0.3578  0.5450
  606MOL0     C83534  12.918  -1.483   6.259  0.0197 -0.0554 -0.8507
  606MOL0    Cl83535  12.964  -1.364   6.381  0.2103 -0.7393  0.1233
  606MOL0     C83536  12.272  -1.505   5.390  0.1461  0.0292 -0.2746
  606MOL0     C83537  12.257  -1.445   5.264  0.1972 -0.3213  0.3895
  606MOL0     O83538  12.388  -1.324   5.006 -0.0307 -0.2876  0.1267
  606MOL0     C83539  12.122  -1.117   4.892  0.5342 -0.2152  0.4211
  606MOL0     C83540  12.050  -1.069   4.783  0.4334  0.2831  0.1032
  606MOL0     N83541  11.852  -0.426   4.479 -0.4375  0.4283 -0.1274
  606MOL0     N83542  11.792  -0.317   4.509 -0.4218 -0.2901 -0.0914
  606MOL0     C83543  10.959   0.614   4.781  0.2810  0.5467  0.3759
  606MOL0     C83544  10.901   0.733   4.722  0.6397 -0.1844 -1.1766
  606MOL0     C83545  10.729   0.995   4.493 -0.2310 -0.5501 -0.2650
  606MOL0     C83546  10.722   1.132   4.534 -0.5698  0.9521 -0.1576
  606MOL0     C83547  10.611   1.220   4.523 -0.1064  0.5445  0.5673
  606MOL0     C83548  10.502   1.174   4.448  0.3472  0.0421 -0.0740
  606MOL0     O83549  10.389   1.248   4.418 -0.6474  0.5380  0.3092
  606MOL0     C83550  10.393   1.390   4.437  0.8646  0.0253  0.4213
  606MOL0     C83551  10.259   1.453   4.395 -0.1382  0.1765  0.1994
  606MOL0     C83552  10.233   1.444   4.240  0.0478  1.5329  0.4121
  606MOL0     C83553  10.090   1.477   4.192  0.8065 -0.0698  0.2268
  606MOL0     C83554   9.996   1.382   4.249  1.2963  0.2551  0.2393
  606MOL0     C83555   9.919   1.288   4.256  0.0418 -0.1883  0.4092
  606MOL0     C83556  10.509   1.044   4.397 -0.5755 -0.1867  0.0412
  606MOL0     C83557  10.620   0.955   4.415 -0.4768 -1.1346 -0.1960
  606MOL0     C83558  10.603   0.813   4.368 -0.2177 -0.2149 -0.5972
  606MOL0     H83559  11.171   0.944   4.724 -2.6486  1.9482 -0.4752
  606MOL0     H83560  11.267   0.743   4.848  0.4171  2.9493 -0.4502
  606MOL0     H83561  11.260   0.462   4.710 -1.3639  0.5459 -1.1259
  606MOL0     H83562  11.119   0.355   4.753  0.5335 -1.0823  2.4419
  606MOL0     H83563  11.361   0.395   4.923 -0.9554 -0.5773 -0.4693
  606MOL0     H83564  11.238   0.271   4.938 -2.6107 -0.7284 -2.0428
  606MOL0     H83565  11.318   0.180   4.720  1.2190  0.1363 -0.4569
  606MOL0     H83566  11.456   0.300   4.710  2.2365 -0.6299  0.5348
  606MOL0     H83567  11.558   0.229   4.907 -1.1945  1.9155  0.2868
  606MOL0     H83568  11.422   0.112   4.943  1.7272 -3.2853 -0.4107
  606MOL0     H83569  11.602   0.101   4.697  1.1505  2.8520  1.2868
  606MOL0     H83570  11.452   0.003   4.721 -0.0696 -0.5976  1.1781
  606MOL0     H83571  11.671   0.013   4.922 -1.9291 -0.4371  0.9680
  606MOL0     H83572  11.556  -0.114   4.907 -1.1849  1.2718 -0.4576
  606MOL0     H83573  11.765  -0.191   4.838 -3.1768 -2.4565  0.2409
  606MOL0     H83574  11.791  -0.080   4.696 -0.6067 -0.9800 -2.3293
  606MOL0     H83575  11.557  -0.260   4.716  0.5050 -1.6229 -1.3545
  606MOL0     H83576  11.594  -0.163   4.588 -3.7554  1.1556  1.9191
  606MOL0     H83577  11.725  -0.476   4.780  0.8534  0.0547  0.1957
  606MOL0     H83578  11.848  -0.709   4.653 -0.8551  0.7486  1.0982
  606MOL0     H83579  12.007  -0.638   4.643  0.6527 -2.1314 -0.0538
  606MOL0     H83580  11.820  -0.713   4.407  0.2661  0.3498  0.5148
  606MOL0     H83581  11.991  -0.656   4.394  1.1665 -0.6886  0.0201
  606MOL0     H83582  12.018  -0.869   4.359 -0.8144 -2.2271 -0.2023
  606MOL0     H83583  12.096  -0.835   4.512  0.7383 -1.1354 -2.0073
  606MOL0     H83584  11.901  -0.929   4.636  1.7979  0.8098 -0.7962
  606MOL0     H83585  11.825  -0.979   4.490 -0.7606 -0.3625 -0.1360
  606MOL0     H83586  12.171  -1.268   4.541 -0.3457  0.8816  0.5930
  606MOL0     H83587  12.305  -1.459   4.647 -1.7986 -1.0555  1.3097
  606MOL0     H83588  12.341  -1.449   4.818 -0.3345  0.5752 -0.1270
  606MOL0     H83589  12.430  -1.340   4.704 -0.2379  1.3966 -0.2629
  606MOL0     H83590  12.172  -1.123   5.366  0.8083  0.5445 -0.7742
  606MOL0     H83591  12.182  -1.249   5.583  0.2908 -0.3513  0.1620
  606MOL0     H83592  12.237  -1.641   5.767  2.0507  0.6016  1.6177
  606MOL0     H83593  12.246  -1.696   5.592 -3.9588 -1.6008  2.3867
  606MOL0     H83594  12.453  -1.751   5.702  0.7278 -0.5540  0.0137
  606MOL0     H83595  12.486  -1.622   5.594  1.6024 -1.9624  0.0228
  606MOL0     H83596  12.395  -1.546   5.882  1.1334 -0.2613  1.5270
  606MOL0     H83597  12.496  -1.455   5.760  1.1473  0.5341 -0.2655
  606MOL0     H83598  12.697  -1.594   5.812 -0.6948  0.3170 -0.7391
  606MOL0     H83599  12.594  -1.706   5.911  0.9367 -1.0285 -1.5739
  606MOL0     H83600  12.622  -1.412   5.960 -2.2692  0.2003  0.0166
  606MOL0     H83601  12.563  -1.535   6.075 -0.1602 -0.6945  0.0539
  606MOL0     H83602  12.851  -1.513   5.985 -0.9075  0.8936 -0.3413
  606MOL0     H83603  12.786  -1.639   6.083  1.4422  1.0375 -0.7429
  606MOL0     H83604  12.718  -1.454   6.252  2.6220  0.5049  3.6302
  606MOL0     H83605  12.803  -1.337   6.150 -1.3343 -0.4008  0.0378
  606MOL0     H83606  13.004  -1.497   6.192  1.3709 -0.1153  0.8122
  606MOL0     H83607  12.897  -1.579   6.308 -0.9054  0.8370  0.5680
  606MOL0     H83608  12.307  -1.607   5.398 -0.7602 -0.1663  2.3015
  606MOL0     H83609  12.280  -1.497   5.171 -1.5085  1.0759 -0.8762
  606MOL0     H83610  12.091  -1.061   4.980 -0.4513  0.0997 -0.1057
  606MOL0     H83611  11.978  -0.992   4.810  1.3264  0.0767  3.4515
  606MOL0     H83612  10.897   0.525   4.788 -1.6391  1.8225  0.5194
  606MOL0     H83613  10.797   0.726   4.690  1.1179 -0.3866 -2.8112
  606MOL0     H83614  10.819   1.168   4.567  1.4901 -1.0217 -3.4898
  606MOL0     H83615  10.622   1.320   4.564 -0.1175  1.2057 -0.9834
  606MOL0     H83616  10.394   1.418   4.542  2.9275 -0.2022  0.4963
  606MOL0     H83617  10.486   1.435   4.399 -0.1932  1.4603 -0.6022
  606MOL0     H83618  10.252   1.556   4.433  0.3646  0.6842 -1.0493
  606MOL0     H83619  10.183   1.395   4.448 -1.1298  2.9482  2.0330
  606MOL0     H83620  10.307   1.510   4.195  0.2141  0.6830 -0.6175
  606MOL0     H83621  10.257   1.340   4.214 -1.3769  0.9431  1.2811
  606MOL0     H83622  10.085   1.458   4.084  3.4373 -3.1271  0.5078
  606MOL0     H83623  10.060   1.582   4.203 -2.4997 -0.9830  1.2849
  606MOL0     H83624   9.843   1.213   4.267 -1.0276  0.7873 -0.1452
  606MOL0     H83625  10.417   1.009   4.351 -1.4241  0.9786  0.8083
  606MOL0     H83626  10.600   0.748   4.456  1.3057  1.2214  0.5968
  606MOL0     H83627  10.510   0.792   4.316 -0.6358  0.9537 -0.3535
  606MOL0     H83628  10.670   0.773   4.291 -0.4410 -0.8603 -0.4585
  607MOL0     O83629   2.529   1.409   2.737  0.0138  0.1650 -0.4458
  607MOL0     C83630   2.435   1.441   2.806 -0.0107  0.4199 -0.8872
  607MOL0     O83631   2.425   1.558   2.876  0.0634 -0.5134  0.0571
  607MOL0     C83632   2.536   1.640   2.880  0.0609 -0.0791  0.1793
  607MOL0     C83633   2.570   1.724   2.780 -0.4911 -0.6706 -0.0121
  607MOL0     C83634   2.691   1.807   2.792  0.4406  0.4721 -0.2464
  607MOL0     C83635   2.761   1.800   2.911 -0.3695 -0.1102 -0.7531
  607MOL0     O83636   2.869   1.876   2.938 -0.8398 -0.0379  0.8608
  607MOL0     C83637   2.972   1.783   2.904  0.0353  0.4798  0.7419
  607MOL0     C83638   3.104   1.847   2.896 -0.4593  0.1907  0.6286
  607MOL0     C83639   3.195   1.727   2.855 -1.4364 -0.3865 -0.2544
  607MOL0     C83640   3.333   1.769   2.801  0.1241 -0.3824 -0.2685
  607MOL0     C83641   3.411   1.670   2.720  0.2203  0.0456  0.3787
  607MOL0     C83642   3.455   1.541   2.787  0.6152 -0.1491  0.5374
  607MOL0     C83643   3.541   1.454   2.702 -1.1438  0.2603  0.3977
  607MOL0     C83644   3.467   1.391   2.589  0.2234 -0.3348  0.2425
  607MOL0     N83645   3.381   1.287   2.639  0.3089  0.2029  0.3007
  607MOL0     C83646   3.407   1.188   2.731 -0.6604 -0.4283 -0.2410
  607MOL0     C83647   3.288   1.120   2.749  0.4121  0.5812 -0.2671
  607MOL0     C83648   3.269   0.984   2.818  0.2348 -0.2565 -0.3812
  607MOL0     C83649   3.273   0.884   2.713  0.1637 -0.6421 -0.2330
  607MOL0     C83650   3.241   0.741   2.745  0.2288  0.2465 -0.0406
  607MOL0     C83651   3.229   0.656   2.623 -0.2042 -1.3693 -0.0266
  607MOL0     O83652   3.207   0.517   2.667 -0.1947  0.0977 -0.0149
  607MOL0     C83653   3.326   0.449   2.681  0.3222 -0.9267  0.0110
  607MOL0     C83654   3.306   0.318   2.713 -0.1967 -0.2067 -0.3890
  607MOL0     C83655   3.416   0.231   2.754  0.4407 -0.7732  0.6601
  607MOL0     C83656   3.378   0.090   2.786  0.5898 -0.2797 -1.2494
  607MOL0     C83657   3.545   0.274   2.746  0.1611  0.7959  0.1398
  607MOL0     C83658   3.661   0.190   2.787 -1.4624  0.9805  0.0718
  607MOL0     O83659   3.648   0.053   2.815 -0.7099 -0.9903  0.0281
  607MOL0     C83660   3.767  -0.020   2.820  0.3602  0.6651 -0.5570
  607MOL0     C83661   3.786  -0.116   2.917 -1.0243 -0.7576 -0.3696
  607MOL0     C83662   3.902  -0.199   2.908  1.0119  0.6142 -0.5497
  607MOL0     C83663   3.993  -0.185   2.808 -0.0404 -0.9111 -0.0399
  607MOL0     O83664   4.098  -0.277   2.799  0.4359  0.1816  1.0876
  607MOL0     C83665   4.082  -0.361   2.686  0.3177 -0.9959 -0.7496
  607MOL0     C83666   4.199  -0.455   2.665 -0.2144  0.3867  0.2466
  607MOL0     C83667   4.199  -0.511   2.528 -0.3388 -0.2129 -0.0866
  607MOL0     C83668   4.318  -0.584   2.475 -1.4499 -0.1298  0.6326
  607MOL0     C83669   4.287  -0.657   2.344  0.4216 -0.0357  0.6273
  607MOL0     C83670   4.428  -0.708   2.292  0.2995 -1.0448  0.5662
  607MOL0     C83671   4.410  -0.816   2.180  0.2396 -0.0996  0.0847
  607MOL0     C83672   4.538  -0.888   2.152  0.2082  0.1851 -0.3015
  607MOL0    Cl83673   4.667  -0.779   2.102 -0.6166  0.4249  0.6347
  607MOL0     C83674   3.973  -0.085   2.712 -1.0375  0.9553 -0.5964
  607MOL0     C83675   3.859  -0.012   2.718  0.4576 -0.0970 -0.2344
  607MOL0     O83676   3.763   0.255   2.802 -0.3418 -0.5709  0.1393
  607MOL0     C83677   3.564   0.408   2.697 -1.1261  0.5006 -0.7132
  607MOL0     C83678   3.460   0.491   2.674 -0.3170  0.0563  0.5259
  607MOL0     N83679   3.188   1.188   2.674  0.3054 -0.2474  0.0940
  607MOL0     N83680   3.248   1.282   2.614  0.3678 -0.2629 -0.2101
  607MOL0     C83681   2.717   1.713   3.009 -0.0204  0.0657 -0.2098
  607MOL0     C83682   2.611   1.632   2.996  0.6926  0.1243 -0.1064
  607MOL0     C83683   2.323   1.353   2.821  0.7087  1.2495 -0.4534
  607MOL0     C83684   2.197   1.403   2.852  0.3694 -0.7604  0.2646
  607MOL0     C83685   2.089   1.321   2.859  0.5277  0.4276 -0.3470
  607MOL0     C83686   2.090   1.183   2.838  0.6195  0.7576  0.1766
  607MOL0     O83687   1.972   1.112   2.853 -0.3458  0.4389 -0.0250
  607MOL0     C83688   1.978   0.971   2.825 -0.0678  0.4792  0.4890
  607MOL0     C83689   1.834   0.914   2.805 -0.5609  0.0990 -0.3370
  607MOL0     C83690   1.794   0.858   2.936  0.5779  1.1382 -0.1026
  607MOL0     C83691   1.642   0.815   2.930  0.2532 -0.1571 -0.2134
  607MOL0     C83692   1.614   0.699   2.845  0.8873 -0.2100  0.1894
  607MOL0     C83693   1.596   0.605   2.772 -0.0142 -0.1983  0.2510
  607MOL0     C83694   2.216   1.129   2.806 -0.3156  0.3166  0.3658
  607MOL0     C83695   2.336   1.210   2.795  0.4947 -0.4914 -0.6959
  607MOL0     C83696   2.465   1.137   2.770 -0.0884 -0.1338 -0.0012
  607MOL0     H83697   2.511   1.726   2.689  1.2360 -0.0272 -1.1602
  607MOL0     H83698   2.725   1.861   2.705  0.5125 -2.1483 -1.9676
  607MOL0     H83699   2.949   1.730   2.811  0.8569 -0.5895  1.1276
  607MOL0     H83700   2.970   1.705   2.982  2.4828 -0.3284  0.1100
  607MOL0     H83701   3.094   1.925   2.820 -1.6201  0.3712  0.9478
  607MOL0     H83702   3.134   1.875   2.997 -0.2804 -1.4807  1.0690
  607MOL0     H83703   3.216   1.663   2.942  1.8375 -0.5928 -1.0827
  607MOL0     H83704   3.154   1.663   2.776  4.1797 -2.3485 -2.0450
  607MOL0     H83705   3.312   1.859   2.742  0.4458 -0.7901 -1.0216
  607MOL0     H83706   3.403   1.785   2.884 -0.5389 -0.9649  0.4126
  607MOL0     H83707   3.498   1.720   2.676 -1.1287  0.4515 -1.9807
  607MOL0     H83708   3.336   1.639   2.647 -0.3703 -1.9529  1.7387
  607MOL0     H83709   3.517   1.567   2.873  0.4000 -2.2350  1.3933
  607MOL0     H83710   3.365   1.490   2.824  0.8642 -1.5734 -0.7347
  607MOL0     H83711   3.586   1.374   2.761 -0.0531  1.3482  1.0798
  607MOL0     H83712   3.629   1.507   2.665 -0.4250 -0.7117  0.6914
  607MOL0     H83713   3.407   1.464   2.533  0.1910 -2.6864 -3.0736
  607MOL0     H83714   3.540   1.347   2.521 -0.1530 -3.5633  1.7769
  607MOL0     H83715   3.500   1.149   2.771 -1.2614 -3.9232 -1.8287
  607MOL0     H83716   3.175   0.993   2.874  0.0470  3.1205 -1.0553
  607MOL0     H83717   3.348   0.979   2.893 -1.2852 -0.8376  1.2650
  607MOL0     H83718   3.193   0.918   2.646 -0.7388 -0.5050  0.8758
  607MOL0     H83719   3.367   0.884   2.657  0.7606 -0.9331  0.7490
  607MOL0     H83720   3.324   0.708   2.808 -0.2889 -0.6195  0.1971
  607MOL0     H83721   3.159   0.747   2.816  2.6598  1.0879  2.8947
  607MOL0     H83722   3.143   0.701   2.571  2.6543  1.0437 -3.0891
  607MOL0     H83723   3.310   0.662   2.551 -1.6788  0.1407 -1.6849
  607MOL0     H83724   3.203   0.286   2.724  0.0976 -1.6228 -1.4045
  607MOL0     H83725   3.400   0.069   2.891 -0.4978 -0.9899 -1.1540
  607MOL0     H83726   3.425   0.020   2.717 -0.7765 -1.5705 -0.9078
  607MOL0     H83727   3.270   0.077   2.778  0.3012  1.2074 -0.1590
  607MOL0     H83728   3.718  -0.129   3.000 -2.3887  0.8046 -1.1872
  607MOL0     H83729   3.932  -0.285   2.967  0.2891 -0.3100 -1.4944
  607MOL0     H83730   3.991  -0.421   2.690  0.5534 -1.5290 -2.4404
  607MOL0     H83731   4.073  -0.305   2.593 -1.0712 -2.4017 -1.4978
  607MOL0     H83732   4.290  -0.395   2.670  1.6427 -2.0696 -1.6376
  607MOL0     H83733   4.210  -0.539   2.733  0.7354 -0.3620 -0.7897
  607MOL0     H83734   4.162  -0.440   2.453  1.6869  2.5866  1.3588
  607MOL0     H83735   4.122  -0.588   2.529  0.2116 -0.7821 -0.8222
  607MOL0     H83736   4.354  -0.660   2.544  0.5485  0.0730 -0.1039
  607MOL0     H83737   4.404  -0.517   2.466 -0.8180 -0.4141  3.5781
  607MOL0     H83738   4.206  -0.725   2.372 -2.6282  3.1635  0.2639
  607MOL0     H83739   4.239  -0.589   2.273 -1.8049  0.7225  2.7040
  607MOL0     H83740   4.491  -0.732   2.379  0.7237  1.9931  1.2180
  607MOL0     H83741   4.487  -0.628   2.246 -0.6537  0.7124  2.2867
  607MOL0     H83742   4.389  -0.766   2.085  2.8219  0.0861 -0.4445
  607MOL0     H83743   4.329  -0.884   2.208  0.5266 -0.3936  0.1986
  607MOL0     H83744   4.531  -0.966   2.076  3.3707 -1.6826  1.1149
  607MOL0     H83745   4.582  -0.940   2.238  0.5010 -1.0588 -1.1787
  607MOL0     H83746   4.044  -0.074   2.630  0.9576 -1.5108  0.6582
  607MOL0     H83747   3.847   0.055   2.633 -2.6617  1.7782  1.4927
  607MOL0     H83748   3.661   0.455   2.708 -0.8488 -0.5962  2.4885
  607MOL0     H83749   3.473   0.594   2.642 -0.6190  0.9301  2.9993
  607MOL0     H83750   2.754   1.722   3.110 -2.3223  0.5856  0.6504
  607MOL0     H83751   2.583   1.575   3.084  0.7919  0.0642 -0.1138
  607MOL0     H83752   2.192   1.509   2.874  1.6224 -0.1940 -1.9436
  607MOL0     H83753   1.993   1.362   2.890  0.9237 -0.3624  2.1999
  607MOL0     H83754   2.032   0.961   2.730  0.0325 -0.8324  0.6630
  607MOL0     H83755   2.031   0.912   2.901  2.1556  0.3528 -1.0480
  607MOL0     H83756   1.833   0.828   2.738  1.2480 -0.7729  0.6776
  607MOL0     H83757   1.755   0.981   2.769 -2.7567 -1.6851  0.8459
  607MOL0     H83758   1.859   0.770   2.947  2.0379  1.9015 -2.0134
  607MOL0     H83759   1.809   0.929   3.017  0.0042 -0.2074  1.2391
  607MOL0     H83760   1.593   0.904   2.889  2.7884  0.9422 -1.0836
  607MOL0     H83761   1.601   0.805   3.031  0.1773  0.3645 -0.1879
  607MOL0     H83762   1.583   0.525   2.702 -2.4804  1.2246 -1.0426
  607MOL0     H83763   2.236   1.022   2.805 -1.7597  0.0272 -0.0013
  607MOL0     H83764   2.437   1.032   2.779 -1.8871 -0.1614 -3.7619
  607MOL0     H83765   2.503   1.144   2.668  1.4935 -2.0680  0.3942
  607MOL0     H83766   2.546   1.169   2.836  0.1048  0.7077 -0.6292
  608MOL0     O83767   3.855   5.367   6.575 -0.6118  0.6227 -0.0158
  608MOL0     C83768   3.872   5.438   6.480 -0.2845 -0.6044  1.6035
  608MOL0     O83769   3.982   5.435   6.398 -0.4249 -0.1311  0.4762
  608MOL0     C83770   4.094   5.369   6.452 -0.3630 -1.0223  0.5189
  608MOL0     C83771   4.127   5.243   6.405 -0.9110 -0.2216  0.4178
  608MOL0     C83772   4.246   5.182   6.438 -0.7205  0.0056  0.1860
  608MOL0     C83773   4.334   5.243   6.528 -0.1351  0.3846  1.0790
  608MOL0     O83774   4.454   5.180   6.565  0.0842  0.5823 -0.7119
  608MOL0     C83775   4.433   5.066   6.647  0.0882 -0.0457 -0.3430
  608MOL0     C83776   4.570   5.009   6.698  0.5416  0.2166  0.2908
  608MOL0     C83777   4.672   5.119   6.716 -0.6381 -0.3980 -0.2271
  608MOL0     C83778   4.644   5.207   6.840  0.1084 -0.4792  0.2626
  608MOL0     C83779   4.764   5.301   6.880 -0.0074  0.1772  0.0912
  608MOL0     C83780   4.768   5.432   6.792  0.1074 -0.3327 -1.1414
  608MOL0     C83781   4.835   5.544   6.866 -0.3411  0.0462  0.6558
  608MOL0     C83782   4.848   5.657   6.767  0.1285 -0.2511 -0.4512
  608MOL0     N83783   4.888   5.781   6.842  0.6542 -0.1291  1.2595
  608MOL0     C83784   5.001   5.814   6.910 -0.0316  0.1248 -0.0592
  608MOL0     C83785   4.980   5.940   6.954 -0.2150 -0.0658  0.0731
  608MOL0     C83786   5.086   6.018   7.019  0.1286  0.4337  0.1044
  608MOL0     C83787   5.033   6.058   7.158 -0.5132 -0.7451  0.1080
  608MOL0     C83788   5.124   6.168   7.221 -0.1492  0.6870 -0.0803
  608MOL0     C83789   5.116   6.313   7.175  0.1764  1.1993  0.0744
  608MOL0     O83790   5.236   6.355   7.138 -0.0212 -0.6952  0.2578
  608MOL0     C83791   5.249   6.490   7.102  0.2406  0.1540  0.6095
  608MOL0     C83792   5.154   6.574   7.053  1.1631  0.1950  0.0794
  608MOL0     C83793   5.176   6.694   7.014  0.2268 -0.0519  0.2248
  608MOL0     C83794   5.055   6.768   6.951 -0.8880  0.5444 -0.7607
  608MOL0     C83795   5.306   6.743   7.003 -0.3611 -0.4080  0.4995
  608MOL0     C83796   5.341   6.876   6.949  0.5958  0.0611  0.3032
  608MOL0     O83797   5.477   6.892   6.917  0.1703  0.3646  0.0469
  608MOL0     C83798   5.506   6.987   6.821  0.2244 -0.0938  0.7877
  608MOL0     C83799   5.425   7.013   6.706 -0.1696  0.3095  1.0149
  608MOL0     C83800   5.472   7.104   6.601 -0.3611  0.2275  0.8890
  608MOL0     C83801   5.573   7.191   6.632 -0.2737  0.6501  0.4338
  608MOL0     O83802   5.602   7.290   6.543  0.2588 -0.4159 -0.2099
  608MOL0     C83803   5.721   7.271   6.465  0.5873 -0.4259 -0.7732
  608MOL0     C83804   5.718   7.323   6.316  0.6348  0.1246 -0.5015
  608MOL0     C83805   5.728   7.475   6.319  0.2961  0.5147 -0.9125
  608MOL0     C83806   5.789   7.549   6.199  0.4212 -0.3999 -0.7040
  608MOL0     C83807   5.808   7.703   6.221  0.3523  0.3184 -0.2039
  608MOL0     C83808   5.910   7.751   6.328 -0.8696 -0.5805 -0.3497
  608MOL0     C83809   6.053   7.723   6.277  0.4928  0.9051  0.3194
  608MOL0     C83810   6.148   7.780   6.376 -0.2731 -0.3687  0.4871
  608MOL0    Cl83811   6.318   7.747   6.331  0.3223 -0.0751  0.3227
  608MOL0     C83812   5.649   7.170   6.754 -0.3250 -0.3401 -0.6044
  608MOL0     C83813   5.622   7.065   6.843 -0.2193  0.3628  0.3535
  608MOL0     O83814   5.257   6.966   6.935  0.4464  0.5586  0.0759
  608MOL0     C83815   5.416   6.664   7.051  0.1338  0.3385  0.5081
  608MOL0     C83816   5.383   6.532   7.091 -0.0973 -0.9707 -0.2136
  608MOL0     N83817   4.844   5.969   6.924 -0.3761 -0.3805 -0.4298
  608MOL0     N83818   4.794   5.881   6.853 -0.9993 -0.8475 -0.6937
  608MOL0     C83819   4.302   5.372   6.572  0.3709 -0.2922  0.4843
  608MOL0     C83820   4.186   5.435   6.537  0.9869  0.1632 -0.3469
  608MOL0     C83821   3.769   5.544   6.448 -0.5093  0.6631 -0.5552
  608MOL0     C83822   3.798   5.639   6.346 -0.2152 -0.2631 -0.2857
  608MOL0     C83823   3.707   5.736   6.313 -0.4708 -0.0352  0.3430
  608MOL0     C83824   3.596   5.759   6.384  1.0192  0.5316 -0.6038
  608MOL0     O83825   3.513   5.860   6.338 -0.8928 -0.0367  0.7217
  608MOL0     C83826   3.405   5.899   6.412  0.2758  1.1734 -0.0055
  608MOL0     C83827   3.320   6.010   6.346  0.6509  0.8273 -0.7182
  608MOL0     C83828   3.269   5.973   6.210 -0.3230  0.3863 -0.5367
  608MOL0     C83829   3.166   5.860   6.185  0.0985 -0.2411 -0.5842
  608MOL0     C83830   3.041   5.859   6.258  0.6837  0.4924 -0.6592
  608MOL0     C83831   2.936   5.870   6.323 -0.7037 -0.5849 -1.5053
  608MOL0     C83832   3.565   5.681   6.487  0.1124 -0.0034  0.6676
  608MOL0     C83833   3.651   5.568   6.520  0.7666 -0.2957  0.8379
  608MOL0     C83834   3.615   5.492   6.639  0.5161  0.7681  0.0006
  608MOL0     H83835   4.062   5.202   6.329  2.3094 -0.9483 -2.2014
  608MOL0     H83836   4.276   5.082   6.410 -0.9476 -0.2544  0.8550
  608MOL0     H83837   4.381   4.982   6.599  2.5342 -2.6086  1.1307
  608MOL0     H83838   4.369   5.091   6.732  1.1220 -0.3322  0.5423
  608MOL0     H83839   4.553   4.955   6.792 -0.7416  1.4008  0.7725
  608MOL0     H83840   4.609   4.937   6.625 -2.8599  0.7662 -2.3545
  608MOL0     H83841   4.768   5.068   6.727  1.3523  2.9614 -0.5824
  608MOL0     H83842   4.687   5.176   6.625 -2.6080 -1.1148 -1.0641
  608MOL0     H83843   4.552   5.265   6.835 -0.3174 -0.9178  2.0846
  608MOL0     H83844   4.630   5.140   6.926 -0.8201  1.5155  1.7375
  608MOL0     H83845   4.856   5.243   6.872 -0.3485 -0.7729  2.3274
  608MOL0     H83846   4.754   5.330   6.985 -2.3987 -1.2165  0.3068
  608MOL0     H83847   4.817   5.414   6.696  2.1920 -1.9156  0.1257
  608MOL0     H83848   4.666   5.470   6.783  0.5146  1.6920  1.5909
  608MOL0     H83849   4.929   5.513   6.912 -0.6529  1.1589  2.1415
  608MOL0     H83850   4.767   5.577   6.946 -0.2300 -1.0768  1.2326
  608MOL0     H83851   4.928   5.629   6.699 -0.3365  1.2969 -1.6901
  608MOL0     H83852   4.753   5.671   6.714  0.1132  0.7042 -0.1945
  608MOL0     H83853   5.086   5.751   6.936 -1.4744 -2.9986 -2.3583
  608MOL0     H83854   5.098   6.097   6.944 -3.9964 -0.8100 -2.1754
  608MOL0     H83855   5.177   5.958   7.032  0.0006  0.4592  1.1845
  608MOL0     H83856   4.930   6.092   7.144  0.1759  0.6691 -2.0085
  608MOL0     H83857   5.051   5.974   7.226  3.7759  0.1627  0.3733
  608MOL0     H83858   5.094   6.177   7.326 -1.1290 -0.3770 -0.2568
  608MOL0     H83859   5.224   6.124   7.231 -0.6752 -0.1969  1.6179
  608MOL0     H83860   5.039   6.328   7.098  0.3812  3.7199  0.2829
  608MOL0     H83861   5.091   6.369   7.266  0.4378  1.3792  0.0371
  608MOL0     H83862   5.055   6.532   7.038  0.9437 -0.9714  3.6321
  608MOL0     H83863   5.090   6.796   6.851 -1.1690  1.8803 -0.5034
  608MOL0     H83864   5.048   6.863   7.005  3.2668  1.8398 -2.1080
  608MOL0     H83865   4.958   6.717   6.953  0.4811 -2.2303  1.3733
  608MOL0     H83866   5.329   6.967   6.685 -0.8579  2.8217 -2.1948
  608MOL0     H83867   5.427   7.120   6.504  0.0007  0.3391  0.7379
  608MOL0     H83868   5.802   7.324   6.515  0.7353 -0.4677 -0.9664
  608MOL0     H83869   5.748   7.165   6.467 -0.8026 -0.8975 -2.9576
  608MOL0     H83870   5.801   7.292   6.252  2.5363  0.5540  1.6531
  608MOL0     H83871   5.620   7.300   6.273 -0.9449  0.0941  2.7983
  608MOL0     H83872   5.800   7.496   6.399 -1.4769  0.5430  0.7408
  608MOL0     H83873   5.629   7.515   6.340 -0.0019 -0.4092 -0.5085
  608MOL0     H83874   5.730   7.539   6.108  2.0725  1.1800 -2.0290
  608MOL0     H83875   5.879   7.490   6.176  0.5066 -1.6074  2.3320
  608MOL0     H83876   5.823   7.755   6.126  1.2176 -0.8386 -0.7204
  608MOL0     H83877   5.707   7.733   6.252  0.3582  1.6911 -1.4032
  608MOL0     H83878   5.899   7.708   6.428  1.3649  2.2743  1.2925
  608MOL0     H83879   5.894   7.859   6.326 -0.2122 -0.4199  1.3278
  608MOL0     H83880   6.069   7.744   6.171  1.8166 -4.1427 -0.7131
  608MOL0     H83881   6.066   7.615   6.282  0.7591  0.8740 -0.9110
  608MOL0     H83882   6.125   7.719   6.464  0.2169 -1.4299 -0.1027
  608MOL0     H83883   6.131   7.888   6.385  1.9497  0.3088 -2.2937
  608MOL0     H83884   5.723   7.245   6.780 -1.0087  0.3592 -0.6285
  608MOL0     H83885   5.674   7.041   6.935  0.1695  0.8422  0.2620
  608MOL0     H83886   5.522   6.685   7.040  0.0986 -0.2213 -1.1955
  608MOL0     H83887   5.455   6.452   7.108  0.6696 -0.5238 -1.2036
  608MOL0     H83888   4.364   5.429   6.641 -0.4074  1.0369  0.1290
  608MOL0     H83889   4.179   5.542   6.554  1.3071  0.1100  0.1353
  608MOL0     H83890   3.891   5.648   6.290 -0.5178  0.9577 -0.6286
  608MOL0     H83891   3.718   5.802   6.228  0.4278 -1.3053 -0.5666
  608MOL0     H83892   3.348   5.807   6.432  1.5025  0.1013 -1.2494
  608MOL0     H83893   3.417   5.930   6.517 -2.3196 -0.3413  0.8228
  608MOL0     H83894   3.370   6.106   6.333  0.2059  1.1297 -0.2228
  608MOL0     H83895   3.236   6.029   6.414  2.6010  1.6860  1.5665
  608MOL0     H83896   3.219   6.062   6.171 -1.8827 -0.0639  0.3386
  608MOL0     H83897   3.353   5.959   6.141  0.1637  1.6129 -0.2234
  608MOL0     H83898   3.211   5.761   6.195 -0.4625 -0.3906  0.6729
  608MOL0     H83899   3.134   5.876   6.082 -1.7649  2.1443  0.2739
  608MOL0     H83900   2.862   5.898   6.395  1.7529  2.5077  0.0724
  608MOL0     H83901   3.485   5.701   6.557 -0.1998 -0.3483  0.4137
  608MOL0     H83902   3.527   5.535   6.686  0.3845  1.5741 -0.9547
  608MOL0     H83903   3.587   5.392   6.604  0.3338  1.7428 -2.8938
  608MOL0     H83904   3.700   5.489   6.708  0.0006  0.0367  0.6045
  609MOL0     O83905   3.367  10.870  11.404  0.8685 -0.2090 -0.1725
  609MOL0     C83906   3.307  10.790  11.471 -0.0824 -0.0023 -0.3814
  609MOL0     O83907   3.354  10.698  11.560 -0.0485 -0.0858 -0.0778
  609MOL0     C83908   3.490  10.665  11.575 -0.2672  0.5327  0.1219
  609MOL0     C83909   3.550  10.667  11.702 -1.1357 -0.1904 -0.1009
  609MOL0     C83910   3.675  10.608  11.723  0.5070  0.0541  0.3774
  609MOL0     C83911   3.747  10.547  11.616  0.9223 -0.2465 -0.0707
  609MOL0     O83912   3.868  10.492  11.640 -0.1323  0.2209  0.0179
  609MOL0     C83913   3.892  10.427  11.766 -0.9102  0.1971 -0.8764
  609MOL0     C83914   4.005  10.493  11.837 -0.2522 -0.3176  0.4651
  609MOL0     C83915   4.055  10.412  11.958  0.3695 -0.4774  0.0956
  609MOL0     C83916   4.198  10.449  12.004 -0.8935  0.2563  0.0827
  609MOL0     C83917   4.256  10.353  12.112  0.6386 -0.0650 -0.2650
  609MOL0     C83918   4.403  10.370  12.148 -0.4904 -0.0229 -0.0364
  609MOL0     C83919   4.447  10.259  12.250  0.3397 -1.1766  0.2034
  609MOL0     C83920   4.581  10.271  12.321 -0.3863  0.2710  0.8281
  609MOL0     N83921   4.627  10.407  12.366  0.1201  0.0903 -0.2821
  609MOL0     C83922   4.557  10.477  12.466  0.2632 -0.6075  0.5244
  609MOL0     C83923   4.629  10.594  12.472 -0.3609  0.1688 -0.3825
  609MOL0     C83924   4.607  10.708  12.567  0.7523 -0.5402  0.6790
  609MOL0     C83925   4.696  10.682  12.691 -0.0977  0.1545  0.5218
  609MOL0     C83926   4.723  10.801  12.786 -0.4828 -0.5921  0.2174
  609MOL0     C83927   4.793  10.754  12.917 -0.6933  0.2486  0.3307
  609MOL0     O83928   4.794  10.851  13.020 -0.0062 -0.9675  0.5670
  609MOL0     C83929   4.859  10.814  13.130  0.1787 -0.4215  0.6014
  609MOL0     C83930   4.929  10.691  13.141  0.5693 -0.5601 -0.4630
  609MOL0     C83931   4.980  10.656  13.267  0.4366 -1.1163 -0.0690
  609MOL0     C83932   5.055  10.531  13.274  0.2575  0.5407 -0.3058
  609MOL0     C83933   4.944  10.727  13.390 -1.0501  0.0604  0.3025
  609MOL0     C83934   4.973  10.677  13.526  0.4571 -0.0711 -0.1741
  609MOL0     O83935   4.961  10.773  13.626 -0.0824  0.4505  0.4977
  609MOL0     C83936   5.008  10.736  13.744  0.5757 -1.1812 -0.5786
  609MOL0     C83937   5.136  10.698  13.783  0.1478 -0.5514 -0.2725
  609MOL0     C83938   5.160  10.655  13.918 -0.0884  0.1990  0.9920
  609MOL0     C83939   5.061  10.639  14.010 -1.4522 -0.9311 -0.3653
  609MOL0     O83940   5.094  10.599  14.137 -0.2589 -0.1400  0.4431
  609MOL0     C83941   5.092  10.698  14.240 -0.2734 -0.0263  0.8749
  609MOL0     C83942   5.188  10.810  14.220 -0.2258 -0.4754  0.0021
  609MOL0     C83943   5.332  10.766  14.190  0.3657  0.5931 -0.6877
  609MOL0     C83944   5.447  10.880  14.195 -0.1078  0.4068 -0.4308
  609MOL0     C83945   5.600  10.850  14.178  0.4341  0.8312  0.0041
  609MOL0     C83946   5.663  10.725  14.248 -0.3108  0.5270  0.2507
  609MOL0     C83947   5.810  10.696  14.184  1.8164 -0.4340  0.1554
  609MOL0     C83948   5.911  10.635  14.274 -0.3054 -0.1102 -0.3645
  609MOL0    Cl83949   5.941  10.739  14.421  0.0554  0.1887  0.3968
  609MOL0     C83950   4.937  10.681  13.983 -0.6640 -0.2135  0.8122
  609MOL0     C83951   4.913  10.733  13.853 -0.2142 -0.9638 -0.5561
  609MOL0     O83952   4.995  10.560  13.544  0.2703 -0.0183 -0.0617
  609MOL0     C83953   4.878  10.853  13.374  0.6878  1.0266  0.4707
  609MOL0     C83954   4.842  10.897  13.245  0.6271  0.4014 -0.3015
  609MOL0     N83955   4.741  10.589  12.389 -0.5249  0.7266  0.7030
  609MOL0     N83956   4.734  10.476  12.323  0.6161 -0.0552 -0.1582
  609MOL0     C83957   3.696  10.545  11.486 -0.7298  0.2610 -0.0545
  609MOL0     C83958   3.562  10.605  11.471 -0.3007 -0.0328 -0.6112
  609MOL0     C83959   3.166  10.775  11.450 -0.0784  0.3550  0.2157
  609MOL0     C83960   3.116  10.702  11.343 -0.1835 -0.3347  0.9083
  609MOL0     C83961   2.977  10.687  11.328 -0.3906 -0.5873 -0.5432
  609MOL0     C83962   2.889  10.751  11.414  0.3709  0.1959  0.0601
  609MOL0     O83963   2.755  10.726  11.411  0.1322 -0.4851  0.0895
  609MOL0     C83964   2.723  10.612  11.330  1.8378 -0.7847  0.0262
  609MOL0     C83965   2.587  10.556  11.390 -0.3126 -0.2244  0.5146
  609MOL0     C83966   2.516  10.472  11.282  0.4602  0.2790 -0.2664
  609MOL0     C83967   2.401  10.382  11.342  0.5660  0.2005  0.9189
  609MOL0     C83968   2.311  10.463  11.435  0.5374 -0.3065  0.5266
  609MOL0     C83969   2.245  10.542  11.500  0.7322  0.4161 -0.3345
  609MOL0     C83970   2.934  10.842  11.509 -0.2935  0.5177  0.5579
  609MOL0     C83971   3.076  10.851  11.528  0.1089 -0.0552  0.1975
  609MOL0     C83972   3.127  10.948  11.633 -0.5100  0.2625 -0.7627
  609MOL0     H83973   3.494  10.712  11.783  0.9305 -1.1494  1.9460
  609MOL0     H83974   3.696  10.589  11.828 -1.1245  2.2592  1.1887
  609MOL0     H83975   3.927  10.325  11.750 -0.0153  0.0787  1.3772
  609MOL0     H83976   3.801  10.414  11.827 -1.2236  2.1194 -0.8840
  609MOL0     H83977   4.084  10.501  11.761  0.9823  0.4667  1.7805
  609MOL0     H83978   3.980  10.594  11.868 -2.4488 -0.7246  0.1775
  609MOL0     H83979   3.983  10.424  12.039  0.9413 -0.1073  0.5496
  609MOL0     H83980   4.065  10.310  11.921  0.9010  0.7739 -3.7846
  609MOL0     H83981   4.257  10.438  11.912 -1.3087 -1.7836  0.0192
  609MOL0     H83982   4.204  10.551  12.044 -2.9524 -0.4948  2.5671
  609MOL0     H83983   4.250  10.255  12.065  0.6830 -1.1206  1.8344
  609MOL0     H83984   4.200  10.351  12.206  2.1098 -0.1476  0.6228
  609MOL0     H83985   4.470  10.363  12.061  0.1003  2.1654  0.1711
  609MOL0     H83986   4.427  10.470  12.184 -0.5991  0.3280 -0.9015
  609MOL0     H83987   4.438  10.167  12.193  1.3187 -0.0532 -1.8674
  609MOL0     H83988   4.377  10.270  12.334 -0.7759  3.1702 -1.0316
  609MOL0     H83989   4.582  10.213  12.413 -0.3774  2.2695  2.1653
  609MOL0     H83990   4.657  10.222  12.260 -1.4053  2.6113 -2.6859
  609MOL0     H83991   4.474  10.442  12.526 -1.0126  1.6206  0.2011
  609MOL0     H83992   4.503  10.704  12.600 -0.4860 -0.7866 -2.8084
  609MOL0     H83993   4.626  10.802  12.513 -0.8898 -0.9933 -0.7925
  609MOL0     H83994   4.651  10.597  12.742  1.8549  0.7313  3.4144
  609MOL0     H83995   4.792  10.638  12.662 -0.4550 -0.5590  0.4199
  609MOL0     H83996   4.799  10.871  12.748  0.5823 -2.0210 -0.3903
  609MOL0     H83997   4.626  10.849  12.802 -0.7294 -0.3928 -1.5972
  609MOL0     H83998   4.743  10.668  12.962 -2.2758  2.1291  2.4232
  609MOL0     H83999   4.897  10.740  12.888 -0.5791  0.6709  0.5237
  609MOL0     H84000   4.951  10.625  13.058 -4.3095  0.9873 -3.4410
  609MOL0     H84001   5.081  10.491  13.176 -1.2489  0.4762 -0.6945
  609MOL0     H84002   4.987  10.458  13.317 -1.4760  1.7085 -0.9608
  609MOL0     H84003   5.145  10.549  13.333 -0.6285  2.8342  0.4819
  609MOL0     H84004   5.214  10.708  13.709  1.8976  4.6870  1.8080
  609MOL0     H84005   5.263  10.624  13.933 -0.3968 -0.7762  1.1406
  609MOL0     H84006   4.998  10.749  14.261 -1.9450 -2.6438  0.2929
  609MOL0     H84007   5.125  10.653  14.334  2.0997 -0.5006 -0.0983
  609MOL0     H84008   5.157  10.878  14.140  0.6378 -0.2199 -0.1235
  609MOL0     H84009   5.188  10.873  14.309  0.2703  0.2781 -0.5274
  609MOL0     H84010   5.361  10.725  14.093  1.1229 -1.4778  0.3323
  609MOL0     H84011   5.356  10.693  14.268 -2.1267 -0.9869 -1.2950
  609MOL0     H84012   5.446  10.921  14.296 -3.1533 -1.3269  0.3655
  609MOL0     H84013   5.427  10.954  14.116  1.1723  0.4665 -0.7176
  609MOL0     H84014   5.617  10.839  14.071  0.4879 -0.6506  0.1396
  609MOL0     H84015   5.655  10.936  14.216  1.6195  0.2517 -0.3607
  609MOL0     H84016   5.612  10.632  14.222 -0.1024  0.6062 -0.4490
  609MOL0     H84017   5.667  10.736  14.357 -0.5687 -0.7320  0.4062
  609MOL0     H84018   5.850  10.792  14.152 -1.3275  0.3983 -1.7994
  609MOL0     H84019   5.795  10.636  14.094  1.1087  0.2929 -0.2245
  609MOL0     H84020   6.003  10.619  14.218 -1.6686  0.9601 -3.0943
  609MOL0     H84021   5.879  10.536  14.309 -1.0837  0.2956  0.0990
  609MOL0     H84022   4.856  10.699  14.053 -1.9338  0.5122 -0.7690
  609MOL0     H84023   4.818  10.786  13.847  0.5891  0.7040  0.5857
  609MOL0     H84024   4.847  10.898  13.468 -1.2995 -1.2234  0.9944
  609MOL0     H84025   4.794  10.995  13.245  1.2293  0.7415  1.8992
  609MOL0     H84026   3.747  10.503  11.400 -2.0079  0.2866 -0.8629
  609MOL0     H84027   3.522  10.606  11.370 -1.4484  2.7163 -0.2085
  609MOL0     H84028   3.178  10.659  11.265 -2.5842 -1.4738 -0.4860
  609MOL0     H84029   2.946  10.621  11.247  0.6656 -1.2990 -0.3954
  609MOL0     H84030   2.699  10.646  11.229  2.9449  2.8418  0.8612
  609MOL0     H84031   2.785  10.521  11.332  0.4593 -1.7599  0.0777
  609MOL0     H84032   2.520  10.633  11.431  0.6667 -0.0690  1.9010
  609MOL0     H84033   2.607  10.485  11.471  0.0569 -1.3966 -0.5617
  609MOL0     H84034   2.471  10.538  11.207  0.0275 -0.1941 -0.4288
  609MOL0     H84035   2.593  10.409  11.236  0.1253  0.4074 -1.0127
  609MOL0     H84036   2.433  10.294  11.398  0.6630 -1.9494 -2.2564
  609MOL0     H84037   2.341  10.345  11.258  0.5052  3.1889 -0.4978
  609MOL0     H84038   2.202  10.621  11.557  2.3295  2.1227 -1.3766
  609MOL0     H84039   2.867  10.906  11.564  0.3843  1.0470  0.7819
  609MOL0     H84040   3.047  11.005  11.680  0.9454  1.0595  0.8651
  609MOL0     H84041   3.178  10.899  11.716 -0.5702  2.4760  0.6551
  609MOL0     H84042   3.198  11.023  11.600 -0.0732 -0.4196 -1.4154
  610MOL0     O84043  10.909   7.762  10.642  0.2291 -0.2202 -0.4879
  610MOL0     C84044  10.939   7.652  10.587  0.4987 -0.6125  0.1897
  610MOL0     O84045  11.070   7.609  10.560 -0.0905  0.1916  0.4338
  610MOL0     C84046  11.165   7.681  10.627  0.0231 -0.4780  1.9975
  610MOL0     C84047  11.274   7.732  10.553  0.0888 -0.4480  0.8200
  610MOL0     C84048  11.377   7.797  10.621  0.4762 -0.5561 -0.2743
  610MOL0     C84049  11.382   7.809  10.757  0.0903 -0.4264 -1.1359
  610MOL0     O84050  11.480   7.878  10.826 -0.3852 -0.0713 -0.7366
  610MOL0     C84051  11.593   7.926  10.770 -0.4276 -0.2506 -0.6377
  610MOL0     C84052  11.685   7.970  10.891 -0.5440  0.2089 -0.1470
  610MOL0     C84053  11.812   8.020  10.824 -0.4101 -0.1826 -0.8418
  610MOL0     C84054  11.918   8.095  10.912  0.0876  0.4371  0.1416
  610MOL0     C84055  11.866   8.234  10.945 -0.4250 -0.4711  0.5212
  610MOL0     C84056  11.977   8.326  10.986 -0.6402  0.1133 -0.7642
  610MOL0     C84057  11.926   8.459  11.046 -0.1702  0.5440 -0.0479
  610MOL0     C84058  11.889   8.443  11.200  0.3086 -0.3671 -0.1448
  610MOL0     N84059  11.756   8.373  11.234  0.3241 -0.1820 -0.6413
  610MOL0     C84060  11.629   8.447  11.230  0.4234  0.5273 -0.1851
  610MOL0     C84061  11.533   8.346  11.241 -1.2777 -0.2903  0.5019
  610MOL0     C84062  11.390   8.373  11.247  0.2835 -0.5645  1.2232
  610MOL0     C84063  11.324   8.337  11.378 -0.0152  0.1852 -0.5833
  610MOL0     C84064  11.173   8.326  11.365  0.9721  0.0666 -0.6304
  610MOL0     C84065  11.108   8.253  11.489 -0.0932 -0.5785  0.1419
  610MOL0     O84066  11.089   8.350  11.594 -0.4892  0.5387  0.4803
  610MOL0     C84067  11.007   8.306  11.694 -0.7593  0.8435 -0.5467
  610MOL0     C84068  10.961   8.407  11.777 -0.0286  0.2835  0.2391
  610MOL0     C84069  10.875   8.375  11.884 -0.3687 -1.0131 -0.5157
  610MOL0     C84070  10.831   8.492  11.975  0.4378 -0.2407 -0.7508
  610MOL0     C84071  10.830   8.240  11.913  0.3328 -0.7337  0.6062
  610MOL0     C84072  10.749   8.191  12.027  0.5629 -0.0897 -0.0625
  610MOL0     O84073  10.733   8.063  12.048 -0.4752  0.2668 -0.2379
  610MOL0     C84074  10.621   8.020  12.116  0.5876  0.0118  0.2823
  610MOL0     C84075  10.640   7.979  12.246  0.7776  0.6938 -0.8457
  610MOL0     C84076  10.540   7.913  12.312 -0.1952  0.2109  0.8666
  610MOL0     C84077  10.409   7.899  12.251  0.0484 -0.3183  0.2946
  610MOL0     O84078  10.308   7.828  12.313 -0.8088 -0.4856 -0.2562
  610MOL0     C84079  10.320   7.814  12.454  0.0975 -0.2129 -0.3576
  610MOL0     C84080  10.181   7.778  12.509  0.8081 -0.3413  0.2884
  610MOL0     C84081  10.160   7.770  12.659  0.6967  0.3636 -1.1116
  610MOL0     C84082  10.024   7.692  12.682  0.2111 -0.5238 -0.3084
  610MOL0     C84083  10.012   7.629  12.819  0.0863  0.0316 -0.3773
  610MOL0     C84084   9.989   7.720  12.945  0.1069 -0.3738 -0.2451
  610MOL0     C84085  10.114   7.756  13.028  0.1414 -0.0600 -0.5562
  610MOL0     C84086  10.063   7.819  13.164 -0.5824  0.1614  1.0292
  610MOL0    Cl84087  10.200   7.876  13.261  0.0634 -0.0306  0.1806
  610MOL0     C84088  10.384   7.959  12.131  0.0091  0.6836 -0.5971
  610MOL0     C84089  10.489   8.011  12.060 -0.9127 -0.2881  0.0103
  610MOL0     O84090  10.691   8.272  12.092 -0.0347  0.0471 -0.0556
  610MOL0     C84091  10.885   8.146  11.827 -0.2123  0.7468 -0.2980
  610MOL0     C84092  10.973   8.175  11.727 -0.1202  0.2168 -0.6224
  610MOL0     N84093  11.602   8.227  11.254  0.2919  0.9604 -0.3454
  610MOL0     N84094  11.733   8.244  11.257 -0.1523  0.7388  0.4333
  610MOL0     C84095  11.276   7.757  10.829  0.4710  0.7511  0.5327
  610MOL0     C84096  11.166   7.692  10.765  0.1902  0.1596 -0.0656
  610MOL0     C84097  10.831   7.562  10.538  0.3423  0.9337  0.4036
  610MOL0     C84098  10.841   7.482  10.426  0.0092  0.0890  0.2305
  610MOL0     C84099  10.743   7.405  10.359  0.5843 -0.4533  0.4372
  610MOL0     C84100  10.617   7.407  10.422  0.0056 -0.0891  0.1999
  610MOL0     O84101  10.522   7.323  10.381 -0.2835  0.8490 -0.2517
  610MOL0     C84102  10.556   7.191  10.339 -0.4823 -0.8015  0.1458
  610MOL0     C84103  10.419   7.111  10.340  0.4389 -0.1951  0.0008
  610MOL0     C84104  10.394   7.013  10.233  0.0018  0.1967  0.1083
  610MOL0     C84105  10.510   6.916  10.196  0.0468 -0.1829 -0.1875
  610MOL0     C84106  10.451   6.830  10.093  0.3308 -0.4122  0.1869
  610MOL0     C84107  10.411   6.766  10.005 -0.1444  0.5331 -0.2965
  610MOL0     C84108  10.597   7.489  10.530  0.4120  0.3602 -0.3913
  610MOL0     C84109  10.701   7.565  10.586  0.2367  0.3888  0.2824
  610MOL0     C84110  10.666   7.650  10.704  0.1787 -0.9280 -0.1740
  610MOL0     H84111  11.271   7.731  10.445  3.3318  0.1891  0.6248
  610MOL0     H84112  11.460   7.836  10.564 -0.5112  3.0636  0.5113
  610MOL0     H84113  11.577   8.015  10.708  1.9231 -0.8841 -2.2957
  610MOL0     H84114  11.649   7.848  10.717  2.0772  1.8094 -1.2091
  610MOL0     H84115  11.635   8.047  10.950 -1.2521 -2.4498  3.0058
  610MOL0     H84116  11.707   7.894  10.967  0.5096  0.3991 -0.2361
  610MOL0     H84117  11.862   7.930  10.787 -0.0718 -0.4554  0.2308
  610MOL0     H84118  11.779   8.083  10.741 -3.2001  1.1878  1.1374
  610MOL0     H84119  11.929   8.040  11.005 -0.1368 -4.2918 -2.3064
  610MOL0     H84120  12.017   8.104  10.866  0.9198  0.9077  1.9496
  610MOL0     H84121  11.790   8.234  11.024  0.9742 -1.4875  1.9094
  610MOL0     H84122  11.823   8.277  10.854 -1.0064 -2.0255  0.0303
  610MOL0     H84123  12.043   8.269  11.052 -0.6089  1.5336  0.5045
  610MOL0     H84124  12.037   8.352  10.898  2.5059 -2.1904  0.5067
  610MOL0     H84125  11.837   8.487  10.989 -0.5074  2.2095  1.2326
  610MOL0     H84126  12.002   8.535  11.026  0.4443 -0.4031 -1.4453
  610MOL0     H84127  11.974   8.397  11.251  0.8436 -0.8971 -1.4685
  610MOL0     H84128  11.888   8.544  11.242 -1.6165 -1.1879  1.9896
  610MOL0     H84129  11.605   8.549  11.204  1.7166  0.2872 -2.6363
  610MOL0     H84130  11.357   8.307  11.166  1.5901  0.9534 -0.6554
  610MOL0     H84131  11.361   8.473  11.214 -2.5563 -0.1517  4.3941
  610MOL0     H84132  11.364   8.238  11.401  0.7877  0.2428 -1.6002
  610MOL0     H84133  11.359   8.409  11.452 -0.4973 -0.4305  0.2501
  610MOL0     H84134  11.139   8.427  11.340  2.0780  0.7202  0.4360
  610MOL0     H84135  11.157   8.262  11.277  0.6533  0.5989 -0.9700
  610MOL0     H84136  11.009   8.213  11.465  0.3606 -2.4034  1.1104
  610MOL0     H84137  11.179   8.175  11.517  2.3350  1.8049  1.1331
  610MOL0     H84138  10.997   8.506  11.750 -1.5893  1.0656  0.9263
  610MOL0     H84139  10.877   8.471  12.071 -2.4962  0.8966  1.0349
  610MOL0     H84140  10.724   8.500  11.994  0.6656  1.3118 -0.0262
  610MOL0     H84141  10.873   8.588  11.942  1.2259 -0.8249 -1.4960
  610MOL0     H84142  10.732   7.989  12.303 -0.1493 -1.7896  1.2843
  610MOL0     H84143  10.565   7.875  12.411 -1.0625 -0.1576  0.9509
  610MOL0     H84144  10.384   7.731  12.485 -0.7565 -0.7641 -0.0301
  610MOL0     H84145  10.351   7.904  12.508  1.2620  0.1858 -1.6201
  610MOL0     H84146  10.106   7.845  12.466  2.6781  0.8464 -1.3012
  610MOL0     H84147  10.163   7.680  12.466 -2.1971  0.1030  0.3185
  610MOL0     H84148  10.159   7.867  12.709 -2.1582 -1.6207  3.2706
  610MOL0     H84149  10.242   7.715  12.705  0.7038  2.3389  1.4416
  610MOL0     H84150  10.020   7.606  12.615  0.5241 -1.0028  0.2748
  610MOL0     H84151   9.934   7.747  12.651 -0.3694 -2.4278 -2.1938
  610MOL0     H84152   9.914   7.579  12.821  0.7740 -1.3391  0.3117
  610MOL0     H84153  10.091   7.555  12.834  2.0932  2.2123  0.3537
  610MOL0     H84154   9.930   7.657  13.013  0.4274 -0.3636  0.0424
  610MOL0     H84155   9.933   7.804  12.903 -2.1773 -1.8525 -0.3479
  610MOL0     H84156  10.182   7.828  12.981  1.1058 -0.1080  0.6946
  610MOL0     H84157  10.178   7.670  13.048  2.2343  1.4668 -0.3674
  610MOL0     H84158  10.021   7.737  13.223  2.4365 -1.6435  0.8657
  610MOL0     H84159   9.992   7.900  13.147  1.8948  2.7572  2.1431
  610MOL0     H84160  10.280   7.964  12.100 -1.0358 -2.6475  1.8148
  610MOL0     H84161  10.471   8.057  11.963  1.6162  1.7984  0.4207
  610MOL0     H84162  10.857   8.042  11.837 -1.2948  1.0784  0.2883
  610MOL0     H84163  11.003   8.088  11.670  3.2199  1.6203 -1.2856
  610MOL0     H84164  11.288   7.778  10.935  2.1392  1.9893  0.1436
  610MOL0     H84165  11.098   7.631  10.824 -0.7845  0.7438 -0.5655
  610MOL0     H84166  10.935   7.480  10.372  0.8011  0.2544  1.5465
  610MOL0     H84167  10.769   7.351  10.268  1.1709  2.7682 -1.4818
  610MOL0     H84168  10.596   7.182  10.237  0.0808 -3.7133  0.5536
  610MOL0     H84169  10.627   7.147  10.410 -0.6451  1.3329  1.7137
  610MOL0     H84170  10.339   7.184  10.353  0.4263  0.2168 -2.1111
  610MOL0     H84171  10.420   7.069  10.441 -1.6349 -2.3686 -0.7989
  610MOL0     H84172  10.325   6.940  10.276 -1.0035  1.5495  0.8807
  610MOL0     H84173  10.345   7.066  10.151  0.8210  0.1085 -0.4544
  610MOL0     H84174  10.537   6.856  10.283 -0.5900  0.9019  0.7976
  610MOL0     H84175  10.605   6.966  10.174  1.1222 -1.1947  1.8265
  610MOL0     H84176  10.367   6.708   9.926  1.1706  1.2565 -1.6200
  610MOL0     H84177  10.492   7.491  10.559  0.2820 -2.0662 -0.4806
  610MOL0     H84178  10.562   7.640  10.736 -1.9331  0.7268 -5.3813
  610MOL0     H84179  10.731   7.618  10.786 -2.2658 -2.4802  1.2885
  610MOL0     H84180  10.672   7.758  10.683  1.0304 -0.5494  1.7579
  611MOL0     O84181  10.429   4.586   3.431 -0.4002 -0.0994 -0.0040
  611MOL0     C84182  10.329   4.632   3.378  0.8752  0.8274  0.1710
  611MOL0     O84183  10.305   4.633   3.243  0.6432  0.4852 -0.3225
  611MOL0     C84184  10.414   4.598   3.164  0.5676 -1.1949 -0.3237
  611MOL0     C84185  10.542   4.642   3.184  0.6239 -0.3409 -0.0727
  611MOL0     C84186  10.654   4.590   3.118  0.2206  1.2420 -0.0696
  611MOL0     C84187  10.629   4.506   3.008 -0.3422  0.4171  0.1697
  611MOL0     O84188  10.727   4.445   2.926  0.4497 -0.0849  0.1253
  611MOL0     C84189  10.857   4.412   2.978  0.1848  1.3588 -0.7061
  611MOL0     C84190  10.952   4.514   2.915  0.7711  0.0231 -0.9935
  611MOL0     C84191  11.098   4.483   2.938 -0.2699  0.0793  0.2883
  611MOL0     C84192  11.190   4.607   2.905 -1.3005 -0.1126 -0.3855
  611MOL0     C84193  11.344   4.566   2.911  0.7120  0.4368  0.6142
  611MOL0     C84194  11.425   4.691   2.921 -0.1088 -0.2588  0.5715
  611MOL0     C84195  11.581   4.663   2.934 -1.0260  0.5581 -0.2137
  611MOL0     C84196  11.652   4.670   2.805 -0.0147  0.2289  0.4309
  611MOL0     N84197  11.615   4.578   2.701 -0.3700 -0.4500  0.0636
  611MOL0     C84198  11.512   4.584   2.605  0.1971  0.1542  0.9845
  611MOL0     C84199  11.517   4.463   2.544  0.1732 -0.7238  0.3621
  611MOL0     C84200  11.414   4.434   2.437  0.4569 -0.1146 -0.3599
  611MOL0     C84201  11.378   4.287   2.434 -0.1890 -0.0026  0.3485
  611MOL0     C84202  11.312   4.239   2.567 -0.7435 -0.8882 -0.3234
  611MOL0     C84203  11.241   4.104   2.521  0.0260  0.2460  0.6778
  611MOL0     O84204  11.187   4.045   2.637 -0.3516 -0.4304  0.0208
  611MOL0     C84205  11.056   4.052   2.660  0.1629  0.1554 -0.0381
  611MOL0     C84206  10.974   4.156   2.611  0.3457 -0.3156 -0.0679
  611MOL0     C84207  10.830   4.158   2.636 -0.5083 -0.1903  0.7807
  611MOL0     C84208  10.753   4.265   2.561  0.0002  0.5858  0.0194
  611MOL0     C84209  10.769   4.057   2.711  0.6533 -0.1478  0.0059
  611MOL0     C84210  10.625   4.042   2.747 -0.9870 -0.0899 -0.8284
  611MOL0     O84211  10.558   4.161   2.745 -0.4246  0.3056  0.1218
  611MOL0     C84212  10.421   4.159   2.731  0.8284  0.3353  0.3114
  611MOL0     C84213  10.352   4.231   2.629 -0.3458  0.2726  0.1647
  611MOL0     C84214  10.219   4.228   2.624  0.3511 -0.8309 -1.0334
  611MOL0     C84215  10.144   4.167   2.731 -0.1519  0.6062  0.1918
  611MOL0     O84216  10.008   4.180   2.706  0.3940  0.8765  0.7245
  611MOL0     C84217   9.919   4.115   2.791 -0.3866 -0.5989  0.1209
  611MOL0     C84218   9.778   4.158   2.768 -0.2364  0.3057  0.1366
  611MOL0     C84219   9.674   4.048   2.800 -0.5319 -0.9428 -0.0040
  611MOL0     C84220   9.541   4.069   2.721  0.6237  0.4212 -0.6139
  611MOL0     C84221   9.445   3.967   2.791  0.5797  0.2967 -0.7942
  611MOL0     C84222   9.308   3.975   2.729  0.4529  0.3397  0.2051
  611MOL0     C84223   9.214   3.867   2.784  0.0529  0.2935  0.4537
  611MOL0     C84224   9.077   3.865   2.713 -0.1172  0.0407 -0.8951
  611MOL0    Cl84225   8.968   3.761   2.807  0.5013  0.1781  0.3732
  611MOL0     C84226  10.205   4.105   2.844  0.1345 -0.3529  0.7555
  611MOL0     C84227  10.346   4.105   2.837  0.0453 -0.0103  0.9145
  611MOL0     O84228  10.575   3.930   2.754  0.9411 -0.1835 -0.2159
  611MOL0     C84229  10.853   3.949   2.754 -0.4691 -0.5577 -0.2361
  611MOL0     C84230  10.994   3.955   2.727  0.2500  0.2592  0.3981
  611MOL0     N84231  11.612   4.389   2.610 -0.0522 -0.4236  0.2105
  611MOL0     N84232  11.675   4.458   2.686 -0.4628 -0.1474 -0.1744
  611MOL0     C84233  10.492   4.480   2.970 -0.1737  0.8309 -0.8268
  611MOL0     C84234  10.383   4.522   3.053  0.3441  0.9782  0.5323
  611MOL0     C84235  10.221   4.677   3.473  0.0303 -0.1043 -0.3700
  611MOL0     C84236  10.121   4.759   3.414 -0.4490  1.2288  0.5177
  611MOL0     C84237  10.040   4.822   3.501  0.5809  0.0651 -0.0905
  611MOL0     C84238  10.023   4.790   3.644 -0.7251  1.4205  0.3421
  611MOL0     O84239   9.937   4.844   3.735 -0.1914 -0.4316 -0.5890
  611MOL0     C84240   9.834   4.929   3.693 -0.7751  0.7173 -0.0490
  611MOL0     C84241   9.713   4.884   3.767  0.6566  0.4926 -0.2061
  611MOL0     C84242   9.581   4.961   3.743  0.2234 -0.6323  0.3268
  611MOL0     C84243   9.497   4.918   3.628  0.5013 -1.0408 -0.4346
  611MOL0     C84244   9.429   4.797   3.666 -0.0847  0.8384 -0.3487
  611MOL0     C84245   9.343   4.713   3.681  0.1150  0.3919 -0.0769
  611MOL0     C84246  10.112   4.694   3.696  0.2065 -0.7406  0.1083
  611MOL0     C84247  10.213   4.645   3.614  0.5590 -0.3129  0.5355
  611MOL0     C84248  10.302   4.543   3.686 -0.0459  0.3691 -0.7123
  611MOL0     H84249  10.570   4.699   3.273  0.3116  0.3426 -0.4080
  611MOL0     H84250  10.749   4.612   3.164 -0.7002  0.0260  2.6279
  611MOL0     H84251  10.893   4.316   2.941  2.4764  1.5883  0.7366
  611MOL0     H84252  10.859   4.396   3.086 -0.8970 -2.3297 -1.1101
  611MOL0     H84253  10.939   4.504   2.807 -1.8074 -0.8256 -0.6702
  611MOL0     H84254  10.927   4.620   2.930  1.3945  0.2551 -1.5586
  611MOL0     H84255  11.116   4.464   3.044 -0.2498  1.3366  0.5230
  611MOL0     H84256  11.129   4.400   2.874  0.1278 -0.9605  1.7745
  611MOL0     H84257  11.159   4.639   2.805 -0.2185 -1.6445 -1.2437
  611MOL0     H84258  11.173   4.677   2.987  0.1734 -2.5782  2.2116
  611MOL0     H84259  11.363   4.504   2.823 -1.2034  2.2700 -1.2244
  611MOL0     H84260  11.356   4.522   3.010 -0.9004  1.5611  1.3486
  611MOL0     H84261  11.412   4.759   2.836  0.7750 -1.0079 -0.1888
  611MOL0     H84262  11.398   4.741   3.015 -0.8372 -0.6022  0.5501
  611MOL0     H84263  11.590   4.566   2.984 -1.4957  0.9570  0.6655
  611MOL0     H84264  11.634   4.733   2.999  1.4838 -1.9501  0.6537
  611MOL0     H84265  11.624   4.765   2.759 -1.9853 -0.5601 -0.1017
  611MOL0     H84266  11.760   4.657   2.821  0.4483 -0.6607 -2.7479
  611MOL0     H84267  11.439   4.663   2.589 -0.0191 -0.2117  0.1088
  611MOL0     H84268  11.453   4.454   2.338  2.6309 -1.9578  0.0383
  611MOL0     H84269  11.329   4.499   2.460  1.3489  0.5068  1.3918
  611MOL0     H84270  11.308   4.271   2.352 -2.6753 -1.6250  2.6267
  611MOL0     H84271  11.474   4.238   2.417  0.3045  0.6937  1.0181
  611MOL0     H84272  11.384   4.217   2.647 -2.6683 -0.1789  1.7356
  611MOL0     H84273  11.237   4.314   2.595 -1.3276 -2.2892  2.2092
  611MOL0     H84274  11.176   4.109   2.433  0.2529 -0.6280  0.4482
  611MOL0     H84275  11.322   4.037   2.492  2.2170  1.6907  3.0212
  611MOL0     H84276  11.025   4.235   2.557  0.7124  0.6415  1.6025
  611MOL0     H84277  10.737   4.350   2.628 -0.5261  2.1348 -1.9829
  611MOL0     H84278  10.655   4.239   2.518 -1.3346  1.2443  2.4769
  611MOL0     H84279  10.815   4.305   2.480  0.0236 -0.4203 -0.4704
  611MOL0     H84280  10.412   4.254   2.541 -0.2533 -3.0008 -0.7734
  611MOL0     H84281  10.162   4.269   2.541 -0.8944  0.7840  0.5411
  611MOL0     H84282   9.918   4.006   2.790 -0.7758 -0.5992  0.5409
  611MOL0     H84283   9.944   4.151   2.891  2.3502 -1.2606 -0.2357
  611MOL0     H84284   9.755   4.236   2.841 -2.2335 -2.1594  2.3489
  611MOL0     H84285   9.753   4.194   2.668 -0.9289  0.0207  0.1972
  611MOL0     H84286   9.648   4.047   2.906 -3.0222 -0.4189 -0.5489
  611MOL0     H84287   9.717   3.949   2.785 -0.9759 -0.8807 -2.1311
  611MOL0     H84288   9.556   4.055   2.613 -0.8629  1.9684 -1.0731
  611MOL0     H84289   9.494   4.166   2.742  0.3642  0.7825 -2.5871
  611MOL0     H84290   9.475   3.866   2.765 -5.0750 -1.8449 -0.4781
  611MOL0     H84291   9.440   3.981   2.899  0.7538  2.4801 -1.0125
  611MOL0     H84292   9.323   3.941   2.626 -1.0643  1.1978 -0.3239
  611MOL0     H84293   9.266   4.076   2.725 -1.5465 -0.4580 -3.1467
  611MOL0     H84294   9.211   3.903   2.887 -3.7299  2.1056 -0.1328
  611MOL0     H84295   9.259   3.768   2.788  1.3445  0.9025  3.1011
  611MOL0     H84296   9.091   3.820   2.615 -0.0407 -3.0721  0.4072
  611MOL0     H84297   9.033   3.965   2.717 -0.2487 -0.0410  1.6369
  611MOL0     H84298  10.155   4.057   2.927 -2.0075 -1.2207 -0.9318
  611MOL0     H84299  10.397   4.057   2.920  2.6659  0.8851 -0.0943
  611MOL0     H84300  10.810   3.858   2.795 -0.2461 -4.1405 -6.5644
  611MOL0     H84301  11.056   3.875   2.767 -1.0218  0.2896  2.6005
  611MOL0     H84302  10.475   4.419   2.881  2.2645 -0.0103 -0.7939
  611MOL0     H84303  10.280   4.497   3.031  0.5183 -0.9417  1.6929
  611MOL0     H84304  10.114   4.804   3.315  1.3335  2.3956  0.8530
  611MOL0     H84305   9.982   4.905   3.463 -0.3476 -0.5057  0.0237
  611MOL0     H84306   9.854   5.034   3.716 -0.4296  1.6472 -3.9465
  611MOL0     H84307   9.809   4.913   3.588 -2.5225 -0.3486  0.4891
  611MOL0     H84308   9.739   4.891   3.873  0.0258  3.4223 -0.1326
  611MOL0     H84309   9.702   4.783   3.726  1.6565  0.6384 -0.8800
  611MOL0     H84310   9.514   4.951   3.828  0.9869 -3.0090  0.7222
  611MOL0     H84311   9.602   5.069   3.737  0.9354 -0.7886 -0.1855
  611MOL0     H84312   9.552   4.895   3.537  0.6647 -1.0232 -0.3407
  611MOL0     H84313   9.420   4.995   3.615  2.1668  0.8764  0.4191
  611MOL0     H84314   9.254   4.654   3.689  0.9469 -0.7378  1.6452
  611MOL0     H84315  10.091   4.660   3.797  0.7433  0.4865  0.6534
  611MOL0     H84316  10.391   4.589   3.728 -1.5656  0.9686  2.1114
  611MOL0     H84317  10.247   4.503   3.771 -0.9461  1.6971 -0.6391
  611MOL0     H84318  10.333   4.458   3.624  0.0751 -1.2013  1.4044
  612MOL0     O84319   8.825   5.298   4.637 -0.0056 -0.9264 -0.4791
  612MOL0     C84320   8.752   5.213   4.678 -0.5562  0.1451  0.1458
  612MOL0     O84321   8.800   5.092   4.724 -0.0476 -0.2529  0.0398
  612MOL0     C84322   8.934   5.057   4.729 -0.1945  0.0016  0.1409
  612MOL0     C84323   8.969   4.919   4.731  0.5246 -0.0545 -0.7568
  612MOL0     C84324   9.097   4.878   4.737 -0.2840  0.5526  0.1863
  612MOL0     C84325   9.207   4.964   4.744 -0.1291  0.2300  0.5683
  612MOL0     O84326   9.332   4.900   4.763 -0.0526  0.6639 -0.4629
  612MOL0     C84327   9.453   4.972   4.749  0.6616  0.3165  0.3422
  612MOL0     C84328   9.496   4.984   4.603 -0.8306 -0.0378  0.7015
  612MOL0     C84329   9.627   5.055   4.567 -0.2661 -0.0140 -0.7952
  612MOL0     C84330   9.744   4.989   4.635  0.1146  0.7263 -0.4566
  612MOL0     C84331   9.880   5.062   4.593 -0.2892  0.3388 -0.7503
  612MOL0     C84332  10.009   5.013   4.669  0.3754  0.7848  0.7980
  612MOL0     C84333  10.093   4.906   4.592  0.6794  0.2569  0.6866
  612MOL0     C84334  10.169   4.963   4.476 -0.3533  0.1585  0.9780
  612MOL0     N84335  10.277   5.051   4.517 -0.1487 -0.0044  0.4656
  612MOL0     C84336  10.249   5.184   4.544  0.3483 -0.4828 -1.0943
  612MOL0     C84337  10.372   5.231   4.575  0.4506  0.3094 -0.3699
  612MOL0     C84338  10.393   5.365   4.624 -0.1996 -2.0152  0.0630
  612MOL0     C84339  10.420   5.478   4.524 -0.3981  0.3135  0.1100
  612MOL0     C84340  10.520   5.442   4.413  0.7907  0.2734 -0.1278
  612MOL0     C84341  10.534   5.559   4.314  0.2251 -0.4779 -0.3018
  612MOL0     O84342  10.584   5.678   4.387 -0.4671  0.2979  0.1562
  612MOL0     C84343  10.708   5.684   4.442 -1.1054  0.0016  0.4366
  612MOL0     C84344  10.729   5.788   4.532  0.4203  0.1092  0.2713
  612MOL0     C84345  10.849   5.817   4.600 -0.1792  0.3892  0.5263
  612MOL0     C84346  10.851   5.937   4.696  0.1272  0.0804  0.1917
  612MOL0     C84347  10.956   5.726   4.580  0.1458  0.2626  0.2433
  612MOL0     C84348  11.095   5.750   4.643 -0.1636  1.2305  0.1257
  612MOL0     O84349  11.197   5.664   4.601 -0.1635  0.1351 -0.7446
  612MOL0     C84350  11.325   5.665   4.660  0.4202 -0.4690  0.0127
  612MOL0     C84351  11.398   5.545   4.673 -0.2612  0.2754 -0.5044
  612MOL0     C84352  11.521   5.535   4.725 -0.2052  0.5944 -1.3586
  612MOL0     C84353  11.587   5.648   4.784  0.5895  0.1481  1.0803
  612MOL0     O84354  11.705   5.637   4.850  0.0044 -0.6628 -0.0595
  612MOL0     C84355  11.760   5.754   4.921  0.2695  0.2487 -0.4227
  612MOL0     C84356  11.897   5.720   4.972 -0.4684 -0.7545 -0.5024
  612MOL0     C84357  11.988   5.698   4.858  1.4608  0.0843  0.7762
  612MOL0     C84358  12.136   5.744   4.902  0.9901 -0.3645 -0.2733
  612MOL0     C84359  12.246   5.731   4.800 -0.2290  0.9111  0.0905
  612MOL0     C84360  12.308   5.597   4.793  0.2587 -1.1260 -0.0286
  612MOL0     C84361  12.422   5.591   4.680  0.4463 -0.0278 -0.1931
  612MOL0     C84362  12.542   5.666   4.722 -0.2152 -0.3032  0.5418
  612MOL0    Cl84363  12.639   5.577   4.834 -0.6281 -0.1770 -0.0456
  612MOL0     C84364  11.516   5.768   4.765  0.1736 -1.1324  0.0167
  612MOL0     C84365  11.391   5.784   4.708  0.8296  0.5154  0.0509
  612MOL0     O84366  11.106   5.835   4.727  0.2830 -0.3352  0.6942
  612MOL0     C84367  10.940   5.615   4.493 -0.6513 -0.0882  0.0548
  612MOL0     C84368  10.819   5.594   4.419  1.1298  0.3573 -0.9895
  612MOL0     N84369  10.464   5.127   4.555  0.3910  0.1061 -0.0385
  612MOL0     N84370  10.400   5.020   4.516 -0.2579 -0.4991 -0.2568
  612MOL0     C84371   9.175   5.104   4.760 -0.9458  0.3170  0.0774
  612MOL0     C84372   9.044   5.149   4.739  0.5631  0.5010  0.0874
  612MOL0     C84373   8.606   5.231   4.690 -0.1271  0.2614  0.2518
  612MOL0     C84374   8.537   5.140   4.767 -1.3540  0.3779 -0.2612
  612MOL0     C84375   8.404   5.149   4.797  0.5413  0.3603 -1.2142
  612MOL0     C84376   8.330   5.252   4.740  0.1984  0.4936  0.9918
  612MOL0     O84377   8.194   5.248   4.731 -0.0193 -0.6766 -0.6791
  612MOL0     C84378   8.115   5.147   4.788 -0.4449 -0.8499 -0.4256
  612MOL0     C84379   8.084   5.045   4.689 -0.7689  0.2228  0.5926
  612MOL0     C84380   7.989   4.935   4.752 -0.3332 -0.6500 -0.4948
  612MOL0     C84381   7.996   4.804   4.673 -0.2542  0.4544  0.5012
  612MOL0     C84382   7.891   4.706   4.692  0.6434  0.2542 -0.1760
  612MOL0     C84383   7.807   4.626   4.725  1.0193 -0.1651  0.5116
  612MOL0     C84384   8.391   5.352   4.660  0.3538  1.3384  0.4050
  612MOL0     C84385   8.530   5.345   4.647 -1.0673 -0.3737  0.3654
  612MOL0     C84386   8.596   5.451   4.562 -0.8291  1.4629 -0.1561
  612MOL0     H84387   8.897   4.839   4.727 -0.1127  0.2561  2.1515
  612MOL0     H84388   9.113   4.772   4.752 -1.0579  0.4229  0.1638
  612MOL0     H84389   9.525   4.914   4.807  0.2228 -0.2105  0.3699
  612MOL0     H84390   9.447   5.070   4.797  0.6794 -0.9764  3.1792
  612MOL0     H84391   9.511   4.880   4.572  0.6064  0.4641 -0.4041
  612MOL0     H84392   9.411   5.015   4.541 -0.8548 -2.8264 -0.8264
  612MOL0     H84393   9.630   5.051   4.458 -2.3260  2.4161 -1.0169
  612MOL0     H84394   9.621   5.159   4.600 -0.6699 -0.3168  0.1448
  612MOL0     H84395   9.725   5.016   4.739  1.4941 -1.0812  0.2987
  612MOL0     H84396   9.738   4.881   4.619  0.5491  0.5451  0.5296
  612MOL0     H84397   9.874   5.167   4.622  0.2610 -0.0463  0.9035
  612MOL0     H84398   9.892   5.053   4.485  3.0828  0.4544 -0.4921
  612MOL0     H84399  10.069   5.102   4.689 -1.0603  1.7127  1.1256
  612MOL0     H84400   9.973   4.962   4.759 -2.3551  1.0381 -0.0576
  612MOL0     H84401  10.032   4.821   4.558  0.1434  0.0263  2.1547
  612MOL0     H84402  10.162   4.851   4.657 -1.1733 -1.0658  1.6482
  612MOL0     H84403  10.203   4.884   4.408 -1.9522 -0.4070  0.7858
  612MOL0     H84404  10.108   5.031   4.417 -0.9092 -0.7776  0.4545
  612MOL0     H84405  10.149   5.227   4.543  0.2930 -0.5636 -0.0089
  612MOL0     H84406  10.473   5.352   4.698  1.5015 -0.4035 -1.3914
  612MOL0     H84407  10.303   5.397   4.676  1.0604  2.0016  0.0550
  612MOL0     H84408  10.329   5.520   4.481  0.8417  0.7279 -2.2602
  612MOL0     H84409  10.454   5.560   4.588 -0.1814  0.5163 -0.2594
  612MOL0     H84410  10.622   5.421   4.445  1.0710  1.9758  0.1723
  612MOL0     H84411  10.485   5.350   4.366 -0.7271  0.8232 -0.1499
  612MOL0     H84412  10.601   5.530   4.233  0.3617 -1.7422  0.2373
  612MOL0     H84413  10.442   5.582   4.260  0.4118 -0.6970 -0.7166
  612MOL0     H84414  10.643   5.853   4.542 -0.7644 -1.1720 -1.1057
  612MOL0     H84415  10.933   6.006   4.677  1.7167 -0.8582  3.1147
  612MOL0     H84416  10.868   5.901   4.798  2.2572 -2.7452 -1.0243
  612MOL0     H84417  10.752   5.985   4.692  0.6065  1.2037  1.3361
  612MOL0     H84418  11.349   5.464   4.619 -1.1502  1.4503 -1.5121
  612MOL0     H84419  11.574   5.441   4.729  1.9701  1.7523 -1.5449
  612MOL0     H84420  11.759   5.844   4.858  1.1058  0.3561 -0.2943
  612MOL0     H84421  11.693   5.780   5.003  0.1653  0.7909 -0.6757
  612MOL0     H84422  11.937   5.800   5.036  0.9023  0.4938 -2.8146
  612MOL0     H84423  11.894   5.627   5.029  3.7114 -1.5601 -1.3124
  612MOL0     H84424  11.951   5.749   4.769 -2.6350  1.4648  3.0399
  612MOL0     H84425  11.988   5.591   4.834 -1.0025  0.6921 -2.5372
  612MOL0     H84426  12.157   5.687   4.993  0.9039  0.7243  0.4484
  612MOL0     H84427  12.136   5.850   4.931  1.5547 -0.5383  0.3948
  612MOL0     H84428  12.217   5.757   4.698  0.3294 -1.6095 -0.7856
  612MOL0     H84429  12.332   5.794   4.827  1.2536 -1.2921  0.8122
  612MOL0     H84430  12.232   5.521   4.772  1.0306 -1.4219 -1.9527
  612MOL0     H84431  12.345   5.576   4.894  1.1092 -0.1835 -0.1272
  612MOL0     H84432  12.388   5.616   4.579 -1.1477 -2.2252 -0.2517
  612MOL0     H84433  12.446   5.486   4.662 -0.8247  0.0303 -2.6667
  612MOL0     H84434  12.513   5.766   4.755 -2.1466  0.8271 -3.8741
  612MOL0     H84435  12.613   5.683   4.640  0.6329  0.8125  1.4754
  612MOL0     H84436  11.562   5.857   4.807  0.0907 -0.8490 -0.4883
  612MOL0     H84437  11.340   5.880   4.713 -0.4099 -0.1855  1.3463
  612MOL0     H84438  11.019   5.544   4.471 -1.6044 -1.4343  0.7983
  612MOL0     H84439  10.805   5.508   4.355  1.7679 -0.7367  0.2705
  612MOL0     H84440   9.253   5.178   4.772  0.3444 -1.3486  3.0797
  612MOL0     H84441   9.027   5.253   4.763 -1.2129 -0.1491  1.9675
  612MOL0     H84442   8.582   5.049   4.808  2.0190  1.8705 -0.3078
  612MOL0     H84443   8.363   5.067   4.855 -0.7960  2.3231  0.7727
  612MOL0     H84444   8.168   5.107   4.875  0.6650  2.1071  0.3817
  612MOL0     H84445   8.022   5.191   4.825  1.8190  3.0296  1.2057
  612MOL0     H84446   8.174   4.991   4.660 -0.4067  1.7135 -1.1949
  612MOL0     H84447   8.028   5.080   4.602 -1.7827 -1.0055  0.7125
  612MOL0     H84448   8.029   4.911   4.851  1.5903 -1.8438 -1.4867
  612MOL0     H84449   7.886   4.968   4.766  0.2952  1.0348  0.4594
  612MOL0     H84450   8.096   4.782   4.713  0.7552  2.6757 -0.5919
  612MOL0     H84451   8.012   4.843   4.572 -0.2928 -0.8972 -0.0430
  612MOL0     H84452   7.732   4.563   4.770 -0.5691  2.9702  2.6864
  612MOL0     H84453   8.344   5.425   4.595  1.5918  0.6089 -1.4118
  612MOL0     H84454   8.521   5.526   4.535 -3.6969 -0.8531  0.7976
  612MOL0     H84455   8.679   5.501   4.614 -0.3816  2.3611 -1.6616
  612MOL0     H84456   8.638   5.407   4.472 -0.1508  1.0402  0.3617
  613MOL0     O84457   5.356  11.078   2.107  0.6940 -0.2072  0.1747
  613MOL0     C84458   5.383  10.999   2.194 -0.9409  1.5062  0.6675
  613MOL0     O84459   5.371  11.008   2.332  0.3588  0.1082  0.2794
  613MOL0     C84460   5.299  11.111   2.390  0.7547 -0.5262  0.3309
  613MOL0     C84461   5.341  11.246   2.410 -0.4633 -0.4665 -0.2355
  613MOL0     C84462   5.274  11.336   2.490 -0.1912 -0.8587  0.3345
  613MOL0     C84463   5.157  11.291   2.560  0.5274 -0.8202 -0.1575
  613MOL0     O84464   5.074  11.368   2.642  0.2440 -0.2212  0.2927
  613MOL0     C84465   5.127  11.490   2.702  0.0308  0.1917  0.9119
  613MOL0     C84466   5.023  11.541   2.806  0.6238  0.9159  0.7625
  613MOL0     C84467   4.978  11.432   2.903  0.9526  0.5840 -0.9083
  613MOL0     C84468   5.087  11.384   2.998 -0.4460  0.2307 -0.2802
  613MOL0     C84469   5.041  11.272   3.100 -0.1719 -0.2258 -0.5395
  613MOL0     C84470   5.143  11.216   3.201  0.0395  0.1363 -0.7524
  613MOL0     C84471   5.263  11.142   3.140 -0.4471 -0.3661 -0.4388
  613MOL0     C84472   5.373  11.129   3.240 -0.3731 -0.2120 -1.1471
  613MOL0     N84473   5.495  11.080   3.188  0.1871  0.6458 -0.1376
  613MOL0     C84474   5.586  11.148   3.111  1.0229 -0.1800  0.1019
  613MOL0     C84475   5.674  11.052   3.073 -0.0050  0.0573  0.0044
  613MOL0     C84476   5.801  11.081   3.000  0.1251  0.0923  0.4356
  613MOL0     C84477   5.897  11.171   3.081  0.0093 -0.2904 -0.2544
  613MOL0     C84478   6.006  11.207   2.987  0.2780 -0.0575 -0.1749
  613MOL0     C84479   6.121  11.106   2.999 -0.3726 -0.8089  0.4297
  613MOL0     O84480   6.215  11.127   2.889  0.2185  0.3166 -0.6775
  613MOL0     C84481   6.330  11.043   2.885  0.5863  0.1136 -0.9115
  613MOL0     C84482   6.371  10.930   2.963  0.1342 -0.0987 -0.1984
  613MOL0     C84483   6.487  10.860   2.930 -0.0887  0.4151 -0.7128
  613MOL0     C84484   6.505  10.724   2.998  0.3365  0.1974 -0.0172
  613MOL0     C84485   6.586  10.910   2.839  0.5786  0.7544 -0.0978
  613MOL0     C84486   6.721  10.861   2.802 -0.1909  1.3234 -0.6388
  613MOL0     O84487   6.795  10.918   2.706 -0.8544 -0.3488 -0.0044
  613MOL0     C84488   6.925  10.871   2.678  0.8157 -1.3049  0.0894
  613MOL0     C84489   7.026  10.859   2.777  0.3193 -0.4286  0.5847
  613MOL0     C84490   7.156  10.833   2.749  0.6692  0.5109 -0.3005
  613MOL0     C84491   7.186  10.806   2.611 -0.0051 -0.1461 -0.1421
  613MOL0     O84492   7.323  10.781   2.594  0.7029  0.0825  0.4582
  613MOL0     C84493   7.373  10.777   2.456 -0.0866 -0.4895  0.2860
  613MOL0     C84494   7.517  10.751   2.464  0.4466  0.2119  0.2665
  613MOL0     C84495   7.599  10.856   2.548 -0.2730 -0.6618  0.1605
  613MOL0     C84496   7.753  10.857   2.505 -0.0615 -0.2097 -0.1149
  613MOL0     C84497   7.777  10.920   2.366 -0.0327 -0.6564 -0.3343
  613MOL0     C84498   7.758  11.072   2.351 -0.3381  0.8750 -0.1115
  613MOL0     C84499   7.861  11.153   2.425 -0.1724 -0.8227  0.2303
  613MOL0     C84500   7.853  11.296   2.383  0.8284  0.2725  0.4963
  613MOL0    Cl84501   7.920  11.320   2.214 -0.4148 -0.0524  0.0183
  613MOL0     C84502   7.094  10.820   2.505 -0.5184  0.2109 -0.1972
  613MOL0     C84503   6.969  10.861   2.543  0.5848 -1.2074  0.1694
  613MOL0     O84504   6.768  10.767   2.872  0.0126 -0.8632  0.0829
  613MOL0     C84505   6.539  11.031   2.779 -1.4517  0.4242 -0.6405
  613MOL0     C84506   6.420  11.091   2.791  0.1138 -0.2240 -0.7567
  613MOL0     N84507   5.638  10.932   3.136  0.4687  0.1715 -0.7261
  613MOL0     N84508   5.522  10.951   3.188  0.0827  0.1726 -1.1334
  613MOL0     C84509   5.116  11.159   2.547  0.5530  0.1370  0.7348
  613MOL0     C84510   5.188  11.065   2.465  0.0148  0.0847 -0.4382
  613MOL0     C84511   5.437  10.857   2.153  0.5123 -0.8892 -0.4883
  613MOL0     C84512   5.523  10.796   2.248 -0.4807 -0.2191  0.1176
  613MOL0     C84513   5.568  10.669   2.222 -0.6404  0.7374 -0.2293
  613MOL0     C84514   5.522  10.588   2.116  0.2594  0.7563 -0.6585
  613MOL0     O84515   5.571  10.458   2.103  0.1618  0.7471  0.3839
  613MOL0     C84516   5.478  10.358   2.135  0.4757  0.4826  0.3651
  613MOL0     C84517   5.420  10.357   2.277 -0.4069  0.0738  0.1828
  613MOL0     C84518   5.366  10.225   2.321 -0.1824  0.0141  0.8624
  613MOL0     C84519   5.311  10.218   2.463 -0.1780  0.1574  0.2378
  613MOL0     C84520   5.180  10.292   2.463 -0.1262  0.8388  0.8354
  613MOL0     C84521   5.071  10.333   2.483 -0.7394 -0.3756  0.2475
  613MOL0     C84522   5.447  10.655   2.013 -0.0471  0.1616 -0.5378
  613MOL0     C84523   5.402  10.789   2.033 -0.0749  0.2587  0.0886
  613MOL0     C84524   5.292  10.846   1.939 -0.3189  0.3130  0.4090
  613MOL0     H84525   5.426  11.291   2.359 -1.5739  1.1007 -0.7851
  613MOL0     H84526   5.300  11.441   2.497  0.3201 -0.7333 -2.5813
  613MOL0     H84527   5.123  11.573   2.630 -0.3438 -0.7190 -0.1386
  613MOL0     H84528   5.220  11.479   2.758 -1.3055  0.4228  3.2839
  613MOL0     H84529   5.057  11.635   2.851  3.0520 -0.1088  1.1915
  613MOL0     H84530   4.938  11.566   2.742 -0.4609 -0.1402  1.7330
  613MOL0     H84531   4.903  11.472   2.972  2.2675  0.8646  0.4193
  613MOL0     H84532   4.947  11.345   2.845 -0.5740  0.6285 -0.1799
  613MOL0     H84533   5.168  11.336   2.943 -0.4546 -1.3940  1.0398
  613MOL0     H84534   5.138  11.462   3.055 -0.2022 -1.8993  2.6612
  613MOL0     H84535   4.988  11.192   3.048 -2.6948 -0.4515  2.1248
  613MOL0     H84536   4.954  11.308   3.155 -0.7527  0.1286 -1.6569
  613MOL0     H84537   5.180  11.298   3.263  1.7482 -0.2716 -1.1496
  613MOL0     H84538   5.091  11.139   3.258  0.6970 -2.3881 -3.3005
  613MOL0     H84539   5.302  11.202   3.058  0.2318 -2.9056 -2.0793
  613MOL0     H84540   5.238  11.043   3.101  0.9452 -1.3567  1.0380
  613MOL0     H84541   5.401  11.230   3.271  0.8432 -1.3303  1.6543
  613MOL0     H84542   5.334  11.092   3.335 -0.0453  0.2958 -0.8102
  613MOL0     H84543   5.575  11.251   3.080 -0.2985 -0.2116  0.3857
  613MOL0     H84544   5.766  11.133   2.911 -1.1420  0.0135  0.8717
  613MOL0     H84545   5.851  10.991   2.963 -0.2853 -0.2360  0.6716
  613MOL0     H84546   5.838  11.262   3.099  0.5643  0.7785 -3.2552
  613MOL0     H84547   5.932  11.129   3.175 -0.0929  3.5973  1.7174
  613MOL0     H84548   5.961  11.219   2.888  0.0885 -0.9473 -0.2083
  613MOL0     H84549   6.049  11.304   3.010  0.3312  1.6318 -5.8131
  613MOL0     H84550   6.163  11.115   3.100 -0.6474 -0.8496  0.5509
  613MOL0     H84551   6.084  11.003   2.989 -0.4620 -0.6731 -0.7966
  613MOL0     H84552   6.305  10.903   3.045 -0.8910 -0.0625 -0.9997
  613MOL0     H84553   6.560  10.732   3.092  0.1140  2.2610 -0.0099
  613MOL0     H84554   6.547  10.658   2.921 -0.0065 -1.3026  1.0548
  613MOL0     H84555   6.403  10.687   3.012 -0.3449  1.4445 -1.3322
  613MOL0     H84556   7.008  10.869   2.884 -1.7422 -0.5436  0.3009
  613MOL0     H84557   7.232  10.827   2.826  0.9029  2.5602 -0.3372
  613MOL0     H84558   7.317  10.700   2.401 -2.9069 -0.9180  3.4390
  613MOL0     H84559   7.358  10.871   2.402  0.5128 -2.0776 -2.9092
  613MOL0     H84560   7.529  10.653   2.511  0.0256 -0.2155 -0.5123
  613MOL0     H84561   7.555  10.732   2.364  1.3102 -4.8345  1.2571
  613MOL0     H84562   7.588  10.833   2.655 -1.0987 -1.3550 -0.0651
  613MOL0     H84563   7.550  10.950   2.519  0.0640 -0.9940 -1.5913
  613MOL0     H84564   7.802  10.759   2.508  2.0811  0.7835 -0.9015
  613MOL0     H84565   7.806  10.916   2.579 -1.8616  0.4992  0.6651
  613MOL0     H84566   7.882  10.903   2.339 -0.7356 -3.9109 -1.4316
  613MOL0     H84567   7.709  10.879   2.290  0.2401  2.7136 -2.6467
  613MOL0     H84568   7.654  11.094   2.375 -0.9736 -3.0732  1.4640
  613MOL0     H84569   7.767  11.104   2.246 -0.7257  2.5826  0.3409
  613MOL0     H84570   7.962  11.119   2.403  0.6390  0.6577  1.5132
  613MOL0     H84571   7.842  11.155   2.533  2.2952 -2.0370  0.7447
  613MOL0     H84572   7.909  11.362   2.450 -0.3067  0.3513  1.3927
  613MOL0     H84573   7.752  11.338   2.382 -0.6675 -2.9976  0.6832
  613MOL0     H84574   7.112  10.812   2.399  0.0424 -1.8398 -0.0011
  613MOL0     H84575   6.891  10.883   2.471  0.2441 -0.3081  0.8064
  613MOL0     H84576   6.604  11.079   2.706  0.0921  2.3311  1.8263
  613MOL0     H84577   6.389  11.173   2.726  2.8042  0.0177 -1.8865
  613MOL0     H84578   5.030  11.123   2.602  1.6980 -2.5459  0.9630
  613MOL0     H84579   5.176  10.958   2.452 -0.7413  0.2602 -1.2431
  613MOL0     H84580   5.565  10.851   2.331 -1.1862  2.3545 -1.1237
  613MOL0     H84581   5.639  10.612   2.281 -0.1679 -3.2863 -4.1232
  613MOL0     H84582   5.398  10.366   2.062 -0.1885 -2.4296  0.6541
  613MOL0     H84583   5.521  10.260   2.113 -1.1260  0.2331 -1.9756
  613MOL0     H84584   5.347  10.438   2.281 -0.4013  0.0636  0.4782
  613MOL0     H84585   5.497  10.377   2.353 -1.1934  1.1369  0.7150
  613MOL0     H84586   5.291  10.213   2.243  1.0311 -0.4034 -0.2760
  613MOL0     H84587   5.444  10.148   2.325  0.0524  0.2838  1.7662
  613MOL0     H84588   5.373  10.267   2.539  0.6724 -0.1786 -0.2353
  613MOL0     H84589   5.292  10.115   2.495 -0.4040  0.2419  0.3830
  613MOL0     H84590   4.969  10.365   2.482 -1.1613 -1.6971 -0.4222
  613MOL0     H84591   5.414  10.603   1.923 -1.7372  0.5926 -0.2024
  613MOL0     H84592   5.323  10.941   1.894  0.2279  0.4699  1.0936
  613MOL0     H84593   5.259  10.786   1.854 -1.0411  1.7055 -0.3196
  613MOL0     H84594   5.213  10.879   2.008 -0.7722  0.9435 -0.3965
  614MOL0     O84595   5.203   4.954   5.499  0.2201  0.3326 -0.4130
  614MOL0     C84596   5.156   5.040   5.427  0.0212 -0.2200  0.4153
  614MOL0     O84597   5.225   5.112   5.332  1.0101 -0.4338 -0.0777
  614MOL0     C84598   5.362   5.127   5.323 -0.6836 -0.5515 -0.3701
  614MOL0     C84599   5.433   5.157   5.210  0.7714  0.0657 -0.4038
  614MOL0     C84600   5.576   5.164   5.211 -0.5022  0.3106  0.0528
  614MOL0     C84601   5.643   5.154   5.343 -0.7129 -0.7219 -0.7221
  614MOL0     O84602   5.779   5.165   5.354 -0.4554 -0.2532 -0.3151
  614MOL0     C84603   5.851   5.052   5.402  0.5218  0.1464  0.6902
  614MOL0     C84604   5.992   5.043   5.354 -0.3275 -0.4025 -0.4397
  614MOL0     C84605   6.088   5.163   5.386 -0.2192  0.7978 -0.0121
  614MOL0     C84606   6.233   5.125   5.385 -0.8044 -0.1347 -0.4305
  614MOL0     C84607   6.321   5.242   5.423 -0.0135  0.0275 -0.2180
  614MOL0     C84608   6.471   5.193   5.458 -0.2787 -0.6384 -0.7490
  614MOL0     C84609   6.572   5.315   5.454  0.1660 -1.0549  0.2659
  614MOL0     C84610   6.692   5.286   5.362 -0.2928 -0.0842  0.0487
  614MOL0     N84611   6.792   5.395   5.362 -0.3652 -0.4126 -0.9374
  614MOL0     C84612   6.801   5.513   5.291  0.6884  0.6772  0.0764
  614MOL0     C84613   6.900   5.585   5.347 -0.2121 -0.7148  0.2531
  614MOL0     C84614   6.954   5.716   5.306 -1.0488 -0.4647 -0.8367
  614MOL0     C84615   7.027   5.702   5.170 -0.1459  1.1900  0.5763
  614MOL0     C84616   7.055   5.845   5.124 -0.4102  0.4379  0.4186
  614MOL0     C84617   7.154   5.920   5.208  0.2972 -0.3230  0.7776
  614MOL0     O84618   7.266   5.843   5.243 -0.3583  0.3719  0.4162
  614MOL0     C84619   7.338   5.860   5.355 -0.5520 -0.2810  0.1082
  614MOL0     C84620   7.320   5.964   5.445 -0.1413 -0.7018 -0.4362
  614MOL0     C84621   7.401   5.979   5.559 -0.2717  0.6872  0.6322
  614MOL0     C84622   7.376   6.096   5.646  0.0671 -0.5064 -0.7638
  614MOL0     C84623   7.492   5.872   5.592 -0.3262  0.1230  0.4092
  614MOL0     C84624   7.581   5.874   5.707  0.1769 -0.0773 -0.3468
  614MOL0     O84625   7.625   5.752   5.759 -0.4173  0.6392 -0.4691
  614MOL0     C84626   7.689   5.749   5.881 -0.5292 -0.0172  0.5685
  614MOL0     C84627   7.833   5.745   5.876  0.5201  0.2287 -0.3928
  614MOL0     C84628   7.905   5.728   5.992 -0.3563  0.9869  0.3627
  614MOL0     C84629   7.849   5.731   6.114  0.3911  0.8008 -0.4336
  614MOL0     O84630   7.922   5.731   6.229  0.3703  0.5023  0.2016
  614MOL0     C84631   8.012   5.841   6.253  0.9257  0.2324 -0.7302
  614MOL0     C84632   8.144   5.807   6.313 -0.3703  0.2658  0.2301
  614MOL0     C84633   8.240   5.736   6.210  0.3078  0.2825  0.7042
  614MOL0     C84634   8.384   5.722   6.270  1.2121 -0.1408  0.0805
  614MOL0     C84635   8.444   5.591   6.205  0.1144 -0.3848  0.2055
  614MOL0     C84636   8.597   5.586   6.234 -0.1864 -0.1483  0.6730
  614MOL0     C84637   8.651   5.451   6.180  0.0132  1.0501  0.1855
  614MOL0     C84638   8.805   5.444   6.193  0.2574 -0.3009 -0.0201
  614MOL0    Cl84639   8.832   5.408   6.372 -0.6532 -0.4535  0.2801
  614MOL0     C84640   7.712   5.745   6.118  0.2677  0.2590 -0.8185
  614MOL0     C84641   7.634   5.757   6.008 -0.0337  0.5032  0.5981
  614MOL0     O84642   7.625   5.979   5.736  0.1976  0.8879 -0.2320
  614MOL0     C84643   7.495   5.761   5.508 -0.5262  0.0729 -0.5820
  614MOL0     C84644   7.429   5.761   5.383  0.9390 -0.0563  0.4378
  614MOL0     N84645   6.961   5.506   5.434 -0.2784  0.5905 -0.3368
  614MOL0     N84646   6.904   5.391   5.447 -0.0889  0.8987 -1.0547
  614MOL0     C84647   5.569   5.147   5.455  0.1648 -0.5048  0.5191
  614MOL0     C84648   5.435   5.124   5.440  1.3648  0.5923  0.0458
  614MOL0     C84649   5.010   5.060   5.428  0.2804  0.4415 -0.1822
  614MOL0     C84650   4.943   5.082   5.301  0.1651 -0.9771 -0.5560
  614MOL0     C84651   4.815   5.134   5.296  0.6094  1.1559  0.4214
  614MOL0     C84652   4.747   5.166   5.418  0.2159  0.1197  0.2761
  614MOL0     O84653   4.617   5.205   5.410  0.1403  0.1647 -0.0122
  614MOL0     C84654   4.520   5.102   5.403  0.4931  0.4902 -0.0375
  614MOL0     C84655   4.406   5.142   5.307 -1.0234  0.1137  0.4225
  614MOL0     C84656   4.304   5.031   5.306 -0.3024  0.2563  0.2481
  614MOL0     C84657   4.153   5.070   5.273 -0.2326 -0.1827  0.2279
  614MOL0     C84658   4.146   5.155   5.158 -0.4631  0.1851  0.1718
  614MOL0     C84659   4.143   5.237   5.073 -0.3431  0.4328  0.8877
  614MOL0     C84660   4.811   5.139   5.532  0.2734  1.1938 -0.6881
  614MOL0     C84661   4.938   5.079   5.550  0.5673  0.0377  0.5895
  614MOL0     C84662   4.983   5.063   5.690 -0.6211  0.2289 -0.3111
  614MOL0     H84663   5.389   5.153   5.111  0.1367 -0.3122 -0.1053
  614MOL0     H84664   5.629   5.160   5.116  2.4665 -0.5605  1.6203
  614MOL0     H84665   5.805   4.965   5.354  0.0116  1.2114 -0.8355
  614MOL0     H84666   5.845   5.052   5.511  1.1795  2.9780  0.8039
  614MOL0     H84667   6.031   4.947   5.389 -4.5065 -0.9042  3.7741
  614MOL0     H84668   5.982   5.042   5.245 -1.0648 -0.5757 -0.3744
  614MOL0     H84669   6.079   5.243   5.312  0.0421  1.6864  0.8944
  614MOL0     H84670   6.060   5.188   5.488  1.6511 -3.2780  1.7309
  614MOL0     H84671   6.247   5.049   5.462 -0.3343 -3.5374 -3.5892
  614MOL0     H84672   6.270   5.083   5.291  0.3956 -0.3613  0.1206
  614MOL0     H84673   6.291   5.291   5.516 -1.8858 -2.6769  0.7491
  614MOL0     H84674   6.316   5.321   5.347 -1.9298 -0.2044 -0.3751
  614MOL0     H84675   6.480   5.146   5.556 -0.4203 -1.4800 -1.1350
  614MOL0     H84676   6.496   5.118   5.382  1.8202 -1.9320  1.1044
  614MOL0     H84677   6.611   5.334   5.554  1.9585 -0.9160 -0.4077
  614MOL0     H84678   6.522   5.403   5.411  2.0374  0.7785  1.6299
  614MOL0     H84679   6.745   5.199   5.402 -1.1001 -0.3329  0.6171
  614MOL0     H84680   6.654   5.268   5.261 -1.2603 -2.1764  0.7249
  614MOL0     H84681   6.733   5.539   5.210 -0.0188  0.3813  0.5610
  614MOL0     H84682   7.021   5.759   5.381 -0.5963 -2.8486  0.2154
  614MOL0     H84683   6.871   5.786   5.289  0.3539  1.3669 -0.3612
  614MOL0     H84684   7.116   5.639   5.180 -1.3020 -1.0564 -2.0397
  614MOL0     H84685   6.969   5.652   5.092  0.3863 -2.0738  2.1117
  614MOL0     H84686   7.091   5.846   5.020  0.1250 -0.7098  0.5803
  614MOL0     H84687   6.959   5.895   5.113 -0.4658  0.0928 -0.9330
  614MOL0     H84688   7.182   6.003   5.143 -0.8063  0.4041  1.2011
  614MOL0     H84689   7.098   5.954   5.295 -0.9927 -0.1201 -0.0940
  614MOL0     H84690   7.245   6.038   5.421 -0.7695 -1.1132  0.2085
  614MOL0     H84691   7.373   6.078   5.754  1.6762 -0.1231 -0.6267
  614MOL0     H84692   7.287   6.152   5.617  0.1725  2.5005  3.6065
  614MOL0     H84693   7.463   6.162   5.634  1.0626 -1.2021  1.8172
  614MOL0     H84694   7.874   5.763   5.777  2.1232 -0.8433  0.0334
  614MOL0     H84695   8.008   5.693   5.984 -0.8020 -0.2825 -0.1718
  614MOL0     H84696   8.034   5.896   6.161  1.3529  3.0102  0.8889
  614MOL0     H84697   7.944   5.905   6.311 -0.2615 -1.3750 -0.3009
  614MOL0     H84698   8.185   5.897   6.361  0.2601 -0.3670  0.9046
  614MOL0     H84699   8.127   5.736   6.394 -0.9746 -0.8083 -0.8069
  614MOL0     H84700   8.249   5.799   6.120 -2.1554 -1.2412 -0.7106
  614MOL0     H84701   8.200   5.641   6.175 -1.2542  2.0354 -2.7909
  614MOL0     H84702   8.376   5.710   6.379  2.6604  1.0841  0.3663
  614MOL0     H84703   8.438   5.815   6.247  0.3417  0.9805  2.2982
  614MOL0     H84704   8.413   5.497   6.253  2.9035 -2.0932 -1.0191
  614MOL0     H84705   8.423   5.591   6.098 -0.2969 -3.5746  0.1965
  614MOL0     H84706   8.602   5.601   6.342 -0.1947 -0.4510  0.7158
  614MOL0     H84707   8.648   5.670   6.186 -3.8861  1.6719 -0.5377
  614MOL0     H84708   8.629   5.431   6.075 -1.3205 -2.4693  1.0040
  614MOL0     H84709   8.603   5.373   6.240  0.2283 -0.9630 -2.0932
  614MOL0     H84710   8.846   5.542   6.168  0.9116 -1.1470 -2.5073
  614MOL0     H84711   8.841   5.364   6.128  2.7322  1.1535 -0.5674
  614MOL0     H84712   7.672   5.728   6.218  0.7389  3.0544 -0.0625
  614MOL0     H84713   7.526   5.764   6.021 -0.1465 -0.5765  0.3120
  614MOL0     H84714   7.557   5.674   5.525 -3.2065 -2.0702 -1.2041
  614MOL0     H84715   7.437   5.677   5.314 -0.1374 -3.4245  4.0528
  614MOL0     H84716   5.610   5.150   5.556 -5.5074  1.9353  3.1804
  614MOL0     H84717   5.383   5.108   5.534 -1.4909 -3.6892 -1.9308
  614MOL0     H84718   5.003   5.080   5.210  1.0196 -1.0557 -0.0022
  614MOL0     H84719   4.765   5.160   5.203  0.6762  2.4637  0.7264
  614MOL0     H84720   4.563   5.011   5.360 -2.6657 -2.1712  1.9335
  614MOL0     H84721   4.468   5.086   5.498  0.4608 -0.9742 -0.2760
  614MOL0     H84722   4.445   5.146   5.205  0.1589  0.8199  0.8790
  614MOL0     H84723   4.364   5.243   5.316  1.1102  1.1051 -0.1948
  614MOL0     H84724   4.333   4.973   5.218 -0.3511 -1.9377  1.5851
  614MOL0     H84725   4.318   4.970   5.396  0.6631 -2.0460 -1.3658
  614MOL0     H84726   4.098   5.123   5.351 -0.2362  1.7469 -1.0237
  614MOL0     H84727   4.101   4.977   5.247 -1.0584  0.8999 -2.2535
  614MOL0     H84728   4.145   5.314   4.999 -0.2841  0.1953  0.6418
  614MOL0     H84729   4.745   5.158   5.615  0.0756  1.8064 -0.9812
  614MOL0     H84730   5.089   5.078   5.712 -0.5263 -1.3991  0.5057
  614MOL0     H84731   4.925   5.134   5.749 -0.6850  0.1567 -0.2883
  614MOL0     H84732   4.957   4.962   5.722  2.2800 -0.9632 -1.4002
  615MOL0     O84733   5.620   3.843   5.079 -0.9084 -0.6936  0.8902
  615MOL0     C84734   5.558   3.925   5.008  0.1565 -0.4244 -0.2689
  615MOL0     O84735   5.605   4.052   4.981 -0.1776  1.1075  0.5275
  615MOL0     C84736   5.720   4.105   5.042 -0.8552 -0.8238  0.2336
  615MOL0     C84737   5.725   4.109   5.180 -0.1180  0.0764  0.0192
  615MOL0     C84738   5.831   4.163   5.249 -1.0034  0.5095  0.1279
  615MOL0     C84739   5.942   4.205   5.175  0.3985  0.8316  1.0286
  615MOL0     O84740   6.039   4.286   5.226 -0.0383 -0.6210  0.1414
  615MOL0     C84741   6.172   4.229   5.221  0.4086  1.0512  0.1032
  615MOL0     C84742   6.254   4.269   5.351 -0.0700  0.1579  0.7292
  615MOL0     C84743   6.388   4.201   5.360 -0.6518  0.0281 -0.3787
  615MOL0     C84744   6.470   4.284   5.455 -0.2311  0.0492 -0.5924
  615MOL0     C84745   6.612   4.239   5.465  0.2499  0.2565  0.3524
  615MOL0     C84746   6.697   4.312   5.574 -0.0814 -0.3090 -0.3892
  615MOL0     C84747   6.844   4.292   5.562 -0.2470  0.6634  0.1613
  615MOL0     C84748   6.924   4.365   5.672 -0.1212 -0.4878  0.1376
  615MOL0     N84749   7.063   4.330   5.682  0.8526 -0.5852  0.0606
  615MOL0     C84750   7.167   4.415   5.704 -0.5480 -0.4427  0.0325
  615MOL0     C84751   7.282   4.340   5.703 -0.8210  0.0849  0.9277
  615MOL0     C84752   7.426   4.375   5.747  0.1991 -1.3622  0.4441
  615MOL0     C84753   7.469   4.284   5.863  1.2878  0.0801 -0.6996
  615MOL0     C84754   7.606   4.327   5.921 -0.3203  0.0579 -0.2404
  615MOL0     C84755   7.675   4.236   6.030  0.1944  0.0201  0.3223
  615MOL0     O84756   7.617   4.281   6.149  0.3825 -0.3443 -0.0301
  615MOL0     C84757   7.583   4.180   6.235  0.7251  0.9234 -0.3442
  615MOL0     C84758   7.460   4.113   6.233  0.6031  0.2344 -0.1055
  615MOL0     C84759   7.411   4.027   6.331  0.1233 -0.8522 -0.4585
  615MOL0     C84760   7.271   3.975   6.313  0.0534 -0.8576  0.1358
  615MOL0     C84761   7.495   3.987   6.440 -0.1163  0.1462 -0.4010
  615MOL0     C84762   7.467   3.878   6.549 -0.3329 -0.1462  0.2514
  615MOL0     O84763   7.337   3.866   6.584 -0.4406 -0.7661 -0.7916
  615MOL0     C84764   7.293   3.757   6.639  0.6509 -0.4222  0.3929
  615MOL0     C84765   7.203   3.759   6.749 -0.5272  0.3607 -0.7142
  615MOL0     C84766   7.160   3.642   6.811 -0.3564  0.5872 -0.1597
  615MOL0     C84767   7.189   3.515   6.767 -0.3261  0.5905  1.3167
  615MOL0     O84768   7.130   3.409   6.834 -0.3094  0.0212  0.1224
  615MOL0     C84769   7.107   3.292   6.761  0.4214 -0.1460  0.3493
  615MOL0     C84770   7.016   3.197   6.842  0.7512  0.0476  0.5095
  615MOL0     C84771   6.960   3.082   6.761 -0.3658 -1.1145 -0.4966
  615MOL0     C84772   7.058   2.962   6.731  0.0753 -0.6278 -0.0886
  615MOL0     C84773   6.998   2.859   6.628 -0.0248 -0.0949 -0.2999
  615MOL0     C84774   7.116   2.766   6.584 -0.5920  0.5924  0.5388
  615MOL0     C84775   7.079   2.649   6.510 -0.3851  0.4505  0.1329
  615MOL0     C84776   7.190   2.587   6.407 -0.9663 -0.0902  0.5592
  615MOL0    Cl84777   7.237   2.700   6.288 -0.2194 -0.1274  0.1901
  615MOL0     C84778   7.275   3.510   6.656  0.6740  0.1099 -0.3058
  615MOL0     C84779   7.317   3.629   6.586 -0.4792 -0.3196 -0.0392
  615MOL0     O84780   7.564   3.814   6.585  0.0009 -0.2992 -0.1731
  615MOL0     C84781   7.627   4.038   6.438  0.0285 -1.4267  0.4346
  615MOL0     C84782   7.669   4.134   6.342  0.4245  0.1104  0.5910
  615MOL0     N84783   7.237   4.214   5.656 -0.6020 -0.7079  0.4345
  615MOL0     N84784   7.111   4.214   5.645  0.7136 -0.2218 -0.6589
  615MOL0     C84785   5.940   4.199   5.037 -0.5549 -0.4351  0.3691
  615MOL0     C84786   5.831   4.150   4.970 -0.0927 -0.5680  0.1388
  615MOL0     C84787   5.425   3.879   4.943 -0.3974 -0.1229  0.6835
  615MOL0     C84788   5.376   3.752   4.975 -0.0159 -0.3875  0.1438
  615MOL0     C84789   5.252   3.711   4.933  0.0454 -0.5156  0.2325
  615MOL0     C84790   5.173   3.790   4.854  0.9776  0.0375 -0.7710
  615MOL0     O84791   5.049   3.730   4.833 -0.6849 -0.4245 -0.5323
  615MOL0     C84792   4.958   3.816   4.761  0.8202 -0.2564  0.4733
  615MOL0     C84793   4.813   3.755   4.765 -0.4369  0.3959  0.0492
  615MOL0     C84794   4.807   3.615   4.704 -0.0951  0.1100  0.9055
  615MOL0     C84795   4.676   3.561   4.746  0.4863  0.2391  0.6275
  615MOL0     C84796   4.564   3.592   4.650  0.1526  0.3941  0.3795
  615MOL0     C84797   4.483   3.605   4.561  0.1156  0.8208  0.1536
  615MOL0     C84798   5.225   3.914   4.812 -0.3017  0.7306 -0.6339
  615MOL0     C84799   5.355   3.957   4.850 -0.1630 -0.2213 -0.1569
  615MOL0     C84800   5.385   4.111   4.806 -0.1571 -0.1573  0.4333
  615MOL0     H84801   5.630   4.074   5.219 -0.7043  1.7730  0.2080
  615MOL0     H84802   5.832   4.172   5.357  0.3350  1.0028  0.1074
  615MOL0     H84803   6.220   4.246   5.124  0.4427  0.0317 -0.0713
  615MOL0     H84804   6.159   4.120   5.223  0.1630  1.0893  0.7639
  615MOL0     H84805   6.273   4.377   5.345 -0.1113  0.0865 -1.4656
  615MOL0     H84806   6.196   4.260   5.443  0.6328  0.9925  1.2713
  615MOL0     H84807   6.394   4.102   5.407  3.7999  1.3056  2.3493
  615MOL0     H84808   6.440   4.205   5.263  0.1965 -1.0524  0.0086
  615MOL0     H84809   6.472   4.391   5.430  0.8273  0.4145  0.8978
  615MOL0     H84810   6.428   4.285   5.556 -0.0558  3.7190 -0.4335
  615MOL0     H84811   6.650   4.254   5.364 -0.3778 -1.5130 -0.1940
  615MOL0     H84812   6.611   4.129   5.473  0.7558 -0.0427 -2.4961
  615MOL0     H84813   6.679   4.417   5.551 -0.6639  0.1684  2.0144
  615MOL0     H84814   6.664   4.274   5.671  2.4254 -1.4681  0.0742
  615MOL0     H84815   6.879   4.336   5.468  0.4532  0.9851  0.5659
  615MOL0     H84816   6.870   4.186   5.554  0.5664  0.9806 -2.3405
  615MOL0     H84817   6.923   4.470   5.640  1.3856 -0.7365 -0.7818
  615MOL0     H84818   6.878   4.353   5.771  2.5416 -1.1743  1.3927
  615MOL0     H84819   7.165   4.517   5.740 -0.6948 -0.4764  0.1211
  615MOL0     H84820   7.440   4.480   5.773  1.0984 -1.5849  0.9121
  615MOL0     H84821   7.502   4.348   5.673  2.3305 -4.6301  3.4750
  615MOL0     H84822   7.386   4.267   5.931  0.1042  0.6713 -1.9547
  615MOL0     H84823   7.485   4.189   5.811 -2.1194 -2.6078  2.6343
  615MOL0     H84824   7.671   4.340   5.835  0.4001  0.6325  0.3767
  615MOL0     H84825   7.599   4.425   5.969 -1.7055 -0.9670  1.8414
  615MOL0     H84826   7.659   4.134   5.993  0.8821  0.3944 -1.0988
  615MOL0     H84827   7.782   4.259   6.039 -0.0233  1.2343  0.0094
  615MOL0     H84828   7.386   4.150   6.162 -2.2923 -4.2115  0.1927
  615MOL0     H84829   7.212   3.993   6.403  1.3664  1.0894  0.6558
  615MOL0     H84830   7.273   3.867   6.295  1.5908 -0.8104 -0.0948
  615MOL0     H84831   7.217   4.025   6.232 -0.0657  1.6295  1.6668
  615MOL0     H84832   7.180   3.858   6.787  1.8873 -0.1959  2.6649
  615MOL0     H84833   7.097   3.650   6.899 -0.0369  0.1353  0.1185
  615MOL0     H84834   7.052   3.303   6.667  0.2168 -2.2210  0.1751
  615MOL0     H84835   7.198   3.237   6.734 -0.5905 -1.9396  0.4422
  615MOL0     H84836   7.060   3.156   6.934 -0.9331 -0.4451  1.1295
  615MOL0     H84837   6.925   3.255   6.860 -0.4780 -1.6876  0.1608
  615MOL0     H84838   6.932   3.119   6.661 -1.6192 -2.2243 -0.5746
  615MOL0     H84839   6.877   3.039   6.818  0.6373 -0.3477  1.6302
  615MOL0     H84840   7.092   2.912   6.822 -0.1891  0.7368  0.7875
  615MOL0     H84841   7.151   2.995   6.684  0.3781 -1.5381 -0.1643
  615MOL0     H84842   6.923   2.804   6.685  0.1811  0.0738  0.1346
  615MOL0     H84843   6.952   2.921   6.549  0.5235  3.1569  1.7419
  615MOL0     H84844   7.168   2.729   6.673  2.9745  1.8916 -0.8066
  615MOL0     H84845   7.177   2.837   6.526 -1.4155  0.1313 -0.9339
  615MOL0     H84846   6.993   2.687   6.454 -1.6434  1.0173  2.3137
  615MOL0     H84847   7.043   2.570   6.576  0.1395 -0.7878 -1.0238
  615MOL0     H84848   7.142   2.510   6.346 -0.0981  0.4482 -0.8686
  615MOL0     H84849   7.282   2.554   6.455 -1.8145 -1.1506  1.5143
  615MOL0     H84850   7.298   3.416   6.608  0.5630  0.2108 -0.5592
  615MOL0     H84851   7.382   3.623   6.499 -1.5816  1.4863 -1.0529
  615MOL0     H84852   7.705   4.018   6.511  1.4414 -3.5745 -1.5167
  615MOL0     H84853   7.763   4.186   6.361  0.0064  0.7621  0.9403
  615MOL0     H84854   6.022   4.227   4.971 -1.8913  2.6326 -0.1297
  615MOL0     H84855   5.823   4.140   4.862  0.3273 -0.8701  0.1329
  615MOL0     H84856   5.426   3.674   5.032 -2.5764 -1.5961  0.8849
  615MOL0     H84857   5.207   3.619   4.968  0.6828 -0.1301  2.2002
  615MOL0     H84858   4.968   3.913   4.809  1.9700  0.3786 -0.9598
  615MOL0     H84859   4.988   3.836   4.658  0.3123 -3.7139 -0.4583
  615MOL0     H84860   4.739   3.820   4.716  1.0000  0.9897 -1.4307
  615MOL0     H84861   4.790   3.740   4.871  0.4010 -4.8474 -0.2874
  615MOL0     H84862   4.815   3.613   4.595  1.0309  1.8923  0.9100
  615MOL0     H84863   4.886   3.553   4.748 -0.1244  0.2148  1.1083
  615MOL0     H84864   4.638   3.591   4.844 -0.3941  3.2835 -0.5459
  615MOL0     H84865   4.686   3.452   4.750  3.8782  0.3497 -1.1144
  615MOL0     H84866   4.408   3.625   4.487 -0.8213  0.6202  1.0259
  615MOL0     H84867   5.149   3.980   4.772 -0.1520  0.9599 -0.5434
  615MOL0     H84868   5.306   4.166   4.754  1.2356 -0.3070 -2.0162
  615MOL0     H84869   5.420   4.175   4.888  1.8871 -0.1949 -0.3571
  615MOL0     H84870   5.464   4.123   4.732 -0.4015 -1.1644 -0.0008
  616MOL0     O84871   8.823   3.705   7.666 -0.3750  0.3953 -0.9435
  616MOL0     C84872   8.718   3.706   7.604  0.6570 -0.4700 -0.2839
  616MOL0     O84873   8.699   3.644   7.483  0.4070  0.3482 -0.3367
  616MOL0     C84874   8.800   3.569   7.442  0.1910 -0.4440 -0.2921
  616MOL0     C84875   8.900   3.622   7.354  0.1955  0.2076 -0.4560
  616MOL0     C84876   9.007   3.537   7.325  0.1662 -0.0225  0.4720
  616MOL0     C84877   9.001   3.404   7.350 -1.0911 -0.6813 -0.1383
  616MOL0     O84878   9.127   3.342   7.321  0.5300 -0.4808  0.7492
  616MOL0     C84879   9.127   3.205   7.285 -0.1190  0.7852  0.0997
  616MOL0     C84880   9.171   3.120   7.400  0.2426 -1.0264 -0.0934
  616MOL0     C84881   9.171   2.975   7.380  0.2020  0.3667 -0.6080
  616MOL0     C84882   9.028   2.919   7.365  0.2996 -0.3645 -0.1161
  616MOL0     C84883   9.014   2.775   7.321  0.0555 -0.0184 -0.2220
  616MOL0     C84884   8.881   2.714   7.350  0.2620  0.2125  0.8130
  616MOL0     C84885   8.772   2.731   7.237 -0.8419 -0.3509 -0.7199
  616MOL0     C84886   8.656   2.628   7.250 -0.1723 -0.3041 -0.1224
  616MOL0     N84887   8.602   2.622   7.380 -0.3751 -0.4673  0.5147
  616MOL0     C84888   8.594   2.510   7.459 -0.3122 -0.2963 -0.3681
  616MOL0     C84889   8.513   2.541   7.564  0.3346 -0.4066 -0.1643
  616MOL0     C84890   8.459   2.472   7.689  0.2418 -1.0084 -0.8731
  616MOL0     C84891   8.413   2.327   7.673  0.0757 -0.9296  1.1014
  616MOL0     C84892   8.530   2.229   7.635  0.2555 -0.3439 -0.0348
  616MOL0     C84893   8.496   2.085   7.663  0.3223 -0.2667 -0.1154
  616MOL0     O84894   8.376   2.054   7.587 -0.0130 -0.0402 -0.7306
  616MOL0     C84895   8.410   1.992   7.476  0.9608  0.2936 -0.2457
  616MOL0     C84896   8.535   1.972   7.416 -0.1962 -1.0184 -0.1536
  616MOL0     C84897   8.545   1.888   7.304  0.4610  0.0565 -0.0553
  616MOL0     C84898   8.672   1.880   7.226 -0.5503 -0.9241 -0.7479
  616MOL0     C84899   8.431   1.816   7.256 -0.1232  0.2083 -0.5526
  616MOL0     C84900   8.422   1.699   7.161 -0.6459  0.8740 -0.2003
  616MOL0     O84901   8.303   1.674   7.105 -0.1245  0.1710 -0.0005
  616MOL0     C84902   8.294   1.582   7.005  0.0307 -0.6284 -0.1590
  616MOL0     C84903   8.258   1.632   6.875 -0.3064  0.1190  0.1740
  616MOL0     C84904   8.266   1.551   6.766 -0.4764  0.8691  0.0490
  616MOL0     C84905   8.311   1.413   6.779  1.1874  0.2578  1.1477
  616MOL0     O84906   8.320   1.342   6.663  0.8437  0.5438  0.6750
  616MOL0     C84907   8.379   1.208   6.680  0.3711 -0.3522 -0.0371
  616MOL0     C84908   8.529   1.216   6.719  0.0517  0.5790 -0.2673
  616MOL0     C84909   8.583   1.076   6.763  0.3267 -0.2498 -0.4752
  616MOL0     C84910   8.733   1.068   6.756  0.0774  0.1448  0.1759
  616MOL0     C84911   8.787   0.924   6.779  0.6202  0.3941 -0.4769
  616MOL0     C84912   8.924   0.889   6.723 -0.2455  0.0091 -0.1681
  616MOL0     C84913   8.943   0.737   6.751 -0.7384 -0.9617  0.5389
  616MOL0     C84914   9.070   0.682   6.686  0.3353 -0.2552  0.5377
  616MOL0    Cl84915   9.212   0.740   6.762 -0.0072 -0.1940 -0.3452
  616MOL0     C84916   8.325   1.369   6.907 -0.2370  0.0720 -0.5455
  616MOL0     C84917   8.324   1.451   7.021  0.5845  0.7808  0.1980
  616MOL0     O84918   8.524   1.653   7.123 -0.1048  0.0660 -0.1088
  616MOL0     C84919   8.309   1.840   7.314  0.6709  0.0966 -0.2336
  616MOL0     C84920   8.300   1.926   7.427  0.7322  0.2712 -0.9918
  616MOL0     N84921   8.476   2.670   7.555  0.1018 -0.0024 -0.0058
  616MOL0     N84922   8.516   2.715   7.440  0.0117 -0.2156 -0.0007
  616MOL0     C84923   8.915   3.359   7.441  0.1359 -0.4466 -0.2594
  616MOL0     C84924   8.812   3.437   7.486  0.6294  0.9616  0.4737
  616MOL0     C84925   8.603   3.782   7.660 -0.4562  0.7821  0.2078
  616MOL0     C84926   8.497   3.801   7.571  0.9175 -0.4254 -0.2234
  616MOL0     C84927   8.373   3.835   7.616 -0.0594 -0.6529 -0.7187
  616MOL0     C84928   8.345   3.854   7.758  0.3039  0.5243 -0.6704
  616MOL0     O84929   8.235   3.905   7.818 -0.9627  0.8491 -0.1455
  616MOL0     C84930   8.107   3.932   7.751 -0.1296  0.5533  0.5829
  616MOL0     C84931   8.014   3.989   7.857 -0.5596 -0.1152 -0.3235
  616MOL0     C84932   7.865   3.990   7.806  0.1157  0.0432  0.0760
  616MOL0     C84933   7.745   3.991   7.902 -0.0815  0.8288  0.5337
  616MOL0     C84934   7.621   3.963   7.825  0.3270 -0.2895 -0.7137
  616MOL0     C84935   7.515   3.936   7.768  0.0207  0.4408  0.6793
  616MOL0     C84936   8.454   3.846   7.844  0.2097  0.3246  0.1737
  616MOL0     C84937   8.587   3.810   7.802  0.3999  0.5351 -0.2322
  616MOL0     C84938   8.686   3.808   7.907  0.0455 -0.1384  0.3279
  616MOL0     H84939   8.891   3.725   7.318 -2.5256  0.4616  0.6880
  616MOL0     H84940   9.098   3.579   7.284  0.7974 -1.1199  0.7074
  616MOL0     H84941   9.186   3.190   7.194 -0.6631 -1.2970  0.0344
  616MOL0     H84942   9.024   3.181   7.258  0.6128  0.7888 -3.0673
  616MOL0     H84943   9.271   3.151   7.433  1.0656 -2.6491 -0.9410
  616MOL0     H84944   9.096   3.128   7.480  1.2316 -3.2287  1.1614
  616MOL0     H84945   9.233   2.942   7.296  1.0935 -2.2123  0.9675
  616MOL0     H84946   9.218   2.929   7.467  0.0126  1.9386  0.3653
  616MOL0     H84947   8.970   2.938   7.456 -1.2838 -0.7817 -1.0048
  616MOL0     H84948   8.973   2.976   7.290 -0.4762 -1.0011 -0.0400
  616MOL0     H84949   9.082   2.717   7.382 -1.4295 -2.7494 -0.9782
  616MOL0     H84950   9.042   2.764   7.216 -0.5663  3.7953 -0.9438
  616MOL0     H84951   8.897   2.607   7.363  1.2274  0.3789  1.0803
  616MOL0     H84952   8.842   2.752   7.445  3.6657  2.3585  1.5190
  616MOL0     H84953   8.816   2.727   7.137 -0.2268 -0.2311 -0.4552
  616MOL0     H84954   8.744   2.836   7.246  0.7656 -0.0179  0.9583
  616MOL0     H84955   8.583   2.654   7.173  3.0206  2.0793 -2.6812
  616MOL0     H84956   8.705   2.534   7.223  4.2987  2.2501 -2.1666
  616MOL0     H84957   8.627   2.411   7.429 -3.6774 -1.4540 -0.5866
  616MOL0     H84958   8.374   2.532   7.723  0.4995 -0.2639 -1.5178
  616MOL0     H84959   8.529   2.491   7.770 -0.5841  1.0750 -0.5951
  616MOL0     H84960   8.361   2.298   7.766  0.4669  0.5991  1.8275
  616MOL0     H84961   8.326   2.315   7.607  0.0486 -0.2575  1.0090
  616MOL0     H84962   8.551   2.236   7.528  2.6408 -2.5800  0.1948
  616MOL0     H84963   8.624   2.248   7.688  1.0810 -2.2542 -0.7180
  616MOL0     H84964   8.578   2.018   7.635  0.2736  0.3502 -1.8429
  616MOL0     H84965   8.477   2.067   7.769  0.3733  1.4027  0.2055
  616MOL0     H84966   8.626   2.024   7.443  0.7146 -2.4623 -0.2678
  616MOL0     H84967   8.665   1.850   7.121 -3.2818  0.5359 -1.0696
  616MOL0     H84968   8.735   1.815   7.287  0.4053  0.2898 -0.4055
  616MOL0     H84969   8.726   1.975   7.220 -2.1053 -0.0848 -2.4261
  616MOL0     H84970   8.233   1.737   6.884  2.9890  0.8371  3.6292
  616MOL0     H84971   8.250   1.595   6.668  0.9280  0.2355 -0.4801
  616MOL0     H84972   8.324   1.148   6.753 -0.5048 -1.1852 -1.3381
  616MOL0     H84973   8.374   1.157   6.584  2.7278 -1.1453  0.1984
  616MOL0     H84974   8.588   1.260   6.639 -0.3595  0.1043 -0.8372
  616MOL0     H84975   8.538   1.277   6.810  3.5425  1.3848 -0.9878
  616MOL0     H84976   8.538   0.998   6.702  0.1103 -0.7044  0.2463
  616MOL0     H84977   8.545   1.054   6.863 -3.0798 -0.0771 -1.6219
  616MOL0     H84978   8.778   1.125   6.838 -0.6233  2.0925 -0.7233
  616MOL0     H84979   8.762   1.126   6.668 -1.4464  2.2754  0.9666
  616MOL0     H84980   8.775   0.889   6.881 -0.0040 -1.5097 -1.1650
  616MOL0     H84981   8.706   0.862   6.739 -0.5244  0.4970  1.5359
  616MOL0     H84982   9.002   0.940   6.781 -1.9495  0.8167  1.5312
  616MOL0     H84983   8.919   0.908   6.616  0.1925 -4.0470 -1.0790
  616MOL0     H84984   8.861   0.682   6.703  2.1095 -4.5379 -0.6916
  616MOL0     H84985   8.960   0.707   6.855  2.3789  1.7108  0.9508
  616MOL0     H84986   9.074   0.710   6.580  3.4925  3.0693  1.3144
  616MOL0     H84987   9.070   0.573   6.696  3.6535 -0.4952 -0.8615
  616MOL0     H84988   8.338   1.265   6.933 -1.0273  0.7336  2.9727
  616MOL0     H84989   8.347   1.407   7.117 -2.8341 -0.9540  0.3768
  616MOL0     H84990   8.221   1.792   7.271  1.5996 -0.3963 -1.6571
  616MOL0     H84991   8.201   1.942   7.468  0.8594  0.0580 -0.5951
  616MOL0     H84992   8.933   3.254   7.466  2.7481 -0.0514 -0.2478
  616MOL0     H84993   8.747   3.397   7.563  0.8704  2.0604  1.2748
  616MOL0     H84994   8.515   3.796   7.464 -0.1049  0.5709 -0.4631
  616MOL0     H84995   8.294   3.840   7.542  0.1534  0.9755 -0.8701
  616MOL0     H84996   8.114   4.015   7.680 -0.8769 -1.5091 -2.0885
  616MOL0     H84997   8.071   3.845   7.695  3.9848 -1.2367  0.3539
  616MOL0     H84998   8.047   4.089   7.888  0.6328 -0.2233 -1.1652
  616MOL0     H84999   8.022   3.925   7.945 -0.4278 -1.2017 -1.0920
  616MOL0     H85000   7.852   4.078   7.742  2.1736 -0.2763 -0.8751
  616MOL0     H85001   7.850   3.900   7.745 -1.1735  0.8024 -0.7684
  616MOL0     H85002   7.738   4.089   7.950 -1.3520  2.6072 -2.9023
  616MOL0     H85003   7.752   3.913   7.977 -0.3353 -0.9402 -1.2060
  616MOL0     H85004   7.430   3.910   7.708  0.9684 -1.9034  0.2511
  616MOL0     H85005   8.434   3.865   7.949  0.8755  0.9005  0.2048
  616MOL0     H85006   8.699   3.704   7.939  0.7349 -0.0951  0.1899
  616MOL0     H85007   8.779   3.846   7.866  1.2800 -0.3731  2.7200
  616MOL0     H85008   8.660   3.870   7.994  0.9474  0.6883  0.0240
  617MOL0     O85009   3.197   1.038   6.428 -0.4492 -0.1974 -0.0128
  617MOL0     C85010   3.234   0.991   6.320  0.1558 -0.9927  0.2966
  617MOL0     O85011   3.362   1.020   6.274 -0.8406  0.5577 -0.0751
  617MOL0     C85012   3.465   1.036   6.364 -0.6056  0.1769 -0.2548
  617MOL0     C85013   3.485   0.942   6.466  0.3482  0.7864  0.3797
  617MOL0     C85014   3.595   0.948   6.547 -0.3831  0.2305 -0.5116
  617MOL0     C85015   3.684   1.060   6.550 -0.0133 -0.3844 -0.5262
  617MOL0     O85016   3.798   1.049   6.628  0.3249 -0.2945  0.3238
  617MOL0     C85017   3.839   1.171   6.699  0.5288 -0.6118 -0.0530
  617MOL0     C85018   3.813   1.152   6.851 -0.3641 -0.3012  0.4866
  617MOL0     C85019   3.888   1.259   6.937 -0.3243  0.5895  0.0112
  617MOL0     C85020   3.893   1.221   7.080  0.2353  0.4160  0.8542
  617MOL0     C85021   4.005   1.288   7.149 -0.0241 -0.0785 -0.4138
  617MOL0     C85022   4.015   1.442   7.124 -0.6627  0.5275  0.1504
  617MOL0     C85023   4.123   1.504   7.213  0.3758  0.4603  0.0763
  617MOL0     C85024   4.270   1.447   7.198  0.6417 -0.3425 -0.2432
  617MOL0     N85025   4.371   1.549   7.199  0.5963 -0.3667  0.4721
  617MOL0     C85026   4.477   1.540   7.281  0.3124 -0.0338 -0.3517
  617MOL0     C85027   4.550   1.651   7.261  0.0717  0.9250  0.1318
  617MOL0     C85028   4.680   1.687   7.325 -0.1875 -0.3995 -0.9088
  617MOL0     C85029   4.808   1.634   7.254 -0.3262  0.0577 -0.7104
  617MOL0     C85030   4.839   1.724   7.129  0.0492 -0.5638  0.1156
  617MOL0     C85031   4.901   1.857   7.171 -1.3833  0.4553  0.6433
  617MOL0     O85032   4.992   1.896   7.061 -0.4999 -0.5198 -1.1674
  617MOL0     C85033   4.948   1.972   6.960 -0.0305  0.4678  0.4055
  617MOL0     C85034   5.054   2.008   6.870  0.9765  0.7228  0.0250
  617MOL0     C85035   5.025   2.094   6.760 -0.6214  0.0440 -0.7172
  617MOL0     C85036   5.149   2.123   6.675  0.0328  0.9231 -0.2192
  617MOL0     C85037   4.885   2.112   6.728 -0.5129 -0.5962 -0.2094
  617MOL0     C85038   4.835   2.170   6.599 -0.7754 -0.8288  0.7817
  617MOL0     O85039   4.695   2.185   6.586  0.0983 -0.8814  0.3144
  617MOL0     C85040   4.655   2.238   6.468 -0.2907  0.9843 -0.0373
  617MOL0     C85041   4.637   2.160   6.352 -0.8985 -0.0530 -0.0898
  617MOL0     C85042   4.603   2.218   6.234  0.1603 -0.5479 -0.0390
  617MOL0     C85043   4.608   2.355   6.234  0.3283 -0.2033  0.3228
  617MOL0     O85044   4.601   2.418   6.111  0.2003  0.8309 -0.1636
  617MOL0     C85045   4.489   2.513   6.111 -0.1271 -0.7248  2.0123
  617MOL0     C85046   4.407   2.497   5.988 -0.2858  0.1160 -0.0512
  617MOL0     C85047   4.350   2.630   5.936 -0.0577 -0.6564  0.1826
  617MOL0     C85048   4.241   2.595   5.836  0.3597  0.5967  0.2370
  617MOL0     C85049   4.107   2.606   5.903  0.2176 -0.6749  0.0757
  617MOL0     C85050   4.001   2.572   5.807 -0.4050  0.3419 -0.8258
  617MOL0     C85051   3.876   2.506   5.872 -0.9416 -1.1395  0.0796
  617MOL0     C85052   3.823   2.605   5.974 -0.2193  0.1199  0.1855
  617MOL0    Cl85053   3.679   2.516   6.033  0.0198  0.1425 -0.1143
  617MOL0     C85054   4.637   2.437   6.354  1.3130 -0.1578 -0.4174
  617MOL0     C85055   4.661   2.372   6.476  0.9047 -0.1227 -0.6255
  617MOL0     O85056   4.917   2.216   6.515  0.1018 -0.7291 -0.1546
  617MOL0     C85057   4.787   2.063   6.812 -0.0068  0.0143  0.8494
  617MOL0     C85058   4.814   2.003   6.933  0.2862 -0.5235  0.0993
  617MOL0     N85059   4.485   1.723   7.165  0.4589 -0.1759  0.5669
  617MOL0     N85060   4.388   1.654   7.123 -0.0973  0.1633 -0.1682
  617MOL0     C85061   3.666   1.145   6.437  0.2029  0.7402 -1.1798
  617MOL0     C85062   3.553   1.145   6.353 -0.1951 -0.8426 -1.1470
  617MOL0     C85063   3.139   0.912   6.246 -0.8056  0.1329  0.8334
  617MOL0     C85064   3.174   0.888   6.110  0.1882  0.1749 -0.5062
  617MOL0     C85065   3.099   0.807   6.024 -0.3560  0.4225  1.0313
  617MOL0     C85066   2.980   0.750   6.078 -0.2364 -0.8112  0.1545
  617MOL0     O85067   2.911   0.667   5.998 -0.5414  0.0033  0.7925
  617MOL0     C85068   2.800   0.725   5.926  0.6702  0.6013 -0.1226
  617MOL0     C85069   2.792   0.673   5.784 -0.7632  0.0371 -0.4531
  617MOL0     C85070   2.891   0.758   5.711 -0.1424  0.0507  0.1580
  617MOL0     C85071   2.900   0.723   5.561  0.4065 -0.2159  0.0168
  617MOL0     C85072   2.780   0.762   5.484  0.5175  0.3108  0.0542
  617MOL0     C85073   2.692   0.805   5.423 -0.3423  0.3275 -0.0788
  617MOL0     C85074   2.933   0.778   6.206  0.3096  0.2762  0.2172
  617MOL0     C85075   3.014   0.860   6.290  0.7575 -0.8649 -0.0837
  617MOL0     C85076   2.947   0.893   6.420 -0.0226  0.7910  0.0672
  617MOL0     H85077   3.423   0.855   6.486 -1.8168  2.1760 -0.0015
  617MOL0     H85078   3.620   0.866   6.614 -1.5613  0.4853  0.2818
  617MOL0     H85079   3.790   1.253   6.645  0.0954 -1.6578 -1.3110
  617MOL0     H85080   3.947   1.183   6.687  0.3137  1.7848 -0.0718
  617MOL0     H85081   3.706   1.145   6.871 -0.6622 -0.6911 -1.1124
  617MOL0     H85082   3.868   1.062   6.881 -0.5755 -0.9497 -0.9701
  617MOL0     H85083   3.995   1.272   6.915 -0.5533  1.2189 -0.7823
  617MOL0     H85084   3.837   1.356   6.937 -2.2492 -0.1853  4.4843
  617MOL0     H85085   3.799   1.255   7.125 -0.2368  2.9594 -1.7168
  617MOL0     H85086   3.904   1.112   7.083  0.4686  0.4133  0.1137
  617MOL0     H85087   4.102   1.240   7.128  2.3308  2.4955  3.4019
  617MOL0     H85088   3.982   1.284   7.256  0.7625  0.7730 -0.1950
  617MOL0     H85089   4.053   1.460   7.023  0.2822 -0.1164  0.3771
  617MOL0     H85090   3.922   1.497   7.138 -0.5082  1.1646 -1.1836
  617MOL0     H85091   4.098   1.488   7.318  0.3448  0.3956  0.0591
  617MOL0     H85092   4.129   1.612   7.193 -1.0392  0.4830 -0.3180
  617MOL0     H85093   4.291   1.363   7.265 -2.4659 -0.2998  0.9742
  617MOL0     H85094   4.278   1.413   7.094 -2.5782  1.1971 -1.1335
  617MOL0     H85095   4.489   1.453   7.345 -0.8607 -0.4868 -0.7213
  617MOL0     H85096   4.683   1.653   7.429  1.2950  1.1250 -0.4094
  617MOL0     H85097   4.688   1.796   7.325 -0.0728 -0.4075 -1.2598
  617MOL0     H85098   4.886   1.631   7.331 -0.9928 -1.3743 -0.0554
  617MOL0     H85099   4.788   1.529   7.230 -2.2559  0.2800 -0.2187
  617MOL0     H85100   4.906   1.666   7.065 -0.1013 -0.7546  0.1285
  617MOL0     H85101   4.750   1.756   7.073  1.0853  4.9808  1.0744
  617MOL0     H85102   4.830   1.938   7.189  0.6569  2.2872  0.7606
  617MOL0     H85103   4.952   1.839   7.266 -1.2300 -1.5794  0.2381
  617MOL0     H85104   5.146   1.956   6.893 -0.1015 -1.4216 -0.2349
  617MOL0     H85105   5.124   2.102   6.570 -0.7716 -0.1861  0.1832
  617MOL0     H85106   5.227   2.051   6.701  0.9459  0.9902 -2.4720
  617MOL0     H85107   5.185   2.226   6.676  0.5226  0.8582 -2.8617
  617MOL0     H85108   4.648   2.053   6.363  1.2868 -0.1125 -2.1695
  617MOL0     H85109   4.575   2.154   6.152 -0.0960 -1.6000  0.8545
  617MOL0     H85110   4.424   2.498   6.197 -0.1045  0.2233  2.2085
  617MOL0     H85111   4.537   2.611   6.111  0.4618 -0.9962  0.9844
  617MOL0     H85112   4.468   2.455   5.907 -2.3800 -2.2479 -0.5293
  617MOL0     H85113   4.326   2.428   6.011 -1.0574  1.7562  2.5252
  617MOL0     H85114   4.426   2.678   5.874 -0.3653 -3.5577 -2.7392
  617MOL0     H85115   4.310   2.695   6.014  0.3592 -0.5995  0.3479
  617MOL0     H85116   4.253   2.492   5.801 -1.9916  0.3437  0.0015
  617MOL0     H85117   4.244   2.660   5.748  0.2103 -1.4877 -1.3960
  617MOL0     H85118   4.095   2.546   5.994  0.9573 -3.3622 -1.4922
  617MOL0     H85119   4.086   2.712   5.920 -0.1604 -0.8987  1.0695
  617MOL0     H85120   4.032   2.492   5.739 -0.2955 -0.3909  0.0611
  617MOL0     H85121   3.964   2.656   5.749 -1.3494  0.6498  0.1945
  617MOL0     H85122   3.899   2.410   5.919  1.5466 -0.6334  0.0501
  617MOL0     H85123   3.797   2.496   5.797  1.4603 -0.0364 -2.8081
  617MOL0     H85124   3.799   2.700   5.927 -0.4976  0.4185  0.9107
  617MOL0     H85125   3.893   2.616   6.058  2.0112  1.3813 -1.7252
  617MOL0     H85126   4.647   2.545   6.345  2.5949 -0.0001  2.1140
  617MOL0     H85127   4.684   2.434   6.562 -2.0749  0.3961 -0.0741
  617MOL0     H85128   4.681   2.074   6.794 -0.7670 -3.1934  2.5829
  617MOL0     H85129   4.735   1.959   6.991 -1.0916 -1.9704 -2.6668
  617MOL0     H85130   3.739   1.225   6.426 -0.2358  1.5388  1.1242
  617MOL0     H85131   3.541   1.228   6.285  0.4642 -1.4514 -2.0252
  617MOL0     H85132   3.271   0.911   6.066  0.6661 -1.8778 -0.6509
  617MOL0     H85133   3.129   0.780   5.924 -1.7515 -1.5623  1.0881
  617MOL0     H85134   2.718   0.695   5.991  2.3730 -2.8650  0.5974
  617MOL0     H85135   2.798   0.835   5.923  0.4746  0.6089  0.3102
  617MOL0     H85136   2.694   0.679   5.736 -0.5294 -1.2950 -1.1437
  617MOL0     H85137   2.824   0.569   5.778  1.6630  0.6023  1.0680
  617MOL0     H85138   2.860   0.862   5.720  2.7000  1.1621 -1.6534
  617MOL0     H85139   2.993   0.750   5.749 -0.0293 -3.1140 -0.5578
  617MOL0     H85140   2.916   0.615   5.559 -0.9415 -0.4255 -0.8031
  617MOL0     H85141   2.983   0.765   5.503 -0.6978  1.1359 -0.6527
  617MOL0     H85142   2.608   0.841   5.367 -0.8909 -2.2447 -1.0270
  617MOL0     H85143   2.838   0.740   6.242  0.9176  0.6807  2.3576
  617MOL0     H85144   3.020   0.907   6.500 -2.4164  0.0427  2.5220
  617MOL0     H85145   2.890   0.985   6.405  0.6582  2.0382  4.0356
  617MOL0     H85146   2.880   0.817   6.461  0.1369  1.5885  1.8803
  618MOL0     O85147   2.872   5.915   4.876  0.2857 -0.8356 -0.0996
  618MOL0     C85148   2.839   5.988   4.969  1.0027 -0.2603 -0.1177
  618MOL0     O85149   2.930   6.050   5.056  0.0890 -0.2988 -1.1404
  618MOL0     C85150   3.061   6.038   5.039  0.3086  0.3964  0.0674
  618MOL0     C85151   3.121   5.919   5.094  0.3838 -1.0184  0.2639
  618MOL0     C85152   3.260   5.913   5.073  0.3446 -0.2204 -0.4425
  618MOL0     C85153   3.345   6.006   5.013  0.3003 -0.4650  0.4624
  618MOL0     O85154   3.478   5.975   4.981  0.0048  0.5554  0.4983
  618MOL0     C85155   3.527   5.843   4.977 -0.4455 -0.2439 -0.3034
  618MOL0     C85156   3.670   5.851   4.922  0.2284 -0.3677 -0.3954
  618MOL0     C85157   3.721   5.713   4.893  0.2480 -0.4852  0.1106
  618MOL0     C85158   3.877   5.705   4.896 -0.2369 -0.0192  0.4570
  618MOL0     C85159   3.960   5.755   5.024  0.5278 -0.1469  0.4857
  618MOL0     C85160   3.937   5.679   5.148 -0.8567  0.3494  0.8441
  618MOL0     C85161   3.981   5.770   5.268 -0.6859  0.5888 -0.8551
  618MOL0     C85162   3.970   5.707   5.407 -0.6658 -0.2450 -0.0730
  618MOL0     N85163   4.030   5.792   5.510 -0.0031 -0.6472  0.4060
  618MOL0     C85164   3.970   5.895   5.582  0.0439  0.2703 -0.1376
  618MOL0     C85165   4.065   5.951   5.661  0.5027 -0.7106  0.4860
  618MOL0     C85166   4.037   6.066   5.746 -0.4013 -0.1632  0.0214
  618MOL0     C85167   4.157   6.117   5.814  0.0973  0.2213  0.9723
  618MOL0     C85168   4.134   6.251   5.885 -0.6115  0.2920  0.1246
  618MOL0     C85169   4.268   6.279   5.960  0.0892  0.1002 -0.1316
  618MOL0     O85170   4.387   6.248   5.883 -0.1745 -0.8428  0.2258
  618MOL0     C85171   4.436   6.351   5.799  0.9245 -0.3179  0.2652
  618MOL0     C85172   4.569   6.338   5.758  0.1270 -0.3032  0.2891
  618MOL0     C85173   4.629   6.420   5.665  0.4953 -1.6028 -0.1358
  618MOL0     C85174   4.772   6.373   5.624  0.7368 -0.4972  0.3422
  618MOL0     C85175   4.551   6.518   5.601  0.1874 -0.0474  0.8867
  618MOL0     C85176   4.603   6.601   5.485  1.2793  0.4629 -0.1220
  618MOL0     O85177   4.496   6.650   5.411  0.1589 -0.9521  0.1610
  618MOL0     C85178   4.518   6.763   5.329 -0.4448  0.8509  0.0871
  618MOL0     C85179   4.506   6.886   5.382 -0.0224  0.1760 -0.0095
  618MOL0     C85180   4.511   6.996   5.297 -0.3495  0.0711 -0.4219
  618MOL0     C85181   4.533   6.984   5.160  0.3260 -0.4145 -0.3260
  618MOL0     O85182   4.545   7.080   5.058 -0.0016 -0.8944  0.9235
  618MOL0     C85183   4.489   7.212   5.075  0.0312 -0.0941 -0.4000
  618MOL0     C85184   4.603   7.308   5.120 -0.1831 -0.6892 -0.1402
  618MOL0     C85185   4.697   7.338   5.002  0.7046 -0.1847 -0.3509
  618MOL0     C85186   4.789   7.457   5.028 -0.7272 -0.3630  0.3979
  618MOL0     C85187   4.849   7.516   4.896 -0.1366  0.5858 -1.2665
  618MOL0     C85188   4.887   7.662   4.919  0.7862 -0.0692 -0.0635
  618MOL0     C85189   4.986   7.706   4.814 -0.4446 -0.0930  0.0194
  618MOL0     C85190   4.994   7.857   4.801 -0.0145  0.1379  0.3856
  618MOL0    Cl85191   5.111   7.876   4.670  0.2306  0.1830 -0.5329
  618MOL0     C85192   4.539   6.859   5.110 -0.5299 -0.8733 -0.6487
  618MOL0     C85193   4.528   6.746   5.194  0.4087 -0.2156  0.0212
  618MOL0     O85194   4.722   6.620   5.468 -0.0042  0.4395  0.3530
  618MOL0     C85195   4.422   6.537   5.654  0.5301 -0.2650  0.0147
  618MOL0     C85196   4.361   6.452   5.752 -0.2977  0.1965  0.8579
  618MOL0     N85197   4.186   5.879   5.643  0.1162  0.2034 -0.6429
  618MOL0     N85198   4.161   5.788   5.554  0.4636 -0.4156 -0.2780
  618MOL0     C85199   3.281   6.119   4.953 -0.0673 -0.2016 -0.1083
  618MOL0     C85200   3.139   6.139   4.975 -1.2006 -0.0027  0.7670
  618MOL0     C85201   2.695   6.021   4.995 -0.7803  0.2574 -0.0238
  618MOL0     C85202   2.663   6.039   5.132  0.3243 -0.3816  0.6245
  618MOL0     C85203   2.534   6.079   5.164 -0.5049 -0.4453  0.5022
  618MOL0     C85204   2.435   6.085   5.066 -0.0366 -0.0605 -0.7209
  618MOL0     O85205   2.301   6.106   5.071 -0.0635 -0.3773 -0.6915
  618MOL0     C85206   2.248   6.106   5.202  0.0537  0.6609 -0.9964
  618MOL0     C85207   2.100   6.067   5.199 -0.1469  0.0450  0.7846
  618MOL0     C85208   2.010   6.191   5.192  0.6239  0.0752  0.7817
  618MOL0     C85209   1.962   6.230   5.054  0.6353  0.5387  0.3277
  618MOL0     C85210   1.848   6.323   5.063  0.3821  0.3035 -0.2706
  618MOL0     C85211   1.756   6.405   5.078  1.2642  0.1182  0.9451
  618MOL0     C85212   2.469   6.057   4.938  0.8637  1.1068  0.9744
  618MOL0     C85213   2.602   6.033   4.892  0.0739 -0.3355 -0.2672
  618MOL0     C85214   2.631   6.019   4.745  0.4009  0.0372  0.5618
  618MOL0     H85215   3.068   5.836   5.140  4.0281 -2.2005  2.8129
  618MOL0     H85216   3.305   5.818   5.102  0.9194  0.3217  0.4825
  618MOL0     H85217   3.466   5.781   4.910 -0.4049 -0.4122 -0.1868
  618MOL0     H85218   3.527   5.804   5.079  1.8224 -0.4865 -0.3369
  618MOL0     H85219   3.681   5.920   4.837  0.2924  0.4580  0.2720
  618MOL0     H85220   3.730   5.898   5.000  2.3507 -0.0628 -2.1174
  618MOL0     H85221   3.678   5.639   4.961 -0.4406  0.1141  0.3360
  618MOL0     H85222   3.686   5.685   4.793  1.6124 -0.9445 -0.2593
  618MOL0     H85223   3.902   5.603   4.864  0.9677  0.4864 -0.2888
  618MOL0     H85224   3.918   5.764   4.813  1.4207 -0.1352  1.1453
  618MOL0     H85225   3.940   5.860   5.045  0.3805  0.1161 -0.8830
  618MOL0     H85226   4.066   5.749   4.997  0.2345 -0.4283 -0.6654
  618MOL0     H85227   3.832   5.647   5.158  0.2698 -3.3957  2.6592
  618MOL0     H85228   3.975   5.576   5.144 -1.5169  0.0477 -3.6886
  618MOL0     H85229   3.924   5.863   5.275 -0.0658  0.8488  2.7834
  618MOL0     H85230   4.086   5.795   5.256 -0.2119  1.3083  3.2535
  618MOL0     H85231   3.867   5.693   5.441 -0.0333  0.6650  2.3581
  618MOL0     H85232   4.024   5.612   5.407 -2.0940 -1.0806  0.6316
  618MOL0     H85233   3.866   5.924   5.574  0.6392  1.9221 -3.1445
  618MOL0     H85234   3.969   6.034   5.825 -0.0483 -1.1539 -0.0706
  618MOL0     H85235   3.982   6.143   5.690  0.0719 -1.1885 -1.9637
  618MOL0     H85236   4.195   6.043   5.886  0.6818 -0.8433 -0.3904
  618MOL0     H85237   4.237   6.126   5.739 -0.7082 -0.0477  0.0690
  618MOL0     H85238   4.113   6.319   5.802  2.6517  0.5914 -0.6101
  618MOL0     H85239   4.048   6.246   5.951 -1.8077  1.0900 -1.2881
  618MOL0     H85240   4.277   6.384   5.987 -1.9766 -0.1681  1.9264
  618MOL0     H85241   4.276   6.218   6.051 -1.1648  2.7022  1.8506
  618MOL0     H85242   4.631   6.257   5.794 -1.0139 -3.2234 -3.5957
  618MOL0     H85243   4.809   6.304   5.702  0.4941 -0.4538  0.4960
  618MOL0     H85244   4.842   6.457   5.638 -0.9966  1.3161 -1.3303
  618MOL0     H85245   4.785   6.318   5.531  1.6703 -0.9535  0.7243
  618MOL0     H85246   4.476   6.888   5.486 -3.4221 -4.1843 -0.6140
  618MOL0     H85247   4.504   7.095   5.341 -1.6447 -0.3113  0.2839
  618MOL0     H85248   4.469   7.242   4.972  0.3469 -0.8416 -0.6866
  618MOL0     H85249   4.400   7.216   5.139 -0.0727  1.6941 -0.6299
  618MOL0     H85250   4.553   7.391   5.170 -2.3006  0.0137 -3.1137
  618MOL0     H85251   4.657   7.255   5.199  0.7203 -2.3324 -1.7445
  618MOL0     H85252   4.638   7.357   4.912  0.0393 -4.0864 -0.9256
  618MOL0     H85253   4.753   7.250   4.969  3.0890  2.2226 -3.3796
  618MOL0     H85254   4.864   7.432   5.103  0.2137  1.2872  0.0428
  618MOL0     H85255   4.720   7.535   5.062 -0.1633  0.8070 -1.0540
  618MOL0     H85256   4.932   7.459   4.854 -0.1793  0.6139 -1.3898
  618MOL0     H85257   4.770   7.518   4.820  0.4190  0.2740 -1.8626
  618MOL0     H85258   4.926   7.672   5.021 -0.0898  0.9453  0.1986
  618MOL0     H85259   4.798   7.726   4.917 -0.5298 -1.8801 -1.2693
  618MOL0     H85260   4.942   7.663   4.724 -3.4121  0.8671  0.8868
  618MOL0     H85261   5.082   7.663   4.842 -0.0229 -0.7387 -2.2245
  618MOL0     H85262   5.047   7.892   4.890 -0.1469 -3.0144  1.8434
  618MOL0     H85263   4.903   7.915   4.784 -0.7694 -0.6776  1.5282
  618MOL0     H85264   4.544   6.851   5.002  3.0447  1.2309 -0.7913
  618MOL0     H85265   4.535   6.646   5.152  0.0626 -0.8552  1.4286
  618MOL0     H85266   4.356   6.618   5.624  1.1639  1.4519  2.8660
  618MOL0     H85267   4.256   6.475   5.763 -0.6156 -0.0260 -1.3344
  618MOL0     H85268   3.333   6.185   4.884  1.5936 -0.9017  0.4235
  618MOL0     H85269   3.087   6.230   4.948  0.1156  0.3945 -0.5505
  618MOL0     H85270   2.733   6.022   5.214  0.3745  0.7934  0.8393
  618MOL0     H85271   2.500   6.114   5.261 -2.2501  1.8258 -0.8285
  618MOL0     H85272   2.296   6.033   5.267  1.4068  1.8291 -0.6361
  618MOL0     H85273   2.265   6.204   5.248 -2.2962  0.8705 -0.4573
  618MOL0     H85274   2.070   6.013   5.289 -4.0382  0.5096 -0.0864
  618MOL0     H85275   2.077   5.998   5.117 -0.8897  1.0703  0.1174
  618MOL0     H85276   1.915   6.163   5.240  0.0132 -0.8373 -0.8952
  618MOL0     H85277   2.053   6.273   5.250  2.8610  0.6998 -1.5685
  618MOL0     H85278   1.931   6.135   5.009  0.3639  0.4787  0.6432
  618MOL0     H85279   2.040   6.269   4.987  0.1719  1.7471  0.4673
  618MOL0     H85280   1.678   6.477   5.090 -0.0098 -0.6512 -1.9165
  618MOL0     H85281   2.385   6.059   4.868  0.4815  2.1154  1.4496
  618MOL0     H85282   2.685   6.106   4.707 -0.5821  0.6108  0.4225
  618MOL0     H85283   2.689   5.929   4.722 -0.2662  0.0205 -1.2583
  618MOL0     H85284   2.545   6.010   4.678  0.4079  0.9154  0.4300
  619MOL0     O85285   8.399   9.545   5.646  0.2277 -0.0466  0.5609
  619MOL0     C85286   8.350   9.664   5.657 -0.1238 -0.9726 -0.3372
  619MOL0     O85287   8.396   9.791   5.607  0.4684  0.2276 -0.4505
  619MOL0     C85288   8.480   9.799   5.501  0.8080 -0.3195  0.1403
  619MOL0     C85289   8.444   9.740   5.385 -0.3412 -0.4666  0.4469
  619MOL0     C85290   8.529   9.739   5.265  0.6502 -0.9319 -0.0571
  619MOL0     C85291   8.641   9.816   5.266 -0.1382 -0.6489  0.0915
  619MOL0     O85292   8.716   9.821   5.153  0.1591 -0.5987  0.5237
  619MOL0     C85293   8.857   9.828   5.181 -1.3938  0.4382 -0.1885
  619MOL0     C85294   8.940   9.753   5.082  0.2654  0.7243  1.4846
  619MOL0     C85295   9.089   9.738   5.127  0.0913 -0.4877  0.7577
  619MOL0     C85296   9.168   9.864   5.090  0.0728 -0.0476 -0.2561
  619MOL0     C85297   9.324   9.846   5.127  0.7771  0.1820  0.0726
  619MOL0     C85298   9.412   9.956   5.063  0.1528 -0.4594 -0.2122
  619MOL0     C85299   9.557   9.951   5.095  0.5876  0.2013  0.2432
  619MOL0     C85300   9.623   9.818   5.045 -1.2228 -0.2117  0.4128
  619MOL0     N85301   9.609   9.708   5.137  0.2023 -0.2175 -1.1070
  619MOL0     C85302   9.638   9.713   5.271 -0.5073  0.2868  0.0954
  619MOL0     C85303   9.605   9.588   5.315  0.7971  0.5452  0.3390
  619MOL0     C85304   9.631   9.541   5.452  1.1930  0.1506  0.5759
  619MOL0     C85305   9.732   9.425   5.454  0.2229  0.1517  0.4424
  619MOL0     C85306   9.868   9.475   5.389 -0.1991 -0.1628 -0.0736
  619MOL0     C85307   9.954   9.572   5.475  0.6737 -0.4708  1.5267
  619MOL0     O85308   9.894   9.704   5.477  0.3267  0.2188 -0.6221
  619MOL0     C85309   9.939   9.803   5.568 -0.1718  0.3605  1.5693
  619MOL0     C85310   9.898   9.935   5.546  0.4009 -0.7483 -0.0251
  619MOL0     C85311   9.933  10.043   5.631  0.1650  0.1005  0.2624
  619MOL0     C85312   9.889  10.185   5.591  0.3797  1.0406 -0.3349
  619MOL0     C85313  10.020  10.017   5.743 -0.2504  0.4413  0.5431
  619MOL0     C85314  10.066  10.120   5.850  1.0783  0.1649 -0.1900
  619MOL0     O85315  10.111  10.070   5.970  0.3725  0.4048  0.6775
  619MOL0     C85316  10.157  10.159   6.073 -0.1706  0.2812  0.2953
  619MOL0     C85317  10.228  10.277   6.051  1.2189  0.1225  0.5343
  619MOL0     C85318  10.286  10.347   6.164 -0.3994  0.3441  0.5710
  619MOL0     C85319  10.271  10.304   6.292  0.4634 -0.5668  0.1848
  619MOL0     O85320  10.319  10.376   6.396  0.6056  0.3087 -0.0920
  619MOL0     C85321  10.323  10.319   6.525 -0.7666 -0.6120 -0.4107
  619MOL0     C85322  10.365  10.410   6.640  0.2237  0.1106  0.0590
  619MOL0     C85323  10.312  10.557   6.626  0.8587 -0.1437 -0.3355
  619MOL0     C85324  10.170  10.589   6.677  0.2374  0.3497 -0.3956
  619MOL0     C85325  10.112  10.715   6.621  0.2619  0.2461  0.0079
  619MOL0     C85326   9.970  10.759   6.664 -0.4079 -0.1506 -0.8012
  619MOL0     C85327   9.948  10.745   6.821 -0.3686 -0.5267 -0.6381
  619MOL0     C85328   9.814  10.806   6.881  0.0920  0.5664 -0.4128
  619MOL0    Cl85329   9.695  10.705   6.803  0.0953  0.1794 -0.5112
  619MOL0     C85330  10.198  10.188   6.307 -0.8713  0.0822 -0.4628
  619MOL0     C85331  10.147  10.116   6.203  0.2536  0.6525 -0.0874
  619MOL0     O85332  10.043  10.236   5.822  0.1903  0.6781  0.1501
  619MOL0     C85333  10.067   9.879   5.759 -0.5399  0.4073 -0.4892
  619MOL0     C85334  10.025   9.775   5.677  0.4979 -0.6375 -0.3335
  619MOL0     N85335   9.550   9.514   5.212  0.5723 -0.5724 -0.1187
  619MOL0     N85336   9.553   9.589   5.111 -0.6231  0.1646  0.4297
  619MOL0     C85337   8.668   9.898   5.383  0.0503  0.4049 -0.3449
  619MOL0     C85338   8.597   9.886   5.499  0.6783  0.0887  0.3125
  619MOL0     C85339   8.227   9.680   5.738  0.0273  0.0286 -0.5927
  619MOL0     C85340   8.135   9.781   5.698 -0.2210  0.7758 -0.3733
  619MOL0     C85341   8.005   9.788   5.750 -0.1698 -0.2952  0.5886
  619MOL0     C85342   7.966   9.700   5.850  0.2145 -0.0173 -0.0573
  619MOL0     O85343   7.833   9.684   5.892  0.2194 -0.6393 -0.1031
  619MOL0     C85344   7.804   9.784   6.000 -0.4820  0.1538  0.5270
  619MOL0     C85345   7.739   9.910   5.955  0.2035  0.2202 -0.4121
  619MOL0     C85346   7.601   9.880   5.894 -0.1572 -0.2689  0.3923
  619MOL0     C85347   7.612   9.820   5.752 -0.2180 -0.0541  0.8492
  619MOL0     C85348   7.483   9.835   5.678  0.3142 -1.3122 -0.2881
  619MOL0     C85349   7.362   9.828   5.648 -0.3644  0.5505  0.7478
  619MOL0     C85350   8.051   9.604   5.892 -0.2775 -0.0886  0.7652
  619MOL0     C85351   8.181   9.592   5.836  0.0300 -0.3721 -0.9980
  619MOL0     C85352   8.261   9.479   5.896 -0.2071  0.4093  0.0556
  619MOL0     H85353   8.356   9.675   5.384 -0.6222 -0.1121  1.1907
  619MOL0     H85354   8.494   9.690   5.175  0.4427 -0.1950 -0.3856
  619MOL0     H85355   8.875   9.786   5.280 -2.7962  2.0521  0.7893
  619MOL0     H85356   8.897   9.929   5.181  0.2983 -0.0691 -3.6325
  619MOL0     H85357   8.887   9.663   5.052 -4.0821  3.3557  0.3703
  619MOL0     H85358   8.945   9.815   4.992  1.4405  0.2793  1.2193
  619MOL0     H85359   9.082   9.727   5.236 -4.7936 -0.4471  0.6791
  619MOL0     H85360   9.137   9.652   5.081 -0.7539 -1.2253  1.2350
  619MOL0     H85361   9.146   9.893   4.987 -0.7696  1.1595  0.2351
  619MOL0     H85362   9.122   9.946   5.146  2.4888  1.7188 -0.6809
  619MOL0     H85363   9.353   9.743   5.106  2.0181 -1.0325  6.1411
  619MOL0     H85364   9.336   9.858   5.235  3.3394 -0.1715 -0.1141
  619MOL0     H85365   9.393   9.950   4.955  0.2510 -4.8853 -0.1838
  619MOL0     H85366   9.370  10.055   5.084  0.9372  0.1149 -1.2746
  619MOL0     H85367   9.575   9.972   5.201 -0.2492  1.6861  0.1148
  619MOL0     H85368   9.602  10.036   5.042  1.6484 -0.0176  0.7523
  619MOL0     H85369   9.599   9.796   4.941  4.2421 -2.3218 -0.7610
  619MOL0     H85370   9.728   9.847   5.031 -1.1215 -1.1786 -1.0275
  619MOL0     H85371   9.695   9.783   5.331 -1.1027  1.2320 -0.4116
  619MOL0     H85372   9.540   9.499   5.494  1.1626 -1.9087 -1.3848
  619MOL0     H85373   9.660   9.624   5.518  1.1344  0.9003 -0.3197
  619MOL0     H85374   9.742   9.398   5.559  1.1287  2.6480  1.0540
  619MOL0     H85375   9.694   9.345   5.389  1.8801 -0.5600  0.3120
  619MOL0     H85376   9.934   9.389   5.373 -0.2058 -1.0198  3.5643
  619MOL0     H85377   9.852   9.518   5.290  0.3801  1.2522  0.4211
  619MOL0     H85378   9.957   9.521   5.572  0.6547 -2.7119  0.4178
  619MOL0     H85379  10.049   9.593   5.426 -1.1564  1.0929 -1.6438
  619MOL0     H85380   9.839   9.947   5.455  1.1239  1.7267 -0.2519
  619MOL0     H85381   9.841  10.235   5.675 -1.4304 -0.9091 -0.1078
  619MOL0     H85382   9.821  10.184   5.505  0.3755 -3.9219 -0.5868
  619MOL0     H85383   9.974  10.249   5.565  1.0763 -0.2157 -1.2749
  619MOL0     H85384  10.247  10.322   5.954  0.1846 -0.9881 -0.2208
  619MOL0     H85385  10.336  10.443   6.157 -0.8966  0.5075 -1.1357
  619MOL0     H85386  10.222  10.292   6.554 -0.7887  1.1185  1.3471
  619MOL0     H85387  10.388  10.231   6.530  0.6583  0.4729  3.1249
  619MOL0     H85388  10.325  10.368   6.732 -0.1472 -0.8844 -0.5362
  619MOL0     H85389  10.470  10.422   6.665 -0.7735  3.8156  3.5658
  619MOL0     H85390  10.326  10.586   6.522 -1.6985 -0.9039 -0.9710
  619MOL0     H85391  10.379  10.622   6.682 -2.5028  2.9580  0.4260
  619MOL0     H85392  10.172  10.614   6.783  0.6688 -0.5404 -0.1870
  619MOL0     H85393  10.107  10.500   6.659  1.2085 -1.5823  4.2317
  619MOL0     H85394  10.178  10.798   6.650  1.3542 -0.6022  0.0137
  619MOL0     H85395  10.114  10.707   6.512 -0.7961 -3.2682  0.1340
  619MOL0     H85396   9.893  10.707   6.606 -0.6308 -0.9689  0.1913
  619MOL0     H85397   9.966  10.867   6.649  0.2202 -0.3308 -2.4755
  619MOL0     H85398  10.027  10.792   6.879  0.0914  1.0130 -2.4116
  619MOL0     H85399   9.946  10.641   6.857 -3.5879 -0.8922 -1.4807
  619MOL0     H85400   9.798  10.913   6.869 -4.6404  0.1126  0.1476
  619MOL0     H85401   9.805  10.785   6.988 -0.3249 -0.8438 -0.6922
  619MOL0     H85402  10.184  10.145   6.406  2.2567  2.6679  1.3036
  619MOL0     H85403  10.096  10.023   6.224  0.6000  0.0534 -1.7355
  619MOL0     H85404  10.125   9.855   5.847 -2.8823  4.8149  2.6761
  619MOL0     H85405  10.064   9.675   5.693  2.6644  0.0935 -0.6717
  619MOL0     H85406   8.742   9.978   5.379 -1.7364  2.2463  1.0740
  619MOL0     H85407   8.618   9.947   5.586 -1.3576  0.1340  0.8259
  619MOL0     H85408   8.158   9.832   5.605  0.4964 -2.2392 -2.0161
  619MOL0     H85409   7.937   9.852   5.694  1.2375  0.4573 -0.3161
  619MOL0     H85410   7.748   9.729   6.078 -2.2811  0.9067 -0.1707
  619MOL0     H85411   7.900   9.819   6.037  1.3367 -2.3678 -1.4493
  619MOL0     H85412   7.801   9.964   5.883 -0.3998  1.5018  0.0047
  619MOL0     H85413   7.720   9.974   6.041  1.1205 -0.9504  0.7116
  619MOL0     H85414   7.542   9.821   5.965 -2.8571  1.5431 -0.1841
  619MOL0     H85415   7.546   9.975   5.899  0.0419 -0.1877  1.2182
  619MOL0     H85416   7.627   9.712   5.765 -1.8867 -0.1209  2.6227
  619MOL0     H85417   7.692   9.881   5.709 -1.7438  2.2957  1.1634
  619MOL0     H85418   7.256   9.825   5.634 -0.1859  0.1965 -0.6666
  619MOL0     H85419   8.026   9.532   5.969  0.9697 -0.6280  0.6903
  619MOL0     H85420   8.207   9.434   5.980 -1.8271 -1.4445 -1.8544
  619MOL0     H85421   8.275   9.396   5.826 -2.3713 -1.9700  2.2071
  619MOL0     H85422   8.357   9.515   5.932  1.9645 -3.1108 -1.6806
  620MOL0     O85423   2.448   8.248  10.816 -0.4145 -0.1489  0.0232
  620MOL0     C85424   2.441   8.357  10.874 -0.3816  0.3812  1.1127
  620MOL0     O85425   2.478   8.468  10.817  0.3047 -0.4864 -0.1474
  620MOL0     C85426   2.550   8.461  10.692  0.4243  0.9209 -0.4864
  620MOL0     C85427   2.507   8.407  10.574  0.2304 -0.2526 -0.0972
  620MOL0     C85428   2.591   8.407  10.464  0.3408 -0.1486 -0.2274
  620MOL0     C85429   2.717   8.460  10.466  0.0529 -0.0207 -0.1456
  620MOL0     O85430   2.780   8.461  10.346  0.1618 -0.3671 -0.6322
  620MOL0     C85431   2.883   8.568  10.332  0.0389 -0.1014  0.6678
  620MOL0     C85432   2.891   8.628  10.187 -1.0581 -0.5005 -0.6438
  620MOL0     C85433   3.030   8.686  10.176 -0.4840  0.3922 -0.6083
  620MOL0     C85434   3.072   8.714  10.031  0.6285 -0.5407 -0.0034
  620MOL0     C85435   3.220   8.739  10.032  0.2139 -0.0698 -0.3415
  620MOL0     C85436   3.277   8.769   9.895 -0.8533  0.4089  0.6080
  620MOL0     C85437   3.315   8.644   9.817 -0.7998 -0.0796 -0.0840
  620MOL0     C85438   3.439   8.569   9.858 -0.2562  0.8001 -0.3226
  620MOL0     N85439   3.561   8.644   9.849 -0.6445 -0.1317 -0.0373
  620MOL0     C85440   3.601   8.730   9.949  0.2668 -0.0315  0.2722
  620MOL0     C85441   3.718   8.777   9.907 -0.6606 -0.6203  0.0798
  620MOL0     C85442   3.800   8.884   9.972 -0.0158 -0.5379  0.7360
  620MOL0     C85443   3.938   8.829  10.007  0.5245  0.0542  0.0491
  620MOL0     C85444   4.023   8.926  10.086  1.7210  1.6726 -0.8381
  620MOL0     C85445   4.164   8.871  10.109 -0.6856 -0.2501 -0.2226
  620MOL0     O85446   4.235   8.875   9.990  0.6607 -0.7995  0.0075
  620MOL0     C85447   4.372   8.847   9.987 -0.2201 -0.1173 -0.5403
  620MOL0     C85448   4.445   8.816  10.100  0.1502 -0.0186 -0.1244
  620MOL0     C85449   4.579   8.779  10.088 -0.2992 -0.3752 -0.5811
  620MOL0     C85450   4.655   8.738  10.216 -0.1302  0.1108  0.0178
  620MOL0     C85451   4.647   8.794   9.963  0.2782  0.3246 -0.4396
  620MOL0     C85452   4.797   8.762   9.948  0.5590 -1.0431 -0.3716
  620MOL0     O85453   4.851   8.670  10.033 -0.0910 -0.0566  0.0161
  620MOL0     C85454   4.995   8.671  10.066  0.1107  0.5979  0.5123
  620MOL0     C85455   5.083   8.774  10.043  0.1415  0.1849  0.2656
  620MOL0     C85456   5.219   8.773  10.078  0.0402  1.0485 -0.7757
  620MOL0     C85457   5.268   8.655  10.152  0.2173 -0.5120  0.8534
  620MOL0     O85458   5.400   8.661  10.188 -0.2845 -0.0765 -0.4765
  620MOL0     C85459   5.475   8.542  10.215 -0.4377 -0.0628 -0.2406
  620MOL0     C85460   5.623   8.568  10.190  0.6591  0.5339 -0.6622
  620MOL0     C85461   5.683   8.677  10.276 -1.0248 -0.3363  0.6554
  620MOL0     C85462   5.836   8.677  10.262  0.2309  0.3531  0.4836
  620MOL0     C85463   5.914   8.784  10.330  0.3455 -0.2199 -0.1605
  620MOL0     C85464   5.933   8.902  10.224  0.5718 -0.4834  0.6948
  620MOL0     C85465   6.021   9.013  10.279  0.3333  0.7316  0.4721
  620MOL0     C85466   6.054   9.122  10.173  0.7381  0.2111  0.8653
  620MOL0    Cl85467   5.910   9.227  10.156 -0.1785 -0.4826 -0.5277
  620MOL0     C85468   5.172   8.548  10.172 -0.9051 -0.2679 -0.5255
  620MOL0     C85469   5.041   8.559  10.135  0.2576 -0.3648  0.4371
  620MOL0     O85470   4.856   8.836   9.864  0.8700 -0.3971  0.4769
  620MOL0     C85471   4.572   8.839   9.853  0.1264 -0.9920 -0.7652
  620MOL0     C85472   4.437   8.861   9.856  0.1853 -0.6789  0.7133
  620MOL0     N85473   3.751   8.727   9.782  0.3061 -0.5362 -0.7572
  620MOL0     N85474   3.652   8.648   9.751 -1.0654  0.2699 -0.3404
  620MOL0     C85475   2.759   8.528  10.581 -0.0367 -0.2430  0.2354
  620MOL0     C85476   2.670   8.530  10.693 -0.7797 -0.5791  0.5700
  620MOL0     C85477   2.391   8.357  11.008 -1.0341  0.7594 -0.8276
  620MOL0     C85478   2.377   8.236  11.081  0.0443  0.2217 -0.2576
  620MOL0     C85479   2.324   8.236  11.210  0.3077 -0.4088  0.1375
  620MOL0     C85480   2.295   8.353  11.277 -0.0936  0.9336 -0.5506
  620MOL0     O85481   2.253   8.365  11.403  0.0780 -0.6774 -0.2205
  620MOL0     C85482   2.237   8.245  11.485 -0.0380  0.5333 -0.4131
  620MOL0     C85483   2.215   8.275  11.637 -0.0753  0.8634  0.7051
  620MOL0     C85484   2.068   8.281  11.673 -0.0304  0.6192  0.3439
  620MOL0     C85485   2.022   8.280  11.822  0.3972 -0.1952  0.1294
  620MOL0     C85486   2.119   8.370  11.892  0.2157  0.7821 -0.6321
  620MOL0     C85487   2.199   8.443  11.944  0.2921  0.0547  0.3484
  620MOL0     C85488   2.306   8.474  11.210  0.2129 -1.1859 -0.0653
  620MOL0     C85489   2.340   8.477  11.074  0.6872 -0.0946  0.1556
  620MOL0     C85490   2.314   8.609  11.003  0.6332  0.2209 -0.7465
  620MOL0     H85491   2.407   8.365  10.584  0.0192 -0.2962 -2.0602
  620MOL0     H85492   2.540   8.378  10.372 -2.2929  1.5065  0.5882
  620MOL0     H85493   2.973   8.519  10.368 -2.3549 -2.7496  3.5662
  620MOL0     H85494   2.855   8.646  10.404  2.3528  3.3120 -1.7871
  620MOL0     H85495   2.884   8.555  10.106  1.0118 -2.6611  0.9878
  620MOL0     H85496   2.815   8.705  10.170 -3.5724 -2.9408 -1.0322
  620MOL0     H85497   3.046   8.777  10.234  2.0682 -0.0431 -0.5312
  620MOL0     H85498   3.101   8.613  10.215 -0.7619  0.7312  0.5680
  620MOL0     H85499   3.034   8.643   9.957  1.3068 -1.5607  0.6093
  620MOL0     H85500   3.025   8.806   9.996  0.1178 -0.8971 -0.2713
  620MOL0     H85501   3.276   8.657  10.077 -2.3613 -0.0357  3.3783
  620MOL0     H85502   3.246   8.827  10.091  1.3498 -0.5761 -0.0698
  620MOL0     H85503   3.205   8.825   9.833  0.8340  2.1912  0.1540
  620MOL0     H85504   3.370   8.824   9.913  1.3116 -3.3093  1.8918
  620MOL0     H85505   3.334   8.673   9.713 -2.5674 -0.4381 -0.5432
  620MOL0     H85506   3.241   8.564   9.810  0.9796 -1.6380 -2.7979
  620MOL0     H85507   3.414   8.523   9.954  1.1631  1.7564  0.5438
  620MOL0     H85508   3.445   8.485   9.789 -4.6738  1.6120 -2.0217
  620MOL0     H85509   3.546   8.764  10.036 -0.6799  0.3071 -0.4468
  620MOL0     H85510   3.751   8.918  10.064 -0.1917  2.3285 -0.3067
  620MOL0     H85511   3.816   8.974   9.911  0.0566 -1.1939 -0.2304
  620MOL0     H85512   3.917   8.738  10.063 -1.8734  0.5098 -0.0358
  620MOL0     H85513   3.982   8.804   9.910 -3.2761 -1.9037 -1.3627
  620MOL0     H85514   4.013   9.029  10.050  0.2536  2.2852  1.1389
  620MOL0     H85515   3.972   8.928  10.183  2.4345 -1.5465 -0.2802
  620MOL0     H85516   4.218   8.921  10.190 -1.0133 -1.0254  0.4963
  620MOL0     H85517   4.165   8.767  10.142  0.0808 -0.2219 -0.1382
  620MOL0     H85518   4.397   8.815  10.196  0.1682  0.0235 -0.1152
  620MOL0     H85519   4.751   8.791  10.217 -1.0252  1.8294 -0.7974
  620MOL0     H85520   4.693   8.635  10.215  0.1417  0.1424  2.0985
  620MOL0     H85521   4.591   8.750  10.304  0.2564 -1.1965  0.4999
  620MOL0     H85522   5.055   8.863   9.988 -1.5290 -1.5360 -1.8690
  620MOL0     H85523   5.274   8.866  10.066  0.9598  0.9583  1.8892
  620MOL0     H85524   5.449   8.499  10.312  0.9687  0.7157  0.5122
  620MOL0     H85525   5.449   8.472  10.135 -0.6114  0.1767 -0.3942
  620MOL0     H85526   5.692   8.483  10.198  1.8029  1.5192  0.3700
  620MOL0     H85527   5.622   8.607  10.088  1.5274  0.7154 -0.6044
  620MOL0     H85528   5.669   8.672  10.384 -2.1768  0.9303  0.5904
  620MOL0     H85529   5.643   8.776  10.249  0.6365  0.1359 -0.2077
  620MOL0     H85530   5.854   8.677  10.154  0.3131 -0.3005  0.4928
  620MOL0     H85531   5.871   8.581  10.302 -0.7343 -0.3032 -0.1940
  620MOL0     H85532   5.871   8.820  10.424  0.6551 -3.6301  1.4480
  620MOL0     H85533   6.015   8.748  10.353  0.7709  1.6898  1.2250
  620MOL0     H85534   5.836   8.950  10.203  0.2806 -2.3558 -3.3721
  620MOL0     H85535   5.979   8.876  10.128  2.9018  2.0226  1.0011
  620MOL0     H85536   6.113   8.969  10.318  2.5022  2.6418 -2.0661
  620MOL0     H85537   5.971   9.049  10.369  1.4330  2.1239  0.5528
  620MOL0     H85538   6.082   9.080  10.076 -0.9238 -2.4398  1.4253
  620MOL0     H85539   6.140   9.179  10.209  0.5002  1.5174 -0.5598
  620MOL0     H85540   5.200   8.457  10.223 -4.6840 -2.0294 -1.2454
  620MOL0     H85541   4.966   8.481  10.141 -0.7726  0.2955 -2.3842
  620MOL0     H85542   4.627   8.856   9.761  4.4126  0.0088  1.6885
  620MOL0     H85543   4.383   8.888   9.766 -0.4714 -0.8727  1.0403
  620MOL0     H85544   2.864   8.554  10.589 -0.4925  2.0312 -0.5154
  620MOL0     H85545   2.708   8.561  10.790  0.0061 -3.0493  1.1105
  620MOL0     H85546   2.412   8.144  11.037 -1.8774 -0.4567 -0.4803
  620MOL0     H85547   2.317   8.140  11.260 -1.1444 -0.3862  0.0056
  620MOL0     H85548   2.173   8.171  11.437  0.5660  0.5802 -1.3140
  620MOL0     H85549   2.334   8.194  11.491 -0.6709 -0.6562  0.1109
  620MOL0     H85550   2.267   8.372  11.639  2.6201 -0.3116 -2.3421
  620MOL0     H85551   2.271   8.209  11.703  2.5669  0.7375 -1.4647
  620MOL0     H85552   2.034   8.374  11.626  0.4235  0.3482 -0.5479
  620MOL0     H85553   2.022   8.195  11.625  3.5513  0.4600 -3.3306
  620MOL0     H85554   2.029   8.180  11.867  3.4412  0.4196  1.2687
  620MOL0     H85555   1.917   8.310  11.826  0.3716 -0.1756 -0.5964
  620MOL0     H85556   2.279   8.513  11.960 -1.6802  1.6573  4.2372
  620MOL0     H85557   2.292   8.563  11.271  5.9660 -1.4121  2.2495
  620MOL0     H85558   2.409   8.655  10.974  0.6118  0.2338 -0.7954
  620MOL0     H85559   2.261   8.592  10.909  1.1848  2.0825 -1.4484
  620MOL0     H85560   2.257   8.670  11.074  0.0786 -2.8314  1.6153
  621MOL0     O85561  10.284   4.968   0.342 -0.3647 -0.2081  1.0568
  621MOL0     C85562  10.181   4.929   0.303  0.3191  0.9687  0.5507
  621MOL0     O85563  10.153   4.798   0.258  0.0620  0.0050  0.0630
  621MOL0     C85564  10.264   4.729   0.227 -0.2261  1.1913 -0.2525
  621MOL0     C85565  10.346   4.778   0.118 -0.6122 -0.0406  0.0672
  621MOL0     C85566  10.476   4.729   0.093 -0.1496 -0.6100 -0.8989
  621MOL0     C85567  10.532   4.633   0.181 -0.1188 -0.2775  0.1188
  621MOL0     O85568  10.658   4.579   0.167 -0.5640  0.0653 -0.2307
  621MOL0     C85569  10.715   4.576   0.029  1.0401 -0.6267  0.4169
  621MOL0     C85570  10.859   4.510   0.022  0.0701  0.0797 -0.6148
  621MOL0     C85571  10.919   4.529  -0.121  0.0122  0.2522  0.0784
  621MOL0     C85572  11.059   4.460  -0.127  0.5454  1.2641 -0.5234
  621MOL0     C85573  11.047   4.306  -0.133  0.1899 -0.1860  0.0135
  621MOL0     C85574  11.186   4.249  -0.130 -0.2568  0.2032  0.3708
  621MOL0     C85575  11.169   4.094  -0.093  0.2323  0.4016  0.1954
  621MOL0     C85576  11.090   4.019  -0.199 -0.3221  0.1709  0.6640
  621MOL0     N85577  11.137   4.041  -0.339 -0.7825  0.4193  0.0528
  621MOL0     C85578  11.260   4.077  -0.385 -0.9263  0.0713 -0.4014
  621MOL0     C85579  11.239   4.098  -0.516  0.1715 -0.6638  0.5205
  621MOL0     C85580  11.345   4.165  -0.604  0.3658 -0.3347 -0.0536
  621MOL0     C85581  11.486   4.108  -0.587 -0.2051  0.0025 -0.4854
  621MOL0     C85582  11.502   3.966  -0.640  0.8175  0.5187 -0.3677
  621MOL0     C85583  11.655   3.924  -0.643 -0.1349  0.0941  0.3278
  621MOL0     O85584  11.735   3.994  -0.739 -0.2755 -0.0534 -0.5881
  621MOL0     C85585  11.847   3.930  -0.793 -0.0227 -0.2454 -0.3553
  621MOL0     C85586  11.905   3.980  -0.909  0.0180 -0.2160  0.1884
  621MOL0     C85587  12.016   3.924  -0.960 -1.6373 -0.2414  0.4007
  621MOL0     C85588  12.062   3.996  -1.093  0.2659  0.1754 -0.3806
  621MOL0     C85589  12.099   3.834  -0.885  0.6740  0.6327 -0.8244
  621MOL0     C85590  12.237   3.790  -0.915 -0.0391 -0.2712  0.5737
  621MOL0     O85591  12.294   3.704  -0.825  0.0492 -0.2006  0.0254
  621MOL0     C85592  12.423   3.656  -0.840  0.0378  0.6853 -0.1123
  621MOL0     C85593  12.523   3.714  -0.754  0.2159  0.5588 -0.5009
  621MOL0     C85594  12.657   3.674  -0.760 -0.4658  0.3226 -0.4153
  621MOL0     C85595  12.696   3.582  -0.858 -0.9595  0.7207 -0.1948
  621MOL0     O85596  12.830   3.547  -0.865 -0.7441 -0.0196 -0.2269
  621MOL0     C85597  12.852   3.407  -0.896  0.3960 -0.0412 -0.2047
  621MOL0     C85598  12.992   3.375  -0.922  0.4418  0.5309 -0.1419
  621MOL0     C85599  13.012   3.222  -0.936 -0.3707 -0.1025  0.5726
  621MOL0     C85600  13.153   3.181  -0.937 -0.9858  0.0674  0.2168
  621MOL0     C85601  13.184   3.047  -0.992  0.1121 -0.8505  0.0832
  621MOL0     C85602  13.330   3.022  -0.994 -0.1877  0.7650 -0.5659
  621MOL0     C85603  13.362   2.901  -1.093  0.1231  0.1634 -0.4194
  621MOL0     C85604  13.511   2.894  -1.125 -1.1885  0.3208  0.7352
  621MOL0    Cl85605  13.536   3.016  -1.249 -0.0631  0.1827  0.2591
  621MOL0     C85606  12.596   3.532  -0.950 -0.1889  0.2035  0.6153
  621MOL0     C85607  12.459   3.567  -0.938 -0.0748 -1.2449 -0.6057
  621MOL0     O85608  12.286   3.830  -1.028 -0.3013  0.3463  0.8351
  621MOL0     C85609  12.039   3.774  -0.769 -0.8855  0.2517 -0.3510
  621MOL0     C85610  11.911   3.818  -0.731  0.2942 -0.0237  0.2771
  621MOL0     N85611  11.109   4.079  -0.551  0.1379  1.0163  0.4577
  621MOL0     N85612  11.050   4.044  -0.441  0.3905  0.1334  0.6081
  621MOL0     C85613  10.451   4.590   0.295 -0.3761 -0.6116  0.0448
  621MOL0     C85614  10.319   4.631   0.305 -0.3152  0.9090 -0.1500
  621MOL0     C85615  10.068   5.023   0.298 -0.2773  0.1966 -0.1951
  621MOL0     C85616   9.974   5.018   0.198  0.9209  0.7274  0.8546
  621MOL0     C85617   9.860   5.102   0.210  0.7223  0.8258  0.3407
  621MOL0     C85618   9.845   5.181   0.319  0.2957 -0.7602 -0.5733
  621MOL0     O85619   9.747   5.267   0.360 -1.2545  0.2226 -0.3976
  621MOL0     C85620   9.644   5.307   0.282 -0.7272 -0.5318 -0.7589
  621MOL0     C85621   9.534   5.362   0.380 -0.4352  0.9729  0.3156
  621MOL0     C85622   9.409   5.385   0.289 -1.0495  0.0597 -0.4918
  621MOL0     C85623   9.283   5.447   0.359 -0.1687  0.0659  0.0869
  621MOL0     C85624   9.227   5.355   0.463 -0.3275  0.2175  0.9946
  621MOL0     C85625   9.190   5.297   0.551 -0.1538  0.8589 -0.8475
  621MOL0     C85626   9.940   5.187   0.408 -0.6522  0.6714  0.1116
  621MOL0     C85627  10.051   5.107   0.409  0.4197  0.0275  0.0737
  621MOL0     C85628  10.142   5.105   0.529 -0.5689 -0.3723  0.0908
  621MOL0     H85629  10.319   4.867   0.062  2.9000 -0.3201 -2.4089
  621MOL0     H85630  10.547   4.771   0.023  0.5152 -1.8358 -0.9933
  621MOL0     H85631  10.726   4.672  -0.023 -0.4712  0.1146  1.3867
  621MOL0     H85632  10.641   4.513  -0.020  1.0691  0.7752 -1.5345
  621MOL0     H85633  10.919   4.572   0.090 -1.2007  0.7216 -0.0365
  621MOL0     H85634  10.846   4.404   0.045 -1.1750  0.3005 -0.2254
  621MOL0     H85635  10.857   4.481  -0.197  0.2118 -1.2273  0.8114
  621MOL0     H85636  10.924   4.636  -0.143  1.2717  0.6546  2.0990
  621MOL0     H85637  11.126   4.501  -0.203  2.6532 -1.1149 -0.0902
  621MOL0     H85638  11.102   4.492  -0.032 -0.8182  1.8465 -0.0738
  621MOL0     H85639  10.983   4.285  -0.219 -0.2148 -0.1045  0.2969
  621MOL0     H85640  10.992   4.277  -0.044 -0.7137 -3.1080 -1.3714
  621MOL0     H85641  11.226   4.286  -0.225 -2.5872  2.0098 -0.0085
  621MOL0     H85642  11.242   4.293  -0.047 -0.6025  2.9954 -0.7640
  621MOL0     H85643  11.127   4.080   0.007 -1.1230 -1.8745 -0.6074
  621MOL0     H85644  11.268   4.048  -0.081  0.1929  0.2264 -0.1450
  621MOL0     H85645  11.086   3.917  -0.161 -1.3102 -0.8773 -2.0473
  621MOL0     H85646  10.986   4.054  -0.203 -1.1541 -2.1443 -3.6835
  621MOL0     H85647  11.345   4.083  -0.318 -1.7461 -0.0954  0.6843
  621MOL0     H85648  11.364   4.266  -0.568  2.2860  0.3664 -2.6969
  621MOL0     H85649  11.312   4.183  -0.707 -0.7995 -1.1745  0.1516
  621MOL0     H85650  11.562   4.179  -0.622  1.2980  0.4140  3.1502
  621MOL0     H85651  11.502   4.105  -0.479 -0.6041  1.4077 -0.3692
  621MOL0     H85652  11.436   3.894  -0.590  0.2969  0.0184 -1.7370
  621MOL0     H85653  11.453   3.955  -0.737 -2.3365 -1.2669  1.2531
  621MOL0     H85654  11.682   3.945  -0.539 -0.0184  1.5600  0.0235
  621MOL0     H85655  11.664   3.818  -0.667 -0.0467 -0.3068  2.0084
  621MOL0     H85656  11.845   4.061  -0.950  1.8263  1.8576  1.3960
  621MOL0     H85657  12.165   4.034  -1.087  1.4120 -2.3205 -2.3701
  621MOL0     H85658  11.999   4.085  -1.103  2.3015  1.9815  1.6635
  621MOL0     H85659  12.039   3.931  -1.177 -0.2422 -0.8528  0.5274
  621MOL0     H85660  12.497   3.796  -0.687  1.2765  1.1159 -0.7490
  621MOL0     H85661  12.729   3.724  -0.695 -1.1936 -0.1445  0.7861
  621MOL0     H85662  12.817   3.348  -0.811  0.1473 -0.8765 -0.8738
  621MOL0     H85663  12.799   3.372  -0.985  1.2495 -1.2357 -0.2674
  621MOL0     H85664  13.015   3.415  -1.022 -4.0063 -0.4784 -1.7799
  621MOL0     H85665  13.061   3.414  -0.846 -0.0539  2.7148 -0.7561
  621MOL0     H85666  12.964   3.184  -1.026  1.6657 -0.1964 -0.5345
  621MOL0     H85667  12.977   3.174  -0.844 -2.6149  1.9897  0.9301
  621MOL0     H85668  13.198   3.181  -0.837  0.5131 -1.5915 -0.3975
  621MOL0     H85669  13.207   3.257  -0.994 -1.7145  0.7100  0.3734
  621MOL0     H85670  13.136   2.973  -0.926  1.4473 -4.3942 -2.5849
  621MOL0     H85671  13.130   3.044  -1.087 -0.7862 -1.7031  0.5980
  621MOL0     H85672  13.361   2.990  -0.894 -2.2508 -2.5060 -0.8426
  621MOL0     H85673  13.382   3.116  -1.013 -0.1135  1.3809  2.2373
  621MOL0     H85674  13.302   2.912  -1.184 -0.1485 -0.1876 -0.2832
  621MOL0     H85675  13.336   2.805  -1.048  0.2466 -0.5670 -1.8629
  621MOL0     H85676  13.539   2.797  -1.165 -1.8448  0.3934  0.0751
  621MOL0     H85677  13.571   2.911  -1.036  1.6008  0.9345 -1.1327
  621MOL0     H85678  12.615   3.463  -1.032  1.9233 -0.9279  1.9842
  621MOL0     H85679  12.376   3.531  -0.998  0.2113  0.8099 -2.3405
  621MOL0     H85680  12.078   3.700  -0.699 -4.4786  0.8630  2.5898
  621MOL0     H85681  11.867   3.759  -0.651 -0.6377 -1.3056 -1.1225
  621MOL0     H85682  10.502   4.535   0.373  1.0356  3.0196  1.8818
  621MOL0     H85683  10.258   4.579   0.378  1.8945 -2.4987 -0.5232
  621MOL0     H85684   9.985   4.951   0.113  1.1388  2.4628 -0.5464
  621MOL0     H85685   9.778   5.102   0.140  1.8146  0.5463 -0.9700
  621MOL0     H85686   9.664   5.394   0.219 -3.5435  1.0770  0.3466
  621MOL0     H85687   9.605   5.228   0.217  1.5833 -0.6042 -2.1208
  621MOL0     H85688   9.554   5.457   0.430 -0.5136  1.6820 -0.9555
  621MOL0     H85689   9.512   5.284   0.453 -0.0860 -0.9772 -1.5410
  621MOL0     H85690   9.441   5.464   0.222 -0.6865 -0.9491 -1.5344
  621MOL0     H85691   9.373   5.296   0.237 -0.9637 -0.7040  0.6999
  621MOL0     H85692   9.204   5.473   0.288  0.2788  0.7274 -0.1860
  621MOL0     H85693   9.319   5.537   0.409  0.0267  0.3295 -0.5141
  621MOL0     H85694   9.163   5.243   0.639  0.5347  1.3880 -0.2949
  621MOL0     H85695   9.928   5.259   0.488 -0.4991  0.3821  0.3953
  621MOL0     H85696  10.129   5.005   0.570 -0.9638 -1.3215 -2.1777
  621MOL0     H85697  10.249   5.117   0.509 -1.2895  1.0615 -3.9568
  621MOL0     H85698  10.125   5.192   0.594  1.6274  0.3730 -0.2516
  622MOL0     O85699   7.049   7.303   6.888 -0.2338 -0.5841  0.9340
  622MOL0     C85700   6.954   7.343   6.944  0.4411 -0.0209  0.0174
  622MOL0     O85701   6.949   7.444   7.034 -0.2378  0.3911  0.0378
  622MOL0     C85702   7.073   7.476   7.081 -0.1539  0.1040 -0.2004
  622MOL0     C85703   7.160   7.558   7.006  0.5578 -0.5984 -1.0222
  622MOL0     C85704   7.268   7.620   7.061  0.0751  0.1273 -0.7103
  622MOL0     C85705   7.297   7.604   7.197  0.2487  0.2084  0.1464
  622MOL0     O85706   7.409   7.682   7.236  0.5654 -0.0570 -0.0900
  622MOL0     C85707   7.444   7.669   7.370  1.0855 -0.7977 -0.6206
  622MOL0     C85708   7.572   7.743   7.397  0.8776 -0.3507  0.2436
  622MOL0     C85709   7.603   7.740   7.550 -0.1559  1.0668 -0.4469
  622MOL0     C85710   7.701   7.622   7.596  0.1986  0.0403  0.3568
  622MOL0     C85711   7.721   7.610   7.746  0.1939  0.5172 -0.3428
  622MOL0     C85712   7.829   7.702   7.792  0.2032 -0.4755  0.4503
  622MOL0     C85713   7.819   7.719   7.944  0.9020 -0.4442  0.0283
  622MOL0     C85714   7.919   7.832   7.981  0.3995  0.1787 -1.0190
  622MOL0     N85715   8.056   7.774   7.981  0.2040 -0.3125  0.5324
  622MOL0     C85716   8.157   7.779   7.884 -0.0633  0.2679 -0.7484
  622MOL0     C85717   8.252   7.714   7.952 -1.1159  0.7692  0.9075
  622MOL0     C85718   8.378   7.661   7.876 -0.1221  0.7021 -0.6557
  622MOL0     C85719   8.489   7.750   7.925  0.0462  0.6441  0.1887
  622MOL0     C85720   8.636   7.695   7.898  0.1626 -0.8377  0.7640
  622MOL0     C85721   8.732   7.783   7.979  0.2226  0.3412  0.6358
  622MOL0     O85722   8.756   7.911   7.920  0.1286 -0.9281 -0.1693
  622MOL0     C85723   8.828   7.919   7.804  0.0294 -1.5402  0.2670
  622MOL0     C85724   8.837   8.039   7.750  0.6879  0.1450  0.2156
  622MOL0     C85725   8.887   8.070   7.626  0.4959 -0.5155 -0.5306
  622MOL0     C85726   8.888   8.221   7.584 -0.9080  0.1744 -0.4517
  622MOL0     C85727   8.959   7.971   7.556  0.5761 -0.2175 -0.1672
  622MOL0     C85728   9.049   7.993   7.431  0.2711  0.5564 -0.8466
  622MOL0     O85729   9.096   7.879   7.366 -0.2033 -0.1305  0.2299
  622MOL0     C85730   9.187   7.902   7.267 -1.3098 -0.8934  0.2323
  622MOL0     C85731   9.320   7.941   7.305 -0.2614  0.1280  0.0204
  622MOL0     C85732   9.421   7.945   7.210 -0.6148  0.5087  0.3158
  622MOL0     C85733   9.390   7.921   7.071 -0.5137 -1.0827 -0.3686
  622MOL0     O85734   9.484   7.936   6.960  1.2360  0.3553  0.1049
  622MOL0     C85735   9.597   8.025   6.968  0.4631 -0.2285 -1.0773
  622MOL0     C85736   9.593   8.142   6.868  0.0502  0.7262 -0.3179
  622MOL0     C85737   9.581   8.095   6.723 -0.4343  0.0185 -0.0081
  622MOL0     C85738   9.582   8.216   6.624 -1.0437  0.2334 -0.0300
  622MOL0     C85739   9.565   8.184   6.480 -0.6192 -0.5118 -0.3942
  622MOL0     C85740   9.426   8.122   6.459  0.0166  0.1878 -0.6248
  622MOL0     C85741   9.382   8.133   6.308 -0.2127 -0.2921  0.0435
  622MOL0     C85742   9.249   8.075   6.273  0.9423  0.1659 -0.6467
  622MOL0    Cl85743   9.112   8.175   6.340 -0.1519  0.3021  0.0976
  622MOL0     C85744   9.262   7.889   7.042 -0.4434  0.2292  0.4850
  622MOL0     C85745   9.158   7.865   7.136  0.5782 -0.1541 -0.6286
  622MOL0     O85746   9.072   8.107   7.398 -0.1322 -1.0276 -0.0345
  622MOL0     C85747   8.954   7.848   7.612 -0.3193  0.3302  0.1428
  622MOL0     C85748   8.892   7.818   7.728  0.5431 -0.3451  0.1068
  622MOL0     N85749   8.220   7.679   8.080  0.9931 -0.7132  0.1636
  622MOL0     N85750   8.092   7.709   8.096 -0.7222 -0.0383  0.7729
  622MOL0     C85751   7.208   7.531   7.274 -0.2760  0.1206  0.7546
  622MOL0     C85752   7.094   7.461   7.225 -0.6639 -0.1422  0.6045
  622MOL0     C85753   6.818   7.292   6.889 -0.0860  0.5698 -0.4450
  622MOL0     C85754   6.702   7.329   6.964 -0.0611 -0.3515 -0.2810
  622MOL0     C85755   6.582   7.284   6.925 -0.0725  0.4331 -0.3791
  622MOL0     C85756   6.555   7.196   6.820  0.0207 -0.7859  0.5354
  622MOL0     O85757   6.424   7.148   6.809 -0.2086 -0.0523  0.3159
  622MOL0     C85758   6.387   7.050   6.715 -0.0755  0.0573 -0.7818
  622MOL0     C85759   6.237   7.069   6.677  0.4636  0.2935 -0.0170
  622MOL0     C85760   6.205   6.980   6.570  0.2273  0.3048 -0.0307
  622MOL0     C85761   6.053   6.982   6.558  0.1390  0.1394  0.1654
  622MOL0     C85762   6.007   6.942   6.429 -0.6301  0.5609  0.2510
  622MOL0     C85763   5.999   6.897   6.319 -0.7377 -1.1736  0.5894
  622MOL0     C85764   6.666   7.171   6.739  0.6160 -0.1566  1.2821
  622MOL0     C85765   6.795   7.213   6.768 -0.2429  0.4268 -1.1065
  622MOL0     C85766   6.899   7.190   6.652  0.7123 -0.9645 -0.1124
  622MOL0     H85767   7.137   7.583   6.903 -1.5282 -0.1525 -0.5123
  622MOL0     H85768   7.320   7.689   6.995 -0.5620  2.5457  1.1444
  622MOL0     H85769   7.451   7.563   7.396 -0.5781 -1.3269 -2.1547
  622MOL0     H85770   7.362   7.712   7.429  0.2711 -0.4207 -1.9879
  622MOL0     H85771   7.649   7.689   7.342  1.1392  0.7394 -0.4992
  622MOL0     H85772   7.548   7.844   7.361 -2.9293 -0.2068  2.6493
  622MOL0     H85773   7.648   7.832   7.587  2.6647 -0.3046 -0.1912
  622MOL0     H85774   7.503   7.731   7.592 -0.7446  0.7867 -1.8272
  622MOL0     H85775   7.662   7.526   7.563 -0.2335 -0.2574  1.6745
  622MOL0     H85776   7.796   7.617   7.543 -1.3324 -4.5033 -2.5821
  622MOL0     H85777   7.752   7.509   7.775 -2.0108  0.4023  1.9175
  622MOL0     H85778   7.635   7.641   7.805  1.9878  3.0602  1.1645
  622MOL0     H85779   7.925   7.666   7.755  0.3506  2.0543 -2.0788
  622MOL0     H85780   7.818   7.799   7.741 -0.9953 -0.1545  1.2615
  622MOL0     H85781   7.836   7.632   8.007  1.3081  1.1164  2.2205
  622MOL0     H85782   7.728   7.769   7.979  1.6518  0.5217  0.7027
  622MOL0     H85783   7.914   7.905   7.900  0.0281  0.2262 -0.9524
  622MOL0     H85784   7.898   7.881   8.077  2.2410 -0.4916 -0.2174
  622MOL0     H85785   8.157   7.807   7.779  2.3867  0.1288 -0.8319
  622MOL0     H85786   8.370   7.663   7.766  3.4733  1.6133 -1.0280
  622MOL0     H85787   8.393   7.560   7.914 -0.8654  1.7704  2.8343
  622MOL0     H85788   8.481   7.847   7.876  0.0418  0.6602  0.2207
  622MOL0     H85789   8.477   7.759   8.034  0.8010 -1.9229  0.5683
  622MOL0     H85790   8.638   7.594   7.940  1.7060 -1.5912 -1.0034
  622MOL0     H85791   8.653   7.698   7.790 -1.4712  2.3432  0.4824
  622MOL0     H85792   8.710   7.788   8.086  0.9783  3.6174  0.7511
  622MOL0     H85793   8.826   7.728   7.976 -0.0805 -0.1623  0.2983
  622MOL0     H85794   8.795   8.124   7.803  1.3925  1.0004 -0.5591
  622MOL0     H85795   8.808   8.272   7.639 -0.7272  1.4574 -1.3287
  622MOL0     H85796   8.889   8.238   7.475  0.9728 -1.4876 -0.7428
  622MOL0     H85797   8.982   8.262   7.621 -2.0837  0.8606  1.9972
  622MOL0     H85798   9.344   7.955   7.409 -1.1725 -0.0301  0.2601
  622MOL0     H85799   9.524   7.969   7.233 -0.2281 -0.5443 -0.2507
  622MOL0     H85800   9.624   8.070   7.064  0.8198 -1.9612 -0.3295
  622MOL0     H85801   9.678   7.959   6.936  0.8686 -0.5133  0.4623
  622MOL0     H85802   9.511   8.209   6.896 -0.3453 -0.2735  1.0225
  622MOL0     H85803   9.690   8.192   6.868  1.4646 -1.6938  3.0117
  622MOL0     H85804   9.481   8.059   6.699 -0.1403  0.4271 -2.0129
  622MOL0     H85805   9.644   8.011   6.691  0.9534  2.4219 -4.4151
  622MOL0     H85806   9.678   8.268   6.633  0.0557 -1.2090 -2.4284
  622MOL0     H85807   9.506   8.289   6.655 -1.0739 -0.1601  0.8513
  622MOL0     H85808   9.573   8.281   6.431  2.6717 -0.2380  0.4511
  622MOL0     H85809   9.644   8.118   6.445  0.2055 -0.1026  0.6362
  622MOL0     H85810   9.357   8.166   6.531  1.1690 -2.0495  2.0134
  622MOL0     H85811   9.433   8.015   6.480  0.2478  0.3074 -0.0663
  622MOL0     H85812   9.448   8.076   6.243 -1.1640  0.6205 -1.7965
  622MOL0     H85813   9.375   8.241   6.289  1.5169  0.3160  2.3350
  622MOL0     H85814   9.237   7.984   6.333  1.0483  0.8460  0.4152
  622MOL0     H85815   9.238   8.041   6.169 -3.5263 -2.1001  0.2750
  622MOL0     H85816   9.240   7.885   6.936  2.4415  3.5545 -0.4291
  622MOL0     H85817   9.059   7.827   7.116  0.7632 -1.8438  1.3297
  622MOL0     H85818   9.015   7.769   7.568 -0.8959  0.6913 -1.3693
  622MOL0     H85819   8.898   7.716   7.767 -2.2255 -0.7118 -0.2131
  622MOL0     H85820   7.228   7.518   7.380 -1.0457 -0.3009  0.8564
  622MOL0     H85821   7.042   7.384   7.281  0.4835 -3.7318 -2.8292
  622MOL0     H85822   6.695   7.384   7.057 -1.9614 -1.2008  0.1399
  622MOL0     H85823   6.498   7.309   6.989  0.1307  1.4146 -0.4807
  622MOL0     H85824   6.453   7.052   6.629  1.6654 -0.3050  0.4935
  622MOL0     H85825   6.393   6.954   6.769 -2.3716  0.3119  0.0659
  622MOL0     H85826   6.222   7.172   6.641 -3.2794 -0.7171 -1.8122
  622MOL0     H85827   6.175   7.043   6.762 -1.3421 -0.4668 -1.5082
  622MOL0     H85828   6.241   7.016   6.473 -1.8190  0.1539 -0.9107
  622MOL0     H85829   6.239   6.878   6.588 -1.2278 -0.0126  1.1644
  622MOL0     H85830   6.003   7.076   6.581 -1.2719 -0.9096  1.6302
  622MOL0     H85831   6.015   6.915   6.636  4.4595 -0.4529  2.0533
  622MOL0     H85832   5.995   6.868   6.216  1.4863 -2.1294  0.7073
  622MOL0     H85833   6.661   7.113   6.647  3.8795 -1.1950  1.6202
  622MOL0     H85834   6.973   7.111   6.671 -0.3088 -1.7850  0.5765
  622MOL0     H85835   6.861   7.181   6.550  3.2566 -0.4762 -1.2006
  622MOL0     H85836   6.966   7.277   6.645  0.8854 -1.0389  0.5526
  623MOL0     O85837   2.615   9.433   8.017 -0.0441 -0.6602 -0.1864
  623MOL0     C85838   2.584   9.484   8.126 -0.4460 -0.5610  0.5419
  623MOL0     O85839   2.670   9.561   8.208  0.4997 -0.1502 -0.1355
  623MOL0     C85840   2.804   9.566   8.183  0.2445  1.0598  0.5844
  623MOL0     C85841   2.875   9.448   8.151 -0.2543 -0.4404 -0.5872
  623MOL0     C85842   3.014   9.450   8.123  0.4068 -1.0128  0.5334
  623MOL0     C85843   3.078   9.563   8.119  0.1520 -0.3001  0.0174
  623MOL0     O85844   3.211   9.582   8.084  0.5659  0.1552  0.4859
  623MOL0     C85845   3.244   9.563   7.945  0.2438 -0.2932  0.3511
  623MOL0     C85846   3.320   9.428   7.901  0.2362 -0.4989  0.0431
  623MOL0     C85847   3.463   9.416   7.957 -0.0042  0.6551  0.3069
  623MOL0     C85848   3.553   9.532   7.904  0.4831  0.2370 -0.2399
  623MOL0     C85849   3.662   9.558   7.998 -0.1508 -0.9056  0.6383
  623MOL0     C85850   3.780   9.466   7.988 -0.1860 -0.1676  0.3604
  623MOL0     C85851   3.887   9.482   8.096  0.1445 -0.0188 -0.5013
  623MOL0     C85852   3.830   9.477   8.246 -0.0583  1.3250  1.3374
  623MOL0     N85853   3.941   9.483   8.340 -1.1144 -0.0103  0.6520
  623MOL0     C85854   4.049   9.396   8.350  0.1080 -0.0652  0.5586
  623MOL0     C85855   4.126   9.448   8.446 -0.0511 -0.1158  0.5564
  623MOL0     C85856   4.260   9.398   8.487 -0.9310 -0.2135  0.7524
  623MOL0     C85857   4.356   9.462   8.391  0.2859  0.0816  0.3209
  623MOL0     C85858   4.495   9.403   8.410  0.2670 -0.1795 -0.1282
  623MOL0     C85859   4.588   9.475   8.506 -0.0268 -0.5356 -1.5165
  623MOL0     O85860   4.727   9.453   8.480 -0.5048 -0.2247  0.3049
  623MOL0     C85861   4.798   9.543   8.403  0.2003 -0.0072  0.3359
  623MOL0     C85862   4.753   9.652   8.334 -0.3041 -0.1252 -0.3733
  623MOL0     C85863   4.835   9.729   8.249  0.7479  1.0038 -0.0246
  623MOL0     C85864   4.759   9.825   8.167  0.4159  0.0610  0.2162
  623MOL0     C85865   4.973   9.693   8.239  0.5736 -0.7546  0.3227
  623MOL0     C85866   5.076   9.767   8.152 -0.2321  0.2031 -0.0913
  623MOL0     O85867   5.207   9.727   8.171  0.2697  0.5596 -0.0528
  623MOL0     C85868   5.304   9.810   8.124 -0.6956  0.3471 -0.0343
  623MOL0     C85869   5.383   9.894   8.201  1.1396 -0.0915 -0.3963
  623MOL0     C85870   5.477   9.982   8.141 -0.3029  0.1548 -0.4899
  623MOL0     C85871   5.501   9.972   8.001 -0.2949  0.6619  0.5327
  623MOL0     O85872   5.590  10.044   7.930  0.5283 -0.2575  0.1132
  623MOL0     C85873   5.551  10.182   7.902 -0.1289  0.1561 -0.0194
  623MOL0     C85874   5.669  10.283   7.927 -0.0362  0.1424  0.2942
  623MOL0     C85875   5.707  10.288   8.073  0.0674 -0.5573 -0.6140
  623MOL0     C85876   5.819  10.204   8.132 -0.5504  0.2029  1.1235
  623MOL0     C85877   5.856  10.243   8.273  0.1271 -0.7268  0.3851
  623MOL0     C85878   5.933  10.376   8.287  0.8106  0.2486  0.4966
  623MOL0     C85879   5.980  10.402   8.434  0.0819 -0.4746 -0.1817
  623MOL0     C85880   6.079  10.515   8.435 -0.2344 -0.4890 -0.9721
  623MOL0    Cl85881   6.002  10.663   8.348 -0.1913 -0.1847  0.0752
  623MOL0     C85882   5.419   9.898   7.927 -0.3822  0.3657 -0.1733
  623MOL0     C85883   5.325   9.818   7.985  0.2402  0.1093  0.5896
  623MOL0     O85884   5.041   9.865   8.078 -0.5246 -0.4044  0.0586
  623MOL0     C85885   5.024   9.585   8.315 -0.5992  0.0989 -0.2644
  623MOL0     C85886   4.933   9.515   8.392 -0.4411  0.1005  0.6075
  623MOL0     N85887   4.074   9.568   8.495  0.6248 -0.0775  0.9595
  623MOL0     N85888   3.955   9.589   8.431  0.5223  0.1298 -0.3013
  623MOL0     C85889   3.007   9.684   8.141 -0.7284  0.6353 -0.4413
  623MOL0     C85890   2.876   9.685   8.187 -0.5707 -0.2026  0.0684
  623MOL0     C85891   2.453   9.455   8.165  0.4229 -0.7994 -0.7355
  623MOL0     C85892   2.383   9.348   8.108 -0.3362  0.6851 -0.9266
  623MOL0     C85893   2.258   9.304   8.148 -0.5514  0.3970  0.3102
  623MOL0     C85894   2.202   9.368   8.261 -0.1392 -0.5871 -0.1885
  623MOL0     O85895   2.074   9.334   8.290 -0.1614 -0.4815 -0.4081
  623MOL0     C85896   1.974   9.436   8.299  0.0665  0.1162  0.0007
  623MOL0     C85897   1.827   9.392   8.294  0.2231 -0.1137 -0.0102
  623MOL0     C85898   1.743   9.512   8.294  0.0961 -0.3349  1.3976
  623MOL0     C85899   1.701   9.555   8.436  0.2256  0.4920 -0.2654
  623MOL0     C85900   1.589   9.646   8.427  0.1504 -0.0959 -0.0559
  623MOL0     C85901   1.495   9.720   8.417  0.5857  0.5727 -0.0105
  623MOL0     C85902   2.262   9.477   8.313  0.7985  0.2174 -0.0672
  623MOL0     C85903   2.389   9.519   8.277  0.2395 -0.2089  0.0671
  623MOL0     C85904   2.447   9.632   8.358  0.4903 -0.0581  0.4364
  623MOL0     H85905   2.843   9.344   8.150  1.2801 -1.0278  1.9364
  623MOL0     H85906   3.072   9.364   8.093  1.6890  0.4032 -1.2629
  623MOL0     H85907   3.284   9.657   7.905 -0.5229  0.0442  0.3525
  623MOL0     H85908   3.155   9.563   7.882  0.3151 -1.5667  0.2250
  623MOL0     H85909   3.256   9.346   7.934 -0.6307 -0.1626 -0.7657
  623MOL0     H85910   3.318   9.430   7.792 -2.9164  2.7339 -0.0273
  623MOL0     H85911   3.447   9.432   8.064 -1.1241  2.0106 -0.0377
  623MOL0     H85912   3.515   9.322   7.940 -2.4357 -0.8111  0.4865
  623MOL0     H85913   3.596   9.507   7.807  0.8082 -2.8231  0.6042
  623MOL0     H85914   3.508   9.632   7.902 -1.3679 -0.5701 -0.5732
  623MOL0     H85915   3.619   9.557   8.099 -2.0826  2.3105 -0.0145
  623MOL0     H85916   3.693   9.661   7.980 -1.0370 -0.8181 -0.5109
  623MOL0     H85917   3.738   9.366   7.977  0.4542 -0.1832 -3.1200
  623MOL0     H85918   3.830   9.500   7.896 -0.7087  4.4882  1.5348
  623MOL0     H85919   3.924   9.581   8.071 -0.6961  0.8960  1.6240
  623MOL0     H85920   3.971   9.414   8.076  0.6626  0.4053  0.2111
  623MOL0     H85921   3.761   9.558   8.271 -1.4162 -0.1107  2.4785
  623MOL0     H85922   3.783   9.378   8.247  1.8969  0.2551 -1.6095
  623MOL0     H85923   4.072   9.307   8.293 -2.1346 -1.2151  1.3664
  623MOL0     H85924   4.274   9.289   8.483  2.0586  0.1118 -0.6893
  623MOL0     H85925   4.289   9.421   8.590 -1.9964 -1.3122  1.3223
  623MOL0     H85926   4.318   9.440   8.290 -1.0493 -1.5606  1.1323
  623MOL0     H85927   4.368   9.571   8.394  3.4042 -0.0194 -2.4951
  623MOL0     H85928   4.494   9.297   8.436  0.7134 -0.4772 -1.2356
  623MOL0     H85929   4.548   9.398   8.314  1.3668 -1.5256  0.5248
  623MOL0     H85930   4.558   9.580   8.515 -1.2218 -0.8879 -1.1347
  623MOL0     H85931   4.568   9.436   8.606 -3.7368 -0.9830 -2.2869
  623MOL0     H85932   4.648   9.673   8.349 -0.0063  0.1997  1.3952
  623MOL0     H85933   4.780   9.800   8.063 -2.6706  0.0850 -0.5005
  623MOL0     H85934   4.799   9.924   8.191 -0.1839  0.5756 -0.8317
  623MOL0     H85935   4.651   9.823   8.183  0.1203  2.0684 -1.2391
  623MOL0     H85936   5.359   9.899   8.307  1.3030 -0.4872 -0.3421
  623MOL0     H85937   5.526  10.053   8.206 -1.2274 -0.6254  1.1448
  623MOL0     H85938   5.507  10.182   7.802 -2.1626 -0.5637  0.8199
  623MOL0     H85939   5.469  10.211   7.968 -1.6528 -1.3781 -1.1275
  623MOL0     H85940   5.758  10.256   7.868 -0.4330  1.2725 -0.8617
  623MOL0     H85941   5.632  10.378   7.890 -0.4294  0.6014  1.8041
  623MOL0     H85942   5.618  10.293   8.137  0.7552 -3.2580  0.7144
  623MOL0     H85943   5.745  10.390   8.070  0.1265 -0.5993 -1.3120
  623MOL0     H85944   5.910  10.222   8.074  0.4879  0.3450  2.7367
  623MOL0     H85945   5.812  10.097   8.111  1.3524  0.3950 -0.8514
  623MOL0     H85946   5.766  10.254   8.335  1.0953 -0.3646  1.7896
  623MOL0     H85947   5.915  10.164   8.320 -2.3164 -0.6876  3.9467
  623MOL0     H85948   5.861  10.454   8.264 -1.0928 -0.8178  2.3677
  623MOL0     H85949   6.017  10.393   8.219 -0.5882  2.0871 -0.8668
  623MOL0     H85950   6.021  10.311   8.479 -3.1178 -2.5299 -1.1187
  623MOL0     H85951   5.895  10.426   8.497 -0.3301 -1.5050 -0.3306
  623MOL0     H85952   6.175  10.494   8.386  1.8206  1.6600  1.7366
  623MOL0     H85953   6.109  10.547   8.536 -2.3556 -2.6457  0.4578
  623MOL0     H85954   5.438   9.908   7.821  1.6228  2.0587  0.3022
  623MOL0     H85955   5.282   9.742   7.920 -1.1000 -0.8810  2.5171
  623MOL0     H85956   5.129   9.558   8.315 -0.2108  0.7817 -4.9130
  623MOL0     H85957   4.974   9.429   8.443  3.9054  0.9894 -0.9612
  623MOL0     H85958   3.063   9.774   8.119  0.6113 -0.1732 -0.5011
  623MOL0     H85959   2.823   9.777   8.208  3.1378  2.4578 -1.3270
  623MOL0     H85960   2.418   9.299   8.018 -0.5571  0.8622 -1.1110
  623MOL0     H85961   2.205   9.230   8.088  0.1571 -0.8642  1.1799
  623MOL0     H85962   1.988   9.488   8.395 -2.5563 -0.5901  0.8542
  623MOL0     H85963   1.985   9.503   8.213 -1.6493 -4.3707 -4.1258
  623MOL0     H85964   1.797   9.320   8.370  1.0792 -1.1555 -0.6250
  623MOL0     H85965   1.817   9.349   8.193  0.1447  0.6513 -0.3393
  623MOL0     H85966   1.797   9.595   8.246 -0.8048 -0.6484 -0.2233
  623MOL0     H85967   1.657   9.492   8.229  1.2192  2.1922 -1.0912
  623MOL0     H85968   1.785   9.584   8.500  0.1227  1.6201 -0.6199
  623MOL0     H85969   1.657   9.465   8.480  0.1770  1.1213  1.0447
  623MOL0     H85970   1.426   9.801   8.412  1.6110  1.3679 -3.3698
  623MOL0     H85971   2.216   9.540   8.389 -0.6546 -0.2974 -0.4797
  623MOL0     H85972   2.540   9.596   8.403 -1.0959 -0.8393  3.3305
  623MOL0     H85973   2.461   9.717   8.290 -2.7457 -0.3251 -0.7099
  623MOL0     H85974   2.393   9.656   8.450 -0.6923  1.7705 -0.6604
  624MOL0     O85975   0.107   2.349   8.943  0.4940  0.1603 -0.1226
  624MOL0     C85976   0.195   2.290   8.882  0.2539 -0.4876  0.2396
  624MOL0     O85977   0.324   2.269   8.923  0.6306  0.2508  0.8905
  624MOL0     C85978   0.364   2.368   9.006  0.0089  0.8743 -1.0735
  624MOL0     C85979   0.394   2.489   8.948 -0.2166 -0.1577 -0.1603
  624MOL0     C85980   0.436   2.596   9.032  0.5753 -0.2393 -0.5341
  624MOL0     C85981   0.458   2.586   9.177  0.1245 -0.6579 -0.2539
  624MOL0     O85982   0.511   2.677   9.263  0.5675 -0.7224 -0.0693
  624MOL0     C85983   0.527   2.811   9.216 -0.0266  0.2386  0.4183
  624MOL0     C85984   0.559   2.918   9.317 -0.3193 -0.4539  0.0164
  624MOL0     C85985   0.664   2.888   9.419 -0.4049 -0.2822  0.7259
  624MOL0     C85986   0.813   2.908   9.365  0.2763 -0.3749  1.1647
  624MOL0     C85987   0.917   2.891   9.477  0.5081  0.1334 -0.1745
  624MOL0     C85988   1.058   2.885   9.414  0.5838 -0.2452 -0.4509
  624MOL0     C85989   1.156   2.826   9.531  0.1579 -0.2007  0.2242
  624MOL0     C85990   1.159   2.894   9.671 -0.1728  0.0390  0.3690
  624MOL0     N85991   1.250   3.013   9.654 -0.1816  0.0062 -0.0171
  624MOL0     C85992   1.210   3.137   9.610  0.2049 -1.0377  1.0480
  624MOL0     C85993   1.324   3.216   9.604  0.1726 -0.0508  1.2538
  624MOL0     C85994   1.340   3.357   9.556 -0.9706  0.6003  0.4781
  624MOL0     C85995   1.475   3.425   9.566  0.2620 -0.9948  0.0749
  624MOL0     C85996   1.452   3.578   9.554  1.2776 -0.4154 -0.1866
  624MOL0     C85997   1.570   3.645   9.614 -0.6507 -0.6441 -0.1455
  624MOL0     O85998   1.572   3.785   9.563 -0.3447 -0.8424  0.1396
  624MOL0     C85999   1.482   3.870   9.621  0.1029  0.3825  0.3249
  624MOL0     C86000   1.528   3.951   9.721  0.3708 -0.7695 -0.9826
  624MOL0     C86001   1.440   4.045   9.775 -0.1620  0.0419 -0.1974
  624MOL0     C86002   1.496   4.137   9.876 -0.4013 -0.6538  0.1652
  624MOL0     C86003   1.296   4.038   9.745 -0.0427  0.2560 -0.2947
  624MOL0     C86004   1.187   4.116   9.810  1.1172 -0.3085 -0.3624
  624MOL0     O86005   1.064   4.058   9.812 -0.0642 -0.9249  0.2297
  624MOL0     C86006   0.968   4.113   9.893 -0.6077  0.9848 -1.1299
  624MOL0     C86007   0.961   4.073  10.031 -0.1031  0.7854 -0.2569
  624MOL0     C86008   0.859   4.108  10.115  0.2750  0.2209  0.0676
  624MOL0     C86009   0.771   4.204  10.072 -0.1534 -0.1313  0.2216
  624MOL0     O86010   0.674   4.253  10.159  1.1423  0.4179 -0.5517
  624MOL0     C86011   0.725   4.316  10.277 -0.4128 -0.7828 -0.5839
  624MOL0     C86012   0.611   4.382  10.359 -0.3178  0.7318  0.6687
  624MOL0     C86013   0.643   4.496  10.446  0.0084  0.5809 -0.7859
  624MOL0     C86014   0.690   4.626  10.380 -0.1741  0.5803  0.6200
  624MOL0     C86015   0.598   4.675  10.261  0.3008  0.1286 -1.0794
  624MOL0     C86016   0.654   4.661  10.121 -0.0580  0.0691 -0.1466
  624MOL0     C86017   0.543   4.674  10.020 -0.4720  0.3607  0.2907
  624MOL0     C86018   0.578   4.649   9.878 -0.9581 -1.2032 -0.0657
  624MOL0    Cl86019   0.427   4.646   9.771 -0.4537 -0.1037  0.2215
  624MOL0     C86020   0.776   4.253   9.941  0.0318  0.3746  0.1183
  624MOL0     C86021   0.868   4.197   9.850  0.0077 -0.8420 -0.9616
  624MOL0     O86022   1.216   4.213   9.873 -0.0222  0.1386  0.3611
  624MOL0     C86023   1.263   3.962   9.630 -0.1199  1.0446 -0.6160
  624MOL0     C86024   1.353   3.889   9.564 -0.4679  0.5683 -0.8397
  624MOL0     N86025   1.427   3.124   9.624 -0.2037 -1.0666  0.1501
  624MOL0     N86026   1.386   3.011   9.648 -0.7104  0.8227  0.6340
  624MOL0     C86027   0.436   2.454   9.224 -0.9175  0.3348 -0.3878
  624MOL0     C86028   0.389   2.349   9.142 -0.5237  0.0008  0.0883
  624MOL0     C86029   0.145   2.222   8.767  0.1451 -0.1177 -0.5298
  624MOL0     C86030   0.163   2.287   8.645  0.9729 -0.2949  0.4013
  624MOL0     C86031   0.125   2.221   8.530  0.7821 -0.1777 -0.8188
  624MOL0     C86032   0.060   2.084   8.533  0.1995 -0.5101 -0.3098
  624MOL0     O86033   0.031   2.016   8.415  0.4599  0.3204  0.3078
  624MOL0     C86034   0.070   2.059   8.280  0.2615 -0.2291  0.0657
  624MOL0     C86035  -0.015   1.979   8.177 -0.3554 -1.5304  0.6036
  624MOL0     C86036  -0.166   2.005   8.203 -0.1953  1.1398  0.2561
  624MOL0     C86037  -0.259   1.976   8.083  0.4023 -0.0599 -0.4083
  624MOL0     C86038  -0.236   1.840   8.034  0.8249  0.0036 -0.7932
  624MOL0     C86039  -0.226   1.719   8.017  0.0708  1.6097 -0.6614
  624MOL0     C86040   0.039   2.032   8.659 -0.3194 -0.3774 -0.0993
  624MOL0     C86041   0.080   2.095   8.782  0.7703  0.7378 -1.2444
  624MOL0     C86042   0.073   2.006   8.909  0.5319 -0.1006  0.0313
  624MOL0     H86043   0.390   2.507   8.841 -1.0961 -0.1276 -0.1354
  624MOL0     H86044   0.463   2.685   8.976 -2.1665  0.0463 -1.5433
  624MOL0     H86045   0.436   2.837   9.161  0.1462 -2.1337 -1.0836
  624MOL0     H86046   0.612   2.802   9.149  0.4969 -1.3960  1.2552
  624MOL0     H86047   0.601   2.997   9.254 -0.8351  0.5943  0.9714
  624MOL0     H86048   0.463   2.947   9.360 -0.8018 -0.0116 -1.2959
  624MOL0     H86049   0.650   2.956   9.504  0.4090  0.4453  0.2922
  624MOL0     H86050   0.652   2.784   9.449  1.1310 -0.2249  1.6043
  624MOL0     H86051   0.818   2.851   9.272  0.0471  3.0628 -1.1617
  624MOL0     H86052   0.824   3.014   9.340 -3.2698  0.0818  0.9956
  624MOL0     H86053   0.905   2.792   9.521 -2.2958  0.7059  0.4935
  624MOL0     H86054   0.909   2.962   9.559  0.0743 -0.1053 -0.0114
  624MOL0     H86055   1.059   2.811   9.333 -3.0836 -1.0025  0.0013
  624MOL0     H86056   1.101   2.977   9.374 -1.7700 -0.0768 -2.9012
  624MOL0     H86057   1.259   2.822   9.494  1.0074  0.3806  2.3466
  624MOL0     H86058   1.121   2.723   9.535 -0.7967 -0.1557 -3.3598
  624MOL0     H86059   1.063   2.924   9.713  0.1073 -1.4198  2.2142
  624MOL0     H86060   1.206   2.826   9.742 -0.5953  1.3543  1.9754
  624MOL0     H86061   1.109   3.174   9.600  1.5214  2.8375  0.4199
  624MOL0     H86062   1.279   3.408   9.631 -0.0908  0.8698  1.0183
  624MOL0     H86063   1.293   3.375   9.458 -0.8331  1.3260  0.5428
  624MOL0     H86064   1.520   3.403   9.663 -0.4510  2.4451  1.3004
  624MOL0     H86065   1.539   3.385   9.486  0.0274  0.6041 -0.9766
  624MOL0     H86066   1.438   3.606   9.449  2.1103 -0.5132 -0.3323
  624MOL0     H86067   1.365   3.609   9.613  2.3841  3.2345 -0.1999
  624MOL0     H86068   1.569   3.640   9.723  1.2030  2.6494  0.1627
  624MOL0     H86069   1.660   3.595   9.578  1.7156  3.4994 -0.6928
  624MOL0     H86070   1.628   3.933   9.759  0.3015 -0.0538 -0.4381
  624MOL0     H86071   1.605   4.142   9.873 -0.4606  1.1053 -2.4228
  624MOL0     H86072   1.463   4.118   9.979 -1.9096  3.8077  0.7383
  624MOL0     H86073   1.468   4.240   9.848  2.5301 -0.0926 -1.0337
  624MOL0     H86074   1.036   4.002  10.063 -0.7901  0.7548  1.3652
  624MOL0     H86075   0.860   4.052  10.208 -0.0599 -1.4112 -0.8633
  624MOL0     H86076   0.786   4.249  10.338 -0.0796 -0.0005 -0.0469
  624MOL0     H86077   0.789   4.390  10.227  0.4709 -2.1321 -1.5176
  624MOL0     H86078   0.535   4.409  10.285  0.8521  0.3307 -0.7039
  624MOL0     H86079   0.572   4.309  10.431 -0.8599  2.0691  1.7870
  624MOL0     H86080   0.724   4.465  10.513 -1.8755 -1.3111  0.7564
  624MOL0     H86081   0.564   4.523  10.516  1.0274  1.4575  0.0692
  624MOL0     H86082   0.789   4.605  10.337 -2.1794 -3.0939 -2.9366
  624MOL0     H86083   0.699   4.702  10.457  0.8545  0.5327  0.5646
  624MOL0     H86084   0.502   4.622  10.261 -0.2169  1.0303  0.0078
  624MOL0     H86085   0.566   4.777  10.286 -1.7820 -0.4826 -1.0831
  624MOL0     H86086   0.717   4.574  10.101  1.7463  1.8324 -2.8786
  624MOL0     H86087   0.714   4.753  10.122  2.6205 -1.5504  1.4263
  624MOL0     H86088   0.519   4.781  10.024 -0.7035  0.2842  1.2742
  624MOL0     H86089   0.458   4.617  10.059  3.4106 -3.9578  3.6412
  624MOL0     H86090   0.639   4.559   9.867  2.1127  0.8066 -0.9357
  624MOL0     H86091   0.643   4.729   9.841 -0.8110 -2.6483 -3.3092
  624MOL0     H86092   0.709   4.328   9.900  0.8822  0.4533 -1.2183
  624MOL0     H86093   0.867   4.234   9.748 -0.5338 -0.9899 -1.0113
  624MOL0     H86094   1.172   3.983   9.575  1.0974  4.7965 -1.4256
  624MOL0     H86095   1.321   3.854   9.467  0.0799  1.4975 -1.3640
  624MOL0     H86096   0.473   2.420   9.320 -0.6892  4.2197  1.0444
  624MOL0     H86097   0.365   2.252   9.184  3.0230 -0.7835  0.6164
  624MOL0     H86098   0.208   2.385   8.648 -1.9903  1.2980 -1.5454
  624MOL0     H86099   0.155   2.262   8.434 -2.0289  0.4280 -1.5390
  624MOL0     H86100   0.036   2.161   8.259 -0.4953  0.0116  2.2758
  624MOL0     H86101   0.176   2.056   8.252 -0.2726  1.5440 -2.5250
  624MOL0     H86102   0.001   1.871   8.171 -3.7167 -2.2207  1.7790
  624MOL0     H86103  -0.002   2.014   8.074 -3.3188 -0.8449  0.3719
  624MOL0     H86104  -0.190   1.951   8.296  1.6594  1.3727  0.8968
  624MOL0     H86105  -0.182   2.108   8.236 -2.5478  0.9210  0.0393
  624MOL0     H86106  -0.231   2.042   8.001 -1.9852 -0.0532 -1.3109
  624MOL0     H86107  -0.359   2.008   8.114 -0.0115 -1.3728 -0.3222
  624MOL0     H86108  -0.219   1.617   7.984 -2.8426  1.5975 -1.4746
  624MOL0     H86109  -0.001   1.931   8.657 -1.5530  0.0800  0.3590
  624MOL0     H86110  -0.006   1.930   8.913 -1.1130  1.5402 -0.0947
  624MOL0     H86111   0.175   1.965   8.913  0.0405 -1.2921  1.4775
  624MOL0     H86112   0.052   2.058   9.003  0.5560  0.1643 -0.1084
  625MOL0     O86113   8.504   9.094   7.328  0.1129 -0.3510  0.2366
  625MOL0     C86114   8.397   9.141   7.372 -0.8106 -0.4804  0.0620
  625MOL0     O86115   8.361   9.143   7.504  0.1246  0.0703  0.2146
  625MOL0     C86116   8.454   9.141   7.603 -0.4234  0.4101 -0.0353
  625MOL0     C86117   8.564   9.221   7.600  0.1172  0.2815 -0.1105
  625MOL0     C86118   8.649   9.218   7.711  0.1533 -0.3324 -0.6097
  625MOL0     C86119   8.635   9.144   7.822  0.4761  0.7451 -0.7028
  625MOL0     O86120   8.734   9.150   7.916  0.1988 -0.5429 -0.0314
  625MOL0     C86121   8.734   9.060   8.026  1.1090 -0.8212  0.3795
  625MOL0     C86122   8.860   9.073   8.094 -0.2874  0.2024 -0.9973
  625MOL0     C86123   8.898   8.942   8.182 -0.1408  0.3899 -0.3234
  625MOL0     C86124   9.038   8.961   8.254  0.3809 -0.3837 -0.3601
  625MOL0     C86125   9.069   8.857   8.365 -0.8098  0.7151 -0.9302
  625MOL0     C86126   9.209   8.871   8.427 -0.4059  0.3321  0.2982
  625MOL0     C86127   9.242   9.007   8.497 -1.6733  0.7674 -0.2760
  625MOL0     C86128   9.396   9.002   8.537  0.4688  0.7685 -0.3992
  625MOL0     N86129   9.425   8.888   8.629 -0.3191  0.1043  0.1148
  625MOL0     C86130   9.486   8.773   8.599  0.5043 -0.2676  0.2861
  625MOL0     C86131   9.524   8.712   8.710  0.3421 -0.2322 -0.3803
  625MOL0     C86132   9.636   8.609   8.711  0.2986 -0.4257 -0.6028
  625MOL0     C86133   9.741   8.631   8.831  0.9462 -0.4275  0.5028
  625MOL0     C86134   9.690   8.561   8.966  0.6354  0.6764  0.5676
  625MOL0     C86135   9.811   8.556   9.062  0.0773  0.0880  0.1294
  625MOL0     O86136   9.890   8.449   9.015 -0.3162  0.6716 -0.1866
  625MOL0     C86137  10.002   8.413   9.090  0.3233  0.4610 -0.0567
  625MOL0     C86138  10.008   8.436   9.230  0.3124  0.2113  0.6690
  625MOL0     C86139  10.114   8.387   9.299 -0.6005 -0.6723 -0.3361
  625MOL0     C86140  10.117   8.417   9.445  0.0886 -1.1898  0.3542
  625MOL0     C86141  10.222   8.316   9.246 -0.3812  0.3798 -0.0021
  625MOL0     C86142  10.344   8.273   9.324  0.7841 -0.3579  0.0192
  625MOL0     O86143  10.407   8.367   9.413 -0.1384 -0.5705 -0.1606
  625MOL0     C86144  10.531   8.330   9.461  0.1282 -0.5007 -0.3015
  625MOL0     C86145  10.641   8.342   9.372  0.5166  0.0224 -0.3005
  625MOL0     C86146  10.768   8.313   9.420  0.1765 -0.6794 -0.0469
  625MOL0     C86147  10.791   8.272   9.555  0.2670  0.0859  0.5205
  625MOL0     O86148  10.915   8.242   9.604 -0.1862 -0.0127 -0.0193
  625MOL0     C86149  10.940   8.303   9.726 -0.0475 -0.8007  0.5026
  625MOL0     C86150  11.084   8.288   9.762 -0.1776  0.3838 -0.4536
  625MOL0     C86151  11.182   8.268   9.656  0.1382 -0.0272 -0.5964
  625MOL0     C86152  11.313   8.221   9.728  0.1361  0.2980  0.8099
  625MOL0     C86153  11.443   8.223   9.636 -0.7840 -0.3610 -0.3638
  625MOL0     C86154  11.417   8.145   9.511  0.0096 -0.4328  0.6474
  625MOL0     C86155  11.369   8.003   9.524 -0.0806  0.4062 -0.5889
  625MOL0     C86156  11.433   7.920   9.633 -0.8672 -0.1317  0.5988
  625MOL0    Cl86157  11.606   7.931   9.656  0.4000  0.1644 -0.0704
  625MOL0     C86158  10.671   8.266   9.637  0.6799 -0.0227 -0.2909
  625MOL0     C86159  10.539   8.294   9.592 -0.9960  0.2582  0.5860
  625MOL0     O86160  10.379   8.156   9.303 -0.4533 -0.2302  0.7838
  625MOL0     C86161  10.217   8.298   9.103 -0.6625  0.0260 -0.8255
  625MOL0     C86162  10.101   8.337   9.033  0.0308  0.5138  0.2753
  625MOL0     N86163   9.469   8.776   8.821  0.3326 -1.5706  0.5099
  625MOL0     N86164   9.419   8.891   8.772 -0.1864  0.2243  0.4953
  625MOL0     C86165   8.515   9.066   7.825 -0.3026  0.8271  0.4297
  625MOL0     C86166   8.428   9.056   7.714 -0.7359 -0.0981 -0.1028
  625MOL0     C86167   8.290   9.184   7.271 -0.0995 -0.5950 -0.8790
  625MOL0     C86168   8.290   9.134   7.138 -0.8433  0.8014 -0.1062
  625MOL0     C86169   8.214   9.182   7.034  1.3869 -0.3558  0.1445
  625MOL0     C86170   8.117   9.285   7.052 -0.4308 -0.2756  1.0503
  625MOL0     O86171   8.038   9.333   6.950 -0.4220  0.3437 -0.6134
  625MOL0     C86172   8.097   9.321   6.820 -0.2571 -0.0801 -0.8535
  625MOL0     C86173   8.037   9.419   6.727 -0.3273  0.1358 -1.1874
  625MOL0     C86174   8.046   9.561   6.781 -0.2154  0.2372 -0.4195
  625MOL0     C86175   7.984   9.669   6.695 -0.5815  0.6777  0.7231
  625MOL0     C86176   7.836   9.631   6.680  0.2014  0.7734  0.3658
  625MOL0     C86177   7.718   9.597   6.674  0.4041  0.1108  0.7199
  625MOL0     C86178   8.106   9.322   7.188  0.2041 -0.5861  1.1836
  625MOL0     C86179   8.176   9.275   7.299 -0.3479  0.4373 -0.0544
  625MOL0     C86180   8.132   9.325   7.432  0.5599  0.5593  0.4825
  625MOL0     H86181   8.584   9.286   7.515 -0.9776  1.5260  0.5632
  625MOL0     H86182   8.735   9.280   7.693 -1.0181  1.7543  0.5602
  625MOL0     H86183   8.729   8.958   7.987 -0.6666 -0.0998 -1.4308
  625MOL0     H86184   8.648   9.072   8.091  1.4199 -2.4559  1.1315
  625MOL0     H86185   8.937   9.098   8.020  0.1771  0.3552 -0.4713
  625MOL0     H86186   8.850   9.161   8.158 -1.7265 -2.0106  2.0875
  625MOL0     H86187   8.819   8.926   8.256 -2.1454 -2.4205 -2.8041
  625MOL0     H86188   8.903   8.863   8.106  0.9161 -0.2591  0.3910
  625MOL0     H86189   9.119   8.978   8.183 -1.1644  0.8848 -1.9246
  625MOL0     H86190   9.029   9.053   8.313  1.5370  0.0248 -0.7861
  625MOL0     H86191   9.068   8.765   8.304 -1.4110  1.2602 -1.7685
  625MOL0     H86192   9.000   8.859   8.449  0.0842  2.2565 -0.1962
  625MOL0     H86193   9.219   8.788   8.497  3.3660 -0.4339 -0.9084
  625MOL0     H86194   9.282   8.853   8.347 -1.0913 -0.8148 -0.0867
  625MOL0     H86195   9.173   9.020   8.582 -1.3185 -1.2755  0.3726
  625MOL0     H86196   9.218   9.095   8.436  1.7544  1.5340 -0.7032
  625MOL0     H86197   9.457   8.995   8.447 -1.5574 -1.6896 -1.6985
  625MOL0     H86198   9.418   9.096   8.590  0.8204  0.1619  0.5624
  625MOL0     H86199   9.529   8.743   8.504 -0.3260 -0.1425 -0.1432
  625MOL0     H86200   9.698   8.619   8.621  2.5939 -1.2474  0.7863
  625MOL0     H86201   9.590   8.509   8.705 -0.7322 -0.1581  1.6282
  625MOL0     H86202   9.838   8.598   8.793  0.0977 -0.5091 -1.7287
  625MOL0     H86203   9.743   8.735   8.862 -0.1779 -1.0496  2.8710
  625MOL0     H86204   9.610   8.620   9.010 -1.2916  0.3859 -2.2754
  625MOL0     H86205   9.661   8.457   8.948 -0.1202  0.8905  0.5176
  625MOL0     H86206   9.878   8.643   9.060  1.8298 -1.0160  3.2498
  625MOL0     H86207   9.786   8.533   9.166  2.5390 -1.4295  0.4496
  625MOL0     H86208   9.931   8.479   9.294  0.9872 -0.5036  2.0005
  625MOL0     H86209  10.152   8.519   9.460 -0.9942 -0.6586 -0.6184
  625MOL0     H86210  10.187   8.349   9.496  2.3534 -0.6838 -1.9010
  625MOL0     H86211  10.022   8.406   9.498 -0.4188 -5.1691 -1.0222
  625MOL0     H86212  10.629   8.375   9.270 -2.4045 -0.3730 -0.1749
  625MOL0     H86213  10.859   8.327   9.363  0.4511  0.6875  0.6801
  625MOL0     H86214  10.931   8.412   9.724  0.2444 -0.7753 -0.9702
  625MOL0     H86215  10.875   8.262   9.803 -2.4259  0.3815 -0.7772
  625MOL0     H86216  11.100   8.378   9.822 -1.3877 -0.9784  2.1239
  625MOL0     H86217  11.078   8.204   9.832  0.2642  2.7689  2.6776
  625MOL0     H86218  11.199   8.369   9.617  1.2307  0.1713  0.3358
  625MOL0     H86219  11.163   8.199   9.573  5.7281  1.1203 -3.3488
  625MOL0     H86220  11.301   8.122   9.772  2.5994 -0.5680 -0.2470
  625MOL0     H86221  11.347   8.279   9.814  4.6404 -2.7539  1.4308
  625MOL0     H86222  11.465   8.328   9.613  0.4472 -0.2303  1.2578
  625MOL0     H86223  11.530   8.187   9.692  1.4701  1.1273 -2.6998
  625MOL0     H86224  11.512   8.150   9.458 -0.0527  4.7794  0.4685
  625MOL0     H86225  11.349   8.207   9.450 -0.1614  1.1220  2.3419
  625MOL0     H86226  11.389   7.962   9.425 -2.5833  3.5633 -2.6247
  625MOL0     H86227  11.260   8.006   9.539 -0.1919 -1.1711 -0.9890
  625MOL0     H86228  11.405   7.821   9.596 -2.3941  0.9951 -1.4356
  625MOL0     H86229  11.377   7.937   9.726 -2.4013  1.1745 -0.5104
  625MOL0     H86230  10.678   8.228   9.738 -4.6487 -1.0899 -0.0727
  625MOL0     H86231  10.451   8.286   9.655 -1.3956  1.1043  0.1534
  625MOL0     H86232  10.289   8.243   9.044 -1.2973  0.2651 -1.8650
  625MOL0     H86233  10.086   8.304   8.931  0.4847 -0.5732  0.5429
  625MOL0     H86234   8.493   9.002   7.910 -1.2681 -1.5575 -1.5063
  625MOL0     H86235   8.337   8.997   7.711 -0.1280 -1.0780 -0.0544
  625MOL0     H86236   8.373   9.064   7.125 -2.1062 -1.1798  1.9331
  625MOL0     H86237   8.234   9.140   6.936 -0.8827  1.2246 -1.0703
  625MOL0     H86238   8.204   9.341   6.830 -0.3091 -0.3979  0.6322
  625MOL0     H86239   8.067   9.222   6.784 -0.5088 -1.1745  2.0399
  625MOL0     H86240   7.933   9.393   6.706 -0.2023 -1.2045 -0.2752
  625MOL0     H86241   8.085   9.412   6.629  5.4002  2.4283  0.9789
  625MOL0     H86242   8.005   9.564   6.883  1.5464 -2.1462  0.4207
  625MOL0     H86243   8.148   9.594   6.804 -0.5075 -0.6016  2.5475
  625MOL0     H86244   8.050   9.675   6.608  1.5445  0.0100  2.1957
  625MOL0     H86245   7.984   9.766   6.746  0.5834  2.9087 -3.1301
  625MOL0     H86246   7.617   9.566   6.690  0.5734 -0.1972  1.2213
  625MOL0     H86247   8.029   9.395   7.212 -0.0051 -0.7432  0.9983
  625MOL0     H86248   8.091   9.237   7.483  1.6880 -0.1357  0.2410
  625MOL0     H86249   8.214   9.352   7.500  0.1569 -0.2398  1.3064
  625MOL0     H86250   8.053   9.400   7.437 -0.9880 -0.6389 -2.8088
  626MOL0     O86251   2.871   6.631  10.274  0.1745  0.3431  0.4852
  626MOL0     C86252   2.804   6.611  10.171 -0.0226  0.3704 -0.1509
  626MOL0     O86253   2.833   6.662  10.052  0.4796 -0.1096 -0.5379
  626MOL0     C86254   2.910   6.775  10.029  0.3911 -0.3233  0.3573
  626MOL0     C86255   2.923   6.880  10.122  0.4332  0.2456  0.1124
  626MOL0     C86256   3.008   6.987  10.095 -0.5065  0.4848  0.6955
  626MOL0     C86257   3.076   7.003   9.972 -0.0074  0.5606 -0.7170
  626MOL0     O86258   3.156   7.102   9.931 -0.0392 -0.4237  0.0335
  626MOL0     C86259   3.213   7.195  10.025 -0.3099 -0.3274  0.0034
  626MOL0     C86260   3.356   7.228   9.991 -0.5029 -0.7886  0.4595
  626MOL0     C86261   3.458   7.123  10.021  0.1357  0.4000 -0.9485
  626MOL0     C86262   3.598   7.164   9.970  0.8935  1.6542  0.2491
  626MOL0     C86263   3.712   7.069  10.032  1.3523  0.4330 -0.5480
  626MOL0     C86264   3.843   7.135  10.011 -0.9045 -0.5706  0.2448
  626MOL0     C86265   3.883   7.141   9.860  1.5120 -0.7644 -0.1483
  626MOL0     C86266   4.027   7.138   9.857  0.1947  0.2273  0.1392
  626MOL0     N86267   4.087   7.158   9.728  0.8924 -1.0433 -0.1029
  626MOL0     C86268   4.075   7.264   9.649  0.0859  0.2089 -0.5821
  626MOL0     C86269   4.142   7.235   9.537  0.3786  0.4019 -0.5235
  626MOL0     C86270   4.141   7.318   9.411  0.3872  0.5789 -0.3740
  626MOL0     C86271   4.286   7.363   9.378 -0.9942  0.3451  0.2282
  626MOL0     C86272   4.349   7.435   9.504 -0.0088  0.0915 -0.1088
  626MOL0     C86273   4.458   7.531   9.458 -0.4288 -0.0684  0.2559
  626MOL0     O86274   4.523   7.595   9.572 -0.8360  0.9270  0.1020
  626MOL0     C86275   4.650   7.580   9.610  0.0475 -0.0239 -0.1335
  626MOL0     C86276   4.734   7.485   9.559 -1.0856  0.1186 -0.5150
  626MOL0     C86277   4.869   7.471   9.601  0.7154 -0.1830  0.2263
  626MOL0     C86278   4.957   7.375   9.520  0.1555  0.3914 -0.6077
  626MOL0     C86279   4.912   7.535   9.713  0.0999 -0.0765 -0.6612
  626MOL0     C86280   5.043   7.512   9.775 -0.1887 -0.0423  0.2126
  626MOL0     O86281   5.086   7.381   9.791  0.2091  0.6880  0.5135
  626MOL0     C86282   5.211   7.365   9.840  0.0550  0.1713  0.5023
  626MOL0     C86283   5.320   7.351   9.755 -0.7460 -0.5704 -0.6306
  626MOL0     C86284   5.455   7.353   9.796 -0.2055 -0.4499  0.1356
  626MOL0     C86285   5.479   7.364   9.933  0.5704 -0.2588  0.2906
  626MOL0     O86286   5.604   7.348   9.990 -0.4625  0.2294  0.3792
  626MOL0     C86287   5.620   7.343  10.131  0.0563  0.7062 -0.7428
  626MOL0     C86288   5.765   7.313  10.175  0.2679 -0.2720  0.1019
  626MOL0     C86289   5.793   7.276  10.324  0.5269  1.2795 -0.2907
  626MOL0     C86290   5.760   7.136  10.372 -0.4818  0.3509 -0.1693
  626MOL0     C86291   5.753   7.135  10.526 -0.5341 -0.0989 -0.1343
  626MOL0     C86292   5.746   7.002  10.590  1.2872  0.7225 -0.1065
  626MOL0     C86293   5.686   6.987  10.732 -0.7182  0.6189  0.1921
  626MOL0     C86294   5.734   6.862  10.812  0.6036 -1.1796 -0.0259
  626MOL0    Cl86295   5.696   6.719  10.699  0.0088  0.2937 -0.3125
  626MOL0     C86296   5.362   7.392  10.017 -0.3489  0.5389  0.4905
  626MOL0     C86297   5.228   7.379   9.974  0.4637 -0.3819  0.1244
  626MOL0     O86298   5.107   7.607   9.807 -0.5432 -0.3796 -0.0891
  626MOL0     C86299   4.828   7.627   9.779 -0.0898 -0.1957 -0.1881
  626MOL0     C86300   4.699   7.653   9.724  0.3052  0.6060 -0.2449
  626MOL0     N86301   4.206   7.113   9.551 -0.6011  0.0339  0.2580
  626MOL0     N86302   4.182   7.081   9.674 -0.2134  0.1161  0.5105
  626MOL0     C86303   3.052   6.905   9.884 -0.6810 -0.7785 -0.8407
  626MOL0     C86304   2.972   6.794   9.908  0.6842  0.7617 -0.2069
  626MOL0     C86305   2.686   6.513  10.184  0.8813  0.0390 -0.4525
  626MOL0     C86306   2.640   6.471  10.315  0.9829 -0.2677 -0.0330
  626MOL0     C86307   2.538   6.383  10.341  0.8191  0.7715  0.9390
  626MOL0     C86308   2.470   6.326  10.229  0.0634  0.3221  0.8707
  626MOL0     O86309   2.384   6.222  10.240 -0.2205  0.6323  0.1488
  626MOL0     C86310   2.334   6.202  10.371 -0.4632  1.0286  0.3024
  626MOL0     C86311   2.241   6.084  10.364 -0.2873  0.3548  0.6711
  626MOL0     C86312   2.178   6.050  10.499  0.4229  0.3987  0.0578
  626MOL0     C86313   2.108   5.912  10.481  0.3355  0.6402 -0.6377
  626MOL0     C86314   2.033   5.876  10.606 -0.3907  1.0175  1.1092
  626MOL0     C86315   1.975   5.849  10.711  0.3832 -0.1886 -0.3449
  626MOL0     C86316   2.506   6.362  10.101  0.4411  0.4976  0.1832
  626MOL0     C86317   2.611   6.456  10.077 -0.2618 -0.9191 -0.4455
  626MOL0     C86318   2.643   6.484   9.943 -0.2120 -1.3439  0.1754
  626MOL0     H86319   2.878   6.875  10.220 -0.7965 -1.9581 -0.4824
  626MOL0     H86320   3.015   7.051  10.182 -2.2699  0.1739  1.1026
  626MOL0     H86321   3.207   7.164  10.130  0.9076  0.8171  0.4284
  626MOL0     H86322   3.144   7.280  10.016 -1.1980 -1.1516 -1.2990
  626MOL0     H86323   3.354   7.253   9.885 -2.9596 -4.3261 -0.4851
  626MOL0     H86324   3.394   7.313  10.049  1.1095  0.3527 -2.0964
  626MOL0     H86325   3.462   7.105  10.129 -1.3783  0.3514 -0.8832
  626MOL0     H86326   3.428   7.031   9.971  0.5408 -0.2840  0.0211
  626MOL0     H86327   3.592   7.135   9.865 -1.7045 -2.0807  1.2366
  626MOL0     H86328   3.626   7.270   9.976  0.3238  1.9394 -1.3792
  626MOL0     H86329   3.719   6.963  10.008 -0.0717 -0.2775  1.8899
  626MOL0     H86330   3.700   7.068  10.141 -0.1428  3.0218 -0.5949
  626MOL0     H86331   3.844   7.238  10.045 -1.6188 -0.6159  0.4061
  626MOL0     H86332   3.920   7.086  10.072  2.2696  2.6642 -0.7808
  626MOL0     H86333   3.845   7.237   9.826  0.0387 -0.9547  0.9123
  626MOL0     H86334   3.838   7.062   9.799 -2.8290  0.8231  0.6770
  626MOL0     H86335   4.076   7.214   9.918  1.7702 -2.2789  2.2258
  626MOL0     H86336   4.054   7.040   9.897 -3.1250 -0.4095  1.0836
  626MOL0     H86337   4.007   7.349   9.655 -1.2740 -0.3813 -4.6381
  626MOL0     H86338   4.087   7.409   9.439 -0.6201 -0.3155  0.6524
  626MOL0     H86339   4.085   7.256   9.340 -1.7353  0.0198  1.6898
  626MOL0     H86340   4.346   7.279   9.339 -1.3293  0.3943 -0.4181
  626MOL0     H86341   4.283   7.434   9.294  1.7099 -1.6652 -1.8020
  626MOL0     H86342   4.273   7.488   9.561 -2.1558 -2.2862 -0.5800
  626MOL0     H86343   4.381   7.352   9.568 -0.5377  0.3274  0.4728
  626MOL0     H86344   4.527   7.476   9.394 -0.8837  0.3004 -0.5781
  626MOL0     H86345   4.405   7.607   9.398 -1.0472 -2.8499 -3.0829
  626MOL0     H86346   4.714   7.421   9.473 -0.9658 -1.4877  0.6146
  626MOL0     H86347   5.063   7.404   9.527 -0.1574  1.3815  0.3489
  626MOL0     H86348   4.934   7.380   9.414 -0.1126  0.3248 -0.5537
  626MOL0     H86349   4.924   7.278   9.559 -2.3293  1.3247 -0.2049
  626MOL0     H86350   5.310   7.331   9.649 -4.1914  0.3395 -0.5976
  626MOL0     H86351   5.536   7.337   9.725 -1.8153 -1.3005 -1.5864
  626MOL0     H86352   5.597   7.434  10.187  1.8433  0.7043  0.0518
  626MOL0     H86353   5.547   7.270  10.166  1.3554  0.7851  2.5371
  626MOL0     H86354   5.803   7.224  10.124  0.2966  0.0077 -0.3604
  626MOL0     H86355   5.833   7.392  10.144  1.0449 -1.8337 -2.4597
  626MOL0     H86356   5.743   7.347  10.391 -0.4344  0.1627  0.2025
  626MOL0     H86357   5.900   7.298  10.329  0.7039  0.7304 -1.3360
  626MOL0     H86358   5.833   7.064  10.336  0.2801 -0.2479  2.3735
  626MOL0     H86359   5.656   7.119  10.340 -0.2578 -0.9401 -0.2285
  626MOL0     H86360   5.841   7.188  10.564 -1.6478  1.7327  0.0029
  626MOL0     H86361   5.671   7.195  10.565  0.3211  1.1470 -0.1958
  626MOL0     H86362   5.846   6.958  10.590 -0.0086 -2.4625 -0.0435
  626MOL0     H86363   5.682   6.949  10.518  0.7328 -1.5528  1.9411
  626MOL0     H86364   5.578   6.975  10.716 -1.4967  3.5640  2.2567
  626MOL0     H86365   5.704   7.082  10.783  1.6921  0.1203  0.3608
  626MOL0     H86366   5.685   6.856  10.909 -1.2173 -2.5701 -0.9610
  626MOL0     H86367   5.842   6.871  10.824  0.6184  0.1018 -0.8776
  626MOL0     H86368   5.380   7.403  10.123  1.1911  2.9345  0.0643
  626MOL0     H86369   5.150   7.378  10.049  0.6683 -4.2881  0.4563
  626MOL0     H86370   4.857   7.665   9.876  0.8716 -0.6585 -0.2849
  626MOL0     H86371   4.625   7.716   9.773  0.7753 -0.6942  2.3490
  626MOL0     H86372   3.110   6.914   9.793  1.7385 -2.7403  0.3710
  626MOL0     H86373   2.968   6.718   9.831 -0.8224  0.9335 -0.3295
  626MOL0     H86374   2.713   6.499  10.391  2.2813 -1.1046 -0.9254
  626MOL0     H86375   2.518   6.348  10.442  2.5037 -1.7432  0.4967
  626MOL0     H86376   2.406   6.168  10.445  1.4780  0.2142 -1.8367
  626MOL0     H86377   2.278   6.293  10.394  2.7070  3.1506  0.1707
  626MOL0     H86378   2.294   6.009  10.305 -0.0959  3.2986 -3.3925
  626MOL0     H86379   2.154   6.110  10.302  0.1834 -0.2645 -0.2739
  626MOL0     H86380   2.252   6.049  10.580  1.0213 -1.5516 -0.4614
  626MOL0     H86381   2.107   6.130  10.524  1.5421  0.7934  2.2529
  626MOL0     H86382   2.176   5.827  10.470  1.0777  0.8310  1.7918
  626MOL0     H86383   2.037   5.919  10.399 -2.5371  3.2487  1.8079
  626MOL0     H86384   1.935   5.825  10.807 -1.1482  1.3734 -0.5365
  626MOL0     H86385   2.440   6.311  10.032 -1.0563 -1.4912  2.8821
  626MOL0     H86386   2.576   6.442   9.868  2.6679 -2.8307 -1.7580
  626MOL0     H86387   2.661   6.591   9.926  0.2041 -1.5090 -0.4513
  626MOL0     H86388   2.737   6.432   9.920 -0.0373 -0.7026 -0.6270
  627MOL0     O86389   1.339   2.258   3.325 -0.0398  0.6868  0.5700
  627MOL0     C86390   1.389   2.158   3.370 -0.6309  1.5977 -1.2730
  627MOL0     O86391   1.338   2.069   3.444  0.2859  0.6178 -0.3244
  627MOL0     C86392   1.203   2.075   3.493  0.2586 -0.6889  0.4347
  627MOL0     C86393   1.131   2.196   3.521 -0.4016  0.2301  0.2332
  627MOL0     C86394   0.994   2.199   3.534  0.6396 -0.0463 -0.4607
  627MOL0     C86395   0.924   2.081   3.526 -0.0813  0.1026  0.6348
  627MOL0     O86396   0.781   2.089   3.549  0.2930 -0.4229 -0.5831
  627MOL0     C86397   0.697   1.968   3.531 -0.3636  0.4639  0.1355
  627MOL0     C86398   0.663   1.967   3.384 -0.2565 -1.2173 -0.5151
  627MOL0     C86399   0.629   1.831   3.323  0.7107 -0.7724  0.1875
  627MOL0     C86400   0.515   1.763   3.396 -0.4990  0.9244  0.1908
  627MOL0     C86401   0.435   1.654   3.323 -0.2492 -0.8266  0.6313
  627MOL0     C86402   0.348   1.703   3.206  0.5223  0.6199 -0.2698
  627MOL0     C86403   0.280   1.576   3.164  0.5991 -0.8319 -0.2477
  627MOL0     C86404   0.130   1.564   3.204  0.8524 -0.5585 -0.6689
  627MOL0     N86405   0.073   1.440   3.155 -1.1088  1.1510  0.0425
  627MOL0     C86406   0.142   1.320   3.125 -0.4110  0.1928  0.2306
  627MOL0     C86407   0.043   1.233   3.088 -0.5697  0.7686  0.1823
  627MOL0     C86408   0.057   1.093   3.038 -1.3342 -0.4355 -0.9742
  627MOL0     C86409   0.062   0.998   3.158  0.1218 -0.0088 -0.1846
  627MOL0     C86410   0.060   0.842   3.119  0.3377 -0.7021  0.9217
  627MOL0     C86411   0.142   0.758   3.213 -0.1666 -1.8846  0.9455
  627MOL0     O86412   0.274   0.781   3.168 -0.3142  0.0305  0.5264
  627MOL0     C86413   0.374   0.748   3.253 -0.3847  0.2408  0.3822
  627MOL0     C86414   0.355   0.708   3.384  0.4089 -0.4686 -0.1187
  627MOL0     C86415   0.460   0.661   3.464  0.8159 -0.3250  0.2141
  627MOL0     C86416   0.425   0.645   3.612  0.4561  0.0012  0.2673
  627MOL0     C86417   0.591   0.646   3.409 -0.9436 -0.7564 -0.0048
  627MOL0     C86418   0.699   0.589   3.489 -0.1153 -0.1875 -0.0891
  627MOL0     O86419   0.664   0.528   3.606  0.1320 -0.7849  0.2406
  627MOL0     C86420   0.747   0.458   3.689 -0.4949 -0.1827  0.5492
  627MOL0     C86421   0.882   0.427   3.672  0.2190  0.0624  0.7327
  627MOL0     C86422   0.958   0.345   3.760 -0.2323 -0.7699  0.9379
  627MOL0     C86423   0.898   0.289   3.870 -1.7562  0.5329 -1.3647
  627MOL0     O86424   0.951   0.187   3.946  0.0594 -0.4156 -0.2210
  627MOL0     C86425   1.088   0.150   3.912  0.1911  0.1777 -0.4891
  627MOL0     C86426   1.159   0.060   4.015  0.6308  0.7207 -0.0366
  627MOL0     C86427   1.306   0.038   3.978  0.7267 -0.1818  0.4780
  627MOL0     C86428   1.309  -0.073   3.876 -0.2747 -0.0022  0.1009
  627MOL0     C86429   1.455  -0.084   3.815 -0.0616 -0.2424 -0.8055
  627MOL0     C86430   1.465  -0.204   3.722 -0.0706 -0.6572  0.3830
  627MOL0     C86431   1.586  -0.197   3.631  0.8650 -0.0915 -0.3424
  627MOL0     C86432   1.716  -0.199   3.708  0.3387 -0.1201  0.5888
  627MOL0    Cl86433   1.719  -0.304   3.857 -0.1602 -0.4973 -0.3685
  627MOL0     C86434   0.766   0.323   3.892  0.7345 -0.3089 -0.2158
  627MOL0     C86435   0.687   0.406   3.805 -0.6767  0.0806 -0.2263
  627MOL0     O86436   0.812   0.600   3.439  0.8527  0.5016 -0.1666
  627MOL0     C86437   0.607   0.685   3.273  0.1035 -0.5663 -0.0233
  627MOL0     C86438   0.505   0.731   3.196 -0.5864 -0.0520  0.4220
  627MOL0     N86439  -0.080   1.296   3.100 -0.2799  0.0655  0.0817
  627MOL0     N86440  -0.058   1.413   3.155 -0.1022 -0.1369  0.1018
  627MOL0     C86441   0.990   1.956   3.487  1.4796 -0.3580 -0.3603
  627MOL0     C86442   1.127   1.958   3.476 -0.1880  0.8019 -0.2798
  627MOL0     C86443   1.528   2.131   3.321  0.7311  0.7898  0.4773
  627MOL0     C86444   1.616   2.243   3.308  0.2535  0.4123 -0.0896
  627MOL0     C86445   1.742   2.239   3.260 -0.2625  0.1057 -0.8499
  627MOL0     C86446   1.791   2.107   3.221 -0.0416 -0.0365  0.1505
  627MOL0     O86447   1.923   2.080   3.192  0.0426 -0.5576 -0.5701
  627MOL0     C86448   2.032   2.173   3.238  0.4408  0.4249 -0.1569
  627MOL0     C86449   2.113   2.228   3.111  0.0743 -0.0241 -0.2720
  627MOL0     C86450   2.037   2.344   3.040  0.2249 -1.4671 -0.3213
  627MOL0     C86451   2.112   2.359   2.909 -0.2129  0.1160 -0.7868
  627MOL0     C86452   2.236   2.433   2.942 -0.3250  0.2921  0.1284
  627MOL0     C86453   2.341   2.491   2.967  0.5536  0.0028 -0.7475
  627MOL0     C86454   1.709   1.997   3.243  0.1965 -0.2696  0.5189
  627MOL0     C86455   1.577   2.005   3.284 -0.3121  0.2914 -0.5305
  627MOL0     C86456   1.496   1.873   3.296  0.6856 -0.1597 -0.1219
  627MOL0     H86457   1.183   2.291   3.515 -0.2385  0.0651 -1.3159
  627MOL0     H86458   0.933   2.284   3.561  1.0822 -0.1058  0.8374
  627MOL0     H86459   0.606   1.993   3.586  1.2627  0.3117  3.1025
  627MOL0     H86460   0.744   1.873   3.558  1.5856  1.4892  0.5876
  627MOL0     H86461   0.583   2.038   3.365  2.6530  2.6475  0.2750
  627MOL0     H86462   0.750   2.007   3.330  0.8891 -2.3320  0.4171
  627MOL0     H86463   0.595   1.859   3.223  2.8325  2.7401  0.3021
  627MOL0     H86464   0.719   1.770   3.317  2.4806  1.3486  2.8029
  627MOL0     H86465   0.534   1.736   3.500 -1.1597  0.7992  0.2842
  627MOL0     H86466   0.452   1.852   3.412  1.9190  2.9799 -1.0218
  627MOL0     H86467   0.385   1.596   3.401 -0.9843  3.9594  4.1427
  627MOL0     H86468   0.516   1.596   3.276  0.5450  0.7103  0.0140
  627MOL0     H86469   0.280   1.779   3.245  1.9107  0.5470  2.5221
  627MOL0     H86470   0.416   1.742   3.130  1.0526  0.2317  0.0038
  627MOL0     H86471   0.324   1.479   3.187 -0.9017 -1.5800 -0.4269
  627MOL0     H86472   0.287   1.569   3.055  0.2053  1.8071 -0.5289
  627MOL0     H86473   0.101   1.588   3.307 -2.1064 -0.1176 -1.5217
  627MOL0     H86474   0.076   1.644   3.153  0.6902  1.4392  2.4171
  627MOL0     H86475   0.250   1.308   3.126 -0.4404 -1.6909  4.6817
  627MOL0     H86476   0.148   1.080   2.979 -0.4625  3.3823 -0.7703
  627MOL0     H86477  -0.030   1.064   2.979  0.4773 -0.9565 -3.5915
  627MOL0     H86478   0.159   1.021   3.205 -0.5117 -0.1455  1.2563
  627MOL0     H86479  -0.021   1.011   3.227  0.2023 -0.4605  0.0049
  627MOL0     H86480  -0.043   0.807   3.112 -0.4120  1.6258 -2.0736
  627MOL0     H86481   0.093   0.831   3.014 -1.2506  0.8881  0.2138
  627MOL0     H86482   0.122   0.790   3.315  0.4176  1.3883  0.1546
  627MOL0     H86483   0.104   0.656   3.213 -1.3901 -1.4617  2.1733
  627MOL0     H86484   0.255   0.700   3.426  0.8108  0.5335  1.0879
  627MOL0     H86485   0.345   0.716   3.636  2.1373  0.9673  3.7451
  627MOL0     H86486   0.503   0.676   3.681  1.6000 -3.5289  0.7841
  627MOL0     H86487   0.394   0.544   3.640 -3.2983  1.3032  1.4501
  627MOL0     H86488   0.944   0.439   3.583  1.2042 -1.3000  1.1956
  627MOL0     H86489   1.058   0.311   3.739  0.0901  0.2426  0.7801
  627MOL0     H86490   1.092   0.110   3.810  0.4481  1.0640 -0.8354
  627MOL0     H86491   1.146   0.243   3.915  0.3402  0.0664  0.6845
  627MOL0     H86492   1.141   0.112   4.110 -2.9811  0.9962 -0.7218
  627MOL0     H86493   1.110  -0.037   4.026 -1.4519  1.2124 -3.4131
  627MOL0     H86494   1.363  -0.004   4.062  1.8605 -1.9719 -1.1141
  627MOL0     H86495   1.353   0.130   3.941 -0.2234 -0.2221 -0.8963
  627MOL0     H86496   1.237  -0.064   3.793 -1.4135  0.1921  1.0820
  627MOL0     H86497   1.298  -0.170   3.926  3.6561 -0.7662 -0.1801
  627MOL0     H86498   1.471   0.013   3.767  1.8176 -0.9707 -1.7502
  627MOL0     H86499   1.539  -0.089   3.886  2.2744  2.9520 -3.0507
  627MOL0     H86500   1.378  -0.208   3.656 -0.3164 -1.4103  0.7373
  627MOL0     H86501   1.462  -0.290   3.790  0.5054  1.3061  3.0668
  627MOL0     H86502   1.568  -0.107   3.571 -0.1804  0.9406  1.4080
  627MOL0     H86503   1.580  -0.288   3.572 -1.2879 -0.6200  0.5721
  627MOL0     H86504   1.743  -0.097   3.737  0.8805 -0.0270 -0.2157
  627MOL0     H86505   1.797  -0.230   3.642  1.5594  0.5756  1.7003
  627MOL0     H86506   0.717   0.274   3.975 -0.9419 -3.0863 -2.6390
  627MOL0     H86507   0.581   0.427   3.817 -0.4032  0.0874  3.4279
  627MOL0     H86508   0.696   0.678   3.213 -0.0993 -2.7176 -0.1539
  627MOL0     H86509   0.526   0.753   3.092 -0.2312  1.2041  0.7440
  627MOL0     H86510   0.946   1.858   3.470 -0.1154  0.0286  1.1591
  627MOL0     H86511   1.174   1.876   3.424 -2.0366  0.4920 -1.5738
  627MOL0     H86512   1.582   2.342   3.336  0.0748  0.0754  0.9449
  627MOL0     H86513   1.799   2.331   3.268 -1.7719  1.1415 -1.6866
  627MOL0     H86514   1.986   2.249   3.301 -4.4088 -2.5927  0.4492
  627MOL0     H86515   2.107   2.121   3.299  0.9227  1.9559  0.6104
  627MOL0     H86516   2.127   2.137   3.052 -0.7235 -0.3084 -0.0415
  627MOL0     H86517   2.213   2.264   3.137  1.1299 -1.4998 -2.1107
  627MOL0     H86518   1.935   2.312   3.016 -0.1816 -0.5244  0.1153
  627MOL0     H86519   2.037   2.439   3.095 -0.2370 -1.7523  0.1855
  627MOL0     H86520   2.047   2.424   2.850 -1.6263  0.6179  1.2059
  627MOL0     H86521   2.131   2.265   2.856 -1.2510 -0.5372 -0.0485
  627MOL0     H86522   2.438   2.534   2.982  0.9165 -1.4639  1.8697
  627MOL0     H86523   1.763   1.908   3.213 -0.3854 -0.6131  0.4823
  627MOL0     H86524   1.530   1.811   3.213  0.8575  2.5185 -2.2020
  627MOL0     H86525   1.508   1.838   3.399 -0.5985  1.5543  0.6749
  627MOL0     H86526   1.388   1.886   3.289  0.5548 -0.7436  0.6408
  628MOL0     O86527   0.315   5.526   0.657 -0.1500 -0.1709  0.3112
  628MOL0     C86528   0.328   5.535   0.781  0.4280  0.8882 -0.9084
  628MOL0     O86529   0.414   5.620   0.841 -0.3162  0.7033 -0.4675
  628MOL0     C86530   0.535   5.659   0.773 -0.2529  0.9279  0.0469
  628MOL0     C86531   0.587   5.778   0.813  1.3670 -0.0678 -0.0324
  628MOL0     C86532   0.711   5.824   0.763  0.6687 -0.1551 -0.2531
  628MOL0     C86533   0.793   5.747   0.677 -0.0921  0.4690 -0.3040
  628MOL0     O86534   0.916   5.795   0.627 -0.4409 -1.2472  0.2277
  628MOL0     C86535   0.992   5.730   0.531 -0.0486 -0.6830 -0.2005
  628MOL0     C86536   1.060   5.593   0.564  1.0967  0.1795 -1.4204
  628MOL0     C86537   1.091   5.513   0.439  1.1225  0.1352 -0.7275
  628MOL0     C86538   1.200   5.575   0.362  0.3241  0.6546 -0.4560
  628MOL0     C86539   1.267   5.467   0.269 -0.0734  0.2158  0.4145
  628MOL0     C86540   1.376   5.528   0.180 -0.1849 -0.1828 -0.3176
  628MOL0     C86541   1.446   5.424   0.092  0.6488 -0.2722 -1.2465
  628MOL0     C86542   1.510   5.471  -0.035 -0.7153  0.1639  0.2149
  628MOL0     N86543   1.651   5.501  -0.022 -0.2570  0.3628 -0.5162
  628MOL0     C86544   1.710   5.553   0.088 -0.2592 -0.1955  0.4530
  628MOL0     C86545   1.839   5.516   0.075  0.2121 -0.4902 -0.1868
  628MOL0     C86546   1.949   5.543   0.176 -0.4442  0.4182 -0.2031
  628MOL0     C86547   1.939   5.439   0.281  0.8384  0.7767  0.4140
  628MOL0     C86548   2.014   5.470   0.404 -0.3328 -0.1476 -0.7222
  628MOL0     C86549   1.956   5.395   0.526 -0.8690 -0.1133  0.5909
  628MOL0     O86550   1.848   5.473   0.578  0.2871  0.3539 -0.4417
  628MOL0     C86551   1.775   5.399   0.674  0.4514  0.1905  0.0949
  628MOL0     C86552   1.734   5.472   0.792 -0.3267  0.7125  0.6114
  628MOL0     C86553   1.644   5.420   0.879 -0.0457 -0.1974 -0.2397
  628MOL0     C86554   1.581   5.513   0.981 -0.0946  0.2852 -0.8033
  628MOL0     C86555   1.601   5.283   0.863 -0.2322  0.4919 -0.2517
  628MOL0     C86556   1.512   5.220   0.950  0.9866  0.9806 -0.6997
  628MOL0     O86557   1.549   5.119   1.017 -0.5841 -0.2034  0.1110
  628MOL0     C86558   1.463   5.023   1.052  1.2804  0.1814  0.8394
  628MOL0     C86559   1.438   4.930   0.952  0.8403 -0.6755 -0.0951
  628MOL0     C86560   1.353   4.824   0.986 -0.9513  0.2496 -1.1312
  628MOL0     C86561   1.312   4.802   1.121 -0.3340  0.5965  0.0367
  628MOL0     O86562   1.219   4.704   1.143  0.7349 -0.9668 -0.2006
  628MOL0     C86563   1.155   4.699   1.266  0.6117 -0.2664 -0.4725
  628MOL0     C86564   1.043   4.598   1.267 -0.4088  1.2526  0.1262
  628MOL0     C86565   0.922   4.641   1.184 -0.0966  0.4683 -0.4947
  628MOL0     C86566   0.812   4.721   1.272  0.2173 -0.2254  0.3068
  628MOL0     C86567   0.714   4.796   1.186  0.6026 -0.1588  0.1433
  628MOL0     C86568   0.636   4.906   1.270  0.0815 -0.4638  0.2039
  628MOL0     C86569   0.565   4.845   1.387 -0.6048 -0.5447 -0.1129
  628MOL0     C86570   0.473   4.958   1.439 -0.6153  0.6640 -0.3343
  628MOL0    Cl86571   0.354   5.018   1.323  0.0105  0.0595  0.0146
  628MOL0     C86572   1.353   4.893   1.214 -1.0887  0.0791 -0.6135
  628MOL0     C86573   1.431   5.008   1.183 -0.3884  0.0609  0.1409
  628MOL0     O86574   1.395   5.251   0.930  0.1278  0.2275  0.0919
  628MOL0     C86575   1.645   5.212   0.747 -0.3090  0.7198 -0.4456
  628MOL0     C86576   1.733   5.266   0.656 -0.6316 -0.2210 -0.0849
  628MOL0     N86577   1.854   5.441  -0.040 -0.3280 -0.6715 -0.0313
  628MOL0     N86578   1.741   5.429  -0.089 -0.0959  0.1668  0.6867
  628MOL0     C86579   0.738   5.615   0.646 -0.1616  0.1083 -0.1411
  628MOL0     C86580   0.615   5.571   0.698 -0.1850 -2.0008  0.3470
  628MOL0     C86581   0.241   5.457   0.869 -0.8378 -0.9437 -0.0402
  628MOL0     C86582   0.303   5.378   0.968 -0.4974 -0.0029 -0.0320
  628MOL0     C86583   0.239   5.289   1.054 -0.7399  0.3865 -0.5318
  628MOL0     C86584   0.101   5.288   1.046  0.0961 -0.0954 -0.1095
  628MOL0     O86585   0.017   5.195   1.098 -0.4198  0.1168  0.6394
  628MOL0     C86586   0.053   5.059   1.050  0.5029  0.7170 -0.2194
  628MOL0     C86587  -0.056   4.967   1.092  0.5855  0.5969  0.3326
  628MOL0     C86588  -0.180   4.966   1.003 -0.7233  0.5945  0.4561
  628MOL0     C86589  -0.182   4.858   0.891  0.5369  0.7499 -0.9403
  628MOL0     C86590  -0.088   4.880   0.779 -0.0110 -0.1731 -0.1516
  628MOL0     C86591   0.000   4.879   0.698 -0.0331 -0.4142  0.3279
  628MOL0     C86592   0.037   5.374   0.957  0.2291  0.1355  0.8684
  628MOL0     C86593   0.104   5.459   0.859  0.1510  0.6359 -0.4654
  628MOL0     C86594   0.023   5.542   0.760  0.2205 -0.4338  0.2545
  628MOL0     H86595   0.532   5.842   0.880 -0.3798 -2.2452  0.7335
  628MOL0     H86596   0.749   5.923   0.787  1.7169 -0.5357 -0.3014
  628MOL0     H86597   1.081   5.782   0.495  0.8345 -0.1616  2.5016
  628MOL0     H86598   0.932   5.721   0.440 -2.6261 -1.1818  1.4462
  628MOL0     H86599   1.152   5.612   0.620 -0.5412 -0.8914  1.8954
  628MOL0     H86600   1.000   5.523   0.622  0.5666  0.5320 -1.5384
  628MOL0     H86601   1.119   5.411   0.469  1.0863  0.3386  0.0267
  628MOL0     H86602   0.999   5.510   0.379 -0.0342  2.0875  0.8325
  628MOL0     H86603   1.152   5.656   0.305 -0.2249  0.3786 -0.3911
  628MOL0     H86604   1.273   5.615   0.432 -1.6583  1.4913  1.2256
  628MOL0     H86605   1.185   5.425   0.209 -0.7915  3.0103 -0.7105
  628MOL0     H86606   1.315   5.392   0.333  3.8115  1.3221 -0.9476
  628MOL0     H86607   1.330   5.606   0.120 -3.3604 -0.9344  0.9745
  628MOL0     H86608   1.442   5.589   0.242 -1.7615 -0.6877  1.9575
  628MOL0     H86609   1.371   5.351   0.061 -1.6509  2.1643 -1.7441
  628MOL0     H86610   1.516   5.378   0.162 -2.0241 -1.4199  0.8591
  628MOL0     H86611   1.502   5.408  -0.124  0.7851  3.1256 -2.2097
  628MOL0     H86612   1.467   5.565  -0.071  1.0527  1.6568  1.7806
  628MOL0     H86613   1.662   5.609   0.167  0.3895 -0.2671  0.9060
  628MOL0     H86614   1.952   5.646   0.212  2.6726  0.7465 -1.0878
  628MOL0     H86615   2.033   5.525   0.108  0.6496  2.5783  0.4865
  628MOL0     H86616   1.833   5.420   0.303  1.1915  0.4987  1.9746
  628MOL0     H86617   1.962   5.337   0.250 -0.8486  0.0020  1.5919
  628MOL0     H86618   2.115   5.430   0.386 -0.5998 -1.7122  0.9629
  628MOL0     H86619   2.019   5.576   0.431  1.2070 -1.0599  3.2734
  628MOL0     H86620   1.930   5.294   0.494  2.3833 -0.5869 -1.0548
  628MOL0     H86621   2.034   5.388   0.602  1.7640  0.3004 -1.8663
  628MOL0     H86622   1.765   5.576   0.792  0.5145  0.4688  0.7862
  628MOL0     H86623   1.641   5.517   1.072  1.8210 -2.4970 -1.8234
  628MOL0     H86624   1.482   5.475   1.006  0.5933 -1.1021 -0.0945
  628MOL0     H86625   1.563   5.616   0.946 -0.9257 -0.2219 -1.9332
  628MOL0     H86626   1.472   4.947   0.851  0.6410 -0.6240 -0.1546
  628MOL0     H86627   1.302   4.782   0.900 -2.1118  0.4805 -0.5897
  628MOL0     H86628   1.230   4.666   1.339  1.9316 -1.1807 -2.1673
  628MOL0     H86629   1.116   4.798   1.294 -0.6966 -1.1351  0.8852
  628MOL0     H86630   1.091   4.503   1.243  1.2094  2.5114 -2.0071
  628MOL0     H86631   1.015   4.596   1.373 -0.8331  0.0913  0.0046
  628MOL0     H86632   0.869   4.556   1.141 -0.5412  0.5241 -0.0727
  628MOL0     H86633   0.961   4.703   1.103  0.3676  0.6073 -0.1692
  628MOL0     H86634   0.870   4.785   1.339  2.9556 -1.1707 -1.0274
  628MOL0     H86635   0.761   4.645   1.332  0.7669 -0.2426  0.7629
  628MOL0     H86636   0.762   4.834   1.096 -2.1361  0.6388 -1.0884
  628MOL0     H86637   0.638   4.724   1.155  0.8368 -1.0920  1.6200
  628MOL0     H86638   0.571   4.966   1.206  2.6862  2.8917  0.3951
  628MOL0     H86639   0.712   4.977   1.305  0.5640  0.1336 -1.8598
  628MOL0     H86640   0.646   4.830   1.459 -0.5078 -0.3631 -0.1841
  628MOL0     H86641   0.514   4.754   1.353  0.8320 -1.3296 -0.2354
  628MOL0     H86642   0.532   5.044   1.473 -0.0820  0.4322 -0.6405
  628MOL0     H86643   0.429   4.919   1.530 -0.0383  2.4393  0.7712
  628MOL0     H86644   1.328   4.874   1.318  0.8259 -0.8810 -0.2840
  628MOL0     H86645   1.457   5.088   1.252  0.7901 -0.6779  0.5953
  628MOL0     H86646   1.615   5.109   0.729  2.5356 -0.0852 -1.0526
  628MOL0     H86647   1.740   5.207   0.565 -2.6578 -2.3177  1.0066
  628MOL0     H86648   0.797   5.566   0.569  2.3449  4.3362 -1.2360
  628MOL0     H86649   0.570   5.477   0.667  0.1564 -0.6462 -5.4602
  628MOL0     H86650   0.412   5.374   0.965 -0.3676  1.2679  1.6047
  628MOL0     H86651   0.293   5.220   1.118 -1.8919  1.4140  1.6571
  628MOL0     H86652   0.081   5.062   0.944  0.3558 -0.0104 -0.2838
  628MOL0     H86653   0.145   5.041   1.107 -0.2371 -1.0657  0.5007
  628MOL0     H86654  -0.082   4.998   1.194  0.9434  1.6070  0.1327
  628MOL0     H86655  -0.012   4.867   1.088 -1.7574 -0.4630 -2.5884
  628MOL0     H86656  -0.275   4.946   1.054 -0.8116 -3.8200 -0.9741
  628MOL0     H86657  -0.194   5.066   0.961 -2.2719  0.2234  0.0316
  628MOL0     H86658  -0.278   4.836   0.843  0.7494  0.5955 -1.2988
  628MOL0     H86659  -0.154   4.765   0.943 -1.5035  0.8750  0.5317
  628MOL0     H86660   0.077   4.887   0.624  1.1971  0.9685  1.6745
  628MOL0     H86661  -0.071   5.370   0.965  0.2687 -1.6415  0.9982
  628MOL0     H86662  -0.078   5.568   0.793 -0.4925 -1.8177 -0.7400
  628MOL0     H86663   0.079   5.630   0.725 -1.1035  0.7034  0.9019
  628MOL0     H86664   0.005   5.477   0.674  2.7754 -1.7637  0.6245
  629MOL0     O86665  10.523   5.616   3.833 -0.3529 -0.0460  0.2895
  629MOL0     C86666  10.478   5.726   3.798 -0.2246  0.5105 -0.4544
  629MOL0     O86667  10.545   5.841   3.801 -0.0416  0.1273 -0.3121
  629MOL0     C86668  10.662   5.848   3.874 -0.6566 -0.0192  0.0085
  629MOL0     C86669  10.679   5.805   4.008 -0.4017  0.4241 -0.3280
  629MOL0     C86670  10.798   5.824   4.083  0.1584 -0.3637  0.0420
  629MOL0     C86671  10.913   5.880   4.026  0.1374 -0.0599  0.6779
  629MOL0     O86672  11.026   5.910   4.101  0.0357  0.1768 -0.6636
  629MOL0     C86673  11.022   5.889   4.245  0.5587  0.0328 -0.2502
  629MOL0     C86674  11.155   5.917   4.305 -0.1719 -0.0572 -0.5537
  629MOL0     C86675  11.256   5.801   4.280 -0.2201  0.3769 -0.5659
  629MOL0     C86676  11.404   5.826   4.325  0.1275 -0.1370  0.0160
  629MOL0     C86677  11.490   5.702   4.305  0.7970 -0.2326 -0.4146
  629MOL0     C86678  11.634   5.734   4.362  0.7072  0.9650 -0.3100
  629MOL0     C86679  11.738   5.622   4.371  0.6344  0.9516 -0.2996
  629MOL0     C86680  11.864   5.661   4.445 -0.2625  0.5441 -0.1616
  629MOL0     N86681  11.963   5.554   4.436 -0.6803  0.2396 -0.2021
  629MOL0     C86682  11.965   5.418   4.482  0.4735  0.1702  0.0639
  629MOL0     C86683  12.087   5.366   4.449  0.3735 -0.5990 -0.2677
  629MOL0     C86684  12.128   5.228   4.462 -0.6175  1.2807 -0.1878
  629MOL0     C86685  12.118   5.156   4.332 -0.2152  0.1540  0.1215
  629MOL0     C86686  12.208   5.027   4.334 -0.0298  0.4655  0.8645
  629MOL0     C86687  12.224   4.968   4.196  0.6621 -0.1042 -0.3011
  629MOL0     O86688  12.292   5.048   4.109  0.4773  0.3309  0.0906
  629MOL0     C86689  12.432   5.063   4.108 -0.3615  0.2827  0.3247
  629MOL0     C86690  12.479   5.163   4.022 -0.2629  0.1027 -0.9738
  629MOL0     C86691  12.614   5.185   3.995  0.0431  0.6568 -0.4128
  629MOL0     C86692  12.655   5.301   3.900  0.8519  0.4760 -0.4615
  629MOL0     C86693  12.709   5.088   4.058 -0.0212  0.2987  0.8111
  629MOL0     C86694  12.852   5.085   4.020 -0.1470  0.1226 -1.1389
  629MOL0     O86695  12.932   5.020   4.107 -0.1805  0.6424  0.0381
  629MOL0     C86696  13.068   5.012   4.092  0.3276  0.2892  0.4008
  629MOL0     C86697  13.147   5.073   4.187 -0.1152  0.1074 -0.8955
  629MOL0     C86698  13.292   5.064   4.185  0.4417  0.7908 -0.2442
  629MOL0     C86699  13.360   4.985   4.084  0.0165  0.0540  0.3879
  629MOL0     O86700  13.496   4.969   4.098  0.4456  0.1078  0.6881
  629MOL0     C86701  13.575   4.901   4.003  0.0249 -0.5591  0.2985
  629MOL0     C86702  13.722   4.917   4.048  0.1282  0.2866 -0.3671
  629MOL0     C86703  13.753   4.862   4.186  0.9082 -0.1988 -0.4192
  629MOL0     C86704  13.906   4.862   4.206  0.3368 -0.5543  0.6142
  629MOL0     C86705  13.952   4.839   4.355  0.0395 -0.0452 -0.6320
  629MOL0     C86706  14.089   4.896   4.390  0.0630  0.5272  0.3519
  629MOL0     C86707  14.125   4.873   4.538 -0.4733 -0.1362  0.3110
  629MOL0     C86708  14.205   4.990   4.606 -0.2567  0.6371  0.5153
  629MOL0    Cl86709  14.201   4.962   4.781  0.6154 -0.0573 -0.5187
  629MOL0     C86710  13.274   4.926   3.980 -0.3403 -0.1995  0.0983
  629MOL0     C86711  13.137   4.951   3.980 -0.2593  0.0789 -0.2179
  629MOL0     O86712  12.886   5.121   3.910 -0.0250  0.0142  0.1355
  629MOL0     C86713  12.658   4.993   4.144  0.9578  0.4280 -0.5260
  629MOL0     C86714  12.524   4.976   4.167  0.4113  0.5812  0.4081
  629MOL0     N86715  12.152   5.468   4.384 -0.9987  0.1733 -0.3879
  629MOL0     N86716  12.087   5.582   4.384  0.4040 -0.5622 -0.4253
  629MOL0     C86717  10.899   5.920   3.890 -0.6554  0.3889 -0.5359
  629MOL0     C86718  10.780   5.912   3.817  0.0043 -0.3655  0.5415
  629MOL0     C86719  10.346   5.738   3.728 -0.5408  0.1094  0.2552
  629MOL0     C86720  10.328   5.845   3.639 -0.0884  0.0345 -0.1580
  629MOL0     C86721  10.203   5.875   3.590  0.9576 -0.2981 -0.0210
  629MOL0     C86722  10.084   5.816   3.636 -0.2316 -0.1290  0.1513
  629MOL0     O86723   9.966   5.859   3.587  0.1384 -0.5867  0.1230
  629MOL0     C86724   9.843   5.804   3.636  0.9408 -0.2750 -0.6968
  629MOL0     C86725   9.741   5.904   3.609  0.7970 -0.2017  1.0189
  629MOL0     C86726   9.602   5.860   3.659 -0.2804  0.7299 -0.4092
  629MOL0     C86727   9.482   5.920   3.588 -0.1811 -0.8774  0.7403
  629MOL0     C86728   9.445   6.047   3.651 -0.2676  0.4304 -0.3358
  629MOL0     C86729   9.403   6.142   3.719 -0.3619  1.1409 -0.0403
  629MOL0     C86730  10.101   5.701   3.717  0.1415  0.1794  0.3391
  629MOL0     C86731  10.228   5.666   3.768 -0.1163  0.6256 -1.0362
  629MOL0     C86732  10.229   5.542   3.856  0.3905 -0.0700 -0.0464
  629MOL0     H86733  10.596   5.766   4.065 -1.7196  3.9895  0.4719
  629MOL0     H86734  10.802   5.782   4.184  0.7068  0.8779  0.5602
  629MOL0     H86735  11.003   5.789   4.284 -2.8478  1.4626  2.2840
  629MOL0     H86736  10.947   5.958   4.285  1.0592  1.3403 -1.4863
  629MOL0     H86737  11.187   6.014   4.266  3.3857  0.1765  2.3749
  629MOL0     H86738  11.154   5.923   4.414  0.6818  1.7095 -0.6073
  629MOL0     H86739  11.214   5.712   4.329 -0.9839  1.1626  0.2378
  629MOL0     H86740  11.251   5.766   4.177 -0.5567 -2.3521  0.2690
  629MOL0     H86741  11.441   5.913   4.271 -1.6348  1.7545  1.6701
  629MOL0     H86742  11.397   5.859   4.429 -0.8551  1.6890 -0.6007
  629MOL0     H86743  11.496   5.676   4.199  1.1869 -1.3481 -0.1332
  629MOL0     H86744  11.438   5.621   4.357 -1.0950  0.9672 -0.3619
  629MOL0     H86745  11.684   5.811   4.303 -1.5071  1.7481 -1.2808
  629MOL0     H86746  11.616   5.773   4.463  0.5190  0.7972 -0.2766
  629MOL0     H86747  11.750   5.574   4.273  1.7626  1.1416 -0.2683
  629MOL0     H86748  11.690   5.545   4.432  0.1980 -0.8592 -2.7695
  629MOL0     H86749  11.901   5.754   4.400 -0.1379  0.3102 -0.5397
  629MOL0     H86750  11.845   5.687   4.550  0.3391  2.6199 -0.5156
  629MOL0     H86751  11.880   5.363   4.521  0.8778 -0.2398  0.3773
  629MOL0     H86752  12.067   5.183   4.540  0.6455 -1.0137 -0.4554
  629MOL0     H86753  12.232   5.224   4.495  0.0576  0.5851 -2.2251
  629MOL0     H86754  12.014   5.136   4.307 -0.7197  2.4656  0.1152
  629MOL0     H86755  12.158   5.220   4.252  0.9704  1.0289  1.3768
  629MOL0     H86756  12.304   5.057   4.377 -0.8803  0.8265  2.5992
  629MOL0     H86757  12.166   4.951   4.399 -1.9718 -0.2244 -1.0904
  629MOL0     H86758  12.270   4.869   4.203  1.7831  0.4783  0.8935
  629MOL0     H86759  12.120   4.957   4.164  0.0687  3.9515 -0.3558
  629MOL0     H86760  12.407   5.227   3.973  0.6418  0.5375 -1.7677
  629MOL0     H86761  12.756   5.335   3.922  1.9664 -1.9758 -1.4730
  629MOL0     H86762  12.582   5.382   3.891 -0.2461 -0.5471 -1.2443
  629MOL0     H86763  12.665   5.267   3.796 -1.0463  2.0877 -1.2342
  629MOL0     H86764  13.101   5.135   4.263  0.9419  1.0752 -1.0074
  629MOL0     H86765  13.334   5.115   4.272 -4.2311  0.6837  2.3989
  629MOL0     H86766  13.551   4.794   3.993  2.6679 -1.1793 -0.1088
  629MOL0     H86767  13.557   4.944   3.904  1.3427 -3.0529 -1.1110
  629MOL0     H86768  13.790   4.869   3.977 -0.2464 -2.8154  1.1667
  629MOL0     H86769  13.756   5.020   4.051  0.3340  0.2049  0.5124
  629MOL0     H86770  13.720   4.759   4.204 -0.1241  0.1365 -0.2992
  629MOL0     H86771  13.696   4.919   4.260 -3.6683 -3.2509 -1.1543
  629MOL0     H86772  13.952   4.957   4.180 -1.4129  1.7793  4.8801
  629MOL0     H86773  13.946   4.788   4.136 -0.8088  0.0220 -0.6869
  629MOL0     H86774  13.874   4.875   4.423  0.8676 -0.5759  0.6320
  629MOL0     H86775  13.952   4.731   4.374  0.0489  0.0666  0.0105
  629MOL0     H86776  14.079   5.000   4.360 -0.9605 -0.5807 -3.8805
  629MOL0     H86777  14.164   4.848   4.327 -2.6366  2.1450 -4.6418
  629MOL0     H86778  14.190   4.786   4.548  0.7903  0.7781  0.2230
  629MOL0     H86779  14.037   4.857   4.602 -1.8602  0.3295 -1.4177
  629MOL0     H86780  14.157   5.086   4.585 -2.1116 -0.6510 -1.6768
  629MOL0     H86781  14.307   4.991   4.566 -0.4754  2.5341 -0.0929
  629MOL0     H86782  13.329   4.882   3.898 -3.2072 -0.3015 -1.9282
  629MOL0     H86783  13.081   4.917   3.893  0.0280  2.7893 -1.5634
  629MOL0     H86784  12.721   4.929   4.206  0.5755  1.0637  0.5502
  629MOL0     H86785  12.498   4.901   4.240  0.6265 -0.7772 -0.8634
  629MOL0     H86786  10.986   5.969   3.849  1.3270  0.3233  3.1821
  629MOL0     H86787  10.786   5.939   3.712  1.2201 -0.2036  0.6352
  629MOL0     H86788  10.416   5.907   3.622  2.0364 -1.6280  3.4802
  629MOL0     H86789  10.182   5.961   3.527 -1.4998  0.3707  1.5601
  629MOL0     H86790   9.827   5.711   3.580  3.9270 -0.1819 -1.8975
  629MOL0     H86791   9.851   5.795   3.745 -1.7720  2.2562 -0.1711
  629MOL0     H86792   9.743   5.916   3.500 -0.7318 -0.8418  0.8990
  629MOL0     H86793   9.766   5.997   3.662 -0.6401  1.1050 -0.4801
  629MOL0     H86794   9.591   5.755   3.630  0.9096  1.0993 -2.4102
  629MOL0     H86795   9.595   5.863   3.769 -2.8113  0.3756 -0.5005
  629MOL0     H86796   9.402   5.848   3.609  0.3307 -2.2133 -1.5026
  629MOL0     H86797   9.488   5.928   3.479 -3.6132  0.6001  0.5350
  629MOL0     H86798   9.355   6.227   3.764 -3.7502 -1.3539  1.4978
  629MOL0     H86799  10.016   5.636   3.736 -0.4283  0.1858 -1.8540
  629MOL0     H86800  10.312   5.538   3.927 -1.3265 -0.9546  2.0420
  629MOL0     H86801  10.136   5.544   3.915  1.0459  4.9517  1.3583
  629MOL0     H86802  10.230   5.456   3.789 -0.5751 -0.0226 -0.1430
  630MOL0     O86803  11.278   3.958   8.748  0.5564 -0.3212  0.1107
  630MOL0     C86804  11.348   3.914   8.839 -0.5493 -0.6265  0.2214
  630MOL0     O86805  11.438   3.988   8.915 -0.3383  0.2385  0.4799
  630MOL0     C86806  11.474   4.110   8.872  0.1490  1.2693 -0.3945
  630MOL0     C86807  11.531   4.132   8.746  0.7098 -0.6780  0.1802
  630MOL0     C86808  11.600   4.248   8.716 -0.4371  0.0949 -0.0955
  630MOL0     C86809  11.617   4.344   8.816 -0.5433  0.1694 -0.1286
  630MOL0     O86810  11.674   4.470   8.796 -0.1251 -0.1224  0.2148
  630MOL0     C86811  11.769   4.503   8.694  0.2756 -0.5428 -0.0800
  630MOL0     C86812  11.818   4.647   8.713  0.2383  0.0466 -0.8714
  630MOL0     C86813  11.934   4.668   8.615  0.2507 -0.5115  1.6191
  630MOL0     C86814  11.983   4.820   8.620  1.3145  0.5148 -0.2190
  630MOL0     C86815  12.116   4.850   8.562 -0.2453 -0.1139  0.0103
  630MOL0     C86816  12.132   4.789   8.412  0.2387 -0.5345 -0.1395
  630MOL0     C86817  12.270   4.789   8.351 -0.5475 -0.1421 -0.4206
  630MOL0     C86818  12.300   4.684   8.247  0.5964  1.0079  0.5964
  630MOL0     N86819  12.418   4.711   8.168  0.3107 -0.5053  0.6752
  630MOL0     C86820  12.539   4.759   8.213 -0.8751  0.0872 -0.2172
  630MOL0     C86821  12.631   4.747   8.114  0.1402  0.1805  0.7004
  630MOL0     C86822  12.774   4.781   8.131 -0.2677 -0.1574 -0.0162
  630MOL0     C86823  12.866   4.661   8.120  1.1751 -0.2878  0.3167
  630MOL0     C86824  12.826   4.535   8.194 -0.5812  0.1080 -0.2838
  630MOL0     C86825  12.952   4.478   8.269 -0.3739 -0.0736  0.1487
  630MOL0     O86826  13.050   4.421   8.177 -0.1883 -0.1769  0.6054
  630MOL0     C86827  13.172   4.486   8.189 -0.3085  0.4410  0.6320
  630MOL0     C86828  13.261   4.463   8.296  0.1541 -0.0014 -0.2200
  630MOL0     C86829  13.376   4.540   8.309 -0.3318 -0.2906 -0.1617
  630MOL0     C86830  13.461   4.521   8.436  1.5612 -0.5908  0.4438
  630MOL0     C86831  13.413   4.639   8.216  0.4272 -0.1971  0.0326
  630MOL0     C86832  13.548   4.694   8.201 -0.2376  0.8144  0.5601
  630MOL0     O86833  13.559   4.818   8.137  0.4490  0.0935  0.2551
  630MOL0     C86834  13.689   4.856   8.135  0.0575  0.1277 -0.7339
  630MOL0     C86835  13.757   4.862   8.013 -0.8502 -0.5288  1.2808
  630MOL0     C86836  13.891   4.902   8.006 -0.1053 -0.3630 -0.3497
  630MOL0     C86837  13.949   4.950   8.132  0.8864 -0.3702  0.7875
  630MOL0     O86838  14.074   5.003   8.115 -0.2050 -0.2071 -0.5605
  630MOL0     C86839  14.132   5.100   8.208 -0.1613  0.3775 -0.0834
  630MOL0     C86840  14.272   5.161   8.161  0.4411  0.1900 -0.4938
  630MOL0     C86841  14.386   5.066   8.172  0.0381  0.4837  0.3195
  630MOL0     C86842  14.512   5.103   8.087 -0.3539  0.5262 -0.3209
  630MOL0     C86843  14.619   5.200   8.153  0.9490 -0.1599  0.2854
  630MOL0     C86844  14.738   5.124   8.218 -1.0199  0.1155 -0.2906
  630MOL0     C86845  14.835   5.222   8.291 -0.7997  0.4455  0.1980
  630MOL0     C86846  14.916   5.299   8.200 -0.8574 -0.1827  0.2663
  630MOL0    Cl86847  15.007   5.427   8.285 -0.1591 -0.2620 -0.0000
  630MOL0     C86848  13.879   4.949   8.250 -0.4628 -1.3429 -0.2289
  630MOL0     C86849  13.744   4.903   8.254 -0.0114  0.6388  0.1145
  630MOL0     O86850  13.649   4.629   8.252  0.3541  0.3094  0.0021
  630MOL0     C86851  13.315   4.668   8.116 -0.1953 -1.0885 -0.2459
  630MOL0     C86852  13.202   4.579   8.100 -0.1225 -0.3616  0.3529
  630MOL0     N86853  12.558   4.708   7.999 -0.3667 -0.0011 -0.7209
  630MOL0     N86854  12.431   4.678   8.035 -0.4405 -0.2058 -0.3697
  630MOL0     C86855  11.551   4.333   8.938  1.0412  0.4377  0.5671
  630MOL0     C86856  11.479   4.214   8.965  0.1320 -0.0729  0.1083
  630MOL0     C86857  11.354   3.763   8.852 -0.7120 -0.1633 -0.9771
  630MOL0     C86858  11.470   3.706   8.920  0.2342 -0.7626 -0.2638
  630MOL0     C86859  11.486   3.565   8.924 -0.3966  0.0086 -0.3601
  630MOL0     C86860  11.393   3.473   8.867 -0.0959 -0.0354 -0.0330
  630MOL0     O86861  11.399   3.333   8.862 -0.0504 -1.3757 -0.0307
  630MOL0     C86862  11.516   3.267   8.914 -1.1321 -0.9517 -0.9543
  630MOL0     C86863  11.510   3.242   9.060 -0.7417 -0.3472 -0.6904
  630MOL0     C86864  11.410   3.130   9.088 -0.0746  0.4704  1.2282
  630MOL0     C86865  11.395   3.085   9.238 -0.2112  0.1642  0.1997
  630MOL0     C86866  11.367   3.194   9.333 -0.2590  0.3461 -0.0280
  630MOL0     C86867  11.354   3.296   9.402 -0.0035 -0.0173  0.3424
  630MOL0     C86868  11.282   3.531   8.804 -0.5982  0.3987 -0.4203
  630MOL0     C86869  11.258   3.670   8.802 -0.3643 -0.6903  0.0272
  630MOL0     C86870  11.131   3.724   8.723 -0.1854 -0.1261 -0.5391
  630MOL0     H86871  11.526   4.059   8.665 -0.6552  0.6999 -1.0512
  630MOL0     H86872  11.647   4.256   8.619  1.2574  1.3877  0.7839
  630MOL0     H86873  11.720   4.503   8.596 -4.2674  3.7141  1.7531
  630MOL0     H86874  11.856   4.438   8.683  0.7555  0.1054 -0.2335
  630MOL0     H86875  11.733   4.709   8.682  0.1952 -0.7026 -2.3487
  630MOL0     H86876  11.858   4.654   8.814 -0.9450 -1.4676 -0.2595
  630MOL0     H86877  12.015   4.597   8.632  2.7577  2.0245  1.0514
  630MOL0     H86878  11.894   4.651   8.515  0.7207  0.9293  1.1599
  630MOL0     H86879  11.918   4.878   8.553  2.8479  2.9682  0.3206
  630MOL0     H86880  11.968   4.856   8.722  0.6731 -0.4761  0.0592
  630MOL0     H86881  12.191   4.797   8.621 -1.9177 -1.5901  0.9150
  630MOL0     H86882  12.142   4.956   8.561  2.5755 -0.7337 -1.1933
  630MOL0     H86883  12.108   4.682   8.414 -0.3784 -0.3979  0.4870
  630MOL0     H86884  12.054   4.836   8.351 -1.3190 -2.8831 -0.0955
  630MOL0     H86885  12.342   4.785   8.433 -1.3657 -0.3625  0.3024
  630MOL0     H86886  12.272   4.886   8.300  0.2541 -0.2890 -0.6738
  630MOL0     H86887  12.299   4.582   8.286 -1.0459  1.2458  1.2460
  630MOL0     H86888  12.215   4.693   8.180  0.3998 -0.7886  0.5399
  630MOL0     H86889  12.549   4.792   8.315  3.3705 -0.9311 -0.1025
  630MOL0     H86890  12.795   4.836   8.224 -0.7080  1.4707 -0.8332
  630MOL0     H86891  12.810   4.842   8.048  0.2289  1.3280  1.2320
  630MOL0     H86892  12.863   4.638   8.013 -2.3280  0.2101  0.2051
  630MOL0     H86893  12.965   4.697   8.150  1.4368 -1.8981  1.4782
  630MOL0     H86894  12.755   4.570   8.269  2.3179  3.6004  1.0953
  630MOL0     H86895  12.784   4.462   8.124 -0.8435  1.6002 -1.7532
  630MOL0     H86896  12.986   4.553   8.341 -2.5059 -0.9769  2.2026
  630MOL0     H86897  12.915   4.393   8.327 -0.6861 -0.8170 -1.0967
  630MOL0     H86898  13.233   4.392   8.373  0.8627  0.6708  0.6784
  630MOL0     H86899  13.508   4.617   8.457 -0.7448  0.3472  1.6835
  630MOL0     H86900  13.533   4.439   8.436  0.9601 -1.2400  3.6196
  630MOL0     H86901  13.390   4.516   8.519 -1.0604  1.9686 -1.4369
  630MOL0     H86902  13.705   4.836   7.921 -0.8307  0.9054  0.8502
  630MOL0     H86903  13.957   4.896   7.920 -1.2555  1.3298 -1.4089
  630MOL0     H86904  14.059   5.178   8.234 -1.7603 -1.6489  2.0681
  630MOL0     H86905  14.153   5.064   8.310 -0.9895  1.7710  0.6115
  630MOL0     H86906  14.262   5.202   8.060  0.5202  1.5611  0.0319
  630MOL0     H86907  14.294   5.246   8.226  1.6633 -0.5254  0.0522
  630MOL0     H86908  14.353   4.968   8.134  0.9318  1.1736 -2.5105
  630MOL0     H86909  14.405   5.034   8.275 -1.3923  0.2196  0.5137
  630MOL0     H86910  14.486   5.140   7.987 -0.0287 -0.9896 -1.0039
  630MOL0     H86911  14.561   5.011   8.053  1.3404  0.1975  2.7245
  630MOL0     H86912  14.655   5.269   8.077  0.5664  1.0787  1.2073
  630MOL0     H86913  14.568   5.260   8.229 -1.7019  0.1973 -1.6392
  630MOL0     H86914  14.803   5.064   8.153 -1.4291 -1.4323  0.6617
  630MOL0     H86915  14.693   5.053   8.288 -3.3912 -0.4275 -2.2192
  630MOL0     H86916  14.903   5.159   8.349  0.0644  0.5769 -0.6538
  630MOL0     H86917  14.770   5.278   8.360 -2.4761 -1.1536 -0.0179
  630MOL0     H86918  14.859   5.341   8.116 -0.1884  1.2510  0.4891
  630MOL0     H86919  14.985   5.229   8.152 -4.1132 -1.4103 -3.1365
  630MOL0     H86920  13.926   4.990   8.339  0.3806  3.0409 -2.4437
  630MOL0     H86921  13.680   4.908   8.342 -0.4873  1.5326 -0.2702
  630MOL0     H86922  13.317   4.751   8.046 -2.3854  0.5915  1.5443
  630MOL0     H86923  13.124   4.600   8.027 -0.5336  1.2029  1.1936
  630MOL0     H86924  11.558   4.411   9.014  1.9100 -0.5535  1.5519
  630MOL0     H86925  11.435   4.188   9.061  2.2258 -0.8329  0.9206
  630MOL0     H86926  11.544   3.772   8.965 -0.1250  0.5975 -1.5644
  630MOL0     H86927  11.573   3.530   8.979 -0.0107  0.4101 -0.7065
  630MOL0     H86928  11.530   3.174   8.859 -1.1180  0.2353 -3.0458
  630MOL0     H86929  11.608   3.322   8.893 -1.8721  0.7233 -0.0243
  630MOL0     H86930  11.489   3.335   9.114  2.4451 -0.5703  1.1853
  630MOL0     H86931  11.611   3.206   9.082  0.8861  2.6551 -2.5482
  630MOL0     H86932  11.312   3.154   9.045 -0.0532  1.5108  1.7303
  630MOL0     H86933  11.446   3.037   9.042 -1.6675  0.3214  0.2156
  630MOL0     H86934  11.483   3.032   9.274 -0.9651 -1.1340  0.2193
  630MOL0     H86935  11.313   3.012   9.236  2.3446 -3.0356  2.1660
  630MOL0     H86936  11.329   3.380   9.464  0.8837 -0.2381  1.0167
  630MOL0     H86937  11.204   3.469   8.761 -0.4718  1.1536 -1.8067
  630MOL0     H86938  11.164   3.744   8.621 -0.1486  0.3465 -0.4394
  630MOL0     H86939  11.061   3.640   8.726  1.7112 -1.7904 -0.6609
  630MOL0     H86940  11.089   3.814   8.770  1.7987  0.4641  0.1977
  631MOL0     O86941  10.597   3.021   6.408  0.0074 -1.2897  0.0853
  631MOL0     C86942  10.636   2.960   6.305  0.0107 -0.9771  0.2241
  631MOL0     O86943  10.732   3.016   6.225  0.4253 -0.3577 -0.8381
  631MOL0     C86944  10.838   3.086   6.281  0.3196  0.5270  0.7715
  631MOL0     C86945  10.944   3.031   6.349 -0.1507  0.1794  0.4308
  631MOL0     C86946  11.051   3.114   6.402 -0.8052 -0.1208 -0.1783
  631MOL0     C86947  11.048   3.258   6.380 -0.5517 -0.0510  0.6158
  631MOL0     O86948  11.150   3.325   6.447 -0.3856 -0.3142  0.9856
  631MOL0     C86949  11.125   3.453   6.504  0.0215  0.7005 -0.7063
  631MOL0     C86950  11.258   3.528   6.508  0.4927  0.3750 -0.0386
  631MOL0     C86951  11.361   3.473   6.609  0.6957 -0.2572 -0.4753
  631MOL0     C86952  11.493   3.552   6.627  0.0975  0.3538  0.1964
  631MOL0     C86953  11.592   3.487   6.729 -0.8947  0.2100  0.1854
  631MOL0     C86954  11.535   3.453   6.872  0.0820 -0.2374 -0.3884
  631MOL0     C86955  11.646   3.416   6.965 -0.4918  0.2360  0.1743
  631MOL0     C86956  11.593   3.345   7.092 -0.9518  0.0528  0.3268
  631MOL0     N86957  11.459   3.364   7.151 -0.5339  0.0188  0.6055
  631MOL0     C86958  11.427   3.462   7.239 -0.2328  0.3820  0.3606
  631MOL0     C86959  11.294   3.449   7.252  0.4034  0.1713  0.1090
  631MOL0     C86960  11.199   3.527   7.342  0.2327 -0.1970  0.6200
  631MOL0     C86961  11.228   3.530   7.485  0.2769 -0.3053 -0.0590
  631MOL0     C86962  11.168   3.414   7.569 -1.0837 -0.7342 -0.4736
  631MOL0     C86963  11.199   3.459   7.720  0.5627 -0.0175 -0.2309
  631MOL0     O86964  11.120   3.381   7.812  0.0664  0.7191 -0.0625
  631MOL0     C86965  11.119   3.409   7.947  0.3981 -0.1182 -0.0913
  631MOL0     C86966  11.087   3.303   8.040  0.1263 -0.7725  0.9327
  631MOL0     C86967  11.058   3.323   8.177 -0.3660  0.1751  0.7942
  631MOL0     C86968  11.024   3.198   8.255 -0.2654 -0.1367 -0.0891
  631MOL0     C86969  11.070   3.460   8.218 -0.2740  0.5241 -0.6927
  631MOL0     C86970  11.025   3.494   8.362 -0.9298 -0.5919  0.1488
  631MOL0     O86971  10.930   3.415   8.434 -0.3953 -0.2921  0.5478
  631MOL0     C86972  10.883   3.466   8.555  0.5888  0.2873  1.4433
  631MOL0     C86973  10.810   3.584   8.555  0.1929  0.3394  0.1762
  631MOL0     C86974  10.764   3.639   8.673  0.7392  0.7118 -0.3494
  631MOL0     C86975  10.771   3.567   8.794 -0.3720  0.4612  1.3126
  631MOL0     O86976  10.713   3.610   8.916 -0.3225 -0.4509  0.2971
  631MOL0     C86977  10.596   3.536   8.958 -0.1848 -0.2431 -0.6761
  631MOL0     C86978  10.635   3.450   9.079  0.1692 -0.0202 -0.2064
  631MOL0     C86979  10.525   3.440   9.184  0.5563  0.4605 -0.3191
  631MOL0     C86980  10.396   3.378   9.138  0.0915  0.8789  0.0239
  631MOL0     C86981  10.330   3.306   9.260 -0.3566  0.3440  1.2969
  631MOL0     C86982  10.187   3.280   9.215  0.6308  0.9477 -0.1357
  631MOL0     C86983  10.115   3.181   9.306  0.5808 -0.7343 -0.2682
  631MOL0     C86984   9.963   3.193   9.291 -0.9146 -0.0339 -0.0244
  631MOL0    Cl86985   9.901   3.148   9.134  0.2132  0.1798  0.5101
  631MOL0     C86986  10.838   3.446   8.790 -0.2240  0.1321 -0.2294
  631MOL0     C86987  10.895   3.385   8.672 -0.7681  0.1481 -0.0899
  631MOL0     O86988  11.071   3.598   8.409 -0.4344  0.8528  0.2990
  631MOL0     C86989  11.104   3.567   8.134  0.5324 -0.2597  0.4608
  631MOL0     C86990  11.128   3.544   7.994 -0.2594  0.7204 -0.8338
  631MOL0     N86991  11.249   3.347   7.178 -0.0188  0.1358 -0.1402
  631MOL0     N86992  11.346   3.290   7.115 -0.6729 -0.5384 -0.2791
  631MOL0     C86993  10.935   3.310   6.312  1.2847  0.0697 -0.6440
  631MOL0     C86994  10.838   3.223   6.252  0.0040  0.4189 -0.0318
  631MOL0     C86995  10.568   2.841   6.258  0.5825  0.2776 -0.5352
  631MOL0     C86996  10.612   2.788   6.136  0.4845  0.1385 -0.5324
  631MOL0     C86997  10.554   2.679   6.077 -0.9067 -0.9261  0.8618
  631MOL0     C86998  10.438   2.626   6.124  0.1651 -0.3668 -0.0097
  631MOL0     O86999  10.387   2.523   6.061 -0.4354 -0.0699 -0.7822
  631MOL0     C87000  10.267   2.557   5.996  0.4313  0.1059 -0.1866
  631MOL0     C87001  10.305   2.579   5.851  0.0106 -0.4053 -0.4309
  631MOL0     C87002  10.358   2.437   5.794  0.5132 -0.6680  0.0384
  631MOL0     C87003  10.251   2.329   5.743 -0.2573 -0.7037 -1.4157
  631MOL0     C87004  10.306   2.198   5.714 -0.5902 -0.5275  0.7648
  631MOL0     C87005  10.368   2.091   5.699 -0.3523  0.1826  0.2263
  631MOL0     C87006  10.391   2.673   6.250  0.7011  0.3463 -0.5100
  631MOL0     C87007  10.452   2.781   6.316 -0.1941 -0.2686 -0.2468
  631MOL0     C87008  10.393   2.816   6.451 -0.0681 -0.4463  0.8650
  631MOL0     H87009  10.953   2.923   6.361 -4.1615 -0.4046 -0.4491
  631MOL0     H87010  11.132   3.066   6.456 -1.1189 -1.6537 -1.0104
  631MOL0     H87011  11.093   3.440   6.607  1.9116  1.2736  0.0010
  631MOL0     H87012  11.042   3.498   6.449 -1.4208 -0.6663  0.2845
  631MOL0     H87013  11.290   3.520   6.404 -3.3245 -2.0053 -1.2367
  631MOL0     H87014  11.248   3.637   6.520  2.6969  0.5771  0.3794
  631MOL0     H87015  11.316   3.461   6.708 -0.4490 -0.3071 -0.9903
  631MOL0     H87016  11.392   3.376   6.570  4.1646  0.3326  0.4675
  631MOL0     H87017  11.539   3.563   6.528 -1.0056 -2.2983 -0.7211
  631MOL0     H87018  11.480   3.655   6.660 -0.1019  0.3850  0.0195
  631MOL0     H87019  11.667   3.564   6.747 -1.3494  0.6400  0.2581
  631MOL0     H87020  11.650   3.410   6.678 -2.3714  0.8449 -2.6411
  631MOL0     H87021  11.483   3.540   6.912 -0.9733 -1.9973  2.3603
  631MOL0     H87022  11.460   3.374   6.858  0.0468  0.0110 -1.8005
  631MOL0     H87023  11.706   3.504   6.989 -1.1564 -0.0651  3.4257
  631MOL0     H87024  11.709   3.341   6.915 -0.6633  0.3999 -0.2911
  631MOL0     H87025  11.589   3.237   7.072 -2.2018  0.1566 -0.0901
  631MOL0     H87026  11.662   3.356   7.176  0.0735 -3.8800  0.1870
  631MOL0     H87027  11.491   3.540   7.281  0.7668 -0.5279  0.5656
  631MOL0     H87028  11.105   3.473   7.332  0.5347 -0.5186 -0.6583
  631MOL0     H87029  11.185   3.628   7.301  2.2423  0.5560  1.6380
  631MOL0     H87030  11.335   3.529   7.507  0.4490  1.7193 -0.5438
  631MOL0     H87031  11.194   3.625   7.528  3.2993 -0.3630  2.8615
  631MOL0     H87032  11.060   3.402   7.557 -1.5747 -0.8334  2.8801
  631MOL0     H87033  11.214   3.318   7.546  0.9066 -0.0495  0.4223
  631MOL0     H87034  11.301   3.434   7.749  1.0953  1.6811 -0.5219
  631MOL0     H87035  11.180   3.567   7.723  0.7394  0.0088 -0.0637
  631MOL0     H87036  11.065   3.209   7.991  0.2779  0.0294 -0.7414
  631MOL0     H87037  11.063   3.204   8.357  0.0174  0.8094 -0.2460
  631MOL0     H87038  11.059   3.111   8.199 -0.2155 -0.5319  0.5460
  631MOL0     H87039  10.916   3.191   8.267 -0.3834  0.9013 -0.4839
  631MOL0     H87040  10.788   3.640   8.466  0.0067  0.8141  0.5193
  631MOL0     H87041  10.716   3.736   8.670 -0.0583  0.3111 -0.9729
  631MOL0     H87042  10.513   3.603   8.979 -1.6020 -1.9771 -0.4996
  631MOL0     H87043  10.554   3.488   8.869 -2.1900 -2.3974  1.2804
  631MOL0     H87044  10.673   3.351   9.053  1.8110  0.2689  0.9274
  631MOL0     H87045  10.719   3.500   9.129  0.2394 -2.6077  2.5459
  631MOL0     H87046  10.506   3.530   9.243 -1.7816 -2.1325  3.3973
  631MOL0     H87047  10.563   3.376   9.265  2.8759  1.3986 -0.6002
  631MOL0     H87048  10.399   3.309   9.053 -1.6846 -2.1468  2.2348
  631MOL0     H87049  10.340   3.460   9.093  0.2400  0.4541 -0.9570
  631MOL0     H87050  10.385   3.215   9.286  2.5557  1.9737  1.1873
  631MOL0     H87051  10.322   3.378   9.342 -0.1053  0.7612  0.9571
  631MOL0     H87052  10.196   3.229   9.119  1.6872  3.0008 -1.1746
  631MOL0     H87053  10.138   3.377   9.212 -0.0654  0.6508  0.8763
  631MOL0     H87054  10.141   3.198   9.411  1.2246 -0.9610 -0.3842
  631MOL0     H87055  10.152   3.082   9.278  1.0116 -1.3811  2.3380
  631MOL0     H87056   9.933   3.296   9.308 -0.9193  0.1418 -1.0503
  631MOL0     H87057   9.912   3.134   9.368  1.9462 -1.8670  0.6458
  631MOL0     H87058  10.854   3.395   8.884  1.9160 -3.3847 -2.2627
  631MOL0     H87059  10.931   3.283   8.666  2.2858  1.1884 -1.1568
  631MOL0     H87060  11.100   3.671   8.165  2.6520  0.1168 -0.3418
  631MOL0     H87061  11.153   3.624   7.926 -0.4841 -0.7146 -2.7081
  631MOL0     H87062  10.920   3.417   6.313 -0.7394 -0.0994 -3.1434
  631MOL0     H87063  10.751   3.265   6.203  0.5436  1.4475 -0.1167
  631MOL0     H87064  10.693   2.830   6.077 -0.8648  1.9898 -1.1604
  631MOL0     H87065  10.595   2.642   5.983 -3.3801 -0.0484 -0.6539
  631MOL0     H87066  10.194   2.477   6.012  0.5010 -0.0336 -0.5588
  631MOL0     H87067  10.214   2.645   6.034 -2.4189 -1.4045 -0.3700
  631MOL0     H87068  10.381   2.656   5.835 -0.2148  0.4289  1.9949
  631MOL0     H87069  10.214   2.615   5.803 -1.6534 -1.6972  1.5874
  631MOL0     H87070  10.427   2.459   5.712  0.4268 -3.3600 -0.8642
  631MOL0     H87071  10.419   2.386   5.868 -1.7532 -2.0984  1.0501
  631MOL0     H87072  10.193   2.368   5.659 -0.2807 -0.8167 -1.4514
  631MOL0     H87073  10.186   2.314   5.830 -0.0765 -1.8790 -1.4705
  631MOL0     H87074  10.413   1.994   5.697 -1.4665 -0.3759  1.1678
  631MOL0     H87075  10.301   2.635   6.296  0.9223  2.0157  1.4518
  631MOL0     H87076  10.289   2.784   6.449 -0.3539  0.5227 -0.9898
  631MOL0     H87077  10.450   2.757   6.524 -1.6094 -2.3024  0.6295
  631MOL0     H87078  10.410   2.919   6.485  2.2216  0.2547 -2.0440
  632MOL0     O87079   3.807   8.561   8.692 -1.5959 -0.1953 -0.1292
  632MOL0     C87080   3.850   8.560   8.808  0.0160 -0.1852  0.0488
  632MOL0     O87081   3.956   8.480   8.849 -0.4648  0.5214  0.1359
  632MOL0     C87082   4.004   8.374   8.781  0.4599 -0.4287 -0.3627
  632MOL0     C87083   4.018   8.257   8.844  0.0666  0.5701 -0.3688
  632MOL0     C87084   4.077   8.139   8.786  0.2633 -0.4470 -0.1817
  632MOL0     C87085   4.124   8.145   8.656  0.1395  0.2517 -0.1648
  632MOL0     O87086   4.196   8.037   8.606  0.4142  0.4872 -0.6730
  632MOL0     C87087   4.255   8.047   8.482  0.2711 -0.2106  0.1192
  632MOL0     C87088   4.150   7.989   8.379 -0.0680 -0.1503  0.4767
  632MOL0     C87089   4.178   8.030   8.232  0.4496 -0.0321  0.0555
  632MOL0     C87090   4.068   7.974   8.143 -0.7463  0.6777  0.0049
  632MOL0     C87091   4.093   8.010   8.001  0.5898 -0.1694  0.4877
  632MOL0     C87092   3.970   7.975   7.926  0.5981  0.1596 -0.0506
  632MOL0     C87093   3.981   8.030   7.784 -0.4491 -0.3844  0.7268
  632MOL0     C87094   3.900   7.960   7.681  0.3734  0.9148 -0.4932
  632MOL0     N87095   3.927   8.020   7.550 -0.4235  0.5323  0.3625
  632MOL0     C87096   3.873   8.140   7.498  0.7609  1.4404 -0.2950
  632MOL0     C87097   3.932   8.151   7.378  0.3310 -0.7940 -0.0550
  632MOL0     C87098   3.919   8.275   7.296 -0.4468  0.4389 -0.2214
  632MOL0     C87099   3.931   8.253   7.150  0.9601  1.1297 -0.1159
  632MOL0     C87100   3.912   8.391   7.091 -0.2543  0.1488  0.2352
  632MOL0     C87101   3.791   8.406   7.006  0.1896 -0.4116 -0.2256
  632MOL0     O87102   3.672   8.401   7.090  0.3589 -0.5101 -0.2052
  632MOL0     C87103   3.562   8.330   7.043  0.2913 -0.2513  0.0456
  632MOL0     C87104   3.511   8.329   6.911  0.4761  0.3831  0.0385
  632MOL0     C87105   3.387   8.266   6.884  0.0593 -0.4209  0.2944
  632MOL0     C87106   3.336   8.238   6.741  0.0584 -0.1306 -0.6508
  632MOL0     C87107   3.305   8.216   6.990  0.1350  0.6803 -0.3148
  632MOL0     C87108   3.165   8.163   6.970  0.3060 -0.5700 -0.5447
  632MOL0     O87109   3.083   8.232   6.888 -0.0501 -0.4697 -0.0124
  632MOL0     C87110   2.960   8.171   6.863  0.0617  0.6931 -0.5519
  632MOL0     C87111   2.951   8.046   6.799 -0.2384  0.7600  0.3662
  632MOL0     C87112   2.831   7.988   6.766 -0.3327  0.8808 -0.3870
  632MOL0     C87113   2.713   8.046   6.807 -0.4355 -0.4375 -0.3438
  632MOL0     O87114   2.599   7.975   6.780  0.0655 -0.0840  1.4375
  632MOL0     C87115   2.492   7.961   6.874  0.3576  0.5875  0.1270
  632MOL0     C87116   2.370   8.047   6.844 -0.0499  0.0265  1.1003
  632MOL0     C87117   2.314   7.997   6.710 -0.4161  0.6965  0.1407
  632MOL0     C87118   2.210   7.884   6.734 -0.4622  0.0064  0.1268
  632MOL0     C87119   2.128   7.863   6.617 -0.1701  1.4405 -0.0827
  632MOL0     C87120   2.197   7.881   6.483 -0.1326  0.0823 -0.0401
  632MOL0     C87121   2.112   7.841   6.363  0.3885 -0.0246  0.7338
  632MOL0     C87122   2.194   7.865   6.232  0.2721  0.4060 -0.3941
  632MOL0    Cl87123   2.200   8.030   6.183  0.1751 -0.2100  0.6187
  632MOL0     C87124   2.717   8.167   6.869 -0.1911 -0.8640 -0.1744
  632MOL0     C87125   2.834   8.240   6.880  0.1448  0.8265 -0.8402
  632MOL0     O87126   3.129   8.071   7.042 -0.0420  0.7170 -0.3657
  632MOL0     C87127   3.361   8.202   7.115  0.4673 -0.0718 -0.4044
  632MOL0     C87128   3.491   8.265   7.146  0.9646 -0.0523  0.8158
  632MOL0     N87129   4.022   8.053   7.359 -0.7128  0.1801  1.2928
  632MOL0     N87130   4.009   7.965   7.459 -0.1433  0.0930  0.0659
  632MOL0     C87131   4.085   8.260   8.579 -0.0632  0.4830 -0.7349
  632MOL0     C87132   4.029   8.370   8.642  0.1012  0.2597 -0.5290
  632MOL0     C87133   3.794   8.650   8.903  0.9064  0.2760 -0.9783
  632MOL0     C87134   3.867   8.673   9.020  0.6444 -0.2628 -0.7661
  632MOL0     C87135   3.808   8.750   9.127  1.2287 -0.1933 -0.6601
  632MOL0     C87136   3.678   8.806   9.120 -0.5656 -0.6421  0.3151
  632MOL0     O87137   3.614   8.870   9.218 -0.0008  0.5921 -0.7903
  632MOL0     C87138   3.673   8.854   9.351 -0.4190  0.3691  0.7791
  632MOL0     C87139   3.588   8.898   9.472 -0.3106  0.5017 -0.0197
  632MOL0     C87140   3.469   8.806   9.501 -0.0590 -0.6965 -0.1056
  632MOL0     C87141   3.366   8.796   9.382 -0.4321 -0.1626 -0.4914
  632MOL0     C87142   3.240   8.725   9.421  0.0634 -0.9419  0.0585
  632MOL0     C87143   3.140   8.668   9.447  0.5161 -0.5469 -0.3927
  632MOL0     C87144   3.609   8.785   9.001  0.7288  0.1524  0.3546
  632MOL0     C87145   3.661   8.711   8.893 -0.6260  0.1315 -0.1934
  632MOL0     C87146   3.582   8.709   8.769 -0.4596  0.1915  0.9557
  632MOL0     H87147   3.978   8.253   8.945 -0.8722  0.5210 -0.7264
  632MOL0     H87148   4.088   8.065   8.864 -1.7284  1.2098  1.7987
  632MOL0     H87149   4.342   7.982   8.472  0.3369 -0.1140  0.0574
  632MOL0     H87150   4.298   8.147   8.476  0.0276 -0.1609 -1.1121
  632MOL0     H87151   4.150   7.880   8.385  0.9486 -0.1323  1.1375
  632MOL0     H87152   4.047   8.017   8.403  0.7019  2.5966  0.9576
  632MOL0     H87153   4.184   8.138   8.218 -1.8090 -0.0139 -1.2365
  632MOL0     H87154   4.264   7.976   8.190  1.0912 -1.3081  2.7493
  632MOL0     H87155   4.068   7.865   8.146 -0.7878  0.6398 -0.8721
  632MOL0     H87156   3.970   8.012   8.172 -0.9399 -0.6569  1.1814
  632MOL0     H87157   4.175   7.947   7.963  1.0869  1.4016 -1.1678
  632MOL0     H87158   4.109   8.117   7.988  0.2178  0.0851  1.9924
  632MOL0     H87159   3.957   7.866   7.932  0.2378  0.2770  1.8211
  632MOL0     H87160   3.877   8.012   7.970  1.3441  1.4962  0.4677
  632MOL0     H87161   4.082   8.060   7.755 -1.8425  2.0705 -2.0665
  632MOL0     H87162   3.943   8.132   7.783 -2.7767 -1.1812 -0.7694
  632MOL0     H87163   3.930   7.856   7.691 -2.0306  0.3482  1.7719
  632MOL0     H87164   3.791   7.958   7.696  0.5600  0.3652  0.8727
  632MOL0     H87165   3.808   8.209   7.551 -1.1045 -0.6108  0.2189
  632MOL0     H87166   4.003   8.331   7.339 -0.6226  2.7906 -2.6761
  632MOL0     H87167   3.825   8.320   7.330 -0.5728 -0.4298  0.6536
  632MOL0     H87168   4.029   8.215   7.120  1.3339  3.5339 -2.3114
  632MOL0     H87169   3.849   8.198   7.104  2.0348 -0.4637 -0.2204
  632MOL0     H87170   3.906   8.468   7.169 -4.6550 -2.9433  3.4933
  632MOL0     H87171   3.994   8.413   7.022 -0.0951 -1.5544 -0.1668
  632MOL0     H87172   3.787   8.498   6.948  1.1276 -1.2586 -1.7211
  632MOL0     H87173   3.770   8.338   6.923 -2.4316 -0.9607  0.7788
  632MOL0     H87174   3.574   8.369   6.833  0.4088  0.5519  0.0693
  632MOL0     H87175   3.417   8.236   6.668 -0.4761 -0.0210 -1.2550
  632MOL0     H87176   3.252   8.305   6.722  0.3383  0.2501 -0.5771
  632MOL0     H87177   3.309   8.133   6.734  2.3861 -0.8611  0.1278
  632MOL0     H87178   3.045   8.015   6.754 -0.8043 -1.2398  0.4500
  632MOL0     H87179   2.816   7.896   6.710  0.4720  0.7960 -0.4725
  632MOL0     H87180   2.466   7.855   6.890 -1.0855  0.7397 -1.0144
  632MOL0     H87181   2.519   8.009   6.968 -2.1811 -0.6932  1.6036
  632MOL0     H87182   2.318   8.023   6.937 -1.0917 -2.1849  0.0062
  632MOL0     H87183   2.384   8.155   6.838 -0.2384 -0.0114 -0.1810
  632MOL0     H87184   2.386   7.978   6.630 -2.1556  1.6664 -1.7551
  632MOL0     H87185   2.256   8.073   6.658 -0.0510  1.6829  1.1453
  632MOL0     H87186   2.147   7.901   6.821 -2.1075  1.1654 -1.2331
  632MOL0     H87187   2.265   7.792   6.756 -2.8811 -1.0712  2.0450
  632MOL0     H87188   2.081   7.765   6.624  1.1072  0.8929  1.3303
  632MOL0     H87189   2.047   7.937   6.612 -2.1998 -0.6756 -0.1391
  632MOL0     H87190   2.289   7.824   6.474  1.0288  2.1673 -2.7560
  632MOL0     H87191   2.215   7.988   6.470  0.7663  0.0884  1.1221
  632MOL0     H87192   2.024   7.905   6.353  1.3940  1.5298  1.3488
  632MOL0     H87193   2.097   7.734   6.375 -0.0901 -0.6364 -3.6292
  632MOL0     H87194   2.143   7.805   6.156  1.4003 -0.1162 -0.7548
  632MOL0     H87195   2.298   7.832   6.235 -0.1230 -1.4927 -3.5024
  632MOL0     H87196   2.623   8.217   6.893  0.4543  2.0567 -3.0093
  632MOL0     H87197   2.829   8.340   6.920 -4.0102  0.5140 -0.1906
  632MOL0     H87198   3.309   8.152   7.196  2.5873 -1.8088 -0.0323
  632MOL0     H87199   3.517   8.269   7.251  0.7994 -0.3310  0.8691
  632MOL0     H87200   4.111   8.249   8.475 -0.2831 -3.0656 -0.5537
  632MOL0     H87201   4.012   8.451   8.573 -2.5665 -1.8269 -2.5830
  632MOL0     H87202   3.964   8.627   9.034  1.0193  0.8620  0.5874
  632MOL0     H87203   3.862   8.759   9.221  0.6825  0.8879 -0.4356
  632MOL0     H87204   3.694   8.748   9.364 -1.4644 -0.2609 -2.0966
  632MOL0     H87205   3.768   8.907   9.346  1.0660 -2.2561 -2.1097
  632MOL0     H87206   3.553   8.999   9.448  0.4272  0.7834  0.0752
  632MOL0     H87207   3.647   8.905   9.564 -0.9230  0.0078  0.4216
  632MOL0     H87208   3.507   8.710   9.537 -2.4762 -2.0019 -0.8613
  632MOL0     H87209   3.415   8.848   9.586 -1.6097 -0.9760 -0.9192
  632MOL0     H87210   3.410   8.744   9.297 -0.8814 -2.1779  0.4332
  632MOL0     H87211   3.333   8.897   9.358 -1.9408  0.4670  3.4379
  632MOL0     H87212   3.050   8.613   9.466  0.5687 -0.5743 -0.2234
  632MOL0     H87213   3.509   8.827   9.001 -0.0559 -1.5451 -2.0261
  632MOL0     H87214   3.635   8.763   8.690 -1.6748  1.5625  1.0309
  632MOL0     H87215   3.548   8.605   8.760 -2.1361  0.8356 -1.0010
  632MOL0     H87216   3.500   8.781   8.778  1.4093  2.5618  0.1592
  633MOL0     O87217   7.367   2.697   4.412 -0.5686  0.2402  0.2387
  633MOL0     C87218   7.460   2.625   4.437  0.0208  0.1785 -0.1307
  633MOL0     O87219   7.438   2.504   4.503 -0.2141  0.1499 -0.2441
  633MOL0     C87220   7.305   2.472   4.515  0.1141  0.1876  0.1670
  633MOL0     C87221   7.223   2.541   4.604  0.5463 -0.6923  0.0703
  633MOL0     C87222   7.081   2.508   4.616 -0.7253  0.3321 -1.0668
  633MOL0     C87223   7.031   2.408   4.540  0.6253  1.4618 -0.0278
  633MOL0     O87224   6.901   2.365   4.545 -0.2013 -0.0201 -0.4510
  633MOL0     C87225   6.800   2.462   4.577  0.1716 -0.2503  0.0118
  633MOL0     C87226   6.668   2.381   4.581 -0.6544  0.5912  0.1815
  633MOL0     C87227   6.549   2.464   4.562  0.4411 -0.0612 -0.3310
  633MOL0     C87228   6.420   2.383   4.546  0.8508  0.1465  0.6013
  633MOL0     C87229   6.314   2.453   4.461  0.0317 -0.9660 -0.3009
  633MOL0     C87230   6.265   2.581   4.523  0.2817 -0.7606  0.0142
  633MOL0     C87231   6.172   2.666   4.436  0.1589 -0.6556  0.1031
  633MOL0     C87232   6.246   2.777   4.360 -0.4417 -0.3730 -0.4306
  633MOL0     N87233   6.159   2.897   4.357 -0.3452 -0.5138 -0.7965
  633MOL0     C87234   6.030   2.913   4.309 -0.3071 -0.8197  0.3722
  633MOL0     C87235   5.968   3.016   4.371 -0.3616  1.3155  0.0597
  633MOL0     C87236   5.843   3.088   4.348 -0.1371  0.9859 -0.6314
  633MOL0     C87237   5.728   3.054   4.451 -0.2123  0.2343 -0.0493
  633MOL0     C87238   5.698   2.907   4.430  0.6163 -0.0322  0.2658
  633MOL0     C87239   5.575   2.855   4.503 -0.1033  0.2561 -0.0603
  633MOL0     O87240   5.589   2.887   4.642  0.0963  0.5455 -0.0302
  633MOL0     C87241   5.477   2.865   4.713  0.4735 -0.7050 -0.0645
  633MOL0     C87242   5.482   2.897   4.846 -0.5375  0.5312  0.1589
  633MOL0     C87243   5.380   2.866   4.942 -1.0192 -0.2792  0.0554
  633MOL0     C87244   5.411   2.898   5.090 -1.1513  0.1479  0.6403
  633MOL0     C87245   5.259   2.815   4.893  0.6794 -0.6568  0.4072
  633MOL0     C87246   5.151   2.776   4.976  0.2468 -0.0757 -1.2175
  633MOL0     O87247   5.181   2.733   5.106 -0.1216  0.0333 -0.0893
  633MOL0     C87248   5.087   2.680   5.187 -0.0100  0.1397  0.9270
  633MOL0     C87249   5.037   2.763   5.290 -0.5236 -0.1066  0.2220
  633MOL0     C87250   4.941   2.712   5.379 -0.4976  0.3827  0.3981
  633MOL0     C87251   4.898   2.582   5.369 -0.1467  0.0492  0.2203
  633MOL0     O87252   4.779   2.549   5.440  0.1913  0.6380 -0.6631
  633MOL0     C87253   4.678   2.454   5.394 -0.6756  0.2791 -0.0994
  633MOL0     C87254   4.537   2.477   5.420  0.3203  1.4220 -1.0002
  633MOL0     C87255   4.490   2.592   5.343 -0.2491 -0.0411 -0.8516
  633MOL0     C87256   4.353   2.631   5.373  0.3425 -0.0086 -0.3136
  633MOL0     C87257   4.246   2.532   5.311 -1.0679  0.3884 -0.6975
  633MOL0     C87258   4.106   2.566   5.343  0.8694 -0.4411 -0.0062
  633MOL0     C87259   4.002   2.466   5.305  1.5416 -0.0141 -0.2381
  633MOL0     C87260   3.880   2.475   5.409  0.5760 -0.0124  0.7654
  633MOL0    Cl87261   3.808   2.640   5.409  0.1958 -0.0284  0.0219
  633MOL0     C87262   4.955   2.494   5.278  0.0364  0.1565  0.4841
  633MOL0     C87263   5.056   2.540   5.186  0.0094 -0.3882 -0.1018
  633MOL0     O87264   5.041   2.794   4.938  0.0242 -0.1194  0.4886
  633MOL0     C87265   5.245   2.803   4.753 -1.1773  0.1137 -0.9528
  633MOL0     C87266   5.351   2.821   4.665  0.6576 -0.8615 -0.2315
  633MOL0     N87267   6.065   3.074   4.448  0.4352 -0.2410  0.2450
  633MOL0     N87268   6.176   3.006   4.439  0.7659 -0.4964  0.5691
  633MOL0     C87269   7.106   2.337   4.452 -0.7560  0.1007 -0.7601
  633MOL0     C87270   7.246   2.373   4.442 -0.0101 -0.6813  0.4811
  633MOL0     C87271   7.602   2.671   4.423 -0.3407 -0.2720 -0.4059
  633MOL0     C87272   7.634   2.813   4.423  0.0756  0.8006  0.7553
  633MOL0     C87273   7.765   2.857   4.415  0.2521 -0.2468  0.0129
  633MOL0     C87274   7.867   2.760   4.394  0.0443 -0.1548 -0.7977
  633MOL0     O87275   8.001   2.787   4.403 -0.3243 -0.6517  0.1971
  633MOL0     C87276   8.059   2.886   4.310 -0.0258  0.1118 -0.5313
  633MOL0     C87277   8.206   2.913   4.350  0.6121  0.3757 -0.5192
  633MOL0     C87278   8.290   2.998   4.246 -0.0234  0.3407 -0.6697
  633MOL0     C87279   8.437   3.007   4.293 -0.5059  0.6640 -1.1768
  633MOL0     C87280   8.456   3.075   4.422  0.3518 -0.1071 -0.8906
  633MOL0     C87281   8.471   3.149   4.519  0.1965  0.3118  0.0582
  633MOL0     C87282   7.833   2.631   4.370  0.4416  0.6482  1.0242
  633MOL0     C87283   7.708   2.582   4.387 -0.6678 -1.1932 -0.6217
  633MOL0     C87284   7.690   2.437   4.373  0.5597 -0.4044 -0.2416
  633MOL0     H87285   7.260   2.620   4.668  1.5304  0.2843 -1.6480
  633MOL0     H87286   7.019   2.570   4.680 -0.1388 -1.5424  1.5014
  633MOL0     H87287   6.791   2.550   4.512 -0.5136  2.2206  3.2172
  633MOL0     H87288   6.819   2.512   4.672 -0.8396 -1.7991  1.0715
  633MOL0     H87289   6.667   2.321   4.490  2.9633  0.2132  0.2333
  633MOL0     H87290   6.651   2.315   4.666 -1.5376  0.2590 -0.2426
  633MOL0     H87291   6.545   2.509   4.662  3.7080 -1.9012  0.7569
  633MOL0     H87292   6.560   2.532   4.478 -0.4475  2.2751  1.3283
  633MOL0     H87293   6.440   2.285   4.501 -0.7391  0.4730 -0.9282
  633MOL0     H87294   6.376   2.372   4.646 -0.1616  1.8364  0.3737
  633MOL0     H87295   6.225   2.390   4.472 -0.0727 -0.8447 -0.4530
  633MOL0     H87296   6.334   2.458   4.354  1.4672  2.6282 -0.0137
  633MOL0     H87297   6.218   2.569   4.621  0.9365  0.2933  0.4776
  633MOL0     H87298   6.353   2.640   4.550 -1.1320  0.6695  1.7056
  633MOL0     H87299   6.105   2.725   4.499  0.0874  0.5191 -1.0232
  633MOL0     H87300   6.107   2.596   4.382 -0.2361  1.3139 -2.1740
  633MOL0     H87301   6.338   2.802   4.415  0.2767 -0.6026 -1.5098
  633MOL0     H87302   6.280   2.762   4.257 -3.7620 -0.6020 -1.6155
  633MOL0     H87303   5.988   2.839   4.241  1.5392 -1.1052 -0.5350
  633MOL0     H87304   5.812   3.060   4.247  2.1657 -1.3612 -0.8041
  633MOL0     H87305   5.852   3.197   4.352  0.1684  0.9377  2.4149
  633MOL0     H87306   5.747   3.069   4.557 -1.6987  3.6847 -0.1367
  633MOL0     H87307   5.639   3.110   4.420  0.1432  0.3169 -0.9532
  633MOL0     H87308   5.670   2.896   4.325 -4.4906  2.1296  1.1071
  633MOL0     H87309   5.781   2.841   4.456 -0.1112 -1.3847 -0.7223
  633MOL0     H87310   5.491   2.913   4.463 -2.4088 -2.6181  0.2964
  633MOL0     H87311   5.559   2.749   4.482  2.7578 -0.2052 -0.3051
  633MOL0     H87312   5.579   2.923   4.886  0.0371 -1.2608  0.0057
  633MOL0     H87313   5.319   2.940   5.131 -1.4707  0.4066 -0.3138
  633MOL0     H87314   5.475   2.987   5.090  1.2492 -1.4911  0.8185
  633MOL0     H87315   5.469   2.818   5.136 -0.4314  0.7484  0.7988
  633MOL0     H87316   5.062   2.868   5.291 -2.0908  0.3274 -0.9626
  633MOL0     H87317   4.886   2.775   5.447 -1.5473 -0.5459  0.4259
  633MOL0     H87318   4.678   2.447   5.285 -2.7311  0.8966 -0.1846
  633MOL0     H87319   4.699   2.354   5.431 -3.2919 -0.9561 -1.7364
  633MOL0     H87320   4.486   2.381   5.404  0.6794  1.0829 -0.1371
  633MOL0     H87321   4.530   2.497   5.527 -2.6588 -0.0355 -0.8124
  633MOL0     H87322   4.490   2.557   5.239 -0.8708 -0.3933 -0.7360
  633MOL0     H87323   4.552   2.681   5.357  1.4998 -1.5916  2.2318
  633MOL0     H87324   4.337   2.724   5.318 -0.1435  0.3061  0.3477
  633MOL0     H87325   4.334   2.639   5.481 -2.2897 -4.1654 -0.2579
  633MOL0     H87326   4.262   2.510   5.205  2.3301  2.2151 -0.7141
  633MOL0     H87327   4.259   2.434   5.357  0.3346 -1.1339 -3.9589
  633MOL0     H87328   4.071   2.651   5.284  0.7314  2.2567  3.5608
  633MOL0     H87329   4.095   2.594   5.449 -0.1392 -1.2589  0.1272
  633MOL0     H87330   4.038   2.363   5.310  0.4653 -0.4392 -0.8532
  633MOL0     H87331   3.970   2.481   5.201  2.1037 -2.7224 -0.8960
  633MOL0     H87332   3.908   2.443   5.510 -0.6563  0.3237  1.2390
  633MOL0     H87333   3.817   2.397   5.365 -0.2387  0.0520  1.7746
  633MOL0     H87334   4.915   2.395   5.260  0.3592 -0.4617  2.8729
  633MOL0     H87335   5.098   2.464   5.120  0.1580 -0.3575 -0.0434
  633MOL0     H87336   5.163   2.745   4.710 -1.1983 -2.4384  2.1155
  633MOL0     H87337   5.327   2.815   4.560 -0.9807  1.2432 -0.0341
  633MOL0     H87338   7.073   2.252   4.394  0.5965  0.2596 -1.8195
  633MOL0     H87339   7.311   2.316   4.376  0.0605 -0.8355  0.6843
  633MOL0     H87340   7.552   2.884   4.422 -2.4724 -1.8538 -1.5754
  633MOL0     H87341   7.791   2.963   4.420  0.5124 -0.3465  1.0102
  633MOL0     H87342   8.058   2.838   4.212 -1.2715  1.3038 -1.1316
  633MOL0     H87343   8.011   2.984   4.312  2.1876  1.2639  0.9286
  633MOL0     H87344   8.260   2.818   4.359 -0.7347 -0.2517  2.0758
  633MOL0     H87345   8.197   2.960   4.448 -1.7415 -2.6888  0.9138
  633MOL0     H87346   8.303   2.947   4.150  1.0750  0.5824 -0.6637
  633MOL0     H87347   8.250   3.096   4.219  3.1193  2.7048  2.4297
  633MOL0     H87348   8.490   3.053   4.209 -2.1074  1.1104 -1.9962
  633MOL0     H87349   8.469   2.903   4.307 -1.6958  0.4204 -0.0428
  633MOL0     H87350   8.486   3.204   4.610 -2.0787 -1.0589  1.3393
  633MOL0     H87351   7.912   2.562   4.340 -0.6193 -0.3912  0.5675
  633MOL0     H87352   7.599   2.392   4.332 -0.2380  1.7124 -0.9090
  633MOL0     H87353   7.778   2.405   4.317  0.7604  1.7236 -1.2474
  633MOL0     H87354   7.689   2.393   4.473 -2.3491 -0.0590 -0.0170
  634MOL0     O87355   9.480   6.966  11.044 -0.5822  0.8564  0.1250
  634MOL0     C87356   9.401   7.050  10.995 -0.7322  0.5823 -0.5848
  634MOL0     O87357   9.411   7.100  10.872  0.2075 -0.2927  0.9750
  634MOL0     C87358   9.536   7.104  10.811  0.4399 -0.3967  0.0445
  634MOL0     C87359   9.569   7.006  10.722 -0.4317  0.4912  0.6585
  634MOL0     C87360   9.696   7.011  10.643  0.2573  0.3586  0.6301
  634MOL0     C87361   9.788   7.115  10.672  0.4410 -0.2236  1.1182
  634MOL0     O87362   9.917   7.111  10.611 -0.2696  0.3775 -0.4213
  634MOL0     C87363   9.966   6.979  10.561  0.2069  0.8590 -0.1247
  634MOL0     C87364  10.023   6.891  10.681 -0.8565  0.2176 -0.3149
  634MOL0     C87365  10.153   6.824  10.641 -0.3605  0.4499  0.2227
  634MOL0     C87366  10.144   6.713  10.524  0.0507  0.9344  0.1328
  634MOL0     C87367  10.277   6.633  10.511 -0.0220  0.0930  0.6895
  634MOL0     C87368  10.264   6.529  10.398 -0.0103 -0.1898  0.5781
  634MOL0     C87369  10.388   6.445  10.369 -0.3168 -1.2191 -0.5996
  634MOL0     C87370  10.360   6.295  10.338 -0.3565 -0.5015 -0.6539
  634MOL0     N87371  10.297   6.268  10.209  0.0598 -0.4063  0.0609
  634MOL0     C87372  10.329   6.315  10.084  0.2136  0.5065  0.3395
  634MOL0     C87373  10.278   6.229   9.990  0.2944  0.0921  0.3753
  634MOL0     C87374  10.284   6.251   9.841 -0.7849  1.3245  0.4761
  634MOL0     C87375  10.198   6.365   9.794  1.3692  0.1113  0.1377
  634MOL0     C87376  10.044   6.336   9.808  0.0656  0.2913 -0.0664
  634MOL0     C87377   9.968   6.458   9.774  0.6247 -0.5901  0.4214
  634MOL0     O87378   9.993   6.568   9.871  0.4012  0.2144 -0.2023
  634MOL0     C87379   9.921   6.552   9.985 -0.3681 -0.9469 -0.6630
  634MOL0     C87380   9.785   6.593  10.000 -0.4918 -0.3411  0.1888
  634MOL0     C87381   9.720   6.570  10.126  0.5545 -0.6537  0.3600
  634MOL0     C87382   9.572   6.621  10.125 -0.5015  0.8190  0.5490
  634MOL0     C87383   9.797   6.510  10.230 -0.8381 -0.2528  0.2492
  634MOL0     C87384   9.739   6.459  10.359  0.4155 -0.3288 -1.6965
  634MOL0     O87385   9.822   6.440  10.471  1.0270 -0.3468 -0.1550
  634MOL0     C87386   9.796   6.359  10.582  0.8411  0.4388 -0.6588
  634MOL0     C87387   9.693   6.269  10.579  0.6208 -0.0435 -0.3678
  634MOL0     C87388   9.673   6.199  10.696  0.1367  0.2805 -0.0427
  634MOL0     C87389   9.754   6.212  10.815 -0.2466  0.1456  0.8692
  634MOL0     O87390   9.722   6.123  10.913  0.2056 -0.2868 -0.0703
  634MOL0     C87391   9.767   6.147  11.054 -0.9496 -0.6525 -0.6223
  634MOL0     C87392   9.895   6.063  11.097 -0.8465  0.5301  0.4603
  634MOL0     C87393   9.864   5.926  11.169  0.1233  0.2841 -0.3041
  634MOL0     C87394   9.979   5.836  11.198  0.9154  0.1962 -0.6876
  634MOL0     C87395   9.950   5.742  11.320  0.2056 -0.9889  0.2165
  634MOL0     C87396   9.880   5.619  11.268 -0.0312  0.1881  0.5875
  634MOL0     C87397   9.812   5.526  11.372  0.2751 -0.0077 -0.1819
  634MOL0     C87398   9.668   5.482  11.328 -0.0898  0.2306  0.4852
  634MOL0    Cl87399   9.613   5.337  11.404  0.1774 -0.1007 -0.3618
  634MOL0     C87400   9.865   6.295  10.807  0.9327  0.9935  0.8330
  634MOL0     C87401   9.883   6.369  10.692  0.6693 -0.1361  0.2896
  634MOL0     O87402   9.620   6.430  10.356  0.4545  0.0585  0.8056
  634MOL0     C87403   9.939   6.503  10.213  0.5781 -0.4716 -0.7503
  634MOL0     C87404   9.998   6.519  10.092 -0.3753 -0.3384 -0.0150
  634MOL0     N87405  10.205   6.132  10.057 -0.2663  0.3467 -0.0689
  634MOL0     N87406  10.220   6.155  10.185 -0.4418  0.2221  0.1420
  634MOL0     C87407   9.745   7.217  10.759 -0.4216 -0.3561 -0.3221
  634MOL0     C87408   9.621   7.216  10.825  0.4059  0.6610  0.0549
  634MOL0     C87409   9.277   7.066  11.079  1.0010 -0.2598  0.8066
  634MOL0     C87410   9.161   7.109  11.011  0.8416  0.5860  1.1286
  634MOL0     C87411   9.038   7.135  11.069  0.0796 -0.1494 -1.2510
  634MOL0     C87412   9.018   7.122  11.202 -0.5629 -0.0626 -0.4127
  634MOL0     O87413   8.900   7.148  11.274  0.1555 -0.2492  0.5435
  634MOL0     C87414   8.774   7.168  11.197  0.6732  0.4386  0.0524
  634MOL0     C87415   8.661   7.193  11.294 -0.7932 -0.2537 -0.2061
  634MOL0     C87416   8.664   7.341  11.337 -0.3118 -0.0848  0.4693
  634MOL0     C87417   8.551   7.381  11.438 -0.8915  0.4753  0.1119
  634MOL0     C87418   8.423   7.369  11.384 -0.0551  0.6961  0.8499
  634MOL0     C87419   8.310   7.370  11.342  0.6343  0.5827  0.6403
  634MOL0     C87420   9.132   7.095  11.286 -0.0282  0.4575  0.1952
  634MOL0     C87421   9.259   7.061  11.222  0.3335 -0.3030  0.7449
  634MOL0     C87422   9.368   7.006  11.318  0.4543 -1.0292  1.0049
  634MOL0     H87423   9.487   6.939  10.699 -1.8298  2.9245 -2.1187
  634MOL0     H87424   9.717   6.940  10.564 -0.2406 -0.4470  1.2147
  634MOL0     H87425  10.040   7.001  10.483  0.8572 -1.3597 -0.1767
  634MOL0     H87426   9.893   6.919  10.507 -0.6382  1.7321  0.0260
  634MOL0     H87427  10.034   6.960  10.765 -3.7457  0.0528  0.3016
  634MOL0     H87428   9.958   6.815  10.727  1.9508 -0.9390  2.0240
  634MOL0     H87429  10.216   6.904  10.600  0.6114 -0.8409 -0.9061
  634MOL0     H87430  10.175   6.774  10.736 -1.8081 -1.4223 -0.3660
  634MOL0     H87431  10.081   6.632  10.562  2.2855 -0.0626  1.9494
  634MOL0     H87432  10.101   6.746  10.429  1.6434 -1.4630 -1.5435
  634MOL0     H87433  10.285   6.584  10.608 -1.8534  0.9515  1.3230
  634MOL0     H87434  10.358   6.700  10.481 -0.8087  0.7611 -0.0128
  634MOL0     H87435  10.175   6.467  10.415  0.6362 -0.3365  3.9539
  634MOL0     H87436  10.254   6.600  10.315  0.7027 -0.1149  0.5533
  634MOL0     H87437  10.454   6.462  10.455 -0.2089  1.8958 -1.1604
  634MOL0     H87438  10.438   6.480  10.278 -0.5717 -1.7282 -0.9379
  634MOL0     H87439  10.451   6.234  10.342  0.1750  0.1449 -2.1078
  634MOL0     H87440  10.291   6.260  10.416  1.8876 -0.3127  1.5412
  634MOL0     H87441  10.387   6.404  10.063 -0.1217  1.0413  1.5721
  634MOL0     H87442  10.255   6.157   9.792  2.5105  0.9702 -1.0259
  634MOL0     H87443  10.386   6.269   9.809  0.1181  0.0581  2.4121
  634MOL0     H87444  10.233   6.458   9.840  2.2555 -1.9255  4.0432
  634MOL0     H87445  10.205   6.368   9.685  0.6163 -1.2237  0.0268
  634MOL0     H87446  10.021   6.251   9.744 -1.0201 -0.0236  0.7071
  634MOL0     H87447  10.021   6.305   9.910 -0.4691 -0.2186 -0.3351
  634MOL0     H87448   9.991   6.501   9.677 -0.6526  2.7984  1.4879
  634MOL0     H87449   9.863   6.426   9.772  0.1239  1.0107 -0.2319
  634MOL0     H87450   9.752   6.628   9.903  0.8871  0.6771  0.0507
  634MOL0     H87451   9.561   6.687  10.212 -3.7231  0.4962  0.5160
  634MOL0     H87452   9.504   6.537  10.144  1.6848 -0.7586  1.7678
  634MOL0     H87453   9.550   6.678  10.034  2.5184  0.8472 -0.2560
  634MOL0     H87454   9.628   6.260  10.493 -0.4401  3.5225 -0.0884
  634MOL0     H87455   9.590   6.129  10.708  0.2396 -0.0033 -0.9484
  634MOL0     H87456   9.794   6.251  11.074  1.9189 -1.6589  1.3561
  634MOL0     H87457   9.690   6.134  11.130 -0.7935  0.1368 -0.3217
  634MOL0     H87458   9.958   6.032  11.013 -2.5369  2.2604 -1.5762
  634MOL0     H87459   9.952   6.114  11.175 -1.3808  2.4206 -0.3238
  634MOL0     H87460   9.801   5.871  11.098  2.3974 -0.0772 -2.1589
  634MOL0     H87461   9.802   5.944  11.257  0.0239 -0.3343 -0.2415
  634MOL0     H87462  10.064   5.900  11.223 -0.0427 -0.0840  4.0952
  634MOL0     H87463  10.002   5.772  11.112  1.6251  0.2892 -0.5767
  634MOL0     H87464  10.041   5.728  11.379  2.1148  2.5450 -1.5810
  634MOL0     H87465   9.880   5.788  11.390  0.7532 -0.7936  0.6433
  634MOL0     H87466   9.951   5.559  11.212  0.3935 -0.2023  1.5308
  634MOL0     H87467   9.811   5.650  11.188 -0.2844 -1.7133  0.0386
  634MOL0     H87468   9.792   5.581  11.464 -0.3656 -2.0333  0.9507
  634MOL0     H87469   9.869   5.434  11.389  0.0512 -0.0866  0.1330
  634MOL0     H87470   9.668   5.464  11.221  1.0975 -2.6925  0.8757
  634MOL0     H87471   9.597   5.562  11.352  1.8350  1.9656  0.6541
  634MOL0     H87472   9.933   6.309  10.890  0.6491  2.2236  0.8708
  634MOL0     H87473   9.959   6.444  10.675 -1.6035  2.9061  2.5131
  634MOL0     H87474   9.993   6.487  10.306 -0.4510  0.7661  0.0876
  634MOL0     H87475  10.104   6.509  10.073 -0.6485  0.7509 -2.5798
  634MOL0     H87476   9.807   7.304  10.776 -1.6675  0.5165 -0.1157
  634MOL0     H87477   9.594   7.307  10.878 -0.2912  0.3810  0.2023
  634MOL0     H87478   9.166   7.138  10.907 -0.2214  1.9541  1.4305
  634MOL0     H87479   8.954   7.176  11.012 -1.9728  2.0283  2.8989
  634MOL0     H87480   8.785   7.258  11.137  0.0029 -1.4547 -3.1763
  634MOL0     H87481   8.769   7.080  11.131  2.3239 -0.4963  1.1026
  634MOL0     H87482   8.677   7.126  11.378 -0.2531 -1.8184 -1.5142
  634MOL0     H87483   8.564   7.173  11.246 -0.7860  0.1701 -0.4023
  634MOL0     H87484   8.760   7.359  11.386 -0.4018 -1.7456  1.3587
  634MOL0     H87485   8.649   7.410  11.254  1.0065 -0.7701 -0.3607
  634MOL0     H87486   8.570   7.479  11.481  1.9165  0.4147 -0.7375
  634MOL0     H87487   8.560   7.305  11.516  1.0322  1.4503  0.9038
  634MOL0     H87488   8.211   7.379  11.304 -0.0732 -1.5426  1.8423
  634MOL0     H87489   9.122   7.081  11.393 -2.1629 -0.1184 -0.0311
  634MOL0     H87490   9.399   6.910  11.275  1.8489  1.1312 -3.2954
  634MOL0     H87491   9.452   7.076  11.314 -0.0568 -0.3451  1.8544
  634MOL0     H87492   9.328   6.998  11.420 -2.2388  1.7886  0.3130
  635MOL0     O87493   3.039   9.151   4.826 -0.4985  0.2405 -0.2614
  635MOL0     C87494   3.097   9.080   4.906  0.2663  0.0557  0.2243
  635MOL0     O87495   3.232   9.043   4.896 -0.2347  0.2223 -0.0124
  635MOL0     C87496   3.289   9.021   4.770  0.4756 -0.6589  0.8037
  635MOL0     C87497   3.430   9.022   4.758  0.3286 -0.0846 -0.0657
  635MOL0     C87498   3.483   9.007   4.626 -0.9578 -0.2875 -0.2362
  635MOL0     C87499   3.400   8.978   4.511 -0.2400 -0.4966  0.6449
  635MOL0     O87500   3.458   8.954   4.387  0.0826  0.2751  0.4207
  635MOL0     C87501   3.595   8.922   4.362  0.1412 -0.1000  0.0179
  635MOL0     C87502   3.685   9.046   4.343 -0.6178 -0.3364  0.4343
  635MOL0     C87503   3.807   8.991   4.271  0.4926 -0.4303 -0.2947
  635MOL0     C87504   3.893   9.118   4.242 -0.5038  0.2158 -0.8377
  635MOL0     C87505   4.019   9.065   4.179 -0.3914 -0.0121 -0.7687
  635MOL0     C87506   4.120   9.172   4.159 -0.2173  0.0004  0.3670
  635MOL0     C87507   4.222   9.144   4.041  0.0846  0.0819 -0.3433
  635MOL0     C87508   4.287   8.999   4.053 -0.3121  0.1733  0.2457
  635MOL0     N87509   4.391   9.001   3.955  0.6624  0.1726  0.2359
  635MOL0     C87510   4.515   9.068   3.975  0.9196  0.5460  0.0716
  635MOL0     C87511   4.566   9.054   3.851 -0.6975  0.3451 -0.5474
  635MOL0     C87512   4.703   9.114   3.826 -0.3410  0.0805  0.8926
  635MOL0     C87513   4.679   9.267   3.805  0.4732 -0.3847  0.1023
  635MOL0     C87514   4.775   9.362   3.885  1.2208 -1.0468  1.1056
  635MOL0     C87515   4.921   9.330   3.871 -0.5264 -0.0287  0.2472
  635MOL0     O87516   5.005   9.444   3.904  0.5123 -0.2269  0.4891
  635MOL0     C87517   5.143   9.445   3.911  0.0338  0.1453 -0.9025
  635MOL0     C87518   5.200   9.562   3.949  0.5500 -0.5236 -0.2807
  635MOL0     C87519   5.338   9.581   3.965 -0.0923 -0.1016  0.0770
  635MOL0     C87520   5.373   9.724   3.997  0.2601  0.1358  1.0366
  635MOL0     C87521   5.426   9.472   3.939 -0.9165  0.0998  0.3775
  635MOL0     C87522   5.571   9.473   3.941 -0.6380 -0.2483  0.1706
  635MOL0     O87523   5.624   9.351   3.920  0.0897  0.2934 -0.3993
  635MOL0     C87524   5.757   9.338   3.924  0.7593 -1.3903  0.1966
  635MOL0     C87525   5.836   9.394   3.817  1.2658  0.0875  0.2989
  635MOL0     C87526   5.974   9.378   3.826 -0.0303  0.1894 -0.1810
  635MOL0     C87527   6.027   9.306   3.939  0.9209  0.0960  0.6364
  635MOL0     O87528   6.163   9.300   3.958 -0.9806  0.3206 -0.7245
  635MOL0     C87529   6.223   9.424   4.008 -0.1183 -0.6471 -0.4476
  635MOL0     C87530   6.244   9.439   4.153  0.9755 -0.2110  0.6358
  635MOL0     C87531   6.168   9.565   4.206 -0.2394 -0.6489 -0.2822
  635MOL0     C87532   6.020   9.539   4.215 -1.1218  0.0718  0.1779
  635MOL0     C87533   5.947   9.648   4.286  0.2007  1.1081  0.6837
  635MOL0     C87534   5.793   9.610   4.292  0.0174  0.0649 -0.0587
  635MOL0     C87535   5.770   9.486   4.383  0.5995  0.3791  0.3669
  635MOL0     C87536   5.618   9.466   4.415  0.4097  0.2755 -0.3737
  635MOL0    Cl87537   5.532   9.401   4.280 -0.1956  0.1006 -0.2846
  635MOL0     C87538   5.944   9.234   4.030 -0.6172 -0.9355  0.6154
  635MOL0     C87539   5.809   9.253   4.026  0.5279  0.1885  0.6777
  635MOL0     O87540   5.637   9.577   3.960  0.4834  0.3224  0.1298
  635MOL0     C87541   5.363   9.348   3.901 -0.6295  0.4876 -0.3876
  635MOL0     C87542   5.224   9.336   3.890  0.3295 -0.8453  0.5160
  635MOL0     N87543   4.494   8.967   3.771  0.6348 -0.0684 -0.1463
  635MOL0     N87544   4.384   8.945   3.828 -0.5827  0.8114 -0.6157
  635MOL0     C87545   3.264   8.959   4.528  0.3920 -0.0547  0.6607
  635MOL0     C87546   3.211   8.986   4.655  0.3421  0.1484  0.1474
  635MOL0     C87547   3.017   9.006   5.006 -0.0077 -0.0814  0.1615
  635MOL0     C87548   3.073   8.997   5.131  0.5857  1.1989  0.2848
  635MOL0     C87549   3.003   8.941   5.243 -1.0388  1.0542 -0.4637
  635MOL0     C87550   2.870   8.924   5.242  0.3377 -0.7802 -0.1046
  635MOL0     O87551   2.803   8.874   5.343  0.4200 -0.2598  0.7595
  635MOL0     C87552   2.698   8.970   5.378  0.4342 -0.3273  0.3185
  635MOL0     C87553   2.641   8.904   5.504 -0.3152 -1.1089  0.3790
  635MOL0     C87554   2.611   8.756   5.481 -0.1480 -0.2712 -0.0002
  635MOL0     C87555   2.539   8.691   5.601  0.4118  0.2154 -0.4889
  635MOL0     C87556   2.486   8.563   5.551  0.5818  0.5914 -0.1248
  635MOL0     C87557   2.437   8.458   5.502 -0.0055  0.1562  0.4748
  635MOL0     C87558   2.814   8.930   5.115 -0.1734  0.6921 -0.0795
  635MOL0     C87559   2.887   8.968   4.997  0.4713  0.0047  0.6686
  635MOL0     C87560   2.813   8.964   4.866 -0.2100  0.2194 -0.1940
  635MOL0     H87561   3.491   9.052   4.843  1.7136 -2.5753 -0.1008
  635MOL0     H87562   3.589   9.027   4.623 -0.8011 -1.1556 -1.2677
  635MOL0     H87563   3.606   8.861   4.273  0.7413  0.1025 -0.0514
  635MOL0     H87564   3.636   8.879   4.454  0.7667  2.1499  0.8833
  635MOL0     H87565   3.631   9.109   4.271  0.3727 -0.2959 -0.2858
  635MOL0     H87566   3.716   9.107   4.428  1.3724 -0.9746  0.2222
  635MOL0     H87567   3.857   8.914   4.330 -2.1309 -2.9950 -1.1887
  635MOL0     H87568   3.773   8.933   4.184 -3.3584  2.0378 -0.6965
  635MOL0     H87569   3.843   9.186   4.172 -0.0085 -3.1500 -4.8228
  635MOL0     H87570   3.915   9.163   4.339  0.0746  0.4655 -1.0806
  635MOL0     H87571   3.989   9.021   4.084  1.3393 -4.2645  0.4046
  635MOL0     H87572   4.056   8.996   4.256 -0.2177  1.1343  0.2202
  635MOL0     H87573   4.078   9.269   4.131  1.2413  1.0229  1.5988
  635MOL0     H87574   4.177   9.201   4.248 -1.8081  0.8177  1.1603
  635MOL0     H87575   4.298   9.222   4.051 -1.2762  1.4917 -0.5604
  635MOL0     H87576   4.172   9.154   3.945 -1.3866  0.5069  0.4364
  635MOL0     H87577   4.329   8.971   4.150 -1.2805 -1.4559  0.2244
  635MOL0     H87578   4.207   8.931   4.023 -0.4041  1.3238 -2.4239
  635MOL0     H87579   4.552   9.132   4.053  2.1300 -2.4931  2.1971
  635MOL0     H87580   4.757   9.082   3.737 -1.3568  1.2460 -0.1732
  635MOL0     H87581   4.762   9.086   3.914 -0.3341 -0.3382  0.7574
  635MOL0     H87582   4.676   9.290   3.698 -1.0364 -0.1187  0.1733
  635MOL0     H87583   4.580   9.301   3.837  0.5933 -0.1839  0.2610
  635MOL0     H87584   4.757   9.460   3.842 -1.1238 -1.8347  0.1154
  635MOL0     H87585   4.747   9.389   3.987  2.0846  0.1582  1.0408
  635MOL0     H87586   4.945   9.237   3.922 -0.0431 -0.3292 -0.5013
  635MOL0     H87587   4.942   9.297   3.768  2.4871 -1.9233  1.3463
  635MOL0     H87588   5.144   9.654   3.956 -0.6487 -1.3594  2.5054
  635MOL0     H87589   5.455   9.759   3.934 -1.7202  1.7004 -0.8593
  635MOL0     H87590   5.382   9.736   4.105 -1.2298  0.6823  1.1243
  635MOL0     H87591   5.298   9.798   3.965  0.5302 -0.0210 -0.0179
  635MOL0     H87592   5.785   9.446   3.737  2.7451 -0.8756 -1.3540
  635MOL0     H87593   6.052   9.409   3.756 -0.6906  0.4802 -0.8002
  635MOL0     H87594   6.324   9.442   3.969  0.2628 -1.6832  0.0214
  635MOL0     H87595   6.167   9.510   3.970 -1.6855 -1.2752  0.3706
  635MOL0     H87596   6.213   9.349   4.209 -1.1112  0.2458  0.2869
  635MOL0     H87597   6.352   9.454   4.163  1.3267 -1.4496 -0.8303
  635MOL0     H87598   6.177   9.657   4.148  1.2002  0.5119  1.6529
  635MOL0     H87599   6.225   9.595   4.295  2.6000  0.8607 -2.4530
  635MOL0     H87600   5.990   9.449   4.269 -1.4293 -0.4013 -0.7623
  635MOL0     H87601   5.984   9.528   4.112  2.1607 -2.4442 -0.8680
  635MOL0     H87602   5.981   9.650   4.390 -0.8610  2.0578  1.0317
  635MOL0     H87603   5.970   9.740   4.232  1.5229 -0.4195 -1.5578
  635MOL0     H87604   5.741   9.592   4.198  0.4592 -1.8979  0.0426
  635MOL0     H87605   5.737   9.690   4.342  2.3190  1.7584  0.0353
  635MOL0     H87606   5.839   9.486   4.469  2.0672  1.3686 -0.7494
  635MOL0     H87607   5.803   9.391   4.339  1.8180 -0.4238  2.8063
  635MOL0     H87608   5.573   9.561   4.444 -1.0605 -0.6345  0.4133
  635MOL0     H87609   5.603   9.402   4.503  3.0511 -0.4544 -0.3581
  635MOL0     H87610   6.001   9.184   4.107 -0.1020 -0.9110  0.2586
  635MOL0     H87611   5.732   9.224   4.097  0.1182  0.4340  0.3382
  635MOL0     H87612   5.420   9.263   3.867 -0.2682  1.3547 -2.0715
  635MOL0     H87613   5.172   9.247   3.857 -2.3362  1.1272 -0.9938
  635MOL0     H87614   3.201   8.925   4.446 -1.3394  0.5586  1.6742
  635MOL0     H87615   3.103   8.981   4.662  0.3401  0.4987  0.3899
  635MOL0     H87616   3.175   9.030   5.151  0.1475  1.7502  1.7504
  635MOL0     H87617   3.062   8.932   5.334  0.3803  0.3567 -1.4204
  635MOL0     H87618   2.743   9.067   5.397  2.9647 -1.6530  1.5428
  635MOL0     H87619   2.617   8.969   5.304  0.8875 -2.3103 -0.2129
  635MOL0     H87620   2.550   8.953   5.540 -0.6847 -0.3378 -1.4864
  635MOL0     H87621   2.714   8.933   5.581  0.3302  0.2162 -0.6868
  635MOL0     H87622   2.554   8.736   5.390  2.7385  2.4475 -2.6734
  635MOL0     H87623   2.707   8.703   5.470  0.5926  0.4342  2.4487
  635MOL0     H87624   2.469   8.762   5.646  2.2039  0.2931  2.4350
  635MOL0     H87625   2.616   8.667   5.675  0.7552  0.8296 -0.6367
  635MOL0     H87626   2.407   8.360   5.469 -0.3630 -0.3991  2.3180
  635MOL0     H87627   2.710   8.904   5.101 -0.4801  1.9657 -0.2904
  635MOL0     H87628   2.883   8.945   4.785  0.5888  0.2706  0.4724
  635MOL0     H87629   2.747   8.877   4.875  2.4912 -1.7347  3.2355
  635MOL0     H87630   2.757   9.056   4.849 -0.8468 -0.1631 -0.2154
  636MOL0     O87631   0.417   1.349   7.446  0.0200  0.0819  0.2673
  636MOL0     C87632   0.384   1.239   7.482 -0.3045  0.9389 -0.0258
  636MOL0     O87633   0.472   1.136   7.521  0.3736 -0.2838 -0.9404
  636MOL0     C87634   0.608   1.148   7.532  0.3768 -0.2704 -0.1221
  636MOL0     C87635   0.676   1.161   7.656  0.6832  0.7119  0.2452
  636MOL0     C87636   0.813   1.173   7.655 -0.5233 -0.4876  0.3001
  636MOL0     C87637   0.885   1.173   7.535 -0.4598  0.0080 -0.3895
  636MOL0     O87638   1.023   1.189   7.539  0.0859 -0.3163  0.7166
  636MOL0     C87639   1.081   1.275   7.632  0.2336 -1.3661  0.3136
  636MOL0     C87640   1.213   1.332   7.567  0.3994  0.3530  0.4343
  636MOL0     C87641   1.198   1.467   7.517  0.5210  0.0504  0.0355
  636MOL0     C87642   1.111   1.471   7.396 -0.6389 -0.1400  0.0557
  636MOL0     C87643   1.196   1.419   7.266 -0.3735  0.0631  0.8431
  636MOL0     C87644   1.103   1.407   7.143  0.5385 -0.0250 -0.7413
  636MOL0     C87645   1.196   1.400   7.015 -0.4394 -0.0443 -1.1997
  636MOL0     C87646   1.110   1.416   6.899  0.0321 -0.4940  0.3866
  636MOL0     N87647   1.025   1.302   6.868 -0.8544 -0.6939  0.8356
  636MOL0     C87648   1.040   1.201   6.775  0.0188 -0.0920  0.5775
  636MOL0     C87649   0.935   1.113   6.783 -0.0313 -0.3446 -0.3206
  636MOL0     C87650   0.909   0.989   6.708  0.0351  0.2106  0.4534
  636MOL0     C87651   0.885   1.018   6.559  0.0706 -0.4574 -0.8723
  636MOL0     C87652   0.862   0.885   6.487 -0.5605  0.0033  0.2116
  636MOL0     C87653   0.713   0.858   6.474  0.3002  0.9643  0.1140
  636MOL0     O87654   0.651   0.889   6.352 -0.5048  0.0017  0.4218
  636MOL0     C87655   0.531   0.829   6.329 -0.1960 -0.5779 -0.0116
  636MOL0     C87656   0.463   0.728   6.399  0.0545 -0.2415 -0.1091
  636MOL0     C87657   0.342   0.667   6.352  0.2328 -0.9964 -0.6059
  636MOL0     C87658   0.263   0.581   6.456 -0.2438  0.7214  0.2020
  636MOL0     C87659   0.284   0.712   6.235  0.0882  0.7456 -0.6911
  636MOL0     C87660   0.156   0.668   6.181 -0.6024  0.5744  0.1282
  636MOL0     O87661   0.101   0.743   6.076  0.5151 -0.4774  0.1364
  636MOL0     C87662  -0.003   0.692   6.003  0.1062  0.8492 -0.7176
  636MOL0     C87663  -0.131   0.756   6.011 -0.1176 -0.3130  0.8088
  636MOL0     C87664  -0.232   0.710   5.924 -0.2954  0.4630 -0.3693
  636MOL0     C87665  -0.219   0.600   5.840 -1.2919 -0.0672  0.5489
  636MOL0     O87666  -0.317   0.559   5.757 -0.0806 -0.6970 -0.2759
  636MOL0     C87667  -0.450   0.581   5.787  0.4993 -0.4249  1.0428
  636MOL0     C87668  -0.512   0.685   5.694  0.4472 -0.4701 -0.3202
  636MOL0     C87669  -0.648   0.737   5.742  0.6746 -0.3191  0.0353
  636MOL0     C87670  -0.760   0.630   5.723  0.5763  0.1562 -0.3208
  636MOL0     C87671  -0.885   0.679   5.800 -0.7456  0.2478 -0.2029
  636MOL0     C87672  -1.010   0.593   5.775  1.0416 -0.1687 -0.6851
  636MOL0     C87673  -1.116   0.622   5.881 -0.0600  0.3591  0.8915
  636MOL0     C87674  -1.173   0.758   5.853 -0.2940  0.0771 -0.4019
  636MOL0    Cl87675  -1.243   0.773   5.690  0.1553 -0.2172  0.0835
  636MOL0     C87676  -0.096   0.531   5.854 -0.0483  0.0850 -0.6453
  636MOL0     C87677   0.011   0.575   5.930 -0.0085  0.7120  0.4165
  636MOL0     O87678   0.114   0.555   6.220 -0.1356 -0.1105 -0.4001
  636MOL0     C87679   0.353   0.803   6.155 -0.6879 -0.7494 -0.4680
  636MOL0     C87680   0.478   0.863   6.201 -0.3668  0.3963 -0.3429
  636MOL0     N87681   0.840   1.171   6.874 -0.8225  0.1106  0.8652
  636MOL0     N87682   0.901   1.278   6.928 -0.1475 -0.2677 -0.4902
  636MOL0     C87683   0.821   1.159   7.409  1.0863  0.2362 -0.6412
  636MOL0     C87684   0.679   1.148   7.412  0.2163  0.4765  0.2472
  636MOL0     C87685   0.238   1.220   7.494  0.1957 -0.7092 -1.0678
  636MOL0     C87686   0.169   1.188   7.383  0.1543  0.1942  0.3072
  636MOL0     C87687   0.030   1.195   7.393 -1.0486  0.0172 -0.3752
  636MOL0     C87688  -0.042   1.204   7.508  0.0343  0.3424  0.9748
  636MOL0     O87689  -0.178   1.185   7.490 -0.2166  0.5975 -0.4860
  636MOL0     C87690  -0.265   1.230   7.594  0.3165 -0.2455 -0.2394
  636MOL0     C87691  -0.280   1.124   7.699 -0.2041  0.0077  0.0525
  636MOL0     C87692  -0.388   1.157   7.804 -0.3153 -0.7270 -0.2250
  636MOL0     C87693  -0.338   1.258   7.907 -0.2151 -0.2691  0.2114
  636MOL0     C87694  -0.385   1.392   7.872  1.0341 -0.2017  0.0765
  636MOL0     C87695  -0.442   1.497   7.863 -0.7703 -0.0567 -0.2974
  636MOL0     C87696   0.032   1.232   7.623  0.1138 -0.0488 -0.6613
  636MOL0     C87697   0.168   1.250   7.619  0.2230  0.4642  0.9297
  636MOL0     C87698   0.245   1.282   7.745 -0.0503  0.2916 -0.1269
  636MOL0     H87699   0.625   1.170   7.752  2.3801  3.1699  1.0014
  636MOL0     H87700   0.855   1.192   7.754 -3.5840  0.2025  1.6089
  636MOL0     H87701   1.105   1.215   7.720 -1.2815 -1.1283  0.9227
  636MOL0     H87702   1.023   1.361   7.668  1.3742 -0.4631  0.0661
  636MOL0     H87703   1.288   1.336   7.646  0.2908  0.2232  0.5455
  636MOL0     H87704   1.254   1.260   7.496 -3.5463 -0.7584 -0.9888
  636MOL0     H87705   1.160   1.518   7.607  1.1977  0.4137  0.1218
  636MOL0     H87706   1.291   1.516   7.489  0.0509  0.2365 -1.2734
  636MOL0     H87707   1.014   1.421   7.404  0.4706 -2.9260 -1.9798
  636MOL0     H87708   1.090   1.574   7.364  1.0984 -0.6808 -3.2811
  636MOL0     H87709   1.264   1.334   7.274  1.1616  0.6744 -3.2580
  636MOL0     H87710   1.271   1.497   7.248  0.2214 -0.7793 -0.4735
  636MOL0     H87711   1.035   1.322   7.146  0.0294  0.1206 -4.1258
  636MOL0     H87712   1.044   1.498   7.141 -0.1226 -0.1381  3.7423
  636MOL0     H87713   1.245   1.303   7.021 -2.2012 -0.8987  0.4911
  636MOL0     H87714   1.270   1.481   7.015  2.0685 -2.0701  2.3965
  636MOL0     H87715   1.043   1.502   6.898 -0.0353 -0.5363 -1.1764
  636MOL0     H87716   1.165   1.422   6.805 -1.1859  0.5587 -0.2894
  636MOL0     H87717   1.112   1.192   6.695 -2.4405 -1.7647 -1.6004
  636MOL0     H87718   0.822   0.938   6.749  0.4301 -1.1824 -0.3896
  636MOL0     H87719   0.993   0.922   6.728  1.3856  2.3842  2.6950
  636MOL0     H87720   0.801   1.087   6.546  0.6306  0.5810  0.6710
  636MOL0     H87721   0.981   1.058   6.524  0.0821 -0.7247 -1.1515
  636MOL0     H87722   0.900   0.878   6.384 -0.3289  0.7185  0.2429
  636MOL0     H87723   0.917   0.807   6.540  1.9341  1.2583 -0.3368
  636MOL0     H87724   0.704   0.749   6.479 -1.9258  0.9797 -2.0104
  636MOL0     H87725   0.651   0.904   6.551 -0.7568  0.5298 -0.4635
  636MOL0     H87726   0.495   0.694   6.498 -0.6400  1.6771  0.8252
  636MOL0     H87727   0.325   0.555   6.542 -0.7773 -1.5910 -0.0303
  636MOL0     H87728   0.231   0.488   6.408  0.0449  1.7793 -2.1905
  636MOL0     H87729   0.179   0.641   6.491 -0.5093  0.3957  0.1361
  636MOL0     H87730  -0.152   0.840   6.076 -1.6507  1.2720 -1.5913
  636MOL0     H87731  -0.323   0.769   5.929 -0.8102 -0.3145 -0.2855
  636MOL0     H87732  -0.510   0.491   5.771  1.3910 -0.9903  0.7927
  636MOL0     H87733  -0.470   0.630   5.883 -1.4985  2.9303 -0.8979
  636MOL0     H87734  -0.438   0.763   5.674  1.5114 -1.9542 -2.4592
  636MOL0     H87735  -0.532   0.627   5.604 -1.4373  0.3875 -0.5197
  636MOL0     H87736  -0.686   0.817   5.678  1.1952 -0.0877  0.0166
  636MOL0     H87737  -0.648   0.766   5.847  0.1796 -0.7856  0.1757
  636MOL0     H87738  -0.728   0.531   5.758  2.4440 -0.3585 -3.1713
  636MOL0     H87739  -0.786   0.615   5.618 -2.5736  4.1202 -0.3321
  636MOL0     H87740  -0.854   0.672   5.905 -0.4698 -0.3624 -0.3216
  636MOL0     H87741  -0.903   0.785   5.779  2.2283  1.4612  2.5896
  636MOL0     H87742  -0.982   0.488   5.793  2.4096  0.1900 -0.5820
  636MOL0     H87743  -1.042   0.602   5.671 -1.4392  0.0164  0.0226
  636MOL0     H87744  -1.075   0.624   5.982  0.2773 -0.9712  0.7978
  636MOL0     H87745  -1.192   0.544   5.874  0.9060 -0.4587 -1.6911
  636MOL0     H87746  -1.104   0.841   5.871 -3.3724  2.7452  0.1814
  636MOL0     H87747  -1.255   0.770   5.925 -2.3307  0.8184 -2.7277
  636MOL0     H87748  -0.096   0.436   5.802  0.7105  0.1709 -0.8249
  636MOL0     H87749   0.097   0.510   5.940  1.0669  1.9572 -0.5328
  636MOL0     H87750   0.312   0.855   6.069  0.9975  1.8270  0.1528
  636MOL0     H87751   0.528   0.937   6.139  3.6310  0.7436  2.8776
  636MOL0     H87752   0.879   1.156   7.317 -2.7189 -0.4734 -3.2741
  636MOL0     H87753   0.624   1.151   7.318 -0.9905  1.8153  0.9733
  636MOL0     H87754   0.219   1.159   7.292  1.9241 -0.7188  1.5083
  636MOL0     H87755  -0.023   1.170   7.301  0.4096 -1.1479 -0.9337
  636MOL0     H87756  -0.231   1.323   7.640 -0.8781 -0.1244  0.4421
  636MOL0     H87757  -0.356   1.261   7.542  0.9025  0.8289 -0.6682
  636MOL0     H87758  -0.188   1.113   7.756 -0.6730 -0.6315  0.7048
  636MOL0     H87759  -0.315   1.037   7.642 -0.6298  0.3595 -0.2329
  636MOL0     H87760  -0.469   1.207   7.749  2.5286  1.8707 -2.4667
  636MOL0     H87761  -0.418   1.063   7.851  3.2895 -1.4292  0.9562
  636MOL0     H87762  -0.228   1.258   7.910 -0.0387  1.1931 -2.5394
  636MOL0     H87763  -0.369   1.230   8.008 -2.9329  1.8315  0.0585
  636MOL0     H87764  -0.484   1.595   7.863 -0.0474  0.3263 -2.7456
  636MOL0     H87765  -0.009   1.255   7.720  2.4282  2.3382 -0.1294
  636MOL0     H87766   0.322   1.352   7.711 -1.8857  0.9278 -3.4982
  636MOL0     H87767   0.192   1.329   7.829 -2.5608  0.4878 -1.6948
  636MOL0     H87768   0.276   1.183   7.777 -2.1153 -0.8376 -1.3654
  637MOL0     O87769   9.523   7.139   3.812  0.6377 -1.0962  0.4622
  637MOL0     C87770   9.402   7.108   3.805 -0.0683 -0.4879  0.0355
  637MOL0     O87771   9.309   7.125   3.901 -0.1965 -1.1676  0.5176
  637MOL0     C87772   9.314   7.211   4.011  0.2707 -0.4139  0.0641
  637MOL0     C87773   9.411   7.310   4.039  0.2024  0.6658  0.2037
  637MOL0     C87774   9.410   7.377   4.167  0.0407 -0.2606  0.9332
  637MOL0     C87775   9.312   7.358   4.261 -0.0616  0.5503  0.6062
  637MOL0     O87776   9.325   7.415   4.386  0.6178 -0.5416  1.2451
  637MOL0     C87777   9.238   7.362   4.486  0.1592 -0.0832 -1.0587
  637MOL0     C87778   9.242   7.447   4.615  0.2389  1.2062  0.4949
  637MOL0     C87779   9.382   7.442   4.676  0.3596 -0.5045  0.3421
  637MOL0     C87780   9.367   7.511   4.816 -0.4553 -0.9187 -0.0043
  637MOL0     C87781   9.489   7.528   4.901  0.2375 -0.6468  0.1743
  637MOL0     C87782   9.478   7.609   5.036 -1.1321  0.5122  0.6453
  637MOL0     C87783   9.396   7.550   5.148  0.5272  0.0674  0.2309
  637MOL0     C87784   9.378   7.649   5.269  0.5492 -0.3096 -0.0547
  637MOL0     N87785   9.314   7.579   5.379  0.5298 -0.0837 -0.2491
  637MOL0     C87786   9.185   7.533   5.381  0.4953 -0.4301  0.1503
  637MOL0     C87787   9.156   7.507   5.511 -0.9699 -0.4509 -0.1474
  637MOL0     C87788   9.029   7.467   5.584  0.6120  0.4360  0.3507
  637MOL0     C87789   8.932   7.594   5.601  0.6657  0.1764 -0.0959
  637MOL0     C87790   8.830   7.610   5.483 -0.8379 -0.7317  0.0576
  637MOL0     C87791   8.717   7.700   5.527  0.3953 -0.0353  0.3605
  637MOL0     O87792   8.764   7.827   5.575 -0.4149 -0.3335 -0.2319
  637MOL0     C87793   8.700   7.947   5.553  0.2955  0.3662 -0.5722
  637MOL0     C87794   8.570   7.954   5.533  0.2152 -0.1115 -0.0592
  637MOL0     C87795   8.500   8.077   5.527 -0.7252 -0.6729  0.7645
  637MOL0     C87796   8.350   8.075   5.503  0.3916  0.2476  0.2649
  637MOL0     C87797   8.568   8.203   5.555 -0.1097 -0.7810 -1.0627
  637MOL0     C87798   8.514   8.342   5.576 -0.0632 -0.1693 -0.0237
  637MOL0     O87799   8.600   8.444   5.565 -0.4254 -0.3050 -0.5950
  637MOL0     C87800   8.566   8.575   5.590  0.4769 -0.5967  0.7013
  637MOL0     C87801   8.636   8.677   5.517  0.6309  0.0065 -0.5243
  637MOL0     C87802   8.610   8.811   5.540 -0.3178 -0.6976 -0.0365
  637MOL0     C87803   8.518   8.852   5.643 -0.3024  0.2873 -0.1586
  637MOL0     O87804   8.496   8.981   5.673  0.1286 -0.0911  0.1599
  637MOL0     C87805   8.609   9.067   5.672 -0.2986 -0.0444  0.0408
  637MOL0     C87806   8.552   9.205   5.698 -0.0955 -0.1502 -0.0961
  637MOL0     C87807   8.575   9.234   5.846 -0.0765  0.3423 -0.5257
  637MOL0     C87808   8.477   9.148   5.936 -0.0111  0.0947  0.6950
  637MOL0     C87809   8.441   9.208   6.074 -0.6165  0.0119 -0.1635
  637MOL0     C87810   8.414   9.086   6.171 -0.1489  0.7636 -0.4499
  637MOL0     C87811   8.378   9.142   6.312  0.8125 -0.2358  0.2840
  637MOL0     C87812   8.230   9.151   6.337 -0.2719  0.5879 -0.6072
  637MOL0    Cl87813   8.194   9.193   6.503  0.2746  0.2089  0.2098
  637MOL0     C87814   8.452   8.757   5.714 -0.1362 -0.2775 -0.3780
  637MOL0     C87815   8.472   8.617   5.693 -0.4653  0.5448 -1.4138
  637MOL0     O87816   8.393   8.351   5.601  0.0460 -0.3108 -0.4061
  637MOL0     C87817   8.711   8.188   5.581  0.0324  0.2233 -0.1139
  637MOL0     C87818   8.772   8.059   5.582  0.9045  0.2413  0.0499
  637MOL0     N87819   9.272   7.531   5.581  0.4159  0.1097 -0.0408
  637MOL0     N87820   9.359   7.576   5.503  0.4916  0.3304 -0.4569
  637MOL0     C87821   9.214   7.263   4.231 -0.6189  1.0988 -0.0054
  637MOL0     C87822   9.215   7.200   4.105  0.3266  1.2185  0.3855
  637MOL0     C87823   9.360   7.031   3.676 -0.2775  0.1827 -0.0468
  637MOL0     C87824   9.225   7.051   3.627  0.5209  1.2639  0.4309
  637MOL0     C87825   9.179   6.991   3.510  1.5475 -0.0387 -0.0916
  637MOL0     C87826   9.251   6.900   3.437 -0.3787  0.1039  0.4695
  637MOL0     O87827   9.188   6.840   3.334 -0.7718 -0.8001 -0.0098
  637MOL0     C87828   9.228   6.717   3.295 -0.1254  0.3685 -0.5565
  637MOL0     C87829   9.154   6.679   3.165  0.7473 -0.2506  0.5529
  637MOL0     C87830   9.003   6.681   3.188 -0.8570 -1.0071  0.5592
  637MOL0     C87831   8.932   6.814   3.199  0.4959 -0.1956  0.9162
  637MOL0     C87832   8.789   6.792   3.187  0.1654 -0.6325  0.3592
  637MOL0     C87833   8.674   6.782   3.157 -0.4522 -0.4145  0.2893
  637MOL0     C87834   9.390   6.877   3.478  0.2113  1.3092 -0.1447
  637MOL0     C87835   9.444   6.944   3.593 -0.7154  0.5657 -0.1508
  637MOL0     C87836   9.581   6.914   3.634  0.3409 -0.2070 -0.0069
  637MOL0     H87837   9.482   7.336   3.960  0.4652 -2.4005 -0.6846
  637MOL0     H87838   9.483   7.456   4.179  2.2009 -1.6596 -1.9065
  637MOL0     H87839   9.271   7.259   4.503 -0.2725  0.0916  1.1201
  637MOL0     H87840   9.133   7.358   4.457 -0.0591  0.8104 -0.4479
  637MOL0     H87841   9.208   7.547   4.588  0.8981  1.0893 -0.8431
  637MOL0     H87842   9.167   7.405   4.682  0.5681  1.0592  0.7747
  637MOL0     H87843   9.403   7.336   4.691  0.9267 -0.9216 -2.8399
  637MOL0     H87844   9.460   7.484   4.611 -1.7800  0.8327 -1.5247
  637MOL0     H87845   9.314   7.606   4.806 -0.0699 -0.7805 -0.8173
  637MOL0     H87846   9.296   7.450   4.873 -2.6686  0.9597 -0.5795
  637MOL0     H87847   9.574   7.569   4.845  0.0889  1.6787  1.5324
  637MOL0     H87848   9.520   7.429   4.935  1.5124  0.1392  1.4024
  637MOL0     H87849   9.582   7.599   5.068 -1.1516 -1.3097  0.2957
  637MOL0     H87850   9.451   7.710   5.005  4.6876  1.4439 -2.6811
  637MOL0     H87851   9.439   7.460   5.191  1.5476  0.7285  0.6514
  637MOL0     H87852   9.298   7.525   5.108 -0.1956  1.4809  1.0480
  637MOL0     H87853   9.478   7.666   5.308  0.9931 -1.4008 -0.6857
  637MOL0     H87854   9.331   7.746   5.247  2.2394  0.4556 -0.4057
  637MOL0     H87855   9.115   7.529   5.298 -1.4223  0.7539  1.6148
  637MOL0     H87856   9.063   7.426   5.680  2.3200  0.1368 -0.3359
  637MOL0     H87857   8.971   7.385   5.542 -1.5203  1.5973  0.9025
  637MOL0     H87858   8.871   7.582   5.691 -0.0545  1.2970 -0.4102
  637MOL0     H87859   8.993   7.684   5.614  2.1836 -0.4026 -2.5118
  637MOL0     H87860   8.874   7.652   5.392  2.4518 -0.9683  1.3914
  637MOL0     H87861   8.788   7.513   5.458 -0.3083 -1.0132  0.2359
  637MOL0     H87862   8.665   7.720   5.432 -0.3080  1.8518  1.0961
  637MOL0     H87863   8.652   7.649   5.599 -1.6802  0.6593 -0.9340
  637MOL0     H87864   8.512   7.863   5.524  2.3789 -1.8097  1.8011
  637MOL0     H87865   8.327   8.161   5.439 -1.2929  0.5492  1.2389
  637MOL0     H87866   8.296   8.096   5.596  1.4168  0.1106  0.9091
  637MOL0     H87867   8.317   7.983   5.454  2.6156 -1.2753  1.4362
  637MOL0     H87868   8.709   8.656   5.439  0.8156  0.8177 -0.5803
  637MOL0     H87869   8.664   8.888   5.486 -0.0478 -0.8048  0.0752
  637MOL0     H87870   8.673   9.024   5.749 -1.0533 -1.9531 -0.3432
  637MOL0     H87871   8.664   9.068   5.577 -2.9813  0.8586 -1.6289
  637MOL0     H87872   8.614   9.278   5.645  1.1395  0.6995  2.3366
  637MOL0     H87873   8.446   9.217   5.671  0.2748  2.6481 -0.6271
  637MOL0     H87874   8.539   9.336   5.863 -1.6426 -0.4099  1.0971
  637MOL0     H87875   8.676   9.229   5.887 -1.0435  0.9502  2.1497
  637MOL0     H87876   8.515   9.045   5.937  0.2836  0.1730 -0.7346
  637MOL0     H87877   8.380   9.157   5.886  0.1241  0.8652  0.5641
  637MOL0     H87878   8.517   9.274   6.118 -0.7751  1.9135 -2.5236
  637MOL0     H87879   8.355   9.272   6.056 -1.3965 -1.0978 -0.4509
  637MOL0     H87880   8.509   9.032   6.179 -0.4689  0.4827  2.5740
  637MOL0     H87881   8.338   9.022   6.126  0.7341  0.4396 -1.5273
  637MOL0     H87882   8.420   9.243   6.308 -1.9807  0.9737 -1.3032
  637MOL0     H87883   8.423   9.083   6.392 -0.7837  2.3398  3.2954
  637MOL0     H87884   8.190   9.054   6.307  2.3302  0.0952 -2.8749
  637MOL0     H87885   8.192   9.227   6.268 -0.9611  1.6122  0.8336
  637MOL0     H87886   8.376   8.773   5.790 -1.8100 -3.7538 -1.0916
  637MOL0     H87887   8.410   8.554   5.756  0.6531  0.4172 -0.4023
  637MOL0     H87888   8.778   8.273   5.592  1.4805 -0.7910 -0.8485
  637MOL0     H87889   8.879   8.047   5.584  0.8927 -1.0184 -2.8061
  637MOL0     H87890   9.139   7.223   4.299  1.2427 -1.7256  0.5461
  637MOL0     H87891   9.138   7.130   4.075  0.7546  0.6378  0.6204
  637MOL0     H87892   9.152   7.107   3.685 -1.7896 -3.8460  3.1198
  637MOL0     H87893   9.076   7.012   3.482  1.8986  1.6461 -0.2147
  637MOL0     H87894   9.334   6.725   3.269 -0.2104  0.6183 -0.8253
  637MOL0     H87895   9.202   6.639   3.367 -3.0712 -1.6738 -3.5281
  637MOL0     H87896   9.182   6.575   3.148 -3.5483 -2.5282  4.9387
  637MOL0     H87897   9.183   6.746   3.083  2.7317 -1.2300  0.3972
  637MOL0     H87898   8.958   6.623   3.106 -0.3924 -3.0866  1.7105
  637MOL0     H87899   8.981   6.628   3.281 -0.9141 -1.2782  0.3931
  637MOL0     H87900   8.965   6.880   3.118 -1.1752  1.4843  1.5472
  637MOL0     H87901   8.948   6.870   3.292 -3.5000  0.4985  1.3436
  637MOL0     H87902   8.569   6.774   3.136 -0.3748  1.9827 -1.4787
  637MOL0     H87903   9.453   6.817   3.414 -1.5520  0.3124 -1.0429
  637MOL0     H87904   9.626   6.848   3.560 -1.1927 -2.6527  1.1192
  637MOL0     H87905   9.643   7.004   3.637 -1.2570  0.9317  0.2281
  637MOL0     H87906   9.570   6.869   3.733  2.1920 -1.1717 -0.1966
  638MOL0     O87907   4.487   4.095   1.702  0.2860  0.6998  0.4462
  638MOL0     C87908   4.387   4.032   1.732  1.0074 -0.3344 -0.3175
  638MOL0     O87909   4.381   3.916   1.811  0.4690  0.1498 -0.0063
  638MOL0     C87910   4.489   3.852   1.868  0.3235  0.2573  0.4820
  638MOL0     C87911   4.588   3.918   1.939 -0.5025 -0.2517 -0.2224
  638MOL0     C87912   4.690   3.850   1.989 -0.6485  0.1909 -0.2672
  638MOL0     C87913   4.700   3.712   1.975  0.4820  0.5760 -0.1273
  638MOL0     O87914   4.788   3.625   2.030  0.0546  0.6747 -0.3088
  638MOL0     C87915   4.792   3.646   2.176  0.4254  0.2013  0.1061
  638MOL0     C87916   4.940   3.683   2.201  0.1457 -0.5882 -0.0189
  638MOL0     C87917   4.960   3.678   2.359  0.3085  0.1748 -1.2853
  638MOL0     C87918   5.106   3.685   2.401 -0.1797 -0.3681  0.7393
  638MOL0     C87919   5.118   3.690   2.549  0.5149 -0.4196  0.4235
  638MOL0     C87920   5.049   3.811   2.622 -1.0864  0.7632  0.3890
  638MOL0     C87921   5.108   3.945   2.583  0.6493 -1.3974  0.2355
  638MOL0     C87922   5.256   3.957   2.595 -0.1514 -0.3534 -0.4476
  638MOL0     N87923   5.308   4.090   2.558  0.1879 -0.2410  0.0517
  638MOL0     C87924   5.414   4.142   2.623 -0.5354 -0.4062 -0.9569
  638MOL0     C87925   5.434   4.265   2.560 -0.5788 -0.4976  0.9320
  638MOL0     C87926   5.528   4.367   2.606 -0.5465 -0.3905 -0.3432
  638MOL0     C87927   5.566   4.369   2.754  0.1231  0.2089 -0.5933
  638MOL0     C87928   5.441   4.421   2.834  0.7719 -0.6666  0.5618
  638MOL0     C87929   5.419   4.577   2.821 -0.4537 -0.3726 -0.3805
  638MOL0     O87930   5.292   4.619   2.889  0.3766  0.2955 -0.7991
  638MOL0     C87931   5.168   4.601   2.826  0.3612 -0.2738 -0.5897
  638MOL0     C87932   5.154   4.550   2.708  0.9795  0.3431 -0.2280
  638MOL0     C87933   5.018   4.531   2.666 -0.8867  0.1145  0.6889
  638MOL0     C87934   4.990   4.469   2.533  0.1685  0.9930  0.8411
  638MOL0     C87935   4.907   4.584   2.734  0.0182 -0.6637 -0.3863
  638MOL0     C87936   4.764   4.569   2.691 -0.5160 -0.7919 -0.4014
  638MOL0     O87937   4.696   4.685   2.692  0.3941  0.5674 -0.1360
  638MOL0     C87938   4.586   4.683   2.615 -0.9935  0.2594  0.9823
  638MOL0     C87939   4.585   4.746   2.496  0.7743  1.0607  0.5284
  638MOL0     C87940   4.476   4.753   2.406  0.3070  0.2752 -0.3149
  638MOL0     C87941   4.361   4.677   2.436  0.7598  0.1147 -0.2184
  638MOL0     O87942   4.253   4.653   2.355  0.0655  0.0992 -0.5008
  638MOL0     C87943   4.275   4.680   2.212 -0.8964  0.3362 -0.4638
  638MOL0     C87944   4.145   4.686   2.125 -0.3944 -0.5054 -0.1484
  638MOL0     C87945   4.061   4.809   2.169 -0.1534 -0.1062  1.2666
  638MOL0     C87946   3.924   4.788   2.100  0.4615 -0.1439  0.5905
  638MOL0     C87947   3.841   4.910   2.121 -0.7460  0.1847  0.5211
  638MOL0     C87948   3.690   4.882   2.142  0.2473  0.6213 -1.0309
  638MOL0     C87949   3.626   4.818   2.020 -0.5635  0.2359 -1.0650
  638MOL0     C87950   3.479   4.782   2.039  0.1169  0.4232  0.7781
  638MOL0    Cl87951   3.385   4.933   2.075  0.1938 -0.5783 -0.1654
  638MOL0     C87952   4.361   4.614   2.565  0.5878  0.1947 -0.9234
  638MOL0     C87953   4.468   4.618   2.650  0.0502  0.2496  0.5556
  638MOL0     O87954   4.725   4.459   2.660  0.0075 -0.1245  0.2918
  638MOL0     C87955   4.929   4.637   2.861 -0.1796  0.5070 -0.5346
  638MOL0     C87956   5.061   4.645   2.906  0.6004  0.3932  1.0003
  638MOL0     N87957   5.337   4.278   2.460  0.7674 -0.3265 -0.0710
  638MOL0     N87958   5.262   4.170   2.466 -0.2271 -0.4477 -0.2986
  638MOL0     C87959   4.607   3.647   1.894  0.2120 -0.5021  0.5255
  638MOL0     C87960   4.506   3.718   1.842 -0.8595 -0.6251  0.2447
  638MOL0     C87961   4.264   4.080   1.675  0.9342  0.6176 -0.4527
  638MOL0     C87962   4.149   3.995   1.674  0.3925  0.3227 -0.5225
  638MOL0     C87963   4.024   4.028   1.610 -0.4819 -0.9214  0.9412
  638MOL0     C87964   4.015   4.149   1.542  0.5093  0.2486 -0.1445
  638MOL0     O87965   3.894   4.184   1.479 -0.4124 -0.3093 -0.7544
  638MOL0     C87966   3.775   4.167   1.562 -0.2682  0.2085  0.7596
  638MOL0     C87967   3.652   4.240   1.501 -1.1886 -0.1920 -0.9362
  638MOL0     C87968   3.660   4.389   1.521 -0.3714  0.2509 -0.4075
  638MOL0     C87969   3.525   4.455   1.485 -0.4840  0.1939 -0.4421
  638MOL0     C87970   3.507   4.594   1.532 -0.6137  0.2189 -0.3995
  638MOL0     C87971   3.504   4.710   1.573  0.4265 -0.1712 -0.1931
  638MOL0     C87972   4.120   4.238   1.548 -0.0781 -0.5080  0.1599
  638MOL0     C87973   4.236   4.210   1.622 -0.4673 -0.5612  0.3957
  638MOL0     C87974   4.337   4.329   1.617 -0.3005 -0.2683 -0.5916
  638MOL0     H87975   4.586   4.024   1.963  1.3548 -1.0182  4.2748
  638MOL0     H87976   4.769   3.903   2.040  0.7477  1.6344 -3.6239
  638MOL0     H87977   4.756   3.560   2.234  1.2318 -0.0251  0.2759
  638MOL0     H87978   4.742   3.736   2.211  1.3289  0.5479  0.5397
  638MOL0     H87979   5.009   3.612   2.154 -1.9439 -1.8687 -1.3422
  638MOL0     H87980   4.955   3.781   2.156 -0.5024  0.4352  1.9261
  638MOL0     H87981   4.899   3.752   2.412  0.5871 -0.0499 -0.6426
  638MOL0     H87982   4.924   3.579   2.386  0.2655  0.5157 -0.0200
  638MOL0     H87983   5.170   3.604   2.365 -1.0501  0.1498 -2.2563
  638MOL0     H87984   5.149   3.779   2.365 -1.1221 -0.9124 -2.0361
  638MOL0     H87985   5.221   3.689   2.586  0.2234 -1.1621  1.2434
  638MOL0     H87986   5.072   3.596   2.581  0.1269 -0.2957  0.2412
  638MOL0     H87987   4.941   3.810   2.606 -1.3831 -2.1266  1.8353
  638MOL0     H87988   5.069   3.801   2.729  1.4945 -1.5936 -0.2119
  638MOL0     H87989   5.057   4.023   2.641  1.6989  1.2150 -2.1446
  638MOL0     H87990   5.083   3.969   2.479  2.1334  1.5855  0.4930
  638MOL0     H87991   5.282   3.946   2.701  0.4856  0.0964 -0.5467
  638MOL0     H87992   5.313   3.887   2.535  1.7645  1.1016 -0.4390
  638MOL0     H87993   5.468   4.101   2.708  0.7818  2.0380 -0.5247
  638MOL0     H87994   5.494   4.462   2.564  0.5479 -0.1650 -0.7563
  638MOL0     H87995   5.623   4.355   2.553  0.6206  0.5361  1.4091
  638MOL0     H87996   5.592   4.267   2.785  0.5425  0.4415 -0.1539
  638MOL0     H87997   5.661   4.420   2.769  1.3499 -0.6196 -4.4854
  638MOL0     H87998   5.345   4.372   2.815  0.4601 -0.4289  1.4638
  638MOL0     H87999   5.463   4.394   2.938 -0.3715  0.0014  0.9940
  638MOL0     H88000   5.499   4.635   2.869 -0.5129 -0.9191  0.4028
  638MOL0     H88001   5.427   4.612   2.717  0.6336  3.6561  0.8543
  638MOL0     H88002   5.242   4.518   2.654 -0.4482 -1.3077 -1.7113
  638MOL0     H88003   4.946   4.369   2.542 -0.6192  1.2928  0.4142
  638MOL0     H88004   5.075   4.465   2.465 -0.9181 -0.3427 -0.5140
  638MOL0     H88005   4.927   4.537   2.476 -3.3755 -0.8299  2.2271
  638MOL0     H88006   4.682   4.784   2.465  0.2306  3.6245  1.7164
  638MOL0     H88007   4.490   4.800   2.310  1.5425 -1.7706 -1.2007
  638MOL0     H88008   4.326   4.775   2.199 -0.6400  0.1117 -1.1176
  638MOL0     H88009   4.326   4.593   2.170 -1.8707 -0.8935  0.7859
  638MOL0     H88010   4.168   4.688   2.018 -2.0377  1.6526 -0.5234
  638MOL0     H88011   4.091   4.593   2.142  0.5142 -0.8600  0.8884
  638MOL0     H88012   4.118   4.897   2.140 -0.8031 -0.5086 -1.5471
  638MOL0     H88013   4.044   4.802   2.277  1.6157 -3.7874  1.4728
  638MOL0     H88014   3.878   4.701   2.147 -0.2348  0.8066  1.7284
  638MOL0     H88015   3.954   4.782   1.995 -2.7531 -0.2308 -0.4389
  638MOL0     H88016   3.875   4.967   2.208 -0.0395  0.5518  0.0114
  638MOL0     H88017   3.866   4.983   2.044  2.1307 -0.0363  1.1115
  638MOL0     H88018   3.652   4.983   2.159  0.4005  1.1618 -3.5340
  638MOL0     H88019   3.680   4.818   2.231  2.1979  0.8525 -0.6044
  638MOL0     H88020   3.676   4.726   1.991  0.1392 -1.1419  3.6921
  638MOL0     H88021   3.630   4.894   1.941  1.8273  1.6352  0.3092
  638MOL0     H88022   3.464   4.699   2.109 -2.5290 -0.1189 -0.3003
  638MOL0     H88023   3.451   4.736   1.943 -0.4816 -1.6385  1.8657
  638MOL0     H88024   4.275   4.555   2.596  0.1354  1.1648 -0.2998
  638MOL0     H88025   4.477   4.569   2.746  0.5779  1.2205  1.0131
  638MOL0     H88026   4.858   4.683   2.929 -0.8609 -1.2616 -0.0128
  638MOL0     H88027   5.070   4.693   3.003 -4.8922  1.7101  1.2118
  638MOL0     H88028   4.612   3.540   1.875 -1.4763 -0.9502  2.2675
  638MOL0     H88029   4.432   3.666   1.783 -1.1457  1.8889 -1.7593
  638MOL0     H88030   4.163   3.903   1.730 -1.0307  2.2347  3.3231
  638MOL0     H88031   3.944   3.955   1.599  1.2625 -2.9263  0.9559
  638MOL0     H88032   3.752   4.061   1.573 -3.1472  0.5843 -0.7793
  638MOL0     H88033   3.787   4.206   1.664  0.5990  0.7099  0.4828
  638MOL0     H88034   3.570   4.208   1.566 -0.3881 -0.9608 -0.2701
  638MOL0     H88035   3.644   4.219   1.393 -2.4047 -4.7210 -0.1621
  638MOL0     H88036   3.678   4.395   1.628  1.9900  0.4083 -0.7574
  638MOL0     H88037   3.738   4.439   1.461 -2.6638  1.0702 -2.9342
  638MOL0     H88038   3.451   4.390   1.533  0.3595  0.5423  1.4189
  638MOL0     H88039   3.500   4.447   1.379  0.9059 -1.5879 -0.6903
  638MOL0     H88040   3.501   4.814   1.601 -0.6046  0.6357 -2.9571
  638MOL0     H88041   4.112   4.329   1.491  2.4055 -1.5576 -2.1080
  638MOL0     H88042   4.393   4.343   1.710 -1.1533  2.0696 -0.3603
  638MOL0     H88043   4.407   4.314   1.535  0.9018 -0.6050  0.4558
  638MOL0     H88044   4.282   4.422   1.597 -0.1119  0.2527  1.1166
  639MOL0     O88045  10.812   3.927   3.121 -0.4802  0.3036 -0.0074
  639MOL0     C88046  10.769   4.038   3.147  0.4452 -0.5279  0.3576
  639MOL0     O88047  10.847   4.148   3.159  0.1669 -0.0057  0.0218
  639MOL0     C88048  10.980   4.142   3.165  0.1062  0.0960  0.6032
  639MOL0     C88049  11.046   4.193   3.276 -0.6524  0.0400 -0.2906
  639MOL0     C88050  11.186   4.205   3.262 -0.3169 -0.2242 -0.0620
  639MOL0     C88051  11.261   4.166   3.144  0.3333 -0.3506  0.1546
  639MOL0     O88052  11.392   4.196   3.138  0.1342  1.0142  0.0854
  639MOL0     C88053  11.468   4.079   3.122 -0.5076 -0.3841 -0.0120
  639MOL0     C88054  11.586   4.105   3.032  0.1595  0.2447 -0.2800
  639MOL0     C88055  11.706   4.165   3.099  1.0856  0.3620 -0.7782
  639MOL0     C88056  11.800   4.242   3.003  0.2284  0.1257 -0.2378
  639MOL0     C88057  11.926   4.313   3.072 -0.7818 -0.4633  0.7396
  639MOL0     C88058  12.042   4.309   2.964 -0.1218  0.1932  0.1087
  639MOL0     C88059  12.026   4.394   2.829  0.0421 -0.0341 -0.3388
  639MOL0     C88060  12.148   4.403   2.737  0.1439  0.6849 -0.5376
  639MOL0     N88061  12.254   4.295   2.762  0.3161  0.0726 -0.6268
  639MOL0     C88062  12.387   4.309   2.797  0.1502  0.8237 -0.0741
  639MOL0     C88063  12.448   4.186   2.777 -0.5465  0.4883 -0.1694
  639MOL0     C88064  12.587   4.142   2.818 -0.4027 -0.2656  0.2734
  639MOL0     C88065  12.650   4.071   2.701 -0.2250 -0.4303 -0.4439
  639MOL0     C88066  12.797   4.034   2.721 -0.3769  0.2309  0.1060
  639MOL0     C88067  12.841   3.957   2.594  0.1769  0.6053 -0.8527
  639MOL0     O88068  12.759   3.851   2.556  0.0419  0.3317 -0.1707
  639MOL0     C88069  12.812   3.765   2.458 -0.2080 -0.1695 -0.7399
  639MOL0     C88070  12.730   3.668   2.412  0.7407  0.5359  0.1968
  639MOL0     C88071  12.767   3.551   2.335  0.6177 -0.2413 -0.1967
  639MOL0     C88072  12.661   3.456   2.283  0.8452 -0.3345 -0.1263
  639MOL0     C88073  12.908   3.542   2.305  0.3148 -1.1095  0.4049
  639MOL0     C88074  12.963   3.439   2.220  0.3023  0.7983  0.7785
  639MOL0     O88075  13.070   3.473   2.134 -0.2440  0.5008 -0.0069
  639MOL0     C88076  13.158   3.368   2.094 -0.5044  0.0291  0.2734
  639MOL0     C88077  13.193   3.259   2.177 -0.4511  0.2473  0.3632
  639MOL0     C88078  13.283   3.159   2.133 -0.6378 -0.3288  0.5124
  639MOL0     C88079  13.346   3.183   2.014 -1.7396  0.0168  0.5659
  639MOL0     O88080  13.428   3.077   1.996  0.0961  0.4351  0.6899
  639MOL0     C88081  13.544   3.093   1.907  0.4675 -0.4910 -0.5986
  639MOL0     C88082  13.666   3.003   1.928  0.2023 -0.2375  0.4309
  639MOL0     C88083  13.631   2.851   1.914  0.1478 -0.4415 -0.3475
  639MOL0     C88084  13.758   2.762   1.939  0.4038  0.0451  0.5112
  639MOL0     C88085  13.716   2.610   1.939 -0.2528 -0.6489 -0.3759
  639MOL0     C88086  13.840   2.515   1.946 -0.6921  0.9465 -0.0429
  639MOL0     C88087  13.910   2.521   2.083 -0.5167  0.5483  0.8771
  639MOL0     C88088  13.980   2.384   2.112 -0.1963 -0.5432  0.0265
  639MOL0    Cl88089  14.091   2.406   2.247 -0.0495 -0.2167  0.0572
  639MOL0     C88090  13.318   3.290   1.933  1.1785 -0.2642  0.3554
  639MOL0     C88091  13.218   3.380   1.971  0.1824 -0.2590  0.2462
  639MOL0     O88092  12.918   3.326   2.248  0.0557  1.0321 -0.1879
  639MOL0     C88093  12.980   3.659   2.334  0.6956 -0.3484  0.0647
  639MOL0     C88094  12.937   3.771   2.407 -0.4342  0.1348  0.2394
  639MOL0     N88095  12.352   4.096   2.723  0.1857 -0.4952  0.3370
  639MOL0     N88096  12.243   4.158   2.723 -0.6763  0.7152  0.3499
  639MOL0     C88097  11.190   4.114   3.037 -0.4047  0.1041 -0.0892
  639MOL0     C88098  11.052   4.106   3.049 -0.3701  0.8190 -0.0354
  639MOL0     C88099  10.629   4.049   3.187 -0.3453  0.1747  0.1051
  639MOL0     C88100  10.580   4.186   3.210 -0.0103  0.2169 -0.3422
  639MOL0     C88101  10.446   4.215   3.235  0.0773  0.1343 -0.1949
  639MOL0     C88102  10.357   4.111   3.235  0.7653 -0.9003  0.5028
  639MOL0     O88103  10.224   4.126   3.257 -0.2006  0.1663  0.0522
  639MOL0     C88104  10.158   4.210   3.164  0.0362  0.0095  0.2771
  639MOL0     C88105  10.112   4.348   3.225 -0.2874  0.2294 -0.0736
  639MOL0     C88106  10.051   4.348   3.358 -0.5686 -0.2082  0.4436
  639MOL0     C88107   9.948   4.463   3.367  0.2810 -0.5723 -0.0966
  639MOL0     C88108   9.888   4.444   3.495 -0.0664 -0.4785  0.3353
  639MOL0     C88109   9.841   4.412   3.598  0.0016 -0.3017  0.9982
  639MOL0     C88110  10.393   3.975   3.208  0.2988  0.4060 -0.2955
  639MOL0     C88111  10.535   3.942   3.181  1.1782 -0.4101  0.1748
  639MOL0     C88112  10.548   3.795   3.146 -0.2407 -0.6497  1.1635
  639MOL0     H88113  10.995   4.226   3.366 -1.1910  1.4398 -1.0832
  639MOL0     H88114  11.245   4.252   3.341 -2.2057 -1.8532  2.4579
  639MOL0     H88115  11.409   3.996   3.081 -2.3613  0.9399 -0.1731
  639MOL0     H88116  11.498   4.049   3.223  1.2886  0.1725 -0.3445
  639MOL0     H88117  11.618   4.006   2.996  3.5054  0.6833  1.1580
  639MOL0     H88118  11.562   4.164   2.943  0.6938 -1.7452 -1.8334
  639MOL0     H88119  11.673   4.240   3.172  2.1298 -1.5305  1.8071
  639MOL0     H88120  11.762   4.089   3.154  0.8844 -0.7754 -2.0937
  639MOL0     H88121  11.837   4.165   2.935  0.3091 -0.5716  0.5795
  639MOL0     H88122  11.739   4.308   2.940 -1.0666 -1.2433 -0.4698
  639MOL0     H88123  11.965   4.258   3.158  1.6100 -1.5103 -0.8959
  639MOL0     H88124  11.918   4.418   3.101  0.2697 -0.5718  1.4883
  639MOL0     H88125  12.134   4.339   3.015 -0.6114  0.3142  0.9400
  639MOL0     H88126  12.053   4.211   2.916 -3.6740  0.9892 -2.7959
  639MOL0     H88127  11.980   4.490   2.851 -1.2066 -0.5207 -0.7353
  639MOL0     H88128  11.948   4.346   2.769 -0.8895  0.0455  0.7649
  639MOL0     H88129  12.108   4.382   2.638  1.5165  1.7033 -1.3407
  639MOL0     H88130  12.189   4.504   2.732 -1.5745  1.3872 -0.9351
  639MOL0     H88131  12.432   4.394   2.846  1.1908 -0.1831  0.7654
  639MOL0     H88132  12.598   4.090   2.914 -0.8450 -0.5931  0.1526
  639MOL0     H88133  12.655   4.227   2.827  1.1625 -1.5612  1.2083
  639MOL0     H88134  12.597   3.976   2.692  1.4736 -1.4226 -0.5087
  639MOL0     H88135  12.632   4.127   2.609  2.5078 -1.4775 -1.7600
  639MOL0     H88136  12.859   4.125   2.723  0.9771 -0.6608 -0.1137
  639MOL0     H88137  12.820   3.980   2.813 -2.0853  2.4521  1.9758
  639MOL0     H88138  12.855   4.029   2.513  1.1483  0.7975 -0.5266
  639MOL0     H88139  12.942   3.923   2.618 -0.5111 -0.7672  0.2242
  639MOL0     H88140  12.625   3.683   2.436  0.5537 -1.3337  0.6932
  639MOL0     H88141  12.647   3.474   2.176  2.5540 -0.6227 -0.4185
  639MOL0     H88142  12.569   3.476   2.339  2.4293  1.9755  1.8870
  639MOL0     H88143  12.691   3.352   2.299 -1.4577 -1.1214 -0.5412
  639MOL0     H88144  13.162   3.259   2.281  0.8000 -0.1815  0.7489
  639MOL0     H88145  13.296   3.075   2.200 -0.2792 -1.2762 -0.6988
  639MOL0     H88146  13.508   3.087   1.804 -3.5235 -0.8683  0.6220
  639MOL0     H88147  13.569   3.198   1.926 -2.8857  0.1002  1.5007
  639MOL0     H88148  13.744   3.034   1.857 -1.4792 -0.4408 -1.5853
  639MOL0     H88149  13.693   3.022   2.032  1.7109 -0.0412  0.0305
  639MOL0     H88150  13.592   2.831   1.814 -1.8106  1.0955  0.0596
  639MOL0     H88151  13.560   2.817   1.990  0.4391 -1.7025 -0.6091
  639MOL0     H88152  13.806   2.788   2.033  2.0933  0.2423 -0.3592
  639MOL0     H88153  13.830   2.770   1.857  1.6217  0.2523  1.5704
  639MOL0     H88154  13.647   2.595   2.023 -0.0024  0.3115  0.0151
  639MOL0     H88155  13.658   2.594   1.848  0.3415  0.0387 -0.8882
  639MOL0     H88156  13.914   2.542   1.869  0.4542 -1.2433  0.2267
  639MOL0     H88157  13.808   2.412   1.928 -0.3604  0.8519 -0.0902
  639MOL0     H88158  13.833   2.535   2.160 -4.3837 -1.6231 -2.2511
  639MOL0     H88159  13.970   2.612   2.095 -1.3209  1.0977  0.8629
  639MOL0     H88160  14.036   2.349   2.024 -0.2427  1.0778 -0.6854
  639MOL0     H88161  13.901   2.315   2.143 -0.2482 -0.1276  0.8193
  639MOL0     H88162  13.373   3.311   1.842 -0.5475  1.9226 -0.2612
  639MOL0     H88163  13.180   3.466   1.917  1.2975 -0.1023 -0.3270
  639MOL0     H88164  13.082   3.662   2.295  1.6300  0.7719  2.4021
  639MOL0     H88165  13.005   3.854   2.426 -3.3200  2.6272  0.3947
  639MOL0     H88166  11.242   4.084   2.946  0.9236  2.5614 -0.2278
  639MOL0     H88167  10.992   4.062   2.969  0.8905 -1.1771  0.0422
  639MOL0     H88168  10.640   4.277   3.208 -1.1939  1.0394  0.6239
  639MOL0     H88169  10.412   4.315   3.259  0.2525  0.2091 -0.2562
  639MOL0     H88170  10.221   4.228   3.077 -2.1441  3.3751 -0.8133
  639MOL0     H88171  10.070   4.163   3.121 -0.3658  1.6614 -0.8023
  639MOL0     H88172  10.049   4.403   3.155  0.4827  0.3853 -0.6541
  639MOL0     H88173  10.207   4.402   3.226 -0.2725  0.1950  0.4695
  639MOL0     H88174  10.000   4.254   3.382  0.2920 -1.0771 -1.0221
  639MOL0     H88175  10.125   4.356   3.437 -0.8066 -2.4011  0.9662
  639MOL0     H88176   9.867   4.455   3.294 -0.1032  0.5929  0.1985
  639MOL0     H88177   9.999   4.559   3.360 -2.8172  1.1033 -1.3812
  639MOL0     H88178   9.780   4.382   3.681  1.5898 -0.2882  2.2206
  639MOL0     H88179  10.313   3.901   3.206  2.2411 -1.8015 -2.3347
  639MOL0     H88180  10.630   3.749   3.202  1.3666  0.3230 -0.2728
  639MOL0     H88181  10.453   3.746   3.170 -0.5588 -2.2195 -2.5319
  639MOL0     H88182  10.588   3.790   3.044  1.6979 -2.3582  1.9289
  640MOL0     O88183   6.128   2.681  11.191  0.1699 -0.4023  0.0760
  640MOL0     C88184   6.123   2.723  11.305  0.1774 -0.3639 -0.5714
  640MOL0     O88185   6.048   2.842  11.346  0.4216 -0.2079 -0.3673
  640MOL0     C88186   6.013   2.928  11.247  0.3408 -0.8443  0.0185
  640MOL0     C88187   6.112   3.003  11.185 -0.0450  0.1030 -0.2183
  640MOL0     C88188   6.065   3.093  11.089 -1.2338 -0.1802 -1.0096
  640MOL0     C88189   5.938   3.125  11.070 -0.2741 -0.2170  0.9407
  640MOL0     O88190   5.908   3.216  10.969 -0.5520  0.2850  0.2607
  640MOL0     C88191   5.773   3.224  10.922 -0.2446 -0.6653 -1.1492
  640MOL0     C88192   5.758   3.333  10.809  1.1308  0.2261 -0.3223
  640MOL0     C88193   5.609   3.345  10.771 -0.6888 -0.1542  0.3932
  640MOL0     C88194   5.590   3.460  10.667 -0.7178  0.2190 -0.1434
  640MOL0     C88195   5.451   3.467  10.602 -0.0284 -0.5327  0.2332
  640MOL0     C88196   5.391   3.330  10.563 -0.2611 -0.1698  1.2476
  640MOL0     C88197   5.278   3.356  10.467  0.0941 -0.6478  0.0128
  640MOL0     C88198   5.197   3.236  10.427  0.3908 -0.0216  0.3828
  640MOL0     N88199   5.275   3.135  10.352 -0.1615  0.1750 -1.0989
  640MOL0     C88200   5.304   3.126  10.219  0.7152 -0.8922 -0.9290
  640MOL0     C88201   5.361   3.005  10.207  0.5810  0.5966  0.1943
  640MOL0     C88202   5.393   2.936  10.078  0.3001  0.5309 -0.3200
  640MOL0     C88203   5.540   2.899  10.063  0.6848  0.2245 -0.1102
  640MOL0     C88204   5.643   3.013  10.078  0.3952 -0.0624 -0.2652
  640MOL0     C88205   5.658   3.097   9.954  0.3595  0.2233 -0.1822
  640MOL0     O88206   5.732   3.042   9.844  0.4312  0.1751 -0.1972
  640MOL0     C88207   5.866   3.047   9.841 -0.2284 -0.0758  0.2794
  640MOL0     C88208   5.951   3.118   9.933  0.1898  0.3973 -0.1925
  640MOL0     C88209   6.088   3.122   9.931  0.6106 -0.4005 -0.7812
  640MOL0     C88210   6.145   3.210  10.043  0.1025  0.6162 -0.2327
  640MOL0     C88211   6.148   3.045   9.834 -0.3287 -0.5660  0.6131
  640MOL0     C88212   6.296   3.046   9.819  0.3880 -0.4604  0.5848
  640MOL0     O88213   6.340   2.951   9.736 -0.1901  0.0050  0.1964
  640MOL0     C88214   6.479   2.940   9.728  0.3233 -0.0442  0.2781
  640MOL0     C88215   6.551   2.855   9.814  0.7266 -0.1275 -0.4063
  640MOL0     C88216   6.681   2.819   9.788 -0.6769  0.2298 -0.2157
  640MOL0     C88217   6.753   2.872   9.682 -0.5088  0.0692  0.3753
  640MOL0     O88218   6.881   2.829   9.670  0.3145 -0.1261  0.3239
  640MOL0     C88219   6.951   2.881   9.560 -0.7318 -0.1247 -0.3221
  640MOL0     C88220   7.097   2.845   9.564  0.1906  0.3315 -0.0141
  640MOL0     C88221   7.178   2.932   9.467  0.1423  0.1784  0.6383
  640MOL0     C88222   7.327   2.884   9.458  0.4976  0.2542  0.6735
  640MOL0     C88223   7.416   2.963   9.365  0.1815  0.7466 -0.3256
  640MOL0     C88224   7.564   2.928   9.399  0.0648  0.3019  0.7197
  640MOL0     C88225   7.657   2.979   9.288  0.8945  0.8352 -0.6728
  640MOL0     C88226   7.807   2.953   9.321 -0.7261  0.2462 -0.6813
  640MOL0    Cl88227   7.862   3.059   9.461 -0.2952 -0.2996  0.2639
  640MOL0     C88228   6.680   2.950   9.588 -0.0062  0.3170  0.2602
  640MOL0     C88229   6.546   2.980   9.614  0.1963  0.1106 -1.2082
  640MOL0     O88230   6.374   3.127   9.879  0.5883  0.2089 -0.0434
  640MOL0     C88231   6.067   2.973   9.738  0.5401 -0.0513  0.1036
  640MOL0     C88232   5.932   2.974   9.749 -0.3018  0.9698 -0.4895
  640MOL0     N88233   5.381   2.945  10.332 -0.9137 -0.4005  0.3345
  640MOL0     N88234   5.323   3.025  10.413  0.3736  0.5571  0.1378
  640MOL0     C88235   5.838   3.053  11.140  0.6180  1.1646 -0.4000
  640MOL0     C88236   5.878   2.952  11.226 -0.4620  0.2306 -0.6558
  640MOL0     C88237   6.176   2.657  11.429 -0.0179 -0.5104 -0.2387
  640MOL0     C88238   6.124   2.683  11.557  0.8000 -0.2786  0.1679
  640MOL0     C88239   6.183   2.642  11.677  0.9982  0.5219  0.6152
  640MOL0     C88240   6.293   2.558  11.676 -0.2072  0.3706 -0.3633
  640MOL0     O88241   6.333   2.506  11.796 -0.0420  0.3717 -0.0717
  640MOL0     C88242   6.471   2.473  11.817 -0.0022  1.0037 -0.5591
  640MOL0     C88243   6.491   2.342  11.902  0.2342  0.4696  0.2856
  640MOL0     C88244   6.636   2.310  11.928 -0.4332 -0.2232  0.5421
  640MOL0     C88245   6.650   2.159  11.966  0.7168 -1.3623 -0.0795
  640MOL0     C88246   6.719   2.143  12.087 -0.7450 -0.5807 -0.4447
  640MOL0     C88247   6.796   2.147  12.185  0.3552  0.4459 -0.0950
  640MOL0     C88248   6.341   2.513  11.548 -0.6348  0.2199  0.1215
  640MOL0     C88249   6.291   2.566  11.430 -0.4130 -0.4553  0.0988
  640MOL0     C88250   6.358   2.529  11.302  0.0462  0.0294  0.3524
  640MOL0     H88251   6.216   2.978  11.200 -1.0773 -3.6954  2.1940
  640MOL0     H88252   6.130   3.151  11.025  1.3484 -0.1516  1.4370
  640MOL0     H88253   5.713   3.269  11.002  2.3930  0.3140  0.4264
  640MOL0     H88254   5.738   3.131  10.877  3.5323 -0.5159 -5.0989
  640MOL0     H88255   5.785   3.430  10.852 -1.2529  1.4161 -1.3140
  640MOL0     H88256   5.824   3.318  10.722  1.0713 -1.1120 -0.1483
  640MOL0     H88257   5.591   3.248  10.724  2.2416 -0.2025 -0.8462
  640MOL0     H88258   5.543   3.353  10.858 -2.3975  0.6626 -0.8989
  640MOL0     H88259   5.629   3.550  10.715  0.5833 -1.8978  3.1644
  640MOL0     H88260   5.658   3.434  10.585  3.6224 -0.3389  3.2659
  640MOL0     H88261   5.450   3.520  10.506  1.1434  0.3574  0.6925
  640MOL0     H88262   5.384   3.513  10.674 -1.7972 -3.2487  0.4876
  640MOL0     H88263   5.456   3.274  10.495 -1.5275  2.2598 -2.3157
  640MOL0     H88264   5.364   3.270  10.650  1.7016 -1.7516  0.8546
  640MOL0     H88265   5.317   3.394  10.372  0.4674 -0.1600  0.3539
  640MOL0     H88266   5.220   3.433  10.518  1.0089 -0.0729  0.2084
  640MOL0     H88267   5.141   3.195  10.511 -0.3149 -1.6787 -0.8305
  640MOL0     H88268   5.129   3.274  10.350  0.9014 -0.3749 -0.2554
  640MOL0     H88269   5.281   3.194  10.137 -1.5725 -0.8292 -0.2826
  640MOL0     H88270   5.351   3.002  10.001 -1.8765  1.2156  1.3374
  640MOL0     H88271   5.336   2.842  10.082  1.5929 -0.2710 -0.0552
  640MOL0     H88272   5.559   2.824  10.141 -0.1460  0.8219  0.6903
  640MOL0     H88273   5.549   2.856   9.963  1.4527  1.3031 -0.5194
  640MOL0     H88274   5.609   3.082  10.156  2.4315  1.1998 -0.4347
  640MOL0     H88275   5.743   2.979  10.104  0.0026  0.2735  1.8643
  640MOL0     H88276   5.559   3.124   9.916 -0.2630  0.5049  1.5396
  640MOL0     H88277   5.713   3.186   9.985  3.1979 -0.9203 -1.6292
  640MOL0     H88278   5.900   3.166  10.016 -1.0867 -0.8393 -0.2319
  640MOL0     H88279   6.213   3.283   9.999  2.1525 -3.4679 -4.7636
  640MOL0     H88280   6.210   3.144  10.102 -1.4261 -1.2349 -0.5269
  640MOL0     H88281   6.072   3.256  10.111 -0.5639  1.7600 -1.6731
  640MOL0     H88282   6.498   2.818   9.901 -3.3111  1.2972 -1.9888
  640MOL0     H88283   6.735   2.750   9.851 -1.7734 -2.1980 -1.7657
  640MOL0     H88284   6.908   2.849   9.465  0.1151 -2.5891  0.0468
  640MOL0     H88285   6.957   2.990   9.571  1.0766 -0.2269  0.0478
  640MOL0     H88286   7.132   2.858   9.667 -0.6479  2.2553  0.0513
  640MOL0     H88287   7.107   2.740   9.533 -2.7528  0.0491 -0.2424
  640MOL0     H88288   7.169   3.038   9.495  1.9252  0.0992  1.6455
  640MOL0     H88289   7.150   2.922   9.362 -0.3685 -0.1377  0.7975
  640MOL0     H88290   7.322   2.791   9.401  0.0317 -1.2291  2.9814
  640MOL0     H88291   7.376   2.860   9.553 -1.2991 -0.1226  1.5474
  640MOL0     H88292   7.392   2.943   9.261 -0.7384 -2.1408  0.3392
  640MOL0     H88293   7.399   3.067   9.395  1.7443  0.2274  2.8218
  640MOL0     H88294   7.576   2.822   9.420  0.9273  0.4404  0.9648
  640MOL0     H88295   7.585   2.984   9.490 -0.1108  2.8716 -0.7125
  640MOL0     H88296   7.641   3.087   9.284  1.1935  1.1250  2.5960
  640MOL0     H88297   7.624   2.937   9.193  0.0506 -1.2061  0.4436
  640MOL0     H88298   7.869   2.965   9.232  1.7580 -4.2271  0.1911
  640MOL0     H88299   7.816   2.846   9.342 -2.0834  0.4193  1.0270
  640MOL0     H88300   6.734   2.983   9.500  1.2381 -0.8361  0.5560
  640MOL0     H88301   6.488   3.023   9.533 -0.0330 -1.0677 -1.6902
  640MOL0     H88302   6.115   2.906   9.667 -0.5643 -3.8969  2.6430
  640MOL0     H88303   5.881   2.903   9.686  0.8970 -0.3875  0.0183
  640MOL0     H88304   5.733   3.054  11.113  1.1424  0.5202 -2.6747
  640MOL0     H88305   5.815   2.871  11.263  0.4414 -1.2057 -2.0963
  640MOL0     H88306   6.046   2.760  11.558  0.9903 -0.0879  0.7622
  640MOL0     H88307   6.131   2.668  11.769  0.2282 -0.0312  0.3498
  640MOL0     H88308   6.529   2.456  11.726 -0.4236  1.5537 -0.9363
  640MOL0     H88309   6.517   2.563  11.860 -2.1056  1.7675  0.2009
  640MOL0     H88310   6.444   2.256  11.854 -0.4585  0.7120  0.5096
  640MOL0     H88311   6.437   2.354  11.997  0.5771 -0.3335  0.5877
  640MOL0     H88312   6.693   2.334  11.838 -0.5428  0.1147  0.5616
  640MOL0     H88313   6.650   2.381  12.009 -0.3972  1.3235 -0.7582
  640MOL0     H88314   6.674   2.094  11.881  0.1489 -2.4419  0.5610
  640MOL0     H88315   6.555   2.128  12.011  1.3442 -0.5145  1.9527
  640MOL0     H88316   6.855   2.138  12.274 -1.0264 -3.5010  0.6226
  640MOL0     H88317   6.434   2.457  11.552  0.1071  1.4529  2.9798
  640MOL0     H88318   6.288   2.485  11.229 -0.4624  1.7753 -0.2748
  640MOL0     H88319   6.411   2.615  11.259 -1.1764  0.5319 -0.2191
  640MOL0     H88320   6.426   2.448  11.326 -1.7810 -1.3187  1.2044
  641MOL0     O88321   2.043   0.848   3.501 -0.4657  0.4247  0.3034
  641MOL0     C88322   1.959   0.826   3.419 -1.2511  0.1928  0.5775
  641MOL0     O88323   1.995   0.808   3.284 -0.3506 -0.3176  0.6438
  641MOL0     C88324   2.108   0.878   3.243  0.1484 -0.3886 -0.0025
  641MOL0     C88325   2.093   1.012   3.203  0.3964  0.4003  0.0622
  641MOL0     C88326   2.207   1.086   3.176  0.4095 -0.6316 -0.6400
  641MOL0     C88327   2.338   1.031   3.182  0.9866 -0.0885  0.0707
  641MOL0     O88328   2.454   1.091   3.154 -0.3790  0.5437 -0.1024
  641MOL0     C88329   2.478   1.232   3.198  1.0860  0.3284 -1.1615
  641MOL0     C88330   2.610   1.298   3.165  0.3622 -0.5285  0.3214
  641MOL0     C88331   2.727   1.205   3.187  0.4238 -0.3140  0.2279
  641MOL0     C88332   2.871   1.261   3.182  0.4129 -0.6703 -0.1039
  641MOL0     C88333   2.895   1.356   3.057  0.2677  0.0910  0.7838
  641MOL0     C88334   3.041   1.342   3.024 -0.2138 -0.0434  0.7327
  641MOL0     C88335   3.150   1.396   3.115  0.4620 -1.1248 -0.2258
  641MOL0     C88336   3.290   1.353   3.082  0.0591 -0.3510 -0.0737
  641MOL0     N88337   3.334   1.216   3.131  0.4711  0.4660 -0.4889
  641MOL0     C88338   3.283   1.125   3.222 -0.2468 -1.0378  0.3457
  641MOL0     C88339   3.367   1.021   3.212 -1.0262 -0.6864  0.3084
  641MOL0     C88340   3.357   0.891   3.282 -0.0090  0.1598 -0.6163
  641MOL0     C88341   3.449   0.883   3.399 -0.1796 -0.1632  0.0449
  641MOL0     C88342   3.436   1.002   3.493  0.6913 -0.6256 -0.2692
  641MOL0     C88343   3.532   0.997   3.609  0.4139  0.3458 -0.4649
  641MOL0     O88344   3.475   0.904   3.703 -0.2073  0.3203  0.0761
  641MOL0     C88345   3.534   0.911   3.829 -0.1167 -0.3449  0.5153
  641MOL0     C88346   3.551   1.026   3.910 -0.5796 -0.3358  0.1334
  641MOL0     C88347   3.625   1.024   4.026  0.1798 -0.0848  0.4880
  641MOL0     C88348   3.649   1.163   4.089  0.2815  0.2170  0.1614
  641MOL0     C88349   3.665   0.901   4.076 -0.2914 -0.1875 -0.1072
  641MOL0     C88350   3.757   0.889   4.195 -0.8397 -0.0679  0.3961
  641MOL0     O88351   3.796   0.755   4.223 -0.4434 -0.7544 -0.1001
  641MOL0     C88352   3.895   0.740   4.315  0.0186  0.4108 -0.5003
  641MOL0     C88353   4.020   0.718   4.269  0.0058  0.5943  0.4287
  641MOL0     C88354   4.131   0.700   4.349  0.3645 -0.1978 -0.9729
  641MOL0     C88355   4.109   0.694   4.484  1.1918  0.4068  0.3090
  641MOL0     O88356   4.221   0.681   4.558  0.1454  0.1551 -0.4417
  641MOL0     C88357   4.205   0.715   4.695  0.2904 -0.4673 -0.3497
  641MOL0     C88358   4.340   0.717   4.764  0.2206  0.1121 -0.5183
  641MOL0     C88359   4.419   0.850   4.772 -0.4162  0.4019  0.3470
  641MOL0     C88360   4.501   0.870   4.901  0.2785  0.5981 -0.4937
  641MOL0     C88361   4.571   1.005   4.880  0.8198  0.1174  0.0777
  641MOL0     C88362   4.656   1.061   4.999  0.4111  0.0887  0.3864
  641MOL0     C88363   4.685   1.212   4.982 -0.6229 -0.1798  0.0100
  641MOL0     C88364   4.818   1.256   5.041 -0.7442  0.4523  0.0233
  641MOL0    Cl88365   4.852   1.195   5.212  0.1566 -0.3335 -0.0602
  641MOL0     C88366   3.968   0.698   4.538 -0.5250  0.2365 -0.0731
  641MOL0     C88367   3.864   0.726   4.445 -0.2845  0.6158  0.0597
  641MOL0     O88368   3.801   0.989   4.254  0.4433  0.8263  1.0156
  641MOL0     C88369   3.623   0.784   4.007 -0.9149  1.2351 -0.5805
  641MOL0     C88370   3.560   0.783   3.884 -0.3093  0.1254 -0.2172
  641MOL0     N88371   3.469   1.057   3.117  0.0979 -0.1349 -0.2640
  641MOL0     N88372   3.449   1.171   3.069 -0.5531  0.3825 -0.6668
  641MOL0     C88373   2.355   0.905   3.228  0.6750  0.1857  0.0219
  641MOL0     C88374   2.239   0.822   3.259 -0.4175  0.3217  0.3754
  641MOL0     C88375   1.811   0.818   3.444  0.1043 -0.0695  0.0494
  641MOL0     C88376   1.724   0.830   3.336  0.0209  0.0845 -0.4296
  641MOL0     C88377   1.581   0.827   3.352  0.8639 -0.1154 -1.1417
  641MOL0     C88378   1.536   0.805   3.483 -0.7408 -0.0920 -0.1860
  641MOL0     O88379   1.402   0.788   3.517  0.2990 -0.1331  0.6427
  641MOL0     C88380   1.351   0.663   3.475  0.0321 -0.9367  0.7208
  641MOL0     C88381   1.400   0.547   3.570  0.2608  0.1398  0.3987
  641MOL0     C88382   1.347   0.417   3.508  0.1140 -0.2643 -0.5350
  641MOL0     C88383   1.363   0.292   3.599 -0.1452 -0.0612 -0.5187
  641MOL0     C88384   1.288   0.183   3.549 -0.3996 -0.2159  0.4195
  641MOL0     C88385   1.230   0.100   3.481  0.2086 -0.1533  0.1586
  641MOL0     C88386   1.621   0.795   3.588 -0.8802  0.5568  0.6788
  641MOL0     C88387   1.766   0.798   3.576 -0.5552  0.7305  0.1376
  641MOL0     C88388   1.840   0.768   3.692 -0.1770 -0.2898 -0.4412
  641MOL0     H88389   1.995   1.059   3.198  1.5483  2.7917 -1.9773
  641MOL0     H88390   2.178   1.181   3.134  0.3574  0.5662  1.9579
  641MOL0     H88391   2.471   1.222   3.307  0.1727 -1.5535 -1.3604
  641MOL0     H88392   2.402   1.300   3.157  2.3161  0.6094 -3.0885
  641MOL0     H88393   2.607   1.328   3.059  3.2609 -1.5571 -0.1172
  641MOL0     H88394   2.634   1.383   3.229 -2.4230  2.2125 -1.9164
  641MOL0     H88395   2.720   1.157   3.284  1.4430 -1.4900 -0.2607
  641MOL0     H88396   2.711   1.117   3.124  0.1605 -1.5158  1.9076
  641MOL0     H88397   2.890   1.325   3.268  4.0317  0.1361 -1.3560
  641MOL0     H88398   2.948   1.183   3.173  1.4681  0.5275 -2.2032
  641MOL0     H88399   2.873   1.461   3.073 -3.1575 -0.4995  0.6818
  641MOL0     H88400   2.834   1.324   2.971  1.0712  0.0309  0.2198
  641MOL0     H88401   3.060   1.236   3.004 -0.2048  0.1183 -0.1653
  641MOL0     H88402   3.054   1.391   2.927 -0.1862 -2.2671 -0.4517
  641MOL0     H88403   3.121   1.368   3.217 -0.8562  1.1643  0.0923
  641MOL0     H88404   3.148   1.505   3.108  5.2748 -0.9896 -3.5304
  641MOL0     H88405   3.314   1.358   2.975  3.2087 -0.0787  0.5464
  641MOL0     H88406   3.351   1.435   3.120 -2.5793  1.8307 -0.2318
  641MOL0     H88407   3.194   1.131   3.284  0.4939  0.5312  1.3368
  641MOL0     H88408   3.396   0.815   3.214 -0.2562  1.7871 -2.7311
  641MOL0     H88409   3.255   0.885   3.322 -0.0397  2.1292 -0.3064
  641MOL0     H88410   3.427   0.794   3.458 -1.2763  0.1321  0.1089
  641MOL0     H88411   3.552   0.880   3.363  0.5354  1.6895  1.7413
  641MOL0     H88412   3.433   1.100   3.443 -0.9836 -0.0111  0.9610
  641MOL0     H88413   3.336   0.984   3.532  0.6904 -1.7986 -0.7786
  641MOL0     H88414   3.629   0.966   3.572  0.3050 -2.2506  1.2111
  641MOL0     H88415   3.549   1.097   3.651 -1.1602  0.2134  0.5973
  641MOL0     H88416   3.528   1.129   3.884  0.3833 -0.2243 -0.3210
  641MOL0     H88417   3.572   1.233   4.055  0.2679 -0.1226 -0.5279
  641MOL0     H88418   3.751   1.198   4.070  0.5841  0.3589  1.8805
  641MOL0     H88419   3.630   1.159   4.197  1.2723  0.3350  0.3520
  641MOL0     H88420   4.033   0.729   4.162 -1.0335  2.4028  0.4452
  641MOL0     H88421   4.231   0.685   4.310  1.2293 -0.2331  1.1106
  641MOL0     H88422   4.168   0.816   4.714  0.1143 -0.4443 -0.8257
  641MOL0     H88423   4.148   0.637   4.747 -0.7597  0.9772  0.7692
  641MOL0     H88424   4.310   0.711   4.869  1.2416  1.9943 -0.0616
  641MOL0     H88425   4.402   0.629   4.745 -0.3963 -0.9447  1.9512
  641MOL0     H88426   4.349   0.933   4.755  1.9525  2.2472 -1.1043
  641MOL0     H88427   4.490   0.854   4.689 -0.1084 -0.7863  0.5325
  641MOL0     H88428   4.575   0.790   4.907  0.5184  0.8363 -0.3002
  641MOL0     H88429   4.429   0.851   4.981 -2.9916 -2.6865 -3.7951
  641MOL0     H88430   4.642   0.996   4.797  3.5569 -1.1340  2.3728
  641MOL0     H88431   4.498   1.079   4.845 -2.6100 -1.0655  3.9613
  641MOL0     H88432   4.744   0.996   4.998 -1.3694 -2.4794  1.3883
  641MOL0     H88433   4.600   1.060   5.092 -0.7493  3.6148 -0.1256
  641MOL0     H88434   4.611   1.277   5.030  0.5344  0.5081  0.9314
  641MOL0     H88435   4.683   1.234   4.875 -1.1994 -2.4992 -0.5214
  641MOL0     H88436   4.831   1.364   5.035  1.3905  0.3779  1.7814
  641MOL0     H88437   4.888   1.209   4.970 -2.8199 -1.5810 -0.8069
  641MOL0     H88438   3.957   0.693   4.646 -2.9066 -1.8850 -0.3138
  641MOL0     H88439   3.761   0.744   4.476 -0.3539  0.1804  0.0877
  641MOL0     H88440   3.638   0.683   4.045 -1.2159  1.5089  0.2799
  641MOL0     H88441   3.555   0.684   3.841  5.8964 -0.3643 -0.7474
  641MOL0     H88442   2.456   0.868   3.240 -0.6671 -3.6336  1.0296
  641MOL0     H88443   2.252   0.717   3.280  0.1257 -0.1206 -1.8504
  641MOL0     H88444   1.753   0.873   3.241 -1.2097  4.0627  0.8060
  641MOL0     H88445   1.508   0.836   3.272  1.3600 -0.1032 -1.5947
  641MOL0     H88446   1.242   0.662   3.467  0.1503 -1.5290 -2.0121
  641MOL0     H88447   1.372   0.632   3.372 -1.0941 -0.8670  0.4518
  641MOL0     H88448   1.333   0.564   3.655 -1.2055  0.7375 -0.8235
  641MOL0     H88449   1.508   0.541   3.584  0.0340 -1.2302  1.8273
  641MOL0     H88450   1.240   0.435   3.494  0.3948  3.9011  1.2053
  641MOL0     H88451   1.397   0.397   3.413  1.7642  0.8094  0.0518
  641MOL0     H88452   1.329   0.306   3.702 -1.3380 -0.9368 -0.7740
  641MOL0     H88453   1.467   0.260   3.588 -0.6584 -1.4921 -1.4773
  641MOL0     H88454   1.169   0.027   3.430 -0.0057 -1.3507  2.0281
  641MOL0     H88455   1.576   0.771   3.684 -1.6057  0.9079  0.4299
  641MOL0     H88456   1.765   0.746   3.769 -0.0847  0.6457 -0.0766
  641MOL0     H88457   1.918   0.692   3.683  1.3027  1.3758 -2.5135
  641MOL0     H88458   1.886   0.859   3.731  0.5419 -0.1512 -1.5702
  642MOL0     O88459   8.375  11.380   0.492 -0.3798 -0.1125 -0.9293
  642MOL0     C88460   8.481  11.399   0.447 -0.2477  0.1400 -0.0512
  642MOL0     O88461   8.518  11.523   0.406 -0.7433  0.3505 -0.3089
  642MOL0     C88462   8.421  11.616   0.396  0.3373 -0.0374 -0.6315
  642MOL0     C88463   8.384  11.698   0.502 -0.0555  1.0826 -0.3312
  642MOL0     C88464   8.292  11.802   0.489  0.6833 -0.0711  0.3794
  642MOL0     C88465   8.225  11.826   0.370  0.5610  0.0879  1.0446
  642MOL0     O88466   8.149  11.934   0.339  0.6684 -0.1767  0.3102
  642MOL0     C88467   8.064  11.986   0.442  0.1373 -0.1903  0.7883
  642MOL0     C88468   7.960  12.073   0.376 -0.2391  0.2769  0.4789
  642MOL0     C88469   7.867  12.130   0.480 -0.2179  0.0276  0.5727
  642MOL0     C88470   7.747  12.193   0.409 -0.8833 -0.5217  0.8081
  642MOL0     C88471   7.663  12.255   0.518 -0.0262 -0.1996  0.0378
  642MOL0     C88472   7.576  12.149   0.581  1.0365  0.6915  0.0822
  642MOL0     C88473   7.437  12.139   0.517  0.1964  0.5176 -0.5800
  642MOL0     C88474   7.354  12.018   0.564 -0.1428  0.0943 -0.8244
  642MOL0     N88475   7.423  11.901   0.519  0.1103 -0.0474 -0.2453
  642MOL0     C88476   7.489  11.816   0.598 -0.6225  0.1524  0.2790
  642MOL0     C88477   7.518  11.703   0.520  0.5402 -1.0936 -0.2875
  642MOL0     C88478   7.572  11.580   0.584 -0.7607 -0.6917  0.4026
  642MOL0     C88479   7.488  11.519   0.703  0.5597 -0.3659 -0.1200
  642MOL0     C88480   7.546  11.398   0.774  0.1580 -0.2663 -0.4243
  642MOL0     C88481   7.445  11.341   0.874 -0.2247  0.6394 -0.8370
  642MOL0     O88482   7.340  11.266   0.811  0.0179 -0.9030  0.4287
  642MOL0     C88483   7.271  11.175   0.879  0.3705  0.6302 -0.1671
  642MOL0     C88484   7.261  11.164   1.014 -0.3146 -0.4499 -0.4975
  642MOL0     C88485   7.184  11.068   1.079  0.3871  0.4272  0.6807
  642MOL0     C88486   7.187  11.080   1.225 -0.0742  0.4521 -0.0477
  642MOL0     C88487   7.112  10.970   0.998  0.8884  0.5225 -0.7528
  642MOL0     C88488   7.027  10.856   1.050  0.2147 -0.2377 -0.4041
  642MOL0     O88489   7.053  10.820   1.180 -0.5049  0.5066  0.1064
  642MOL0     C88490   6.995  10.707   1.242 -0.1816 -1.1056  0.7201
  642MOL0     C88491   7.059  10.582   1.249 -0.3082  0.3056  0.1552
  642MOL0     C88492   6.992  10.469   1.299 -0.0381  0.6938 -0.4699
  642MOL0     C88493   6.865  10.479   1.352 -0.4286 -1.2144 -1.1782
  642MOL0     O88494   6.809  10.367   1.397  0.5106  0.5663 -0.3970
  642MOL0     C88495   6.661  10.361   1.399  0.2297 -0.0188  0.3315
  642MOL0     C88496   6.623  10.221   1.443 -0.0966  0.1328 -0.2317
  642MOL0     C88497   6.540  10.138   1.337 -0.0342  0.1210 -0.3219
  642MOL0     C88498   6.508  10.000   1.396 -0.4127 -0.1572 -0.1806
  642MOL0     C88499   6.447   9.900   1.299  0.1933 -0.2476  0.5848
  642MOL0     C88500   6.392   9.773   1.363 -0.1217 -0.4117  0.3424
  642MOL0     C88501   6.274   9.801   1.461  0.1216  0.0873 -0.9694
  642MOL0     C88502   6.218   9.666   1.506 -0.2599 -0.0459 -0.5993
  642MOL0    Cl88503   6.094   9.672   1.642 -0.2261 -0.2698 -0.3341
  642MOL0     C88504   6.793  10.607   1.348 -0.5348  0.6917 -0.1655
  642MOL0     C88505   6.853  10.721   1.291 -0.2418  0.3478 -0.0071
  642MOL0     O88506   6.936  10.818   0.979 -0.1640  0.2678 -0.2116
  642MOL0     C88507   7.108  10.992   0.855 -0.4048 -0.3189  0.1974
  642MOL0     C88508   7.189  11.091   0.802 -0.8136  1.0430  0.8899
  642MOL0     N88509   7.477  11.732   0.392  0.1360  0.1892  0.2466
  642MOL0     N88510   7.423  11.850   0.392  0.3144  0.7772  0.2033
  642MOL0     C88511   8.255  11.727   0.265  0.1222  0.1446  0.0760
  642MOL0     C88512   8.367  11.638   0.270 -0.3705  0.2116  0.7032
  642MOL0     C88513   8.578  11.293   0.429  0.5761 -0.1120 -0.3558
  642MOL0     C88514   8.650  11.273   0.311  0.8048  0.3386 -0.4558
  642MOL0     C88515   8.740  11.170   0.297  0.1176  0.4972 -0.2113
  642MOL0     C88516   8.764  11.075   0.399  0.7319  0.4217 -1.1642
  642MOL0     O88517   8.859  10.980   0.394  0.0363  0.5623  0.0864
  642MOL0     C88518   8.840  10.840   0.426  0.0133  0.4636 -0.5340
  642MOL0     C88519   8.954  10.749   0.384  1.1355  0.1304  0.4154
  642MOL0     C88520   8.944  10.681   0.249 -0.0799  0.5058  0.5271
  642MOL0     C88521   8.981  10.786   0.136  0.2927 -0.0061  0.1099
  642MOL0     C88522   8.956  10.729   0.002  0.4949  0.3550  0.2028
  642MOL0     C88523   8.919  10.681  -0.097  0.3416  0.2696  0.9590
  642MOL0     C88524   8.684  11.089   0.517 -0.5718 -0.4398 -0.4079
  642MOL0     C88525   8.598  11.200   0.536  0.4195  0.3165  1.1172
  642MOL0     C88526   8.548  11.216   0.680  0.1692  0.5947 -0.2545
  642MOL0     H88527   8.440  11.703   0.595  0.4115  1.9891 -0.6471
  642MOL0     H88528   8.293  11.876   0.568  0.8425  3.7715 -2.8838
  642MOL0     H88529   8.134  12.030   0.513  1.4990 -1.6971  0.4415
  642MOL0     H88530   8.018  11.899   0.490  0.2113  0.2478  1.6816
  642MOL0     H88531   8.006  12.159   0.328 -1.5902  1.1876  0.7728
  642MOL0     H88532   7.903  12.017   0.301  2.2211 -0.0302 -1.3010
  642MOL0     H88533   7.845  12.045   0.545  2.5997 -1.7991 -0.6291
  642MOL0     H88534   7.923  12.204   0.538  1.5842 -1.7440  1.2137
  642MOL0     H88535   7.775  12.272   0.339 -0.9276  0.2609  1.6537
  642MOL0     H88536   7.696  12.112   0.356 -1.7180 -0.9571  2.2261
  642MOL0     H88537   7.598  12.330   0.473  1.0973  0.4570 -0.5271
  642MOL0     H88538   7.732  12.300   0.590  1.3455 -1.2257 -0.5705
  642MOL0     H88539   7.625  12.052   0.573 -1.6379 -0.7330  0.0434
  642MOL0     H88540   7.554  12.173   0.686  0.4245  2.6748 -0.4568
  642MOL0     H88541   7.440  12.139   0.408 -3.2400  2.8291 -0.8554
  642MOL0     H88542   7.378  12.226   0.550 -0.0103  0.0332  0.3835
  642MOL0     H88543   7.350  12.014   0.673 -0.0132 -2.3113 -0.8500
  642MOL0     H88544   7.252  12.024   0.525 -1.0534 -2.2593  0.9156
  642MOL0     H88545   7.492  11.808   0.706 -0.9401 -2.5558  0.1675
  642MOL0     H88546   7.665  11.613   0.632 -2.1150 -1.7968  4.1336
  642MOL0     H88547   7.593  11.513   0.500  0.7733  0.9322 -0.5910
  642MOL0     H88548   7.468  11.598   0.776  0.4089 -0.4438 -0.0768
  642MOL0     H88549   7.399  11.484   0.649  1.1074 -1.1190 -0.5496
  642MOL0     H88550   7.576  11.322   0.701  2.5151  1.9617 -1.9345
  642MOL0     H88551   7.635  11.431   0.830  0.5659 -1.4571 -0.3319
  642MOL0     H88552   7.503  11.281   0.945  0.1464  3.6528  1.6520
  642MOL0     H88553   7.404  11.431   0.921  1.5398  0.2365  1.6793
  642MOL0     H88554   7.299  11.239   1.082  0.8411 -3.2281  2.1461
  642MOL0     H88555   7.272  11.024   1.266 -0.1869  0.7201  0.5656
  642MOL0     H88556   7.093  11.039   1.265 -1.5837  1.4146 -2.3817
  642MOL0     H88557   7.177  11.184   1.256 -4.8480  0.3260 -0.4607
  642MOL0     H88558   7.165  10.571   1.230 -0.1503 -0.9791  1.5839
  642MOL0     H88559   7.041  10.372   1.299  1.4083  1.3811 -1.8146
  642MOL0     H88560   6.621  10.426   1.478 -1.6050 -0.4200 -0.2197
  642MOL0     H88561   6.614  10.380   1.302 -2.0505 -1.1471  1.1275
  642MOL0     H88562   6.710  10.163   1.475  0.9789  1.8791  0.0981
  642MOL0     H88563   6.551  10.226   1.525 -1.1116  0.8416 -1.1357
  642MOL0     H88564   6.595  10.113   1.246 -0.0737 -0.4121 -0.2010
  642MOL0     H88565   6.450  10.192   1.308 -1.6159 -2.4180 -0.4048
  642MOL0     H88566   6.436  10.031   1.472 -0.5089  4.5412 -1.8504
  642MOL0     H88567   6.595   9.953   1.444 -1.1289 -1.8213 -0.4256
  642MOL0     H88568   6.365   9.949   1.246  0.9139  0.0621 -0.2646
  642MOL0     H88569   6.527   9.873   1.230 -0.1336  0.7013 -0.1894
  642MOL0     H88570   6.478   9.725   1.411  0.3011 -3.9067 -3.3267
  642MOL0     H88571   6.345   9.715   1.283 -3.7999  0.7057  1.4823
  642MOL0     H88572   6.198   9.863   1.414  1.4262  1.5266 -1.2561
  642MOL0     H88573   6.305   9.859   1.548  0.7065  0.1619 -1.2210
  642MOL0     H88574   6.298   9.599   1.539 -0.6924  0.4096  1.5260
  642MOL0     H88575   6.186   9.612   1.416  3.2682 -2.5171 -0.5907
  642MOL0     H88576   6.691  10.613   1.384  0.3600  0.4450  2.7086
  642MOL0     H88577   6.806  10.818   1.282  1.2619  0.9403 -3.4115
  642MOL0     H88578   7.050  10.927   0.789 -0.6149  1.1290 -1.0999
  642MOL0     H88579   7.205  11.111   0.697 -1.4130  1.8907  0.9502
  642MOL0     H88580   8.225  11.741   0.162  2.6438  2.3425 -0.4633
  642MOL0     H88581   8.387  11.584   0.178  1.3833  0.9332  0.6210
  642MOL0     H88582   8.648  11.338   0.224  0.1008 -0.8294 -1.3291
  642MOL0     H88583   8.784  11.156   0.198 -1.9396 -1.0549 -0.9878
  642MOL0     H88584   8.830  10.836   0.535 -0.9573 -0.7804 -0.6411
  642MOL0     H88585   8.739  10.811   0.394 -2.0493  3.3084  2.6385
  642MOL0     H88586   8.956  10.670   0.460 -0.6809  1.3814  1.8691
  642MOL0     H88587   9.045  10.806   0.400  0.9657 -0.0560  2.2181
  642MOL0     H88588   9.016  10.600   0.240 -0.7532 -0.1058  0.5540
  642MOL0     H88589   8.846  10.634   0.236  1.3734 -2.2756 -1.1587
  642MOL0     H88590   9.083  10.825   0.146  0.8293 -0.8283 -1.7274
  642MOL0     H88591   8.906  10.865   0.145 -1.6625 -1.6581 -0.9496
  642MOL0     H88592   8.874  10.635  -0.183  0.3648 -1.6393  1.9368
  642MOL0     H88593   8.701  11.013   0.593  1.3378  0.2464 -0.0922
  642MOL0     H88594   8.590  11.132   0.737 -0.3249 -0.8797 -1.9549
  642MOL0     H88595   8.592  11.309   0.716 -0.1510  1.8744 -2.9197
  642MOL0     H88596   8.441  11.230   0.695 -0.0733 -0.7331 -0.6035
  643MOL0     O88597   9.040   6.925   4.360 -1.0863  0.9802 -0.2819
  643MOL0     C88598   9.140   6.898   4.428 -0.3768  0.0168 -0.1993
  643MOL0     O88599   9.248   6.821   4.382 -0.0404 -1.1574 -0.1351
  643MOL0     C88600   9.254   6.774   4.255 -0.1719  0.3872  0.3775
  643MOL0     C88601   9.305   6.855   4.152  0.0303 -0.1902 -1.0687
  643MOL0     C88602   9.301   6.807   4.025  0.8895  0.2153 -0.0433
  643MOL0     C88603   9.260   6.671   4.004  0.2755  0.2708 -0.6432
  643MOL0     O88604   9.268   6.611   3.883 -0.2800  0.4513  0.4410
  643MOL0     C88605   9.204   6.667   3.770  0.5335  0.5718 -0.7461
  643MOL0     C88606   9.086   6.575   3.731 -0.1106  0.1004 -0.9920
  643MOL0     C88607   9.130   6.446   3.681  0.4458  0.3039  0.2807
  643MOL0     C88608   9.055   6.404   3.550 -1.4682 -1.4675 -0.7240
  643MOL0     C88609   9.127   6.276   3.507  0.6420  0.1558  0.3643
  643MOL0     C88610   9.061   6.228   3.378  0.5653  0.7540 -0.8959
  643MOL0     C88611   9.106   6.089   3.339 -0.6245 -0.3189 -1.0173
  643MOL0     C88612   9.247   6.075   3.310 -0.0468 -0.3222  0.6624
  643MOL0     N88613   9.276   5.938   3.257 -0.2758  0.0586 -0.2868
  643MOL0     C88614   9.309   5.894   3.127  1.1996 -0.9564 -1.1133
  643MOL0     C88615   9.298   5.766   3.141  0.8905  0.1116 -0.7435
  643MOL0     C88616   9.329   5.669   3.026 -0.0291 -1.4778  0.0913
  643MOL0     C88617   9.349   5.522   3.075  0.9196  0.2924 -0.5521
  643MOL0     C88618   9.369   5.430   2.960 -0.3471 -0.6630  0.7678
  643MOL0     C88619   9.484   5.443   2.871  0.4089 -0.5579  0.6486
  643MOL0     O88620   9.595   5.417   2.965  0.6618  0.0013  0.2252
  643MOL0     C88621   9.724   5.470   2.937 -0.2022 -0.0049 -0.3660
  643MOL0     C88622   9.761   5.571   2.849 -0.5728  0.1546  0.2933
  643MOL0     C88623   9.891   5.626   2.846 -0.2737  0.3314  0.1387
  643MOL0     C88624   9.907   5.758   2.766 -0.2793  0.0005  0.0641
  643MOL0     C88625   9.992   5.568   2.923  0.8753  0.3949  0.1479
  643MOL0     C88626  10.136   5.608   2.911 -0.1701 -0.3056 -0.4349
  643MOL0     O88627  10.227   5.544   2.992  0.0341 -0.6594  0.0585
  643MOL0     C88628  10.356   5.511   2.944 -0.2163 -0.8170 -0.3750
  643MOL0     C88629  10.430   5.416   3.020  1.0753  0.1893  0.6942
  643MOL0     C88630  10.552   5.377   2.981 -0.1944 -0.5746  0.2938
  643MOL0     C88631  10.608   5.424   2.861  0.6220 -1.0939  0.0097
  643MOL0     O88632  10.733   5.399   2.802 -0.4699 -0.1158  0.4789
  643MOL0     C88633  10.789   5.276   2.831  0.1632  0.5104 -0.6071
  643MOL0     C88634  10.822   5.199   2.703  1.1366 -0.5345 -0.6843
  643MOL0     C88635  10.695   5.146   2.634  0.5517  0.0445 -0.3678
  643MOL0     C88636  10.723   5.083   2.491 -0.4414 -0.5063  0.2891
  643MOL0     C88637  10.610   4.992   2.453  0.1130 -0.0681 -0.0785
  643MOL0     C88638  10.470   5.062   2.450  0.6876 -0.6723 -0.0291
  643MOL0     C88639  10.365   4.968   2.376 -0.3698 -0.3504 -1.3978
  643MOL0     C88640  10.226   5.021   2.363  0.8235  0.3398 -0.5407
  643MOL0    Cl88641  10.132   4.896   2.278 -0.1636  0.4663  0.1555
  643MOL0     C88642  10.530   5.514   2.784  0.1086  0.4750  0.5075
  643MOL0     C88643  10.408   5.560   2.821  0.2233  0.3438 -0.0564
  643MOL0     O88644  10.161   5.699   2.839  0.5847  0.7789 -0.2579
  643MOL0     C88645   9.957   5.462   3.010 -0.4160 -0.1469  0.0944
  643MOL0     C88646   9.823   5.417   3.021  0.0702  0.4062 -0.1994
  643MOL0     N88647   9.271   5.728   3.267 -0.3686  0.2763 -0.7254
  643MOL0     N88648   9.267   5.830   3.338  0.2632 -1.0409 -0.1351
  643MOL0     C88649   9.218   6.585   4.106 -0.0177  0.4564  0.3001
  643MOL0     C88650   9.222   6.638   4.232 -1.1623 -0.0020 -0.0449
  643MOL0     C88651   9.142   6.951   4.565 -0.2499 -0.2462  0.3171
  643MOL0     C88652   9.096   7.079   4.583  0.5195  0.0501  1.0535
  643MOL0     C88653   9.085   7.130   4.714 -0.5580 -0.5380  0.1009
  643MOL0     C88654   9.147   7.064   4.824  0.2654  1.0364 -0.3213
  643MOL0     O88655   9.143   7.118   4.945  0.0867 -0.3200 -0.0006
  643MOL0     C88656   9.256   7.110   5.029  0.7716 -0.2106  0.2234
  643MOL0     C88657   9.241   7.188   5.165 -0.2811  0.3849 -0.4721
  643MOL0     C88658   9.161   7.117   5.275 -0.1780 -0.1772  0.0668
  643MOL0     C88659   9.024   7.041   5.251 -0.2072  0.2968  0.5466
  643MOL0     C88660   8.973   6.970   5.374 -0.4622 -0.6094  0.3635
  643MOL0     C88661   8.916   6.927   5.474  0.0506 -0.0893  0.2251
  643MOL0     C88662   9.196   6.938   4.797 -0.6915 -0.2392 -0.2672
  643MOL0     C88663   9.195   6.877   4.671  0.3361  0.4279 -0.4550
  643MOL0     C88664   9.247   6.728   4.654 -0.3035 -0.5829 -0.3530
  643MOL0     H88665   9.338   6.956   4.175 -2.4518  0.8516 -1.6601
  643MOL0     H88666   9.333   6.874   3.945  0.2621  0.9517  0.3193
  643MOL0     H88667   9.276   6.668   3.688 -0.4202 -2.8047 -1.7834
  643MOL0     H88668   9.165   6.767   3.792 -1.0824  0.0911 -1.2733
  643MOL0     H88669   9.020   6.557   3.816 -2.1174  0.2030 -2.4534
  643MOL0     H88670   9.023   6.624   3.656  0.2098  1.2088 -0.5590
  643MOL0     H88671   9.236   6.453   3.656  0.6046 -2.4642 -0.0813
  643MOL0     H88672   9.129   6.373   3.763  2.3207 -2.6207 -2.1032
  643MOL0     H88673   8.946   6.393   3.553 -1.6820 -0.0460 -1.9249
  643MOL0     H88674   9.060   6.485   3.475 -1.7693 -1.0561 -0.3047
  643MOL0     H88675   9.108   6.207   3.590 -0.3513  0.3004  0.2626
  643MOL0     H88676   9.235   6.284   3.489  0.4791  1.4776 -0.1730
  643MOL0     H88677   8.952   6.223   3.392  0.4644  0.7215 -1.6241
  643MOL0     H88678   9.071   6.306   3.302  0.7181  1.0434 -0.5802
  643MOL0     H88679   9.048   6.056   3.252  0.2172  0.8959 -2.0797
  643MOL0     H88680   9.076   6.025   3.422  2.1889  1.3714  1.5017
  643MOL0     H88681   9.273   6.154   3.239 -0.3757 -1.6955 -1.0635
  643MOL0     H88682   9.307   6.098   3.398 -2.1561 -0.2756  2.1768
  643MOL0     H88683   9.324   5.944   3.032 -0.7495 -0.4525 -1.2170
  643MOL0     H88684   9.413   5.702   2.964 -0.1251 -3.2440 -1.0256
  643MOL0     H88685   9.235   5.666   2.971 -0.6644  0.8851  0.9074
  643MOL0     H88686   9.433   5.515   3.145  0.8148 -0.5141 -0.4902
  643MOL0     H88687   9.266   5.496   3.142  3.7874 -0.4748  2.9713
  643MOL0     H88688   9.369   5.327   2.997 -1.3017 -2.1464 -2.9043
  643MOL0     H88689   9.279   5.438   2.898 -0.3315 -0.8694  0.7176
  643MOL0     H88690   9.479   5.376   2.784  0.7963 -0.5686  0.6293
  643MOL0     H88691   9.481   5.540   2.821 -1.8964 -2.1454 -2.7027
  643MOL0     H88692   9.681   5.614   2.790 -0.0174 -0.7252 -1.1578
  643MOL0     H88693   9.815   5.783   2.714 -0.1345  2.5684  0.9010
  643MOL0     H88694   9.975   5.744   2.681  0.9511 -0.5254  1.0859
  643MOL0     H88695   9.936   5.838   2.835 -2.2525  1.5294 -0.8046
  643MOL0     H88696  10.383   5.373   3.108  0.4215 -1.5635 -0.4726
  643MOL0     H88697  10.622   5.339   3.055  0.5432  0.8815  0.3796
  643MOL0     H88698  10.881   5.296   2.887  0.8776  0.8988 -1.8703
  643MOL0     H88699  10.722   5.214   2.892  1.3218 -2.1552 -1.8632
  643MOL0     H88700  10.876   5.261   2.630  0.6788  0.6107 -0.0851
  643MOL0     H88701  10.891   5.118   2.725  0.2673 -1.4304 -1.1755
  643MOL0     H88702  10.627   5.230   2.618  2.0340  1.6596  1.2264
  643MOL0     H88703  10.655   5.064   2.693  1.5678 -1.5912 -1.8528
  643MOL0     H88704  10.817   5.027   2.494 -0.7895 -1.1989  4.8074
  643MOL0     H88705  10.726   5.177   2.434 -4.1623  1.2528  2.6418
  643MOL0     H88706  10.626   4.953   2.353 -0.0480 -0.4117  0.0274
  643MOL0     H88707  10.615   4.900   2.512  0.1999  2.1011  3.6051
  643MOL0     H88708  10.475   5.157   2.396 -0.1356 -0.3303  0.4724
  643MOL0     H88709  10.434   5.073   2.552 -0.1841 -0.1585 -0.3799
  643MOL0     H88710  10.359   4.878   2.438 -1.2844 -0.1139 -1.1304
  643MOL0     H88711  10.413   4.947   2.280 -0.3085  0.9772 -1.6722
  643MOL0     H88712  10.218   5.111   2.302  1.2781  0.5781 -0.2517
  643MOL0     H88713  10.197   5.057   2.462  2.4376  0.4577 -0.0771
  643MOL0     H88714  10.557   5.561   2.690 -0.0641 -0.3355  0.0412
  643MOL0     H88715  10.364   5.631   2.752  0.7575 -0.5956 -1.3939
  643MOL0     H88716  10.034   5.418   3.072 -2.1460 -1.2926  1.5060
  643MOL0     H88717   9.808   5.334   3.090  1.2788  1.3521  1.2534
  643MOL0     H88718   9.192   6.484   4.076  1.4076  0.7709 -2.2664
  643MOL0     H88719   9.197   6.577   4.318  2.1153  1.1610  1.8777
  643MOL0     H88720   9.044   7.126   4.501 -0.6496 -1.4913  0.8570
  643MOL0     H88721   9.046   7.231   4.717 -1.4439 -0.8951  1.3596
  643MOL0     H88722   9.282   7.006   5.050  0.7807 -0.1657  0.4357
  643MOL0     H88723   9.340   7.153   4.972 -0.8860  1.7876 -0.8509
  643MOL0     H88724   9.211   7.290   5.139 -0.3578  0.2164 -1.0435
  643MOL0     H88725   9.334   7.199   5.221 -0.4914 -0.9350  0.1760
  643MOL0     H88726   9.235   7.052   5.324 -1.5435 -0.7820  1.4317
  643MOL0     H88727   9.129   7.193   5.347  0.4304 -0.2957  0.4769
  643MOL0     H88728   9.031   6.984   5.158  2.5354  4.0613 -1.8290
  643MOL0     H88729   8.952   7.120   5.226  0.2774  1.0946  1.6034
  643MOL0     H88730   8.850   6.900   5.554  1.0326  1.4924  1.6366
  643MOL0     H88731   9.240   6.884   4.880 -3.4606  0.0080  1.5119
  643MOL0     H88732   9.174   6.677   4.590 -0.7484 -2.3432  1.4691
  643MOL0     H88733   9.347   6.739   4.610  0.8579 -0.6607  2.1148
  643MOL0     H88734   9.257   6.686   4.754 -1.3173  1.6716  0.7649
  644MOL0     O88735   7.040   1.681   9.334 -0.1750 -0.0610  0.0698
  644MOL0     C88736   6.972   1.779   9.366 -1.1196  0.4896  0.1605
  644MOL0     O88737   7.028   1.906   9.375  0.1291  0.0258 -0.6459
  644MOL0     C88738   7.153   1.927   9.327 -0.8617  0.7689 -0.0606
  644MOL0     C88739   7.269   1.855   9.369 -1.5080 -0.0482 -0.2324
  644MOL0     C88740   7.396   1.895   9.323 -0.1942  0.0718 -1.0103
  644MOL0     C88741   7.417   2.010   9.247 -0.3710 -0.4909  0.9358
  644MOL0     O88742   7.544   2.037   9.208  0.2343  0.5399 -0.1343
  644MOL0     C88743   7.585   2.147   9.129 -0.6062  0.8772 -0.2652
  644MOL0     C88744   7.731   2.176   9.149 -0.0889  0.4162  0.2136
  644MOL0     C88745   7.837   2.077   9.122  0.8291 -0.1499  1.0580
  644MOL0     C88746   7.970   2.156   9.141  0.1336  0.3301  0.7925
  644MOL0     C88747   8.103   2.090   9.097 -0.4383 -0.0623 -0.1719
  644MOL0     C88748   8.120   1.960   9.181 -0.9596 -0.0014  0.7669
  644MOL0     C88749   8.264   1.892   9.169  0.4329 -0.7388  0.0617
  644MOL0     C88750   8.374   1.967   9.246  0.1741 -0.6655  0.6834
  644MOL0     N88751   8.502   1.894   9.246  0.3081 -0.0432  0.3594
  644MOL0     C88752   8.590   1.883   9.133  0.4684 -0.4366 -0.1464
  644MOL0     C88753   8.700   1.827   9.185  0.7633  0.0764 -0.2075
  644MOL0     C88754   8.823   1.797   9.112 -0.2712  0.1237 -0.4738
  644MOL0     C88755   8.935   1.889   9.159  0.6414  0.1817 -0.6621
  644MOL0     C88756   9.067   1.846   9.108  0.3229  0.0763 -0.5751
  644MOL0     C88757   9.085   1.846   8.956 -0.1740  0.5415 -0.2248
  644MOL0     O88758   9.222   1.801   8.921  0.3078 -0.3880 -0.0160
  644MOL0     C88759   9.255   1.795   8.796 -0.5449 -0.4970  0.0838
  644MOL0     C88760   9.162   1.783   8.695 -1.3445 -0.2573  0.6755
  644MOL0     C88761   9.205   1.781   8.554  0.0131  0.5868 -0.6571
  644MOL0     C88762   9.109   1.795   8.442  0.5822  0.4056 -0.1760
  644MOL0     C88763   9.345   1.774   8.526 -0.4834  0.4477 -0.1197
  644MOL0     C88764   9.404   1.759   8.387 -0.2684  0.2367 -0.0223
  644MOL0     O88765   9.453   1.859   8.324  0.1574 -0.2131 -0.4252
  644MOL0     C88766   9.563   1.829   8.247 -0.6427 -0.3690  1.0020
  644MOL0     C88767   9.692   1.814   8.304  0.3859 -0.6182 -0.9039
  644MOL0     C88768   9.809   1.801   8.229  0.3163 -0.1043 -0.0956
  644MOL0     C88769   9.797   1.812   8.091  0.2682  0.2466 -0.0999
  644MOL0     O88770   9.902   1.804   8.007 -0.6066 -0.2140  0.1875
  644MOL0     C88771  10.004   1.700   8.038 -0.0781  0.2073  0.3776
  644MOL0     C88772   9.946   1.556   8.053 -0.1139 -0.3173  0.3225
  644MOL0     C88773   9.900   1.491   7.928 -0.8500 -0.2199 -0.5581
  644MOL0     C88774   9.781   1.558   7.851 -0.0208 -0.7176 -0.3020
  644MOL0     C88775   9.730   1.473   7.734  0.1179  0.1015 -0.5557
  644MOL0     C88776   9.586   1.502   7.702  0.0527  0.9534  0.0746
  644MOL0     C88777   9.549   1.412   7.581  0.8474  0.3959  1.6063
  644MOL0     C88778   9.418   1.450   7.516 -0.7873 -0.2216 -0.3033
  644MOL0    Cl88779   9.399   1.379   7.357  0.6584  0.0265  0.2261
  644MOL0     C88780   9.673   1.841   8.030  0.2093  0.2971 -0.4771
  644MOL0     C88781   9.558   1.850   8.111 -0.6384  0.4750 -1.1386
  644MOL0     O88782   9.382   1.654   8.330  0.1662 -0.2126 -0.6932
  644MOL0     C88783   9.428   1.778   8.637 -0.3441  0.5078 -0.0841
  644MOL0     C88784   9.385   1.796   8.762  1.0331  1.1521  0.4604
  644MOL0     N88785   8.691   1.820   9.330  0.9658  0.7937  0.7118
  644MOL0     N88786   8.568   1.849   9.355 -0.1326 -0.1380  0.6494
  644MOL0     C88787   7.307   2.076   9.207  0.4041  0.2411  0.3611
  644MOL0     C88788   7.177   2.040   9.247  0.7422  0.1923 -0.7017
  644MOL0     C88789   6.825   1.770   9.383 -0.0197 -0.1999 -0.0135
  644MOL0     C88790   6.756   1.655   9.335  0.2477  0.0536  0.1858
  644MOL0     C88791   6.618   1.635   9.339  0.3952 -0.2183 -0.2337
  644MOL0     C88792   6.534   1.740   9.378  0.0352  1.1423  0.0642
  644MOL0     O88793   6.394   1.731   9.384 -0.3657  0.5788 -0.5397
  644MOL0     C88794   6.318   1.834   9.455  0.1429  0.4219 -0.8398
  644MOL0     C88795   6.167   1.803   9.478 -0.0836 -0.1618  0.1064
  644MOL0     C88796   6.145   1.662   9.552 -0.5132 -0.6683  0.7721
  644MOL0     C88797   6.111   1.683   9.699 -0.3447  0.1749 -0.2089
  644MOL0     C88798   6.222   1.730   9.785 -0.5438  0.1601  0.4973
  644MOL0     C88799   6.313   1.779   9.855  0.2442  0.8780  0.5817
  644MOL0     C88800   6.602   1.857   9.422 -0.1670 -0.2826  0.4126
  644MOL0     C88801   6.741   1.881   9.417  0.1293  0.7958  0.4794
  644MOL0     C88802   6.799   2.017   9.472 -0.0298 -0.1753  0.3317
  644MOL0     H88803   7.259   1.760   9.420  1.3615 -0.3314 -0.0335
  644MOL0     H88804   7.486   1.838   9.343 -0.8794 -1.1035 -1.1215
  644MOL0     H88805   7.531   2.237   9.162 -2.0747 -0.3938  0.9410
  644MOL0     H88806   7.562   2.126   9.024 -0.7178  1.5012 -0.3686
  644MOL0     H88807   7.739   2.267   9.089  0.7143  0.8916  1.0234
  644MOL0     H88808   7.752   2.196   9.254  0.7201 -4.2836  1.1407
  644MOL0     H88809   7.824   1.985   9.180 -2.4242 -0.5254 -0.0273
  644MOL0     H88810   7.825   2.035   9.022  1.6900 -0.1260  0.9394
  644MOL0     H88811   7.956   2.243   9.077  0.1712  1.4297  2.2241
  644MOL0     H88812   7.991   2.182   9.245 -1.0227  0.2546  1.0608
  644MOL0     H88813   8.181   2.165   9.115 -1.5060  0.6832  1.5683
  644MOL0     H88814   8.103   2.073   8.989 -3.1353  1.0476 -0.4144
  644MOL0     H88815   8.097   1.992   9.283 -3.6242  0.2010  0.1754
  644MOL0     H88816   8.052   1.884   9.142 -0.2128 -0.3327  0.0703
  644MOL0     H88817   8.297   1.873   9.066 -0.1402  1.2316 -0.5174
  644MOL0     H88818   8.252   1.792   9.213 -1.4345 -0.5910 -0.0326
  644MOL0     H88819   8.395   2.066   9.203  0.6861 -0.9846  0.1843
  644MOL0     H88820   8.334   2.002   9.341 -0.2272 -0.3343  0.3939
  644MOL0     H88821   8.578   1.919   9.031  3.2544 -0.5972 -0.6074
  644MOL0     H88822   8.816   1.803   9.003  0.8087  2.1026 -0.4806
  644MOL0     H88823   8.843   1.693   9.139 -0.9477 -0.7732 -3.0725
  644MOL0     H88824   8.921   1.997   9.152  0.2833  0.1704 -0.1832
  644MOL0     H88825   8.944   1.878   9.267  2.8054 -2.8288 -1.0244
  644MOL0     H88826   9.148   1.909   9.146  0.0423 -1.9735  4.1666
  644MOL0     H88827   9.085   1.752   9.161 -1.3184 -0.0442 -0.1675
  644MOL0     H88828   9.017   1.764   8.931  1.1252 -2.2111  4.1134
  644MOL0     H88829   9.062   1.940   8.906 -1.2574  0.7116  0.5621
  644MOL0     H88830   9.054   1.790   8.700 -1.8029  3.3672 -5.3902
  644MOL0     H88831   9.007   1.796   8.481  0.6212 -1.1558  0.0616
  644MOL0     H88832   9.120   1.703   8.383 -0.0077 -0.9581  1.7130
  644MOL0     H88833   9.124   1.882   8.378 -0.3995  0.0241 -0.9444
  644MOL0     H88834   9.702   1.822   8.412 -1.1611  0.6296 -0.8307
  644MOL0     H88835   9.899   1.775   8.285 -0.0604 -2.4166 -0.4791
  644MOL0     H88836  10.074   1.694   7.954 -2.1077 -0.0741 -1.4060
  644MOL0     H88837  10.072   1.726   8.119 -0.1375  1.1382  0.1406
  644MOL0     H88838  10.022   1.490   8.095 -1.0956  0.3143  3.3489
  644MOL0     H88839   9.855   1.562   8.114 -1.9653 -0.9877 -2.2158
  644MOL0     H88840   9.860   1.391   7.949 -0.4329 -0.0122  1.3639
  644MOL0     H88841   9.980   1.464   7.859 -0.0808 -2.5961  1.1287
  644MOL0     H88842   9.802   1.657   7.810 -4.6431  0.6892  0.2425
  644MOL0     H88843   9.706   1.567   7.929 -1.1359  0.1015 -1.4307
  644MOL0     H88844   9.797   1.487   7.649  0.4165 -1.2473 -0.5638
  644MOL0     H88845   9.733   1.369   7.769 -0.2339 -0.2761 -1.5970
  644MOL0     H88846   9.567   1.605   7.672  0.8453  2.2887  3.6489
  644MOL0     H88847   9.525   1.478   7.790  1.0718  4.0305  1.7464
  644MOL0     H88848   9.534   1.306   7.603  0.3598  0.2381  0.5678
  644MOL0     H88849   9.628   1.407   7.505 -1.2421 -0.4889 -0.6279
  644MOL0     H88850   9.419   1.558   7.500  1.8608  0.4171  3.0288
  644MOL0     H88851   9.338   1.418   7.583 -2.5783  1.7687 -1.3815
  644MOL0     H88852   9.665   1.853   7.923  0.6764 -4.7821 -1.3433
  644MOL0     H88853   9.460   1.868   8.068 -1.1965 -1.0030 -0.5619
  644MOL0     H88854   9.535   1.790   8.630 -0.2730 -0.3079 -0.5761
  644MOL0     H88855   9.454   1.796   8.846  0.5890  1.2821  0.8343
  644MOL0     H88856   7.301   2.162   9.141  1.5130 -0.8598 -1.2201
  644MOL0     H88857   7.090   2.088   9.204  0.4819 -0.8669 -1.4046
  644MOL0     H88858   6.818   1.574   9.299  1.6745  1.5469 -0.8479
  644MOL0     H88859   6.576   1.547   9.293 -0.7383  0.5778 -0.7717
  644MOL0     H88860   6.371   1.869   9.544 -0.9580 -0.5164  0.2191
  644MOL0     H88861   6.328   1.918   9.385 -1.4891  0.2398 -1.3303
  644MOL0     H88862   6.113   1.798   9.383  1.7345 -1.2911 -0.9497
  644MOL0     H88863   6.122   1.878   9.542 -0.3906 -1.7487  1.8397
  644MOL0     H88864   6.065   1.612   9.495  0.8279  0.1225 -1.9946
  644MOL0     H88865   6.232   1.600   9.532 -3.7282 -4.7280 -2.4067
  644MOL0     H88866   6.098   1.580   9.733  1.5931 -0.0979 -0.2085
  644MOL0     H88867   6.019   1.737   9.725 -0.4070 -0.4902  1.0624
  644MOL0     H88868   6.397   1.829   9.897  0.4965  1.0076 -0.0644
  644MOL0     H88869   6.550   1.942   9.464  2.3993  0.1231  3.0766
  644MOL0     H88870   6.715   2.085   9.486 -0.0616 -0.4919  1.7719
  644MOL0     H88871   6.846   2.024   9.570  0.4657 -1.5875  0.2171
  644MOL0     H88872   6.857   2.081   9.404 -2.0353  2.0179  0.5487
  645MOL0     O88873   1.880  11.285   0.697  0.4613  0.4071 -0.1618
  645MOL0     C88874   1.843  11.257   0.810 -0.5653 -0.3959  0.2566
  645MOL0     O88875   1.896  11.303   0.926 -0.2564  0.0415 -0.0378
  645MOL0     C88876   1.980  11.410   0.935  0.5013 -0.2940 -0.1368
  645MOL0     C88877   1.977  11.484   1.057 -0.3798  0.0489  0.0640
  645MOL0     C88878   2.055  11.593   1.075 -0.5488  0.1088  0.5753
  645MOL0     C88879   2.142  11.632   0.974  0.0213  1.2837  0.0899
  645MOL0     O88880   2.211  11.750   0.969  0.3110  0.5963  0.2054
  645MOL0     C88881   2.240  11.818   1.088 -0.4638  0.8705 -0.3586
  645MOL0     C88882   2.348  11.920   1.062 -0.3044  0.1952  0.8630
  645MOL0     C88883   2.312  12.041   0.975 -0.7572 -0.3404  0.3861
  645MOL0     C88884   2.417  12.155   0.982  0.9209 -0.9465 -0.5193
  645MOL0     C88885   2.353  12.294   1.008  1.1465 -0.1427  0.4977
  645MOL0     C88886   2.235  12.324   0.915  0.1264  0.4314  0.1967
  645MOL0     C88887   2.172  12.455   0.945 -0.4666 -0.7824  0.6090
  645MOL0     C88888   2.094  12.503   0.822  0.4394  0.4486  0.4883
  645MOL0     N88889   2.052  12.634   0.842 -0.5021 -0.2194 -0.3089
  645MOL0     C88890   2.136  12.737   0.806  0.5773 -0.6843  0.0513
  645MOL0     C88891   2.075  12.840   0.867 -0.2028 -0.1199  0.0398
  645MOL0     C88892   2.132  12.980   0.876  0.4806  0.5826 -0.2415
  645MOL0     C88893   2.016  13.086   0.849  0.9692 -0.1415 -0.6006
  645MOL0     C88894   2.070  13.226   0.820  0.1443 -0.6526  0.6723
  645MOL0     C88895   1.949  13.325   0.810 -0.2541  0.3385 -0.5718
  645MOL0     O88896   2.003  13.433   0.744  0.9657 -0.2704 -0.4861
  645MOL0     C88897   1.958  13.560   0.770 -0.5819 -0.4385  0.3907
  645MOL0     C88898   2.004  13.657   0.687  0.3776 -0.0675 -0.3219
  645MOL0     C88899   1.950  13.787   0.681  0.3468 -0.2724 -0.0351
  645MOL0     C88900   2.025  13.904   0.615  0.3425 -0.3941  0.0875
  645MOL0     C88901   1.834  13.807   0.761 -0.3440  0.3625 -0.2783
  645MOL0     C88902   1.765  13.937   0.755  0.7289  1.6065  0.6957
  645MOL0     O88903   1.726  13.988   0.877 -0.3951 -0.3442  0.1606
  645MOL0     C88904   1.678  14.113   0.882 -0.8810  0.2530  0.0961
  645MOL0     C88905   1.754  14.217   0.943  0.2927 -0.7417 -0.5753
  645MOL0     C88906   1.693  14.346   0.959  0.5100 -0.0722 -0.0329
  645MOL0     C88907   1.566  14.372   0.909 -0.5781 -0.2394 -0.2396
  645MOL0     O88908   1.500  14.496   0.915 -0.0904 -0.0120  0.1631
  645MOL0     C88909   1.459  14.531   1.048  0.4664  0.0521  0.2774
  645MOL0     C88910   1.392  14.670   1.033 -0.2615  0.5461 -0.1388
  645MOL0     C88911   1.299  14.705   1.159 -0.1456 -0.7276 -0.2956
  645MOL0     C88912   1.262  14.853   1.155 -0.1569  1.0399  0.6426
  645MOL0     C88913   1.119  14.877   1.177 -0.1562 -0.5992 -0.3858
  645MOL0     C88914   1.094  15.028   1.175 -0.0736  0.3928 -0.6708
  645MOL0     C88915   0.949  15.066   1.208 -0.0596 -1.1686  0.0622
  645MOL0     C88916   0.937  15.223   1.208 -0.0211 -0.5342 -0.2701
  645MOL0    Cl88917   0.838  15.268   1.349 -0.1815  0.0450 -0.4586
  645MOL0     C88918   1.495  14.263   0.865  0.9511 -0.3737  0.5658
  645MOL0     C88919   1.544  14.134   0.863 -0.3938 -0.5321 -0.6708
  645MOL0     O88920   1.738  13.985   0.647  0.5889 -0.0443 -0.2718
  645MOL0     C88921   1.785  13.710   0.843  0.0865 -0.2480  1.0586
  645MOL0     C88922   1.849  13.589   0.847 -0.3846  0.9043 -0.8694
  645MOL0     N88923   1.958  12.800   0.932  0.9893 -0.0749 -0.4686
  645MOL0     N88924   1.944  12.672   0.913 -0.0230  0.2276 -0.0033
  645MOL0     C88925   2.156  11.552   0.866  0.2673 -0.6875  0.5671
  645MOL0     C88926   2.081  11.440   0.840 -0.6469  0.4205 -0.5848
  645MOL0     C88927   1.744  11.144   0.823  0.6362 -0.3230  0.6981
  645MOL0     C88928   1.679  11.110   0.949 -0.9031 -0.3714  2.1057
  645MOL0     C88929   1.580  11.021   0.963  1.1290  0.0888  0.4406
  645MOL0     C88930   1.534  10.947   0.852  0.1630  0.1717 -1.1004
  645MOL0     O88931   1.453  10.846   0.876 -0.7421  0.1428 -0.2005
  645MOL0     C88932   1.364  10.779   0.784 -1.5047 -0.8531 -0.6777
  645MOL0     C88933   1.416  10.653   0.723 -1.1757 -0.4493  0.4380
  645MOL0     C88934   1.462  10.535   0.810 -0.2549  0.8177  0.6144
  645MOL0     C88935   1.502  10.407   0.727  0.3034 -0.0810  0.1617
  645MOL0     C88936   1.387  10.350   0.651  0.1979 -0.6952 -0.1084
  645MOL0     C88937   1.277  10.328   0.595 -0.5768 -0.9392  0.6777
  645MOL0     C88938   1.586  10.981   0.724 -0.6145  0.0926  0.1952
  645MOL0     C88939   1.679  11.089   0.702  0.6530  0.9411 -0.9612
  645MOL0     C88940   1.692  11.127   0.554  0.5983  0.0610 -0.4184
  645MOL0     H88941   1.896  11.473   1.127 -1.7274  3.6588 -0.7586
  645MOL0     H88942   2.027  11.661   1.155  0.9396  1.1132  0.2879
  645MOL0     H88943   2.281  11.743   1.156 -1.2605 -1.6071 -2.4121
  645MOL0     H88944   2.154  11.869   1.133 -1.6824  0.9187 -2.5910
  645MOL0     H88945   2.377  11.956   1.161 -3.7408  1.5497  1.5087
  645MOL0     H88946   2.434  11.862   1.027 -2.4309 -1.3342 -2.3153
  645MOL0     H88947   2.303  12.028   0.866  2.0074 -0.5139  0.1012
  645MOL0     H88948   2.216  12.072   1.017 -0.4989 -2.2662  2.5870
  645MOL0     H88949   2.484  12.134   1.066 -1.1517 -1.6014  1.0904
  645MOL0     H88950   2.467  12.158   0.885 -0.6860  5.1356 -1.5763
  645MOL0     H88951   2.431  12.367   0.987  2.3652 -2.3049 -3.6546
  645MOL0     H88952   2.310  12.300   1.108  2.9732 -1.5766  1.4159
  645MOL0     H88953   2.268  12.317   0.810 -1.4827  1.3974 -0.4170
  645MOL0     H88954   2.157  12.248   0.914 -0.1403  0.6308 -2.6003
  645MOL0     H88955   2.248  12.527   0.974  0.1164 -0.6130 -1.2077
  645MOL0     H88956   2.105  12.457   1.031  0.2965  3.3674  1.2999
  645MOL0     H88957   2.157  12.502   0.732  0.9812 -0.5133  0.8644
  645MOL0     H88958   2.013  12.431   0.807  4.2259 -4.6205  1.4843
  645MOL0     H88959   2.222  12.732   0.740  0.9974  1.9924  0.2704
  645MOL0     H88960   2.211  12.987   0.801  1.0516 -3.0633 -0.1591
  645MOL0     H88961   2.179  12.990   0.974 -1.4156  3.3887  0.5058
  645MOL0     H88962   1.948  13.052   0.771  0.9131  0.0384 -0.6306
  645MOL0     H88963   1.955  13.092   0.939 -1.5779  1.6763 -2.2954
  645MOL0     H88964   2.152  13.257   0.885  2.0261 -0.9386 -1.4428
  645MOL0     H88965   2.116  13.221   0.721  0.7445 -0.4749  0.9355
  645MOL0     H88966   1.864  13.276   0.762 -0.3913  1.4833 -1.5521
  645MOL0     H88967   1.919  13.351   0.912 -1.6611  2.0171 -1.3660
  645MOL0     H88968   2.086  13.624   0.624  2.0218 -1.3701  2.3551
  645MOL0     H88969   2.112  13.854   0.571  0.7483 -0.3874  0.8694
  645MOL0     H88970   2.062  13.972   0.692 -1.5419  0.4902  0.2655
  645MOL0     H88971   1.973  13.962   0.539 -0.1534 -1.7826 -0.6761
  645MOL0     H88972   1.856  14.193   0.971 -0.1660  0.0713  2.1139
  645MOL0     H88973   1.752  14.426   1.003  0.3983  0.8670 -1.4998
  645MOL0     H88974   1.377  14.466   1.080 -0.1340  1.4509  1.7786
  645MOL0     H88975   1.544  14.519   1.116 -0.1232 -1.3829  0.7899
  645MOL0     H88976   1.474  14.743   1.038 -1.8234  2.3151  1.1750
  645MOL0     H88977   1.340  14.677   0.937 -0.2912  0.7160 -0.1107
  645MOL0     H88978   1.362  14.680   1.245  1.0233 -3.2682 -1.8070
  645MOL0     H88979   1.212  14.638   1.158  0.2498 -1.2472 -0.0460
  645MOL0     H88980   1.282  14.886   1.053 -0.6105  0.4761  0.3669
  645MOL0     H88981   1.333  14.902   1.222 -1.4152  2.4904  0.9575
  645MOL0     H88982   1.064  14.842   1.088  0.8482  0.2036 -1.3457
  645MOL0     H88983   1.084  14.832   1.271  0.5400  0.7019  0.5162
  645MOL0     H88984   1.121  15.065   1.075  0.8832  2.4655  0.2881
  645MOL0     H88985   1.162  15.078   1.245 -0.2331 -0.8448  0.3924
  645MOL0     H88986   0.916  15.033   1.306 -0.4615 -0.2064  0.2630
  645MOL0     H88987   0.880  15.036   1.128 -1.5518  2.0999 -0.0469
  645MOL0     H88988   0.877  15.246   1.120 -1.5653  0.2681  0.9306
  645MOL0     H88989   1.022  15.291   1.203 -1.2519  1.0180 -1.1223
  645MOL0     H88990   1.391  14.287   0.847  1.0027 -0.2490  0.4305
  645MOL0     H88991   1.474  14.052   0.847 -1.8364  0.5910 -0.2621
  645MOL0     H88992   1.698  13.743   0.898  0.2517  1.5947  0.2846
  645MOL0     H88993   1.809  13.513   0.914  2.7044 -0.8982 -0.8320
  645MOL0     H88994   2.225  11.592   0.793  0.1742 -1.8262 -0.1706
  645MOL0     H88995   2.099  11.379   0.752 -2.6184 -0.0424 -0.7261
  645MOL0     H88996   1.714  11.142   1.046 -1.7548 -0.0342  2.3137
  645MOL0     H88997   1.546  10.990   1.061  0.7244 -2.9319 -0.5353
  645MOL0     H88998   1.279  10.748   0.846 -0.0324  0.5730  2.2204
  645MOL0     H88999   1.331  10.846   0.704  2.7168  0.4602 -1.5744
  645MOL0     H89000   1.496  10.676   0.653 -2.0789 -0.7157 -0.7126
  645MOL0     H89001   1.328  10.629   0.663 -1.6856  0.0008  0.9993
  645MOL0     H89002   1.550  10.568   0.864  0.8170 -1.0384  0.0918
  645MOL0     H89003   1.381  10.497   0.874 -4.0611  1.3531 -3.3833
  645MOL0     H89004   1.541  10.343   0.806  1.9461  2.5895  1.6812
  645MOL0     H89005   1.582  10.426   0.654 -0.6032 -3.4770 -1.9388
  645MOL0     H89006   1.184  10.298   0.551 -0.8282  1.2475 -0.4512
  645MOL0     H89007   1.534  10.928   0.645 -2.2455  0.7623  0.7622
  645MOL0     H89008   1.600  11.101   0.501  0.6597 -0.7470 -0.1520
  645MOL0     H89009   1.687  11.236   0.550 -2.3882 -0.0374 -1.8953
  645MOL0     H89010   1.787  11.095   0.510 -0.6080 -2.1960 -1.5873
  646MOL0     O89011   6.266   4.727   2.552 -0.4947  0.4922 -0.3663
  646MOL0     C89012   6.211   4.814   2.613  0.1337  0.4091  0.3116
  646MOL0     O89013   6.250   4.873   2.727 -0.3047  0.4333 -0.2753
  646MOL0     C89014   6.370   4.856   2.794  0.0378 -0.0655 -0.4622
  646MOL0     C89015   6.393   4.950   2.891  0.0322 -0.6555  0.0105
  646MOL0     C89016   6.504   4.951   2.970  0.3882 -0.1045 -0.6090
  646MOL0     C89017   6.596   4.847   2.959  0.0337 -1.2185  0.8214
  646MOL0     O89018   6.707   4.843   3.046  0.4510 -0.3355 -0.0841
  646MOL0     C89019   6.793   4.732   3.042  0.1217  0.2433 -0.6968
  646MOL0     C89020   6.887   4.730   3.161  0.4704 -0.2959 -1.0603
  646MOL0     C89021   6.997   4.624   3.144 -0.4912 -0.8378 -0.5757
  646MOL0     C89022   7.108   4.627   3.249 -0.1632  0.3984 -0.0330
  646MOL0     C89023   7.219   4.730   3.232  0.2180 -0.3420 -0.1148
  646MOL0     C89024   7.336   4.711   3.331  0.7289  0.0801 -0.5302
  646MOL0     C89025   7.423   4.583   3.315  0.8971  0.3169  0.2378
  646MOL0     C89026   7.562   4.617   3.377  0.0271  0.2984  0.2781
  646MOL0     N89027   7.657   4.496   3.398 -0.1179 -1.9007 -0.4805
  646MOL0     C89028   7.750   4.498   3.499 -0.7926  0.5716 -0.2074
  646MOL0     C89029   7.840   4.399   3.458  0.1562  0.0381  0.9568
  646MOL0     C89030   7.962   4.372   3.535  0.0135 -0.7742  0.4797
  646MOL0     C89031   7.937   4.246   3.622  0.5618  1.0075 -0.5819
  646MOL0     C89032   8.066   4.224   3.707  0.7558  0.8480  0.6541
  646MOL0     C89033   8.030   4.233   3.853  0.4662 -1.0269  1.0095
  646MOL0     O89034   8.146   4.277   3.926 -0.3856  0.7075  0.1525
  646MOL0     C89035   8.234   4.188   3.981  0.7223  0.4590  0.1245
  646MOL0     C89036   8.198   4.068   4.033  0.5354 -0.3689  0.4301
  646MOL0     C89037   8.291   3.968   4.073  0.3465 -0.2372 -0.2903
  646MOL0     C89038   8.231   3.836   4.119  0.2860 -0.6477 -0.0411
  646MOL0     C89039   8.432   4.006   4.076  0.9429  0.1585  0.0754
  646MOL0     C89040   8.547   3.923   4.125  0.7606 -0.3558  0.0455
  646MOL0     O89041   8.667   3.980   4.168 -0.3048 -0.3110  0.0559
  646MOL0     C89042   8.779   3.909   4.202  0.1159 -0.4470  0.7646
  646MOL0     C89043   8.816   3.794   4.125  0.3502 -1.0585  1.0313
  646MOL0     C89044   8.920   3.715   4.177 -0.6659 -0.3393 -0.0148
  646MOL0     C89045   8.981   3.747   4.299  0.1972 -0.2888  0.0164
  646MOL0     O89046   9.084   3.675   4.357 -0.2167  0.0866 -0.1237
  646MOL0     C89047   9.108   3.539   4.324  0.0717  0.0420  0.3092
  646MOL0     C89048   9.166   3.464   4.452  0.0168 -1.2594 -0.4173
  646MOL0     C89049   9.045   3.403   4.525 -0.6858 -0.0583 -0.2303
  646MOL0     C89050   9.102   3.311   4.637 -0.9193 -0.5021  0.6555
  646MOL0     C89051   9.207   3.382   4.732 -0.0525  0.0002 -0.0361
  646MOL0     C89052   9.150   3.499   4.814  0.1063 -0.4885 -0.2502
  646MOL0     C89053   9.264   3.572   4.894 -0.6950  0.0055 -0.9321
  646MOL0     C89054   9.319   3.480   5.008 -1.4924 -0.7310 -0.3091
  646MOL0    Cl89055   9.225   3.477   5.148 -0.1376 -0.5547 -0.1537
  646MOL0     C89056   8.933   3.856   4.378 -1.1471  0.0898 -0.0151
  646MOL0     C89057   8.839   3.939   4.320  0.1854 -1.1966  0.1672
  646MOL0     O89058   8.526   3.801   4.115 -1.2610 -1.5029  0.0142
  646MOL0     C89059   8.466   4.134   4.036  0.3934  0.0041  1.0897
  646MOL0     C89060   8.364   4.220   3.982 -0.2292 -0.5532  0.4837
  646MOL0     N89061   7.802   4.351   3.328 -0.3009  0.8546 -0.1363
  646MOL0     N89062   7.687   4.415   3.298  0.5850  0.7208  0.3228
  646MOL0     C89063   6.580   4.750   2.857 -0.2695  0.6232  0.4577
  646MOL0     C89064   6.470   4.762   2.773 -0.3979  0.6688  0.5454
  646MOL0     C89065   6.075   4.863   2.559  0.0513  0.3823  0.8981
  646MOL0     C89066   6.000   4.955   2.641 -0.1713 -0.3797  0.8758
  646MOL0     C89067   5.891   5.025   2.590 -0.1410 -0.0297 -0.0027
  646MOL0     C89068   5.840   5.005   2.462 -0.0093 -0.8904  0.8451
  646MOL0     O89069   5.738   5.080   2.414 -0.1479 -0.1196  0.1779
  646MOL0     C89070   5.665   5.174   2.499 -0.0820  0.0911  0.0039
  646MOL0     C89071   5.566   5.228   2.394 -0.1087 -0.0321  0.0685
  646MOL0     C89072   5.493   5.337   2.462 -1.0641  0.7222  0.4645
  646MOL0     C89073   5.364   5.376   2.384 -0.2539 -0.7697  0.3542
  646MOL0     C89074   5.256   5.291   2.444 -0.9317  0.8139  0.0697
  646MOL0     C89075   5.159   5.219   2.476  0.2139 -0.1819  1.0878
  646MOL0     C89076   5.909   4.911   2.382  0.2643 -0.1024  0.0593
  646MOL0     C89077   6.029   4.849   2.426  0.1901 -0.4929  0.5519
  646MOL0     C89078   6.091   4.770   2.315 -0.1572 -0.9236 -0.2554
  646MOL0     H89079   6.328   5.036   2.898 -1.4439 -1.8000  0.9489
  646MOL0     H89080   6.526   5.029   3.043 -1.6388 -1.0198  1.1031
  646MOL0     H89081   6.852   4.729   2.950  0.3351 -0.1011 -0.5516
  646MOL0     H89082   6.745   4.634   3.039  0.8151 -0.2494  1.9427
  646MOL0     H89083   6.914   4.834   3.182 -0.9642 -0.1953  0.5318
  646MOL0     H89084   6.829   4.701   3.249 -1.4785  0.7232 -1.9403
  646MOL0     H89085   6.956   4.523   3.138 -3.8467  0.4283 -0.7332
  646MOL0     H89086   7.054   4.641   3.051  2.4474  1.3040  1.4124
  646MOL0     H89087   7.075   4.642   3.352 -2.0117 -1.7076 -0.2630
  646MOL0     H89088   7.156   4.529   3.240 -2.0182 -0.4380 -1.3635
  646MOL0     H89089   7.181   4.832   3.245  1.6954  0.3314 -0.8613
  646MOL0     H89090   7.269   4.734   3.135 -0.5895 -1.0566 -0.5803
  646MOL0     H89091   7.398   4.801   3.338  3.7266 -1.9199  1.0167
  646MOL0     H89092   7.296   4.704   3.433  1.7302  0.5431 -0.0906
  646MOL0     H89093   7.425   4.557   3.209 -0.4975  0.2082  0.2229
  646MOL0     H89094   7.377   4.502   3.372  1.7467  0.0406  0.5515
  646MOL0     H89095   7.601   4.693   3.309 -4.6936  2.3341 -0.5706
  646MOL0     H89096   7.556   4.662   3.477  1.7101  3.9950 -1.0887
  646MOL0     H89097   7.764   4.563   3.585  3.5271 -1.2503  0.7001
  646MOL0     H89098   7.976   4.463   3.594  0.2844 -1.0037  0.7741
  646MOL0     H89099   8.040   4.369   3.458 -1.7055  1.4427 -1.5314
  646MOL0     H89100   7.843   4.250   3.678  1.3113 -0.7224  0.9168
  646MOL0     H89101   7.909   4.163   3.556 -1.8479  1.5853 -0.3838
  646MOL0     H89102   8.113   4.126   3.692 -0.8509  0.2683 -0.8788
  646MOL0     H89103   8.132   4.311   3.701 -2.6509  3.7273  1.9317
  646MOL0     H89104   7.955   4.311   3.870  2.7613  1.0524  2.0873
  646MOL0     H89105   7.980   4.147   3.900  0.2588 -0.7662  1.2669
  646MOL0     H89106   8.093   4.047   4.047  0.4123 -1.9399 -2.0581
  646MOL0     H89107   8.301   3.786   4.187  2.0916  1.5654 -0.1636
  646MOL0     H89108   8.205   3.765   4.040  0.5875 -2.6169  1.5460
  646MOL0     H89109   8.136   3.849   4.171 -0.4339 -1.2110 -1.1831
  646MOL0     H89110   8.757   3.758   4.041  2.2473 -3.4720  0.5976
  646MOL0     H89111   8.967   3.632   4.126 -0.2002 -1.2740  1.8280
  646MOL0     H89112   9.019   3.497   4.276  0.0251 -0.7129  1.0190
  646MOL0     H89113   9.194   3.546   4.256 -0.7395  5.3136 -0.5966
  646MOL0     H89114   9.232   3.384   4.416  1.9136 -0.1446  0.4650
  646MOL0     H89115   9.223   3.538   4.508  1.6404 -1.1120 -2.1867
  646MOL0     H89116   8.978   3.340   4.467  0.9333 -2.4196  0.3353
  646MOL0     H89117   8.991   3.489   4.567 -0.5889  0.2783 -0.7805
  646MOL0     H89118   9.130   3.215   4.592 -3.3315 -0.1445 -1.8869
  646MOL0     H89119   9.026   3.284   4.709  0.0249 -1.2204  1.4054
  646MOL0     H89120   9.243   3.306   4.802 -3.9987 -2.8523 -0.7326
  646MOL0     H89121   9.291   3.409   4.667 -0.2290 -2.9079 -1.6396
  646MOL0     H89122   9.065   3.469   4.876  0.7779 -2.0109 -0.0219
  646MOL0     H89123   9.108   3.577   4.750 -1.7055 -0.9716  0.2831
  646MOL0     H89124   9.245   3.671   4.937  0.6716 -0.4075  0.7275
  646MOL0     H89125   9.340   3.601   4.821  0.0100  1.3107  0.2671
  646MOL0     H89126   9.410   3.531   5.042 -2.5035 -0.1297  1.6712
  646MOL0     H89127   9.341   3.380   4.972 -0.0875 -0.4883 -0.2158
  646MOL0     H89128   8.971   3.881   4.477 -1.0864  3.3588 -0.7422
  646MOL0     H89129   8.801   4.019   4.384  3.8880  2.2968 -1.5804
  646MOL0     H89130   8.566   4.174   4.023  1.3238 -1.4858  3.0912
  646MOL0     H89131   8.399   4.314   3.942 -0.0008 -1.6804 -2.1490
  646MOL0     H89132   6.648   4.666   2.847 -0.2147  0.6293  0.7567
  646MOL0     H89133   6.460   4.684   2.698  2.3785 -1.6874  2.4080
  646MOL0     H89134   6.014   4.955   2.749 -0.2842 -1.9236  0.9219
  646MOL0     H89135   5.848   5.093   2.663 -0.2232 -2.1272  2.0162
  646MOL0     H89136   5.616   5.129   2.586  1.5047  3.4502  2.8991
  646MOL0     H89137   5.727   5.255   2.538  1.6966 -1.6036  0.8298
  646MOL0     H89138   5.510   5.138   2.366  0.9712  0.0051 -2.4756
  646MOL0     H89139   5.624   5.265   2.309  0.0784  2.1355  1.0785
  646MOL0     H89140   5.476   5.304   2.565 -1.6531  0.7140  0.3655
  646MOL0     H89141   5.554   5.427   2.472 -0.8732  0.4253  2.4147
  646MOL0     H89142   5.368   5.355   2.276 -2.6647  4.3275 -1.0253
  646MOL0     H89143   5.348   5.482   2.404 -2.9123 -1.0483  0.1227
  646MOL0     H89144   5.070   5.164   2.501 -0.6548  1.7823  2.6265
  646MOL0     H89145   5.880   4.890   2.279 -1.1724 -0.8520  0.6010
  646MOL0     H89146   6.059   4.665   2.320 -0.6824 -0.7776 -0.5471
  646MOL0     H89147   6.066   4.819   2.221  0.6155  1.5880  0.7794
  646MOL0     H89148   6.200   4.774   2.318  0.1697  2.1770 -5.2929
  647MOL0     O89149   5.443   2.137   3.882 -0.0272  0.3390 -0.3373
  647MOL0     C89150   5.470   2.055   3.802 -0.6905 -0.9813 -0.3783
  647MOL0     O89151   5.399   2.019   3.694  1.1596 -1.4755  0.6216
  647MOL0     C89152   5.312   2.113   3.650  0.0542  0.3806  0.2733
  647MOL0     C89153   5.346   2.205   3.549  0.3983 -0.0815  1.1919
  647MOL0     C89154   5.257   2.302   3.502  0.2972  0.5021 -0.0386
  647MOL0     C89155   5.131   2.313   3.553  0.4342 -0.9513 -1.1086
  647MOL0     O89156   5.050   2.420   3.526  0.0013 -0.4641  0.3504
  647MOL0     C89157   5.060   2.467   3.395 -0.5319  0.3414  0.1835
  647MOL0     C89158   4.925   2.536   3.366  0.5231 -0.5189  0.2444
  647MOL0     C89159   4.935   2.611   3.223 -0.3290 -0.0884 -0.5778
  647MOL0     C89160   4.803   2.665   3.184 -0.3595 -0.6153 -0.4885
  647MOL0     C89161   4.815   2.673   3.024  0.5580 -0.4799 -1.2157
  647MOL0     C89162   4.676   2.698   2.957 -0.2480  1.0176 -0.4763
  647MOL0     C89163   4.691   2.682   2.800 -0.6181  0.1800  0.8647
  647MOL0     C89164   4.545   2.690   2.750  0.4938 -0.7990 -0.2307
  647MOL0     N89165   4.535   2.689   2.609  0.0316  0.2289 -0.4018
  647MOL0     C89166   4.532   2.800   2.540 -0.1597  0.2771  0.4891
  647MOL0     C89167   4.522   2.755   2.407 -0.1828 -0.1573 -0.0463
  647MOL0     C89168   4.513   2.844   2.286 -0.3126 -0.6472  0.6944
  647MOL0     C89169   4.588   2.784   2.173 -0.0446 -0.1756  0.9194
  647MOL0     C89170   4.590   2.884   2.058  0.1358 -0.0981  0.3652
  647MOL0     C89171   4.456   2.898   1.983 -0.0684  0.0555  0.6874
  647MOL0     O89172   4.395   2.775   1.959 -0.3339  0.5163 -0.1751
  647MOL0     C89173   4.447   2.679   1.875 -0.0087 -0.1385 -0.8962
  647MOL0     C89174   4.560   2.708   1.794  0.2740  0.6473  0.8778
  647MOL0     C89175   4.617   2.616   1.711 -0.0429  0.2975 -0.5924
  647MOL0     C89176   4.730   2.665   1.617 -0.1218  0.4447 -0.7256
  647MOL0     C89177   4.558   2.486   1.710 -0.3986  0.3061 -0.1124
  647MOL0     C89178   4.610   2.384   1.624  0.8002 -0.1678 -0.2137
  647MOL0     O89179   4.747   2.385   1.619 -0.3601  0.2559  0.1345
  647MOL0     C89180   4.797   2.289   1.534  0.0559  0.2741 -0.3711
  647MOL0     C89181   4.866   2.334   1.423  0.9126  0.3159  0.5318
  647MOL0     C89182   4.914   2.242   1.337 -0.9054  0.5458  0.2187
  647MOL0     C89183   4.919   2.105   1.372  1.5312  0.4564 -0.8993
  647MOL0     O89184   4.985   2.011   1.293  0.3887  0.5600  0.6047
  647MOL0     C89185   5.056   1.903   1.360 -0.4663 -0.4763  0.4639
  647MOL0     C89186   5.141   1.828   1.253  0.3286  0.0708  0.7555
  647MOL0     C89187   5.271   1.900   1.220 -0.6806 -0.1480  0.8091
  647MOL0     C89188   5.346   1.805   1.117 -0.3018 -0.0030 -0.7494
  647MOL0     C89189   5.456   1.872   1.036 -0.6601  0.5166 -0.0265
  647MOL0     C89190   5.569   1.947   1.116 -0.5887 -0.3694 -0.3451
  647MOL0     C89191   5.683   2.000   1.030 -0.4171 -0.4996 -0.7087
  647MOL0     C89192   5.766   1.897   0.965  0.7677 -0.5856  0.6338
  647MOL0    Cl89193   5.895   1.974   0.868 -0.2810  0.8332 -0.1779
  647MOL0     C89194   4.853   2.052   1.488 -0.0662 -0.3277  1.3232
  647MOL0     C89195   4.790   2.151   1.566 -0.5873 -0.3063  0.7826
  647MOL0     O89196   4.530   2.311   1.565  0.1510  0.8392 -0.7577
  647MOL0     C89197   4.438   2.456   1.790 -0.0008 -0.2110  0.3518
  647MOL0     C89198   4.381   2.560   1.862 -1.3761 -0.0348 -0.2888
  647MOL0     N89199   4.514   2.617   2.404 -0.2688  0.1461 -0.4158
  647MOL0     N89200   4.529   2.582   2.525 -0.0491  0.2121  0.4090
  647MOL0     C89201   5.092   2.219   3.653  0.3941  0.7290 -0.3863
  647MOL0     C89202   5.179   2.124   3.703 -0.4146 -1.0512 -0.2833
  647MOL0     C89203   5.583   1.967   3.835  0.0413  0.4798  0.3869
  647MOL0     C89204   5.553   1.826   3.847 -0.8417  0.6356  0.2568
  647MOL0     C89205   5.652   1.743   3.864  0.6322 -0.0349 -0.2184
  647MOL0     C89206   5.781   1.776   3.873 -1.2994  0.2551 -0.1303
  647MOL0     O89207   5.886   1.680   3.876  0.1873  0.6503  0.1981
  647MOL0     C89208   5.868   1.540   3.854  0.1022 -0.2606 -0.0298
  647MOL0     C89209   6.006   1.480   3.825  0.2751 -0.0946  0.4029
  647MOL0     C89210   6.070   1.545   3.699 -0.1794 -0.0303 -0.9998
  647MOL0     C89211   6.216   1.490   3.675 -0.2274 -0.0065 -0.1922
  647MOL0     C89212   6.230   1.343   3.653  1.0104  0.4401 -0.0785
  647MOL0     C89213   6.253   1.222   3.611 -0.2104 -0.0331  0.5049
  647MOL0     C89214   5.813   1.913   3.873 -0.1601  0.2449 -0.0695
  647MOL0     C89215   5.715   2.006   3.851  0.1732 -1.3323 -0.0679
  647MOL0     C89216   5.751   2.156   3.844 -0.7616  0.4965 -0.2364
  647MOL0     H89217   5.441   2.194   3.498 -2.6042 -1.1082 -5.1180
  647MOL0     H89218   5.293   2.383   3.440  0.8223  2.7387  2.9292
  647MOL0     H89219   5.079   2.384   3.327  0.3924  0.0938  0.7304
  647MOL0     H89220   5.152   2.526   3.388  0.4802 -1.3565 -3.5857
  647MOL0     H89221   4.843   2.465   3.351  0.4176 -0.4898  0.6949
  647MOL0     H89222   4.893   2.602   3.446 -0.7983  3.1605 -2.9846
  647MOL0     H89223   5.005   2.695   3.228 -0.0873 -0.3482  2.7529
  647MOL0     H89224   4.970   2.537   3.150 -0.5920 -1.7371  0.8990
  647MOL0     H89225   4.724   2.593   3.210  1.9315 -1.4279  6.3559
  647MOL0     H89226   4.777   2.752   3.245 -1.0409 -0.8640 -0.4115
  647MOL0     H89227   4.838   2.569   2.997  0.8601 -1.0428  1.0214
  647MOL0     H89228   4.887   2.744   2.983  3.5078 -1.9181  1.0998
  647MOL0     H89229   4.612   2.616   2.990  3.5489 -3.1141 -2.2874
  647MOL0     H89230   4.650   2.802   2.980  2.0970  1.5836 -0.1220
  647MOL0     H89231   4.724   2.581   2.775  0.4488  0.8931 -0.6882
  647MOL0     H89232   4.761   2.757   2.764  1.9490 -0.8715  3.2873
  647MOL0     H89233   4.489   2.604   2.788  3.4521 -3.0768 -0.6259
  647MOL0     H89234   4.494   2.782   2.780  1.3597 -0.9079  1.7253
  647MOL0     H89235   4.522   2.901   2.578 -0.0234  1.0847 -1.5037
  647MOL0     H89236   4.555   2.942   2.310  3.2794 -1.3713 -1.8918
  647MOL0     H89237   4.409   2.854   2.253 -0.2748  0.4712  0.8981
  647MOL0     H89238   4.686   2.763   2.218  0.3875  0.6705  0.3863
  647MOL0     H89239   4.549   2.689   2.135 -0.2848  0.7994 -1.3743
  647MOL0     H89240   4.624   2.985   2.083 -0.1331  1.1142 -3.5569
  647MOL0     H89241   4.663   2.848   1.985  1.1272  2.5530 -0.0496
  647MOL0     H89242   4.384   2.961   2.035  0.0449  0.8047 -0.0439
  647MOL0     H89243   4.474   2.950   1.889  1.8738 -2.3636 -0.4168
  647MOL0     H89244   4.604   2.806   1.782  1.6459 -0.1067 -0.6435
  647MOL0     H89245   4.767   2.764   1.646 -1.0378  0.0783  2.0510
  647MOL0     H89246   4.696   2.659   1.513  1.9528 -0.0053 -1.4336
  647MOL0     H89247   4.817   2.599   1.626 -1.3710 -1.0254  1.7533
  647MOL0     H89248   4.876   2.440   1.399 -3.0873  0.2368 -2.5448
  647MOL0     H89249   4.971   2.268   1.248  0.7814  0.1523  1.1347
  647MOL0     H89250   5.114   1.938   1.445  0.1619 -2.2862  0.8335
  647MOL0     H89251   4.984   1.827   1.393 -0.1514 -1.4248 -0.9459
  647MOL0     H89252   5.173   1.734   1.297  2.2702  1.0174  1.4590
  647MOL0     H89253   5.081   1.811   1.162  0.2805 -0.8980  0.9545
  647MOL0     H89254   5.339   1.934   1.298  4.1323 -2.5870 -1.8924
  647MOL0     H89255   5.241   1.992   1.169  2.2028  0.2996 -0.2442
  647MOL0     H89256   5.272   1.764   1.048  0.7894 -0.8966 -1.3976
  647MOL0     H89257   5.392   1.731   1.182 -2.7583  0.4342  1.6929
  647MOL0     H89258   5.505   1.794   0.977  1.7796  1.1842  0.9990
  647MOL0     H89259   5.426   1.948   0.963  2.1095  1.9276  0.1666
  647MOL0     H89260   5.613   1.884   1.193  1.5946  2.7932  1.2148
  647MOL0     H89261   5.540   2.040   1.168  3.5598  0.2362  1.2484
  647MOL0     H89262   5.747   2.068   1.087 -2.7326 -0.8227  2.5917
  647MOL0     H89263   5.640   2.056   0.946 -1.3446  0.8701  0.6333
  647MOL0     H89264   5.708   1.825   0.905 -0.9465  1.2303  0.0102
  647MOL0     H89265   5.817   1.846   1.047  0.3617  0.9614  1.8826
  647MOL0     H89266   4.842   1.948   1.517 -0.6719 -0.1055  1.9350
  647MOL0     H89267   4.745   2.142   1.664 -1.0980  0.0804  0.5933
  647MOL0     H89268   4.382   2.363   1.790 -3.3429  1.6551  0.5377
  647MOL0     H89269   4.285   2.543   1.910 -1.1604  0.1252  0.2108
  647MOL0     H89270   4.991   2.226   3.693  0.6965  3.0902  0.1206
  647MOL0     H89271   5.152   2.058   3.785 -2.1051 -0.2570 -0.1434
  647MOL0     H89272   5.451   1.791   3.833 -1.5090  3.2860 -3.1691
  647MOL0     H89273   5.628   1.638   3.849 -0.1573  0.1183 -0.0391
  647MOL0     H89274   5.818   1.490   3.937 -0.8273  0.6178 -0.0336
  647MOL0     H89275   5.802   1.527   3.768  0.6752 -0.1712 -0.4881
  647MOL0     H89276   5.993   1.374   3.800 -1.6319  0.1277  0.2859
  647MOL0     H89277   6.072   1.479   3.912 -2.6057  0.7609  2.7465
  647MOL0     H89278   6.002   1.535   3.614  0.6574 -3.9752 -1.3891
  647MOL0     H89279   6.085   1.652   3.718 -1.4785  0.4511 -2.5073
  647MOL0     H89280   6.284   1.519   3.756 -0.7925  2.2020 -0.4305
  647MOL0     H89281   6.247   1.527   3.577 -1.2016 -1.1225 -0.9476
  647MOL0     H89282   6.270   1.120   3.583 -1.1816 -0.1047  0.1317
  647MOL0     H89283   5.916   1.940   3.894 -0.0554 -1.1828  1.4639
  647MOL0     H89284   5.764   2.193   3.946 -3.0601 -0.1711  0.3438
  647MOL0     H89285   5.848   2.165   3.793  0.0134 -0.4741  1.0067
  647MOL0     H89286   5.674   2.221   3.803 -1.3570  0.9816  1.5773
  648MOL0     O89287   9.736   7.012   9.136 -0.2509 -1.1288 -0.0914
  648MOL0     C89288   9.654   7.058   9.219  0.2926  0.7197 -0.7630
  648MOL0     O89289   9.650   7.191   9.266  0.2097 -0.3018  0.4133
  648MOL0     C89290   9.765   7.246   9.314 -0.0208  0.1999  0.7014
  648MOL0     C89291   9.892   7.173   9.347 -0.5928 -0.4667 -0.3196
  648MOL0     C89292   9.992   7.264   9.400  0.6761 -0.6043 -0.3855
  648MOL0     C89293   9.975   7.400   9.420 -0.5830 -0.5808  0.1041
  648MOL0     O89294  10.082   7.461   9.464 -0.3115 -0.5843 -0.0652
  648MOL0     C89295  10.067   7.572   9.554 -0.7716 -0.0325  0.0411
  648MOL0     C89296  10.197   7.612   9.621 -0.0299  0.4091  0.4724
  648MOL0     C89297  10.286   7.688   9.523  0.1499 -0.7089  0.8734
  648MOL0     C89298  10.408   7.758   9.594  0.0076  0.3501  1.0865
  648MOL0     C89299  10.520   7.658   9.630  0.8984  0.2217  0.6109
  648MOL0     C89300  10.625   7.716   9.723  0.4238 -0.4128  0.3332
  648MOL0     C89301  10.711   7.817   9.646  0.5614  1.0118  0.0472
  648MOL0     C89302  10.803   7.880   9.755  0.8838 -0.4411  0.7473
  648MOL0     N89303  10.939   7.816   9.758  0.8623  0.3988  0.2406
  648MOL0     C89304  10.978   7.743   9.862  0.1935 -1.0011  0.3389
  648MOL0     C89305  11.107   7.714   9.833  0.9016  0.5715  0.9430
  648MOL0     C89306  11.191   7.612   9.909  0.1892 -0.1972  0.4580
  648MOL0     C89307  11.333   7.600   9.865 -0.4027  0.7012 -0.1304
  648MOL0     C89308  11.429   7.505   9.953  0.1414 -0.2827  0.9076
  648MOL0     C89309  11.582   7.520   9.934  0.3321 -0.1823  0.2450
  648MOL0     O89310  11.595   7.488   9.807 -0.2077  0.5848  0.6081
  648MOL0     C89311  11.720   7.514   9.749  0.1090 -0.0392  0.9349
  648MOL0     C89312  11.718   7.592   9.633  0.4735  0.4999  0.6005
  648MOL0     C89313  11.840   7.614   9.557 -0.9996  0.3759 -0.0534
  648MOL0     C89314  11.818   7.697   9.436  0.5609 -1.1315  0.3631
  648MOL0     C89315  11.963   7.560   9.606  0.2269 -0.5584  0.2054
  648MOL0     C89316  12.104   7.575   9.541  0.2746  0.3176  0.7544
  648MOL0     O89317  12.201   7.508   9.603  0.4003 -0.9618 -0.4293
  648MOL0     C89318  12.329   7.501   9.563 -0.7431  1.0131 -0.4019
  648MOL0     C89319  12.401   7.377   9.585  0.7269 -0.4108 -0.2723
  648MOL0     C89320  12.534   7.356   9.549 -0.5743 -0.1429 -0.3526
  648MOL0     C89321  12.601   7.472   9.502  0.3634  0.7671 -0.6063
  648MOL0     O89322  12.734   7.464   9.514 -0.5902  0.4958  0.0347
  648MOL0     C89323  12.819   7.577   9.525  0.0239  0.8374 -0.5433
  648MOL0     C89324  12.961   7.550   9.552 -0.5647  0.5196  0.3227
  648MOL0     C89325  12.978   7.480   9.698  1.0077 -0.3124  0.3914
  648MOL0     C89326  13.120   7.445   9.717 -0.1022  0.1717 -0.0247
  648MOL0     C89327  13.132   7.327   9.826  0.2642 -0.0102 -0.2550
  648MOL0     C89328  13.111   7.381   9.978 -0.0451 -0.5985  0.4660
  648MOL0     C89329  13.164   7.282  10.084  0.4691  0.1264 -0.2959
  648MOL0     C89330  13.115   7.313  10.221  0.0899  0.2554  0.2741
  648MOL0    Cl89331  13.179   7.474  10.288  0.1896 -0.5212  0.0617
  648MOL0     C89332  12.531   7.593   9.484 -1.0290 -0.0003 -0.2829
  648MOL0     C89333  12.401   7.605   9.513  0.2566  0.4548  0.1382
  648MOL0     O89334  12.114   7.619   9.430  0.4498  0.2866 -0.3266
  648MOL0     C89335  11.957   7.492   9.729 -0.5947  0.2853  0.2497
  648MOL0     C89336  11.842   7.456   9.797  0.3536 -0.0905 -0.3758
  648MOL0     N89337  11.134   7.762   9.699 -0.1430  1.0499 -0.1394
  648MOL0     N89338  11.038   7.836   9.659 -0.5503  0.4102 -0.3892
  648MOL0     C89339   9.860   7.463   9.379 -0.5881  0.0737 -0.8462
  648MOL0     C89340   9.750   7.382   9.337 -0.2295 -0.0391 -0.1627
  648MOL0     C89341   9.537   6.975   9.265  0.2506  0.0075  0.6324
  648MOL0     C89342   9.458   7.027   9.373  0.2333  0.3347 -0.2663
  648MOL0     C89343   9.352   6.959   9.420  0.1669 -0.2634  0.6085
  648MOL0     C89344   9.319   6.833   9.367  0.5400  0.2539 -0.9185
  648MOL0     O89345   9.221   6.751   9.414  0.0442  0.1982 -0.2326
  648MOL0     C89346   9.099   6.820   9.444 -0.1566 -0.4368 -0.2619
  648MOL0     C89347   8.983   6.721   9.444 -0.0594  0.3175 -0.4263
  648MOL0     C89348   8.989   6.618   9.566 -0.6267  0.1344  1.2570
  648MOL0     C89349   8.858   6.552   9.589 -0.3428  0.1103  0.8227
  648MOL0     C89350   8.857   6.432   9.501 -0.8896 -0.4216 -0.1782
  648MOL0     C89351   8.872   6.348   9.418 -0.1782 -0.0593  0.0692
  648MOL0     C89352   9.386   6.785   9.261  0.4705  0.6420 -0.6956
  648MOL0     C89353   9.499   6.846   9.214  0.3445 -0.4527 -0.2856
  648MOL0     C89354   9.570   6.782   9.092 -0.4586 -0.0834 -0.0071
  648MOL0     H89355   9.917   7.069   9.331 -2.6003 -0.7749 -1.7538
  648MOL0     H89356  10.080   7.210   9.431 -1.5312 -3.4033  1.5553
  648MOL0     H89357   9.991   7.535   9.624  0.2207 -0.1768  1.0787
  648MOL0     H89358  10.020   7.654   9.499 -1.9478 -1.6363 -1.4228
  648MOL0     H89359  10.178   7.683   9.703 -1.9814  0.9852 -0.4158
  648MOL0     H89360  10.247   7.525   9.666  0.0987  1.3200  2.2020
  648MOL0     H89361  10.320   7.624   9.441 -1.2997 -0.6570  0.2153
  648MOL0     H89362  10.233   7.772   9.478  0.8322 -1.0382 -0.5846
  648MOL0     H89363  10.444   7.843   9.536  1.4476 -1.8206 -1.4188
  648MOL0     H89364  10.373   7.800   9.688 -1.8282 -0.2624  0.7140
  648MOL0     H89365  10.568   7.619   9.540 -0.7503  0.1726 -0.3036
  648MOL0     H89366  10.475   7.566   9.670  0.3580 -1.2900 -3.0689
  648MOL0     H89367  10.566   7.768   9.799  0.4402  1.2760 -0.7520
  648MOL0     H89368  10.679   7.634   9.772 -0.7781 -0.0015  2.4514
  648MOL0     H89369  10.654   7.895   9.596 -1.1712  0.4863  1.0856
  648MOL0     H89370  10.762   7.774   9.559 -0.6019  0.3136 -0.3132
  648MOL0     H89371  10.826   7.977   9.709  0.0777 -2.1130 -3.7605
  648MOL0     H89372  10.752   7.889   9.851  1.8367  0.7797  1.1640
  648MOL0     H89373  10.934   7.717   9.958 -0.1261 -3.1693 -0.3493
  648MOL0     H89374  11.140   7.517   9.895  0.9353 -0.9906  2.6834
  648MOL0     H89375  11.182   7.641  10.014 -0.5449 -1.0897  0.6507
  648MOL0     H89376  11.330   7.570   9.760 -0.4954  0.7337 -0.1365
  648MOL0     H89377  11.384   7.696   9.881  3.6846 -1.3305  0.3122
  648MOL0     H89378  11.414   7.528  10.059  4.5304  1.0969  1.4417
  648MOL0     H89379  11.392   7.405   9.931  0.4712 -0.2078  0.0010
  648MOL0     H89380  11.617   7.618   9.966  3.2493 -0.7065 -0.9713
  648MOL0     H89381  11.638   7.448   9.995  4.6998  3.1094  0.5950
  648MOL0     H89382  11.630   7.647   9.602  0.4943  2.2339  3.2539
  648MOL0     H89383  11.807   7.801   9.467 -1.8679 -1.6650  1.5810
  648MOL0     H89384  11.722   7.674   9.390  1.5349 -0.3650 -2.2315
  648MOL0     H89385  11.886   7.690   9.350 -0.6256 -2.8799 -0.4865
  648MOL0     H89386  12.345   7.300   9.638  0.7462  0.8626  1.7240
  648MOL0     H89387  12.595   7.269   9.569  0.9846  0.4790 -2.1079
  648MOL0     H89388  12.813   7.645   9.440  0.0540  1.9650  0.3318
  648MOL0     H89389  12.783   7.628   9.615 -1.7624 -1.8872  0.4158
  648MOL0     H89390  13.011   7.490   9.476 -0.9788  1.2741 -0.5561
  648MOL0     H89391  13.010   7.647   9.556  0.8495 -0.0871 -1.1640
  648MOL0     H89392  12.916   7.392   9.715  0.4657 -0.1608 -0.7086
  648MOL0     H89393  12.946   7.543   9.782  2.2732 -0.3512  0.9259
  648MOL0     H89394  13.172   7.532   9.758  2.4917  0.5313 -3.5820
  648MOL0     H89395  13.168   7.406   9.627 -1.9164 -1.8484 -0.1905
  648MOL0     H89396  13.061   7.247   9.804  1.5300 -1.2190 -0.1245
  648MOL0     H89397  13.230   7.282   9.805 -0.9441 -1.4896 -3.3120
  648MOL0     H89398  13.005   7.403   9.988 -0.7056 -1.5381 -2.9431
  648MOL0     H89399  13.184   7.461   9.996 -0.6788 -0.1443  1.0257
  648MOL0     H89400  13.274   7.286  10.091  0.6823 -0.1301 -2.6198
  648MOL0     H89401  13.130   7.179  10.066 -1.1817  0.2787  1.6350
  648MOL0     H89402  13.139   7.231  10.289  2.1977  1.9795  1.7262
  648MOL0     H89403  13.005   7.312  10.224  0.1122  0.2578  1.2912
  648MOL0     H89404  12.599   7.673   9.458  0.5231 -1.1051  0.2176
  648MOL0     H89405  12.359   7.701   9.485 -1.6349 -0.0907  0.9814
  648MOL0     H89406  12.046   7.457   9.781 -0.3054  1.9400  0.9338
  648MOL0     H89407  11.844   7.389   9.882  0.3147 -1.7701 -1.6485
  648MOL0     H89408   9.853   7.571   9.376  2.7509  0.4905  1.1879
  648MOL0     H89409   9.658   7.420   9.292 -0.1220 -1.1566 -1.3926
  648MOL0     H89410   9.478   7.119   9.428  0.8763 -2.0006  3.8513
  648MOL0     H89411   9.282   6.993   9.496 -0.0368  0.1607  0.2374
  648MOL0     H89412   9.092   6.867   9.543 -3.2513 -2.6751  0.7642
  648MOL0     H89413   9.073   6.887   9.362 -2.5579 -0.5618  0.3371
  648MOL0     H89414   8.985   6.665   9.350 -0.1228 -1.0341  0.3520
  648MOL0     H89415   8.883   6.766   9.434 -1.1443 -1.5610  1.1985
  648MOL0     H89416   9.071   6.548   9.549 -0.4873  0.3874  0.8672
  648MOL0     H89417   9.014   6.685   9.649  2.3274 -1.2441  1.6043
  648MOL0     H89418   8.765   6.609   9.580 -1.4812 -1.7911 -0.1009
  648MOL0     H89419   8.867   6.525   9.695 -1.8531  1.1252  1.2437
  648MOL0     H89420   8.891   6.268   9.350  0.8732  0.2053  0.0318
  648MOL0     H89421   9.359   6.690   9.216 -0.9369  1.3490 -1.4420
  648MOL0     H89422   9.537   6.679   9.073  0.1266 -0.1747 -0.5690
  648MOL0     H89423   9.553   6.839   9.000 -2.0242  0.2122  0.4323
  648MOL0     H89424   9.674   6.785   9.123 -0.9872 -1.2352  2.0676
  649MOL0     O89425  10.261   9.468  10.218 -0.4425  0.0267 -0.4070
  649MOL0     C89426  10.302   9.379  10.144  0.8991  0.7242 -0.0747
  649MOL0     O89427  10.239   9.262  10.106  0.6330 -0.4715 -0.0280
  649MOL0     C89428  10.100   9.249  10.128 -0.5247  0.3119  0.3210
  649MOL0     C89429  10.051   9.186  10.242 -0.4030  0.2736 -0.6449
  649MOL0     C89430   9.915   9.144  10.252  0.2471 -0.2899  1.1171
  649MOL0     C89431   9.824   9.185  10.156 -0.0643 -0.2447  0.6219
  649MOL0     O89432   9.698   9.135  10.132  0.5168 -0.0240  0.1879
  649MOL0     C89433   9.661   9.023  10.207 -0.5757  0.0143 -0.4022
  649MOL0     C89434   9.525   8.975  10.157  0.1996 -0.1526 -0.8902
  649MOL0     C89435   9.535   8.914  10.021 -0.1670  0.4782 -0.2959
  649MOL0     C89436   9.418   8.939   9.930  0.9890  0.7993  0.7748
  649MOL0     C89437   9.391   8.839   9.808  0.1977 -0.1143 -0.1039
  649MOL0     C89438   9.282   8.876   9.702 -0.2509 -0.1671  0.5192
  649MOL0     C89439   9.145   8.904   9.773  0.0062 -0.2745  0.3545
  649MOL0     C89440   9.040   8.917   9.673 -0.3454 -0.1560 -0.2870
  649MOL0     N89441   8.972   8.797   9.625  0.0600  0.5756  0.0765
  649MOL0     C89442   8.887   8.799   9.526  0.3886  0.1644 -1.1932
  649MOL0     C89443   8.836   8.674   9.515  0.4624 -0.6657  0.9280
  649MOL0     C89444   8.740   8.615   9.413  0.9249 -0.8407  0.0813
  649MOL0     C89445   8.805   8.583   9.286  0.2615  0.3035  1.0354
  649MOL0     C89446   8.858   8.698   9.205 -0.1330  0.8354  0.2070
  649MOL0     C89447   8.902   8.648   9.063 -0.2645  0.5506  0.3074
  649MOL0     O89448   8.786   8.600   8.988 -0.5005 -0.3492 -0.0503
  649MOL0     C89449   8.803   8.587   8.851 -0.6178 -0.3547  1.0282
  649MOL0     C89450   8.925   8.584   8.779  0.6314 -0.8749  0.3489
  649MOL0     C89451   8.937   8.571   8.643 -0.3241 -0.8523  0.3508
  649MOL0     C89452   9.071   8.566   8.568  0.6662 -0.3101  0.0629
  649MOL0     C89453   8.816   8.577   8.567  0.0752  0.5371  1.2441
  649MOL0     C89454   8.795   8.553   8.420 -0.8053 -0.5549 -0.2106
  649MOL0     O89455   8.691   8.612   8.364 -0.4222  0.1758  0.9168
  649MOL0     C89456   8.656   8.567   8.242  0.5322 -0.7316  0.2897
  649MOL0     C89457   8.692   8.615   8.112 -0.3504 -0.0005 -1.2832
  649MOL0     C89458   8.639   8.566   7.994 -0.9221  0.3065  0.0163
  649MOL0     C89459   8.541   8.470   8.003 -0.4201 -0.1826  0.6487
  649MOL0     O89460   8.473   8.414   7.898  0.1063 -1.1538  0.5262
  649MOL0     C89461   8.491   8.465   7.767 -0.2850 -0.7046 -0.5281
  649MOL0     C89462   8.408   8.401   7.659  0.7283  0.3645  0.1643
  649MOL0     C89463   8.457   8.263   7.602 -0.0051  0.8760 -0.2242
  649MOL0     C89464   8.344   8.174   7.546 -0.0492 -0.1396 -0.6994
  649MOL0     C89465   8.403   8.057   7.474 -0.3256 -0.3471 -0.3009
  649MOL0     C89466   8.303   7.940   7.455 -0.3170  0.0832 -0.5106
  649MOL0     C89467   8.178   7.978   7.374  0.4890  0.0301 -0.0025
  649MOL0     C89468   8.086   7.857   7.344  0.1529  0.4249  0.3819
  649MOL0    Cl89469   8.040   7.764   7.490 -0.3192  0.3504 -0.8046
  649MOL0     C89470   8.501   8.432   8.132  0.8210 -0.2052  0.5424
  649MOL0     C89471   8.557   8.475   8.251 -0.7641  0.1562  0.5580
  649MOL0     O89472   8.860   8.459   8.372  0.0221  0.3226  0.5949
  649MOL0     C89473   8.699   8.552   8.639 -1.1403  0.2322  0.1046
  649MOL0     C89474   8.691   8.570   8.775  0.0735 -0.2687 -0.4019
  649MOL0     N89475   8.893   8.594   9.611  0.8145  0.2738  0.1219
  649MOL0     N89476   8.974   8.672   9.682 -0.5106 -0.2127  0.2364
  649MOL0     C89477   9.869   9.270  10.049  0.3518  0.3661 -0.6909
  649MOL0     C89478  10.005   9.287  10.026 -0.1789 -0.9516  0.1842
  649MOL0     C89479  10.435   9.389  10.101 -0.0892  0.6993  0.4672
  649MOL0     C89480  10.537   9.295  10.140  0.7184  0.4047 -0.4167
  649MOL0     C89481  10.669   9.282  10.090 -0.0873  1.2399  0.3837
  649MOL0     C89482  10.701   9.373   9.991 -0.0633 -0.0916  0.4534
  649MOL0     O89483  10.824   9.374   9.928 -0.0777  0.0260  0.5497
  649MOL0     C89484  10.884   9.251   9.890  0.1486  0.7269 -0.3775
  649MOL0     C89485  10.981   9.272   9.774 -0.0480 -0.1667  1.0995
  649MOL0     C89486  11.034   9.135   9.725 -0.5716 -0.5848  0.0442
  649MOL0     C89487  11.139   9.137   9.607 -0.1124 -0.4671 -0.2530
  649MOL0     C89488  11.092   9.225   9.495 -0.1588 -0.6440 -0.8301
  649MOL0     C89489  11.042   9.284   9.406  0.1572 -0.8209 -0.2660
  649MOL0     C89490  10.612   9.470   9.944  0.5230  0.4491 -0.0414
  649MOL0     C89491  10.475   9.476   9.999  0.0970 -0.1799  0.4370
  649MOL0     C89492  10.377   9.570   9.932  0.1631 -0.3832 -0.2225
  649MOL0     H89493  10.112   9.151  10.325  1.8693  0.3627 -2.2010
  649MOL0     H89494   9.874   9.085  10.333 -0.4476 -2.6594 -0.8481
  649MOL0     H89495   9.657   9.066  10.308  0.5991  1.4164 -0.9242
  649MOL0     H89496   9.731   8.939  10.211 -0.9279 -0.4267 -2.2488
  649MOL0     H89497   9.474   8.907  10.226  0.6765  0.7964  0.4376
  649MOL0     H89498   9.461   9.063  10.143  1.1130  0.4589 -1.3132
  649MOL0     H89499   9.632   8.936   9.976 -0.1716  0.4301 -0.3317
  649MOL0     H89500   9.552   8.806  10.022  3.4384  0.8932 -1.4970
  649MOL0     H89501   9.325   8.948   9.987 -0.0788  1.2983 -0.9441
  649MOL0     H89502   9.423   9.035   9.878 -1.1375  0.3929 -0.2881
  649MOL0     H89503   9.365   8.742   9.852  0.3950 -0.5697 -0.9769
  649MOL0     H89504   9.490   8.834   9.763  1.0423  0.2746  1.6116
  649MOL0     H89505   9.323   8.966   9.656 -0.9898 -0.9113 -1.7552
  649MOL0     H89506   9.259   8.791   9.636  2.3271 -1.0026  0.5573
  649MOL0     H89507   9.147   8.997   9.830 -2.3449  0.5201 -0.7379
  649MOL0     H89508   9.124   8.829   9.849 -4.2079  0.1416 -0.1499
  649MOL0     H89509   8.958   8.980   9.707 -3.1640 -1.9409 -3.2345
  649MOL0     H89510   9.090   8.963   9.588  2.7091  0.0136  1.4170
  649MOL0     H89511   8.865   8.882   9.459 -1.7144  0.5703 -0.1002
  649MOL0     H89512   8.658   8.685   9.395  0.6020 -1.1396  0.3733
  649MOL0     H89513   8.703   8.520   9.453 -0.8634 -0.0092  0.4726
  649MOL0     H89514   8.882   8.509   9.309  3.0167  2.6733 -0.0853
  649MOL0     H89515   8.727   8.529   9.231  0.3914 -0.8072  1.9075
  649MOL0     H89516   8.788   8.781   9.194 -0.0490  0.5696 -3.4334
  649MOL0     H89517   8.946   8.732   9.260  0.5363 -0.6258  0.0857
  649MOL0     H89518   8.957   8.730   9.014  3.6416 -1.5082  0.9145
  649MOL0     H89519   8.969   8.562   9.069 -0.3588  0.3140 -1.4799
  649MOL0     H89520   9.010   8.606   8.842  0.0146  1.9709  0.3516
  649MOL0     H89521   9.061   8.622   8.474  1.8050  0.2356  0.2429
  649MOL0     H89522   9.109   8.467   8.542 -1.2996 -1.1424  0.2039
  649MOL0     H89523   9.154   8.612   8.622 -2.0844  1.5976  2.9992
  649MOL0     H89524   8.769   8.690   8.099 -1.7637  1.5537 -1.0171
  649MOL0     H89525   8.675   8.605   7.900  0.9706  2.7599  1.6325
  649MOL0     H89526   8.469   8.573   7.766 -1.9250 -0.9513  1.4742
  649MOL0     H89527   8.596   8.465   7.739  0.4055 -0.0586  1.8360
  649MOL0     H89528   8.307   8.400   7.701  0.1754  2.9781 -0.8807
  649MOL0     H89529   8.399   8.465   7.570 -2.5083 -1.6777 -1.1554
  649MOL0     H89530   8.512   8.213   7.682  0.3923  1.5669 -0.0607
  649MOL0     H89531   8.530   8.275   7.522 -1.7743  1.0017 -1.8889
  649MOL0     H89532   8.277   8.223   7.475  1.9533 -0.2453 -2.8152
  649MOL0     H89533   8.273   8.139   7.622  1.2140  1.6800  1.4236
  649MOL0     H89534   8.439   8.099   7.379 -1.2364 -0.9680 -0.9352
  649MOL0     H89535   8.495   8.027   7.524  1.3875  3.4364 -0.8524
  649MOL0     H89536   8.290   7.907   7.559 -2.2001  1.6744 -0.1801
  649MOL0     H89537   8.356   7.863   7.398  1.2680  2.4218 -2.3436
  649MOL0     H89538   8.194   8.031   7.280  1.3776  1.4856  0.9392
  649MOL0     H89539   8.120   8.048   7.434 -1.1073 -2.3621  1.4482
  649MOL0     H89540   8.129   7.790   7.270 -3.9347 -2.0735 -0.0661
  649MOL0     H89541   7.992   7.887   7.296  0.6759 -2.7676 -3.0822
  649MOL0     H89542   8.420   8.360   8.140  0.0798  0.6588  1.0045
  649MOL0     H89543   8.524   8.427   8.342  1.4727  0.8367  1.7948
  649MOL0     H89544   8.604   8.549   8.588 -0.7332  3.7902 -1.1600
  649MOL0     H89545   8.594   8.555   8.821 -1.0972 -0.8849 -2.9094
  649MOL0     H89546   9.797   9.293   9.971  0.4591  1.3447 -0.5095
  649MOL0     H89547  10.030   9.328   9.929  1.1712  0.5833  1.1347
  649MOL0     H89548  10.524   9.210  10.206  0.6364 -0.7774 -1.8741
  649MOL0     H89549  10.749   9.225  10.136  0.1527  2.1784  1.1484
  649MOL0     H89550  10.944   9.215   9.974  0.3593 -0.7083 -1.1089
  649MOL0     H89551  10.807   9.178   9.864 -0.7072  1.5929 -0.3570
  649MOL0     H89552  11.066   9.326   9.815  1.4144 -1.7288  0.2655
  649MOL0     H89553  10.930   9.325   9.693 -0.9954 -0.6048  1.3881
  649MOL0     H89554  11.096   9.085   9.800  2.2921  0.2673 -1.5698
  649MOL0     H89555  10.944   9.080   9.695 -0.3825 -0.1168 -1.4407
  649MOL0     H89556  11.168   9.036   9.578  1.5146 -0.8876  2.4084
  649MOL0     H89557  11.234   9.173   9.649 -0.7720  2.6357 -1.2179
  649MOL0     H89558  10.991   9.328   9.323 -0.8723 -2.3715 -0.4951
  649MOL0     H89559  10.642   9.544   9.871 -1.0666  1.9745  0.8026
  649MOL0     H89560  10.416   9.672   9.939  0.7445 -0.6467  0.4839
  649MOL0     H89561  10.366   9.541   9.827 -0.4326 -0.3725 -0.1664
  649MOL0     H89562  10.279   9.577   9.980  0.4685  0.5504  0.2716
  650MOL0     O89563   8.207   7.486   1.217  0.5546 -0.7907 -0.1637
  650MOL0     C89564   8.275   7.494   1.321  0.7979  0.1936 -0.6491
  650MOL0     O89565   8.259   7.402   1.425 -0.0520  0.3813 -0.4776
  650MOL0     C89566   8.181   7.294   1.403 -0.4829  0.5667  1.3578
  650MOL0     C89567   8.038   7.311   1.419 -0.1963  0.1875 -0.1410
  650MOL0     C89568   7.962   7.199   1.389  0.4627  0.9046  0.6002
  650MOL0     C89569   8.017   7.075   1.340  0.3666  1.1266  0.1856
  650MOL0     O89570   7.950   6.952   1.330 -0.4562  0.5754  0.4136
  650MOL0     C89571   7.838   6.939   1.411  0.0663 -0.0557  0.0620
  650MOL0     C89572   7.826   6.790   1.438 -0.7893 -0.4633 -0.5609
  650MOL0     C89573   7.718   6.759   1.545 -0.1656  0.1253  1.0195
  650MOL0     C89574   7.594   6.695   1.482 -0.6699  0.1663 -1.0365
  650MOL0     C89575   7.493   6.664   1.591 -0.0030  0.1919  0.0357
  650MOL0     C89576   7.383   6.570   1.545 -0.5134  0.3623  1.1603
  650MOL0     C89577   7.298   6.514   1.652 -0.6137 -0.3373 -0.6305
  650MOL0     C89578   7.367   6.386   1.715  0.0352  0.2255  0.2070
  650MOL0     N89579   7.295   6.357   1.840  0.3258 -0.1743 -0.1301
  650MOL0     C89580   7.264   6.450   1.934 -1.0267  0.0377 -0.2390
  650MOL0     C89581   7.188   6.384   2.027 -1.0637  0.4706 -0.1251
  650MOL0     C89582   7.133   6.452   2.152 -0.1788 -0.1333 -0.1148
  650MOL0     C89583   7.189   6.378   2.280  0.5644  0.0920 -0.5427
  650MOL0     C89584   7.321   6.436   2.320  0.0679  1.2630  0.1682
  650MOL0     C89585   7.408   6.358   2.431  0.6387  0.6574 -0.3458
  650MOL0     O89586   7.431   6.220   2.395  0.8112  0.1148  0.3173
  650MOL0     C89587   7.501   6.155   2.491  0.3461 -0.1929  0.9329
  650MOL0     C89588   7.519   6.019   2.470  1.0401 -0.8034  0.3031
  650MOL0     C89589   7.584   5.939   2.564  0.2330  0.7055 -0.2524
  650MOL0     C89590   7.601   5.788   2.527 -0.9975  0.1855  0.4782
  650MOL0     C89591   7.630   5.993   2.684 -0.5251 -0.4089 -0.5562
  650MOL0     C89592   7.701   5.921   2.794 -0.0569  0.3630 -0.1081
  650MOL0     O89593   7.726   6.000   2.907 -0.1899  0.5698  0.4128
  650MOL0     C89594   7.785   5.941   3.020  0.5587  0.4767  0.1961
  650MOL0     C89595   7.894   6.003   3.081 -0.3615  0.2424 -0.4848
  650MOL0     C89596   7.966   5.939   3.182  0.7366  0.7123 -0.6612
  650MOL0     C89597   7.935   5.804   3.225 -0.2368 -0.2092  0.1332
  650MOL0     O89598   8.028   5.748   3.314 -0.0244  0.5729  0.3304
  650MOL0     C89599   7.989   5.638   3.386  0.1046  0.3696 -0.3223
  650MOL0     C89600   8.088   5.618   3.496 -0.5668  0.1984  0.1137
  650MOL0     C89601   8.195   5.519   3.454 -0.0682  0.2520 -0.9060
  650MOL0     C89602   8.303   5.590   3.359  0.5122 -0.3611 -0.7178
  650MOL0     C89603   8.396   5.489   3.293 -0.8031 -0.8985 -0.8588
  650MOL0     C89604   8.471   5.385   3.380  0.0335 -0.5764  0.1100
  650MOL0     C89605   8.533   5.462   3.504  0.1272 -0.3634 -0.5200
  650MOL0     C89606   8.545   5.366   3.621  0.1787  0.7465  0.2232
  650MOL0    Cl89607   8.373   5.310   3.683 -0.1122  0.0366  0.1860
  650MOL0     C89608   7.824   5.745   3.171 -0.7539  0.2580 -0.9470
  650MOL0     C89609   7.757   5.810   3.071  1.4224 -0.6013 -0.0869
  650MOL0     O89610   7.729   5.801   2.780 -0.0508  0.1674  0.0576
  650MOL0     C89611   7.614   6.129   2.709  0.2856 -0.9967 -0.2243
  650MOL0     C89612   7.553   6.208   2.616 -0.4445 -0.1425  0.9054
  650MOL0     N89613   7.170   6.251   1.992  0.6742 -0.0472  0.6766
  650MOL0     N89614   7.241   6.237   1.873  0.2171 -0.9073 -0.4393
  650MOL0     C89615   8.157   7.075   1.314 -1.2221 -0.3226  0.4611
  650MOL0     C89616   8.242   7.184   1.341 -0.4608  0.3433  0.9773
  650MOL0     C89617   8.345   7.621   1.348  0.8644  0.3649 -0.2251
  650MOL0     C89618   8.272   7.735   1.351 -0.1983 -0.3322 -0.3824
  650MOL0     C89619   8.332   7.859   1.388 -1.0009 -0.4287 -0.3456
  650MOL0     C89620   8.468   7.868   1.408  0.1911 -0.3023 -0.4512
  650MOL0     O89621   8.527   7.986   1.443  0.1562 -0.6417 -0.0324
  650MOL0     C89622   8.556   8.074   1.338 -0.0271  0.6011 -0.3496
  650MOL0     C89623   8.470   8.195   1.349  0.1610 -0.2417  0.2773
  650MOL0     C89624   8.503   8.293   1.231 -0.2353 -0.6404  0.7666
  650MOL0     C89625   8.604   8.403   1.274  0.1774 -0.0755  0.2278
  650MOL0     C89626   8.614   8.509   1.174 -0.5251 -0.3273  0.2771
  650MOL0     C89627   8.591   8.613   1.126 -0.7804  0.2489  0.7158
  650MOL0     C89628   8.543   7.748   1.419  0.0324 -0.1072  0.6999
  650MOL0     C89629   8.487   7.622   1.377 -0.1144 -0.3398 -0.7763
  650MOL0     C89630   8.572   7.501   1.367 -0.2290  0.6654  0.4998
  650MOL0     H89631   7.995   7.406   1.449  1.5527  1.2381 -0.8492
  650MOL0     H89632   7.855   7.204   1.409 -0.8893  2.5722 -5.0660
  650MOL0     H89633   7.753   6.985   1.361  0.5820  0.4884 -0.3344
  650MOL0     H89634   7.865   6.989   1.505  2.7253  0.8923 -1.0935
  650MOL0     H89635   7.801   6.737   1.346 -3.0166 -1.3957  0.4953
  650MOL0     H89636   7.922   6.750   1.473  2.0703  1.3290 -5.3166
  650MOL0     H89637   7.758   6.693   1.621 -0.1530  0.4719  1.3169
  650MOL0     H89638   7.686   6.852   1.594 -3.2032 -0.2166 -0.0676
  650MOL0     H89639   7.547   6.750   1.399 -1.9069  0.0477 -0.4398
  650MOL0     H89640   7.629   6.597   1.449 -1.6309 -0.4825 -0.1689
  650MOL0     H89641   7.453   6.755   1.636 -1.0258 -0.9381  1.4909
  650MOL0     H89642   7.541   6.618   1.678 -2.1257 -0.3852  0.9669
  650MOL0     H89643   7.323   6.630   1.475  1.7483  3.1511  1.4137
  650MOL0     H89644   7.432   6.488   1.492  0.3355  2.0159 -0.7553
  650MOL0     H89645   7.195   6.492   1.623  0.2307 -2.0828 -2.6167
  650MOL0     H89646   7.300   6.597   1.724  2.2947  0.1049 -1.0822
  650MOL0     H89647   7.364   6.301   1.646 -2.3648  0.7151 -0.3917
  650MOL0     H89648   7.472   6.413   1.731 -0.2428  0.9010  0.9411
  650MOL0     H89649   7.292   6.554   1.945 -0.7903 -0.0751  0.2693
  650MOL0     H89650   7.024   6.447   2.159 -0.3300  2.3171  0.1830
  650MOL0     H89651   7.155   6.560   2.155 -1.0622  0.2069 -3.1083
  650MOL0     H89652   7.123   6.384   2.368  0.7453 -2.6104 -0.1425
  650MOL0     H89653   7.197   6.273   2.252  0.3912  0.2078 -1.0341
  650MOL0     H89654   7.391   6.433   2.236  0.6341  3.2038  0.5111
  650MOL0     H89655   7.309   6.540   2.352 -1.0650  0.7900  1.3868
  650MOL0     H89656   7.505   6.406   2.444  1.4872 -1.6110  3.2434
  650MOL0     H89657   7.350   6.354   2.524 -0.9054 -2.2837 -1.2958
  650MOL0     H89658   7.485   5.976   2.376  0.2835 -1.5778  0.9199
  650MOL0     H89659   7.696   5.744   2.557 -1.7832 -1.3458  0.8205
  650MOL0     H89660   7.597   5.772   2.419  1.8687 -2.2921  0.6021
  650MOL0     H89661   7.521   5.735   2.579 -1.5384  0.3898 -0.1242
  650MOL0     H89662   7.924   6.098   3.037 -1.1662 -0.2717 -2.2126
  650MOL0     H89663   8.048   5.988   3.233 -0.2368  0.8895  0.8115
  650MOL0     H89664   7.891   5.641   3.434  1.2498 -2.0661  2.4495
  650MOL0     H89665   7.988   5.552   3.318 -1.8102  2.0495 -2.6102
  650MOL0     H89666   8.128   5.711   3.536 -0.9751  0.3741  0.1239
  650MOL0     H89667   8.028   5.581   3.580  0.3534  1.3410  1.3145
  650MOL0     H89668   8.163   5.422   3.416 -0.9822  0.4553 -0.6780
  650MOL0     H89669   8.252   5.498   3.545 -2.1695  0.3176  0.4981
  650MOL0     H89670   8.360   5.661   3.420 -0.9484 -0.6438  1.0915
  650MOL0     H89671   8.250   5.651   3.285  2.1909  3.5638  1.0303
  650MOL0     H89672   8.327   5.444   3.221 -3.1254  2.5116 -0.9694
  650MOL0     H89673   8.481   5.544   3.250  1.1099 -2.2708  0.9681
  650MOL0     H89674   8.543   5.335   3.316  0.9094  0.4402  0.2886
  650MOL0     H89675   8.406   5.307   3.421  1.6680 -1.5889  0.8666
  650MOL0     H89676   8.485   5.554   3.538  1.9629 -0.5440  3.0133
  650MOL0     H89677   8.635   5.498   3.488  1.0225 -0.8986  3.0565
  650MOL0     H89678   8.600   5.414   3.702  0.3357 -0.6995  1.0129
  650MOL0     H89679   8.602   5.274   3.603 -3.6715 -1.7973 -0.2672
  650MOL0     H89680   7.786   5.644   3.184  0.4831 -0.3479 -1.8151
  650MOL0     H89681   7.676   5.747   3.036  1.0345 -3.0015  4.5119
  650MOL0     H89682   7.635   6.191   2.795 -2.2724  1.8379 -1.4709
  650MOL0     H89683   7.538   6.313   2.637 -2.5346 -0.1642 -0.1585
  650MOL0     H89684   8.209   6.996   1.261 -1.5870  0.2163 -0.7197
  650MOL0     H89685   8.345   7.177   1.308 -1.5848 -0.4287 -2.8745
  650MOL0     H89686   8.164   7.734   1.334 -0.6858  2.1687  2.0030
  650MOL0     H89687   8.269   7.946   1.404 -0.4435 -0.6675  4.7483
  650MOL0     H89688   8.663   8.099   1.337  0.0711  0.3796  1.4987
  650MOL0     H89689   8.534   8.031   1.240 -2.5361  1.3002 -0.1558
  650MOL0     H89690   8.483   8.251   1.442  1.6061  3.8763 -2.0783
  650MOL0     H89691   8.366   8.166   1.338  0.9294 -2.2572 -2.9895
  650MOL0     H89692   8.541   8.233   1.148  0.0291  2.6263 -1.6630
  650MOL0     H89693   8.413   8.345   1.196 -1.1225 -3.0487 -0.8695
  650MOL0     H89694   8.704   8.357   1.283 -0.3930 -1.8095 -1.5069
  650MOL0     H89695   8.579   8.457   1.366 -3.4685 -0.1547 -0.5720
  650MOL0     H89696   8.545   8.703   1.091 -3.7126 -1.1759  0.5349
  650MOL0     H89697   8.646   7.764   1.449 -0.2213  1.9273  0.6063
  650MOL0     H89698   8.578   7.449   1.463 -1.4331 -0.2959  0.0845
  650MOL0     H89699   8.549   7.434   1.283  0.8676 -0.2969  0.9364
  650MOL0     H89700   8.668   7.543   1.337 -0.0122 -0.8019 -1.0448
  651MOL0     O89701   9.083   5.569   6.617 -0.1118  0.7197 -0.6598
  651MOL0     C89702   9.059   5.690   6.635  0.8313  0.5019  0.3508
  651MOL0     O89703   9.067   5.786   6.534 -0.5153  0.0339 -0.2522
  651MOL0     C89704   9.134   5.738   6.420  0.1479 -0.6382 -0.4809
  651MOL0     C89705   9.264   5.688   6.428  0.1287  0.1768  0.2905
  651MOL0     C89706   9.343   5.653   6.321 -0.6825  0.2055  0.5148
  651MOL0     C89707   9.292   5.665   6.189  0.8565 -0.2700  0.4095
  651MOL0     O89708   9.351   5.630   6.063 -0.5796  0.4377 -0.8809
  651MOL0     C89709   9.488   5.579   6.073  0.7083  0.4319  0.5189
  651MOL0     C89710   9.585   5.687   6.029  1.1099 -0.2268  0.5220
  651MOL0     C89711   9.589   5.815   6.112  0.6210 -0.4557 -1.2903
  651MOL0     C89712   9.724   5.876   6.124 -0.6633  0.5595 -0.2871
  651MOL0     C89713   9.776   5.934   5.999  0.2997 -0.0355 -0.2033
  651MOL0     C89714   9.908   5.983   6.026 -0.2834 -0.5421  0.7272
  651MOL0     C89715   9.926   6.090   5.926  0.2592 -0.0771  0.6285
  651MOL0     C89716  10.065   6.162   5.960  0.0449 -0.2520  0.4573
  651MOL0     N89717  10.126   6.210   5.838 -0.2019  0.3889  0.0320
  651MOL0     C89718  10.244   6.170   5.791 -0.1183 -0.1799  0.7834
  651MOL0     C89719  10.239   6.195   5.658 -0.0183  0.9286 -0.4207
  651MOL0     C89720  10.342   6.171   5.552 -0.0712 -0.8845  0.2724
  651MOL0     C89721  10.476   6.230   5.583  0.0785 -0.1434  0.4064
  651MOL0     C89722  10.604   6.176   5.510  0.6434  0.0823 -0.3069
  651MOL0     C89723  10.739   6.236   5.546  0.3458  0.4591  0.5623
  651MOL0     O89724  10.826   6.166   5.451 -0.0828 -0.6006  0.0075
  651MOL0     C89725  10.957   6.185   5.456  0.3692 -0.0387 -1.0960
  651MOL0     C89726  11.015   6.308   5.459  0.3853  0.2131 -0.1519
  651MOL0     C89727  11.152   6.323   5.464  0.2505  0.4529 -0.0589
  651MOL0     C89728  11.215   6.460   5.480 -0.3784  0.3716  0.2777
  651MOL0     C89729  11.239   6.214   5.462  0.7481 -0.6656  0.2194
  651MOL0     C89730  11.390   6.213   5.479  0.4632  1.0329  0.7547
  651MOL0     O89731  11.465   6.326   5.497 -0.1242 -0.0818 -0.4689
  651MOL0     C89732  11.593   6.321   5.554  0.0448  0.1839  0.6842
  651MOL0     C89733  11.629   6.420   5.647  0.7638  0.7477 -1.2049
  651MOL0     C89734  11.752   6.415   5.701 -1.0223 -0.5322 -0.5395
  651MOL0     C89735  11.854   6.335   5.650 -0.4375  0.9486 -0.5155
  651MOL0     O89736  11.971   6.335   5.728  0.4070 -0.2503 -0.0233
  651MOL0     C89737  12.084   6.270   5.664  0.1974 -0.4689 -0.2546
  651MOL0     C89738  12.209   6.295   5.754 -0.2719  0.0886 -0.7060
  651MOL0     C89739  12.268   6.177   5.845  0.0838  0.4885 -0.3613
  651MOL0     C89740  12.250   6.201   5.993  0.2613 -0.0159 -0.0096
  651MOL0     C89741  12.338   6.125   6.098 -0.1718  1.1440 -0.2918
  651MOL0     C89742  12.354   6.198   6.231  0.5345  0.0022 -0.1502
  651MOL0     C89743  12.219   6.255   6.288 -0.4368 -0.8279 -0.0899
  651MOL0     C89744  12.237   6.337   6.416  0.0667  0.0901  0.5317
  651MOL0    Cl89745  12.087   6.326   6.497  0.0749 -0.2048 -0.2205
  651MOL0     C89746  11.825   6.250   5.549  0.9529 -1.2970 -0.4782
  651MOL0     C89747  11.696   6.241   5.493 -0.3489 -0.4658  0.6350
  651MOL0     O89748  11.433   6.094   5.504  0.0624  1.0187  0.5147
  651MOL0     C89749  11.176   6.088   5.454  0.2392  0.5897  1.0329
  651MOL0     C89750  11.037   6.077   5.443 -0.2077 -0.3918  0.1826
  651MOL0     N89751  10.122   6.263   5.628  0.2274 -0.1818 -0.4442
  651MOL0     N89752  10.058   6.268   5.736 -0.3231 -0.0844 -0.3040
  651MOL0     C89753   9.160   5.712   6.179  0.2064  0.5724 -0.3655
  651MOL0     C89754   9.084   5.761   6.291  0.2693  0.7107  0.4115
  651MOL0     C89755   9.034   5.720   6.779  0.8261 -0.4663  0.5573
  651MOL0     C89756   9.028   5.618   6.875  0.2213 -0.4344 -0.1362
  651MOL0     C89757   9.009   5.649   7.016  0.1286 -0.1436  0.5765
  651MOL0     C89758   8.987   5.778   7.048 -0.4945  0.0449 -0.1810
  651MOL0     O89759   8.981   5.809   7.181 -0.3220  0.1088 -0.6252
  651MOL0     C89760   8.859   5.758   7.240  0.4992  1.5028 -0.4400
  651MOL0     C89761   8.729   5.831   7.202 -0.3035 -0.3743  0.8281
  651MOL0     C89762   8.612   5.794   7.284  0.4114  0.2992 -0.4444
  651MOL0     C89763   8.479   5.867   7.247  0.1651  0.5711  0.2253
  651MOL0     C89764   8.356   5.804   7.302 -0.3569 -0.7248  0.4355
  651MOL0     C89765   8.250   5.756   7.338  1.6077  0.2222 -1.2306
  651MOL0     C89766   9.000   5.880   6.957 -0.1507 -0.2138  0.9313
  651MOL0     C89767   9.019   5.853   6.824 -0.0234 -0.1702 -0.2669
  651MOL0     C89768   9.026   5.987   6.739  0.1349  0.1251 -0.6347
  651MOL0     H89769   9.310   5.676   6.526 -0.5486  1.6408  0.7971
  651MOL0     H89770   9.445   5.620   6.341  0.1923  1.1157 -2.0749
  651MOL0     H89771   9.507   5.506   5.994  3.3934  0.5937  0.9273
  651MOL0     H89772   9.522   5.538   6.169  1.8567 -2.1265 -0.8824
  651MOL0     H89773   9.679   5.637   6.006  0.5325 -0.4349 -1.6607
  651MOL0     H89774   9.539   5.724   5.936 -1.8057 -0.9157  1.5942
  651MOL0     H89775   9.512   5.890   6.092 -0.0977 -0.4995  0.9268
  651MOL0     H89776   9.553   5.790   6.213  0.4585  0.8261 -1.0132
  651MOL0     H89777   9.727   5.953   6.201  0.6479 -0.6225  0.8872
  651MOL0     H89778   9.785   5.795   6.165 -3.5657 -1.2025  0.8698
  651MOL0     H89779   9.701   6.004   5.961 -1.7121 -2.5626 -1.1811
  651MOL0     H89780   9.776   5.851   5.928 -2.9533 -0.6789  0.3722
  651MOL0     H89781   9.916   6.011   6.132 -1.4736 -1.4627  1.0889
  651MOL0     H89782   9.985   5.908   6.006  0.3879  1.1022 -3.9909
  651MOL0     H89783   9.849   6.168   5.931  3.3828  3.4984 -1.4335
  651MOL0     H89784   9.919   6.054   5.823  0.3916  1.2472  0.1337
  651MOL0     H89785  10.042   6.247   6.026 -0.7739 -1.5301  1.9071
  651MOL0     H89786  10.127   6.100   6.025 -0.7477  0.5156  2.0396
  651MOL0     H89787  10.328   6.117   5.833 -0.9769 -0.7471  1.8648
  651MOL0     H89788  10.305   6.226   5.465 -0.0334 -1.4605 -0.1098
  651MOL0     H89789  10.349   6.065   5.529 -0.2248 -0.8037 -0.1679
  651MOL0     H89790  10.462   6.337   5.566  0.8967 -0.0767  0.1215
  651MOL0     H89791  10.484   6.212   5.691 -0.1912 -0.3464  0.3939
  651MOL0     H89792  10.614   6.068   5.528 -0.5803  0.1003  0.6235
  651MOL0     H89793  10.578   6.182   5.404 -0.0659  0.2946 -0.1248
  651MOL0     H89794  10.733   6.345   5.542 -0.7117  0.5047  2.5437
  651MOL0     H89795  10.768   6.206   5.647  1.7366 -1.4701 -0.3490
  651MOL0     H89796  10.951   6.395   5.465 -1.3581 -1.0489  0.3715
  651MOL0     H89797  11.306   6.474   5.421  1.5021  1.7653  3.2473
  651MOL0     H89798  11.239   6.489   5.583 -0.5494 -1.4581  0.8731
  651MOL0     H89799  11.135   6.519   5.435 -2.6842 -2.4526  0.3721
  651MOL0     H89800  11.556   6.494   5.677 -0.2820 -0.3427 -0.9784
  651MOL0     H89801  11.772   6.487   5.780  4.4240 -0.6870 -1.4034
  651MOL0     H89802  12.085   6.161   5.653  1.0991 -0.9827  3.4185
  651MOL0     H89803  12.108   6.318   5.569  1.4226  0.5523  0.5388
  651MOL0     H89804  12.299   6.332   5.703 -0.1274  2.8393  1.3568
  651MOL0     H89805  12.182   6.375   5.822  2.1791  0.7526 -0.4091
  651MOL0     H89806  12.378   6.178   5.841  0.1959 -2.7341 -0.8599
  651MOL0     H89807  12.230   6.076   5.827  0.8734 -0.4209  2.4874
  651MOL0     H89808  12.145   6.179   6.017 -0.8838  1.4130 -3.2024
  651MOL0     H89809  12.270   6.308   6.002 -1.6729  0.6397 -2.3608
  651MOL0     H89810  12.292   6.028   6.120  0.9137  0.5195 -0.6693
  651MOL0     H89811  12.436   6.093   6.062 -0.2285  1.1579 -0.4571
  651MOL0     H89812  12.421   6.283   6.212 -1.7550  2.1437  0.8219
  651MOL0     H89813  12.403   6.132   6.303 -0.8651  1.2729  2.0878
  651MOL0     H89814  12.153   6.170   6.309 -0.2762 -1.3286 -1.4632
  651MOL0     H89815  12.165   6.319   6.218  0.8291  1.3940  0.8670
  651MOL0     H89816  12.247   6.442   6.388 -2.0405  0.0809 -0.4688
  651MOL0     H89817  12.320   6.297   6.474 -0.4650  2.0511  2.8099
  651MOL0     H89818  11.904   6.186   5.513  2.1079 -0.6505  0.8482
  651MOL0     H89819  11.670   6.173   5.413 -0.3338 -0.3393  0.5230
  651MOL0     H89820  11.231   5.994   5.450  1.4389  1.2874  0.3034
  651MOL0     H89821  10.989   5.981   5.430  0.5607 -0.6886 -0.5090
  651MOL0     H89822   9.127   5.708   6.076  3.0662  1.3654 -1.4040
  651MOL0     H89823   8.980   5.788   6.273 -0.6515 -2.8185 -0.3219
  651MOL0     H89824   9.041   5.517   6.838  0.2088 -0.3489 -0.3766
  651MOL0     H89825   9.001   5.567   7.087  1.0326 -1.5421 -0.8864
  651MOL0     H89826   8.846   5.651   7.220  0.7980  0.9804  1.9137
  651MOL0     H89827   8.882   5.767   7.347 -0.3389  3.2593 -0.3848
  651MOL0     H89828   8.712   5.816   7.095  1.4495  0.4250  0.3896
  651MOL0     H89829   8.753   5.938   7.214  0.9741 -0.1071 -2.7994
  651MOL0     H89830   8.598   5.687   7.265 -0.3825  0.7832 -3.0018
  651MOL0     H89831   8.642   5.810   7.388 -4.0517  5.2436  0.5524
  651MOL0     H89832   8.474   5.881   7.139 -1.4570 -1.1486  0.0144
  651MOL0     H89833   8.484   5.971   7.280  0.2821  0.3707  0.8667
  651MOL0     H89834   8.159   5.720   7.381  1.3350  3.1056  0.8700
  651MOL0     H89835   9.010   5.985   6.985 -0.5516  1.3710 -3.9564
  651MOL0     H89836   8.930   6.017   6.696 -0.0753  0.6035  0.1527
  651MOL0     H89837   9.063   6.069   6.802 -5.1129  1.5604  1.1260
  651MOL0     H89838   9.105   5.972   6.665  1.7375 -1.2340  1.2149
  652MOL0     O89839   9.521   4.790   0.285 -0.6887 -0.3005  0.8779
  652MOL0     C89840   9.413   4.740   0.312 -0.1784  0.6329 -0.3625
  652MOL0     O89841   9.370   4.631   0.242  0.6691 -0.3145  0.4577
  652MOL0     C89842   9.461   4.555   0.168 -0.2499 -0.5174  0.6884
  652MOL0     C89843   9.556   4.470   0.224 -1.2884  1.1236  0.4284
  652MOL0     C89844   9.646   4.382   0.151 -0.5808  0.3715 -0.1545
  652MOL0     C89845   9.641   4.387   0.013 -0.2752 -0.8947 -0.6926
  652MOL0     O89846   9.714   4.313  -0.076  0.5263  0.0731  0.1295
  652MOL0     C89847   9.826   4.249  -0.024  0.1237  0.6033 -0.1601
  652MOL0     C89848   9.808   4.100   0.003  0.0687 -0.5602  0.4759
  652MOL0     C89849   9.931   4.026   0.042  0.8833  0.4201  0.0328
  652MOL0     C89850  10.033   4.014  -0.081 -0.3804 -1.1866 -0.3487
  652MOL0     C89851  10.133   3.904  -0.066 -0.9375  0.3936 -0.0849
  652MOL0     C89852  10.237   3.926  -0.182 -0.9959 -1.2087 -0.6707
  652MOL0     C89853  10.340   3.809  -0.180  0.8642 -0.9816 -0.9037
  652MOL0     C89854  10.420   3.794  -0.317  0.5265  0.0683  0.8543
  652MOL0     N89855  10.551   3.728  -0.294  0.1667  0.8493  0.9918
  652MOL0     C89856  10.663   3.776  -0.350  0.0817 -0.1626  0.4675
  652MOL0     C89857  10.745   3.680  -0.374  0.3622  0.3874  1.1243
  652MOL0     C89858  10.880   3.700  -0.438 -0.6613 -0.2080  1.7886
  652MOL0     C89859  10.903   3.597  -0.551 -0.6325  0.9606  0.1582
  652MOL0     C89860  11.017   3.634  -0.646 -0.2537 -0.3858  0.0422
  652MOL0     C89861  10.995   3.771  -0.723 -0.3743 -0.4551 -0.7920
  652MOL0     O89862  11.054   3.770  -0.861 -0.2736 -0.4905  0.4939
  652MOL0     C89863  11.171   3.706  -0.882  0.3724 -0.3006  0.3778
  652MOL0     C89864  11.187   3.650  -1.006 -1.4901 -0.0733 -0.8171
  652MOL0     C89865  11.308   3.586  -1.047  1.0887  0.1231 -0.7545
  652MOL0     C89866  11.307   3.566  -1.197  0.0678 -0.7182 -0.7172
  652MOL0     C89867  11.425   3.585  -0.961  1.6133  0.4852 -0.0818
  652MOL0     C89868  11.556   3.524  -1.002  0.3924 -0.2849 -0.3484
  652MOL0     O89869  11.648   3.536  -0.911  0.4319  0.0091 -0.4908
  652MOL0     C89870  11.782   3.513  -0.939  0.6491  1.1627  0.3517
  652MOL0     C89871  11.857   3.607  -1.011 -0.1156 -0.2164  0.0728
  652MOL0     C89872  11.987   3.586  -1.034  0.5938 -0.1451  0.5143
  652MOL0     C89873  12.040   3.460  -0.998  0.5153 -0.8206  0.3853
  652MOL0     O89874  12.156   3.414  -1.047 -1.4308  0.4450  0.1815
  652MOL0     C89875  12.152   3.346  -1.176  0.3175 -0.1646 -0.8518
  652MOL0     C89876  12.274   3.378  -1.268  0.5795 -0.0310 -0.3298
  652MOL0     C89877  12.401   3.316  -1.215 -1.0462 -0.2646  0.0533
  652MOL0     C89878  12.511   3.310  -1.331 -0.0827 -0.2931 -0.4881
  652MOL0     C89879  12.650   3.249  -1.270  0.0873 -0.0916 -0.3457
  652MOL0     C89880  12.741   3.216  -1.387  0.0833 -0.7241  1.0230
  652MOL0     C89881  12.860   3.142  -1.337  0.2133 -0.4035 -0.8503
  652MOL0     C89882  12.948   3.099  -1.456  0.1020  0.2565 -0.4568
  652MOL0    Cl89883  13.090   2.987  -1.418  0.5355 -0.0509 -0.4810
  652MOL0     C89884  11.965   3.377  -0.913  0.2879  0.5022 -0.3329
  652MOL0     C89885  11.834   3.402  -0.881  0.1694 -0.0826 -0.1724
  652MOL0     O89886  11.576   3.484  -1.117 -0.4557  0.0880 -0.3455
  652MOL0     C89887  11.405   3.649  -0.840 -0.0954 -0.3131 -0.2565
  652MOL0     C89888  11.284   3.704  -0.799 -0.1673 -0.5293 -0.0365
  652MOL0     N89889  10.691   3.569  -0.313 -0.1619  0.4190  0.4036
  652MOL0     N89890  10.570   3.591  -0.275 -0.0914  0.5630  0.3756
  652MOL0     C89891   9.553   4.479  -0.045  0.0992  0.7644 -0.0803
  652MOL0     C89892   9.464   4.564   0.031 -0.3387  1.1194 -1.5639
  652MOL0     C89893   9.320   4.810   0.396 -0.2012 -0.3151  0.3601
  652MOL0     C89894   9.373   4.903   0.489 -0.4089  0.2929  0.0860
  652MOL0     C89895   9.300   4.961   0.586 -0.1576  0.1992 -0.3708
  652MOL0     C89896   9.168   4.927   0.604  0.6273 -0.8685 -0.1660
  652MOL0     O89897   9.090   4.981   0.696 -0.3642  0.4133  0.0132
  652MOL0     C89898   9.137   4.972   0.835 -0.2544 -0.3509  0.1158
  652MOL0     C89899   9.036   5.038   0.936 -0.3591  0.7606 -0.1764
  652MOL0     C89900   8.953   4.931   1.011  0.6166 -0.2784 -0.5685
  652MOL0     C89901   8.854   4.977   1.127  0.1378 -0.0934  0.5061
  652MOL0     C89902   8.774   5.098   1.099 -0.0092  0.4247  0.0112
  652MOL0     C89903   8.711   5.189   1.067 -0.1274  0.7809  1.2752
  652MOL0     C89904   9.109   4.848   0.507  0.7385  0.0506 -1.2449
  652MOL0     C89905   9.178   4.787   0.401 -0.2450 -0.4915  0.4993
  652MOL0     C89906   9.090   4.697   0.321 -0.2336 -0.1542  0.1077
  652MOL0     H89907   9.569   4.459   0.332  0.8273  0.0363  0.1047
  652MOL0     H89908   9.712   4.315   0.207 -2.3618 -0.4811  1.0312
  652MOL0     H89909   9.864   4.291   0.070 -1.6270  0.6406  0.5636
  652MOL0     H89910   9.892   4.254  -0.112 -0.8052  0.3442 -0.8872
  652MOL0     H89911   9.731   4.100   0.082 -2.3619  1.6045 -1.6971
  652MOL0     H89912   9.758   4.051  -0.080  0.2606 -0.9997  0.6187
  652MOL0     H89913   9.982   4.064   0.132  3.3888 -0.6807 -0.8363
  652MOL0     H89914   9.900   3.923   0.063  1.1363  0.4615  0.6424
  652MOL0     H89915   9.976   4.011  -0.175 -0.6924 -0.2528 -0.1958
  652MOL0     H89916  10.082   4.112  -0.090  1.9984 -2.3651 -1.3633
  652MOL0     H89917  10.079   3.810  -0.080  2.8881 -2.9976  4.5484
  652MOL0     H89918  10.181   3.912   0.032 -0.9732 -3.3342  0.3923
  652MOL0     H89919  10.183   3.942  -0.275 -3.2994  2.9238  1.1373
  652MOL0     H89920  10.285   4.021  -0.158 -0.5715 -1.7169  0.6120
  652MOL0     H89921  10.293   3.714  -0.155 -0.6074  0.1100  0.6536
  652MOL0     H89922  10.412   3.826  -0.099 -1.8741 -1.5244  1.8217
  652MOL0     H89923  10.359   3.740  -0.390  1.0682  0.7683 -0.1337
  652MOL0     H89924  10.428   3.896  -0.355 -0.6187 -0.6425 -1.4427
  652MOL0     H89925  10.665   3.881  -0.380 -1.3055  0.4242  2.2091
  652MOL0     H89926  10.958   3.690  -0.362  0.8377 -0.0569  0.3503
  652MOL0     H89927  10.884   3.795  -0.491  0.2376 -2.1933 -2.0907
  652MOL0     H89928  10.923   3.497  -0.511 -5.5048 -1.0322 -1.6587
  652MOL0     H89929  10.820   3.576  -0.619  0.4125  0.0113 -0.8852
  652MOL0     H89930  11.111   3.630  -0.590 -0.4559 -1.8997  0.2994
  652MOL0     H89931  11.029   3.551  -0.716 -1.1670 -1.2677  0.9106
  652MOL0     H89932  10.887   3.789  -0.730 -0.5196  0.1583  1.9682
  652MOL0     H89933  11.033   3.855  -0.664 -0.2665 -1.0631  0.0172
  652MOL0     H89934  11.106   3.641  -1.078 -1.1609  0.2783 -1.2338
  652MOL0     H89935  11.229   3.622  -1.249 -0.9692 -1.3691  0.0896
  652MOL0     H89936  11.295   3.458  -1.210  2.1717 -1.5173  2.7186
  652MOL0     H89937  11.406   3.596  -1.231  0.6447  0.2060  1.6126
  652MOL0     H89938  11.813   3.694  -1.058  1.3904  0.2103 -0.6371
  652MOL0     H89939  12.040   3.655  -1.099 -1.8950  0.5368 -0.9265
  652MOL0     H89940  12.147   3.240  -1.148 -4.1382  0.3737  1.2946
  652MOL0     H89941  12.061   3.386  -1.221  0.5780  0.2750 -0.9925
  652MOL0     H89942  12.259   3.339  -1.369  0.3683 -2.1312  0.4832
  652MOL0     H89943  12.283   3.487  -1.279 -0.2097 -0.0349 -1.1068
  652MOL0     H89944  12.382   3.211  -1.195 -0.9506 -0.3290 -0.1869
  652MOL0     H89945  12.432   3.365  -1.122 -0.9476  0.3473 -0.2932
  652MOL0     H89946  12.527   3.406  -1.380  1.7546  0.4501  1.4436
  652MOL0     H89947  12.480   3.240  -1.409  1.1777 -2.3635  0.7675
  652MOL0     H89948  12.704   3.328  -1.217  0.4917 -1.1332  0.8630
  652MOL0     H89949  12.629   3.165  -1.202 -3.3991 -0.4090 -1.6522
  652MOL0     H89950  12.767   3.315  -1.425 -2.2392 -0.1625  0.7754
  652MOL0     H89951  12.689   3.166  -1.470 -0.1145  1.7100 -0.3959
  652MOL0     H89952  12.840   3.047  -1.287  0.1498  0.0805  0.0773
  652MOL0     H89953  12.915   3.198  -1.260 -0.5697 -2.5485  1.3820
  652MOL0     H89954  12.988   3.187  -1.507  2.0300 -0.6563 -0.5871
  652MOL0     H89955  12.885   3.043  -1.525 -0.2437  1.3573 -1.0660
  652MOL0     H89956  12.014   3.287  -0.877  1.1019  0.1793 -2.1417
  652MOL0     H89957  11.763   3.342  -0.824  0.0231  0.7085  0.4974
  652MOL0     H89958  11.487   3.639  -0.770 -0.3505  1.6445  0.3877
  652MOL0     H89959  11.272   3.762  -0.708  1.2481 -0.9060  0.4163
  652MOL0     H89960   9.554   4.482  -0.153 -2.7237  2.6924 -0.1636
  652MOL0     H89961   9.398   4.629  -0.024 -1.3787 -0.0993 -1.7967
  652MOL0     H89962   9.479   4.924   0.485  0.7889 -4.3525  1.6522
  652MOL0     H89963   9.351   5.039   0.641 -0.9438  0.0668  0.5675
  652MOL0     H89964   9.160   4.869   0.864 -2.2149 -0.6658  0.7466
  652MOL0     H89965   9.230   5.029   0.834 -1.0040  0.9469  0.9266
  652MOL0     H89966   8.975   5.108   0.879 -1.5077  0.0376  0.1460
  652MOL0     H89967   9.085   5.099   1.013 -0.4910  1.4212 -0.6029
  652MOL0     H89968   8.894   4.876   0.937  1.0395  0.0398 -1.1575
  652MOL0     H89969   9.019   4.856   1.055 -2.3450 -0.8943  3.4380
  652MOL0     H89970   8.904   4.994   1.223 -0.5229 -3.3938  1.5672
  652MOL0     H89971   8.780   4.897   1.134 -0.6474  0.6149  0.4066
  652MOL0     H89972   8.652   5.272   1.033 -2.4833 -0.7072  1.5127
  652MOL0     H89973   9.000   4.842   0.503  0.7322 -0.0419 -1.0087
  652MOL0     H89974   9.122   4.593   0.322  0.2910 -0.0973 -2.9327
  652MOL0     H89975   8.987   4.705   0.356  0.3582  0.0487  1.9561
  652MOL0     H89976   9.101   4.720   0.215  3.1348 -0.6699  0.2320
  653MOL0     O89977   7.777   8.663  10.693 -0.0677  1.1839 -0.0507
  653MOL0     C89978   7.679   8.610  10.749  0.1098 -0.4679 -0.1082
  653MOL0     O89979   7.653   8.603  10.891 -0.1198  0.5220 -0.1994
  653MOL0     C89980   7.732   8.679  10.966  0.9753  0.4243 -0.1629
  653MOL0     C89981   7.694   8.811  11.004  0.1580  0.3224 -0.1023
  653MOL0     C89982   7.769   8.887  11.103  0.1047 -0.6862  0.2528
  653MOL0     C89983   7.874   8.823  11.174  0.0978  0.4002 -0.5836
  653MOL0     O89984   7.939   8.897  11.275 -0.2767  0.6253  0.7009
  653MOL0     C89985   7.983   8.817  11.388 -0.5776  0.4048  0.2436
  653MOL0     C89986   8.077   8.900  11.474  0.6590  0.9814  1.0675
  653MOL0     C89987   8.134   8.824  11.587 -0.8727  1.3459  0.1203
  653MOL0     C89988   8.206   8.688  11.568 -0.1684  0.2365  0.0473
  653MOL0     C89989   8.330   8.711  11.479  0.2562  0.7422 -0.4462
  653MOL0     C89990   8.391   8.569  11.456  0.4875 -0.3082  0.5038
  653MOL0     C89991   8.506   8.583  11.358 -0.5667 -0.6558  1.2394
  653MOL0     C89992   8.636   8.629  11.431  0.1599  0.4028  0.5417
  653MOL0     N89993   8.756   8.644  11.343 -0.4340 -0.9823  0.2076
  653MOL0     C89994   8.850   8.547  11.330  0.5861  0.2893  0.0187
  653MOL0     C89995   8.945   8.599  11.247 -0.1244 -0.3058  0.4595
  653MOL0     C89996   9.066   8.526  11.183  0.4311 -0.4949  0.2300
  653MOL0     C89997   9.203   8.591  11.234  0.3955 -0.5085  0.0835
  653MOL0     C89998   9.213   8.743  11.215 -0.7907 -0.1895  0.5902
  653MOL0     C89999   9.358   8.790  11.228 -0.5877 -0.1072 -0.1596
  653MOL0     O90000   9.454   8.708  11.169 -0.2175  0.7247  0.8150
  653MOL0     C90001   9.584   8.726  11.201  0.7362 -0.0302 -0.3638
  653MOL0     C90002   9.675   8.629  11.189 -0.5660 -0.3472 -0.5021
  653MOL0     C90003   9.814   8.625  11.208  1.1619 -0.0622 -1.0921
  653MOL0     C90004   9.883   8.496  11.181 -0.1060 -0.3269 -1.0397
  653MOL0     C90005   9.868   8.750  11.240 -0.6140 -0.3847  0.8975
  653MOL0     C90006  10.009   8.767  11.274 -0.0876 -0.7783  0.1805
  653MOL0     O90007  10.099   8.670  11.222 -0.0585 -0.4397  0.4844
  653MOL0     C90008  10.232   8.697  11.220  0.0523  0.5956  0.2739
  653MOL0     C90009  10.291   8.808  11.165 -0.1750  0.1387 -0.5501
  653MOL0     C90010  10.426   8.817  11.151 -0.7566 -0.3890  0.8244
  653MOL0     C90011  10.512   8.724  11.204 -0.4195  0.1121  0.2857
  653MOL0     O90012  10.643   8.752  11.185 -0.4801  0.2521  0.0871
  653MOL0     C90013  10.739   8.647  11.167 -0.4918  0.0340  0.9217
  653MOL0     C90014  10.844   8.658  11.270 -0.3228 -0.3371  0.5573
  653MOL0     C90015  10.939   8.770  11.270 -0.1028  0.3026  0.0637
  653MOL0     C90016  11.044   8.755  11.381 -0.2745  0.3822 -0.2374
  653MOL0     C90017  11.159   8.858  11.376 -0.0974 -0.8825 -0.1196
  653MOL0     C90018  11.250   8.850  11.506 -0.4280 -0.3730  0.2535
  653MOL0     C90019  11.182   8.873  11.641  0.0083  0.0820 -0.0338
  653MOL0     C90020  11.285   8.852  11.752  0.2433 -0.7864  0.4608
  653MOL0    Cl90021  11.412   8.982  11.736  0.5405  0.0265 -0.1235
  653MOL0     C90022  10.458   8.609  11.254 -0.3876 -0.0170 -0.4173
  653MOL0     C90023  10.315   8.587  11.251  0.0628 -0.2738  0.1484
  653MOL0     O90024  10.043   8.874  11.325 -0.7236  0.5848 -0.3132
  653MOL0     C90025   9.773   8.860  11.257  0.1282  0.6659  0.2217
  653MOL0     C90026   9.639   8.847  11.226  0.3150  0.8056 -0.3200
  653MOL0     N90027   8.908   8.727  11.215 -0.2212 -0.2248 -0.2449
  653MOL0     N90028   8.788   8.752  11.261  0.1199 -0.0726  0.2874
  653MOL0     C90029   7.900   8.685  11.142  0.7286 -0.7717 -0.4105
  653MOL0     C90030   7.829   8.618  11.041  0.6104  0.4188  0.0007
  653MOL0     C90031   7.580   8.532  10.664 -0.6901  0.8291 -0.4306
  653MOL0     C90032   7.484   8.451  10.729 -0.7158 -0.1138 -0.0239
  653MOL0     C90033   7.390   8.377  10.657  0.0966  0.9066 -0.2495
  653MOL0     C90034   7.392   8.373  10.520  0.4637  0.1411 -0.2084
  653MOL0     O90035   7.304   8.300  10.443 -0.0007  0.3705 -0.1771
  653MOL0     C90036   7.193   8.236  10.500  0.2056  0.4191 -0.1639
  653MOL0     C90037   7.105   8.205  10.377 -0.6448  0.0891 -0.2681
  653MOL0     C90038   6.971   8.173  10.425  0.5630  0.0315  0.0550
  653MOL0     C90039   6.876   8.123  10.308 -0.7397 -0.3420  0.7691
  653MOL0     C90040   6.730   8.137  10.334 -0.2576  0.4726 -0.4450
  653MOL0     C90041   6.606   8.129  10.359 -0.0474  0.2084 -0.0641
  653MOL0     C90042   7.500   8.441  10.456 -0.2589 -0.8714 -0.7869
  653MOL0     C90043   7.592   8.522  10.522 -0.4009 -0.6712 -0.2619
  653MOL0     C90044   7.676   8.608  10.431  0.3641 -1.2699  0.0319
  653MOL0     H90045   7.610   8.855  10.951 -0.0543 -0.8954 -0.8250
  653MOL0     H90046   7.747   8.988  11.135  5.4225  0.4307  1.1854
  653MOL0     H90047   8.044   8.732  11.358  0.3536  1.4023 -0.7422
  653MOL0     H90048   7.896   8.776  11.440 -0.1223 -1.2086 -0.2176
  653MOL0     H90049   8.153   8.937  11.405 -0.4035  0.6448 -0.3581
  653MOL0     H90050   8.026   8.990  11.511  0.4355  1.8552 -1.1693
  653MOL0     H90051   8.194   8.900  11.638 -3.4073  1.5837  3.0849
  653MOL0     H90052   8.054   8.791  11.654 -2.2348  2.6053 -0.8200
  653MOL0     H90053   8.245   8.652  11.663 -0.2133 -2.1645 -0.7880
  653MOL0     H90054   8.152   8.611  11.512 -0.8301  1.4555 -1.0429
  653MOL0     H90055   8.401   8.773  11.536 -0.5345 -0.8216  2.4629
  653MOL0     H90056   8.300   8.749  11.382  1.5977 -0.0690 -1.2210
  653MOL0     H90057   8.427   8.521  11.547 -0.9532 -0.8658  0.8071
  653MOL0     H90058   8.311   8.506  11.415  0.9922  0.2573 -1.4764
  653MOL0     H90059   8.488   8.652  11.275  0.0005 -1.6464  0.2689
  653MOL0     H90060   8.516   8.483  11.313  1.7870 -0.2782  0.7820
  653MOL0     H90061   8.623   8.724  11.485  0.8091  0.4468  0.6271
  653MOL0     H90062   8.654   8.554  11.508 -2.8516 -1.4062 -0.3330
  653MOL0     H90063   8.859   8.445  11.368 -0.9851 -0.8958 -2.5120
  653MOL0     H90064   9.061   8.540  11.075  1.1523 -2.6698 -0.1397
  653MOL0     H90065   9.063   8.426  11.228  2.8491  0.5606  3.1112
  653MOL0     H90066   9.203   8.571  11.342  1.7193 -1.0708  0.0018
  653MOL0     H90067   9.286   8.534  11.192  2.0139  0.8178  1.3163
  653MOL0     H90068   9.170   8.774  11.120 -0.7565 -2.1866 -0.1214
  653MOL0     H90069   9.160   8.798  11.294  0.0811  0.7955  0.5124
  653MOL0     H90070   9.359   8.884  11.172 -0.3283 -2.0936 -3.7730
  653MOL0     H90071   9.391   8.787  11.333  0.9478  0.0690 -0.6139
  653MOL0     H90072   9.631   8.537  11.152 -0.2329 -1.0650  0.8212
  653MOL0     H90073   9.808   8.417  11.180  0.4634 -0.8695 -1.1492
  653MOL0     H90074   9.949   8.482  11.268 -0.5083 -2.2956 -1.0074
  653MOL0     H90075   9.944   8.494  11.091  1.2293 -3.5560 -0.2137
  653MOL0     H90076  10.232   8.893  11.134 -2.4073 -0.2312  2.3100
  653MOL0     H90077  10.472   8.901  11.100  0.9163 -0.3264  2.3203
  653MOL0     H90078  10.692   8.549  11.181  1.6272 -0.5638  5.8314
  653MOL0     H90079  10.771   8.655  11.062 -0.4938 -0.5160  0.8739
  653MOL0     H90080  10.783   8.652  11.361 -0.2676  0.5399  0.6697
  653MOL0     H90081  10.913   8.575  11.259 -0.0623 -0.3369  1.9926
  653MOL0     H90082  10.888   8.865  11.286 -1.3289 -0.3794  0.3770
  653MOL0     H90083  10.991   8.776  11.175 -0.6720 -1.4147 -0.3919
  653MOL0     H90084  11.104   8.663  11.373 -1.6344 -0.5184 -0.3838
  653MOL0     H90085  10.998   8.764  11.480  1.2354 -1.4022  0.7018
  653MOL0     H90086  11.213   8.823  11.287 -3.1642  0.0575 -2.5300
  653MOL0     H90087  11.118   8.957  11.355 -0.3822 -1.4076 -2.3069
  653MOL0     H90088  11.327   8.928  11.499 -0.3512 -0.4283  0.4642
  653MOL0     H90089  11.306   8.757  11.506  2.3777  1.2045 -1.1761
  653MOL0     H90090  11.099   8.803  11.661  2.3433 -2.6019  0.9260
  653MOL0     H90091  11.139   8.974  11.643 -0.2854 -0.0270 -0.4421
  653MOL0     H90092  11.339   8.758  11.746  3.7658  1.0519  0.6564
  653MOL0     H90093  11.231   8.862  11.847  0.4739  0.4304  0.4822
  653MOL0     H90094  10.523   8.535  11.299 -0.6412 -0.9470 -1.5202
  653MOL0     H90095  10.271   8.496  11.290 -0.8734  0.7367  1.5325
  653MOL0     H90096   9.806   8.960  11.285  1.6635  0.3768 -0.4089
  653MOL0     H90097   9.578   8.934  11.243  2.6477  2.1617  1.7860
  653MOL0     H90098   7.965   8.615  11.193  2.6660  0.2112 -1.4261
  653MOL0     H90099   7.840   8.511  11.032 -1.3604  0.0950  0.8526
  653MOL0     H90100   7.478   8.440  10.837  0.4332 -0.3134  0.0298
  653MOL0     H90101   7.333   8.312  10.721  0.4163 -0.4078 -1.2523
  653MOL0     H90102   7.219   8.149  10.561  1.1050  1.1953  0.6133
  653MOL0     H90103   7.144   8.305  10.570  0.7152  2.3346 -1.5959
  653MOL0     H90104   7.156   8.131  10.315  2.2862  2.6959 -1.2835
  653MOL0     H90105   7.091   8.294  10.315 -1.1850  0.9522  1.0396
  653MOL0     H90106   6.968   8.100  10.506 -4.1415  0.3464  0.4111
  653MOL0     H90107   6.934   8.266  10.468 -0.5579 -1.3313  2.1855
  653MOL0     H90108   6.898   8.016  10.300  1.0244  0.0894 -0.7363
  653MOL0     H90109   6.893   8.188  10.222 -5.0717 -0.3748 -0.3044
  653MOL0     H90110   6.501   8.129  10.383  0.0734 -1.2929  0.5846
  653MOL0     H90111   7.490   8.447  10.348 -0.0402 -1.3512 -0.8359
  653MOL0     H90112   7.783   8.589  10.436  0.5865 -1.1279 -2.6520
  653MOL0     H90113   7.642   8.601  10.327 -0.1592 -3.4064  0.2953
  653MOL0     H90114   7.665   8.714  10.458  2.3544 -1.6646  2.6957
  654MOL0     O90115   6.533   8.407   0.774  0.6146  0.5617 -0.5793
  654MOL0     C90116   6.481   8.438   0.880 -0.1455  1.4817 -0.1643
  654MOL0     O90117   6.539   8.499   0.982 -1.1520  0.5412  0.5377
  654MOL0     C90118   6.677   8.521   0.978  0.2699 -0.7159 -0.1373
  654MOL0     C90119   6.747   8.586   0.870 -0.1859 -0.0201  0.1131
  654MOL0     C90120   6.886   8.587   0.869  1.1635 -0.0469  0.5324
  654MOL0     C90121   6.956   8.536   0.982 -0.7703 -0.6672 -0.0079
  654MOL0     O90122   7.092   8.555   0.979  0.5152 -0.0246  0.4828
  654MOL0     C90123   7.162   8.477   0.880  0.7430  0.8467 -0.2275
  654MOL0     C90124   7.306   8.493   0.908  0.1032 -0.1049 -1.0425
  654MOL0     C90125   7.344   8.481   1.054  0.1407 -0.5211 -0.0393
  654MOL0     C90126   7.315   8.339   1.108 -0.2349 -0.1646  0.0279
  654MOL0     C90127   7.408   8.282   1.221  0.3959  0.2731  0.1792
  654MOL0     C90128   7.545   8.239   1.159  0.6925  0.9304  0.6462
  654MOL0     C90129   7.644   8.210   1.270 -0.5685  0.4762  0.4611
  654MOL0     C90130   7.788   8.185   1.214  0.1478 -0.0566 -0.0975
  654MOL0     N90131   7.887   8.150   1.321  0.0764 -0.0082  0.3787
  654MOL0     C90132   7.968   8.234   1.393  0.0849 -0.5373  0.5879
  654MOL0     C90133   8.024   8.151   1.485 -0.0256 -0.3613  0.3467
  654MOL0     C90134   8.142   8.173   1.575 -0.3032 -0.7212 -0.2279
  654MOL0     C90135   8.121   8.119   1.720  0.2865 -0.6341 -0.4552
  654MOL0     C90136   8.191   8.195   1.829 -0.4127  0.5462 -0.3751
  654MOL0     C90137   8.339   8.185   1.811 -0.5491  1.2280  0.5721
  654MOL0     O90138   8.380   8.047   1.832  0.1292  0.5781  0.3019
  654MOL0     C90139   8.507   7.997   1.788  1.5883  0.0146 -0.4516
  654MOL0     C90140   8.607   8.073   1.730  0.2454 -0.7160 -1.4270
  654MOL0     C90141   8.721   8.013   1.669  0.3233  0.5389  0.1260
  654MOL0     C90142   8.808   8.108   1.576  0.4687 -0.1640 -0.4667
  654MOL0     C90143   8.749   7.867   1.691  0.4229 -1.0177 -1.1315
  654MOL0     C90144   8.874   7.805   1.655  0.2964  0.3683 -0.3343
  654MOL0     O90145   8.942   7.855   1.549  0.0313 -0.1121  0.1811
  654MOL0     C90146   9.060   7.807   1.511 -0.0663  0.5676 -0.1723
  654MOL0     C90147   9.176   7.816   1.581 -0.4910 -0.3927  0.0087
  654MOL0     C90148   9.296   7.761   1.545  0.1759 -0.1865 -0.0472
  654MOL0     C90149   9.303   7.709   1.418  0.2855 -0.4354  1.1145
  654MOL0     O90150   9.427   7.660   1.385 -0.2554 -0.4087  0.1635
  654MOL0     C90151   9.428   7.548   1.290 -0.6862  0.1230  0.5315
  654MOL0     C90152   9.576   7.512   1.280  0.1621 -0.1552  0.3567
  654MOL0     C90153   9.586   7.368   1.224 -0.0340 -0.2318 -0.3010
  654MOL0     C90154   9.736   7.329   1.197 -0.3490 -0.2311  0.6156
  654MOL0     C90155   9.751   7.172   1.165  0.0225 -0.5473 -1.1630
  654MOL0     C90156   9.894   7.138   1.109  0.6993  0.2598  0.3905
  654MOL0     C90157   9.902   6.992   1.071  0.3743  0.5819 -0.9603
  654MOL0     C90158  10.037   6.942   1.105 -0.0532  0.5056 -0.0033
  654MOL0    Cl90159  10.042   6.758   1.066  0.2641  0.5736 -0.2159
  654MOL0     C90160   9.187   7.692   1.337  0.7201 -0.3735  0.8968
  654MOL0     C90161   9.065   7.740   1.385  0.1069  0.8214 -0.2156
  654MOL0     O90162   8.907   7.707   1.720  0.1374  0.2729 -1.0379
  654MOL0     C90163   8.648   7.801   1.770 -0.7109 -0.2054  0.5690
  654MOL0     C90164   8.531   7.861   1.806 -0.4416  0.1594 -0.7083
  654MOL0     N90165   7.993   8.017   1.451  0.3734  0.0486 -0.0946
  654MOL0     N90166   7.913   8.023   1.347 -0.1389 -0.2255  0.1385
  654MOL0     C90167   6.889   8.494   1.088  0.6141 -0.0379  0.8424
  654MOL0     C90168   6.752   8.487   1.092  0.5805 -0.1938  0.3884
  654MOL0     C90169   6.340   8.389   0.902  0.6730 -0.0063  0.7442
  654MOL0     C90170   6.249   8.386   0.790  0.1862 -0.8964 -1.8031
  654MOL0     C90171   6.117   8.352   0.798  0.1673  1.1391 -1.0647
  654MOL0     C90172   6.065   8.307   0.921  0.6513 -0.3396  0.8135
  654MOL0     O90173   5.938   8.261   0.949 -0.0646  0.0260 -0.3433
  654MOL0     C90174   5.830   8.293   0.859 -0.1693  0.1664 -0.2845
  654MOL0     C90175   5.706   8.226   0.899 -0.6550  0.3901 -0.6176
  654MOL0     C90176   5.720   8.085   0.956 -0.6386 -0.5128  0.0513
  654MOL0     C90177   5.590   8.009   0.965  0.2416  0.0478 -0.0705
  654MOL0     C90178   5.490   8.064   1.059  0.2593  0.4427 -0.2966
  654MOL0     C90179   5.419   8.114   1.142 -0.0287  0.5691 -0.3103
  654MOL0     C90180   6.152   8.295   1.032 -0.2625 -0.4825  0.6611
  654MOL0     C90181   6.286   8.341   1.024 -0.0437  0.3392 -1.6004
  654MOL0     C90182   6.371   8.323   1.147 -0.4980 -0.4593 -0.1138
  654MOL0     H90183   6.694   8.623   0.783 -1.4661 -1.9818 -0.0091
  654MOL0     H90184   6.938   8.623   0.782  0.0216  0.5662  0.0830
  654MOL0     H90185   7.132   8.512   0.780 -0.1412 -0.1454 -0.3314
  654MOL0     H90186   7.143   8.373   0.906  1.4525  0.8380  0.2514
  654MOL0     H90187   7.363   8.424   0.845  0.9916 -0.4341  0.1001
  654MOL0     H90188   7.332   8.590   0.866  1.4947 -0.2575 -0.5769
  654MOL0     H90189   7.450   8.507   1.061  0.1597  0.1333 -2.0857
  654MOL0     H90190   7.289   8.558   1.109 -0.8981 -1.3850  0.1659
  654MOL0     H90191   7.216   8.345   1.153  0.5949  1.1823  1.7587
  654MOL0     H90192   7.314   8.269   1.023  0.6355  0.3512 -0.4222
  654MOL0     H90193   7.363   8.194   1.268  0.8104  0.4495  0.9308
  654MOL0     H90194   7.423   8.363   1.293 -0.6653  0.0519  0.6799
  654MOL0     H90195   7.533   8.161   1.082  1.5146  0.3238  1.1158
  654MOL0     H90196   7.583   8.325   1.103 -3.3074  1.1149 -2.2195
  654MOL0     H90197   7.604   8.119   1.316 -0.8282  0.4496  0.1859
  654MOL0     H90198   7.656   8.287   1.346  0.9069  0.5495  0.1895
  654MOL0     H90199   7.776   8.107   1.138 -1.2680 -0.0348  0.0762
  654MOL0     H90200   7.816   8.274   1.158 -1.4932  0.9086  0.5386
  654MOL0     H90201   8.000   8.338   1.389 -3.9405  0.8314 -1.7902
  654MOL0     H90202   8.170   8.279   1.583  0.8548 -0.9269 -1.2739
  654MOL0     H90203   8.235   8.136   1.530  1.5817  1.5862  1.5021
  654MOL0     H90204   8.017   8.121   1.754  1.0905 -1.3112  2.2934
  654MOL0     H90205   8.142   8.012   1.719  0.1224 -0.6969  0.9208
  654MOL0     H90206   8.168   8.302   1.831 -0.0581  0.6728  2.5688
  654MOL0     H90207   8.156   8.156   1.925  0.0234 -0.5756 -0.6646
  654MOL0     H90208   8.368   8.216   1.711 -1.3181 -0.2123 -0.1321
  654MOL0     H90209   8.392   8.255   1.876  0.3498  0.9092  0.2052
  654MOL0     H90210   8.604   8.179   1.706  1.4923  0.0981  1.5626
  654MOL0     H90211   8.745   8.196   1.563 -0.4099  0.0598  3.8636
  654MOL0     H90212   8.826   8.061   1.478  0.0200 -0.0758 -0.5932
  654MOL0     H90213   8.905   8.125   1.623  0.3559  0.3129 -0.4108
  654MOL0     H90214   9.169   7.872   1.674  1.0128 -0.4714  0.1961
  654MOL0     H90215   9.387   7.763   1.604  0.5795  0.3161 -0.6714
  654MOL0     H90216   9.381   7.458   1.330  1.1886 -0.5858  1.2486
  654MOL0     H90217   9.389   7.562   1.189 -2.0885 -1.8934  0.7210
  654MOL0     H90218   9.628   7.592   1.226 -0.4459 -0.1776 -0.2752
  654MOL0     H90219   9.622   7.508   1.380  2.1826 -0.1738 -0.5313
  654MOL0     H90220   9.527   7.359   1.133  2.3573 -0.6010 -1.9021
  654MOL0     H90221   9.547   7.293   1.293  0.1913 -0.6590 -0.6347
  654MOL0     H90222   9.801   7.363   1.278  0.5716 -2.3747  0.8576
  654MOL0     H90223   9.775   7.387   1.112  2.4790  2.6489  3.5784
  654MOL0     H90224   9.731   7.123   1.260 -0.9517  2.3819  0.2784
  654MOL0     H90225   9.677   7.147   1.088 -1.3819 -0.3485  0.0751
  654MOL0     H90226   9.975   7.171   1.175  0.7267  1.7591 -0.3263
  654MOL0     H90227   9.923   7.200   1.023  3.7869  0.3047  1.3394
  654MOL0     H90228   9.882   6.977   0.965  2.5164  0.3352 -1.3814
  654MOL0     H90229   9.834   6.921   1.120  2.0854 -2.0511 -2.1513
  654MOL0     H90230  10.056   6.954   1.212  1.2116  2.1065 -0.3794
  654MOL0     H90231  10.120   6.996   1.059 -0.6284  0.6855 -0.8415
  654MOL0     H90232   9.188   7.641   1.241  0.0657  1.7090 -0.2742
  654MOL0     H90233   8.969   7.735   1.334 -0.2420  5.0048 -0.3290
  654MOL0     H90234   8.659   7.694   1.784 -0.3162 -0.1708  0.5367
  654MOL0     H90235   8.445   7.820   1.856  0.3417 -0.1104  0.4506
  654MOL0     H90236   6.938   8.461   1.179  2.4778  1.2371  0.3670
  654MOL0     H90237   6.704   8.445   1.180  0.7758  0.1551  0.6658
  654MOL0     H90238   6.278   8.424   0.693 -0.7116  2.1459 -0.9808
  654MOL0     H90239   6.044   8.364   0.718  0.0536  4.2949 -0.5913
  654MOL0     H90240   5.811   8.399   0.844 -1.5844 -0.1492 -0.8954
  654MOL0     H90241   5.847   8.247   0.761 -4.0365 -3.3445  0.4101
  654MOL0     H90242   5.646   8.215   0.808 -1.3201  1.2476 -0.2933
  654MOL0     H90243   5.665   8.298   0.970  1.8621  0.4794  0.8466
  654MOL0     H90244   5.801   8.029   0.908 -0.2834 -0.9731  1.1418
  654MOL0     H90245   5.756   8.100   1.059 -2.1267  2.7440  0.2127
  654MOL0     H90246   5.604   7.904   0.990 -1.2874 -0.3090 -0.6170
  654MOL0     H90247   5.540   8.021   0.868  2.4251 -0.5471 -1.3307
  654MOL0     H90248   5.384   8.162   1.231  0.7181  0.8102 -0.1376
  654MOL0     H90249   6.115   8.240   1.118  2.7404 -2.8586  0.6188
  654MOL0     H90250   6.314   8.249   1.203 -1.0149  0.7380  1.0034
  654MOL0     H90251   6.467   8.284   1.111 -1.7270 -3.5888 -0.2928
  654MOL0     H90252   6.381   8.414   1.208  0.7258  0.0229 -0.9960
  655MOL0     O90253  11.158   1.606  11.119  0.2737 -0.0755 -0.1024
  655MOL0     C90254  11.186   1.671  11.015 -0.1631 -1.0659 -0.1306
  655MOL0     O90255  11.097   1.746  10.941 -0.0772 -0.2522  0.3493
  655MOL0     C90256  10.965   1.756  10.992  0.3819  0.4469 -0.6937
  655MOL0     C90257  10.859   1.758  10.902  0.1868 -0.7469 -0.1112
  655MOL0     C90258  10.735   1.771  10.952 -0.1478 -0.1283 -0.1373
  655MOL0     C90259  10.697   1.794  11.082 -0.9402  0.7923 -0.1277
  655MOL0     O90260  10.569   1.805  11.142 -0.4122  0.1661  0.1817
  655MOL0     C90261  10.478   1.890  11.071 -0.1052  0.1025 -0.1620
  655MOL0     C90262  10.347   1.890  11.140 -0.4998 -1.0051 -0.3421
  655MOL0     C90263  10.271   1.764  11.099 -0.0530 -0.1916  0.4655
  655MOL0     C90264  10.134   1.772  11.157  0.4953 -0.1602 -0.0445
  655MOL0     C90265  10.049   1.645  11.114 -0.1520  0.0861 -0.3242
  655MOL0     C90266   9.908   1.688  11.104 -0.1678  0.1360  0.1949
  655MOL0     C90267   9.813   1.568  11.061  0.1509  0.3614  0.9623
  655MOL0     C90268   9.666   1.604  11.066  0.6498  0.3459  0.1419
  655MOL0     N90269   9.563   1.499  11.038  0.5610 -0.2149 -0.1308
  655MOL0     C90270   9.439   1.526  10.979 -0.4890 -0.5871 -0.1544
  655MOL0     C90271   9.363   1.410  10.995 -0.8444  0.0372  0.2299
  655MOL0     C90272   9.222   1.384  10.962 -0.4284  0.3328 -0.8767
  655MOL0     C90273   9.179   1.396  10.815  0.4977 -0.0069 -0.3784
  655MOL0     C90274   9.262   1.321  10.716  0.2372 -0.0116 -0.0205
  655MOL0     C90275   9.241   1.170  10.739  0.7374 -0.1025  0.0340
  655MOL0     O90276   9.317   1.094  10.639 -0.1741  0.0823 -0.4287
  655MOL0     C90277   9.449   1.061  10.661  0.3386 -0.2803  0.9366
  655MOL0     C90278   9.531   1.124  10.762 -0.3406 -0.3857  0.5534
  655MOL0     C90279   9.667   1.084  10.781 -0.4388 -0.2217  0.2278
  655MOL0     C90280   9.732   1.142  10.893 -0.7459 -0.2154 -0.0561
  655MOL0     C90281   9.714   0.976  10.688  1.1900 -1.5015 -0.2229
  655MOL0     C90282   9.863   0.933  10.691  0.0106 -0.6650 -0.7596
  655MOL0     O90283   9.889   0.839  10.600  0.1173 -0.9664 -0.9558
  655MOL0     C90284  10.023   0.823  10.579  0.3738 -1.5088  0.9503
  655MOL0     C90285  10.093   0.885  10.469  0.5927 -0.5131 -0.2746
  655MOL0     C90286  10.224   0.844  10.443 -0.0570 -0.6102  0.4284
  655MOL0     C90287  10.295   0.762  10.528  0.6369  0.4182 -0.5967
  655MOL0     O90288  10.429   0.747  10.489  0.5262 -0.0276  0.2230
  655MOL0     C90289  10.502   0.637  10.540  0.0534 -0.1889  0.8272
  655MOL0     C90290  10.637   0.635  10.466  0.3608  0.0197  0.1427
  655MOL0     C90291  10.694   0.496  10.473  0.8624  0.5078  0.1529
  655MOL0     C90292  10.816   0.479  10.381  0.2633 -0.8811 -0.5619
  655MOL0     C90293  10.785   0.395  10.249 -0.0767  0.0231  0.2110
  655MOL0     C90294  10.893   0.408  10.137 -1.6777  0.3392 -0.2834
  655MOL0     C90295  11.019   0.317  10.151  0.1657  0.0279 -0.2175
  655MOL0     C90296  11.110   0.339  10.030  0.6591  0.2500 -0.1889
  655MOL0    Cl90297  11.037   0.264   9.879  0.3335 -0.4471 -0.2328
  655MOL0     C90298  10.229   0.705  10.630  0.9429  0.7503  0.0133
  655MOL0     C90299  10.094   0.734  10.655 -0.4480  0.3805 -0.2902
  655MOL0     O90300   9.946   0.988  10.773 -0.7177 -0.5450 -0.6313
  655MOL0     C90301   9.629   0.919  10.588 -1.0294  0.5568 -0.0020
  655MOL0     C90302   9.499   0.960  10.586  0.6564 -0.3267  1.0218
  655MOL0     N90303   9.451   1.315  11.063  0.1075  0.0498  0.5056
  655MOL0     N90304   9.570   1.371  11.091 -0.3616 -0.7704  0.5676
  655MOL0     C90305  10.800   1.799  11.166 -0.4278  0.5208 -0.2360
  655MOL0     C90306  10.932   1.784  11.125  0.0838  0.4827 -0.2541
  655MOL0     C90307  11.332   1.694  10.977 -0.3188  0.6867 -0.4277
  655MOL0     C90308  11.367   1.805  10.895  0.0240  0.3087  0.7183
  655MOL0     C90309  11.493   1.803  10.825  0.5637 -0.3763  0.6817
  655MOL0     C90310  11.582   1.699  10.843  0.1580 -0.0458 -0.1034
  655MOL0     O90311  11.704   1.700  10.773  0.1807  0.0841  0.4917
  655MOL0     C90312  11.791   1.780  10.858 -0.2681 -0.6120 -0.5307
  655MOL0     C90313  11.905   1.839  10.774  0.0920 -0.2545 -0.5319
  655MOL0     C90314  11.983   1.943  10.855  0.3487 -0.6204  0.7689
  655MOL0     C90315  12.059   2.045  10.770  0.0814  0.3409  0.5008
  655MOL0     C90316  12.171   1.973  10.708 -1.2428 -0.1924 -0.3782
  655MOL0     C90317  12.243   1.893  10.649 -0.6062  1.1226 -0.5407
  655MOL0     C90318  11.542   1.591  10.919 -0.5101 -0.2834 -0.1266
  655MOL0     C90319  11.419   1.583  10.985 -0.0957  1.1757 -0.3518
  655MOL0     C90320  11.387   1.442  11.050  0.1111 -0.7255  0.1615
  655MOL0     H90321  10.884   1.754  10.797  0.0321  0.2837 -0.1964
  655MOL0     H90322  10.657   1.746  10.880 -0.3940 -0.3805  0.2114
  655MOL0     H90323  10.470   1.852  10.969  0.7583  1.8328 -0.9031
  655MOL0     H90324  10.513   1.993  11.068 -1.8968  0.7205 -1.6464
  655MOL0     H90325  10.381   1.895  11.244  1.2482  3.3233 -0.8951
  655MOL0     H90326  10.297   1.981  11.105  0.2107 -0.3418  0.3017
  655MOL0     H90327  10.267   1.749  10.990 -1.7722 -4.3716  0.8976
  655MOL0     H90328  10.327   1.683  11.147  0.9879  0.1827 -0.0774
  655MOL0     H90329  10.147   1.781  11.265 -2.0234 -0.4564  0.3502
  655MOL0     H90330  10.079   1.859  11.120 -0.5762 -0.4704  0.7709
  655MOL0     H90331  10.065   1.570  11.192 -1.6885  1.4073  1.3792
  655MOL0     H90332  10.089   1.613  11.018  3.0357 -0.4402  1.0678
  655MOL0     H90333   9.868   1.731  11.196  0.7265 -2.2515  1.7881
  655MOL0     H90334   9.901   1.747  11.012  1.0141  0.2005  0.1367
  655MOL0     H90335   9.834   1.490  11.135 -2.8747 -1.8844 -0.3318
  655MOL0     H90336   9.830   1.529  10.961  0.8118  2.9164  0.0053
  655MOL0     H90337   9.672   1.638  11.170  1.3754 -0.4516  0.3751
  655MOL0     H90338   9.637   1.682  10.995 -2.0713  0.2464  1.0429
  655MOL0     H90339   9.414   1.626  10.943 -1.9104 -1.0531 -0.5166
  655MOL0     H90340   9.157   1.449  11.022 -0.1435  1.8892 -2.1828
  655MOL0     H90341   9.201   1.283  10.999  3.4088 -0.1760  0.3720
  655MOL0     H90342   9.077   1.356  10.811 -0.1650  1.5779  0.0166
  655MOL0     H90343   9.181   1.501  10.783  1.2951 -0.2117 -1.0515
  655MOL0     H90344   9.225   1.348  10.617 -1.9446  1.7051  1.1639
  655MOL0     H90345   9.367   1.348  10.727  0.1541 -0.5079  2.6574
  655MOL0     H90346   9.263   1.130  10.838 -2.0221 -3.0786 -0.3750
  655MOL0     H90347   9.133   1.153  10.730  0.5823  0.8527 -0.1256
  655MOL0     H90348   9.492   1.193  10.836  2.4216  1.5713  0.3443
  655MOL0     H90349   9.692   1.238  10.928  0.9403 -0.3398  2.5155
  655MOL0     H90350   9.837   1.167  10.880 -0.9154 -0.2331 -1.5532
  655MOL0     H90351   9.724   1.082  10.985 -1.8844 -0.0444 -0.0254
  655MOL0     H90352  10.040   0.959  10.409  0.6697  0.4148  0.7713
  655MOL0     H90353  10.285   0.895  10.369  0.8689 -0.7883  1.0473
  655MOL0     H90354  10.519   0.654  10.647  0.5283  3.0454  0.3464
  655MOL0     H90355  10.458   0.539  10.519  2.3972 -0.9557 -0.9585
  655MOL0     H90356  10.635   0.668  10.362  3.7075  3.7442  1.0360
  655MOL0     H90357  10.719   0.689  10.514 -0.0900  2.5591 -1.7218
  655MOL0     H90358  10.623   0.422  10.434  1.8885  0.4388 -1.6820
  655MOL0     H90359  10.718   0.466  10.576  0.1582 -2.0569 -0.3674
  655MOL0     H90360  10.892   0.427  10.440  0.0631 -0.2797  0.2471
  655MOL0     H90361  10.848   0.577  10.346 -0.0204 -0.8087 -0.6191
  655MOL0     H90362  10.765   0.290  10.270 -3.8809  0.8324  1.5939
  655MOL0     H90363  10.687   0.429  10.214 -1.2342 -0.2762  2.8475
  655MOL0     H90364  10.928   0.512  10.134 -1.7494  0.4107  0.8640
  655MOL0     H90365  10.853   0.417  10.036  0.5869  1.2579 -1.1618
  655MOL0     H90366  10.986   0.213  10.146  0.3101 -0.1486  1.7252
  655MOL0     H90367  11.070   0.323  10.248  0.0579  1.1919 -0.2159
  655MOL0     H90368  11.208   0.296  10.053  1.1453  1.3926 -0.0623
  655MOL0     H90369  11.118   0.447  10.020 -0.8054  0.3646 -0.3154
  655MOL0     H90370  10.292   0.647  10.696 -0.1159  1.1396  1.4254
  655MOL0     H90371  10.031   0.690  10.731 -2.3148  0.7116 -1.5699
  655MOL0     H90372   9.646   0.833  10.524  0.4828  0.8194  0.0053
  655MOL0     H90373   9.430   0.919  10.512  0.2419  4.4883 -1.6671
  655MOL0     H90374  10.781   1.826  11.269 -1.4630  0.4483 -0.4027
  655MOL0     H90375  11.012   1.777  11.198 -1.6441 -0.7204  1.6160
  655MOL0     H90376  11.298   1.887  10.875 -0.8670 -1.0236 -2.2181
  655MOL0     H90377  11.522   1.891  10.769 -1.0400  2.6034  4.1472
  655MOL0     H90378  11.735   1.862  10.905  0.4198  0.8049 -2.0884
  655MOL0     H90379  11.828   1.721  10.942  3.5978  1.0225 -0.8985
  655MOL0     H90380  11.868   1.890  10.685  2.9105  0.2711 -1.5052
  655MOL0     H90381  11.968   1.752  10.752  0.3710 -0.7410  1.8592
  655MOL0     H90382  11.909   2.004  10.907  1.3267  3.0691 -1.7464
  655MOL0     H90383  12.049   1.902  10.932  1.6732 -0.6866 -0.3589
  655MOL0     H90384  12.104   2.130  10.823 -0.9962  1.8553 -0.8801
  655MOL0     H90385  11.995   2.086  10.691 -0.5380  1.8095  1.7193
  655MOL0     H90386  12.291   1.818  10.590  3.4925  3.1382 -0.1452
  655MOL0     H90387  11.613   1.509  10.916 -0.7093 -0.4287 -2.2748
  655MOL0     H90388  11.378   1.470  11.155 -0.0301  1.2040 -0.3169
  655MOL0     H90389  11.291   1.408  11.010 -1.0180  2.3427 -0.0327
  655MOL0     H90390  11.466   1.368  11.033  0.3038 -0.7605  1.1519
  656MOL0     O90391   7.421   0.865   9.352  0.6696 -0.7723 -0.0677
  656MOL0     C90392   7.441   0.787   9.437  0.3066  0.0959 -0.0926
  656MOL0     O90393   7.353   0.745   9.532  0.4099 -0.3097  1.3182
  656MOL0     C90394   7.220   0.753   9.498 -0.0560  0.0730 -0.9757
  656MOL0     C90395   7.157   0.711   9.382 -0.8497 -1.1838 -0.2896
  656MOL0     C90396   7.017   0.710   9.357 -0.7442  0.4310  0.3016
  656MOL0     C90397   6.930   0.760   9.459  0.1226  0.4669 -1.1485
  656MOL0     O90398   6.795   0.747   9.450  0.2973 -0.2905  0.3779
  656MOL0     C90399   6.713   0.784   9.565  0.5551  0.0527  0.5906
  656MOL0     C90400   6.567   0.767   9.545  0.7901  0.1612  0.4242
  656MOL0     C90401   6.497   0.866   9.447  0.5951  0.1508 -0.8070
  656MOL0     C90402   6.555   0.878   9.308  0.4815 -0.1098  0.6570
  656MOL0     C90403   6.476   0.981   9.230  0.4178 -0.2342 -0.2365
  656MOL0     C90404   6.546   1.021   9.098  0.1485 -1.1218  0.1357
  656MOL0     C90405   6.461   1.111   9.010  0.1773 -0.5722 -0.7707
  656MOL0     C90406   6.439   1.046   8.864 -0.4724  0.5451  0.2315
  656MOL0     N90407   6.567   1.013   8.803  0.6430 -0.7481 -0.3699
  656MOL0     C90408   6.678   1.094   8.790  0.0024 -0.4185  1.1118
  656MOL0     C90409   6.768   1.021   8.720  0.1891 -0.0127  0.5677
  656MOL0     C90410   6.901   1.057   8.674  0.8619  0.3291 -1.2526
  656MOL0     C90411   6.981   1.120   8.777  0.8908  0.5402  0.5246
  656MOL0     C90412   7.123   1.157   8.730 -0.1407  0.2727 -0.1568
  656MOL0     C90413   7.230   1.121   8.841  0.1292 -0.1137  0.1262
  656MOL0     O90414   7.333   1.222   8.852 -0.7780 -0.3676  0.4554
  656MOL0     C90415   7.428   1.235   8.756  0.1925 -0.4427  0.7825
  656MOL0     C90416   7.452   1.359   8.707 -0.7091  0.2784  0.7448
  656MOL0     C90417   7.553   1.386   8.608  0.2438  0.0785  0.0282
  656MOL0     C90418   7.557   1.513   8.531  0.4766 -0.6001  0.0740
  656MOL0     C90419   7.636   1.278   8.573 -0.6771  0.1182 -0.2134
  656MOL0     C90420   7.753   1.290   8.481 -0.0515  0.4624  0.4330
  656MOL0     O90421   7.791   1.174   8.417  0.1173  0.7647 -0.1273
  656MOL0     C90422   7.901   1.174   8.340  0.4330 -0.4211  0.5969
  656MOL0     C90423   8.023   1.131   8.392  0.5107 -0.1766  0.0224
  656MOL0     C90424   8.139   1.126   8.318  0.3213  0.1401 -0.9567
  656MOL0     C90425   8.135   1.169   8.189  0.0017 -0.0573  1.0885
  656MOL0     O90426   8.260   1.161   8.129  0.4602  0.3686  0.4853
  656MOL0     C90427   8.270   1.165   7.984 -0.5341  0.1904 -0.4550
  656MOL0     C90428   8.414   1.187   7.946  0.0997 -0.0693 -0.6808
  656MOL0     C90429   8.431   1.184   7.788 -0.3256  0.2939 -1.0981
  656MOL0     C90430   8.583   1.183   7.764  0.3347 -0.0904  0.2166
  656MOL0     C90431   8.614   1.213   7.614 -0.5300 -0.9306 -0.0305
  656MOL0     C90432   8.766   1.213   7.601 -0.2484  0.2122 -0.4437
  656MOL0     C90433   8.827   1.349   7.654 -0.2672  0.0202  0.4220
  656MOL0     C90434   8.950   1.397   7.578  0.6738  0.2898 -1.1849
  656MOL0    Cl90435   9.095   1.303   7.615  0.2479  0.1434 -0.4390
  656MOL0     C90436   8.013   1.205   8.128  0.6390  0.8360 -0.7376
  656MOL0     C90437   7.900   1.224   8.211  0.1135  0.1183 -0.6284
  656MOL0     O90438   7.814   1.392   8.468 -0.5569 -0.5471 -0.3066
  656MOL0     C90439   7.605   1.141   8.620 -0.2799 -0.3244  0.6487
  656MOL0     C90440   7.508   1.121   8.716  0.4513  0.3999 -0.3559
  656MOL0     N90441   6.717   0.897   8.696  0.5840  0.8609  0.0238
  656MOL0     N90442   6.597   0.903   8.742 -0.3652  0.1739 -0.5194
  656MOL0     C90443   6.999   0.804   9.581 -0.3981  0.7039  0.5367
  656MOL0     C90444   7.138   0.797   9.598 -0.2050 -0.8251  0.0016
  656MOL0     C90445   7.584   0.731   9.438  0.9811 -0.3145  0.4410
  656MOL0     C90446   7.660   0.751   9.328 -0.2453 -0.3681 -1.4631
  656MOL0     C90447   7.789   0.694   9.309  0.0581 -0.0514 -0.5715
  656MOL0     C90448   7.845   0.632   9.416  0.0965 -0.3337  0.3257
  656MOL0     O90449   7.979   0.611   9.398  0.1204  1.0993 -0.7165
  656MOL0     C90450   8.060   0.545   9.496  0.0350 -0.1739  0.9440
  656MOL0     C90451   8.120   0.642   9.593  0.0007  0.5087 -0.5708
  656MOL0     C90452   8.228   0.732   9.536  0.3481 -0.2562 -0.0699
  656MOL0     C90453   8.310   0.792   9.638  0.2335  0.6807 -0.7089
  656MOL0     C90454   8.416   0.869   9.574  1.0902 -0.4719  0.1071
  656MOL0     C90455   8.484   0.946   9.502  0.1390  0.3744  0.0505
  656MOL0     C90456   7.770   0.610   9.527  0.3852  0.8641 -0.2779
  656MOL0     C90457   7.633   0.650   9.544  0.7744  0.7169  0.5028
  656MOL0     C90458   7.564   0.618   9.675 -0.5183 -0.5682 -0.7459
  656MOL0     H90459   7.228   0.677   9.308  2.5525  0.2919  2.0487
  656MOL0     H90460   6.964   0.680   9.268 -2.2643  0.5878  1.1219
  656MOL0     H90461   6.738   0.887   9.594 -2.2919  1.0159 -0.0865
  656MOL0     H90462   6.746   0.718   9.645 -0.2611 -1.4519 -0.2658
  656MOL0     H90463   6.546   0.666   9.510  2.6911  0.0188 -0.4279
  656MOL0     H90464   6.513   0.772   9.641 -1.5694 -0.7868 -0.7720
  656MOL0     H90465   6.390   0.842   9.442  0.4116  0.8145 -0.1175
  656MOL0     H90466   6.521   0.968   9.476  3.0939 -0.0382 -1.9685
  656MOL0     H90467   6.653   0.927   9.314  0.0314  0.7425  1.3755
  656MOL0     H90468   6.566   0.785   9.252  1.6772 -0.6849  1.7994
  656MOL0     H90469   6.462   1.076   9.282  0.8017 -0.5701  0.4839
  656MOL0     H90470   6.380   0.930   9.212  0.5160 -0.7842  0.7051
  656MOL0     H90471   6.636   1.076   9.127 -0.3001 -1.0950  1.5835
  656MOL0     H90472   6.565   0.926   9.048 -3.1958 -1.5340 -0.5642
  656MOL0     H90473   6.512   1.208   9.003 -0.2329 -0.3720 -1.0077
  656MOL0     H90474   6.362   1.132   9.051 -0.1751  1.0106 -2.2971
  656MOL0     H90475   6.371   0.960   8.872 -0.2762  0.1714 -1.6257
  656MOL0     H90476   6.396   1.119   8.795  1.6609  2.0409  0.3992
  656MOL0     H90477   6.690   1.191   8.837 -0.6801 -0.7999  2.1129
  656MOL0     H90478   6.888   1.137   8.600 -1.1517  0.7170 -0.5472
  656MOL0     H90479   6.949   0.970   8.628 -0.7604 -0.5685 -1.3136
  656MOL0     H90480   6.933   1.213   8.809  0.7733  0.3368  0.9483
  656MOL0     H90481   6.979   1.053   8.863  0.8279  0.1342  0.2124
  656MOL0     H90482   7.144   1.098   8.640  0.4739 -0.7444  0.6467
  656MOL0     H90483   7.137   1.262   8.700 -4.3262  1.3052  0.8460
  656MOL0     H90484   7.188   1.107   8.941  0.0659  0.1390  0.1336
  656MOL0     H90485   7.285   1.033   8.805  0.2811 -0.4051  1.0553
  656MOL0     H90486   7.387   1.437   8.744 -1.2634  1.2089 -1.9587
  656MOL0     H90487   7.479   1.580   8.569 -1.3889 -2.6031 -0.0525
  656MOL0     H90488   7.536   1.491   8.426 -0.9351  0.4096  0.1040
  656MOL0     H90489   7.652   1.566   8.538 -0.2429  1.2306 -2.6548
  656MOL0     H90490   8.027   1.097   8.495  1.3293 -2.4655 -0.6959
  656MOL0     H90491   8.234   1.092   8.358 -1.4373 -0.4274  3.3448
  656MOL0     H90492   8.229   1.069   7.949  1.0049  0.1406 -2.2932
  656MOL0     H90493   8.214   1.233   7.919  0.0787 -1.8547 -3.3570
  656MOL0     H90494   8.443   1.285   7.986  0.1378 -0.4915  0.3504
  656MOL0     H90495   8.482   1.116   7.995 -3.3980 -4.1857 -1.1615
  656MOL0     H90496   8.386   1.278   7.754 -1.7647 -0.4342 -1.2668
  656MOL0     H90497   8.367   1.103   7.752 -0.1157  0.1714 -1.1949
  656MOL0     H90498   8.620   1.081   7.782  0.5931 -0.0350  0.0031
  656MOL0     H90499   8.641   1.247   7.830  0.0164 -1.0795  1.5006
  656MOL0     H90500   8.579   1.133   7.549  4.0220 -0.9911 -2.8265
  656MOL0     H90501   8.578   1.309   7.579 -0.6080 -0.8123  0.3686
  656MOL0     H90502   8.789   1.191   7.496 -2.4700 -0.2509 -0.8847
  656MOL0     H90503   8.818   1.136   7.658  1.4597  0.1265 -2.0040
  656MOL0     H90504   8.859   1.341   7.758  2.3719  3.4523  0.0721
  656MOL0     H90505   8.750   1.425   7.644  1.0628  1.1225 -3.4335
  656MOL0     H90506   8.987   1.498   7.600  0.7542  0.2612 -1.1930
  656MOL0     H90507   8.928   1.401   7.471  1.2542  0.7451 -1.2929
  656MOL0     H90508   8.004   1.232   8.023 -0.8416 -0.8715 -1.1015
  656MOL0     H90509   7.812   1.267   8.166  0.0771  1.9527  1.0801
  656MOL0     H90510   7.656   1.053   8.583  0.7653  0.6885 -0.3825
  656MOL0     H90511   7.508   1.021   8.758  2.2640 -0.0865 -1.4049
  656MOL0     H90512   6.952   0.827   9.677  0.2863  0.4269  0.9450
  656MOL0     H90513   7.174   0.838   9.691  2.9620 -0.4239 -1.2673
  656MOL0     H90514   7.638   0.821   9.247  2.2898  3.0279  0.5159
  656MOL0     H90515   7.837   0.704   9.212 -2.9149  1.2835 -2.0489
  656MOL0     H90516   7.989   0.483   9.551  0.2475 -0.9931  0.3186
  656MOL0     H90517   8.128   0.473   9.449 -0.6325  1.0891 -2.2788
  656MOL0     H90518   8.152   0.583   9.679 -4.3004 -2.6097 -0.7848
  656MOL0     H90519   8.037   0.694   9.641  0.2257 -0.0786  0.4869
  656MOL0     H90520   8.291   0.686   9.458 -2.2521 -0.9755 -1.9215
  656MOL0     H90521   8.176   0.815   9.488  2.1752  0.0885 -1.5698
  656MOL0     H90522   8.344   0.710   9.701  0.7198  0.3434 -1.3897
  656MOL0     H90523   8.252   0.865   9.694  1.2284  1.4904 -0.6977
  656MOL0     H90524   8.547   1.013   9.446  2.3121 -0.7982  0.9595
  656MOL0     H90525   7.804   0.554   9.613 -0.3201 -2.3545 -1.9201
  656MOL0     H90526   7.472   0.560   9.660 -0.8565  0.1871 -1.6783
  656MOL0     H90527   7.625   0.568   9.751  0.7291 -1.6291 -2.3647
  656MOL0     H90528   7.534   0.711   9.723  0.0502 -1.3118  1.1481
  657MOL0     O90529   0.959   0.056   7.448  0.1954  0.5158  0.1386
  657MOL0     C90530   0.927   0.156   7.513 -0.0940  0.4092  0.3614
  657MOL0     O90531   0.812   0.229   7.492  0.0687  0.0282 -0.2227
  657MOL0     C90532   0.723   0.183   7.396  0.3178 -1.1871 -0.0084
  657MOL0     C90533   0.596   0.156   7.441  0.3332  0.0026 -0.4012
  657MOL0     C90534   0.502   0.122   7.351  1.0493  0.6130 -0.0745
  657MOL0     C90535   0.540   0.112   7.215 -0.0008  0.0971  0.3132
  657MOL0     O90536   0.439   0.062   7.133 -1.0302  0.3130  0.6928
  657MOL0     C90537   0.407   0.151   7.023  0.1091 -1.1946  0.9651
  657MOL0     C90538   0.266   0.130   6.968  0.3324 -0.2459  0.9491
  657MOL0     C90539   0.172   0.153   7.084 -0.0571  0.2008 -0.0494
  657MOL0     C90540   0.025   0.122   7.055  0.5749  0.1241  0.2104
  657MOL0     C90541  -0.052   0.118   7.188  0.0232  0.0826  0.0580
  657MOL0     C90542  -0.199   0.141   7.163  0.1987  0.3013  0.6353
  657MOL0     C90543  -0.280   0.134   7.290 -0.5479 -0.3125  0.0703
  657MOL0     C90544  -0.263   0.252   7.389  1.5021  0.4059 -0.0527
  657MOL0     N90545  -0.353   0.226   7.501  1.0055 -0.2600 -0.1216
  657MOL0     C90546  -0.361   0.106   7.572  0.7534 -0.3450  0.0343
  657MOL0     C90547  -0.477   0.118   7.641  0.6978  0.4119  0.0819
  657MOL0     C90548  -0.536   0.023   7.735 -0.1133 -0.3744  0.1147
  657MOL0     C90549  -0.582  -0.108   7.673 -0.5461  1.0194 -0.0201
  657MOL0     C90550  -0.707  -0.089   7.583  0.1235  0.0823  0.0190
  657MOL0     C90551  -0.819  -0.011   7.638 -0.6062 -0.1427 -0.8903
  657MOL0     O90552  -0.891  -0.048   7.758 -0.1497 -0.3468  0.2747
  657MOL0     C90553  -1.011  -0.121   7.750 -0.5701 -0.3118 -0.6355
  657MOL0     C90554  -1.078  -0.158   7.628 -0.2116 -0.0053 -0.1228
  657MOL0     C90555  -1.197  -0.224   7.632 -0.3614  0.5693 -0.0484
  657MOL0     C90556  -1.247  -0.263   7.495  0.5442 -0.0538  0.0462
  657MOL0     C90557  -1.262  -0.263   7.751  0.5693  0.6673  0.8557
  657MOL0     C90558  -1.399  -0.331   7.751 -0.6290 -0.2903  0.5042
  657MOL0     O90559  -1.418  -0.444   7.823 -0.4835  0.7598 -0.1733
  657MOL0     C90560  -1.541  -0.507   7.830 -0.4021  0.0667 -0.4644
  657MOL0     C90561  -1.666  -0.439   7.831  0.0418 -0.2833 -0.6709
  657MOL0     C90562  -1.785  -0.513   7.847 -0.6388 -0.3808 -1.1144
  657MOL0     C90563  -1.789  -0.654   7.844 -0.9150 -0.9122 -0.4961
  657MOL0     O90564  -1.907  -0.721   7.846  0.2383 -1.1975 -0.2888
  657MOL0     C90565  -1.911  -0.857   7.889  0.3725 -0.8334  0.8841
  657MOL0     C90566  -2.035  -0.896   7.945  0.1183 -0.4339 -0.9140
  657MOL0     C90567  -2.159  -0.853   7.868  0.2848 -0.2018  0.6105
  657MOL0     C90568  -2.292  -0.872   7.950  0.3175  1.2927 -0.5895
  657MOL0     C90569  -2.309  -0.760   8.046 -0.3250 -0.6093 -0.5976
  657MOL0     C90570  -2.427  -0.798   8.136 -0.1760 -0.7476  0.5219
  657MOL0     C90571  -2.437  -0.706   8.253 -1.0632 -0.0076  0.0361
  657MOL0     C90572  -2.564  -0.720   8.336 -0.0213  0.3234  0.8148
  657MOL0    Cl90573  -2.571  -0.896   8.396  0.2264 -0.3713  0.6485
  657MOL0     C90574  -1.664  -0.719   7.846  0.1234  0.2471  0.8659
  657MOL0     C90575  -1.548  -0.647   7.853 -0.2038 -0.2550  1.1528
  657MOL0     O90576  -1.483  -0.278   7.681  0.2076  0.2466 -0.2420
  657MOL0     C90577  -1.200  -0.230   7.873 -0.6332 -0.5469 -0.0768
  657MOL0     C90578  -1.074  -0.157   7.869 -0.2979 -0.0261 -0.3230
  657MOL0     N90579  -0.529   0.249   7.617 -0.4336  0.2726  0.5373
  657MOL0     N90580  -0.445   0.319   7.537 -0.1157  0.7432 -0.9273
  657MOL0     C90581   0.664   0.162   7.164 -0.0801  0.1221 -0.8169
  657MOL0     C90582   0.755   0.205   7.263  0.2121  1.1370  0.1670
  657MOL0     C90583   1.028   0.215   7.599 -0.2722  0.1111  0.2483
  657MOL0     C90584   1.014   0.359   7.616 -0.3234 -0.0212  0.4496
  657MOL0     C90585   1.110   0.436   7.688  0.2550 -0.3974 -0.5997
  657MOL0     C90586   1.219   0.379   7.746 -0.1637  0.4168  0.0705
  657MOL0     O90587   1.317   0.456   7.801  0.3498  0.4509 -0.8673
  657MOL0     C90588   1.257   0.537   7.904 -0.1397 -0.1917 -0.1132
  657MOL0     C90589   1.342   0.547   8.030 -0.7124  0.9902 -0.1011
  657MOL0     C90590   1.465   0.630   7.998  0.7342 -0.9696 -0.8991
  657MOL0     C90591   1.564   0.633   8.117  0.4408 -0.0289  0.3233
  657MOL0     C90592   1.709   0.610   8.082 -0.3304 -0.0245 -0.7538
  657MOL0     C90593   1.832   0.605   8.062 -0.4997 -0.6461 -0.3937
  657MOL0     C90594   1.230   0.240   7.734  1.0417  0.3525 -0.8268
  657MOL0     C90595   1.134   0.154   7.665  0.3757 -0.5998  0.0227
  657MOL0     C90596   1.167   0.009   7.670  0.4106  0.9256 -0.2713
  657MOL0     H90597   0.572   0.155   7.546 -0.5561  1.7298 -0.5666
  657MOL0     H90598   0.401   0.089   7.372  1.6559 -0.6238  1.0488
  657MOL0     H90599   0.475   0.134   6.939  0.2345 -3.7699  1.4975
  657MOL0     H90600   0.415   0.254   7.060 -0.4880 -1.6083  2.3185
  657MOL0     H90601   0.244   0.202   6.889  0.5924 -0.1852  0.9341
  657MOL0     H90602   0.249   0.029   6.929 -2.6462  1.1632 -1.8539
  657MOL0     H90603   0.197   0.073   7.154  1.7025  2.0099  1.5351
  657MOL0     H90604   0.188   0.248   7.137  1.6845  0.9114 -1.7160
  657MOL0     H90605  -0.017   0.195   6.985 -2.0656 -2.4843 -1.1536
  657MOL0     H90606   0.003   0.034   6.994 -0.4927  0.5598 -0.0549
  657MOL0     H90607  -0.016   0.203   7.248  0.0314 -0.6269  1.0992
  657MOL0     H90608  -0.039   0.023   7.242 -2.5051 -0.3737 -0.0181
  657MOL0     H90609  -0.216   0.239   7.117  0.2614 -1.0751 -2.6131
  657MOL0     H90610  -0.227   0.072   7.083  0.0080  0.2834  0.7183
  657MOL0     H90611  -0.265   0.039   7.342 -0.2217  0.3020  1.1136
  657MOL0     H90612  -0.382   0.143   7.250 -0.9945  2.0547  1.5691
  657MOL0     H90613  -0.159   0.267   7.420  0.5884 -1.9068  5.2886
  657MOL0     H90614  -0.295   0.345   7.342 -2.2771 -1.7837 -2.2859
  657MOL0     H90615  -0.300   0.017   7.560  2.4865  0.8101 -0.1278
  657MOL0     H90616  -0.613   0.064   7.801 -1.2861  0.5260 -1.6986
  657MOL0     H90617  -0.447  -0.002   7.792  0.1200  0.2394  0.0352
  657MOL0     H90618  -0.506  -0.144   7.603  0.0977 -3.3924  2.5761
  657MOL0     H90619  -0.609  -0.184   7.747 -1.7312  1.8613  0.4635
  657MOL0     H90620  -0.684  -0.038   7.489 -0.5183  0.1304 -0.1143
  657MOL0     H90621  -0.748  -0.185   7.551 -1.3823  0.5406  0.4962
  657MOL0     H90622  -0.780   0.084   7.678 -0.2021  0.3174 -2.3107
  657MOL0     H90623  -0.894   0.013   7.562 -0.2301  1.1651 -0.8806
  657MOL0     H90624  -1.023  -0.125   7.540 -1.5280  2.7362 -0.0488
  657MOL0     H90625  -1.287  -0.365   7.501 -2.7030  1.1921  2.8199
  657MOL0     H90626  -1.165  -0.251   7.424  0.1584 -0.4018 -0.4630
  657MOL0     H90627  -1.333  -0.208   7.456 -0.2041  2.4076  4.4292
  657MOL0     H90628  -1.672  -0.331   7.822  0.2911 -0.0576  1.3224
  657MOL0     H90629  -1.880  -0.461   7.854  0.5221  1.7144  0.2685
  657MOL0     H90630  -1.893  -0.921   7.801  4.1519 -0.5204  1.2508
  657MOL0     H90631  -1.834  -0.881   7.963  1.7974 -1.9013 -0.8544
  657MOL0     H90632  -2.038  -1.005   7.948  3.0345 -0.6843 -2.4531
  657MOL0     H90633  -2.030  -0.857   8.047  3.2091 -1.6171 -0.5087
  657MOL0     H90634  -2.161  -0.910   7.775  0.6016  0.2346  0.3323
  657MOL0     H90635  -2.146  -0.747   7.845  0.8078 -0.4582 -0.3437
  657MOL0     H90636  -2.296  -0.973   7.993 -0.7501  1.6183  0.1304
  657MOL0     H90637  -2.366  -0.871   7.870  1.2197 -2.3220 -1.6568
  657MOL0     H90638  -2.228  -0.748   8.119 -3.0839  2.7009  2.3016
  657MOL0     H90639  -2.326  -0.668   7.989 -4.3126  0.1900  1.5656
  657MOL0     H90640  -2.411  -0.895   8.184 -0.7451  0.8219  4.2011
  657MOL0     H90641  -2.517  -0.793   8.074 -0.5596 -0.5793  1.0921
  657MOL0     H90642  -2.440  -0.605   8.212 -1.6763  0.7137  1.7581
  657MOL0     H90643  -2.349  -0.717   8.317  0.9147 -0.6937 -2.6487
  657MOL0     H90644  -2.647  -0.693   8.270  0.6073  1.1751  0.3603
  657MOL0     H90645  -2.561  -0.641   8.413 -0.8383  0.7564  0.4210
  657MOL0     H90646  -1.655  -0.827   7.849  1.8444  0.3742  1.6100
  657MOL0     H90647  -1.453  -0.699   7.863  0.1522 -0.1116 -1.1068
  657MOL0     H90648  -1.251  -0.259   7.964 -1.2016  1.8758  0.4467
  657MOL0     H90649  -1.017  -0.135   7.959  1.6216 -0.0160 -1.4915
  657MOL0     H90650   0.681   0.160   7.056  0.9677  1.1157 -0.6920
  657MOL0     H90651   0.850   0.250   7.237  0.3483  1.0596  0.5301
  657MOL0     H90652   0.940   0.411   7.556  0.4554 -1.6226 -2.0542
  657MOL0     H90653   1.093   0.543   7.686 -0.9515 -0.5155  0.8714
  657MOL0     H90654   1.231   0.635   7.864  1.8041 -0.5248 -2.3930
  657MOL0     H90655   1.164   0.489   7.937 -0.6910  0.0617 -1.2773
  657MOL0     H90656   1.381   0.450   8.065 -0.1470  1.1356 -0.3198
  657MOL0     H90657   1.291   0.582   8.121  3.8585  2.5875  2.1856
  657MOL0     H90658   1.509   0.588   7.908 -1.1068 -2.7494 -1.0466
  657MOL0     H90659   1.434   0.732   7.976  0.8516 -0.2128  2.0230
  657MOL0     H90660   1.531   0.553   8.184 -0.9233  0.5454  0.3590
  657MOL0     H90661   1.554   0.727   8.171 -0.0968 -1.0593  2.0955
  657MOL0     H90662   1.938   0.610   8.042 -0.4302  0.4492  0.1568
  657MOL0     H90663   1.320   0.200   7.778  0.5882  1.4072  1.2022
  657MOL0     H90664   1.103  -0.049   7.738  1.6603  1.5426  1.5239
  657MOL0     H90665   1.163  -0.036   7.571 -1.6231  0.6825 -0.1178
  657MOL0     H90666   1.268  -0.008   7.708  0.9376  2.1444 -1.0776
  658MOL0     O90667   0.449   6.176   1.227  0.1675 -0.5193  0.0774
  658MOL0     C90668   0.425   6.300   1.236  0.1504  0.2519 -0.4433
  658MOL0     O90669   0.503   6.399   1.196 -0.0265  0.5225  0.1767
  658MOL0     C90670   0.617   6.354   1.137 -0.0759  0.2674  0.3574
  658MOL0     C90671   0.615   6.346   0.996  0.7588  0.1738  0.6543
  658MOL0     C90672   0.735   6.344   0.928 -0.1763 -0.0033  0.0809
  658MOL0     C90673   0.852   6.332   0.997 -0.5457 -0.1901 -0.6543
  658MOL0     O90674   0.966   6.330   0.924 -0.4337  0.3022 -0.3901
  658MOL0     C90675   1.062   6.435   0.950 -0.2259  0.0173 -0.2884
  658MOL0     C90676   1.196   6.404   0.878 -0.4455 -0.6270 -0.6129
  658MOL0     C90677   1.170   6.390   0.729  0.2058  0.3669  0.4091
  658MOL0     C90678   1.301   6.386   0.649 -0.1182 -0.3886  0.3998
  658MOL0     C90679   1.317   6.249   0.578 -0.4140 -1.2112 -0.7105
  658MOL0     C90680   1.448   6.254   0.488  0.4793 -0.3781 -0.1041
  658MOL0     C90681   1.412   6.310   0.357  0.5761  0.2337 -0.8834
  658MOL0     C90682   1.530   6.303   0.267 -0.5164  0.6608  0.4601
  658MOL0     N90683   1.482   6.338   0.130 -0.1408 -0.0868 -0.9531
  658MOL0     C90684   1.521   6.449   0.058  0.2308  0.6468 -0.8172
  658MOL0     C90685   1.462   6.434  -0.069  0.1634  0.5054 -1.0968
  658MOL0     C90686   1.451   6.532  -0.189 -0.1170 -0.4610 -0.1355
  658MOL0     C90687   1.406   6.670  -0.145 -0.5959 -0.2280 -0.1658
  658MOL0     C90688   1.250   6.660  -0.119  0.2274  0.5354 -0.5122
  658MOL0     C90689   1.174   6.788  -0.133  0.0502 -0.1448  0.7922
  658MOL0     O90690   1.236   6.886  -0.047  0.2778 -0.3408  0.7690
  658MOL0     C90691   1.151   6.992  -0.003 -0.3978 -0.1987  0.0407
  658MOL0     C90692   1.215   7.114   0.037 -0.7052  0.1400 -0.3213
  658MOL0     C90693   1.146   7.234   0.092  0.0174  0.5817  1.1789
  658MOL0     C90694   1.226   7.364   0.121  0.3103  0.1541 -0.2932
  658MOL0     C90695   1.005   7.219   0.109  0.3732 -0.6425  0.1090
  658MOL0     C90696   0.914   7.329   0.153  1.1540  0.2727  0.4969
  658MOL0     O90697   0.777   7.316   0.141  0.1309  0.7428  0.5835
  658MOL0     C90698   0.687   7.401   0.193 -0.8925 -0.3368 -0.2839
  658MOL0     C90699   0.696   7.530   0.144 -0.8445  0.2897  0.2644
  658MOL0     C90700   0.610   7.633   0.194 -0.1502 -0.0162  0.5644
  658MOL0     C90701   0.522   7.604   0.293 -0.4513  0.4200  0.1124
  658MOL0     O90702   0.446   7.705   0.334 -0.0207  0.8961 -0.1391
  658MOL0     C90703   0.318   7.678   0.397 -0.1056 -0.1545  0.4349
  658MOL0     C90704   0.235   7.803   0.367 -0.0650 -0.8669 -0.6734
  658MOL0     C90705   0.082   7.795   0.428  0.1433 -0.1942  0.1774
  658MOL0     C90706  -0.006   7.920   0.382 -0.2502 -0.2150  0.9770
  658MOL0     C90707  -0.156   7.905   0.410 -0.2053 -0.1365 -1.0963
  658MOL0     C90708  -0.171   7.927   0.561  0.7852 -0.2389  0.1871
  658MOL0     C90709  -0.319   7.907   0.600 -1.0034 -1.0440 -0.0276
  658MOL0     C90710  -0.347   7.958   0.741 -0.0090 -0.0005  0.5610
  658MOL0    Cl90711  -0.281   7.847   0.863 -0.0374  0.0829  0.0063
  658MOL0     C90712   0.520   7.474   0.353 -0.7491  0.0389 -0.2671
  658MOL0     C90713   0.602   7.373   0.300 -0.4704 -0.1661 -0.4875
  658MOL0     O90714   0.965   7.432   0.207  0.1125  0.0210 -0.6423
  658MOL0     C90715   0.947   7.097   0.073 -0.2342  0.4428  0.7335
  658MOL0     C90716   1.014   6.980   0.022 -0.5855  0.2499 -0.9036
  658MOL0     N90717   1.401   6.304  -0.069 -0.5241  1.0063 -0.1743
  658MOL0     N90718   1.419   6.251   0.047  0.7564 -0.2052 -0.3680
  658MOL0     C90719   0.856   6.326   1.133  0.6204 -0.7428  0.1823
  658MOL0     C90720   0.738   6.337   1.205  0.7523 -0.0917 -0.2580
  658MOL0     C90721   0.298   6.336   1.304 -0.0633  0.2331 -0.0820
  658MOL0     C90722   0.293   6.451   1.387 -0.5387 -0.7210 -0.3835
  658MOL0     C90723   0.177   6.489   1.453 -0.7183 -0.1182 -0.1291
  658MOL0     C90724   0.055   6.420   1.428  0.4076 -0.0335 -0.4178
  658MOL0     O90725  -0.056   6.461   1.503 -0.4135 -0.3288  0.0494
  658MOL0     C90726  -0.176   6.390   1.500 -1.1640 -0.4860 -0.6720
  658MOL0     C90727  -0.274   6.447   1.596 -0.1192 -0.9170 -0.7344
  658MOL0     C90728  -0.353   6.570   1.558 -0.0320  0.3595 -0.3052
  658MOL0     C90729  -0.270   6.693   1.511 -0.1988  0.5758 -0.5134
  658MOL0     C90730  -0.210   6.768   1.621 -0.5664 -0.4151 -0.8697
  658MOL0     C90731  -0.151   6.828   1.712  0.6611  0.3132 -0.1540
  658MOL0     C90732   0.053   6.317   1.336 -0.0759 -0.8664 -0.0510
  658MOL0     C90733   0.173   6.268   1.276 -0.1404  0.4987  0.2468
  658MOL0     C90734   0.159   6.158   1.180  0.2690 -0.3372 -0.4971
  658MOL0     H90735   0.514   6.352   0.957 -0.3901  1.2045  3.5279
  658MOL0     H90736   0.730   6.354   0.820  4.1340  1.2473 -0.1783
  658MOL0     H90737   1.088   6.451   1.055 -0.6176  1.2228 -0.3595
  658MOL0     H90738   1.013   6.526   0.914  0.8698  1.4763  1.7079
  658MOL0     H90739   1.262   6.489   0.898 -1.7509  0.0757  0.9398
  658MOL0     H90740   1.245   6.314   0.914 -0.1655 -0.7497 -1.2743
  658MOL0     H90741   1.102   6.310   0.696 -2.3889  1.9680  1.5885
  658MOL0     H90742   1.113   6.481   0.707 -0.8113 -0.5322 -0.8213
  658MOL0     H90743   1.297   6.467   0.576 -0.8937 -2.1596 -1.6214
  658MOL0     H90744   1.389   6.405   0.710  0.6740  1.9933 -1.3377
  658MOL0     H90745   1.222   6.229   0.527 -0.4768 -1.8302 -0.3653
  658MOL0     H90746   1.326   6.167   0.650  1.3438  0.1072  0.6467
  658MOL0     H90747   1.519   6.318   0.542  1.3759 -0.6759 -0.9029
  658MOL0     H90748   1.481   6.152   0.465 -0.2486 -0.3597 -1.3159
  658MOL0     H90749   1.379   6.414   0.366 -1.5850 -0.4397 -0.4035
  658MOL0     H90750   1.330   6.250   0.315 -0.6996 -1.0908  3.1120
  658MOL0     H90751   1.614   6.368   0.292  0.0077  0.2770 -0.2459
  658MOL0     H90752   1.571   6.202   0.255 -1.9194  0.1759 -0.6548
  658MOL0     H90753   1.586   6.530   0.087  0.3624  0.3073 -0.1489
  658MOL0     H90754   1.394   6.498  -0.275 -0.7542  2.0525 -0.7845
  658MOL0     H90755   1.551   6.562  -0.223 -0.7022  0.5347 -1.0418
  658MOL0     H90756   1.464   6.707  -0.060  4.0123  2.1332 -3.8546
  658MOL0     H90757   1.429   6.746  -0.220  0.1247  0.8668  1.0984
  658MOL0     H90758   1.212   6.595  -0.198 -0.2272 -1.3620  1.1758
  658MOL0     H90759   1.226   6.617  -0.021 -0.8101 -0.6110 -1.2508
  658MOL0     H90760   1.171   6.817  -0.239  2.0318 -0.2711  0.6576
  658MOL0     H90761   1.077   6.758  -0.093 -0.6195  0.8944 -0.0043
  658MOL0     H90762   1.323   7.121   0.026 -0.9803  2.5472 -2.1031
  658MOL0     H90763   1.195   7.437   0.046 -2.4475 -0.7521 -0.1488
  658MOL0     H90764   1.333   7.338   0.122 -0.2367 -2.6452  2.8543
  658MOL0     H90765   1.210   7.406   0.221  1.2104 -0.1027 -0.0304
  658MOL0     H90766   0.777   7.544   0.073 -0.4335  3.9333  1.2286
  658MOL0     H90767   0.613   7.730   0.145 -2.4118 -1.1770 -2.1727
  658MOL0     H90768   0.264   7.590   0.359  1.9895 -2.2629  2.0927
  658MOL0     H90769   0.342   7.664   0.503  1.2801 -3.3226 -0.1882
  658MOL0     H90770   0.280   7.895   0.406 -2.0778 -0.1367  0.0631
  658MOL0     H90771   0.231   7.815   0.259  0.1083 -3.2037 -0.9937
  658MOL0     H90772   0.083   7.791   0.537  1.3609 -2.7992  0.1475
  658MOL0     H90773   0.037   7.704   0.387  0.4876 -0.9714  1.4916
  658MOL0     H90774   0.001   7.917   0.273 -3.3518  1.2170  0.6433
  658MOL0     H90775   0.040   8.013   0.418  0.9661  1.1811 -3.5851
  658MOL0     H90776  -0.208   7.980   0.350 -0.5188  2.0509  1.6970
  658MOL0     H90777  -0.179   7.804   0.374  2.3883 -0.8427 -0.9892
  658MOL0     H90778  -0.132   8.025   0.588  0.5926  0.0270 -0.4812
  658MOL0     H90779  -0.113   7.858   0.623 -0.9817 -0.5137  1.6142
  658MOL0     H90780  -0.348   7.802   0.586 -2.2811 -0.5469 -1.3996
  658MOL0     H90781  -0.377   7.962   0.525  1.8998  1.4233 -0.6421
  658MOL0     H90782  -0.456   7.966   0.749 -0.1182  0.0971 -0.7565
  658MOL0     H90783  -0.304   8.057   0.754 -1.6490  0.7006  0.8755
  658MOL0     H90784   0.454   7.445   0.435 -0.7359 -1.6028 -0.8030
  658MOL0     H90785   0.592   7.272   0.339 -2.3160  0.2135  0.0997
  658MOL0     H90786   0.843   7.089   0.103 -0.3129  2.4083  1.1368
  658MOL0     H90787   0.963   6.885   0.027  2.3122 -1.3659  1.5823
  658MOL0     H90788   0.953   6.325   1.182  1.4823  0.7147 -1.4005
  658MOL0     H90789   0.738   6.340   1.313 -1.6425 -1.9493 -0.1251
  658MOL0     H90790   0.379   6.516   1.401 -2.7056  2.5481 -1.2293
  658MOL0     H90791   0.175   6.573   1.522  0.3300  1.7011 -2.1838
  658MOL0     H90792  -0.214   6.384   1.398  0.3479 -0.5058 -1.2578
  658MOL0     H90793  -0.160   6.282   1.516  0.8174 -0.4895 -2.2462
  658MOL0     H90794  -0.232   6.470   1.694 -1.8507  0.1873 -0.2088
  658MOL0     H90795  -0.353   6.371   1.595 -0.3042 -0.7714  0.5986
  658MOL0     H90796  -0.409   6.542   1.468 -1.2625  3.3362 -0.5849
  658MOL0     H90797  -0.428   6.595   1.634  1.2517 -2.1550  1.9538
  658MOL0     H90798  -0.335   6.762   1.458  0.3185  0.0448 -1.8632
  658MOL0     H90799  -0.194   6.658   1.441  0.6265  0.5213  0.3757
  658MOL0     H90800  -0.103   6.885   1.790  2.0973 -2.3667  1.0371
  658MOL0     H90801  -0.043   6.275   1.307 -1.2720  3.2341 -2.8083
  658MOL0     H90802   0.069   6.160   1.117  0.5542 -4.1944 -1.2633
  658MOL0     H90803   0.245   6.152   1.112  2.1822 -1.4985  1.8749
  658MOL0     H90804   0.134   6.065   1.231 -2.1208  0.9513  0.8720
  659MOL0     O90805  11.392   0.390   0.292  0.3988 -0.4847  0.9262
  659MOL0     C90806  11.285   0.362   0.329  1.1768  0.7326 -0.0858
  659MOL0     O90807  11.218   0.239   0.306  0.2933 -0.0940 -0.2471
  659MOL0     C90808  11.283   0.121   0.303  0.1689  0.1743  0.1771
  659MOL0     C90809  11.216   0.006   0.255 -0.0654  0.4454  0.1934
  659MOL0     C90810  11.281  -0.117   0.262  0.9828 -0.0290 -0.2950
  659MOL0     C90811  11.406  -0.127   0.325 -0.0577 -0.1667  0.9772
  659MOL0     O90812  11.462  -0.247   0.367  0.0697 -1.0923 -0.0213
  659MOL0     C90813  11.413  -0.380   0.340  0.1529 -0.0097  0.2218
  659MOL0     C90814  11.524  -0.490   0.367  0.1143 -0.6174  0.2682
  659MOL0     C90815  11.522  -0.546   0.506  0.6936  0.0564 -0.9061
  659MOL0     C90816  11.596  -0.683   0.510 -0.5850 -0.6653  0.5825
  659MOL0     C90817  11.599  -0.734   0.656 -0.1397  0.4301  0.0489
  659MOL0     C90818  11.705  -0.663   0.756  0.3045  0.2280 -0.5881
  659MOL0     C90819  11.855  -0.699   0.716 -0.4492 -0.0813 -0.6414
  659MOL0     C90820  11.938  -0.754   0.831  0.4138  0.7061 -0.6989
  659MOL0     N90821  11.903  -0.895   0.856  0.1165 -0.2014  0.0586
  659MOL0     C90822  11.956  -1.002   0.790 -0.2496  0.6606 -0.3095
  659MOL0     C90823  11.923  -1.104   0.874  0.6063  0.1786 -0.5552
  659MOL0     C90824  11.972  -1.239   0.842 -0.3232  0.5082  0.9775
  659MOL0     C90825  12.115  -1.257   0.888  0.2898  0.5060 -0.0834
  659MOL0     C90826  12.132  -1.334   1.019 -0.8809  0.2908 -0.2669
  659MOL0     C90827  12.115  -1.487   1.002 -0.1879  0.5286 -0.3379
  659MOL0     O90828  12.224  -1.542   0.930 -0.3907  0.5651  0.7171
  659MOL0     C90829  12.228  -1.677   0.919 -0.0424  0.2756 -0.5202
  659MOL0     C90830  12.285  -1.729   0.813 -0.4766  0.0998  0.6376
  659MOL0     C90831  12.289  -1.862   0.782  0.2049  0.4966  0.0453
  659MOL0     C90832  12.377  -1.911   0.665  0.1048  0.5307 -0.3859
  659MOL0     C90833  12.206  -1.951   0.855  0.3138 -0.6591 -1.0154
  659MOL0     C90834  12.196  -2.099   0.823  0.1230 -0.3028 -0.3991
  659MOL0     O90835  12.110  -2.169   0.900  0.2159  0.1677  0.3976
  659MOL0     C90836  12.104  -2.305   0.884 -0.0269  0.0082 -0.5305
  659MOL0     C90837  12.028  -2.358   0.784 -0.7398  0.1943  0.1661
  659MOL0     C90838  12.034  -2.498   0.761  0.4926 -0.3941 -0.4622
  659MOL0     C90839  12.117  -2.576   0.839  0.2593  0.1716  0.2812
  659MOL0     O90840  12.118  -2.709   0.796  0.3667 -0.1462 -0.7877
  659MOL0     C90841  12.212  -2.792   0.859 -0.1091 -0.3333  0.1639
  659MOL0     C90842  12.183  -2.935   0.811  0.4146 -0.1888 -0.0575
  659MOL0     C90843  12.307  -3.024   0.842  0.3448  0.3731  0.3247
  659MOL0     C90844  12.304  -3.070   0.995  0.3637  0.0263  1.0045
  659MOL0     C90845  12.414  -3.159   1.017 -0.0910  1.3138  0.4571
  659MOL0     C90846  12.403  -3.303   0.963 -0.3392  0.6347  0.0562
  659MOL0     C90847  12.480  -3.414   1.044  0.3061 -0.8899  0.2028
  659MOL0     C90848  12.412  -3.549   1.027 -0.5313  0.9224  0.1982
  659MOL0    Cl90849  12.260  -3.560   1.114  0.0897 -0.6068 -0.1702
  659MOL0     C90850  12.185  -2.528   0.950 -0.7338  0.1173 -0.2452
  659MOL0     C90851  12.173  -2.388   0.972 -0.2593 -0.7417  0.4159
  659MOL0     O90852  12.283  -2.152   0.748 -0.1017  1.3007 -0.0341
  659MOL0     C90853  12.136  -1.903   0.969 -0.3991 -1.2614  0.1152
  659MOL0     C90854  12.152  -1.766   1.005 -0.3964  0.2571  0.0084
  659MOL0     N90855  11.851  -1.059   0.985 -0.5527  0.4740  0.1175
  659MOL0     N90856  11.832  -0.933   0.967 -0.6703  0.1824 -0.1303
  659MOL0     C90857  11.476  -0.014   0.366  0.3734 -0.2189 -1.1390
  659MOL0     C90858  11.408   0.104   0.364 -0.7479 -0.5149 -0.1933
  659MOL0     C90859  11.209   0.465   0.384  0.6639 -0.5117 -0.7884
  659MOL0     C90860  11.065   0.448   0.391 -0.9454 -0.4080 -0.1357
  659MOL0     C90861  10.985   0.549   0.450 -0.3888 -0.1447  0.1074
  659MOL0     C90862  11.033   0.675   0.497  0.0755  0.1068  0.6857
  659MOL0     O90863  10.944   0.765   0.549 -0.0753 -0.7176  0.0387
  659MOL0     C90864  10.991   0.906   0.560 -0.2721  0.2895 -0.0429
  659MOL0     C90865  10.897   1.004   0.627  0.1684 -0.8559 -0.8870
  659MOL0     C90866  10.951   1.144   0.626 -0.0927 -0.1072 -0.0792
  659MOL0     C90867  10.840   1.253   0.620  0.4351 -0.0836  0.1771
  659MOL0     C90868  10.767   1.246   0.490 -0.3183  0.5358 -0.2628
  659MOL0     C90869  10.717   1.216   0.383  0.1964  0.2105 -0.3320
  659MOL0     C90870  11.168   0.702   0.469 -0.2798 -0.4093 -0.6767
  659MOL0     C90871  11.251   0.602   0.417 -0.7208 -0.1509  0.6292
  659MOL0     C90872  11.389   0.661   0.387 -0.4862  1.1194 -0.2539
  659MOL0     H90873  11.116  -0.001   0.214  0.8798  0.8651 -2.3448
  659MOL0     H90874  11.223  -0.208   0.249  0.2971  0.1771  1.1906
  659MOL0     H90875  11.387  -0.379   0.233  0.1825  1.8115  0.2044
  659MOL0     H90876  11.325  -0.404   0.401 -0.2826 -0.9207 -0.7320
  659MOL0     H90877  11.491  -0.568   0.298  1.7228 -2.4001  1.4372
  659MOL0     H90878  11.624  -0.460   0.336  0.4375  1.2101  2.7847
  659MOL0     H90879  11.554  -0.474   0.582 -0.9571 -0.7722  0.6403
  659MOL0     H90880  11.420  -0.574   0.535  0.8147 -2.1619 -2.4007
  659MOL0     H90881  11.568  -0.761   0.439 -0.1302 -1.2085  0.9877
  659MOL0     H90882  11.701  -0.659   0.495 -0.8510  1.7596  2.1471
  659MOL0     H90883  11.627  -0.838   0.637  1.2012  0.7254  0.2930
  659MOL0     H90884  11.498  -0.738   0.697 -0.3954 -0.3545 -0.6203
  659MOL0     H90885  11.691  -0.555   0.750 -1.5572  0.1905  1.8316
  659MOL0     H90886  11.676  -0.693   0.857 -0.9206 -2.3145 -1.5888
  659MOL0     H90887  11.902  -0.608   0.678  0.0944  0.4580  1.2339
  659MOL0     H90888  11.849  -0.779   0.642  2.1387 -1.5073  0.5755
  659MOL0     H90889  12.045  -0.741   0.816  1.2079 -1.8653  1.8199
  659MOL0     H90890  11.914  -0.700   0.923 -4.2114 -2.3265  0.2834
  659MOL0     H90891  12.037  -1.003   0.717 -0.7935  2.5490 -0.9905
  659MOL0     H90892  11.970  -1.254   0.734  1.5032 -4.0766  1.3487
  659MOL0     H90893  11.916  -1.323   0.883  2.1172 -0.5583  2.3466
  659MOL0     H90894  12.162  -1.309   0.804 -0.7830 -2.2308  0.8730
  659MOL0     H90895  12.166  -1.162   0.902 -0.8238  0.9966  0.8760
  659MOL0     H90896  12.232  -1.320   1.059 -0.6437  0.8650 -1.0473
  659MOL0     H90897  12.056  -1.306   1.093 -0.3699 -1.3423  0.9412
  659MOL0     H90898  12.127  -1.525   1.104  0.3701  0.9846 -0.2293
  659MOL0     H90899  12.016  -1.519   0.967 -1.7189  1.8370  2.3898
  659MOL0     H90900  12.344  -1.660   0.753 -0.1810 -0.1285  0.6705
  659MOL0     H90901  12.441  -1.994   0.698 -1.3901 -0.6098 -0.2567
  659MOL0     H90902  12.443  -1.832   0.627  0.1312 -0.4365 -2.4917
  659MOL0     H90903  12.312  -1.951   0.587  0.0062 -1.3795  0.6140
  659MOL0     H90904  11.965  -2.296   0.721 -0.6709  0.3022  0.2050
  659MOL0     H90905  11.972  -2.536   0.681  0.0138  0.1285 -0.3439
  659MOL0     H90906  12.313  -2.760   0.832  1.4534 -6.2887 -2.8840
  659MOL0     H90907  12.197  -2.779   0.967 -3.3920  0.5817 -0.2842
  659MOL0     H90908  12.097  -2.976   0.865 -0.6980  0.7229 -1.0585
  659MOL0     H90909  12.157  -2.928   0.704  1.9422 -0.1833 -0.4495
  659MOL0     H90910  12.398  -2.969   0.814  0.3741  0.8773  1.3576
  659MOL0     H90911  12.307  -3.113   0.778  1.1537  2.0536 -2.1368
  659MOL0     H90912  12.206  -3.109   1.025 -0.4848  2.7218  2.1654
  659MOL0     H90913  12.321  -2.985   1.063  4.7535 -0.0769  0.3014
  659MOL0     H90914  12.503  -3.121   0.967 -0.1581 -1.0405 -1.6479
  659MOL0     H90915  12.425  -3.161   1.126 -1.0346  0.9305  0.5516
  659MOL0     H90916  12.427  -3.307   0.857  0.0794 -3.7474  0.1553
  659MOL0     H90917  12.295  -3.319   0.960  0.1198 -3.3104 -0.6445
  659MOL0     H90918  12.488  -3.404   1.152 -1.2866 -2.4844  0.5177
  659MOL0     H90919  12.579  -3.425   1.000 -0.5794 -1.1831 -1.8629
  659MOL0     H90920  12.479  -3.626   1.066 -2.8520 -2.0731 -1.2630
  659MOL0     H90921  12.391  -3.571   0.921 -1.4099 -2.0171  0.8746
  659MOL0     H90922  12.233  -2.582   1.030 -1.3378  1.0461  0.7695
  659MOL0     H90923  12.218  -2.342   1.059  0.8949  0.6067 -0.8575
  659MOL0     H90924  12.075  -1.963   1.037  0.0810  0.0082  1.7382
  659MOL0     H90925  12.105  -1.728   1.095 -1.8099 -0.4851 -0.3928
  659MOL0     H90926  11.581  -0.032   0.389  0.3303 -1.5467 -1.8787
  659MOL0     H90927  11.469   0.188   0.396 -0.6251 -0.6619 -0.0389
  659MOL0     H90928  11.023   0.354   0.354  4.4794 -2.5812 -1.7684
  659MOL0     H90929  10.879   0.528   0.464 -0.7121  0.3160 -1.4774
  659MOL0     H90930  11.085   0.900   0.615  1.3084  1.9902 -2.3434
  659MOL0     H90931  11.006   0.937   0.456 -2.6390  3.3272  0.3735
  659MOL0     H90932  10.884   0.981   0.733 -1.3930  2.6915 -0.1513
  659MOL0     H90933  10.801   0.995   0.576  0.4031 -3.5782 -1.0126
  659MOL0     H90934  11.014   1.164   0.713  1.6268 -1.1655 -0.9887
  659MOL0     H90935  11.015   1.159   0.538 -0.6172 -1.0438 -0.6471
  659MOL0     H90936  10.884   1.353   0.621  2.2158 -0.5536  6.1766
  659MOL0     H90937  10.773   1.239   0.706  0.5291 -2.1132 -0.0352
  659MOL0     H90938  10.683   1.204   0.282  2.7815 -1.3188 -1.1338
  659MOL0     H90939  11.209   0.800   0.491  1.7987 -1.6233  1.2575
  659MOL0     H90940  11.402   0.741   0.461  1.7221 -1.5438  2.5143
  659MOL0     H90941  11.472   0.597   0.420 -0.0039  1.0578 -1.5179
  659MOL0     H90942  11.401   0.695   0.284  2.8439  1.8104  0.2473
  660MOL0     O90943   5.101   8.334   9.136  1.0940  0.0385  0.1335
  660MOL0     C90944   5.142   8.388   9.036 -0.2824 -0.9395  0.8964
  660MOL0     O90945   5.229   8.492   9.028  0.2024 -0.6209 -0.1696
  660MOL0     C90946   5.273   8.551   9.150  1.7933 -0.3629  0.3615
  660MOL0     C90947   5.406   8.587   9.158 -0.2551 -1.3319 -0.3584
  660MOL0     C90948   5.453   8.653   9.272  0.6150  0.7154  0.1312
  660MOL0     C90949   5.365   8.678   9.373  0.3698 -0.2383 -0.3468
  660MOL0     O90950   5.424   8.728   9.485  0.4168  0.3151  0.4022
  660MOL0     C90951   5.333   8.797   9.577  0.0602 -0.4146 -0.6897
  660MOL0     C90952   5.419   8.900   9.654  0.4881 -0.8965 -0.4780
  660MOL0     C90953   5.459   9.023   9.562  0.3214  0.3191 -0.0312
  660MOL0     C90954   5.611   9.059   9.595  0.9524 -0.4465  0.4548
  660MOL0     C90955   5.612   9.169   9.695 -0.1418  0.5832 -0.2537
  660MOL0     C90956   5.760   9.204   9.713  0.4587  1.2805  0.0155
  660MOL0     C90957   5.790   9.312   9.824 -0.3977  0.8660 -0.2521
  660MOL0     C90958   5.934   9.353   9.827 -0.2996  0.4146  0.5283
  660MOL0     N90959   5.969   9.448   9.720 -0.9107  0.6222 -0.2971
  660MOL0     C90960   6.040   9.568   9.736 -0.7611  0.6578  0.0662
  660MOL0     C90961   6.076   9.601   9.604 -0.4239  0.3667 -1.1070
  660MOL0     C90962   6.158   9.718   9.561 -0.5754 -0.3124  0.3501
  660MOL0     C90963   6.225   9.672   9.432 -0.8776 -0.4017 -0.8373
  660MOL0     C90964   6.361   9.730   9.423 -0.4457  1.1727  0.1540
  660MOL0     C90965   6.456   9.668   9.315  0.3308  0.2310  0.5298
  660MOL0     O90966   6.550   9.768   9.293  0.0085 -0.1324  0.5819
  660MOL0     C90967   6.657   9.732   9.221  0.1668 -0.2520  0.5540
  660MOL0     C90968   6.702   9.606   9.174 -0.9295  0.3218 -0.8138
  660MOL0     C90969   6.822   9.587   9.098  0.3812  0.5717  0.2435
  660MOL0     C90970   6.850   9.446   9.047 -0.3109 -0.2548  0.4100
  660MOL0     C90971   6.888   9.700   9.053 -0.5686 -0.3856 -0.7958
  660MOL0     C90972   7.025   9.690   8.986  0.6404 -0.8551 -0.1789
  660MOL0     O90973   7.105   9.592   9.008 -0.1099  0.1203 -0.6277
  660MOL0     C90974   7.232   9.603   8.967  0.3702 -0.4723  0.6521
  660MOL0     C90975   7.284   9.505   8.885 -0.0670  0.0895  0.0466
  660MOL0     C90976   7.423   9.501   8.851  0.1009 -0.0730 -1.0984
  660MOL0     C90977   7.505   9.610   8.890  0.7014 -0.3538  0.0384
  660MOL0     O90978   7.637   9.604   8.853 -0.5832 -0.7457  0.9903
  660MOL0     C90979   7.726   9.714   8.886 -0.9496  0.1119 -0.6310
  660MOL0     C90980   7.864   9.674   8.848 -0.0701 -0.1457  0.5783
  660MOL0     C90981   7.878   9.653   8.692  0.2023 -0.3824 -0.8909
  660MOL0     C90982   7.870   9.795   8.620  0.2153 -0.1631  0.1473
  660MOL0     C90983   7.830   9.801   8.471 -0.0484 -0.0978 -0.4590
  660MOL0     C90984   7.932   9.705   8.402  0.6749 -0.1058 -0.3617
  660MOL0     C90985   7.904   9.695   8.253  0.3650  0.5439 -0.8084
  660MOL0     C90986   8.008   9.627   8.175 -0.0632  0.5360 -0.3907
  660MOL0    Cl90987   8.007   9.676   8.010 -0.3455  0.1973 -0.2279
  660MOL0     C90988   7.451   9.709   8.972 -0.3596  0.1028 -0.3784
  660MOL0     C90989   7.321   9.699   9.015 -0.0668  0.0064  0.4455
  660MOL0     O90990   7.046   9.781   8.910 -0.1189 -0.7770  0.6866
  660MOL0     C90991   6.832   9.825   9.082  0.2043  0.6854 -0.2796
  660MOL0     C90992   6.725   9.842   9.170  0.2522  0.8212  0.4600
  660MOL0     N90993   6.015   9.512   9.519  0.0676  0.5795  0.1747
  660MOL0     N90994   5.935   9.433   9.586 -0.2552  1.0554 -0.2828
  660MOL0     C90995   5.230   8.645   9.361 -0.9368 -0.0611  0.1351
  660MOL0     C90996   5.183   8.594   9.245 -0.9731 -0.6198 -0.4398
  660MOL0     C90997   5.089   8.352   8.908  0.2160 -0.4187  0.5838
  660MOL0     C90998   5.168   8.371   8.792  0.6907  0.4261  0.3774
  660MOL0     C90999   5.130   8.334   8.664  0.9153 -0.0434  0.1460
  660MOL0     C91000   5.016   8.249   8.646 -0.6500 -0.5275  0.6011
  660MOL0     O91001   4.979   8.193   8.520 -0.4197  0.1433  0.1546
  660MOL0     C91002   5.028   8.247   8.394  0.4944 -0.1493 -0.7013
  660MOL0     C91003   4.954   8.184   8.279  0.0331 -0.1801 -0.2315
  660MOL0     C91004   5.018   8.224   8.148 -0.2841  0.5033 -0.2292
  660MOL0     C91005   5.056   8.370   8.108 -0.1247  0.1944  0.4396
  660MOL0     C91006   5.122   8.389   7.975 -0.5579  0.1575 -0.3152
  660MOL0     C91007   5.180   8.422   7.869  0.1657  1.0320 -0.4932
  660MOL0     C91008   4.948   8.220   8.760  0.5991 -1.0751  0.4215
  660MOL0     C91009   4.980   8.262   8.884  0.5236 -0.5459 -0.2394
  660MOL0     C91010   4.895   8.215   9.007 -0.2193  0.2828  0.0666
  660MOL0     H91011   5.485   8.576   9.085  3.2890 -0.1011  2.9704
  660MOL0     H91012   5.561   8.668   9.277  0.8960  0.1983 -2.5992
  660MOL0     H91013   5.294   8.726   9.651 -0.8908  1.4830  0.7014
  660MOL0     H91014   5.257   8.857   9.527  0.6442  0.5079 -0.4932
  660MOL0     H91015   5.356   8.930   9.738  0.0408  0.9414 -1.4139
  660MOL0     H91016   5.508   8.851   9.695  1.8969  3.1483  1.8994
  660MOL0     H91017   5.466   8.994   9.457 -1.6374 -1.4696  0.2713
  660MOL0     H91018   5.398   9.112   9.578  0.5876  0.0924  2.5738
  660MOL0     H91019   5.660   8.969   9.632  3.1095 -0.7987 -2.8792
  660MOL0     H91020   5.660   9.091   9.503 -0.7080  0.4150 -0.1624
  660MOL0     H91021   5.568   9.141   9.791 -0.3922 -1.0572 -0.8134
  660MOL0     H91022   5.558   9.256   9.655 -1.7720 -1.1518 -2.0650
  660MOL0     H91023   5.813   9.111   9.737  2.6614  1.7992 -2.3366
  660MOL0     H91024   5.789   9.239   9.613 -0.5907 -0.4163 -0.9201
  660MOL0     H91025   5.754   9.279   9.922  0.5542  2.2459  0.6001
  660MOL0     H91026   5.733   9.403   9.805  1.0883  1.9613  0.3019
  660MOL0     H91027   5.961   9.412   9.915  2.0040 -0.1452  0.2717
  660MOL0     H91028   6.000   9.266   9.815 -2.7128 -2.0198  3.0890
  660MOL0     H91029   6.047   9.616   9.833 -0.8250  0.1097  0.3434
  660MOL0     H91030   6.234   9.742   9.636  1.5980  5.1313 -2.9730
  660MOL0     H91031   6.096   9.808   9.550 -0.5671 -0.2578  0.7458
  660MOL0     H91032   6.234   9.563   9.424  0.1193 -0.3313 -0.8093
  660MOL0     H91033   6.162   9.690   9.345 -1.5299  0.3165 -0.2282
  660MOL0     H91034   6.349   9.836   9.399  0.7167  1.7243  1.7969
  660MOL0     H91035   6.410   9.715   9.520 -0.8950 -0.8828  0.1241
  660MOL0     H91036   6.493   9.573   9.355  2.5323  0.8050  0.0242
  660MOL0     H91037   6.395   9.657   9.225 -0.0521 -3.5659  1.1113
  660MOL0     H91038   6.641   9.518   9.189  1.1213 -1.2094 -1.1192
  660MOL0     H91039   6.760   9.383   9.039 -0.3627  0.0652 -2.6914
  660MOL0     H91040   6.924   9.399   9.113 -2.4024 -0.9933  2.3762
  660MOL0     H91041   6.887   9.454   8.945 -3.3444  1.4657 -0.6909
  660MOL0     H91042   7.232   9.410   8.878  0.8306 -0.2787 -3.1856
  660MOL0     H91043   7.465   9.404   8.831  0.2917 -1.5330  4.8289
  660MOL0     H91044   7.706   9.804   8.826  1.9509  0.4030 -1.3429
  660MOL0     H91045   7.737   9.743   8.991  0.3844  1.7635 -1.1703
  660MOL0     H91046   7.934   9.745   8.893  1.3844 -2.4974  2.2931
  660MOL0     H91047   7.886   9.582   8.903  1.3919  0.7236  1.5270
  660MOL0     H91048   7.791   9.591   8.668  0.1355 -0.3430 -0.7524
  660MOL0     H91049   7.973   9.601   8.676  0.8535 -0.2717  2.0007
  660MOL0     H91050   7.966   9.846   8.632 -1.1450  2.5669  0.1862
  660MOL0     H91051   7.811   9.868   8.677 -1.2643 -1.6910  0.6794
  660MOL0     H91052   7.731   9.765   8.444 -0.2543 -0.1450  0.3350
  660MOL0     H91053   7.833   9.905   8.438 -1.1517 -0.0906 -0.5609
  660MOL0     H91054   7.914   9.609   8.450 -0.6029  1.1086  1.7435
  660MOL0     H91055   8.034   9.736   8.427 -0.2931  1.5669  1.9533
  660MOL0     H91056   7.878   9.792   8.210  2.9491  1.7766  0.2208
  660MOL0     H91057   7.817   9.630   8.239  0.7423 -1.0330  2.8184
  660MOL0     H91058   8.002   9.519   8.192  1.4654  0.5988  0.8231
  660MOL0     H91059   8.102   9.673   8.207  0.0160  0.0224  0.1559
  660MOL0     H91060   7.514   9.789   9.008  1.7763 -1.9483  0.6814
  660MOL0     H91061   7.279   9.778   9.076 -1.9514 -0.3036 -0.3457
  660MOL0     H91062   6.874   9.918   9.044  1.2757  0.3440  0.0300
  660MOL0     H91063   6.701   9.943   9.201  0.8788  0.9430  0.5602
  660MOL0     H91064   5.161   8.658   9.443 -0.1503  1.7980  0.5608
  660MOL0     H91065   5.078   8.566   9.242 -1.4598  0.8006  1.4073
  660MOL0     H91066   5.262   8.424   8.804  0.5687  0.5121  0.9430
  660MOL0     H91067   5.186   8.368   8.578 -0.0188  2.4110  0.4327
  660MOL0     H91068   5.016   8.355   8.396 -0.0349 -0.2152  0.8635
  660MOL0     H91069   5.135   8.227   8.380  0.1279 -0.8969 -2.8205
  660MOL0     H91070   4.851   8.221   8.287 -0.4601 -1.6219  0.2772
  660MOL0     H91071   4.953   8.075   8.280 -0.1875 -0.1872 -0.8831
  660MOL0     H91072   5.114   8.171   8.144 -0.7251 -0.3408  0.1166
  660MOL0     H91073   4.953   8.184   8.070 -1.8199  1.4701  0.5014
  660MOL0     H91074   5.130   8.392   8.186  1.0193 -2.7673  0.3218
  660MOL0     H91075   4.974   8.441   8.120  0.3001  1.7369 -3.9741
  660MOL0     H91076   5.215   8.440   7.769  3.3382 -1.9602 -0.0824
  660MOL0     H91077   4.860   8.157   8.756 -0.5411  0.5300 -1.9800
  660MOL0     H91078   4.863   8.304   9.062  1.2305 -0.4621  2.2285
  660MOL0     H91079   4.814   8.152   8.969  1.0751 -1.3286 -0.1547
  660MOL0     H91080   4.945   8.144   9.073  0.4948 -0.4560 -1.2178
  661MOL0     O91081   1.047   1.635   3.721 -0.9476 -0.6316 -0.9519
  661MOL0     C91082   1.105   1.730   3.768 -1.2563  0.0479  0.0266
  661MOL0     O91083   1.052   1.819   3.851  0.0249  0.0197  0.2984
  661MOL0     C91084   0.920   1.833   3.874  0.8537  0.5204 -0.4711
  661MOL0     C91085   0.849   1.731   3.946 -0.3457  0.3365  0.3983
  661MOL0     C91086   0.713   1.746   3.980 -0.3121  0.8158  0.4930
  661MOL0     C91087   0.648   1.864   3.945 -0.5154 -1.2913 -0.2274
  661MOL0     O91088   0.523   1.899   3.985  0.7614 -0.1203  0.1630
  661MOL0     C91089   0.410   1.808   3.989 -0.6575  0.8841 -0.0164
  661MOL0     C91090   0.378   1.758   4.128  0.4608 -0.4669  0.1199
  661MOL0     C91091   0.267   1.659   4.131  0.2294  0.2768  0.4634
  661MOL0     C91092   0.145   1.697   4.214  0.2723 -0.2146 -0.4878
  661MOL0     C91093   0.043   1.583   4.212 -0.3209  0.8129 -0.3866
  661MOL0     C91094  -0.078   1.618   4.291 -0.2539 -0.0845  0.3077
  661MOL0     C91095  -0.189   1.512   4.262  0.1452 -0.2916 -0.0552
  661MOL0     C91096  -0.324   1.524   4.341  0.4474 -0.7575  0.7958
  661MOL0     N91097  -0.407   1.413   4.315  0.0042 -0.2476  0.3872
  661MOL0     C91098  -0.471   1.373   4.201 -0.1580 -0.1172  0.2043
  661MOL0     C91099  -0.515   1.246   4.234 -0.2229  0.2226  0.3259
  661MOL0     C91100  -0.580   1.156   4.140  0.2021  0.1449  0.4047
  661MOL0     C91101  -0.684   1.219   4.059 -0.1388 -0.0360  0.6516
  661MOL0     C91102  -0.807   1.253   4.151  0.3519  0.2636 -0.1902
  661MOL0     C91103  -0.930   1.312   4.080 -0.4504 -0.0585  0.1012
  661MOL0     O91104  -0.891   1.448   4.057  0.6465 -1.0170  0.0564
  661MOL0     C91105  -0.977   1.529   3.988 -0.5836 -1.0739 -0.4871
  661MOL0     C91106  -0.913   1.647   3.943  0.4580  1.0280  0.0947
  661MOL0     C91107  -0.987   1.747   3.875 -0.1221 -0.2359 -0.7148
  661MOL0     C91108  -0.923   1.881   3.828  0.3409 -1.0338  0.1533
  661MOL0     C91109  -1.130   1.731   3.852 -0.2183  0.4633 -0.0801
  661MOL0     C91110  -1.215   1.829   3.782  0.2754  0.7513  0.4462
  661MOL0     O91111  -1.339   1.841   3.834  1.0778 -0.5876  0.3000
  661MOL0     C91112  -1.440   1.905   3.760  0.8436  0.3905  0.2893
  661MOL0     C91113  -1.556   1.942   3.828  0.1958  0.0268 -0.1474
  661MOL0     C91114  -1.664   2.002   3.767 -0.5851 -0.2853  0.4120
  661MOL0     C91115  -1.660   2.045   3.634  0.2267  0.1708  0.3538
  661MOL0     O91116  -1.755   2.125   3.580  0.1622  0.6883 -0.0556
  661MOL0     C91117  -1.854   2.186   3.665  0.4958 -0.6975 -0.1855
  661MOL0     C91118  -1.937   2.282   3.578 -0.5150 -0.6395  0.1383
  661MOL0     C91119  -1.848   2.394   3.535 -0.5520  0.0715  0.0046
  661MOL0     C91120  -1.922   2.522   3.514 -0.6665  0.0078  0.0109
  661MOL0     C91121  -1.832   2.632   3.450 -0.5678 -0.3825  0.4508
  661MOL0     C91122  -1.754   2.705   3.555  0.3374 -0.7203  0.1829
  661MOL0     C91123  -1.659   2.814   3.502  0.8666  0.0653 -0.1003
  661MOL0     C91124  -1.596   2.894   3.610  0.0886 -0.9532 -0.4232
  661MOL0    Cl91125  -1.446   2.804   3.675  0.0011 -0.5003 -0.2839
  661MOL0     C91126  -1.557   2.004   3.552  0.0700  0.3918  0.0056
  661MOL0     C91127  -1.449   1.936   3.615 -0.1642  0.0381  0.4928
  661MOL0     O91128  -1.169   1.892   3.686  0.1499 -0.0615 -0.8079
  661MOL0     C91129  -1.189   1.611   3.895  0.2189  0.9946 -0.9813
  661MOL0     C91130  -1.111   1.508   3.964 -0.6262  0.4910  1.0562
  661MOL0     N91131  -0.474   1.216   4.362  0.1587 -0.2623  0.5000
  661MOL0     N91132  -0.404   1.315   4.403  0.5547 -0.3393  0.6076
  661MOL0     C91133   0.715   1.959   3.860  0.1793  0.8554  0.1005
  661MOL0     C91134   0.845   1.932   3.817 -0.1850 -0.6026 -0.3994
  661MOL0     C91135   1.247   1.756   3.725 -0.5693 -0.2868  0.4281
  661MOL0     C91136   1.291   1.887   3.737  0.5088 -0.1080  0.0513
  661MOL0     C91137   1.423   1.923   3.709  0.8382  0.4847  0.1801
  661MOL0     C91138   1.517   1.829   3.665 -0.0768  0.2503  0.4800
  661MOL0     O91139   1.648   1.855   3.643 -0.2213 -0.0042 -0.2694
  661MOL0     C91140   1.695   1.993   3.658 -0.7858  0.7754  0.7170
  661MOL0     C91141   1.856   1.994   3.648  0.6321 -0.7718 -0.8082
  661MOL0     C91142   1.904   2.134   3.599  0.0534  0.0604  0.0762
  661MOL0     C91143   1.852   2.249   3.685  0.2475 -0.2887  0.0322
  661MOL0     C91144   1.891   2.376   3.632 -0.5520 -0.1528 -0.9700
  661MOL0     C91145   1.935   2.477   3.572  0.5199  0.3928  1.0632
  661MOL0     C91146   1.475   1.700   3.652  0.1396  0.2003  0.3784
  661MOL0     C91147   1.345   1.658   3.676  0.0459  0.3066 -0.2013
  661MOL0     C91148   1.321   1.503   3.673  0.4338 -0.1443 -0.3339
  661MOL0     H91149   0.892   1.636   3.976 -1.9427 -0.2788  0.8659
  661MOL0     H91150   0.671   1.665   4.038  0.2690 -0.6317 -1.0445
  661MOL0     H91151   0.433   1.721   3.927  0.5502  1.0928  0.1208
  661MOL0     H91152   0.336   1.868   3.936  0.0061  0.3470 -1.5901
  661MOL0     H91153   0.458   1.708   4.182 -0.3890 -2.4691 -0.3948
  661MOL0     H91154   0.345   1.847   4.184  0.5787 -0.9379  0.9471
  661MOL0     H91155   0.246   1.625   4.029 -0.4847  0.9088  0.3913
  661MOL0     H91156   0.307   1.565   4.171 -0.3183 -0.4435 -0.6370
  661MOL0     H91157   0.184   1.706   4.316  1.7108 -1.1093 -0.9351
  661MOL0     H91158   0.099   1.790   4.178  0.8654 -0.5819 -2.2693
  661MOL0     H91159   0.085   1.484   4.233  0.3151  1.0981 -0.2881
  661MOL0     H91160   0.023   1.570   4.106 -0.1668 -0.7451 -0.2377
  661MOL0     H91161  -0.055   1.618   4.397 -0.1249 -0.4783  0.2806
  661MOL0     H91162  -0.119   1.718   4.274  0.6732  0.0739 -1.2460
  661MOL0     H91163  -0.145   1.413   4.279 -1.9835 -0.9889  2.0333
  661MOL0     H91164  -0.224   1.515   4.159 -1.8947 -0.4667  0.5875
  661MOL0     H91165  -0.310   1.511   4.449 -1.6046 -2.7654  0.8993
  661MOL0     H91166  -0.366   1.622   4.318  0.7575 -0.5059  1.2891
  661MOL0     H91167  -0.467   1.432   4.110 -1.3279  0.9415  0.8140
  661MOL0     H91168  -0.627   1.072   4.192 -3.6924 -0.4268 -3.4469
  661MOL0     H91169  -0.505   1.117   4.070 -0.2169  2.5312 -1.5054
  661MOL0     H91170  -0.648   1.303   3.999 -1.7884 -0.5839 -1.2252
  661MOL0     H91171  -0.727   1.145   3.992 -1.2698 -0.6512  1.9843
  661MOL0     H91172  -0.835   1.158   4.197 -1.9182  1.6067  1.4185
  661MOL0     H91173  -0.772   1.321   4.229  1.4670  2.2258 -2.2863
  661MOL0     H91174  -0.974   1.255   3.997  0.3437  1.4823 -1.4521
  661MOL0     H91175  -1.003   1.310   4.160 -1.4295 -1.6033 -0.7721
  661MOL0     H91176  -0.807   1.657   3.961  0.5099  0.7422 -0.0477
  661MOL0     H91177  -0.962   1.970   3.879  2.0833 -0.4187  0.4924
  661MOL0     H91178  -0.931   1.892   3.720 -0.4234  2.3091  0.4298
  661MOL0     H91179  -0.817   1.870   3.853  0.3610 -2.4236 -0.4576
  661MOL0     H91180  -1.560   1.913   3.933 -2.9460 -1.2870 -0.5078
  661MOL0     H91181  -1.752   2.005   3.830 -0.5093 -2.3737  0.6650
  661MOL0     H91182  -1.923   2.115   3.712 -0.9817  1.6989  1.4495
  661MOL0     H91183  -1.818   2.232   3.757 -1.6384 -1.0126  0.8719
  661MOL0     H91184  -1.975   2.234   3.488 -3.0093  3.1096 -1.0165
  661MOL0     H91185  -2.022   2.315   3.639 -1.4861 -0.6614 -1.1708
  661MOL0     H91186  -1.809   2.374   3.435 -2.1687 -0.4551 -0.5647
  661MOL0     H91187  -1.765   2.409   3.604  1.5771 -0.8630 -2.2079
  661MOL0     H91188  -1.977   2.568   3.597 -4.8266 -1.4964 -1.6367
  661MOL0     H91189  -1.999   2.500   3.439 -2.7436 -0.6426  2.1971
  661MOL0     H91190  -1.767   2.581   3.378  0.9454  1.3566  0.5263
  661MOL0     H91191  -1.896   2.699   3.391 -0.8089  0.4697  1.6638
  661MOL0     H91192  -1.701   2.630   3.615 -1.4709 -2.7406 -0.6005
  661MOL0     H91193  -1.831   2.756   3.613 -0.0930 -1.6919  0.4949
  661MOL0     H91194  -1.704   2.887   3.435  2.1124 -0.6626 -1.8262
  661MOL0     H91195  -1.584   2.768   3.437  1.0335 -0.2587  0.3179
  661MOL0     H91196  -1.662   2.914   3.695 -0.7845  0.3048 -1.3661
  661MOL0     H91197  -1.563   2.990   3.569 -0.2245 -0.1564  1.1311
  661MOL0     H91198  -1.559   2.035   3.448  1.0866 -1.8491 -0.7426
  661MOL0     H91199  -1.363   1.916   3.551  1.2966 -1.3239  2.7417
  661MOL0     H91200  -1.293   1.584   3.878  1.4625 -4.1784 -2.1080
  661MOL0     H91201  -1.157   1.413   3.988  0.4829 -1.1651 -2.7417
  661MOL0     H91202   0.658   2.047   3.830 -0.3795  0.4261 -0.1155
  661MOL0     H91203   0.890   2.006   3.753 -3.3470  1.9763  0.0707
  661MOL0     H91204   1.221   1.967   3.755  1.1603  1.1158 -2.4060
  661MOL0     H91205   1.443   2.029   3.717  2.5634  0.0994  1.7964
  661MOL0     H91206   1.645   2.050   3.579  0.6512  1.7612  0.4799
  661MOL0     H91207   1.661   2.020   3.759 -3.9807 -1.3116  0.3303
  661MOL0     H91208   1.885   1.910   3.584 -1.2049 -2.1585  0.1026
  661MOL0     H91209   1.897   1.972   3.746 -0.0949  2.6404  0.4112
  661MOL0     H91210   2.013   2.131   3.588  0.0349 -0.1176 -0.0674
  661MOL0     H91211   1.874   2.142   3.494  1.1442 -0.9918 -0.3456
  661MOL0     H91212   1.877   2.232   3.790 -1.4431  0.4595  0.5727
  661MOL0     H91213   1.744   2.258   3.673  0.3628  0.7871 -0.2712
  661MOL0     H91214   1.984   2.557   3.521  0.5213 -0.6722 -0.7017
  661MOL0     H91215   1.559   1.635   3.628  2.7005  2.4809  2.5773
  661MOL0     H91216   1.409   1.438   3.681 -1.3989 -2.7735 -0.4802
  661MOL0     H91217   1.249   1.482   3.752  0.6485 -2.9162 -0.7839
  661MOL0     H91218   1.271   1.473   3.581 -1.2082 -0.7260  0.7122
  662MOL0     O91219   8.245   1.852   4.287  0.0090 -0.1837  0.0750
  662MOL0     C91220   8.282   1.811   4.390 -1.5506 -0.0250 -0.0064
  662MOL0     O91221   8.235   1.698   4.455  0.0355  0.1472 -0.4356
  662MOL0     C91222   8.132   1.629   4.401  0.1839 -0.0057 -0.0079
  662MOL0     C91223   8.005   1.619   4.459  0.2434  0.8698  0.2370
  662MOL0     C91224   7.901   1.539   4.397 -0.3396  0.7345  0.0408
  662MOL0     C91225   7.924   1.481   4.275  0.0286 -0.9533 -0.0857
  662MOL0     O91226   7.811   1.412   4.223 -0.5647 -0.6478 -0.1238
  662MOL0     C91227   7.824   1.374   4.085 -0.5164 -0.0882 -0.7462
  662MOL0     C91228   7.892   1.234   4.073 -0.4354 -0.1956  0.3849
  662MOL0     C91229   7.923   1.207   3.926  0.9429 -0.1616 -0.5301
  662MOL0     C91230   8.036   1.274   3.859  0.2318  0.8048  0.0525
  662MOL0     C91231   8.072   1.201   3.730 -1.0776 -0.7573 -0.1685
  662MOL0     C91232   8.140   1.065   3.748  0.0522 -0.2677 -0.3667
  662MOL0     C91233   8.228   1.038   3.626  0.2875 -0.0622 -0.2396
  662MOL0     C91234   8.273   0.892   3.626  0.7248  0.0913  0.0873
  662MOL0     N91235   8.388   0.873   3.539 -0.2847 -0.3139  0.0676
  662MOL0     C91236   8.419   0.938   3.421 -0.1071 -0.1131  0.3141
  662MOL0     C91237   8.547   0.946   3.402 -0.4937  1.0461  0.1299
  662MOL0     C91238   8.603   0.968   3.259  0.0165 -0.4538 -1.1748
  662MOL0     C91239   8.614   0.841   3.179 -0.2754  0.4310 -0.0346
  662MOL0     C91240   8.677   0.728   3.250 -0.6686  0.2654  0.1544
  662MOL0     C91241   8.821   0.761   3.286  0.4156  0.0856  0.5348
  662MOL0     O91242   8.898   0.794   3.173 -0.1008 -0.5701 -0.0852
  662MOL0     C91243   9.031   0.805   3.188 -1.3798 -0.1034  0.6473
  662MOL0     C91244   9.108   0.757   3.289  0.3596  0.8233 -0.3802
  662MOL0     C91245   9.249   0.762   3.301  0.1541  0.5834 -0.1465
  662MOL0     C91246   9.306   0.716   3.430  0.1872  0.5034  0.2585
  662MOL0     C91247   9.322   0.848   3.207  0.7236  0.5783  0.3403
  662MOL0     C91248   9.467   0.880   3.206  0.2918  0.6580 -0.8642
  662MOL0     O91249   9.527   0.912   3.320 -0.2180 -0.2890 -0.0237
  662MOL0     C91250   9.655   0.950   3.305 -1.2430 -1.2743 -0.4311
  662MOL0     C91251   9.691   1.074   3.251  0.6894  0.2407 -0.3749
  662MOL0     C91252   9.826   1.115   3.258 -0.0285  0.3724 -0.5205
  662MOL0     C91253   9.919   1.031   3.318 -0.0898 -0.4968  0.2613
  662MOL0     O91254  10.046   1.074   3.339  0.4022 -0.1191 -0.3956
  662MOL0     C91255  10.096   1.184   3.258 -0.4926 -0.9131 -0.1062
  662MOL0     C91256  10.244   1.204   3.267  0.1967  0.2817  0.0856
  662MOL0     C91257  10.295   1.207   3.416 -0.3009  0.4558  0.3876
  662MOL0     C91258  10.443   1.228   3.435  0.1847  0.1919 -0.9144
  662MOL0     C91259  10.493   1.219   3.586 -0.9333 -0.3277 -0.2561
  662MOL0     C91260  10.644   1.241   3.587 -0.8103 -0.6800 -0.1949
  662MOL0     C91261  10.710   1.255   3.729 -0.8766  0.0899 -0.5438
  662MOL0     C91262  10.780   1.393   3.729  0.9356 -0.1306 -0.1427
  662MOL0    Cl91263  10.927   1.388   3.631 -0.0612  0.7167 -0.1044
  662MOL0     C91264   9.879   0.897   3.371 -0.5645  0.0206 -0.1252
  662MOL0     C91265   9.746   0.870   3.370 -0.9826 -0.0513  0.2257
  662MOL0     O91266   9.526   0.858   3.101  0.2075 -0.1324 -0.1115
  662MOL0     C91267   9.240   0.895   3.097 -1.4149 -0.4922  0.1247
  662MOL0     C91268   9.103   0.866   3.088  0.3363  0.8426 -0.5654
  662MOL0     N91269   8.607   0.884   3.511  0.3574  0.3002 -0.3087
  662MOL0     N91270   8.516   0.844   3.591 -0.2367  0.5077  0.5190
  662MOL0     C91271   8.055   1.483   4.220  0.3541 -0.2146  0.2250
  662MOL0     C91272   8.154   1.562   4.274  0.1315  0.6294  0.3149
  662MOL0     C91273   8.389   1.885   4.457 -0.6537 -0.3043  1.2032
  662MOL0     C91274   8.372   2.025   4.467 -0.3417 -0.1488  0.5658
  662MOL0     C91275   8.476   2.110   4.520 -0.5935  0.4501  0.3498
  662MOL0     C91276   8.591   2.042   4.564  0.2994 -0.7415 -0.2970
  662MOL0     O91277   8.703   2.109   4.620  0.5139 -0.6522  0.1393
  662MOL0     C91278   8.737   2.233   4.565 -0.2069  0.1701 -1.2703
  662MOL0     C91279   8.891   2.252   4.544 -0.8273  0.3622 -0.0086
  662MOL0     C91280   8.967   2.256   4.679 -0.4658 -0.1089  0.7304
  662MOL0     C91281   9.128   2.243   4.650  0.5488 -0.1150  1.2230
  662MOL0     C91282   9.183   2.165   4.751 -0.4357  0.0608 -0.0784
  662MOL0     C91283   9.256   2.108   4.825 -0.4748  0.0376 -0.1276
  662MOL0     C91284   8.599   1.906   4.563  0.1807  0.4869 -0.5797
  662MOL0     C91285   8.499   1.824   4.508  0.1157  0.1956  0.0118
  662MOL0     C91286   8.531   1.673   4.525 -0.3917 -0.2741 -0.2973
  662MOL0     H91287   7.990   1.670   4.553 -1.1671  1.2970 -0.2016
  662MOL0     H91288   7.805   1.537   4.447  0.2773  0.1226  1.2515
  662MOL0     H91289   7.871   1.453   4.025 -1.8015  0.5298 -0.9966
  662MOL0     H91290   7.722   1.378   4.045 -0.7713 -0.2679 -0.1338
  662MOL0     H91291   7.985   1.227   4.131 -1.0651 -0.3700  1.4084
  662MOL0     H91292   7.824   1.160   4.117  2.0404 -1.7839  1.7706
  662MOL0     H91293   7.940   1.099   3.924  1.0672 -0.2480  1.7458
  662MOL0     H91294   7.836   1.218   3.862  2.9370  0.2546 -3.3559
  662MOL0     H91295   7.997   1.373   3.836  1.5751  0.7048 -3.2560
  662MOL0     H91296   8.128   1.275   3.918  0.0455 -0.2072  0.3813
  662MOL0     H91297   8.139   1.271   3.680 -1.3317 -0.3409  0.0705
  662MOL0     H91298   7.998   1.199   3.650  2.0649 -0.6780 -3.3426
  662MOL0     H91299   8.218   1.067   3.826  2.8716 -0.6703 -2.9719
  662MOL0     H91300   8.063   0.992   3.773  0.0953 -0.4615 -0.7929
  662MOL0     H91301   8.320   1.097   3.635 -0.4995  1.0621  0.7037
  662MOL0     H91302   8.163   1.059   3.540 -0.2023 -1.8138 -0.3211
  662MOL0     H91303   8.307   0.867   3.727 -2.9808  2.2907  2.1271
  662MOL0     H91304   8.186   0.831   3.601 -0.6000  1.4442  1.1416
  662MOL0     H91305   8.346   0.963   3.344 -0.5273  3.6153  1.7232
  662MOL0     H91306   8.697   1.022   3.248  0.6171 -1.5901 -1.8300
  662MOL0     H91307   8.523   1.027   3.214 -1.4269 -0.0353  1.6955
  662MOL0     H91308   8.513   0.806   3.157 -0.2510  0.3755 -0.0566
  662MOL0     H91309   8.658   0.858   3.080 -2.1411  2.4960 -0.5601
  662MOL0     H91310   8.621   0.689   3.335  1.3981 -5.0612 -0.5355
  662MOL0     H91311   8.680   0.637   3.190  0.1605 -0.2162  0.8999
  662MOL0     H91312   8.813   0.845   3.356  0.4539  0.4733  0.0773
  662MOL0     H91313   8.848   0.676   3.349  1.7235  0.0037 -0.1149
  662MOL0     H91314   9.065   0.710   3.378  1.3256 -2.7962 -1.6633
  662MOL0     H91315   9.242   0.633   3.463  0.1147 -0.3685 -1.8938
  662MOL0     H91316   9.303   0.795   3.505  1.9293  1.2861 -0.4530
  662MOL0     H91317   9.407   0.677   3.413  0.8802  2.2404  0.1730
  662MOL0     H91318   9.606   1.129   3.213 -0.8336 -0.9118  1.2082
  662MOL0     H91319   9.837   1.212   3.210 -1.0084  1.1004  0.6747
  662MOL0     H91320  10.069   1.163   3.154 -0.9252 -2.3811  0.2826
  662MOL0     H91321  10.055   1.281   3.285  2.3260  0.6329 -0.9095
  662MOL0     H91322  10.291   1.123   3.209 -2.5438 -0.6868 -0.9469
  662MOL0     H91323  10.270   1.300   3.222 -2.7838  1.3881  0.5399
  662MOL0     H91324  10.253   1.126   3.476  0.0938  1.4820  2.1318
  662MOL0     H91325  10.240   1.291   3.459 -0.8278 -0.7395  2.1565
  662MOL0     H91326  10.474   1.328   3.402  3.9307 -1.2134 -2.1716
  662MOL0     H91327  10.497   1.153   3.376 -0.2788 -1.5883  0.8273
  662MOL0     H91328  10.448   1.298   3.646  3.2390  2.6031 -0.5567
  662MOL0     H91329  10.462   1.120   3.621 -2.5842 -0.3289 -1.5810
  662MOL0     H91330  10.666   1.326   3.522  0.8342 -0.3822  0.7105
  662MOL0     H91331  10.696   1.152   3.549 -0.4446  0.0339 -1.4100
  662MOL0     H91332  10.784   1.177   3.748 -1.7879 -0.1737  2.3166
  662MOL0     H91333  10.635   1.253   3.809  0.9309  1.0625  1.2715
  662MOL0     H91334  10.814   1.429   3.826  0.0973 -0.1901  0.1829
  662MOL0     H91335  10.717   1.464   3.673 -0.4589 -3.6698 -3.5366
  662MOL0     H91336   9.948   0.826   3.415  0.3248 -0.2943 -1.9292
  662MOL0     H91337   9.708   0.773   3.402  2.6361 -1.4058  0.8473
  662MOL0     H91338   9.289   0.939   3.011 -0.2497 -1.3449  0.3342
  662MOL0     H91339   9.047   0.901   3.003  0.3602 -0.4832 -1.1552
  662MOL0     H91340   8.078   1.424   4.132 -0.3344  0.1282 -0.1857
  662MOL0     H91341   8.247   1.561   4.219 -1.4496  0.0875 -2.5601
  662MOL0     H91342   8.280   2.070   4.429 -0.9597 -2.7377 -1.3684
  662MOL0     H91343   8.479   2.219   4.513  1.5083  0.4715  0.9292
  662MOL0     H91344   8.696   2.255   4.466 -0.2495 -0.9321 -1.5052
  662MOL0     H91345   8.704   2.310   4.636 -0.6608 -0.3059 -0.9521
  662MOL0     H91346   8.910   2.348   4.496  1.6561 -0.5050 -0.9343
  662MOL0     H91347   8.922   2.175   4.473 -0.0333  0.5209  0.1556
  662MOL0     H91348   8.950   2.351   4.731  0.2704  0.2448  0.3409
  662MOL0     H91349   8.936   2.174   4.746 -2.5912 -0.1857 -0.2921
  662MOL0     H91350   9.173   2.341   4.635 -1.5288  0.7485  0.1161
  662MOL0     H91351   9.146   2.190   4.556  0.9325  0.0179  1.2219
  662MOL0     H91352   9.327   2.054   4.883 -1.4012  0.0269  1.0328
  662MOL0     H91353   8.689   1.866   4.608 -1.3598 -2.2038  0.3268
  662MOL0     H91354   8.633   1.649   4.497  0.2586  0.5113  1.2593
  662MOL0     H91355   8.516   1.639   4.629 -0.2950  1.0367  0.1651
  662MOL0     H91356   8.463   1.629   4.451  0.6421  0.2621 -1.5880
  663MOL0     O91357   6.935  10.351   2.348 -0.9654 -0.7600 -0.0069
  663MOL0     C91358   6.981  10.459   2.300 -1.1360 -0.3411 -0.2195
  663MOL0     O91359   6.913  10.578   2.280  0.1673  0.9091 -0.2999
  663MOL0     C91360   6.787  10.572   2.340  0.8567  0.5596  0.4473
  663MOL0     C91361   6.675  10.598   2.262  0.7141 -0.5306 -0.5157
  663MOL0     C91362   6.555  10.624   2.323  0.6249  0.6082 -0.7281
  663MOL0     C91363   6.537  10.626   2.461  0.2517 -0.0246  0.4858
  663MOL0     O91364   6.408  10.638   2.508 -0.2939 -0.4360 -0.3896
  663MOL0     C91365   6.396  10.730   2.618  0.9010  0.0312 -0.2033
  663MOL0     C91366   6.247  10.767   2.620  0.5168  0.0530 -0.1996
  663MOL0     C91367   6.222  10.882   2.510 -0.5264 -0.0079 -0.4177
  663MOL0     C91368   6.105  10.822   2.419  0.5297 -0.0947 -0.3095
  663MOL0     C91369   6.084  10.890   2.287  0.0662  0.8767 -0.3002
  663MOL0     C91370   5.992  10.803   2.201 -0.3627 -0.3050  0.0406
  663MOL0     C91371   5.966  10.872   2.063  0.3515  0.0123  0.1346
  663MOL0     C91372   5.830  10.825   2.012  0.0078  0.6525  0.0128
  663MOL0     N91373   5.799  10.881   1.881  0.3164  0.4594 -0.5461
  663MOL0     C91374   5.879  10.919   1.775 -0.0623 -0.2018  0.2714
  663MOL0     C91375   5.792  10.981   1.685 -0.0107  0.5551 -0.2267
  663MOL0     C91376   5.816  11.030   1.555  0.3467 -0.4365  0.3157
  663MOL0     C91377   5.807  10.934   1.435 -0.3077  0.9685  0.5385
  663MOL0     C91378   5.906  10.813   1.442 -0.1840  0.3758  0.0637
  663MOL0     C91379   5.889  10.717   1.331  0.2225  0.4818 -0.2626
  663MOL0     O91380   5.784  10.633   1.374 -0.3187  0.9492  0.2068
  663MOL0     C91381   5.754  10.516   1.299 -0.3565 -0.3660  1.0525
  663MOL0     C91382   5.803  10.501   1.164  0.5255 -1.6856 -0.1784
  663MOL0     C91383   5.766  10.390   1.086 -0.2355  0.9545  0.5755
  663MOL0     C91384   5.821  10.390   0.940  0.2132  0.0596  0.2746
  663MOL0     C91385   5.681  10.290   1.142 -1.4176  0.3887 -0.0961
  663MOL0     C91386   5.652  10.166   1.070  0.1983  0.5660 -0.6342
  663MOL0     O91387   5.551  10.091   1.106 -0.3229  0.0056  0.4310
  663MOL0     C91388   5.555   9.955   1.075 -0.7976  0.7996 -0.5162
  663MOL0     C91389   5.485   9.929   0.961  0.0574  0.2203 -0.0191
  663MOL0     C91390   5.462   9.798   0.918  0.0832  0.3179 -0.5503
  663MOL0     C91391   5.502   9.685   1.000 -0.1347 -0.8219 -0.8332
  663MOL0     O91392   5.462   9.558   0.981  0.3143  0.0714 -0.2682
  663MOL0     C91393   5.448   9.494   0.852 -0.1552 -0.0936 -0.5561
  663MOL0     C91394   5.549   9.375   0.838 -0.0313  0.6134  0.1364
  663MOL0     C91395   5.699   9.418   0.880  0.9224  0.6598 -0.4421
  663MOL0     C91396   5.792   9.294   0.861  0.7094 -0.5391  0.2900
  663MOL0     C91397   5.932   9.325   0.902  0.2164 -0.1574  0.0616
  663MOL0     C91398   5.951   9.337   1.049 -0.6881 -1.0573 -0.4928
  663MOL0     C91399   6.097   9.318   1.071  0.5039  0.3409 -0.3103
  663MOL0     C91400   6.146   9.367   1.209  0.6235  0.0516 -1.1852
  663MOL0    Cl91401   6.321   9.324   1.222  0.0420 -0.2554 -0.2005
  663MOL0     C91402   5.579   9.716   1.117  0.0843  0.4641  0.0030
  663MOL0     C91403   5.606   9.848   1.152 -0.7398 -0.1058  1.0226
  663MOL0     O91404   5.738  10.125   0.992  0.3110  0.2594  0.3027
  663MOL0     C91405   5.622  10.310   1.263  0.5646 -0.0075 -1.0649
  663MOL0     C91406   5.668  10.415   1.346  0.3144 -0.0897 -0.2003
  663MOL0     N91407   5.659  10.966   1.728 -0.9426 -0.1649  0.1083
  663MOL0     N91408   5.667  10.912   1.843  0.0222  0.2291  0.0820
  663MOL0     C91409   6.645  10.596   2.549 -0.1923  0.6847  0.7666
  663MOL0     C91410   6.768  10.568   2.482 -0.3777  0.3895  0.1493
  663MOL0     C91411   7.129  10.471   2.270 -0.7709  0.1070  0.0735
  663MOL0     C91412   7.171  10.574   2.188 -0.1459  0.8550  0.0849
  663MOL0     C91413   7.301  10.594   2.151 -0.7018  0.4269  0.4347
  663MOL0     C91414   7.405  10.504   2.191 -0.2634 -0.0555 -0.3144
  663MOL0     O91415   7.531  10.504   2.133  0.7680 -0.1438  0.0647
  663MOL0     C91416   7.574  10.602   2.037 -0.1097 -1.2221 -1.0484
  663MOL0     C91417   7.721  10.586   2.005 -0.5604 -0.2108 -0.5103
  663MOL0     C91418   7.823  10.661   2.096  0.2395 -0.4628 -0.1144
  663MOL0     C91419   7.967  10.607   2.075 -0.0794 -0.7061  0.6189
  663MOL0     C91420   8.062  10.693   2.140  0.6953 -0.4779  0.6820
  663MOL0     C91421   8.138  10.755   2.207  0.2813 -0.9400  0.6389
  663MOL0     C91422   7.364  10.401   2.279 -0.6943  0.3622  0.6168
  663MOL0     C91423   7.231  10.388   2.323  0.6465  0.2451  0.1237
  663MOL0     C91424   7.201  10.264   2.401 -0.5053 -0.5498  0.6607
  663MOL0     H91425   6.693  10.618   2.157 -0.9024 -0.2935 -0.7701
  663MOL0     H91426   6.468  10.652   2.263 -0.1933  0.7271  0.4857
  663MOL0     H91427   6.458  10.819   2.607  0.2775  0.2520 -2.3499
  663MOL0     H91428   6.419  10.671   2.707  0.3749 -1.1136 -0.8029
  663MOL0     H91429   6.192  10.673   2.603 -0.5663  0.9985 -2.2248
  663MOL0     H91430   6.227  10.801   2.722  2.1001  0.8473 -0.1268
  663MOL0     H91431   6.181  10.976   2.548  0.1668  0.4696 -0.8304
  663MOL0     H91432   6.310  10.911   2.453 -1.3097 -0.6113 -2.0140
  663MOL0     H91433   6.131  10.719   2.394 -2.1543 -0.3755 -2.3220
  663MOL0     H91434   6.011  10.815   2.474  2.4473 -2.5771  2.9637
  663MOL0     H91435   6.182  10.895   2.238  0.0141 -1.2038 -0.7234
  663MOL0     H91436   6.049  10.992   2.299 -0.7858  0.8569 -2.2473
  663MOL0     H91437   6.021  10.700   2.177 -2.2789 -0.4948 -1.7715
  663MOL0     H91438   5.902  10.783   2.259  0.2538 -0.3632  0.9984
  663MOL0     H91439   6.036  10.834   1.988  0.1880  0.9034 -0.4852
  663MOL0     H91440   5.958  10.981   2.063 -1.3527 -0.0717 -0.1291
  663MOL0     H91441   5.829  10.716   2.009 -0.6080  0.5956  1.4797
  663MOL0     H91442   5.755  10.837   2.091  3.3501  0.0987  3.5621
  663MOL0     H91443   5.987  10.915   1.766 -0.1480 -0.8018 -0.6485
  663MOL0     H91444   5.909  11.086   1.547 -1.9008  3.6674 -0.0078
  663MOL0     H91445   5.737  11.101   1.529  0.8046 -0.1034 -0.1733
  663MOL0     H91446   5.707  10.892   1.423  0.3896 -0.2246 -1.6016
  663MOL0     H91447   5.826  10.995   1.346 -1.3225 -1.8365 -1.7609
  663MOL0     H91448   6.010  10.847   1.434  0.1084 -0.3799  0.5373
  663MOL0     H91449   5.891  10.759   1.537 -1.6959 -1.2976 -1.0540
  663MOL0     H91450   5.873  10.758   1.231  2.9667 -2.6063 -2.1750
  663MOL0     H91451   5.980  10.657   1.318  1.2321  2.0575 -0.8808
  663MOL0     H91452   5.858  10.584   1.120 -1.0923 -0.4068  0.1198
  663MOL0     H91453   5.739  10.398   0.867 -2.0984 -2.4337  2.3707
  663MOL0     H91454   5.875  10.299   0.912 -0.3301 -0.7136  1.6295
  663MOL0     H91455   5.889  10.474   0.925  1.7681 -0.8291  1.9269
  663MOL0     H91456   5.444  10.000   0.890  0.5190 -0.0834 -0.6004
  663MOL0     H91457   5.402   9.775   0.831 -2.4146  2.5929  0.4322
  663MOL0     H91458   5.344   9.461   0.848 -1.1936  1.7909  4.2305
  663MOL0     H91459   5.472   9.567   0.773  0.8562  1.0564  0.7558
  663MOL0     H91460   5.505   9.285   0.882 -1.0846  2.1861  2.5356
  663MOL0     H91461   5.559   9.356   0.731  1.8065 -1.4583  0.5818
  663MOL0     H91462   5.717   9.454   0.982 -0.1074 -0.8325  0.2952
  663MOL0     H91463   5.745   9.485   0.807  0.9992  0.1133 -0.9003
  663MOL0     H91464   5.781   9.270   0.755 -2.9633 -1.2369  0.6995
  663MOL0     H91465   5.754   9.206   0.915  1.2277 -0.5240  0.6972
  663MOL0     H91466   6.007   9.260   0.855 -0.8386 -0.2019 -1.6407
  663MOL0     H91467   5.962   9.423   0.864  1.6340  0.1835  1.9286
  663MOL0     H91468   5.894   9.258   1.100 -0.5420  0.1470  1.6827
  663MOL0     H91469   5.917   9.432   1.090  2.2310  0.2061 -0.7472
  663MOL0     H91470   6.151   9.385   1.004 -0.7973 -1.5183 -3.4006
  663MOL0     H91471   6.110   9.211   1.052  0.0369  0.2822 -0.2934
  663MOL0     H91472   6.087   9.312   1.283 -1.1263  2.4290 -0.6947
  663MOL0     H91473   6.132   9.475   1.223  4.7631  0.5936  0.2623
  663MOL0     H91474   5.625   9.641   1.180  1.2942 -1.7097 -3.2502
  663MOL0     H91475   5.678   9.866   1.231  0.3203  0.6127 -0.0741
  663MOL0     H91476   5.561  10.228   1.299  0.4895 -0.6542 -2.6158
  663MOL0     H91477   5.635  10.429   1.448  4.6901 -1.0410  1.5873
  663MOL0     H91478   6.644  10.586   2.657  2.7585 -5.4940  0.6510
  663MOL0     H91479   6.858  10.557   2.543 -0.5452 -0.7634  0.2131
  663MOL0     H91480   7.094  10.645   2.158 -1.8738 -1.4767 -1.3768
  663MOL0     H91481   7.322  10.685   2.097 -1.5680 -0.6477 -1.8345
  663MOL0     H91482   7.522  10.594   1.942  3.9455  1.2521 -3.8023
  663MOL0     H91483   7.560  10.701   2.081  2.1190 -1.9537  1.6674
  663MOL0     H91484   7.732  10.620   1.902 -1.4777 -0.7485 -0.8009
  663MOL0     H91485   7.741  10.479   2.016  0.1370 -0.1226 -0.8253
  663MOL0     H91486   7.809  10.768   2.078  0.7081 -0.3989 -0.1168
  663MOL0     H91487   7.790  10.650   2.199 -0.4188  0.4516 -0.2158
  663MOL0     H91488   7.983  10.611   1.967 -2.1996  1.3444  0.2948
  663MOL0     H91489   7.977  10.501   2.100  1.2071 -2.0182 -4.2659
  663MOL0     H91490   8.204  10.826   2.254 -1.8157 -0.2761  2.8080
  663MOL0     H91491   7.436  10.326   2.311 -1.9244 -1.8328 -1.4219
  663MOL0     H91492   7.287  10.197   2.402 -1.1731 -1.4453  0.0319
  663MOL0     H91493   7.183  10.300   2.502 -1.2255  2.9950 -0.5684
  663MOL0     H91494   7.115  10.209   2.363 -0.3267 -1.3022  1.3403
  664MOL0     O91495   0.202   5.891   9.826  0.3467 -0.1727  0.1380
  664MOL0     C91496   0.122   5.985   9.854  1.2344 -0.1226 -0.3072
  664MOL0     O91497   0.103   6.038   9.980 -0.6190 -0.4427  0.2152
  664MOL0     C91498   0.186   6.019  10.095 -0.3468  0.1063 -0.3448
  664MOL0     C91499   0.326   5.983  10.105  0.4622  0.0548 -0.5560
  664MOL0     C91500   0.393   5.970  10.224 -0.2551 -1.1561 -0.2168
  664MOL0     C91501   0.317   5.998  10.339 -0.9396  0.1061  0.4147
  664MOL0     O91502   0.374   6.008  10.463 -1.0720  0.1407 -0.3175
  664MOL0     C91503   0.491   5.923  10.473 -0.5414 -0.7795  0.3598
  664MOL0     C91504   0.514   5.917  10.623  0.1864  0.0964 -0.1352
  664MOL0     C91505   0.647   5.849  10.648 -0.7978 -0.1638 -0.4750
  664MOL0     C91506   0.688   5.839  10.791 -0.3240 -0.3465 -0.3682
  664MOL0     C91507   0.833   5.783  10.810  0.3703  0.4755  0.6496
  664MOL0     C91508   0.866   5.757  10.952  0.7802  0.0242 -0.4656
  664MOL0     C91509   1.005   5.713  11.003 -0.3639  0.2316  0.3648
  664MOL0     C91510   1.126   5.754  10.907  0.4088 -0.1878  0.3041
  664MOL0     N91511   1.251   5.686  10.931 -0.2781 -0.9290 -0.2803
  664MOL0     C91512   1.353   5.726  11.010 -0.5784  0.5791  0.0816
  664MOL0     C91513   1.447   5.630  10.985  0.2947 -0.1137 -0.4108
  664MOL0     C91514   1.587   5.645  11.052 -0.6938  1.2099  0.6562
  664MOL0     C91515   1.685   5.541  10.997  0.3549 -0.3412 -0.6365
  664MOL0     C91516   1.823   5.557  11.062  0.4993 -0.1964  0.2619
  664MOL0     C91517   1.898   5.424  11.029 -0.3079  0.5195 -1.1723
  664MOL0     O91518   1.899   5.387  10.894  0.9420  0.0559 -0.1380
  664MOL0     C91519   1.977   5.429  10.800  0.6762  0.1897 -0.3617
  664MOL0     C91520   1.978   5.367  10.671 -0.4245 -0.1100  0.5738
  664MOL0     C91521   2.076   5.394  10.574 -0.0609  0.3347  0.5550
  664MOL0     C91522   2.065   5.302  10.454 -0.3046  0.3511  0.9411
  664MOL0     C91523   2.177   5.490  10.593 -0.3392 -0.1109  0.5447
  664MOL0     C91524   2.292   5.530  10.501 -0.2635 -0.3342 -0.6220
  664MOL0     O91525   2.401   5.588  10.557 -0.3248 -0.0551  0.0507
  664MOL0     C91526   2.506   5.622  10.477 -0.1365 -0.1060  0.2904
  664MOL0     C91527   2.502   5.745  10.410 -0.0134  0.4043  0.0275
  664MOL0     C91528   2.597   5.786  10.323 -0.2127 -0.5016  0.3222
  664MOL0     C91529   2.705   5.706  10.294 -0.3879 -0.3239  0.4106
  664MOL0     O91530   2.800   5.759  10.215  0.1366  0.2719 -0.0139
  664MOL0     C91531   2.932   5.713  10.229 -0.5187  0.5364 -0.4678
  664MOL0     C91532   3.016   5.827  10.175 -0.1257  0.6464 -0.4175
  664MOL0     C91533   2.976   5.852  10.029  0.5484 -0.5135  0.7895
  664MOL0     C91534   3.045   5.974   9.977 -0.1722  0.5464 -0.3736
  664MOL0     C91535   2.967   6.024   9.847 -0.4182  0.3493 -0.5749
  664MOL0     C91536   3.002   6.169   9.802  0.1747 -0.6271 -0.3544
  664MOL0     C91537   2.926   6.202   9.673 -0.0402 -0.2331  0.1741
  664MOL0     C91538   2.967   6.342   9.627  0.5589 -0.2939 -0.4495
  664MOL0    Cl91539   2.873   6.470   9.715  0.0267 -0.0805  0.0489
  664MOL0     C91540   2.722   5.588  10.363 -0.2353 -0.2338 -0.3235
  664MOL0     C91541   2.620   5.547  10.454 -0.2197  0.1713  0.3151
  664MOL0     O91542   2.286   5.487  10.387 -0.5998  0.2772  0.0805
  664MOL0     C91543   2.176   5.553  10.716  0.1520  0.4963  0.1705
  664MOL0     C91544   2.080   5.522  10.813 -0.5619 -0.1878  0.0649
  664MOL0     N91545   1.404   5.525  10.909  0.2229 -0.7821  0.0760
  664MOL0     N91546   1.279   5.559  10.884 -1.0088 -0.7521  0.1775
  664MOL0     C91547   0.189   6.042  10.331 -0.4971 -0.0668  0.2251
  664MOL0     C91548   0.119   6.039  10.206  0.2538  0.7219  0.0295
  664MOL0     C91549   0.009   6.021   9.752  0.5004 -0.5352 -0.4910
  664MOL0     C91550  -0.113   6.079   9.806  0.1670 -0.0936  0.0242
  664MOL0     C91551  -0.209   6.118   9.716  0.1966 -0.1896 -0.0669
  664MOL0     C91552  -0.198   6.099   9.576 -0.3709  0.3430 -0.2528
  664MOL0     O91553  -0.302   6.140   9.492  0.0405 -0.1591  0.5360
  664MOL0     C91554  -0.257   6.225   9.387 -0.3888 -0.2960 -0.5460
  664MOL0     C91555  -0.317   6.366   9.406  0.4785 -0.2049 -0.7092
  664MOL0     C91556  -0.238   6.452   9.517  0.8449 -0.0948  0.6404
  664MOL0     C91557  -0.289   6.598   9.531  0.0177  0.3556 -0.2395
  664MOL0     C91558  -0.221   6.680   9.635 -0.9561  0.5208  0.8285
  664MOL0     C91559  -0.182   6.753   9.718 -0.4704  0.0897  0.9756
  664MOL0     C91560  -0.087   6.028   9.525  0.5121 -0.5349  0.1299
  664MOL0     C91561   0.021   6.003   9.609 -0.2958 -0.5622 -0.1336
  664MOL0     C91562   0.148   5.955   9.556  0.1650  0.2041  0.0715
  664MOL0     H91563   0.367   5.967  10.006 -2.3476  1.0700 -1.9954
  664MOL0     H91564   0.497   5.941  10.216  1.0227  3.0427 -1.2518
  664MOL0     H91565   0.580   5.963  10.422  0.0844 -2.0432  0.4125
  664MOL0     H91566   0.471   5.818  10.451 -1.6430 -0.3345 -0.8233
  664MOL0     H91567   0.513   6.017  10.668  2.7288 -0.5124  1.4999
  664MOL0     H91568   0.451   5.857  10.690  2.5991 -0.8883  1.3833
  664MOL0     H91569   0.657   5.750  10.602  0.6816  0.5788 -1.8282
  664MOL0     H91570   0.726   5.902  10.594 -0.0852 -0.0246  0.6756
  664MOL0     H91571   0.684   5.940  10.832 -0.6738 -0.2992 -0.5155
  664MOL0     H91572   0.623   5.766  10.841 -0.7007 -0.7053 -1.3462
  664MOL0     H91573   0.904   5.850  10.761 -1.5468  0.2655 -2.7045
  664MOL0     H91574   0.845   5.687  10.758  0.8784  0.8153  0.1240
  664MOL0     H91575   0.849   5.856  10.996  1.8877 -0.6260  1.5294
  664MOL0     H91576   0.790   5.686  10.987  0.8677  0.4370  0.5979
  664MOL0     H91577   1.015   5.608  11.030  0.6455 -0.0634 -1.0449
  664MOL0     H91578   1.009   5.757  11.103  0.6744 -2.7172  1.7343
  664MOL0     H91579   1.099   5.739  10.802 -0.0707 -0.7932  0.5046
  664MOL0     H91580   1.143   5.862  10.911 -1.5868  0.2243 -0.9730
  664MOL0     H91581   1.375   5.807  11.079 -2.7696 -0.0425  1.6117
  664MOL0     H91582   1.597   5.633  11.161  3.7201  2.5645  0.5870
  664MOL0     H91583   1.635   5.739  11.024  1.0850 -0.4256 -2.2108
  664MOL0     H91584   1.645   5.444  11.028  0.1192 -0.7572 -2.1551
  664MOL0     H91585   1.695   5.550  10.889 -1.4779  2.5456 -0.6681
  664MOL0     H91586   1.869   5.648  11.023 -0.9197  1.1872  1.6429
  664MOL0     H91587   1.824   5.557  11.172 -0.6344 -2.2404  0.3360
  664MOL0     H91588   1.995   5.447  11.073 -1.4402 -1.6173  3.0234
  664MOL0     H91589   1.862   5.345  11.096 -1.4233  3.4915  2.0090
  664MOL0     H91590   1.918   5.277  10.657 -0.0457 -0.0363 -1.8302
  664MOL0     H91591   2.067   5.359  10.361 -1.3438  0.6735  1.1026
  664MOL0     H91592   1.983   5.229  10.445  1.0311 -0.9227 -2.7340
  664MOL0     H91593   2.157   5.246  10.475 -0.5936  0.7223  3.5781
  664MOL0     H91594   2.419   5.812  10.429 -0.4175  0.1081 -0.6622
  664MOL0     H91595   2.585   5.890  10.295 -2.9003 -0.5147  1.1806
  664MOL0     H91596   2.950   5.684  10.333 -0.2199  1.3520 -0.2895
  664MOL0     H91597   2.948   5.624  10.167 -1.3091  0.9318 -1.2554
  664MOL0     H91598   3.001   5.917  10.237  3.4306  1.0942 -0.0018
  664MOL0     H91599   3.122   5.801  10.179 -0.4824 -1.0837 -1.2946
  664MOL0     H91600   2.869   5.873  10.017  0.7140 -0.3200 -0.4932
  664MOL0     H91601   3.001   5.767   9.964  3.2171  0.9486 -0.2567
  664MOL0     H91602   3.145   5.954   9.937  0.3756  1.7413  0.3351
  664MOL0     H91603   3.055   6.054  10.051  1.4718 -0.7384  0.8779
  664MOL0     H91604   2.995   5.961   9.761 -1.5761  0.4670 -1.0547
  664MOL0     H91605   2.859   6.030   9.863 -0.1414  1.6994  1.0347
  664MOL0     H91606   3.110   6.181   9.793  0.2052  0.6600  1.1376
  664MOL0     H91607   2.980   6.240   9.882  3.0315 -1.2842  1.1214
  664MOL0     H91608   2.818   6.186   9.688  0.1393 -3.0986 -0.9894
  664MOL0     H91609   2.959   6.134   9.594  2.5235 -0.8971  1.7214
  664MOL0     H91610   2.947   6.348   9.519 -0.3784 -0.4722 -0.2975
  664MOL0     H91611   3.069   6.373   9.651 -0.2514  1.9775  0.3500
  664MOL0     H91612   2.808   5.524  10.346 -0.6659 -0.8303 -0.2762
  664MOL0     H91613   2.638   5.459  10.515  0.7429  0.4558  0.4578
  664MOL0     H91614   2.241   5.633  10.749 -0.6381  1.8426 -1.4110
  664MOL0     H91615   2.093   5.567  10.911  0.7657 -0.5782  0.0808
  664MOL0     H91616   0.130   6.071  10.418 -2.0399 -1.3795 -0.3207
  664MOL0     H91617   0.012   6.056  10.199  0.1603 -0.5071 -2.2273
  664MOL0     H91618  -0.145   6.095   9.908 -3.3448  1.1094 -1.1315
  664MOL0     H91619  -0.304   6.159   9.751 -0.0230 -1.7716  1.3208
  664MOL0     H91620  -0.148   6.215   9.375 -0.7692 -3.6353 -2.1873
  664MOL0     H91621  -0.301   6.191   9.293 -1.0575  0.9012 -0.6835
  664MOL0     H91622  -0.424   6.373   9.423  0.0231 -4.2900 -0.9212
  664MOL0     H91623  -0.305   6.413   9.308  2.0543 -0.0546 -0.4715
  664MOL0     H91624  -0.250   6.398   9.612 -1.5232  0.2375  0.5657
  664MOL0     H91625  -0.132   6.451   9.487 -0.2037 -1.7525 -3.7361
  664MOL0     H91626  -0.393   6.596   9.566 -0.2307  3.1099 -0.5793
  664MOL0     H91627  -0.275   6.651   9.437  1.0947  1.9718  0.7724
  664MOL0     H91628  -0.129   6.812   9.790  0.4791 -0.9308  1.1421
  664MOL0     H91629  -0.086   5.997   9.421  0.2969  0.5160 -0.1974
  664MOL0     H91630   0.144   5.845   9.551  0.8030  0.2013 -0.5863
  664MOL0     H91631   0.150   5.991   9.453 -4.8749 -0.0841 -0.3875
  664MOL0     H91632   0.234   5.989   9.613  1.1016 -1.8818  0.0138
  665MOL0     O91633  11.257   8.749   6.233  0.9137  0.0096 -0.3923
  665MOL0     C91634  11.316   8.658   6.167 -0.0251  1.0429  0.5115
  665MOL0     O91635  11.246   8.547   6.116 -0.9138 -0.0963  0.4271
  665MOL0     C91636  11.114   8.569   6.121  0.0004 -0.3307 -0.0650
  665MOL0     C91637  11.054   8.613   6.004 -1.2524  1.1306 -0.2786
  665MOL0     C91638  10.922   8.637   6.011  0.6355 -0.1726  0.9569
  665MOL0     C91639  10.839   8.614   6.120 -0.6462 -0.4413 -0.2820
  665MOL0     O91640  10.704   8.617   6.126 -0.0396 -0.8487 -0.6428
  665MOL0     C91641  10.630   8.674   6.023  0.2085 -0.3633 -0.8745
  665MOL0     C91642  10.492   8.714   6.087  0.2544  0.1295  1.3720
  665MOL0     C91643  10.421   8.578   6.119 -0.2106 -0.4548  1.4973
  665MOL0     C91644  10.275   8.594   6.163 -0.2887 -0.6172  0.1244
  665MOL0     C91645  10.184   8.668   6.063 -0.5278  0.1973 -0.0441
  665MOL0     C91646  10.032   8.647   6.097  0.2796 -0.2823 -0.0061
  665MOL0     C91647   9.937   8.736   6.012 -0.3084  0.1017  0.2299
  665MOL0     C91648   9.787   8.729   6.034  0.0761  0.4030  0.1107
  665MOL0     N91649   9.747   8.798   6.157  0.2312  0.4337  0.0373
  665MOL0     C91650   9.784   8.925   6.204  0.5674  0.2019 -0.3875
  665MOL0     C91651   9.709   8.929   6.321  0.5167 -0.4014 -0.2326
  665MOL0     C91652   9.715   9.039   6.417 -0.2619  0.1733  0.3081
  665MOL0     C91653   9.801   9.008   6.545  0.1862 -0.3167  0.2687
  665MOL0     C91654   9.709   9.003   6.676  0.5161 -0.2640 -0.2271
  665MOL0     C91655   9.795   8.973   6.795  0.0431  0.1394  0.6051
  665MOL0     O91656   9.889   9.074   6.822 -0.0496 -0.3554  0.2678
  665MOL0     C91657  10.016   9.045   6.854  0.3725 -0.4355 -0.3551
  665MOL0     C91658  10.065   8.918   6.882 -1.0043 -0.6708  0.3393
  665MOL0     C91659  10.194   8.878   6.915  1.1278 -0.0252 -0.5433
  665MOL0     C91660  10.228   8.724   6.902  0.0422 -0.4149 -0.3921
  665MOL0     C91661  10.290   8.976   6.950  0.3155  0.1131  0.2306
  665MOL0     C91662  10.430   8.947   6.992 -0.6258  0.3843 -0.0243
  665MOL0     O91663  10.500   9.062   7.030  0.8312 -0.2016 -0.5630
  665MOL0     C91664  10.618   9.052   7.099  0.0188 -0.8200  0.1289
  665MOL0     C91665  10.706   9.165   7.069 -0.9105  0.1184 -0.2192
  665MOL0     C91666  10.830   9.168   7.147 -0.0842 -0.1309  0.0590
  665MOL0     C91667  10.870   9.054   7.219 -1.1047  0.7334 -0.1365
  665MOL0     O91668  10.996   9.068   7.265 -0.0922 -0.1016 -0.2999
  665MOL0     C91669  11.046   8.942   7.327 -0.3982 -0.7855  0.0119
  665MOL0     C91670  11.199   8.935   7.321  0.3239 -0.4645 -0.6674
  665MOL0     C91671  11.279   9.035   7.399  0.3519  0.5956 -0.2947
  665MOL0     C91672  11.242   9.061   7.540  0.1224 -0.2802 -0.1731
  665MOL0     C91673  11.361   9.103   7.634 -1.2143 -0.6967  0.2322
  665MOL0     C91674  11.444   9.211   7.557 -0.4125  0.1612 -0.4009
  665MOL0     C91675  11.579   9.241   7.626 -0.5254  0.0865 -0.2748
  665MOL0     C91676  11.561   9.290   7.774 -0.5445 -0.1183 -0.2526
  665MOL0    Cl91677  11.459   9.443   7.796  0.0128 -0.1920  0.2513
  665MOL0     C91678  10.779   8.945   7.237 -0.3431  0.3724  0.9809
  665MOL0     C91679  10.660   8.954   7.176  0.6757  0.1481  0.4273
  665MOL0     O91680  10.474   8.826   6.990 -0.7229 -0.4825 -0.7798
  665MOL0     C91681  10.237   9.113   6.936  0.3388  0.4106 -0.0908
  665MOL0     C91682  10.113   9.141   6.888  0.4271 -0.0091 -0.3231
  665MOL0     N91683   9.658   8.806   6.351  0.0286  0.2507  0.0823
  665MOL0     N91684   9.685   8.724   6.252 -1.0158 -0.3391  0.1318
  665MOL0     C91685  10.901   8.549   6.230  0.8466  0.8335  0.7467
  665MOL0     C91686  11.039   8.528   6.232 -0.4095  0.1055 -0.2104
  665MOL0     C91687  11.465   8.662   6.152  0.0425 -0.1437  0.1121
  665MOL0     C91688  11.530   8.548   6.095 -0.8030 -0.5508 -0.8500
  665MOL0     C91689  11.670   8.545   6.080  0.3099 -0.0393  0.9350
  665MOL0     C91690  11.753   8.651   6.124 -0.5864  0.8541 -0.0400
  665MOL0     O91691  11.889   8.655   6.096 -0.0239  0.4742  0.4373
  665MOL0     C91692  11.967   8.530   6.064 -0.0828  0.5508  0.1324
  665MOL0     C91693  12.092   8.503   6.153  0.5857 -0.5162  0.1476
  665MOL0     C91694  12.189   8.625   6.161  0.1489 -1.6092 -0.2309
  665MOL0     C91695  12.256   8.631   6.027  1.0476 -0.1211 -0.4614
  665MOL0     C91696  12.341   8.742   6.002 -0.0244 -0.0872  0.3922
  665MOL0     C91697  12.406   8.835   5.979  0.1436 -0.2358 -0.1358
  665MOL0     C91698  11.696   8.759   6.191  0.6043 -0.0953 -0.0438
  665MOL0     C91699  11.549   8.770   6.201 -0.0874  0.3639  0.8297
  665MOL0     C91700  11.500   8.903   6.259 -0.1362  0.2909  0.1229
  665MOL0     H91701  11.112   8.628   5.914 -0.5234 -2.6274 -0.6211
  665MOL0     H91702  10.868   8.667   5.921  0.0747 -1.1664  0.9425
  665MOL0     H91703  10.612   8.596   5.948  1.0001  2.7214 -4.5314
  665MOL0     H91704  10.680   8.759   5.976 -0.2608  1.8373  2.2861
  665MOL0     H91705  10.513   8.784   6.169  2.0325  0.7167  0.4665
  665MOL0     H91706  10.437   8.757   6.003  0.6050 -3.4066 -0.8590
  665MOL0     H91707  10.418   8.512   6.032 -0.3674 -0.8895  1.8286
  665MOL0     H91708  10.473   8.519   6.195  0.6790 -0.6106  0.7877
  665MOL0     H91709  10.236   8.492   6.167 -0.5358 -0.5065  0.6031
  665MOL0     H91710  10.259   8.623   6.267 -2.5627 -3.7418  0.8033
  665MOL0     H91711  10.194   8.631   5.961 -0.6637 -1.0994  0.3841
  665MOL0     H91712  10.223   8.770   6.066  3.0301 -1.0259  3.2832
  665MOL0     H91713  10.008   8.540   6.098 -0.9423 -0.1230  3.7060
  665MOL0     H91714  10.034   8.685   6.200  1.7373 -2.8952  1.0387
  665MOL0     H91715   9.959   8.692   5.914  0.1347  1.0861 -0.1278
  665MOL0     H91716   9.972   8.839   6.007  0.0065  0.0907  1.7856
  665MOL0     H91717   9.735   8.771   5.947  0.9932 -0.5521 -0.9166
  665MOL0     H91718   9.757   8.624   6.043  1.2349  0.2578  5.1723
  665MOL0     H91719   9.849   8.995   6.152  1.5064 -0.6230 -0.3637
  665MOL0     H91720   9.614   9.047   6.457 -0.8564 -0.3177 -1.0474
  665MOL0     H91721   9.746   9.128   6.360  1.9438 -0.8981 -0.2724
  665MOL0     H91722   9.850   8.910   6.536  0.3200 -0.0499 -2.8561
  665MOL0     H91723   9.881   9.083   6.551  0.8187 -0.9350 -0.3561
  665MOL0     H91724   9.654   9.094   6.704 -1.0381 -1.6383  1.3992
  665MOL0     H91725   9.633   8.925   6.669  2.0292 -2.3603  3.5283
  665MOL0     H91726   9.736   8.961   6.886 -0.9672 -2.9379 -0.3290
  665MOL0     H91727   9.841   8.877   6.770 -2.1801 -1.2615  1.6265
  665MOL0     H91728  10.014   8.830   6.844  0.9708 -1.4783 -0.5801
  665MOL0     H91729  10.148   8.657   6.869  1.8767 -1.6415 -2.7288
  665MOL0     H91730  10.254   8.692   7.003 -0.9291  1.4058  0.4753
  665MOL0     H91731  10.317   8.698   6.842  0.9880 -1.4944  1.3961
  665MOL0     H91732  10.674   9.247   7.006  0.5086  1.0920  0.2751
  665MOL0     H91733  10.898   9.252   7.136 -2.0931  1.6447  0.6662
  665MOL0     H91734  11.003   8.933   7.427  0.8367 -2.3509  0.4422
  665MOL0     H91735  11.004   8.857   7.272 -2.0741 -1.8899  2.8111
  665MOL0     H91736  11.223   8.832   7.351  1.5154 -0.2563 -0.8790
  665MOL0     H91737  11.239   8.936   7.219  2.3374  2.3296  0.0407
  665MOL0     H91738  11.286   9.133   7.351  3.9563  0.4215 -0.3760
  665MOL0     H91739  11.381   8.995   7.402 -0.3603 -1.2484  0.2992
  665MOL0     H91740  11.192   8.976   7.588 -3.7832  2.6398  1.4629
  665MOL0     H91741  11.169   9.141   7.527  0.1043 -0.0238  1.3112
  665MOL0     H91742  11.327   9.140   7.731  0.7661  2.6192 -0.1784
  665MOL0     H91743  11.430   9.022   7.659 -0.0632 -0.3027 -1.4417
  665MOL0     H91744  11.389   9.306   7.557  0.4060  0.8206  3.4353
  665MOL0     H91745  11.473   9.184   7.455 -1.3540  1.0285 -0.9118
  665MOL0     H91746  11.628   9.326   7.579  2.7459  0.8832  3.9318
  665MOL0     H91747  11.648   9.157   7.622 -0.2135  0.2687  0.8821
  665MOL0     H91748  11.662   9.314   7.809 -0.6448 -1.4585  1.0379
  665MOL0     H91749  11.514   9.210   7.832 -1.5111  2.6506  3.1676
  665MOL0     H91750  10.787   8.858   7.301  3.8390  0.0703  0.3184
  665MOL0     H91751  10.582   8.880   7.194  0.1829  0.7459  0.7862
  665MOL0     H91752  10.300   9.201   6.949  1.1995  0.2744 -2.6039
  665MOL0     H91753  10.097   9.248   6.875  3.6104  0.4017 -2.0586
  665MOL0     H91754  10.834   8.517   6.308  0.0020 -0.4678 -0.4619
  665MOL0     H91755  11.099   8.500   6.317  0.9333  0.3797 -1.0417
  665MOL0     H91756  11.465   8.468   6.063  0.2269 -2.4351  1.4625
  665MOL0     H91757  11.696   8.462   6.015  2.7210 -0.7980  2.7055
  665MOL0     H91758  11.905   8.444   6.090 -0.3756 -0.0791 -2.4211
  665MOL0     H91759  11.995   8.517   5.959 -1.4433  1.3201 -0.3451
  665MOL0     H91760  12.143   8.413   6.117  1.5849 -0.8709  2.3135
  665MOL0     H91761  12.058   8.476   6.253  0.4520  0.7514  0.4619
  665MOL0     H91762  12.131   8.718   6.165  0.1828 -1.5503 -1.0200
  665MOL0     H91763  12.257   8.617   6.247 -0.6919  1.1117  0.7974
  665MOL0     H91764  12.172   8.645   5.958  1.2709 -1.8348 -1.1245
  665MOL0     H91765  12.302   8.535   6.005  2.3786  0.8800 -2.3285
  665MOL0     H91766  12.464   8.918   5.944 -1.1171 -0.2268 -2.3427
  665MOL0     H91767  11.757   8.839   6.232  0.4656 -0.1313  0.2317
  665MOL0     H91768  11.444   8.882   6.351  0.0724  0.7438  0.3575
  665MOL0     H91769  11.587   8.966   6.282 -1.1239  1.6396  0.3102
  665MOL0     H91770  11.442   8.959   6.186  0.9844  0.7764 -0.4173
  666MOL0     O91771  10.931   9.551  11.079  0.3713  0.1148  0.1541
  666MOL0     C91772  11.049   9.524  11.098 -0.0614 -0.5670 -0.3694
  666MOL0     O91773  11.092   9.445  11.200 -0.5392 -0.0446 -0.3041
  666MOL0     C91774  11.004   9.349  11.254 -0.0194 -0.9086 -0.5373
  666MOL0     C91775  10.932   9.256  11.174 -0.2996  0.3447  0.0790
  666MOL0     C91776  10.855   9.168  11.235  0.3020 -0.3985 -0.0149
  666MOL0     C91777  10.837   9.169  11.378  0.5500 -0.5159 -0.0070
  666MOL0     O91778  10.776   9.075  11.445  0.4428 -0.4949  0.0408
  666MOL0     C91779  10.635   9.052  11.394 -0.2500  0.1804 -0.1363
  666MOL0     C91780  10.548   8.986  11.501 -0.1760  0.0641 -0.6604
  666MOL0     C91781  10.604   8.851  11.547  0.9433 -0.1381 -0.1886
  666MOL0     C91782  10.489   8.741  11.572 -0.5507 -0.1481  0.2189
  666MOL0     C91783  10.569   8.612  11.596  0.3022 -0.4901 -0.3020
  666MOL0     C91784  10.487   8.491  11.639  0.2619  0.6247 -0.4840
  666MOL0     C91785  10.584   8.375  11.662 -0.2066  0.1971 -0.1563
  666MOL0     C91786  10.510   8.243  11.689 -0.6453  0.2039 -1.4215
  666MOL0     N91787  10.451   8.170  11.574 -0.2559  0.1090 -0.2751
  666MOL0     C91788  10.514   8.139  11.462 -0.0736 -0.2654  0.8936
  666MOL0     C91789  10.416   8.098  11.371 -0.2080 -0.6207 -0.2612
  666MOL0     C91790  10.432   8.087  11.224  0.1892  0.3080 -0.4416
  666MOL0     C91791  10.488   7.955  11.195 -0.7135  0.4192 -0.3425
  666MOL0     C91792  10.477   7.941  11.046  0.2221  0.6992 -0.0172
  666MOL0     C91793  10.562   7.832  10.977 -0.2416 -0.4932 -0.4852
  666MOL0     O91794  10.687   7.826  11.053 -0.5953  0.0313  0.6011
  666MOL0     C91795  10.779   7.917  11.008 -0.1418  0.5897  0.0212
  666MOL0     C91796  10.771   8.059  11.040 -0.5654  0.2405 -0.0181
  666MOL0     C91797  10.880   8.147  11.006 -0.1824  0.3770  0.7233
  666MOL0     C91798  10.860   8.290  11.045  0.3647  0.5293 -0.4765
  666MOL0     C91799  10.989   8.091  10.938 -0.5957 -0.9030  0.6863
  666MOL0     C91800  11.104   8.173  10.897 -0.3129  0.4203  0.3056
  666MOL0     O91801  11.200   8.122  10.807  0.2843  0.1411 -0.5971
  666MOL0     C91802  11.312   8.204  10.787  0.6732 -0.9288  0.2562
  666MOL0     C91803  11.322   8.280  10.667 -0.3736 -0.7464 -0.2624
  666MOL0     C91804  11.418   8.374  10.646  0.2201 -0.5180 -0.1780
  666MOL0     C91805  11.512   8.408  10.745  1.0993  0.9735 -0.1833
  666MOL0     O91806  11.610   8.504  10.736  0.6352  0.1681 -0.5927
  666MOL0     C91807  11.631   8.571  10.608 -0.0905 -0.1873 -0.8957
  666MOL0     C91808  11.758   8.660  10.620  0.8460  0.9785 -0.1691
  666MOL0     C91809  11.896   8.584  10.624 -0.2789  0.5956  0.7737
  666MOL0     C91810  11.945   8.532  10.490  0.3893 -0.6366 -0.0642
  666MOL0     C91811  12.077   8.466  10.470 -0.4077 -0.3108  0.0657
  666MOL0     C91812  12.090   8.326  10.530  0.3675 -0.4468  0.1406
  666MOL0     C91813  12.005   8.219  10.450  1.0921 -0.2359  0.3466
  666MOL0     C91814  12.025   8.084  10.512  0.6236  0.6631  0.3443
  666MOL0    Cl91815  11.903   7.968  10.447  0.1908  0.1744  0.5085
  666MOL0     C91816  11.505   8.324  10.858  0.5905  0.5350 -0.1940
  666MOL0     C91817  11.405   8.226  10.888 -0.8126  0.4508  0.8743
  666MOL0     O91818  11.110   8.289  10.946 -0.4275 -0.2522  0.5613
  666MOL0     C91819  10.983   7.962  10.882 -0.3954 -0.1466  0.3876
  666MOL0     C91820  10.887   7.871  10.923  0.3204  0.4387 -0.6754
  666MOL0     N91821  10.296   8.082  11.442 -0.0053  0.0980 -0.0681
  666MOL0     N91822  10.322   8.137  11.559 -0.1082  0.0901  0.0067
  666MOL0     C91823  10.904   9.264  11.457 -0.4926 -0.5796  0.0863
  666MOL0     C91824  10.992   9.351  11.395 -0.9528 -0.5535 -0.1976
  666MOL0     C91825  11.160   9.601  11.034  0.7690  0.0981 -0.6326
  666MOL0     C91826  11.286   9.599  11.106  0.0588  0.1337 -0.0836
  666MOL0     C91827  11.387   9.681  11.062  0.5079 -0.4321 -0.2102
  666MOL0     C91828  11.361   9.782  10.963  0.0182  0.1860 -0.1044
  666MOL0     O91829  11.475   9.858  10.939 -0.6220  0.3682  0.1795
  666MOL0     C91830  11.493   9.937  10.823 -0.6627  0.5623  0.5671
  666MOL0     C91831  11.614   9.897  10.743  0.2184  0.1169 -0.4849
  666MOL0     C91832  11.623   9.747  10.698 -0.2499  0.1971  0.0254
  666MOL0     C91833  11.749   9.700  10.621  0.3017 -0.3135 -0.3077
  666MOL0     C91834  11.872   9.729  10.690  0.0585  0.6651 -0.5549
  666MOL0     C91835  11.980   9.754  10.734 -0.1317 -0.1129 -0.1150
  666MOL0     C91836  11.248   9.791  10.896  0.6375  0.3368  0.3656
  666MOL0     C91837  11.145   9.699  10.928 -0.0273  1.0209  0.3770
  666MOL0     C91838  11.021   9.690  10.835  0.0525 -0.0744 -0.0938
  666MOL0     H91839  10.959   9.254  11.069  2.0831 -2.5466  0.6224
  666MOL0     H91840  10.793   9.094  11.185  0.2518  0.2484 -0.9289
  666MOL0     H91841  10.622   9.007  11.295 -0.4184  1.6498 -0.8178
  666MOL0     H91842  10.591   9.152  11.385  0.5113  0.4107 -1.6659
  666MOL0     H91843  10.531   9.053  11.585  0.5785  1.0105 -1.2399
  666MOL0     H91844  10.452   8.958  11.456 -0.1607 -0.2527 -0.5003
  666MOL0     H91845  10.671   8.808  11.472 -0.4276 -1.1755 -0.8652
  666MOL0     H91846  10.657   8.876  11.640 -0.2937  1.8620  0.0345
  666MOL0     H91847  10.423   8.780  11.650 -1.6991 -1.6679  0.0677
  666MOL0     H91848  10.426   8.727  11.483 -0.1690  1.1032 -0.2728
  666MOL0     H91849  10.651   8.651  11.657 -0.4290  1.0449 -0.2449
  666MOL0     H91850  10.617   8.578  11.504  0.0092 -1.1078 -0.2337
  666MOL0     H91851  10.446   8.524  11.735 -0.4739  1.5425 -1.0933
  666MOL0     H91852  10.414   8.468  11.561 -1.5873 -0.6345  1.5086
  666MOL0     H91853  10.645   8.395  11.750 -1.1485  3.7432 -0.1808
  666MOL0     H91854  10.655   8.370  11.579  0.7857 -5.7177  0.6109
  666MOL0     H91855  10.576   8.168  11.735  3.1994  3.1841 -1.5627
  666MOL0     H91856  10.440   8.269  11.769  1.3803 -1.7795  1.1704
  666MOL0     H91857  10.619   8.145  11.434 -0.4534 -1.4201 -0.9773
  666MOL0     H91858  10.495   8.173  11.199  0.1892  1.1038  1.9775
  666MOL0     H91859  10.331   8.100  11.184  0.5620  0.8103 -1.2448
  666MOL0     H91860  10.591   7.958  11.231 -1.1767 -1.6295  1.3762
  666MOL0     H91861  10.435   7.874  11.245 -2.2588  1.9403  0.5664
  666MOL0     H91862  10.373   7.918  11.022  0.4724 -3.0383  1.7890
  666MOL0     H91863  10.509   8.035  11.000  4.2912 -0.1383  0.6846
  666MOL0     H91864  10.523   7.729  10.985 -3.4111  0.6423  0.4699
  666MOL0     H91865  10.581   7.861  10.874 -0.7984  0.8841 -0.2241
  666MOL0     H91866  10.689   8.097  11.099 -2.9226 -2.2588 -1.4594
  666MOL0     H91867  10.909   8.315  11.140  0.1951  3.2368 -1.0135
  666MOL0     H91868  10.751   8.297  11.053  0.4299 -0.4533  2.7116
  666MOL0     H91869  10.880   8.371  10.974  1.6728 -0.8534 -1.7646
  666MOL0     H91870  11.229   8.274  10.611 -0.3245 -1.0714 -0.3118
  666MOL0     H91871  11.405   8.427  10.552 -1.6482  1.7436  1.2584
  666MOL0     H91872  11.654   8.500  10.528  0.8098 -0.2243 -0.6181
  666MOL0     H91873  11.550   8.629  10.565  0.3373 -0.3636 -1.9687
  666MOL0     H91874  11.755   8.734  10.539  0.6870  0.9896 -0.1536
  666MOL0     H91875  11.748   8.710  10.716  0.9554  0.9242 -0.1295
  666MOL0     H91876  11.892   8.492  10.682  1.2653  0.0217  0.0394
  666MOL0     H91877  11.976   8.644  10.670 -0.5075  1.7111 -0.2164
  666MOL0     H91878  11.940   8.629  10.439  0.4519 -0.5187  0.1551
  666MOL0     H91879  11.866   8.478  10.437 -0.4385  0.3675  0.1028
  666MOL0     H91880  12.091   8.463  10.361 -1.0262 -0.3800 -0.0152
  666MOL0     H91881  12.146   8.526  10.529  1.3067 -1.8870 -0.2240
  666MOL0     H91882  12.066   8.322  10.637 -0.1439 -1.8691  0.0049
  666MOL0     H91883  12.196   8.301  10.521  0.7507  0.7392  1.1308
  666MOL0     H91884  12.034   8.217  10.344  0.8079 -2.6537  0.2721
  666MOL0     H91885  11.900   8.250  10.459  0.8057 -1.4779  1.5392
  666MOL0     H91886  11.997   8.093  10.617 -3.2449  1.7620 -0.6103
  666MOL0     H91887  12.129   8.057  10.489  0.2612 -0.5333  0.0686
  666MOL0     H91888  11.580   8.337  10.935  0.9779  0.3473 -0.5321
  666MOL0     H91889  11.402   8.174  10.984  2.3797  0.1206  0.9104
  666MOL0     H91890  11.069   7.924  10.828 -1.7673 -0.0559 -2.0281
  666MOL0     H91891  10.893   7.763  10.911  1.2072  0.5207 -1.0787
  666MOL0     H91892  10.904   9.265  11.565  2.9015  3.9457  0.3156
  666MOL0     H91893  11.062   9.410  11.453 -2.3706  1.4114 -0.3532
  666MOL0     H91894  11.302   9.540  11.196 -0.8254 -0.1403 -0.0957
  666MOL0     H91895  11.487   9.671  11.103  1.5639 -0.8336 -2.6762
  666MOL0     H91896  11.413   9.930  10.749 -0.8083 -3.1350  0.8753
  666MOL0     H91897  11.510  10.041  10.851 -1.5060  1.4476 -1.9401
  666MOL0     H91898  11.701   9.919  10.805  2.8838 -2.8561 -2.8268
  666MOL0     H91899  11.624   9.967  10.659  0.0680 -2.4217 -2.7743
  666MOL0     H91900  11.617   9.697  10.795  3.0032  0.8037  0.6770
  666MOL0     H91901  11.539   9.715  10.636 -0.9769  0.4032  0.8756
  666MOL0     H91902  11.753   9.735  10.517  0.0174  1.2545  0.1788
  666MOL0     H91903  11.741   9.591  10.614  1.4259 -0.4908  0.8026
  666MOL0     H91904  12.071   9.781  10.784 -0.6651 -1.3969  1.6732
  666MOL0     H91905  11.233   9.866  10.819 -1.2793 -2.5105 -2.2811
  666MOL0     H91906  11.019   9.590  10.791  0.4868 -0.3223  0.4306
  666MOL0     H91907  10.930   9.703  10.895 -1.2810  0.4024 -2.1433
  666MOL0     H91908  11.023   9.769  10.760 -2.5626  0.8778  0.7268
  667MOL0     O91909   0.120   7.570   0.689  0.2640  0.7082  0.1641
  667MOL0     C91910   0.058   7.473   0.709 -0.5146  1.3547 -1.0891
  667MOL0     O91911   0.043   7.372   0.619  0.8971  0.8592  0.0349
  667MOL0     C91912   0.107   7.351   0.502  0.3091  0.2361 -0.0737
  667MOL0     C91913   0.054   7.405   0.383 -0.4387 -0.0081 -0.0815
  667MOL0     C91914   0.106   7.372   0.262 -0.1384 -1.4663  0.2977
  667MOL0     C91915   0.204   7.281   0.249 -0.8764  1.1164  0.7930
  667MOL0     O91916   0.252   7.238   0.124 -0.6484 -0.4551 -0.3383
  667MOL0     C91917   0.242   7.317   0.002  0.4062 -0.3958 -0.6209
  667MOL0     C91918   0.315   7.461   0.001  0.3478  0.0269 -0.8032
  667MOL0     C91919   0.456   7.466  -0.065  0.1549  1.1122 -0.4846
  667MOL0     C91920   0.464   7.421  -0.211 -0.0560  1.0467  0.0076
  667MOL0     C91921   0.612   7.431  -0.274  0.2642 -0.1735 -0.3901
  667MOL0     C91922   0.657   7.579  -0.293 -0.2256 -0.0944 -0.1430
  667MOL0     C91923   0.794   7.578  -0.353  0.1193 -0.4971 -0.1371
  667MOL0     C91924   0.893   7.589  -0.236  0.0655  0.7054  0.3141
  667MOL0     N91925   1.027   7.583  -0.278  0.8521 -0.4779  0.8161
  667MOL0     C91926   1.065   7.655  -0.389  0.0199 -0.2962  0.3931
  667MOL0     C91927   1.196   7.627  -0.407 -0.1881  0.2929  0.5405
  667MOL0     C91928   1.284   7.670  -0.526 -0.2685  0.6487 -0.3341
  667MOL0     C91929   1.339   7.809  -0.518  1.0317 -0.9333 -0.1216
  667MOL0     C91930   1.358   7.864  -0.377 -0.1645  0.0112  0.6008
  667MOL0     C91931   1.434   8.000  -0.396  0.9351 -0.2288  0.1702
  667MOL0     O91932   1.335   8.096  -0.435 -0.2127  0.8179 -0.0670
  667MOL0     C91933   1.363   8.236  -0.440  0.5000  0.7898  0.3708
  667MOL0     C91934   1.461   8.291  -0.370 -0.4422 -0.2541 -0.3914
  667MOL0     C91935   1.476   8.427  -0.369 -0.2354 -0.0968 -0.3086
  667MOL0     C91936   1.600   8.486  -0.301  0.4913  0.4485 -0.4131
  667MOL0     C91937   1.381   8.515  -0.435 -0.1834 -0.1929 -0.0136
  667MOL0     C91938   1.406   8.669  -0.433  0.7685  0.1749 -0.4494
  667MOL0     O91939   1.508   8.729  -0.496  0.2160 -0.0261 -0.0949
  667MOL0     C91940   1.530   8.864  -0.473  1.1192 -0.4885 -0.3981
  667MOL0     C91941   1.502   8.963  -0.578  0.3695  0.2014 -0.5817
  667MOL0     C91942   1.534   9.092  -0.563  0.0812 -0.5666  0.3669
  667MOL0     C91943   1.590   9.131  -0.438 -0.2947 -0.1269  0.1109
  667MOL0     O91944   1.620   9.264  -0.431  0.4597 -1.0431 -0.0361
  667MOL0     C91945   1.500   9.344  -0.419  0.3681 -0.2034 -0.9980
  667MOL0     C91946   1.514   9.486  -0.488 -1.2320  0.7462 -0.9789
  667MOL0     C91947   1.380   9.555  -0.511  0.2857  0.3444  0.4641
  667MOL0     C91948   1.392   9.680  -0.599  0.4783 -0.0068 -0.7013
  667MOL0     C91949   1.262   9.765  -0.586  0.0560  0.2929 -0.1978
  667MOL0     C91950   1.153   9.703  -0.675 -0.6019  0.2734 -0.3356
  667MOL0     C91951   1.026   9.796  -0.679  0.6018 -0.1581  0.3576
  667MOL0     C91952   0.929   9.776  -0.561  0.2395  0.7390  0.1161
  667MOL0    Cl91953   0.828   9.635  -0.569 -0.0096  0.7096  0.0643
  667MOL0     C91954   1.612   9.042  -0.329 -0.2860 -0.0758 -0.0828
  667MOL0     C91955   1.586   8.905  -0.354 -0.1718 -0.5013  0.0540
  667MOL0     O91956   1.314   8.720  -0.363  0.7048  0.0141  0.3907
  667MOL0     C91957   1.279   8.451  -0.509  0.0398  0.4380 -0.2953
  667MOL0     C91958   1.271   8.311  -0.509 -0.4468 -0.1942  0.9019
  667MOL0     N91959   1.234   7.537  -0.307  0.8186 -0.1645  0.2849
  667MOL0     N91960   1.133   7.525  -0.225 -0.0694  0.7079 -0.1416
  667MOL0     C91961   0.259   7.232   0.365 -0.0482  0.2119  0.8430
  667MOL0     C91962   0.210   7.264   0.487 -0.7605  0.1640 -0.3437
  667MOL0     C91963  -0.014   7.470   0.837 -1.2058 -0.1853 -0.2110
  667MOL0     C91964  -0.035   7.598   0.904  0.0870 -0.0244 -0.1406
  667MOL0     C91965  -0.096   7.614   1.019  0.8756 -0.0500 -1.1159
  667MOL0     C91966  -0.135   7.502   1.087 -0.8729 -0.7879 -1.1991
  667MOL0     O91967  -0.186   7.501   1.216  0.3128 -0.1956  0.2470
  667MOL0     C91968  -0.169   7.623   1.299 -0.0610 -0.3707  0.2374
  667MOL0     C91969  -0.173   7.575   1.442  0.2122  0.1674 -0.1254
  667MOL0     C91970  -0.321   7.553   1.500 -1.0854  0.9170 -0.5947
  667MOL0     C91971  -0.314   7.531   1.642 -0.4363  0.4843 -0.0787
  667MOL0     C91972  -0.267   7.398   1.690  0.5289 -0.2682 -0.1930
  667MOL0     C91973  -0.252   7.281   1.724 -0.0246 -0.3681 -0.7349
  667MOL0     C91974  -0.126   7.375   1.030 -0.3311  0.0878 -0.6493
  667MOL0     C91975  -0.065   7.358   0.905 -0.1699 -0.6169  0.1611
  667MOL0     C91976  -0.059   7.222   0.843 -0.9018 -0.3826  0.0862
  667MOL0     H91977  -0.027   7.475   0.401  0.4367  0.9464  0.2958
  667MOL0     H91978   0.054   7.414   0.176  1.9100  0.4808 -0.0987
  667MOL0     H91979   0.138   7.331  -0.026 -0.1449 -2.8892 -0.1304
  667MOL0     H91980   0.280   7.264  -0.086 -0.3348  0.2608 -1.3480
  667MOL0     H91981   0.249   7.533  -0.048 -1.0561 -0.7976 -0.2074
  667MOL0     H91982   0.329   7.488   0.106  0.1840 -3.2676  0.1675
  667MOL0     H91983   0.497   7.567  -0.054  1.4498  0.4031  1.8211
  667MOL0     H91984   0.515   7.398  -0.004 -0.5236  0.0193 -1.0128
  667MOL0     H91985   0.420   7.321  -0.217 -3.8885  2.6350 -3.1425
  667MOL0     H91986   0.397   7.490  -0.264  0.9622  1.3465 -0.9252
  667MOL0     H91987   0.613   7.385  -0.373 -0.6944 -1.1558  0.0420
  667MOL0     H91988   0.685   7.373  -0.217 -0.6848 -1.8859 -0.8811
  667MOL0     H91989   0.584   7.638  -0.350 -0.0742  0.2456  0.0073
  667MOL0     H91990   0.666   7.626  -0.194 -0.6295  0.0930 -0.1929
  667MOL0     H91991   0.796   7.659  -0.426  0.1837 -0.7683 -0.4372
  667MOL0     H91992   0.807   7.484  -0.408 -1.1417  0.1671 -1.6350
  667MOL0     H91993   0.891   7.683  -0.181 -0.3458  1.0271 -0.2332
  667MOL0     H91994   0.865   7.513  -0.163 -2.1267  2.9194  1.9228
  667MOL0     H91995   1.015   7.734  -0.443  2.6521  0.3030 -1.4042
  667MOL0     H91996   1.229   7.649  -0.619  0.3998 -1.4003 -0.3198
  667MOL0     H91997   1.368   7.600  -0.517 -0.9476 -0.0391  0.8668
  667MOL0     H91998   1.433   7.819  -0.573 -0.7673  0.9716 -3.1812
  667MOL0     H91999   1.265   7.870  -0.570  1.1998 -0.6344 -0.0069
  667MOL0     H92000   1.261   7.867  -0.327 -0.8925  0.3315 -0.7745
  667MOL0     H92001   1.425   7.807  -0.311  0.2906  1.3435  1.3123
  667MOL0     H92002   1.470   8.021  -0.295 -2.8754 -0.0240  1.6672
  667MOL0     H92003   1.523   8.001  -0.459  1.0187  0.8529  0.2968
  667MOL0     H92004   1.527   8.232  -0.307  0.0497  0.9598  0.2639
  667MOL0     H92005   1.677   8.483  -0.380  0.8089 -0.4619 -0.0879
  667MOL0     H92006   1.640   8.431  -0.215  1.7756  1.4706 -0.3204
  667MOL0     H92007   1.592   8.590  -0.267  2.5576  0.7867 -0.8011
  667MOL0     H92008   1.454   8.915  -0.663  0.9033 -1.4061 -0.0172
  667MOL0     H92009   1.511   9.162  -0.643 -0.0737 -0.4826  0.4854
  667MOL0     H92010   1.411   9.291  -0.457 -1.7915  1.9844  0.6959
  667MOL0     H92011   1.483   9.360  -0.312 -2.6087  0.1375 -1.4086
  667MOL0     H92012   1.574   9.552  -0.424  0.8976 -0.9843 -1.0692
  667MOL0     H92013   1.569   9.475  -0.582  0.6437  1.8529 -0.0774
  667MOL0     H92014   1.352   9.589  -0.411  1.9030  1.4927  0.5600
  667MOL0     H92015   1.313   9.480  -0.557  0.2461  0.4800  0.2995
  667MOL0     H92016   1.401   9.659  -0.706 -0.5371  0.2555 -0.8515
  667MOL0     H92017   1.476   9.739  -0.563  0.2195 -0.7797  1.3364
  667MOL0     H92018   1.220   9.763  -0.486  2.5732 -0.7529  0.9323
  667MOL0     H92019   1.289   9.865  -0.621  2.3013  0.3769  1.5495
  667MOL0     H92020   1.129   9.607  -0.628  0.7800 -0.5274 -1.2133
  667MOL0     H92021   1.185   9.682  -0.777 -2.6975  1.0420 -1.2103
  667MOL0     H92022   0.967   9.769  -0.767  0.0047 -0.0500  0.7156
  667MOL0     H92023   1.035   9.904  -0.685  1.3159 -0.1867  0.7828
  667MOL0     H92024   0.868   9.867  -0.564  0.4228  0.9377  1.7535
  667MOL0     H92025   0.980   9.772  -0.465 -1.7596 -5.1594  1.2893
  667MOL0     H92026   1.654   9.066  -0.232 -1.3383 -0.8279  0.5860
  667MOL0     H92027   1.616   8.844  -0.269  1.6497 -1.2876 -1.0710
  667MOL0     H92028   1.202   8.499  -0.570 -0.1733  1.1781  0.5300
  667MOL0     H92029   1.190   8.254  -0.553  3.1675 -3.9408 -1.6139
  667MOL0     H92030   0.344   7.164   0.358 -0.9981 -0.8479 -1.3639
  667MOL0     H92031   0.252   7.214   0.574 -0.8549  0.6796  0.0032
  667MOL0     H92032   0.008   7.687   0.860 -1.6834  0.3830 -1.1428
  667MOL0     H92033  -0.104   7.713   1.064  1.5213 -0.0183 -1.0633
  667MOL0     H92034  -0.077   7.673   1.269 -0.3100 -0.7167 -1.2113
  667MOL0     H92035  -0.253   7.690   1.280  0.5872  0.2310 -0.5966
  667MOL0     H92036  -0.109   7.647   1.494  3.9517 -1.8664 -1.5785
  667MOL0     H92037  -0.125   7.477   1.449 -1.0599 -0.3479  3.6759
  667MOL0     H92038  -0.385   7.639   1.476 -0.5965  0.4641 -4.1570
  667MOL0     H92039  -0.362   7.463   1.455  0.8930 -0.9918  1.1743
  667MOL0     H92040  -0.413   7.544   1.685  0.3576 -0.9788  2.3917
  667MOL0     H92041  -0.248   7.607   1.685 -1.7559  1.3648  0.4481
  667MOL0     H92042  -0.233   7.179   1.749  1.1192 -0.1279 -0.5743
  667MOL0     H92043  -0.164   7.290   1.086 -0.1766  0.5088  0.0982
  667MOL0     H92044  -0.126   7.228   0.757 -0.5969  2.6345 -0.0553
  667MOL0     H92045   0.041   7.196   0.807 -0.5898 -0.3791  0.9219
  667MOL0     H92046  -0.092   7.139   0.906  2.0361 -3.0295 -1.6168
  668MOL0     O92047   4.411   7.551   5.606 -0.0485  0.2012  0.1294
  668MOL0     C92048   4.454   7.528   5.715 -0.5303  0.0369 -0.8160
  668MOL0     O92049   4.560   7.446   5.742  0.5045  0.3173 -0.3314
  668MOL0     C92050   4.649   7.422   5.650 -0.4174 -0.3777 -0.5393
  668MOL0     C92051   4.636   7.315   5.562 -0.1735  1.1471 -0.1353
  668MOL0     C92052   4.746   7.290   5.470 -0.5513 -0.6346 -0.1669
  668MOL0     C92053   4.844   7.384   5.450  0.0586 -0.1098 -0.7287
  668MOL0     O92054   4.924   7.382   5.344 -0.5988 -0.0981 -0.1613
  668MOL0     C92055   5.059   7.356   5.399 -0.0503  0.1553  0.7263
  668MOL0     C92056   5.144   7.312   5.286  0.6435 -0.4888 -0.5521
  668MOL0     C92057   5.233   7.421   5.212  0.8459  0.0318 -0.3592
  668MOL0     C92058   5.308   7.364   5.087 -0.4631 -0.0719  1.0230
  668MOL0     C92059   5.266   7.438   4.965 -0.1071  0.1447 -0.8573
  668MOL0     C92060   5.313   7.366   4.839  0.1736  0.3636 -0.1661
  668MOL0     C92061   5.295   7.456   4.722 -0.5834  0.0323 -0.4951
  668MOL0     C92062   5.322   7.392   4.596  0.3488  0.6811 -0.3087
  668MOL0     N92063   5.341   7.479   4.479 -0.2907  0.7645 -0.2048
  668MOL0     C92064   5.393   7.607   4.471 -0.1811  0.2627 -0.2558
  668MOL0     C92065   5.362   7.653   4.341  0.7410  1.2526  0.1101
  668MOL0     C92066   5.387   7.790   4.285 -0.5315  0.3258  0.2444
  668MOL0     C92067   5.368   7.901   4.399  0.2797  0.3573  0.1710
  668MOL0     C92068   5.501   7.958   4.455  0.7543 -0.5444  0.4247
  668MOL0     C92069   5.507   8.049   4.584  0.5513  0.7993 -0.3369
  668MOL0     O92070   5.429   7.990   4.684 -0.5097  0.8711  0.3045
  668MOL0     C92071   5.494   7.914   4.775 -0.2458 -0.2763  0.3225
  668MOL0     C92072   5.419   7.881   4.880  0.0951 -0.2802 -0.2179
  668MOL0     C92073   5.463   7.794   4.986 -0.0139  0.1775 -1.0510
  668MOL0     C92074   5.379   7.775   5.113  0.1269 -0.7043  0.0932
  668MOL0     C92075   5.602   7.749   4.986 -0.0317  0.4595  0.4016
  668MOL0     C92076   5.671   7.671   5.092  0.1471  0.4769  0.6208
  668MOL0     O92077   5.783   7.728   5.136 -0.1013 -0.0521 -0.1398
  668MOL0     C92078   5.879   7.659   5.214  0.1080 -0.2397  0.3782
  668MOL0     C92079   5.839   7.566   5.320 -1.1068 -0.5500  1.2499
  668MOL0     C92080   5.938   7.515   5.401  0.3876 -0.1691 -0.8414
  668MOL0     C92081   6.076   7.534   5.373 -0.5042 -0.3582  0.6379
  668MOL0     O92082   6.177   7.477   5.447 -0.2771  0.4852 -0.5909
  668MOL0     C92083   6.153   7.335   5.471 -0.1497 -0.2154 -0.2986
  668MOL0     C92084   6.271   7.243   5.516 -0.0997  1.2061 -0.3889
  668MOL0     C92085   6.233   7.091   5.521 -0.3719  0.1374  0.1425
  668MOL0     C92086   6.327   7.010   5.608  0.4690  0.0927  0.2896
  668MOL0     C92087   6.293   7.028   5.761  0.5043 -0.0820  0.7346
  668MOL0     C92088   6.323   6.897   5.832  0.4631 -0.4507 -0.5159
  668MOL0     C92089   6.282   6.904   5.976  0.7374 -0.0203 -0.1208
  668MOL0     C92090   6.356   6.801   6.062 -0.9724  0.0126  1.0705
  668MOL0    Cl92091   6.398   6.659   5.959  0.2442  0.0649  0.1855
  668MOL0     C92092   6.112   7.624   5.276  1.0255 -0.3091 -0.2446
  668MOL0     C92093   6.011   7.685   5.196 -0.2522 -0.1764  0.2473
  668MOL0     O92094   5.637   7.555   5.104  0.1697 -0.5084  0.1819
  668MOL0     C92095   5.688   7.785   4.875 -0.4452 -0.6713 -0.3749
  668MOL0     C92096   5.633   7.866   4.773 -0.8720  0.0482  0.4604
  668MOL0     N92097   5.312   7.541   4.275 -0.4468  0.1858  0.3746
  668MOL0     N92098   5.298   7.446   4.352 -0.7291  0.0654  0.7043
  668MOL0     C92099   4.847   7.501   5.531 -0.3080  0.2158 -0.2604
  668MOL0     C92100   4.756   7.518   5.632  0.0419 -0.7774 -0.1082
  668MOL0     C92101   4.366   7.560   5.836 -0.4255  0.1959  0.1548
  668MOL0     C92102   4.391   7.487   5.954 -0.3551  0.2950  0.3723
  668MOL0     C92103   4.314   7.507   6.067 -1.2819  0.5104  0.2976
  668MOL0     C92104   4.207   7.595   6.063  0.8510  0.6208 -0.4721
  668MOL0     O92105   4.128   7.616   6.174  0.2999 -0.0421  0.0221
  668MOL0     C92106   4.123   7.515   6.267  0.6813  0.3774 -0.6698
  668MOL0     C92107   4.012   7.552   6.359  0.5565 -0.1185 -0.1521
  668MOL0     C92108   3.989   7.438   6.466 -0.3309 -0.1259 -0.6119
  668MOL0     C92109   3.870   7.481   6.559  0.4435  0.1211 -0.3868
  668MOL0     C92110   3.769   7.371   6.587  0.5615 -0.7675  0.4658
  668MOL0     C92111   3.710   7.269   6.610  0.2369  0.2461 -0.1484
  668MOL0     C92112   4.180   7.677   5.957  0.3364  0.2627  0.8396
  668MOL0     C92113   4.253   7.657   5.830 -1.0154  0.0918  0.1559
  668MOL0     C92114   4.233   7.759   5.719  0.9135 -0.0092 -0.0423
  668MOL0     H92115   4.569   7.231   5.569  0.2279  0.7810 -0.6281
  668MOL0     H92116   4.759   7.204   5.405  3.1531  2.0643 -3.4867
  668MOL0     H92117   5.058   7.274   5.473  2.4405 -1.6353 -1.0465
  668MOL0     H92118   5.113   7.431   5.456 -2.4680  1.6053  1.2559
  668MOL0     H92119   5.224   7.252   5.330  1.4695  1.2302  0.3647
  668MOL0     H92120   5.091   7.257   5.208 -0.7745  1.3252 -0.9348
  668MOL0     H92121   5.158   7.496   5.185 -1.8926 -1.6220  2.1207
  668MOL0     H92122   5.301   7.470   5.282 -1.8420  4.2580 -0.3141
  668MOL0     H92123   5.416   7.373   5.104 -0.2865 -2.3689  1.4946
  668MOL0     H92124   5.278   7.260   5.072 -0.2816  0.3594 -4.0031
  668MOL0     H92125   5.305   7.540   4.959 -2.4049  1.4239  2.8176
  668MOL0     H92126   5.157   7.449   4.969  0.0108  2.0014 -1.7108
  668MOL0     H92127   5.416   7.338   4.865 -0.3561 -0.4425  1.2073
  668MOL0     H92128   5.254   7.276   4.820 -0.2122  0.0036  2.3224
  668MOL0     H92129   5.380   7.524   4.731  0.3991 -0.8454 -2.6617
  668MOL0     H92130   5.194   7.499   4.720 -0.8587 -0.4011  1.7255
  668MOL0     H92131   5.417   7.338   4.604 -0.7863 -1.4276 -0.3555
  668MOL0     H92132   5.242   7.320   4.576  0.0879  1.0523 -0.6231
  668MOL0     H92133   5.420   7.664   4.559 -0.4247  0.4318 -0.2889
  668MOL0     H92134   5.321   7.812   4.200 -1.0112 -0.7227  0.3279
  668MOL0     H92135   5.485   7.786   4.237 -0.9160 -2.5055 -0.5286
  668MOL0     H92136   5.299   7.982   4.374 -0.8166 -0.2102  1.2497
  668MOL0     H92137   5.317   7.850   4.482 -0.0106  0.4490  0.0505
  668MOL0     H92138   5.567   7.872   4.464  1.3648 -0.3551 -1.6944
  668MOL0     H92139   5.543   8.018   4.374 -1.4059  0.0155 -0.3646
  668MOL0     H92140   5.609   8.074   4.615  1.1971 -0.4815 -1.3187
  668MOL0     H92141   5.468   8.147   4.555  1.9461  1.0586 -1.4506
  668MOL0     H92142   5.311   7.894   4.884  0.0778 -0.5375  0.2404
  668MOL0     H92143   5.446   7.777   5.199  2.7175 -2.8075 -1.6976
  668MOL0     H92144   5.332   7.676   5.115 -0.7437 -0.3030  0.0541
  668MOL0     H92145   5.301   7.850   5.127  2.2493  1.9489 -1.3172
  668MOL0     H92146   5.733   7.546   5.335 -1.3604 -0.8510 -0.7100
  668MOL0     H92147   5.913   7.452   5.485  2.8899  0.7405  0.6758
  668MOL0     H92148   6.087   7.325   5.558  2.7645 -2.6412  1.9060
  668MOL0     H92149   6.098   7.294   5.386 -0.5442  1.5581 -0.9262
  668MOL0     H92150   6.364   7.248   5.459  1.9936 -4.1013  1.8621
  668MOL0     H92151   6.309   7.280   5.612 -1.0068  1.2062 -0.0195
  668MOL0     H92152   6.255   7.055   5.420  2.2813 -1.7677  1.3086
  668MOL0     H92153   6.128   7.068   5.545 -0.2483  0.1269  0.6769
  668MOL0     H92154   6.424   7.056   5.586  1.9411 -3.3224 -0.9865
  668MOL0     H92155   6.338   6.904   5.583  3.7335  0.5225 -0.6804
  668MOL0     H92156   6.351   7.113   5.798  1.0284  0.6005 -1.4725
  668MOL0     H92157   6.186   7.050   5.765  0.5130 -0.2265  2.5769
  668MOL0     H92158   6.429   6.873   5.822  0.0006 -2.8752 -0.3412
  668MOL0     H92159   6.260   6.821   5.784 -0.5747  0.4659 -0.6360
  668MOL0     H92160   6.177   6.875   5.984  0.8883 -0.0566  2.6594
  668MOL0     H92161   6.293   7.005   6.017  3.1496  0.0838 -0.9022
  668MOL0     H92162   6.297   6.771   6.149  1.5807  1.2536  3.3950
  668MOL0     H92163   6.445   6.846   6.110 -0.1956 -1.4379  1.0436
  668MOL0     H92164   6.218   7.643   5.261  1.8883 -4.0346  0.1245
  668MOL0     H92165   6.045   7.750   5.116  0.8211 -0.6433  0.3086
  668MOL0     H92166   5.784   7.736   4.875 -0.2825 -0.3625 -0.9123
  668MOL0     H92167   5.699   7.885   4.689  0.2069 -2.8210  0.5146
  668MOL0     H92168   4.922   7.578   5.513 -1.9251  1.4585 -2.1918
  668MOL0     H92169   4.770   7.610   5.689  0.7037  0.6396 -2.3992
  668MOL0     H92170   4.473   7.415   5.963  0.7310  1.2017 -1.5661
  668MOL0     H92171   4.345   7.437   6.144 -0.4660 -0.1023 -0.5545
  668MOL0     H92172   4.091   7.423   6.217 -0.1828 -0.7774  1.8291
  668MOL0     H92173   4.216   7.505   6.323 -0.3344 -2.2672  0.7462
  668MOL0     H92174   3.929   7.574   6.292  1.6087  1.5093 -0.9977
  668MOL0     H92175   4.023   7.648   6.410 -1.5901 -1.0207  2.1766
  668MOL0     H92176   3.957   7.349   6.411 -0.0725  0.3843 -1.6035
  668MOL0     H92177   4.083   7.419   6.519  2.8643 -1.8912 -6.1342
  668MOL0     H92178   3.811   7.548   6.495 -0.9851  1.2677  1.9540
  668MOL0     H92179   3.902   7.535   6.650 -1.3453  0.3756  0.1368
  668MOL0     H92180   3.664   7.181   6.650 -3.2812 -0.9822 -5.8097
  668MOL0     H92181   4.094   7.743   5.971  1.4674  1.3962  3.1077
  668MOL0     H92182   4.324   7.808   5.682  0.1374  1.0317 -0.6545
  668MOL0     H92183   4.190   7.708   5.633  1.2249  0.0498 -0.2352
  668MOL0     H92184   4.177   7.841   5.765  1.6013 -0.2689  1.2860
  669MOL0     O92185   3.830  10.031   8.146 -0.2605  0.5852  0.2314
  669MOL0     C92186   3.811   9.911   8.170 -0.5449  0.3776 -0.1643
  669MOL0     O92187   3.916   9.821   8.172  0.0997 -0.2987 -0.1975
  669MOL0     C92188   4.047   9.868   8.151 -0.8840 -0.3092  0.7343
  669MOL0     C92189   4.076   9.952   8.039  0.9714 -0.1019  0.0393
  669MOL0     C92190   4.211   9.995   8.022 -0.7594  0.4141  0.0189
  669MOL0     C92191   4.317   9.962   8.109  0.1682  0.0342 -0.1629
  669MOL0     O92192   4.445  10.009   8.099 -0.1490 -0.9080 -0.2964
  669MOL0     C92193   4.462  10.146   8.045  0.5853 -0.1353  0.3477
  669MOL0     C92194   4.612  10.167   8.030  0.1487  0.4293  0.0041
  669MOL0     C92195   4.686  10.203   8.163 -0.5661 -0.2339  0.0761
  669MOL0     C92196   4.828  10.195   8.123 -0.1206 -1.0779  0.3627
  669MOL0     C92197   4.923  10.223   8.243  0.2955 -0.6142 -0.2204
  669MOL0     C92198   5.072  10.223   8.190 -0.0511 -0.0979  0.1121
  669MOL0     C92199   5.172  10.328   8.261  0.2813  0.9602  0.9350
  669MOL0     C92200   5.305  10.323   8.174 -0.4068 -0.5462  0.0101
  669MOL0     N92201   5.410  10.404   8.252 -0.1456 -0.3663  0.1017
  669MOL0     C92202   5.462  10.524   8.214  0.1702 -0.2309  0.7465
  669MOL0     C92203   5.551  10.555   8.308  0.1145 -0.0454  0.0800
  669MOL0     C92204   5.630  10.683   8.320 -0.4968 -0.6789  0.3678
  669MOL0     C92205   5.556  10.806   8.369  0.3551 -0.0583 -0.1439
  669MOL0     C92206   5.638  10.935   8.400  0.3529 -0.3390  0.0350
  669MOL0     C92207   5.736  10.972   8.288 -0.4490  0.1244 -0.4518
  669MOL0     O92208   5.671  10.981   8.167  0.5300  0.4420  0.5062
  669MOL0     C92209   5.621  11.102   8.139 -0.8596 -0.3321  0.5537
  669MOL0     C92210   5.541  11.099   8.025  0.1473  0.4211 -0.3972
  669MOL0     C92211   5.489  11.224   7.967  0.1400 -0.0442 -0.6277
  669MOL0     C92212   5.421  11.214   7.836  0.4435 -0.0518 -0.6648
  669MOL0     C92213   5.529  11.347   8.025 -0.3056  1.5874  0.8602
  669MOL0     C92214   5.477  11.471   7.969 -0.6290  0.0903  0.8548
  669MOL0     O92215   5.360  11.472   7.908 -0.2079  0.2983  0.2877
  669MOL0     C92216   5.321  11.593   7.864 -1.0035 -0.2397  0.5066
  669MOL0     C92217   5.274  11.701   7.944 -0.1874 -1.2610 -0.2282
  669MOL0     C92218   5.259  11.829   7.898 -0.8770 -0.3801 -0.2910
  669MOL0     C92219   5.289  11.855   7.763 -0.9253  0.2144  0.3665
  669MOL0     O92220   5.289  11.978   7.698  0.2850  0.3087 -0.5403
  669MOL0     C92221   5.336  12.087   7.779 -0.8666 -0.8493 -0.2488
  669MOL0     C92222   5.408  12.199   7.694  0.4889 -0.3331 -0.6174
  669MOL0     C92223   5.321  12.262   7.578 -0.3290  0.8077 -0.4466
  669MOL0     C92224   5.345  12.177   7.452 -1.0126 -0.1921  0.1285
  669MOL0     C92225   5.302  12.250   7.326  0.1183 -0.0874 -0.1505
  669MOL0     C92226   5.154  12.245   7.300  1.0263 -0.5867  0.0458
  669MOL0     C92227   5.127  12.305   7.163  0.3393 -0.7715 -0.5098
  669MOL0     C92228   4.990  12.294   7.108  0.3755  0.7450 -0.4751
  669MOL0    Cl92229   4.867  12.358   7.218 -0.4509 -0.1014 -0.0779
  669MOL0     C92230   5.339  11.752   7.680 -0.0175 -0.1308  0.4264
  669MOL0     C92231   5.348  11.618   7.727 -0.2256 -0.2243  0.2703
  669MOL0     O92232   5.553  11.568   7.985  0.1678 -0.0151  0.2604
  669MOL0     C92233   5.609  11.353   8.139 -0.4899 -0.1074  0.2665
  669MOL0     C92234   5.648  11.233   8.202 -0.2563 -0.5758  0.6084
  669MOL0     N92235   5.547  10.464   8.409  0.0143  0.2387 -0.2217
  669MOL0     N92236   5.466  10.366   8.374  0.4654  0.4305  0.5104
  669MOL0     C92237   4.281   9.900   8.232 -0.4674 -0.1718 -0.5916
  669MOL0     C92238   4.149   9.847   8.244 -1.2662  0.1229 -1.2804
  669MOL0     C92239   3.676   9.865   8.194  0.3079 -0.4323  1.1873
  669MOL0     C92240   3.660   9.810   8.318 -0.1400 -0.1125  0.2813
  669MOL0     C92241   3.535   9.761   8.357  0.1158 -0.4684 -0.9369
  669MOL0     C92242   3.428   9.763   8.273 -0.2184 -0.2258 -0.2946
  669MOL0     O92243   3.301   9.715   8.296  0.4856 -0.6485  0.2008
  669MOL0     C92244   3.278   9.631   8.407 -0.3513 -0.1154 -0.9678
  669MOL0     C92245   3.349   9.495   8.378 -0.4152 -0.2393  0.1368
  669MOL0     C92246   3.348   9.391   8.501 -0.6439  0.0884  0.0368
  669MOL0     C92247   3.402   9.445   8.635  0.7191  0.4472 -0.1388
  669MOL0     C92248   3.539   9.496   8.629 -0.2735  0.3506 -0.1301
  669MOL0     C92249   3.654   9.546   8.628 -0.0083 -0.4498 -0.4405
  669MOL0     C92250   3.440   9.831   8.150  0.1108  0.7272  0.3058
  669MOL0     C92251   3.566   9.881   8.102 -0.3408  0.5184  0.4905
  669MOL0     C92252   3.583   9.945   7.965  0.7863 -1.0560  0.0084
  669MOL0     H92253   4.002   9.973   7.963 -0.6640  0.4244  1.7086
  669MOL0     H92254   4.221  10.060   7.936 -1.4083  0.6917  0.1461
  669MOL0     H92255   4.420  10.217   8.117 -0.7446 -1.4154  0.9079
  669MOL0     H92256   4.423  10.153   7.943  0.9413 -0.1808  0.2086
  669MOL0     H92257   4.649  10.073   7.986 -1.7663  0.3918 -1.6791
  669MOL0     H92258   4.614  10.247   7.956 -4.4215  0.9014  0.1002
  669MOL0     H92259   4.656  10.302   8.199 -2.3028 -0.4672 -0.6279
  669MOL0     H92260   4.670  10.127   8.239  0.1313 -2.0639 -1.5237
  669MOL0     H92261   4.852  10.097   8.081 -1.9502 -0.3477 -2.7274
  669MOL0     H92262   4.839  10.266   8.040 -5.2489 -0.5894 -0.2452
  669MOL0     H92263   4.927  10.146   8.320 -0.3187  0.0241  0.4618
  669MOL0     H92264   4.895  10.318   8.290  1.2752  1.1193 -2.8845
  669MOL0     H92265   5.106  10.120   8.201  1.5563  0.4937  0.9876
  669MOL0     H92266   5.082  10.242   8.082 -3.9611  0.7302 -0.2560
  669MOL0     H92267   5.186  10.306   8.367  0.4165  1.2624  0.9801
  669MOL0     H92268   5.137  10.429   8.239  2.1161  1.5496  0.5175
  669MOL0     H92269   5.336  10.220   8.152  2.9678  0.2367  0.5326
  669MOL0     H92270   5.301  10.373   8.077  2.2805  1.3162  0.7548
  669MOL0     H92271   5.432  10.587   8.131 -1.7914  0.9776  2.2975
  669MOL0     H92272   5.671  10.691   8.219 -2.3464  0.8538 -0.3225
  669MOL0     H92273   5.703  10.658   8.397  0.4598 -1.2760 -0.7084
  669MOL0     H92274   5.479  10.835   8.297 -0.3103  2.8596  1.5637
  669MOL0     H92275   5.512  10.773   8.463  1.7169 -1.7598 -0.0590
  669MOL0     H92276   5.577  11.024   8.417  1.2832  0.4164 -0.4842
  669MOL0     H92277   5.704  10.922   8.486  0.2128  1.2642  0.4097
  669MOL0     H92278   5.793  11.061   8.315  1.7956 -1.6087  0.9194
  669MOL0     H92279   5.813  10.897   8.266 -1.7009 -0.8700 -1.6642
  669MOL0     H92280   5.511  11.011   7.969 -3.1155  0.8655  0.4906
  669MOL0     H92281   5.315  11.228   7.854  0.1884 -2.4477  0.0966
  669MOL0     H92282   5.445  11.117   7.791 -1.0072  0.0250 -1.6798
  669MOL0     H92283   5.460  11.286   7.763 -2.3219 -0.4208 -2.6752
  669MOL0     H92284   5.255  11.683   8.049 -1.6312 -0.5363 -0.3364
  669MOL0     H92285   5.236  11.910   7.967 -1.6358 -1.2385  0.5016
  669MOL0     H92286   5.253  12.139   7.829  0.8066  0.5408  1.2210
  669MOL0     H92287   5.401  12.053   7.860  1.0241 -0.8536 -1.7049
  669MOL0     H92288   5.437  12.279   7.763 -0.7974  0.4274 -0.9200
  669MOL0     H92289   5.508  12.168   7.663  3.9350  6.4295  1.7418
  669MOL0     H92290   5.358  12.362   7.551  2.1852 -0.7549 -3.3874
  669MOL0     H92291   5.216  12.255   7.605  0.6359  2.4330  4.8637
  669MOL0     H92292   5.302  12.077   7.464  0.1089 -0.5626  1.2133
  669MOL0     H92293   5.453  12.176   7.439 -1.0304  3.3580 -1.6684
  669MOL0     H92294   5.318  12.358   7.334  0.3055 -0.1147 -0.1658
  669MOL0     H92295   5.360  12.204   7.245 -0.4726 -2.5723  0.7674
  669MOL0     H92296   5.087  12.296   7.371  1.1662 -1.1758  0.6042
  669MOL0     H92297   5.123  12.140   7.295 -3.2424  0.4664 -0.2506
  669MOL0     H92298   5.199  12.267   7.090 -0.9065 -0.1022 -2.1517
  669MOL0     H92299   5.153  12.411   7.172  0.8889 -0.8287 -1.3916
  669MOL0     H92300   4.963  12.191   7.083  1.3208  0.6836 -1.2936
  669MOL0     H92301   4.970  12.351   7.016 -1.9989  1.6898  0.5417
  669MOL0     H92302   5.353  11.779   7.575 -1.1264 -0.6895  0.1147
  669MOL0     H92303   5.387  11.541   7.662  2.1423  0.1931  1.0957
  669MOL0     H92304   5.633  11.450   8.181  0.8232 -1.5034  3.0502
  669MOL0     H92305   5.704  11.245   8.294  1.2404  2.4963 -0.5828
  669MOL0     H92306   4.354   9.899   8.313 -0.6737 -2.4173 -0.3718
  669MOL0     H92307   4.112   9.795   8.332 -2.6264 -0.8327 -2.3759
  669MOL0     H92308   3.749   9.794   8.379  1.5863  0.2567 -2.0126
  669MOL0     H92309   3.539   9.709   8.452  2.9734  3.2436  1.2421
  669MOL0     H92310   3.307   9.681   8.500  0.7740 -3.6629  0.7815
  669MOL0     H92311   3.171   9.616   8.420 -0.0724 -0.4246  1.6884
  669MOL0     H92312   3.451   9.516   8.345 -0.7847  0.2337 -0.7272
  669MOL0     H92313   3.296   9.460   8.289 -0.5587 -0.4534  0.3061
  669MOL0     H92314   3.252   9.342   8.514 -1.4940  1.7631  0.3784
  669MOL0     H92315   3.421   9.314   8.475 -2.2310 -0.9097 -1.6802
  669MOL0     H92316   3.388   9.367   8.710 -0.6913 -1.1493 -1.9437
  669MOL0     H92317   3.338   9.526   8.671 -0.6920 -0.1367 -1.2470
  669MOL0     H92318   3.749   9.593   8.636 -0.5369  0.3445  3.4431
  669MOL0     H92319   3.352   9.838   8.088  0.5709  2.8538 -0.2051
  669MOL0     H92320   3.677   9.998   7.944  0.2561 -0.8150 -1.9872
  669MOL0     H92321   3.570   9.871   7.886 -1.2998  0.4206 -1.1075
  669MOL0     H92322   3.508  10.022   7.943  1.4079 -0.2003  0.7642
  670MOL0     O92323   4.121   4.032   5.757  0.2239 -0.6597  0.1272
  670MOL0     C92324   4.175   4.068   5.652 -0.8217 -1.1839  0.5742
  670MOL0     O92325   4.121   4.082   5.527  0.0395  0.1117 -0.4568
  670MOL0     C92326   3.983   4.095   5.516 -0.8851 -0.3440  0.5528
  670MOL0     C92327   3.935   4.201   5.437  0.1672  0.2767  0.6612
  670MOL0     C92328   3.797   4.229   5.410 -0.3273  0.3839  0.2683
  670MOL0     C92329   3.704   4.144   5.473 -0.1860 -0.6600  0.3635
  670MOL0     O92330   3.567   4.135   5.441  0.4248  0.0047 -0.4263
  670MOL0     C92331   3.541   4.206   5.317 -0.5024 -0.5721 -0.7368
  670MOL0     C92332   3.401   4.181   5.275 -0.0713 -0.6152 -1.2030
  670MOL0     C92333   3.359   4.235   5.146  0.5364 -0.6328 -0.8693
  670MOL0     C92334   3.211   4.177   5.138 -0.8405  0.4501 -0.0518
  670MOL0     C92335   3.150   4.223   5.009  0.2496  0.3780  0.7401
  670MOL0     C92336   3.005   4.191   5.004  0.3346  0.2327 -0.1844
  670MOL0     C92337   2.944   4.203   4.862  0.4785 -0.1326 -0.2705
  670MOL0     C92338   2.893   4.343   4.826  0.2039 -0.6343  0.0617
  670MOL0     N92339   2.799   4.365   4.718 -1.2677  0.6233  0.3268
  670MOL0     C92340   2.713   4.270   4.661 -0.7967  0.0381  0.0708
  670MOL0     C92341   2.620   4.341   4.599 -0.0282  0.0893  0.4123
  670MOL0     C92342   2.483   4.296   4.552  0.2429  0.9606  0.0305
  670MOL0     C92343   2.472   4.147   4.509 -0.6143 -0.3480  0.7214
  670MOL0     C92344   2.516   4.120   4.359  0.2870  0.0663 -0.5281
  670MOL0     C92345   2.659   4.142   4.328 -0.1545  0.9911 -0.7642
  670MOL0     O92346   2.740   4.046   4.391  0.1240  0.7804 -0.6797
  670MOL0     C92347   2.870   4.057   4.369  0.0174 -0.3192  0.4348
  670MOL0     C92348   2.916   4.048   4.237  0.0581 -0.0837 -0.6802
  670MOL0     C92349   3.041   4.090   4.201  0.2331 -0.0819 -0.5824
  670MOL0     C92350   3.077   4.091   4.056 -0.1145 -0.2998  0.5522
  670MOL0     C92351   3.140   4.123   4.299  0.0787 -0.2449  0.4508
  670MOL0     C92352   3.285   4.149   4.270  0.3298  0.3401  0.0944
  670MOL0     O92353   3.340   4.233   4.353 -0.2868 -0.5895 -0.0625
  670MOL0     C92354   3.469   4.255   4.370  0.3112 -0.1983  0.4864
  670MOL0     C92355   3.514   4.385   4.413 -1.1577 -1.0988  0.1579
  670MOL0     C92356   3.646   4.408   4.443  0.3920  0.4925 -0.1647
  670MOL0     C92357   3.745   4.313   4.420  0.8151  0.6259  0.5488
  670MOL0     O92358   3.871   4.342   4.448 -0.2105 -0.2595 -0.4941
  670MOL0     C92359   3.944   4.241   4.526  0.2191  0.9638  0.0720
  670MOL0     C92360   4.051   4.301   4.611 -0.4503 -0.1612 -0.1345
  670MOL0     C92361   4.148   4.389   4.522 -0.0836  1.2592  0.1218
  670MOL0     C92362   4.266   4.435   4.606  0.2249  0.0041 -0.4059
  670MOL0     C92363   4.361   4.518   4.521  0.2436  0.6828 -0.1357
  670MOL0     C92364   4.393   4.452   4.379  0.7937 -0.5861  0.1659
  670MOL0     C92365   4.526   4.512   4.320 -0.0553  0.9244 -0.1696
  670MOL0     C92366   4.563   4.422   4.196 -0.2737 -0.1318 -0.4501
  670MOL0    Cl92367   4.711   4.500   4.133  0.1098 -0.0991 -0.3280
  670MOL0     C92368   3.706   4.187   4.360  0.3839  0.6883  0.2625
  670MOL0     C92369   3.567   4.158   4.340 -0.4458 -1.0627 -0.4216
  670MOL0     O92370   3.350   4.079   4.195 -0.2281  0.0309  0.5115
  670MOL0     C92371   3.098   4.119   4.434  0.1907  0.4141  0.0034
  670MOL0     C92372   2.963   4.092   4.463 -0.3932 -0.4548 -0.1704
  670MOL0     N92373   2.642   4.471   4.622 -0.2377 -0.6821 -0.0829
  670MOL0     N92374   2.742   4.485   4.689  0.0730 -0.3249 -0.7307
  670MOL0     C92375   3.749   4.053   5.570  0.1646  0.4114 -0.4382
  670MOL0     C92376   3.887   4.026   5.593 -0.2952 -0.5922  0.3856
  670MOL0     C92377   4.316   4.082   5.648 -0.0261  0.3112  0.2300
  670MOL0     C92378   4.386   3.960   5.657 -0.5397  0.1882  0.1946
  670MOL0     C92379   4.524   3.973   5.670 -1.4631  0.5500 -0.2332
  670MOL0     C92380   4.599   4.086   5.649  0.4858 -0.8852  0.0906
  670MOL0     O92381   4.738   4.085   5.655  0.6997 -0.6027 -0.2255
  670MOL0     C92382   4.808   4.210   5.640 -0.0265 -0.4327  0.2402
  670MOL0     C92383   4.958   4.177   5.672  0.3612 -0.0517 -0.4336
  670MOL0     C92384   5.013   4.093   5.555  0.2940  0.4429 -0.9302
  670MOL0     C92385   5.140   4.027   5.612 -0.5572 -0.8050 -0.3602
  670MOL0     C92386   5.253   4.112   5.628 -1.2070 -0.2037 -0.7685
  670MOL0     C92387   5.337   4.193   5.656  0.5733 -0.0341 -0.9186
  670MOL0     C92388   4.522   4.203   5.623  0.0184 -0.0092 -0.3272
  670MOL0     C92389   4.382   4.205   5.624  1.1395 -1.1197 -0.3099
  670MOL0     C92390   4.298   4.333   5.595 -0.3031  0.6490  0.2604
  670MOL0     H92391   4.011   4.242   5.372  0.7808 -0.7934  0.6843
  670MOL0     H92392   3.771   4.307   5.340 -0.2819  0.9800  0.9026
  670MOL0     H92393   3.614   4.177   5.241  0.3662 -0.0766 -0.1119
  670MOL0     H92394   3.552   4.313   5.337 -1.3685 -0.1086 -2.5145
  670MOL0     H92395   3.379   4.074   5.286  1.0667 -0.8426 -0.9718
  670MOL0     H92396   3.342   4.226   5.355  2.4160  3.9635 -1.6217
  670MOL0     H92397   3.360   4.344   5.140 -0.4123 -0.5389  0.1888
  670MOL0     H92398   3.419   4.179   5.074  1.2415 -0.3701 -0.4944
  670MOL0     H92399   3.220   4.068   5.142  2.4286  0.6339  0.9536
  670MOL0     H92400   3.143   4.208   5.218 -1.7536  0.3949 -0.7934
  670MOL0     H92401   3.205   4.175   4.928 -0.7992  1.0962 -0.4267
  670MOL0     H92402   3.169   4.330   4.996 -2.0410  1.3454  3.9416
  670MOL0     H92403   2.980   4.090   5.038 -1.5318  0.9225  0.6001
  670MOL0     H92404   2.956   4.254   5.079  2.9452  2.9869 -0.5624
  670MOL0     H92405   2.867   4.125   4.856 -2.0663  2.2265 -0.2343
  670MOL0     H92406   3.017   4.175   4.786 -0.1018 -2.0119 -0.1875
  670MOL0     H92407   2.865   4.408   4.909 -0.3711  1.4719 -1.7059
  670MOL0     H92408   2.984   4.390   4.787 -1.1385  0.7691 -1.5222
  670MOL0     H92409   2.721   4.163   4.673 -1.7902 -0.4887 -3.0905
  670MOL0     H92410   2.450   4.360   4.469 -2.0732 -0.4159 -0.1915
  670MOL0     H92411   2.419   4.292   4.641 -2.4033 -4.5526 -1.7033
  670MOL0     H92412   2.532   4.080   4.571  0.2030 -1.2377 -0.9728
  670MOL0     H92413   2.366   4.120   4.517 -0.6560 -0.6684 -0.5999
  670MOL0     H92414   2.503   4.013   4.339 -2.1275 -0.0759  1.4200
  670MOL0     H92415   2.446   4.174   4.296 -1.2324 -0.7136  0.4232
  670MOL0     H92416   2.677   4.134   4.220 -0.9952 -1.8372 -0.7788
  670MOL0     H92417   2.688   4.241   4.364 -0.2981 -0.2001  3.1114
  670MOL0     H92418   2.853   4.016   4.155  0.8553 -1.2060 -0.8827
  670MOL0     H92419   3.159   4.020   4.038 -1.1405 -2.1361  2.7412
  670MOL0     H92420   3.117   4.189   4.030  1.4281 -1.1634 -0.5484
  670MOL0     H92421   3.004   4.058   3.981  2.4081 -2.3321 -1.2334
  670MOL0     H92422   3.443   4.466   4.420  0.1914  0.1587 -0.2408
  670MOL0     H92423   3.692   4.500   4.478  1.8070 -0.2410 -0.0175
  670MOL0     H92424   3.877   4.183   4.590  1.2741  0.6795  0.9402
  670MOL0     H92425   4.006   4.183   4.458  2.3019  1.2516  1.6530
  670MOL0     H92426   4.008   4.373   4.681  0.1716 -0.0087  0.1049
  670MOL0     H92427   4.102   4.216   4.658 -2.0055 -4.3529 -5.1961
  670MOL0     H92428   4.091   4.474   4.483 -1.0506  1.3187  1.5814
  670MOL0     H92429   4.182   4.327   4.439 -1.0892  1.0460 -0.1344
  670MOL0     H92430   4.320   4.348   4.645 -0.4222 -0.0317  0.4456
  670MOL0     H92431   4.226   4.498   4.686 -1.7380 -1.1891 -0.3696
  670MOL0     H92432   4.316   4.615   4.502 -0.8781 -0.0254 -1.1769
  670MOL0     H92433   4.448   4.536   4.585 -0.6455  2.4219  0.6340
  670MOL0     H92434   4.310   4.450   4.308 -0.0945 -2.3371  1.1677
  670MOL0     H92435   4.419   4.348   4.400  0.3118 -0.4601  1.5520
  670MOL0     H92436   4.601   4.503   4.398 -2.8866  1.6517  2.8517
  670MOL0     H92437   4.518   4.615   4.284  1.1004  1.8176  1.9594
  670MOL0     H92438   4.481   4.422   4.124  1.1344 -1.5239 -2.1362
  670MOL0     H92439   4.580   4.316   4.220  0.2573  0.2797  1.1024
  670MOL0     H92440   3.778   4.113   4.326 -1.4083 -0.7987 -0.4265
  670MOL0     H92441   3.546   4.058   4.305 -2.1938  1.0251 -6.6792
  670MOL0     H92442   3.172   4.141   4.511 -0.4266  1.8764  0.2052
  670MOL0     H92443   2.939   4.076   4.568 -2.8962 -0.7400 -0.7362
  670MOL0     H92444   3.676   3.987   5.615  0.5600  0.4825  0.3215
  670MOL0     H92445   3.911   3.947   5.663  2.2348  0.3309  0.6655
  670MOL0     H92446   4.345   3.861   5.672 -0.1191 -0.0886 -0.4522
  670MOL0     H92447   4.583   3.886   5.697  0.3226  0.5960 -3.4569
  670MOL0     H92448   4.794   4.246   5.538  1.1417  0.0739  0.2401
  670MOL0     H92449   4.773   4.287   5.710 -1.5206  2.1301 -3.0545
  670MOL0     H92450   4.953   4.125   5.768 -1.3811  1.9960  0.6893
  670MOL0     H92451   5.017   4.267   5.691 -0.8773  1.1268 -1.8410
  670MOL0     H92452   4.948   4.010   5.525  0.1842 -0.8213  2.3900
  670MOL0     H92453   5.030   4.162   5.471 -4.1280  0.0478 -2.4225
  670MOL0     H92454   5.173   3.948   5.544 -1.9410 -0.3832 -1.5842
  670MOL0     H92455   5.117   3.973   5.704 -1.5161 -2.0579 -1.2940
  670MOL0     H92456   5.421   4.258   5.671  0.7457  0.0471 -2.1191
  670MOL0     H92457   4.574   4.294   5.594 -0.7537 -0.1045 -2.1277
  670MOL0     H92458   4.368   4.403   5.549 -0.8197 -1.1229 -3.7142
  670MOL0     H92459   4.212   4.319   5.529 -0.7967  1.1313  0.7907
  670MOL0     H92460   4.261   4.372   5.690 -0.7135  2.6913 -0.6963
  671MOL0     O92461   5.244   6.140   5.507  0.2703  0.5681  0.6654
  671MOL0     C92462   5.232   6.106   5.622  0.3846  0.8537  0.4245
  671MOL0     O92463   5.327   6.111   5.720 -0.5293 -0.4896 -0.6130
  671MOL0     C92464   5.440   6.182   5.708 -0.7804 -0.0487 -0.1418
  671MOL0     C92465   5.524   6.161   5.600  0.4290  1.0742  1.1513
  671MOL0     C92466   5.645   6.233   5.590  0.0129 -0.3607 -0.7707
  671MOL0     C92467   5.673   6.336   5.681  0.2971  0.4307 -0.4192
  671MOL0     O92468   5.786   6.409   5.660  0.1958 -0.1668  0.1616
  671MOL0     C92469   5.861   6.440   5.778  1.0128  0.4633  0.0441
  671MOL0     C92470   5.855   6.587   5.836  0.5441 -0.3711  0.0438
  671MOL0     C92471   5.852   6.693   5.726 -0.0396  0.9572  0.3070
  671MOL0     C92472   5.979   6.689   5.648 -0.3836  0.5306  0.0348
  671MOL0     C92473   6.024   6.816   5.573 -0.3180  0.2208  0.7622
  671MOL0     C92474   5.943   6.846   5.450  0.2437 -0.1183  0.3776
  671MOL0     C92475   5.818   6.931   5.463 -0.8185  0.2418 -0.3488
  671MOL0     C92476   5.838   7.082   5.464 -0.5140 -0.4814  0.0250
  671MOL0     N92477   5.717   7.161   5.494 -0.4379 -0.0140 -0.2710
  671MOL0     C92478   5.609   7.115   5.574 -0.1840  0.1509 -0.3827
  671MOL0     C92479   5.503   7.202   5.555  0.2608  0.4471 -0.0691
  671MOL0     C92480   5.363   7.185   5.606 -0.2119  0.4353 -0.2652
  671MOL0     C92481   5.303   7.045   5.573 -0.5708 -0.6541 -0.5629
  671MOL0     C92482   5.262   6.961   5.699  0.1197  0.3172 -0.0590
  671MOL0     C92483   5.208   6.830   5.666 -0.6578  0.9503 -0.3294
  671MOL0     O92484   5.141   6.770   5.777  0.1696 -0.7044 -0.0246
  671MOL0     C92485   5.011   6.790   5.800  0.5449 -0.0382 -0.5899
  671MOL0     C92486   4.935   6.883   5.731  0.5793  0.6514 -0.0871
  671MOL0     C92487   4.795   6.914   5.778 -0.9982 -0.2659 -0.7985
  671MOL0     C92488   4.721   7.022   5.699  0.1069  0.2483  0.2626
  671MOL0     C92489   4.742   6.836   5.882 -0.3096 -0.1467 -0.1614
  671MOL0     C92490   4.594   6.850   5.923  0.2749 -1.0363  0.6862
  671MOL0     O92491   4.531   6.733   5.948  0.1536 -0.3674 -0.4512
  671MOL0     C92492   4.409   6.743   6.003  0.1868  0.2800  0.3297
  671MOL0     C92493   4.387   6.748   6.142 -0.3431  0.3544 -0.1624
  671MOL0     C92494   4.262   6.726   6.191 -0.5222  0.7314  0.2523
  671MOL0     C92495   4.147   6.708   6.112 -0.6374 -0.4791  0.5086
  671MOL0     O92496   4.016   6.690   6.152 -0.2598  0.8258 -0.6887
  671MOL0     C92497   3.997   6.666   6.294  0.5496 -0.5502  0.4364
  671MOL0     C92498   3.854   6.624   6.327 -0.5010 -0.4681  1.2173
  671MOL0     C92499   3.823   6.609   6.473  0.6886 -0.0950  0.1784
  671MOL0     C92500   3.670   6.562   6.482  0.1626 -0.1537 -0.3603
  671MOL0     C92501   3.650   6.494   6.616 -0.2634  0.7071  0.0799
  671MOL0     C92502   3.530   6.401   6.605  0.4759  0.2242 -0.6022
  671MOL0     C92503   3.518   6.324   6.736 -0.3775 -0.7636 -0.6179
  671MOL0     C92504   3.397   6.228   6.733  0.9268  0.5654  0.6050
  671MOL0    Cl92505   3.439   6.063   6.787  0.2369 -0.9229  0.2410
  671MOL0     C92506   4.166   6.723   5.976 -0.8385  0.5704  0.1858
  671MOL0     C92507   4.290   6.735   5.921 -0.5381  0.7970  0.6988
  671MOL0     O92508   4.544   6.969   5.923  0.5840  0.3559  0.0771
  671MOL0     C92509   4.823   6.743   5.944  0.4724  0.1762  0.9516
  671MOL0     C92510   4.952   6.718   5.904 -0.0508  0.8480 -0.2159
  671MOL0     N92511   5.558   7.296   5.467  0.1474 -0.0188  0.2143
  671MOL0     N92512   5.687   7.280   5.447  0.2983 -0.2596  0.2820
  671MOL0     C92513   5.583   6.350   5.789 -0.0285 -0.5051 -0.4139
  671MOL0     C92514   5.472   6.268   5.808 -0.5765  0.0994  0.1250
  671MOL0     C92515   5.103   6.061   5.666  0.2294 -0.3703 -0.8961
  671MOL0     C92516   5.081   6.049   5.802  0.4317  0.5556 -1.2506
  671MOL0     C92517   4.962   5.989   5.859 -0.7213  0.9708  0.5080
  671MOL0     C92518   4.858   5.941   5.769 -0.7205 -0.8860  0.2456
  671MOL0     O92519   4.748   5.871   5.798  0.1681 -0.5690 -1.3613
  671MOL0     C92520   4.697   5.871   5.934  0.0111 -0.8705 -0.8306
  671MOL0     C92521   4.620   5.750   5.963  0.2794  0.6525 -0.1164
  671MOL0     C92522   4.494   5.749   5.877  0.6209  0.2679 -0.1750
  671MOL0     C92523   4.378   5.854   5.918  0.2846  0.7592 -0.8240
  671MOL0     C92524   4.360   5.884   6.059 -0.7601  0.0360 -0.4531
  671MOL0     C92525   4.342   5.920   6.173 -1.1266  0.3042  0.1460
  671MOL0     C92526   4.879   5.968   5.638  0.0338  0.0770 -0.5972
  671MOL0     C92527   5.002   6.021   5.584 -0.0737 -0.1031  0.7014
  671MOL0     C92528   5.017   6.012   5.436  0.3262 -0.4765  0.4189
  671MOL0     H92529   5.496   6.090   5.523 -0.5321  2.3481  0.2920
  671MOL0     H92530   5.718   6.218   5.511  0.6513  0.7935 -0.4245
  671MOL0     H92531   5.964   6.409   5.756  0.4803 -2.1845  0.9749
  671MOL0     H92532   5.844   6.363   5.854 -0.0288  1.1114  0.4900
  671MOL0     H92533   5.760   6.602   5.888  0.3196  0.3367 -0.5679
  671MOL0     H92534   5.936   6.608   5.906  0.0792 -0.6559  0.6814
  671MOL0     H92535   5.774   6.675   5.651 -0.5737  0.7763  0.8941
  671MOL0     H92536   5.838   6.789   5.776 -0.2000  2.1243 -1.8368
  671MOL0     H92537   6.052   6.677   5.728 -1.6803 -1.8713  0.9635
  671MOL0     H92538   5.963   6.608   5.577 -1.4615  2.2985 -1.8441
  671MOL0     H92539   6.125   6.788   5.541  1.0944  0.5757  4.3704
  671MOL0     H92540   6.020   6.897   5.646 -4.6618  1.2710 -0.3717
  671MOL0     H92541   6.010   6.888   5.374  1.9091  0.9654  2.3263
  671MOL0     H92542   5.930   6.746   5.406 -0.0391 -0.1594  0.5576
  671MOL0     H92543   5.771   6.905   5.558  0.5666  2.1882  0.9515
  671MOL0     H92544   5.746   6.902   5.387 -2.6574 -1.4457  1.9017
  671MOL0     H92545   5.909   7.110   5.543 -0.7643  0.0808  0.0544
  671MOL0     H92546   5.885   7.121   5.374  2.0237 -0.3823  1.2908
  671MOL0     H92547   5.597   7.032   5.642 -0.1140  1.3635  1.1702
  671MOL0     H92548   5.298   7.258   5.557 -1.7944 -0.5041  0.3254
  671MOL0     H92549   5.373   7.206   5.713  0.0306 -0.3193 -0.1350
  671MOL0     H92550   5.219   7.066   5.507 -0.0381 -0.0973 -1.0753
  671MOL0     H92551   5.375   6.986   5.515  0.0377  0.1116 -0.5941
  671MOL0     H92552   5.353   6.953   5.758 -1.5154 -1.3149  2.4238
  671MOL0     H92553   5.181   7.011   5.753 -1.8570 -1.0289 -1.5861
  671MOL0     H92554   5.157   6.815   5.571 -0.6741  0.0988 -0.1954
  671MOL0     H92555   5.298   6.771   5.651  0.2840  2.9166 -3.1767
  671MOL0     H92556   4.986   6.939   5.654 -1.6898 -0.9933 -3.0384
  671MOL0     H92557   4.678   7.100   5.761 -0.0972  1.3143 -1.1567
  671MOL0     H92558   4.653   6.982   5.623 -2.4850  3.9796  0.3606
  671MOL0     H92559   4.800   7.068   5.638  0.2212 -0.8796 -0.4855
  671MOL0     H92560   4.472   6.760   6.208 -0.1797  1.4693 -0.5504
  671MOL0     H92561   4.261   6.730   6.300  0.0639 -3.4430  0.5742
  671MOL0     H92562   4.068   6.594   6.335  2.1080  0.3372 -0.6241
  671MOL0     H92563   4.015   6.767   6.333  0.6333  0.5244 -2.2212
  671MOL0     H92564   3.789   6.701   6.285  2.7722  1.0876 -1.4599
  671MOL0     H92565   3.838   6.527   6.280 -0.1336  0.1146 -0.1436
  671MOL0     H92566   3.848   6.695   6.534  2.1719 -1.2482  1.2817
  671MOL0     H92567   3.888   6.526   6.502  0.1947 -0.2188  0.9332
  671MOL0     H92568   3.648   6.490   6.402 -1.2031  2.0156 -2.0848
  671MOL0     H92569   3.603   6.648   6.467  0.1118 -0.2755 -0.8794
  671MOL0     H92570   3.733   6.428   6.642 -1.7741 -0.8066  1.2678
  671MOL0     H92571   3.633   6.555   6.705 -0.8947 -3.6781  3.2800
  671MOL0     H92572   3.536   6.325   6.527 -1.2447 -0.3908 -0.1856
  671MOL0     H92573   3.446   6.470   6.594 -0.5965 -0.4650  2.3397
  671MOL0     H92574   3.499   6.398   6.814 -0.8753 -0.5231 -0.9577
  671MOL0     H92575   3.614   6.277   6.758  0.3129  1.5137  1.6366
  671MOL0     H92576   3.356   6.216   6.633  0.9688 -0.0020  0.6529
  671MOL0     H92577   3.315   6.267   6.793 -0.7596 -1.8995  0.0243
  671MOL0     H92578   4.078   6.703   5.916 -0.3029  0.2087 -0.4836
  671MOL0     H92579   4.301   6.720   5.815 -3.1491 -1.7529  0.6687
  671MOL0     H92580   4.778   6.687   6.026  1.6498  0.9726  2.1896
  671MOL0     H92581   5.012   6.651   5.965  2.2578  3.9796  1.2940
  671MOL0     H92582   5.600   6.441   5.846 -0.3141 -0.4108 -0.4745
  671MOL0     H92583   5.413   6.266   5.898  0.1183  0.2134  0.5955
  671MOL0     H92584   5.150   6.086   5.877  1.5261 -2.7198 -0.4487
  671MOL0     H92585   4.949   5.984   5.967  0.6020  0.2131  0.6555
  671MOL0     H92586   4.782   5.872   6.003 -0.1080  2.3988 -0.5899
  671MOL0     H92587   4.636   5.959   5.952  3.1968  1.2824  0.2192
  671MOL0     H92588   4.595   5.750   6.069  0.5108  0.4064 -0.0590
  671MOL0     H92589   4.673   5.655   5.945 -1.1079  0.1801 -2.1032
  671MOL0     H92590   4.511   5.755   5.769 -4.6371 -0.0169 -1.2640
  671MOL0     H92591   4.445   5.653   5.890  0.2154  0.2735 -1.4993
  671MOL0     H92592   4.285   5.813   5.879  0.1146 -1.4435  1.5787
  671MOL0     H92593   4.412   5.951   5.880 -0.8885  0.8944 -1.5480
  671MOL0     H92594   4.353   5.954   6.274 -0.3532  2.9319 -0.7326
  671MOL0     H92595   4.803   5.931   5.570 -0.4554  0.2004 -0.1238
  671MOL0     H92596   4.939   5.944   5.400 -1.7377  0.5971  2.6032
  671MOL0     H92597   4.997   6.111   5.395 -1.5723  0.0287  2.4083
  671MOL0     H92598   5.110   5.972   5.393  0.7781  1.9453 -1.0221
  672MOL0     O92599   1.054   0.806   5.152 -0.4140 -0.6730  0.1246
  672MOL0     C92600   1.113   0.773   5.048  0.0035 -0.3291 -0.1340
  672MOL0     O92601   1.068   0.691   4.954  1.0131  0.1242 -0.1927
  672MOL0     C92602   0.938   0.644   4.953 -1.2886  0.4325 -0.0446
  672MOL0     C92603   0.924   0.505   4.943 -0.3702  0.8646  1.4409
  672MOL0     C92604   0.794   0.447   4.926 -0.2534 -0.2164  1.1221
  672MOL0     C92605   0.679   0.522   4.947 -0.1576 -0.1227  0.2406
  672MOL0     O92606   0.570   0.443   4.921  0.3676 -0.1435  0.0485
  672MOL0     C92607   0.445   0.493   4.986 -0.3787 -0.8902 -0.3176
  672MOL0     C92608   0.410   0.439   5.122 -1.1777  0.2624  0.1042
  672MOL0     C92609   0.407   0.291   5.113 -0.1427 -0.3854  0.6641
  672MOL0     C92610   0.364   0.231   5.251  0.0898  0.1828  0.5836
  672MOL0     C92611   0.302   0.087   5.230 -0.5623  0.5426  1.3723
  672MOL0     C92612   0.305   0.018   5.367 -0.1393  0.7395  0.3767
  672MOL0     C92613   0.234  -0.117   5.372 -0.2836  0.2508 -0.3431
  672MOL0     C92614   0.292  -0.206   5.481 -0.2644 -0.4535  0.0904
  672MOL0     N92615   0.248  -0.178   5.617  0.6153 -1.4724  0.3149
  672MOL0     C92616   0.114  -0.181   5.650 -0.2387  0.1388  0.0229
  672MOL0     C92617   0.115  -0.185   5.785 -0.1471 -0.1068 -0.2498
  672MOL0     C92618   0.009  -0.191   5.887  0.1315  0.3672 -0.6520
  672MOL0     C92619  -0.087  -0.072   5.881  0.5260 -0.1406  0.6435
  672MOL0     C92620  -0.197  -0.065   5.984 -0.3286 -0.1177 -0.1083
  672MOL0     C92621  -0.255   0.074   6.004  0.6416 -0.7063 -0.0050
  672MOL0     O92622  -0.340   0.085   6.122 -0.5772  0.1634 -0.2591
  672MOL0     C92623  -0.438   0.178   6.143  0.1279  0.6108 -0.7791
  672MOL0     C92624  -0.519   0.167   6.253  1.1498  0.8374  0.7070
  672MOL0     C92625  -0.621   0.258   6.275 -0.3656 -0.4102  0.3104
  672MOL0     C92626  -0.680   0.232   6.410  0.2854  0.0238 -0.1543
  672MOL0     C92627  -0.634   0.365   6.182  0.4901  0.1822  0.7521
  672MOL0     C92628  -0.727   0.480   6.209 -0.3442  0.0797 -0.1494
  672MOL0     O92629  -0.803   0.477   6.326  0.4625  0.5348 -0.1992
  672MOL0     C92630  -0.881   0.589   6.346 -0.3726 -0.2085 -0.4562
  672MOL0     C92631  -0.832   0.705   6.404 -0.1047 -0.5253 -0.9684
  672MOL0     C92632  -0.912   0.820   6.431  1.2864  0.8122 -0.4526
  672MOL0     C92633  -1.045   0.813   6.392 -0.4129  0.0923  0.2046
  672MOL0     O92634  -1.132   0.924   6.397 -0.0547  0.1077 -0.8987
  672MOL0     C92635  -1.097   1.026   6.497  0.2728 -0.6504  0.9176
  672MOL0     C92636  -1.172   1.156   6.461 -0.5717 -0.5287 -0.0612
  672MOL0     C92637  -1.163   1.261   6.561 -0.5829  0.0727 -0.5563
  672MOL0     C92638  -1.267   1.370   6.544  0.6045  0.1770  0.0954
  672MOL0     C92639  -1.255   1.484   6.653  0.1770 -0.0291 -0.2372
  672MOL0     C92640  -1.361   1.591   6.625  0.1469 -0.1769 -0.1821
  672MOL0     C92641  -1.381   1.692   6.731  0.8620 -0.7739 -0.0751
  672MOL0     C92642  -1.472   1.804   6.689 -0.4657  0.3250 -0.2912
  672MOL0    Cl92643  -1.474   1.924   6.825  0.5127 -0.0376  0.3439
  672MOL0     C92644  -1.102   0.692   6.344  0.0787  0.5436  0.2765
  672MOL0     C92645  -1.021   0.583   6.314  0.1279 -0.4418 -0.8777
  672MOL0     O92646  -0.735   0.563   6.122  0.2475 -0.3706 -0.5200
  672MOL0     C92647  -0.542   0.385   6.081  0.0282 -0.4634 -0.6242
  672MOL0     C92648  -0.443   0.290   6.066  0.4954  0.0458 -0.1956
  672MOL0     N92649   0.247  -0.174   5.824  0.8472 -1.5209  0.0077
  672MOL0     N92650   0.329  -0.162   5.719  0.5727  0.1071  0.0209
  672MOL0     C92651   0.701   0.663   4.974 -0.1104  0.3830 -0.1558
  672MOL0     C92652   0.828   0.721   4.970 -0.6336  0.4342 -0.6275
  672MOL0     C92653   1.256   0.803   5.033  1.0772  0.2772 -0.1415
  672MOL0     C92654   1.300   0.820   4.900  0.1606  0.1754  0.2236
  672MOL0     C92655   1.428   0.855   4.862  0.0847  0.8145  0.4119
  672MOL0     C92656   1.515   0.868   4.963 -0.8097 -0.4874  0.2815
  672MOL0     O92657   1.638   0.915   4.917  0.0299 -0.5249 -0.2249
  672MOL0     C92658   1.753   0.847   4.966 -0.9959 -0.0140  0.0937
  672MOL0     C92659   1.854   0.922   5.045  0.3989 -0.1229  0.2651
  672MOL0     C92660   1.963   0.826   5.106 -0.2055  0.2670  0.3425
  672MOL0     C92661   2.045   0.887   5.211  0.8125 -0.0391  0.4638
  672MOL0     C92662   2.174   0.816   5.229  0.0497  0.0479  0.0042
  672MOL0     C92663   2.287   0.777   5.246  0.1271  0.3282  0.0466
  672MOL0     C92664   1.480   0.860   5.096 -0.5181  0.0378 -0.7449
  672MOL0     C92665   1.349   0.819   5.137 -0.8832 -0.3135  0.7737
  672MOL0     C92666   1.315   0.793   5.277  0.0363 -0.0769 -0.0675
  672MOL0     H92667   1.011   0.441   4.937  0.2489  1.8008 -1.2301
  672MOL0     H92668   0.782   0.340   4.917  2.2666 -0.7133  2.5901
  672MOL0     H92669   0.359   0.458   4.928 -2.3622 -4.5639  4.1874
  672MOL0     H92670   0.442   0.603   4.987 -0.2313 -0.8815  0.8426
  672MOL0     H92671   0.483   0.482   5.192 -0.9161 -0.4527  0.2826
  672MOL0     H92672   0.317   0.473   5.167 -0.7956 -1.4888  2.4063
  672MOL0     H92673   0.330   0.269   5.039 -0.3544  1.4799  0.2897
  672MOL0     H92674   0.505   0.243   5.098 -1.3420 -2.2285 -1.9742
  672MOL0     H92675   0.460   0.217   5.302  0.5314 -1.3190 -0.5884
  672MOL0     H92676   0.292   0.297   5.300 -0.5381 -0.2877  0.3025
  672MOL0     H92677   0.363   0.029   5.160 -0.0289  1.1679  1.3085
  672MOL0     H92678   0.207   0.100   5.177  1.4640 -1.0543 -3.1487
  672MOL0     H92679   0.409   0.005   5.401 -0.3962 -1.8824  0.3052
  672MOL0     H92680   0.256   0.073   5.448 -0.6505  0.9682 -0.0884
  672MOL0     H92681   0.267  -0.173   5.285  0.8959  0.4154 -0.0259
  672MOL0     H92682   0.126  -0.116   5.385 -0.0221 -0.6462  2.7006
  672MOL0     H92683   0.270  -0.308   5.448  1.0032 -0.6132 -0.3275
  672MOL0     H92684   0.401  -0.195   5.483 -0.4307  3.5431 -1.8810
  672MOL0     H92685   0.028  -0.193   5.585 -0.5675 -1.5702  0.7146
  672MOL0     H92686   0.052  -0.201   5.987 -0.8788 -2.3655 -0.3972
  672MOL0     H92687  -0.047  -0.284   5.872  1.2593 -0.5579  0.6380
  672MOL0     H92688  -0.026   0.017   5.900  1.9787 -1.0924  0.6296
  672MOL0     H92689  -0.116  -0.048   5.778  0.6072 -2.5368  0.0067
  672MOL0     H92690  -0.275  -0.136   5.952 -0.0765  0.1429 -1.3805
  672MOL0     H92691  -0.152  -0.094   6.079 -3.1725 -1.3286  0.9775
  672MOL0     H92692  -0.178   0.149   6.022 -2.1621  1.7133  2.9880
  672MOL0     H92693  -0.310   0.102   5.914  2.0827  2.9806  0.0802
  672MOL0     H92694  -0.498   0.085   6.321  1.1969 -0.3508 -0.6886
  672MOL0     H92695  -0.644   0.312   6.476 -1.1871 -0.5829  1.4200
  672MOL0     H92696  -0.661   0.131   6.446  0.2940 -1.0555 -2.9498
  672MOL0     H92697  -0.789   0.227   6.412  0.2877 -0.4937 -0.7724
  672MOL0     H92698  -0.725   0.707   6.420  0.0329 -1.6967 -1.6802
  672MOL0     H92699  -0.862   0.907   6.471 -0.8653  2.3021 -0.8382
  672MOL0     H92700  -1.119   0.981   6.595 -0.3132 -3.7214 -0.5130
  672MOL0     H92701  -0.990   1.048   6.489  0.3847 -1.9026 -3.0289
  672MOL0     H92702  -1.130   1.188   6.365 -1.2737 -2.9588 -1.2498
  672MOL0     H92703  -1.279   1.149   6.442 -0.6373  2.1567 -1.1981
  672MOL0     H92704  -1.068   1.314   6.559 -0.3082 -0.3426  0.7635
  672MOL0     H92705  -1.183   1.222   6.662 -1.3598 -1.6349 -1.3176
  672MOL0     H92706  -1.367   1.329   6.559 -0.1734  2.0133  0.1439
  672MOL0     H92707  -1.272   1.422   6.447 -0.8083  2.2424  1.2067
  672MOL0     H92708  -1.279   1.444   6.752 -1.5724  2.7594  0.5674
  672MOL0     H92709  -1.150   1.513   6.665  0.3518 -1.6621  3.4454
  672MOL0     H92710  -1.451   1.534   6.600  0.1376 -0.4466  0.4556
  672MOL0     H92711  -1.335   1.640   6.530  2.0796 -1.6782 -0.4829
  672MOL0     H92712  -1.281   1.730   6.749  0.7234 -0.2539 -0.3708
  672MOL0     H92713  -1.405   1.658   6.832 -0.3416  2.9785  1.0831
  672MOL0     H92714  -1.572   1.770   6.658 -1.2603  0.6483  1.7764
  672MOL0     H92715  -1.420   1.849   6.603 -0.4891 -1.8011 -1.5025
  672MOL0     H92716  -1.207   0.667   6.329 -0.0256 -0.3041  2.1674
  672MOL0     H92717  -1.063   0.495   6.265  1.1412  0.0850 -2.7963
  672MOL0     H92718  -0.533   0.483   6.035 -1.0162 -0.3847 -0.6956
  672MOL0     H92719  -0.367   0.311   5.991  0.6329  2.1747  0.4738
  672MOL0     H92720   0.613   0.726   4.985  1.9022  3.5708 -0.8607
  672MOL0     H92721   0.859   0.823   4.990  3.0089 -0.6907  0.2175
  672MOL0     H92722   1.233   0.837   4.816  2.1980 -0.9665 -1.7198
  672MOL0     H92723   1.462   0.874   4.761 -0.2885  1.4405  0.4014
  672MOL0     H92724   1.721   0.757   5.020 -0.1442  0.7984  2.0468
  672MOL0     H92725   1.810   0.815   4.878 -1.3815  1.3441 -0.6803
  672MOL0     H92726   1.789   0.973   5.117 -2.5835  1.1584 -3.0744
  672MOL0     H92727   1.892   0.992   4.970  0.0839 -1.5897 -1.3242
  672MOL0     H92728   1.911   0.736   5.142 -0.5637  0.1283 -0.5138
  672MOL0     H92729   2.023   0.798   5.019 -0.4233 -1.5266  0.7292
  672MOL0     H92730   1.982   0.868   5.299  2.1956 -0.6490  1.3765
  672MOL0     H92731   2.057   0.996   5.210  0.4302  0.0116 -1.1898
  672MOL0     H92732   2.386   0.737   5.242  0.1331  0.3285 -3.9866
  672MOL0     H92733   1.554   0.878   5.173  1.3763 -1.9076 -1.9896
  672MOL0     H92734   1.394   0.781   5.352  1.5582 -3.5181 -2.0109
  672MOL0     H92735   1.243   0.873   5.299  0.1575 -0.0629  0.2931
  672MOL0     H92736   1.259   0.699   5.282  0.4733 -0.3021  0.6726
  673MOL0     O92737   1.867  10.363   2.899  0.3033  0.2870  0.4671
  673MOL0     C92738   1.769  10.360   2.820  0.2786 -0.1017 -0.9124
  673MOL0     O92739   1.774  10.340   2.683 -0.1785  0.0105  0.3056
  673MOL0     C92740   1.904  10.331   2.623  0.4338  0.0478 -0.0017
  673MOL0     C92741   1.937  10.211   2.554  0.3386  0.7809  0.0889
  673MOL0     C92742   2.067  10.188   2.492  0.3041 -0.0093  0.5154
  673MOL0     C92743   2.155  10.301   2.480 -0.5668  0.2723 -0.5425
  673MOL0     O92744   2.282  10.293   2.424 -0.4138  0.0712  0.7469
  673MOL0     C92745   2.315  10.168   2.360  0.2608 -0.4066  0.1240
  673MOL0     C92746   2.432  10.196   2.269 -0.3279 -0.1240 -0.6629
  673MOL0     C92747   2.552  10.220   2.358 -0.4928  0.2940  0.0262
  673MOL0     C92748   2.675  10.249   2.267  0.0271  0.3433 -0.2664
  673MOL0     C92749   2.805  10.269   2.351 -0.6118  0.2524  0.8455
  673MOL0     C92750   2.923  10.265   2.256  0.0898  0.3145  0.1178
  673MOL0     C92751   3.045  10.306   2.323 -0.4876  0.3228 -0.7853
  673MOL0     C92752   3.068  10.216   2.449 -0.5462  0.0653  0.7145
  673MOL0     N92753   3.211  10.229   2.488 -0.1209 -0.5111  0.1995
  673MOL0     C92754   3.266  10.334   2.550 -0.4929 -0.0069  0.1553
  673MOL0     C92755   3.400  10.316   2.547 -0.1903 -0.3748  0.5261
  673MOL0     C92756   3.499  10.405   2.616 -0.2521  0.2311  0.0309
  673MOL0     C92757   3.614  10.326   2.677  0.1520  0.9102 -0.7548
  673MOL0     C92758   3.689  10.404   2.783 -0.3275 -1.0012 -0.6741
  673MOL0     C92759   3.812  10.335   2.851  1.6339 -0.0676 -0.8017
  673MOL0     O92760   3.892  10.253   2.768  0.1625  0.7741 -0.0978
  673MOL0     C92761   3.994  10.185   2.824 -0.3341 -0.1063 -0.5688
  673MOL0     C92762   4.010  10.166   2.963 -0.1186 -0.0258 -0.4168
  673MOL0     C92763   4.114  10.086   3.020 -0.2674 -0.1185 -0.0812
  673MOL0     C92764   4.116  10.075   3.170 -0.5948 -0.9334  0.1955
  673MOL0     C92765   4.209  10.023   2.936  0.3039  0.7849  0.6135
  673MOL0     C92766   4.335   9.958   2.987  0.9921  0.4989  0.4329
  673MOL0     O92767   4.444   9.926   2.895 -0.1008  0.1027 -0.5146
  673MOL0     C92768   4.565   9.880   2.948  0.2746 -0.0430  0.3521
  673MOL0     C92769   4.679   9.964   2.945  0.0219  0.1752 -0.0173
  673MOL0     C92770   4.799   9.903   2.993 -0.6895  0.1926 -0.2699
  673MOL0     C92771   4.805   9.784   3.057 -1.1182 -0.0586  0.2804
  673MOL0     O92772   4.918   9.741   3.115 -0.6419 -0.5415 -0.2559
  673MOL0     C92773   4.995   9.651   3.041  0.1700 -0.4451  0.3724
  673MOL0     C92774   5.117   9.618   3.132  0.3010  0.5519  0.3830
  673MOL0     C92775   5.212   9.513   3.060 -0.7199 -0.0369  0.4374
  673MOL0     C92776   5.311   9.467   3.175 -0.4388 -0.2005 -0.0760
  673MOL0     C92777   5.457   9.509   3.152 -0.4025  0.1330 -0.7373
  673MOL0     C92778   5.552   9.458   3.262  0.0965 -0.3684 -0.3175
  673MOL0     C92779   5.560   9.545   3.385  0.5385 -0.4878 -0.2420
  673MOL0     C92780   5.650   9.486   3.488  1.1254  0.5775  0.6247
  673MOL0    Cl92781   5.588   9.336   3.570 -0.4917  0.0306  0.0569
  673MOL0     C92782   4.687   9.704   3.063 -0.3513 -0.1163 -0.1839
  673MOL0     C92783   4.571   9.750   3.002  0.6635  0.4959  0.4455
  673MOL0     O92784   4.326   9.907   3.096 -0.4768  0.4712  0.2225
  673MOL0     C92785   4.197  10.050   2.800  1.1035 -0.5993  0.6750
  673MOL0     C92786   4.095  10.130   2.741  0.5093 -0.3576 -0.7231
  673MOL0     N92787   3.419  10.204   2.468  0.5005 -0.7596 -0.8824
  673MOL0     N92788   3.310  10.156   2.433  0.4640  0.3693  0.1691
  673MOL0     C92789   2.121  10.429   2.536  0.0610 -0.2716 -0.7924
  673MOL0     C92790   1.999  10.438   2.613 -0.3197  0.8364 -0.1426
  673MOL0     C92791   1.634  10.378   2.889  0.1941 -0.2945  0.3676
  673MOL0     C92792   1.522  10.332   2.811 -1.2761 -0.0001 -0.1940
  673MOL0     C92793   1.394  10.329   2.865 -0.7892  0.2638 -0.2465
  673MOL0     C92794   1.369  10.381   2.994  0.5655  0.0706  0.4349
  673MOL0     O92795   1.246  10.390   3.058 -0.2966  0.2033 -0.2116
  673MOL0     C92796   1.127  10.376   2.978 -0.4233  1.5291  0.8045
  673MOL0     C92797   1.006  10.410   3.066 -0.3117 -0.9651 -0.7183
  673MOL0     C92798   0.879  10.431   2.983  0.3909 -0.1154  0.0344
  673MOL0     C92799   0.757  10.465   3.080  0.3124  0.2906  0.0075
  673MOL0     C92800   0.627  10.471   3.003 -0.5238 -0.0113  0.4953
  673MOL0     C92801   0.528  10.487   2.939  0.0913 -0.1058 -0.3481
  673MOL0     C92802   1.480  10.414   3.075  0.2021  0.7613 -0.0924
  673MOL0     C92803   1.612  10.412   3.029 -0.0399 -0.3752  1.1928
  673MOL0     C92804   1.722  10.433   3.131  0.0128 -0.6939 -0.8041
  673MOL0     H92805   1.865  10.135   2.579  2.0825 -1.7781 -2.0678
  673MOL0     H92806   2.088  10.087   2.461 -0.4166 -0.0587  0.1532
  673MOL0     H92807   2.230  10.134   2.301 -2.7211 -0.9532  4.2325
  673MOL0     H92808   2.338  10.090   2.434 -0.3908  0.5291  1.3405
  673MOL0     H92809   2.453  10.108   2.207  0.5835 -1.3244  1.2426
  673MOL0     H92810   2.413  10.288   2.212 -0.4153 -0.3276 -0.9685
  673MOL0     H92811   2.538  10.317   2.408  2.5746  1.0490 -0.3536
  673MOL0     H92812   2.572  10.140   2.430 -3.4860  1.3577  2.2666
  673MOL0     H92813   2.697  10.169   2.197 -0.5821 -0.9293  0.9343
  673MOL0     H92814   2.651  10.338   2.208 -1.4793 -0.1877 -0.5080
  673MOL0     H92815   2.812  10.177   2.410 -1.2614 -0.4679 -0.1681
  673MOL0     H92816   2.811  10.364   2.404  0.7388 -0.3788  1.8871
  673MOL0     H92817   2.944  10.160   2.233 -0.1769 -0.6082  3.5195
  673MOL0     H92818   2.902  10.330   2.171 -1.8693  0.0749  0.3785
  673MOL0     H92819   3.064  10.412   2.343  1.3393 -0.1072 -0.0942
  673MOL0     H92820   3.131  10.277   2.262  2.5202  1.7169  2.4444
  673MOL0     H92821   2.999  10.250   2.527 -0.7086  2.3762 -0.3437
  673MOL0     H92822   3.060  10.112   2.414  2.5763  0.7844 -2.6422
  673MOL0     H92823   3.216  10.411   2.609  1.6554  0.2974  1.7210
  673MOL0     H92824   3.439  10.449   2.697 -1.2523  0.1828 -0.6683
  673MOL0     H92825   3.525  10.488   2.549 -2.4502  1.9729  1.1865
  673MOL0     H92826   3.565  10.234   2.711  0.8048 -0.1184 -2.4711
  673MOL0     H92827   3.688  10.305   2.600 -1.0349 -2.5769 -1.1055
  673MOL0     H92828   3.715  10.509   2.766  0.5402 -0.8094  1.4578
  673MOL0     H92829   3.616  10.416   2.864 -1.0688  1.5070 -1.6266
  673MOL0     H92830   3.874  10.416   2.890  1.5479 -0.9241  1.2225
  673MOL0     H92831   3.767  10.272   2.929 -0.7858 -0.6975 -2.5833
  673MOL0     H92832   3.936  10.203   3.033 -1.3496  0.0114 -1.6811
  673MOL0     H92833   4.043  10.143   3.215 -2.3142 -1.5309 -1.5215
  673MOL0     H92834   4.206  10.103   3.224 -1.4841  1.4759  0.5823
  673MOL0     H92835   4.094   9.971   3.195  1.5977 -1.3558  0.5657
  673MOL0     H92836   4.685  10.061   2.898  2.7248  1.0222  1.8326
  673MOL0     H92837   4.889   9.959   2.969 -0.6486  0.4394  0.4523
  673MOL0     H92838   4.941   9.556   3.036 -0.4149 -0.1891  1.4588
  673MOL0     H92839   5.016   9.699   2.945  0.6006 -0.4329  0.4709
  673MOL0     H92840   5.169   9.706   3.169 -0.7899  1.4837 -0.2477
  673MOL0     H92841   5.075   9.561   3.216  0.8211 -0.4188  0.0011
  673MOL0     H92842   5.278   9.548   2.980 -0.1019  2.6028  1.9511
  673MOL0     H92843   5.154   9.426   3.030  0.9647 -0.8314 -0.7028
  673MOL0     H92844   5.315   9.362   3.203 -0.4516  0.0334  0.8337
  673MOL0     H92845   5.281   9.504   3.273  0.1536 -1.6713  0.6854
  673MOL0     H92846   5.492   9.469   3.056  0.7424 -1.7171  0.3897
  673MOL0     H92847   5.459   9.618   3.140 -2.5343  0.2434 -0.4509
  673MOL0     H92848   5.650   9.457   3.214  0.3700  1.6034  0.1246
  673MOL0     H92849   5.527   9.357   3.298 -1.5863  1.1433  3.2279
  673MOL0     H92850   5.464   9.575   3.427 -0.6055 -2.3232 -1.4188
  673MOL0     H92851   5.597   9.640   3.345 -3.5187  0.9097 -1.1229
  673MOL0     H92852   5.668   9.564   3.563  0.7297  2.5735 -1.2607
  673MOL0     H92853   5.750   9.465   3.449  0.8912 -0.2711  0.4732
  673MOL0     H92854   4.698   9.607   3.110  1.5423 -0.4130 -1.1486
  673MOL0     H92855   4.478   9.694   2.993  1.7768 -1.2208 -1.2670
  673MOL0     H92856   4.280  10.023   2.735  0.6098 -0.7019  0.0776
  673MOL0     H92857   4.091  10.131   2.633  0.3155  1.6296 -0.7379
  673MOL0     H92858   2.191  10.508   2.513  0.2258 -0.3372 -0.5188
  673MOL0     H92859   1.971  10.535   2.653  1.2680  0.6522  1.5611
  673MOL0     H92860   1.524  10.301   2.707 -2.8400  2.4217 -1.0444
  673MOL0     H92861   1.319  10.292   2.797 -0.9943  0.7705 -0.3012
  673MOL0     H92862   1.138  10.443   2.892 -2.6566 -1.2179 -1.8473
  673MOL0     H92863   1.120  10.275   2.938 -0.3374  1.1720  1.6755
  673MOL0     H92864   1.024  10.502   3.123 -2.5348 -1.0130  0.1964
  673MOL0     H92865   0.988  10.333   3.142  0.5534 -0.0809  0.4259
  673MOL0     H92866   0.889  10.518   2.917 -1.2758  0.6963  0.7987
  673MOL0     H92867   0.850  10.343   2.925 -0.0401  0.2722 -0.3436
  673MOL0     H92868   0.771  10.566   3.121 -0.4376  0.2263  0.4356
  673MOL0     H92869   0.751  10.389   3.159  0.3926  0.8250  0.5332
  673MOL0     H92870   0.442  10.508   2.879  0.1967  1.1016 -0.0853
  673MOL0     H92871   1.461  10.444   3.178 -3.2356 -1.0694 -0.0681
  673MOL0     H92872   1.779  10.523   3.106  1.2376 -0.9268  0.9761
  673MOL0     H92873   1.681  10.433   3.232 -0.4130  1.7781 -0.9246
  673MOL0     H92874   1.778  10.339   3.131 -0.3186 -1.0670  3.3046
  674MOL0     O92875   4.986   4.372   0.880 -0.3673  0.3789  0.2239
  674MOL0     C92876   4.993   4.255   0.902  1.1390  0.0746 -0.4106
  674MOL0     O92877   5.106   4.189   0.933 -0.6853  0.1932 -0.3954
  674MOL0     C92878   5.218   4.262   0.958 -0.3095  0.8728 -1.5327
  674MOL0     C92879   5.233   4.375   1.039 -0.6810 -0.6286  0.1041
  674MOL0     C92880   5.365   4.428   1.074  1.3157 -0.4911 -0.0892
  674MOL0     C92881   5.480   4.370   1.012  0.6642  0.1179 -0.5446
  674MOL0     O92882   5.616   4.391   1.046 -0.1368 -0.2768 -0.1474
  674MOL0     C92883   5.702   4.418   0.931 -0.1743 -0.0155  0.2467
  674MOL0     C92884   5.849   4.414   0.965 -0.5392 -0.4897 -0.5510
  674MOL0     C92885   5.873   4.507   1.084  0.1106  0.2321 -0.6217
  674MOL0     C92886   6.022   4.528   1.092 -0.1040  0.7094  0.5206
  674MOL0     C92887   6.052   4.663   1.169  0.1005  0.4609  0.3395
  674MOL0     C92888   6.193   4.697   1.195  0.2792  0.0231  0.2404
  674MOL0     C92889   6.298   4.700   1.076 -0.2158  0.3912  1.3246
  674MOL0     C92890   6.431   4.769   1.109  0.5370 -0.7219 -0.0295
  674MOL0     N92891   6.557   4.697   1.146  1.1094 -0.0777 -0.5898
  674MOL0     C92892   6.566   4.632   1.266 -0.0362 -0.9441 -0.7173
  674MOL0     C92893   6.687   4.588   1.277  0.0539  0.2489 -0.0513
  674MOL0     C92894   6.757   4.529   1.403  0.4053  0.1636  0.1462
  674MOL0     C92895   6.909   4.523   1.376 -0.8618 -0.4419  0.0644
  674MOL0     C92896   6.985   4.443   1.482 -0.8833  0.0232 -0.2139
  674MOL0     C92897   7.126   4.413   1.441  0.7812 -1.2632  0.5952
  674MOL0     O92898   7.190   4.337   1.544  0.3214  0.3616 -0.4464
  674MOL0     C92899   7.297   4.258   1.501 -0.0006 -0.6611  0.6580
  674MOL0     C92900   7.316   4.118   1.540  0.2097  0.1232 -1.0708
  674MOL0     C92901   7.417   4.034   1.503 -0.0258  0.3383  0.1412
  674MOL0     C92902   7.426   3.892   1.558 -0.3462 -0.5730  0.2424
  674MOL0     C92903   7.500   4.077   1.397  0.1434 -0.1706  0.0841
  674MOL0     C92904   7.604   3.991   1.312 -0.2651 -0.6572  0.1150
  674MOL0     O92905   7.655   3.873   1.368  0.4493 -0.2272  0.5108
  674MOL0     C92906   7.751   3.797   1.310  0.8400  1.0087  0.4773
  674MOL0     C92907   7.850   3.745   1.389  0.2526 -0.5901  0.3014
  674MOL0     C92908   7.949   3.662   1.335 -0.0857 -0.2386  0.8790
  674MOL0     C92909   7.937   3.624   1.200 -0.3316  1.2324  0.1269
  674MOL0     O92910   8.017   3.522   1.152 -0.3512 -0.8912  0.1263
  674MOL0     C92911   8.160   3.536   1.170  0.1468 -0.5600 -0.2571
  674MOL0     C92912   8.232   3.459   1.054  1.2330  0.3256 -0.2697
  674MOL0     C92913   8.238   3.552   0.928  0.1767 -0.0773  0.9167
  674MOL0     C92914   8.368   3.527   0.835  0.0053  0.9982 -0.0966
  674MOL0     C92915   8.390   3.623   0.720  0.0435 -0.4940  0.6494
  674MOL0     C92916   8.410   3.763   0.772 -0.2658 -0.3711 -0.5719
  674MOL0     C92917   8.409   3.872   0.664 -0.6464 -0.6709  0.1884
  674MOL0     C92918   8.505   3.863   0.551 -0.0948 -0.2915 -0.3309
  674MOL0    Cl92919   8.463   3.976   0.420  0.7311 -0.0663 -0.0576
  674MOL0     C92920   7.839   3.679   1.119  0.1522  0.1033  0.1000
  674MOL0     C92921   7.744   3.769   1.169 -0.7715  0.1422 -0.0612
  674MOL0     O92922   7.641   4.042   1.206  0.6130 -0.5340  0.1950
  674MOL0     C92923   7.493   4.213   1.370 -0.5498  1.1247 -0.0981
  674MOL0     C92924   7.394   4.299   1.416  0.4696 -0.6339 -1.1424
  674MOL0     N92925   6.755   4.622   1.166  1.0344  0.5908  0.0583
  674MOL0     N92926   6.682   4.695   1.090 -0.4104  0.1912  0.4508
  674MOL0     C92927   5.461   4.259   0.928  0.9873 -0.1530 -1.0309
  674MOL0     C92928   5.336   4.202   0.913 -0.2179 -0.8978  0.2194
  674MOL0     C92929   4.871   4.161   0.891  0.1577 -0.0343  0.6103
  674MOL0     C92930   4.884   4.018   0.897  0.1311 -0.5252 -1.1953
  674MOL0     C92931   4.773   3.931   0.892  0.5142 -0.0163  0.5709
  674MOL0     C92932   4.641   3.976   0.883 -0.1414 -0.0314 -0.2912
  674MOL0     O92933   4.523   3.910   0.876  0.2826 -0.0497  0.4264
  674MOL0     C92934   4.522   3.765   0.862  0.4276 -0.4788 -0.1457
  674MOL0     C92935   4.384   3.702   0.882  0.4437  0.0138 -0.0182
  674MOL0     C92936   4.281   3.739   0.767 -0.7994  0.2956 -1.3287
  674MOL0     C92937   4.326   3.645   0.650  0.2658 -0.4582 -0.3340
  674MOL0     C92938   4.232   3.646   0.539  1.7566  0.0091 -0.7616
  674MOL0     C92939   4.139   3.665   0.461  0.3757  0.2364 -0.0723
  674MOL0     C92940   4.632   4.114   0.868  0.1569  0.1381  0.1656
  674MOL0     C92941   4.735   4.203   0.868  0.2865 -0.2902  0.1529
  674MOL0     C92942   4.702   4.355   0.870 -0.7921  0.5868 -0.1184
  674MOL0     H92943   5.144   4.416   1.085 -0.0132  0.8688  0.1121
  674MOL0     H92944   5.380   4.510   1.143  1.4453 -0.7706  0.2145
  674MOL0     H92945   5.678   4.518   0.896  0.7093 -0.0710 -0.5821
  674MOL0     H92946   5.696   4.347   0.848 -1.3323  1.4158 -0.9543
  674MOL0     H92947   5.872   4.307   0.969  0.0914 -0.3508 -0.3250
  674MOL0     H92948   5.906   4.451   0.880  0.4232 -0.9455 -0.1144
  674MOL0     H92949   5.815   4.598   1.066 -1.4952 -0.5445  0.3528
  674MOL0     H92950   5.826   4.462   1.172 -3.6742  1.7213 -1.6617
  674MOL0     H92951   6.078   4.449   1.142  1.3071  2.4609  1.8744
  674MOL0     H92952   6.070   4.546   0.995 -0.5352 -0.5514  0.0574
  674MOL0     H92953   6.009   4.660   1.269  1.0605 -2.5903  0.7729
  674MOL0     H92954   5.995   4.742   1.121 -1.8117  0.1176  1.9144
  674MOL0     H92955   6.183   4.799   1.234 -0.2624 -0.0099  0.1821
  674MOL0     H92956   6.237   4.629   1.268 -0.2052 -0.0178  0.4953
  674MOL0     H92957   6.250   4.752   0.992  0.1438 -2.0133 -0.4758
  674MOL0     H92958   6.313   4.599   1.035  2.7051  0.9296  0.8913
  674MOL0     H92959   6.461   4.834   1.026  1.5731  1.6734  2.1123
  674MOL0     H92960   6.401   4.840   1.186 -2.7378 -2.5387  0.5859
  674MOL0     H92961   6.488   4.608   1.337  2.4444 -2.3585  1.7235
  674MOL0     H92962   6.708   4.433   1.423 -0.8305  1.0410  1.5012
  674MOL0     H92963   6.749   4.599   1.487 -0.6329  0.3948 -0.1265
  674MOL0     H92964   6.917   4.467   1.283 -1.7576  0.6736 -0.7150
  674MOL0     H92965   6.949   4.623   1.359 -1.5034  0.3295  2.6326
  674MOL0     H92966   6.984   4.509   1.569  0.8665  0.7584 -0.7233
  674MOL0     H92967   6.921   4.356   1.503 -0.0234 -0.0804  2.2392
  674MOL0     H92968   7.110   4.349   1.354  1.2758 -1.5753  0.7372
  674MOL0     H92969   7.177   4.502   1.402 -0.3584 -2.1154 -3.2180
  674MOL0     H92970   7.243   4.073   1.607 -1.5018  1.5898 -1.8599
  674MOL0     H92971   7.339   3.868   1.621  0.0839 -0.6049  0.8318
  674MOL0     H92972   7.509   3.883   1.628  0.0397  0.6574 -0.0284
  674MOL0     H92973   7.431   3.821   1.475 -0.0086  1.7957 -1.8780
  674MOL0     H92974   7.855   3.780   1.492  1.2351 -0.1037  0.1022
  674MOL0     H92975   8.037   3.635   1.392  3.8972  5.2687 -1.7110
  674MOL0     H92976   8.172   3.645   1.168 -3.2957 -0.0073  1.0563
  674MOL0     H92977   8.186   3.490   1.266 -0.6954  0.8227  0.6761
  674MOL0     H92978   8.333   3.430   1.084  0.6432 -0.2411  1.2806
  674MOL0     H92979   8.176   3.368   1.028 -0.8360  1.2717  0.5929
  674MOL0     H92980   8.253   3.653   0.968 -0.2168  0.2423  0.2636
  674MOL0     H92981   8.146   3.561   0.871  1.7607  2.1014 -1.5126
  674MOL0     H92982   8.372   3.422   0.802  0.8976  1.1505 -0.4981
  674MOL0     H92983   8.461   3.532   0.893 -0.3805  0.1699  0.6303
  674MOL0     H92984   8.477   3.583   0.666  1.6362 -0.2557  2.8855
  674MOL0     H92985   8.301   3.618   0.657  0.2047 -0.9300  0.4446
  674MOL0     H92986   8.511   3.761   0.813 -0.9218  1.6288  1.3213
  674MOL0     H92987   8.336   3.794   0.846  3.2354  6.6145  0.8467
  674MOL0     H92988   8.433   3.970   0.705 -1.8650 -0.8567  1.3912
  674MOL0     H92989   8.307   3.875   0.622 -0.5303  1.2243 -0.0385
  674MOL0     H92990   8.500   3.760   0.515  0.0265 -0.7642  0.9631
  674MOL0     H92991   8.607   3.879   0.586 -0.4844  0.5201  0.4681
  674MOL0     H92992   7.839   3.659   1.012  0.8022 -1.2154  0.3288
  674MOL0     H92993   7.661   3.816   1.117  0.0320 -0.2434 -1.7636
  674MOL0     H92994   7.556   4.249   1.290 -0.9976  0.9181 -0.5463
  674MOL0     H92995   7.397   4.402   1.383 -0.7788 -0.4059 -0.5913
  674MOL0     H92996   5.543   4.204   0.883  0.5943 -1.9162  0.2600
  674MOL0     H92997   5.334   4.110   0.855 -1.1052  0.0190 -1.2533
  674MOL0     H92998   4.984   3.977   0.905 -0.7280 -2.6484 -0.3705
  674MOL0     H92999   4.782   3.825   0.911 -3.2546 -0.9350 -1.7545
  674MOL0     H93000   4.554   3.746   0.759 -2.5030 -1.2149 -1.0399
  674MOL0     H93001   4.592   3.721   0.934  0.0686 -2.0462 -0.7096
  674MOL0     H93002   4.349   3.747   0.976 -2.1013  0.5535 -1.1649
  674MOL0     H93003   4.401   3.595   0.897 -1.3742 -0.0985  1.7590
  674MOL0     H93004   4.175   3.724   0.789 -1.6607  3.1457 -3.0046
  674MOL0     H93005   4.293   3.844   0.740 -0.3513  0.9048  1.0089
  674MOL0     H93006   4.333   3.542   0.687  3.9629 -0.8391 -1.6922
  674MOL0     H93007   4.418   3.681   0.602  0.1462  1.4232  0.7473
  674MOL0     H93008   4.065   3.656   0.384 -0.6335 -0.3934  0.9406
  674MOL0     H93009   4.537   4.161   0.844 -0.4849 -0.4358  1.4847
  674MOL0     H93010   4.743   4.394   0.964 -3.2784 -0.3034  1.4313
  674MOL0     H93011   4.748   4.408   0.786  1.0210  1.3490  1.2861
  674MOL0     H93012   4.595   4.374   0.862 -0.4448  1.8209 -2.5532
  675MOL0     O93013   9.243   6.243   8.930  0.3699  0.1586 -0.6834
  675MOL0     C93014   9.217   6.306   9.041 -0.3699  0.2520  1.6066
  675MOL0     O93015   9.192   6.434   9.044  0.5730 -0.8274 -0.6599
  675MOL0     C93016   9.249   6.520   8.956 -0.4255 -0.5749  0.4863
  675MOL0     C93017   9.219   6.658   8.976  0.2722  0.2257  0.6103
  675MOL0     C93018   9.276   6.766   8.910 -0.3397  0.8482 -0.4952
  675MOL0     C93019   9.364   6.737   8.808 -0.4789 -0.6370 -0.4736
  675MOL0     O93020   9.404   6.833   8.714 -0.1093 -0.6437  1.1772
  675MOL0     C93021   9.350   6.965   8.719  0.8489 -0.6669  0.4319
  675MOL0     C93022   9.432   7.058   8.816  0.5162 -0.3170 -0.5113
  675MOL0     C93023   9.583   7.062   8.789  0.5691  0.1445  0.1869
  675MOL0     C93024   9.603   7.130   8.653 -0.2263 -0.4672  0.2529
  675MOL0     C93025   9.759   7.156   8.633  1.0014 -0.1064  0.5933
  675MOL0     C93026   9.804   7.242   8.505 -0.3808 -0.7233  0.6745
  675MOL0     C93027   9.958   7.251   8.495 -0.3786  0.0901  0.0648
  675MOL0     C93028  10.007   7.263   8.352 -0.9895 -0.4096 -0.0285
  675MOL0     N93029  10.152   7.299   8.337 -0.2649  0.1859  0.3441
  675MOL0     C93030  10.226   7.290   8.221 -0.0676  0.1978 -0.6805
  675MOL0     C93031  10.347   7.344   8.253  0.9168  0.1294  0.7301
  675MOL0     C93032  10.460   7.333   8.165  0.3310 -1.1676 -0.7120
  675MOL0     C93033  10.553   7.249   8.265  0.2287  0.6015  0.3155
  675MOL0     C93034  10.673   7.184   8.192 -0.5000  0.4604  0.5140
  675MOL0     C93035  10.650   7.101   8.069  0.2407  0.1969 -0.1940
  675MOL0     O93036  10.764   7.027   8.019  0.2005 -0.1409 -0.4148
  675MOL0     C93037  10.880   7.096   7.978  1.0191  0.9506  0.2347
  675MOL0     C93038  11.007   7.039   7.985  0.1919  0.2885  0.4246
  675MOL0     C93039  11.123   7.108   7.960 -0.2574  0.2985  0.9044
  675MOL0     C93040  11.252   7.028   7.981  0.0359  0.2013 -0.4160
  675MOL0     C93041  11.109   7.241   7.912 -0.6231 -0.2476 -0.3844
  675MOL0     C93042  11.231   7.330   7.879  0.8251 -0.4444  0.5355
  675MOL0     O93043  11.213   7.429   7.782  0.3619  0.2137  0.5302
  675MOL0     C93044  11.307   7.511   7.740  0.0223  0.5528 -0.9866
  675MOL0     C93045  11.295   7.537   7.608 -0.3588 -0.4828 -0.5942
  675MOL0     C93046  11.392   7.619   7.541  0.2463 -0.7074 -0.2917
  675MOL0     C93047  11.502   7.679   7.616 -0.2178 -0.2305 -0.4811
  675MOL0     O93048  11.596   7.752   7.549  0.1620  0.0146  0.3528
  675MOL0     C93049  11.691   7.677   7.463 -0.0486 -0.8309 -0.2996
  675MOL0     C93050  11.794   7.762   7.395  0.2751 -0.3523  0.0281
  675MOL0     C93051  11.875   7.853   7.488  0.7312  0.5776  0.2293
  675MOL0     C93052  11.982   7.931   7.413  0.6070  0.2417 -0.5379
  675MOL0     C93053  12.083   8.011   7.512  0.0023 -0.2240  0.0232
  675MOL0     C93054  12.221   8.048   7.459 -0.1003  0.7295  0.3120
  675MOL0     C93055  12.309   8.113   7.560 -0.3701 -1.3827  0.6841
  675MOL0     C93056  12.426   8.190   7.502 -0.9240 -0.3854  0.3746
  675MOL0    Cl93057  12.533   8.210   7.646  0.7752 -0.0790  0.5934
  675MOL0     C93058  11.497   7.665   7.759 -0.5457 -0.0344  0.9336
  675MOL0     C93059  11.405   7.582   7.820  0.7363  0.6317 -0.2363
  675MOL0     O93060  11.336   7.314   7.939  0.0165  0.2115 -0.3044
  675MOL0     C93061  10.978   7.298   7.895 -0.4729  0.2311 -0.5344
  675MOL0     C93062  10.868   7.225   7.938  0.5773 -0.4213 -0.9920
  675MOL0     N93063  10.342   7.388   8.386 -0.0914  0.3313  0.5154
  675MOL0     N93064  10.222   7.362   8.434 -0.5787  0.3458  0.4946
  675MOL0     C93065   9.400   6.611   8.776  0.6542  0.2656 -0.4926
  675MOL0     C93066   9.344   6.501   8.851 -0.0217 -0.3490 -0.2305
  675MOL0     C93067   9.206   6.212   9.161  0.1792  0.4040  0.7945
  675MOL0     C93068   9.173   6.071   9.136  0.9549 -0.2273 -0.4333
  675MOL0     C93069   9.141   5.988   9.249  0.0601 -0.0531 -0.2257
  675MOL0     C93070   9.156   6.036   9.377 -0.8863  0.5589 -0.7094
  675MOL0     O93071   9.135   5.963   9.490  0.1371 -0.1313 -0.1287
  675MOL0     C93072   9.058   5.847   9.488  1.2017 -0.3735  1.0391
  675MOL0     C93073   8.921   5.855   9.434 -0.5784  0.1612 -0.5042
  675MOL0     C93074   8.835   5.947   9.515 -0.9605  0.3570  0.5284
  675MOL0     C93075   8.681   5.935   9.480 -0.1257 -0.2553  1.6369
  675MOL0     C93076   8.598   6.039   9.546 -0.8717 -1.0932 -0.6736
  675MOL0     C93077   8.539   6.126   9.611  0.7463  0.0642  0.1326
  675MOL0     C93078   9.193   6.170   9.399  0.0615 -0.2845  0.1266
  675MOL0     C93079   9.217   6.257   9.293  0.1783 -0.1548 -0.2217
  675MOL0     C93080   9.277   6.391   9.325  0.6381 -0.9842 -1.1108
  675MOL0     H93081   9.135   6.667   9.045 -0.0624 -3.8537  0.9867
  675MOL0     H93082   9.245   6.865   8.941  0.8892  0.5846  1.8169
  675MOL0     H93083   9.244   6.964   8.747  1.0695 -3.2646  1.4197
  675MOL0     H93084   9.347   7.016   8.622 -0.3755  1.5779  1.5778
  675MOL0     H93085   9.390   7.158   8.808 -0.6099 -0.8936 -2.9116
  675MOL0     H93086   9.430   7.014   8.916  1.0729 -1.3631 -0.9351
  675MOL0     H93087   9.617   7.116   8.878 -1.9939 -3.0350  3.3922
  675MOL0     H93088   9.631   6.965   8.802 -0.2511 -0.3974 -0.7084
  675MOL0     H93089   9.558   7.076   8.569 -1.8676  0.3566  0.5580
  675MOL0     H93090   9.545   7.222   8.662 -1.6914 -0.7102 -4.1195
  675MOL0     H93091   9.810   7.060   8.641 -1.0847 -1.1161  3.1099
  675MOL0     H93092   9.800   7.219   8.713  4.6580  0.8203 -1.7763
  675MOL0     H93093   9.760   7.213   8.409  0.7157 -0.1743 -0.0175
  675MOL0     H93094   9.770   7.346   8.512 -1.8026 -1.2595  2.4900
  675MOL0     H93095  10.009   7.160   8.530  0.2318  0.0136 -0.9818
  675MOL0     H93096   9.995   7.332   8.558 -1.5679  0.6456  0.0760
  675MOL0     H93097   9.992   7.167   8.302  2.6281 -2.9150  3.0773
  675MOL0     H93098   9.952   7.342   8.300 -0.7432 -2.0581 -3.0000
  675MOL0     H93099  10.195   7.237   8.131  0.7633 -1.2374 -0.1516
  675MOL0     H93100  10.500   7.434   8.157 -2.2056  0.2884  2.5126
  675MOL0     H93101  10.446   7.290   8.066  0.3038 -2.1403 -0.3053
  675MOL0     H93102  10.591   7.320   8.339  2.0863 -1.3099  1.2791
  675MOL0     H93103  10.487   7.173   8.307  0.1261 -0.1236 -1.0920
  675MOL0     H93104  10.743   7.267   8.177 -0.0910 -0.0928 -0.8416
  675MOL0     H93105  10.718   7.121   8.269  2.7579  0.8760 -0.8679
  675MOL0     H93106  10.580   7.019   8.080  0.2075 -0.1385 -2.3614
  675MOL0     H93107  10.593   7.155   7.992  0.0495 -1.2982 -1.1470
  675MOL0     H93108  11.009   6.944   8.036 -0.9256 -0.7179 -1.3118
  675MOL0     H93109  11.297   7.060   8.075 -0.3293 -1.9676  0.5325
  675MOL0     H93110  11.322   7.037   7.897 -2.8141  2.6544 -2.7559
  675MOL0     H93111  11.218   6.925   7.990 -0.3056  0.4401  1.3429
  675MOL0     H93112  11.206   7.507   7.554  0.5300 -2.4143 -1.0435
  675MOL0     H93113  11.381   7.616   7.433  0.1520 -2.2065 -0.2564
  675MOL0     H93114  11.754   7.603   7.512  0.5335 -1.4610 -1.9366
  675MOL0     H93115  11.645   7.620   7.381  0.5150  0.3819 -1.5017
  675MOL0     H93116  11.853   7.687   7.343 -1.0164 -1.9212  0.7555
  675MOL0     H93117  11.744   7.822   7.319 -1.2787 -3.0740 -1.2226
  675MOL0     H93118  11.923   7.799   7.570 -0.7885  0.1183  0.8485
  675MOL0     H93119  11.805   7.929   7.522  0.3471 -0.0566  0.8680
  675MOL0     H93120  11.939   7.995   7.335 -1.1989 -1.8989 -1.4165
  675MOL0     H93121  12.048   7.861   7.361  1.6869  0.8731 -0.0481
  675MOL0     H93122  12.026   8.102   7.532 -1.0958 -1.0379  0.7315
  675MOL0     H93123  12.106   7.941   7.593  0.2407 -3.0675 -2.3320
  675MOL0     H93124  12.210   8.100   7.363  2.0065 -2.2197 -1.7200
  675MOL0     H93125  12.278   7.958   7.438 -0.0537  0.4956  1.3864
  675MOL0     H93126  12.331   8.034   7.633 -1.4472 -3.2048 -0.8627
  675MOL0     H93127  12.258   8.191   7.617  2.1218  0.2701  0.7864
  675MOL0     H93128  12.403   8.290   7.464  1.0658 -0.1560 -0.3595
  675MOL0     H93129  12.481   8.135   7.424  1.2988  2.3091 -0.1118
  675MOL0     H93130  11.569   7.726   7.813 -0.5490  0.9580 -0.1370
  675MOL0     H93131  11.400   7.576   7.928 -0.9588  2.1606 -0.1797
  675MOL0     H93132  10.964   7.395   7.848 -1.9306 -0.9337 -2.7009
  675MOL0     H93133  10.772   7.274   7.928  0.6665 -0.3123 -1.3439
  675MOL0     H93134   9.474   6.592   8.698  0.6296 -2.1532  0.0092
  675MOL0     H93135   9.377   6.399   8.833  1.8962 -0.5967  3.5916
  675MOL0     H93136   9.191   6.024   9.040  0.2137 -2.4906  0.4699
  675MOL0     H93137   9.102   5.892   9.215  1.7492 -0.5677 -0.8682
  675MOL0     H93138   9.102   5.774   9.419 -1.1730 -0.8558 -0.0942
  675MOL0     H93139   9.061   5.809   9.590  1.8246  0.5316  1.3674
  675MOL0     H93140   8.876   5.756   9.440 -0.3426  0.1460  1.4531
  675MOL0     H93141   8.916   5.890   9.330 -1.2019  1.9517  0.0967
  675MOL0     H93142   8.833   5.921   9.621 -0.9432 -0.0151  0.4366
  675MOL0     H93143   8.879   6.047   9.502 -1.1085  0.7561  2.7660
  675MOL0     H93144   8.638   5.835   9.491 -0.5907 -0.6307 -2.1350
  675MOL0     H93145   8.664   5.958   9.374 -0.4666  0.9661  1.9443
  675MOL0     H93146   8.473   6.191   9.666  0.5704  1.0566 -1.2262
  675MOL0     H93147   9.195   6.206   9.502 -2.7598  0.9067 -0.1599
  675MOL0     H93148   9.302   6.401   9.431 -1.8288  1.4743 -0.6440
  675MOL0     H93149   9.367   6.410   9.267 -0.1638  0.2552 -1.9822
  675MOL0     H93150   9.213   6.476   9.300  1.2722 -0.0096  0.4058
  676MOL0     O93151   3.547   4.868  10.283 -0.0197  0.5668  0.3693
  676MOL0     C93152   3.504   4.953  10.362 -0.5222  0.3972 -0.6755
  676MOL0     O93153   3.531   5.085  10.349 -0.7352 -0.4025 -0.0420
  676MOL0     C93154   3.626   5.130  10.257 -0.4638 -0.2222  0.5444
  676MOL0     C93155   3.761   5.091  10.255  0.5573 -0.0327  0.3560
  676MOL0     C93156   3.846   5.160  10.162 -0.6062 -1.3433 -0.1155
  676MOL0     C93157   3.805   5.258  10.074 -0.1261  0.7788 -0.2985
  676MOL0     O93158   3.906   5.314   9.993 -0.3964  0.1904  0.4396
  676MOL0     C93159   3.866   5.407   9.887  0.3349  0.3261  0.0479
  676MOL0     C93160   3.984   5.444   9.789  0.5534  0.0647 -0.4398
  676MOL0     C93161   3.924   5.525   9.669 -0.1195  0.1831  0.1999
  676MOL0     C93162   3.861   5.668   9.703 -0.1357  0.2799  0.3607
  676MOL0     C93163   3.825   5.758   9.590  0.1778 -0.1104 -0.1112
  676MOL0     C93164   3.949   5.855   9.547 -0.2021 -0.5573  0.5878
  676MOL0     C93165   3.939   5.894   9.396 -0.4128  0.8388  0.3473
  676MOL0     C93166   3.845   6.016   9.364  0.4957 -0.4399 -0.2342
  676MOL0     N93167   3.703   6.011   9.415  0.5004  0.2096  0.9280
  676MOL0     C93168   3.614   6.108   9.458  0.1995  0.1084  0.8589
  676MOL0     C93169   3.496   6.053   9.461  0.2456  0.3687 -0.3436
  676MOL0     C93170   3.368   6.122   9.518  0.6027 -0.5590  0.0884
  676MOL0     C93171   3.375   6.214   9.645 -1.0227 -0.1003 -0.8161
  676MOL0     C93172   3.469   6.164   9.760  0.5114 -0.5640 -0.7584
  676MOL0     C93173   3.443   6.013   9.785 -0.2987 -0.3791  0.0374
  676MOL0     O93174   3.503   5.971   9.908 -0.0963  0.1244  0.1635
  676MOL0     C93175   3.455   5.857   9.970 -0.0339  0.1858 -0.2470
  676MOL0     C93176   3.517   5.812  10.091 -1.0656  0.4434 -0.4189
  676MOL0     C93177   3.481   5.699  10.158 -0.3243 -0.3404 -0.9110
  676MOL0     C93178   3.571   5.661  10.269 -0.9988  0.5566  0.0201
  676MOL0     C93179   3.379   5.614  10.109 -0.1623  0.0368  0.4588
  676MOL0     C93180   3.316   5.498  10.181  0.6392 -0.9462  0.2374
  676MOL0     O93181   3.211   5.437  10.127  0.1192  0.2592 -0.1446
  676MOL0     C93182   3.163   5.332  10.191  0.8415  0.0594  0.4315
  676MOL0     C93183   3.054   5.343  10.274 -0.1043  0.3386 -0.2868
  676MOL0     C93184   2.994   5.227  10.327  0.5598 -0.6497 -0.0152
  676MOL0     C93185   3.039   5.098  10.304 -0.0665  0.6501 -0.1914
  676MOL0     O93186   2.955   4.994  10.349 -0.2633  0.5991 -0.2588
  676MOL0     C93187   3.030   4.893  10.424 -1.4592 -0.6864 -0.4363
  676MOL0     C93188   2.932   4.797  10.503 -0.8008  0.3915 -0.0407
  676MOL0     C93189   2.858   4.850  10.621 -0.8534 -0.0965  0.3630
  676MOL0     C93190   2.771   4.744  10.684  0.3204  0.8591  0.1817
  676MOL0     C93191   2.671   4.803  10.778 -0.5322 -0.2354  0.1026
  676MOL0     C93192   2.571   4.703  10.829  0.9461  0.0477 -0.8540
  676MOL0     C93193   2.464   4.771  10.922 -0.6293 -0.6508  1.3483
  676MOL0     C93194   2.358   4.676  10.964  0.0425  0.2484  0.4105
  676MOL0    Cl93195   2.434   4.557  11.084  0.2798  0.6671  0.3797
  676MOL0     C93196   3.161   5.085  10.229  0.8622  0.2331  0.2206
  676MOL0     C93197   3.214   5.203  10.173 -0.7939  0.1168 -0.9971
  676MOL0     O93198   3.359   5.473  10.294  0.2477 -0.9484 -0.1876
  676MOL0     C93199   3.324   5.659   9.987  0.7700 -0.6336  1.4107
  676MOL0     C93200   3.359   5.776   9.917 -0.2656  0.2065  0.9313
  676MOL0     N93201   3.497   5.916   9.439  0.8148 -0.5578 -0.4251
  676MOL0     N93202   3.621   5.898   9.408 -1.0085  0.0388  0.1374
  676MOL0     C93203   3.672   5.297  10.087 -0.3543 -0.4788  0.8636
  676MOL0     C93204   3.586   5.235  10.177 -0.0503 -0.1845  1.3763
  676MOL0     C93205   3.426   4.918  10.489  0.0426  0.0297 -0.2167
  676MOL0     C93206   3.360   5.030  10.553 -0.0607  0.0596  0.3372
  676MOL0     C93207   3.282   5.022  10.671 -0.0425 -0.6712  0.9221
  676MOL0     C93208   3.282   4.904  10.741  0.4488  0.7036 -0.4905
  676MOL0     O93209   3.212   4.896  10.859 -0.4728 -0.0606 -0.7301
  676MOL0     C93210   3.259   4.814  10.970  0.3170  0.1778  0.5617
  676MOL0     C93211   3.141   4.739  11.037 -0.0054  0.4864  0.8358
  676MOL0     C93212   3.028   4.831  11.074  0.0004  1.0037  0.2438
  676MOL0     C93213   2.935   4.779  11.191 -0.8317 -0.0859 -0.3669
  676MOL0     C93214   2.981   4.837  11.314 -0.1950  0.2019 -0.8233
  676MOL0     C93215   3.006   4.897  11.415 -0.7841  0.0761  0.5547
  676MOL0     C93216   3.345   4.792  10.676  0.6229 -0.2062 -0.3288
  676MOL0     C93217   3.416   4.790  10.556 -0.7384 -0.1053 -0.2841
  676MOL0     C93218   3.481   4.658  10.509  0.8275 -0.2858 -0.2486
  676MOL0     H93219   3.803   5.022  10.327  3.0269  0.3117 -0.6433
  676MOL0     H93220   3.953   5.139  10.162  0.1882  1.8786 -2.5117
  676MOL0     H93221   3.822   5.496   9.933  0.1183  0.0847  0.3008
  676MOL0     H93222   3.789   5.355   9.829  1.6441 -1.1226 -0.4535
  676MOL0     H93223   4.056   5.504   9.845 -0.2180  0.3086  0.3141
  676MOL0     H93224   4.033   5.351   9.757  0.0356 -0.6847  0.8892
  676MOL0     H93225   4.011   5.538   9.604  0.9639 -1.4810  1.2341
  676MOL0     H93226   3.850   5.469   9.610  2.3034 -1.1842 -1.7134
  676MOL0     H93227   3.770   5.628   9.749  0.5508 -0.3978  1.1388
  676MOL0     H93228   3.915   5.711   9.787  2.0391 -1.5872  0.0080
  676MOL0     H93229   3.742   5.821   9.626  1.4694  1.3565  0.4116
  676MOL0     H93230   3.792   5.703   9.502 -0.2444 -2.8123  1.6231
  676MOL0     H93231   3.941   5.945   9.610  0.3150  0.0613 -0.2187
  676MOL0     H93232   4.037   5.796   9.573 -1.0648 -1.4468  1.5938
  676MOL0     H93233   3.901   5.811   9.335 -0.3030  2.3678 -1.9335
  676MOL0     H93234   4.038   5.911   9.352  0.1618  1.4588  1.8115
  676MOL0     H93235   3.894   6.101   9.412 -0.7698  0.1283  0.1009
  676MOL0     H93236   3.838   6.038   9.257 -0.2380 -0.5154 -0.2090
  676MOL0     H93237   3.635   6.214   9.471  3.0148 -0.2392  0.0078
  676MOL0     H93238   3.304   6.035   9.534 -1.6472  1.1617  0.9458
  676MOL0     H93239   3.317   6.180   9.441 -0.4696 -0.5017  0.8307
  676MOL0     H93240   3.417   6.307   9.606  0.6957 -0.5724 -0.1483
  676MOL0     H93241   3.274   6.235   9.683  0.2403  1.8412  1.7803
  676MOL0     H93242   3.573   6.185   9.733  1.0173 -0.3942  1.1728
  676MOL0     H93243   3.437   6.216   9.851  0.8872 -0.8197 -0.4801
  676MOL0     H93244   3.335   5.996   9.781  0.1393 -3.8431 -0.4138
  676MOL0     H93245   3.497   5.949   9.714  1.4852  0.4537  0.5970
  676MOL0     H93246   3.593   5.877  10.132 -2.8177  1.7607  0.8903
  676MOL0     H93247   3.636   5.580  10.235  0.1495  1.2551  0.5059
  676MOL0     H93248   3.519   5.631  10.360  1.2104  1.1365  1.5260
  676MOL0     H93249   3.635   5.741  10.306 -0.3318 -0.5877  1.4310
  676MOL0     H93250   3.021   5.443  10.300 -1.8669  0.0932 -1.4442
  676MOL0     H93251   2.902   5.248  10.381  0.7306 -1.2264  0.5180
  676MOL0     H93252   3.093   4.833  10.358 -0.7929 -0.0321 -0.4076
  676MOL0     H93253   3.089   4.935  10.505  1.4162 -0.6211 -2.4268
  676MOL0     H93254   2.868   4.751  10.427 -0.1669 -2.0413  0.7943
  676MOL0     H93255   2.984   4.713  10.551  2.0873  1.0001 -1.8199
  676MOL0     H93256   2.804   4.943  10.598  0.4011  0.9524  1.4542
  676MOL0     H93257   2.929   4.880  10.698 -0.6326  1.5619 -0.4314
  676MOL0     H93258   2.840   4.681  10.741  1.6023  0.4144 -1.7847
  676MOL0     H93259   2.713   4.681  10.616  2.7616 -1.2019 -0.1062
  676MOL0     H93260   2.719   4.857  10.861 -1.1197  0.4512  0.0114
  676MOL0     H93261   2.620   4.880  10.720 -0.6666 -2.7226 -3.3877
  676MOL0     H93262   2.623   4.637  10.899 -0.0994  1.8550  1.7925
  676MOL0     H93263   2.523   4.637  10.756 -1.7495  2.1807 -1.1687
  676MOL0     H93264   2.419   4.842  10.852  2.1846 -1.8686 -2.0038
  676MOL0     H93265   2.508   4.827  11.006 -1.8694 -0.0710  1.6390
  676MOL0     H93266   2.320   4.619  10.879  0.2520  1.5932 -0.6262
  676MOL0     H93267   2.279   4.724  11.023  0.8819 -0.5088  2.2024
  676MOL0     H93268   3.204   4.993  10.192 -0.2343 -0.4034  0.4814
  676MOL0     H93269   3.301   5.197  10.108 -0.0095 -0.2602  0.0530
  676MOL0     H93270   3.246   5.602   9.937  0.5298  0.9365 -0.0954
  676MOL0     H93271   3.304   5.798   9.827  0.0703  1.2576  0.9747
  676MOL0     H93272   3.632   5.374  10.022 -3.4266 -2.4184  0.2039
  676MOL0     H93273   3.484   5.272  10.185 -1.1319 -3.1636  2.4997
  676MOL0     H93274   3.340   5.125  10.504 -0.9337 -0.6146 -0.6523
  676MOL0     H93275   3.223   5.107  10.705 -2.7492 -1.0613 -2.1950
  676MOL0     H93276   3.341   4.747  10.941 -0.1889 -1.3522  2.4405
  676MOL0     H93277   3.298   4.886  11.043 -3.3660  4.3920 -1.1551
  676MOL0     H93278   3.174   4.671  11.117 -0.8400 -1.2008 -0.1817
  676MOL0     H93279   3.101   4.669  10.963  3.7967  0.2032 -1.1942
  676MOL0     H93280   3.070   4.928  11.103 -0.8948  0.7801  2.4749
  676MOL0     H93281   2.967   4.847  10.985  2.4218  1.5820 -1.4230
  676MOL0     H93282   2.937   4.670  11.187  2.5365 -0.1365  0.2991
  676MOL0     H93283   2.830   4.807  11.172 -1.1014 -0.2479  0.7983
  676MOL0     H93284   3.045   4.960  11.493  3.1032  1.9448 -2.5426
  676MOL0     H93285   3.316   4.702  10.730 -2.1659  1.4260  1.1027
  676MOL0     H93286   3.439   4.568  10.556  2.2519 -0.5340  0.5766
  676MOL0     H93287   3.472   4.652  10.400 -1.7046 -0.3529 -0.1030
  676MOL0     H93288   3.582   4.663  10.549 -0.4578  1.4763  3.1491
  677MOL0     O93289   3.480   3.358   0.509 -0.3894  0.1113  0.9700
  677MOL0     C93290   3.447   3.425   0.602 -0.2894  0.0381 -0.5589
  677MOL0     O93291   3.521   3.472   0.700 -0.9094  1.5159  0.2356
  677MOL0     C93292   3.659   3.447   0.695 -0.1953  0.7758 -0.3646
  677MOL0     C93293   3.701   3.319   0.687 -0.1832 -0.3064 -0.1379
  677MOL0     C93294   3.843   3.295   0.706 -1.1772 -0.6969  0.0123
  677MOL0     C93295   3.935   3.398   0.722  0.8165  0.5277 -0.4688
  677MOL0     O93296   4.067   3.386   0.737  0.1397 -1.1903  0.2260
  677MOL0     C93297   4.127   3.263   0.772 -0.9464  0.6499 -0.4268
  677MOL0     C93298   4.202   3.200   0.643  0.5464  0.2063 -0.4773
  677MOL0     C93299   4.327   3.272   0.590  1.4211 -0.7713 -0.2417
  677MOL0     C93300   4.383   3.217   0.464  0.1397  0.1184  0.0150
  677MOL0     C93301   4.517   3.285   0.417 -0.3846 -0.4356  0.0578
  677MOL0     C93302   4.625   3.240   0.520  0.0799 -0.7979 -0.3160
  677MOL0     C93303   4.762   3.274   0.469 -1.4704  0.9570 -0.8136
  677MOL0     C93304   4.799   3.426   0.440  0.4925 -0.1146  0.4569
  677MOL0     N93305   4.813   3.514   0.551  0.7014 -0.3765 -0.1648
  677MOL0     C93306   4.936   3.544   0.601 -0.6299  0.1249  0.1777
  677MOL0     C93307   4.918   3.615   0.716 -0.1612 -0.6745 -0.0295
  677MOL0     C93308   5.025   3.677   0.806 -0.6380  0.3314 -0.1955
  677MOL0     C93309   5.138   3.595   0.858  0.2071  0.0392  0.0709
  677MOL0     C93310   5.220   3.670   0.964  0.1942  0.3228  0.4433
  677MOL0     C93311   5.331   3.761   0.890  0.5389 -0.3675 -0.1144
  677MOL0     O93312   5.420   3.799   0.998  0.2945 -0.2627 -0.0033
  677MOL0     C93313   5.551   3.831   0.962  0.9555  0.0539  0.9610
  677MOL0     C93314   5.599   3.832   0.836 -0.6475 -0.9268 -0.3893
  677MOL0     C93315   5.733   3.874   0.808  0.1920 -0.3196 -0.4757
  677MOL0     C93316   5.768   3.878   0.658 -0.0842 -0.4591  0.5533
  677MOL0     C93317   5.822   3.910   0.916  0.3795 -0.2112 -0.2031
  677MOL0     C93318   5.961   3.965   0.906 -0.2962 -0.2198  0.8066
  677MOL0     O93319   6.026   4.000   1.017 -1.1502 -0.5713  0.6233
  677MOL0     C93320   6.161   4.045   1.017 -0.0245 -0.3932  0.2189
  677MOL0     C93321   6.205   4.182   1.046  0.7447  0.3637  0.7748
  677MOL0     C93322   6.343   4.212   1.053  0.1451  0.1584  0.5902
  677MOL0     C93323   6.440   4.113   1.029  0.3947 -0.3563  0.0741
  677MOL0     O93324   6.577   4.132   1.041  0.4118 -0.2606 -0.2416
  677MOL0     C93325   6.630   4.263   1.089  0.2037 -0.4515  0.4234
  677MOL0     C93326   6.776   4.239   1.112 -0.6778 -0.7054  0.4498
  677MOL0     C93327   6.867   4.198   0.993  0.2407 -0.6781  0.2765
  677MOL0     C93328   7.005   4.262   0.985  0.6966 -0.0527 -0.4798
  677MOL0     C93329   7.093   4.206   1.098 -0.4002  0.1138  0.2387
  677MOL0     C93330   7.141   4.061   1.057  0.1185  0.4989  0.7808
  677MOL0     C93331   7.227   4.014   1.175 -0.1453 -0.8000  0.2631
  677MOL0     C93332   7.233   3.862   1.172  0.8218 -0.6626  0.7525
  677MOL0    Cl93333   7.303   3.788   1.020  0.3120 -0.3142  0.1422
  677MOL0     C93334   6.407   3.989   0.986 -0.3153  0.0435  0.1985
  677MOL0     C93335   6.269   3.951   0.993 -0.5954  0.0122 -0.4964
  677MOL0     O93336   5.999   3.994   0.788 -0.1735  0.1774  0.8894
  677MOL0     C93337   5.763   3.897   1.040 -0.1023 -0.0093 -0.6226
  677MOL0     C93338   5.634   3.863   1.062  0.5622 -0.7830  0.1997
  677MOL0     N93339   4.783   3.607   0.745 -0.4595 -0.5552 -0.1141
  677MOL0     N93340   4.719   3.565   0.639 -0.2887  0.5264  0.1887
  677MOL0     C93341   3.886   3.527   0.732  0.4282  0.3847  0.4425
  677MOL0     C93342   3.752   3.552   0.712  0.3012 -0.3326  0.2767
  677MOL0     C93343   3.306   3.479   0.616  0.0814 -0.2662 -0.2365
  677MOL0     C93344   3.277   3.580   0.721  0.2486 -0.6833  0.1099
  677MOL0     C93345   3.148   3.633   0.737  0.3820 -0.3445  0.6954
  677MOL0     C93346   3.039   3.586   0.657 -0.7285  0.8852 -0.4911
  677MOL0     O93347   2.910   3.621   0.652  0.2057 -0.7144  0.2647
  677MOL0     C93348   2.865   3.685   0.771  0.3665 -0.0810 -0.4359
  677MOL0     C93349   2.712   3.688   0.791 -0.7921  0.2011 -0.0108
  677MOL0     C93350   2.663   3.733   0.659  0.5941  0.7202  0.1795
  677MOL0     C93351   2.509   3.764   0.653  0.5844  0.0778  0.8158
  677MOL0     C93352   2.477   3.810   0.519  0.5531  0.1649 -0.3744
  677MOL0     C93353   2.473   3.864   0.407  0.4546 -0.7316  0.5657
  677MOL0     C93354   3.066   3.483   0.558  0.2575 -0.4270  0.0567
  677MOL0     C93355   3.204   3.436   0.538 -0.2841  0.0752  0.0326
  677MOL0     C93356   3.210   3.319   0.445 -0.6808  0.2729 -0.1953
  677MOL0     H93357   3.627   3.240   0.678 -0.8443  0.1330  1.1942
  677MOL0     H93358   3.891   3.198   0.702  0.0533 -0.1498  1.0590
  677MOL0     H93359   4.052   3.198   0.818 -0.2290  0.8914  1.1092
  677MOL0     H93360   4.214   3.287   0.834 -1.2051  2.2567 -0.6226
  677MOL0     H93361   4.240   3.101   0.667  2.7148  1.2661  0.7511
  677MOL0     H93362   4.126   3.184   0.566 -1.3057 -2.6390  1.7118
  677MOL0     H93363   4.284   3.371   0.573  1.1826 -0.7275  0.5657
  677MOL0     H93364   4.402   3.285   0.669  0.1823  2.7629  0.5156
  677MOL0     H93365   4.382   3.109   0.480 -3.0868  0.1020  0.3601
  677MOL0     H93366   4.304   3.230   0.390  1.4331  1.6560 -1.1717
  677MOL0     H93367   4.499   3.392   0.407 -0.6049 -0.5795 -1.3293
  677MOL0     H93368   4.531   3.248   0.314 -4.0755  0.4410 -0.9006
  677MOL0     H93369   4.615   3.301   0.610  0.6062 -0.1616 -0.6803
  677MOL0     H93370   4.610   3.135   0.546 -0.6432 -0.5389  0.3375
  677MOL0     H93371   4.782   3.218   0.377 -1.2457 -2.2490  1.0421
  677MOL0     H93372   4.843   3.245   0.537  0.7466  0.8055 -3.3574
  677MOL0     H93373   4.890   3.438   0.381  1.4296  0.5928  1.9608
  677MOL0     H93374   4.715   3.471   0.387 -0.5763  1.3194  3.1295
  677MOL0     H93375   5.036   3.518   0.567  0.1908  1.6636  1.2802
  677MOL0     H93376   4.962   3.712   0.888 -1.6920  0.1236 -0.8902
  677MOL0     H93377   5.073   3.760   0.753 -0.7408  0.4751 -0.0617
  677MOL0     H93378   5.100   3.501   0.899 -0.9869 -0.0339 -1.1234
  677MOL0     H93379   5.202   3.575   0.772  0.4273  1.8008 -0.2072
  677MOL0     H93380   5.170   3.725   1.044  2.4585  1.4169  1.2096
  677MOL0     H93381   5.275   3.604   1.031 -2.3732 -1.6092  0.7733
  677MOL0     H93382   5.379   3.710   0.806  1.0446  0.8850 -0.5994
  677MOL0     H93383   5.275   3.845   0.849  0.3638 -1.1749 -1.6078
  677MOL0     H93384   5.536   3.801   0.753 -1.6930 -3.4891  1.2377
  677MOL0     H93385   5.769   3.982   0.627 -2.6865 -0.5184  0.0347
  677MOL0     H93386   5.684   3.832   0.603  0.2390 -1.0905  0.5753
  677MOL0     H93387   5.865   3.842   0.622  0.0660  0.9343 -0.5263
  677MOL0     H93388   6.139   4.264   1.073  1.6017  0.6880  1.9543
  677MOL0     H93389   6.376   4.312   1.080  1.1502 -0.4406  1.6204
  677MOL0     H93390   6.611   4.337   1.010  1.1976 -1.1717 -0.5133
  677MOL0     H93391   6.583   4.304   1.179 -0.8772 -1.0291  0.1386
  677MOL0     H93392   6.813   4.335   1.149 -0.2932  0.2840 -2.3063
  677MOL0     H93393   6.794   4.168   1.194 -1.1815 -0.7872  0.4895
  677MOL0     H93394   6.817   4.232   0.901  0.3784 -0.9599  0.0966
  677MOL0     H93395   6.867   4.090   0.975  0.5465 -0.2823 -2.5720
  677MOL0     H93396   7.000   4.371   0.994 -0.6138 -0.2456  2.0823
  677MOL0     H93397   7.052   4.239   0.889  1.8020 -1.2876  0.3019
  677MOL0     H93398   7.177   4.275   1.114 -2.5491  2.0891  4.6226
  677MOL0     H93399   7.030   4.204   1.187 -1.8415  0.8773 -0.7280
  677MOL0     H93400   7.198   4.067   0.964  1.9190 -1.2743  1.6916
  677MOL0     H93401   7.055   3.994   1.051  0.8208 -0.4346  0.9132
  677MOL0     H93402   7.181   4.041   1.271  1.6954  0.0621  0.9685
  677MOL0     H93403   7.321   4.065   1.149 -1.1243  1.1677  0.3713
  677MOL0     H93404   7.131   3.824   1.185  0.6781  0.0358  1.8330
  677MOL0     H93405   7.280   3.827   1.264  1.5338 -0.9215  0.3014
  677MOL0     H93406   6.482   3.922   0.945 -1.6964 -1.3040 -0.2542
  677MOL0     H93407   6.240   3.855   0.953  0.4971  0.3716 -2.2808
  677MOL0     H93408   5.824   3.923   1.126  0.3483 -0.7891 -0.6958
  677MOL0     H93409   5.586   3.873   1.159 -1.1307  1.6788 -0.7799
  677MOL0     H93410   3.952   3.611   0.754  2.7653 -1.5201  1.1697
  677MOL0     H93411   3.709   3.651   0.729  0.4219 -0.4078  1.0665
  677MOL0     H93412   3.359   3.609   0.787  0.6131 -2.6674  0.5860
  677MOL0     H93413   3.136   3.704   0.818  0.3756 -0.1950  0.5648
  677MOL0     H93414   2.913   3.634   0.856 -0.3078 -1.9614 -1.1369
  677MOL0     H93415   2.904   3.786   0.757 -3.3596  1.4584 -0.7758
  677MOL0     H93416   2.684   3.754   0.874  0.7593  0.1974  0.5376
  677MOL0     H93417   2.678   3.590   0.824 -1.4832 -0.0781 -1.4758
  677MOL0     H93418   2.718   3.823   0.631  1.8188  0.0774  0.4724
  677MOL0     H93419   2.691   3.659   0.584 -1.0136  1.3925 -1.1571
  677MOL0     H93420   2.493   3.846   0.723  2.7952  0.0414  1.4313
  677MOL0     H93421   2.447   3.682   0.692  0.7086  0.6502  2.2901
  677MOL0     H93422   2.457   3.907   0.311  1.8478  0.7385  0.9542
  677MOL0     H93423   2.984   3.449   0.496  0.9713  2.4685 -2.7275
  677MOL0     H93424   3.249   3.246   0.516 -3.2553 -1.4624 -0.4661
  677MOL0     H93425   3.113   3.288   0.406 -1.2095  1.0854  0.4301
  677MOL0     H93426   3.271   3.329   0.355 -1.0521 -0.8823 -0.5833
  678MOL0     O93427   2.279   8.846   1.246 -0.4660  0.7173 -0.4109
  678MOL0     C93428   2.350   8.835   1.344  0.3076 -0.5926  1.0632
  678MOL0     O93429   2.483   8.839   1.347  0.4058 -0.6003  0.2865
  678MOL0     C93430   2.558   8.831   1.230  0.0695  0.5123 -0.3402
  678MOL0     C93431   2.574   8.941   1.147  0.2184  0.0324  0.2072
  678MOL0     C93432   2.636   8.934   1.027  0.3326  0.0067  0.0273
  678MOL0     C93433   2.705   8.816   0.996  0.0488  0.6864 -0.1000
  678MOL0     O93434   2.783   8.836   0.888  0.6188 -1.1504  0.0326
  678MOL0     C93435   2.912   8.786   0.858  0.3517  0.9668  0.1206
  678MOL0     C93436   3.011   8.824   0.970  0.1874 -0.3261 -0.1423
  678MOL0     C93437   3.146   8.762   0.945 -0.5334 -0.3723 -0.0716
  678MOL0     C93438   3.223   8.839   0.843 -0.6194 -0.6462  0.0332
  678MOL0     C93439   3.358   8.781   0.820  0.1965  0.8780 -0.3461
  678MOL0     C93440   3.433   8.879   0.728 -0.9062  0.4357  0.6054
  678MOL0     C93441   3.577   8.835   0.711 -0.1236 -0.1884  0.0728
  678MOL0     C93442   3.650   8.909   0.603  0.1971  0.7639 -0.1463
  678MOL0     N93443   3.687   9.044   0.660  0.6288 -0.4643 -0.7792
  678MOL0     C93444   3.785   9.065   0.755 -0.5436 -0.2674  0.3770
  678MOL0     C93445   3.782   9.201   0.771 -0.1829 -0.0307 -0.5533
  678MOL0     C93446   3.877   9.285   0.849 -0.0667 -0.6565 -0.8542
  678MOL0     C93447   3.812   9.323   0.987 -0.6418  0.5044 -0.0213
  678MOL0     C93448   3.899   9.425   1.062  0.8622 -0.6115  0.4987
  678MOL0     C93449   4.038   9.369   1.106 -0.6947  0.6444 -0.0614
  678MOL0     O93450   4.015   9.291   1.223 -0.0980 -0.5832  0.1283
  678MOL0     C93451   4.120   9.230   1.274 -0.9092  0.4808  0.0471
  678MOL0     C93452   4.254   9.271   1.248 -0.1595  0.8285  0.1923
  678MOL0     C93453   4.365   9.194   1.291 -0.0272 -0.0117 -0.0791
  678MOL0     C93454   4.506   9.236   1.238 -1.2458  0.0497 -0.5991
  678MOL0     C93455   4.340   9.068   1.359  0.0548 -0.4335 -0.0813
  678MOL0     C93456   4.452   8.973   1.400 -0.2276  0.5370 -0.7054
  678MOL0     O93457   4.570   8.984   1.332 -0.3389 -0.2671 -0.4980
  678MOL0     C93458   4.684   8.935   1.396 -0.8409  0.0112  0.0090
  678MOL0     C93459   4.704   8.797   1.406 -0.7887 -0.2199 -0.0944
  678MOL0     C93460   4.822   8.749   1.449 -0.6196 -0.4833  0.8277
  678MOL0     C93461   4.929   8.830   1.484  0.7849 -0.1041  0.0212
  678MOL0     O93462   5.053   8.772   1.520  0.2366  0.7838  1.2644
  678MOL0     C93463   5.156   8.854   1.469  0.1215  0.1143 -0.0309
  678MOL0     C93464   5.297   8.788   1.512 -0.6528 -0.2887  0.1870
  678MOL0     C93465   5.336   8.660   1.430  0.8264  0.0775 -1.4579
  678MOL0     C93466   5.355   8.690   1.285 -0.0417  0.0712  0.0093
  678MOL0     C93467   5.508   8.675   1.244  0.6030  0.1271  0.9975
  678MOL0     C93468   5.561   8.535   1.251 -0.0780  0.1701  0.1688
  678MOL0     C93469   5.703   8.521   1.191  1.1081  0.1152  0.5383
  678MOL0     C93470   5.772   8.387   1.235 -0.8771 -0.9051  0.1068
  678MOL0    Cl93471   5.828   8.405   1.407 -0.0237 -0.0636  0.7294
  678MOL0     C93472   4.898   8.966   1.499 -0.6046  0.5631  0.0303
  678MOL0     C93473   4.790   9.020   1.441 -0.0021  0.0527  0.9578
  678MOL0     O93474   4.434   8.902   1.494  0.1844 -0.7816  0.4051
  678MOL0     C93475   4.202   9.034   1.380  0.2439  0.0247 -0.5236
  678MOL0     C93476   4.101   9.115   1.345  0.0293 -0.6668  0.2028
  678MOL0     N93477   3.671   9.249   0.704  0.4558  0.0089 -0.0537
  678MOL0     N93478   3.614   9.157   0.638 -0.3547 -0.1896 -0.4090
  678MOL0     C93479   2.695   8.702   1.080 -0.1115 -0.0598 -1.1238
  678MOL0     C93480   2.620   8.704   1.204  0.1066 -0.4441  1.1963
  678MOL0     C93481   2.278   8.818   1.479  0.2560  0.1922  0.0319
  678MOL0     C93482   2.358   8.832   1.593 -0.3710 -0.7029 -0.0203
  678MOL0     C93483   2.321   8.819   1.727  0.2115  0.5931  0.3070
  678MOL0     C93484   2.198   8.769   1.752  0.4612  0.4051 -0.0587
  678MOL0     O93485   2.149   8.728   1.878  0.0750  0.0659  0.6063
  678MOL0     C93486   2.226   8.732   1.994  0.1727 -0.4693 -0.5730
  678MOL0     C93487   2.328   8.626   2.018 -0.0904  0.4306  0.5866
  678MOL0     C93488   2.406   8.649   2.150 -0.7276 -0.0834 -0.0472
  678MOL0     C93489   2.434   8.517   2.228  0.4437 -1.0105  0.0614
  678MOL0     C93490   2.316   8.466   2.292  0.4996 -0.2016  0.9005
  678MOL0     C93491   2.220   8.419   2.355 -0.7522 -0.8920  0.8963
  678MOL0     C93492   2.110   8.768   1.647 -0.4983 -0.7627  0.2345
  678MOL0     C93493   2.140   8.797   1.514 -0.3849  0.0430  0.1521
  678MOL0     C93494   2.035   8.798   1.414 -0.1354 -0.2657 -0.2967
  678MOL0     H93495   2.506   9.021   1.174 -1.0124 -1.3940  1.5836
  678MOL0     H93496   2.642   9.023   0.966  0.0608  0.0519  0.0656
  678MOL0     H93497   2.952   8.827   0.765  0.3057 -1.4930 -1.0595
  678MOL0     H93498   2.910   8.678   0.847 -0.3096  0.9294  0.5695
  678MOL0     H93499   3.024   8.932   0.966  2.5871 -0.5501  0.2232
  678MOL0     H93500   2.979   8.793   1.070  0.8584 -3.8545 -0.8672
  678MOL0     H93501   3.200   8.764   1.040  2.7483  0.8748 -1.8088
  678MOL0     H93502   3.140   8.656   0.919  0.9728 -1.0007  1.9428
  678MOL0     H93503   3.175   8.846   0.745 -1.1518 -1.4437  0.2350
  678MOL0     H93504   3.234   8.945   0.869 -1.5437 -0.7189  0.7712
  678MOL0     H93505   3.341   8.682   0.777 -0.5859  1.2658 -0.9818
  678MOL0     H93506   3.412   8.768   0.913  0.1489 -1.0135 -0.5505
  678MOL0     H93507   3.382   8.870   0.632 -1.5155  0.7822  0.8884
  678MOL0     H93508   3.438   8.987   0.748  2.0340  0.8027 -1.4975
  678MOL0     H93509   3.586   8.731   0.677 -0.3310 -0.7044  1.5448
  678MOL0     H93510   3.622   8.831   0.811 -1.3167 -0.5909  0.6192
  678MOL0     H93511   3.749   8.866   0.586  0.5893  1.0563  1.2113
  678MOL0     H93512   3.596   8.908   0.508 -0.9972  1.0167  0.5053
  678MOL0     H93513   3.851   8.989   0.795  1.7402  1.1913 -0.4552
  678MOL0     H93514   3.906   9.373   0.790  0.2909 -0.9524 -1.1240
  678MOL0     H93515   3.969   9.228   0.864 -0.6071 -1.2203  0.3527
  678MOL0     H93516   3.719   9.375   0.964 -0.6198 -0.4114 -2.4874
  678MOL0     H93517   3.796   9.242   1.060 -1.4407  2.0259  1.5856
  678MOL0     H93518   3.920   9.509   0.996 -2.2639  1.3337  1.7118
  678MOL0     H93519   3.836   9.473   1.138  0.4414 -2.5458  1.4465
  678MOL0     H93520   4.091   9.312   1.029  1.2850  0.1993  1.5449
  678MOL0     H93521   4.099   9.458   1.125  0.6190 -0.3716  0.6260
  678MOL0     H93522   4.283   9.359   1.191  0.2285  0.9701  0.5991
  678MOL0     H93523   4.534   9.171   1.154  1.6311  1.3693 -0.7737
  678MOL0     H93524   4.585   9.236   1.313  0.2658  2.4941 -2.0634
  678MOL0     H93525   4.507   9.337   1.197 -3.7149 -0.7482 -3.0064
  678MOL0     H93526   4.630   8.728   1.365 -0.3047 -1.1120  0.4939
  678MOL0     H93527   4.832   8.641   1.453 -2.8844 -1.0426 -3.1303
  678MOL0     H93528   5.151   8.870   1.361  0.6243  0.8121  0.0347
  678MOL0     H93529   5.154   8.954   1.515 -2.1644 -0.2965  0.8618
  678MOL0     H93530   5.380   8.858   1.508 -0.1566 -0.9127 -1.2557
  678MOL0     H93531   5.283   8.760   1.617 -3.4801  0.1582  0.0014
  678MOL0     H93532   5.261   8.582   1.447  0.9996  0.4019  1.3481
  678MOL0     H93533   5.430   8.620   1.470 -0.0186  1.3552  2.1902
  678MOL0     H93534   5.328   8.793   1.260 -0.6062  0.3691  1.7074
  678MOL0     H93535   5.290   8.635   1.217  0.8721 -2.7488  1.2610
  678MOL0     H93536   5.519   8.712   1.141  3.0719 -3.0763 -0.0785
  678MOL0     H93537   5.570   8.737   1.309  0.0619  1.1703  0.5518
  678MOL0     H93538   5.501   8.456   1.206  0.6173 -1.0956  1.3675
  678MOL0     H93539   5.570   8.510   1.357 -1.3591  1.3685  0.5809
  678MOL0     H93540   5.773   8.593   1.235 -0.2809  1.0829  1.2131
  678MOL0     H93541   5.687   8.541   1.084 -0.2689  1.8365  1.0249
  678MOL0     H93542   5.860   8.373   1.172 -0.7681 -0.1815  0.0850
  678MOL0     H93543   5.703   8.303   1.222 -2.4729  0.4958 -0.8044
  678MOL0     H93544   4.969   9.036   1.543  1.4867 -0.8380 -0.9830
  678MOL0     H93545   4.759   9.124   1.442 -0.5552 -0.0562 -1.1272
  678MOL0     H93546   4.193   8.934   1.420  0.0312  0.4115  0.4052
  678MOL0     H93547   4.001   9.073   1.351 -0.1430 -0.2093  0.5895
  678MOL0     H93548   2.764   8.620   1.063  1.2732  0.4004  1.6734
  678MOL0     H93549   2.623   8.618   1.270  3.8464 -2.1343 -0.8246
  678MOL0     H93550   2.461   8.862   1.575 -0.3774 -1.7923 -2.2500
  678MOL0     H93551   2.394   8.829   1.807  0.8474  1.2684 -0.3340
  678MOL0     H93552   2.275   8.829   1.990 -1.1372  0.1998 -0.9465
  678MOL0     H93553   2.157   8.737   2.079  1.5154  1.0923  0.4952
  678MOL0     H93554   2.405   8.618   1.941 -1.4518 -0.5454 -0.7440
  678MOL0     H93555   2.283   8.526   2.021  0.8186 -0.0256 -0.2977
  678MOL0     H93556   2.493   8.705   2.114 -1.3876  0.9404 -0.0585
  678MOL0     H93557   2.348   8.713   2.215  2.3539  1.8858  0.9803
  678MOL0     H93558   2.499   8.552   2.309 -0.2123  2.1977 -0.6855
  678MOL0     H93559   2.480   8.436   2.170  0.5344 -0.1442 -1.1178
  678MOL0     H93560   2.139   8.394   2.420 -1.3772 -1.9174 -0.2355
  678MOL0     H93561   2.010   8.733   1.668  0.5690 -3.9266  0.5507
  678MOL0     H93562   2.056   8.882   1.347  0.8017 -0.4421 -0.2411
  678MOL0     H93563   2.039   8.702   1.361  0.6557 -0.3285 -0.1479
  678MOL0     H93564   1.937   8.808   1.461  0.1797  4.2786 -0.2200
  679MOL0     O93565   8.607   6.141   2.499  0.2135 -0.4693 -0.9546
  679MOL0     C93566   8.656   6.179   2.394 -0.0418 -0.3343 -0.3634
  679MOL0     O93567   8.587   6.180   2.274 -0.7742  0.2101 -0.9004
  679MOL0     C93568   8.467   6.108   2.260  0.5160 -0.6644 -0.2675
  679MOL0     C93569   8.369   6.150   2.176 -0.2214 -0.0288  0.2821
  679MOL0     C93570   8.253   6.071   2.155 -0.1048  0.2324  0.9296
  679MOL0     C93571   8.230   5.945   2.206  0.9726 -0.6450  0.9094
  679MOL0     O93572   8.122   5.857   2.196  0.2944 -0.3373 -0.0318
  679MOL0     C93573   8.022   5.904   2.102 -0.3730 -0.3064 -0.1113
  679MOL0     C93574   7.934   5.781   2.053 -0.5195 -0.4964 -0.0927
  679MOL0     C93575   8.007   5.673   1.967 -0.0841 -1.0081 -0.4185
  679MOL0     C93576   7.923   5.557   1.902 -0.2587 -0.2661  0.7262
  679MOL0     C93577   7.839   5.624   1.792  0.1323 -0.4325 -0.2272
  679MOL0     C93578   7.759   5.522   1.708  0.5239  0.1963 -0.0881
  679MOL0     C93579   7.660   5.446   1.791 -0.4602 -0.2647 -0.0269
  679MOL0     C93580   7.528   5.429   1.721 -0.2110  0.3301 -0.2451
  679MOL0     N93581   7.549   5.325   1.614 -0.4814 -0.2345  0.7654
  679MOL0     C93582   7.541   5.334   1.474  0.8474 -0.1560  0.2486
  679MOL0     C93583   7.576   5.211   1.423 -0.9100 -0.4140 -0.2658
  679MOL0     C93584   7.574   5.183   1.281  0.1671  0.2162  0.2245
  679MOL0     C93585   7.666   5.262   1.184 -0.2336  0.2279 -0.1353
  679MOL0     C93586   7.807   5.193   1.164  0.6163  0.3349 -0.4259
  679MOL0     C93587   7.893   5.191   1.294 -0.4907 -0.3715 -0.4415
  679MOL0     O93588   7.897   5.329   1.335 -0.1477  0.2784  0.5267
  679MOL0     C93589   7.998   5.362   1.423 -1.0647 -0.9869 -0.1282
  679MOL0     C93590   8.034   5.283   1.534 -0.2699 -0.3271 -0.0330
  679MOL0     C93591   8.135   5.326   1.623 -0.1693 -0.6054 -0.3734
  679MOL0     C93592   8.150   5.240   1.741 -0.8577 -0.7638 -0.1078
  679MOL0     C93593   8.194   5.459   1.614  0.2156  0.5718  0.3839
  679MOL0     C93594   8.286   5.521   1.712 -0.6064 -0.0092 -0.3176
  679MOL0     O93595   8.277   5.654   1.727  0.3024 -0.0737 -0.0074
  679MOL0     C93596   8.384   5.732   1.752 -0.9534 -0.5431 -0.6954
  679MOL0     C93597   8.361   5.840   1.837 -0.7981 -0.2839 -0.1374
  679MOL0     C93598   8.460   5.923   1.877 -0.8580 -0.4231  0.2330
  679MOL0     C93599   8.587   5.917   1.807  0.1617  0.0546 -1.1389
  679MOL0     O93600   8.693   5.995   1.848 -0.2712 -0.1866 -0.2802
  679MOL0     C93601   8.828   5.935   1.870  0.4212 -0.0977  0.2965
  679MOL0     C93602   8.925   5.928   1.751 -0.0942 -0.4030 -0.1396
  679MOL0     C93603   8.907   6.055   1.659 -0.7934 -0.4344 -0.8817
  679MOL0     C93604   8.947   6.179   1.743  1.2468  0.3312 -0.1720
  679MOL0     C93605   9.084   6.166   1.815  0.2682  0.0073  0.7244
  679MOL0     C93606   9.156   6.300   1.834 -0.2074  0.4476  0.0259
  679MOL0     C93607   9.287   6.287   1.921  0.3299  0.3987 -0.4284
  679MOL0     C93608   9.330   6.432   1.957 -0.7078  0.3493  0.5799
  679MOL0    Cl93609   9.225   6.494   2.084 -0.0520 -0.2884  0.1966
  679MOL0     C93610   8.603   5.808   1.722 -0.2451 -0.3478  0.0439
  679MOL0     C93611   8.507   5.720   1.689  0.4098 -0.0487  0.1886
  679MOL0     O93612   8.367   5.451   1.766 -1.0889  0.0296 -1.0386
  679MOL0     C93613   8.155   5.538   1.512 -0.0940 -0.5312 -0.0472
  679MOL0     C93614   8.061   5.496   1.417 -0.1217  0.2968  0.0124
  679MOL0     N93615   7.594   5.128   1.528 -0.1084 -0.6687  0.0687
  679MOL0     N93616   7.569   5.191   1.641  0.0117  0.1877  0.8890
  679MOL0     C93617   8.338   5.898   2.285 -0.5763 -0.2253  1.3380
  679MOL0     C93618   8.453   5.980   2.315  0.2031 -0.4668  0.2864
  679MOL0     C93619   8.796   6.230   2.406 -0.4751  0.3635  0.7181
  679MOL0     C93620   8.872   6.184   2.514 -0.2726 -0.6518 -0.0982
  679MOL0     C93621   8.994   6.234   2.545  0.5580  0.3441 -1.0075
  679MOL0     C93622   9.053   6.331   2.456 -0.2564  0.2729  0.6045
  679MOL0     O93623   9.166   6.404   2.466  0.0171 -0.6468 -0.3272
  679MOL0     C93624   9.276   6.342   2.526  0.1539  0.2346  0.3772
  679MOL0     C93625   9.326   6.219   2.448  0.5175 -0.2588  0.2995
  679MOL0     C93626   9.397   6.284   2.324 -0.0503  1.3337 -0.9492
  679MOL0     C93627   9.521   6.204   2.273  0.5926  0.3119  0.3513
  679MOL0     C93628   9.483   6.077   2.204 -0.8619  0.4390 -0.6977
  679MOL0     C93629   9.444   5.981   2.135 -0.5042 -0.3279 -1.3031
  679MOL0     C93630   8.985   6.368   2.342  0.3147 -0.0281  0.3425
  679MOL0     C93631   8.851   6.326   2.321 -0.2051  0.0743 -0.2576
  679MOL0     C93632   8.769   6.395   2.208 -0.0326  0.2158  0.1138
  679MOL0     H93633   8.378   6.246   2.125 -1.1706  0.0779  0.2908
  679MOL0     H93634   8.190   6.120   2.081  3.9924  2.4130 -1.5005
  679MOL0     H93635   8.065   5.955   2.015 -1.4012  3.7829  1.5190
  679MOL0     H93636   7.969   5.984   2.156  1.3758  1.3080 -0.7091
  679MOL0     H93637   7.872   5.735   2.130 -0.7880  1.8333  1.1992
  679MOL0     H93638   7.861   5.831   1.989  0.8463  2.6885  0.5910
  679MOL0     H93639   8.059   5.725   1.886 -5.6150  3.0731 -2.0117
  679MOL0     H93640   8.074   5.625   2.039  0.6602  0.0964 -0.3562
  679MOL0     H93641   8.009   5.500   1.866  0.2064 -0.6608  2.3594
  679MOL0     H93642   7.860   5.503   1.973 -2.1461  2.7520  1.5251
  679MOL0     H93643   7.914   5.675   1.729  2.7667  0.5070  3.3428
  679MOL0     H93644   7.774   5.696   1.842 -0.0789  0.0598 -1.1718
  679MOL0     H93645   7.715   5.579   1.625  1.9579  1.4774 -0.0094
  679MOL0     H93646   7.831   5.454   1.662  0.5077  0.6677 -0.8302
  679MOL0     H93647   7.636   5.506   1.879  0.8184 -2.3128  1.8224
  679MOL0     H93648   7.704   5.353   1.827 -1.3366 -1.0329 -0.8750
  679MOL0     H93649   7.457   5.386   1.791  0.7267 -3.1130 -1.2414
  679MOL0     H93650   7.481   5.521   1.683 -1.0195  1.0086  2.1996
  679MOL0     H93651   7.509   5.418   1.413  2.4677 -0.0729 -0.5544
  679MOL0     H93652   7.476   5.207   1.239  1.9536  3.0669 -2.8291
  679MOL0     H93653   7.601   5.079   1.261  0.8097  0.0533  1.8089
  679MOL0     H93654   7.616   5.267   1.086 -0.1478  0.2832 -0.1771
  679MOL0     H93655   7.674   5.365   1.220 -0.1694 -0.3517  1.5583
  679MOL0     H93656   7.792   5.096   1.116  0.3831  0.0690  0.1724
  679MOL0     H93657   7.857   5.255   1.090 -0.0515  0.5171 -0.7325
  679MOL0     H93658   7.857   5.126   1.375  3.2952  0.8084  2.4710
  679MOL0     H93659   7.993   5.160   1.263 -0.5089  1.1041 -2.0944
  679MOL0     H93660   7.996   5.184   1.554 -1.4675  0.0938 -0.1804
  679MOL0     H93661   8.099   5.283   1.828 -1.4069 -3.3079  0.9362
  679MOL0     H93662   8.248   5.230   1.788 -1.0232  2.3686  1.1323
  679MOL0     H93663   8.102   5.143   1.720 -1.5883 -0.2916 -0.6753
  679MOL0     H93664   8.256   5.855   1.863 -0.6493 -2.5609  2.1314
  679MOL0     H93665   8.435   6.002   1.947  0.3699  0.9958 -0.8700
  679MOL0     H93666   8.877   5.994   1.948  1.1149  0.2447 -0.3903
  679MOL0     H93667   8.816   5.837   1.916  1.3481 -1.1165 -1.5146
  679MOL0     H93668   9.028   5.920   1.788  0.5804 -2.1598 -2.1670
  679MOL0     H93669   8.917   5.843   1.682  0.7741 -0.1133 -0.6239
  679MOL0     H93670   8.807   6.069   1.616 -1.0377 -2.1897 -0.9904
  679MOL0     H93671   8.978   6.059   1.576  0.7403  1.7481  0.4402
  679MOL0     H93672   8.869   6.202   1.816 -0.4830 -2.0176 -1.1417
  679MOL0     H93673   8.950   6.257   1.667  0.1019 -1.8047 -2.5953
  679MOL0     H93674   9.063   6.127   1.915 -2.4633  3.7970  1.8480
  679MOL0     H93675   9.156   6.100   1.765  2.4468  1.6148  1.5512
  679MOL0     H93676   9.095   6.380   1.877  0.9666  2.1294 -1.2835
  679MOL0     H93677   9.178   6.336   1.733  0.9515 -2.2947 -0.7799
  679MOL0     H93678   9.367   6.230   1.871  0.1410  1.2507 -1.7744
  679MOL0     H93679   9.266   6.234   2.014  1.8974 -0.9787 -0.7966
  679MOL0     H93680   9.326   6.486   1.861 -0.8140 -1.8156 -0.7034
  679MOL0     H93681   9.432   6.419   1.993 -0.9790 -2.1619  0.6141
  679MOL0     H93682   8.699   5.786   1.677 -1.2905 -3.3740 -0.9325
  679MOL0     H93683   8.525   5.638   1.620 -1.4736 -0.2955 -0.0432
  679MOL0     H93684   8.176   5.644   1.513 -1.3712 -0.2209  2.8910
  679MOL0     H93685   8.024   5.570   1.347  1.0120 -0.2267 -1.1974
  679MOL0     H93686   8.319   5.805   2.336 -2.6086 -0.6822 -0.1169
  679MOL0     H93687   8.524   5.935   2.384  0.3086 -2.2842 -0.9404
  679MOL0     H93688   8.836   6.100   2.573 -0.3560  0.4843  1.5595
  679MOL0     H93689   9.032   6.201   2.641 -1.3045  2.1375  0.4350
  679MOL0     H93690   9.354   6.419   2.527 -1.1225  1.5904 -0.0282
  679MOL0     H93691   9.254   6.325   2.632  0.4682  0.6242  0.5113
  679MOL0     H93692   9.242   6.155   2.418  1.3753 -0.8879 -0.8431
  679MOL0     H93693   9.396   6.163   2.511  0.7090 -2.1150 -1.4410
  679MOL0     H93694   9.314   6.306   2.256 -3.1702  0.8692  2.3665
  679MOL0     H93695   9.446   6.376   2.359 -0.0472  1.2171 -0.6423
  679MOL0     H93696   9.588   6.195   2.359  1.1849  1.8507  0.0988
  679MOL0     H93697   9.585   6.261   2.205  2.3931  0.2650  1.9006
  679MOL0     H93698   9.406   5.903   2.073  0.5247 -1.0451 -1.0513
  679MOL0     H93699   9.010   6.439   2.264 -1.9338  0.5587  0.0986
  679MOL0     H93700   8.777   6.329   2.122 -0.6673 -0.1349  0.3215
  679MOL0     H93701   8.665   6.414   2.238 -0.2886 -2.5746  1.2993
  679MOL0     H93702   8.799   6.496   2.178 -1.5763  0.6441 -0.0693
  680MOL0     O93703   9.258   5.115   7.750 -0.1639 -0.7776 -0.4029
  680MOL0     C93704   9.193   5.223   7.753  0.3284  0.4465  0.8831
  680MOL0     O93705   9.233   5.349   7.718  0.2902 -0.0230  0.0850
  680MOL0     C93706   9.372   5.385   7.698  0.4458 -0.4790  0.7093
  680MOL0     C93707   9.476   5.323   7.775  0.0293 -0.0925 -0.6482
  680MOL0     C93708   9.600   5.339   7.722  0.6298  0.5964  0.3636
  680MOL0     C93709   9.633   5.429   7.620 -0.6029  0.2246  0.6097
  680MOL0     O93710   9.770   5.454   7.596 -0.0189  0.2107  0.0550
  680MOL0     C93711   9.805   5.574   7.518  0.1303 -0.2520 -0.4778
  680MOL0     C93712   9.952   5.573   7.503 -1.5504 -0.8333 -0.2929
  680MOL0     C93713  10.007   5.676   7.412  0.6014  0.8091 -0.9064
  680MOL0     C93714  10.093   5.782   7.492  0.3540 -0.3741  0.6262
  680MOL0     C93715  10.180   5.847   7.389 -0.8485 -0.4348 -1.1638
  680MOL0     C93716  10.298   5.939   7.451 -0.3070  0.5830  0.8467
  680MOL0     C93717  10.388   5.989   7.338 -0.1903 -0.1436 -0.1729
  680MOL0     C93718  10.517   6.052   7.406 -0.0263  1.0636  0.1131
  680MOL0     N93719  10.628   6.073   7.319 -0.3418 -0.2156 -0.6058
  680MOL0     C93720  10.702   6.191   7.314  0.6885  0.6187  0.1297
  680MOL0     C93721  10.823   6.156   7.263  0.8647  0.1518 -0.2097
  680MOL0     C93722  10.941   6.241   7.233 -0.9040 -0.8457 -0.4413
  680MOL0     C93723  11.074   6.184   7.298 -0.3606  0.7980  0.0873
  680MOL0     C93724  11.189   6.277   7.301  0.3332 -0.0583 -1.0475
  680MOL0     C93725  11.252   6.317   7.163 -0.7390 -0.5554 -0.0080
  680MOL0     O93726  11.303   6.202   7.093  0.1128 -1.0647  0.2545
  680MOL0     C93727  11.410   6.129   7.138  0.7064 -0.0793  0.0623
  680MOL0     C93728  11.429   6.001   7.076 -0.4678 -0.7373  0.3227
  680MOL0     C93729  11.544   5.922   7.104 -0.3802 -0.7917 -0.8231
  680MOL0     C93730  11.563   5.806   7.025 -0.0606 -0.3019  0.2650
  680MOL0     C93731  11.627   5.960   7.213  0.5088 -0.1574  0.2916
  680MOL0     C93732  11.748   5.888   7.263 -0.7264  1.5860 -0.3015
  680MOL0     O93733  11.746   5.750   7.275 -0.6431 -0.2101  0.8732
  680MOL0     C93734  11.848   5.681   7.327  0.1884 -0.3318  0.3598
  680MOL0     C93735  11.847   5.677   7.473  0.5896 -0.2467  0.6915
  680MOL0     C93736  11.951   5.607   7.539  0.4875  0.2218 -0.9149
  680MOL0     C93737  12.035   5.518   7.468 -0.3799  0.6179  0.1115
  680MOL0     O93738  12.131   5.433   7.520 -0.1745 -0.0241  0.6138
  680MOL0     C93739  12.115   5.376   7.653  0.0139 -0.2385 -0.4974
  680MOL0     C93740  12.196   5.249   7.661 -0.5178  0.0364  0.4743
  680MOL0     C93741  12.154   5.131   7.568 -0.6388 -0.0656  0.5146
  680MOL0     C93742  12.223   5.000   7.605 -0.0097 -0.8292 -1.0046
  680MOL0     C93743  12.374   5.024   7.593 -0.4712  0.2023 -1.0177
  680MOL0     C93744  12.452   4.893   7.604  0.1379  0.0370 -0.1343
  680MOL0     C93745  12.605   4.930   7.608 -0.2037 -0.2483 -0.4475
  680MOL0     C93746  12.705   4.824   7.667  0.1196 -1.0149  0.9611
  680MOL0    Cl93747  12.687   4.671   7.575  0.2221  0.3615  0.3796
  680MOL0     C93748  12.031   5.522   7.325  0.4491 -0.4007  0.8042
  680MOL0     C93749  11.938   5.604   7.255  0.4744  0.1614  0.0291
  680MOL0     O93750  11.843   5.951   7.315 -0.1594  1.1479 -0.0061
  680MOL0     C93751  11.599   6.086   7.283 -0.4280  0.1435 -0.3542
  680MOL0     C93752  11.493   6.178   7.237  0.2069 -0.2534 -0.5088
  680MOL0     N93753  10.812   6.023   7.227  0.7422  0.2526 -0.2566
  680MOL0     N93754  10.699   5.975   7.270  0.1226  0.7017 -0.5291
  680MOL0     C93755   9.523   5.501   7.560 -0.1134 -0.7888 -0.1514
  680MOL0     C93756   9.393   5.481   7.602  0.9862  0.4720  0.7442
  680MOL0     C93757   9.057   5.220   7.801  0.6813  0.4957 -0.2070
  680MOL0     C93758   8.959   5.287   7.728  1.1410 -0.9661 -0.3113
  680MOL0     C93759   8.826   5.279   7.771  0.2257  0.5656  0.0353
  680MOL0     C93760   8.793   5.201   7.886  0.4703 -0.8389  0.2826
  680MOL0     O93761   8.657   5.192   7.913  0.0932  0.8850 -0.3614
  680MOL0     C93762   8.617   5.165   8.049  0.8040  0.4777  0.9360
  680MOL0     C93763   8.485   5.229   8.069 -0.4064 -0.1954 -0.4188
  680MOL0     C93764   8.435   5.185   8.210 -0.2542  0.4006 -0.4868
  680MOL0     C93765   8.288   5.222   8.243 -0.0228  0.5906  0.6255
  680MOL0     C93766   8.252   5.192   8.378  0.3857  0.2151 -0.6152
  680MOL0     C93767   8.214   5.182   8.496 -0.3380  0.0440 -0.4144
  680MOL0     C93768   8.901   5.135   7.951 -0.1251  0.5894  0.0707
  680MOL0     C93769   9.034   5.155   7.921  0.1218  0.4667  0.4308
  680MOL0     C93770   9.144   5.095   8.017 -0.0534  0.6288 -0.4295
  680MOL0     H93771   9.452   5.256   7.857  0.5779  3.2225  2.4600
  680MOL0     H93772   9.676   5.287   7.779 -2.6182 -3.7811  1.2221
  680MOL0     H93773   9.768   5.667   7.560  0.4247 -0.2627 -0.1906
  680MOL0     H93774   9.761   5.563   7.418 -2.6425 -2.1933  0.8326
  680MOL0     H93775   9.978   5.615   7.600 -0.0150 -0.1679 -0.9444
  680MOL0     H93776  10.006   5.479   7.486 -0.6072 -0.9019  2.6531
  680MOL0     H93777  10.069   5.612   7.349 -2.7559 -2.1063 -1.5995
  680MOL0     H93778   9.922   5.706   7.351 -0.6858  1.3258  1.0285
  680MOL0     H93779  10.033   5.854   7.547 -1.0497 -0.8906 -0.1868
  680MOL0     H93780  10.170   5.732   7.552  0.2152  0.2004  1.2943
  680MOL0     H93781  10.122   5.918   7.329  1.2462  0.2381 -2.5252
  680MOL0     H93782  10.220   5.779   7.313 -0.9051  2.1973 -3.7631
  680MOL0     H93783  10.270   6.028   7.509  4.8525  1.5458  2.2893
  680MOL0     H93784  10.349   5.873   7.521  1.7914  1.1150 -0.1198
  680MOL0     H93785  10.338   6.058   7.270  0.8386 -1.2653 -2.1620
  680MOL0     H93786  10.431   5.913   7.272  1.0518  1.3463 -1.1323
  680MOL0     H93787  10.480   6.147   7.446  1.1753  2.5548 -2.0864
  680MOL0     H93788  10.557   5.991   7.488 -1.0901  0.1564 -0.0259
  680MOL0     H93789  10.670   6.290   7.346 -2.0155 -0.7275  2.0028
  680MOL0     H93790  10.921   6.342   7.270  0.5922 -1.0326  1.0106
  680MOL0     H93791  10.968   6.248   7.128  2.9314 -3.3911  0.1898
  680MOL0     H93792  11.054   6.157   7.402  0.6716  0.2421  0.1579
  680MOL0     H93793  11.103   6.093   7.246 -2.0103  1.1013 -1.4474
  680MOL0     H93794  11.157   6.363   7.361  0.7892 -0.1760 -0.6202
  680MOL0     H93795  11.260   6.225   7.366 -1.6433 -1.1184  0.3796
  680MOL0     H93796  11.173   6.369   7.107 -1.2599 -0.3286  0.9145
  680MOL0     H93797  11.324   6.397   7.179 -1.0648 -0.0115 -1.1873
  680MOL0     H93798  11.366   5.972   6.992  1.0965 -0.1408 -1.1092
  680MOL0     H93799  11.466   5.758   7.009 -1.1972  2.1730 -0.7615
  680MOL0     H93800  11.644   5.741   7.060  1.2392  1.1128  0.0103
  680MOL0     H93801  11.592   5.834   6.924 -0.1347 -1.3314 -0.0507
  680MOL0     H93802  11.774   5.737   7.527  2.3437  3.1385 -0.4134
  680MOL0     H93803  11.947   5.605   7.648 -2.1272 -0.8580 -0.9453
  680MOL0     H93804  12.147   5.440   7.735  1.1944 -0.4628 -0.7563
  680MOL0     H93805  12.013   5.351   7.682 -0.2798  1.9690  0.5670
  680MOL0     H93806  12.297   5.287   7.645 -0.7595  1.6360  2.2946
  680MOL0     H93807  12.181   5.222   7.767 -1.6466  2.3459  0.9795
  680MOL0     H93808  12.173   5.147   7.461  1.0857 -2.7234  0.3145
  680MOL0     H93809  12.046   5.121   7.579 -0.6955  2.5078  3.6566
  680MOL0     H93810  12.193   4.914   7.543  3.0311 -0.7472 -2.7692
  680MOL0     H93811  12.204   4.980   7.711 -0.7514  0.8601 -0.7792
  680MOL0     H93812  12.415   5.070   7.502 -1.7555 -0.1164 -1.7805
  680MOL0     H93813  12.390   5.102   7.667  0.0684 -1.8185  1.0892
  680MOL0     H93814  12.428   4.825   7.521  2.4413  1.7286 -2.3324
  680MOL0     H93815  12.425   4.845   7.699 -0.7634 -1.8743 -1.2975
  680MOL0     H93816  12.610   5.024   7.664  4.1121 -0.7726  0.4193
  680MOL0     H93817  12.635   4.963   7.508 -2.1251  3.9101  0.1263
  680MOL0     H93818  12.678   4.792   7.768  2.8448 -2.0600  1.4450
  680MOL0     H93819  12.807   4.863   7.673  1.1067 -3.3743  0.6188
  680MOL0     H93820  12.098   5.465   7.261  1.3309  2.3967 -0.9371
  680MOL0     H93821  11.937   5.601   7.146 -0.3120 -0.6105  0.0456
  680MOL0     H93822  11.663   6.126   7.361 -1.7693  1.4186  0.1274
  680MOL0     H93823  11.480   6.274   7.285  1.3964 -0.2130 -0.2500
  680MOL0     H93824   9.536   5.579   7.486  0.8622 -0.0012  0.8170
  680MOL0     H93825   9.314   5.527   7.544 -0.0414 -2.1678 -0.1298
  680MOL0     H93826   8.984   5.351   7.644  1.5372 -0.7992 -0.0694
  680MOL0     H93827   8.746   5.325   7.714 -1.1072 -0.6287  0.8716
  680MOL0     H93828   8.612   5.056   8.064 -4.1554  0.4532  0.6398
  680MOL0     H93829   8.688   5.210   8.118  3.0989 -1.0215 -0.2867
  680MOL0     H93830   8.420   5.186   7.993 -0.2133 -0.6223 -0.3536
  680MOL0     H93831   8.484   5.337   8.055  0.3031 -0.3523 -1.8550
  680MOL0     H93832   8.445   5.076   8.217 -1.6711  0.3530  1.6866
  680MOL0     H93833   8.498   5.238   8.281  0.4395 -0.8778 -0.1068
  680MOL0     H93834   8.222   5.165   8.178  1.3324 -3.0993  2.1856
  680MOL0     H93835   8.277   5.330   8.230 -2.9390  0.5219  1.8948
  680MOL0     H93836   8.186   5.176   8.599 -1.8581 -1.5848 -0.8791
  680MOL0     H93837   8.877   5.067   8.032  0.1713  1.9186  1.2990
  680MOL0     H93838   9.173   4.991   7.997  0.7300  0.9100 -0.8041
  680MOL0     H93839   9.236   5.152   8.003  0.3089 -0.0698 -0.9881
  680MOL0     H93840   9.113   5.103   8.122  0.9645 -0.1857 -0.0478
  681MOL0     O93841   6.112   3.076   3.677  0.7060 -0.3381 -0.6456
  681MOL0     C93842   6.039   2.998   3.737 -0.1052  0.5514 -0.2694
  681MOL0     O93843   6.071   2.941   3.855 -0.2344  0.3757  0.1030
  681MOL0     C93844   6.198   2.956   3.903 -0.5374 -0.7255  0.4249
  681MOL0     C93845   6.215   3.034   4.025  1.3077  0.3743 -0.2318
  681MOL0     C93846   6.342   3.052   4.072  0.3848 -0.8572  0.9251
  681MOL0     C93847   6.455   2.990   4.020  0.2553  0.8003  0.1865
  681MOL0     O93848   6.579   3.018   4.079  0.4128  0.4129 -0.4286
  681MOL0     C93849   6.684   2.921   4.050  0.4832  0.3015 -0.8650
  681MOL0     C93850   6.821   2.957   4.106  0.2639 -0.6905 -0.2338
  681MOL0     C93851   6.821   2.965   4.262  0.0408 -0.2637 -0.2113
  681MOL0     C93852   6.912   3.068   4.328  0.3956  0.0016 -1.0031
  681MOL0     C93853   7.057   3.033   4.356 -0.0733 -0.0576 -0.1683
  681MOL0     C93854   7.133   3.023   4.228 -0.4722  0.3777 -0.4057
  681MOL0     C93855   7.280   2.974   4.260 -1.3714 -0.1827 -0.7697
  681MOL0     C93856   7.384   3.081   4.220  0.2454 -0.6682  0.4485
  681MOL0     N93857   7.398   3.192   4.316  0.3085  0.2449  0.3297
  681MOL0     C93858   7.454   3.184   4.436 -0.8033 -0.5635 -1.4578
  681MOL0     C93859   7.441   3.307   4.487 -0.4220  0.5320  0.5833
  681MOL0     C93860   7.506   3.365   4.608  0.6278 -0.4639  1.2299
  681MOL0     C93861   7.539   3.514   4.587  0.1300  0.4062  0.8109
  681MOL0     C93862   7.584   3.577   4.714 -0.3675 -0.1597 -0.5685
  681MOL0     C93863   7.564   3.726   4.718 -0.6680 -0.3856 -0.0055
  681MOL0     O93864   7.567   3.803   4.833  0.3752  0.6949 -0.1257
  681MOL0     C93865   7.677   3.803   4.916 -0.1548 -0.4772 -0.1132
  681MOL0     C93866   7.650   3.825   5.055 -0.5580  0.9454  0.3166
  681MOL0     C93867   7.754   3.825   5.139 -0.1847  0.3368  0.2096
  681MOL0     C93868   7.714   3.801   5.284  0.1950 -0.3606  0.6228
  681MOL0     C93869   7.888   3.821   5.100 -0.3373  0.5654 -0.5577
  681MOL0     C93870   8.005   3.833   5.193  0.2779  0.7838  0.2376
  681MOL0     O93871   8.124   3.797   5.134 -0.2502  0.3456  0.5524
  681MOL0     C93872   8.243   3.804   5.203  0.4017  0.1188  0.2740
  681MOL0     C93873   8.293   3.928   5.258  0.3688  0.1388 -0.0227
  681MOL0     C93874   8.423   3.928   5.316 -0.8180  1.0586 -0.6994
  681MOL0     C93875   8.501   3.802   5.317  0.3189 -0.2255  0.2632
  681MOL0     O93876   8.631   3.797   5.353  0.7832  0.2619  0.3771
  681MOL0     C93877   8.684   3.896   5.439  0.0862  0.6214  0.2183
  681MOL0     C93878   8.840   3.888   5.458  0.6842  0.1813  0.9477
  681MOL0     C93879   8.889   4.025   5.507  0.2294  0.7009  0.3711
  681MOL0     C93880   8.867   4.061   5.657  0.1974  0.2958  0.8395
  681MOL0     C93881   8.877   4.213   5.686  0.3640  0.3098 -0.1566
  681MOL0     C93882   8.869   4.252   5.835 -0.5104 -0.5692 -0.0966
  681MOL0     C93883   8.918   4.390   5.881  0.4501  0.4966 -0.4752
  681MOL0     C93884   8.839   4.500   5.819  0.1746  0.3743 -0.7055
  681MOL0    Cl93885   8.941   4.644   5.815  0.2472 -0.4014 -0.2319
  681MOL0     C93886   8.450   3.686   5.261 -0.6030  0.2299 -0.0669
  681MOL0     C93887   8.325   3.684   5.208  1.1156  0.4344  0.8937
  681MOL0     O93888   7.996   3.883   5.304  0.1603 -0.4241 -0.6241
  681MOL0     C93889   7.911   3.803   4.959  0.7953  0.1507 -0.6772
  681MOL0     C93890   7.807   3.788   4.869 -0.3236  0.3977  0.1460
  681MOL0     N93891   7.367   3.385   4.397 -0.2247  0.3527 -0.1939
  681MOL0     N93892   7.336   3.316   4.297  0.0681 -0.3921  0.0069
  681MOL0     C93893   6.437   2.909   3.897 -1.0208  0.0896  0.7385
  681MOL0     C93894   6.316   2.901   3.838 -0.0872  1.0395 -0.1107
  681MOL0     C93895   5.907   2.957   3.691 -0.4418  0.9243  0.0230
  681MOL0     C93896   5.824   2.879   3.778  0.6177  0.3657 -0.3096
  681MOL0     C93897   5.703   2.829   3.735  0.4401 -0.3265 -0.3907
  681MOL0     C93898   5.646   2.872   3.617 -0.8877 -0.1105 -0.0174
  681MOL0     O93899   5.536   2.822   3.565  0.5288 -0.2121 -0.4251
  681MOL0     C93900   5.459   2.719   3.627  0.0989  1.6669  0.1121
  681MOL0     C93901   5.343   2.676   3.545 -0.1279  1.0390  1.2184
  681MOL0     C93902   5.248   2.785   3.505 -0.1535  0.2748 -0.5936
  681MOL0     C93903   5.146   2.831   3.611  0.0206 -0.2390 -0.2937
  681MOL0     C93904   5.042   2.922   3.553 -0.6154 -0.1376 -0.3703
  681MOL0     C93905   4.959   3.006   3.542  0.7196  0.3781  0.4472
  681MOL0     C93906   5.722   2.952   3.532 -0.3330  0.0652  0.2879
  681MOL0     C93907   5.850   2.992   3.562  0.0354 -0.2373 -0.1769
  681MOL0     C93908   5.927   3.079   3.467 -0.6282  0.3156 -0.2956
  681MOL0     H93909   6.131   3.084   4.071 -1.2578 -2.2502 -1.7943
  681MOL0     H93910   6.362   3.126   4.148 -0.5958  2.5830 -1.8517
  681MOL0     H93911   6.704   2.925   3.942 -0.0419 -1.7351 -1.0658
  681MOL0     H93912   6.654   2.819   4.076  0.5424  0.6593  0.6880
  681MOL0     H93913   6.891   2.878   4.078  0.5936 -0.4240 -0.1615
  681MOL0     H93914   6.854   3.045   4.051 -1.5650 -0.2576 -0.7106
  681MOL0     H93915   6.717   2.990   4.285 -0.5653 -0.2632 -2.6566
  681MOL0     H93916   6.833   2.864   4.301 -0.0590  0.3321  1.4448
  681MOL0     H93917   6.901   3.160   4.271  0.5773 -0.2606 -1.4644
  681MOL0     H93918   6.869   3.109   4.420  1.8187  2.1818 -1.2432
  681MOL0     H93919   7.066   2.936   4.407 -2.2221  0.7394  1.8986
  681MOL0     H93920   7.101   3.111   4.418 -1.5709 -0.3140  1.2881
  681MOL0     H93921   7.086   2.948   4.164 -0.1245 -1.4516  1.3708
  681MOL0     H93922   7.141   3.124   4.187 -1.2791  0.4053 -0.5266
  681MOL0     H93923   7.306   2.889   4.197 -1.3552 -0.8030  0.0560
  681MOL0     H93924   7.304   2.929   4.357  1.9820 -1.4440 -2.0200
  681MOL0     H93925   7.478   3.025   4.227  1.0749  0.8326  2.2553
  681MOL0     H93926   7.382   3.126   4.121 -2.2417 -1.5273  0.0343
  681MOL0     H93927   7.519   3.111   4.483 -0.4250  1.2322  0.9408
  681MOL0     H93928   7.603   3.316   4.622  1.3885  0.0912 -1.4922
  681MOL0     H93929   7.436   3.350   4.691 -0.0028  0.6083  0.9132
  681MOL0     H93930   7.620   3.510   4.513 -0.2704  0.2954  0.3658
  681MOL0     H93931   7.450   3.568   4.553  0.0728  0.6986  1.4231
  681MOL0     H93932   7.527   3.540   4.800 -0.0775  1.2638  0.2660
  681MOL0     H93933   7.687   3.549   4.737 -0.0202  1.5389  0.0736
  681MOL0     H93934   7.631   3.780   4.651 -1.6136  2.1186  0.9440
  681MOL0     H93935   7.465   3.753   4.680 -0.5641  1.4965  0.9656
  681MOL0     H93936   7.548   3.839   5.090 -0.1250 -0.4860  2.3167
  681MOL0     H93937   7.782   3.724   5.321 -1.5119 -1.0174  2.6006
  681MOL0     H93938   7.615   3.754   5.292 -0.8917  0.7810 -3.6902
  681MOL0     H93939   7.711   3.897   5.336 -1.4333 -0.7433  1.3138
  681MOL0     H93940   8.227   4.014   5.246 -3.1354 -2.3269  0.0369
  681MOL0     H93941   8.469   4.020   5.351  0.1841  1.0675 -1.9670
  681MOL0     H93942   8.677   3.989   5.382  3.3845  0.2756 -0.9929
  681MOL0     H93943   8.630   3.916   5.532  1.0168  0.8590  0.7257
  681MOL0     H93944   8.863   3.795   5.511 -0.7956  0.4875  2.2246
  681MOL0     H93945   8.879   3.879   5.357  2.2528  4.5171  0.9666
  681MOL0     H93946   8.866   4.115   5.450 -0.7632 -0.5998 -1.3782
  681MOL0     H93947   8.998   4.021   5.507  0.2332 -1.7815  1.7391
  681MOL0     H93948   8.950   4.013   5.710 -1.3753 -1.4465  1.8357
  681MOL0     H93949   8.774   4.019   5.695 -0.1895 -3.3343 -3.2820
  681MOL0     H93950   8.969   4.257   5.646 -2.1533  3.9108 -2.5936
  681MOL0     H93951   8.792   4.252   5.629 -0.1424 -3.6388 -2.4711
  681MOL0     H93952   8.929   4.172   5.879 -2.9340 -2.2504  0.3120
  681MOL0     H93953   8.767   4.244   5.873 -0.8916  3.0172  0.0146
  681MOL0     H93954   9.023   4.407   5.856  0.7920 -1.1324 -0.2641
  681MOL0     H93955   8.898   4.388   5.988 -1.2909  1.3299 -0.7540
  681MOL0     H93956   8.749   4.515   5.879  0.0080  1.1894 -1.1557
  681MOL0     H93957   8.805   4.474   5.719  1.5333 -0.7701 -0.9035
  681MOL0     H93958   8.517   3.601   5.265  3.6563  3.2136 -1.2980
  681MOL0     H93959   8.289   3.589   5.171 -0.0318  1.5190 -0.9514
  681MOL0     H93960   8.007   3.815   4.908 -0.5620 -1.2388 -3.8842
  681MOL0     H93961   7.823   3.782   4.762  0.8932  1.9605  0.2159
  681MOL0     H93962   6.526   2.864   3.852 -0.5889  1.0081  0.6513
  681MOL0     H93963   6.298   2.855   3.741  2.7508  1.1099 -0.7527
  681MOL0     H93964   5.856   2.844   3.876 -0.0318 -0.4733 -0.3809
  681MOL0     H93965   5.657   2.769   3.813  1.8618  2.7508  3.1096
  681MOL0     H93966   5.518   2.631   3.655  0.9584  1.8535 -1.0202
  681MOL0     H93967   5.420   2.744   3.726 -0.0825 -1.6736  1.0043
  681MOL0     H93968   5.294   2.594   3.598 -0.0746  1.3798  1.8113
  681MOL0     H93969   5.381   2.624   3.456  1.8866 -1.2083  3.2073
  681MOL0     H93970   5.303   2.879   3.493 -0.4567  0.2732 -2.1315
  681MOL0     H93971   5.204   2.758   3.409  0.1524 -2.7322  0.0296
  681MOL0     H93972   5.196   2.884   3.693  0.0046  0.7299 -0.8984
  681MOL0     H93973   5.097   2.744   3.656 -2.5963  1.3374  0.1450
  681MOL0     H93974   4.878   3.074   3.523 -0.5950 -1.0713  0.6958
  681MOL0     H93975   5.691   2.969   3.430  1.8823  0.7659 -0.3065
  681MOL0     H93976   5.888   3.054   3.368  4.4259 -0.9535 -2.2875
  681MOL0     H93977   5.921   3.186   3.491  0.6995  0.3460 -0.0174
  681MOL0     H93978   6.033   3.056   3.454 -0.3545  0.9766  0.6952
  682MOL0     O93979  10.002  10.363   2.354  0.6236 -0.4684  0.5701
  682MOL0     C93980  10.067  10.274   2.303 -0.4724  0.4869 -0.8635
  682MOL0     O93981  10.203  10.263   2.307 -0.0588 -0.5869  0.7864
  682MOL0     C93982  10.270  10.336   2.397 -0.6636  0.3077 -0.5829
  682MOL0     C93983  10.355  10.253   2.481  0.0362 -0.6321 -0.2331
  682MOL0     C93984  10.425  10.322   2.589 -0.5231 -0.0450  0.0869
  682MOL0     C93985  10.432  10.457   2.605 -0.1438 -0.3208 -0.7212
  682MOL0     O93986  10.497  10.499   2.719 -0.0360 -0.2022  0.6441
  682MOL0     C93987  10.510  10.647   2.731  0.7820  0.1363  0.7675
  682MOL0     C93988  10.596  10.685   2.843 -0.5495  0.5762  0.0990
  682MOL0     C93989  10.537  10.615   2.975 -0.0910 -0.3044 -0.1130
  682MOL0     C93990  10.603  10.669   3.104 -0.0842  0.3762  0.9910
  682MOL0     C93991  10.744  10.601   3.128  0.7400  0.2134  0.8083
  682MOL0     C93992  10.814  10.665   3.244 -1.1275  0.0520  0.8309
  682MOL0     C93993  10.934  10.586   3.305  1.0566  0.0030 -0.1208
  682MOL0     C93994  11.058  10.584   3.212 -1.2835  0.8062 -0.3028
  682MOL0     N93995  11.175  10.520   3.286 -0.2586 -1.1697  0.0629
  682MOL0     C93996  11.287  10.477   3.218  0.0257  0.3333  0.3388
  682MOL0     C93997  11.371  10.456   3.313 -0.6298 -0.4049 -0.3246
  682MOL0     C93998  11.503  10.382   3.317 -0.7764 -0.0898 -0.0296
  682MOL0     C93999  11.630  10.461   3.282 -0.1222  0.2155  0.6331
  682MOL0     C94000  11.761  10.388   3.292 -0.4150  0.4574 -0.4859
  682MOL0     C94001  11.881  10.487   3.280  0.7496  0.3840 -0.0669
  682MOL0     O94002  11.908  10.552   3.402  0.4615  0.3649 -0.4216
  682MOL0     C94003  12.025  10.618   3.390  0.5023 -0.4759 -0.0860
  682MOL0     C94004  12.029  10.742   3.316 -0.4090  0.4353 -0.0668
  682MOL0     C94005  12.146  10.806   3.287  0.6465 -0.2735 -0.4283
  682MOL0     C94006  12.126  10.936   3.211  1.0220  0.5250  0.5108
  682MOL0     C94007  12.266  10.749   3.336 -0.0100 -0.5962 -0.1327
  682MOL0     C94008  12.405  10.809   3.327 -0.2274  0.5169 -0.1708
  682MOL0     O94009  12.424  10.907   3.233  0.6110 -0.0861  0.8586
  682MOL0     C94010  12.540  10.985   3.217  1.2395  0.0204 -0.4238
  682MOL0     C94011  12.662  10.949   3.274 -0.2564  0.2893  0.4900
  682MOL0     C94012  12.765  11.044   3.265  0.2176 -0.0949  0.4767
  682MOL0     C94013  12.759  11.166   3.191 -0.1767  1.1121 -0.9850
  682MOL0     O94014  12.876  11.245   3.187 -0.2411 -0.0062  0.7418
  682MOL0     C94015  12.833  11.375   3.244  0.0595  0.0459 -0.1526
  682MOL0     C94016  12.939  11.482   3.237 -0.4933 -0.0714  0.0946
  682MOL0     C94017  13.080  11.429   3.263  0.3222  0.4359 -0.5582
  682MOL0     C94018  13.190  11.522   3.290 -0.9563  0.5015  0.3143
  682MOL0     C94019  13.303  11.452   3.361 -0.4515  0.8806  0.0716
  682MOL0     C94020  13.413  11.545   3.404 -0.1313 -0.2790 -0.8201
  682MOL0     C94021  13.544  11.467   3.423  0.3790 -0.6481  0.2337
  682MOL0     C94022  13.652  11.571   3.442  0.0642 -0.9475 -0.3288
  682MOL0    Cl94023  13.798  11.500   3.515  0.0302  0.1892  0.1246
  682MOL0     C94024  12.632  11.196   3.134 -0.9457 -0.3841  0.0916
  682MOL0     C94025  12.532  11.104   3.141 -0.0602  0.1771  0.0014
  682MOL0     O94026  12.486  10.783   3.419  0.4573 -1.1331  0.3807
  682MOL0     C94027  12.258  10.630   3.417  0.5056 -0.5494 -0.1712
  682MOL0     C94028  12.137  10.562   3.445 -0.1078 -0.1587  0.1311
  682MOL0     N94029  11.326  10.486   3.433  1.1996  0.5755 -0.1116
  682MOL0     N94030  11.206  10.527   3.419 -0.0210  0.0387  0.8734
  682MOL0     C94031  10.352  10.536   2.509  0.1830  0.1089 -0.2314
  682MOL0     C94032  10.276  10.471   2.414 -1.0086 -1.0119 -0.1207
  682MOL0     C94033  10.009  10.170   2.219  0.6375 -0.5058  0.7750
  682MOL0     C94034   9.887  10.203   2.156  0.0403  0.1798  0.1909
  682MOL0     C94035   9.836  10.112   2.067  0.0753  0.4789  0.4377
  682MOL0     C94036   9.886   9.982   2.049  0.3582 -0.8952 -0.3589
  682MOL0     O94037   9.812   9.881   1.995 -0.1676 -0.4819 -0.3000
  682MOL0     C94038   9.709   9.923   1.899 -0.1903 -0.0023 -0.7473
  682MOL0     C94039   9.572   9.924   1.963  0.1459  0.6450 -0.1695
  682MOL0     C94040   9.496   9.798   1.992 -0.1077 -0.5657 -0.1156
  682MOL0     C94041   9.349   9.826   1.991  0.9826 -0.1130  0.6728
  682MOL0     C94042   9.302   9.856   1.854 -0.8715  0.1276  1.2580
  682MOL0     C94043   9.269   9.866   1.741 -0.0603 -0.0472  0.5361
  682MOL0     C94044  10.002   9.953   2.111 -0.0786  0.4725 -1.3164
  682MOL0     C94045  10.069  10.040   2.198  0.9470 -0.8636 -0.5545
  682MOL0     C94046  10.186   9.983   2.278  0.0810 -0.3418  0.6769
  682MOL0     H94047  10.370  10.147   2.468 -0.9034 -1.0944  1.9094
  682MOL0     H94048  10.487  10.277   2.665 -0.6169 -0.7297 -0.2333
  682MOL0     H94049  10.411  10.686   2.757  1.3270 -0.9831  5.4433
  682MOL0     H94050  10.550  10.694   2.641 -1.7800 -1.1656 -1.1923
  682MOL0     H94051  10.693  10.641   2.817 -1.9989 -1.9923 -1.4055
  682MOL0     H94052  10.601  10.793   2.857 -1.3492  0.5822  0.3955
  682MOL0     H94053  10.432  10.644   2.976  0.1765  0.6998 -0.3389
  682MOL0     H94054  10.539  10.506   2.967 -1.3563 -0.2452 -1.8215
  682MOL0     H94055  10.629  10.774   3.089  0.3869  0.0562 -0.6555
  682MOL0     H94056  10.536  10.645   3.187 -0.2837 -1.4868  0.3402
  682MOL0     H94057  10.813  10.616   3.044 -1.0674 -0.2078 -0.8029
  682MOL0     H94058  10.739  10.494   3.151 -1.0324  0.0976  0.0128
  682MOL0     H94059  10.853  10.765   3.222  2.3329 -1.3448 -0.1320
  682MOL0     H94060  10.739  10.680   3.322 -1.3422  0.7712  0.4972
  682MOL0     H94061  10.906  10.483   3.330  3.9757 -0.6174  1.0239
  682MOL0     H94062  10.970  10.621   3.402  0.2960 -0.0650  0.1937
  682MOL0     H94063  11.028  10.526   3.125 -0.6529  1.3428 -0.8906
  682MOL0     H94064  11.074  10.686   3.175 -1.4251  0.6393 -0.8382
  682MOL0     H94065  11.301  10.458   3.112  1.2936 -0.1014  0.5649
  682MOL0     H94066  11.503  10.308   3.235 -1.4303 -2.4334  1.9470
  682MOL0     H94067  11.511  10.315   3.403  3.9329 -1.9538 -1.5705
  682MOL0     H94068  11.624  10.492   3.177  1.2277 -0.4420  0.3316
  682MOL0     H94069  11.641  10.552   3.341 -0.3740 -0.5201  1.8459
  682MOL0     H94070  11.768  10.318   3.376 -0.3723 -1.7850 -2.2646
  682MOL0     H94071  11.783  10.317   3.212 -0.1485 -3.2081  2.5284
  682MOL0     H94072  11.970  10.427   3.259 -0.1778 -0.8080 -0.7482
  682MOL0     H94073  11.861  10.569   3.211  4.1680  0.7074 -0.8666
  682MOL0     H94074  11.931  10.780   3.289 -1.1604 -0.9093  0.6375
  682MOL0     H94075  12.020  10.949   3.189  0.5638 -0.7048  1.8386
  682MOL0     H94076  12.181  10.934   3.117  4.4499  0.5476  2.3313
  682MOL0     H94077  12.151  11.024   3.272 -0.4954 -0.1718  2.2283
  682MOL0     H94078  12.674  10.851   3.319 -1.0472 -1.8960 -3.6068
  682MOL0     H94079  12.857  11.027   3.321  2.7242  2.1706 -2.5422
  682MOL0     H94080  12.752  11.421   3.186  2.2230  3.9642 -0.4470
  682MOL0     H94081  12.818  11.378   3.352  3.1340  1.4770  0.3428
  682MOL0     H94082  12.950  11.518   3.134 -2.2275 -0.9350 -0.4270
  682MOL0     H94083  12.912  11.559   3.309  0.2973  0.0059  0.3242
  682MOL0     H94084  13.110  11.373   3.175  0.7706  1.1952 -0.8995
  682MOL0     H94085  13.081  11.356   3.345 -1.5528  2.5629  1.5314
  682MOL0     H94086  13.163  11.598   3.364  3.2434  1.7797  0.8041
  682MOL0     H94087  13.230  11.581   3.207  2.9980  0.2323  1.8115
  682MOL0     H94088  13.260  11.409   3.452  1.1475  0.0679  0.4721
  682MOL0     H94089  13.334  11.370   3.297 -0.9919  1.5147 -1.0314
  682MOL0     H94090  13.374  11.590   3.496 -0.2523 -0.1939 -0.9122
  682MOL0     H94091  13.433  11.623   3.329  1.7936 -3.5596 -4.0644
  682MOL0     H94092  13.576  11.412   3.334  2.1785  2.9718 -1.5799
  682MOL0     H94093  13.537  11.391   3.502  0.5219 -0.9294 -0.0210
  682MOL0     H94094  13.616  11.647   3.512  0.4648  2.1007 -3.2004
  682MOL0     H94095  13.678  11.621   3.348 -0.0125 -1.9082 -0.8741
  682MOL0     H94096  12.622  11.284   3.070  1.5371 -1.1934 -1.5770
  682MOL0     H94097  12.434  11.109   3.095  0.2685  0.3111 -0.6874
  682MOL0     H94098  12.345  10.585   3.465  1.0058  0.3070 -0.2603
  682MOL0     H94099  12.121  10.465   3.491 -2.2526  0.5942  1.1287
  682MOL0     H94100  10.344  10.643   2.525 -0.8900  0.2826 -1.6731
  682MOL0     H94101  10.215  10.538   2.355 -1.9688 -0.4593  1.4310
  682MOL0     H94102   9.852  10.306   2.166  0.1149  0.1899  0.3486
  682MOL0     H94103   9.747  10.144   2.014 -1.2783  3.6929  4.0793
  682MOL0     H94104   9.737  10.014   1.846  4.0627 -0.3123  0.5484
  682MOL0     H94105   9.712   9.848   1.818 -1.7550 -0.1450 -0.7104
  682MOL0     H94106   9.522   9.982   1.885  2.3293  1.7580 -0.8104
  682MOL0     H94107   9.582   9.982   2.055 -3.6625 -2.4589  2.5394
  682MOL0     H94108   9.523   9.717   1.923  2.0643 -1.0020  1.1549
  682MOL0     H94109   9.532   9.772   2.092 -1.0197 -1.9071 -0.1187
  682MOL0     H94110   9.322   9.910   2.055  1.1426  0.1358  0.4175
  682MOL0     H94111   9.298   9.735   2.023  1.7138 -0.7673  0.0201
  682MOL0     H94112   9.233   9.857   1.640  0.2162 -2.4516  0.5794
  682MOL0     H94113  10.026   9.847   2.106 -1.4714 -0.0012  0.7884
  682MOL0     H94114  10.272  10.049   2.257 -1.8360  2.7888  1.9232
  682MOL0     H94115  10.177   9.986   2.387 -0.8917  0.5716  0.5887
  682MOL0     H94116  10.208   9.887   2.230  0.8607 -0.7941  1.8809
  683MOL0     O94117   8.829   1.544   5.476  0.8087 -0.2758  0.3051
  683MOL0     C94118   8.718   1.475   5.464  0.1378 -0.7609 -0.3758
  683MOL0     O94119   8.669   1.428   5.346 -0.0922 -0.3444  0.5121
  683MOL0     C94120   8.718   1.491   5.225 -0.6077  0.8006 -0.9295
  683MOL0     C94121   8.845   1.461   5.187  0.3100 -0.4295 -0.5789
  683MOL0     C94122   8.897   1.497   5.069 -0.2671 -0.8182 -0.2927
  683MOL0     C94123   8.818   1.581   4.987 -0.6462  0.0250 -0.3940
  683MOL0     O94124   8.858   1.643   4.867  0.0233 -0.0173  0.4683
  683MOL0     C94125   8.997   1.665   4.859  0.4958 -0.8075  0.7385
  683MOL0     C94126   9.025   1.722   4.716  0.1048 -0.5037 -0.0855
  683MOL0     C94127   9.170   1.776   4.712 -0.2571 -0.4088  0.1777
  683MOL0     C94128   9.204   1.864   4.588  0.1112 -0.0794 -0.1980
  683MOL0     C94129   9.351   1.909   4.580  0.3101 -0.4577 -0.8412
  683MOL0     C94130   9.381   1.943   4.440 -0.5732  0.5941  0.3083
  683MOL0     C94131   9.529   1.945   4.422  1.2523  0.0876  0.3463
  683MOL0     C94132   9.627   2.050   4.487  0.7315  0.1848  0.4368
  683MOL0     N94133   9.597   2.180   4.432  0.5567  0.2925  0.8890
  683MOL0     C94134   9.489   2.263   4.453 -0.6071 -0.4822  0.0003
  683MOL0     C94135   9.500   2.366   4.362 -0.3152 -0.1286  0.2229
  683MOL0     C94136   9.403   2.474   4.336  0.7135 -0.7072  0.8404
  683MOL0     C94137   9.259   2.417   4.299 -0.7405 -0.0456 -0.0198
  683MOL0     C94138   9.171   2.535   4.266 -0.4641 -0.1805  0.2325
  683MOL0     C94139   9.026   2.493   4.273  0.1332 -0.4036 -0.1160
  683MOL0     O94140   8.938   2.610   4.236  0.4007  0.2462 -0.4787
  683MOL0     C94141   8.806   2.601   4.217  0.3124  0.0485 -0.0770
  683MOL0     C94142   8.735   2.489   4.236  0.6436  0.7346 -0.2987
  683MOL0     C94143   8.598   2.474   4.200 -0.2331  0.5435 -0.7627
  683MOL0     C94144   8.540   2.337   4.207 -0.4010  0.1880 -0.3928
  683MOL0     C94145   8.527   2.587   4.151 -0.0203  0.6642  0.2063
  683MOL0     C94146   8.389   2.579   4.104  0.2787  0.0996 -0.2911
  683MOL0     O94147   8.317   2.471   4.132 -0.1753  0.7732 -0.7230
  683MOL0     C94148   8.198   2.451   4.068  0.4933 -0.9029 -0.1059
  683MOL0     C94149   8.087   2.535   4.105  0.2444 -0.3896  0.4330
  683MOL0     C94150   7.960   2.520   4.040 -0.3215  0.2415 -0.9087
  683MOL0     C94151   7.945   2.423   3.939 -1.5637  0.8791 -0.2246
  683MOL0     O94152   7.830   2.404   3.875 -0.1818  0.4482 -0.2509
  683MOL0     C94153   7.800   2.527   3.808 -0.2942 -0.8863  0.5663
  683MOL0     C94154   7.700   2.504   3.697  0.6715  1.0082  0.0058
  683MOL0     C94155   7.583   2.413   3.748 -0.6720 -0.0814 -0.5135
  683MOL0     C94156   7.449   2.437   3.668  0.2377 -0.2891 -0.5857
  683MOL0     C94157   7.336   2.353   3.715  0.1235 -0.9809 -0.0948
  683MOL0     C94158   7.196   2.400   3.659 -0.0413  0.1210  0.1915
  683MOL0     C94159   7.081   2.338   3.735  0.2633 -0.1380 -0.3165
  683MOL0     C94160   6.973   2.266   3.654  0.8088  0.4694  0.4775
  683MOL0    Cl94161   6.845   2.184   3.762 -0.1895 -0.6512  0.0374
  683MOL0     C94162   8.052   2.330   3.910 -0.8717 -0.3997  0.3574
  683MOL0     C94163   8.178   2.346   3.975  0.6809 -0.4711 -0.1864
  683MOL0     O94164   8.337   2.683   4.062 -0.2188  0.5789  0.1341
  683MOL0     C94165   8.606   2.704   4.127 -0.8143 -0.2194 -0.4197
  683MOL0     C94166   8.742   2.704   4.153  0.7985 -0.1165 -0.0886
  683MOL0     N94167   9.616   2.342   4.290  0.4510  0.6072  1.0250
  683MOL0     N94168   9.664   2.230   4.326 -0.0763 -0.7937  0.3368
  683MOL0     C94169   8.693   1.622   5.032 -0.4763 -0.0415 -0.6961
  683MOL0     C94170   8.644   1.576   5.151  0.9685 -0.0343 -0.2086
  683MOL0     C94171   8.647   1.439   5.592  0.1497 -0.1026  0.1471
  683MOL0     C94172   8.575   1.322   5.588 -0.3038  1.0176 -1.1485
  683MOL0     C94173   8.495   1.278   5.704  0.2591  0.1535  0.4793
  683MOL0     C94174   8.485   1.356   5.819  0.9571 -0.2947 -0.1415
  683MOL0     O94175   8.426   1.317   5.940  0.5582  0.3457  0.4455
  683MOL0     C94176   8.381   1.178   5.954 -0.3278 -0.0829  0.8404
  683MOL0     C94177   8.362   1.156   6.100 -0.0774  0.1950 -0.5844
  683MOL0     C94178   8.495   1.144   6.174  0.1799  0.1254  0.4228
  683MOL0     C94179   8.471   1.103   6.323  0.1876  0.0657 -0.3951
  683MOL0     C94180   8.594   1.037   6.373 -0.0761  1.1476  1.0751
  683MOL0     C94181   8.702   1.000   6.401  0.1739 -0.0078  1.3011
  683MOL0     C94182   8.557   1.478   5.813  0.4401 -0.1725  0.2961
  683MOL0     C94183   8.634   1.518   5.706 -0.0031 -0.6503 -0.0137
  683MOL0     C94184   8.713   1.655   5.724  0.7684  1.0289 -0.3343
  683MOL0     H94185   8.904   1.395   5.249  0.6984 -0.3099 -0.8173
  683MOL0     H94186   8.996   1.461   5.041  0.5467  1.4781 -0.6007
  683MOL0     H94187   9.049   1.569   4.864 -1.7399 -2.0700  1.3247
  683MOL0     H94188   9.023   1.747   4.927  2.0811  0.4974 -1.3062
  683MOL0     H94189   9.013   1.636   4.650  0.6461 -1.9953  1.6594
  683MOL0     H94190   8.948   1.796   4.693 -2.2306 -3.4344 -2.3776
  683MOL0     H94191   9.197   1.831   4.802 -2.4327  0.3886  0.4163
  683MOL0     H94192   9.237   1.690   4.722  0.4222  0.1114  0.1651
  683MOL0     H94193   9.182   1.803   4.499 -0.3870 -2.0331  1.1847
  683MOL0     H94194   9.136   1.949   4.579 -1.3144 -0.9588  1.6450
  683MOL0     H94195   9.403   1.818   4.612 -2.8605 -2.6230 -1.3602
  683MOL0     H94196   9.391   1.980   4.652  3.3140 -0.8630 -1.9708
  683MOL0     H94197   9.338   1.870   4.371 -1.4732 -0.2928  1.7564
  683MOL0     H94198   9.336   2.041   4.420 -1.5839 -0.0160 -0.5145
  683MOL0     H94199   9.562   1.942   4.317  0.3851  0.1778  0.0659
  683MOL0     H94200   9.561   1.851   4.468  0.5489  0.7554  2.2703
  683MOL0     H94201   9.608   2.043   4.595  1.1897 -2.7306  0.4160
  683MOL0     H94202   9.733   2.023   4.483  0.6422  0.0119 -1.1494
  683MOL0     H94203   9.405   2.257   4.521 -1.9661 -0.5072 -1.6060
  683MOL0     H94204   9.429   2.529   4.245  0.5163 -1.1758  0.4949
  683MOL0     H94205   9.398   2.542   4.421  1.7147 -0.2424  0.5481
  683MOL0     H94206   9.270   2.352   4.211  1.3234 -0.7873  0.7130
  683MOL0     H94207   9.221   2.365   4.387  1.1102 -0.8836  0.3362
  683MOL0     H94208   9.199   2.612   4.339 -0.2553 -1.2148  1.2720
  683MOL0     H94209   9.196   2.578   4.168  1.8722  0.8706  1.2209
  683MOL0     H94210   9.001   2.411   4.206 -4.5556 -2.1224  3.1524
  683MOL0     H94211   9.012   2.466   4.378 -1.3634  2.0741  0.4220
  683MOL0     H94212   8.789   2.404   4.278  1.3896  1.0286 -0.6477
  683MOL0     H94213   8.463   2.339   4.285  0.4039 -1.0802  0.4713
  683MOL0     H94214   8.619   2.265   4.230  2.0065  2.8015  0.1648
  683MOL0     H94215   8.502   2.304   4.110  0.7481  0.7130 -1.0395
  683MOL0     H94216   8.107   2.600   4.190  1.4680 -2.3589  1.7077
  683MOL0     H94217   7.883   2.591   4.070 -0.9926 -0.3645 -1.1517
  683MOL0     H94218   7.771   2.608   3.875  0.4436 -1.1760  1.2450
  683MOL0     H94219   7.886   2.564   3.751 -1.3099 -0.0129 -0.4691
  683MOL0     H94220   7.662   2.598   3.655 -1.6049  1.0757  1.9780
  683MOL0     H94221   7.754   2.439   3.628  1.7624  1.5537  0.3244
  683MOL0     H94222   7.565   2.432   3.854 -1.2624 -0.8414 -0.4716
  683MOL0     H94223   7.620   2.314   3.722  0.9724  0.5590 -0.7784
  683MOL0     H94224   7.482   2.415   3.566  0.8220 -0.1158 -0.4419
  683MOL0     H94225   7.439   2.544   3.685 -0.1906 -0.4241  0.0133
  683MOL0     H94226   7.355   2.247   3.693  0.3155 -1.4014  1.8403
  683MOL0     H94227   7.330   2.371   3.823 -0.4583 -1.2868 -0.0741
  683MOL0     H94228   7.188   2.367   3.555 -1.6910  0.7659  0.0770
  683MOL0     H94229   7.200   2.510   3.663  0.1991  0.1279 -0.2012
  683MOL0     H94230   7.036   2.426   3.782  1.2383 -0.6768  1.7377
  683MOL0     H94231   7.126   2.275   3.812  1.5257  3.2874  2.0244
  683MOL0     H94232   7.014   2.181   3.599 -3.1655 -1.0954 -0.4150
  683MOL0     H94233   6.924   2.346   3.597  0.5946  1.2348  1.7015
  683MOL0     H94234   8.031   2.251   3.840 -0.8861  0.0494 -0.1519
  683MOL0     H94235   8.262   2.279   3.964  1.7911  0.1090  3.3790
  683MOL0     H94236   8.552   2.784   4.078  0.6946 -0.9708 -3.5945
  683MOL0     H94237   8.798   2.787   4.111  0.7082 -0.1735 -0.3232
  683MOL0     H94238   8.635   1.688   4.969  0.0656  0.6970 -0.4394
  683MOL0     H94239   8.547   1.610   5.185 -0.2361 -1.6805 -1.7681
  683MOL0     H94240   8.592   1.261   5.500  0.9479  1.4357 -1.2115
  683MOL0     H94241   8.462   1.176   5.688  0.6636  0.1669 -0.5071
  683MOL0     H94242   8.286   1.166   5.901 -0.8546  0.3710  1.6655
  683MOL0     H94243   8.450   1.105   5.911  1.6201  1.6358  0.9521
  683MOL0     H94244   8.312   1.060   6.118  0.7681 -0.0072  0.8177
  683MOL0     H94245   8.295   1.229   6.147 -0.3180  1.0543 -2.1913
  683MOL0     H94246   8.554   1.069   6.120 -0.1733  0.8876 -1.0722
  683MOL0     H94247   8.555   1.235   6.168  0.8419 -0.3382 -0.3625
  683MOL0     H94248   8.391   1.029   6.331 -0.7983  1.2882  2.4274
  683MOL0     H94249   8.435   1.190   6.379  2.1193  0.8381 -0.2725
  683MOL0     H94250   8.793   0.951   6.431  0.1008 -0.9709  0.0372
  683MOL0     H94251   8.561   1.528   5.910  1.5819  1.3902 -0.5252
  683MOL0     H94252   8.669   1.701   5.813 -0.7546 -2.1700  0.7172
  683MOL0     H94253   8.818   1.642   5.752  0.3160  0.5345  1.2391
  683MOL0     H94254   8.720   1.722   5.638  1.3582  3.7158  1.6820
  684MOL0     O94255   9.858   1.435   3.434  0.4279 -0.4216 -0.2163
  684MOL0     C94256   9.835   1.555   3.419  0.3242  0.3067 -0.5312
  684MOL0     O94257   9.924   1.660   3.407 -0.6080 -0.2095 -0.0723
  684MOL0     C94258  10.059   1.654   3.398  0.1013  0.3976 -0.1849
  684MOL0     C94259  10.130   1.553   3.465  0.4751  0.1995  0.1801
  684MOL0     C94260  10.274   1.552   3.476 -0.4216  0.1404  1.6393
  684MOL0     C94261  10.355   1.647   3.414  1.1574 -0.6929  0.9974
  684MOL0     O94262  10.492   1.637   3.413  0.4297 -0.1003 -0.3101
  684MOL0     C94263  10.566   1.755   3.394  0.1165 -1.1417 -0.0025
  684MOL0     C94264  10.698   1.757   3.469  0.1242  0.2128  0.9703
  684MOL0     C94265  10.789   1.653   3.397 -0.5618 -0.0632 -1.0944
  684MOL0     C94266  10.936   1.685   3.422 -0.1182 -1.0698 -0.6118
  684MOL0     C94267  11.015   1.750   3.300  0.3962  0.0369  0.5158
  684MOL0     C94268  11.022   1.660   3.162  0.4304  0.4601  0.0845
  684MOL0     C94269  11.123   1.708   3.063  0.1642 -0.0886  0.1094
  684MOL0     C94270  11.098   1.627   2.926 -0.8073  0.4397 -0.5707
  684MOL0     N94271  11.206   1.647   2.831 -0.5643  0.5259 -0.5963
  684MOL0     C94272  11.331   1.597   2.863  1.0986  0.5781  0.3997
  684MOL0     C94273  11.404   1.603   2.743  0.5701 -0.8740 -1.6562
  684MOL0     C94274  11.546   1.547   2.728  0.5450  0.4267  0.6892
  684MOL0     C94275  11.562   1.408   2.670 -0.1750 -0.0321 -0.8140
  684MOL0     C94276  11.538   1.415   2.518  0.5541  0.7300 -0.4672
  684MOL0     C94277  11.667   1.416   2.432  0.4233  0.3144  0.9597
  684MOL0     O94278  11.775   1.479   2.495  0.6959 -0.0127 -0.0933
  684MOL0     C94279  11.900   1.465   2.454  0.2581 -0.7530 -0.3974
  684MOL0     C94280  11.954   1.398   2.348 -0.1705  0.9562  0.1591
  684MOL0     C94281  12.089   1.394   2.316  0.4986 -0.7268 -0.3594
  684MOL0     C94282  12.134   1.322   2.180 -0.1573  0.4405  0.2470
  684MOL0     C94283  12.184   1.457   2.401  0.6836 -1.5222  0.0977
  684MOL0     C94284  12.326   1.478   2.378 -0.0052 -0.2597 -0.3664
  684MOL0     O94285  12.383   1.585   2.443  0.1433 -0.4374 -0.8072
  684MOL0     C94286  12.517   1.595   2.464  0.0031 -0.9908 -0.1593
  684MOL0     C94287  12.627   1.533   2.386  0.5593 -0.6762  1.0992
  684MOL0     C94288  12.755   1.567   2.430  0.4630  0.8690 -0.1973
  684MOL0     C94289  12.784   1.656   2.538  0.0593 -0.6836 -0.5981
  684MOL0     O94290  12.909   1.684   2.569 -0.2611  0.6612 -0.7561
  684MOL0     C94291  12.952   1.809   2.542  0.3188 -0.6444 -0.1480
  684MOL0     C94292  13.101   1.816   2.553 -0.4851  0.5346  0.1116
  684MOL0     C94293  13.158   1.940   2.488 -0.1921  0.1391 -0.5027
  684MOL0     C94294  13.300   1.986   2.533  0.2225  0.0441 -0.3363
  684MOL0     C94295  13.351   2.089   2.436  0.0850  0.2508 -0.7918
  684MOL0     C94296  13.504   2.094   2.463 -0.2158 -0.7786 -0.4928
  684MOL0     C94297  13.571   2.200   2.382  0.5072 -0.5816  0.5015
  684MOL0     C94298  13.559   2.339   2.433  0.7698  0.5903  1.1726
  684MOL0    Cl94299  13.681   2.376   2.558  0.2427  0.6523  0.4494
  684MOL0     C94300  12.678   1.724   2.604  0.3356  0.4293  0.6228
  684MOL0     C94301  12.549   1.688   2.565 -0.2932 -0.3550  0.4688
  684MOL0     O94302  12.380   1.426   2.282 -0.4476 -0.0981 -0.0118
  684MOL0     C94303  12.129   1.523   2.518  0.6054  0.1454 -0.8395
  684MOL0     C94304  11.992   1.523   2.552  0.2686  1.3658  0.2705
  684MOL0     N94305  11.323   1.657   2.647  1.1702 -0.0852  0.6823
  684MOL0     N94306  11.203   1.687   2.701 -0.4758 -0.3522 -0.2189
  684MOL0     C94307  10.281   1.746   3.334 -0.7457  0.0995 -0.2214
  684MOL0     C94308  10.138   1.744   3.328  0.5078  0.1276  0.4611
  684MOL0     C94309   9.695   1.592   3.462  0.3741  0.2946 -0.3896
  684MOL0     C94310   9.668   1.706   3.536  0.4535 -0.6326  1.2191
  684MOL0     C94311   9.539   1.750   3.581 -0.7712 -0.0206  0.4793
  684MOL0     C94312   9.433   1.675   3.553 -0.3929 -0.1594  0.1790
  684MOL0     O94313   9.309   1.715   3.601  0.4240  0.1997 -0.6475
  684MOL0     C94314   9.199   1.699   3.511  0.3168  0.0276  0.3643
  684MOL0     C94315   9.078   1.778   3.571 -0.7881 -0.2465  0.4492
  684MOL0     C94316   8.958   1.793   3.462  0.1748 -0.3904 -0.3803
  684MOL0     C94317   8.841   1.698   3.473 -0.0671  0.1681 -0.5117
  684MOL0     C94318   8.745   1.726   3.581  0.1650  0.2421  1.1836
  684MOL0     C94319   8.663   1.734   3.671 -0.4950  0.4813 -0.0576
  684MOL0     C94320   9.448   1.562   3.473 -0.6509 -0.4522 -0.2782
  684MOL0     C94321   9.574   1.518   3.422 -0.2545 -0.4129  0.1281
  684MOL0     C94322   9.578   1.393   3.331  1.1875 -0.5328  0.9490
  684MOL0     H94323  10.071   1.487   3.528 -1.6002  1.4351 -0.3785
  684MOL0     H94324  10.329   1.479   3.534  5.0497 -0.1489 -3.0731
  684MOL0     H94325  10.510   1.845   3.422  0.1036 -1.3648  0.7046
  684MOL0     H94326  10.592   1.762   3.288  1.3204 -2.0179  0.2193
  684MOL0     H94327  10.746   1.852   3.439  4.6648 -2.5516 -1.8909
  684MOL0     H94328  10.681   1.751   3.576 -1.2761 -6.2294  0.7576
  684MOL0     H94329  10.774   1.562   3.455  1.2609  0.2554 -0.0192
  684MOL0     H94330  10.771   1.641   3.290 -1.9729 -2.2255 -0.6710
  684MOL0     H94331  10.932   1.738   3.517 -1.6224  2.0564 -2.2643
  684MOL0     H94332  10.985   1.589   3.438  1.1459 -0.6889 -1.9589
  684MOL0     H94333  11.119   1.763   3.333  0.1969 -0.5399  1.3780
  684MOL0     H94334  10.974   1.850   3.283  0.5639  0.0335  0.0700
  684MOL0     H94335  11.030   1.552   3.179 -2.9926 -0.0640 -0.8772
  684MOL0     H94336  10.920   1.665   3.123  0.0968  0.2632  0.8973
  684MOL0     H94337  11.224   1.688   3.098  1.5266 -3.2054 -4.6315
  684MOL0     H94338  11.123   1.814   3.033 -0.8137 -0.4053 -1.1002
  684MOL0     H94339  11.075   1.521   2.939  2.3323 -0.3899 -1.1792
  684MOL0     H94340  11.006   1.674   2.889 -0.5302  1.1053 -0.4341
  684MOL0     H94341  11.357   1.534   2.947  0.1803 -0.8146 -0.3346
  684MOL0     H94342  11.590   1.542   2.828 -1.8331 -3.0616  1.7641
  684MOL0     H94343  11.599   1.621   2.667 -1.0212 -0.1035 -1.4539
  684MOL0     H94344  11.655   1.360   2.701 -1.0671 -0.3566  1.5295
  684MOL0     H94345  11.481   1.353   2.719  0.1339  1.3005  1.3099
  684MOL0     H94346  11.465   1.344   2.477 -2.0248  3.2871 -0.6208
  684MOL0     H94347  11.498   1.512   2.487  1.0533  0.9550 -0.4133
  684MOL0     H94348  11.689   1.313   2.403  2.5224  0.6926  1.0170
  684MOL0     H94349  11.647   1.462   2.335 -0.2926 -0.4734  0.7219
  684MOL0     H94350  11.881   1.355   2.280 -0.7216  2.9810 -0.6097
  684MOL0     H94351  12.045   1.270   2.143  0.9329 -2.5876  1.5701
  684MOL0     H94352  12.212   1.249   2.200 -0.4562  0.6973  2.7388
  684MOL0     H94353  12.182   1.387   2.106 -0.8190 -1.8364 -2.3453
  684MOL0     H94354  12.613   1.473   2.297  1.9243 -0.0095  0.4204
  684MOL0     H94355  12.836   1.521   2.373  0.5409 -1.0820  1.3653
  684MOL0     H94356  12.930   1.831   2.437  0.5476 -1.0357 -0.2778
  684MOL0     H94357  12.905   1.886   2.604  1.7559  1.8815 -1.9835
  684MOL0     H94358  13.122   1.815   2.660 -2.0371 -0.3377  0.4420
  684MOL0     H94359  13.155   1.731   2.510 -0.5113 -0.1624  1.4231
  684MOL0     H94360  13.097   2.031   2.492  0.6510  0.8565 -2.3417
  684MOL0     H94361  13.173   1.918   2.382 -0.1610 -2.4120 -0.0346
  684MOL0     H94362  13.364   1.899   2.550 -0.7156 -0.4120  1.0676
  684MOL0     H94363  13.297   2.035   2.631 -1.4703 -0.4879 -0.0852
  684MOL0     H94364  13.325   2.051   2.337  1.8096 -1.8462 -0.5031
  684MOL0     H94365  13.302   2.186   2.447 -2.9753 -1.2015 -0.6960
  684MOL0     H94366  13.537   1.993   2.437  0.3610 -0.7511  0.0927
  684MOL0     H94367  13.520   2.108   2.571  0.1278 -0.3153 -0.6029
  684MOL0     H94368  13.523   2.193   2.284  3.5808 -1.5646 -1.0710
  684MOL0     H94369  13.677   2.173   2.374  1.0185  1.3670  0.0262
  684MOL0     H94370  13.456   2.363   2.462  0.3484 -2.6252  2.9076
  684MOL0     H94371  13.574   2.396   2.342 -1.3103 -0.4516  0.0884
  684MOL0     H94372  12.694   1.805   2.674 -1.2619  1.5902 -0.3043
  684MOL0     H94373  12.465   1.746   2.602  1.3084  0.4281  3.1808
  684MOL0     H94374  12.179   1.579   2.596 -1.0880 -0.8925  1.1290
  684MOL0     H94375  11.953   1.572   2.640 -2.6535  1.4667 -0.9765
  684MOL0     H94376  10.326   1.819   3.268 -3.3677  0.5412 -1.6690
  684MOL0     H94377  10.081   1.822   3.278  0.3165 -1.2317 -1.5861
  684MOL0     H94378   9.755   1.767   3.560 -0.4464 -0.1268  3.4885
  684MOL0     H94379   9.520   1.831   3.652  3.7159  1.4890  0.2798
  684MOL0     H94380   9.235   1.754   3.423  5.7867 -0.0799  2.1903
  684MOL0     H94381   9.171   1.595   3.497 -1.7065  0.6329 -0.4964
  684MOL0     H94382   9.110   1.878   3.599  1.7184 -1.1004  0.8129
  684MOL0     H94383   9.041   1.726   3.660 -0.8513 -1.3540 -0.1998
  684MOL0     H94384   8.919   1.894   3.480  2.3046  0.5884 -0.9551
  684MOL0     H94385   8.994   1.798   3.359 -1.0685  0.0066 -0.8027
  684MOL0     H94386   8.898   1.611   3.507  5.1791  3.0660 -0.8705
  684MOL0     H94387   8.795   1.676   3.377 -2.0891  2.9098 -0.2888
  684MOL0     H94388   8.601   1.750   3.756 -2.1645 -2.5591 -0.5537
  684MOL0     H94389   9.368   1.490   3.460 -1.4370  0.0976  1.1775
  684MOL0     H94390   9.584   1.304   3.395  1.5018 -1.5781 -0.5040
  684MOL0     H94391   9.486   1.376   3.276 -0.9028  4.1837  2.5055
  684MOL0     H94392   9.658   1.395   3.256 -2.5983  0.5537 -3.4988
  685MOL0     O94393   1.961   7.425   5.888 -0.0252  0.3424 -0.2313
  685MOL0     C94394   1.924   7.344   5.809  0.7284  0.4541 -1.3549
  685MOL0     O94395   1.862   7.224   5.845  0.1582  0.4224 -0.7555
  685MOL0     C94396   1.861   7.169   5.975  0.1854  0.1590 -0.5641
  685MOL0     C94397   1.976   7.130   6.039 -0.7436  0.0185  0.0446
  685MOL0     C94398   1.971   7.070   6.167 -1.2504 -0.3896 -0.2440
  685MOL0     C94399   1.854   7.046   6.239 -0.6994 -0.4196  0.3561
  685MOL0     O94400   1.865   7.024   6.374 -0.3592  0.2565  0.6604
  685MOL0     C94401   1.771   7.078   6.461  1.0534 -0.1653  0.1305
  685MOL0     C94402   1.786   7.010   6.596 -0.3319 -0.2680  0.5675
  685MOL0     C94403   1.929   7.037   6.648  0.2900  0.6425  0.2315
  685MOL0     C94404   1.941   7.003   6.795 -0.3897  0.0565 -0.9226
  685MOL0     C94405   2.088   7.039   6.837 -0.5719 -1.0310  0.2964
  685MOL0     C94406   2.116   7.017   6.985  0.4502  0.2501  0.8334
  685MOL0     C94407   2.259   7.012   7.010 -0.3066 -0.0731  0.8760
  685MOL0     C94408   2.274   6.955   7.159 -0.7802 -0.3464 -0.0698
  685MOL0     N94409   2.410   6.924   7.197  0.1398 -0.1386  0.2946
  685MOL0     C94410   2.496   6.832   7.142  0.3937  0.3250 -0.4616
  685MOL0     C94411   2.620   6.850   7.201 -0.1098  0.7857 -0.3346
  685MOL0     C94412   2.760   6.787   7.163  0.1718 -0.5256 -0.5354
  685MOL0     C94413   2.867   6.775   7.276 -0.2613 -0.9329 -1.1362
  685MOL0     C94414   2.990   6.706   7.220 -0.4787  0.5915 -0.6741
  685MOL0     C94415   3.110   6.710   7.319 -0.0994  0.1000 -0.3226
  685MOL0     O94416   3.189   6.829   7.323 -0.1167 -0.3274 -0.2647
  685MOL0     C94417   3.282   6.857   7.219 -0.0070  0.3240 -0.7707
  685MOL0     C94418   3.308   6.764   7.117  1.0872 -0.3999 -0.3269
  685MOL0     C94419   3.383   6.812   7.007 -0.0636  0.3161 -0.4311
  685MOL0     C94420   3.369   6.708   6.898 -0.7385 -0.3308  0.0167
  685MOL0     C94421   3.446   6.937   7.000  0.9028 -0.0682 -0.2920
  685MOL0     C94422   3.528   6.973   6.884  0.1299 -0.6721 -0.4047
  685MOL0     O94423   3.592   6.878   6.808  0.0653  0.3181  0.1401
  685MOL0     C94424   3.680   6.916   6.714  0.1766 -0.1002  1.3825
  685MOL0     C94425   3.645   6.932   6.579  0.1086  0.0895 -0.1764
  685MOL0     C94426   3.743   6.959   6.480  0.5150  0.6009 -0.4977
  685MOL0     C94427   3.875   6.982   6.513  0.2717  0.2191  0.1776
  685MOL0     O94428   3.973   7.011   6.417  0.2130  0.7043  0.2806
  685MOL0     C94429   3.941   7.036   6.282 -0.3417 -0.7118  1.1281
  685MOL0     C94430   4.068   7.059   6.204  1.3432 -0.3670  0.2980
  685MOL0     C94431   4.035   7.090   6.057  0.2932 -0.5487  0.2812
  685MOL0     C94432   4.141   7.172   5.983 -0.6263  0.0563 -0.6243
  685MOL0     C94433   4.124   7.152   5.835  0.9239  0.3092  0.5125
  685MOL0     C94434   4.214   7.265   5.770 -0.0142 -0.1826  1.1863
  685MOL0     C94435   4.200   7.262   5.613  0.7255  0.2090 -0.1769
  685MOL0     C94436   4.262   7.148   5.524  0.2126 -0.5530  0.5138
  685MOL0    Cl94437   4.209   6.979   5.554 -0.2559  0.3493 -0.0860
  685MOL0     C94438   3.906   6.962   6.645 -0.8805  0.5287 -0.1566
  685MOL0     C94439   3.817   6.927   6.743  0.5701  0.3772 -0.9635
  685MOL0     O94440   3.556   7.092   6.881 -0.0610 -0.5013 -0.0618
  685MOL0     C94441   3.427   7.020   7.112  0.1851  1.2731  0.5593
  685MOL0     C94442   3.349   6.979   7.223  0.5481 -0.1274 -0.3273
  685MOL0     N94443   2.599   6.944   7.303 -0.1520 -0.2087  0.2732
  685MOL0     N94444   2.477   6.999   7.292  0.7604 -0.1146 -0.7256
  685MOL0     C94445   1.735   7.073   6.161 -0.2819 -0.5183 -0.1489
  685MOL0     C94446   1.738   7.126   6.031 -0.7876 -0.0406  0.2084
  685MOL0     C94447   1.964   7.355   5.670 -0.7025  0.9256  0.1081
  685MOL0     C94448   1.936   7.249   5.581 -0.0920 -0.7074 -0.6585
  685MOL0     C94449   1.978   7.245   5.450  0.0032 -0.1892 -0.2020
  685MOL0     C94450   2.041   7.352   5.397  0.4458 -0.7573  0.3677
  685MOL0     O94451   2.083   7.363   5.262  0.0456  0.5504  0.0760
  685MOL0     C94452   1.976   7.370   5.168  0.0173 -0.5180 -0.2181
  685MOL0     C94453   2.014   7.285   5.045 -0.4318  0.7893  0.4195
  685MOL0     C94454   1.885   7.235   4.976 -0.3597 -0.0473  0.8827
  685MOL0     C94455   1.917   7.204   4.831 -0.5349 -0.4292  0.5002
  685MOL0     C94456   1.801   7.184   4.745 -0.5271  0.0995  0.6882
  685MOL0     C94457   1.716   7.147   4.660  0.1431 -0.1094 -0.3529
  685MOL0     C94458   2.071   7.454   5.478 -0.6613  0.2889  0.6858
  685MOL0     C94459   2.031   7.461   5.603 -0.1269 -0.3545 -0.3787
  685MOL0     C94460   2.069   7.596   5.681 -0.1907 -0.1380  0.7822
  685MOL0     H94461   2.072   7.148   5.993 -0.5423  0.5749  0.6531
  685MOL0     H94462   2.062   7.047   6.221 -1.1663  0.4509 -0.0095
  685MOL0     H94463   1.667   7.060   6.431  0.7230 -1.0318  1.7168
  685MOL0     H94464   1.790   7.185   6.474 -0.5525  0.1281  0.2868
  685MOL0     H94465   1.716   7.043   6.673  2.3762  3.0752  1.9129
  685MOL0     H94466   1.759   6.905   6.588 -0.2166 -0.3181  0.8235
  685MOL0     H94467   1.995   6.968   6.594  0.2233 -0.3078  1.3462
  685MOL0     H94468   1.961   7.141   6.638 -0.8267  1.2044  2.0121
  685MOL0     H94469   1.866   7.051   6.859 -1.4850 -0.4118 -1.8093
  685MOL0     H94470   1.918   6.896   6.806 -2.6899  0.2378 -3.0571
  685MOL0     H94471   2.112   7.143   6.811 -2.6536 -0.2754  1.1570
  685MOL0     H94472   2.154   6.984   6.770 -0.7324  0.5229 -1.2245
  685MOL0     H94473   2.066   7.085   7.054  1.6036  0.3080  1.6340
  685MOL0     H94474   2.071   6.919   7.004 -0.7310  0.5069 -0.4481
  685MOL0     H94475   2.291   7.116   7.002 -0.1244  0.1453  3.5601
  685MOL0     H94476   2.306   6.952   6.932 -0.3063  0.7407  0.2370
  685MOL0     H94477   2.241   7.026   7.235  4.0923 -1.4063  3.5205
  685MOL0     H94478   2.220   6.862   7.181  2.8512 -2.5405  0.3021
  685MOL0     H94479   2.467   6.772   7.057 -2.7442  1.8367 -0.5921
  685MOL0     H94480   2.799   6.841   7.076  1.8722  0.2525  0.6633
  685MOL0     H94481   2.743   6.683   7.133 -1.6371  0.2657 -2.6320
  685MOL0     H94482   2.895   6.872   7.317  2.1236 -1.1501 -2.1037
  685MOL0     H94483   2.822   6.714   7.355 -0.3507 -0.3701 -0.7489
  685MOL0     H94484   2.964   6.602   7.195  2.6959  0.0479 -2.1817
  685MOL0     H94485   3.018   6.759   7.128  1.0312 -1.5997 -1.5696
  685MOL0     H94486   3.081   6.692   7.423  0.3650  2.4882  0.2698
  685MOL0     H94487   3.174   6.626   7.288  0.4251  0.7030 -0.9092
  685MOL0     H94488   3.273   6.661   7.115  1.6633 -0.5887 -2.0657
  685MOL0     H94489   3.456   6.642   6.891 -0.3288 -0.3143  3.2627
  685MOL0     H94490   3.340   6.755   6.804 -1.3770 -1.4205 -0.3541
  685MOL0     H94491   3.280   6.648   6.924 -2.2985  1.1525 -1.6330
  685MOL0     H94492   3.537   6.919   6.570  0.0993  0.6970 -1.1272
  685MOL0     H94493   3.709   6.973   6.378 -3.3599 -0.6432  0.4746
  685MOL0     H94494   3.894   6.952   6.230  3.4769 -1.1931 -2.1056
  685MOL0     H94495   3.875   7.123   6.285  0.2523 -0.1614 -0.5404
  685MOL0     H94496   4.117   7.146   6.249 -0.7811  0.5546  0.9815
  685MOL0     H94497   4.134   6.972   6.212  1.1076 -0.4081  2.5056
  685MOL0     H94498   3.937   7.139   6.047 -0.2067 -1.7138 -0.7592
  685MOL0     H94499   4.026   6.990   6.013 -0.0041 -1.2688  1.9075
  685MOL0     H94500   4.234   7.121   6.011 -2.4671 -2.6947  1.0283
  685MOL0     H94501   4.147   7.276   6.016  0.4271 -0.0853 -0.3270
  685MOL0     H94502   4.140   7.050   5.798  1.6895  0.9181 -0.9131
  685MOL0     H94503   4.025   7.183   5.803 -0.0632  0.5967  3.4999
  685MOL0     H94504   4.319   7.266   5.799  0.6914 -1.5082 -1.0787
  685MOL0     H94505   4.172   7.363   5.794  3.8994  1.9034  0.3275
  685MOL0     H94506   4.248   7.356   5.582  2.6321 -0.2334  1.2748
  685MOL0     H94507   4.093   7.273   5.590  0.6012  0.6671  0.5873
  685MOL0     H94508   4.371   7.157   5.536 -0.0696  0.1593  3.1266
  685MOL0     H94509   4.229   7.161   5.420  0.1647 -0.5927  0.5243
  685MOL0     H94510   4.012   6.971   6.666  0.0348 -2.3874 -2.7815
  685MOL0     H94511   3.843   6.907   6.847 -1.8936 -2.0908 -0.6899
  685MOL0     H94512   3.472   7.118   7.113  0.3041  1.2864 -1.4116
  685MOL0     H94513   3.336   7.047   7.307  0.4396 -0.9792  0.3674
  685MOL0     H94514   1.641   7.051   6.211  0.5759  1.8937  2.8589
  685MOL0     H94515   1.643   7.141   5.982 -1.8725  0.1953  2.2841
  685MOL0     H94516   1.888   7.164   5.629 -1.9112 -0.5075 -2.0185
  685MOL0     H94517   1.954   7.165   5.381 -1.1957  1.3031 -1.5823
  685MOL0     H94518   1.881   7.347   5.217 -1.7617  1.3886 -2.5250
  685MOL0     H94519   1.964   7.474   5.135  1.1199  2.0767  6.0718
  685MOL0     H94520   2.077   7.201   5.073  0.4529  1.3146  0.0398
  685MOL0     H94521   2.055   7.357   4.974  0.0139 -0.3285 -0.4809
  685MOL0     H94522   1.847   7.152   5.036 -1.6110 -0.0395  0.1370
  685MOL0     H94523   1.816   7.320   4.971  0.3894  0.6151  1.4514
  685MOL0     H94524   1.982   7.117   4.830  0.2537  0.1385 -1.3782
  685MOL0     H94525   1.969   7.281   4.775  0.5672 -2.3163 -1.1729
  685MOL0     H94526   1.651   7.128   4.577 -1.1980  1.9523  0.1487
  685MOL0     H94527   2.125   7.535   5.430  0.9763  1.2848  3.9385
  685MOL0     H94528   2.159   7.641   5.639 -0.5933 -0.6633 -0.7236
  685MOL0     H94529   1.983   7.663   5.675  0.7756  1.0959  0.3751
  685MOL0     H94530   2.102   7.571   5.782  0.7563  1.6939  0.9705
  686MOL0     O94531  10.047  10.411   9.268  0.5446 -0.6462 -0.1188
  686MOL0     C94532  10.035  10.364   9.381  0.7676 -1.0059 -0.7774
  686MOL0     O94533  10.119  10.388   9.490 -0.8533 -0.7964  0.2954
  686MOL0     C94534  10.246  10.436   9.465  0.4024  0.5621 -0.0752
  686MOL0     C94535  10.254  10.570   9.421  0.4273  0.3821 -0.0043
  686MOL0     C94536  10.375  10.628   9.399  0.2800 -0.1704  0.1910
  686MOL0     C94537  10.494  10.558   9.430  0.1692 -0.3417  0.2549
  686MOL0     O94538  10.606  10.632   9.430 -0.5089 -0.1145 -0.1489
  686MOL0     C94539  10.731  10.566   9.437  0.4276  0.0354 -0.0961
  686MOL0     C94540  10.846  10.668   9.453  0.5506  0.0972 -0.3675
  686MOL0     C94541  10.826  10.752   9.578  0.2232 -0.7675 -0.3846
  686MOL0     C94542  10.951  10.823   9.610  0.6732  0.4768  0.4572
  686MOL0     C94543  10.957  10.881   9.742 -0.3302  0.7625  0.1154
  686MOL0     C94544  11.083  10.956   9.785 -0.3677 -0.1778  0.0914
  686MOL0     C94545  11.213  10.877   9.773 -0.4875  0.0816  0.0380
  686MOL0     C94546  11.319  10.968   9.842 -0.4271  0.0725  0.5597
  686MOL0     N94547  11.443  10.893   9.841  0.3997 -0.2728 -0.5187
  686MOL0     C94548  11.565  10.953   9.820 -0.8082  0.0783  0.5235
  686MOL0     C94549  11.661  10.856   9.848  0.2919 -0.6712 -0.0274
  686MOL0     C94550  11.813  10.877   9.837 -0.4309  0.1238  0.0024
  686MOL0     C94551  11.877  10.881   9.976  0.2746 -0.4720 -0.7426
  686MOL0     C94552  12.022  10.939   9.972 -0.1304 -0.4192  0.1433
  686MOL0     C94553  12.095  10.926  10.108 -0.4368 -0.0010  0.3063
  686MOL0     O94554  12.114  10.786  10.138 -0.4000  0.6118  0.0174
  686MOL0     C94555  12.192  10.746  10.252  0.2566 -0.3120  0.3910
  686MOL0     C94556  12.268  10.838  10.323  0.5240  0.2641  0.0367
  686MOL0     C94557  12.324  10.814  10.453  0.4238  0.1719 -1.2321
  686MOL0     C94558  12.430  10.904  10.512  0.8170 -0.4547 -0.0559
  686MOL0     C94559  12.282  10.696  10.518  0.1608 -0.3089  0.4084
  686MOL0     C94560  12.337  10.644  10.651  0.9388 -0.1895 -0.2057
  686MOL0     O94561  12.341  10.741  10.751 -0.7054  0.3730 -0.0910
  686MOL0     C94562  12.368  10.693  10.877 -0.0545  0.7818  0.5950
  686MOL0     C94563  12.469  10.765  10.944  1.0848 -0.0710  0.0571
  686MOL0     C94564  12.485  10.758  11.085 -0.5322 -0.3413  0.3455
  686MOL0     C94565  12.400  10.666  11.160  0.2056 -0.7956 -1.1877
  686MOL0     O94566  12.424  10.651  11.297  0.1097  0.7929  0.0073
  686MOL0     C94567  12.391  10.522  11.355 -0.4216  0.5968  0.4537
  686MOL0     C94568  12.456  10.399  11.284  0.9497  0.3099  0.6841
  686MOL0     C94569  12.608  10.430  11.226  0.9101 -0.1659  0.1897
  686MOL0     C94570  12.706  10.474  11.334  0.1104 -0.9660  0.0516
  686MOL0     C94571  12.858  10.498  11.301 -0.0284  0.7081 -0.4025
  686MOL0     C94572  12.879  10.620  11.206 -0.1712 -0.0798 -0.3253
  686MOL0     C94573  13.013  10.624  11.126 -0.3505 -0.0674  1.2976
  686MOL0     C94574  13.048  10.762  11.061  0.4910 -0.2897  0.8575
  686MOL0    Cl94575  12.946  10.755  10.910  0.1544 -0.1771 -0.4838
  686MOL0     C94576  12.292  10.599  11.089 -0.1199  0.2491 -0.4036
  686MOL0     C94577  12.280  10.614  10.948  0.6049 -1.1062 -0.4838
  686MOL0     O94578  12.367  10.526  10.660 -0.1366 -0.3590 -0.0396
  686MOL0     C94579  12.215  10.605  10.436 -0.6698  0.1566 -0.1837
  686MOL0     C94580  12.175  10.625  10.306 -0.4686 -0.3618  0.6178
  686MOL0     N94581  11.588  10.741   9.877  0.3419 -0.1794  0.5781
  686MOL0     N94582  11.466  10.765   9.890  0.0506  0.1172 -0.8749
  686MOL0     C94583  10.483  10.428   9.484 -0.3888 -1.2891 -0.0977
  686MOL0     C94584  10.361  10.367   9.497 -0.8888  0.1701  0.3548
  686MOL0     C94585   9.923  10.271   9.405  0.5711  0.2149 -0.5194
  686MOL0     C94586   9.930  10.203   9.533  0.1483 -0.1532  0.3903
  686MOL0     C94587   9.834  10.109   9.573  0.6060 -0.9979 -0.1057
  686MOL0     C94588   9.717  10.100   9.494 -0.7262 -0.0717  0.6191
  686MOL0     O94589   9.609  10.020   9.523  0.5002  0.2562 -0.5573
  686MOL0     C94590   9.633   9.924   9.626 -0.4004  0.3715 -0.2543
  686MOL0     C94591   9.501   9.863   9.678 -0.0589 -0.3204 -0.2823
  686MOL0     C94592   9.451   9.747   9.593  0.0215 -0.0584  0.4814
  686MOL0     C94593   9.378   9.792   9.462 -0.2012  0.3500 -0.6311
  686MOL0     C94594   9.254   9.857   9.489 -0.0800 -0.3142 -0.2661
  686MOL0     C94595   9.148   9.907   9.513  0.2083 -0.0251 -0.8259
  686MOL0     C94596   9.712  10.170   9.370  0.0777 -0.8874  0.2524
  686MOL0     C94597   9.817  10.248   9.317 -0.3905  0.0811  0.6403
  686MOL0     C94598   9.799  10.307   9.178 -0.0595 -0.0575 -0.0804
  686MOL0     H94599  10.165  10.632   9.414  1.1599  1.6275  1.2302
  686MOL0     H94600  10.393  10.730   9.365 -2.2696 -0.4410 -2.3718
  686MOL0     H94601  10.753  10.514   9.344  2.3905 -2.3876  1.5946
  686MOL0     H94602  10.745  10.503   9.525 -0.6010 -0.3410 -0.1938
  686MOL0     H94603  10.941  10.616   9.439 -0.5246 -1.5790 -1.9149
  686MOL0     H94604  10.826  10.735   9.369 -1.2281  1.2408  0.8834
  686MOL0     H94605  10.740  10.819   9.577  0.3435 -0.5579 -2.4816
  686MOL0     H94606  10.811  10.681   9.659  2.2095  1.2635  1.9429
  686MOL0     H94607  11.034  10.760   9.578  0.8603  0.2212  1.4318
  686MOL0     H94608  10.963  10.906   9.540 -2.2288  1.0185  0.4624
  686MOL0     H94609  10.927  10.810   9.820 -2.8369  1.1838 -0.3617
  686MOL0     H94610  10.887  10.965   9.752 -3.0915 -1.4168  0.5118
  686MOL0     H94611  11.090  11.036   9.710 -2.3465 -0.8850 -0.9067
  686MOL0     H94612  11.058  11.004   9.880  2.0965  0.3332  0.5507
  686MOL0     H94613  11.238  10.863   9.667 -0.5715 -0.1761  0.0519
  686MOL0     H94614  11.204  10.785   9.831 -0.2406  0.5686  0.8625
  686MOL0     H94615  11.338  11.057   9.781  1.4555  0.1762  1.2420
  686MOL0     H94616  11.296  11.000   9.944 -1.2642  0.5455  0.2296
  686MOL0     H94617  11.589  11.057   9.805 -2.4882  0.1013 -2.9278
  686MOL0     H94618  11.846  10.959   9.774  0.1559 -0.2060 -0.1310
  686MOL0     H94619  11.848  10.788   9.784 -4.0469 -1.6666  0.3066
  686MOL0     H94620  11.812  10.949  10.031 -0.7308  1.3962 -3.9423
  686MOL0     H94621  11.882  10.778  10.015 -0.1512 -0.7712 -1.4577
  686MOL0     H94622  12.068  10.889   9.886  0.7228  0.9749 -0.2363
  686MOL0     H94623  12.013  11.042   9.938 -1.1252 -0.3740  0.5204
  686MOL0     H94624  12.197  10.966  10.107  0.1545 -1.4507  0.5528
  686MOL0     H94625  12.040  10.968  10.193  2.0710  0.1623  1.9528
  686MOL0     H94626  12.301  10.932  10.280  0.2135  0.9549  1.2594
  686MOL0     H94627  12.461  10.978  10.437  2.6391  1.0088  2.0088
  686MOL0     H94628  12.517  10.843  10.535 -0.3543 -2.8325 -1.4728
  686MOL0     H94629  12.392  10.952  10.603 -2.8961 -2.1527 -0.5299
  686MOL0     H94630  12.540  10.813  10.877  0.8570  1.7401  1.0593
  686MOL0     H94631  12.560  10.821  11.131  0.9253 -0.5675 -1.5959
  686MOL0     H94632  12.427  10.529  11.458 -1.4642  4.4973  0.7074
  686MOL0     H94633  12.283  10.508  11.350 -0.1493 -1.5804 -0.0898
  686MOL0     H94634  12.457  10.321  11.361  1.1339 -0.4208 -0.0559
  686MOL0     H94635  12.396  10.357  11.203  1.7831 -0.6946  0.5740
  686MOL0     H94636  12.602  10.512  11.154  0.9839  0.1240  0.5134
  686MOL0     H94637  12.633  10.338  11.174  1.2411  0.7900 -1.4168
  686MOL0     H94638  12.699  10.394  11.409 -2.4975 -0.1794  0.7229
  686MOL0     H94639  12.673  10.565  11.385  1.3522 -0.8308  0.6605
  686MOL0     H94640  12.915  10.500  11.395 -1.0674 -2.2643  0.4159
  686MOL0     H94641  12.896  10.408  11.251 -0.0806  0.0592  0.6927
  686MOL0     H94642  12.868  10.711  11.267 -1.9081 -0.1339 -0.4991
  686MOL0     H94643  12.803  10.616  11.127  2.6922 -1.2973 -3.1995
  686MOL0     H94644  13.014  10.545  11.051  1.4800  0.1314  1.0683
  686MOL0     H94645  13.094  10.588  11.192 -1.3908 -1.6938  1.7457
  686MOL0     H94646  13.154  10.755  11.034  0.9308 -3.2141  2.8455
  686MOL0     H94647  13.041  10.850  11.125 -0.5407 -0.6849  1.3056
  686MOL0     H94648  12.224  10.543  11.153  0.5993 -0.7460 -0.4956
  686MOL0     H94649  12.185  10.586  10.904 -0.4454 -0.3081  1.1705
  686MOL0     H94650  12.205  10.502  10.471  2.2122  0.4930  1.9787
  686MOL0     H94651  12.119  10.555  10.245 -0.4932  0.1632  0.0294
  686MOL0     H94652  10.575  10.375   9.503 -0.5043 -1.0187  1.3744
  686MOL0     H94653  10.344  10.275   9.551  2.6480 -1.0301 -0.3079
  686MOL0     H94654  10.009  10.225   9.605  1.5538  4.1661 -2.1338
  686MOL0     H94655   9.843  10.057   9.667 -0.6328  2.3402  2.0344
  686MOL0     H94656   9.697   9.841   9.594  0.5776  1.2826 -0.7322
  686MOL0     H94657   9.675   9.967   9.717  1.2630 -0.3544 -0.6453
  686MOL0     H94658   9.423   9.936   9.701 -0.3171 -1.4124  2.8785
  686MOL0     H94659   9.528   9.825   9.777  0.7767 -2.0376 -1.1278
  686MOL0     H94660   9.537   9.680   9.584  0.3383  0.2908  0.8703
  686MOL0     H94661   9.382   9.699   9.663  2.2903  3.5243  5.7840
  686MOL0     H94662   9.363   9.703   9.400  2.5863 -1.5175  1.1443
  686MOL0     H94663   9.447   9.858   9.407  1.9839 -2.0668 -0.9736
  686MOL0     H94664   9.055   9.956   9.534 -0.0771  0.9241 -3.8913
  686MOL0     H94665   9.620  10.169   9.312 -0.3306 -0.9182  0.8960
  686MOL0     H94666   9.718  10.264   9.119 -0.1397  0.4798 -0.3683
  686MOL0     H94667   9.767  10.411   9.182 -0.4725 -0.1108 -1.4606
  686MOL0     H94668   9.895  10.297   9.126  0.3934 -1.0610  0.8943
  687MOL0     O94669   4.827   0.049   9.225 -0.5501 -0.8779 -0.0601
  687MOL0     C94670   4.769   0.049   9.331 -0.8833 -1.0831 -0.9785
  687MOL0     O94671   4.704  -0.058   9.390 -0.2688  0.1551 -0.1227
  687MOL0     C94672   4.706  -0.180   9.330  0.3774  0.2243 -0.0414
  687MOL0     C94673   4.817  -0.259   9.316 -0.5740  0.9404  0.3538
  687MOL0     C94674   4.814  -0.387   9.258 -1.8289  0.2517  0.4351
  687MOL0     C94675   4.698  -0.441   9.203 -0.2644 -0.0937  0.8165
  687MOL0     O94676   4.691  -0.560   9.151 -0.0655  0.6885  1.0275
  687MOL0     C94677   4.639  -0.667   9.239  0.2719 -0.9016 -0.6486
  687MOL0     C94678   4.483  -0.655   9.250 -0.3692 -0.4230  0.0944
  687MOL0     C94679   4.418  -0.669   9.107  0.0009  0.7237 -0.1097
  687MOL0     C94680   4.267  -0.716   9.116 -0.2185 -0.9492 -0.0876
  687MOL0     C94681   4.255  -0.866   9.137 -0.4218 -0.7848  0.6249
  687MOL0     C94682   4.115  -0.918   9.120 -0.5769  0.0378 -0.2231
  687MOL0     C94683   4.009  -0.858   9.215  0.0800 -0.2610 -0.5146
  687MOL0     C94684   3.865  -0.920   9.204 -0.8406  0.7795  0.3487
  687MOL0     N94685   3.811  -0.912   9.062 -0.6697  0.4680  0.5142
  687MOL0     C94686   3.714  -0.826   9.030  0.2994 -0.1320 -0.3881
  687MOL0     C94687   3.713  -0.827   8.894 -0.8233  0.8167 -0.2883
  687MOL0     C94688   3.655  -0.728   8.799  0.1837 -0.0116 -0.5535
  687MOL0     C94689   3.504  -0.694   8.820 -0.3598 -0.0330  0.3594
  687MOL0     C94690   3.468  -0.577   8.722 -0.1742  0.7689  0.3774
  687MOL0     C94691   3.330  -0.510   8.738  0.3659 -0.5070 -0.2599
  687MOL0     O94692   3.230  -0.612   8.748 -0.2618  0.4284 -0.1162
  687MOL0     C94693   3.105  -0.565   8.732  0.5823  0.5075 -0.1590
  687MOL0     C94694   2.998  -0.652   8.694 -0.5829  0.0871  0.1485
  687MOL0     C94695   2.872  -0.607   8.697  0.4359 -0.3351 -0.3658
  687MOL0     C94696   2.766  -0.693   8.646  0.1964 -0.1158  0.6714
  687MOL0     C94697   2.838  -0.479   8.743  0.4114  0.6620 -0.1854
  687MOL0     C94698   2.699  -0.421   8.757 -0.0883 -0.0426 -0.0678
  687MOL0     O94699   2.681  -0.360   8.878  0.8891  0.4452  0.5081
  687MOL0     C94700   2.563  -0.288   8.900  0.4755 -0.6162 -0.0997
  687MOL0     C94701   2.515  -0.189   8.820 -0.3709 -0.5583  0.2516
  687MOL0     C94702   2.403  -0.112   8.865  0.4668  0.0543 -1.6274
  687MOL0     C94703   2.332  -0.146   8.981 -0.3110 -0.2584 -0.6873
  687MOL0     O94704   2.221  -0.081   9.023  0.3391 -0.2804  0.1330
  687MOL0     C94705   2.222   0.060   9.035  0.2786  0.0895  0.0195
  687MOL0     C94706   2.084   0.118   9.049  0.0960 -0.8132 -0.5677
  687MOL0     C94707   1.982   0.071   8.951 -0.4113 -0.2446 -1.0509
  687MOL0     C94708   2.013   0.121   8.814 -0.6424 -0.5447 -0.0312
  687MOL0     C94709   1.911   0.103   8.717  0.1752 -0.6999 -0.5220
  687MOL0     C94710   1.877  -0.038   8.679 -0.4422  0.0750  0.1936
  687MOL0     C94711   1.813  -0.046   8.528  0.8038  0.2345 -0.2440
  687MOL0     C94712   1.668  -0.003   8.514  0.8935 -0.1124  0.7710
  687MOL0    Cl94713   1.600  -0.052   8.359  0.0112 -0.4026  0.4896
  687MOL0     C94714   2.380  -0.248   9.065  0.9837 -0.1533  0.0138
  687MOL0     C94715   2.502  -0.302   9.028 -0.2569 -0.0689  0.0123
  687MOL0     O94716   2.616  -0.425   8.673  0.3298  0.0427  0.1807
  687MOL0     C94717   2.939  -0.392   8.781 -0.7817  1.6105 -0.1181
  687MOL0     C94718   3.071  -0.437   8.782  0.1134  0.1912 -0.6186
  687MOL0     N94719   3.803  -0.929   8.847  0.3440  1.2121 -0.2108
  687MOL0     N94720   3.861  -0.984   8.952  0.0650 -0.9356  0.2084
  687MOL0     C94721   4.586  -0.354   9.210 -0.0463  0.2670  0.2478
  687MOL0     C94722   4.595  -0.229   9.277  0.0061  0.0758 -0.8000
  687MOL0     C94723   4.758   0.174   9.418 -0.0994 -0.5827  0.0012
  687MOL0     C94724   4.653   0.172   9.516 -0.9578  0.1568  0.9256
  687MOL0     C94725   4.625   0.284   9.581  0.7578 -0.2965  0.0605
  687MOL0     C94726   4.707   0.392   9.598 -0.3013  0.0172 -1.0038
  687MOL0     O94727   4.652   0.488   9.683  1.0359  0.3434  0.3422
  687MOL0     C94728   4.748   0.592   9.707 -0.1839 -0.7115 -0.6037
  687MOL0     C94729   4.677   0.705   9.794  0.8203  0.1758 -0.2218
  687MOL0     C94730   4.657   0.656   9.933  0.4981 -0.1384 -0.7188
  687MOL0     C94731   4.550   0.541   9.960 -0.0037  0.4282  0.4548
  687MOL0     C94732   4.500   0.520  10.097  0.2288  0.1661  0.1010
  687MOL0     C94733   4.450   0.519  10.208  0.5388  0.1781 -0.3125
  687MOL0     C94734   4.827   0.390   9.526 -0.1819 -1.2473 -0.3484
  687MOL0     C94735   4.848   0.287   9.433 -0.3520 -0.6776 -0.2934
  687MOL0     C94736   4.971   0.293   9.350  0.1026 -0.1104 -0.2964
  687MOL0     H94737   4.908  -0.222   9.361 -1.0761  1.4724  0.9669
  687MOL0     H94738   4.899  -0.452   9.274 -3.1413 -1.4007  0.9136
  687MOL0     H94739   4.692  -0.670   9.335  0.3366  0.2513 -0.6318
  687MOL0     H94740   4.670  -0.762   9.195  1.4094  0.0797 -2.0522
  687MOL0     H94741   4.453  -0.734   9.321 -2.7708  0.5449  0.2496
  687MOL0     H94742   4.452  -0.558   9.289  5.7361  1.0785  2.2316
  687MOL0     H94743   4.429  -0.575   9.052 -0.8008  1.0561  0.2894
  687MOL0     H94744   4.472  -0.746   9.050 -0.5091 -0.8750  1.4831
  687MOL0     H94745   4.216  -0.665   9.198 -1.2317  0.1437 -1.3747
  687MOL0     H94746   4.217  -0.685   9.025  0.3923 -2.1945 -0.8709
  687MOL0     H94747   4.294  -0.889   9.237  0.6892 -0.8500  0.1850
  687MOL0     H94748   4.314  -0.917   9.061 -3.2742 -0.7839 -1.7890
  687MOL0     H94749   4.081  -0.900   9.018  0.2501 -1.3360 -0.7629
  687MOL0     H94750   4.117  -1.027   9.128  2.7678  0.0706  0.9556
  687MOL0     H94751   4.010  -0.755   9.179 -0.9554 -0.1424 -0.2283
  687MOL0     H94752   4.046  -0.858   9.318 -2.7929 -2.6034  0.6799
  687MOL0     H94753   3.860  -1.025   9.233 -0.0464 -0.6828 -4.0667
  687MOL0     H94754   3.805  -0.862   9.274  0.8011  2.8550  0.1476
  687MOL0     H94755   3.665  -0.759   9.100  1.4789 -2.7776  3.2958
  687MOL0     H94756   3.683  -0.759   8.698  2.3608 -2.8885  0.7777
  687MOL0     H94757   3.701  -0.635   8.835  0.8109 -1.4231  2.6537
  687MOL0     H94758   3.444  -0.784   8.802 -0.9469  0.5162 -0.4791
  687MOL0     H94759   3.482  -0.660   8.921  0.3367 -0.7132  0.7518
  687MOL0     H94760   3.547  -0.501   8.720  0.0329  0.5450 -0.3956
  687MOL0     H94761   3.472  -0.620   8.622  0.8592 -0.3935  0.8925
  687MOL0     H94762   3.331  -0.434   8.817 -2.3346 -2.7130  2.1778
  687MOL0     H94763   3.307  -0.452   8.648  1.2508  0.5378  0.1574
  687MOL0     H94764   3.029  -0.751   8.661  0.3494  0.1527  0.7621
  687MOL0     H94765   2.813  -0.792   8.640  0.7912  0.2075  0.0152
  687MOL0     H94766   2.730  -0.654   8.551 -0.2659  1.1094  1.3305
  687MOL0     H94767   2.687  -0.698   8.722  0.5244  3.0573  1.3359
  687MOL0     H94768   2.568  -0.169   8.727  0.4024  0.0407  0.8092
  687MOL0     H94769   2.362  -0.032   8.805 -2.5091 -1.6294 -2.0325
  687MOL0     H94770   2.274   0.081   9.129  1.8863 -1.0677 -0.5755
  687MOL0     H94771   2.277   0.101   8.950 -1.3275 -0.7527 -1.4702
  687MOL0     H94772   2.039   0.089   9.144  0.4384 -0.3789 -0.2640
  687MOL0     H94773   2.080   0.227   9.039  1.1358 -0.3617  2.7702
  687MOL0     H94774   1.885   0.108   8.985 -0.0950  1.6817 -2.1160
  687MOL0     H94775   1.987  -0.038   8.952  1.5058 -0.2785  2.1452
  687MOL0     H94776   2.110   0.078   8.785  1.0329  3.3324 -0.7189
  687MOL0     H94777   2.036   0.227   8.818 -1.2057 -0.3445 -1.5562
  687MOL0     H94778   1.816   0.152   8.738  0.8730  0.1618  0.8227
  687MOL0     H94779   1.962   0.145   8.629  2.2145 -3.2281 -0.6649
  687MOL0     H94780   1.820  -0.089   8.757 -0.1766  2.3744  2.0226
  687MOL0     H94781   1.973  -0.090   8.684 -0.1162  0.7785  2.3078
  687MOL0     H94782   1.824  -0.149   8.493 -0.5305  0.5968 -1.7973
  687MOL0     H94783   1.877   0.008   8.458  0.9652 -0.3505 -0.5603
  687MOL0     H94784   1.658   0.105   8.526 -3.2961 -0.3285  0.6458
  687MOL0     H94785   1.611  -0.061   8.587  1.6345 -2.8798 -0.6951
  687MOL0     H94786   2.343  -0.272   9.164 -0.2663 -4.3097 -1.2410
  687MOL0     H94787   2.546  -0.371   9.099 -1.5895  0.6242  1.5596
  687MOL0     H94788   2.926  -0.295   8.828 -1.0912  0.4318  2.4005
  687MOL0     H94789   3.134  -0.362   8.830  0.5090 -0.7367  0.3493
  687MOL0     H94790   4.495  -0.389   9.162  1.4126 -2.3427 -0.8365
  687MOL0     H94791   4.509  -0.164   9.289 -0.5701 -1.1365  2.9450
  687MOL0     H94792   4.589   0.084   9.521  0.9813 -1.3161  0.8801
  687MOL0     H94793   4.530   0.280   9.633 -0.2742 -0.0487 -1.7270
  687MOL0     H94794   4.832   0.562   9.769  1.1502  1.3654 -1.2712
  687MOL0     H94795   4.772   0.645   9.614 -2.3605  1.2294 -0.1823
  687MOL0     H94796   4.584   0.745   9.753  0.9452  0.9774  0.2668
  687MOL0     H94797   4.749   0.787   9.803  3.2472 -1.8979  0.5422
  687MOL0     H94798   4.756   0.630   9.972  0.4339  2.2110  1.2438
  687MOL0     H94799   4.629   0.740   9.998  0.3033 -1.7000  1.2918
  687MOL0     H94800   4.590   0.444   9.929  1.3793  0.2739  2.5498
  687MOL0     H94801   4.462   0.545   9.895  0.8999 -1.6513 -0.9973
  687MOL0     H94802   4.407   0.512  10.306  0.6538  4.3050  0.1923
  687MOL0     H94803   4.895   0.475   9.527 -0.6435 -0.8821  0.6349
  687MOL0     H94804   5.025   0.386   9.370  1.3408 -1.1704  1.5575
  687MOL0     H94805   5.037   0.207   9.364 -1.0534 -0.7368  1.7693
  687MOL0     H94806   4.940   0.295   9.245  3.3013  0.4635 -1.3254
  688MOL0     O94807   6.074   3.572   3.952 -0.0208 -0.3820 -0.1520
  688MOL0     C94808   6.164   3.488   3.966 -0.0933  0.2012 -0.2907
  688MOL0     O94809   6.143   3.357   3.976 -0.5391 -0.2803 -0.0553
  688MOL0     C94810   6.015   3.315   3.946  0.0901 -0.3145  0.4302
  688MOL0     C94811   5.931   3.280   4.056  0.2634 -0.6933 -0.4479
  688MOL0     C94812   5.799   3.235   4.026  0.1048  0.3295  0.1318
  688MOL0     C94813   5.751   3.221   3.893 -0.2094 -0.9704  0.0746
  688MOL0     O94814   5.621   3.198   3.872 -0.0278  0.1906  1.0773
  688MOL0     C94815   5.554   3.262   3.765  1.2079  0.6590 -0.0907
  688MOL0     C94816   5.402   3.222   3.771  0.8804 -0.0305  0.2600
  688MOL0     C94817   5.332   3.267   3.889 -0.4979  0.1514  0.0497
  688MOL0     C94818   5.205   3.189   3.915 -0.8427  0.5700  0.5581
  688MOL0     C94819   5.137   3.210   4.049  0.0209  0.0731  0.1005
  688MOL0     C94820   4.984   3.191   4.039  0.8929  0.5250 -0.2644
  688MOL0     C94821   4.950   3.051   4.000 -0.0035 -0.4546  0.0024
  688MOL0     C94822   4.803   3.040   4.016  0.4910  1.1379 -0.0607
  688MOL0     N94823   4.750   2.909   3.999 -0.0080  0.2110  0.5241
  688MOL0     C94824   4.730   2.835   3.877 -0.3497 -0.6799 -0.5900
  688MOL0     C94825   4.659   2.729   3.905  0.3465  0.4849  1.3202
  688MOL0     C94826   4.640   2.619   3.805  0.2246  0.6701  0.7865
  688MOL0     C94827   4.702   2.490   3.858 -0.1370  0.2283 -0.4956
  688MOL0     C94828   4.849   2.482   3.814  1.2333  1.0308  0.7239
  688MOL0     C94829   4.953   2.560   3.887  0.0703  0.6344  0.7951
  688MOL0     O94830   5.072   2.538   3.809  0.2710  0.0103 -0.3219
  688MOL0     C94831   5.197   2.563   3.864  0.2784 -0.6216 -0.2710
  688MOL0     C94832   5.222   2.669   3.954 -0.0861  0.4699  0.3283
  688MOL0     C94833   5.346   2.691   4.010  0.1457  1.3127  0.2308
  688MOL0     C94834   5.357   2.805   4.099 -0.0667  0.1509 -0.0521
  688MOL0     C94835   5.451   2.596   3.974 -0.2364 -1.3807 -0.4188
  688MOL0     C94836   5.598   2.605   4.014  1.0333  0.2834 -0.5804
  688MOL0     O94837   5.663   2.491   4.012 -0.1390  0.2875 -0.0521
  688MOL0     C94838   5.797   2.488   4.015 -0.7941  0.6711 -0.1070
  688MOL0     C94839   5.869   2.433   4.121 -0.5880 -0.2835 -0.1403
  688MOL0     C94840   6.010   2.441   4.128  0.4781 -0.1935  0.2974
  688MOL0     C94841   6.082   2.501   4.029 -0.4606  1.7004  0.4850
  688MOL0     O94842   6.211   2.516   4.068 -0.4979 -0.7791  0.4080
  688MOL0     C94843   6.306   2.569   3.968  0.5784 -0.1590 -0.5497
  688MOL0     C94844   6.447   2.607   4.014  0.2742 -0.3535 -0.0377
  688MOL0     C94845   6.517   2.490   4.071 -0.7655  0.8512 -0.0866
  688MOL0     C94846   6.663   2.524   4.106  0.2547  0.2553  0.1298
  688MOL0     C94847   6.759   2.407   4.100 -0.3924  0.0438 -0.0190
  688MOL0     C94848   6.902   2.444   4.064 -0.7987  0.5024 -0.1569
  688MOL0     C94849   6.981   2.527   4.163  0.4266  0.0579 -0.0087
  688MOL0     C94850   7.125   2.558   4.133 -0.0368 -0.2640  0.4762
  688MOL0    Cl94851   7.131   2.684   3.996 -0.0370  0.6147 -0.4433
  688MOL0     C94852   6.011   2.546   3.919  0.6539 -0.2035 -0.0869
  688MOL0     C94853   5.874   2.538   3.912  0.1083  0.4174  0.3449
  688MOL0     O94854   5.651   2.715   4.045  0.2560 -0.1914  0.1998
  688MOL0     C94855   5.423   2.491   3.888 -0.1295  0.0250  0.5286
  688MOL0     C94856   5.303   2.475   3.825 -0.3802  0.0439 -0.6991
  688MOL0     N94857   4.632   2.737   4.048 -0.2351 -0.2620  0.2847
  688MOL0     N94858   4.685   2.844   4.097 -0.6896 -0.2875 -0.3871
  688MOL0     C94859   5.840   3.270   3.789  0.5743 -0.2060  0.5667
  688MOL0     C94860   5.971   3.316   3.817  0.4701 -0.0347  0.2952
  688MOL0     C94861   6.307   3.532   3.977 -0.1339 -0.0977  0.0961
  688MOL0     C94862   6.410   3.429   3.965 -0.4215  0.3020  0.9084
  688MOL0     C94863   6.548   3.456   3.983 -0.3175  0.6726 -0.6082
  688MOL0     C94864   6.588   3.594   3.993 -0.3932  0.2835 -0.1341
  688MOL0     O94865   6.722   3.605   3.990 -0.0335  0.8289 -0.0233
  688MOL0     C94866   6.766   3.719   4.069 -0.2777 -0.5515  0.2435
  688MOL0     C94867   6.911   3.708   4.122  0.3563  1.2182 -0.4103
  688MOL0     C94868   6.921   3.578   4.209  0.6325 -0.4816 -0.9138
  688MOL0     C94869   7.055   3.579   4.282 -0.0151 -0.0121  0.0640
  688MOL0     C94870   7.058   3.686   4.386  0.6044 -0.0744  0.6523
  688MOL0     C94871   7.053   3.777   4.468  0.1063  0.6654 -0.4851
  688MOL0     C94872   6.489   3.687   3.990 -0.1469 -1.0606  0.5745
  688MOL0     C94873   6.353   3.665   3.997 -1.2688  0.4299 -0.9988
  688MOL0     C94874   6.268   3.782   4.031  0.4388 -0.3848 -0.1497
  688MOL0     H94875   5.961   3.302   4.158  1.7970 -1.5867 -0.6880
  688MOL0     H94876   5.745   3.198   4.113 -0.7151 -1.2872 -1.0302
  688MOL0     H94877   5.600   3.238   3.669  3.4364 -0.3259  1.1507
  688MOL0     H94878   5.568   3.370   3.771  0.8854  0.6367  1.3144
  688MOL0     H94879   5.360   3.259   3.678  3.4545 -2.3991 -2.0317
  688MOL0     H94880   5.388   3.115   3.756  3.2608  0.0674 -4.7975
  688MOL0     H94881   5.397   3.265   3.977 -2.0609  2.5654  1.3929
  688MOL0     H94882   5.307   3.373   3.887 -4.6194 -0.6400  0.1492
  688MOL0     H94883   5.128   3.209   3.840  1.1796  2.9851 -1.0178
  688MOL0     H94884   5.223   3.082   3.901 -1.3483  0.4160  1.0254
  688MOL0     H94885   5.172   3.302   4.097  2.9256 -1.9823  2.2811
  688MOL0     H94886   5.160   3.130   4.121 -0.2086  0.2469  0.3679
  688MOL0     H94887   4.939   3.214   4.136  2.6618  0.3522  0.6365
  688MOL0     H94888   4.932   3.253   3.966 -0.5880 -1.4780 -1.0255
  688MOL0     H94889   4.998   2.985   4.074 -0.5843  0.9596  1.7125
  688MOL0     H94890   4.974   3.015   3.900  0.5132 -1.7059  0.5522
  688MOL0     H94891   4.782   3.070   4.119 -1.5124  3.3276 -1.0098
  688MOL0     H94892   4.760   3.116   3.949  2.0187  0.3688 -2.0264
  688MOL0     H94893   4.783   2.851   3.784 -0.5510 -0.9129 -0.7440
  688MOL0     H94894   4.687   2.648   3.710 -1.5662  1.2040  0.0136
  688MOL0     H94895   4.534   2.605   3.781  1.0794 -1.1026 -2.7211
  688MOL0     H94896   4.697   2.473   3.966 -0.2660 -1.6855 -0.7755
  688MOL0     H94897   4.652   2.403   3.815  3.4243 -1.7259 -1.0075
  688MOL0     H94898   4.883   2.378   3.814 -0.8925  0.2839 -0.2288
  688MOL0     H94899   4.854   2.518   3.711 -1.0812  3.4432  1.3322
  688MOL0     H94900   4.914   2.662   3.900 -1.3804  0.3907 -1.0786
  688MOL0     H94901   4.979   2.516   3.983  2.1178 -0.6931 -0.2880
  688MOL0     H94902   5.135   2.730   3.976 -0.3251  0.3406 -0.2500
  688MOL0     H94903   5.261   2.857   4.104 -0.2982 -0.1278 -1.2549
  688MOL0     H94904   5.435   2.873   4.063 -0.9355 -0.1089 -2.6332
  688MOL0     H94905   5.377   2.762   4.197  1.8309 -0.0421 -0.4769
  688MOL0     H94906   5.818   2.384   4.203  1.6094  1.6642  2.5708
  688MOL0     H94907   6.055   2.394   4.215 -0.8684 -3.9124 -0.8176
  688MOL0     H94908   6.323   2.481   3.905 -0.5290 -1.3802  0.7738
  688MOL0     H94909   6.252   2.654   3.925 -3.0979 -0.3319  3.0514
  688MOL0     H94910   6.501   2.665   3.939  0.9428  2.3149  2.3200
  688MOL0     H94911   6.436   2.682   4.093  0.1925 -0.8117  0.3930
  688MOL0     H94912   6.511   2.404   4.004 -2.6483 -0.8443  2.1108
  688MOL0     H94913   6.465   2.452   4.159 -1.0582  0.7900 -0.2851
  688MOL0     H94914   6.665   2.579   4.200 -0.9940 -0.4755  0.6161
  688MOL0     H94915   6.700   2.589   4.026 -0.2913 -1.0725 -1.2531
  688MOL0     H94916   6.755   2.355   4.196 -0.4467  1.3763  0.7231
  688MOL0     H94917   6.723   2.341   4.020  3.5732 -0.9957 -1.1655
  688MOL0     H94918   6.897   2.501   3.971 -1.5666 -0.6563 -0.8454
  688MOL0     H94919   6.966   2.356   4.052  2.5177  3.1137 -4.1785
  688MOL0     H94920   6.969   2.480   4.261 -0.5152 -0.0298 -0.1515
  688MOL0     H94921   6.940   2.629   4.160  0.4358  0.0471 -0.7134
  688MOL0     H94922   7.185   2.471   4.108  0.4437  0.2542 -0.1955
  688MOL0     H94923   7.158   2.617   4.219 -1.0394  2.7428 -1.0620
  688MOL0     H94924   6.069   2.605   3.848  1.0355  0.1580  0.5139
  688MOL0     H94925   5.813   2.578   3.832 -0.6478 -1.0396  0.1453
  688MOL0     H94926   5.500   2.416   3.873  1.3168  1.5735 -0.2141
  688MOL0     H94927   5.291   2.387   3.762  2.6219  0.0332 -1.3999
  688MOL0     H94928   5.812   3.262   3.685 -3.4900 -2.7784  1.6033
  688MOL0     H94929   6.046   3.338   3.741  0.5266 -2.5030 -0.4588
  688MOL0     H94930   6.377   3.326   3.961  0.3798  0.0440  0.8175
  688MOL0     H94931   6.619   3.374   3.969  1.1123  2.0124 -1.5122
  688MOL0     H94932   6.771   3.802   3.998 -0.7241  0.6960  1.6368
  688MOL0     H94933   6.696   3.743   4.149  0.9470 -1.0950  1.5189
  688MOL0     H94934   6.930   3.799   4.180  0.1424  1.0392 -0.0503
  688MOL0     H94935   6.975   3.691   4.035  0.0962 -0.3217 -0.3327
  688MOL0     H94936   6.837   3.564   4.277  2.0210  1.8179  1.4390
  688MOL0     H94937   6.913   3.493   4.140 -0.0601 -0.2305 -1.1429
  688MOL0     H94938   7.130   3.588   4.203 -0.3313  0.3248 -0.2035
  688MOL0     H94939   7.054   3.485   4.338 -3.8549 -1.9982 -2.8993
  688MOL0     H94940   7.059   3.855   4.541 -0.2356  0.3678 -0.1330
  688MOL0     H94941   6.527   3.788   4.002  2.0839 -1.9604  1.7115
  688MOL0     H94942   6.214   3.803   3.938  1.1378  0.3172 -0.4095
  688MOL0     H94943   6.192   3.766   4.108  0.2819  0.7496 -0.0495
  688MOL0     H94944   6.322   3.876   4.051 -2.3802  1.3786 -0.3156
  689MOL0     O94945   0.400   5.098   7.808  0.4702  0.5855 -0.9022
  689MOL0     C94946   0.401   4.976   7.814 -0.4774  0.1635  0.8441
  689MOL0     O94947   0.413   4.899   7.925 -0.3088  1.0033 -0.4757
  689MOL0     C94948   0.461   4.955   8.036 -0.6738 -0.6298  0.5590
  689MOL0     C94949   0.372   5.006   8.141  0.8731 -0.4767  0.1609
  689MOL0     C94950   0.428   5.069   8.251 -0.1809  0.1099 -1.2641
  689MOL0     C94951   0.567   5.097   8.261 -0.6121 -0.7955  1.0220
  689MOL0     O94952   0.627   5.169   8.362  0.4004 -0.0351  0.0916
  689MOL0     C94953   0.545   5.236   8.461  0.4494  0.5669  0.1581
  689MOL0     C94954   0.650   5.307   8.561 -0.2366  0.2365  0.7450
  689MOL0     C94955   0.581   5.408   8.657  0.2025 -0.7003 -1.0432
  689MOL0     C94956   0.678   5.510   8.737 -0.0106  0.7972 -0.6618
  689MOL0     C94957   0.803   5.433   8.783  1.1628  0.5008 -0.3353
  689MOL0     C94958   0.903   5.529   8.858  0.5421  0.3002  0.0436
  689MOL0     C94959   1.033   5.455   8.887  1.1261 -0.3688  0.6710
  689MOL0     C94960   1.125   5.541   8.978 -0.2346  0.6197  0.1870
  689MOL0     N94961   1.225   5.438   9.025  0.0684 -0.6868  0.2969
  689MOL0     C94962   1.233   5.386   9.148 -0.0772 -0.1994  0.2865
  689MOL0     C94963   1.340   5.299   9.148 -0.5704 -0.8223  0.3144
  689MOL0     C94964   1.402   5.237   9.273 -0.8394  0.4720 -0.1065
  689MOL0     C94965   1.317   5.130   9.354 -0.0983 -0.0528 -0.1959
  689MOL0     C94966   1.399   5.062   9.473  0.4511  0.0629  0.3518
  689MOL0     C94967   1.332   4.938   9.544  0.5789 -0.6932  0.7222
  689MOL0     O94968   1.199   4.961   9.576 -0.6823 -0.1915  0.1051
  689MOL0     C94969   1.096   4.910   9.514  0.2394 -0.3303 -0.8994
  689MOL0     C94970   0.974   4.923   9.576  0.3088 -0.0416 -0.5957
  689MOL0     C94971   0.856   4.883   9.513  0.8401  0.5572  0.5732
  689MOL0     C94972   0.737   4.919   9.598  0.0392 -0.5244  0.7079
  689MOL0     C94973   0.852   4.820   9.379 -0.4432 -0.1068 -0.3026
  689MOL0     C94974   0.729   4.789   9.300 -0.1617  0.2634  0.5584
  689MOL0     O94975   0.623   4.872   9.299  0.7932  0.0097  0.7514
  689MOL0     C94976   0.515   4.857   9.212 -0.3660 -0.0031  0.4777
  689MOL0     C94977   0.436   4.973   9.211  0.0054  0.1736  0.8781
  689MOL0     C94978   0.308   4.965   9.161 -0.0674 -0.0303 -0.7187
  689MOL0     C94979   0.254   4.842   9.110 -0.6361 -0.3473 -0.3130
  689MOL0     O94980   0.118   4.826   9.096  0.3506 -0.7928  0.6750
  689MOL0     C94981   0.063   4.719   9.012 -0.1479  0.1307  0.6645
  689MOL0     C94982  -0.067   4.766   8.950  0.0926 -0.6007  0.7990
  689MOL0     C94983  -0.125   4.657   8.855  0.6681 -0.2425  0.3090
  689MOL0     C94984  -0.238   4.700   8.751  0.3191 -0.8818 -0.1404
  689MOL0     C94985  -0.302   4.579   8.679  0.0175 -0.1472 -0.2495
  689MOL0     C94986  -0.210   4.484   8.612 -0.8782  0.8462  0.4838
  689MOL0     C94987  -0.287   4.359   8.547  0.3565  0.5619  0.8366
  689MOL0     C94988  -0.202   4.234   8.533  0.0358 -0.4688  0.0558
  689MOL0    Cl94989  -0.052   4.279   8.444 -0.2299 -0.0877  0.2472
  689MOL0     C94990   0.337   4.729   9.103 -0.2737  0.2720  0.2351
  689MOL0     C94991   0.468   4.736   9.148 -0.0320  0.1763 -0.4141
  689MOL0     O94992   0.746   4.690   9.228  0.6537 -0.4284 -0.0508
  689MOL0     C94993   0.982   4.805   9.328 -0.2509  0.0251 -0.2425
  689MOL0     C94994   1.099   4.848   9.394  0.1706 -0.3227  0.6171
  689MOL0     N94995   1.385   5.294   9.022 -0.6733  0.2633  0.0975
  689MOL0     N94996   1.312   5.372   8.946 -0.5546 -0.1177 -0.4952
  689MOL0     C94997   0.652   5.054   8.152  0.3012  0.0824  0.0116
  689MOL0     C94998   0.597   4.983   8.041  0.4375 -0.3397  0.2194
  689MOL0     C94999   0.382   4.904   7.685 -0.4942 -0.1498  0.9761
  689MOL0     C95000   0.470   4.808   7.661 -0.1352  0.6464  0.7258
  689MOL0     C95001   0.469   4.737   7.535 -0.1347 -0.3035 -0.4966
  689MOL0     C95002   0.359   4.752   7.448 -0.0528 -1.0359 -0.4817
  689MOL0     O95003   0.343   4.697   7.324  0.2122  1.1889  0.3203
  689MOL0     C95004   0.437   4.600   7.273 -0.1358 -0.4583 -0.2383
  689MOL0     C95005   0.369   4.529   7.158  0.1541 -0.3370  0.6528
  689MOL0     C95006   0.413   4.378   7.147  0.3242  0.4516 -0.6517
  689MOL0     C95007   0.563   4.364   7.133 -0.6093 -0.6311 -0.9537
  689MOL0     C95008   0.616   4.419   7.002  0.7737  0.4345  0.6209
  689MOL0     C95009   0.647   4.453   6.885  0.8362 -0.4845 -0.1413
  689MOL0     C95010   0.265   4.848   7.483  0.3213  0.5094 -0.0073
  689MOL0     C95011   0.277   4.921   7.597  0.4998 -0.2286  1.3048
  689MOL0     C95012   0.186   5.050   7.613  0.0453 -0.8364 -0.6551
  689MOL0     H95013   0.268   4.980   8.127  0.5188 -0.0582  1.8262
  689MOL0     H95014   0.366   5.093   8.337 -0.8766  2.7475 -2.3970
  689MOL0     H95015   0.500   5.156   8.521  3.1468  0.5831  2.4254
  689MOL0     H95016   0.478   5.313   8.422  1.3180  1.8993  1.2173
  689MOL0     H95017   0.711   5.236   8.618  0.6288 -2.0569 -2.7681
  689MOL0     H95018   0.719   5.371   8.505 -2.1891  2.4430  0.7110
  689MOL0     H95019   0.518   5.467   8.590 -0.7894 -2.1652 -1.4476
  689MOL0     H95020   0.508   5.362   8.724 -1.6597  1.2674 -1.6219
  689MOL0     H95021   0.713   5.586   8.666  1.3933 -0.1369 -1.0002
  689MOL0     H95022   0.629   5.563   8.819  1.4424 -0.4802  1.1135
  689MOL0     H95023   0.855   5.388   8.698  2.0743 -1.9073  1.3784
  689MOL0     H95024   0.791   5.347   8.849  0.1383 -1.4848 -2.9535
  689MOL0     H95025   0.922   5.616   8.795  1.8037 -0.6674 -0.9552
  689MOL0     H95026   0.864   5.571   8.952  0.6670  0.2504  0.1185
  689MOL0     H95027   1.081   5.425   8.794 -0.2851 -2.3724  0.5096
  689MOL0     H95028   1.020   5.359   8.938  2.9701 -0.7235  0.5424
  689MOL0     H95029   1.181   5.613   8.918  1.6399  0.5716  1.7831
  689MOL0     H95030   1.081   5.597   9.060 -0.5573 -0.5266  0.8247
  689MOL0     H95031   1.167   5.423   9.227 -0.3127  1.9950 -0.8552
  689MOL0     H95032   1.435   5.320   9.336  1.5269 -1.1209  0.8776
  689MOL0     H95033   1.496   5.194   9.240  0.5961  1.7381  2.0741
  689MOL0     H95034   1.242   5.195   9.398 -0.6110  0.3363 -1.6086
  689MOL0     H95035   1.259   5.053   9.303 -0.9513  1.5029 -1.6739
  689MOL0     H95036   1.494   5.029   9.428 -0.7172 -0.2183 -2.0529
  689MOL0     H95037   1.418   5.139   9.548 -2.2488  1.4189 -0.2395
  689MOL0     H95038   1.338   4.847   9.483 -0.4861 -0.1542 -0.2261
  689MOL0     H95039   1.382   4.925   9.640  2.6121  0.9077 -0.0484
  689MOL0     H95040   0.958   4.972   9.672  2.1092  0.5343 -0.5613
  689MOL0     H95041   0.720   5.027   9.590 -1.4587 -0.7445  0.6102
  689MOL0     H95042   0.761   4.884   9.699 -1.0007 -0.4076  1.0160
  689MOL0     H95043   0.648   4.867   9.560  0.5359 -0.1568 -1.0274
  689MOL0     H95044   0.479   5.064   9.250  1.9173 -0.3970  0.2292
  689MOL0     H95045   0.251   5.057   9.150  0.7393  0.4210 -1.2322
  689MOL0     H95046   0.134   4.687   8.936 -0.3577 -0.4630  0.7089
  689MOL0     H95047   0.043   4.632   9.076  0.8787  0.8956  2.0800
  689MOL0     H95048  -0.135   4.813   9.021 -2.1772 -0.2194 -1.4863
  689MOL0     H95049  -0.029   4.837   8.876 -2.6528 -0.1009 -0.2185
  689MOL0     H95050  -0.166   4.582   8.923  0.8699  0.0847  0.7954
  689MOL0     H95051  -0.038   4.616   8.804  3.1444  3.1902  1.3803
  689MOL0     H95052  -0.197   4.766   8.674 -1.1981 -0.9511 -1.0333
  689MOL0     H95053  -0.312   4.763   8.801 -1.4599 -1.8951 -1.3966
  689MOL0     H95054  -0.356   4.518   8.753  1.8229 -1.0760  0.3669
  689MOL0     H95055  -0.371   4.618   8.604  0.1907 -1.3602 -1.0639
  689MOL0     H95056  -0.146   4.431   8.684 -1.8427 -0.2578  0.5424
  689MOL0     H95057  -0.154   4.538   8.535 -0.8873 -1.6743 -1.4142
  689MOL0     H95058  -0.348   4.382   8.460 -3.6281  0.7487  3.4289
  689MOL0     H95059  -0.373   4.334   8.609  0.2028 -0.7757  0.1298
  689MOL0     H95060  -0.263   4.159   8.483  1.4637 -0.6068 -1.5991
  689MOL0     H95061  -0.174   4.187   8.627 -0.5408  1.1064  1.0675
  689MOL0     H95062   0.294   4.645   9.050  0.7919  1.6220 -2.9905
  689MOL0     H95063   0.530   4.647   9.151  2.9411  2.0650  3.8096
  689MOL0     H95064   1.007   4.766   9.230  3.2745  2.6031 -0.5658
  689MOL0     H95065   1.187   4.838   9.332 -2.0132 -3.0503 -2.3320
  689MOL0     H95066   0.759   5.068   8.160  0.3435  0.2573 -0.7668
  689MOL0     H95067   0.667   4.933   7.974  0.7617 -1.5232  1.4106
  689MOL0     H95068   0.540   4.787   7.742 -1.3037 -0.3346  1.5013
  689MOL0     H95069   0.540   4.657   7.515 -0.0604 -1.2333  2.7811
  689MOL0     H95070   0.534   4.637   7.238  1.2603 -3.0955  0.5986
  689MOL0     H95071   0.461   4.534   7.356 -1.4531  0.5129  0.9645
  689MOL0     H95072   0.393   4.587   7.068 -4.3938  1.5534  0.3379
  689MOL0     H95073   0.261   4.549   7.157 -0.0088 -1.1011  1.4511
  689MOL0     H95074   0.385   4.313   7.230  0.2260 -1.3578 -2.0629
  689MOL0     H95075   0.359   4.347   7.058  1.5119  0.2037 -1.3130
  689MOL0     H95076   0.583   4.258   7.120 -0.9331 -0.8252  0.0913
  689MOL0     H95077   0.619   4.409   7.215 -2.2841  0.4684 -0.3569
  689MOL0     H95078   0.646   4.481   6.781 -2.1434 -0.4455 -0.1763
  689MOL0     H95079   0.178   4.856   7.419  2.4968  0.9007 -3.1808
  689MOL0     H95080   0.088   5.031   7.569  0.7396 -0.6449 -2.3492
  689MOL0     H95081   0.178   5.087   7.716  1.1315 -0.9331 -0.5198
  689MOL0     H95082   0.247   5.116   7.551  2.4320 -2.9061 -0.6970
  690MOL0     O95083   9.955   0.195   0.673 -0.6492 -0.3001 -0.5311
  690MOL0     C95084   9.953   0.262   0.778 -0.3744 -0.5437 -0.2688
  690MOL0     O95085  10.045   0.238   0.884  0.2710 -0.3209  0.2848
  690MOL0     C95086  10.156   0.158   0.854  0.3869  0.6773  0.0098
  690MOL0     C95087  10.273   0.213   0.812 -0.3131 -0.0873  0.4791
  690MOL0     C95088  10.384   0.128   0.795  0.6008 -0.3906 -0.8256
  690MOL0     C95089  10.377  -0.014   0.810  0.2525 -0.7666 -0.4906
  690MOL0     O95090  10.489  -0.087   0.778 -0.7200  0.4018  1.2298
  690MOL0     C95091  10.487  -0.230   0.798  0.2784  0.2233 -0.5920
  690MOL0     C95092  10.605  -0.299   0.746 -0.0826 -0.7444  0.3686
  690MOL0     C95093  10.733  -0.248   0.812 -0.8253  0.1694  0.3651
  690MOL0     C95094  10.761  -0.330   0.942 -0.6523 -1.2120  0.0140
  690MOL0     C95095  10.884  -0.262   1.015  0.7843 -0.1649  0.1107
  690MOL0     C95096  10.949  -0.353   1.115  0.5686 -0.5928  0.7027
  690MOL0     C95097  11.082  -0.288   1.164  0.3498  0.8474 -0.3901
  690MOL0     C95098  11.144  -0.383   1.271 -0.5684 -0.7365  0.5021
  690MOL0     N95099  11.233  -0.324   1.361 -0.7767 -0.8893  0.0668
  690MOL0     C95100  11.321  -0.394   1.436 -0.5381  0.3662  0.4059
  690MOL0     C95101  11.395  -0.295   1.497  0.0118 -0.5120 -0.0763
  690MOL0     C95102  11.510  -0.324   1.584  0.6465 -0.6648  0.2438
  690MOL0     C95103  11.599  -0.204   1.602  0.3724 -0.7374  0.1836
  690MOL0     C95104  11.703  -0.224   1.706  0.8317 -0.7189 -0.9328
  690MOL0     C95105  11.794  -0.097   1.731 -0.4817 -0.2869  0.0414
  690MOL0     O95106  11.821  -0.064   1.872 -0.3280 -0.2469 -0.1469
  690MOL0     C95107  11.864   0.068   1.898  0.3104  0.8400  0.8554
  690MOL0     C95108  11.904   0.159   1.808 -0.9325  0.1879 -0.1226
  690MOL0     C95109  11.908   0.296   1.830  0.2340 -0.5636  0.9974
  690MOL0     C95110  11.948   0.382   1.707  0.5202  0.1608 -0.5287
  690MOL0     C95111  11.898   0.334   1.962 -0.3187 -0.0947  0.1399
  690MOL0     C95112  11.938   0.468   2.004 -0.5157 -0.8503 -0.2413
  690MOL0     O95113  11.899   0.572   1.926 -0.3074  0.7512  0.2871
  690MOL0     C95114  11.982   0.681   1.919 -0.2751 -0.9427 -0.0883
  690MOL0     C95115  12.114   0.663   1.870  0.0188 -0.3175 -0.8952
  690MOL0     C95116  12.219   0.765   1.877  0.7901  0.5428 -0.0622
  690MOL0     C95117  12.184   0.894   1.935  0.1072 -0.0248 -0.0183
  690MOL0     O95118  12.261   1.009   1.944 -0.2058 -0.5250 -0.4329
  690MOL0     C95119  12.381   1.029   1.862  0.6908  0.8470  0.1401
  690MOL0     C95120  12.434   1.163   1.916 -0.5984 -0.1371 -1.0186
  690MOL0     C95121  12.557   1.204   1.838  0.3230 -0.4602 -0.3330
  690MOL0     C95122  12.630   1.313   1.911 -0.4728  0.2154  0.1627
  690MOL0     C95123  12.743   1.356   1.819  0.0234 -0.1466  0.3679
  690MOL0     C95124  12.843   1.456   1.874  0.6066  0.3822  0.3988
  690MOL0     C95125  12.806   1.597   1.868  0.2882  0.8486 -0.1421
  690MOL0     C95126  12.916   1.690   1.926 -0.4301  0.1453 -0.0274
  690MOL0    Cl95127  12.937   1.701   2.108  0.1061 -0.1047  0.0803
  690MOL0     C95128  12.049   0.909   1.969 -0.1182 -0.1766  0.1161
  690MOL0     C95129  11.949   0.804   1.974  1.2518 -0.2888  0.1302
  690MOL0     O95130  12.023   0.478   2.093  0.4143 -0.1755  0.0933
  690MOL0     C95131  11.874   0.239   2.067 -0.1653 -0.0269  0.8140
  690MOL0     C95132  11.853   0.105   2.027 -0.9363 -0.3693 -0.6306
  690MOL0     N95133  11.342  -0.174   1.478  0.1158 -0.5687  0.2792
  690MOL0     N95134  11.254  -0.193   1.388  1.2171  0.2943  0.3025
  690MOL0     C95135  10.256  -0.070   0.860 -0.0742 -1.2563 -0.0654
  690MOL0     C95136  10.149   0.018   0.881  0.4044 -0.2363  0.3929
  690MOL0     C95137   9.841   0.358   0.793 -0.0461  0.5071  0.0431
  690MOL0     C95138   9.840   0.430   0.907 -1.1454 -1.0744 -0.3715
  690MOL0     C95139   9.746   0.531   0.926  0.1656  0.3824 -0.9481
  690MOL0     C95140   9.639   0.557   0.842 -0.2236  0.3521  0.3446
  690MOL0     O95141   9.540   0.642   0.867 -0.3787 -0.4601 -0.0600
  690MOL0     C95142   9.532   0.699   1.002 -0.1371  0.3484  1.0380
  690MOL0     C95143   9.396   0.770   1.036 -0.5933 -0.3395  0.3973
  690MOL0     C95144   9.276   0.681   1.040 -0.2736 -0.6206 -0.8743
  690MOL0     C95145   9.155   0.756   1.095  1.1696  0.2074  0.2794
  690MOL0     C95146   9.142   0.732   1.240  0.0808  0.4918 -0.2375
  690MOL0     C95147   9.122   0.730   1.359 -0.1177  0.2288 -0.1534
  690MOL0     C95148   9.633   0.491   0.718 -0.0021 -0.0769 -0.4241
  690MOL0     C95149   9.731   0.391   0.694 -1.0091  0.3760 -0.7075
  690MOL0     C95150   9.714   0.319   0.560  0.2756  0.4150 -1.3316
  690MOL0     H95151  10.274   0.318   0.785  0.6524 -0.0446  0.6327
  690MOL0     H95152  10.482   0.161   0.761 -1.0644  1.8031 -4.0666
  690MOL0     H95153  10.397  -0.269   0.750  1.0195 -0.2246 -1.6568
  690MOL0     H95154  10.480  -0.244   0.907 -1.8167  1.5319 -0.5015
  690MOL0     H95155  10.585  -0.405   0.762 -1.3854 -0.4554  0.8275
  690MOL0     H95156  10.600  -0.279   0.638  1.4789  1.4901  0.6326
  690MOL0     H95157  10.818  -0.269   0.746  0.3925  0.2802  1.8489
  690MOL0     H95158  10.724  -0.140   0.829 -0.8665  0.1357  0.5579
  690MOL0     H95159  10.682  -0.314   1.016  2.1926  0.1289  3.0046
  690MOL0     H95160  10.776  -0.437   0.923 -0.9953 -1.3881  0.7075
  690MOL0     H95161  10.860  -0.167   1.062  0.8152  0.1310 -0.4682
  690MOL0     H95162  10.955  -0.245   0.934  0.8249  1.2519  0.4271
  690MOL0     H95163  10.876  -0.356   1.196 -0.2239 -0.5774  0.0074
  690MOL0     H95164  10.970  -0.451   1.071  0.5017 -0.9379  1.4449
  690MOL0     H95165  11.062  -0.187   1.203  1.1731  1.4310 -1.4353
  690MOL0     H95166  11.156  -0.269   1.086  1.3968 -1.6218 -0.0958
  690MOL0     H95167  11.074  -0.416   1.348  1.1806 -2.1920  1.5589
  690MOL0     H95168  11.195  -0.468   1.227 -1.6110 -0.5213 -1.2066
  690MOL0     H95169  11.349  -0.499   1.437  1.0182  0.7563 -0.3018
  690MOL0     H95170  11.560  -0.412   1.544 -3.4344 -2.7362 -0.8477
  690MOL0     H95171  11.476  -0.359   1.682 -2.7668  0.3235 -0.4212
  690MOL0     H95172  11.653  -0.181   1.509 -2.9659  1.3710 -1.4118
  690MOL0     H95173  11.534  -0.120   1.627 -0.9856 -1.8490  0.4968
  690MOL0     H95174  11.649  -0.235   1.801 -1.0484  0.5696 -1.8029
  690MOL0     H95175  11.767  -0.311   1.689  3.3375  1.1185 -1.4594
  690MOL0     H95176  11.893  -0.120   1.691 -0.9081  0.6641 -1.6936
  690MOL0     H95177  11.753  -0.005   1.689  0.9830  1.6105  2.4498
  690MOL0     H95178  11.924   0.121   1.708 -1.1213 -0.8155  0.2036
  690MOL0     H95179  12.054   0.405   1.694 -0.0215  1.5587 -2.9247
  690MOL0     H95180  11.895   0.477   1.708  1.5586  0.7666 -1.7266
  690MOL0     H95181  11.929   0.332   1.612  0.5370  0.5837 -0.7567
  690MOL0     H95182  12.139   0.562   1.839 -1.7543 -1.3697  0.9107
  690MOL0     H95183  12.321   0.759   1.839  1.6618  1.9674  1.8470
  690MOL0     H95184  12.449   0.943   1.874 -2.2284 -1.6025  0.3839
  690MOL0     H95185  12.350   1.040   1.758  0.5080 -1.3290 -0.0945
  690MOL0     H95186  12.367   1.249   1.904 -0.0371  0.1747 -1.9679
  690MOL0     H95187  12.457   1.169   2.023  3.1168  2.2928 -1.7755
  690MOL0     H95188  12.536   1.243   1.738  3.3054  0.5414 -0.6693
  690MOL0     H95189  12.625   1.121   1.818  0.8469 -0.4053  1.0717
  690MOL0     H95190  12.675   1.273   2.003 -2.5131 -0.9469  0.7173
  690MOL0     H95191  12.574   1.403   1.938 -0.6042 -0.1296  1.0974
  690MOL0     H95192  12.808   1.272   1.794 -1.3904 -0.9172 -0.8721
  690MOL0     H95193  12.691   1.391   1.729 -0.2819 -1.4543  0.0118
  690MOL0     H95194  12.936   1.442   1.819  0.9286  1.5685  0.6163
  690MOL0     H95195  12.836   1.426   1.979 -0.9807  1.1552  0.5501
  690MOL0     H95196  12.711   1.608   1.920 -1.2420 -0.5900 -2.4748
  690MOL0     H95197  12.784   1.633   1.767 -4.4783  0.6998  0.6113
  690MOL0     H95198  12.898   1.790   1.884  0.6119  0.0547 -0.7313
  690MOL0     H95199  13.007   1.650   1.881  0.5240  0.7335  1.2836
  690MOL0     H95200  12.022   1.011   1.992  1.7456  0.7402 -1.5610
  690MOL0     H95201  11.853   0.819   2.023  0.7571  0.6569 -1.0517
  690MOL0     H95202  11.867   0.276   2.169 -0.5975  0.3701  0.6417
  690MOL0     H95203  11.835   0.036   2.108  0.4502  0.5992  0.5429
  690MOL0     H95204  10.265  -0.173   0.893 -2.1168 -1.4738 -0.0205
  690MOL0     H95205  10.057  -0.033   0.910  2.3719 -3.3207  1.7209
  690MOL0     H95206   9.921   0.415   0.977 -1.7861 -5.3021 -0.3123
  690MOL0     H95207   9.756   0.578   1.023 -3.3710 -1.7791  0.6696
  690MOL0     H95208   9.540   0.619   1.077 -1.1209  2.0509  3.0525
  690MOL0     H95209   9.613   0.771   1.011 -1.2944  2.1460 -1.7210
  690MOL0     H95210   9.384   0.850   0.962 -2.1940 -1.1542 -0.2580
  690MOL0     H95211   9.409   0.819   1.133  1.6862  1.1122 -0.5561
  690MOL0     H95212   9.248   0.660   0.936 -0.6584  1.7893 -1.3026
  690MOL0     H95213   9.300   0.589   1.095 -0.1951 -1.0130 -1.5541
  690MOL0     H95214   9.069   0.720   1.037  2.0887 -0.8270 -0.5058
  690MOL0     H95215   9.167   0.862   1.071  1.8174 -0.0120 -0.4540
  690MOL0     H95216   9.106   0.719   1.465 -1.9093 -1.2323 -0.5298
  690MOL0     H95217   9.558   0.521   0.646  0.0541 -0.9049 -0.8407
  690MOL0     H95218   9.797   0.319   0.490  1.2801  1.4404 -0.1926
  690MOL0     H95219   9.697   0.213   0.579  1.5756  0.1918 -1.3189
  690MOL0     H95220   9.618   0.353   0.519 -0.7775 -0.0664  0.5893
  691MOL0     O95221   0.438   5.777   2.533  0.8113 -0.8753  0.0355
  691MOL0     C95222   0.359   5.790   2.436 -0.8955  0.0531 -0.1050
  691MOL0     O95223   0.382   5.857   2.320 -1.2582  0.4312 -0.7895
  691MOL0     C95224   0.490   5.935   2.295 -0.0977 -0.4657 -0.4518
  691MOL0     C95225   0.515   6.033   2.392 -0.2733 -0.2980  0.3196
  691MOL0     C95226   0.625   6.134   2.379  0.4955  0.9673 -0.2714
  691MOL0     C95227   0.702   6.126   2.261 -0.2019  0.3379  0.0193
  691MOL0     O95228   0.810   6.212   2.276 -0.9361 -0.0649 -0.5696
  691MOL0     C95229   0.890   6.236   2.161  0.3998 -0.0074 -0.3455
  691MOL0     C95230   1.014   6.317   2.198  0.1831  0.1276  0.4042
  691MOL0     C95231   1.111   6.229   2.282 -0.5215 -0.1504 -0.6278
  691MOL0     C95232   1.245   6.298   2.309 -0.2102 -0.2645  0.1848
  691MOL0     C95233   1.351   6.205   2.379 -0.3600 -0.6700 -0.4599
  691MOL0     C95234   1.484   6.280   2.385  0.6316  0.2267 -0.3438
  691MOL0     C95235   1.572   6.202   2.481 -0.6369  0.4334  1.0656
  691MOL0     C95236   1.714   6.261   2.491  0.0193 -0.0694 -0.7303
  691MOL0     N95237   1.788   6.252   2.368 -0.6518 -0.5394 -0.2850
  691MOL0     C95238   1.800   6.139   2.287 -0.6368  0.1478  1.0229
  691MOL0     C95239   1.853   6.182   2.166  1.1467  0.3199 -0.6729
  691MOL0     C95240   1.882   6.092   2.049  0.5880  0.0407 -0.4767
  691MOL0     C95241   1.840   6.155   1.912 -0.4459 -0.3851 -0.4547
  691MOL0     C95242   1.854   6.060   1.795 -0.1352 -0.4129 -0.5408
  691MOL0     C95243   1.998   6.032   1.757 -0.1398 -0.5117  0.4595
  691MOL0     O95244   2.055   6.144   1.697  0.1441 -0.4912 -0.3363
  691MOL0     C95245   2.174   6.131   1.632 -0.2587 -0.0370 -0.0441
  691MOL0     C95246   2.224   6.236   1.558  0.5752  0.1185 -0.9795
  691MOL0     C95247   2.341   6.228   1.479  0.0980 -0.8590  0.4608
  691MOL0     C95248   2.384   6.345   1.392 -0.0784  0.1380 -0.3671
  691MOL0     C95249   2.423   6.114   1.484 -0.0465  0.2441  0.5052
  691MOL0     C95250   2.553   6.104   1.419 -0.2427 -0.0840 -0.8000
  691MOL0     O95251   2.566   6.156   1.298  0.2352  0.2247 -0.6191
  691MOL0     C95252   2.665   6.110   1.216  0.9968  0.5184  0.0981
  691MOL0     C95253   2.744   6.197   1.138  0.4665 -0.0014 -0.4174
  691MOL0     C95254   2.848   6.156   1.052  0.1921 -0.9636 -0.1117
  691MOL0     C95255   2.883   6.025   1.046  0.6889  0.1402  0.1320
  691MOL0     O95256   2.992   5.991   0.967  0.3271 -0.4287 -0.0676
  691MOL0     C95257   3.084   5.891   1.013 -0.1159 -0.8932  0.2704
  691MOL0     C95258   3.200   5.897   0.910 -0.2111 -0.6315 -0.0106
  691MOL0     C95259   3.327   5.813   0.955  0.2144 -0.3227 -0.1508
  691MOL0     C95260   3.417   5.781   0.835 -0.9890  0.3264 -0.2694
  691MOL0     C95261   3.510   5.660   0.851 -0.8624  0.2540  0.9663
  691MOL0     C95262   3.643   5.656   0.771 -1.1411  0.3231 -0.3980
  691MOL0     C95263   3.732   5.542   0.794  0.4733  0.0676 -0.4453
  691MOL0     C95264   3.676   5.402   0.762 -0.4624 -1.0268 -0.7668
  691MOL0    Cl95265   3.553   5.410   0.614 -0.3969 -0.4474  0.4983
  691MOL0     C95266   2.812   5.941   1.132 -0.5900  0.2729  0.1277
  691MOL0     C95267   2.705   5.974   1.215  1.0958 -0.0393  0.3976
  691MOL0     O95268   2.648   6.060   1.488  0.0547 -0.5656 -0.6641
  691MOL0     C95269   2.386   6.011   1.574 -0.9892  0.0354 -1.1159
  691MOL0     C95270   2.263   6.021   1.644  0.9149 -0.2857  0.5618
  691MOL0     N95271   1.853   6.318   2.175  0.6101  0.4552  0.6775
  691MOL0     N95272   1.835   6.351   2.295  0.3683  0.6450  0.8785
  691MOL0     C95273   0.673   6.021   2.161  0.4202 -0.1357 -0.4093
  691MOL0     C95274   0.563   5.936   2.175 -0.5301  0.6483  0.3250
  691MOL0     C95275   0.228   5.735   2.445  0.4225  1.0653 -0.0264
  691MOL0     C95276   0.120   5.815   2.404  0.9890  0.6212  0.3760
  691MOL0     C95277  -0.012   5.766   2.408 -0.0108  0.1172  0.7919
  691MOL0     C95278  -0.037   5.645   2.463 -0.3559 -0.5459 -0.7438
  691MOL0     O95279  -0.173   5.612   2.474 -0.1728 -0.2271  0.8942
  691MOL0     C95280  -0.224   5.499   2.540 -0.1367  0.1868 -0.1028
  691MOL0     C95281  -0.309   5.532   2.661  0.5201 -0.4997 -0.8785
  691MOL0     C95282  -0.238   5.537   2.799 -0.2208  0.2971  0.2151
  691MOL0     C95283  -0.252   5.405   2.878 -0.1817  0.2561  0.1192
  691MOL0     C95284  -0.228   5.291   2.788 -0.7196 -0.3844 -0.0275
  691MOL0     C95285  -0.206   5.196   2.717  0.7486 -0.0128 -0.5922
  691MOL0     C95286   0.069   5.567   2.507 -0.5307  0.5478 -0.3472
  691MOL0     C95287   0.201   5.604   2.488  0.4515 -0.1896  0.0520
  691MOL0     C95288   0.314   5.506   2.526  0.7491 -0.8062  0.2630
  691MOL0     H95289   0.458   6.036   2.484 -1.2833 -3.1622 -0.1096
  691MOL0     H95290   0.646   6.202   2.461  0.8035 -0.1091  0.5728
  691MOL0     H95291   0.833   6.293   2.087 -0.2974 -0.7068 -0.3515
  691MOL0     H95292   0.916   6.139   2.119 -4.6004 -1.0660 -1.7217
  691MOL0     H95293   1.068   6.354   2.110 -1.7620 -0.1862 -0.9824
  691MOL0     H95294   0.986   6.410   2.249 -0.0600  1.4274 -1.9637
  691MOL0     H95295   1.057   6.194   2.371 -1.0651 -0.6306 -1.1356
  691MOL0     H95296   1.138   6.143   2.220 -0.9799  0.0795 -1.1646
  691MOL0     H95297   1.284   6.338   2.214  2.2956 -3.5391 -0.3488
  691MOL0     H95298   1.227   6.385   2.373 -1.2102 -0.7702  0.6065
  691MOL0     H95299   1.354   6.109   2.328 -1.3721  0.7726 -3.5255
  691MOL0     H95300   1.317   6.192   2.482  2.7629 -1.2305  0.5962
  691MOL0     H95301   1.517   6.277   2.281 -1.1501 -5.6745 -1.1279
  691MOL0     H95302   1.460   6.379   2.425 -0.6829 -0.1924 -0.0231
  691MOL0     H95303   1.578   6.095   2.457  1.0622  0.0919  2.7381
  691MOL0     H95304   1.531   6.210   2.582 -0.1228 -0.7875  1.4002
  691MOL0     H95305   1.706   6.363   2.531  3.2957  0.4705 -1.1854
  691MOL0     H95306   1.763   6.193   2.561 -1.8056  0.1829  0.8691
  691MOL0     H95307   1.780   6.035   2.310 -0.2888 -0.3695 -0.8403
  691MOL0     H95308   1.833   5.999   2.079 -1.3709  0.8783 -0.8920
  691MOL0     H95309   1.988   6.068   2.043  0.5765  0.3917 -2.9691
  691MOL0     H95310   1.742   6.203   1.916 -1.2305 -1.8760 -1.2268
  691MOL0     H95311   1.909   6.238   1.890 -3.5505  1.4536 -4.5837
  691MOL0     H95312   1.798   5.970   1.823  0.6666 -0.2734  1.6906
  691MOL0     H95313   1.815   6.117   1.711  3.4744  2.7130 -0.3549
  691MOL0     H95314   2.056   6.003   1.845  1.0520 -1.4750 -0.6055
  691MOL0     H95315   1.986   5.950   1.684 -2.4558  0.0811  0.0993
  691MOL0     H95316   2.165   6.326   1.568 -0.3066 -0.5417 -0.0409
  691MOL0     H95317   2.474   6.400   1.422  0.1770  0.4933 -1.7336
  691MOL0     H95318   2.308   6.423   1.401 -0.5146 -0.2016 -1.0101
  691MOL0     H95319   2.386   6.330   1.284 -0.9701  1.9472 -0.6757
  691MOL0     H95320   2.719   6.302   1.152 -2.3922 -0.6349 -0.0574
  691MOL0     H95321   2.890   6.228   0.982 -1.4438  1.5945  1.3472
  691MOL0     H95322   3.119   5.916   1.113 -2.4629  2.7744  0.3431
  691MOL0     H95323   3.033   5.794   1.012  2.6761 -2.4774 -0.3761
  691MOL0     H95324   3.152   5.858   0.820 -2.4401  1.1445  0.3202
  691MOL0     H95325   3.239   5.998   0.892  1.5854 -0.9735  1.6235
  691MOL0     H95326   3.306   5.721   1.010 -0.8245 -0.8183 -1.3430
  691MOL0     H95327   3.373   5.881   1.027 -2.9641  0.3261  1.4417
  691MOL0     H95328   3.466   5.877   0.814 -2.8114  1.7264  1.4381
  691MOL0     H95329   3.361   5.751   0.746  1.4618 -1.0701 -1.4532
  691MOL0     H95330   3.541   5.651   0.956 -1.4955 -1.6165  1.0168
  691MOL0     H95331   3.457   5.566   0.836 -1.5127  0.7424  0.1764
  691MOL0     H95332   3.709   5.738   0.800  0.4169 -0.9925 -0.0752
  691MOL0     H95333   3.614   5.662   0.666  0.0181 -1.8549 -0.9043
  691MOL0     H95334   3.750   5.528   0.901 -3.8261  0.5459  0.5518
  691MOL0     H95335   3.826   5.559   0.741  0.5370 -1.2212 -0.7650
  691MOL0     H95336   3.629   5.363   0.853  1.2144 -1.1974  0.0563
  691MOL0     H95337   3.766   5.342   0.747  1.5694  0.9489  2.3965
  691MOL0     H95338   2.835   5.835   1.136 -2.0391 -0.0483  1.0629
  691MOL0     H95339   2.650   5.904   1.278  1.2079  1.3855  2.1333
  691MOL0     H95340   2.452   5.926   1.588  1.9271  2.3651  0.5066
  691MOL0     H95341   2.236   5.934   1.704  0.5409  0.5524  1.6374
  691MOL0     H95342   0.736   6.001   2.075  0.8422 -0.3616 -0.0537
  691MOL0     H95343   0.557   5.854   2.105 -1.9700  0.8970  0.1238
  691MOL0     H95344   0.154   5.912   2.369  1.0413  1.1366  1.8016
  691MOL0     H95345  -0.099   5.819   2.372 -0.3805  0.7980  2.5793
  691MOL0     H95346  -0.289   5.444   2.472 -0.4241 -1.0087  1.0753
  691MOL0     H95347  -0.145   5.427   2.567  1.7240  2.1132 -0.1416
  691MOL0     H95348  -0.394   5.463   2.661  1.7619 -2.0782 -1.9151
  691MOL0     H95349  -0.350   5.631   2.639  1.4548 -0.1489 -1.0700
  691MOL0     H95350  -0.136   5.571   2.776 -0.1444 -0.8278 -1.3126
  691MOL0     H95351  -0.275   5.617   2.863  0.3010 -0.7341  1.8704
  691MOL0     H95352  -0.342   5.408   2.940 -2.0341  2.5328 -2.4413
  691MOL0     H95353  -0.171   5.407   2.952 -1.9625 -2.3992  2.3272
  691MOL0     H95354  -0.191   5.115   2.648  2.9706  1.2944 -1.7194
  691MOL0     H95355   0.045   5.472   2.554 -0.5222 -1.2203 -3.6334
  691MOL0     H95356   0.270   5.407   2.538 -0.1530 -0.2099  2.2297
  691MOL0     H95357   0.402   5.489   2.463 -0.0973 -2.8508 -0.4528
  691MOL0     H95358   0.355   5.544   2.620 -1.4713  1.1737  0.5382
  692MOL0     O95359   2.191  11.093   6.101 -0.7739  0.2175 -0.5717
  692MOL0     C95360   2.158  11.070   5.985 -0.4430 -0.1039  0.0880
  692MOL0     O95361   2.247  11.055   5.883  0.8573  0.9965 -0.3388
  692MOL0     C95362   2.376  11.097   5.868  0.6504 -0.3485 -0.3338
  692MOL0     C95363   2.446  11.191   5.952  0.3966 -0.1656 -0.3049
  692MOL0     C95364   2.571  11.246   5.926 -0.4691 -0.3187  0.1027
  692MOL0     C95365   2.646  11.197   5.823 -0.1746 -0.5518 -0.1378
  692MOL0     O95366   2.768  11.249   5.805  0.1856 -0.2806 -0.3174
  692MOL0     C95367   2.837  11.236   5.674 -0.3663  0.1955  0.2586
  692MOL0     C95368   2.975  11.301   5.670  1.1365  0.3007 -0.4652
  692MOL0     C95369   2.956  11.449   5.656  0.2691  0.2224  0.7646
  692MOL0     C95370   3.090  11.525   5.675  0.0250  0.1381 -0.6548
  692MOL0     C95371   3.076  11.677   5.668  1.1298  0.0636 -0.1774
  692MOL0     C95372   3.201  11.754   5.688  0.8390  0.4085  0.2502
  692MOL0     C95373   3.167  11.898   5.741 -0.6756  0.2594  0.4578
  692MOL0     C95374   3.299  11.965   5.771 -0.0256  0.1325  0.0835
  692MOL0     N95375   3.370  11.991   5.642  0.3990  0.2948 -0.3796
  692MOL0     C95376   3.326  12.073   5.541  0.0837  0.1154 -0.0980
  692MOL0     C95377   3.429  12.094   5.457  0.3458  1.0527  0.4678
  692MOL0     C95378   3.438  12.182   5.337 -0.3216  0.6861 -0.0385
  692MOL0     C95379   3.557  12.144   5.252  0.3527  0.0705  1.0008
  692MOL0     C95380   3.585  12.227   5.131 -0.3761  0.1903  0.8499
  692MOL0     C95381   3.463  12.241   5.028  1.0507 -0.6815 -0.3709
  692MOL0     O95382   3.391  12.110   4.998  0.2944 -0.9914 -0.5428
  692MOL0     C95383   3.294  12.115   4.898  0.1907  1.0028 -0.0279
  692MOL0     C95384   3.255  11.992   4.852 -0.1720  0.4747 -0.2136
  692MOL0     C95385   3.169  11.977   4.740  1.1628  0.2958  0.0238
  692MOL0     C95386   3.145  11.836   4.695  0.0981 -0.2310  0.1263
  692MOL0     C95387   3.104  12.096   4.697  0.1749 -0.3612 -0.3334
  692MOL0     C95388   2.997  12.088   4.591  0.2850 -0.6592 -0.5114
  692MOL0     O95389   3.011  12.010   4.482  0.0655  0.2039 -0.6298
  692MOL0     C95390   2.906  11.999   4.397  0.2244 -0.2041 -0.2745
  692MOL0     C95391   2.920  12.047   4.265 -0.0078 -0.8401  0.1908
  692MOL0     C95392   2.814  12.043   4.167 -0.0192  0.5914 -0.7952
  692MOL0     C95393   2.687  11.995   4.208 -0.6764  0.1845 -0.4764
  692MOL0     O95394   2.584  11.994   4.114  0.5732 -0.9639 -0.4188
  692MOL0     C95395   2.452  11.950   4.151 -0.6219 -0.6402 -0.7805
  692MOL0     C95396   2.353  11.962   4.035 -0.3990  0.1075  0.2689
  692MOL0     C95397   2.222  11.908   4.081  0.6453  0.4537  0.8211
  692MOL0     C95398   2.105  11.961   3.994  0.7511 -0.2698 -0.4770
  692MOL0     C95399   1.975  11.883   4.009 -0.4656  0.5869 -0.6561
  692MOL0     C95400   1.901  11.931   3.888  0.2562  0.0743 -0.4446
  692MOL0     C95401   1.753  11.886   3.880  1.3172  0.5652 -0.9160
  692MOL0     C95402   1.653  11.898   4.002  0.2632 -0.8280 -0.3913
  692MOL0    Cl95403   1.661  12.066   4.046 -0.1485  0.1502  0.0352
  692MOL0     C95404   2.680  11.936   4.335  0.2874  0.3567 -0.5920
  692MOL0     C95405   2.784  11.935   4.432 -0.2174  0.1706  0.5810
  692MOL0     O95406   2.910  12.168   4.593 -0.2322 -0.1148 -0.3605
  692MOL0     C95407   3.136  12.221   4.749  0.8771  0.0963  0.0078
  692MOL0     C95408   3.236  12.233   4.842 -0.6074 -0.3145 -0.4998
  692MOL0     N95409   3.540  12.043   5.517  0.7490  0.0368 -0.2294
  692MOL0     N95410   3.504  11.975   5.619 -0.0114  0.1047 -0.1498
  692MOL0     C95411   2.588  11.099   5.739  0.1014  1.0071  0.1263
  692MOL0     C95412   2.459  11.048   5.766  0.3326 -0.3026  1.2157
  692MOL0     C95413   2.013  11.037   5.956  0.0673 -0.0851 -0.0358
  692MOL0     C95414   1.973  11.024   5.818  0.1121 -0.3771  0.1945
  692MOL0     C95415   1.837  10.994   5.786  0.7482 -0.2295 -0.0147
  692MOL0     C95416   1.736  10.980   5.881 -0.4296  0.4418 -0.2907
  692MOL0     O95417   1.607  10.952   5.830 -0.1570 -0.7875  0.0222
  692MOL0     C95418   1.506  10.990   5.919 -0.4543  0.0487 -0.7050
  692MOL0     C95419   1.373  10.988   5.852  0.3170 -0.2950  1.1043
  692MOL0     C95420   1.348  10.854   5.775 -0.6308  0.1310 -0.6381
  692MOL0     C95421   1.209  10.804   5.767  0.5023 -0.5950 -0.0103
  692MOL0     C95422   1.144  10.888   5.667  1.3242  0.2208 -0.1087
  692MOL0     C95423   1.082  10.965   5.592 -0.2509  0.5129 -0.1058
  692MOL0     C95424   1.768  10.987   6.013  0.0799 -0.1441 -0.0485
  692MOL0     C95425   1.901  11.019   6.052  0.4461 -0.2792 -0.7638
  692MOL0     C95426   1.916  11.035   6.207  0.2993  0.0127  1.2222
  692MOL0     H95427   2.391  11.231   6.037  2.5353 -0.9316  1.5580
  692MOL0     H95428   2.616  11.324   5.987 -0.3760  0.0322 -0.4093
  692MOL0     H95429   2.766  11.267   5.596 -0.7474  0.3904  0.6759
  692MOL0     H95430   2.859  11.131   5.652  0.2475  0.5317 -0.8117
  692MOL0     H95431   3.030  11.268   5.759  1.5093 -3.2532 -1.8415
  692MOL0     H95432   3.027  11.259   5.584 -0.3604 -4.3905  0.6205
  692MOL0     H95433   2.902  11.465   5.562 -1.4551  1.2406  1.8827
  692MOL0     H95434   2.891  11.486   5.736  2.8378  4.2969  1.2428
  692MOL0     H95435   3.147  11.489   5.761  0.2046  2.3931  0.2404
  692MOL0     H95436   3.159  11.505   5.593  0.7196  2.5709 -0.7360
  692MOL0     H95437   2.994  11.703   5.734  1.1904  0.3394 -0.2100
  692MOL0     H95438   3.040  11.713   5.571 -1.1421  0.8801  0.9078
  692MOL0     H95439   3.262  11.711   5.768 -1.1124  1.8330  2.6317
  692MOL0     H95440   3.262  11.756   5.597  1.9033 -1.6227  0.8434
  692MOL0     H95441   3.093  11.894   5.821 -1.0077  1.5736  0.2250
  692MOL0     H95442   3.112  11.950   5.663 -0.6275  0.4795  0.5696
  692MOL0     H95443   3.297  12.059   5.828  0.6542  0.7861 -0.9380
  692MOL0     H95444   3.367  11.901   5.827 -0.7684 -1.4052 -0.7100
  692MOL0     H95445   3.226  12.115   5.527  0.4482  1.1330  0.2625
  692MOL0     H95446   3.451  12.287   5.365 -3.3931  1.5618 -1.4527
  692MOL0     H95447   3.346  12.172   5.278 -1.2031  0.2813  1.3722
  692MOL0     H95448   3.650  12.125   5.305  1.8632 -2.9032 -2.3090
  692MOL0     H95449   3.518  12.050   5.212 -2.3988  1.4355  0.1838
  692MOL0     H95450   3.619  12.322   5.171 -4.1369  1.6064  1.0403
  692MOL0     H95451   3.671  12.183   5.079  0.2532  0.0836  1.9678
  692MOL0     H95452   3.391  12.316   5.062  0.4079  1.0978 -4.8976
  692MOL0     H95453   3.497  12.285   4.933  0.5485  2.3219  0.7202
  692MOL0     H95454   3.300  11.914   4.913  2.3318  3.8853  2.7591
  692MOL0     H95455   3.037  11.826   4.684 -0.4117  1.2588  2.8231
  692MOL0     H95456   3.168  11.762   4.772 -0.8637  0.7248  1.3640
  692MOL0     H95457   3.205  11.803   4.610  2.8010  0.7076  1.5678
  692MOL0     H95458   3.017  12.090   4.245 -1.1633  0.6079 -3.0180
  692MOL0     H95459   2.826  12.091   4.071 -0.8068  0.7374 -0.8247
  692MOL0     H95460   2.472  11.849   4.188  4.1984  0.8033  1.4882
  692MOL0     H95461   2.419  12.019   4.229 -1.1468  1.7173 -2.9267
  692MOL0     H95462   2.345  12.067   4.007 -2.4120  0.2281  1.1368
  692MOL0     H95463   2.395  11.915   3.946  1.9972  3.4638 -0.5745
  692MOL0     H95464   2.214  11.922   4.190 -0.1438 -0.9323  0.9617
  692MOL0     H95465   2.228  11.800   4.071  2.8830  0.4590  1.4887
  692MOL0     H95466   2.136  11.957   3.890  1.7379  0.7901 -0.2469
  692MOL0     H95467   2.083  12.067   4.009  0.9352 -0.2764 -0.1297
  692MOL0     H95468   2.002  11.777   3.995 -1.5436  0.3732 -1.2805
  692MOL0     H95469   1.932  11.894   4.109  1.1034 -3.2654  0.6521
  692MOL0     H95470   1.948  11.895   3.796 -1.9290  0.3500 -1.7191
  692MOL0     H95471   1.909  12.040   3.884 -0.2817  0.3176  2.6063
  692MOL0     H95472   1.751  11.782   3.845 -3.3193 -0.1696  0.7695
  692MOL0     H95473   1.702  11.948   3.806 -0.4213  0.5996  0.2495
  692MOL0     H95474   1.700  11.839   4.081  1.0780  0.0544 -0.1993
  692MOL0     H95475   1.553  11.863   3.975  0.7575 -1.9695 -0.8072
  692MOL0     H95476   2.589  11.885   4.365  1.7827 -1.4460  1.1497
  692MOL0     H95477   2.775  11.903   4.535  2.0084  1.2720  1.1673
  692MOL0     H95478   3.093  12.313   4.710  3.9003  2.4007  1.7216
  692MOL0     H95479   3.260  12.327   4.890  3.1155 -1.8097  0.9358
  692MOL0     H95480   2.637  11.066   5.648  3.0935 -0.1982  2.0456
  692MOL0     H95481   2.439  10.971   5.693  0.7310  0.3180  0.4252
  692MOL0     H95482   2.042  11.034   5.735  1.3877 -3.2229  0.7860
  692MOL0     H95483   1.793  10.960   5.692 -0.6761  1.7915 -0.1406
  692MOL0     H95484   1.493  10.916   5.999 -0.5058 -1.1609 -1.8096
  692MOL0     H95485   1.532  11.087   5.963 -2.8798  0.2481  0.4469
  692MOL0     H95486   1.371  11.072   5.782 -2.8004 -2.0885 -1.1569
  692MOL0     H95487   1.296  11.010   5.926 -1.5100  0.3575 -0.8989
  692MOL0     H95488   1.405  10.855   5.681  1.2623 -2.1688  0.3640
  692MOL0     H95489   1.395  10.777   5.837 -1.7527  1.7578  2.4502
  692MOL0     H95490   1.150  10.828   5.856 -2.7569 -4.2575 -0.8631
  692MOL0     H95491   1.188  10.701   5.734  0.5238 -0.1193 -1.5982
  692MOL0     H95492   1.047  11.041   5.525  0.4082  2.2290  1.3945
  692MOL0     H95493   1.705  10.961   6.098  2.8639  3.6171  3.6060
  692MOL0     H95494   1.991  11.109   6.238 -0.1048  0.1117  1.9681
  692MOL0     H95495   1.824  11.073   6.251 -0.0257  0.1029  0.4768
  692MOL0     H95496   1.944  10.937   6.247  0.6422 -0.3875  0.0464
  693MOL0     O95497   4.344   4.867   5.657 -0.1005 -0.1113  1.1060
  693MOL0     C95498   4.351   4.872   5.778  0.1040  0.4282  0.0462
  693MOL0     O95499   4.462   4.827   5.858  0.2199  0.0836  0.0652
  693MOL0     C95500   4.565   4.765   5.793  0.8194 -0.1076  0.9457
  693MOL0     C95501   4.594   4.636   5.837 -0.7572 -0.3906 -0.6347
  693MOL0     C95502   4.710   4.571   5.797 -0.9454  0.2141 -0.8096
  693MOL0     C95503   4.784   4.619   5.688  0.0640  0.7690  0.7797
  693MOL0     O95504   4.884   4.536   5.639  0.0733 -0.3119  0.0553
  693MOL0     C95505   5.013   4.594   5.631 -0.8898 -0.6533 -0.0026
  693MOL0     C95506   5.123   4.508   5.586 -1.3612  0.7760  0.1290
  693MOL0     C95507   5.254   4.575   5.528  0.9665  0.0397  0.4979
  693MOL0     C95508   5.329   4.647   5.635 -0.0262 -0.3697 -0.0096
  693MOL0     C95509   5.445   4.739   5.602 -0.0031 -0.8454  0.4420
  693MOL0     C95510   5.516   4.786   5.735 -0.5221  0.1771 -0.3853
  693MOL0     C95511   5.639   4.875   5.702  0.1859 -0.2098 -0.1007
  693MOL0     C95512   5.748   4.879   5.812  0.0973 -0.1650 -0.9076
  693MOL0     N95513   5.861   4.967   5.773 -0.3086  0.1329 -0.4690
  693MOL0     C95514   5.870   5.103   5.811  0.2053  0.0642 -0.2735
  693MOL0     C95515   5.984   5.149   5.763  0.0668  0.2352  1.1704
  693MOL0     C95516   6.039   5.278   5.803 -0.1956 -0.7336 -0.4771
  693MOL0     C95517   6.187   5.255   5.834 -0.2395  0.4293 -0.4128
  693MOL0     C95518   6.270   5.379   5.864  0.0382 -0.0676 -0.0459
  693MOL0     C95519   6.185   5.487   5.930 -0.7525  0.1556  0.5412
  693MOL0     O95520   6.272   5.602   5.962 -0.2192 -0.2017  1.5143
  693MOL0     C95521   6.348   5.591   6.074  0.7372 -0.3562 -0.2450
  693MOL0     C95522   6.361   5.483   6.157  0.3208  0.7908 -0.2288
  693MOL0     C95523   6.454   5.487   6.266  0.0170  0.9813  0.4400
  693MOL0     C95524   6.461   5.349   6.336  0.1224 -0.4225 -0.9987
  693MOL0     C95525   6.531   5.596   6.289 -0.1142  0.7328 -0.9096
  693MOL0     C95526   6.654   5.595   6.378 -0.0191 -1.1857  0.1403
  693MOL0     O95527   6.715   5.719   6.399 -0.0203 -0.2347  0.3841
  693MOL0     C95528   6.837   5.721   6.469  0.1658 -0.0790 -0.3748
  693MOL0     C95529   6.862   5.831   6.545  0.3479 -0.3505 -0.7516
  693MOL0     C95530   6.990   5.852   6.601  0.0966  0.5974 -0.6445
  693MOL0     C95531   7.097   5.772   6.568 -0.1204 -0.2740 -0.9853
  693MOL0     O95532   7.216   5.807   6.629  0.3584 -0.4779 -0.3037
  693MOL0     C95533   7.330   5.758   6.565 -0.3177 -0.3469 -0.1230
  693MOL0     C95534   7.458   5.832   6.608 -0.2854  0.3668 -0.5702
  693MOL0     C95535   7.575   5.753   6.548 -0.5493 -0.0923  0.7077
  693MOL0     C95536   7.715   5.814   6.533  0.4899  0.5112 -0.2540
  693MOL0     C95537   7.797   5.826   6.659 -0.0889  0.4816 -0.4739
  693MOL0     C95538   7.946   5.841   6.628 -0.6389 -0.3908 -0.3853
  693MOL0     C95539   8.037   5.855   6.750 -0.2357 -0.2896  0.1446
  693MOL0     C95540   8.181   5.907   6.712 -0.3022 -0.7857  0.3232
  693MOL0    Cl95541   8.177   6.071   6.660  0.7679  0.0582  0.1218
  693MOL0     C95542   7.074   5.652   6.511  0.1944  0.6681  0.5926
  693MOL0     C95543   6.946   5.632   6.449 -0.7145  0.2274 -0.2792
  693MOL0     O95544   6.699   5.489   6.420 -0.8370 -0.0262  0.1304
  693MOL0     C95545   6.505   5.712   6.214  0.5638  0.0501 -0.2414
  693MOL0     C95546   6.413   5.708   6.108  0.0142  0.1882  0.5439
  693MOL0     N95547   6.047   5.039   5.703  0.3388 -0.5400  0.4192
  693MOL0     N95548   5.975   4.930   5.701 -0.8149  0.0651 -0.9086
  693MOL0     C95549   4.755   4.746   5.642  0.2535 -0.2817 -0.2533
  693MOL0     C95550   4.654   4.819   5.692  0.1450  0.1597  0.2646
  693MOL0     C95551   4.235   4.935   5.852  0.0819  0.2289 -0.2205
  693MOL0     C95552   4.242   4.939   5.993 -0.0744  0.5320  0.6352
  693MOL0     C95553   4.135   4.979   6.070  1.0103 -0.0074 -0.6185
  693MOL0     C95554   4.016   5.046   6.015 -0.3584  0.7974  0.1674
  693MOL0     O95555   3.937   5.109   6.104 -0.2287 -0.0990  0.0836
  693MOL0     C95556   3.849   5.208   6.042  0.2306 -0.6292 -0.7624
  693MOL0     C95557   3.763   5.260   6.157 -0.4939 -0.2951 -0.4624
  693MOL0     C95558   3.680   5.156   6.232 -0.4328  0.3162 -0.3161
  693MOL0     C95559   3.582   5.214   6.332  0.9549  0.2030  0.7152
  693MOL0     C95560   3.456   5.131   6.341 -0.0744 -0.3132  1.3337
  693MOL0     C95561   3.361   5.061   6.363  0.0672 -0.2266  0.0342
  693MOL0     C95562   4.016   5.054   5.872 -0.0909  0.0932  0.4725
  693MOL0     C95563   4.121   5.000   5.794  0.4670 -0.6317  0.3041
  693MOL0     C95564   4.105   5.024   5.642 -0.6467  0.0119  0.0019
  693MOL0     H95565   4.533   4.586   5.912 -0.5608  1.2735  0.6710
  693MOL0     H95566   4.727   4.468   5.828 -1.8923  0.6647  1.3819
  693MOL0     H95567   5.032   4.619   5.736 -1.6804 -0.7842  0.1775
  693MOL0     H95568   5.012   4.689   5.577 -0.9217  1.9660  4.1951
  693MOL0     H95569   5.153   4.459   5.679  1.0468  3.2569  0.8033
  693MOL0     H95570   5.084   4.440   5.510  0.8310  0.0880 -0.4591
  693MOL0     H95571   5.320   4.502   5.481 -0.4932 -0.7885 -0.3472
  693MOL0     H95572   5.230   4.643   5.445 -0.0002 -0.4400  0.3644
  693MOL0     H95573   5.267   4.715   5.694  0.1242 -1.7170  1.7645
  693MOL0     H95574   5.381   4.573   5.696  2.4581  2.0077  1.0103
  693MOL0     H95575   5.408   4.821   5.541 -3.2431 -1.3268  1.5982
  693MOL0     H95576   5.520   4.685   5.543  1.3254  1.2888  0.0806
  693MOL0     H95577   5.446   4.842   5.797 -1.5037  0.7974 -1.9859
  693MOL0     H95578   5.554   4.694   5.780 -2.4982 -0.5503 -0.1294
  693MOL0     H95579   5.591   4.970   5.677  2.6413  1.1884  0.1282
  693MOL0     H95580   5.680   4.825   5.614 -1.2656 -1.5618 -0.0344
  693MOL0     H95581   5.707   4.920   5.905  0.2070 -0.6190 -0.6572
  693MOL0     H95582   5.789   4.778   5.825  3.3698  1.0968 -0.6295
  693MOL0     H95583   5.796   5.161   5.866 -1.5505 -1.3822 -0.9788
  693MOL0     H95584   5.985   5.324   5.886  0.5781 -0.7865  0.0671
  693MOL0     H95585   6.027   5.343   5.716  0.4021 -0.7284 -0.5580
  693MOL0     H95586   6.188   5.185   5.919 -1.4156  0.5421 -0.2917
  693MOL0     H95587   6.234   5.205   5.749  1.2322  1.8872 -0.5131
  693MOL0     H95588   6.359   5.347   5.919  1.7521 -2.9529 -4.0445
  693MOL0     H95589   6.312   5.426   5.775 -2.4375 -1.9608 -2.3766
  693MOL0     H95590   6.106   5.526   5.867 -2.4249 -3.2894  0.2723
  693MOL0     H95591   6.136   5.444   6.018 -1.7155 -1.6442 -0.8066
  693MOL0     H95592   6.305   5.393   6.131  0.5846 -0.0147  1.8040
  693MOL0     H95593   6.371   5.291   6.315 -1.5848  1.1048  1.4440
  693MOL0     H95594   6.465   5.352   6.446 -0.9590  0.6826 -0.9549
  693MOL0     H95595   6.543   5.291   6.295 -1.9512 -2.9497 -1.8487
  693MOL0     H95596   6.773   5.882   6.581 -0.4824 -1.9017 -0.5345
  693MOL0     H95597   7.005   5.932   6.673 -1.0558  2.2350 -2.1732
  693MOL0     H95598   7.346   5.653   6.592  0.0991 -1.6602 -4.6571
  693MOL0     H95599   7.320   5.764   6.456  0.6831 -1.2984 -0.2806
  693MOL0     H95600   7.455   5.936   6.574  0.0221 -0.3663 -3.1051
  693MOL0     H95601   7.469   5.829   6.716  1.3377  1.3232 -0.6811
  693MOL0     H95602   7.549   5.728   6.445  1.7623  0.5287 -0.1008
  693MOL0     H95603   7.592   5.653   6.589  0.2620 -0.2161  0.0949
  693MOL0     H95604   7.710   5.912   6.485 -0.1295  0.3192 -0.5998
  693MOL0     H95605   7.773   5.740   6.478  1.7988  2.5283 -1.7016
  693MOL0     H95606   7.752   5.907   6.717 -2.7249 -1.9674  1.1704
  693MOL0     H95607   7.778   5.740   6.724 -2.0595  0.3116 -1.1929
  693MOL0     H95608   7.954   5.926   6.560  0.3808  1.4623  1.9458
  693MOL0     H95609   7.978   5.749   6.577 -0.3574 -1.4819  1.6455
  693MOL0     H95610   8.040   5.766   6.813 -0.1345  1.0121  2.1034
  693MOL0     H95611   7.989   5.930   6.815 -0.6640  1.8322 -2.4282
  693MOL0     H95612   8.238   5.855   6.634  0.1329  1.4313 -0.8981
  693MOL0     H95613   8.249   5.909   6.797  2.0225 -0.9585 -1.4446
  693MOL0     H95614   7.153   5.579   6.495  0.1833  0.7152  0.3055
  693MOL0     H95615   6.943   5.541   6.389  1.1238 -1.1839  1.6495
  693MOL0     H95616   6.566   5.801   6.220  1.2546  0.3102 -5.8568
  693MOL0     H95617   6.392   5.785   6.035  1.4838  1.4676  1.3898
  693MOL0     H95618   4.826   4.795   5.577  1.8708 -0.3584  1.3604
  693MOL0     H95619   4.649   4.919   5.650 -1.2300  0.0355  0.0977
  693MOL0     H95620   4.326   4.897   6.048 -1.0382  0.6431  2.2665
  693MOL0     H95621   4.139   4.973   6.179 -0.3497 -0.8469 -0.5912
  693MOL0     H95622   3.910   5.279   5.985  1.8557 -0.4453  1.0753
  693MOL0     H95623   3.785   5.178   5.959  0.3541  2.0473 -1.9297
  693MOL0     H95624   3.693   5.331   6.110 -0.2861  0.1703 -0.0666
  693MOL0     H95625   3.832   5.312   6.224 -1.6823  1.4103 -0.4749
  693MOL0     H95626   3.619   5.107   6.155  0.6282  1.8671 -2.2333
  693MOL0     H95627   3.752   5.091   6.283  0.9705  2.6391  0.8323
  693MOL0     H95628   3.552   5.315   6.303  2.8369  0.3085 -1.0500
  693MOL0     H95629   3.630   5.215   6.431  1.9862  3.5688  0.2880
  693MOL0     H95630   3.275   5.001   6.387  1.0519 -1.6424  0.1624
  693MOL0     H95631   3.942   5.105   5.812  0.8442 -0.2485 -1.0467
  693MOL0     H95632   4.198   5.072   5.613  1.1845 -2.8149  0.8233
  693MOL0     H95633   4.102   4.934   5.580 -2.3259 -0.2893  0.4622
  693MOL0     H95634   4.018   5.088   5.621 -1.4735 -0.2938  2.2103
  694MOL0     O95635   7.366   9.055   4.559  0.1332  0.5736  0.4888
  694MOL0     C95636   7.444   8.985   4.495  0.2481  0.3392  0.4436
  694MOL0     O95637   7.535   8.896   4.552 -0.0659 -0.5049  0.4308
  694MOL0     C95638   7.611   8.936   4.666 -0.2810 -0.5562 -0.1267
  694MOL0     C95639   7.548   8.938   4.798  0.5569  0.0491  0.0976
  694MOL0     C95640   7.620   8.971   4.908  0.2820 -0.0293 -0.3553
  694MOL0     C95641   7.759   8.992   4.901  0.1135 -1.1515 -0.3251
  694MOL0     O95642   7.830   9.022   5.008  0.0890  0.3310 -0.5964
  694MOL0     C95643   7.781   9.066   5.132 -0.0400  0.1969  0.0742
  694MOL0     C95644   7.891   9.147   5.201 -0.3440  0.2018 -0.1599
  694MOL0     C95645   7.956   9.255   5.111  0.2370 -0.1083 -0.8350
  694MOL0     C95646   8.043   9.366   5.171  0.7381  0.3209  0.3909
  694MOL0     C95647   8.110   9.442   5.066 -0.1673 -1.4091  0.3962
  694MOL0     C95648   8.190   9.370   4.957  0.2212  0.0864  0.0822
  694MOL0     C95649   8.259   9.460   4.856 -0.4393  0.4895 -0.1402
  694MOL0     C95650   8.315   9.387   4.723 -0.4069 -0.8213  0.4837
  694MOL0     N95651   8.391   9.266   4.752 -0.2412 -0.5083 -0.0687
  694MOL0     C95652   8.372   9.143   4.696  0.6207 -0.0058  0.3046
  694MOL0     C95653   8.480   9.075   4.724 -0.0501 -0.1102 -0.1258
  694MOL0     C95654   8.501   8.925   4.694  0.5795 -0.6859 -0.1942
  694MOL0     C95655   8.642   8.872   4.699 -0.2911  0.4331 -1.1660
  694MOL0     C95656   8.643   8.726   4.676 -0.8716  0.5761  0.2397
  694MOL0     C95657   8.787   8.680   4.647  0.2552 -0.5349  0.1433
  694MOL0     O95658   8.840   8.732   4.521 -0.0571  0.5633 -1.0945
  694MOL0     C95659   8.963   8.789   4.541 -0.3325  0.1727  0.2604
  694MOL0     C95660   9.064   8.754   4.449  0.0831  0.6920 -0.2776
  694MOL0     C95661   9.178   8.821   4.430 -0.1958  1.5727  0.2054
  694MOL0     C95662   9.262   8.776   4.302 -0.0096 -0.8809 -0.8620
  694MOL0     C95663   9.220   8.904   4.532 -1.2088  0.7855  0.3232
  694MOL0     C95664   9.355   8.959   4.553  1.3780  0.0114  1.1797
  694MOL0     O95665   9.443   8.884   4.488 -0.2987 -0.2628  0.5039
  694MOL0     C95666   9.582   8.888   4.508 -0.0294  0.5615 -0.7363
  694MOL0     C95667   9.647   8.974   4.594  0.1692  0.8771  0.3903
  694MOL0     C95668   9.783   8.979   4.611  0.0467  0.0402  0.0944
  694MOL0     C95669   9.855   8.885   4.530 -0.0690 -0.2509 -0.0592
  694MOL0     O95670   9.988   8.888   4.533 -0.1341 -0.4006 -1.1911
  694MOL0     C95671  10.065   8.968   4.623  0.5462 -0.0208  0.0492
  694MOL0     C95672  10.206   8.911   4.645 -0.4013  0.3327 -0.4756
  694MOL0     C95673  10.280   8.882   4.512 -0.0377 -0.1107 -0.2629
  694MOL0     C95674  10.416   8.830   4.528 -0.3631  0.8670 -0.7257
  694MOL0     C95675  10.512   8.850   4.409  1.2951  0.2793 -0.0227
  694MOL0     C95676  10.577   8.991   4.385  0.1267  0.6483  0.4489
  694MOL0     C95677  10.719   8.986   4.315 -1.9353  0.1944  0.1965
  694MOL0     C95678  10.790   9.121   4.285  0.2649  0.2201 -0.3354
  694MOL0    Cl95679  10.720   9.205   4.133  0.4018  0.8795  0.0978
  694MOL0     C95680   9.794   8.795   4.443 -0.2282 -0.0092  0.3335
  694MOL0     C95681   9.654   8.796   4.430 -0.4164 -0.1210  0.0150
  694MOL0     O95682   9.369   9.067   4.603 -0.2733 -0.0974 -0.3841
  694MOL0     C95683   9.126   8.939   4.624 -0.5303 -0.2916  0.7882
  694MOL0     C95684   8.990   8.895   4.627  0.2835 -0.6247 -0.1421
  694MOL0     N95685   8.570   9.151   4.792  0.6434  0.5053  0.1336
  694MOL0     N95686   8.512   9.267   4.814 -0.4953  0.1663 -0.1643
  694MOL0     C95687   7.818   8.964   4.782 -0.2510 -0.6426 -0.4452
  694MOL0     C95688   7.744   8.948   4.661  0.0490 -0.3866 -0.0258
  694MOL0     C95689   7.441   8.985   4.344  0.6854 -0.6311 -0.3685
  694MOL0     C95690   7.387   9.110   4.284  0.8269 -0.6175  0.3667
  694MOL0     C95691   7.375   9.122   4.147 -0.1633 -0.3518  0.7307
  694MOL0     C95692   7.414   9.021   4.061 -0.0005 -0.1012  0.6474
  694MOL0     O95693   7.409   9.033   3.922  0.3205  0.6278 -0.0430
  694MOL0     C95694   7.408   9.168   3.862 -0.0651  0.6019  0.1065
  694MOL0     C95695   7.421   9.175   3.709 -0.3396  0.0930 -0.2088
  694MOL0     C95696   7.315   9.105   3.642 -0.2404  0.4311 -0.5309
  694MOL0     C95697   7.333   8.952   3.636 -0.3230  0.9905  0.1758
  694MOL0     C95698   7.225   8.902   3.552 -0.5244  0.2798  0.5336
  694MOL0     C95699   7.138   8.852   3.475  0.2019  0.1338 -0.5639
  694MOL0     C95700   7.458   8.902   4.120  0.1160  0.5491 -0.4133
  694MOL0     C95701   7.480   8.879   4.256  0.5058  0.0220 -0.0280
  694MOL0     C95702   7.551   8.750   4.292 -0.3260 -0.1199 -0.2919
  694MOL0     H95703   7.442   8.915   4.808  0.5348 -0.2062 -0.6692
  694MOL0     H95704   7.559   8.994   4.995  2.3808 -2.8228  2.1002
  694MOL0     H95705   7.744   8.977   5.184  0.5503 -0.0098  0.1548
  694MOL0     H95706   7.697   9.132   5.111 -1.0794 -0.7560  1.1063
  694MOL0     H95707   7.847   9.200   5.286  2.1518  0.4516  1.0638
  694MOL0     H95708   7.972   9.078   5.226 -2.0133 -1.5412  0.5840
  694MOL0     H95709   8.019   9.197   5.042  1.3440  0.5266 -0.3876
  694MOL0     H95710   7.874   9.302   5.057 -0.9779  1.5380  2.2025
  694MOL0     H95711   7.971   9.426   5.227 -0.6586  0.9083 -1.8943
  694MOL0     H95712   8.121   9.331   5.239 -0.3813 -0.5904  1.2473
  694MOL0     H95713   8.169   9.518   5.118  0.0125 -0.4055 -1.2037
  694MOL0     H95714   8.035   9.501   5.012  2.8822  1.9555 -0.5388
  694MOL0     H95715   8.268   9.303   4.992 -1.4045 -2.1494 -0.3466
  694MOL0     H95716   8.112   9.318   4.900 -0.4387  0.0905  0.9563
  694MOL0     H95717   8.337   9.508   4.915  1.1549 -0.1744 -1.6141
  694MOL0     H95718   8.195   9.543   4.827  0.9157  1.7370  0.3309
  694MOL0     H95719   8.225   9.355   4.670  0.8934 -0.8005 -1.8539
  694MOL0     H95720   8.371   9.459   4.663 -0.1811 -1.6204 -0.2820
  694MOL0     H95721   8.286   9.114   4.637  0.8036  1.0116 -0.4886
  694MOL0     H95722   8.463   8.902   4.594  1.7386  0.9312 -1.0604
  694MOL0     H95723   8.443   8.876   4.772  1.4533  0.8250  1.4883
  694MOL0     H95724   8.707   8.934   4.637  1.5400 -0.2706 -0.0600
  694MOL0     H95725   8.687   8.892   4.797  1.0074  1.2829 -1.9102
  694MOL0     H95726   8.610   8.676   4.767  0.9337  0.6348  0.9793
  694MOL0     H95727   8.592   8.695   4.585  1.4601 -1.0878 -0.6016
  694MOL0     H95728   8.849   8.707   4.732  1.4063  3.3223 -1.6875
  694MOL0     H95729   8.789   8.570   4.644  1.6903 -0.5383  0.6996
  694MOL0     H95730   9.036   8.680   4.374 -0.4849 -0.3121  0.8883
  694MOL0     H95731   9.336   8.702   4.335 -0.3089 -1.3464 -1.2175
  694MOL0     H95732   9.316   8.857   4.253  1.8816 -1.5929 -0.0692
  694MOL0     H95733   9.194   8.732   4.229  0.6671  0.8630 -2.6258
  694MOL0     H95734   9.596   9.053   4.649  1.6628  2.0384  0.1832
  694MOL0     H95735   9.824   9.066   4.662  1.9104  0.2693 -1.6371
  694MOL0     H95736  10.065   9.074   4.598 -1.4632  0.5081  1.8855
  694MOL0     H95737  10.028   8.953   4.726  0.9249 -2.6098 -0.1174
  694MOL0     H95738  10.269   8.980   4.703 -1.0448 -0.4281  1.1969
  694MOL0     H95739  10.194   8.822   4.707 -2.0529 -0.1039 -1.3623
  694MOL0     H95740  10.280   8.979   4.461 -0.2691  0.1645  0.2478
  694MOL0     H95741  10.223   8.809   4.454  1.2285  0.0389 -1.7635
  694MOL0     H95742  10.415   8.725   4.561  0.8569  0.9770 -0.3006
  694MOL0     H95743  10.457   8.895   4.605  0.4212 -0.3437 -0.0906
  694MOL0     H95744  10.599   8.789   4.437  2.3675  2.7200  2.4567
  694MOL0     H95745  10.474   8.812   4.314  0.8079  0.2141  0.1969
  694MOL0     H95746  10.581   9.054   4.475  0.0097 -0.6843  1.4185
  694MOL0     H95747  10.505   9.041   4.319 -1.2565  0.0246  1.4528
  694MOL0     H95748  10.714   8.928   4.223 -4.1318  0.2693  0.2278
  694MOL0     H95749  10.780   8.930   4.387 -2.4948  0.0478  0.5576
  694MOL0     H95750  10.896   9.103   4.269  0.3928  2.3595 -2.4963
  694MOL0     H95751  10.790   9.188   4.371  0.9406 -0.9827  0.6285
  694MOL0     H95752   9.846   8.732   4.372 -0.9614 -0.0253 -0.2018
  694MOL0     H95753   9.593   8.738   4.361 -0.9486  1.5868 -1.0151
  694MOL0     H95754   9.160   9.015   4.694 -0.8070  1.6067 -1.0445
  694MOL0     H95755   8.909   8.933   4.688  1.2296  4.1619 -1.4800
  694MOL0     H95756   7.926   8.966   4.770  0.1951 -1.9079  2.5451
  694MOL0     H95757   7.798   8.936   4.567 -0.3497 -0.1656 -0.2864
  694MOL0     H95758   7.364   9.196   4.346 -0.7796  0.1035 -1.1317
  694MOL0     H95759   7.339   9.215   4.106  0.6090 -1.3503 -2.5951
  694MOL0     H95760   7.317   9.224   3.886 -2.3566 -1.2825 -3.3092
  694MOL0     H95761   7.498   9.217   3.902 -1.0866 -0.1426  3.5846
  694MOL0     H95762   7.516   9.129   3.680 -0.8170 -0.8160 -0.3655
  694MOL0     H95763   7.424   9.275   3.666  4.6723  0.3657  0.2188
  694MOL0     H95764   7.224   9.132   3.697  0.0299 -1.9922  1.2621
  694MOL0     H95765   7.310   9.141   3.538 -1.7118 -2.2683 -1.4958
  694MOL0     H95766   7.317   8.914   3.738 -2.1789  0.5060 -0.2626
  694MOL0     H95767   7.426   8.929   3.584  0.7544  0.5380  2.2000
  694MOL0     H95768   7.063   8.818   3.407  1.6428 -1.9557 -1.2092
  694MOL0     H95769   7.482   8.822   4.051 -0.1813 -1.9662  2.2056
  694MOL0     H95770   7.660   8.758   4.287 -0.1679 -2.2992 -1.7381
  694MOL0     H95771   7.521   8.720   4.393 -0.1490  2.2491  0.5163
  694MOL0     H95772   7.519   8.668   4.227  1.2037 -1.7101  0.8777
  695MOL0     O95773   2.286  10.804   3.241 -1.0563  0.2283 -0.3492
  695MOL0     C95774   2.285  10.920   3.248 -0.1128 -0.4177 -0.0721
  695MOL0     O95775   2.313  11.007   3.147  0.2729  0.3998  0.0580
  695MOL0     C95776   2.272  10.974   3.022  0.6500 -0.2307  0.9227
  695MOL0     C95777   2.336  11.037   2.914  0.7158  0.1194 -0.4602
  695MOL0     C95778   2.297  11.027   2.783 -0.0330  0.2665 -0.4498
  695MOL0     C95779   2.182  10.950   2.753 -0.3458 -1.1422  0.3444
  695MOL0     O95780   2.108  10.947   2.642 -0.4188  0.0352  0.1674
  695MOL0     C95781   2.141  11.004   2.515 -0.8995  0.3543  0.2167
  695MOL0     C95782   2.268  10.959   2.436 -0.1390 -0.9354  0.1387
  695MOL0     C95783   2.237  10.811   2.410 -0.9774 -0.9828 -0.5674
  695MOL0     C95784   2.350  10.725   2.337  0.6855  0.9677 -0.1263
  695MOL0     C95785   2.465  10.704   2.442  0.9508  0.0785  0.6653
  695MOL0     C95786   2.583  10.620   2.379  0.4150  0.0932 -0.5868
  695MOL0     C95787   2.667  10.684   2.272  0.4184 -0.0562 -0.1649
  695MOL0     C95788   2.745  10.806   2.322 -0.5489  0.3872 -0.0900
  695MOL0     N95789   2.870  10.815   2.247 -0.4582 -0.2719  0.0153
  695MOL0     C95790   2.979  10.727   2.256 -0.0087 -0.1831 -0.0442
  695MOL0     C95791   3.041  10.747   2.130  0.2802 -0.3394  0.0502
  695MOL0     C95792   3.165  10.680   2.086  0.0497  0.0987  0.2539
  695MOL0     C95793   3.125  10.603   1.956  0.3989  0.4126  0.1131
  695MOL0     C95794   3.062  10.471   1.996 -0.2555  0.2651  1.5188
  695MOL0     C95795   3.049  10.368   1.875  0.2376 -0.0287  0.6923
  695MOL0     O95796   3.018  10.235   1.924 -0.8482 -0.3652 -0.9920
  695MOL0     C95797   3.023  10.131   1.840 -0.3422 -0.2289  0.6464
  695MOL0     C95798   3.029  10.144   1.699  0.6748  0.5126 -0.4126
  695MOL0     C95799   3.047  10.037   1.611 -0.3893  0.4365 -0.3176
  695MOL0     C95800   3.047  10.075   1.468 -0.3253  0.0907 -0.1751
  695MOL0     C95801   3.072   9.912   1.666 -0.5055 -0.4056 -0.5529
  695MOL0     C95802   3.116   9.786   1.594  0.2025 -0.9114  0.4087
  695MOL0     O95803   3.119   9.668   1.665  0.1741 -0.3809 -0.9591
  695MOL0     C95804   3.093   9.554   1.602  0.5900  0.5945 -0.0120
  695MOL0     C95805   3.149   9.435   1.655  0.0942 -0.8684  0.8848
  695MOL0     C95806   3.113   9.306   1.602 -0.1846 -0.5590  0.5449
  695MOL0     C95807   3.030   9.299   1.492 -0.0702 -0.6397  0.2184
  695MOL0     O95808   3.002   9.173   1.445 -0.7442 -0.0105  0.2739
  695MOL0     C95809   2.972   9.150   1.299  0.2656  0.0900 -0.5464
  695MOL0     C95810   2.935   9.012   1.278  1.3190  0.7741  0.0383
  695MOL0     C95811   3.044   8.919   1.339 -0.7582 -0.4153  0.4087
  695MOL0     C95812   3.001   8.768   1.370  0.5384  0.1076  0.8513
  695MOL0     C95813   2.982   8.750   1.522  0.3677  0.7202 -0.4525
  695MOL0     C95814   2.923   8.602   1.544 -0.1354 -0.3087 -1.2342
  695MOL0     C95815   2.872   8.589   1.690  0.4840  0.2174  0.3272
  695MOL0     C95816   2.990   8.568   1.788  0.8052 -0.2008 -0.6562
  695MOL0    Cl95817   3.085   8.426   1.767 -0.1080  0.5724  0.2200
  695MOL0     C95818   2.974   9.414   1.439 -1.1507  0.1970 -0.1162
  695MOL0     C95819   3.010   9.541   1.488  0.1301 -0.7403  0.0416
  695MOL0     O95820   3.136   9.798   1.471  0.3594 -0.7102 -0.4674
  695MOL0     C95821   3.066   9.900   1.811  0.1501  0.3195  0.0852
  695MOL0     C95822   3.036  10.004   1.887  0.7729  1.0433 -0.0495
  695MOL0     N95823   2.966  10.836   2.055 -0.1261  0.0462  0.1923
  695MOL0     N95824   2.859  10.867   2.122  0.0503 -0.3341  0.5692
  695MOL0     C95825   2.123  10.876   2.853  0.0998 -0.0945 -0.6296
  695MOL0     C95826   2.169  10.882   2.984 -0.3724 -0.7059 -0.2163
  695MOL0     C95827   2.250  10.980   3.374 -0.5170  0.0095 -0.1389
  695MOL0     C95828   2.324  11.092   3.421  0.3468 -0.0319  0.5768
  695MOL0     C95829   2.283  11.156   3.542 -0.2375 -0.1206  0.0871
  695MOL0     C95830   2.171  11.107   3.617  0.2392  0.3290  0.6580
  695MOL0     O95831   2.133  11.156   3.748  0.4788 -0.1142  0.3388
  695MOL0     C95832   2.222  11.265   3.800 -0.1379 -0.1961  0.1971
  695MOL0     C95833   2.169  11.309   3.939  0.1870  0.0979  0.1347
  695MOL0     C95834   2.022  11.352   3.930 -0.1626  0.3594 -0.5142
  695MOL0     C95835   1.962  11.421   4.049 -0.2575  0.2855 -0.9311
  695MOL0     C95836   1.822  11.482   4.028 -0.5590  0.1775  0.1861
  695MOL0     C95837   1.722  11.542   4.014  0.1254 -0.7918 -0.1101
  695MOL0     C95838   2.095  10.998   3.559 -1.0708  0.4072 -1.2252
  695MOL0     C95839   2.132  10.935   3.441 -0.5328  0.2092 -0.0494
  695MOL0     C95840   2.041  10.827   3.391 -0.1473 -0.3385  0.1020
  695MOL0     H95841   2.427  11.094   2.934  0.9660 -0.0815 -0.9981
  695MOL0     H95842   2.350  11.077   2.703  1.4293  0.3987  0.5536
  695MOL0     H95843   2.154  11.110   2.540 -0.9317  0.1704  1.0408
  695MOL0     H95844   2.051  10.995   2.453 -1.0979  1.5247  0.3043
  695MOL0     H95845   2.295  11.021   2.351 -1.0672 -0.3155  0.2795
  695MOL0     H95846   2.354  10.971   2.503 -1.0324  3.1753  0.7962
  695MOL0     H95847   2.214  10.760   2.505  1.7277 -1.7884 -0.2639
  695MOL0     H95848   2.149  10.809   2.345 -0.2455  0.2813 -1.6374
  695MOL0     H95849   2.302  10.632   2.304  0.8869 -0.1049  2.3433
  695MOL0     H95850   2.387  10.772   2.246 -1.0790 -1.1541 -2.0742
  695MOL0     H95851   2.425  10.650   2.528 -1.8195  1.3293  0.2802
  695MOL0     H95852   2.506  10.800   2.475  0.9847  0.6843 -1.0300
  695MOL0     H95853   2.645  10.583   2.461  1.7805  2.7950 -0.3018
  695MOL0     H95854   2.539  10.527   2.341  1.4043 -0.8462  0.4741
  695MOL0     H95855   2.600  10.708   2.189 -2.4476  2.2143  2.5703
  695MOL0     H95856   2.748  10.617   2.242  0.1111 -0.9214  0.8995
  695MOL0     H95857   2.684  10.894   2.302 -1.6072  0.0770  1.5181
  695MOL0     H95858   2.764  10.793   2.429 -0.7306  1.3004  0.0571
  695MOL0     H95859   3.014  10.672   2.342 -0.2348 -0.5664 -0.1979
  695MOL0     H95860   3.210  10.615   2.162 -2.4797 -2.3866 -0.2024
  695MOL0     H95861   3.240  10.752   2.054  0.7946  0.3569  2.4194
  695MOL0     H95862   3.051  10.658   1.897  2.7429  0.4618 -3.0418
  695MOL0     H95863   3.214  10.593   1.892  3.2624  0.4447  3.7233
  695MOL0     H95864   3.133  10.415   2.058 -0.9656 -0.8067  1.3954
  695MOL0     H95865   2.964  10.488   2.041 -0.9254  1.5980 -0.3176
  695MOL0     H95866   2.976  10.391   1.797 -0.0318  1.1453  1.2712
  695MOL0     H95867   3.144  10.357   1.822 -0.5712 -3.5750 -0.3471
  695MOL0     H95868   2.998  10.239   1.656  1.0176  0.6737 -0.3051
  695MOL0     H95869   3.068  10.181   1.450  0.4272  0.5533  2.8130
  695MOL0     H95870   2.941  10.068   1.441 -0.4431  1.5407 -0.1507
  695MOL0     H95871   3.098  10.010   1.397  2.3278  2.0565 -0.1976
  695MOL0     H95872   3.212   9.453   1.742 -1.0038  2.0704  1.1852
  695MOL0     H95873   3.147   9.220   1.659 -0.4663 -0.2468  1.1954
  695MOL0     H95874   2.885   9.208   1.265 -0.5942 -0.0485  1.3211
  695MOL0     H95875   3.050   9.178   1.227 -0.9010  0.1109 -1.8448
  695MOL0     H95876   2.843   8.982   1.329  1.8249 -1.6564 -0.3275
  695MOL0     H95877   2.923   8.998   1.170 -0.6099 -2.9051  0.5567
  695MOL0     H95878   3.099   8.960   1.424  0.4998 -0.2511 -0.4506
  695MOL0     H95879   3.116   8.923   1.257 -1.5862  2.1291 -0.2850
  695MOL0     H95880   3.080   8.698   1.339 -1.1188 -0.6979 -1.8643
  695MOL0     H95881   2.918   8.742   1.304 -0.4583  1.8003  1.3893
  695MOL0     H95882   3.073   8.774   1.578  2.2634 -3.8582 -1.0508
  695MOL0     H95883   2.910   8.831   1.539  0.6756  1.5491 -2.7194
  695MOL0     H95884   3.000   8.527   1.526 -0.9725 -1.6016  0.3306
  695MOL0     H95885   2.838   8.579   1.478 -1.1492 -1.4161  0.3916
  695MOL0     H95886   2.796   8.511   1.699 -1.6673  2.2107  0.5537
  695MOL0     H95887   2.817   8.680   1.716 -1.1339 -0.9730  1.2278
  695MOL0     H95888   2.944   8.549   1.886 -0.1439 -1.3732 -1.3157
  695MOL0     H95889   3.054   8.657   1.792  1.5725 -0.7696  0.4422
  695MOL0     H95890   2.911   9.423   1.351  1.2537  2.5470 -1.7629
  695MOL0     H95891   2.969   9.636   1.454  1.5912  0.1390  0.6684
  695MOL0     H95892   3.080   9.807   1.864 -1.1279  1.6567  3.0037
  695MOL0     H95893   3.058  10.003   1.994 -0.0767 -1.1768  0.1749
  695MOL0     H95894   2.035  10.819   2.826 -0.6701  1.2479 -1.0401
  695MOL0     H95895   2.116  10.819   3.055  0.0311 -2.1065 -1.1234
  695MOL0     H95896   2.409  11.133   3.368  1.1988 -0.8946  1.2525
  695MOL0     H95897   2.336  11.241   3.583  2.3642 -1.7589  0.3608
  695MOL0     H95898   2.323  11.227   3.816  0.5567  1.4129 -0.1691
  695MOL0     H95899   2.223  11.344   3.724  0.6369 -2.3401 -2.1730
  695MOL0     H95900   2.221  11.400   3.969  1.2849  0.4396 -2.5684
  695MOL0     H95901   2.188  11.230   4.013  3.0020  2.3617  2.0384
  695MOL0     H95902   1.998  11.423   3.851 -0.6906  2.2406  1.2302
  695MOL0     H95903   1.973  11.255   3.927  1.0031 -0.2828  0.2756
  695MOL0     H95904   2.031  11.493   4.093  1.1729  0.5085 -3.3514
  695MOL0     H95905   1.937  11.339   4.118 -3.8135 -1.2214 -3.6638
  695MOL0     H95906   1.635  11.602   4.027  2.3590  2.9457 -0.9156
  695MOL0     H95907   2.015  10.969   3.625  1.1577  1.0312  1.9813
  695MOL0     H95908   2.022  10.829   3.283  0.6851  0.3069 -0.0478
  695MOL0     H95909   2.080  10.729   3.422  0.8689 -0.1340 -0.4798
  695MOL0     H95910   1.943  10.843   3.436 -0.1473  1.8285 -0.5722
  696MOL0     O95911   5.368   3.925   7.786  0.1762  0.1862  0.4523
  696MOL0     C95912   5.259   3.956   7.745  0.4152  0.0520 -0.0128
  696MOL0     O95913   5.222   4.083   7.714 -0.7838 -0.5681  0.4131
  696MOL0     C95914   5.330   4.180   7.713  0.5135  0.3369  1.0412
  696MOL0     C95915   5.446   4.170   7.635  0.2799 -0.5760  0.3917
  696MOL0     C95916   5.552   4.252   7.663  0.7785 -0.2449  0.2377
  696MOL0     C95917   5.547   4.352   7.760  0.2125  0.2743 -0.3833
  696MOL0     O95918   5.657   4.427   7.763 -0.2370 -0.2672  0.1581
  696MOL0     C95919   5.645   4.566   7.775 -0.3530 -0.3892  0.0203
  696MOL0     C95920   5.782   4.630   7.782  0.1349 -0.5076 -0.4058
  696MOL0     C95921   5.899   4.555   7.857  0.7122 -0.1411  0.0277
  696MOL0     C95922   5.849   4.518   8.004 -0.1639 -0.6985  0.6176
  696MOL0     C95923   5.967   4.434   8.073 -0.0097  0.6197 -0.3167
  696MOL0     C95924   5.910   4.346   8.173  0.6115  0.0194  0.1728
  696MOL0     C95925   6.020   4.245   8.229 -0.1404 -0.2483  0.2889
  696MOL0     C95926   5.961   4.147   8.336 -0.7469 -0.1594  0.5410
  696MOL0     N95927   6.053   4.031   8.353 -0.5541 -0.0063 -0.5553
  696MOL0     C95928   6.013   3.897   8.341 -0.8572  0.3507  0.7259
  696MOL0     C95929   6.098   3.821   8.421 -0.5786 -0.4283  0.1118
  696MOL0     C95930   6.095   3.674   8.440  0.2136  0.0143  0.4147
  696MOL0     C95931   6.015   3.636   8.565 -0.6347  0.7033  0.1401
  696MOL0     C95932   6.026   3.478   8.583  0.2604 -0.6847 -0.3129
  696MOL0     C95933   6.160   3.438   8.633  0.9500 -0.5984  0.4551
  696MOL0     O95934   6.170   3.483   8.766 -0.2519 -0.2036 -0.0687
  696MOL0     C95935   6.285   3.452   8.834  0.7512  0.0359  0.8121
  696MOL0     C95936   6.372   3.348   8.797  0.5638 -0.1412 -0.2691
  696MOL0     C95937   6.475   3.302   8.879  0.0102  0.6133 -0.3238
  696MOL0     C95938   6.555   3.177   8.851  0.3199 -0.3590 -0.5549
  696MOL0     C95939   6.496   3.375   8.998  0.8440 -0.2229  0.3276
  696MOL0     C95940   6.607   3.335   9.080  0.8577 -0.1280 -0.7581
  696MOL0     O95941   6.719   3.408   9.074  0.1365 -0.5850 -0.2341
  696MOL0     C95942   6.807   3.395   9.181  0.4936 -0.3071 -0.1098
  696MOL0     C95943   6.940   3.369   9.141  0.1155 -1.0598 -0.4037
  696MOL0     C95944   7.040   3.363   9.235  0.0213 -0.3374  0.3660
  696MOL0     C95945   7.012   3.370   9.376 -0.3765  0.5077 -0.0201
  696MOL0     O95946   7.123   3.354   9.468 -0.4415 -0.0917  0.3769
  696MOL0     C95947   7.102   3.424   9.598 -0.2909 -0.8601  0.1035
  696MOL0     C95948   7.057   3.327   9.702 -0.4544  0.1788 -0.1116
  696MOL0     C95949   7.060   3.391   9.840 -0.6857 -0.8722 -0.0067
  696MOL0     C95950   7.018   3.300   9.959 -0.2875 -0.6282 -0.2577
  696MOL0     C95951   7.069   3.343  10.101  0.0561 -0.0682  0.9938
  696MOL0     C95952   7.063   3.227  10.197  0.4745 -0.1811 -0.7245
  696MOL0     C95953   6.920   3.196  10.238 -0.4004  0.1245 -0.3773
  696MOL0     C95954   6.855   3.285  10.345 -0.3687  1.0025 -0.8407
  696MOL0    Cl95955   6.690   3.224  10.370 -0.0816 -0.4720 -0.1452
  696MOL0     C95956   6.877   3.389   9.416  0.8095 -0.0491  0.1457
  696MOL0     C95957   6.779   3.408   9.320 -0.1291  1.1736 -0.1688
  696MOL0     O95958   6.582   3.249   9.163 -0.0594 -0.0703  0.1856
  696MOL0     C95959   6.399   3.464   9.048 -0.4261 -0.0349  0.0264
  696MOL0     C95960   6.295   3.503   8.969  0.0046 -0.7618  0.2429
  696MOL0     N95961   6.189   3.912   8.485  0.2232 -0.4253  0.4026
  696MOL0     N95962   6.148   4.033   8.452 -0.0050  0.3701 -0.3569
  696MOL0     C95963   5.431   4.381   7.821 -0.5768 -0.2763  0.0900
  696MOL0     C95964   5.323   4.292   7.800  0.4104 -0.2756 -0.1603
  696MOL0     C95965   5.153   3.854   7.731 -0.6176  1.2728 -0.4344
  696MOL0     C95966   5.053   3.873   7.627 -0.3678 -0.6228  0.2111
  696MOL0     C95967   4.939   3.793   7.601 -0.3085 -0.7716 -0.3684
  696MOL0     C95968   4.918   3.682   7.689  0.1490 -0.6035  0.5205
  696MOL0     O95969   4.817   3.592   7.665  0.0351  0.9340 -0.7474
  696MOL0     C95970   4.802   3.548   7.534  0.0743  0.1666  0.0867
  696MOL0     C95971   4.681   3.469   7.514  0.5001  0.0781  0.2712
  696MOL0     C95972   4.550   3.553   7.537  0.0370 -0.2604  0.5138
  696MOL0     C95973   4.420   3.479   7.529  0.4026  0.3977  0.2084
  696MOL0     C95974   4.376   3.428   7.398 -0.3749 -0.3081  0.2943
  696MOL0     C95975   4.345   3.392   7.287  0.1782 -0.2744 -0.6213
  696MOL0     C95976   5.010   3.658   7.784 -0.3423  1.3662 -0.4091
  696MOL0     C95977   5.128   3.735   7.809  0.5764 -0.0937  0.1344
  696MOL0     C95978   5.218   3.711   7.918  0.0388 -1.4177  0.1862
  696MOL0     H95979   5.453   4.093   7.559 -2.2582 -3.5191  2.8232
  696MOL0     H95980   5.641   4.241   7.602 -0.0325  3.0141 -1.7970
  696MOL0     H95981   5.599   4.587   7.872 -1.0656 -0.2023 -0.3523
  696MOL0     H95982   5.572   4.606   7.704 -1.9623 -1.5823  0.9523
  696MOL0     H95983   5.828   4.650   7.684 -1.8216  0.7401 -1.1337
  696MOL0     H95984   5.780   4.726   7.835  2.4308 -0.2947 -0.6028
  696MOL0     H95985   5.919   4.466   7.797  1.5721  0.3355 -0.4100
  696MOL0     H95986   5.988   4.619   7.862 -0.0754  0.9692  0.3656
  696MOL0     H95987   5.833   4.601   8.074 -2.1095 -0.6093  0.1388
  696MOL0     H95988   5.759   4.456   8.000 -0.6545  0.0290  0.1600
  696MOL0     H95989   6.042   4.500   8.117  0.6156 -1.0995  1.3345
  696MOL0     H95990   6.014   4.371   7.996 -1.0625  0.6209 -0.9835
  696MOL0     H95991   5.872   4.398   8.261 -3.0211 -0.3963 -0.9721
  696MOL0     H95992   5.827   4.284   8.136  1.0576 -1.8247  2.0502
  696MOL0     H95993   6.104   4.301   8.271  0.9217 -0.8566 -0.9397
  696MOL0     H95994   6.052   4.196   8.136 -4.3227 -0.5859 -1.2155
  696MOL0     H95995   5.966   4.210   8.425  1.9238 -0.2705  0.5695
  696MOL0     H95996   5.857   4.120   8.317 -1.2063  2.6207 -1.6119
  696MOL0     H95997   5.934   3.845   8.288 -1.6393  0.5985  1.6276
  696MOL0     H95998   6.200   3.643   8.446  0.7551  1.9509  2.3890
  696MOL0     H95999   6.046   3.620   8.359 -1.3777  2.3934 -0.2990
  696MOL0     H96000   6.055   3.691   8.650  3.2300 -1.5695  0.0427
  696MOL0     H96001   5.910   3.666   8.557 -0.6977  0.4465 -0.0325
  696MOL0     H96002   5.946   3.439   8.646  0.2549  1.4729  1.1557
  696MOL0     H96003   6.035   3.429   8.486  2.0696 -2.8609  0.8565
  696MOL0     H96004   6.152   3.329   8.635  0.3370 -0.5493  1.8795
  696MOL0     H96005   6.236   3.478   8.566 -0.3263 -2.2472 -2.1299
  696MOL0     H96006   6.349   3.291   8.708  2.6160  1.5620 -1.9843
  696MOL0     H96007   6.644   3.209   8.797  1.1281 -0.9751  0.3789
  696MOL0     H96008   6.510   3.110   8.777 -2.1254  3.2208 -2.6629
  696MOL0     H96009   6.587   3.123   8.940  0.2595 -0.0465 -0.3435
  696MOL0     H96010   6.967   3.371   9.036  1.5260  1.3167 -0.0593
  696MOL0     H96011   7.141   3.347   9.198 -0.1488 -1.9146  0.4842
  696MOL0     H96012   7.199   3.465   9.627  0.1845 -0.2870 -2.1009
  696MOL0     H96013   7.034   3.509   9.589 -0.1225 -0.8084 -0.7815
  696MOL0     H96014   6.950   3.311   9.684 -0.0359 -2.5694 -0.4805
  696MOL0     H96015   7.114   3.235   9.686 -2.4045 -0.9080 -1.1644
  696MOL0     H96016   6.985   3.469   9.832  2.1554  2.0217 -0.5181
  696MOL0     H96017   7.154   3.444   9.855 -0.1443 -1.2359 -1.8326
  696MOL0     H96018   7.045   3.196   9.938 -0.8405 -0.8868  0.2646
  696MOL0     H96019   6.909   3.302   9.951 -0.2466 -1.6928 -1.3705
  696MOL0     H96020   7.176   3.365  10.087 -0.3317 -0.1064 -3.2158
  696MOL0     H96021   7.007   3.423  10.140  0.0227  1.0680 -1.2317
  696MOL0     H96022   7.124   3.262  10.281  1.7219  1.9164 -2.4354
  696MOL0     H96023   7.111   3.138  10.156 -1.5439 -1.6439 -0.0766
  696MOL0     H96024   6.918   3.092  10.273 -2.9107  1.0762  2.7373
  696MOL0     H96025   6.864   3.194  10.144  2.6439 -0.6412 -2.3092
  696MOL0     H96026   6.836   3.386  10.308 -4.9635  1.3832  1.7781
  696MOL0     H96027   6.921   3.302  10.430  0.3910  0.3244 -1.2762
  696MOL0     H96028   6.847   3.401   9.519  3.1726 -0.6705  0.9694
  696MOL0     H96029   6.679   3.419   9.363 -0.4222 -0.7747 -0.2236
  696MOL0     H96030   6.422   3.525   9.134  1.5233  1.9627 -1.7909
  696MOL0     H96031   6.214   3.571   8.994  0.3514 -0.3490  0.2542
  696MOL0     H96032   5.426   4.471   7.881 -1.0276  2.1867 -3.3128
  696MOL0     H96033   5.232   4.307   7.858  1.2617 -1.1503  1.4909
  696MOL0     H96034   5.076   3.954   7.558  0.3198  0.3539  1.5452
  696MOL0     H96035   4.862   3.818   7.529 -1.5156  2.0128  1.7276
  696MOL0     H96036   4.783   3.627   7.459 -1.6589  2.4174  2.6905
  696MOL0     H96037   4.885   3.486   7.498 -0.5381  0.5655 -2.2279
  696MOL0     H96038   4.676   3.386   7.585 -4.0715 -0.2287 -0.1428
  696MOL0     H96039   4.675   3.422   7.416 -1.0565 -0.2522  0.4987
  696MOL0     H96040   4.552   3.603   7.635 -3.7882  1.3895 -0.0705
  696MOL0     H96041   4.557   3.632   7.462 -1.9370  0.3864  0.9322
  696MOL0     H96042   4.342   3.549   7.562 -2.1054 -1.7916 -0.7322
  696MOL0     H96043   4.425   3.388   7.589  0.0522  1.6058  2.1341
  696MOL0     H96044   4.307   3.375   7.188  1.1695  1.7225 -1.3857
  696MOL0     H96045   4.990   3.563   7.833 -0.5572  3.5181  4.2104
  696MOL0     H96046   5.319   3.689   7.883  0.8791  3.0136 -0.8337
  696MOL0     H96047   5.231   3.800   7.981 -1.4112 -0.5142 -0.7092
  696MOL0     H96048   5.174   3.639   7.988 -0.4212  1.5408  3.2473
  697MOL0     O96049   3.968   3.050   7.741 -0.0480  0.6747 -0.2094
  697MOL0     C96050   3.895   2.975   7.806 -0.9973  0.9960 -0.0087
  697MOL0     O96051   3.903   2.971   7.941 -0.0034  0.8962 -0.3809
  697MOL0     C96052   4.008   3.027   8.009 -0.6822 -0.0287 -0.5339
  697MOL0     C96053   3.985   3.134   8.097  0.6626  0.0562 -0.6791
  697MOL0     C96054   4.089   3.172   8.180  0.1500  1.0811 -1.0999
  697MOL0     C96055   4.214   3.107   8.182 -0.4228 -0.0384  0.0268
  697MOL0     O96056   4.315   3.174   8.258  1.1464  0.8670 -0.8334
  697MOL0     C96057   4.405   3.252   8.177  0.6526 -0.2340  0.0365
  697MOL0     C96058   4.546   3.233   8.246 -0.7742  0.1987  0.5092
  697MOL0     C96059   4.545   3.288   8.389  0.2649  0.8420  0.0958
  697MOL0     C96060   4.690   3.269   8.449  1.0570 -0.3707  0.6509
  697MOL0     C96061   4.683   3.304   8.600  0.2266  0.6624  0.7613
  697MOL0     C96062   4.815   3.316   8.666  0.2322  0.7061 -0.4132
  697MOL0     C96063   4.894   3.447   8.631  0.1004  0.7389  0.0650
  697MOL0     C96064   4.988   3.465   8.748 -0.9419 -0.4528 -0.0591
  697MOL0     N96065   5.075   3.581   8.734  0.4487 -0.3669  0.5332
  697MOL0     C96066   5.060   3.690   8.819 -0.7428 -0.5937  0.2534
  697MOL0     C96067   5.176   3.763   8.793 -0.1866 -0.0318  0.3069
  697MOL0     C96068   5.216   3.901   8.851 -0.2438 -1.1929  0.0924
  697MOL0     C96069   5.240   4.010   8.745 -0.2475  0.1088 -0.1752
  697MOL0     C96070   5.121   4.105   8.717 -0.7114 -0.4900 -0.5178
  697MOL0     C96071   5.160   4.219   8.603 -0.1529  0.9402  0.5164
  697MOL0     O96072   5.259   4.299   8.668  0.4546 -0.0027 -0.2274
  697MOL0     C96073   5.312   4.405   8.601 -0.0243 -0.8198  0.8428
  697MOL0     C96074   5.410   4.478   8.667 -0.9536 -0.1034  0.2787
  697MOL0     C96075   5.485   4.585   8.603  0.1424 -0.4036  0.5297
  697MOL0     C96076   5.576   4.667   8.693 -0.2639 -0.1899  0.3998
  697MOL0     C96077   5.438   4.622   8.475  0.1868 -0.1908 -0.1982
  697MOL0     C96078   5.475   4.743   8.398  0.6552 -0.3991 -0.2361
  697MOL0     O96079   5.592   4.798   8.441  0.3893 -0.7904  0.6217
  697MOL0     C96080   5.656   4.890   8.365 -0.1447 -0.4202 -0.1091
  697MOL0     C96081   5.702   4.863   8.235  0.2287 -0.3969 -0.8969
  697MOL0     C96082   5.775   4.953   8.165  0.6628 -1.2099 -0.4889
  697MOL0     C96083   5.806   5.081   8.215 -0.4394  0.6381 -0.0775
  697MOL0     O96084   5.898   5.158   8.151  0.0297 -0.3938 -0.7391
  697MOL0     C96085   5.948   5.273   8.214  0.1950  0.2073 -0.4112
  697MOL0     C96086   6.050   5.358   8.141 -0.2745 -0.1226 -0.6131
  697MOL0     C96087   6.180   5.279   8.105 -0.0771  0.0483  0.2987
  697MOL0     C96088   6.285   5.367   8.022  0.1002 -0.5845  0.5981
  697MOL0     C96089   6.391   5.270   7.959  0.5695  0.2685  0.2325
  697MOL0     C96090   6.471   5.191   8.059 -0.1265 -0.2129 -0.0617
  697MOL0     C96091   6.607   5.166   8.003 -0.0046 -0.2651  0.5360
  697MOL0     C96092   6.604   5.078   7.878 -0.4278  0.5968 -0.2737
  697MOL0    Cl96093   6.505   4.933   7.898  0.0267 -0.1880 -0.2408
  697MOL0     C96094   5.757   5.111   8.340  0.8458  0.2748  0.1900
  697MOL0     C96095   5.686   5.020   8.418  0.2785  0.2376  0.5549
  697MOL0     O96096   5.416   4.769   8.292  0.2630  0.4642  0.3025
  697MOL0     C96097   5.339   4.543   8.414 -0.7170 -0.4028  0.5914
  697MOL0     C96098   5.276   4.440   8.470  0.7540  0.7854 -0.2473
  697MOL0     N96099   5.262   3.689   8.704  0.4901 -0.5332 -0.3880
  697MOL0     N96100   5.192   3.586   8.667 -0.1840  0.3016  0.8399
  697MOL0     C96101   4.237   2.998   8.098  0.4885 -0.6811 -0.4628
  697MOL0     C96102   4.132   2.957   8.013  0.6693 -0.0132 -0.0632
  697MOL0     C96103   3.794   2.887   7.741 -1.0463 -0.9071  0.0250
  697MOL0     C96104   3.815   2.752   7.757  1.1297  0.1906  0.2472
  697MOL0     C96105   3.712   2.662   7.707 -0.0181 -1.4146 -0.6002
  697MOL0     C96106   3.601   2.711   7.627 -0.0899  0.1603  0.0782
  697MOL0     O96107   3.506   2.628   7.569  0.4149 -0.0919 -0.5032
  697MOL0     C96108   3.480   2.504   7.638 -0.1519 -0.1940 -0.9429
  697MOL0     C96109   3.338   2.466   7.610 -0.2673 -0.0162 -0.4551
  697MOL0     C96110   3.305   2.488   7.460  0.0889  0.1315  0.0552
  697MOL0     C96111   3.171   2.415   7.420  0.4679  0.4434 -0.4969
  697MOL0     C96112   3.155   2.437   7.273 -0.4132  0.1797 -1.1338
  697MOL0     C96113   3.135   2.454   7.160 -0.0608  0.7344 -0.0823
  697MOL0     C96114   3.608   2.849   7.596 -0.1481  0.2164 -0.5876
  697MOL0     C96115   3.703   2.943   7.652  0.8081  0.0007 -0.3843
  697MOL0     C96116   3.688   3.083   7.617 -0.9506 -0.5352 -0.1481
  697MOL0     H96117   3.890   3.186   8.099 -0.2538 -1.5643  0.6054
  697MOL0     H96118   4.071   3.261   8.240 -3.1025  0.5697 -1.1550
  697MOL0     H96119   4.381   3.359   8.179 -1.9106 -0.7574  0.4466
  697MOL0     H96120   4.398   3.220   8.073  1.1591 -1.8312  0.4620
  697MOL0     H96121   4.585   3.132   8.238  2.8611  1.3859  1.2990
  697MOL0     H96122   4.609   3.303   8.190 -1.5985  1.6327  1.2945
  697MOL0     H96123   4.524   3.395   8.394 -3.5377  0.7769 -5.3368
  697MOL0     H96124   4.473   3.233   8.450  0.0421 -2.5660 -2.8523
  697MOL0     H96125   4.728   3.168   8.432  1.1501 -0.3282  0.6067
  697MOL0     H96126   4.763   3.330   8.394  0.9101 -1.8516 -1.2834
  697MOL0     H96127   4.617   3.225   8.637 -1.4654  0.3013 -2.6249
  697MOL0     H96128   4.615   3.384   8.629 -1.3138 -0.4493  0.4024
  697MOL0     H96129   4.787   3.317   8.772 -1.2074  3.4202 -0.7446
  697MOL0     H96130   4.875   3.226   8.645 -2.4249 -1.4326  0.4873
  697MOL0     H96131   4.832   3.536   8.623  0.9193  1.6559  2.8226
  697MOL0     H96132   4.947   3.440   8.536 -0.2563 -0.2304 -0.0771
  697MOL0     H96133   4.935   3.470   8.844 -1.0200  0.6122 -0.1419
  697MOL0     H96134   5.053   3.378   8.755 -0.0060  0.2678  0.5238
  697MOL0     H96135   4.977   3.710   8.886 -0.0477 -2.2124  1.6896
  697MOL0     H96136   5.307   3.897   8.911  1.1314  1.4902 -1.6498
  697MOL0     H96137   5.148   3.940   8.927 -0.2332  0.0045 -0.4908
  697MOL0     H96138   5.325   4.070   8.777 -0.4872  0.9614 -1.0941
  697MOL0     H96139   5.269   3.954   8.655  3.0746  0.8690  0.2783
  697MOL0     H96140   5.036   4.045   8.682 -1.4162  1.1770 -1.8420
  697MOL0     H96141   5.092   4.144   8.815 -0.4633 -1.4139 -0.0656
  697MOL0     H96142   5.200   4.178   8.510  0.1580  1.0027  0.6210
  697MOL0     H96143   5.075   4.284   8.580 -1.6804 -1.4101 -1.0077
  697MOL0     H96144   5.428   4.456   8.772  0.7677  0.9333  0.2359
  697MOL0     H96145   5.577   4.626   8.795 -2.9669 -0.5505  0.3441
  697MOL0     H96146   5.526   4.764   8.699 -0.7876 -0.5351  2.7409
  697MOL0     H96147   5.680   4.670   8.657 -1.0943 -0.2828 -2.2485
  697MOL0     H96148   5.677   4.768   8.189  1.0810 -0.1012 -2.0157
  697MOL0     H96149   5.831   4.930   8.075  2.5747  3.2084 -0.6807
  697MOL0     H96150   5.870   5.343   8.247  2.0060  1.5670  1.2050
  697MOL0     H96151   5.987   5.239   8.310  1.5046  1.0912 -0.6041
  697MOL0     H96152   6.019   5.400   8.045  0.4118 -1.3855 -1.4142
  697MOL0     H96153   6.058   5.442   8.210 -0.6215 -1.6794  1.4153
  697MOL0     H96154   6.159   5.191   8.043  1.4094  0.4396 -0.8402
  697MOL0     H96155   6.237   5.249   8.193 -1.1970 -2.2547  0.3105
  697MOL0     H96156   6.332   5.453   8.070 -1.1385  2.5377 -3.2339
  697MOL0     H96157   6.240   5.410   7.932  1.8598  0.7765  0.3085
  697MOL0     H96158   6.346   5.206   7.883  2.7654  0.0174 -0.9316
  697MOL0     H96159   6.449   5.338   7.895 -1.3545 -0.7716 -2.8439
  697MOL0     H96160   6.429   5.096   8.096  0.3167  0.6614  2.9305
  697MOL0     H96161   6.473   5.255   8.147 -1.1860  1.5193 -1.2367
  697MOL0     H96162   6.650   5.105   8.082 -2.0264  1.9979  3.6155
  697MOL0     H96163   6.669   5.256   8.002  1.7054 -1.3936  1.0564
  697MOL0     H96164   6.701   5.034   7.853 -1.6376 -1.3066 -1.8954
  697MOL0     H96165   6.577   5.139   7.791  2.6306 -0.8355 -2.4039
  697MOL0     H96166   5.773   5.209   8.383 -1.1745  0.3558  0.8595
  697MOL0     H96167   5.647   5.046   8.516 -0.7732 -0.0591  0.2347
  697MOL0     H96168   5.306   4.560   8.312 -0.3134 -1.2950  0.2984
  697MOL0     H96169   5.200   4.387   8.415  1.0514 -0.4104  0.4641
  697MOL0     H96170   4.332   2.946   8.100  0.8922  0.0162 -1.0930
  697MOL0     H96171   4.155   2.865   7.961  3.3319 -1.3705  3.1562
  697MOL0     H96172   3.910   2.715   7.796  1.3490  0.4223 -0.0577
  697MOL0     H96173   3.720   2.554   7.703  2.1810 -1.2786 -2.8477
  697MOL0     H96174   3.554   2.429   7.606 -1.2378 -1.2730 -0.9797
  697MOL0     H96175   3.495   2.515   7.746  0.3225  1.6499 -1.1547
  697MOL0     H96176   3.280   2.541   7.665  1.4148  2.4748 -1.8403
  697MOL0     H96177   3.310   2.367   7.647  2.0069  0.1433  1.9768
  697MOL0     H96178   3.298   2.596   7.440 -0.9112 -0.0341 -0.5640
  697MOL0     H96179   3.388   2.457   7.396 -1.5136  1.2806 -2.7690
  697MOL0     H96180   3.080   2.455   7.465 -0.8260 -1.4924 -1.2993
  697MOL0     H96181   3.178   2.309   7.444  2.2934  1.1135  2.5459
  697MOL0     H96182   3.130   2.469   7.054  2.6088  1.7651 -0.1332
  697MOL0     H96183   3.541   2.903   7.530 -1.5059 -0.1463  0.4455
  697MOL0     H96184   3.757   3.153   7.665 -2.3922  0.2596  0.8166
  697MOL0     H96185   3.701   3.089   7.508 -2.7751 -2.3600 -0.5405
  697MOL0     H96186   3.589   3.117   7.648  0.1062  1.9070  0.8379
  698MOL0     O96187   1.191   4.753   1.650 -0.6554 -0.5794 -0.2720
  698MOL0     C96188   1.115   4.734   1.741 -0.2503 -0.3427 -0.6875
  698MOL0     O96189   1.133   4.629   1.831 -0.2882  0.0320  0.3636
  698MOL0     C96190   1.255   4.570   1.834 -0.6712 -0.2404  0.9611
  698MOL0     C96191   1.361   4.627   1.903 -0.5334 -0.2734  0.0044
  698MOL0     C96192   1.488   4.567   1.910 -0.1930  0.4286  0.0747
  698MOL0     C96193   1.508   4.442   1.841 -0.5761 -0.0339 -0.2564
  698MOL0     O96194   1.629   4.379   1.844 -0.2719 -0.3352 -0.2607
  698MOL0     C96195   1.684   4.353   1.969 -0.2621  0.3173 -0.6391
  698MOL0     C96196   1.808   4.267   1.943 -0.1897 -0.5292 -0.5047
  698MOL0     C96197   1.858   4.214   2.074  0.0491  0.8438  0.0522
  698MOL0     C96198   1.790   4.078   2.114 -0.5353 -0.4451 -0.6358
  698MOL0     C96199   1.887   3.992   2.189  0.4580  0.0226 -1.1429
  698MOL0     C96200   1.817   3.886   2.276 -0.3888 -0.7951 -0.1858
  698MOL0     C96201   1.900   3.774   2.337  0.2874  0.6513  0.1032
  698MOL0     C96202   1.987   3.692   2.238 -0.3760 -0.4574  0.9454
  698MOL0     N96203   2.067   3.580   2.287  0.1578  0.7444  0.0673
  698MOL0     C96204   2.020   3.459   2.333 -0.3409 -0.6019  0.5419
  698MOL0     C96205   2.123   3.377   2.355 -0.7652 -0.0747 -0.4761
  698MOL0     C96206   2.125   3.228   2.404 -0.7424 -0.9695  0.1975
  698MOL0     C96207   2.226   3.154   2.309 -0.2589  0.3824  1.1199
  698MOL0     C96208   2.371   3.188   2.347 -0.3927 -0.6679  0.4235
  698MOL0     C96209   2.481   3.083   2.297 -0.3300  0.6202  0.6717
  698MOL0     O96210   2.482   3.071   2.159  0.5812  0.0114  0.2770
  698MOL0     C96211   2.577   2.998   2.106 -0.8665 -0.5556  0.1202
  698MOL0     C96212   2.655   2.898   2.168  0.7487 -0.6684  0.1439
  698MOL0     C96213   2.733   2.821   2.084 -0.3563 -0.8413  0.6521
  698MOL0     C96214   2.778   2.673   2.142 -0.1236 -0.3005 -0.1080
  698MOL0     C96215   2.750   2.847   1.946 -0.1447 -0.0222 -0.2880
  698MOL0     C96216   2.834   2.764   1.852  0.1383 -0.1162 -0.5905
  698MOL0     O96217   2.922   2.662   1.899  0.0969 -0.2020  0.3028
  698MOL0     C96218   2.988   2.598   1.802 -0.3367  0.2060  0.3811
  698MOL0     C96219   2.927   2.485   1.751  0.1108  0.3593  0.3998
  698MOL0     C96220   2.973   2.421   1.637 -0.0827 -0.2988 -0.8049
  698MOL0     C96221   3.078   2.480   1.568 -0.0630  0.3152  0.2779
  698MOL0     O96222   3.110   2.425   1.445  0.1076  0.0647  0.1448
  698MOL0     C96223   3.221   2.485   1.375  0.1350  0.0320  0.0296
  698MOL0     C96224   3.248   2.399   1.249  0.3939  0.1490  0.1937
  698MOL0     C96225   3.385   2.408   1.178 -0.0700 -0.6021 -0.6926
  698MOL0     C96226   3.367   2.398   1.025  0.4203  0.2771  0.2072
  698MOL0     C96227   3.502   2.419   0.965 -0.1198  0.0814 -0.7983
  698MOL0     C96228   3.485   2.426   0.812 -0.9104 -0.0163 -0.3904
  698MOL0     C96229   3.619   2.458   0.756 -0.3956 -0.4897  0.0848
  698MOL0     C96230   3.632   2.425   0.602 -0.4864 -0.5910 -0.7762
  698MOL0    Cl96231   3.481   2.475   0.513 -0.4988  0.2507 -0.0427
  698MOL0     C96232   3.155   2.577   1.631 -0.0030  0.6800  0.2325
  698MOL0     C96233   3.113   2.631   1.749 -0.6220 -0.0169  0.3414
  698MOL0     O96234   2.821   2.796   1.737 -0.3042 -0.5239 -0.0926
  698MOL0     C96235   2.675   2.950   1.887  0.5382  0.1295 -0.2221
  698MOL0     C96236   2.593   3.027   1.969 -0.0083  0.6659  0.2713
  698MOL0     N96237   2.240   3.455   2.324 -0.1499 -1.1115  0.7494
  698MOL0     N96238   2.199   3.574   2.284 -0.4704  0.8770  0.8142
  698MOL0     C96239   1.407   4.375   1.778  0.3151  0.2274  0.3160
  698MOL0     C96240   1.276   4.443   1.774 -0.0462 -0.8272  0.1595
  698MOL0     C96241   0.982   4.798   1.743 -0.5187  0.2678 -0.5596
  698MOL0     C96242   0.876   4.734   1.806  0.6296  0.7339  1.0264
  698MOL0     C96243   0.746   4.789   1.807  0.2758  0.6149  0.0410
  698MOL0     C96244   0.725   4.911   1.748  0.2195 -0.1238 -0.7441
  698MOL0     O96245   0.607   4.977   1.756  0.2147  0.2173 -0.3677
  698MOL0     C96246   0.558   5.007   1.889  0.0007  0.5548 -0.1503
  698MOL0     C96247   0.470   5.122   1.891  0.7913 -0.2237  0.2022
  698MOL0     C96248   0.339   5.088   1.817  0.7121  0.3516 -0.5990
  698MOL0     C96249   0.208   5.162   1.851 -0.8224  0.2834  0.4420
  698MOL0     C96250   0.204   5.292   1.786 -0.2895  0.4430 -0.0606
  698MOL0     C96251   0.206   5.405   1.747  0.3986 -0.0031  0.0264
  698MOL0     C96252   0.826   4.971   1.686 -0.1048 -1.4883  0.1602
  698MOL0     C96253   0.961   4.926   1.697  0.5275  0.8838  0.5476
  698MOL0     C96254   1.066   5.019   1.641 -0.5861  0.5784 -0.2223
  698MOL0     H96255   1.341   4.727   1.940 -1.2040 -0.4230  0.0609
  698MOL0     H96256   1.568   4.618   1.962  2.2674  0.0949 -3.0939
  698MOL0     H96257   1.615   4.292   2.029 -0.1323 -0.6073 -1.4094
  698MOL0     H96258   1.708   4.442   2.027  0.6918  0.1630 -0.7884
  698MOL0     H96259   1.776   4.188   1.875 -0.2019 -0.9309 -0.0384
  698MOL0     H96260   1.882   4.331   1.894 -1.3947  0.1801 -1.4417
  698MOL0     H96261   1.965   4.196   2.061  0.4207  2.2455  0.9657
  698MOL0     H96262   1.832   4.278   2.159 -4.1379  0.5905 -0.8100
  698MOL0     H96263   1.703   4.110   2.172  0.5405 -0.6926  1.1859
  698MOL0     H96264   1.760   4.022   2.025  0.2205  1.1396 -1.9445
  698MOL0     H96265   1.961   4.049   2.246 -1.8582  0.9212  1.1658
  698MOL0     H96266   1.926   3.933   2.105 -1.9727 -1.7737 -1.0942
  698MOL0     H96267   1.774   3.948   2.356  2.7609 -0.5309  1.4597
  698MOL0     H96268   1.732   3.839   2.226  1.7522 -2.2532 -2.7373
  698MOL0     H96269   1.835   3.698   2.380  0.9501 -0.0042 -0.0334
  698MOL0     H96270   1.965   3.819   2.412 -0.2509 -2.1581  2.4260
  698MOL0     H96271   1.923   3.646   2.163 -4.0969  0.8609  3.0649
  698MOL0     H96272   2.061   3.761   2.196  0.0061 -1.3609  0.1130
  698MOL0     H96273   1.920   3.418   2.344 -0.8994  0.9068  1.2633
  698MOL0     H96274   2.023   3.198   2.381 -0.4492  0.0209 -2.8145
  698MOL0     H96275   2.147   3.218   2.511  0.4735  2.0377  0.3255
  698MOL0     H96276   2.209   3.047   2.323 -0.2412  0.7075  4.9019
  698MOL0     H96277   2.199   3.179   2.206  0.0710 -0.7653  0.7503
  698MOL0     H96278   2.402   3.284   2.303 -0.0916 -1.0307 -0.1654
  698MOL0     H96279   2.379   3.192   2.456 -2.2072  2.7328  0.5806
  698MOL0     H96280   2.575   3.115   2.341 -0.8935  0.2052  2.2545
  698MOL0     H96281   2.451   2.984   2.334 -1.4260  1.3768  1.9049
  698MOL0     H96282   2.634   2.869   2.270  0.1576  1.0247  0.5453
  698MOL0     H96283   2.769   2.589   2.073 -3.0915  2.1673 -3.0991
  698MOL0     H96284   2.726   2.652   2.236 -2.3282  1.3026 -0.8721
  698MOL0     H96285   2.881   2.683   2.179  1.1863  0.6396 -3.5564
  698MOL0     H96286   2.840   2.451   1.807  2.3339 -1.3328  3.1160
  698MOL0     H96287   2.925   2.328   1.607 -2.0608  1.0594 -2.1393
  698MOL0     H96288   3.192   2.585   1.343 -0.4766  0.4414  1.7598
  698MOL0     H96289   3.316   2.502   1.426  2.0098  0.0094 -3.1675
  698MOL0     H96290   3.240   2.294   1.280 -1.9031  0.0007 -0.6866
  698MOL0     H96291   3.163   2.402   1.180  1.0401 -0.1434 -0.6479
  698MOL0     H96292   3.456   2.334   1.215  2.9276  1.8326 -1.2357
  698MOL0     H96293   3.429   2.505   1.201  2.8767 -2.2031  1.0493
  698MOL0     H96294   3.292   2.469   0.988  0.7484 -0.1401 -1.3395
  698MOL0     H96295   3.341   2.298   0.990  4.5730 -0.4342 -1.4410
  698MOL0     H96296   3.559   2.509   0.990  1.4852 -1.1850  0.3626
  698MOL0     H96297   3.567   2.341   1.005  1.2881  1.3242 -0.5744
  698MOL0     H96298   3.426   2.514   0.785  2.8967  1.9263 -3.3350
  698MOL0     H96299   3.445   2.334   0.767 -0.1914  0.0933 -1.2919
  698MOL0     H96300   3.699   2.404   0.808  1.0316  0.5653 -0.9073
  698MOL0     H96301   3.644   2.561   0.784 -1.3328 -0.0353 -0.7110
  698MOL0     H96302   3.653   2.319   0.590  0.5573 -0.6153  0.9871
  698MOL0     H96303   3.706   2.482   0.546  0.9619 -1.7414 -0.0959
  698MOL0     H96304   3.252   2.605   1.590  2.1836 -5.2399  0.4239
  698MOL0     H96305   3.178   2.704   1.797  1.8118 -2.2817  0.7099
  698MOL0     H96306   2.682   2.974   1.781 -1.6929 -0.3051 -0.5240
  698MOL0     H96307   2.532   3.102   1.919  3.8039  1.7436 -3.3085
  698MOL0     H96308   1.426   4.284   1.723  1.7222  0.6116  0.1254
  698MOL0     H96309   1.190   4.404   1.720 -1.7806  0.6871  1.6845
  698MOL0     H96310   0.891   4.635   1.848 -2.7693  0.4727  1.9189
  698MOL0     H96311   0.671   4.728   1.856  0.6071 -1.9425 -2.4076
  698MOL0     H96312   0.505   4.929   1.945  0.0258  1.6004  1.4048
  698MOL0     H96313   0.643   5.032   1.953 -1.8097 -0.0797  2.6621
  698MOL0     H96314   0.529   5.199   1.842  2.2341 -1.2124  0.3161
  698MOL0     H96315   0.442   5.153   1.992 -1.6267 -0.7153 -0.2690
  698MOL0     H96316   0.364   5.085   1.711 -0.9816  0.8622 -1.0435
  698MOL0     H96317   0.319   4.982   1.835  0.7288 -0.3211 -3.9484
  698MOL0     H96318   0.200   5.177   1.959 -2.5629  0.7352  0.2757
  698MOL0     H96319   0.121   5.105   1.815  1.9463 -1.5036 -4.3507
  698MOL0     H96320   0.193   5.507   1.716 -2.8332  0.1104  1.2577
  698MOL0     H96321   0.792   5.061   1.636 -1.1797 -2.2299 -0.4852
  698MOL0     H96322   1.029   5.118   1.614  0.8081  0.6421 -2.0736
  698MOL0     H96323   1.160   5.020   1.698 -0.8261  0.7077  0.1773
  698MOL0     H96324   1.095   4.967   1.549  1.9071 -2.6031  2.1345
  699MOL0     O96325   1.479   6.247   1.089 -0.0229 -0.0249 -0.0401
  699MOL0     C96326   1.586   6.270   1.144  0.4092 -0.8361 -1.2165
  699MOL0     O96327   1.713   6.278   1.080 -0.0925  0.1372 -0.0628
  699MOL0     C96328   1.719   6.284   0.943 -0.6740 -0.5324 -0.0545
  699MOL0     C96329   1.646   6.381   0.872  0.1004 -0.0494  0.9732
  699MOL0     C96330   1.681   6.405   0.735 -0.0864  0.0694  0.0153
  699MOL0     C96331   1.773   6.334   0.659  0.3640  0.4712 -0.0850
  699MOL0     O96332   1.797   6.379   0.531  0.0630 -0.3579  0.3519
  699MOL0     C96333   1.922   6.349   0.471  0.2384  0.7985 -0.1794
  699MOL0     C96334   2.050   6.413   0.540  0.0725 -0.2309  0.6232
  699MOL0     C96335   2.173   6.389   0.446  0.9237  0.1068  0.2703
  699MOL0     C96336   2.312   6.408   0.513  0.6773 -0.0267  0.0261
  699MOL0     C96337   2.425   6.395   0.413  0.8368  0.1369 -0.6187
  699MOL0     C96338   2.560   6.394   0.473 -0.6366  0.0555  0.2047
  699MOL0     C96339   2.676   6.393   0.375  0.5932 -0.3323 -0.3748
  699MOL0     C96340   2.679   6.272   0.285 -0.1291  0.6830  0.1120
  699MOL0     N96341   2.805   6.263   0.213  0.4756 -0.4788 -0.1719
  699MOL0     C96342   2.926   6.199   0.257  0.2466 -0.5698  0.8515
  699MOL0     C96343   3.024   6.282   0.199  0.6905 -0.3410 -0.2745
  699MOL0     C96344   3.163   6.243   0.204 -0.0113  0.0686 -0.3734
  699MOL0     C96345   3.200   6.176   0.067  0.6442  0.5277 -0.4962
  699MOL0     C96346   3.330   6.121   0.063  0.1391  0.1745  0.3038
  699MOL0     C96347   3.403   6.124  -0.070 -0.2478 -1.1757  0.3201
  699MOL0     O96348   3.457   6.255  -0.105  0.0154  0.1106 -0.2141
  699MOL0     C96349   3.544   6.264  -0.207  0.5587 -0.1846  0.3261
  699MOL0     C96350   3.613   6.385  -0.220 -0.0235  0.3166  0.2255
  699MOL0     C96351   3.710   6.410  -0.312 -1.4369 -0.9332  0.5722
  699MOL0     C96352   3.783   6.543  -0.297 -0.2960 -0.1615  0.9405
  699MOL0     C96353   3.748   6.314  -0.412  0.5950 -0.7175  0.2547
  699MOL0     C96354   3.866   6.326  -0.508  0.9356 -0.6439 -0.7170
  699MOL0     O96355   3.903   6.212  -0.571  0.3060 -0.7497  0.4198
  699MOL0     C96356   4.029   6.214  -0.633 -0.5254  0.3934  0.0311
  699MOL0     C96357   4.148   6.258  -0.574  0.3213 -0.4636 -0.8745
  699MOL0     C96358   4.272   6.241  -0.628  0.2384  0.3529  0.1834
  699MOL0     C96359   4.287   6.159  -0.740  0.6532 -0.1894  1.0988
  699MOL0     O96360   4.405   6.136  -0.808 -0.5698 -0.4325 -0.6455
  699MOL0     C96361   4.531   6.177  -0.753  0.3803  0.4078  0.6887
  699MOL0     C96362   4.631   6.120  -0.857 -0.3266 -0.2758  0.5989
  699MOL0     C96363   4.775   6.168  -0.826 -0.0721  0.6393 -0.8020
  699MOL0     C96364   4.870   6.123  -0.936 -0.4381  1.1759  0.0951
  699MOL0     C96365   5.007   6.186  -0.930 -0.2793 -0.3502  0.0744
  699MOL0     C96366   5.077   6.153  -0.795 -1.3698 -0.0367 -0.8238
  699MOL0     C96367   5.230   6.162  -0.805 -0.1576 -0.4946  0.6119
  699MOL0     C96368   5.266   6.307  -0.820 -0.0007 -0.4503  0.2999
  699MOL0    Cl96369   5.442   6.316  -0.793 -0.5366  0.2027  0.1167
  699MOL0     C96370   4.171   6.117  -0.806  0.1855 -0.6667  0.5891
  699MOL0     C96371   4.042   6.147  -0.756  0.0467  0.3728  0.0702
  699MOL0     O96372   3.917   6.436  -0.520 -0.1825 -0.6226 -0.6935
  699MOL0     C96373   3.689   6.183  -0.392  0.1396 -0.8058 -0.6672
  699MOL0     C96374   3.583   6.168  -0.301 -0.0239  0.8484 -0.6796
  699MOL0     N96375   2.970   6.377   0.122  0.0662 -0.3874  0.1096
  699MOL0     N96376   2.841   6.373   0.143 -0.9037 -0.7211  0.1393
  699MOL0     C96377   1.840   6.235   0.731  0.2134  0.1213 -0.7060
  699MOL0     C96378   1.822   6.212   0.869 -0.2810 -0.1437  0.3412
  699MOL0     C96379   1.582   6.297   1.288  0.2601  0.4045  0.1779
  699MOL0     C96380   1.759   6.311   1.403 -0.3328 -0.4389  0.3249
  699MOL0     C96381   1.743   6.363   1.612  0.4742 -0.6876 -0.6133
  699MOL0     C96382   1.552   6.385   1.701 -0.0058  0.4222  0.0933
  699MOL0     O96383   1.534   6.414   1.834  0.1347  0.2299 -0.2737
  699MOL0     C96384   1.646   6.431   1.916  0.3144 -0.6410  0.2616
  699MOL0     C96385   1.646   6.581   1.965  1.0552 -0.3577 -0.4083
  699MOL0     C96386   1.627   6.695   1.861  0.2979 -0.7178  0.1221
  699MOL0     C96387   1.629   6.834   1.926 -0.0822  0.4521 -0.7404
  699MOL0     C96388   1.531   6.932   1.863 -0.2832 -0.3005 -0.1366
  699MOL0     C96389   1.461   7.016   1.813  0.4123  0.0595  0.1857
  699MOL0     C96390   1.374   6.365   1.586  0.0068  0.2827  0.3222
  699MOL0     C96391   1.391   6.319   1.376 -0.3915  0.8594  0.2108
  699MOL0     C96392   1.266   6.329   1.298  0.1934  0.2688  0.1973
  699MOL0     H96393   1.573   6.440   0.925  0.5203  2.3979 -1.0112
  699MOL0     H96394   1.628   6.485   0.686  1.6972  0.7791 -0.8298
  699MOL0     H96395   1.915   6.386   0.368 -0.3272 -1.0837 -0.8674
  699MOL0     H96396   1.931   6.242   0.447 -0.7763  0.3121  1.5071
  699MOL0     H96397   2.036   6.521   0.544  0.6149 -0.1136 -0.1658
  699MOL0     H96398   2.081   6.367   0.634  0.1835  1.4558  1.4386
  699MOL0     H96399   2.165   6.285   0.414 -0.2417  0.0513  0.6955
  699MOL0     H96400   2.175   6.459   0.362  2.4300  2.8123  2.3721
  699MOL0     H96401   2.330   6.505   0.561  4.5453 -0.0416 -1.0695
  699MOL0     H96402   2.327   6.330   0.587  2.0778 -2.8823 -3.0154
  699MOL0     H96403   2.416   6.484   0.351 -3.3634  1.4948  1.5282
  699MOL0     H96404   2.413   6.306   0.351  1.5916  0.3947 -1.1446
  699MOL0     H96405   2.578   6.484   0.532  1.1209  0.4825 -0.9123
  699MOL0     H96406   2.577   6.318   0.550  0.1326  1.1900  1.1968
  699MOL0     H96407   2.767   6.399   0.435  0.2751  0.5995  0.0322
  699MOL0     H96408   2.670   6.487   0.318  2.1764 -0.2826 -0.4989
  699MOL0     H96409   2.680   6.185   0.352 -2.8164  0.6343  0.1794
  699MOL0     H96410   2.587   6.274   0.227  0.2357  1.7147 -0.4528
  699MOL0     H96411   2.945   6.113   0.320  1.5312 -2.8377 -2.3610
  699MOL0     H96412   3.197   6.180   0.286  1.5053  3.0494  1.4582
  699MOL0     H96413   3.219   6.336   0.222  0.7324 -0.7954  2.1937
  699MOL0     H96414   3.127   6.098   0.045  2.5706 -1.6573  0.4269
  699MOL0     H96415   3.191   6.255  -0.008 -3.4664  1.4067  0.6414
  699MOL0     H96416   3.397   6.170   0.134 -1.6910  0.6804  1.7702
  699MOL0     H96417   3.336   6.018   0.100  0.3189  0.9840  2.6774
  699MOL0     H96418   3.489   6.056  -0.065 -0.5484 -1.4709  3.6690
  699MOL0     H96419   3.330   6.094  -0.146  2.4131 -0.0503 -2.9599
  699MOL0     H96420   3.599   6.457  -0.140  1.7170  1.6142 -0.5478
  699MOL0     H96421   3.771   6.597  -0.392 -1.7929 -0.3611  0.9994
  699MOL0     H96422   3.889   6.526  -0.278  0.5951  2.0725 -1.3416
  699MOL0     H96423   3.729   6.607  -0.227 -1.6569 -1.2299  0.9051
  699MOL0     H96424   4.147   6.314  -0.481  1.4809  0.2905 -1.3011
  699MOL0     H96425   4.359   6.277  -0.575 -0.2844 -0.7876  1.9118
  699MOL0     H96426   4.538   6.287  -0.756 -0.3943  0.5260 -4.1092
  699MOL0     H96427   4.540   6.140  -0.650 -2.2925 -1.0464  0.4802
  699MOL0     H96428   4.627   6.011  -0.852  0.6956 -0.6399 -3.2360
  699MOL0     H96429   4.611   6.154  -0.959 -0.1707 -0.3567  0.5408
  699MOL0     H96430   4.797   6.132  -0.725  0.7124 -1.7433 -1.7314
  699MOL0     H96431   4.769   6.277  -0.826  1.2161  0.7233 -1.3449
  699MOL0     H96432   4.831   6.144  -1.036  1.7650  1.8746 -0.6675
  699MOL0     H96433   4.890   6.016  -0.922 -0.5718  0.7427 -2.4374
  699MOL0     H96434   5.075   6.157  -1.012  0.4969  2.5796 -0.4532
  699MOL0     H96435   4.991   6.294  -0.931  1.0664 -0.1257 -1.0535
  699MOL0     H96436   5.066   6.049  -0.764 -0.2859 -0.7076 -2.5393
  699MOL0     H96437   5.029   6.212  -0.717 -3.0750 -0.5483 -1.4246
  699MOL0     H96438   5.265   6.091  -0.881  0.9555 -1.1882  1.7347
  699MOL0     H96439   5.274   6.128  -0.711 -0.9600 -1.8239  0.5324
  699MOL0     H96440   5.224   6.369  -0.740  0.4081 -0.3376  0.4351
  699MOL0     H96441   5.229   6.351  -0.912 -1.7138 -1.3743  0.5199
  699MOL0     H96442   4.182   6.063  -0.900 -1.6879  0.6788 -0.4909
  699MOL0     H96443   3.958   6.113  -0.816  0.6693  1.7767 -1.6489
  699MOL0     H96444   3.725   6.104  -0.457  1.5033 -1.5379  0.8836
  699MOL0     H96445   3.535   6.072  -0.282  1.5772  0.3393  1.2265
  699MOL0     H96446   1.911   6.177   0.672  0.0696  1.0740 -1.8595
  699MOL0     H96447   1.881   6.145   0.930  0.7323  0.7671  0.3851
  699MOL0     H96448   1.851   6.303   1.345 -0.1366  1.8413  0.2217
  699MOL0     H96449   1.832   6.376   1.672 -0.9508  0.5532  1.3346
  699MOL0     H96450   1.634   6.373   2.008  0.5538  2.7829  2.6339
  699MOL0     H96451   1.739   6.412   1.861 -0.3435 -0.5992 -0.9103
  699MOL0     H96452   1.735   6.603   2.024 -0.1649  1.2562  0.9395
  699MOL0     H96453   1.556   6.578   2.027 -1.2000  0.2376 -3.4146
  699MOL0     H96454   1.707   6.689   1.788 -0.9244 -0.0455 -1.3156
  699MOL0     H96455   1.537   6.678   1.801  1.8316 -0.4194 -2.4005
  699MOL0     H96456   1.723   6.886   1.906  1.4461 -0.3384  3.3863
  699MOL0     H96457   1.612   6.836   2.034  0.7920  2.0062 -0.6094
  699MOL0     H96458   1.383   7.077   1.773  0.8596  1.1615  0.9430
  699MOL0     H96459   1.278   6.374   1.636 -0.7187  0.8519 -1.1175
  699MOL0     H96460   1.278   6.386   1.205  0.5723 -0.5571 -0.2776
  699MOL0     H96461   1.233   6.228   1.271 -0.4432  0.4610  0.2292
  699MOL0     H96462   1.193   6.378   1.362  0.3867 -1.1969  1.5998
  700MOL0     O96463   7.295   9.408   6.273 -0.0393  0.1266  0.0958
  700MOL0     C96464   7.263   9.436   6.155  1.0488 -0.1797  0.1577
  700MOL0     O96465   7.139   9.486   6.115 -0.4864 -0.4614 -0.4173
  700MOL0     C96466   7.043   9.481   6.207  0.0234  0.3299  0.4301
  700MOL0     C96467   7.014   9.369   6.285 -0.2324  0.4328 -0.5848
  700MOL0     C96468   6.890   9.355   6.351 -0.3895 -0.7439  0.5961
  700MOL0     C96469   6.800   9.459   6.346 -0.1694 -0.9959 -0.9766
  700MOL0     O96470   6.683   9.462   6.412 -0.1273 -0.0979 -0.2559
  700MOL0     C96471   6.640   9.346   6.490 -0.2504 -0.3906 -0.2169
  700MOL0     C96472   6.513   9.384   6.578  0.2664  1.0350 -0.9630
  700MOL0     C96473   6.470   9.254   6.660  0.1701  0.1967  0.6803
  700MOL0     C96474   6.362   9.294   6.768 -0.8285 -0.3722  0.5421
  700MOL0     C96475   6.326   9.183   6.866 -0.8154 -0.5293 -1.1143
  700MOL0     C96476   6.255   9.238   6.990  0.4787  0.5994 -0.3280
  700MOL0     C96477   6.245   9.134   7.110 -0.0586 -0.3362 -0.4742
  700MOL0     C96478   6.181   9.195   7.235  0.4173 -0.6457  0.8862
  700MOL0     N96479   6.166   9.092   7.340 -0.0752 -0.4576 -0.6558
  700MOL0     C96480   6.273   9.047   7.418  0.5090  0.1200 -0.4531
  700MOL0     C96481   6.216   8.944   7.501  0.5967 -0.1993  0.9026
  700MOL0     C96482   6.300   8.855   7.597  1.0362  0.2596  0.2150
  700MOL0     C96483   6.326   8.920   7.728  0.4010  0.9103 -0.0980
  700MOL0     C96484   6.440   9.029   7.743  0.5219 -0.3692  0.3078
  700MOL0     C96485   6.586   8.989   7.728 -0.7295 -0.3421 -0.1359
  700MOL0     O96486   6.620   8.869   7.796 -0.1656 -0.5873 -0.6110
  700MOL0     C96487   6.632   8.858   7.933 -0.7990 -0.6695 -0.3497
  700MOL0     C96488   6.653   8.969   8.015  0.3155  0.3094 -0.1870
  700MOL0     C96489   6.652   8.956   8.156  1.3155  1.0855 -0.1735
  700MOL0     C96490   6.697   9.077   8.228  0.3881 -0.3120 -0.6746
  700MOL0     C96491   6.618   8.824   8.208  0.0464  0.3165 -0.1797
  700MOL0     C96492   6.585   8.798   8.347  0.4836 -0.5900  0.6585
  700MOL0     O96493   6.549   8.675   8.378  0.4636  0.3651 -0.2550
  700MOL0     C96494   6.532   8.622   8.503  0.5129  0.1726 -0.6892
  700MOL0     C96495   6.564   8.680   8.631 -0.6324  0.3476 -0.1369
  700MOL0     C96496   6.551   8.608   8.751  0.1550  0.2318  0.1090
  700MOL0     C96497   6.495   8.479   8.752 -0.1983 -0.4142 -0.0198
  700MOL0     O96498   6.490   8.401   8.868  0.4038  0.0271 -0.2889
  700MOL0     C96499   6.410   8.282   8.869  0.0966  0.3881 -0.3739
  700MOL0     C96500   6.435   8.207   8.996  0.2289  0.7882  0.5620
  700MOL0     C96501   6.585   8.163   9.017 -0.2546 -0.1804  0.0775
  700MOL0     C96502   6.591   8.072   9.150  0.3130 -0.4970  0.5356
  700MOL0     C96503   6.738   8.029   9.192 -0.0270 -0.3008  0.2705
  700MOL0     C96504   6.819   8.152   9.236  0.0546  0.5414  0.5085
  700MOL0     C96505   6.964   8.092   9.256 -0.0841 -0.4599 -0.1037
  700MOL0     C96506   6.991   8.073   9.405  0.2047 -0.8000 -0.2619
  700MOL0    Cl96507   6.974   8.217   9.495  0.2197 -0.5973 -0.1661
  700MOL0     C96508   6.452   8.426   8.629 -0.3465 -0.3566 -0.3826
  700MOL0     C96509   6.476   8.496   8.507  0.5612  0.1792 -0.2694
  700MOL0     O96510   6.559   8.898   8.420 -0.5552  0.2904  0.0571
  700MOL0     C96511   6.603   8.709   8.124  0.6585 -1.4507  1.0383
  700MOL0     C96512   6.614   8.726   7.979 -0.1234 -0.7811  0.5761
  700MOL0     N96513   6.081   8.932   7.455  0.6259  0.5830  0.1662
  700MOL0     N96514   6.057   9.018   7.364  0.6770  0.5640  0.4354
  700MOL0     C96515   6.835   9.571   6.271  0.7242  0.1917 -0.0034
  700MOL0     C96516   6.954   9.582   6.200  0.3226  0.3505  0.6266
  700MOL0     C96517   7.378   9.427   6.052 -0.2103  0.0526  0.6247
  700MOL0     C96518   7.344   9.468   5.921 -0.3774  0.2731  0.3342
  700MOL0     C96519   7.432   9.447   5.813  0.0482 -0.9929 -0.2571
  700MOL0     C96520   7.557   9.390   5.835  0.0465 -0.7101  0.2576
  700MOL0     O96521   7.642   9.369   5.725  0.2173 -0.1738 -0.5665
  700MOL0     C96522   7.787   9.370   5.735 -0.2110 -0.2106  0.1062
  700MOL0     C96523   7.846   9.232   5.690  0.0034 -0.3430 -0.3317
  700MOL0     C96524   7.994   9.233   5.727 -0.4407  0.3401 -0.3224
  700MOL0     C96525   8.048   9.087   5.702 -0.6835  0.2635 -0.0302
  700MOL0     C96526   8.092   9.052   5.566 -0.3433 -0.1516  1.0723
  700MOL0     C96527   8.124   9.032   5.447  0.2145 -0.0828  0.0909
  700MOL0     C96528   7.598   9.367   5.964  0.7280 -0.0765 -1.0232
  700MOL0     C96529   7.508   9.378   6.075 -0.5253  0.3135  0.3615
  700MOL0     C96530   7.541   9.324   6.209 -0.1488  0.4168 -0.5576
  700MOL0     H96531   7.086   9.288   6.291  0.8443  1.4409  0.8635
  700MOL0     H96532   6.878   9.264   6.409  1.0620 -0.7305  0.9592
  700MOL0     H96533   6.712   9.316   6.567 -1.0259  1.0468  1.1178
  700MOL0     H96534   6.609   9.260   6.430 -1.6703  1.5892 -2.4796
  700MOL0     H96535   6.547   9.458   6.650 -0.1908 -1.4813  2.0521
  700MOL0     H96536   6.421   9.417   6.528 -1.1406  0.0709  0.8448
  700MOL0     H96537   6.416   9.183   6.597  0.1404 -0.2022  1.1478
  700MOL0     H96538   6.554   9.199   6.705  0.4378 -0.8942 -1.0604
  700MOL0     H96539   6.411   9.375   6.823 -2.7212  0.3043  1.3073
  700MOL0     H96540   6.269   9.324   6.718 -0.0788  1.3890  0.1434
  700MOL0     H96541   6.420   9.135   6.895 -0.2139 -0.5842 -2.9696
  700MOL0     H96542   6.268   9.102   6.819 -0.3337 -2.4397  1.3743
  700MOL0     H96543   6.313   9.323   7.024 -0.2417  1.1280 -0.3954
  700MOL0     H96544   6.156   9.265   6.951  1.5716  0.8696 -3.1706
  700MOL0     H96545   6.341   9.109   7.158 -1.0845  1.0149  2.5484
  700MOL0     H96546   6.187   9.047   7.078  0.5523 -0.9196 -0.0526
  700MOL0     H96547   6.219   9.285   7.285  1.5426  1.5360 -3.3783
  700MOL0     H96548   6.088   9.237   7.195 -0.6743 -0.9477  2.9991
  700MOL0     H96549   6.368   9.094   7.439  0.5876 -0.3842  0.3657
  700MOL0     H96550   6.398   8.840   7.551  2.0853  1.4796  1.9227
  700MOL0     H96551   6.249   8.760   7.613 -1.1912  0.9453 -2.0767
  700MOL0     H96552   6.236   8.962   7.773  0.0297 -2.4527  2.7432
  700MOL0     H96553   6.360   8.833   7.786  0.2399  0.9962  0.1273
  700MOL0     H96554   6.411   9.107   7.672 -1.0343 -1.8829 -0.8236
  700MOL0     H96555   6.424   9.079   7.838 -0.7565  2.8789 -1.4708
  700MOL0     H96556   6.611   8.974   7.623  5.0283  2.1911  0.5124
  700MOL0     H96557   6.650   9.072   7.759  0.9989 -1.1803 -1.3457
  700MOL0     H96558   6.667   9.065   7.966  5.1088  1.5979  2.9297
  700MOL0     H96559   6.617   9.129   8.280  2.1158  1.3616  0.4379
  700MOL0     H96560   6.751   9.154   8.172  1.0709  0.0800  0.4992
  700MOL0     H96561   6.762   9.042   8.309 -1.2972  0.3866  1.0519
  700MOL0     H96562   6.574   8.788   8.634  0.3110  0.2671  0.0340
  700MOL0     H96563   6.568   8.668   8.840 -1.0718 -0.7041  1.0157
  700MOL0     H96564   6.302   8.296   8.864  0.0096  0.4364  1.2310
  700MOL0     H96565   6.440   8.216   8.787  1.2184  0.4412 -0.0254
  700MOL0     H96566   6.409   8.272   9.080  0.4400  1.4462  0.1281
  700MOL0     H96567   6.370   8.121   8.986  0.1195  0.9047  0.2436
  700MOL0     H96568   6.642   8.255   9.031 -0.8021  0.4123 -1.3206
  700MOL0     H96569   6.624   8.103   8.934 -1.7857  0.3791 -1.1150
  700MOL0     H96570   6.538   7.979   9.128  0.6458 -0.8229  1.0744
  700MOL0     H96571   6.536   8.121   9.230 -0.4116 -0.4432  0.0061
  700MOL0     H96572   6.733   7.943   9.260 -1.8703 -2.2298 -2.0904
  700MOL0     H96573   6.786   7.999   9.099  3.4127  1.8747  1.1716
  700MOL0     H96574   6.769   8.190   9.326 -0.0969 -2.1317  1.6366
  700MOL0     H96575   6.812   8.234   9.163 -0.7805  0.6343  0.6807
  700MOL0     H96576   7.035   8.161   9.210 -2.3875  0.7274 -2.1414
  700MOL0     H96577   6.979   7.999   9.201 -2.4666 -0.4840 -0.8415
  700MOL0     H96578   7.093   8.038   9.426  0.3605 -0.1985  0.0033
  700MOL0     H96579   6.924   7.993   9.440 -1.2848 -0.8030 -2.8907
  700MOL0     H96580   6.401   8.331   8.623  1.2538 -1.1907 -1.6390
  700MOL0     H96581   6.461   8.451   8.409  4.2799  1.0979 -1.3874
  700MOL0     H96582   6.573   8.611   8.160 -0.3531 -0.7674  2.0963
  700MOL0     H96583   6.578   8.646   7.914 -1.4076 -1.3395  1.9035
  700MOL0     H96584   6.775   9.662   6.269  0.2640 -0.1127 -0.1583
  700MOL0     H96585   6.986   9.665   6.137 -0.6388  0.0947 -0.2419
  700MOL0     H96586   7.240   9.494   5.902 -0.8972 -1.9393 -0.1205
  700MOL0     H96587   7.408   9.458   5.707  2.3457  0.2831 -0.7224
  700MOL0     H96588   7.829   9.458   5.685 -0.1645 -0.2715  0.0394
  700MOL0     H96589   7.817   9.382   5.839  1.8567 -0.3057 -0.4317
  700MOL0     H96590   7.837   9.213   5.583  1.1604 -2.0100 -0.1770
  700MOL0     H96591   7.783   9.157   5.740  1.3441  0.3895  2.6923
  700MOL0     H96592   8.062   9.301   5.675  3.3906 -1.2927  2.1102
  700MOL0     H96593   8.009   9.253   5.833 -0.5866  2.7061 -0.7072
  700MOL0     H96594   7.979   9.012   5.742 -1.9561  1.9852  1.1028
  700MOL0     H96595   8.139   9.072   5.761  1.0352 -1.2933 -2.8622
  700MOL0     H96596   8.168   9.018   5.350 -0.2530  1.2404 -0.3367
  700MOL0     H96597   7.696   9.331   5.994  0.5116 -0.6726 -1.0096
  700MOL0     H96598   7.526   9.405   6.282 -3.4604  2.6712 -3.4180
  700MOL0     H96599   7.476   9.242   6.238 -0.9356  1.1062 -0.3256
  700MOL0     H96600   7.644   9.286   6.204 -0.1594  0.5514 -2.1984
  701MOL0     O96601   3.888   0.130   7.986 -0.0675  0.3395 -0.7568
  701MOL0     C96602   3.977   0.041   7.998  0.3145 -0.1174  1.3539
  701MOL0     O96603   3.992  -0.048   8.097 -0.1567 -0.2549 -0.3868
  701MOL0     C96604   3.931  -0.028   8.218  0.0687 -0.6306 -0.5080
  701MOL0     C96605   3.989   0.040   8.319  0.1986  0.3365 -0.1398
  701MOL0     C96606   3.928   0.074   8.440  0.0751 -0.2701 -0.1037
  701MOL0     C96607   3.784   0.058   8.463 -0.1111  0.1261 -0.3208
  701MOL0     O96608   3.716   0.095   8.575  0.3533 -0.0211 -0.1829
  701MOL0     C96609   3.787   0.133   8.688 -0.0287 -0.1758 -0.1066
  701MOL0     C96610   3.704   0.223   8.781  0.3162  0.3193 -0.4515
  701MOL0     C96611   3.577   0.158   8.838  0.0645  0.4170 -0.4777
  701MOL0     C96612   3.516   0.235   8.961 -0.1781  0.0750 -0.3230
  701MOL0     C96613   3.384   0.180   9.025  0.4043  0.2243 -0.3402
  701MOL0     C96614   3.312   0.269   9.127 -0.0363 -0.8390  0.5786
  701MOL0     C96615   3.276   0.414   9.082  0.1844  0.0996  0.5582
  701MOL0     C96616   3.186   0.479   9.179 -0.2209  0.0314 -0.3320
  701MOL0     N96617   3.179   0.622   9.165  0.6387 -0.1206 -0.3241
  701MOL0     C96618   3.081   0.698   9.097 -0.6331  1.1972  0.9960
  701MOL0     C96619   3.108   0.824   9.126 -0.0875  0.0804 -0.2842
  701MOL0     C96620   3.052   0.954   9.069 -0.4862  1.4836 -0.0496
  701MOL0     C96621   3.093   0.966   8.919 -0.0216  1.6391 -0.1611
  701MOL0     C96622   3.236   1.022   8.900 -0.4620  0.3427  0.2801
  701MOL0     C96623   3.258   1.171   8.923 -0.3938 -0.2866  0.0084
  701MOL0     O96624   3.198   1.252   8.821  0.2753  0.3450  0.4505
  701MOL0     C96625   3.062   1.272   8.824 -0.7244 -0.7096  0.1727
  701MOL0     C96626   2.996   1.281   8.700  0.4657 -0.7951  0.5143
  701MOL0     C96627   2.857   1.305   8.686  0.2543  0.5508  0.1594
  701MOL0     C96628   2.796   1.308   8.549 -0.3846 -0.6207 -0.1338
  701MOL0     C96629   2.782   1.329   8.803  0.8466 -0.5552  1.0520
  701MOL0     C96630   2.641   1.374   8.785 -0.1906  0.3999  0.1092
  701MOL0     O96631   2.586   1.414   8.668 -0.0613  0.3568 -0.6397
  701MOL0     C96632   2.453   1.422   8.654 -0.7739 -0.5151 -0.0990
  701MOL0     C96633   2.401   1.353   8.546 -0.3077  0.4755  0.2488
  701MOL0     C96634   2.265   1.380   8.513 -1.0876  0.5986  0.6845
  701MOL0     C96635   2.192   1.471   8.587  0.9172  0.6971 -0.3300
  701MOL0     O96636   2.067   1.490   8.538  0.0373  0.7339 -0.4530
  701MOL0     C96637   1.958   1.518   8.623  0.0750 -1.0216 -0.1665
  701MOL0     C96638   1.830   1.547   8.547 -1.1617 -0.1921 -0.3247
  701MOL0     C96639   1.765   1.415   8.502  0.6906  0.0565 -0.1598
  701MOL0     C96640   1.822   1.367   8.367  0.9620  0.8107  0.2745
  701MOL0     C96641   1.770   1.227   8.322  0.7863  0.0076  0.2465
  701MOL0     C96642   1.691   1.238   8.194 -0.7733  0.0611 -0.2567
  701MOL0     C96643   1.770   1.292   8.074 -0.4185 -0.1551 -0.7928
  701MOL0     C96644   1.867   1.189   8.022  0.1793 -0.2342 -0.2477
  701MOL0    Cl96645   1.948   1.228   7.868  0.3858 -0.2279  0.0206
  701MOL0     C96646   2.247   1.539   8.695  0.2082  0.1635  1.0344
  701MOL0     C96647   2.371   1.510   8.734 -0.2765  0.3631 -0.5595
  701MOL0     O96648   2.572   1.353   8.884 -0.2827 -0.7490  0.2131
  701MOL0     C96649   2.851   1.333   8.925  0.6759 -0.4976  0.1257
  701MOL0     C96650   2.984   1.303   8.934  0.3649  0.3012 -0.3878
  701MOL0     N96651   3.210   0.827   9.214  0.5429  0.2358 -0.4498
  701MOL0     N96652   3.258   0.705   9.230 -0.1581  1.0993 -0.0805
  701MOL0     C96653   3.725  -0.007   8.353 -0.5494 -0.5047 -0.4068
  701MOL0     C96654   3.794  -0.052   8.246 -0.0066  0.6689  0.0783
  701MOL0     C96655   4.092   0.049   7.910  0.4878  0.2731 -0.1095
  701MOL0     C96656   4.206  -0.024   7.947 -0.0352  0.1807 -0.3935
  701MOL0     C96657   4.319  -0.033   7.870  0.2642  0.3814  0.4477
  701MOL0     C96658   4.323   0.024   7.740  0.0954 -0.8904  0.8024
  701MOL0     O96659   4.428   0.007   7.650  0.3429  0.3383 -0.4268
  701MOL0     C96660   4.510  -0.108   7.674 -0.4351  0.1444  0.5119
  701MOL0     C96661   4.566  -0.136   7.532  0.7345  0.5977 -0.0290
  701MOL0     C96662   4.609  -0.287   7.499 -0.1378 -0.3069 -0.1902
  701MOL0     C96663   4.703  -0.302   7.378  0.8695  0.1618 -0.2908
  701MOL0     C96664   4.752  -0.434   7.366 -0.5281  0.3512  0.0172
  701MOL0     C96665   4.793  -0.548   7.354 -0.3101 -0.3835 -1.2040
  701MOL0     C96666   4.209   0.097   7.694 -0.7261  0.2214  0.2566
  701MOL0     C96667   4.100   0.114   7.783 -0.1221 -0.7978 -0.0210
  701MOL0     C96668   3.989   0.208   7.741  0.6641 -0.3339  0.1294
  701MOL0     H96669   4.095   0.065   8.320 -0.2705  2.6182  1.4765
  701MOL0     H96670   3.996   0.128   8.506  1.4502  0.2057 -1.8261
  701MOL0     H96671   3.874   0.193   8.657  1.9878 -2.4169  0.9045
  701MOL0     H96672   3.825   0.046   8.742  0.1834  0.4684  0.8087
  701MOL0     H96673   3.765   0.255   8.866  0.3696  2.4635 -1.2518
  701MOL0     H96674   3.677   0.315   8.728  1.2615  0.4787 -0.6652
  701MOL0     H96675   3.498   0.165   8.762 -0.7580 -1.3165  0.1611
  701MOL0     H96676   3.600   0.053   8.859 -1.0818  0.1040 -0.7020
  701MOL0     H96677   3.594   0.238   9.037  1.3117 -0.6699 -1.7367
  701MOL0     H96678   3.495   0.338   8.931 -2.2804  0.2884  1.6133
  701MOL0     H96679   3.415   0.091   9.080  0.3486 -0.5108 -1.4582
  701MOL0     H96680   3.321   0.153   8.939  1.0905 -2.0225 -0.1990
  701MOL0     H96681   3.215   0.222   9.147 -0.8042 -0.4428 -1.8273
  701MOL0     H96682   3.383   0.282   9.209 -1.4366 -1.5203  1.9523
  701MOL0     H96683   3.220   0.409   8.988  1.0751  1.1302 -0.0538
  701MOL0     H96684   3.365   0.478   9.070 -1.1190  1.8463 -0.1887
  701MOL0     H96685   3.090   0.428   9.167 -0.2925  0.2052 -0.4935
  701MOL0     H96686   3.203   0.456   9.285  0.4702 -2.3704 -0.9002
  701MOL0     H96687   2.993   0.659   9.046 -1.8576  1.2599  2.9581
  701MOL0     H96688   3.085   1.041   9.126  2.4825  0.1566  0.4715
  701MOL0     H96689   2.945   0.935   9.057 -0.5539  2.4801 -1.2017
  701MOL0     H96690   3.082   0.866   8.876  3.5420  0.4184  1.3774
  701MOL0     H96691   3.026   1.022   8.853  0.1594 -1.5139 -3.3228
  701MOL0     H96692   3.301   0.969   8.971 -0.6583  0.6870  0.7123
  701MOL0     H96693   3.280   0.996   8.803 -0.3421 -2.7367  1.0411
  701MOL0     H96694   3.231   1.201   9.024 -0.2567  1.6107 -0.4793
  701MOL0     H96695   3.366   1.183   8.909 -0.7208 -0.3314 -3.4814
  701MOL0     H96696   3.051   1.274   8.606 -0.8572 -3.0729 -0.1558
  701MOL0     H96697   2.708   1.243   8.547  0.7141 -2.2226  0.9042
  701MOL0     H96698   2.853   1.260   8.469  0.5472 -1.1890  0.8524
  701MOL0     H96699   2.772   1.412   8.525  0.7452 -0.1786  0.5719
  701MOL0     H96700   2.461   1.287   8.485 -3.6915 -0.1884 -2.7587
  701MOL0     H96701   2.215   1.348   8.422  0.1821  2.7410 -0.8883
  701MOL0     H96702   1.945   1.438   8.697 -0.0235  0.3839  1.4108
  701MOL0     H96703   1.990   1.603   8.683  0.7897 -1.8246  0.6311
  701MOL0     H96704   1.765   1.598   8.618  0.2777  0.8501  0.2969
  701MOL0     H96705   1.846   1.618   8.466 -0.3487 -1.2304 -1.1150
  701MOL0     H96706   1.656   1.423   8.498  0.5774 -1.2136 -0.0384
  701MOL0     H96707   1.791   1.341   8.579 -4.9881  0.5042  2.7090
  701MOL0     H96708   1.931   1.362   8.365  0.9079 -1.9877 -0.3636
  701MOL0     H96709   1.782   1.444   8.301  1.5781  0.6992 -0.2358
  701MOL0     H96710   1.859   1.165   8.315  1.4394  1.0425 -0.9409
  701MOL0     H96711   1.707   1.183   8.400  0.9440  0.9813  0.9305
  701MOL0     H96712   1.611   1.304   8.228  1.1796  1.6365  1.6031
  701MOL0     H96713   1.647   1.143   8.164 -0.1305 -1.8446  3.9926
  701MOL0     H96714   1.820   1.381   8.112 -0.6254 -0.6287  0.6297
  701MOL0     H96715   1.699   1.335   8.003 -2.7487  0.7947  1.9520
  701MOL0     H96716   1.825   1.089   8.014  0.0352 -0.1964  0.0309
  701MOL0     H96717   1.958   1.193   8.084  1.9969  1.3861 -2.8038
  701MOL0     H96718   2.197   1.624   8.740  1.8477  0.5626  2.1844
  701MOL0     H96719   2.424   1.562   8.813 -0.2213 -1.1216  0.4080
  701MOL0     H96720   2.796   1.389   8.999 -3.0263 -0.1850 -2.6038
  701MOL0     H96721   3.025   1.305   9.034  1.2491  0.0811 -0.7278
  701MOL0     H96722   3.616  -0.004   8.352 -0.7501 -1.1082  3.2715
  701MOL0     H96723   3.735  -0.106   8.172 -0.7705 -0.7254  1.6335
  701MOL0     H96724   4.210  -0.082   8.038  2.0108 -0.7539 -1.0154
  701MOL0     H96725   4.410  -0.079   7.908  1.6637 -0.1660 -3.1931
  701MOL0     H96726   4.585  -0.092   7.751 -1.1024  2.8723  0.7123
  701MOL0     H96727   4.465  -0.200   7.711 -0.9833  1.5760  3.6889
  701MOL0     H96728   4.647  -0.064   7.520  1.4077 -0.5939 -4.1432
  701MOL0     H96729   4.481  -0.111   7.467 -0.1205 -1.4975  0.2042
  701MOL0     H96730   4.661  -0.316   7.591  0.1345  1.9674  0.4492
  701MOL0     H96731   4.522  -0.353   7.496  1.5958 -3.0344  2.6218
  701MOL0     H96732   4.786  -0.231   7.374  1.1701  0.0255  2.0944
  701MOL0     H96733   4.652  -0.291   7.282  1.7799 -0.9650 -0.9151
  701MOL0     H96734   4.824  -0.650   7.355 -1.4400 -1.0447  5.1537
  701MOL0     H96735   4.217   0.143   7.596  3.0322 -1.2707 -0.3238
  701MOL0     H96736   3.997   0.279   7.824  3.1461  0.1903 -0.4626
  701MOL0     H96737   4.023   0.254   7.648  0.3509  1.3617  0.8259
  701MOL0     H96738   3.899   0.146   7.739  2.8952 -3.9245  1.0231
  702MOL0     O96739   3.238   8.674   8.872 -0.1619  0.4298  0.9657
  702MOL0     C96740   3.201   8.627   8.978 -0.4829  0.5450  0.5399
  702MOL0     O96741   3.235   8.502   9.026  0.1271  0.1162  0.4149
  702MOL0     C96742   3.315   8.426   8.946  0.4055 -0.3129  0.4511
  702MOL0     C96743   3.257   8.344   8.855 -0.7807 -0.0056  0.9177
  702MOL0     C96744   3.342   8.260   8.774  0.2548  0.1331 -0.2443
  702MOL0     C96745   3.481   8.259   8.783 -0.2885  0.3221 -1.0053
  702MOL0     O96746   3.547   8.164   8.717 -0.6965 -0.5263 -0.1167
  702MOL0     C96747   3.682   8.186   8.678  0.3208  1.0743  0.4650
  702MOL0     C96748   3.736   8.074   8.591 -0.3725 -0.9713  0.5401
  702MOL0     C96749   3.640   8.052   8.473 -0.0643  0.0580  0.0630
  702MOL0     C96750   3.663   7.914   8.402  0.6277 -0.2206  0.1281
  702MOL0     C96751   3.577   7.912   8.276  0.0128 -0.2443  0.7368
  702MOL0     C96752   3.593   7.770   8.210  0.7986  0.2525 -0.3362
  702MOL0     C96753   3.581   7.767   8.058 -0.8186 -0.4074 -0.2269
  702MOL0     C96754   3.607   7.623   8.000  0.0015  0.3875  0.0396
  702MOL0     N96755   3.592   7.636   7.852  0.0360 -0.2280  0.2393
  702MOL0     C96756   3.526   7.547   7.769 -0.5622 -0.4046  0.5913
  702MOL0     C96757   3.547   7.594   7.641  0.1909  0.1530 -0.7505
  702MOL0     C96758   3.501   7.548   7.510 -1.0510 -0.3216  0.2820
  702MOL0     C96759   3.602   7.471   7.428 -0.4203 -0.2101  0.3647
  702MOL0     C96760   3.543   7.425   7.293 -0.7663  0.1784 -0.0410
  702MOL0     C96761   3.647   7.345   7.208  0.5618 -0.1449  0.5285
  702MOL0     O96762   3.693   7.223   7.267 -0.7026  0.2708  0.5846
  702MOL0     C96763   3.807   7.173   7.199 -0.8695  0.7001 -0.1824
  702MOL0     C96764   3.909   7.140   7.289  1.7602  0.9581  0.0276
  702MOL0     C96765   4.037   7.098   7.256 -0.1960  0.6982  0.2955
  702MOL0     C96766   4.138   7.069   7.367 -0.4884 -0.5620 -0.3173
  702MOL0     C96767   4.065   7.084   7.112  0.5115  0.3027 -0.0646
  702MOL0     C96768   4.193   7.036   7.062 -0.7847  0.5472  0.4743
  702MOL0     O96769   4.183   7.019   6.922 -0.5897  0.4972 -0.1396
  702MOL0     C96770   4.299   6.971   6.855  0.0911  0.5311 -0.1790
  702MOL0     C96771   4.428   7.027   6.869  0.7289 -0.3765 -0.5327
  702MOL0     C96772   4.537   6.983   6.798  0.3198  0.3616 -0.2153
  702MOL0     C96773   4.523   6.880   6.703  0.9870 -0.0538  0.1386
  702MOL0     O96774   4.629   6.851   6.624  0.5796  0.8312  0.3789
  702MOL0     C96775   4.628   6.729   6.549  0.2379 -0.7767 -0.2538
  702MOL0     C96776   4.762   6.687   6.498  0.7730 -0.3417 -0.1088
  702MOL0     C96777   4.823   6.781   6.388 -0.9597 -0.2388 -0.4553
  702MOL0     C96778   4.971   6.746   6.355  0.3662  0.6500 -0.6309
  702MOL0     C96779   5.030   6.840   6.256 -0.2434  0.5494 -0.8624
  702MOL0     C96780   5.062   6.977   6.309 -0.2761 -0.7919  0.6265
  702MOL0     C96781   5.122   7.070   6.190 -0.8052  1.0075 -0.5002
  702MOL0     C96782   5.116   7.219   6.227  0.6193  0.6239 -0.0384
  702MOL0    Cl96783   5.229   7.306   6.117  0.1760 -0.2841  0.4642
  702MOL0     C96784   4.395   6.811   6.700  0.0094 -0.5809  0.4050
  702MOL0     C96785   4.286   6.859   6.772 -0.8214  0.1042  1.0494
  702MOL0     O96786   4.295   7.021   7.133  0.3087 -0.0464 -0.5453
  702MOL0     C96787   3.960   7.122   7.020  0.7394  0.9276 -0.3229
  702MOL0     C96788   3.837   7.172   7.067  0.4992 -0.7079 -1.2643
  702MOL0     N96789   3.622   7.708   7.653  0.6580 -0.3693  0.4356
  702MOL0     N96790   3.647   7.735   7.774  0.1851  0.0314 -0.0520
  702MOL0     C96791   3.548   8.349   8.871 -0.1962 -0.2343 -0.0322
  702MOL0     C96792   3.458   8.426   8.948  0.0877 -0.7394 -0.0996
  702MOL0     C96793   3.100   8.707   9.050  0.1069  0.3956 -0.1987
  702MOL0     C96794   3.021   8.641   9.137  0.7291  0.1092 -0.2326
  702MOL0     C96795   2.944   8.708   9.230 -0.0269 -0.3264  0.0830
  702MOL0     C96796   2.948   8.848   9.243 -0.5240  0.5281 -0.1123
  702MOL0     O96797   2.860   8.902   9.328 -0.7860 -0.3996 -0.3691
  702MOL0     C96798   2.870   9.046   9.348 -0.9427 -0.4476  0.2899
  702MOL0     C96799   2.993   9.106   9.417  0.0356  0.1965  1.0412
  702MOL0     C96800   3.014   9.095   9.562  1.6258  0.3513  0.0754
  702MOL0     C96801   3.158   9.074   9.610  0.2816  0.0951 -0.5454
  702MOL0     C96802   3.245   9.190   9.591  0.2184 -0.0167  0.7764
  702MOL0     C96803   3.323   9.278   9.589 -0.8965 -0.7921 -0.1045
  702MOL0     C96804   3.033   8.913   9.157 -0.1341  0.2413  0.4682
  702MOL0     C96805   3.112   8.841   9.071 -0.3013 -0.3363  0.5797
  702MOL0     C96806   3.205   8.933   8.988  0.5697 -0.0132 -0.2871
  702MOL0     H96807   3.152   8.347   8.826 -0.5847 -1.1880 -0.0201
  702MOL0     H96808   3.293   8.199   8.699 -2.2763  1.0969  0.4910
  702MOL0     H96809   3.748   8.203   8.764 -2.1562  1.5553  2.3664
  702MOL0     H96810   3.689   8.273   8.613 -1.8961 -0.1282 -1.5572
  702MOL0     H96811   3.834   8.095   8.548 -1.3303 -0.3287 -1.5029
  702MOL0     H96812   3.744   7.992   8.663  2.4203  0.6288  2.2134
  702MOL0     H96813   3.535   8.061   8.503  0.5113  1.7919  1.6789
  702MOL0     H96814   3.659   8.134   8.404  1.5044 -0.5006 -0.2063
  702MOL0     H96815   3.767   7.905   8.368  0.6017  0.1930 -0.0622
  702MOL0     H96816   3.638   7.837   8.475  0.0095  0.7552  0.9723
  702MOL0     H96817   3.617   7.990   8.210 -0.3527  0.3709  1.2260
  702MOL0     H96818   3.472   7.938   8.296 -0.3357 -1.0433 -0.0265
  702MOL0     H96819   3.691   7.732   8.239  0.1001 -0.6519  0.9570
  702MOL0     H96820   3.513   7.699   8.234  0.9165  0.1890 -0.1358
  702MOL0     H96821   3.662   7.829   8.017 -0.7295 -0.2060  0.2502
  702MOL0     H96822   3.484   7.806   8.024 -1.0437 -1.6178 -1.0399
  702MOL0     H96823   3.708   7.587   8.024 -1.4651 -2.5255  2.6440
  702MOL0     H96824   3.534   7.549   8.034  0.1348 -0.9883 -2.4702
  702MOL0     H96825   3.462   7.462   7.787 -0.1689 -1.3479 -1.9848
  702MOL0     H96826   3.467   7.630   7.445  0.3347 -0.1454 -0.2589
  702MOL0     H96827   3.424   7.473   7.531  2.1401 -3.3518  2.4548
  702MOL0     H96828   3.686   7.539   7.414 -2.5479  2.1725 -1.6385
  702MOL0     H96829   3.648   7.386   7.479  0.9892 -0.6775 -1.5749
  702MOL0     H96830   3.455   7.362   7.313  0.3104 -0.5665  2.8230
  702MOL0     H96831   3.514   7.519   7.245  4.9005  2.5527  0.4415
  702MOL0     H96832   3.592   7.317   7.118 -0.0265 -1.6311  1.3094
  702MOL0     H96833   3.736   7.406   7.192  0.0875  0.3000 -0.5222
  702MOL0     H96834   3.874   7.137   7.392 -0.8060  0.4524 -0.7890
  702MOL0     H96835   4.218   7.142   7.374 -1.4569  0.5052 -0.1036
  702MOL0     H96836   4.186   6.971   7.361 -0.4047 -0.4673 -1.3675
  702MOL0     H96837   4.087   7.067   7.464  0.3102  0.6048  0.1395
  702MOL0     H96838   4.449   7.115   6.928  0.9926 -0.0678 -1.0714
  702MOL0     H96839   4.637   7.020   6.821  0.4176 -0.8750  1.5568
  702MOL0     H96840   4.591   6.647   6.611 -2.0882  0.8476  0.6744
  702MOL0     H96841   4.565   6.741   6.460 -1.8179  2.1561  1.4194
  702MOL0     H96842   4.825   6.658   6.583  0.1462 -2.6162 -0.3560
  702MOL0     H96843   4.748   6.592   6.447  0.0118 -0.8794  1.0823
  702MOL0     H96844   4.816   6.881   6.431  1.5702  0.4401 -1.4314
  702MOL0     H96845   4.764   6.771   6.297  1.4033 -1.4430 -1.9730
  702MOL0     H96846   4.979   6.642   6.320  1.0674 -0.1298  1.6616
  702MOL0     H96847   5.025   6.738   6.450  0.9279  0.5381 -0.9500
  702MOL0     H96848   5.129   6.801   6.230 -0.5769 -0.4481 -0.6720
  702MOL0     H96849   4.972   6.824   6.165  0.3831 -1.4533 -0.9698
  702MOL0     H96850   5.111   6.981   6.407 -0.0378  0.4031  0.4806
  702MOL0     H96851   4.967   7.025   6.334  0.6803  1.1230  0.8662
  702MOL0     H96852   5.072   7.039   6.097 -2.0775  3.0837 -0.5550
  702MOL0     H96853   5.229   7.046   6.180 -1.2262 -1.0529 -0.4581
  702MOL0     H96854   5.149   7.240   6.329 -0.9810  3.3411  0.0026
  702MOL0     H96855   5.013   7.251   6.207 -1.0093 -3.4560  0.7916
  702MOL0     H96856   4.381   6.732   6.626  1.3615 -0.3800 -0.0849
  702MOL0     H96857   4.191   6.810   6.751 -0.6697  0.6580 -1.1694
  702MOL0     H96858   3.975   7.126   6.913  1.6018  1.1272 -0.1966
  702MOL0     H96859   3.768   7.189   6.985 -1.4346 -2.6322 -0.1214
  702MOL0     H96860   3.656   8.355   8.878 -0.3300  1.3510  1.7155
  702MOL0     H96861   3.496   8.490   9.027  1.2941 -0.7410 -0.6572
  702MOL0     H96862   3.023   8.533   9.137 -0.0882  0.0720 -1.4595
  702MOL0     H96863   2.871   8.670   9.301 -0.2858  3.3579  2.0417
  702MOL0     H96864   2.859   9.094   9.251 -0.0725 -0.1665  0.3153
  702MOL0     H96865   2.789   9.085   9.411 -0.5890  0.0160  0.4646
  702MOL0     H96866   2.991   9.212   9.392 -2.2690 -0.1603 -0.6411
  702MOL0     H96867   3.074   9.061   9.358 -0.9321  1.5546 -1.4153
  702MOL0     H96868   2.975   9.184   9.612  0.2007 -0.3975  0.3641
  702MOL0     H96869   2.951   9.019   9.609 -0.3490  2.4636  1.0080
  702MOL0     H96870   3.196   8.978   9.576 -0.6669 -0.9662  1.2123
  702MOL0     H96871   3.145   9.063   9.718 -0.7236  2.7263 -0.3078
  702MOL0     H96872   3.389   9.361   9.579 -3.6295  1.5369 -0.1301
  702MOL0     H96873   3.032   9.020   9.171 -0.9567  0.4512 -0.9549
  702MOL0     H96874   3.199   9.036   9.024  1.0551  0.7385 -2.2414
  702MOL0     H96875   3.305   8.891   8.995  0.5251  0.0607  1.2207
  702MOL0     H96876   3.183   8.938   8.881  0.7505 -1.7254 -0.4317
  703MOL0     O96877   7.562   4.890   3.912 -0.5050 -0.0563  0.6324
  703MOL0     C96878   7.557   4.872   3.791  0.5020  0.4432 -0.5531
  703MOL0     O96879   7.664   4.850   3.708  0.6857 -0.3891  0.2492
  703MOL0     C96880   7.781   4.800   3.747  0.4640 -0.0062  0.2137
  703MOL0     C96881   7.890   4.813   3.664  0.0778  0.6148  0.4878
  703MOL0     C96882   8.013   4.751   3.700  0.5942 -0.9790 -0.5952
  703MOL0     C96883   8.035   4.700   3.833 -0.3647 -0.4419  0.8432
  703MOL0     O96884   8.162   4.646   3.855 -0.0998 -0.0003  0.8327
  703MOL0     C96885   8.211   4.653   3.987  0.1337 -0.0770 -0.2869
  703MOL0     C96886   8.356   4.686   3.982 -0.5315  0.7061 -0.6399
  703MOL0     C96887   8.398   4.829   3.917 -0.9549  0.0779 -0.2504
  703MOL0     C96888   8.532   4.822   3.858 -0.2835 -0.0511 -0.1135
  703MOL0     C96889   8.580   4.969   3.822 -0.1775 -0.6352  0.1665
  703MOL0     C96890   8.618   5.048   3.945 -0.3646  0.2629  0.7449
  703MOL0     C96891   8.695   5.179   3.925 -0.1565 -0.0799  0.4659
  703MOL0     C96892   8.713   5.264   4.058  0.0323  0.6959 -0.9410
  703MOL0     N96893   8.766   5.176   4.161  1.8072 -0.1149 -0.3081
  703MOL0     C96894   8.886   5.116   4.157 -0.6361  0.7271  0.2701
  703MOL0     C96895   8.906   5.072   4.285  0.2477  0.0491  0.4568
  703MOL0     C96896   9.021   4.994   4.332 -0.1019 -0.0324 -0.9816
  703MOL0     C96897   9.009   4.845   4.284 -0.7195 -0.7321  0.0176
  703MOL0     C96898   9.092   4.747   4.368 -0.5774 -0.2690 -0.2594
  703MOL0     C96899   9.244   4.774   4.365 -0.1236  0.0169 -0.6319
  703MOL0     O96900   9.291   4.755   4.231 -0.3978  1.0288  0.4655
  703MOL0     C96901   9.422   4.721   4.204  0.2885 -0.6355 -0.1230
  703MOL0     C96902   9.522   4.715   4.290 -0.4335 -0.6475 -0.2705
  703MOL0     C96903   9.653   4.679   4.258 -0.1112  0.1911  0.2954
  703MOL0     C96904   9.745   4.673   4.379  0.6303  0.3077 -0.2792
  703MOL0     C96905   9.688   4.654   4.118  0.7587  0.3899  0.0834
  703MOL0     C96906   9.820   4.611   4.063 -1.1075 -0.5607 -0.0726
  703MOL0     O96907   9.900   4.565   4.164 -0.3416  0.3523  0.7040
  703MOL0     C96908  10.039   4.543   4.150  0.8449 -0.0570 -0.3091
  703MOL0     C96909  10.106   4.456   4.234 -0.2758 -0.3252 -0.7297
  703MOL0     C96910  10.244   4.456   4.248 -0.1903  0.5933 -0.1124
  703MOL0     C96911  10.319   4.550   4.176 -0.5209 -0.6610 -0.0242
  703MOL0     O96912  10.455   4.546   4.196  0.2683  0.8580  0.7165
  703MOL0     C96913  10.543   4.655   4.173  0.4146  0.4756 -0.6715
  703MOL0     C96914  10.683   4.603   4.161  0.3177 -0.3040 -0.6577
  703MOL0     C96915  10.794   4.706   4.182  0.7114  0.8377 -0.0124
  703MOL0     C96916  10.941   4.660   4.172 -0.4687  0.1342 -0.1801
  703MOL0     C96917  11.037   4.769   4.222  0.1440 -0.0300 -0.1318
  703MOL0     C96918  11.170   4.753   4.144  0.0950 -0.1553  0.1224
  703MOL0     C96919  11.251   4.623   4.164 -0.4231 -0.5677 -0.0515
  703MOL0     C96920  11.291   4.561   4.030  0.7169 -0.6132 -0.8587
  703MOL0    Cl96921  11.439   4.453   4.049  0.1102  0.1614  0.0004
  703MOL0     C96922  10.259   4.634   4.087 -0.0564  0.7872  0.8867
  703MOL0     C96923  10.115   4.629   4.066 -0.5218  0.0837 -0.6315
  703MOL0     O96924   9.851   4.628   3.949 -0.2678 -0.4061  0.0489
  703MOL0     C96925   9.582   4.661   4.028  0.5549 -0.3482  0.9276
  703MOL0     C96926   9.449   4.690   4.071 -0.4954 -0.7696  0.7684
  703MOL0     N96927   8.792   5.086   4.357  0.0256 -0.3052  0.3217
  703MOL0     N96928   8.706   5.146   4.276  0.1018 -0.2316 -0.6573
  703MOL0     C96929   7.917   4.676   3.904 -0.1242  0.1937 -0.5247
  703MOL0     C96930   7.790   4.720   3.858 -0.0188 -0.4096  0.0630
  703MOL0     C96931   7.423   4.893   3.726 -0.5736  0.3094  0.6105
  703MOL0     C96932   7.309   4.859   3.806 -0.1210  0.2079  0.2563
  703MOL0     C96933   7.180   4.904   3.768 -0.5722  0.2056  0.1357
  703MOL0     C96934   7.170   4.960   3.640  0.7513  0.0807 -0.3798
  703MOL0     O96935   7.044   5.000   3.594  0.1460  0.5242  0.4021
  703MOL0     C96936   6.948   5.053   3.687  0.6107  0.4619 -0.0534
  703MOL0     C96937   6.816   5.085   3.620  0.3767 -0.3047 -0.2239
  703MOL0     C96938   6.756   4.971   3.529 -0.8378 -0.1364  0.5902
  703MOL0     C96939   6.612   4.992   3.469  0.1426  0.1023 -0.6957
  703MOL0     C96940   6.573   4.878   3.378  0.1917 -0.1699 -0.2480
  703MOL0     C96941   6.536   4.783   3.311 -0.7166  0.5043  0.1182
  703MOL0     C96942   7.282   4.977   3.558  0.4451 -0.1308 -0.7947
  703MOL0     C96943   7.404   4.956   3.600 -0.7915 -0.0107  0.2076
  703MOL0     C96944   7.513   5.000   3.512 -0.3811 -0.8861  0.0748
  703MOL0     H96945   7.867   4.868   3.573  0.8513 -1.0936 -0.8034
  703MOL0     H96946   8.093   4.755   3.627  0.5449  2.4991 -0.6093
  703MOL0     H96947   8.200   4.551   4.026  0.0606  0.1312  0.2459
  703MOL0     H96948   8.159   4.728   4.047  1.4063 -0.8651  1.8970
  703MOL0     H96949   8.380   4.683   4.089  1.4098  2.3875 -0.9649
  703MOL0     H96950   8.408   4.607   3.928  0.1629 -1.6335  3.0503
  703MOL0     H96951   8.322   4.863   3.846 -1.8843  1.1926  1.2068
  703MOL0     H96952   8.400   4.896   4.004 -1.7682 -1.4788  1.0401
  703MOL0     H96953   8.608   4.777   3.922  2.5634  2.6203 -1.3062
  703MOL0     H96954   8.525   4.768   3.763  0.3383  1.2520 -0.9405
  703MOL0     H96955   8.506   5.032   3.771 -0.0479 -1.8945 -1.6575
  703MOL0     H96956   8.670   4.968   3.760  1.4258  2.1870  2.1904
  703MOL0     H96957   8.535   5.075   4.010 -0.5136  0.0224  0.6585
  703MOL0     H96958   8.680   4.981   4.006  2.0460  0.4452 -1.3234
  703MOL0     H96959   8.630   5.238   3.860  3.4583  0.1314 -3.3976
  703MOL0     H96960   8.784   5.163   3.863  0.6764  3.8434  0.3917
  703MOL0     H96961   8.781   5.349   4.043 -0.8178  1.6307  0.2118
  703MOL0     H96962   8.618   5.309   4.090  0.7056  0.3723  1.7302
  703MOL0     H96963   8.961   5.115   4.080 -0.4321 -1.9825  0.3799
  703MOL0     H96964   9.021   4.989   4.442  0.6558  1.4809 -0.8893
  703MOL0     H96965   9.117   5.038   4.304  0.7031 -1.1505 -0.0884
  703MOL0     H96966   8.905   4.816   4.304 -1.1135 -0.3265 -1.3608
  703MOL0     H96967   9.026   4.841   4.176 -1.6419  2.2000 -0.3071
  703MOL0     H96968   9.052   4.733   4.469  2.3550  1.0031  1.1915
  703MOL0     H96969   9.085   4.660   4.302  0.5913  2.3753 -4.3030
  703MOL0     H96970   9.264   4.876   4.396 -3.7819  0.9929 -0.9730
  703MOL0     H96971   9.285   4.705   4.440  2.7792  0.9070 -1.2994
  703MOL0     H96972   9.497   4.740   4.393 -1.1147  5.0013 -1.4721
  703MOL0     H96973   9.846   4.700   4.347 -0.1872  1.0211 -2.4158
  703MOL0     H96974   9.746   4.568   4.412 -0.6227  0.4856  0.3903
  703MOL0     H96975   9.712   4.744   4.455  1.1493  2.2929 -1.8405
  703MOL0     H96976  10.044   4.387   4.290  1.9268 -2.0607 -0.2664
  703MOL0     H96977  10.293   4.377   4.304  0.5237  0.1020 -1.3843
  703MOL0     H96978  10.523   4.723   4.089 -2.6465 -2.4983 -2.5709
  703MOL0     H96979  10.529   4.717   4.262  1.1796  1.5876 -1.2985
  703MOL0     H96980  10.698   4.524   4.236 -1.6921  0.4546  0.6416
  703MOL0     H96981  10.700   4.565   4.060  0.9132 -0.1930 -0.6083
  703MOL0     H96982  10.772   4.766   4.271 -0.5018  3.0010 -1.6653
  703MOL0     H96983  10.778   4.784   4.107 -1.9869  0.8806  0.5122
  703MOL0     H96984  10.951   4.614   4.074 -1.8822 -2.6689  0.8788
  703MOL0     H96985  10.965   4.570   4.230  0.7299  0.4452 -0.1675
  703MOL0     H96986  10.997   4.867   4.195  1.0091 -0.1125 -1.8592
  703MOL0     H96987  11.044   4.767   4.332 -4.9790 -0.0074  0.4507
  703MOL0     H96988  11.231   4.840   4.171  1.0245  0.2575 -2.9313
  703MOL0     H96989  11.148   4.761   4.037  1.8310  1.0029 -0.1947
  703MOL0     H96990  11.201   4.548   4.226  2.6331 -0.5986  2.6628
  703MOL0     H96991  11.335   4.655   4.228 -0.8488  2.1621 -0.7260
  703MOL0     H96992  11.314   4.646   3.965  0.9144  0.4677  0.5505
  703MOL0     H96993  11.201   4.514   3.992 -1.7519 -0.5961  4.0864
  703MOL0     H96994  10.316   4.701   4.022 -2.6717  0.3160 -2.1131
  703MOL0     H96995  10.072   4.712   4.012  0.4273  0.5381 -0.7135
  703MOL0     H96996   9.601   4.663   3.921  1.3266  1.9113  1.0475
  703MOL0     H96997   9.381   4.708   3.989  1.0901  1.7967 -0.1100
  703MOL0     H96998   7.923   4.608   3.988  1.7973 -0.8599 -1.4532
  703MOL0     H96999   7.702   4.683   3.910  0.7298  0.1259  1.7828
  703MOL0     H97000   7.317   4.838   3.913 -3.2976 -0.0310  0.5378
  703MOL0     H97001   7.100   4.892   3.841  1.4825  1.6041  2.8085
  703MOL0     H97002   6.935   4.979   3.767  1.1896 -1.5387 -1.7200
  703MOL0     H97003   6.987   5.142   3.737 -2.0612  2.2014 -0.8345
  703MOL0     H97004   6.846   5.167   3.554  3.0862 -0.9770  0.0244
  703MOL0     H97005   6.738   5.106   3.694 -1.1809 -0.6816 -1.7036
  703MOL0     H97006   6.827   4.963   3.446  1.5467  1.0018  2.3776
  703MOL0     H97007   6.769   4.878   3.585  1.6318  0.0828  0.5036
  703MOL0     H97008   6.619   5.087   3.414  3.5869  0.5707  0.2936
  703MOL0     H97009   6.548   5.004   3.556 -1.7951  0.3507 -2.0880
  703MOL0     H97010   6.517   4.701   3.245  1.1196  0.9096 -0.9920
  703MOL0     H97011   7.262   5.027   3.463 -0.6791 -1.7252 -1.4487
  703MOL0     H97012   7.587   4.921   3.493  2.9880  1.9048  0.4636
  703MOL0     H97013   7.485   5.041   3.415  2.9368  2.3832  0.2714
  703MOL0     H97014   7.569   5.081   3.558 -2.0614  0.9800 -1.0248
  704MOL0     O97015   0.173   1.164   6.935 -0.0331  0.1132 -0.0061
  704MOL0     C97016   0.175   1.044   6.950 -0.0359 -0.5507  0.0599
  704MOL0     O97017   0.075   0.964   6.999  0.9443  0.3151 -0.6014
  704MOL0     C97018  -0.056   1.018   7.017 -0.3951  0.2972  0.3040
  704MOL0     C97019  -0.129   1.061   6.907  1.4906 -0.3017  0.3503
  704MOL0     C97020  -0.254   1.115   6.919 -0.5166  0.7249  0.9047
  704MOL0     C97021  -0.317   1.124   7.050  0.3656  0.1139  0.6183
  704MOL0     O97022  -0.440   1.184   7.044 -0.0222 -0.7975 -0.7160
  704MOL0     C97023  -0.511   1.193   7.171  0.4102  0.8175 -0.2148
  704MOL0     C97024  -0.614   1.305   7.150 -0.9502  0.3230 -0.4499
  704MOL0     C97025  -0.556   1.437   7.108 -0.4056  0.7273  0.1156
  704MOL0     C97026  -0.671   1.530   7.074  0.6666 -0.4752  0.3688
  704MOL0     C97027  -0.623   1.652   6.995  0.2207  0.0873  0.0603
  704MOL0     C97028  -0.738   1.751   6.970 -0.5819 -0.0079 -1.3595
  704MOL0     C97029  -0.695   1.883   6.910 -0.8781 -0.9521  0.2410
  704MOL0     C97030  -0.652   1.846   6.770 -0.3397  0.2008  0.9338
  704MOL0     N97031  -0.627   1.969   6.697  0.0198  0.3590  0.5431
  704MOL0     C97032  -0.545   2.070   6.732 -0.0837  0.8434  0.1304
  704MOL0     C97033  -0.549   2.153   6.625 -0.3605  0.5852 -0.3432
  704MOL0     C97034  -0.488   2.289   6.622  0.1645  0.9515 -0.1170
  704MOL0     C97035  -0.337   2.284   6.606 -0.0927 -0.3867  0.7941
  704MOL0     C97036  -0.287   2.428   6.563  0.0216  0.4306 -0.5896
  704MOL0     C97037  -0.272   2.532   6.677 -0.0882  0.2803  0.3280
  704MOL0     O97038  -0.156   2.496   6.749  0.4384 -0.1893  0.0325
  704MOL0     C97039  -0.119   2.583   6.843  0.0089  0.6656  0.6592
  704MOL0     C97040  -0.187   2.686   6.904  0.4426 -0.0915 -0.7552
  704MOL0     C97041  -0.141   2.758   7.021  0.2635  0.4410  0.3324
  704MOL0     C97042  -0.233   2.858   7.092  0.5419 -0.9117  0.1453
  704MOL0     C97043  -0.021   2.719   7.071  0.2592  0.1600 -0.1544
  704MOL0     C97044   0.049   2.792   7.171  0.9341  0.1810  0.2321
  704MOL0     O97045   0.045   2.927   7.167 -0.8176  0.6814 -1.1492
  704MOL0     C97046   0.105   2.995   7.271  0.1960  0.4605  0.0013
  704MOL0     C97047   0.240   2.998   7.288 -0.5281 -0.3661 -0.2184
  704MOL0     C97048   0.303   3.079   7.382  0.3091 -0.0690  0.2780
  704MOL0     C97049   0.229   3.171   7.462  0.0963 -0.4300  0.4015
  704MOL0     O97050   0.274   3.270   7.544 -0.4681 -0.7671  0.2626
  704MOL0     C97051   0.413   3.262   7.572 -0.0684 -0.1257  1.0353
  704MOL0     C97052   0.451   3.344   7.696 -0.2461  0.1942  0.5679
  704MOL0     C97053   0.593   3.308   7.750  0.5414 -0.0394  0.1692
  704MOL0     C97054   0.639   3.421   7.847 -0.2807  0.4292  0.3264
  704MOL0     C97055   0.570   3.428   7.979 -0.2121  0.2779  1.4396
  704MOL0     C97056   0.588   3.305   8.068 -0.4279 -0.4385  0.6424
  704MOL0     C97057   0.559   3.335   8.213 -0.0890 -0.3865  0.0516
  704MOL0     C97058   0.419   3.396   8.225 -1.3657  0.3200  0.3912
  704MOL0    Cl97059   0.369   3.375   8.382 -0.5436  0.4455  0.3386
  704MOL0     C97060   0.088   3.167   7.439  0.2918  0.8775  0.0619
  704MOL0     C97061   0.026   3.074   7.351 -0.2341 -0.1444  0.0234
  704MOL0     O97062   0.114   2.725   7.251  0.0513 -0.0351  0.1739
  704MOL0     C97063   0.055   2.613   7.009 -0.5133 -0.1645  0.0668
  704MOL0     C97064   0.002   2.545   6.894  0.0404  0.9498  0.6601
  704MOL0     N97065  -0.632   2.095   6.534 -0.2666  1.0619  0.3932
  704MOL0     N97066  -0.679   1.982   6.574 -0.2490  0.7456  0.6679
  704MOL0     C97067  -0.238   1.081   7.160 -0.0080  0.2756  0.0121
  704MOL0     C97068  -0.113   1.024   7.141 -0.3449 -0.1035 -1.2360
  704MOL0     C97069   0.297   0.963   6.916  0.1021 -0.6543 -1.0948
  704MOL0     C97070   0.291   0.825   6.903 -0.2892  0.2909 -0.5327
  704MOL0     C97071   0.401   0.755   6.851  0.2246 -0.2771 -1.5817
  704MOL0     C97072   0.525   0.814   6.825  0.6286  0.0488  0.5456
  704MOL0     O97073   0.637   0.748   6.786  0.1302  0.6926  0.0535
  704MOL0     C97074   0.651   0.613   6.814 -1.3738 -0.1060 -0.0627
  704MOL0     C97075   0.765   0.532   6.748 -0.0864 -0.0141  0.1907
  704MOL0     C97076   0.904   0.598   6.766 -0.8780 -0.0123  0.6507
  704MOL0     C97077   0.949   0.629   6.904 -0.8330  0.1007 -0.3291
  704MOL0     C97078   1.095   0.634   6.909  0.0706  0.2291  0.6488
  704MOL0     C97079   1.213   0.633   6.925 -0.4209 -0.6252  0.2216
  704MOL0     C97080   0.531   0.952   6.837 -0.0626 -0.1886  0.9447
  704MOL0     C97081   0.425   1.022   6.882  0.1296 -0.9769 -0.6689
  704MOL0     C97082   0.439   1.165   6.908 -0.1850 -0.3939 -0.5530
  704MOL0     H97083  -0.074   1.063   6.813  0.8472  0.1954 -0.0263
  704MOL0     H97084  -0.312   1.154   6.836 -2.1742 -1.6266  0.8358
  704MOL0     H97085  -0.452   1.240   7.250  2.0112  1.1159 -1.5506
  704MOL0     H97086  -0.547   1.095   7.204  2.0030  0.6317  1.0876
  704MOL0     H97087  -0.674   1.271   7.065 -0.1339 -0.8418 -0.5879
  704MOL0     H97088  -0.687   1.308   7.231  1.8802 -2.5113  2.4900
  704MOL0     H97089  -0.497   1.476   7.192  2.1327 -3.5453  0.6020
  704MOL0     H97090  -0.490   1.415   7.024 -0.9164  0.0851 -0.1204
  704MOL0     H97091  -0.753   1.477   7.025 -3.0771  0.7702  4.6230
  704MOL0     H97092  -0.720   1.570   7.163 -1.3192  0.0589 -0.9129
  704MOL0     H97093  -0.562   1.630   6.908  1.0473  2.1845  0.0528
  704MOL0     H97094  -0.547   1.696   7.060  1.1433  0.1159 -1.0092
  704MOL0     H97095  -0.799   1.694   6.899  0.1897  1.0193 -2.9042
  704MOL0     H97096  -0.798   1.774   7.058 -0.1651  1.2241 -1.3904
  704MOL0     H97097  -0.613   1.937   6.958 -0.0339 -1.0535 -1.0278
  704MOL0     H97098  -0.786   1.942   6.897 -2.0493 -2.7664 -0.1932
  704MOL0     H97099  -0.557   1.791   6.779 -0.2168  0.4393  1.1163
  704MOL0     H97100  -0.718   1.774   6.721  0.2866 -0.6653  1.3243
  704MOL0     H97101  -0.496   2.092   6.827 -2.3418  3.3414  0.8588
  704MOL0     H97102  -0.505   2.353   6.709  0.1775  2.1551 -0.9638
  704MOL0     H97103  -0.536   2.324   6.530  0.2045  1.0422 -0.1031
  704MOL0     H97104  -0.286   2.255   6.698  1.9487 -2.7030 -0.9251
  704MOL0     H97105  -0.313   2.204   6.535  1.3361  0.1853  0.6034
  704MOL0     H97106  -0.193   2.412   6.509  2.3603 -1.2372  3.5081
  704MOL0     H97107  -0.361   2.468   6.493 -0.7129 -2.9715 -1.9510
  704MOL0     H97108  -0.262   2.634   6.637 -1.4746 -0.0488 -0.9466
  704MOL0     H97109  -0.364   2.530   6.736 -1.5581  0.8121 -1.8310
  704MOL0     H97110  -0.279   2.720   6.857  0.0193  0.2652  0.3031
  704MOL0     H97111  -0.215   2.960   7.057 -2.9844 -0.0134  0.5225
  704MOL0     H97112  -0.224   2.862   7.201  1.2638  0.6878  0.0615
  704MOL0     H97113  -0.341   2.852   7.074  0.0336  1.4926  1.9099
  704MOL0     H97114   0.314   2.944   7.231  2.4786 -1.9660  4.6061
  704MOL0     H97115   0.412   3.082   7.373  0.3733 -3.6364 -1.7116
  704MOL0     H97116   0.449   3.161   7.593  1.2989  0.6881  2.8994
  704MOL0     H97117   0.477   3.300   7.491 -1.0583 -0.3089  0.1587
  704MOL0     H97118   0.448   3.443   7.650  1.6130  0.4384  0.8750
  704MOL0     H97119   0.380   3.315   7.774  0.2825 -2.2920  0.1958
  704MOL0     H97120   0.665   3.301   7.669  0.2824 -2.1600  0.0683
  704MOL0     H97121   0.576   3.207   7.790  2.0335 -1.3717 -2.3187
  704MOL0     H97122   0.634   3.513   7.789  0.8933 -2.2436 -4.5933
  704MOL0     H97123   0.747   3.405   7.859  0.2781 -0.0911 -3.8509
  704MOL0     H97124   0.616   3.510   8.036 -0.6966 -0.5379  3.0374
  704MOL0     H97125   0.468   3.465   7.966 -0.4683  0.2554  3.2035
  704MOL0     H97126   0.690   3.268   8.055 -0.0244  1.2600 -1.7543
  704MOL0     H97127   0.528   3.223   8.027  0.1323 -0.1565 -0.8005
  704MOL0     H97128   0.635   3.404   8.252 -0.8899  0.4233  0.2158
  704MOL0     H97129   0.547   3.245   8.274 -2.3779 -0.9412 -1.0957
  704MOL0     H97130   0.347   3.351   8.156  0.0637 -2.2543  0.4609
  704MOL0     H97131   0.416   3.503   8.203  1.8216  0.8542  1.9808
  704MOL0     H97132   0.035   3.245   7.493 -1.1350 -0.4027  0.6144
  704MOL0     H97133  -0.081   3.073   7.331  0.1083 -1.5008 -1.9567
  704MOL0     H97134   0.157   2.589   7.036  0.2560  2.0143 -0.6536
  704MOL0     H97135   0.045   2.450   6.863 -0.0692  0.2382  2.5529
  704MOL0     H97136  -0.290   1.078   7.255 -0.6846  1.3590 -0.3122
  704MOL0     H97137  -0.061   0.973   7.221  1.0636  3.3593  0.2534
  704MOL0     H97138   0.199   0.773   6.926 -1.1964  1.5472 -1.1981
  704MOL0     H97139   0.376   0.649   6.850 -0.5205 -0.1082 -3.0229
  704MOL0     H97140   0.669   0.600   6.921  0.5419  0.1357 -0.3073
  704MOL0     H97141   0.561   0.566   6.774 -0.2824 -0.2649 -2.5492
  704MOL0     H97142   0.753   0.516   6.640  0.0226  1.6477 -0.0914
  704MOL0     H97143   0.755   0.429   6.784  4.2048 -1.8591 -3.0602
  704MOL0     H97144   0.967   0.533   6.704 -2.9543  0.2294 -1.8587
  704MOL0     H97145   0.904   0.692   6.710  1.0970  0.9439  2.1245
  704MOL0     H97146   0.903   0.568   6.983 -2.7352  1.5382 -0.2463
  704MOL0     H97147   0.911   0.728   6.930  0.2385 -0.1808  2.7478
  704MOL0     H97148   1.319   0.643   6.914 -0.6857  3.8034 -0.1138
  704MOL0     H97149   0.620   1.002   6.799  0.3733 -1.9495 -0.4738
  704MOL0     H97150   0.547   1.180   6.904  0.0415 -1.8686 -0.3733
  704MOL0     H97151   0.394   1.232   6.834 -0.5647  1.4470  1.2460
  704MOL0     H97152   0.405   1.190   7.009 -0.4535 -0.9623 -0.4990
  705MOL0     O97153  10.475   2.389   5.145 -0.0697 -0.6923 -0.5860
  705MOL0     C97154  10.425   2.280   5.183 -0.0942  0.3717  0.3400
  705MOL0     O97155  10.494   2.198   5.270  0.2975 -0.0136  0.4577
  705MOL0     C97156  10.628   2.231   5.300 -0.2618 -0.2376 -0.7454
  705MOL0     C97157  10.736   2.190   5.215  0.2955 -0.8952  0.3205
  705MOL0     C97158  10.870   2.216   5.242 -0.2534  0.3599 -0.4066
  705MOL0     C97159  10.900   2.288   5.359  0.8170 -0.0398 -0.1104
  705MOL0     O97160  11.033   2.285   5.384 -0.3340  0.4217  0.0783
  705MOL0     C97161  11.081   2.398   5.456 -0.3819 -0.8320 -0.3427
  705MOL0     C97162  11.227   2.412   5.418  0.7319 -0.6480  0.1718
  705MOL0     C97163  11.301   2.478   5.525 -0.2108 -0.9139  0.5585
  705MOL0     C97164  11.236   2.615   5.557  0.1203 -0.3218  0.3570
  705MOL0     C97165  11.331   2.705   5.645 -0.0512 -0.0251 -0.9965
  705MOL0     C97166  11.252   2.803   5.726  0.6031  0.4207 -0.1868
  705MOL0     C97167  11.234   2.930   5.639 -0.9054 -0.2277  0.3179
  705MOL0     C97168  11.168   3.049   5.727 -0.1750 -0.7159  0.5266
  705MOL0     N97169  11.025   3.020   5.743  1.0356 -0.2354  1.2591
  705MOL0     C97170  10.944   2.976   5.634 -0.1028 -0.1436  0.1128
  705MOL0     C97171  10.834   2.939   5.703 -0.5604  0.4146  0.2153
  705MOL0     C97172  10.726   2.849   5.655 -0.5836 -0.9862 -0.1787
  705MOL0     C97173  10.716   2.711   5.713  0.1429  0.5596  0.7557
  705MOL0     C97174  10.858   2.641   5.717 -0.4135  0.9101 -0.6425
  705MOL0     C97175  10.865   2.522   5.824 -0.0382  0.1520  0.5468
  705MOL0     O97176  10.990   2.462   5.835 -1.1299  0.1087 -0.1596
  705MOL0     C97177  11.089   2.507   5.922 -0.1274  0.3389 -0.2941
  705MOL0     C97178  11.084   2.631   5.981  0.2269 -0.2674 -0.1672
  705MOL0     C97179  11.180   2.671   6.067  0.0965  0.3518 -1.4017
  705MOL0     C97180  11.170   2.815   6.117 -0.3333  0.2796  0.6564
  705MOL0     C97181  11.293   2.588   6.098 -0.4015  0.9188 -0.5750
  705MOL0     C97182  11.408   2.636   6.176  0.0991  0.6619  0.6702
  705MOL0     O97183  11.456   2.568   6.279  0.3680  0.2734 -0.2381
  705MOL0     C97184  11.556   2.623   6.363  0.6990  0.5727 -0.3037
  705MOL0     C97185  11.687   2.607   6.324 -0.3467 -0.1580  0.0869
  705MOL0     C97186  11.800   2.663   6.390  0.5577 -0.1954 -1.1860
  705MOL0     C97187  11.767   2.746   6.499  0.3091 -0.5229 -1.2388
  705MOL0     O97188  11.844   2.803   6.595 -0.0420 -0.2661  0.7584
  705MOL0     C97189  11.984   2.773   6.585 -0.5809 -0.5922 -0.5362
  705MOL0     C97190  12.060   2.799   6.711  0.3936 -0.3062 -0.2061
  705MOL0     C97191  12.205   2.758   6.695 -0.8486  0.4695 -0.7810
  705MOL0     C97192  12.271   2.709   6.831  0.5121 -0.7903  0.5936
  705MOL0     C97193  12.416   2.669   6.820 -1.2092 -0.2053 -0.4348
  705MOL0     C97194  12.475   2.606   6.945  0.0470  0.3549 -0.0916
  705MOL0     C97195  12.460   2.687   7.068 -0.3108  0.1541 -1.0703
  705MOL0     C97196  12.530   2.618   7.187 -0.3474  0.1094  0.1192
  705MOL0    Cl97197  12.700   2.608   7.162 -0.1535  0.1626  0.1047
  705MOL0     C97198  11.634   2.759   6.544  0.8543 -1.0810  0.1774
  705MOL0     C97199  11.533   2.696   6.481 -0.2866 -0.4220 -0.2954
  705MOL0     O97200  11.451   2.744   6.143 -0.1830 -0.1522  0.4415
  705MOL0     C97201  11.288   2.453   6.052 -0.2220  0.6566 -0.2561
  705MOL0     C97202  11.196   2.416   5.952  0.0955 -0.0912  0.3323
  705MOL0     N97203  10.854   2.976   5.839  0.2345  0.7025 -0.6596
  705MOL0     N97204  10.968   3.025   5.866  0.2626 -0.1257  0.3432
  705MOL0     C97205  10.800   2.335   5.442 -0.0647  0.6311 -0.0425
  705MOL0     C97206  10.664   2.296   5.416 -0.1190 -0.7014 -0.4045
  705MOL0     C97207  10.295   2.231   5.116 -0.5111 -1.2040  1.7880
  705MOL0     C97208  10.246   2.315   5.009 -0.5085  0.1416 -0.2211
  705MOL0     C97209  10.125   2.296   4.949 -0.0733  0.1595  0.6074
  705MOL0     C97210  10.045   2.195   4.988  0.3430  0.1933 -0.3618
  705MOL0     O97211   9.933   2.162   4.922  0.3197  0.0171  0.3075
  705MOL0     C97212   9.858   2.254   4.839  0.9293 -1.0539 -0.3244
  705MOL0     C97213   9.731   2.194   4.779 -0.6757 -0.8722 -0.4748
  705MOL0     C97214   9.634   2.142   4.887 -0.1761  0.6676  0.7787
  705MOL0     C97215   9.563   2.256   4.954 -0.4441  0.3776  0.0024
  705MOL0     C97216   9.478   2.200   5.064  0.2278  0.5240  0.1029
  705MOL0     C97217   9.405   2.155   5.156  0.0866 -0.3071 -0.0101
  705MOL0     C97218  10.081   2.120   5.100 -0.4313 -0.0693  0.0435
  705MOL0     C97219  10.208   2.132   5.159  0.1343 -0.3985 -0.5533
  705MOL0     C97220  10.232   2.043   5.279 -0.6001 -0.7150 -0.3721
  705MOL0     H97221  10.721   2.123   5.130 -0.0297 -0.4848  0.0467
  705MOL0     H97222  10.954   2.175   5.185 -0.9271  0.4095 -1.4576
  705MOL0     H97223  11.080   2.382   5.564 -0.5880  0.5896 -0.1275
  705MOL0     H97224  11.023   2.488   5.436  2.1633  1.6346  2.5056
  705MOL0     H97225  11.272   2.313   5.404 -0.7086 -1.2220 -0.5547
  705MOL0     H97226  11.233   2.476   5.330 -2.3761  1.5671  1.4041
  705MOL0     H97227  11.300   2.410   5.611 -0.9263 -3.2995 -1.2305
  705MOL0     H97228  11.404   2.493   5.492  0.0802 -1.5618  1.1439
  705MOL0     H97229  11.208   2.656   5.460 -1.0078 -1.6086  0.1099
  705MOL0     H97230  11.137   2.608   5.602  0.2648 -1.0988  0.5863
  705MOL0     H97231  11.410   2.753   5.585  3.1831 -3.0416  0.4642
  705MOL0     H97232  11.382   2.640   5.717  1.0462  0.4028 -1.3591
  705MOL0     H97233  11.153   2.761   5.749  1.2138 -3.3607 -3.2699
  705MOL0     H97234  11.308   2.828   5.816  2.5430  4.2537 -2.2555
  705MOL0     H97235  11.187   2.903   5.545 -0.0993 -0.5743  0.0048
  705MOL0     H97236  11.332   2.976   5.621 -0.4369 -0.7697  1.4064
  705MOL0     H97237  11.217   3.072   5.822 -3.0412  0.1000  1.9187
  705MOL0     H97238  11.167   3.139   5.665 -0.5473 -0.4750  0.8851
  705MOL0     H97239  10.974   2.961   5.531  2.1129 -0.5890  0.7758
  705MOL0     H97240  10.732   2.848   5.545 -3.4255  1.1897 -0.4782
  705MOL0     H97241  10.624   2.882   5.678 -0.6105 -0.6707 -0.7324
  705MOL0     H97242  10.681   2.718   5.816  1.0653  2.0535  0.9983
  705MOL0     H97243  10.649   2.643   5.660  1.0767  1.7202 -2.1115
  705MOL0     H97244  10.891   2.601   5.620  2.3812 -0.2638  0.6883
  705MOL0     H97245  10.927   2.716   5.755  0.0732  0.7417 -1.1739
  705MOL0     H97246  10.822   2.553   5.920 -2.3356 -0.1883 -0.3138
  705MOL0     H97247  10.802   2.439   5.791 -1.0647  1.6450 -1.4925
  705MOL0     H97248  11.005   2.701   5.959  0.6642  0.2892 -0.0040
  705MOL0     H97249  11.079   2.868   6.087 -0.9143 -0.2797  1.3833
  705MOL0     H97250  11.247   2.877   6.070 -2.1849  0.5721 -2.2664
  705MOL0     H97251  11.176   2.822   6.226  2.0943 -0.3525  0.6152
  705MOL0     H97252  11.687   2.549   6.233 -2.1314  1.9585 -1.3956
  705MOL0     H97253  11.898   2.633   6.354  1.3807 -0.4128  1.0768
  705MOL0     H97254  11.991   2.669   6.553 -2.4990 -0.3321 -2.0294
  705MOL0     H97255  12.030   2.834   6.506 -2.3133 -0.9619 -1.8984
  705MOL0     H97256  12.061   2.905   6.738  1.3653 -0.6143  1.0978
  705MOL0     H97257  12.035   2.731   6.793  1.0842 -0.1254  0.1679
  705MOL0     H97258  12.261   2.834   6.640 -2.3154  1.1937 -1.3433
  705MOL0     H97259  12.210   2.667   6.633  2.4420  1.2341 -1.8275
  705MOL0     H97260  12.213   2.618   6.848 -3.6871  1.6830  0.7850
  705MOL0     H97261  12.255   2.780   6.913  2.1954  1.4180 -0.8509
  705MOL0     H97262  12.424   2.600   6.736 -1.6425  1.0258 -1.5300
  705MOL0     H97263  12.484   2.754   6.803 -2.8018  1.6211  1.7818
  705MOL0     H97264  12.583   2.592   6.928  0.3994  0.6723  1.6394
  705MOL0     H97265  12.432   2.506   6.954 -1.8029  0.9643 -1.5125
  705MOL0     H97266  12.355   2.694   7.100  0.6018  0.7919  2.0745
  705MOL0     H97267  12.496   2.790   7.061  1.2420 -0.3696 -0.9828
  705MOL0     H97268  12.489   2.516   7.188 -1.0627  0.3075 -2.1541
  705MOL0     H97269  12.511   2.681   7.275 -1.6621  3.6803 -2.4835
  705MOL0     H97270  11.606   2.815   6.632  0.3111  0.2950 -0.8342
  705MOL0     H97271  11.432   2.719   6.514  0.5721 -0.2506  2.5410
  705MOL0     H97272  11.367   2.384   6.080 -0.8789  0.9386  2.6450
  705MOL0     H97273  11.219   2.323   5.902  2.2147  0.0562  0.9595
  705MOL0     H97274  10.837   2.376   5.535 -0.0470  1.3526 -0.3576
  705MOL0     H97275  10.592   2.327   5.491  1.3477  0.8997  0.4064
  705MOL0     H97276  10.319   2.370   4.951  0.4439  0.0969  0.8935
  705MOL0     H97277  10.100   2.345   4.856 -0.0794 -1.9986 -0.5843
  705MOL0     H97278   9.826   2.349   4.883  0.2842 -0.2221 -2.4517
  705MOL0     H97279   9.916   2.294   4.755  2.0456 -0.1030  0.8687
  705MOL0     H97280   9.765   2.105   4.725 -3.3068 -2.0402 -0.3907
  705MOL0     H97281   9.688   2.263   4.706  0.3596  0.7946  0.4358
  705MOL0     H97282   9.558   2.083   4.836  2.8501  0.1139 -3.6462
  705MOL0     H97283   9.682   2.075   4.958 -1.6355  2.2353  3.4001
  705MOL0     H97284   9.497   2.326   4.902  0.8413  3.2384  1.9788
  705MOL0     H97285   9.633   2.321   5.007 -0.5890  0.2490  0.3524
  705MOL0     H97286   9.348   2.119   5.240  2.1405  0.5769  1.8859
  705MOL0     H97287  10.010   2.048   5.138  0.5779 -1.2764 -0.2653
  705MOL0     H97288  10.157   1.966   5.300 -0.5409 -0.5157  0.6354
  705MOL0     H97289  10.332   1.999   5.277 -0.3427 -0.1243 -1.3606
  705MOL0     H97290  10.230   2.098   5.374 -0.9461 -2.0271  0.4082
  706MOL0     O97291   7.006   2.488   0.732  0.6098 -0.0737  0.1868
  706MOL0     C97292   6.915   2.521   0.810  0.3333  0.8350  0.0374
  706MOL0     O97293   6.820   2.614   0.781 -0.3003  0.0855 -0.0180
  706MOL0     C97294   6.826   2.666   0.652 -0.0857 -0.7660  0.0362
  706MOL0     C97295   6.852   2.612   0.527  0.3354 -0.0565  0.0370
  706MOL0     C97296   6.809   2.677   0.411  0.0972  0.4877 -0.0510
  706MOL0     C97297   6.750   2.804   0.413 -0.7568  1.7301 -0.4983
  706MOL0     O97298   6.716   2.870   0.306  0.0504 -1.7215  0.2733
  706MOL0     C97299   6.611   2.804   0.229 -0.3945  1.0170 -0.6067
  706MOL0     C97300   6.561   2.896   0.118  0.1793  1.0771 -0.1466
  706MOL0     C97301   6.667   2.927   0.016  0.1331 -0.0568  0.4849
  706MOL0     C97302   6.605   2.986  -0.112  1.3179  0.5020  0.3393
  706MOL0     C97303   6.701   3.052  -0.214 -0.5636  0.2192  1.2342
  706MOL0     C97304   6.819   2.955  -0.248 -0.8369 -0.6403  0.1723
  706MOL0     C97305   6.780   2.821  -0.302  0.5366 -0.3513 -0.2494
  706MOL0     C97306   6.904   2.742  -0.343  0.2347 -0.6038 -0.0759
  706MOL0     N97307   6.863   2.620  -0.398  0.4043 -0.3136 -0.6801
  706MOL0     C97308   6.801   2.615  -0.521 -0.0250  0.0427  0.0906
  706MOL0     C97309   6.730   2.501  -0.512  0.2464  0.0491  0.1941
  706MOL0     C97310   6.621   2.466  -0.606  0.0823  0.3082 -0.0994
  706MOL0     C97311   6.640   2.333  -0.670 -0.3584  0.2791  1.1257
  706MOL0     C97312   6.607   2.346  -0.824  0.3623  0.6896 -1.2833
  706MOL0     C97313   6.602   2.208  -0.892 -0.4093 -0.4888 -0.2515
  706MOL0     O97314   6.735   2.141  -0.891 -0.5058 -0.2454 -0.8938
  706MOL0     C97315   6.823   2.187  -0.990 -0.2574  0.6007  0.1094
  706MOL0     C97316   6.795   2.205  -1.129  0.2411  0.2574 -0.7231
  706MOL0     C97317   6.893   2.257  -1.218 -0.3394  0.5043 -0.4882
  706MOL0     C97318   6.838   2.284  -1.353 -0.1091  0.3471  1.0061
  706MOL0     C97319   7.026   2.276  -1.183  0.1903 -0.0184 -0.5894
  706MOL0     C97320   7.146   2.298  -1.269  0.8612  1.1808  0.0353
  706MOL0     O97321   7.270   2.335  -1.217  0.0079  0.7364 -0.1008
  706MOL0     C97322   7.387   2.326  -1.282 -0.1921  0.6177 -0.0406
  706MOL0     C97323   7.417   2.283  -1.415  0.6889  0.2600  0.8153
  706MOL0     C97324   7.548   2.279  -1.464 -0.1814 -0.5313  0.6580
  706MOL0     C97325   7.651   2.319  -1.395  0.1511 -0.2328 -0.2478
  706MOL0     O97326   7.785   2.332  -1.428 -0.6084  0.6410 -0.5635
  706MOL0     C97327   7.831   2.301  -1.558  0.3950 -0.2096 -0.3097
  706MOL0     C97328   7.977   2.340  -1.581  0.2045  0.3480  0.6282
  706MOL0     C97329   8.035   2.256  -1.698  0.0862  0.2351 -0.0340
  706MOL0     C97330   8.174   2.263  -1.723 -0.1860 -0.4239 -0.1593
  706MOL0     C97331   8.263   2.226  -1.599  0.0204 -0.0196 -0.4122
  706MOL0     C97332   8.402   2.176  -1.633 -0.8762 -0.3361 -0.2419
  706MOL0     C97333   8.494   2.281  -1.688 -0.0720 -1.4663  0.3377
  706MOL0     C97334   8.608   2.203  -1.749 -0.3209  0.4920 -0.2065
  706MOL0    Cl97335   8.562   2.157  -1.913 -0.2477  0.2084 -0.0776
  706MOL0     C97336   7.622   2.363  -1.259  0.0703 -0.5275  0.3666
  706MOL0     C97337   7.495   2.373  -1.209 -0.4437  0.4444  0.1516
  706MOL0     O97338   7.125   2.276  -1.383  0.1122 -0.5489  0.1909
  706MOL0     C97339   7.050   2.255  -1.045 -0.9166 -0.3585  0.2535
  706MOL0     C97340   6.950   2.218  -0.959  0.0857  0.1570 -0.4608
  706MOL0     N97341   6.767   2.427  -0.403 -1.1265 -0.0374 -0.1442
  706MOL0     N97342   6.847   2.501  -0.332 -0.4016 -0.2973  0.8892
  706MOL0     C97343   6.733   2.865   0.536  0.7080  0.0577 -1.1042
  706MOL0     C97344   6.764   2.793   0.651 -0.1000 -0.1255 -0.5773
  706MOL0     C97345   6.909   2.450   0.944 -0.3445  0.0124 -0.3286
  706MOL0     C97346   7.027   2.418   1.017  0.6666 -0.0854 -0.6874
  706MOL0     C97347   7.019   2.361   1.144 -0.1800  0.4391 -0.4787
  706MOL0     C97348   6.895   2.330   1.199  0.2984  0.8432  0.0198
  706MOL0     O97349   6.880   2.258   1.321 -0.0755 -0.6719 -0.4455
  706MOL0     C97350   6.963   2.307   1.429  0.4242  0.6515  0.2233
  706MOL0     C97351   6.857   2.312   1.550  0.1537  0.0405 -0.4157
  706MOL0     C97352   6.906   2.395   1.678 -0.3684  0.0884  0.3664
  706MOL0     C97353   6.810   2.406   1.791 -0.1412  0.9864 -0.0778
  706MOL0     C97354   6.681   2.477   1.768 -1.0888  0.1511  0.0579
  706MOL0     C97355   6.583   2.542   1.746 -0.4080 -0.4814  0.4463
  706MOL0     C97356   6.784   2.362   1.127 -0.0178  0.5879  0.9135
  706MOL0     C97357   6.780   2.418   1.000  0.0481 -1.0079  0.2745
  706MOL0     C97358   6.654   2.440   0.941 -0.4602  0.2124  0.4901
  706MOL0     H97359   6.892   2.513   0.508 -3.3354 -1.8939  0.9308
  706MOL0     H97360   6.829   2.628   0.316 -1.6675 -2.2243  0.8636
  706MOL0     H97361   6.531   2.778   0.299  2.1518 -2.4490  1.3764
  706MOL0     H97362   6.664   2.718   0.185  2.5152  2.5151 -0.2952
  706MOL0     H97363   6.482   2.840   0.067  1.6671 -2.2343  0.8611
  706MOL0     H97364   6.528   2.992   0.157  1.2984  0.7235  1.8611
  706MOL0     H97365   6.728   3.000   0.069 -0.4155 -2.1247  4.3645
  706MOL0     H97366   6.736   2.848  -0.015 -0.3398 -0.1698 -0.3157
  706MOL0     H97367   6.545   2.910  -0.162 -0.8281  1.1213  1.8312
  706MOL0     H97368   6.533   3.062  -0.078  0.5978  0.8453 -1.8274
  706MOL0     H97369   6.756   3.135  -0.169  1.8335  0.3927 -1.6986
  706MOL0     H97370   6.643   3.080  -0.303  3.1864  3.4702 -0.5109
  706MOL0     H97371   6.885   3.009  -0.316 -0.6104 -1.7103 -0.4839
  706MOL0     H97372   6.880   2.941  -0.158  1.8729  1.6134 -1.1927
  706MOL0     H97373   6.711   2.835  -0.386 -2.0312 -1.8883  1.4608
  706MOL0     H97374   6.730   2.761  -0.226 -1.3225 -0.5549 -1.5642
  706MOL0     H97375   6.968   2.801  -0.409 -0.4056  0.4360  0.2074
  706MOL0     H97376   6.960   2.704  -0.257 -3.2737 -2.1887  1.7110
  706MOL0     H97377   6.790   2.681  -0.607  1.8440  0.3093  0.0165
  706MOL0     H97378   6.610   2.543  -0.683  1.2314  0.5492 -0.0468
  706MOL0     H97379   6.537   2.442  -0.540  1.2193  0.4936  1.4977
  706MOL0     H97380   6.743   2.296  -0.659 -0.1572 -0.5883 -2.5078
  706MOL0     H97381   6.577   2.255  -0.626  3.0666 -1.2259  3.8968
  706MOL0     H97382   6.516   2.401  -0.848  0.8535  2.0866 -0.0438
  706MOL0     H97383   6.685   2.405  -0.871  1.9038 -0.3337 -0.1109
  706MOL0     H97384   6.533   2.137  -0.844 -0.1157 -0.9884 -0.5532
  706MOL0     H97385   6.559   2.232  -0.989 -1.2821  1.1900  0.5154
  706MOL0     H97386   6.696   2.175  -1.161  0.8081  0.0766 -2.3777
  706MOL0     H97387   6.802   2.195  -1.406 -1.3907  0.9986  0.7313
  706MOL0     H97388   6.910   2.334  -1.419 -1.1998  0.5564 -0.0550
  706MOL0     H97389   6.759   2.359  -1.338  0.2662  0.7691  0.9074
  706MOL0     H97390   7.348   2.238  -1.485  2.9420 -1.1083 -0.6299
  706MOL0     H97391   7.580   2.242  -1.561 -2.0972 -1.8312  0.4624
  706MOL0     H97392   7.807   2.195  -1.563 -0.5790 -0.2517  3.0199
  706MOL0     H97393   7.774   2.364  -1.628  0.9866  4.3720  2.8836
  706MOL0     H97394   7.980   2.443  -1.618 -0.1574  0.0641 -0.2243
  706MOL0     H97395   8.026   2.321  -1.485  0.0351 -2.0665  0.3063
  706MOL0     H97396   7.978   2.269  -1.791 -1.7306  1.4493  1.1912
  706MOL0     H97397   8.010   2.152  -1.677 -1.1570  0.5955  0.3288
  706MOL0     H97398   8.200   2.357  -1.773 -0.0559 -0.7291 -0.6744
  706MOL0     H97399   8.190   2.182  -1.794  0.3246 -0.0447 -0.4899
  706MOL0     H97400   8.270   2.316  -1.537 -2.8578  0.5282 -0.7157
  706MOL0     H97401   8.197   2.149  -1.558 -1.9141  0.2719 -2.7313
  706MOL0     H97402   8.402   2.092  -1.702  2.4707 -1.2293  0.6722
  706MOL0     H97403   8.444   2.124  -1.546  0.6323 -0.2662 -0.8942
  706MOL0     H97404   8.544   2.352  -1.620  1.4255  0.6101 -2.6959
  706MOL0     H97405   8.442   2.344  -1.761 -0.4608  0.2327  1.9720
  706MOL0     H97406   8.627   2.114  -1.689 -2.0426 -0.4427 -0.9934
  706MOL0     H97407   8.700   2.263  -1.755 -0.8821  1.5743  1.4516
  706MOL0     H97408   7.707   2.387  -1.197  1.2120  0.5252 -1.5283
  706MOL0     H97409   7.480   2.420  -1.112 -2.9751 -2.0206  1.0889
  706MOL0     H97410   7.148   2.278  -1.006  0.3723 -0.6467 -2.5202
  706MOL0     H97411   6.974   2.195  -0.856 -1.0068 -0.4184 -0.3186
  706MOL0     H97412   6.689   2.963   0.547  0.0034 -0.4853  1.6975
  706MOL0     H97413   6.723   2.841   0.740 -2.1673 -1.7177 -0.5797
  706MOL0     H97414   7.121   2.445   0.969 -0.3128 -0.1666 -2.7706
  706MOL0     H97415   7.109   2.331   1.196  0.1515 -1.2074 -1.9097
  706MOL0     H97416   7.044   2.239   1.457 -0.3672  0.2811  1.7296
  706MOL0     H97417   6.996   2.410   1.414  2.8429 -0.3489 -2.1429
  706MOL0     H97418   6.819   2.213   1.577  1.0926 -0.3228 -0.3646
  706MOL0     H97419   6.765   2.354   1.509 -0.0087  0.4219  0.3225
  706MOL0     H97420   7.000   2.346   1.706  0.7248  2.4836  1.1559
  706MOL0     H97421   6.928   2.496   1.643 -0.3084  1.3268  3.6512
  706MOL0     H97422   6.871   2.450   1.871  2.9381 -1.8200 -0.6902
  706MOL0     H97423   6.796   2.304   1.828 -0.9602  0.4628 -1.7571
  706MOL0     H97424   6.503   2.607   1.718  0.1690  1.4009  2.9080
  706MOL0     H97425   6.697   2.321   1.177  0.3448  2.8386  3.6613
  706MOL0     H97426   6.631   2.547   0.949 -0.0005  0.3115  0.5120
  706MOL0     H97427   6.664   2.416   0.834 -0.6330 -0.7861  0.6928
  706MOL0     H97428   6.580   2.385   1.000 -0.3277 -1.6130 -0.9439
  707MOL0     O97429   8.208   0.419   5.096 -0.2566 -0.0910 -0.1829
  707MOL0     C97430   8.140   0.364   5.182 -0.6192 -0.5244  0.1108
  707MOL0     O97431   8.193   0.297   5.290 -0.6876 -0.2419 -0.1569
  707MOL0     C97432   8.321   0.288   5.306  0.2484 -0.1422 -0.2114
  707MOL0     C97433   8.391   0.173   5.276 -0.2741 -0.0408  0.2568
  707MOL0     C97434   8.522   0.164   5.312  0.8416  0.4415 -0.0033
  707MOL0     C97435   8.589   0.262   5.385  0.2040 -0.8242 -0.0012
  707MOL0     O97436   8.721   0.252   5.423  0.3898  0.2430  0.7333
  707MOL0     C97437   8.808   0.156   5.365  0.3083 -0.2578 -0.4210
  707MOL0     C97438   8.955   0.193   5.384 -0.4086 -0.0369 -0.8009
  707MOL0     C97439   9.050   0.080   5.343  0.2703 -0.5807 -0.9547
  707MOL0     C97440   9.191   0.118   5.375 -0.1114 -0.1541 -0.7061
  707MOL0     C97441   9.293  -0.003   5.346  0.5348  0.2759  0.3694
  707MOL0     C97442   9.443   0.054   5.342  0.5898 -0.6230 -0.8064
  707MOL0     C97443   9.543  -0.065   5.348 -0.1343  0.0022 -0.7359
  707MOL0     C97444   9.692  -0.017   5.341  0.7088 -0.9885  0.6022
  707MOL0     N97445   9.760  -0.086   5.445  0.2331 -1.3757 -0.5449
  707MOL0     C97446   9.798  -0.029   5.564  0.4439  0.2270  0.0611
  707MOL0     C97447   9.859  -0.130   5.632 -0.0467 -0.2792  0.8596
  707MOL0     C97448   9.946  -0.103   5.750  0.4392  0.8718 -0.5010
  707MOL0     C97449  10.094  -0.078   5.713  1.1212 -0.2071  0.2655
  707MOL0     C97450  10.159  -0.217   5.687 -0.2227 -0.2807  0.0914
  707MOL0     C97451  10.216  -0.299   5.811  0.2451 -1.4116 -0.7941
  707MOL0     O97452  10.323  -0.229   5.877  0.2721  0.4131 -0.6573
  707MOL0     C97453  10.448  -0.231   5.824 -0.2993  0.3841 -0.0756
  707MOL0     C97454  10.545  -0.192   5.925  0.3409  0.7883  0.6667
  707MOL0     C97455  10.680  -0.175   5.881  0.2178 -0.7165 -0.1407
  707MOL0     C97456  10.780  -0.123   5.981  0.0857  0.0154 -0.0791
  707MOL0     C97457  10.712  -0.208   5.750  0.0990 -0.3003 -1.6180
  707MOL0     C97458  10.851  -0.199   5.694  0.8723 -0.3702  0.9306
  707MOL0     O97459  10.880  -0.279   5.598  0.1331  0.1213 -0.0901
  707MOL0     C97460  11.006  -0.274   5.539  1.0416 -1.3815  0.9535
  707MOL0     C97461  11.026  -0.193   5.431 -0.1673 -0.6497 -0.0235
  707MOL0     C97462  11.157  -0.177   5.369  0.9497 -1.1593 -0.8154
  707MOL0     C97463  11.257  -0.260   5.412 -0.4446 -0.1311  1.1665
  707MOL0     O97464  11.383  -0.264   5.354  0.8267  0.6352 -0.2714
  707MOL0     C97465  11.396  -0.226   5.213  0.5203  1.2769 -0.6405
  707MOL0     C97466  11.493  -0.319   5.141  0.0356  0.6574 -0.6166
  707MOL0     C97467  11.429  -0.456   5.109 -0.7803 -0.6278 -0.1131
  707MOL0     C97468  11.533  -0.569   5.074 -0.7261  0.3416 -0.2262
  707MOL0     C97469  11.463  -0.709   5.076  0.5500 -1.3718  0.7826
  707MOL0     C97470  11.562  -0.806   5.013 -0.1049  0.6592  0.3215
  707MOL0     C97471  11.530  -0.952   5.063  0.2947  0.1987 -0.6727
  707MOL0     C97472  11.633  -1.052   5.019 -0.5026 -0.1508  0.6317
  707MOL0    Cl97473  11.798  -1.006   5.042 -0.4698  0.0969  0.2908
  707MOL0     C97474  11.241  -0.336   5.526 -0.5035  0.6564  0.7286
  707MOL0     C97475  11.114  -0.346   5.589  0.1213 -0.1413  0.2573
  707MOL0     O97476  10.925  -0.104   5.723  0.2941 -0.4017  0.1713
  707MOL0     C97477  10.617  -0.267   5.664  0.1236  0.1964  0.1012
  707MOL0     C97478  10.487  -0.272   5.702  0.0717 -1.0106  0.6164
  707MOL0     N97479   9.844  -0.243   5.558  0.1761 -0.1415  0.4736
  707MOL0     N97480   9.775  -0.217   5.447 -0.5916  0.7558 -0.1600
  707MOL0     C97481   8.525   0.387   5.401  0.0987 -0.2915 -0.1853
  707MOL0     C97482   8.389   0.397   5.368  0.0343  0.3091  0.0903
  707MOL0     C97483   7.995   0.394   5.167  0.0069  0.1034 -0.4846
  707MOL0     C97484   7.914   0.297   5.097 -0.8445 -0.4872 -0.7318
  707MOL0     C97485   7.775   0.314   5.087  0.6358  0.6730 -0.1862
  707MOL0     C97486   7.716   0.431   5.135 -0.2992  1.0011  0.1954
  707MOL0     O97487   7.582   0.462   5.111 -0.2331  0.0439 -0.6441
  707MOL0     C97488   7.501   0.458   5.225  1.1096  0.3506 -0.2282
  707MOL0     C97489   7.370   0.396   5.200  0.1688  0.2274 -0.1920
  707MOL0     C97490   7.264   0.484   5.139 -0.0311  0.0364  1.2620
  707MOL0     C97491   7.289   0.502   4.988 -0.8488 -0.2720  0.1055
  707MOL0     C97492   7.168   0.488   4.915 -0.2386  0.3533  0.7166
  707MOL0     C97493   7.075   0.470   4.846  1.1499  0.1467 -0.1531
  707MOL0     C97494   7.791   0.506   5.219  0.5054 -0.1522 -0.9108
  707MOL0     C97495   7.928   0.491   5.240  0.0514 -0.0326 -0.6721
  707MOL0     C97496   8.005   0.605   5.300  0.0982 -0.2224  0.4761
  707MOL0     H97497   8.363   0.083   5.222 -0.5174 -0.4453  1.0402
  707MOL0     H97498   8.560   0.064   5.296 -0.4621  0.1223 -1.2772
  707MOL0     H97499   8.796   0.160   5.256 -0.7665 -3.1627 -0.4982
  707MOL0     H97500   8.792   0.056   5.406  1.0368 -0.0696  0.3578
  707MOL0     H97501   8.987   0.269   5.311  2.5996 -0.9225 -0.5330
  707MOL0     H97502   8.977   0.241   5.479 -0.2302 -2.1199  0.2587
  707MOL0     H97503   9.023  -0.008   5.402  2.6306 -0.4578  0.3914
  707MOL0     H97504   9.048   0.049   5.238  0.8558  0.1985 -1.2007
  707MOL0     H97505   9.207   0.196   5.300 -1.7799 -0.8871 -1.8762
  707MOL0     H97506   9.199   0.161   5.475 -1.6215  2.1785 -1.4980
  707MOL0     H97507   9.271  -0.062   5.256 -0.2645  1.0517  0.0344
  707MOL0     H97508   9.282  -0.077   5.425  2.6397 -0.2945  0.2015
  707MOL0     H97509   9.466   0.108   5.250  2.5885 -0.3854 -0.2025
  707MOL0     H97510   9.463   0.118   5.429 -0.7248 -1.3205  0.0421
  707MOL0     H97511   9.517  -0.132   5.266 -0.1561 -2.5803  1.2442
  707MOL0     H97512   9.524  -0.122   5.440  0.4606  0.8770 -0.0581
  707MOL0     H97513   9.746  -0.040   5.249 -0.7247  0.9988 -0.8172
  707MOL0     H97514   9.697   0.091   5.355 -0.3552 -1.0139  1.2583
  707MOL0     H97515   9.804   0.079   5.577  3.7843  0.3607 -1.5476
  707MOL0     H97516   9.941  -0.190   5.816  3.1619  1.2315  0.3223
  707MOL0     H97517   9.893  -0.025   5.806 -1.5754 -0.0079 -1.0938
  707MOL0     H97518  10.084  -0.016   5.623  1.4123  0.8586  0.9565
  707MOL0     H97519  10.137  -0.027   5.799  1.5396  1.6478 -0.9946
  707MOL0     H97520  10.081  -0.285   5.652 -2.8635  1.6410  1.8065
  707MOL0     H97521  10.234  -0.205   5.609 -3.2717  1.4756 -2.8582
  707MOL0     H97522  10.133  -0.302   5.883  1.0841 -2.2850  0.1808
  707MOL0     H97523  10.235  -0.404   5.787  0.5727 -1.1894 -1.5183
  707MOL0     H97524  10.508  -0.170   6.025 -2.2963 -0.5491  0.0735
  707MOL0     H97525  10.873  -0.179   5.988 -0.7479 -1.4238 -0.1981
  707MOL0     H97526  10.736  -0.122   6.081 -1.8436  3.1339 -0.8147
  707MOL0     H97527  10.804  -0.018   5.958 -1.8931  0.3042 -1.0726
  707MOL0     H97528  10.947  -0.128   5.396  0.0836 -1.0513 -1.3948
  707MOL0     H97529  11.178  -0.102   5.294  7.5027  2.0475  3.2302
  707MOL0     H97530  11.305  -0.248   5.157  1.2553 -0.1182 -1.3439
  707MOL0     H97531  11.427  -0.121   5.203  0.3867  1.3078 -0.7373
  707MOL0     H97532  11.532  -0.274   5.049 -1.4625  2.0871 -0.6026
  707MOL0     H97533  11.576  -0.342   5.208  1.6593  1.9569 -2.1013
  707MOL0     H97534  11.367  -0.435   5.022 -2.5131 -0.4308  1.1235
  707MOL0     H97535  11.365  -0.489   5.191  0.0108 -2.6991 -0.2538
  707MOL0     H97536  11.609  -0.568   5.153 -1.4174  2.0576  0.4656
  707MOL0     H97537  11.595  -0.551   4.985  2.0565 -0.7705  1.3538
  707MOL0     H97538  11.426  -0.734   5.175 -3.0930 -1.5531 -0.4468
  707MOL0     H97539  11.368  -0.703   5.020 -1.4157 -0.9258  3.9134
  707MOL0     H97540  11.666  -0.780   5.035 -0.1511  1.1691 -0.0393
  707MOL0     H97541  11.548  -0.794   4.905  0.3556  0.7212  0.2680
  707MOL0     H97542  11.434  -0.979   5.018  0.6506  2.4023 -3.0196
  707MOL0     H97543  11.515  -0.945   5.171  0.0102  1.2219 -0.7687
  707MOL0     H97544  11.608  -1.061   4.913 -1.3343  1.9579  0.6023
  707MOL0     H97545  11.618  -1.149   5.069 -2.6688 -1.3973 -2.1467
  707MOL0     H97546  11.324  -0.398   5.557  0.0741  0.0657 -1.7235
  707MOL0     H97547  11.107  -0.407   5.679 -0.1268  1.5533  1.4426
  707MOL0     H97548  10.651  -0.313   5.571  0.1597  0.5267 -0.0497
  707MOL0     H97549  10.413  -0.322   5.641 -0.4567  0.7825 -0.2936
  707MOL0     H97550   8.570   0.453   5.475 -1.6995 -1.7067  2.3790
  707MOL0     H97551   8.329   0.481   5.399 -0.8791 -0.1010 -0.5149
  707MOL0     H97552   7.967   0.225   5.035  1.5465  1.8433 -1.5787
  707MOL0     H97553   7.710   0.241   5.041  1.5006 -1.1506  1.3290
  707MOL0     H97554   7.553   0.403   5.305  0.1919  0.3944  0.4215
  707MOL0     H97555   7.474   0.559   5.258  0.0112  0.6042 -1.7878
  707MOL0     H97556   7.337   0.357   5.297 -1.7895 -2.0192 -1.6549
  707MOL0     H97557   7.378   0.314   5.128 -0.9352  0.0089 -0.0820
  707MOL0     H97558   7.167   0.436   5.154 -0.0451  0.0556  1.2316
  707MOL0     H97559   7.253   0.581   5.190  1.4054  0.9049  0.0114
  707MOL0     H97560   7.370   0.436   4.953 -1.7305 -0.2473 -2.1412
  707MOL0     H97561   7.322   0.605   4.973 -0.8532 -0.4536 -1.3352
  707MOL0     H97562   6.995   0.425   4.789  1.9956 -1.1820 -0.3444
  707MOL0     H97563   7.738   0.589   5.264 -0.6135 -2.0485  1.5111
  707MOL0     H97564   8.065   0.657   5.225 -0.0434 -0.1786  0.3929
  707MOL0     H97565   7.950   0.682   5.355  0.3752 -0.6592  1.3899
  707MOL0     H97566   8.083   0.567   5.367  1.5076 -0.5307 -1.2829
  708MOL0     O97567   7.847   0.598  11.029 -0.0802 -0.3601  0.1332
  708MOL0     C97568   7.776   0.625  10.934 -0.0527 -0.1609  0.1354
  708MOL0     O97569   7.816   0.688  10.821 -0.5317 -0.8968 -0.3704
  708MOL0     C97570   7.950   0.694  10.790 -0.3334  1.2093  0.2113
  708MOL0     C97571   8.030   0.806  10.786  1.1863 -0.1904  1.1008
  708MOL0     C97572   8.166   0.808  10.749  0.6258 -0.0704 -0.0236
  708MOL0     C97573   8.224   0.683  10.726 -0.1025 -0.3160 -0.5976
  708MOL0     O97574   8.363   0.686  10.707  0.4998 -0.0218 -0.2639
  708MOL0     C97575   8.432   0.592  10.786  0.0857 -0.4963 -0.0306
  708MOL0     C97576   8.476   0.641  10.917  0.1126  0.6748 -0.7106
  708MOL0     C97577   8.543   0.782  10.913 -0.1176  0.7959 -0.0538
  708MOL0     C97578   8.584   0.846  11.046  0.7323 -0.0557  0.5292
  708MOL0     C97579   8.625   0.750  11.158 -0.0349  0.1817  0.8390
  708MOL0     C97580   8.646   0.818  11.294  0.6582 -0.8010 -0.0310
  708MOL0     C97581   8.678   0.723  11.415  0.4052 -0.5535  0.1676
  708MOL0     C97582   8.778   0.791  11.512 -0.1244 -0.2748 -0.9307
  708MOL0     N97583   8.797   0.706  11.635 -0.1334  0.3747  0.1624
  708MOL0     C97584   8.693   0.648  11.712  0.1305  0.1401  0.4373
  708MOL0     C97585   8.760   0.575  11.800 -0.6542 -0.4249  0.0933
  708MOL0     C97586   8.708   0.460  11.890 -0.2232  0.0570 -1.0309
  708MOL0     C97587   8.663   0.496  12.034  0.3057  0.1870  0.3890
  708MOL0     C97588   8.757   0.601  12.094  0.4833  0.6709  0.6924
  708MOL0     C97589   8.714   0.625  12.241 -0.1968  0.1275 -0.8764
  708MOL0     O97590   8.576   0.668  12.234 -0.2185  0.1202  0.0334
  708MOL0     C97591   8.487   0.657  12.341  0.3070 -0.3594 -1.1301
  708MOL0     C97592   8.510   0.633  12.474  0.4056 -0.5012  0.2978
  708MOL0     C97593   8.418   0.653  12.577  1.0399 -0.1915 -0.2507
  708MOL0     C97594   8.475   0.605  12.713 -0.5153  0.9876 -0.2837
  708MOL0     C97595   8.290   0.711  12.540 -0.9174  0.5616 -0.2672
  708MOL0     C97596   8.186   0.746  12.641  0.2569 -0.3104  0.3262
  708MOL0     O97597   8.236   0.792  12.761  0.5547  0.4252 -0.1036
  708MOL0     C97598   8.136   0.837  12.850 -0.1273 -0.7983 -0.9354
  708MOL0     C97599   8.070   0.752  12.941 -0.0430 -0.1692 -0.0463
  708MOL0     C97600   7.991   0.795  13.048 -0.4243 -0.0163  0.3170
  708MOL0     C97601   7.966   0.933  13.044  0.0603 -0.2038 -0.2939
  708MOL0     O97602   7.886   0.989  13.136  0.2368 -0.3150 -0.8912
  708MOL0     C97603   7.750   0.950  13.132 -0.3902 -0.3259  0.4718
  708MOL0     C97604   7.693   0.898  13.265  0.7233  0.6878 -0.0544
  708MOL0     C97605   7.668   1.014  13.363  0.9688 -0.0805  0.2376
  708MOL0     C97606   7.525   1.080  13.365  0.0264 -0.4199  0.3172
  708MOL0     C97607   7.508   1.212  13.450 -0.4021 -0.1478 -0.9262
  708MOL0     C97608   7.525   1.175  13.597  0.3115  0.0279  0.5211
  708MOL0     C97609   7.521   1.298  13.690  0.0653  0.7647  0.1932
  708MOL0     C97610   7.539   1.259  13.834 -0.5613 -0.1994 -0.3185
  708MOL0    Cl97611   7.711   1.227  13.863  0.1933 -0.5623  0.3926
  708MOL0     C97612   8.033   1.024  12.955  0.9563  0.6206  0.0610
  708MOL0     C97613   8.119   0.977  12.860 -0.6763  0.5855  0.3074
  708MOL0     O97614   8.072   0.750  12.611 -0.3136 -0.6154  0.1549
  708MOL0     C97615   8.265   0.719  12.407  0.0675  0.2122 -1.0550
  708MOL0     C97616   8.354   0.692  12.311  0.0515 -0.2670  0.2672
  708MOL0     N97617   8.891   0.610  11.796 -0.3968  0.3408  0.7828
  708MOL0     N97618   8.915   0.695  11.695  0.6506  0.1449  0.0676
  708MOL0     C97619   8.150   0.564  10.731 -0.4654 -0.3012  0.3535
  708MOL0     C97620   8.012   0.569  10.754 -0.1631 -0.4661 -0.0129
  708MOL0     C97621   7.628   0.607  10.947  1.1263 -0.4928  0.3146
  708MOL0     C97622   7.558   0.606  10.825 -0.2886 -0.2970 -0.1106
  708MOL0     C97623   7.419   0.607  10.814  0.5220 -0.0793 -0.8443
  708MOL0     C97624   7.340   0.604  10.936 -0.5328 -0.0025  0.0167
  708MOL0     O97625   7.205   0.594  10.943 -0.0709  0.3027 -0.0454
  708MOL0     C97626   7.116   0.669  10.854  0.0382 -0.4833 -0.8503
  708MOL0     C97627   7.013   0.567  10.795 -0.8630  0.6559  0.0962
  708MOL0     C97628   6.883   0.556  10.878 -0.7571 -0.7581  0.5901
  708MOL0     C97629   6.789   0.464  10.804 -0.3884 -0.4212  0.0816
  708MOL0     C97630   6.654   0.457  10.865  0.3978 -0.9695  0.2443
  708MOL0     C97631   6.542   0.475  10.916  0.6916 -0.7257 -0.0949
  708MOL0     C97632   7.413   0.598  11.051  1.4028 -0.1482 -0.3564
  708MOL0     C97633   7.556   0.602  11.066  0.4107  0.5977  0.1312
  708MOL0     C97634   7.601   0.604  11.209  0.5214  0.3507 -0.4741
  708MOL0     H97635   7.977   0.899  10.805 -1.0752 -0.1340 -3.9892
  708MOL0     H97636   8.230   0.895  10.755 -1.0305  1.1000  1.4544
  708MOL0     H97637   8.521   0.567  10.727 -0.4135 -2.8870  0.1318
  708MOL0     H97638   8.372   0.501  10.797 -0.2560 -0.2307  0.3257
  708MOL0     H97639   8.387   0.661  10.978  0.2013  1.8576 -0.9488
  708MOL0     H97640   8.542   0.567  10.964 -0.8100 -0.0969 -0.6070
  708MOL0     H97641   8.631   0.773  10.848  1.2219  2.8859  1.3685
  708MOL0     H97642   8.478   0.853  10.862 -3.5745 -1.5512  0.6986
  708MOL0     H97643   8.657   0.923  11.018 -0.1635  0.4179 -0.6450
  708MOL0     H97644   8.498   0.899  11.089  0.1434 -2.1008  1.9897
  708MOL0     H97645   8.721   0.708  11.128  0.7255  2.4676 -0.0977
  708MOL0     H97646   8.560   0.662  11.163  1.3345 -0.8938  0.1246
  708MOL0     H97647   8.719   0.899  11.278 -0.8028  0.6940  0.5598
  708MOL0     H97648   8.551   0.868  11.315  1.7661  0.6465  1.8804
  708MOL0     H97649   8.724   0.631  11.377 -1.5132  0.0815 -4.2637
  708MOL0     H97650   8.581   0.697  11.458  1.1380 -0.9556  1.6368
  708MOL0     H97651   8.871   0.807  11.456 -1.4358  1.1670 -2.8202
  708MOL0     H97652   8.740   0.886  11.549 -0.1876 -1.5495  2.6497
  708MOL0     H97653   8.587   0.656  11.690  0.5202  0.3207 -1.5496
  708MOL0     H97654   8.774   0.372  11.891 -0.2137  0.0127 -2.8941
  708MOL0     H97655   8.618   0.416  11.846 -0.4038  0.2860 -0.8958
  708MOL0     H97656   8.560   0.533  12.030  0.3933  0.3534 -0.8041
  708MOL0     H97657   8.661   0.405  12.094 -2.7605 -0.7132 -0.8927
  708MOL0     H97658   8.863   0.574  12.088  0.6689  1.0008  2.0467
  708MOL0     H97659   8.733   0.690  12.036 -2.9866  0.2025  1.2363
  708MOL0     H97660   8.710   0.528  12.291 -0.9324  0.8110  0.4305
  708MOL0     H97661   8.775   0.698  12.293  1.4790 -0.5700 -1.7752
  708MOL0     H97662   8.607   0.601  12.510  0.4882 -0.2427  0.3069
  708MOL0     H97663   8.402   0.604  12.794  0.1318 -1.5282  0.3376
  708MOL0     H97664   8.557   0.675  12.731 -0.2532  0.7449 -0.5161
  708MOL0     H97665   8.514   0.504  12.703 -2.5881 -0.0207  1.0963
  708MOL0     H97666   8.098   0.647  12.941 -0.8113 -0.4057  1.6379
  708MOL0     H97667   7.940   0.732  13.119 -0.7671 -0.1548 -0.0501
  708MOL0     H97668   7.697   1.043  13.108  1.7069  0.3525 -1.9861
  708MOL0     H97669   7.737   0.875  13.054  0.1405  1.4009 -1.3637
  708MOL0     H97670   7.605   0.835  13.252  3.1109 -2.8486 -0.4019
  708MOL0     H97671   7.772   0.833  13.305  0.2927 -2.7742 -4.1118
  708MOL0     H97672   7.739   1.095  13.342  1.3036  0.4688  3.1021
  708MOL0     H97673   7.685   0.974  13.463 -0.2505 -1.2533  0.0001
  708MOL0     H97674   7.464   0.995  13.395  0.3880 -0.6346  0.4513
  708MOL0     H97675   7.504   1.118  13.264  3.1166 -2.2450 -1.1770
  708MOL0     H97676   7.589   1.281  13.427  1.2662 -1.1336  1.5319
  708MOL0     H97677   7.412   1.264  13.438 -0.0611  1.1501  1.3383
  708MOL0     H97678   7.619   1.120  13.604  0.0853 -0.9954 -2.7708
  708MOL0     H97679   7.441   1.109  13.621  0.9947 -0.7581  0.7729
  708MOL0     H97680   7.416   1.331  13.688 -0.3333 -0.5046 -1.5287
  708MOL0     H97681   7.588   1.379  13.661  0.0875  1.2141  1.4485
  708MOL0     H97682   7.485   1.170  13.869 -1.6866  0.6546  0.1713
  708MOL0     H97683   7.510   1.334  13.908  1.6874  1.5882 -1.1403
  708MOL0     H97684   8.017   1.131  12.959  2.5012  0.8364  0.7640
  708MOL0     H97685   8.180   1.035  12.793  1.5929 -0.9194  0.9528
  708MOL0     H97686   8.164   0.753  12.387  0.2659  1.1261 -0.5579
  708MOL0     H97687   8.322   0.708  12.208  1.4796 -2.9156 -0.6730
  708MOL0     H97688   8.190   0.464  10.722  1.2481  0.5197 -2.0000
  708MOL0     H97689   7.968   0.470  10.748 -4.1613  0.7100  3.9590
  708MOL0     H97690   7.614   0.620  10.733 -0.4386 -0.6171 -0.2525
  708MOL0     H97691   7.375   0.625  10.717  3.2534  3.1114 -1.6561
  708MOL0     H97692   7.069   0.757  10.899 -0.4912  0.0641 -2.3950
  708MOL0     H97693   7.178   0.707  10.772  1.5808 -0.0066  0.4810
  708MOL0     H97694   7.069   0.473  10.786 -2.9275 -0.8787  1.9966
  708MOL0     H97695   6.982   0.590  10.693  0.5451 -1.0685 -0.7812
  708MOL0     H97696   6.908   0.519  10.979  0.5812 -1.5780 -0.0018
  708MOL0     H97697   6.833   0.652  10.891  2.7373  1.3415 -0.0415
  708MOL0     H97698   6.819   0.360  10.819 -1.8747 -1.2449 -2.1344
  708MOL0     H97699   6.781   0.499  10.701  1.1108 -3.2094 -1.1025
  708MOL0     H97700   6.436   0.485  10.930  0.4867 -1.0141 -1.2935
  708MOL0     H97701   7.352   0.607  11.140  0.1217  0.8308 -1.2917
  708MOL0     H97702   7.692   0.663  11.224 -0.4060  2.2490 -1.8689
  708MOL0     H97703   7.527   0.665  11.264 -0.4796  1.4242 -2.8721
  708MOL0     H97704   7.617   0.502  11.243 -0.2064  0.2277 -0.4844
  709MOL0     O97705   7.369   8.305   7.414 -0.1236  0.9387  0.0210
  709MOL0     C97706   7.363   8.186   7.378 -0.7410  0.1687 -0.2788
  709MOL0     O97707   7.456   8.095   7.413  0.3239 -0.1935 -0.1424
  709MOL0     C97708   7.550   8.112   7.511  0.4350  0.2446 -0.5806
  709MOL0     C97709   7.689   8.069   7.495 -0.0561  0.2268 -0.4316
  709MOL0     C97710   7.779   8.079   7.601  1.0236 -0.7545 -0.2537
  709MOL0     C97711   7.735   8.143   7.724  0.1839  1.1065 -0.3736
  709MOL0     O97712   7.819   8.139   7.829  0.4324  0.4638  0.7031
  709MOL0     C97713   7.799   8.233   7.933 -0.0108 -0.1405  0.0420
  709MOL0     C97714   7.876   8.219   8.069  0.3391 -0.3674  0.4807
  709MOL0     C97715   8.026   8.177   8.038 -0.1654  0.0199 -0.0062
  709MOL0     C97716   8.116   8.144   8.163 -0.1379 -0.1035  0.7191
  709MOL0     C97717   8.262   8.100   8.130  0.6108 -0.4557 -0.7093
  709MOL0     C97718   8.338   8.102   8.265 -0.2614 -0.4972  0.0199
  709MOL0     C97719   8.319   7.963   8.343 -0.5884 -0.1637 -0.3639
  709MOL0     C97720   8.440   7.922   8.442  0.5771  0.0748 -0.1008
  709MOL0     N97721   8.568   7.900   8.381  0.7582 -0.4569  0.4177
  709MOL0     C97722   8.680   7.989   8.377  0.2410  1.0974 -0.4591
  709MOL0     C97723   8.788   7.900   8.376  0.4742 -0.8629  0.0241
  709MOL0     C97724   8.934   7.933   8.408 -0.9435  0.0990  0.7374
  709MOL0     C97725   9.000   8.039   8.308 -0.1897 -0.5360 -0.5474
  709MOL0     C97726   8.962   8.014   8.159 -0.1820  0.3695  0.0182
  709MOL0     C97727   9.040   8.087   8.054 -0.3885  0.0703  0.0898
  709MOL0     O97728   9.181   8.063   8.065  0.6987  0.2814 -1.0706
  709MOL0     C97729   9.249   8.145   7.989 -0.2883 -0.5824 -0.2680
  709MOL0     C97730   9.239   8.160   7.851  0.5169 -0.7501  0.9326
  709MOL0     C97731   9.327   8.241   7.776 -0.1618 -0.7928 -0.4367
  709MOL0     C97732   9.317   8.238   7.625  0.0694  0.7051  1.1576
  709MOL0     C97733   9.409   8.334   7.842 -0.7428 -0.0826 -0.6477
  709MOL0     C97734   9.487   8.453   7.789  0.6025 -0.4516  0.6038
  709MOL0     O97735   9.598   8.496   7.861  1.5323 -0.0130 -0.0206
  709MOL0     C97736   9.688   8.581   7.807 -0.2651  0.8578  1.1235
  709MOL0     C97737   9.817   8.530   7.781 -1.1197  0.5723 -0.1810
  709MOL0     C97738   9.924   8.622   7.762 -1.0673  1.1628  0.5264
  709MOL0     C97739   9.895   8.762   7.758  0.4195 -0.1910  1.0795
  709MOL0     O97740   9.998   8.850   7.717  0.8335  0.0178 -0.4824
  709MOL0     C97741  10.007   8.962   7.812 -0.0033 -0.0925 -0.2618
  709MOL0     C97742  10.101   8.939   7.935  0.1186 -0.0592 -0.3513
  709MOL0     C97743  10.253   8.914   7.907 -0.0045 -0.5947  0.2201
  709MOL0     C97744  10.332   8.953   8.024 -0.5792 -0.2768 -0.7487
  709MOL0     C97745  10.484   8.912   8.019 -0.2143  0.6829  0.6989
  709MOL0     C97746  10.557   8.996   8.138 -0.0335  0.1506 -0.1002
  709MOL0     C97747  10.704   8.984   8.133 -0.4046 -0.1479 -0.1983
  709MOL0     C97748  10.779   9.078   8.228  0.5339 -0.5317 -0.2868
  709MOL0    Cl97749  10.942   9.012   8.215  0.0848  0.2548 -0.2378
  709MOL0     C97750   9.760   8.807   7.753 -0.2826  0.7550 -0.5633
  709MOL0     C97751   9.664   8.718   7.791  0.4402 -0.2836 -0.0708
  709MOL0     O97752   9.443   8.504   7.687  0.0630  0.0085 -0.0211
  709MOL0     C97753   9.424   8.314   7.980 -0.3846  0.5082 -0.0996
  709MOL0     C97754   9.347   8.224   8.053  0.2216 -0.2506  0.3679
  709MOL0     N97755   8.750   7.776   8.348  1.1072  0.0307  0.0031
  709MOL0     N97756   8.617   7.777   8.354  0.3606 -0.1428  0.0897
  709MOL0     C97757   7.605   8.189   7.730  0.4008 -0.2669 -0.1906
  709MOL0     C97758   7.517   8.169   7.628 -0.4383  0.7997 -1.0904
  709MOL0     C97759   7.248   8.134   7.291 -0.0934 -0.6332  0.6906
  709MOL0     C97760   7.270   8.019   7.215 -0.6835  1.2720 -0.0966
  709MOL0     C97761   7.164   7.972   7.127  0.4450 -0.2151  0.1702
  709MOL0     C97762   7.048   8.041   7.105  0.6354 -0.4222 -0.4246
  709MOL0     O97763   6.938   8.023   7.020  0.0240  0.5560 -0.0477
  709MOL0     C97764   6.936   7.892   6.954 -0.4298 -0.3256 -0.1507
  709MOL0     C97765   6.834   7.870   6.845  0.1334 -0.3348 -0.4660
  709MOL0     C97766   6.850   7.739   6.787  0.4706  0.6107  0.2792
  709MOL0     C97767   6.743   7.702   6.690  0.3019 -0.2448 -0.3321
  709MOL0     C97768   6.750   7.783   6.567  0.7422  0.2225  0.2751
  709MOL0     C97769   6.735   7.856   6.464  0.9887  0.1683 -0.7347
  709MOL0     C97770   7.043   8.159   7.180  0.1939  0.9847 -0.0767
  709MOL0     C97771   7.132   8.203   7.273  0.8799  0.4604 -0.3340
  709MOL0     C97772   7.105   8.334   7.341 -0.0246  0.4808 -0.0734
  709MOL0     H97773   7.712   8.030   7.397 -1.5403 -0.8944 -0.3709
  709MOL0     H97774   7.879   8.038   7.590  0.5878 -1.4502 -1.8896
  709MOL0     H97775   7.697   8.237   7.975  1.1633  1.4646  3.0857
  709MOL0     H97776   7.833   8.327   7.890  0.9193 -0.9725 -1.0857
  709MOL0     H97777   7.886   8.319   8.113  0.1801  0.5622 -1.4526
  709MOL0     H97778   7.823   8.142   8.126  1.5636 -3.9995 -2.8197
  709MOL0     H97779   8.016   8.089   7.974 -3.5144  1.7523 -2.1464
  709MOL0     H97780   8.071   8.257   7.978 -0.3799 -0.0831 -0.3089
  709MOL0     H97781   8.119   8.233   8.226  2.5827  0.3165  0.1462
  709MOL0     H97782   8.079   8.068   8.233  1.3077 -0.9253  0.6498
  709MOL0     H97783   8.299   8.165   8.049 -2.4176 -0.3528 -2.1251
  709MOL0     H97784   8.267   7.998   8.092  1.1005 -0.6093 -0.2319
  709MOL0     H97785   8.440   8.096   8.225 -0.0237 -2.6404  0.8203
  709MOL0     H97786   8.333   8.191   8.329 -1.9295 -0.0844 -0.6290
  709MOL0     H97787   8.312   7.888   8.264 -0.6373  1.5519 -2.0636
  709MOL0     H97788   8.229   7.963   8.404 -0.8667 -3.6991 -0.5569
  709MOL0     H97789   8.447   7.994   8.525 -1.1650 -0.6456  0.7335
  709MOL0     H97790   8.401   7.833   8.492 -0.5158  0.3209 -0.4740
  709MOL0     H97791   8.681   8.095   8.402  1.5956  0.5714  2.1460
  709MOL0     H97792   8.984   7.836   8.398 -1.2591  0.0054 -0.0275
  709MOL0     H97793   8.946   7.964   8.512 -0.4417  0.4986  0.5606
  709MOL0     H97794   8.964   8.141   8.323  2.1965  0.2917  0.0953
  709MOL0     H97795   9.109   8.046   8.318  0.1623 -1.3946 -3.2075
  709MOL0     H97796   8.963   7.907   8.140  0.2245  0.3892 -0.0784
  709MOL0     H97797   8.860   8.053   8.151 -0.1506  0.7673  1.2642
  709MOL0     H97798   9.002   8.067   7.954  1.3980  0.5559 -0.7417
  709MOL0     H97799   9.024   8.195   8.063  1.5734  0.3754  0.5669
  709MOL0     H97800   9.167   8.104   7.792  1.8564  0.6504 -2.2486
  709MOL0     H97801   9.264   8.149   7.590  0.9167  1.1685 -1.5614
  709MOL0     H97802   9.420   8.254   7.591 -0.6831  0.1036 -1.6491
  709MOL0     H97803   9.261   8.326   7.590  0.9416  1.3330  1.2989
  709MOL0     H97804   9.827   8.423   7.793  0.3943  0.9025  1.8878
  709MOL0     H97805  10.026   8.585   7.765 -1.9560 -1.8281 -1.3734
  709MOL0     H97806  10.028   9.058   7.763  0.0920  1.0788  1.9430
  709MOL0     H97807   9.910   8.977   7.861  0.0846 -1.3312  0.3340
  709MOL0     H97808  10.083   9.025   8.000 -1.6438 -0.6864  0.0342
  709MOL0     H97809  10.064   8.852   7.991  2.2232 -0.2860  0.7858
  709MOL0     H97810  10.285   8.979   7.825 -1.0054 -0.5389 -0.1384
  709MOL0     H97811  10.270   8.809   7.885  0.8358  0.0559 -2.5547
  709MOL0     H97812  10.284   8.930   8.120  2.2867  0.2863  0.9428
  709MOL0     H97813  10.335   9.062   8.033  1.5373 -0.2648 -1.1664
  709MOL0     H97814  10.490   8.805   8.044  2.9742  1.1889  2.7406
  709MOL0     H97815  10.523   8.948   7.923 -1.8863  0.0019 -0.2783
  709MOL0     H97816  10.511   8.952   8.227 -1.8268  0.1425 -0.9876
  709MOL0     H97817  10.540   9.103   8.122  4.1213  0.8625 -0.8149
  709MOL0     H97818  10.731   9.008   8.029 -0.4991 -2.5897 -0.8477
  709MOL0     H97819  10.714   8.879   8.161 -0.9506 -0.6102 -1.6440
  709MOL0     H97820  10.756   9.066   8.334 -2.9353 -1.3455 -1.0020
  709MOL0     H97821  10.772   9.180   8.189  1.7362 -1.0034 -1.8544
  709MOL0     H97822   9.727   8.908   7.733 -0.8603  0.5312 -0.7610
  709MOL0     H97823   9.560   8.749   7.794  0.5366 -0.0180  1.3136
  709MOL0     H97824   9.482   8.375   8.049 -0.8231 -1.0535  1.7403
  709MOL0     H97825   9.366   8.207   8.158 -1.7283  1.4125  1.0454
  709MOL0     H97826   7.577   8.245   7.819  0.0371  0.4472 -0.7410
  709MOL0     H97827   7.415   8.205   7.643 -1.0023 -1.5677  1.9113
  709MOL0     H97828   7.356   7.958   7.243 -2.2730  0.4646  3.5981
  709MOL0     H97829   7.187   7.882   7.071  2.8576 -0.4280  1.3422
  709MOL0     H97830   7.028   7.891   6.895 -2.0938  0.6396 -2.9564
  709MOL0     H97831   6.940   7.803   7.019 -1.0923 -1.7030 -1.9138
  709MOL0     H97832   6.827   7.947   6.767  0.9279 -1.4054 -1.6273
  709MOL0     H97833   6.732   7.869   6.886 -0.0584 -2.8548 -0.8660
  709MOL0     H97834   6.953   7.724   6.752  0.4843 -0.5041  0.7646
  709MOL0     H97835   6.832   7.665   6.865  1.0913 -2.5785 -2.3664
  709MOL0     H97836   6.647   7.714   6.741  1.1412 -2.6277  2.0936
  709MOL0     H97837   6.756   7.599   6.656  1.8332  1.0430 -4.1110
  709MOL0     H97838   6.718   7.914   6.375 -0.8137  2.0563  0.7382
  709MOL0     H97839   6.960   8.226   7.160 -1.1357 -0.6489 -0.1855
  709MOL0     H97840   7.134   8.321   7.446  0.8722  1.7776 -0.1390
  709MOL0     H97841   7.165   8.410   7.291  1.8344  0.2538  1.6989
  709MOL0     H97842   7.003   8.369   7.361  0.1684 -0.7059  3.8902
  710MOL0     O97843   5.310   3.824  11.388 -0.1987  0.0113 -0.1018
  710MOL0     C97844   5.254   3.914  11.447 -0.2897  0.7163 -0.4912
  710MOL0     O97845   5.287   4.044  11.439  0.0500 -0.0625  0.2301
  710MOL0     C97846   5.410   4.079  11.401  0.1905 -0.0157  0.6322
  710MOL0     C97847   5.505   4.099  11.499 -0.0618 -1.2113 -0.1062
  710MOL0     C97848   5.634   4.140  11.463 -0.3706 -0.6594  0.0925
  710MOL0     C97849   5.663   4.144  11.322  0.2359 -0.8454  1.1361
  710MOL0     O97850   5.795   4.158  11.278 -0.1294  0.3218  0.2850
  710MOL0     C97851   5.888   4.091  11.364  0.0189  0.1516 -0.3444
  710MOL0     C97852   6.020   4.069  11.291  0.8020  0.2260  0.2047
  710MOL0     C97853   6.135   4.172  11.316  0.4096  0.1585  0.2212
  710MOL0     C97854   6.137   4.280  11.203  0.3998  0.3103 -0.1431
  710MOL0     C97855   6.245   4.384  11.233 -0.1733  0.5009 -0.7224
  710MOL0     C97856   6.389   4.333  11.239 -0.7213 -0.1039 -0.0850
  710MOL0     C97857   6.438   4.317  11.095  0.3663  0.0552  0.3251
  710MOL0     C97858   6.482   4.451  11.026  1.0898 -0.3743  0.6235
  710MOL0     N97859   6.537   4.420  10.888 -0.3471  0.2583 -0.9446
  710MOL0     C97860   6.506   4.493  10.779  0.3180 -0.2539 -0.7943
  710MOL0     C97861   6.566   4.423  10.680  0.1162 -0.6603  0.2522
  710MOL0     C97862   6.543   4.449  10.536 -0.3593 -0.4902  0.5184
  710MOL0     C97863   6.690   4.480  10.485  0.0656  0.0486  0.6286
  710MOL0     C97864   6.693   4.480  10.331 -0.4510  0.3325 -0.2254
  710MOL0     C97865   6.689   4.341  10.269  0.0566  0.4455 -0.1713
  710MOL0     O97866   6.715   4.341  10.125 -1.3863 -0.8080 -0.0134
  710MOL0     C97867   6.609   4.373  10.041 -0.2054  0.1335 -0.7374
  710MOL0     C97868   6.639   4.368   9.905 -0.0661  0.3713 -0.1033
  710MOL0     C97869   6.546   4.401   9.805 -0.3009  0.0360 -0.1430
  710MOL0     C97870   6.587   4.380   9.657  0.1283 -0.6397  0.6840
  710MOL0     C97871   6.413   4.441   9.849 -0.7998  0.5946 -0.3343
  710MOL0     C97872   6.306   4.483   9.752  0.9068 -0.8234  0.4711
  710MOL0     O97873   6.273   4.610   9.744 -0.0293  0.1919  0.8058
  710MOL0     C97874   6.147   4.636   9.709  0.2128 -1.1942 -0.9857
  710MOL0     C97875   6.128   4.685   9.582  0.8713  0.7939 -0.7069
  710MOL0     C97876   6.007   4.723   9.526 -0.7433  0.5106 -0.5573
  710MOL0     C97877   5.896   4.716   9.616 -0.5066  0.8867 -0.1764
  710MOL0     O97878   5.773   4.755   9.573  0.4901 -1.4079 -0.0494
  710MOL0     C97879   5.756   4.895   9.578  0.5549  0.5169  0.8649
  710MOL0     C97880   5.676   4.946   9.461  1.0273 -0.1225 -0.0049
  710MOL0     C97881   5.526   4.918   9.475 -0.2778  0.0261  0.0879
  710MOL0     C97882   5.457   4.895   9.343 -1.1691  0.2271 -0.0653
  710MOL0     C97883   5.304   4.872   9.354  0.5014  0.2168  0.2601
  710MOL0     C97884   5.224   4.868   9.216  0.1517 -0.2798 -0.7029
  710MOL0     C97885   5.078   4.807   9.244 -0.3904  0.0775  0.3505
  710MOL0     C97886   5.041   4.686   9.151  0.1028  0.0568  0.2671
  710MOL0    Cl97887   4.895   4.599   9.198 -0.3771  0.4266  0.1767
  710MOL0     C97888   5.906   4.650   9.742 -0.5514 -0.4643 -0.8047
  710MOL0     C97889   6.033   4.618   9.798 -0.5448  0.8499  0.0080
  710MOL0     O97890   6.253   4.392   9.688 -0.0155 -0.1834  0.3249
  710MOL0     C97891   6.382   4.443   9.987  0.1628 -0.1083  0.0041
  710MOL0     C97892   6.479   4.406  10.082  1.2467 -0.0547 -0.8394
  710MOL0     N97893   6.625   4.311  10.731 -0.4246 -0.5277 -0.0661
  710MOL0     N97894   6.607   4.307  10.857 -0.1804 -0.0781  0.9599
  710MOL0     C97895   5.568   4.119  11.224 -0.1431 -0.6976  0.6404
  710MOL0     C97896   5.437   4.086  11.262  0.0987 -0.5851  0.5316
  710MOL0     C97897   5.129   3.875  11.521 -0.2129 -0.2235 -0.4554
  710MOL0     C97898   5.058   3.759  11.479  0.4044 -0.4008  0.1603
  710MOL0     C97899   4.934   3.720  11.540 -0.5795 -0.2904  0.5222
  710MOL0     C97900   4.880   3.803  11.634  0.8651 -0.4404  0.1956
  710MOL0     O97901   4.767   3.738  11.689 -0.0280 -1.6204 -0.3512
  710MOL0     C97902   4.674   3.815  11.773 -0.2309 -0.1319 -0.4952
  710MOL0     C97903   4.530   3.754  11.772 -0.5009  1.6273 -0.0733
  710MOL0     C97904   4.458   3.779  11.634  0.2094 -0.3582  0.7593
  710MOL0     C97905   4.319   3.714  11.612 -0.5087  0.3458 -0.2015
  710MOL0     C97906   4.250   3.761  11.493  0.7387  0.5810  0.0139
  710MOL0     C97907   4.203   3.814  11.393  0.1714 -0.5502 -0.4668
  710MOL0     C97908   4.953   3.914  11.676  0.4644 -0.0399 -0.0002
  710MOL0     C97909   5.073   3.956  11.621 -0.0734  0.1373  0.0888
  710MOL0     C97910   5.141   4.075  11.683  0.6602  0.5175 -0.4906
  710MOL0     H97911   5.482   4.079  11.603  0.5940 -2.4515 -0.1872
  710MOL0     H97912   5.701   4.171  11.543 -1.5576  1.0253  0.5005
  710MOL0     H97913   5.853   3.990  11.387  1.6008 -1.3212 -3.6972
  710MOL0     H97914   5.902   4.153  11.453 -2.3470 -0.1998  0.3532
  710MOL0     H97915   6.055   3.970  11.320  0.7217  0.7621  2.3257
  710MOL0     H97916   5.996   4.070  11.184  0.0545 -0.2372  0.3551
  710MOL0     H97917   6.122   4.233  11.405  2.7903  1.7158 -0.4103
  710MOL0     H97918   6.217   4.101  11.329 -0.9692 -1.4704  0.3615
  710MOL0     H97919   6.165   4.240  11.105  1.3382  2.1151 -0.6485
  710MOL0     H97920   6.039   4.328  11.188  0.1360  0.5488  1.9684
  710MOL0     H97921   6.223   4.431  11.330  3.2467  0.4034  0.2304
  710MOL0     H97922   6.230   4.471  11.168 -1.8309  2.0334  1.5530
  710MOL0     H97923   6.454   4.401  11.295  0.4059 -1.8466  0.8333
  710MOL0     H97924   6.406   4.236  11.288  3.3093  0.4193 -0.1096
  710MOL0     H97925   6.367   4.269  11.027  1.8819 -1.6106 -0.1816
  710MOL0     H97926   6.517   4.242  11.107 -0.4499 -0.8068  0.4684
  710MOL0     H97927   6.401   4.524  11.018  1.8034  0.3205 -0.5341
  710MOL0     H97928   6.557   4.510  11.078  0.4095  0.3506  0.8085
  710MOL0     H97929   6.446   4.583  10.768  0.1570 -0.4263 -1.3473
  710MOL0     H97930   6.469   4.525  10.510 -1.0943 -0.7987  1.6542
  710MOL0     H97931   6.503   4.359  10.489  0.4795 -0.2420 -0.7185
  710MOL0     H97932   6.717   4.583  10.512 -1.2224 -0.1386  2.8682
  710MOL0     H97933   6.769   4.416  10.525 -0.9754  0.2490  3.2333
  710MOL0     H97934   6.605   4.538  10.304 -1.4854 -1.7451 -1.5654
  710MOL0     H97935   6.789   4.519  10.297 -0.5903 -0.5226 -1.6614
  710MOL0     H97936   6.757   4.277  10.326 -0.6438 -2.2788 -2.1782
  710MOL0     H97937   6.592   4.300  10.297 -0.1512  2.3749  2.1979
  710MOL0     H97938   6.731   4.328   9.864 -0.3288  0.4810 -0.8115
  710MOL0     H97939   6.495   4.343   9.610 -0.5384 -0.3909  1.7572
  710MOL0     H97940   6.663   4.303   9.640  1.7019  1.2717 -1.4975
  710MOL0     H97941   6.631   4.468   9.610  1.3864 -0.9386  1.2597
  710MOL0     H97942   6.220   4.690   9.525  0.6082  4.4398 -1.1082
  710MOL0     H97943   6.001   4.761   9.425  0.3123 -1.5734 -1.4616
  710MOL0     H97944   5.700   4.923   9.667 -1.4456  3.4129 -1.1188
  710MOL0     H97945   5.859   4.933   9.588  2.1425 -3.2687  0.5173
  710MOL0     H97946   5.686   5.055   9.453 -0.2540  0.0858  0.8808
  710MOL0     H97947   5.717   4.890   9.377 -1.7609 -3.2138  0.5084
  710MOL0     H97948   5.479   4.997   9.535 -0.6129 -1.7190  2.2472
  710MOL0     H97949   5.505   4.826   9.530  0.9767  0.4509  1.3158
  710MOL0     H97950   5.499   4.805   9.296 -2.1202  0.2623 -1.0135
  710MOL0     H97951   5.475   4.979   9.277 -0.2914 -0.6871 -1.0233
  710MOL0     H97952   5.296   4.772   9.399 -1.1917  0.3219  0.2779
  710MOL0     H97953   5.266   4.941   9.430 -0.9089 -1.5637  1.2519
  710MOL0     H97954   5.275   4.803   9.144 -2.0113 -3.4520  0.4386
  710MOL0     H97955   5.213   4.972   9.184 -0.6110  0.9987  3.1535
  710MOL0     H97956   5.008   4.890   9.229  1.1615  0.9700 -2.7335
  710MOL0     H97957   5.063   4.757   9.340 -0.3776 -0.0535  0.2848
  710MOL0     H97958   5.112   4.603   9.156 -1.7100 -1.5552  0.3940
  710MOL0     H97959   5.024   4.725   9.050  1.2195  2.4476  0.9403
  710MOL0     H97960   5.818   4.627   9.802  0.3337 -0.5479  0.5190
  710MOL0     H97961   6.047   4.583   9.900 -0.3450  1.3689  0.1634
  710MOL0     H97962   6.282   4.473  10.018  0.8658  0.2251  2.1439
  710MOL0     H97963   6.448   4.402  10.186 -2.0679 -0.0952 -1.7207
  710MOL0     H97964   5.606   4.129  11.123 -0.1232  2.1814  0.8350
  710MOL0     H97965   5.364   4.068  11.184 -2.2098  3.5653  1.4312
  710MOL0     H97966   5.102   3.697  11.401  1.6668 -1.4403  1.6315
  710MOL0     H97967   4.883   3.628  11.512  2.7843 -2.4104  0.7658
  710MOL0     H97968   4.705   3.811  11.878 -1.0426 -2.6077 -0.2951
  710MOL0     H97969   4.659   3.918  11.739 -2.3816 -1.1071 -2.8454
  710MOL0     H97970   4.467   3.784  11.856 -2.0040  0.1868 -0.6236
  710MOL0     H97971   4.535   3.645  11.783 -0.2710  1.7206  0.7657
  710MOL0     H97972   4.440   3.885  11.612 -1.8664 -0.5221  1.4594
  710MOL0     H97973   4.517   3.738  11.551 -2.3731 -2.0032 -0.3933
  710MOL0     H97974   4.255   3.735  11.698 -4.4818 -1.9345 -2.3131
  710MOL0     H97975   4.323   3.605  11.612  2.2801  0.3671  1.2769
  710MOL0     H97976   4.151   3.854  11.309 -0.0407  2.4768  0.9769
  710MOL0     H97977   4.904   3.974  11.752  0.3505  1.3762 -1.1630
  710MOL0     H97978   5.148   4.160  11.615 -3.0523  0.7338 -0.7973
  710MOL0     H97979   5.082   4.107  11.769 -1.3822 -0.7266 -1.3535
  710MOL0     H97980   5.238   4.051  11.727 -0.7215 -2.7767  1.0617
  711MOL0     O97981   9.339   0.469   3.663  0.8316  0.1666 -0.0845
  711MOL0     C97982   9.320   0.502   3.784  0.5894  0.3589 -0.1042
  711MOL0     O97983   9.257   0.422   3.881  0.1281 -0.1656  0.3072
  711MOL0     C97984   9.189   0.313   3.822 -0.4501  0.6668  0.2056
  711MOL0     C97985   9.071   0.328   3.756  0.0897 -0.1889  0.2845
  711MOL0     C97986   9.015   0.218   3.688  0.3231 -0.4283 -0.2424
  711MOL0     C97987   9.080   0.095   3.680 -0.1648 -0.0968  0.5352
  711MOL0     O97988   9.024  -0.022   3.629 -0.8983 -0.0654  0.6787
  711MOL0     C97989   8.899  -0.019   3.553 -0.1153  0.1167 -0.5836
  711MOL0     C97990   8.862  -0.160   3.511 -0.0498 -0.2942  0.9790
  711MOL0     C97991   8.845  -0.261   3.628 -0.4652  0.5187 -0.0901
  711MOL0     C97992   8.841  -0.405   3.578 -0.1103  0.4023 -0.1080
  711MOL0     C97993   8.829  -0.511   3.697 -0.5516  0.4797  0.2234
  711MOL0     C97994   8.926  -0.515   3.807  0.8043  0.9058 -0.6276
  711MOL0     C97995   8.877  -0.620   3.912 -0.3998  0.3100  0.2764
  711MOL0     C97996   8.981  -0.626   4.026 -0.8125  0.1389  0.8424
  711MOL0     N97997   8.942  -0.710   4.137  0.5425 -0.4368 -0.1082
  711MOL0     C97998   8.939  -0.846   4.143 -0.3322  0.7969 -0.1251
  711MOL0     C97999   8.932  -0.888   4.272  0.3305 -0.1354  0.5153
  711MOL0     C98000   8.919  -1.026   4.321  0.2549  1.1672 -0.2848
  711MOL0     C98001   8.990  -1.066   4.453 -0.7861  0.0668 -0.3736
  711MOL0     C98002   9.145  -1.078   4.450 -0.4875 -0.1450 -1.0680
  711MOL0     C98003   9.215  -0.949   4.488 -0.2554  0.0767 -0.3421
  711MOL0     O98004   9.356  -0.980   4.487 -0.1305 -0.6433  0.0061
  711MOL0     C98005   9.447  -0.886   4.538 -0.5646  0.1652  0.5325
  711MOL0     C98006   9.445  -0.845   4.670  0.0032 -0.0342 -0.1818
  711MOL0     C98007   9.527  -0.739   4.722 -0.0647 -0.6390 -0.2930
  711MOL0     C98008   9.518  -0.716   4.870  0.5026 -0.1506  0.9912
  711MOL0     C98009   9.606  -0.663   4.630  0.4444 -0.1534 -0.0307
  711MOL0     C98010   9.701  -0.555   4.671  0.4217  0.8377 -0.3448
  711MOL0     O98011   9.712  -0.453   4.578  0.5300  0.2159  0.1108
  711MOL0     C98012   9.807  -0.359   4.582  1.2565 -0.6559 -0.6936
  711MOL0     C98013   9.802  -0.275   4.476  0.0807 -0.0531 -0.2958
  711MOL0     C98014   9.893  -0.174   4.462  1.0964  0.5904 -0.5899
  711MOL0     C98015   9.998  -0.158   4.547 -0.9652 -0.7444 -0.0673
  711MOL0     O98016  10.105  -0.074   4.510  0.4991  0.3063 -0.7130
  711MOL0     C98017  10.178  -0.016   4.622 -0.0245 -0.1066 -0.0851
  711MOL0     C98018  10.278   0.097   4.574 -0.4613 -0.3897  0.0438
  711MOL0     C98019  10.417   0.044   4.515  0.8563  1.2087 -0.4558
  711MOL0     C98020  10.389  -0.009   4.376  0.2617  0.2437  0.4987
  711MOL0     C98021  10.510  -0.078   4.302 -0.5081 -0.3712 -0.0720
  711MOL0     C98022  10.544  -0.207   4.366  1.0707  0.6975 -0.5039
  711MOL0     C98023  10.425  -0.305   4.381  0.7843 -0.2983  0.1191
  711MOL0     C98024  10.462  -0.447   4.416 -0.5432 -0.6362 -0.3050
  711MOL0    Cl98025  10.461  -0.529   4.264 -0.2828 -0.2229 -0.1218
  711MOL0     C98026   9.995  -0.228   4.669 -1.3845 -0.3706  0.1898
  711MOL0     C98027   9.898  -0.326   4.682  0.5397  0.6726 -0.1937
  711MOL0     O98028   9.749  -0.555   4.782  0.2371  0.2217 -0.9029
  711MOL0     C98029   9.607  -0.706   4.494 -0.2622 -0.5579 -0.1066
  711MOL0     C98030   9.524  -0.813   4.446  0.4585 -0.4729  0.3293
  711MOL0     N98031   8.946  -0.770   4.344 -0.6522  0.5651  0.4283
  711MOL0     N98032   8.940  -0.663   4.266  0.2523 -0.2486 -0.1158
  711MOL0     C98033   9.199   0.082   3.747  0.0250 -0.3869 -0.2521
  711MOL0     C98034   9.254   0.187   3.818 -0.4008 -0.1765 -0.1657
  711MOL0     C98035   9.375   0.631   3.829  0.3870 -0.2963 -0.7420
  711MOL0     C98036   9.480   0.699   3.760 -0.3085  0.9730 -0.5567
  711MOL0     C98037   9.514   0.829   3.787 -0.0759  1.1559 -0.2288
  711MOL0     C98038   9.450   0.910   3.879 -0.1329  0.3724 -1.4084
  711MOL0     O98039   9.498   1.040   3.888  0.1872 -0.7627  0.3700
  711MOL0     C98040   9.447   1.135   3.984 -0.1016 -0.4745  0.8081
  711MOL0     C98041   9.381   1.259   3.911  0.1920 -0.3062  0.4516
  711MOL0     C98042   9.256   1.252   3.816 -1.1223 -0.1778  0.2398
  711MOL0     C98043   9.239   1.385   3.742 -0.4486  0.6162  0.4712
  711MOL0     C98044   9.191   1.480   3.837 -1.3097 -0.7446 -0.0661
  711MOL0     C98045   9.154   1.569   3.913  0.0293  0.0238 -0.4720
  711MOL0     C98046   9.349   0.847   3.955  0.4884  0.4372 -0.1889
  711MOL0     C98047   9.323   0.710   3.937  0.1948  0.4982  0.0818
  711MOL0     C98048   9.219   0.645   4.030  0.3360 -0.2109 -0.6446
  711MOL0     H98049   9.007   0.416   3.751  1.7244  1.0748  0.8054
  711MOL0     H98050   8.923   0.242   3.634  0.2720  0.5827  0.2695
  711MOL0     H98051   8.913   0.038   3.461 -2.2295  0.1406 -0.9227
  711MOL0     H98052   8.808   0.012   3.605 -1.4529  1.0363 -3.3172
  711MOL0     H98053   8.763  -0.153   3.463  0.0859  0.0526  0.7466
  711MOL0     H98054   8.943  -0.194   3.446 -0.5764 -1.5868  0.9579
  711MOL0     H98055   8.935  -0.261   3.690  0.6074 -0.5752 -1.5689
  711MOL0     H98056   8.762  -0.238   3.695 -0.2798  2.0455 -0.3368
  711MOL0     H98057   8.750  -0.426   3.521  0.3642 -0.7373 -0.4914
  711MOL0     H98058   8.920  -0.429   3.506 -1.1585 -0.8097 -0.8991
  711MOL0     H98059   8.834  -0.614   3.662 -0.1932 -0.0792  1.8250
  711MOL0     H98060   8.734  -0.487   3.747 -2.4806  0.0783 -3.0036
  711MOL0     H98061   9.029  -0.536   3.778  1.2862  2.8035 -0.4173
  711MOL0     H98062   8.927  -0.414   3.849 -1.3755  1.4745 -1.7793
  711MOL0     H98063   8.870  -0.720   3.867  0.6831  1.9176 -3.9880
  711MOL0     H98064   8.782  -0.585   3.954 -0.2489  1.2344 -0.1143
  711MOL0     H98065   9.075  -0.668   3.989 -1.6970 -0.9430 -0.2296
  711MOL0     H98066   8.992  -0.527   4.072  0.2246  0.0551  0.8036
  711MOL0     H98067   8.935  -0.914   4.058 -1.5397  1.3682 -0.5514
  711MOL0     H98068   8.932  -1.101   4.242 -3.4205  1.6787 -1.5477
  711MOL0     H98069   8.816  -1.036   4.355  1.3542 -3.5792  2.5006
  711MOL0     H98070   8.957  -0.996   4.530 -0.1416  0.5266 -0.5110
  711MOL0     H98071   8.959  -1.170   4.468  1.3293 -0.4043  1.1597
  711MOL0     H98072   9.182  -1.150   4.524  2.3153  0.2761 -1.9100
  711MOL0     H98073   9.178  -1.123   4.355 -0.0570 -2.2329  0.0155
  711MOL0     H98074   9.189  -0.881   4.407 -2.5620 -2.8925 -2.2942
  711MOL0     H98075   9.184  -0.902   4.582  1.1970 -0.6116  0.5301
  711MOL0     H98076   9.375  -0.891   4.739  1.0066  1.0111  1.5942
  711MOL0     H98077   9.594  -0.780   4.916 -0.0519 -1.5387  0.0412
  711MOL0     H98078   9.422  -0.743   4.915 -0.1220 -0.9419 -0.7120
  711MOL0     H98079   9.536  -0.612   4.900 -0.9300  0.3423  0.2108
  711MOL0     H98080   9.731  -0.287   4.394 -1.3414  1.2400  0.7004
  711MOL0     H98081   9.899  -0.106   4.378  1.8144 -0.7597 -1.6661
  711MOL0     H98082  10.107   0.026   4.693 -0.3855 -0.2217 -0.3763
  711MOL0     H98083  10.255  -0.083   4.663  0.7184  1.9687  2.1445
  711MOL0     H98084  10.232   0.164   4.501  2.7484  0.1802 -1.6186
  711MOL0     H98085  10.303   0.162   4.659 -2.0360 -1.5149  1.4455
  711MOL0     H98086  10.450  -0.038   4.580 -2.1453  0.8474  0.7988
  711MOL0     H98087  10.496   0.118   4.500  0.9573  0.8611 -1.7250
  711MOL0     H98088  10.364   0.074   4.309 -0.6475  0.7604  1.4579
  711MOL0     H98089  10.304  -0.077   4.383  0.1913  0.3412  0.5977
  711MOL0     H98090  10.488  -0.079   4.195 -1.3241 -3.7044  0.0138
  711MOL0     H98091  10.589  -0.003   4.312 -1.8968  0.8951  2.7785
  711MOL0     H98092  10.591  -0.171   4.458  2.4342  3.3830 -2.1276
  711MOL0     H98093  10.618  -0.253   4.300 -0.1227  0.1772 -1.5413
  711MOL0     H98094  10.369  -0.320   4.288 -1.2707 -1.6320  1.4844
  711MOL0     H98095  10.355  -0.262   4.453 -0.2287 -2.4782  0.5139
  711MOL0     H98096  10.378  -0.484   4.474  0.1479 -2.7066 -0.5660
  711MOL0     H98097  10.547  -0.464   4.483 -0.1872 -1.9274 -1.0512
  711MOL0     H98098  10.069  -0.225   4.748  0.0761 -0.8770 -1.1083
  711MOL0     H98099   9.892  -0.378   4.778  1.4607  0.5467 -0.1971
  711MOL0     H98100   9.677  -0.661   4.425 -2.1694 -1.3346 -2.7010
  711MOL0     H98101   9.522  -0.849   4.344 -3.9313 -0.9407  0.3974
  711MOL0     H98102   9.255  -0.010   3.735  1.0262  0.2908 -0.9438
  711MOL0     H98103   9.356   0.180   3.852 -0.1082 -2.9386 -1.3661
  711MOL0     H98104   9.535   0.643   3.684  0.6995 -0.6517  1.2853
  711MOL0     H98105   9.602   0.877   3.744  0.5171 -1.3554 -2.0347
  711MOL0     H98106   9.369   1.078   4.036 -2.1193  1.4314  0.0499
  711MOL0     H98107   9.524   1.172   4.051 -0.2151  0.7007  0.3213
  711MOL0     H98108   9.456   1.308   3.848 -1.1987 -1.0755 -1.9605
  711MOL0     H98109   9.346   1.324   3.991 -1.4624 -0.6374  0.0285
  711MOL0     H98110   9.290   1.172   3.749  1.7730  1.4427 -0.4101
  711MOL0     H98111   9.164   1.216   3.862 -2.0776  0.1654 -1.3520
  711MOL0     H98112   9.173   1.365   3.658 -1.2079 -2.4401  1.6496
  711MOL0     H98113   9.332   1.428   3.704 -1.5675  2.6269 -0.1365
  711MOL0     H98114   9.121   1.635   3.992 -0.0841 -3.2718  2.4663
  711MOL0     H98115   9.291   0.881   4.039  0.3518  0.1987 -0.1845
  711MOL0     H98116   9.130   0.627   3.968 -1.5774 -1.4187  2.2212
  711MOL0     H98117   9.261   0.551   4.065  0.5140 -2.0651 -5.1446
  711MOL0     H98118   9.183   0.708   4.112 -0.1197 -0.9283 -0.2770
  712MOL0     O98119   4.423   4.292  11.471  0.2689 -0.2851 -0.0388
  712MOL0     C98120   4.388   4.394  11.407 -0.9043 -0.1733 -0.1832
  712MOL0     O98121   4.429   4.532  11.421 -0.6437 -0.1986 -0.4208
  712MOL0     C98122   4.534   4.573  11.506 -0.1072  1.3868 -0.1200
  712MOL0     C98123   4.640   4.487  11.532  0.1427  0.4795  0.4452
  712MOL0     C98124   4.726   4.513  11.633 -0.6745 -0.0908  0.5662
  712MOL0     C98125   4.716   4.631  11.713 -0.8449 -0.4755  0.0128
  712MOL0     O98126   4.794   4.665  11.828  0.4574  0.2024  0.1459
  712MOL0     C98127   4.863   4.789  11.819  0.4208 -0.3216  0.0994
  712MOL0     C98128   5.008   4.781  11.870  0.1914  0.0382 -0.4107
  712MOL0     C98129   5.096   4.705  11.768 -0.5831  0.0063  0.6712
  712MOL0     C98130   5.135   4.783  11.644  0.1645 -0.7368 -0.1647
  712MOL0     C98131   5.232   4.909  11.663  0.4154  0.3206  0.1868
  712MOL0     C98132   5.274   4.938  11.517 -0.4708 -0.2898  0.0039
  712MOL0     C98133   5.326   5.076  11.487  0.0505 -0.1786  0.7896
  712MOL0     C98134   5.385   5.074  11.337  0.2046  0.0036 -0.2078
  712MOL0     N98135   5.532   5.082  11.335 -0.8635 -0.4998 -0.6566
  712MOL0     C98136   5.611   5.197  11.307 -0.8069  0.4922 -0.0783
  712MOL0     C98137   5.742   5.148  11.322 -0.0107  0.4188  0.1735
  712MOL0     C98138   5.873   5.207  11.316  0.0547 -0.5124  1.0970
  712MOL0     C98139   5.870   5.342  11.388  0.1954  0.2423 -0.0249
  712MOL0     C98140   5.872   5.326  11.543  0.6365  0.4529  0.0221
  712MOL0     C98141   5.999   5.248  11.588 -0.3235 -0.6327 -0.1750
  712MOL0     O98142   6.067   5.309  11.701  0.3139 -0.4818  0.0636
  712MOL0     C98143   6.147   5.418  11.677  0.8506  1.0023  0.1812
  712MOL0     C98144   6.177   5.482  11.554  0.6840  0.9808 -0.3050
  712MOL0     C98145   6.265   5.594  11.542  0.4431 -0.3519  0.0250
  712MOL0     C98146   6.287   5.650  11.403 -0.0458  0.0157 -0.3172
  712MOL0     C98147   6.315   5.644  11.659  0.4087 -0.4240  0.6500
  712MOL0     C98148   6.408   5.763  11.665  0.1612  0.9768  0.4257
  712MOL0     O98149   6.431   5.807  11.795  0.4611  0.4542  0.5492
  712MOL0     C98150   6.508   5.915  11.816  0.6110 -1.1792  0.1080
  712MOL0     C98151   6.566   5.926  11.947  0.3534  0.9766  0.0941
  712MOL0     C98152   6.641   6.042  11.986 -0.1536 -0.4786  0.3911
  712MOL0     C98153   6.669   6.138  11.899  0.8782 -0.5614  0.3799
  712MOL0     O98154   6.764   6.219  11.941  0.5887 -0.2409 -0.6359
  712MOL0     C98155   6.845   6.272  11.837 -0.5405  0.1386 -0.4159
  712MOL0     C98156   6.967   6.335  11.902 -0.0964  0.3241 -0.6159
  712MOL0     C98157   7.060   6.240  11.967 -1.5530 -0.7719 -0.1514
  712MOL0     C98158   7.163   6.204  11.866  0.1712 -0.6802 -0.8603
  712MOL0     C98159   7.246   6.078  11.887 -0.0940 -0.2499 -0.3307
  712MOL0     C98160   7.325   6.054  11.758 -0.0850 -0.5444 -1.3733
  712MOL0     C98161   7.419   5.926  11.773 -0.7549  0.7339 -0.4145
  712MOL0     C98162   7.444   5.868  11.637  0.9325 -0.4418 -0.3160
  712MOL0    Cl98163   7.298   5.840  11.551 -0.0284  0.3201 -0.0640
  712MOL0     C98164   6.610   6.132  11.772  0.4072  0.0010  0.2561
  712MOL0     C98165   6.523   6.027  11.730 -0.1155  0.5645  1.0202
  712MOL0     O98166   6.475   5.801  11.569 -0.0372  0.5721 -0.6553
  712MOL0     C98167   6.285   5.584  11.778 -0.3183 -0.3527  0.3645
  712MOL0     C98168   6.205   5.478  11.788  0.2502  0.1705  0.2203
  712MOL0     N98169   5.744   5.012  11.349  0.7798  0.0342 -0.3726
  712MOL0     N98170   5.614   4.974  11.358 -0.3266  0.2332  0.7334
  712MOL0     C98171   4.603   4.714  11.690 -1.0381  0.4064  0.6409
  712MOL0     C98172   4.520   4.683  11.586  0.3478  0.0777 -0.0065
  712MOL0     C98173   4.284   4.383  11.301 -0.1003 -0.0199 -0.3665
  712MOL0     C98174   4.226   4.503  11.258 -0.1496 -0.8026 -0.1728
  712MOL0     C98175   4.114   4.509  11.172 -0.1723  1.1651  0.5796
  712MOL0     C98176   4.069   4.395  11.100 -0.4762 -0.2183  0.5008
  712MOL0     O98177   3.974   4.396  10.992 -0.6455 -0.4425 -0.2094
  712MOL0     C98178   3.934   4.513  10.929  0.4302 -1.1531 -0.1296
  712MOL0     C98179   3.780   4.538  10.930 -0.0048 -0.9001 -0.1992
  712MOL0     C98180   3.742   4.683  10.975  0.7097  0.3586  0.9194
  712MOL0     C98181   3.597   4.727  10.951  1.1416 -0.6709  0.8980
  712MOL0     C98182   3.594   4.877  10.953  0.0909  0.4049  0.4019
  712MOL0     C98183   3.588   4.997  10.946 -0.4153 -0.7552 -0.1609
  712MOL0     C98184   4.121   4.274  11.152  0.2367  0.0297  0.4090
  712MOL0     C98185   4.220   4.263  11.248 -0.4209  0.4399  0.4918
  712MOL0     C98186   4.262   4.126  11.282  0.3704  0.0122 -0.0598
  712MOL0     H98187   4.655   4.403  11.465  1.0814  1.6856 -0.9428
  712MOL0     H98188   4.806   4.440  11.641  0.8025  1.2149 -1.4326
  712MOL0     H98189   4.815   4.871  11.875  1.8563 -1.5839  3.4407
  712MOL0     H98190   4.856   4.820  11.715  1.0914  1.1012  0.4465
  712MOL0     H98191   5.049   4.882  11.869  0.6293 -0.1379 -0.4237
  712MOL0     H98192   5.012   4.732  11.968  1.3904  0.0740 -0.4254
  712MOL0     H98193   5.191   4.676  11.814  1.7141  2.9505 -1.7758
  712MOL0     H98194   5.039   4.617  11.737 -0.4785  0.6798 -1.6835
  712MOL0     H98195   5.188   4.712  11.579  0.5708 -0.5698 -0.0159
  712MOL0     H98196   5.035   4.803  11.605 -0.9635 -2.2213  1.7883
  712MOL0     H98197   5.311   4.895  11.736  0.9941  2.7819  0.0867
  712MOL0     H98198   5.164   4.987  11.697 -1.9034 -2.7136  3.1198
  712MOL0     H98199   5.354   4.865  11.498 -0.6483 -0.2940 -0.7719
  712MOL0     H98200   5.189   4.935  11.448  0.7797  0.6623 -1.6532
  712MOL0     H98201   5.402   5.111  11.558  0.8966 -1.6952  0.6847
  712MOL0     H98202   5.243   5.147  11.492 -0.8587 -1.1885  0.4719
  712MOL0     H98203   5.371   4.978  11.288  1.7688 -1.2374  1.6303
  712MOL0     H98204   5.357   5.163  11.280  1.3368  2.1229  2.2873
  712MOL0     H98205   5.569   5.292  11.274 -2.0324 -0.0920 -0.2821
  712MOL0     H98206   5.899   5.225  11.212 -1.2635 -0.1468  0.8131
  712MOL0     H98207   5.949   5.136  11.349  0.3338 -0.7029  0.0741
  712MOL0     H98208   5.961   5.398  11.361  1.2353 -0.9502  0.8920
  712MOL0     H98209   5.783   5.406  11.369 -0.0191 -0.1763 -0.4617
  712MOL0     H98210   5.874   5.427  11.585  1.9669  0.9608 -1.1723
  712MOL0     H98211   5.785   5.275  11.585  1.0849 -0.2194  0.1360
  712MOL0     H98212   5.983   5.148  11.628  3.0833  0.7051  5.7474
  712MOL0     H98213   6.067   5.240  11.502  1.0399  1.7457  0.5891
  712MOL0     H98214   6.141   5.432  11.464  0.6045 -0.1548  0.3311
  712MOL0     H98215   6.258   5.755  11.395 -1.8373 -0.5423 -1.8566
  712MOL0     H98216   6.228   5.589  11.334 -0.6518  1.0758 -0.7619
  712MOL0     H98217   6.392   5.642  11.376 -0.2351  1.0573 -1.4511
  712MOL0     H98218   6.556   5.847  12.020  4.1911 -1.9268 -2.1309
  712MOL0     H98219   6.678   6.055  12.088  1.2169 -0.4547 -0.0837
  712MOL0     H98220   6.888   6.203  11.764  1.6844  0.1429  0.8167
  712MOL0     H98221   6.793   6.352  11.783  0.5401 -0.3089 -2.1743
  712MOL0     H98222   7.009   6.414  11.839  0.0190  1.2006  0.5215
  712MOL0     H98223   6.927   6.385  11.991 -0.0849 -1.8443  0.6721
  712MOL0     H98224   7.013   6.154  12.016  0.1456 -0.7337  1.6947
  712MOL0     H98225   7.120   6.285  12.047  1.0374 -1.8085 -1.4088
  712MOL0     H98226   7.240   6.279  11.881  0.6321 -1.7077  3.2690
  712MOL0     H98227   7.121   6.194  11.765  0.5947  0.3892 -1.1553
  712MOL0     H98228   7.328   6.093  11.958  1.0825  2.6462 -2.1072
  712MOL0     H98229   7.180   5.992  11.900  1.0778 -1.3241 -1.1512
  712MOL0     H98230   7.394   6.135  11.736  2.2012 -1.8460  0.6025
  712MOL0     H98231   7.247   6.049  11.681  0.0344  0.0716 -1.5371
  712MOL0     H98232   7.365   5.846  11.824  1.3414 -0.8108 -0.4735
  712MOL0     H98233   7.514   5.958  11.817 -1.1170  2.6108 -0.9115
  712MOL0     H98234   7.506   5.777  11.640  0.0739 -1.1586 -2.3280
  712MOL0     H98235   7.498   5.929  11.565 -1.0272  0.2433 -1.2690
  712MOL0     H98236   6.628   6.205  11.694  0.0120 -0.3628 -0.1809
  712MOL0     H98237   6.468   6.034  11.636 -0.6916 -4.2960  0.7140
  712MOL0     H98238   6.323   5.632  11.868  0.1959 -2.0291  1.0707
  712MOL0     H98239   6.178   5.438  11.885 -0.2852  3.5008  1.5680
  712MOL0     H98240   4.588   4.801  11.753  0.1747  0.3731  1.0094
  712MOL0     H98241   4.437   4.747  11.558  0.8437  1.3862  1.3725
  712MOL0     H98242   4.259   4.596  11.303 -0.0645  0.2435 -2.2686
  712MOL0     H98243   4.075   4.608  11.150 -1.2601  0.6692  0.2010
  712MOL0     H98244   3.971   4.602  10.981 -2.1637  0.9918 -1.6990
  712MOL0     H98245   3.987   4.514  10.833  3.4100 -0.4941  1.3992
  712MOL0     H98246   3.732   4.467  10.997 -2.2876  0.1946 -0.5892
  712MOL0     H98247   3.748   4.517  10.828 -1.5563 -1.7816  0.4353
  712MOL0     H98248   3.766   4.707  11.079 -2.1421  0.7362  1.5900
  712MOL0     H98249   3.812   4.735  10.909  1.3433  0.0235  1.3230
  712MOL0     H98250   3.533   4.684  11.028 -1.5737  0.5723 -0.5397
  712MOL0     H98251   3.553   4.694  10.856  3.4890 -0.0020 -0.5057
  712MOL0     H98252   3.599   5.103  10.936  1.1339 -0.7354  1.3526
  712MOL0     H98253   4.078   4.183  11.111 -0.0105 -0.7994  2.4125
  712MOL0     H98254   4.238   4.052  11.205  1.8541  1.7371 -2.2765
  712MOL0     H98255   4.370   4.117  11.294  0.8754 -0.8758 -3.9944
  712MOL0     H98256   4.212   4.100  11.376  2.3814 -2.1827  0.5121
  713MOL0     O98257   5.202   6.142   8.062  1.0297 -0.6537 -0.0639
  713MOL0     C98258   5.149   6.243   8.020  0.7237 -0.7923 -0.6918
  713MOL0     O98259   5.213   6.346   7.964  0.0910  0.0898  0.4783
  713MOL0     C98260   5.349   6.368   7.957  0.3838 -0.4815 -0.3184
  713MOL0     C98261   5.452   6.270   7.959  0.2951 -0.1166  0.4061
  713MOL0     C98262   5.585   6.308   7.965  0.6199  0.8541 -0.8666
  713MOL0     C98263   5.616   6.441   7.967 -0.2056  0.1288  0.2417
  713MOL0     O98264   5.753   6.484   7.982  0.4209 -0.3333 -0.0686
  713MOL0     C98265   5.839   6.480   7.865  0.4185 -0.1558  0.1361
  713MOL0     C98266   5.979   6.513   7.908  0.0864  1.1625  0.5386
  713MOL0     C98267   5.996   6.657   7.932 -0.5285 -0.5013 -0.7161
  713MOL0     C98268   6.140   6.684   7.989  0.3087  0.1867 -0.4779
  713MOL0     C98269   6.173   6.829   7.985 -0.7150 -0.1016  0.2125
  713MOL0     C98270   6.166   6.893   7.852 -0.5237  0.1681  0.3001
  713MOL0     C98271   6.194   7.042   7.848 -0.4269 -0.0678 -0.1689
  713MOL0     C98272   6.103   7.139   7.926 -0.1366 -0.2490  0.6186
  713MOL0     N98273   6.095   7.272   7.858 -0.7162 -0.4507  0.0204
  713MOL0     C98274   5.977   7.313   7.809  0.2357 -1.2974 -0.3419
  713MOL0     C98275   6.001   7.446   7.783 -0.0208  0.3141 -0.6147
  713MOL0     C98276   5.906   7.556   7.747  0.0499 -0.6118 -0.0049
  713MOL0     C98277   5.960   7.694   7.730 -0.0517 -0.4917  0.0731
  713MOL0     C98278   5.849   7.797   7.692 -0.9366  0.6601  0.3392
  713MOL0     C98279   5.854   7.937   7.746  0.2853  0.8618  1.0590
  713MOL0     O98280   5.980   7.988   7.714 -0.2549  0.3876  0.7134
  713MOL0     C98281   6.015   8.112   7.752 -0.5676  0.0239 -0.1519
  713MOL0     C98282   6.137   8.153   7.695 -0.2995 -0.4898  0.4570
  713MOL0     C98283   6.206   8.274   7.730  0.1757  0.9141  0.9105
  713MOL0     C98284   6.338   8.311   7.653  0.3854 -0.4655  0.2465
  713MOL0     C98285   6.138   8.357   7.824  0.2657 -0.5835 -0.2575
  713MOL0     C98286   6.190   8.497   7.874  0.2444 -0.3992  0.6044
  713MOL0     O98287   6.115   8.554   7.971 -0.4431 -0.0570  0.8672
  713MOL0     C98288   6.152   8.680   8.021 -0.6694 -0.6528 -0.3048
  713MOL0     C98289   6.224   8.691   8.146  0.6956  0.8159 -0.1588
  713MOL0     C98290   6.241   8.817   8.198  0.5669  0.0328 -0.4177
  713MOL0     C98291   6.192   8.938   8.137 -0.0461 -0.2344  0.0228
  713MOL0     O98292   6.237   9.055   8.175  0.4160  0.1484 -0.6499
  713MOL0     C98293   6.274   9.077   8.316 -0.6350 -0.2035 -0.3603
  713MOL0     C98294   6.309   9.228   8.339 -0.2786  0.2481  0.1030
  713MOL0     C98295   6.382   9.222   8.478 -0.2958  0.2346  0.5965
  713MOL0     C98296   6.421   9.367   8.503 -0.2603 -0.3507 -0.5813
  713MOL0     C98297   6.477   9.387   8.645 -0.0648 -1.5235 -0.9216
  713MOL0     C98298   6.484   9.537   8.679 -0.8142  0.3659 -0.7721
  713MOL0     C98299   6.526   9.548   8.822  0.4969 -0.1586  0.7115
  713MOL0     C98300   6.484   9.690   8.869  0.3778  0.9790  0.0826
  713MOL0    Cl98301   6.306   9.703   8.880 -0.0102  0.5034 -0.2989
  713MOL0     C98302   6.112   8.914   8.021 -0.6933 -0.1093 -0.9378
  713MOL0     C98303   6.099   8.792   7.967  0.7867  0.8158 -0.5022
  713MOL0     O98304   6.269   8.558   7.807 -0.8699 -0.6633 -0.3321
  713MOL0     C98305   6.012   8.312   7.880 -0.6972 -0.3748 -0.0353
  713MOL0     C98306   5.951   8.194   7.837 -0.8072  0.2976 -0.5645
  713MOL0     N98307   6.134   7.472   7.795 -0.0195  0.0533 -0.3636
  713MOL0     N98308   6.193   7.370   7.843  0.1210  0.2978  0.2336
  713MOL0     C98309   5.524   6.536   7.960  0.3759 -0.7705  0.1403
  713MOL0     C98310   5.390   6.502   7.946 -0.5765  0.3350 -1.4824
  713MOL0     C98311   5.003   6.251   8.032  0.4724 -0.8432  1.2801
  713MOL0     C98312   4.946   6.176   8.130 -0.5649  0.2592  0.0858
  713MOL0     C98313   4.807   6.179   8.148  0.0559 -0.4121  0.6735
  713MOL0     C98314   4.724   6.256   8.067 -0.1365 -0.6328 -0.8191
  713MOL0     O98315   4.591   6.249   8.099 -0.2657  0.5566  0.3273
  713MOL0     C98316   4.493   6.333   8.034 -0.4395  0.3972 -0.0132
  713MOL0     C98317   4.348   6.290   8.056  0.0338  0.0710  1.1396
  713MOL0     C98318   4.264   6.343   7.938  0.5185 -0.2542  0.3152
  713MOL0     C98319   4.109   6.343   7.973 -0.6658 -1.6113 -0.5753
  713MOL0     C98320   4.092   6.441   8.088 -0.3620  0.7928  0.1437
  713MOL0     C98321   4.079   6.505   8.185  0.5294  0.0438  0.1181
  713MOL0     C98322   4.777   6.334   7.968 -0.3933 -0.5429 -0.4750
  713MOL0     C98323   4.919   6.335   7.946 -0.2073 -0.2917  0.6321
  713MOL0     C98324   4.974   6.413   7.818 -0.8017 -0.7723 -0.4869
  713MOL0     H98325   5.435   6.162   7.960 -1.3709  0.1197  0.4523
  713MOL0     H98326   5.668   6.241   7.983  0.9916  1.1811 -1.3522
  713MOL0     H98327   5.798   6.552   7.793  0.6771  2.2829  2.2794
  713MOL0     H98328   5.827   6.379   7.826 -1.1883 -0.0570  0.2921
  713MOL0     H98329   6.009   6.450   7.992  1.5226  2.7180  1.2383
  713MOL0     H98330   6.047   6.502   7.823 -0.1153 -0.8291  0.5816
  713MOL0     H98331   5.968   6.719   7.847  0.5458  0.9714 -0.0434
  713MOL0     H98332   5.935   6.692   8.015 -1.1795 -4.3035  0.6232
  713MOL0     H98333   6.133   6.665   8.096 -0.1217 -0.5396 -0.6244
  713MOL0     H98334   6.218   6.621   7.943 -0.3868 -2.4259  1.6315
  713MOL0     H98335   6.280   6.835   8.009 -0.3030 -1.0597 -1.2146
  713MOL0     H98336   6.120   6.886   8.061  0.0721  2.5821 -1.1466
  713MOL0     H98337   6.227   6.837   7.781 -4.3163 -0.7643 -2.5407
  713MOL0     H98338   6.066   6.880   7.809 -0.8409  0.0857  1.0471
  713MOL0     H98339   6.173   7.071   7.745  2.3139  0.2512 -0.7246
  713MOL0     H98340   6.299   7.065   7.867  0.7754 -2.3378 -3.3338
  713MOL0     H98341   6.004   7.094   7.936  0.9501 -3.3199 -1.1781
  713MOL0     H98342   6.129   7.157   8.031 -1.7710  3.8812  0.5219
  713MOL0     H98343   5.885   7.254   7.804 -1.0914  0.7248 -1.0738
  713MOL0     H98344   5.827   7.553   7.823 -0.2198 -2.1297 -0.2983
  713MOL0     H98345   5.860   7.523   7.653 -0.3106 -0.9633  0.2928
  713MOL0     H98346   6.019   7.730   7.815  2.0804 -1.8550 -0.7470
  713MOL0     H98347   6.033   7.693   7.648  0.8900 -0.1142  0.8901
  713MOL0     H98348   5.847   7.811   7.584 -2.2860  1.8165  0.4924
  713MOL0     H98349   5.751   7.760   7.724  0.6003 -2.2409  2.1798
  713MOL0     H98350   5.774   8.000   7.709  0.6814  1.5171  1.3009
  713MOL0     H98351   5.844   7.916   7.853 -1.2833 -2.3580  0.3979
  713MOL0     H98352   6.192   8.094   7.623 -0.6876 -1.8339  1.2313
  713MOL0     H98353   6.322   8.261   7.557 -0.7776 -1.5476  0.9711
  713MOL0     H98354   6.431   8.285   7.704  2.2997  2.9747 -1.1181
  713MOL0     H98355   6.358   8.417   7.636  3.0411 -0.7328  1.1566
  713MOL0     H98356   6.257   8.606   8.205  1.2681  1.5309  0.5908
  713MOL0     H98357   6.316   8.826   8.276  1.5533 -0.4126 -1.2919
  713MOL0     H98358   6.187   9.056   8.379  0.6488 -0.6483  1.3477
  713MOL0     H98359   6.362   9.016   8.340 -1.1399 -1.9235 -2.5417
  713MOL0     H98360   6.374   9.258   8.257 -1.8451 -1.0686 -1.7149
  713MOL0     H98361   6.219   9.291   8.342 -0.6660 -0.2392 -0.7503
  713MOL0     H98362   6.477   9.169   8.487  2.8454  4.9792 -0.9304
  713MOL0     H98363   6.305   9.188   8.548 -1.1208  2.6414  0.9527
  713MOL0     H98364   6.355   9.452   8.482  2.5868  2.1352 -0.1138
  713MOL0     H98365   6.506   9.388   8.438  0.4881 -0.0266  0.4719
  713MOL0     H98366   6.416   9.328   8.715 -1.0790 -0.8971 -1.2505
  713MOL0     H98367   6.582   9.358   8.638  1.2958  2.8110 -1.4191
  713MOL0     H98368   6.392   9.590   8.652 -1.1290  1.1830  1.6111
  713MOL0     H98369   6.557   9.580   8.610 -0.9720  1.5477 -0.2303
  713MOL0     H98370   6.633   9.526   8.832  0.8724  0.8007 -0.7424
  713MOL0     H98371   6.470   9.474   8.879  2.6461 -4.1163 -1.8577
  713MOL0     H98372   6.526   9.768   8.805  0.9829 -0.9254 -1.9237
  713MOL0     H98373   6.531   9.706   8.967  0.1494  1.8177  0.0631
  713MOL0     H98374   6.087   8.997   7.957  0.7388  2.1094  1.1863
  713MOL0     H98375   6.045   8.782   7.874 -1.7619 -0.4833  0.9895
  713MOL0     H98376   5.963   8.381   7.949 -1.2837 -0.3346 -0.4833
  713MOL0     H98377   5.855   8.163   7.877 -0.2677  0.7000  1.1387
  713MOL0     H98378   5.557   6.640   7.956  0.0494 -0.6626  0.1862
  713MOL0     H98379   5.314   6.580   7.943 -0.0263  1.1603  1.8533
  713MOL0     H98380   5.007   6.110   8.191  2.0079  0.6748 -1.8690
  713MOL0     H98381   4.760   6.122   8.227 -0.6426  0.1614  0.6852
  713MOL0     H98382   4.506   6.435   8.072  0.2669 -0.3290  1.7681
  713MOL0     H98383   4.503   6.329   7.925  0.7417  1.2339  0.0400
  713MOL0     H98384   4.308   6.326   8.151 -1.9837  1.2299 -0.0872
  713MOL0     H98385   4.335   6.181   8.064 -0.8278 -0.0545 -1.2620
  713MOL0     H98386   4.289   6.446   7.913 -0.0479  0.4403  2.4358
  713MOL0     H98387   4.284   6.284   7.848  3.0656 -0.5001  0.9782
  713MOL0     H98388   4.064   6.246   7.998 -2.5737 -0.1525  2.2799
  713MOL0     H98389   4.061   6.398   7.891  0.8521  0.2564 -0.2858
  713MOL0     H98390   4.075   6.557   8.279  2.2030  1.7747 -0.7037
  713MOL0     H98391   4.708   6.388   7.903 -2.2849 -2.1553  0.1102
  713MOL0     H98392   5.040   6.493   7.853 -0.3243 -0.8243 -1.2372
  713MOL0     H98393   5.024   6.338   7.756  2.1503  0.8977 -0.3134
  713MOL0     H98394   4.905   6.476   7.761  1.4063  4.2865  1.8237
  714MOL0     O98395   2.157  10.741  10.030  0.6510  0.0664 -0.2549
  714MOL0     C98396   2.203  10.726  10.138  0.1520 -0.0244  0.6499
  714MOL0     O98397   2.154  10.777  10.245 -0.6450 -0.2347 -0.4870
  714MOL0     C98398   2.063  10.882  10.249  0.4763 -0.0066  0.4687
  714MOL0     C98399   2.104  11.006  10.301 -0.1423  1.1685  0.4686
  714MOL0     C98400   2.009  11.114  10.308  0.8044 -0.0718 -0.1063
  714MOL0     C98401   1.877  11.095  10.273  0.5287  0.4524  0.3981
  714MOL0     O98402   1.783  11.198  10.288 -0.4426  0.1329  0.1361
  714MOL0     C98403   1.817  11.326  10.235 -0.1893 -0.0294 -0.4845
  714MOL0     C98404   1.679  11.398  10.204  0.4313  0.6330  0.2775
  714MOL0     C98405   1.695  11.540  10.144 -0.5422 -0.1146  0.2806
  714MOL0     C98406   1.745  11.524   9.997  0.3638  0.0771  0.1950
  714MOL0     C98407   1.773  11.663   9.952 -0.3627  0.0758  1.0353
  714MOL0     C98408   1.869  11.666   9.835 -0.5270  0.9876  0.0537
  714MOL0     C98409   1.879  11.802   9.773 -0.9868 -0.7885  0.2915
  714MOL0     C98410   1.941  11.912   9.868  0.9296  0.1459 -0.0702
  714MOL0     N98411   2.085  11.911   9.859  0.6769 -0.1869 -0.2871
  714MOL0     C98412   2.173  11.827   9.920 -0.8059 -0.4429 -0.3005
  714MOL0     C98413   2.294  11.860   9.880 -0.1745  0.1164  0.2226
  714MOL0     C98414   2.425  11.808   9.947  1.1202 -0.0478  0.5386
  714MOL0     C98415   2.436  11.883  10.084 -0.0492 -0.4835 -0.4041
  714MOL0     C98416   2.578  11.904  10.145  0.6910 -0.3712  0.3113
  714MOL0     C98417   2.589  12.010  10.268  0.2197  0.3157 -1.1279
  714MOL0     O98418   2.703  11.981  10.342 -0.1303 -0.4766  0.0562
  714MOL0     C98419   2.772  12.080  10.409  0.0979 -0.4313  0.5942
  714MOL0     C98420   2.881  12.039  10.476  0.2366  0.2805  0.0443
  714MOL0     C98421   2.969  12.123  10.551 -0.0026 -0.0909 -0.3698
  714MOL0     C98422   3.094  12.058  10.603 -0.0418  0.3115  0.7939
  714MOL0     C98423   2.951  12.263  10.552  0.1599 -0.1396  0.1850
  714MOL0     C98424   3.021  12.376  10.625  0.4791  0.9917 -0.0993
  714MOL0     O98425   3.009  12.507  10.599 -0.1682 -0.2509 -0.3426
  714MOL0     C98426   3.044  12.586  10.708 -0.3977  0.3364  1.1962
  714MOL0     C98427   3.175  12.638  10.704  0.0001  0.7116  0.6388
  714MOL0     C98428   3.225  12.730  10.792  0.6407 -0.8415 -0.2056
  714MOL0     C98429   3.136  12.774  10.898 -0.8729  0.8701  0.2340
  714MOL0     O98430   3.176  12.873  10.983 -0.3112 -0.1108 -0.5257
  714MOL0     C98431   3.307  12.856  11.047 -0.6319 -0.9224  0.9407
  714MOL0     C98432   3.328  12.909  11.182 -0.6256 -0.1159  0.0196
  714MOL0     C98433   3.212  12.883  11.280  0.6626  0.0011  0.6514
  714MOL0     C98434   3.236  12.971  11.410 -0.7219  0.1004  0.3953
  714MOL0     C98435   3.167  12.927  11.537 -0.6786  0.7029  0.4057
  714MOL0     C98436   3.020  12.962  11.556 -0.0182 -0.0738  0.8384
  714MOL0     C98437   2.964  12.906  11.695 -0.2985  0.4384 -0.2112
  714MOL0     C98438   2.814  12.922  11.714  0.4904  0.0124 -0.3992
  714MOL0    Cl98439   2.763  13.092  11.692  0.2680  0.0333  0.0520
  714MOL0     C98440   3.006  12.710  10.910 -1.0468 -0.3451  0.2436
  714MOL0     C98441   2.955  12.619  10.815  0.7155  0.2463  0.6822
  714MOL0     O98442   3.114  12.322  10.691 -0.2369  0.0447 -0.4582
  714MOL0     C98443   2.838  12.308  10.480  0.1458 -0.9675  0.3210
  714MOL0     C98444   2.750  12.215  10.410  0.1299 -0.3740 -0.5901
  714MOL0     N98445   2.281  11.965   9.793  0.2058 -0.4760 -0.3878
  714MOL0     N98446   2.153  11.991   9.773 -0.8265 -0.4167 -0.0887
  714MOL0     C98447   1.834  10.969  10.229 -0.3851  0.2766 -0.4255
  714MOL0     C98448   1.921  10.865  10.222 -0.0270  0.0248 -0.2415
  714MOL0     C98449   2.336  10.663  10.152  1.0548  0.1107  0.1373
  714MOL0     C98450   2.444  10.752  10.164  0.2741  0.3744 -0.3441
  714MOL0     C98451   2.574  10.694  10.162  0.7376 -1.0330  0.4093
  714MOL0     C98452   2.595  10.553  10.140  0.0222  1.3237  0.2429
  714MOL0     O98453   2.720  10.500  10.109 -0.7326 -0.1926 -0.6107
  714MOL0     C98454   2.824  10.549  10.195 -0.5164 -1.0272 -0.2075
  714MOL0     C98455   2.950  10.462  10.175  0.0238  0.1414 -0.2507
  714MOL0     C98456   2.927  10.320  10.233  0.2815  0.3366  0.2929
  714MOL0     C98457   3.038  10.234  10.176 -0.5603 -0.2066 -0.1569
  714MOL0     C98458   3.159  10.258  10.269  0.0383  0.4020  0.1826
  714MOL0     C98459   3.249  10.247  10.347  0.4393  0.1662 -0.1561
  714MOL0     C98460   2.485  10.469  10.113  0.9475 -0.3123  0.0746
  714MOL0     C98461   2.356  10.524  10.126 -0.4579 -0.5266  0.1091
  714MOL0     C98462   2.242  10.436  10.102  0.7964  0.3287  0.6624
  714MOL0     H98463   2.209  11.018  10.325  0.3235  0.2634 -0.9746
  714MOL0     H98464   2.058  11.209  10.330  2.3529 -0.8630 -0.0006
  714MOL0     H98465   1.886  11.311  10.151  1.1366 -0.1852  0.5957
  714MOL0     H98466   1.869  11.383  10.312  0.5968  1.1644 -1.8469
  714MOL0     H98467   1.622  11.322  10.150  1.1026 -0.2135  0.7391
  714MOL0     H98468   1.628  11.408  10.300 -1.5231  1.3921 -0.7880
  714MOL0     H98469   1.597  11.587  10.153 -2.8540 -4.2082 -0.7955
  714MOL0     H98470   1.770  11.598  10.199  2.0606 -1.5125 -1.5597
  714MOL0     H98471   1.841  11.473   9.999  1.1116  1.0665 -3.2538
  714MOL0     H98472   1.671  11.472   9.936  1.0850  0.3992 -0.9779
  714MOL0     H98473   1.816  11.714  10.039  5.8434 -2.3813 -0.1039
  714MOL0     H98474   1.677  11.706   9.922  0.3041  0.0294 -1.4131
  714MOL0     H98475   1.968  11.627   9.862 -0.7792  0.5602  0.3683
  714MOL0     H98476   1.837  11.596   9.758  0.3333 -0.6462  1.1080
  714MOL0     H98477   1.778  11.821   9.738 -1.1545 -5.2932 -2.5597
  714MOL0     H98478   1.939  11.796   9.681 -1.3809  1.0612 -0.1171
  714MOL0     H98479   1.903  12.007   9.829 -3.0117 -1.5901 -0.9789
  714MOL0     H98480   1.915  11.909   9.974  1.6189 -1.4359  0.0807
  714MOL0     H98481   2.155  11.750   9.993  1.6686 -1.3400 -0.5424
  714MOL0     H98482   2.507  11.834   9.880  0.5059 -4.1899 -2.2404
  714MOL0     H98483   2.429  11.698   9.950  2.9380 -0.0384 -0.2372
  714MOL0     H98484   2.390  11.981  10.065 -3.5730 -2.1864 -1.5173
  714MOL0     H98485   2.366  11.838  10.154 -0.1057  0.4978  0.1907
  714MOL0     H98486   2.596  11.800  10.172 -1.1660 -2.0570 -4.0826
  714MOL0     H98487   2.651  11.926  10.066  1.1737 -1.3317  0.4824
  714MOL0     H98488   2.579  12.109  10.222 -1.2976  0.2486 -0.9899
  714MOL0     H98489   2.508  12.005  10.341  0.0707  0.4595 -1.2812
  714MOL0     H98490   2.898  11.932  10.483  0.7438  0.3531 -0.0362
  714MOL0     H98491   3.098  11.950  10.620  0.4285  0.4846  1.8750
  714MOL0     H98492   3.124  12.081  10.706 -4.4852 -2.0107  2.9256
  714MOL0     H98493   3.175  12.091  10.537  1.0340 -0.8531  1.4728
  714MOL0     H98494   3.222  12.616  10.608 -2.1835 -1.9792  0.0468
  714MOL0     H98495   3.316  12.787  10.776 -1.4503  3.2765  0.8551
  714MOL0     H98496   3.352  12.757  11.042  1.9906  0.2459 -1.2667
  714MOL0     H98497   3.379  12.912  10.987 -2.6960 -0.7287 -1.5585
  714MOL0     H98498   3.418  12.866  11.227 -1.8822 -1.1970  1.6362
  714MOL0     H98499   3.331  13.017  11.171 -0.4931 -0.0141  1.0122
  714MOL0     H98500   3.211  12.779  11.313  2.3559  0.5550  2.7069
  714MOL0     H98501   3.127  12.910  11.216  0.9480  1.4175  0.8230
  714MOL0     H98502   3.215  13.074  11.380 -0.7175  0.0296  0.1390
  714MOL0     H98503   3.344  12.963  11.423 -0.6462  2.0461  1.2229
  714MOL0     H98504   3.176  12.820  11.558 -1.4541  0.5435 -0.0476
  714MOL0     H98505   3.219  12.980  11.617  0.1537  0.3604  0.1043
  714MOL0     H98506   2.967  12.922  11.469 -3.4041  1.8867  1.8354
  714MOL0     H98507   3.021  13.071  11.545  1.9288 -0.0699  0.6032
  714MOL0     H98508   3.015  12.962  11.774 -1.1925 -1.8162  2.1087
  714MOL0     H98509   2.972  12.797  11.697 -2.0159  0.2793 -0.8120
  714MOL0     H98510   2.770  12.875  11.802 -1.5144 -1.6084 -2.1426
  714MOL0     H98511   2.775  12.847  11.644  0.6859 -2.8848  2.3644
  714MOL0     H98512   2.946  12.750  10.991 -1.4838 -0.7224  0.1124
  714MOL0     H98513   2.854  12.579  10.818 -0.3561  2.0802 -3.5324
  714MOL0     H98514   2.817  12.413  10.466 -1.0409 -1.2484 -0.0876
  714MOL0     H98515   2.667  12.260  10.356 -0.3518 -0.9791 -0.3700
  714MOL0     H98516   1.726  10.967  10.220 -0.5566  4.0778 -0.9424
  714MOL0     H98517   1.887  10.770  10.184 -1.1643  0.6473 -0.8263
  714MOL0     H98518   2.427  10.860  10.170 -0.5114  0.2193  0.6793
  714MOL0     H98519   2.650  10.772  10.164 -0.6060  0.3207  0.3329
  714MOL0     H98520   2.843  10.650  10.158  1.2889 -1.5300 -0.7672
  714MOL0     H98521   2.788  10.550  10.299 -1.7720 -0.1890 -0.6288
  714MOL0     H98522   3.037  10.507  10.224 -0.7458  0.9497  0.4075
  714MOL0     H98523   2.967  10.463  10.067  0.6334  4.6660 -0.2913
  714MOL0     H98524   2.921  10.327  10.342 -3.6601 -1.0445  0.3287
  714MOL0     H98525   2.831  10.286  10.192  0.4817 -1.2796  1.0937
  714MOL0     H98526   3.072  10.263  10.077  1.6563 -0.7913  0.3836
  714MOL0     H98527   3.011  10.128  10.173 -0.0321 -0.3269 -1.1596
  714MOL0     H98528   3.338  10.245  10.406 -0.2400 -1.8785  0.8731
  714MOL0     H98529   2.498  10.365  10.088  1.6728  0.3028 -2.3929
  714MOL0     H98530   2.195  10.469  10.009  0.3335  0.2903  0.8771
  714MOL0     H98531   2.279  10.333  10.102 -0.8031 -0.3128 -1.3516
  714MOL0     H98532   2.157  10.452  10.169 -0.9724  1.8902 -1.7753
  715MOL0     O98533   7.569   3.265   3.463 -0.0595 -0.4568  0.3570
  715MOL0     C98534   7.561   3.174   3.382  0.0017  0.3813 -0.0692
  715MOL0     O98535   7.668   3.119   3.327 -0.1618  0.2687  0.0231
  715MOL0     C98536   7.798   3.158   3.347 -0.0579 -0.2539 -0.0778
  715MOL0     C98537   7.867   3.153   3.473  0.4866  0.6549  0.9233
  715MOL0     C98538   7.998   3.203   3.487 -0.0741 -1.1670 -0.7926
  715MOL0     C98539   8.061   3.265   3.387  0.0046 -0.4717 -0.2060
  715MOL0     O98540   8.191   3.308   3.383 -0.2113 -0.1185  0.2701
  715MOL0     C98541   8.251   3.343   3.510 -0.8582 -0.2510 -0.2053
  715MOL0     C98542   8.401   3.360   3.478  0.8099  0.2251  0.3746
  715MOL0     C98543   8.466   3.428   3.596  0.0343  1.0429 -0.1084
  715MOL0     C98544   8.614   3.436   3.592  0.0312 -0.1052  0.0815
  715MOL0     C98545   8.689   3.303   3.557 -0.2185  0.0513 -1.5284
  715MOL0     C98546   8.836   3.320   3.580 -1.1989  0.6211  0.5535
  715MOL0     C98547   8.866   3.338   3.729  0.8063 -0.3086  0.3659
  715MOL0     C98548   9.019   3.375   3.746  0.2834  0.1712  0.3273
  715MOL0     N98549   9.057   3.325   3.874 -0.0321 -1.4015 -0.8697
  715MOL0     C98550   9.160   3.230   3.879 -0.3282 -0.4070  0.3139
  715MOL0     C98551   9.182   3.231   4.012 -0.0354  0.5465 -0.9896
  715MOL0     C98552   9.289   3.148   4.068 -0.1263 -0.2341 -0.3773
  715MOL0     C98553   9.431   3.219   4.071 -0.8278 -0.7455  0.0247
  715MOL0     C98554   9.441   3.338   4.160  0.2654  0.4764 -0.1735
  715MOL0     C98555   9.578   3.368   4.206  0.2435 -0.0880 -0.0082
  715MOL0     O98556   9.670   3.395   4.095 -0.0130  0.2357  0.1127
  715MOL0     C98557   9.789   3.454   4.135 -0.1870  0.7510  0.1091
  715MOL0     C98558   9.870   3.492   4.027 -0.2523  0.1864  0.0919
  715MOL0     C98559   9.993   3.557   4.040 -0.1192 -0.0890  0.1580
  715MOL0     C98560  10.045   3.635   3.921 -0.0309  0.4937  0.2182
  715MOL0     C98561  10.043   3.567   4.174  0.2111 -0.5763  0.3721
  715MOL0     C98562  10.179   3.623   4.202  0.4581 -0.7972  0.7624
  715MOL0     O98563  10.265   3.643   4.101 -0.6174  0.3828 -0.3724
  715MOL0     C98564  10.403   3.675   4.115 -0.5889 -0.4943  0.6017
  715MOL0     C98565  10.492   3.671   4.229 -0.3904 -0.5736  0.4319
  715MOL0     C98566  10.626   3.707   4.215  0.1180 -0.6682 -0.8013
  715MOL0     C98567  10.674   3.767   4.102  0.9818 -0.5432  0.2503
  715MOL0     O98568  10.793   3.825   4.075  0.1320 -0.0993 -0.2970
  715MOL0     C98569  10.913   3.813   4.159  0.4904  0.7644  0.0819
  715MOL0     C98570  11.022   3.903   4.132 -0.3487 -0.2499  0.7548
  715MOL0     C98571  11.074   3.879   3.978  0.1130 -0.5709  0.2049
  715MOL0     C98572  11.200   3.947   3.947  0.4672  0.3159  0.5500
  715MOL0     C98573  11.322   3.884   4.013  0.1248  0.0826 -0.4527
  715MOL0     C98574  11.435   3.983   4.018 -0.7612  0.1194 -1.4982
  715MOL0     C98575  11.552   3.933   4.107  0.9334 -0.3077 -1.0033
  715MOL0     C98576  11.645   3.837   4.036  0.4207 -0.4055  0.8227
  715MOL0    Cl98577  11.763   3.923   3.931 -0.4102 -0.2539  0.2955
  715MOL0     C98578  10.587   3.753   3.989 -0.6626  0.4659  0.4800
  715MOL0     C98579  10.455   3.718   3.996  0.3444  0.5246  0.3919
  715MOL0     O98580  10.221   3.624   4.321 -0.5719 -0.6197  0.1260
  715MOL0     C98581   9.963   3.533   4.283 -0.6279 -0.5932  0.4331
  715MOL0     C98582   9.844   3.471   4.265  0.3507  0.1617  0.6975
  715MOL0     N98583   9.102   3.328   4.074  0.1689 -0.8063 -0.5702
  715MOL0     N98584   9.029   3.384   3.992  0.4095 -0.2653 -1.3034
  715MOL0     C98585   7.993   3.274   3.267 -0.5882  0.5886 -0.5475
  715MOL0     C98586   7.861   3.223   3.239  0.6300  0.0071 -0.3028
  715MOL0     C98587   7.424   3.130   3.333 -0.3153 -0.0518 -0.3507
  715MOL0     C98588   7.419   3.073   3.204 -0.8109 -0.5511  0.4389
  715MOL0     C98589   7.289   3.020   3.160 -0.6442 -0.0916 -0.2263
  715MOL0     C98590   7.177   3.031   3.241 -0.0494 -0.4910  0.4081
  715MOL0     O98591   7.055   2.998   3.196  0.8627 -0.1600 -0.1232
  715MOL0     C98592   7.037   2.857   3.183 -0.7557 -0.2979  0.3871
  715MOL0     C98593   6.912   2.817   3.101 -0.2857  0.0198 -0.7969
  715MOL0     C98594   6.789   2.822   3.195 -0.2966  0.3958  0.5542
  715MOL0     C98595   6.658   2.768   3.131 -0.5970 -0.3566  0.1653
  715MOL0     C98596   6.668   2.631   3.106 -0.2902  0.5946 -0.0434
  715MOL0     C98597   6.677   2.512   3.083 -0.9028  0.2474  0.2620
  715MOL0     C98598   7.183   3.111   3.359  0.0383 -0.0709  0.2403
  715MOL0     C98599   7.307   3.162   3.403 -0.5171 -0.5980 -0.4644
  715MOL0     C98600   7.308   3.237   3.530  0.9286  0.0720  0.5513
  715MOL0     H98601   7.811   3.104   3.552 -1.0668 -1.5820 -1.3940
  715MOL0     H98602   8.050   3.196   3.582 -1.3377  3.8777  0.5752
  715MOL0     H98603   8.238   3.268   3.589 -1.0483  1.6518  1.6726
  715MOL0     H98604   8.212   3.441   3.541  1.0896  0.6368 -0.4198
  715MOL0     H98605   8.432   3.256   3.470 -1.2791 -0.4757  0.7621
  715MOL0     H98606   8.412   3.411   3.382 -1.8874 -0.4935 -0.4209
  715MOL0     H98607   8.423   3.529   3.596 -1.4920  0.5089 -3.1676
  715MOL0     H98608   8.446   3.380   3.692 -2.5953  2.5289  0.1773
  715MOL0     H98609   8.629   3.518   3.521 -1.9774  2.0052  1.9305
  715MOL0     H98610   8.645   3.471   3.691  1.7632 -2.2502  0.3635
  715MOL0     H98611   8.660   3.274   3.455  1.7988 -1.8935 -1.6204
  715MOL0     H98612   8.657   3.232   3.633 -1.4450  1.8214 -0.3326
  715MOL0     H98613   8.894   3.232   3.552 -1.1719  0.3363  1.4597
  715MOL0     H98614   8.874   3.402   3.518  3.6160 -2.4886 -1.2328
  715MOL0     H98615   8.849   3.243   3.781 -1.6094  0.0063  0.2617
  715MOL0     H98616   8.821   3.423   3.780  4.9166  0.7640  2.6727
  715MOL0     H98617   9.078   3.318   3.674  2.2040  1.9400  0.3991
  715MOL0     H98618   9.044   3.478   3.719  1.5550 -0.9460 -3.5414
  715MOL0     H98619   9.204   3.168   3.801 -0.0968 -0.3504  0.3994
  715MOL0     H98620   9.287   3.050   4.020 -1.8716 -1.2047  1.5003
  715MOL0     H98621   9.258   3.138   4.173 -0.7405  3.7684 -0.0281
  715MOL0     H98622   9.502   3.137   4.087  0.3226 -0.3795 -2.5713
  715MOL0     H98623   9.467   3.261   3.976  0.5547  1.4629  1.4466
  715MOL0     H98624   9.400   3.425   4.109  0.4599 -0.5426 -2.1899
  715MOL0     H98625   9.388   3.313   4.252  1.5224  1.2409  0.7785
  715MOL0     H98626   9.579   3.449   4.279 -0.8131 -0.8117  0.8407
  715MOL0     H98627   9.606   3.275   4.255  0.1476  0.1176  0.4366
  715MOL0     H98628   9.836   3.484   3.924 -0.7675 -1.2641  0.3549
  715MOL0     H98629   9.984   3.624   3.831  0.9408 -1.4784 -0.2486
  715MOL0     H98630  10.142   3.590   3.898  0.3536  2.1246 -1.6365
  715MOL0     H98631  10.067   3.740   3.942 -0.7100  1.1959 -2.3186
  715MOL0     H98632  10.456   3.622   4.319 -0.1541 -1.2918  0.1420
  715MOL0     H98633  10.695   3.693   4.298 -2.0711 -0.7752  1.0847
  715MOL0     H98634  10.878   3.835   4.260 -2.1282  2.0197 -0.9995
  715MOL0     H98635  10.947   3.709   4.147 -1.5979  0.1167 -0.6396
  715MOL0     H98636  10.970   3.999   4.129 -0.4743 -0.3308 -1.0699
  715MOL0     H98637  11.105   3.888   4.201  1.4372 -0.2934 -1.2690
  715MOL0     H98638  10.990   3.896   3.910  1.6942 -0.0670 -1.7305
  715MOL0     H98639  11.085   3.771   3.966  1.3183 -0.2195 -2.7895
  715MOL0     H98640  11.186   4.052   3.975 -2.3280 -0.6969  3.4846
  715MOL0     H98641  11.220   3.936   3.840 -1.8061 -0.3025  0.1305
  715MOL0     H98642  11.297   3.844   4.111  0.5256 -3.6557 -1.6953
  715MOL0     H98643  11.333   3.793   3.952  1.7180 -0.4103  0.5036
  715MOL0     H98644  11.395   4.073   4.066  1.3472  0.7099 -0.7704
  715MOL0     H98645  11.479   4.000   3.919  0.3942 -0.0466 -1.0204
  715MOL0     H98646  11.505   3.885   4.194 -2.6313  3.2015 -0.7190
  715MOL0     H98647  11.618   4.012   4.144  0.3696  0.3795 -1.4623
  715MOL0     H98648  11.580   3.777   3.972  0.2626  1.4685 -0.8640
  715MOL0     H98649  11.702   3.779   4.109 -0.7790 -0.6041  1.6209
  715MOL0     H98650  10.624   3.788   3.893 -2.0272  0.5647 -0.0391
  715MOL0     H98651  10.387   3.692   3.916  0.1714 -0.5264  0.8590
  715MOL0     H98652  10.012   3.551   4.378  4.3920 -2.3485 -1.5330
  715MOL0     H98653   9.788   3.438   4.352 -0.5874 -1.7186 -0.5310
  715MOL0     H98654   8.054   3.311   3.185 -0.4094 -0.8551 -1.1008
  715MOL0     H98655   7.811   3.227   3.143  0.9564  2.8184 -0.4598
  715MOL0     H98656   7.509   3.055   3.146 -0.1289  0.4275  1.1668
  715MOL0     H98657   7.280   2.968   3.065 -2.9954 -1.1140  0.4821
  715MOL0     H98658   7.117   2.802   3.131 -1.2856 -1.3832  0.6882
  715MOL0     H98659   7.033   2.817   3.285 -0.0315 -0.5176  0.3342
  715MOL0     H98660   6.936   2.716   3.066 -0.4429  0.0158 -0.8928
  715MOL0     H98661   6.898   2.879   3.012  4.5042 -1.7385 -3.1606
  715MOL0     H98662   6.820   2.771   3.287 -0.5625 -1.5518 -0.3898
  715MOL0     H98663   6.772   2.928   3.217 -0.3113  0.0547  2.4200
  715MOL0     H98664   6.638   2.818   3.036 -3.2324 -0.5183  0.5731
  715MOL0     H98665   6.574   2.784   3.199 -0.5101 -0.2549  0.2492
  715MOL0     H98666   6.666   2.409   3.056 -3.7745  0.2345  1.1377
  715MOL0     H98667   7.090   3.138   3.408 -0.1773  1.4021 -0.8994
  715MOL0     H98668   7.361   3.171   3.599  0.5754 -1.3625 -0.4960
  715MOL0     H98669   7.346   3.339   3.532  3.1761 -0.7066  2.0638
  715MOL0     H98670   7.208   3.242   3.573 -0.7934 -2.4721 -2.7118
  716MOL0     O98671   0.462   0.382   7.595 -0.3253  0.2753  0.5301
  716MOL0     C98672   0.398   0.451   7.671 -0.0038  0.1957 -0.3929
  716MOL0     O98673   0.438   0.563   7.722  0.3960 -0.8779  0.1424
  716MOL0     C98674   0.573   0.606   7.723 -0.1194  0.2674  0.6158
  716MOL0     C98675   0.607   0.722   7.654 -0.1993 -0.4002  0.8041
  716MOL0     C98676   0.742   0.768   7.643  0.2384 -0.3226  0.1942
  716MOL0     C98677   0.844   0.711   7.717  0.3047 -0.8925 -1.0854
  716MOL0     O98678   0.979   0.739   7.700  0.5110 -0.0998  0.3076
  716MOL0     C98679   1.016   0.859   7.630  0.4351 -0.0641 -0.1065
  716MOL0     C98680   1.166   0.886   7.649 -0.9998 -0.1785 -0.3432
  716MOL0     C98681   1.194   0.914   7.797 -0.1568 -0.2615 -0.6331
  716MOL0     C98682   1.339   0.971   7.804  0.6554 -0.2588 -0.1204
  716MOL0     C98683   1.366   1.024   7.946 -0.0565  0.3063  0.1366
  716MOL0     C98684   1.302   1.159   7.989 -1.0300  0.7154  0.0525
  716MOL0     C98685   1.362   1.289   7.936 -1.0055 -0.1795 -0.2258
  716MOL0     C98686   1.279   1.417   7.980 -0.4158 -0.1327  0.6695
  716MOL0     N98687   1.330   1.544   7.933 -0.8891  0.0231 -0.3650
  716MOL0     C98688   1.416   1.624   8.000 -0.1143  0.4617 -0.8245
  716MOL0     C98689   1.487   1.696   7.908  0.3451 -0.3574 -0.2201
  716MOL0     C98690   1.593   1.806   7.924 -1.3580  0.6358 -0.2184
  716MOL0     C98691   1.599   1.932   7.826  0.2183  0.7332 -0.0111
  716MOL0     C98692   1.731   2.020   7.845  0.3803  0.2778  0.2154
  716MOL0     C98693   1.730   2.157   7.784  0.6220 -0.1648 -0.2230
  716MOL0     O98694   1.725   2.151   7.634 -0.4008 -0.9051 -0.4177
  716MOL0     C98695   1.837   2.127   7.556  0.3153 -0.0572  0.1467
  716MOL0     C98696   1.816   2.127   7.421 -0.2240  0.2784 -1.2197
  716MOL0     C98697   1.921   2.105   7.330  0.5260 -0.2149  0.1069
  716MOL0     C98698   1.875   2.087   7.188 -0.3189 -0.5745  0.3142
  716MOL0     C98699   2.056   2.107   7.377  0.7230  0.7191  0.9758
  716MOL0     C98700   2.171   2.100   7.280 -0.5032 -0.3341  0.3411
  716MOL0     O98701   2.290   2.115   7.344  0.3276 -0.1898  0.7531
  716MOL0     C98702   2.398   2.116   7.259 -0.4799  0.1440 -0.8952
  716MOL0     C98703   2.460   1.999   7.217  0.0126 -0.3075  0.5199
  716MOL0     C98704   2.588   2.009   7.152 -0.5089 -0.5786 -0.2220
  716MOL0     C98705   2.643   2.128   7.120 -0.2749  0.1972 -0.2057
  716MOL0     O98706   2.765   2.132   7.049 -0.2130  0.3899 -0.1155
  716MOL0     C98707   2.755   2.100   6.912 -0.1517 -0.2256 -0.6940
  716MOL0     C98708   2.771   2.218   6.823 -1.1689 -0.2977  0.9708
  716MOL0     C98709   2.676   2.330   6.837  0.1089  0.1414 -0.1602
  716MOL0     C98710   2.527   2.287   6.822 -0.0087 -0.7242  0.3250
  716MOL0     C98711   2.431   2.417   6.827 -1.2597  0.3414 -0.2961
  716MOL0     C98712   2.464   2.505   6.703 -0.2517 -0.1386  0.1999
  716MOL0     C98713   2.355   2.602   6.678 -0.2382  0.8584 -0.5871
  716MOL0     C98714   2.354   2.648   6.524 -0.5564  0.8188 -0.7896
  716MOL0    Cl98715   2.518   2.701   6.466 -0.0618  0.0400 -0.0948
  716MOL0     C98716   2.575   2.247   7.168  0.0041 -0.1194  0.4520
  716MOL0     C98717   2.464   2.235   7.243 -0.0847  0.5183  0.5108
  716MOL0     O98718   2.162   2.094   7.160  0.1976  0.2937  0.5135
  716MOL0     C98719   2.069   2.127   7.521 -0.3203 -0.0870  0.3871
  716MOL0     C98720   1.966   2.131   7.604  0.8768 -0.3640  0.2704
  716MOL0     N98721   1.432   1.666   7.791 -0.0799  0.5763 -0.1503
  716MOL0     N98722   1.344   1.578   7.808 -0.7701 -0.1687 -0.3963
  716MOL0     C98723   0.808   0.598   7.787  0.1091  0.0969  0.6296
  716MOL0     C98724   0.682   0.538   7.788  0.1699 -0.5137 -0.6802
  716MOL0     C98725   0.264   0.401   7.723  0.2950  1.3118 -0.3214
  716MOL0     C98726   0.248   0.388   7.861 -0.3635  0.3134 -0.2791
  716MOL0     C98727   0.128   0.337   7.915 -0.4168 -0.3041  0.4269
  716MOL0     C98728   0.018   0.309   7.835 -0.8409  0.0997 -0.2712
  716MOL0     O98729  -0.093   0.244   7.880  0.5949 -0.3320 -0.3607
  716MOL0     C98730  -0.066   0.147   7.984  0.1486  0.6832  0.4982
  716MOL0     C98731  -0.184   0.061   8.002  0.1175  0.4278 -0.3868
  716MOL0     C98732  -0.165  -0.057   8.099 -0.6551 -0.0692 -0.7432
  716MOL0     C98733  -0.116  -0.006   8.243  0.5935  0.7881  0.3370
  716MOL0     C98734  -0.225   0.066   8.314 -0.2230 -0.2137  0.2245
  716MOL0     C98735  -0.307   0.125   8.380 -0.7365  0.3902 -0.3012
  716MOL0     C98736   0.039   0.334   7.698 -0.1958  0.5165  0.3972
  716MOL0     C98737   0.166   0.371   7.639 -0.1205  1.0119  0.2291
  716MOL0     C98738   0.181   0.382   7.484  0.4372  0.5349 -0.9827
  716MOL0     H98739   0.530   0.763   7.590 -0.4444 -1.8946  0.1010
  716MOL0     H98740   0.762   0.858   7.585  0.0404 -1.0847 -1.0835
  716MOL0     H98741   0.966   0.947   7.671 -2.0204 -0.7565 -1.3626
  716MOL0     H98742   0.983   0.867   7.526  0.7810 -0.3528 -0.2418
  716MOL0     H98743   1.231   0.806   7.612 -0.0774 -0.6945  2.1568
  716MOL0     H98744   1.216   0.969   7.599  1.2957  0.0877  2.1735
  716MOL0     H98745   1.121   0.985   7.838 -1.4786 -1.4616 -0.8287
  716MOL0     H98746   1.191   0.825   7.861  1.8262 -0.0586 -0.1971
  716MOL0     H98747   1.402   0.886   7.775  1.0367  0.8158 -2.6297
  716MOL0     H98748   1.346   1.054   7.734  0.5580  1.4146  1.7659
  716MOL0     H98749   1.474   1.028   7.964  0.2861  3.6771 -1.8034
  716MOL0     H98750   1.321   0.947   8.009 -0.0544  0.1712 -0.0249
  716MOL0     H98751   1.195   1.163   7.971 -1.3001 -0.4310  1.2324
  716MOL0     H98752   1.316   1.162   8.098 -0.7865  1.8718  0.0125
  716MOL0     H98753   1.377   1.280   7.828  0.7561 -0.9443  0.0529
  716MOL0     H98754   1.466   1.290   7.968 -0.9481  1.0586 -0.3943
  716MOL0     H98755   1.178   1.417   7.937 -1.0406 -3.4695  1.7911
  716MOL0     H98756   1.259   1.424   8.088 -0.0719 -0.7818  0.7813
  716MOL0     H98757   1.443   1.622   8.106  0.8769 -0.9964 -1.0757
  716MOL0     H98758   1.692   1.761   7.934  1.0693  5.3825  0.3105
  716MOL0     H98759   1.573   1.835   8.027 -1.8917 -2.3075  0.6043
  716MOL0     H98760   1.593   1.896   7.723 -2.3671  4.2200 -1.2865
  716MOL0     H98761   1.512   1.996   7.842 -0.2702 -0.1094  0.8005
  716MOL0     H98762   1.765   2.021   7.949  0.3326  2.6096  0.2616
  716MOL0     H98763   1.807   1.960   7.793  0.4394 -1.2198  1.9452
  716MOL0     H98764   1.643   2.217   7.814 -1.3723 -2.5577 -0.8506
  716MOL0     H98765   1.817   2.214   7.817  1.5527 -1.8460  0.3023
  716MOL0     H98766   1.711   2.142   7.394 -0.8853  0.1309  1.1061
  716MOL0     H98767   1.920   1.998   7.143 -0.2896 -0.9891  1.1246
  716MOL0     H98768   1.918   2.169   7.131  1.2592 -1.2363  0.4986
  716MOL0     H98769   1.766   2.088   7.179 -0.1740 -0.3612 -1.7451
  716MOL0     H98770   2.417   1.906   7.252  1.9473 -0.8010  1.7508
  716MOL0     H98771   2.634   1.917   7.119  0.8736  0.4989 -1.4212
  716MOL0     H98772   2.836   2.033   6.880  0.0842 -0.2401 -0.0824
  716MOL0     H98773   2.657   2.057   6.889 -1.2344  1.5453  0.4755
  716MOL0     H98774   2.874   2.249   6.842 -0.6379 -0.4832 -1.3659
  716MOL0     H98775   2.777   2.194   6.717  0.7680  1.2322  0.6868
  716MOL0     H98776   2.710   2.406   6.766 -0.0616  1.2577  0.9160
  716MOL0     H98777   2.680   2.375   6.937 -0.5507 -2.0793  0.9160
  716MOL0     H98778   2.482   2.224   6.899 -0.9090 -2.1462 -1.3025
  716MOL0     H98779   2.514   2.233   6.728  1.2362  0.6116 -0.6588
  716MOL0     H98780   2.324   2.399   6.843 -1.3124  0.5348 -0.4319
  716MOL0     H98781   2.457   2.483   6.910  2.5425 -1.6280  0.2994
  716MOL0     H98782   2.464   2.429   6.625  2.4376 -0.8684  0.8025
  716MOL0     H98783   2.561   2.556   6.696 -0.2125 -0.2283  0.0800
  716MOL0     H98784   2.377   2.690   6.739  0.3337  1.1719 -1.2371
  716MOL0     H98785   2.254   2.563   6.695  0.7487 -1.2802  0.8683
  716MOL0     H98786   2.283   2.730   6.512  1.2156  2.8672  1.4911
  716MOL0     H98787   2.325   2.560   6.466 -1.0367  0.0819  0.5271
  716MOL0     H98788   2.629   2.341   7.161 -1.5225  0.7253 -0.6250
  716MOL0     H98789   2.419   2.322   7.287 -2.1864 -0.0034 -0.4795
  716MOL0     H98790   2.169   2.135   7.562  0.0628  0.7944 -0.6487
  716MOL0     H98791   1.990   2.144   7.709  4.1730 -0.2582 -0.3939
  716MOL0     H98792   0.888   0.549   7.842 -0.3603  2.1504  3.3993
  716MOL0     H98793   0.666   0.457   7.858 -0.8324  0.1272 -0.1585
  716MOL0     H98794   0.334   0.413   7.922 -0.6426  0.9061 -0.1262
  716MOL0     H98795   0.111   0.321   8.021 -0.6683 -1.9755  0.1638
  716MOL0     H98796   0.017   0.085   7.949  0.2478  1.4755 -0.7121
  716MOL0     H98797  -0.043   0.212   8.070  0.0522  2.2935 -0.6422
  716MOL0     H98798  -0.213   0.021   7.905  2.3796  1.6733 -1.6466
  716MOL0     H98799  -0.268   0.121   8.038 -0.9079 -1.7722  1.0461
  716MOL0     H98800  -0.257  -0.113   8.115  0.3340 -1.7521 -0.7975
  716MOL0     H98801  -0.089  -0.125   8.060 -0.9888 -1.5286  1.0425
  716MOL0     H98802  -0.030   0.060   8.232  0.5604  1.0313  1.3843
  716MOL0     H98803  -0.082  -0.090   8.304  0.9752  0.6042 -0.1262
  716MOL0     H98804  -0.372   0.191   8.433  0.8002  1.5892  0.1785
  716MOL0     H98805  -0.054   0.316   7.645 -1.1740 -0.2819  2.3182
  716MOL0     H98806   0.269   0.323   7.456  1.5668  1.3730  0.6582
  716MOL0     H98807   0.101   0.340   7.422  1.4300 -0.9441 -1.2960
  716MOL0     H98808   0.205   0.485   7.456  0.8322  0.6102 -0.3799
  717MOL0     O98809   7.951   5.644   7.550 -0.8740 -0.5039  0.4841
  717MOL0     C98810   7.940   5.593   7.655 -1.0692  0.3378 -0.1317
  717MOL0     O98811   8.047   5.582   7.747 -0.4433 -0.8649  0.0024
  717MOL0     C98812   8.171   5.633   7.717 -1.2127  0.1946  0.2766
  717MOL0     C98813   8.230   5.751   7.765 -0.7286 -0.0702 -0.0129
  717MOL0     C98814   8.368   5.784   7.733  1.0822  0.7735 -0.0227
  717MOL0     C98815   8.437   5.704   7.638  0.2613 -0.6329 -0.2846
  717MOL0     O98816   8.570   5.717   7.619 -0.5723  0.5010 -0.2195
  717MOL0     C98817   8.644   5.632   7.711 -0.6923 -0.0125 -0.1909
  717MOL0     C98818   8.795   5.631   7.679 -0.0986 -1.5054  0.8038
  717MOL0     C98819   8.845   5.784   7.699  0.5820 -0.4174 -1.4464
  717MOL0     C98820   8.999   5.801   7.694  0.5337  0.0298  0.0304
  717MOL0     C98821   9.051   5.931   7.762  0.6259 -0.1677 -0.0055
  717MOL0     C98822   9.043   6.042   7.654 -1.0056  0.4070 -0.2455
  717MOL0     C98823   9.110   6.179   7.689 -0.3226 -0.1246  0.2506
  717MOL0     C98824   9.165   6.247   7.558  0.8663  0.3566  0.1739
  717MOL0     N98825   9.275   6.327   7.617  0.5428 -0.2788 -0.5401
  717MOL0     C98826   9.253   6.441   7.693 -0.0733 -0.9487 -0.3698
  717MOL0     C98827   9.365   6.512   7.703 -0.4371  0.1197  0.3413
  717MOL0     C98828   9.390   6.635   7.794  0.3150 -0.4763  0.2883
  717MOL0     C98829   9.533   6.697   7.794 -0.3546  0.0355 -0.0103
  717MOL0     C98830   9.550   6.777   7.928  0.1737  0.3159 -0.2569
  717MOL0     C98831   9.704   6.805   7.945 -0.4106 -0.2927 -0.0806
  717MOL0     O98832   9.730   6.913   7.855 -0.2868 -0.3982 -0.3367
  717MOL0     C98833   9.859   6.962   7.847  0.5285 -0.6111 -0.4644
  717MOL0     C98834   9.964   6.908   7.930  0.8490  0.3181 -0.1073
  717MOL0     C98835  10.093   6.957   7.919  0.2703 -0.8106  0.8600
  717MOL0     C98836  10.201   6.894   8.006  0.4267 -0.0000  0.3058
  717MOL0     C98837  10.121   7.071   7.833 -0.9760  0.3551  0.3110
  717MOL0     C98838  10.258   7.144   7.835  0.3487 -0.2587 -0.5650
  717MOL0     O98839  10.291   7.208   7.716 -0.0603 -0.1361  0.4665
  717MOL0     C98840  10.403   7.283   7.717 -0.5180 -0.0748 -0.3613
  717MOL0     C98841  10.516   7.243   7.648  0.4194  0.1915 -0.7075
  717MOL0     C98842  10.631   7.317   7.657 -0.4617 -0.6356 -0.1340
  717MOL0     C98843  10.633   7.436   7.743 -0.5541 -0.4416 -0.0738
  717MOL0     O98844  10.750   7.515   7.742 -0.1003  0.1335 -0.2963
  717MOL0     C98845  10.743   7.656   7.734  0.4099  0.8130 -0.0740
  717MOL0     C98846  10.890   7.704   7.755  0.2534  0.0959 -0.5015
  717MOL0     C98847  10.900   7.857   7.725 -0.0242 -0.9265  0.1954
  717MOL0     C98848  11.055   7.881   7.728  0.2117 -0.2194 -0.0238
  717MOL0     C98849  11.095   8.032   7.682  0.4652 -0.1252 -0.2200
  717MOL0     C98850  11.004   8.147   7.738  0.0601 -0.1400 -0.0880
  717MOL0     C98851  11.070   8.285   7.699  0.5846  0.5189 -0.0288
  717MOL0     C98852  10.977   8.385   7.762 -0.5614 -0.1854 -0.0281
  717MOL0    Cl98853  10.820   8.374   7.684  0.1351  0.2328  0.0177
  717MOL0     C98854  10.522   7.474   7.810 -0.1563  0.1976  0.6344
  717MOL0     C98855  10.402   7.401   7.799 -0.0489  0.6116 -0.6098
  717MOL0     O98856  10.312   7.157   7.946  0.4874 -0.3317  0.2432
  717MOL0     C98857  10.008   7.123   7.762  0.1928 -0.7067 -0.1356
  717MOL0     C98858   9.882   7.070   7.764  0.0773 -0.4095  0.7186
  717MOL0     N98859   9.464   6.445   7.629  0.5434  0.4149  0.0349
  717MOL0     N98860   9.411   6.339   7.575  0.4147 -0.3356  0.1009
  717MOL0     C98861   8.374   5.590   7.576 -0.5161 -0.2966 -0.9201
  717MOL0     C98862   8.244   5.566   7.619 -0.2287  0.5678 -0.2358
  717MOL0     C98863   7.795   5.540   7.693 -0.5508  0.2180 -0.1413
  717MOL0     C98864   7.781   5.473   7.819  0.3981  0.3846  0.4291
  717MOL0     C98865   7.660   5.423   7.864  0.5525 -0.2425 -0.4647
  717MOL0     C98866   7.548   5.433   7.781  0.0610  0.6847  0.6484
  717MOL0     O98867   7.432   5.391   7.851 -0.5160  0.4381 -0.3621
  717MOL0     C98868   7.316   5.354   7.774 -1.1598 -0.1089  0.8311
  717MOL0     C98869   7.188   5.327   7.865 -0.2485 -0.3356 -0.2651
  717MOL0     C98870   7.085   5.257   7.778  0.2087  0.3409 -0.2414
  717MOL0     C98871   6.951   5.222   7.843 -0.7296  0.4369 -0.4267
  717MOL0     C98872   6.958   5.110   7.942 -0.1966  0.1678  0.1525
  717MOL0     C98873   6.939   5.014   8.014 -0.1418  0.9757 -0.3399
  717MOL0     C98874   7.557   5.502   7.658  0.1970  0.3022  0.9742
  717MOL0     C98875   7.682   5.554   7.614  0.5492 -0.3263 -0.2279
  717MOL0     C98876   7.680   5.632   7.482  0.4553 -0.4502 -0.0623
  717MOL0     H98877   8.177   5.808   7.840 -1.4255 -0.1286 -0.4548
  717MOL0     H98878   8.426   5.863   7.779  3.6889  0.8940 -3.2066
  717MOL0     H98879   8.616   5.527   7.713 -0.3042 -0.1045  0.9244
  717MOL0     H98880   8.621   5.665   7.812 -0.6929  0.3920 -0.3215
  717MOL0     H98881   8.841   5.564   7.752  2.5083 -0.0360  0.6269
  717MOL0     H98882   8.817   5.604   7.575  0.0050 -3.1298  1.2226
  717MOL0     H98883   8.796   5.846   7.623  0.0467  0.4799 -0.4038
  717MOL0     H98884   8.819   5.823   7.797 -2.1738 -0.9695 -1.8774
  717MOL0     H98885   9.045   5.722   7.753 -1.2056  1.6621  3.8939
  717MOL0     H98886   9.035   5.786   7.592  2.3354  2.1296  0.2883
  717MOL0     H98887   9.154   5.923   7.799  0.5126 -4.0390 -0.1863
  717MOL0     H98888   8.991   5.962   7.848 -0.4209 -0.8669 -0.4728
  717MOL0     H98889   9.099   6.000   7.570 -0.0614  0.3190  0.4243
  717MOL0     H98890   8.935   6.044   7.636 -1.0447 -1.7224 -0.5526
  717MOL0     H98891   9.186   6.164   7.766 -0.8041 -2.7671  0.2975
  717MOL0     H98892   9.032   6.244   7.729 -0.8207  0.5021 -1.6367
  717MOL0     H98893   9.210   6.178   7.486  1.7836  0.7894  0.3195
  717MOL0     H98894   9.091   6.304   7.501  1.9628  0.1364 -1.5346
  717MOL0     H98895   9.153   6.464   7.730  0.1288  0.1222 -0.4522
  717MOL0     H98896   9.363   6.613   7.897  2.4365 -3.2898  0.3469
  717MOL0     H98897   9.326   6.715   7.755  0.2582 -0.4907  0.3522
  717MOL0     H98898   9.608   6.618   7.803 -1.9732 -1.3774  2.7760
  717MOL0     H98899   9.552   6.762   7.708  2.3221  1.0928  1.2552
  717MOL0     H98900   9.511   6.879   7.913  0.3260  0.1384 -2.1535
  717MOL0     H98901   9.497   6.726   8.008 -0.8723 -0.3613 -1.3424
  717MOL0     H98902   9.724   6.824   8.051  2.5262 -1.2683 -0.3665
  717MOL0     H98903   9.770   6.719   7.929 -2.3440 -1.5793 -1.7538
  717MOL0     H98904   9.954   6.821   7.994 -1.0693 -0.2512 -1.1042
  717MOL0     H98905  10.292   6.893   7.945  0.6198 -2.9038  0.4657
  717MOL0     H98906  10.178   6.792   8.039 -1.9169 -0.5038 -2.4902
  717MOL0     H98907  10.225   6.949   8.097  0.3006  0.0815  0.2898
  717MOL0     H98908  10.511   7.151   7.591 -0.1268 -0.9369  1.0907
  717MOL0     H98909  10.720   7.288   7.602  0.7376 -1.0396  1.8951
  717MOL0     H98910  10.702   7.685   7.637  1.6798 -0.0314 -0.8900
  717MOL0     H98911  10.683   7.699   7.815  0.4009 -1.2326  1.0562
  717MOL0     H98912  10.923   7.687   7.858 -0.2436  0.1776 -0.3285
  717MOL0     H98913  10.955   7.650   7.685  0.6581 -0.5744  0.3752
  717MOL0     H98914  10.846   7.920   7.797 -0.8951 -1.7103  0.2469
  717MOL0     H98915  10.870   7.875   7.621  1.8153 -0.7347 -0.3403
  717MOL0     H98916  11.110   7.823   7.653 -1.7220 -2.2519  0.0023
  717MOL0     H98917  11.093   7.852   7.826 -2.4741  0.7491  1.4085
  717MOL0     H98918  11.197   8.061   7.709  0.0218  1.7481 -0.3667
  717MOL0     H98919  11.083   8.044   7.574 -0.9101 -2.6543 -0.4272
  717MOL0     H98920  10.979   8.132   7.844 -2.2002 -0.7448 -0.6368
  717MOL0     H98921  10.908   8.137   7.685 -0.8697 -0.8726  1.6303
  717MOL0     H98922  11.073   8.300   7.590  0.1210  1.2864  0.0569
  717MOL0     H98923  11.171   8.292   7.741 -0.5170  0.2853  2.8950
  717MOL0     H98924  11.009   8.490   7.757 -0.0980 -0.1586  2.2636
  717MOL0     H98925  10.973   8.374   7.871 -1.8059 -0.5042 -0.0867
  717MOL0     H98926  10.518   7.565   7.869 -0.1082 -0.0033  0.9456
  717MOL0     H98927  10.324   7.426   7.871  0.2286 -2.1494  0.7746
  717MOL0     H98928  10.029   7.208   7.698  2.5183 -1.5194 -0.5761
  717MOL0     H98929   9.795   7.106   7.710  1.6590  1.0871 -0.9383
  717MOL0     H98930   8.442   5.531   7.515  1.8708 -0.0336  1.3198
  717MOL0     H98931   8.189   5.477   7.591 -1.3386  2.3295 -4.3572
  717MOL0     H98932   7.874   5.467   7.874  1.0417  0.2433 -0.6492
  717MOL0     H98933   7.642   5.388   7.965  0.7089  0.3679 -0.2194
  717MOL0     H98934   7.299   5.433   7.700  0.6110 -0.5709 -0.1162
  717MOL0     H98935   7.329   5.265   7.713 -1.2753  1.5405 -1.7263
  717MOL0     H98936   7.148   5.421   7.904  0.7626  0.2587 -0.6346
  717MOL0     H98937   7.208   5.261   7.950 -1.9997  1.3021  1.5273
  717MOL0     H98938   7.063   5.335   7.705 -2.2208  0.2475  0.3090
  717MOL0     H98939   7.130   5.171   7.726  1.6639  0.5632  0.6047
  717MOL0     H98940   6.899   5.181   7.756 -0.8610 -0.6880  0.1607
  717MOL0     H98941   6.898   5.310   7.881  1.5235  1.4413  0.5743
  717MOL0     H98942   6.933   4.931   8.082 -2.0281  1.2353 -0.1352
  717MOL0     H98943   7.467   5.510   7.598 -0.7134  0.5247  2.3247
  717MOL0     H98944   7.737   5.581   7.404 -1.0193 -3.4051  0.6519
  717MOL0     H98945   7.582   5.651   7.438  1.1087  0.9726 -0.9741
  717MOL0     H98946   7.714   5.736   7.483 -0.0356 -0.2686 -0.8571
  718MOL0     O98947   7.049   1.802   7.875  0.1041 -0.1514 -0.1586
  718MOL0     C98948   6.958   1.724   7.888  0.2018  0.0392  0.1963
  718MOL0     O98949   6.946   1.600   7.833  0.2037 -0.0779 -0.2646
  718MOL0     C98950   7.058   1.556   7.770  0.2017 -0.0463  0.1119
  718MOL0     C98951   7.078   1.555   7.634 -0.9477  0.3195 -0.0306
  718MOL0     C98952   7.194   1.500   7.580  0.4127 -0.8993 -0.1804
  718MOL0     C98953   7.290   1.436   7.659 -0.1066  0.2226  0.4189
  718MOL0     O98954   7.386   1.358   7.604 -0.3504  0.4362 -0.3115
  718MOL0     C98955   7.514   1.359   7.660 -0.3345 -0.2703  0.2844
  718MOL0     C98956   7.617   1.299   7.569 -0.6378 -0.8543 -0.5299
  718MOL0     C98957   7.659   1.392   7.455 -0.3701  0.3290 -0.2816
  718MOL0     C98958   7.746   1.334   7.346 -0.3372 -0.6790 -0.1372
  718MOL0     C98959   7.744   1.454   7.247 -0.5664  0.7474  0.9220
  718MOL0     C98960   7.831   1.409   7.128  0.3312 -0.3629 -0.4388
  718MOL0     C98961   7.823   1.507   7.010  0.1945 -0.8026  0.6557
  718MOL0     C98962   7.879   1.471   6.874 -0.4588  0.3814 -0.3542
  718MOL0     N98963   7.888   1.579   6.784  0.6869 -0.3391  0.0030
  718MOL0     C98964   7.796   1.687   6.783  0.1302  0.2828 -0.0591
  718MOL0     C98965   7.851   1.784   6.708 -0.1148 -0.2206 -0.2602
  718MOL0     C98966   7.809   1.931   6.710 -0.4377  0.3876  0.5477
  718MOL0     C98967   7.819   1.994   6.846  0.4425  0.4308 -0.1738
  718MOL0     C98968   7.963   1.976   6.902  0.8470 -0.2554  0.3332
  718MOL0     C98969   7.985   2.016   7.044  0.0175  0.4852 -1.0645
  718MOL0     O98970   7.893   2.111   7.088 -0.3390 -0.3551 -0.3582
  718MOL0     C98971   7.921   2.175   7.201 -0.3698 -0.2589  0.6920
  718MOL0     C98972   7.833   2.283   7.236  0.1815  0.1580  1.1880
  718MOL0     C98973   7.858   2.379   7.340 -0.1592  0.4575 -0.2510
  718MOL0     C98974   7.755   2.482   7.388  0.1145  0.2953  0.2088
  718MOL0     C98975   7.968   2.355   7.420 -0.3686  0.1723 -0.5636
  718MOL0     C98976   8.002   2.428   7.546  0.4276  0.3173  0.2854
  718MOL0     O98977   7.966   2.566   7.556 -0.4220  0.7487  0.9198
  718MOL0     C98978   8.016   2.638   7.656  0.0682 -0.1300  0.6830
  718MOL0     C98979   7.937   2.665   7.762  0.5891 -0.3279 -1.3997
  718MOL0     C98980   7.982   2.762   7.854  0.6475  0.0151  0.8317
  718MOL0     C98981   8.111   2.818   7.848 -0.4466 -0.0441 -0.5932
  718MOL0     O98982   8.151   2.898   7.956 -0.4665 -0.0368  0.6452
  718MOL0     C98983   8.277   2.966   7.952 -0.4950  0.1639  0.0686
  718MOL0     C98984   8.316   3.005   8.093  0.2755  0.6755 -0.1766
  718MOL0     C98985   8.420   2.906   8.160  0.2766  0.1183  0.4793
  718MOL0     C98986   8.361   2.771   8.180  0.4320  0.5562 -0.6841
  718MOL0     C98987   8.468   2.660   8.197  0.1523  0.7784 -0.0454
  718MOL0     C98988   8.526   2.601   8.067 -0.0050 -0.2681  1.1273
  718MOL0     C98989   8.636   2.503   8.086 -0.2990  0.5167 -0.8241
  718MOL0     C98990   8.769   2.562   8.129 -1.0729  0.0676 -0.0624
  718MOL0    Cl98991   8.905   2.453   8.101  0.1675 -0.1584  0.4691
  718MOL0     C98992   8.190   2.774   7.748 -0.9063 -0.3893  0.5337
  718MOL0     C98993   8.146   2.691   7.642  1.1920  0.4720  0.1417
  718MOL0     O98994   8.074   2.376   7.625  0.7137 -0.4621 -0.3909
  718MOL0     C98995   8.057   2.247   7.393  0.5067 -0.6897  0.4613
  718MOL0     C98996   8.034   2.165   7.288 -1.0291  0.1284 -0.5202
  718MOL0     N98997   7.970   1.742   6.663  0.1606  0.5231  1.1200
  718MOL0     N98998   7.989   1.616   6.704  0.0919  0.1118  0.2513
  718MOL0     C98999   7.274   1.436   7.792 -0.0538  0.2167  0.0905
  718MOL0     C99000   7.157   1.495   7.851  0.4136  0.1367  0.7040
  718MOL0     C99001   6.850   1.777   7.982  0.0566  0.3340 -0.2183
  718MOL0     C99002   6.806   1.907   7.972  1.3031  0.1984 -0.1199
  718MOL0     C99003   6.715   1.957   8.063 -0.1910  1.4350  0.3835
  718MOL0     C99004   6.666   1.873   8.167  0.6470  0.5808 -0.4097
  718MOL0     O99005   6.561   1.907   8.257  0.1105 -0.3928 -0.6519
  718MOL0     C99006   6.556   2.038   8.305  0.3212  0.0135 -1.4290
  718MOL0     C99007   6.445   2.119   8.243 -0.2831  0.4012 -0.1360
  718MOL0     C99008   6.414   2.081   8.092 -0.3691 -0.4219 -0.2482
  718MOL0     C99009   6.280   2.159   8.045  0.2044 -0.0262 -0.1201
  718MOL0     C99010   6.167   2.124   8.128  0.4070 -0.7202 -0.3203
  718MOL0     C99011   6.073   2.101   8.196  0.3011 -0.1854 -0.1597
  718MOL0     C99012   6.704   1.742   8.171 -0.0938  0.4305 -1.0625
  718MOL0     C99013   6.800   1.692   8.078  0.2821 -0.1078 -0.3093
  718MOL0     C99014   6.859   1.561   8.109 -0.1670  1.2917  0.1666
  718MOL0     H99015   7.004   1.597   7.565  0.4740 -0.5573 -2.2090
  718MOL0     H99016   7.209   1.502   7.472 -1.2154 -2.1053 -0.4728
  718MOL0     H99017   7.522   1.315   7.760 -1.1888  0.7375  0.8096
  718MOL0     H99018   7.549   1.462   7.664  0.2876 -0.4053 -1.1844
  718MOL0     H99019   7.709   1.271   7.620  1.4580 -0.2446 -3.7392
  718MOL0     H99020   7.570   1.207   7.533  2.2495 -1.3687 -3.3997
  718MOL0     H99021   7.566   1.422   7.405 -0.2487 -0.0901 -0.7615
  718MOL0     H99022   7.716   1.476   7.496  3.3281 -1.1109 -2.0804
  718MOL0     H99023   7.848   1.305   7.372  0.1966 -0.1030 -1.5174
  718MOL0     H99024   7.700   1.244   7.303 -0.4036 -1.4202  1.4197
  718MOL0     H99025   7.777   1.550   7.287  0.4698  0.4132  0.8899
  718MOL0     H99026   7.646   1.470   7.201  0.3145 -1.7145 -2.0946
  718MOL0     H99027   7.935   1.409   7.162 -0.4405 -2.1803  2.2887
  718MOL0     H99028   7.806   1.311   7.086  0.3899 -0.3681 -0.4618
  718MOL0     H99029   7.884   1.594   7.035 -0.6521 -0.6267  2.2587
  718MOL0     H99030   7.717   1.523   6.987 -0.1122 -1.5253  1.5250
  718MOL0     H99031   7.983   1.441   6.887 -0.4106 -0.8575 -2.9636
  718MOL0     H99032   7.819   1.385   6.842 -1.2214  0.4387  0.8647
  718MOL0     H99033   7.700   1.685   6.833 -0.1595  2.1799 -0.4442
  718MOL0     H99034   7.704   1.926   6.680 -0.2099 -2.7787 -0.0519
  718MOL0     H99035   7.875   1.992   6.647 -0.4495  1.2146  1.3085
  718MOL0     H99036   7.807   2.102   6.835 -0.0948  0.2260 -1.9943
  718MOL0     H99037   7.745   1.954   6.915 -0.2742 -0.5234 -1.4478
  718MOL0     H99038   7.998   1.873   6.909 -3.1272 -1.7809  0.6142
  718MOL0     H99039   8.031   2.038   6.843 -0.4194 -0.4586 -1.4177
  718MOL0     H99040   7.971   1.922   7.099  1.1798  2.2375  2.5101
  718MOL0     H99041   8.090   2.045   7.044 -0.0891  0.9434  0.0971
  718MOL0     H99042   7.743   2.293   7.176  0.4649 -1.0112  0.5296
  718MOL0     H99043   7.779   2.587   7.370 -1.5548  1.1760  2.6671
  718MOL0     H99044   7.754   2.475   7.497  0.8695  2.1490  0.3705
  718MOL0     H99045   7.656   2.459   7.349  1.5533 -0.7811 -3.2179
  718MOL0     H99046   7.837   2.629   7.783  0.1575  0.1660 -2.5058
  718MOL0     H99047   7.902   2.791   7.922 -0.2856 -0.2908 -0.1078
  718MOL0     H99048   8.355   2.906   7.904 -0.4433  1.4486 -1.5319
  718MOL0     H99049   8.262   3.049   7.883  2.0150 -0.5544 -1.4755
  718MOL0     H99050   8.353   3.108   8.088 -0.4622  0.9886  0.7598
  718MOL0     H99051   8.225   3.011   8.152  0.3287 -0.0646 -0.0146
  718MOL0     H99052   8.458   2.939   8.257 -2.8666  1.0100  1.5368
  718MOL0     H99053   8.510   2.902   8.097 -0.3843  0.3186 -0.5074
  718MOL0     H99054   8.310   2.738   8.089  2.1764 -1.6510 -0.9641
  718MOL0     H99055   8.294   2.778   8.267 -0.5180 -1.8418 -1.1223
  718MOL0     H99056   8.542   2.700   8.266 -0.0046  0.0459  0.5514
  718MOL0     H99057   8.413   2.582   8.251 -2.8764  2.2171 -0.8149
  718MOL0     H99058   8.561   2.675   7.994  2.0516 -1.3578  0.9241
  718MOL0     H99059   8.444   2.539   8.031  0.5291  0.0986 -0.8168
  718MOL0     H99060   8.654   2.442   7.997 -3.3306 -2.3253  0.2931
  718MOL0     H99061   8.600   2.436   8.164  2.2634 -0.8642 -0.7359
  718MOL0     H99062   8.767   2.602   8.230 -0.9536  1.1397 -0.4716
  718MOL0     H99063   8.798   2.643   8.061  1.6019 -1.4522 -0.8764
  718MOL0     H99064   8.292   2.807   7.735 -0.9712 -0.5068 -0.3653
  718MOL0     H99065   8.198   2.666   7.550 -2.7259 -2.3258 -1.6159
  718MOL0     H99066   8.137   2.222   7.463 -0.6752 -3.0005  1.0797
  718MOL0     H99067   8.112   2.090   7.283 -0.7359  0.3351  0.6142
  718MOL0     H99068   7.348   1.393   7.860 -0.8406  1.6999  1.9798
  718MOL0     H99069   7.147   1.483   7.958 -1.1410  0.9540  0.6708
  718MOL0     H99070   6.843   1.968   7.891  0.7848  0.2829 -0.3017
  718MOL0     H99071   6.693   2.063   8.059 -0.0612  1.4547  0.1698
  718MOL0     H99072   6.548   2.027   8.414  1.2092 -0.9114 -1.4420
  718MOL0     H99073   6.654   2.084   8.291  2.0214 -3.5066 -2.3795
  718MOL0     H99074   6.446   2.227   8.256  0.5248  0.3268  0.5124
  718MOL0     H99075   6.358   2.085   8.300  1.0962 -1.1900  1.1573
  718MOL0     H99076   6.498   2.116   8.032  1.5109 -1.1085  1.8617
  718MOL0     H99077   6.405   1.973   8.074  0.3456 -0.5965  0.4260
  718MOL0     H99078   6.256   2.132   7.942  0.0157  0.9259 -0.3331
  718MOL0     H99079   6.294   2.267   8.054 -0.7500  0.1320 -0.4234
  718MOL0     H99080   6.000   2.091   8.273 -1.1084  0.4438 -1.3574
  718MOL0     H99081   6.660   1.677   8.246 -1.6062  3.1542  0.5630
  718MOL0     H99082   6.843   1.481   8.036 -1.1135  1.1326  0.5427
  718MOL0     H99083   6.966   1.573   8.129  0.1591 -0.0555 -0.6144
  718MOL0     H99084   6.816   1.527   8.203  1.3067  2.0251  1.1490
  719MOL0     O99085   3.758   4.658   5.253 -0.6539  0.2249 -0.1567
  719MOL0     C99086   3.760   4.596   5.360 -1.5897  0.9695  1.0926
  719MOL0     O99087   3.872   4.566   5.429  0.3044  0.1650 -1.2261
  719MOL0     C99088   3.997   4.592   5.379  0.5754 -0.1574 -0.5814
  719MOL0     C99089   4.023   4.566   5.238 -0.7551 -0.3269 -0.3114
  719MOL0     C99090   4.161   4.589   5.191  0.7362  0.4639 -0.3735
  719MOL0     C99091   4.258   4.637   5.270 -0.2720 -0.6025 -0.8900
  719MOL0     O99092   4.375   4.662   5.204 -0.1515  0.6362  0.0209
  719MOL0     C99093   4.506   4.675   5.273  0.4478 -1.0051 -0.0422
  719MOL0     C99094   4.607   4.720   5.172  0.2821 -0.5157 -0.1007
  719MOL0     C99095   4.748   4.675   5.206  0.2014 -0.6614 -0.3735
  719MOL0     C99096   4.847   4.760   5.117 -0.8154 -0.2797 -0.3482
  719MOL0     C99097   4.993   4.738   5.141 -0.2352 -0.3904  0.6305
  719MOL0     C99098   5.067   4.802   5.022 -0.4570  0.3094 -0.4294
  719MOL0     C99099   5.225   4.803   5.031  0.6196  1.1149 -0.7703
  719MOL0     C99100   5.290   4.882   4.927  1.0006  0.2062 -0.1899
  719MOL0     N99101   5.440   4.851   4.938  0.0597 -0.4364  0.0787
  719MOL0     C99102   5.508   4.733   4.950 -0.0405  0.1107 -0.8527
  719MOL0     C99103   5.639   4.770   4.966  0.5287 -0.5851 -0.4455
  719MOL0     C99104   5.750   4.667   5.005 -0.6033  0.5173  0.6860
  719MOL0     C99105   5.874   4.741   5.066 -0.8578  0.8186  0.6748
  719MOL0     C99106   5.991   4.651   5.089 -0.9590 -0.3116  0.6456
  719MOL0     C99107   6.114   4.719   5.149  0.0645 -0.2737 -0.3667
  719MOL0     O99108   6.224   4.623   5.161 -0.1340 -0.0891  0.4766
  719MOL0     C99109   6.345   4.664   5.203  0.4108 -0.3689 -0.0349
  719MOL0     C99110   6.447   4.573   5.174 -0.1236 -0.3890  0.3484
  719MOL0     C99111   6.572   4.589   5.232 -0.4909 -0.5887  0.1217
  719MOL0     C99112   6.678   4.500   5.174 -0.6202 -0.3728 -0.1986
  719MOL0     C99113   6.594   4.694   5.322 -0.6799 -0.3728  0.0872
  719MOL0     C99114   6.720   4.719   5.409  0.6228  0.2815 -0.2165
  719MOL0     O99115   6.750   4.847   5.447  0.3621 -0.0555  0.6438
  719MOL0     C99116   6.852   4.856   5.537  0.6434  0.3713  0.5014
  719MOL0     C99117   6.990   4.848   5.505  0.4622  0.5983 -0.4161
  719MOL0     C99118   7.093   4.850   5.594  0.3828  0.5663 -0.1634
  719MOL0     C99119   7.055   4.850   5.727 -0.4796  1.0969 -0.7181
  719MOL0     O99120   7.145   4.861   5.831  0.5099  0.3764  0.4742
  719MOL0     C99121   7.284   4.883   5.795  0.5460 -0.1811 -0.2122
  719MOL0     C99122   7.305   5.027   5.747  0.1071 -0.0681 -0.8160
  719MOL0     C99123   7.220   5.124   5.840 -0.0553 -0.7527 -0.3429
  719MOL0     C99124   7.212   5.261   5.767  0.3014  0.3727 -0.2328
  719MOL0     C99125   7.343   5.344   5.758 -0.0171 -0.4429 -0.3714
  719MOL0     C99126   7.318   5.474   5.673  0.4589 -0.1820 -0.9193
  719MOL0     C99127   7.206   5.563   5.730  0.0147  0.2630  0.6683
  719MOL0     C99128   7.185   5.676   5.623  0.0240  0.4102  0.1865
  719MOL0    Cl99129   7.058   5.788   5.680 -0.0744 -0.0964 -0.1220
  719MOL0     C99130   6.922   4.858   5.763  0.9010  0.2017 -0.1827
  719MOL0     C99131   6.822   4.862   5.668 -0.4198 -0.3537 -1.1667
  719MOL0     O99132   6.771   4.618   5.448 -0.6658 -0.8832  0.0518
  719MOL0     C99133   6.502   4.799   5.334 -0.2802 -0.2914  0.2560
  719MOL0     C99134   6.373   4.781   5.283 -0.6205  0.3583  1.3034
  719MOL0     N99135   5.649   4.908   4.943 -0.2280 -0.8925  0.7716
  719MOL0     N99136   5.530   4.949   4.918  0.7475  0.3625 -0.0505
  719MOL0     C99137   4.237   4.649   5.409  0.6088  0.6860 -0.7521
  719MOL0     C99138   4.105   4.615   5.462  0.0434 -0.4518 -0.7510
  719MOL0     C99139   3.629   4.574   5.422  0.4815 -0.4011  0.2462
  719MOL0     C99140   3.515   4.589   5.342  0.0285  0.2659 -0.3697
  719MOL0     C99141   3.386   4.552   5.382  0.4792 -0.3431 -0.1971
  719MOL0     C99142   3.363   4.495   5.508  0.7685 -0.3663  0.2555
  719MOL0     O99143   3.238   4.447   5.523 -0.4641 -0.3883 -0.2147
  719MOL0     C99144   3.200   4.414   5.659  0.5130  0.9977  0.1362
  719MOL0     C99145   3.064   4.336   5.662  0.1096 -1.0646 -0.4201
  719MOL0     C99146   3.057   4.223   5.559  0.2951  0.1525 -0.1279
  719MOL0     C99147   3.146   4.108   5.603  0.1366  0.6833 -0.1131
  719MOL0     C99148   3.147   3.994   5.513 -0.0623  0.2897  0.0310
  719MOL0     C99149   3.128   3.914   5.422  0.5131 -0.5450  0.5867
  719MOL0     C99150   3.476   4.476   5.599 -0.2206 -0.7253  0.1618
  719MOL0     C99151   3.605   4.515   5.554  0.5396 -0.0103 -0.2858
  719MOL0     C99152   3.706   4.507   5.661 -0.5453  0.5900  0.2455
  719MOL0     H99153   3.939   4.535   5.176 -0.6173 -0.5984 -0.3626
  719MOL0     H99154   4.184   4.571   5.086  1.4980 -1.7464  0.1276
  719MOL0     H99155   4.532   4.576   5.311 -0.8356 -1.0427  0.8215
  719MOL0     H99156   4.512   4.747   5.355  1.2851 -2.5394  1.3146
  719MOL0     H99157   4.570   4.707   5.070 -1.0536  0.8376  0.1677
  719MOL0     H99158   4.613   4.828   5.185  0.2442 -0.7913  3.1951
  719MOL0     H99159   4.769   4.692   5.312 -3.4789 -1.3480  0.5966
  719MOL0     H99160   4.753   4.566   5.202  2.4875 -0.8127  2.8881
  719MOL0     H99161   4.840   4.736   5.010 -0.2038  0.5128 -0.5711
  719MOL0     H99162   4.831   4.868   5.120  1.4794  0.2304 -2.7142
  719MOL0     H99163   5.017   4.632   5.132 -0.0212 -0.2423 -0.9565
  719MOL0     H99164   5.024   4.772   5.240 -0.7202 -1.2584  1.0969
  719MOL0     H99165   5.036   4.757   4.927 -3.3326  2.3708 -0.5933
  719MOL0     H99166   5.034   4.907   5.024 -2.1078 -0.1872  0.9406
  719MOL0     H99167   5.257   4.698   5.031  0.5738  1.0824  0.4688
  719MOL0     H99168   5.254   4.840   5.130 -0.6186  0.3364 -0.0779
  719MOL0     H99169   5.249   4.849   4.830 -0.3259 -0.7906  0.6768
  719MOL0     H99170   5.264   4.986   4.943 -1.1799 -0.5863  1.9086
  719MOL0     H99171   5.461   4.638   4.972  0.9310  0.0591  1.3405
  719MOL0     H99172   5.784   4.609   4.918  0.9565  2.2964  0.0118
  719MOL0     H99173   5.708   4.609   5.087  0.1173  0.3491  0.9430
  719MOL0     H99174   5.904   4.826   5.003  1.8313 -1.0574 -0.7430
  719MOL0     H99175   5.847   4.786   5.162  0.1325  1.0377  0.8579
  719MOL0     H99176   5.966   4.566   5.154  2.1730 -0.3253  1.9897
  719MOL0     H99177   6.021   4.614   4.990 -2.8307  0.8216 -0.4296
  719MOL0     H99178   6.136   4.809   5.091 -0.2177  0.6495  0.9169
  719MOL0     H99179   6.078   4.746   5.249 -3.1951 -0.3002 -1.4328
  719MOL0     H99180   6.423   4.489   5.110  0.5639 -0.4148  0.1206
  719MOL0     H99181   6.634   4.401   5.156 -0.9326 -0.2719  0.0050
  719MOL0     H99182   6.760   4.476   5.243  0.0302 -2.7131 -1.6568
  719MOL0     H99183   6.719   4.542   5.081  1.3812  1.8036  1.5199
  719MOL0     H99184   7.010   4.843   5.399 -1.2680  3.8492 -1.0088
  719MOL0     H99185   7.189   4.866   5.547  2.3372  0.5848  3.4891
  719MOL0     H99186   7.329   4.868   5.893 -2.5613  1.0162  1.5291
  719MOL0     H99187   7.329   4.813   5.723  1.2665  0.4692 -0.4090
  719MOL0     H99188   7.411   5.055   5.751  0.1260 -0.2121 -0.2781
  719MOL0     H99189   7.277   5.032   5.642  1.1316 -0.8751 -1.1378
  719MOL0     H99190   7.271   5.128   5.936 -0.1717 -1.6717 -0.2255
  719MOL0     H99191   7.117   5.095   5.864 -0.2962  0.4807  0.1782
  719MOL0     H99192   7.134   5.321   5.815 -0.2294 -0.7960  0.3963
  719MOL0     H99193   7.186   5.254   5.661  2.3624  0.1479 -0.7741
  719MOL0     H99194   7.382   5.371   5.856 -1.9067  2.2905 -0.2689
  719MOL0     H99195   7.429   5.290   5.717  0.6034 -0.2686  0.6571
  719MOL0     H99196   7.295   5.440   5.571 -1.9263  0.6730 -0.7293
  719MOL0     H99197   7.407   5.536   5.682  0.5710 -0.1706 -1.9469
  719MOL0     H99198   7.229   5.601   5.830 -1.9374  0.4966  1.0675
  719MOL0     H99199   7.116   5.501   5.731 -0.5645  0.9807 -1.3379
  719MOL0     H99200   7.153   5.626   5.531 -2.3771 -1.2860  1.8120
  719MOL0     H99201   7.277   5.734   5.616 -0.4568  1.0746 -1.0722
  719MOL0     H99202   6.896   4.842   5.867  2.2273 -1.6771 -0.0919
  719MOL0     H99203   6.721   4.872   5.708  0.7715 -1.4108  2.4890
  719MOL0     H99204   6.520   4.889   5.391 -0.2328  0.5430 -1.0359
  719MOL0     H99205   6.302   4.859   5.306  1.4902  3.0565 -0.6474
  719MOL0     H99206   4.316   4.676   5.479  1.3850 -0.1412 -1.2795
  719MOL0     H99207   4.085   4.615   5.569  1.0177 -0.4051 -0.5557
  719MOL0     H99208   3.521   4.611   5.236  2.0882 -1.9863 -0.8255
  719MOL0     H99209   3.305   4.554   5.309 -1.4647 -0.4691  1.8441
  719MOL0     H99210   3.275   4.341   5.690 -0.7594 -0.4853 -0.1350
  719MOL0     H99211   3.207   4.506   5.719  0.5020  0.6164  0.7288
  719MOL0     H99212   2.976   4.400   5.651  1.9068  1.4824 -0.7406
  719MOL0     H99213   3.048   4.305   5.765  0.8950  0.6784  0.2613
  719MOL0     H99214   2.955   4.185   5.549  0.3705 -0.0185 -0.2635
  719MOL0     H99215   3.077   4.260   5.458 -0.2180 -1.7203 -0.9618
  719MOL0     H99216   3.127   4.069   5.703 -0.6757  0.0058 -0.5103
  719MOL0     H99217   3.248   4.142   5.619  0.0828  0.6968  0.1966
  719MOL0     H99218   3.098   3.843   5.349 -0.5949  0.4870  0.0142
  719MOL0     H99219   3.472   4.437   5.700  1.0202  0.9979  0.9332
  719MOL0     H99220   3.756   4.604   5.673  1.6218 -0.3674 -0.4251
  719MOL0     H99221   3.669   4.480   5.760 -0.4678  3.1973  1.0508
  719MOL0     H99222   3.786   4.433   5.648  1.5342  2.8854 -0.9180
  720MOL0     O99223   5.365   7.630   2.321 -0.5009 -0.4283  0.1703
  720MOL0     C99224   5.336   7.610   2.442 -0.4279 -0.4117  0.2012
  720MOL0     O99225   5.426   7.623   2.550  0.2307 -0.6386  0.3187
  720MOL0     C99226   5.562   7.630   2.537 -0.2539 -0.0096 -0.0606
  720MOL0     C99227   5.627   7.712   2.631 -0.0934  0.0296 -0.2836
  720MOL0     C99228   5.770   7.711   2.650  0.6347 -0.3951  1.6141
  720MOL0     C99229   5.846   7.629   2.566  0.2080  0.2595  1.1436
  720MOL0     O99230   5.979   7.636   2.582  0.1459 -0.0894 -0.5181
  720MOL0     C99231   6.062   7.536   2.523 -0.0759 -0.6116  0.2152
  720MOL0     C99232   6.197   7.558   2.585  0.3243  0.6635  0.1827
  720MOL0     C99233   6.261   7.700   2.580  0.1833 -0.2058  0.3296
  720MOL0     C99234   6.413   7.688   2.608 -0.7582 -0.5851 -0.0978
  720MOL0     C99235   6.495   7.813   2.563 -0.2830 -0.5190  0.5785
  720MOL0     C99236   6.638   7.810   2.595 -0.4462 -0.2304 -0.7360
  720MOL0     C99237   6.715   7.933   2.548  0.5209  0.3519  0.3402
  720MOL0     C99238   6.838   7.951   2.624  0.4212 -0.7898  0.7482
  720MOL0     N99239   6.921   8.046   2.557  0.2908 -0.2810 -0.5885
  720MOL0     C99240   6.880   8.176   2.533  0.0022 -0.3878  0.1531
  720MOL0     C99241   6.983   8.229   2.460 -0.8030  0.3860 -0.0587
  720MOL0     C99242   6.990   8.372   2.410  0.7245 -1.2276 -0.5547
  720MOL0     C99243   7.046   8.475   2.515 -0.5239 -0.1826  0.9221
  720MOL0     C99244   7.094   8.602   2.433  0.6318 -0.8368 -0.1124
  720MOL0     C99245   7.118   8.728   2.522  0.0475  0.1621  0.0401
  720MOL0     O99246   7.185   8.831   2.445 -0.0686  0.3314  0.0572
  720MOL0     C99247   7.323   8.837   2.447  0.3904  0.7301  0.0733
  720MOL0     C99248   7.372   8.939   2.366 -0.8916  0.2485  0.1411
  720MOL0     C99249   7.509   8.954   2.360 -0.0317 -1.0160 -0.1122
  720MOL0     C99250   7.541   9.060   2.254  0.6197  0.5037 -0.4315
  720MOL0     C99251   7.599   8.871   2.431  0.1842  0.3440 -0.3460
  720MOL0     C99252   7.750   8.865   2.413  0.5120 -0.8832 -0.1330
  720MOL0     O99253   7.809   8.767   2.488  0.1623  0.5643 -0.2151
  720MOL0     C99254   7.946   8.747   2.469 -0.5131  0.1819 -0.2012
  720MOL0     C99255   7.999   8.618   2.467 -0.3575 -0.4094 -0.0803
  720MOL0     C99256   8.139   8.601   2.447  0.3639  0.3550  0.2104
  720MOL0     C99257   8.230   8.707   2.463 -0.0895  1.0069 -0.6467
  720MOL0     O99258   8.361   8.692   2.439 -0.0578  0.4048  0.9375
  720MOL0     C99259   8.435   8.599   2.518 -0.0360 -0.1178  0.2122
  720MOL0     C99260   8.582   8.622   2.488  0.6701 -0.4613  0.3771
  720MOL0     C99261   8.676   8.529   2.571 -0.8595  1.1694 -0.2583
  720MOL0     C99262   8.706   8.586   2.714 -0.1402 -0.0390 -0.3030
  720MOL0     C99263   8.788   8.723   2.706  0.8600  0.0022  0.5689
  720MOL0     C99264   8.885   8.740   2.836 -0.1056  0.5518  0.8995
  720MOL0     C99265   8.808   8.793   2.954  0.9960  0.1658  0.2916
  720MOL0     C99266   8.899   8.818   3.071 -0.5710 -0.2511  0.3302
  720MOL0    Cl99267   8.982   8.973   3.056  0.0239  0.3770  0.4694
  720MOL0     C99268   8.176   8.834   2.484 -0.6643 -0.3399 -0.4367
  720MOL0     C99269   8.038   8.857   2.478 -0.4160 -0.0761  0.8344
  720MOL0     O99270   7.808   8.945   2.342 -0.9419  0.2331  0.6336
  720MOL0     C99271   7.544   8.781   2.531 -0.4180 -0.2754 -0.6552
  720MOL0     C99272   7.411   8.756   2.527  0.4207 -0.4764 -0.2115
  720MOL0     N99273   7.079   8.126   2.433 -0.2157 -0.6812  0.2593
  720MOL0     N99274   7.039   8.020   2.489  1.1748  1.0886  0.2212
  720MOL0     C99275   5.778   7.547   2.472  0.3626  0.7386  0.3709
  720MOL0     C99276   5.640   7.554   2.454 -0.4122 -0.0397  0.0360
  720MOL0     C99277   5.195   7.581   2.480  0.1201 -0.2864  0.7201
  720MOL0     C99278   5.164   7.546   2.617 -1.0514 -0.4014  0.0698
  720MOL0     C99279   5.040   7.520   2.664  0.3003  0.7982 -0.4538
  720MOL0     C99280   4.927   7.539   2.580  0.0128 -0.2960  0.1194
  720MOL0     O99281   4.799   7.521   2.613 -0.2764 -0.6609  0.1761
  720MOL0     C99282   4.758   7.416   2.703 -0.1636  0.5006 -0.2519
  720MOL0     C99283   4.792   7.273   2.663  0.3238  0.2296  0.2914
  720MOL0     C99284   4.700   7.216   2.560  0.2714  0.1060 -0.2724
  720MOL0     C99285   4.718   7.269   2.421  0.3563 -0.9621 -0.4079
  720MOL0     C99286   4.862   7.268   2.379 -0.6845  0.7629  0.3866
  720MOL0     C99287   4.968   7.286   2.321  0.0980  0.9341 -0.8516
  720MOL0     C99288   4.956   7.598   2.456  0.1566  0.1308 -0.5606
  720MOL0     C99289   5.079   7.605   2.404 -0.1830 -0.0085 -0.0647
  720MOL0     C99290   5.089   7.636   2.259 -0.9018  0.3970  0.6476
  720MOL0     H99291   5.556   7.760   2.698 -1.5196 -3.3492  0.8900
  720MOL0     H99292   5.810   7.766   2.735  1.3873 -0.8734  1.5820
  720MOL0     H99293   6.061   7.545   2.414  0.1479 -0.4522  0.2275
  720MOL0     H99294   6.021   7.439   2.552  1.7374 -0.9492  1.8541
  720MOL0     H99295   6.190   7.517   2.686  2.8167 -1.1040 -0.2742
  720MOL0     H99296   6.273   7.496   2.537  3.9575  2.5798  2.9228
  720MOL0     H99297   6.255   7.734   2.476  5.2296 -0.0386 -0.1551
  720MOL0     H99298   6.205   7.763   2.651  0.5517 -0.4279  0.8209
  720MOL0     H99299   6.431   7.673   2.714 -0.0671 -0.6065 -0.2157
  720MOL0     H99300   6.451   7.599   2.558 -1.0427 -0.6197 -0.2570
  720MOL0     H99301   6.459   7.896   2.624 -1.2007  0.0530 -0.7112
  720MOL0     H99302   6.479   7.837   2.457 -2.3546  1.6324  1.2976
  720MOL0     H99303   6.636   7.815   2.704 -2.3673  1.0288 -0.7861
  720MOL0     H99304   6.692   7.720   2.562 -0.6632 -0.1765 -1.2483
  720MOL0     H99305   6.649   8.020   2.551  0.6825  0.7047 -2.8888
  720MOL0     H99306   6.744   7.912   2.444  0.3521 -0.0997  0.3806
  720MOL0     H99307   6.813   7.989   2.724 -1.2788  0.2695 -0.0498
  720MOL0     H99308   6.908   7.867   2.631  0.6332 -0.6384  0.4256
  720MOL0     H99309   6.795   8.234   2.567  0.0908  0.8806 -1.6453
  720MOL0     H99310   6.888   8.401   2.385  1.1923  1.3331  0.2414
  720MOL0     H99311   7.040   8.388   2.314 -0.2804 -0.7686 -1.0169
  720MOL0     H99312   6.963   8.496   2.584 -2.2864 -0.9347 -0.8626
  720MOL0     H99313   7.130   8.428   2.567  0.4425  0.6356  0.1488
  720MOL0     H99314   7.189   8.587   2.381  1.2306 -0.7167  0.9188
  720MOL0     H99315   7.021   8.628   2.356  1.9564 -0.1376 -1.1681
  720MOL0     H99316   7.021   8.759   2.562 -0.5178 -0.3178 -0.9138
  720MOL0     H99317   7.177   8.697   2.608  1.1615 -0.9621 -1.0733
  720MOL0     H99318   7.303   9.002   2.312  1.2792  1.9939 -0.7792
  720MOL0     H99319   7.618   9.128   2.292 -1.0063 -0.5207  5.6581
  720MOL0     H99320   7.456   9.123   2.228  1.3516  0.3857 -3.5223
  720MOL0     H99321   7.572   9.003   2.165 -1.7972  0.0405 -1.0502
  720MOL0     H99322   7.939   8.528   2.479 -0.1752 -0.6889 -1.1832
  720MOL0     H99323   8.179   8.501   2.438 -0.7535 -0.0505 -0.3881
  720MOL0     H99324   8.427   8.627   2.624  1.1386 -1.6227  0.7429
  720MOL0     H99325   8.400   8.498   2.498 -0.7709  0.4019 -1.2656
  720MOL0     H99326   8.599   8.586   2.386  0.6412 -1.9628  0.8812
  720MOL0     H99327   8.596   8.729   2.505  0.2684 -0.6248  1.8422
  720MOL0     H99328   8.772   8.519   2.520  0.6928  0.4089  2.5889
  720MOL0     H99329   8.634   8.429   2.588 -1.1316  1.5768  1.6536
  720MOL0     H99330   8.757   8.511   2.775  1.1026  1.6263  0.7883
  720MOL0     H99331   8.619   8.622   2.768 -0.7893 -2.2319  0.2174
  720MOL0     H99332   8.847   8.703   2.616 -2.4158  0.1750 -1.7838
  720MOL0     H99333   8.725   8.811   2.691 -0.8214 -1.1442  0.5629
  720MOL0     H99334   8.965   8.806   2.802  0.9062 -1.3192 -0.4955
  720MOL0     H99335   8.936   8.644   2.849 -1.1342 -0.5204 -2.1797
  720MOL0     H99336   8.737   8.714   2.982  1.1297 -0.3871 -0.8561
  720MOL0     H99337   8.752   8.881   2.921  1.9278 -0.2380 -2.7383
  720MOL0     H99338   8.964   8.732   3.088 -1.2167 -0.9283 -0.5434
  720MOL0     H99339   8.834   8.821   3.159 -1.4083 -1.7976 -0.1989
  720MOL0     H99340   8.247   8.916   2.493 -1.7465  0.4133  2.1407
  720MOL0     H99341   8.003   8.956   2.507  1.5525  0.9163  0.0467
  720MOL0     H99342   7.609   8.731   2.602  1.8933 -3.0703 -4.3315
  720MOL0     H99343   7.375   8.683   2.599 -3.5114  0.6448 -0.8261
  720MOL0     H99344   5.833   7.497   2.393 -0.7779  1.8195 -1.1832
  720MOL0     H99345   5.588   7.496   2.378 -0.1732  1.0615 -0.9945
  720MOL0     H99346   5.248   7.546   2.686  0.8763  1.1235 -2.1289
  720MOL0     H99347   5.030   7.485   2.767 -0.0574 -2.7217 -1.5634
  720MOL0     H99348   4.805   7.435   2.800 -1.6337  3.4477 -0.0176
  720MOL0     H99349   4.650   7.422   2.723  0.1168  0.4830  1.3767
  720MOL0     H99350   4.779   7.205   2.748  3.7334  0.4124  1.1171
  720MOL0     H99351   4.895   7.263   2.627  0.8692  0.9552  1.5738
  720MOL0     H99352   4.708   7.107   2.562  1.2271  0.0716 -2.5892
  720MOL0     H99353   4.598   7.238   2.592  0.5192 -1.6004  1.8926
  720MOL0     H99354   4.678   7.369   2.401  2.1914 -0.3471 -1.2959
  720MOL0     H99355   4.659   7.198   2.361  1.8900 -1.8798 -0.8894
  720MOL0     H99356   5.057   7.298   2.263  0.1586 -1.2475 -1.3241
  720MOL0     H99357   4.877   7.629   2.389  1.4664  1.8425 -1.4118
  720MOL0     H99358   5.136   7.555   2.204 -4.1579 -1.5352  0.4650
  720MOL0     H99359   4.989   7.637   2.214  0.7502 -1.3326 -3.5141
  720MOL0     H99360   5.137   7.730   2.230 -1.2156  0.3326 -0.0900
  721MOL0     O99361  10.820   6.251   0.049 -0.6567 -0.3780  0.3302
  721MOL0     C99362  10.755   6.229   0.151  0.1272 -0.1519 -0.0099
  721MOL0     O99363  10.801   6.147   0.259 -0.1409 -0.2778  0.1651
  721MOL0     C99364  10.935   6.118   0.251 -0.2126 -0.2738 -0.0234
  721MOL0     C99365  11.021   6.225   0.287 -0.2763 -0.4263  0.4100
  721MOL0     C99366  11.156   6.218   0.274  0.2888 -0.1958  0.0099
  721MOL0     C99367  11.211   6.101   0.218 -0.7734  0.4748  0.2828
  721MOL0     O99368  11.351   6.090   0.194  0.2068 -0.1367  0.2649
  721MOL0     C99369  11.451   6.158   0.282 -0.4826 -0.4233  0.2579
  721MOL0     C99370  11.588   6.170   0.211  0.1688 -0.2864 -0.0840
  721MOL0     C99371  11.634   6.029   0.191  0.4487  0.5680 -0.4745
  721MOL0     C99372  11.725   5.992   0.297 -0.1219  0.1103 -1.4784
  721MOL0     C99373  11.809   5.872   0.251 -0.7221  0.7612  0.0621
  721MOL0     C99374  11.893   5.810   0.362  0.3941 -0.1991 -0.4604
  721MOL0     C99375  11.992   5.703   0.305 -0.1275 -0.2364 -0.4904
  721MOL0     C99376  12.089   5.750   0.198  0.0288 -0.3148 -0.5919
  721MOL0     N99377  12.175   5.644   0.146  0.0555 -0.6388  0.0355
  721MOL0     C99378  12.156   5.590   0.026 -0.7614 -0.2080  0.0762
  721MOL0     C99379  12.259   5.499   0.015 -0.4948  0.7824  0.4459
  721MOL0     C99380  12.299   5.413  -0.100  0.0067 -0.1736  0.6435
  721MOL0     C99381  12.432   5.334  -0.070 -0.0394 -1.0926 -0.5040
  721MOL0     C99382  12.388   5.203  -0.005  0.8812 -0.8588  0.9761
  721MOL0     C99383  12.510   5.158   0.085 -0.0113  0.4408 -0.6439
  721MOL0     O99384  12.615   5.115   0.003 -0.0409  0.0121  1.0851
  721MOL0     C99385  12.733   5.074   0.058 -0.4355 -0.1336 -0.3122
  721MOL0     C99386  12.766   5.100   0.197  1.1162  0.1602  0.1960
  721MOL0     C99387  12.893   5.070   0.254 -0.6832 -0.4837 -0.3818
  721MOL0     C99388  12.913   5.100   0.400  0.0731  0.1567  0.9809
  721MOL0     C99389  12.993   5.043   0.169  0.4292  0.3768 -0.5425
  721MOL0     C99390  13.136   5.058   0.195 -0.4421 -0.1325  0.1772
  721MOL0     O99391  13.222   4.996   0.101  0.0207  0.3465 -0.1600
  721MOL0     C99392  13.350   5.046   0.101  0.2777 -0.6872 -1.4703
  721MOL0     C99393  13.398   5.100  -0.021  0.2166  0.1276  0.1950
  721MOL0     C99394  13.519   5.167  -0.030 -0.1416 -0.3654 -0.5307
  721MOL0     C99395  13.606   5.164   0.081 -0.7270  1.5871 -0.5721
  721MOL0     O99396  13.731   5.224   0.084  0.2845  0.2249 -0.4153
  721MOL0     C99397  13.779   5.294  -0.032 -0.2196 -0.7354 -0.0577
  721MOL0     C99398  13.901   5.373   0.019  0.5507  0.1839 -0.1910
  721MOL0     C99399  13.848   5.495   0.088 -0.7634  0.2726 -0.2108
  721MOL0     C99400  13.878   5.484   0.251 -0.1544 -0.0716  0.5991
  721MOL0     C99401  13.821   5.606   0.330  0.0560 -0.9602 -0.9519
  721MOL0     C99402  13.875   5.742   0.278  0.3966  0.0253 -0.1785
  721MOL0     C99403  13.846   5.855   0.379 -0.4613 -0.0834  0.0103
  721MOL0     C99404  13.697   5.874   0.387  0.7299 -0.0190  0.3345
  721MOL0    Cl99405  13.660   6.021   0.482 -0.2824  0.3342 -0.1030
  721MOL0     C99406  13.562   5.091   0.201  0.8513 -0.4254  0.0907
  721MOL0     C99407  13.431   5.049   0.216 -1.0123  0.0357 -0.5887
  721MOL0     O99408  13.166   5.145   0.280 -0.0934 -0.1081 -0.5008
  721MOL0     C99409  12.960   5.004   0.040 -0.8765 -0.5927  0.5726
  721MOL0     C99410  12.835   5.025  -0.022  0.6744  0.1907  0.2564
  721MOL0     N99411  12.336   5.501   0.135 -0.2393  0.9714 -0.2539
  721MOL0     N99412  12.290   5.593   0.206  0.4188  0.2001 -0.2126
  721MOL0     C99413  11.128   5.999   0.169 -0.7712 -0.9154 -0.1187
  721MOL0     C99414  10.989   6.014   0.190  0.3304 -0.1853  0.0687
  721MOL0     C99415  10.620   6.280   0.150  0.0951 -0.6220 -0.0648
  721MOL0     C99416  10.530   6.224   0.243  0.8090 -0.5097 -0.2060
  721MOL0     C99417  10.389   6.260   0.247 -0.2975 -1.4592  0.1063
  721MOL0     C99418  10.346   6.367   0.162 -0.3778 -0.2507  0.0472
  721MOL0     O99419  10.211   6.388   0.165  0.4343 -0.0974 -0.8629
  721MOL0     C99420  10.150   6.496   0.094  0.1837 -1.0926  0.7026
  721MOL0     C99421  10.001   6.524   0.138 -0.8314 -0.7478  0.3474
  721MOL0     C99422   9.908   6.427   0.066  0.0437  0.5360  0.9123
  721MOL0     C99423   9.758   6.434   0.102 -0.0928  0.3410  0.3120
  721MOL0     C99424   9.697   6.546   0.026 -0.9938  0.5718 -0.1112
  721MOL0     C99425   9.648   6.626  -0.048 -0.2218  0.4079  0.1172
  721MOL0     C99426  10.439   6.430   0.071 -0.4081 -0.1747  0.7197
  721MOL0     C99427  10.579   6.388   0.070  0.6111 -0.1446  1.1298
  721MOL0     C99428  10.669   6.485  -0.005  0.1347 -0.6021 -0.0193
  721MOL0     H99429  10.980   6.322   0.313  0.2589  0.0908 -0.6043
  721MOL0     H99430  11.210   6.305   0.309 -1.1541  0.1809  1.4230
  721MOL0     H99431  11.454   6.111   0.381 -1.5865  1.1183  1.0801
  721MOL0     H99432  11.425   6.264   0.293 -3.2086 -1.2229  3.1397
  721MOL0     H99433  11.572   6.218   0.114  0.1859  0.5357  0.3099
  721MOL0     H99434  11.658   6.238   0.260 -0.4077 -0.2087  0.6495
  721MOL0     H99435  11.550   5.959   0.194 -0.3646  1.5676  0.2758
  721MOL0     H99436  11.688   6.022   0.096 -2.2435  2.2186 -2.2572
  721MOL0     H99437  11.788   6.081   0.307 -0.6134  0.4346 -1.2397
  721MOL0     H99438  11.670   5.966   0.388 -0.3047  2.7635 -0.7387
  721MOL0     H99439  11.875   5.901   0.168  2.7498 -1.2948  1.8566
  721MOL0     H99440  11.732   5.807   0.210  0.2497 -1.4884  1.5921
  721MOL0     H99441  11.957   5.885   0.409 -1.7581  1.4949 -0.0676
  721MOL0     H99442  11.831   5.762   0.439 -1.7814  0.7008 -1.5645
  721MOL0     H99443  11.934   5.626   0.254  1.9625 -0.8213 -2.1052
  721MOL0     H99444  12.042   5.663   0.394 -1.8725  0.1635  0.7353
  721MOL0     H99445  12.040   5.809   0.120  1.1084  3.0824  1.0980
  721MOL0     H99446  12.161   5.820   0.241 -0.4830  2.7796 -4.2503
  721MOL0     H99447  12.085   5.621  -0.050 -0.5107 -1.3017 -0.6314
  721MOL0     H99448  12.319   5.479  -0.185 -0.8286 -1.6625 -0.7751
  721MOL0     H99449  12.220   5.342  -0.125 -1.0408  0.4390  2.0985
  721MOL0     H99450  12.480   5.322  -0.168  0.8322 -1.7248 -0.0216
  721MOL0     H99451  12.494   5.392  -0.001 -0.2658  1.4796 -2.3197
  721MOL0     H99452  12.304   5.213   0.064  0.3639  2.0116  0.0558
  721MOL0     H99453  12.373   5.131  -0.086 -1.0075  1.7938 -1.2090
  721MOL0     H99454  12.544   5.231   0.159  0.8226 -1.2620  0.6910
  721MOL0     H99455  12.481   5.080   0.156  1.4034  1.4957  1.1539
  721MOL0     H99456  12.699   5.149   0.267  1.0987  0.3057  0.0784
  721MOL0     H99457  12.997   5.042   0.439 -0.4314 -0.7012  0.8385
  721MOL0     H99458  12.819   5.063   0.444 -0.8932 -2.7329 -2.9159
  721MOL0     H99459  12.924   5.207   0.419 -1.8512  0.5011  0.3730
  721MOL0     H99460  13.339   5.110  -0.112 -0.3964 -0.7334  0.4827
  721MOL0     H99461  13.543   5.212  -0.126  0.0734  1.6740  0.4103
  721MOL0     H99462  13.806   5.215  -0.104 -1.9408 -2.2041  0.8169
  721MOL0     H99463  13.705   5.358  -0.080 -0.1057  0.4483  1.3055
  721MOL0     H99464  13.970   5.315   0.081  2.2150  2.6239  0.3840
  721MOL0     H99465  13.954   5.413  -0.068  0.8250  1.5981  0.5991
  721MOL0     H99466  13.740   5.506   0.079 -0.6532  2.6305  0.7753
  721MOL0     H99467  13.902   5.583   0.053 -0.6914 -0.3179 -1.6528
  721MOL0     H99468  13.987   5.476   0.260 -0.1106  1.0408  1.1921
  721MOL0     H99469  13.841   5.390   0.293 -1.3642  0.3285  0.4718
  721MOL0     H99470  13.712   5.604   0.319 -0.0947  2.3297 -0.8239
  721MOL0     H99471  13.859   5.595   0.433  0.6383 -2.0870 -1.2673
  721MOL0     H99472  13.811   5.766   0.193  0.4502  1.1714  0.0953
  721MOL0     H99473  13.982   5.746   0.254  0.5195 -1.0882  0.1317
  721MOL0     H99474  13.903   5.946   0.360  1.8532 -1.4394  0.1181
  721MOL0     H99475  13.866   5.824   0.483  0.6299 -1.4908 -0.5860
  721MOL0     H99476  13.657   5.781   0.429  0.2644 -0.6945 -1.5022
  721MOL0     H99477  13.651   5.879   0.288 -0.4499  0.3539  0.8754
  721MOL0     H99478  13.632   5.072   0.282  2.3760 -0.8608 -1.2514
  721MOL0     H99479  13.394   4.998   0.304 -3.4977  1.3237 -0.8053
  721MOL0     H99480  13.040   4.972  -0.025 -2.0585  1.7439 -2.3000
  721MOL0     H99481  12.832   4.997  -0.127 -1.1406 -0.8039  0.5285
  721MOL0     H99482  11.174   5.917   0.114 -1.1704 -1.8855  0.9665
  721MOL0     H99483  10.926   5.934   0.152  2.5032 -1.2744 -1.5321
  721MOL0     H99484  10.559   6.149   0.316  1.0300 -0.0116  0.2287
  721MOL0     H99485  10.310   6.215   0.305 -1.0659  0.1186  0.3541
  721MOL0     H99486  10.210   6.586   0.112 -0.4962 -0.2927 -0.8100
  721MOL0     H99487  10.141   6.472  -0.012 -0.0336 -1.5584  0.8243
  721MOL0     H99488   9.982   6.629   0.115  1.6254 -0.8632 -3.0488
  721MOL0     H99489   9.987   6.519   0.246 -2.6543  0.8118  0.2256
  721MOL0     H99490   9.912   6.425  -0.043 -1.9763  3.4804  0.6718
  721MOL0     H99491   9.940   6.330   0.106  0.9933  1.4329  2.4297
  721MOL0     H99492   9.739   6.445   0.209  1.5333 -0.6561  0.7522
  721MOL0     H99493   9.705   6.346   0.064 -4.1836  2.2583  1.0002
  721MOL0     H99494   9.608   6.702  -0.112 -1.5811  0.9210  1.5142
  721MOL0     H99495  10.416   6.500  -0.009 -1.0917 -1.2030 -0.0100
  721MOL0     H99496  10.715   6.545   0.074 -0.3761 -0.8151  0.4437
  721MOL0     H99497  10.742   6.438  -0.071 -1.7668 -3.0616 -0.5017
  721MOL0     H99498  10.623   6.559  -0.072  0.5633 -1.6591 -1.5317
  722MOL0     O99499   6.788   8.942   1.469 -0.0761 -0.5434  0.4507
  722MOL0     C99500   6.792   8.962   1.591  0.3713  0.6516 -0.4696
  722MOL0     O99501   6.888   9.025   1.655 -0.4797  0.2626  0.1142
  722MOL0     C99502   6.994   9.053   1.579 -0.3808  0.6156  0.3122
  722MOL0     C99503   7.049   9.183   1.591 -1.3857  0.7584  0.2694
  722MOL0     C99504   7.174   9.215   1.531  0.8463  0.3366  0.5743
  722MOL0     C99505   7.244   9.122   1.451 -0.6291 -0.9803 -1.1104
  722MOL0     O99506   7.351   9.151   1.377 -0.3947  0.9448  0.0634
  722MOL0     C99507   7.383   9.291   1.341 -0.5322  0.3100 -0.0550
  722MOL0     C99508   7.508   9.268   1.239 -0.7236 -0.3088  0.8152
  722MOL0     C99509   7.594   9.395   1.207  0.4240  0.4560 -0.2084
  722MOL0     C99510   7.701   9.370   1.100 -0.0927 -0.1232 -0.7154
  722MOL0     C99511   7.758   9.494   1.038  0.4647 -0.5988  0.1131
  722MOL0     C99512   7.885   9.472   0.957  0.1800  0.4082 -0.4402
  722MOL0     C99513   7.939   9.608   0.923 -0.5692  0.3962 -0.5429
  722MOL0     C99514   8.090   9.626   0.883 -0.4635 -0.7576  0.3586
  722MOL0     N99515   8.186   9.591   1.000 -0.3820 -0.0324  0.9123
  722MOL0     C99516   8.243   9.681   1.084 -0.5911  0.5249 -0.2962
  722MOL0     C99517   8.301   9.605   1.188 -0.4534 -0.3593 -0.3763
  722MOL0     C99518   8.389   9.655   1.297  0.1665  0.4821 -0.3805
  722MOL0     C99519   8.512   9.729   1.246 -0.0987  0.0212 -0.1311
  722MOL0     C99520   8.625   9.627   1.201 -0.0264 -0.2130 -0.1473
  722MOL0     C99521   8.754   9.707   1.163 -0.1097  0.8836 -0.3191
  722MOL0     O99522   8.791   9.708   1.024  0.4085 -0.6081 -0.0444
  722MOL0     C99523   8.915   9.760   0.985  1.0966 -0.5251  0.0294
  722MOL0     C99524   8.915   9.860   0.888  0.3117  0.1114 -0.0118
  722MOL0     C99525   9.034   9.923   0.846 -0.0285  0.6843 -0.5547
  722MOL0     C99526   9.018  10.015   0.727  0.1032  0.3286  0.1597
  722MOL0     C99527   9.156   9.879   0.907 -1.1316 -0.2281 -1.5168
  722MOL0     C99528   9.287   9.949   0.875  0.7449 -0.3576 -0.3957
  722MOL0     O99529   9.392   9.875   0.907  0.5090  0.2862  0.0537
  722MOL0     C99530   9.506   9.922   0.874 -0.3335 -0.0154 -0.2885
  722MOL0     C99531   9.565   9.882   0.755  0.0289  0.4930  1.0031
  722MOL0     C99532   9.699   9.902   0.734  0.6654  0.3316 -0.0557
  722MOL0     C99533   9.776   9.963   0.829  0.1731 -0.2553 -0.5562
  722MOL0     O99534   9.912   9.974   0.817 -0.8520 -0.1309 -0.1187
  722MOL0     C99535   9.989   9.849   0.789 -0.3107 -0.1416  0.0651
  722MOL0     C99536  10.121   9.843   0.862  0.5207 -0.0592  0.2210
  722MOL0     C99537  10.202   9.717   0.819 -0.0718 -0.6545  0.1607
  722MOL0     C99538  10.305   9.687   0.922  0.5837 -0.5367 -0.2258
  722MOL0     C99539  10.434   9.757   0.877 -0.0949 -0.0037 -0.1595
  722MOL0     C99540  10.549   9.727   0.980 -0.4335  0.0184  1.1669
  722MOL0     C99541  10.684   9.770   0.924  0.1065  0.0409  0.2223
  722MOL0     C99542  10.802   9.715   1.001 -0.4897  0.0709  0.0659
  722MOL0    Cl99543  10.793   9.792   1.164 -0.3023  0.2264  0.2108
  722MOL0     C99544   9.717  10.015   0.944  0.4064  0.0584 -0.6286
  722MOL0     C99545   9.578   9.999   0.966 -0.0400 -0.8677  0.2068
  722MOL0     O99546   9.293  10.061   0.830  0.4366  0.6422  0.9000
  722MOL0     C99547   9.145   9.789   1.016 -0.1920 -1.2985  0.0141
  722MOL0     C99548   9.027   9.735   1.057 -0.3283  0.8015  1.0614
  722MOL0     N99549   8.269   9.463   1.161  0.8031  0.2248 -0.3657
  722MOL0     N99550   8.211   9.466   1.046  0.9276  0.4947  0.1242
  722MOL0     C99551   7.205   8.990   1.465 -0.0584  0.3398  0.6149
  722MOL0     C99552   7.085   8.951   1.525 -0.1831 -0.7756 -0.1824
  722MOL0     C99553   6.677   8.907   1.671  0.6463  0.4103  0.5655
  722MOL0     C99554   6.689   8.909   1.808 -0.6460 -0.5183 -0.2374
  722MOL0     C99555   6.584   8.868   1.893  0.5400 -0.5774 -0.5195
  722MOL0     C99556   6.464   8.822   1.851  0.2475 -0.9668  0.3354
  722MOL0     O99557   6.370   8.791   1.944 -0.3273 -1.4057  0.5856
  722MOL0     C99558   6.238   8.845   1.912 -0.7212  0.2784 -0.1479
  722MOL0     C99559   6.132   8.809   2.015  0.3573 -0.0211 -0.3681
  722MOL0     C99560   6.123   8.658   2.030 -0.1258  0.5296  0.0549
  722MOL0     C99561   5.977   8.609   2.035  0.5862  0.0581  1.0635
  722MOL0     C99562   5.954   8.469   1.998  0.2220  1.0692  0.5976
  722MOL0     C99563   5.963   8.353   1.972 -0.2245 -0.6976  0.0427
  722MOL0     C99564   6.451   8.816   1.715  1.0994  0.1009 -0.3900
  722MOL0     C99565   6.550   8.853   1.620 -0.6585  0.4104  0.7523
  722MOL0     C99566   6.508   8.833   1.468  0.4839  1.1249 -0.5896
  722MOL0     H99567   6.998   9.254   1.656  0.8282  0.9116  1.9569
  722MOL0     H99568   7.204   9.319   1.532 -2.0933  1.3130  2.1692
  722MOL0     H99569   7.409   9.349   1.430 -0.1409  0.2226 -0.1064
  722MOL0     H99570   7.295   9.337   1.294 -3.0389 -3.8810  0.0667
  722MOL0     H99571   7.580   9.196   1.278  1.5643  0.0104 -2.3940
  722MOL0     H99572   7.469   9.223   1.147 -1.2321  1.1570  0.2862
  722MOL0     H99573   7.513   9.466   1.186 -1.8017 -1.6496  0.7408
  722MOL0     H99574   7.655   9.425   1.292  2.0827 -2.0361 -0.4059
  722MOL0     H99575   7.791   9.327   1.144 -0.7167  0.3322  1.0778
  722MOL0     H99576   7.665   9.305   1.019 -0.0861  0.6190 -1.3269
  722MOL0     H99577   7.773   9.573   1.111 -0.3509 -1.2658  1.0239
  722MOL0     H99578   7.673   9.526   0.977  1.5416  2.1653 -0.0781
  722MOL0     H99579   7.949   9.423   1.031 -1.2894 -2.0963 -0.7194
  722MOL0     H99580   7.876   9.396   0.879  2.1727 -0.2668 -0.0683
  722MOL0     H99581   7.931   9.665   1.016  2.3513  1.5275 -0.8941
  722MOL0     H99582   7.879   9.652   0.843 -1.8641 -2.7561 -1.4592
  722MOL0     H99583   8.107   9.558   0.799 -3.1794 -0.8593 -0.2099
  722MOL0     H99584   8.108   9.727   0.845 -0.7768 -0.8620 -0.0703
  722MOL0     H99585   8.244   9.790   1.080 -0.0146  0.5777  0.9647
  722MOL0     H99586   8.420   9.579   1.369 -3.3601  0.8093  1.7619
  722MOL0     H99587   8.326   9.722   1.357 -1.2476 -1.5744  0.5442
  722MOL0     H99588   8.484   9.797   1.165 -0.1566  1.5534  1.1373
  722MOL0     H99589   8.546   9.784   1.334 -1.7491  0.3883  0.3176
  722MOL0     H99590   8.637   9.563   1.288 -0.1788 -1.2385 -0.8706
  722MOL0     H99591   8.595   9.555   1.125 -3.0239 -0.1066  0.8031
  722MOL0     H99592   8.760   9.805   1.210 -0.4693 -1.3144  5.0312
  722MOL0     H99593   8.831   9.645   1.211 -1.9942 -1.6144 -0.3020
  722MOL0     H99594   8.820   9.893   0.846  2.0899  3.4811 -1.8896
  722MOL0     H99595   8.927  10.002   0.669  0.7766 -0.3135 -0.7807
  722MOL0     H99596   9.097   9.997   0.654  2.1906  1.4242  2.0106
  722MOL0     H99597   9.015  10.117   0.768 -1.2611 -0.4052  2.0232
  722MOL0     H99598   9.506   9.838   0.675  0.2571  0.8293  0.6481
  722MOL0     H99599   9.740   9.862   0.642  0.6402 -1.8361  0.8373
  722MOL0     H99600   9.928   9.761   0.812 -2.1872  0.9840 -0.3702
  722MOL0     H99601  10.013   9.858   0.683 -1.7741  0.8924 -0.2206
  722MOL0     H99602  10.186   9.928   0.839  0.8522 -1.0767 -2.9998
  722MOL0     H99603  10.107   9.838   0.971 -1.4933  1.8394  0.1095
  722MOL0     H99604  10.257   9.727   0.725 -2.0016 -2.6920 -1.2886
  722MOL0     H99605  10.129   9.636   0.810  1.3885 -1.9854 -0.1917
  722MOL0     H99606  10.326   9.579   0.923 -0.2104 -0.6936  0.5418
  722MOL0     H99607  10.285   9.725   1.022 -0.2243 -0.2624 -0.4861
  722MOL0     H99608  10.455   9.721   0.775 -3.3682  1.5151 -1.4996
  722MOL0     H99609  10.416   9.865   0.876 -3.1313 -0.4091  1.7701
  722MOL0     H99610  10.554   9.623   1.015  0.4665  0.6590  3.1145
  722MOL0     H99611  10.541   9.778   1.076  0.9448  1.3907  0.5895
  722MOL0     H99612  10.691   9.877   0.903  2.0301 -0.4321 -2.0061
  722MOL0     H99613  10.694   9.733   0.821  0.4017 -3.0038  1.2361
  722MOL0     H99614  10.893   9.750   0.951 -1.7316 -0.0157 -2.3400
  722MOL0     H99615  10.802   9.606   1.010 -0.9360 -0.0837 -1.5881
  722MOL0     H99616   9.768  10.053   1.032 -2.9891 -1.1775  2.0952
  722MOL0     H99617   9.520  10.033   1.052 -1.2403 -1.1264 -0.4779
  722MOL0     H99618   9.227   9.770   1.085  1.2847  0.9246 -1.0112
  722MOL0     H99619   9.031   9.657   1.133  2.1899  0.3751  0.5888
  722MOL0     H99620   7.270   8.921   1.411 -1.2636 -1.1984  1.0690
  722MOL0     H99621   7.052   8.849   1.542 -1.9489  0.2372  3.5355
  722MOL0     H99622   6.771   8.938   1.873 -0.9577  1.4169 -0.6518
  722MOL0     H99623   6.594   8.866   2.001  0.0513 -1.1291 -0.4827
  722MOL0     H99624   6.245   8.953   1.897  1.5231  0.0543 -1.1685
  722MOL0     H99625   6.206   8.801   1.817  1.3278 -0.4736 -0.5440
  722MOL0     H99626   6.041   8.862   1.989  0.6517  2.5483  3.1174
  722MOL0     H99627   6.146   8.854   2.114 -2.5461  1.3201 -0.4803
  722MOL0     H99628   6.181   8.607   1.952  0.7985 -0.1081  1.1306
  722MOL0     H99629   6.181   8.633   2.120 -1.6110 -0.2026  0.8394
  722MOL0     H99630   5.906   8.665   1.973  0.1177 -0.1559  1.4100
  722MOL0     H99631   5.952   8.625   2.140  3.0863  2.0446  1.4578
  722MOL0     H99632   5.952   8.256   1.930 -1.2223  0.7077 -3.2349
  722MOL0     H99633   6.361   8.770   1.676  0.8817  0.2683 -0.0885
  722MOL0     H99634   6.400   8.838   1.450  0.8125 -0.8883 -4.0792
  722MOL0     H99635   6.557   8.905   1.402  2.1422  1.4357  0.9203
  722MOL0     H99636   6.526   8.735   1.422 -0.4201  1.1196 -0.9712
  723MOL0     O99637   0.245   2.140   9.614 -0.1114  0.6440 -0.3339
  723MOL0     C99638   0.250   2.247   9.548 -0.5523 -0.0036 -0.5113
  723MOL0     O99639   0.190   2.267   9.423  0.2900 -0.1160 -0.3704
  723MOL0     C99640   0.058   2.208   9.409 -0.0473  0.1219 -0.2756
  723MOL0     C99641  -0.027   2.159   9.519 -0.5676 -0.3128 -0.3874
  723MOL0     C99642  -0.158   2.130   9.496  0.6788 -0.2499  0.7916
  723MOL0     C99643  -0.201   2.112   9.369  0.2582  0.4493  0.0967
  723MOL0     O99644  -0.332   2.078   9.348  0.1276 -0.1570  0.4723
  723MOL0     C99645  -0.429   2.153   9.427 -0.1826 -0.4392 -0.3191
  723MOL0     C99646  -0.556   2.155   9.354  0.2892  0.2180 -0.8290
  723MOL0     C99647  -0.554   2.240   9.223 -0.2291 -0.1388 -0.0138
  723MOL0     C99648  -0.573   2.386   9.247 -0.4967 -0.0600  1.2693
  723MOL0     C99649  -0.533   2.464   9.119  0.8458 -0.4188 -0.4312
  723MOL0     C99650  -0.601   2.607   9.130 -0.6671  1.3247 -0.2454
  723MOL0     C99651  -0.545   2.700   9.016 -0.9352 -0.6517 -0.7251
  723MOL0     C99652  -0.585   2.849   9.046 -0.6728  0.9061  0.4178
  723MOL0     N99653  -0.517   2.941   8.955 -0.9007 -0.3385  0.2938
  723MOL0     C99654  -0.382   2.931   8.914 -0.1440  0.0322  0.3141
  723MOL0     C99655  -0.374   3.033   8.830 -1.2499 -0.5862 -0.1039
  723MOL0     C99656  -0.244   3.056   8.751 -0.0536  0.5061 -0.0252
  723MOL0     C99657  -0.265   3.154   8.639  0.4282 -0.4543  0.0701
  723MOL0     C99658  -0.128   3.176   8.564  0.3218  0.0350  0.3591
  723MOL0     C99659  -0.065   3.058   8.490 -0.4256  0.9167  0.8345
  723MOL0     O99660  -0.091   3.068   8.352  0.3892 -0.2142  1.2589
  723MOL0     C99661  -0.049   3.170   8.271  0.4934 -0.9447  0.2890
  723MOL0     C99662  -0.068   3.151   8.134  0.4835  0.8553  0.7078
  723MOL0     C99663  -0.027   3.239   8.032 -0.0557  0.8453 -0.2602
  723MOL0     C99664  -0.022   3.188   7.889  0.1538  0.2990  0.5428
  723MOL0     C99665   0.037   3.367   8.075  0.5434 -0.4223  0.1546
  723MOL0     C99666   0.085   3.476   7.981  0.0987 -0.1704 -0.4408
  723MOL0     O99667   0.040   3.468   7.847 -0.4222 -0.1062 -1.3673
  723MOL0     C99668   0.072   3.575   7.773  0.0139 -0.4348  0.9662
  723MOL0     C99669   0.177   3.574   7.685 -0.2766  0.3658  0.6543
  723MOL0     C99670   0.225   3.690   7.626 -0.5231  0.8901 -0.0021
  723MOL0     C99671   0.168   3.815   7.645  0.5270 -0.5078  0.3370
  723MOL0     O99672   0.214   3.928   7.571  0.6933 -0.5064 -0.3742
  723MOL0     C99673   0.167   4.053   7.609  0.5671 -0.1691  0.0232
  723MOL0     C99674   0.251   4.154   7.543  0.1509 -0.3678 -0.2925
  723MOL0     C99675   0.398   4.153   7.599 -0.3568  0.5539  0.0097
  723MOL0     C99676   0.485   4.263   7.545 -0.9816  0.0707 -0.8706
  723MOL0     C99677   0.633   4.264   7.593 -0.4625  0.1043  0.2280
  723MOL0     C99678   0.691   4.401   7.572  0.4176 -0.6628  0.3712
  723MOL0     C99679   0.838   4.408   7.616  0.3717  0.0105 -0.2443
  723MOL0     C99680   0.865   4.541   7.684 -0.3279 -0.2986 -0.2657
  723MOL0    Cl99681   0.772   4.587   7.824  0.1594  0.0456 -0.1861
  723MOL0     C99682   0.066   3.817   7.739  0.0360 -0.5918 -0.6210
  723MOL0     C99683   0.015   3.701   7.792 -0.6481 -0.5437 -0.1738
  723MOL0     O99684   0.159   3.562   8.024  0.1328  0.1275  0.5679
  723MOL0     C99685   0.054   3.384   8.210 -0.2788  0.0402 -1.2353
  723MOL0     C99686   0.020   3.285   8.304 -0.0397  0.4599  0.2359
  723MOL0     N99687  -0.493   3.102   8.820 -0.0414  0.1577 -1.0324
  723MOL0     N99688  -0.580   3.040   8.891  0.0447 -0.0071  0.6560
  723MOL0     C99689  -0.113   2.136   9.260  0.4790 -0.2340  0.1624
  723MOL0     C99690   0.019   2.180   9.284  0.3795 -0.8373 -1.6682
  723MOL0     C99691   0.359   2.347   9.572 -0.0504 -0.3341 -0.9441
  723MOL0     C99692   0.485   2.295   9.592 -0.5755  0.0775 -0.8698
  723MOL0     C99693   0.596   2.373   9.626 -0.2611 -0.4220 -0.2519
  723MOL0     C99694   0.584   2.514   9.635  0.1127  0.4263  0.1421
  723MOL0     O99695   0.668   2.601   9.703 -0.5334  0.1977  0.0512
  723MOL0     C99696   0.797   2.565   9.747 -0.9293  0.4914  0.3266
  723MOL0     C99697   0.788   2.483   9.881  0.1464 -0.4365 -0.3366
  723MOL0     C99698   0.917   2.398   9.932 -1.0587 -0.0717  0.9246
  723MOL0     C99699   1.047   2.487   9.955  0.2518  0.4881  0.7988
  723MOL0     C99700   1.028   2.602  10.035  0.1262  0.4769  0.3807
  723MOL0     C99701   1.012   2.709  10.085  0.3354  0.6821  0.6662
  723MOL0     C99702   0.455   2.566   9.610 -0.4937 -0.3580 -0.4083
  723MOL0     C99703   0.342   2.489   9.573  0.4518  0.1750 -0.5187
  723MOL0     C99704   0.216   2.532   9.521  0.5143 -0.3804 -0.8913
  723MOL0     H99705  -0.003   2.183   9.622  0.2295  0.3406 -0.7087
  723MOL0     H99706  -0.229   2.127   9.579 -1.8475  0.6823 -1.1999
  723MOL0     H99707  -0.404   2.255   9.457  0.5610 -0.6757 -0.1247
  723MOL0     H99708  -0.444   2.102   9.522  2.7534  0.0702  0.5060
  723MOL0     H99709  -0.580   2.054   9.321  1.0044  0.9355 -3.9050
  723MOL0     H99710  -0.630   2.184   9.429  0.3090 -0.8314 -0.3789
  723MOL0     H99711  -0.457   2.227   9.174 -1.5812 -3.5338 -2.2083
  723MOL0     H99712  -0.620   2.207   9.141  1.0358  3.4021 -2.7260
  723MOL0     H99713  -0.679   2.410   9.258 -0.6600 -1.2248  2.5248
  723MOL0     H99714  -0.516   2.415   9.336 -0.4931 -2.6159  2.2007
  723MOL0     H99715  -0.560   2.417   9.024  0.5201  2.0515 -1.6593
  723MOL0     H99716  -0.424   2.473   9.114  0.9172  0.1597  1.3480
  723MOL0     H99717  -0.710   2.607   9.133 -0.7099  3.7057 -0.1904
  723MOL0     H99718  -0.564   2.643   9.227  1.0144 -0.4889 -0.1418
  723MOL0     H99719  -0.593   2.668   8.923 -5.5830  2.3718  0.2957
  723MOL0     H99720  -0.435   2.698   9.015 -0.8839  0.4766  0.3091
  723MOL0     H99721  -0.693   2.864   9.057 -0.7224 -0.2083  1.9043
  723MOL0     H99722  -0.545   2.877   9.144  1.3621  2.4303 -0.7737
  723MOL0     H99723  -0.302   2.870   8.955 -0.9074 -0.6612  0.7940
  723MOL0     H99724  -0.207   2.959   8.718  1.4617  0.9173  0.4201
  723MOL0     H99725  -0.172   3.086   8.828  0.6568 -3.5272  1.1627
  723MOL0     H99726  -0.347   3.120   8.575  1.1946 -0.0482 -1.1794
  723MOL0     H99727  -0.291   3.252   8.680  1.1048  0.5669 -1.7774
  723MOL0     H99728  -0.135   3.264   8.499  0.7503 -1.7007 -2.1689
  723MOL0     H99729  -0.051   3.204   8.637  0.1036 -2.6626  1.7327
  723MOL0     H99730   0.043   3.048   8.502 -0.2679 -2.6577 -1.7961
  723MOL0     H99731  -0.100   2.965   8.534  2.2279  0.3839  2.0303
  723MOL0     H99732  -0.108   3.059   8.091  1.3021  1.8856 -2.5700
  723MOL0     H99733  -0.109   3.218   7.831  0.7830  0.9406 -0.0976
  723MOL0     H99734  -0.027   3.080   7.900 -0.8160  0.2404 -0.3319
  723MOL0     H99735   0.070   3.231   7.848  1.0337  2.7327  4.4644
  723MOL0     H99736   0.227   3.478   7.683  3.3078  2.0760 -0.1699
  723MOL0     H99737   0.307   3.680   7.555  1.2660 -2.8708  2.2043
  723MOL0     H99738   0.066   4.067   7.568 -0.0970 -0.0622  1.6105
  723MOL0     H99739   0.158   4.074   7.716 -0.8571  1.3034 -0.3433
  723MOL0     H99740   0.252   4.156   7.434  0.5407  3.4864 -0.3727
  723MOL0     H99741   0.210   4.249   7.577 -2.8331 -1.7806  0.4009
  723MOL0     H99742   0.456   4.060   7.588 -0.8395  0.1238  0.9805
  723MOL0     H99743   0.396   4.173   7.706 -0.4805 -0.2060  0.1532
  723MOL0     H99744   0.432   4.356   7.565  0.3387  0.8214 -0.7830
  723MOL0     H99745   0.490   4.244   7.437 -0.3116 -0.3328 -0.7726
  723MOL0     H99746   0.629   4.238   7.699  1.0340 -0.3640  0.1883
  723MOL0     H99747   0.696   4.195   7.537  1.3350  1.6973  0.1809
  723MOL0     H99748   0.636   4.475   7.631  0.4220  1.0495 -1.6608
  723MOL0     H99749   0.674   4.431   7.469 -1.8451 -1.1893  0.5440
  723MOL0     H99750   0.897   4.407   7.524 -0.5688  1.8817 -0.9168
  723MOL0     H99751   0.862   4.326   7.684  0.3378  0.3960  0.2390
  723MOL0     H99752   0.858   4.616   7.606  0.1444 -0.9616 -0.9677
  723MOL0     H99753   0.967   4.540   7.723 -1.6404  0.7848  3.6343
  723MOL0     H99754   0.020   3.907   7.778  2.3399  0.1925  0.4665
  723MOL0     H99755  -0.058   3.712   7.872 -0.7282 -2.5838  0.0998
  723MOL0     H99756   0.121   3.462   8.244  0.4250 -0.2179 -2.0159
  723MOL0     H99757   0.060   3.286   8.405 -1.5340 -1.8366  0.9260
  723MOL0     H99758  -0.149   2.111   9.161  0.3967  2.7959 -0.6960
  723MOL0     H99759   0.099   2.201   9.214  2.9782  2.8702  1.9184
  723MOL0     H99760   0.507   2.189   9.576  0.1940 -0.3821  2.5289
  723MOL0     H99761   0.690   2.324   9.647 -1.0273 -2.2047 -0.7730
  723MOL0     H99762   0.854   2.508   9.673  0.5467  3.3086 -0.8479
  723MOL0     H99763   0.853   2.655   9.776 -0.6054  0.0972  0.9420
  723MOL0     H99764   0.700   2.420   9.866 -1.2582  1.1160  0.9464
  723MOL0     H99765   0.764   2.555   9.960 -0.0731 -0.3696 -0.4629
  723MOL0     H99766   0.907   2.358  10.033  2.2057 -2.6239  0.4173
  723MOL0     H99767   0.951   2.324   9.858  0.7822  1.6719 -0.0797
  723MOL0     H99768   1.071   2.525   9.855 -1.2057  1.3088  0.7322
  723MOL0     H99769   1.126   2.425   9.996  0.4704  0.0272 -0.2933
  723MOL0     H99770   0.990   2.803  10.132  0.3972  1.5438 -0.9766
  723MOL0     H99771   0.437   2.673   9.619  0.6440 -0.2424  0.8182
  723MOL0     H99772   0.223   2.494   9.419 -0.1105 -0.7982 -0.7818
  723MOL0     H99773   0.132   2.488   9.576 -0.4863 -0.8769 -2.7656
  723MOL0     H99774   0.211   2.641   9.524  0.3298 -0.3988 -0.3213
  724MOL0     O99775  10.631   7.367   8.584  0.3731 -0.0705 -0.1844
  724MOL0     C99776  10.650   7.345   8.705  0.0011  0.1711 -0.0495
  724MOL0     O99777  10.769   7.377   8.769 -0.5224  0.3260  0.0816
  724MOL0     C99778  10.856   7.464   8.707 -0.0834  0.8875  0.0198
  724MOL0     C99779  10.855   7.604   8.701 -0.6732  0.2270 -0.1528
  724MOL0     C99780  10.968   7.675   8.646 -0.0674 -0.3654  0.6934
  724MOL0     C99781  11.070   7.608   8.594  0.0190 -0.5078  0.2198
  724MOL0     O99782  11.180   7.666   8.528 -0.4391  0.2014 -0.0986
  724MOL0     C99783  11.169   7.807   8.500  0.3864  0.5126 -0.1535
  724MOL0     C99784  11.300   7.864   8.434  0.4089 -0.5583  0.0424
  724MOL0     C99785  11.314   8.011   8.427 -0.5706 -0.2278  0.3337
  724MOL0     C99786  11.448   8.051   8.383  0.6788  0.3796 -0.5252
  724MOL0     C99787  11.556   8.012   8.488  0.7032  0.0829 -0.6234
  724MOL0     C99788  11.685   8.093   8.482  0.0870  0.7928 -1.3894
  724MOL0     C99789  11.772   8.049   8.601  0.1096  0.2239 -0.0305
  724MOL0     C99790  11.897   8.123   8.615 -0.3851 -0.8122  1.3406
  724MOL0     N99791  11.971   8.069   8.724  0.3997  0.0019  0.1616
  724MOL0     C99792  11.982   8.111   8.856 -0.5904 -0.2169 -0.2179
  724MOL0     C99793  12.104   8.053   8.887  0.8341  0.2732 -1.4698
  724MOL0     C99794  12.191   8.061   9.016 -0.5293  0.4264  0.3405
  724MOL0     C99795  12.190   7.918   9.077 -0.0992  0.0888  0.8136
  724MOL0     C99796  12.266   7.885   9.204  0.2239 -0.4746 -0.7026
  724MOL0     C99797  12.407   7.943   9.220 -0.0836  0.7154  0.1480
  724MOL0     O99798  12.441   7.945   9.357  0.5320  0.2750  1.2115
  724MOL0     C99799  12.577   7.964   9.380 -0.3748 -0.5805 -0.2541
  724MOL0     C99800  12.679   7.968   9.286  0.2521 -0.3234  0.4214
  724MOL0     C99801  12.810   7.975   9.325 -0.1638 -0.4627 -0.3786
  724MOL0     C99802  12.925   7.951   9.223  0.3814 -0.1480 -0.3597
  724MOL0     C99803  12.840   7.990   9.459  0.9026 -0.6152 -0.2516
  724MOL0     C99804  12.982   7.999   9.516  0.4670  0.2880 -0.7772
  724MOL0     O99805  13.010   8.056   9.637  0.4408 -0.7553 -0.3964
  724MOL0     C99806  13.138   8.044   9.681  0.6855 -0.4021 -0.0700
  724MOL0     C99807  13.160   7.943   9.765 -0.2079  0.3843 -0.2388
  724MOL0     C99808  13.292   7.928   9.813  0.0350  0.8310  0.2826
  724MOL0     C99809  13.395   8.022   9.780  0.5728 -0.1994 -0.2907
  724MOL0     O99810  13.524   8.009   9.830 -0.1938 -0.5096  0.2505
  724MOL0     C99811  13.568   7.930   9.938  0.6055  0.5897  0.4811
  724MOL0     C99812  13.597   8.026  10.057 -0.6279 -0.9269  0.1870
  724MOL0     C99813  13.471   8.088  10.122 -0.8196 -0.1721  0.0812
  724MOL0     C99814  13.374   7.998  10.198  0.6104 -0.7098  0.7601
  724MOL0     C99815  13.249   8.074  10.236  0.3451 -0.8056  0.7896
  724MOL0     C99816  13.158   7.987  10.324  0.1917  0.0207 -0.5916
  724MOL0     C99817  13.120   7.852  10.272  0.2426  0.2066 -0.3909
  724MOL0     C99818  13.059   7.860  10.134 -0.4291  0.0469 -0.0712
  724MOL0    Cl99819  13.007   7.708  10.072 -0.1499 -0.0301 -0.0906
  724MOL0     C99820  13.363   8.131   9.699  1.1808  0.1649  0.6881
  724MOL0     C99821  13.227   8.148   9.655  0.6714  0.2614 -0.1474
  724MOL0     O99822  13.062   7.924   9.460  0.0855 -0.2614  0.6224
  724MOL0     C99823  12.738   8.007   9.550 -0.0790  0.0262 -0.0458
  724MOL0     C99824  12.607   7.996   9.510  0.3989 -0.3829 -0.0943
  724MOL0     N99825  12.164   7.995   8.776 -0.4705  0.3851  0.1103
  724MOL0     N99826  12.080   8.002   8.680 -0.2911  0.5751 -0.5512
  724MOL0     C99827  11.073   7.476   8.604 -0.5029  1.4167 -0.8304
  724MOL0     C99828  10.970   7.401   8.666  0.9528 -0.1258  0.5390
  724MOL0     C99829  10.532   7.302   8.791 -0.9459 -0.1497  0.3958
  724MOL0     C99830  10.397   7.318   8.734 -0.2774 -1.1983 -0.4169
  724MOL0     C99831  10.292   7.272   8.804 -0.0923 -0.7964  1.1523
  724MOL0     C99832  10.303   7.195   8.918  0.0575 -0.2726  0.1205
  724MOL0     O99833  10.181   7.157   8.967 -0.2493 -0.3616  0.1901
  724MOL0     C99834  10.180   7.063   9.073  0.7768  1.1233 -0.7781
  724MOL0     C99835  10.197   6.921   9.027 -0.1015 -0.5591 -0.6136
  724MOL0     C99836  10.064   6.858   9.002  1.0333 -0.6320  0.8675
  724MOL0     C99837   9.989   6.908   8.879  0.4063 -0.3496 -0.5016
  724MOL0     C99838   9.924   6.808   8.800 -0.3856 -0.5770  0.1949
  724MOL0     C99839   9.868   6.734   8.723 -1.1087 -0.1278 -0.2261
  724MOL0     C99840  10.431   7.171   8.967 -0.1318  0.6310 -0.4375
  724MOL0     C99841  10.545   7.222   8.905  0.4985 -0.0284 -1.4853
  724MOL0     C99842  10.671   7.190   8.972  0.2383 -0.6302  0.6207
  724MOL0     H99843  10.769   7.653   8.745  1.0855  1.1221  2.5149
  724MOL0     H99844  10.965   7.783   8.648  0.1658 -0.3583  0.7086
  724MOL0     H99845  11.152   7.852   8.598  2.5256 -1.2366  1.1426
  724MOL0     H99846  11.082   7.811   8.435 -1.1729 -5.0418  1.0043
  724MOL0     H99847  11.383   7.827   8.495 -0.6895 -0.2583  1.7960
  724MOL0     H99848  11.320   7.815   8.338  2.7328 -0.2279  0.3066
  724MOL0     H99849  11.231   8.048   8.365  0.5872 -0.9406 -1.7545
  724MOL0     H99850  11.305   8.056   8.526  1.7421  0.5950  0.2319
  724MOL0     H99851  11.472   7.993   8.294 -2.7699 -2.4296  0.1133
  724MOL0     H99852  11.441   8.156   8.356 -3.2378  0.2107 -0.8024
  724MOL0     H99853  11.573   7.907   8.464 -1.7701 -0.6244  0.3754
  724MOL0     H99854  11.507   8.025   8.585  0.3150  1.0726 -0.9345
  724MOL0     H99855  11.734   8.084   8.384  2.0225  1.4179 -0.5138
  724MOL0     H99856  11.671   8.201   8.484  1.1640  1.0098 -3.1551
  724MOL0     H99857  11.790   7.942   8.588  0.2540  0.0735  1.3078
  724MOL0     H99858  11.710   8.055   8.691 -2.9109  1.3267 -2.0041
  724MOL0     H99859  11.961   8.112   8.527  0.2290 -2.1773  1.9341
  724MOL0     H99860  11.869   8.229   8.620  1.5161 -0.2137  0.3226
  724MOL0     H99861  11.915   8.181   8.903 -1.2563 -1.7733  1.2393
  724MOL0     H99862  12.155   8.128   9.095 -0.1239  0.2073  0.7184
  724MOL0     H99863  12.292   8.090   8.986 -0.4020  0.8234  1.1331
  724MOL0     H99864  12.085   7.897   9.100 -0.8917  1.5419 -1.2275
  724MOL0     H99865  12.234   7.847   9.007 -1.6077  0.9170 -1.0397
  724MOL0     H99866  12.204   7.923   9.286  3.0148 -0.8871  1.7517
  724MOL0     H99867  12.261   7.778   9.222 -1.2708 -0.0947  1.5680
  724MOL0     H99868  12.478   7.905   9.147 -0.5603  0.2615 -0.0938
  724MOL0     H99869  12.406   8.050   9.202  3.1703  1.7147  4.2685
  724MOL0     H99870  12.664   7.968   9.179 -0.5305 -0.0272  0.5266
  724MOL0     H99871  13.009   8.013   9.255 -0.8734  2.2470 -1.4303
  724MOL0     H99872  12.896   7.971   9.119  1.3252  2.7012 -0.1643
  724MOL0     H99873  12.960   7.847   9.227  0.2018 -0.2339 -0.8838
  724MOL0     H99874  13.081   7.878   9.798 -1.1299  2.2789  1.5192
  724MOL0     H99875  13.308   7.851   9.888  1.6551  0.0896 -0.7741
  724MOL0     H99876  13.494   7.856   9.969  1.3615  0.1859  1.3962
  724MOL0     H99877  13.662   7.879   9.915  0.5569 -0.5804  2.6112
  724MOL0     H99878  13.662   7.981  10.133  2.9603  0.2460 -1.9306
  724MOL0     H99879  13.662   8.105  10.019 -1.2645 -0.3024  0.3813
  724MOL0     H99880  13.428   8.141  10.037  0.7881 -2.0237 -1.9875
  724MOL0     H99881  13.510   8.165  10.190 -0.7577 -0.4745  0.3857
  724MOL0     H99882  13.423   7.958  10.288 -0.0103 -1.0025  0.9759
  724MOL0     H99883  13.345   7.914  10.134  1.8293 -2.0929  1.9234
  724MOL0     H99884  13.270   8.165  10.293 -0.2384  0.4792 -0.9671
  724MOL0     H99885  13.191   8.101  10.147  0.7895  2.3865  1.3431
  724MOL0     H99886  13.069   8.050  10.329  1.1845  1.5230 -1.0500
  724MOL0     H99887  13.196   7.975  10.426 -0.2899  0.2626 -0.3836
  724MOL0     H99888  13.046   7.818  10.345  1.6051 -3.2450 -0.4181
  724MOL0     H99889  13.198   7.775  10.266 -1.6312 -1.7273 -1.3239
  724MOL0     H99890  13.123   7.909  10.060 -1.3868 -0.6888 -1.4299
  724MOL0     H99891  12.964   7.914  10.143 -2.2610 -2.5317 -2.4121
  724MOL0     H99892  13.429   8.207   9.657 -0.4613  0.0863 -2.2153
  724MOL0     H99893  13.203   8.231   9.590  1.5908  1.0550  0.4748
  724MOL0     H99894  12.753   8.030   9.655 -3.0248 -1.9406  0.9499
  724MOL0     H99895  12.526   8.003   9.582  1.4779  1.0477  1.0270
  724MOL0     H99896  11.160   7.422   8.566 -1.3672 -3.0103  2.5092
  724MOL0     H99897  10.976   7.292   8.670 -2.1079 -0.3529  1.3025
  724MOL0     H99898  10.384   7.375   8.642 -1.8361  1.7988  1.4837
  724MOL0     H99899  10.192   7.287   8.763  1.4643  0.9256 -2.5014
  724MOL0     H99900  10.268   7.078   9.136  1.1049 -0.4989 -0.7966
  724MOL0     H99901  10.093   7.067   9.138  2.5327  0.9507  1.7199
  724MOL0     H99902  10.248   6.861   9.103  1.0586 -1.6962 -2.2166
  724MOL0     H99903  10.254   6.917   8.933 -0.9960 -0.4223 -1.1785
  724MOL0     H99904  10.086   6.753   8.979 -0.6810 -0.4983 -1.8556
  724MOL0     H99905  10.004   6.862   9.094  2.3159 -1.5190  1.7814
  724MOL0     H99906  10.062   6.968   8.825  0.6034 -1.6292 -1.7416
  724MOL0     H99907   9.907   6.976   8.903 -0.2152 -0.8337 -1.2006
  724MOL0     H99908   9.815   6.675   8.650  0.2646 -2.2659  0.3928
  724MOL0     H99909  10.443   7.101   9.049  0.0584 -0.9982 -1.8084
  724MOL0     H99910  10.662   7.134   9.065  0.3056 -0.4307  0.7501
  724MOL0     H99911  10.739   7.143   8.900 -2.7512  0.3341 -3.1629
  724MOL0     H99912  10.712   7.284   9.012  0.3339 -1.1500  1.7781
  725MOL0     O99913   6.909   7.565   8.844  0.2842  0.0130  0.7126
  725MOL0     C99914   6.901   7.580   8.722  0.3693 -0.7040 -0.4182
  725MOL0     O99915   6.962   7.679   8.649 -0.1295  0.4085 -0.0836
  725MOL0     C99916   7.049   7.762   8.711  1.6220 -0.0517  0.1895
  725MOL0     C99917   7.174   7.768   8.664  1.1235 -0.4379 -0.3507
  725MOL0     C99918   7.273   7.845   8.722  0.5642 -0.4997  0.1930
  725MOL0     C99919   7.239   7.937   8.822 -0.1303 -0.4922  0.2782
  725MOL0     O99920   7.330   8.035   8.869 -1.0195  0.4785 -0.0567
  725MOL0     C99921   7.267   8.161   8.890 -0.0078 -0.5808 -0.0713
  725MOL0     C99922   7.369   8.277   8.890 -0.2998  0.2253  0.2389
  725MOL0     C99923   7.446   8.289   8.756 -0.1659 -0.2274 -0.4337
  725MOL0     C99924   7.553   8.398   8.781 -0.4779  0.3089  1.1538
  725MOL0     C99925   7.652   8.418   8.661 -0.5876 -0.4450  0.8633
  725MOL0     C99926   7.594   8.482   8.533  0.6048 -0.0392  0.1737
  725MOL0     C99927   7.701   8.484   8.425 -0.2231 -0.1212 -0.0443
  725MOL0     C99928   7.816   8.586   8.454  0.5250  0.4854 -0.0294
  725MOL0     N99929   7.895   8.601   8.329 -0.1663 -0.3948 -0.4130
  725MOL0     C99930   7.869   8.689   8.225  0.3728  0.3894 -0.1106
  725MOL0     C99931   7.959   8.643   8.130 -0.1565 -0.2610 -0.2861
  725MOL0     C99932   7.985   8.700   7.986  0.4607  0.0631 -0.4049
  725MOL0     C99933   8.117   8.652   7.932  0.0087  0.3237 -0.3671
  725MOL0     C99934   8.236   8.683   8.006  0.3171  0.7758  0.6644
  725MOL0     C99935   8.263   8.819   8.046 -0.1919 -0.3336 -0.6580
  725MOL0     O99936   8.356   8.835   8.153 -0.2603 -0.2849 -0.5124
  725MOL0     C99937   8.380   8.960   8.203 -0.2896  0.3086  0.2339
  725MOL0     C99938   8.482   8.970   8.301  0.3514  0.2194  0.4963
  725MOL0     C99939   8.522   9.092   8.360 -0.0618  0.2319  0.2947
  725MOL0     C99940   8.637   9.084   8.457  0.9624 -0.5156  0.0096
  725MOL0     C99941   8.440   9.205   8.337  0.6334  0.0158 -0.2876
  725MOL0     C99942   8.466   9.335   8.396  0.3425  0.3498 -0.3139
  725MOL0     O99943   8.350   9.402   8.431 -0.0591  0.5579  0.0892
  725MOL0     C99944   8.355   9.532   8.454  0.1640  0.3449  0.0218
  725MOL0     C99945   8.417   9.627   8.368  0.6214  0.6672  0.1622
  725MOL0     C99946   8.401   9.759   8.398  0.1107 -0.5057  0.4712
  725MOL0     C99947   8.317   9.802   8.503  0.4173  0.3643  0.0950
  725MOL0     O99948   8.298   9.932   8.539 -0.3656  0.1065  0.0949
  725MOL0     C99949   8.383  10.036   8.484 -0.0474  0.5357  0.3532
  725MOL0     C99950   8.324  10.160   8.534  0.0047 -0.7441  0.9503
  725MOL0     C99951   8.408  10.274   8.474  0.5086  0.0487  0.0828
  725MOL0     C99952   8.350  10.405   8.501 -0.4917  0.2473 -0.1012
  725MOL0     C99953   8.435  10.513   8.432 -0.3732  1.0627  0.5717
  725MOL0     C99954   8.365  10.643   8.412  0.2559 -0.5900 -0.4832
  725MOL0     C99955   8.456  10.752   8.369 -0.6086 -0.5573  0.6440
  725MOL0     C99956   8.385  10.890   8.357 -0.3701 -0.4304  0.4005
  725MOL0    Cl99957   8.266  10.937   8.485  0.5215 -0.0655 -0.3120
  725MOL0     C99958   8.243   9.708   8.576 -0.9122 -0.6999 -0.4934
  725MOL0     C99959   8.265   9.572   8.553 -0.2456  0.1096  0.2815
  725MOL0     O99960   8.578   9.359   8.432 -0.7649  0.0524  0.3053
  725MOL0     C99961   8.330   9.196   8.253 -0.5940  0.2864  0.7463
  725MOL0     C99962   8.312   9.076   8.180  1.4830  0.1258 -0.1591
  725MOL0     N99963   8.005   8.523   8.170 -0.6639  0.4074  1.0124
  725MOL0     N99964   7.973   8.500   8.293 -1.2816 -0.5705 -0.6342
  725MOL0     C99965   7.110   7.934   8.876 -0.3095  0.1977 -0.0736
  725MOL0     C99966   7.017   7.843   8.819 -0.0704  0.5065 -0.1880
  725MOL0     C99967   6.815   7.487   8.648  0.5437 -0.0421  0.1246
  725MOL0     C99968   6.877   7.372   8.599 -0.2856  0.6124  0.8688
  725MOL0     C99969   6.804   7.277   8.525 -0.1648  0.0249 -0.7997
  725MOL0     C99970   6.666   7.279   8.521 -0.1517  0.1174  0.0208
  725MOL0     O99971   6.577   7.176   8.478  0.1996 -0.2084 -0.1402
  725MOL0     C99972   6.637   7.052   8.421  0.5180  0.3741  0.5167
  725MOL0     C99973   6.523   6.962   8.357 -0.2516 -0.0183  0.2972
  725MOL0     C99974   6.431   6.904   8.457  0.3370  0.8335  0.2729
  725MOL0     C99975   6.304   6.854   8.402  0.8200 -0.8695 -0.5178
  725MOL0     C99976   6.227   6.959   8.341  0.0148  0.5703 -0.5889
  725MOL0     C99977   6.153   7.039   8.294  0.5228 -0.1573 -0.2440
  725MOL0     C99978   6.606   7.384   8.582 -0.2539 -0.7197 -0.3177
  725MOL0     C99979   6.677   7.487   8.650  0.7028  0.6473  0.8691
  725MOL0     C99980   6.599   7.595   8.732  0.3822  0.1627 -0.2231
  725MOL0     H99981   7.205   7.712   8.576  0.4686  1.2487 -1.6996
  725MOL0     H99982   7.370   7.845   8.675 -0.5810  2.2569 -2.5133
  725MOL0     H99983   7.199   8.163   8.976  1.5404  0.5506  1.1948
  725MOL0     H99984   7.218   8.193   8.797  3.3537  2.9113 -0.9110
  725MOL0     H99985   7.314   8.370   8.907 -0.6915  0.8927 -3.6444
  725MOL0     H99986   7.429   8.272   8.981 -0.3436  0.9596  0.3144
  725MOL0     H99987   7.486   8.196   8.716 -1.1221 -0.1832 -1.5722
  725MOL0     H99988   7.374   8.327   8.682  0.0738 -0.1330 -0.6184
  725MOL0     H99989   7.510   8.496   8.804 -0.4111  0.4507  0.6753
  725MOL0     H99990   7.614   8.375   8.870 -0.9083  0.6473  1.5389
  725MOL0     H99991   7.696   8.324   8.628  2.1618  1.0838 -0.2184
  725MOL0     H99992   7.721   8.490   8.707  0.7675 -1.2606  0.1437
  725MOL0     H99993   7.510   8.422   8.497  2.0463 -2.6774  0.9740
  725MOL0     H99994   7.561   8.582   8.564  1.1687  0.3541 -0.4728
  725MOL0     H99995   7.653   8.526   8.337  0.6645  5.7268  1.7978
  725MOL0     H99996   7.746   8.385   8.412 -0.1755  0.1545 -2.1758
  725MOL0     H99997   7.774   8.683   8.485 -0.1649 -0.7147  3.2397
  725MOL0     H99998   7.885   8.545   8.528  0.6332 -1.1634 -0.9928
  725MOL0     H99999   7.806   8.776   8.212 -1.0305 -0.7858 -1.4991
  725MOL0     H    0   7.967   8.807   7.999 -0.1312 -0.0518 -0.2495
  725MOL0     H    1   7.902   8.669   7.922  1.3280 -1.4143 -0.8535
  725MOL0     H    2   8.108   8.543   7.919 -1.8087  0.1664  1.7294
  725MOL0     H    3   8.132   8.687   7.829  1.2584 -2.7254 -1.3405
  725MOL0     H    4   8.236   8.618   8.095  2.7008 -1.5584 -0.9016
  725MOL0     H    5   8.323   8.642   7.955 -0.9622  2.7166 -3.4486
  725MOL0     H    6   8.311   8.869   7.961 -1.4393 -0.8595 -1.7018
  725MOL0     H    7   8.169   8.874   8.057 -0.5150 -0.2091 -3.2955
  725MOL0     H    8   8.557   8.892   8.311  0.9713  0.6847 -0.4578
  725MOL0     H    9   8.670   8.979   8.461 -2.9531 -1.9389 -0.5665
  725MOL0     H   10   8.601   9.130   8.550  2.9442  1.9204 -0.3351
  725MOL0     H   11   8.724   9.141   8.423  0.3493 -0.2492 -1.1464
  725MOL0     H   12   8.478   9.595   8.284 -0.2358  0.8696 -0.5501
  725MOL0     H   13   8.438   9.824   8.320  0.8575 -1.6546 -0.1577
  725MOL0     H   14   8.482  10.013   8.523 -1.1957  0.4979  3.4810
  725MOL0     H   15   8.374  10.043   8.375  0.7860  2.2753  0.3631
  725MOL0     H   16   8.217  10.169   8.512 -0.7224 -3.7158  2.6675
  725MOL0     H   17   8.339  10.171   8.642 -2.4065  2.2927  1.1272
  725MOL0     H   18   8.423  10.255   8.368 -3.7674  0.1355 -0.6889
  725MOL0     H   19   8.503  10.279   8.530  0.1704 -1.2854  0.8154
  725MOL0     H   20   8.338  10.417   8.609 -0.5945 -0.4137 -0.0321
  725MOL0     H   21   8.253  10.421   8.452  0.2250  2.5609 -0.8677
  725MOL0     H   22   8.526  10.525   8.491  0.3127 -1.4342  0.1513
  725MOL0     H   23   8.462  10.466   8.337 -2.3170 -1.7424  1.2796
  725MOL0     H   24   8.319  10.675   8.506  0.3146 -0.9832 -0.3141
  725MOL0     H   25   8.283  10.620   8.344  0.7638 -0.5186 -1.1289
  725MOL0     H   26   8.514  10.728   8.279  1.0202  2.8461  0.5902
  725MOL0     H   27   8.540  10.763   8.439  0.0208  3.3155 -0.4275
  725MOL0     H   28   8.332  10.890   8.262 -0.2971  0.5839  0.3494
  725MOL0     H   29   8.471  10.958   8.356  0.3130 -1.2658 -0.5031
  725MOL0     H   30   8.173   9.741   8.652 -0.3041  1.0145 -0.6282
  725MOL0     H   31   8.224   9.492   8.614  1.2091 -2.0849 -1.4510
  725MOL0     H   32   8.275   9.288   8.236  1.7736  2.3484  3.3486
  725MOL0     H   33   8.232   9.075   8.107  1.1700  0.8249  0.1714
  725MOL0     H   34   7.083   7.996   8.961  0.6224  1.7144 -0.8443
  725MOL0     H   35   6.919   7.841   8.865  1.2434 -0.5590  2.7971
  725MOL0     H   36   6.985   7.361   8.605 -0.2532  0.9105  0.8359
  725MOL0     H   37   6.849   7.186   8.487  0.2407  0.0211 -0.3354
  725MOL0     H   38   6.720   7.073   8.354  0.5120  1.7337  0.9143
  725MOL0     H   39   6.677   6.998   8.507 -0.2892  0.6258  1.0601
  725MOL0     H   40   6.574   6.889   8.293  2.8210  0.4227  2.0332
  725MOL0     H   41   6.467   7.025   8.287 -2.4054 -2.0684  0.0584
  725MOL0     H   42   6.479   6.815   8.498 -0.1817  0.7740  0.7655
  725MOL0     H   43   6.411   6.959   8.549 -1.8139 -0.7744  0.8452
  725MOL0     H   44   6.248   6.791   8.472 -1.8867  4.0851  2.3748
  725MOL0     H   45   6.334   6.789   8.319  3.0858  0.5464 -0.8917
  725MOL0     H   46   6.094   7.112   8.243  2.0212 -1.2839 -3.9542
  725MOL0     H   47   6.498   7.382   8.591 -0.1740  1.4205  2.3442
  725MOL0     H   48   6.495   7.609   8.701  0.6360  1.6078 -0.4887
  725MOL0     H   49   6.597   7.571   8.839 -1.1446 -0.4456 -0.3540
  725MOL0     H   50   6.648   7.693   8.730 -0.3744  0.7197  2.7987
  726MOL0     O   51   9.889   7.967   6.297  0.3990 -0.5138 -0.7103
  726MOL0     C   52   9.787   7.898   6.340 -0.3746 -0.0301  0.1891
  726MOL0     O   53   9.766   7.881   6.471  0.1544 -0.2929  0.2152
  726MOL0     C   54   9.847   7.936   6.561 -0.0820 -0.5069  0.0084
  726MOL0     C   55   9.921   8.060   6.556  0.2714  0.8546 -0.0297
  726MOL0     C   56  10.011   8.091   6.660 -0.1255 -0.2156  0.4637
  726MOL0     C   57  10.020   8.014   6.777  0.3616 -0.2107  0.1209
  726MOL0     O   58  10.106   8.038   6.890  0.3082 -0.2963  0.3237
  726MOL0     C   59  10.166   8.169   6.897 -0.0156 -0.3523  1.0686
  726MOL0     C   60  10.194   8.218   7.038 -0.3443  0.0108  0.2204
  726MOL0     C   61  10.298   8.339   7.042  0.0291  0.1058  0.3324
  726MOL0     C   62  10.372   8.368   7.173 -0.6495  1.0011  0.3038
  726MOL0     C   63  10.487   8.462   7.143 -0.8755  0.1204 -0.3131
  726MOL0     C   64  10.541   8.547   7.259 -0.4003  0.0305 -0.7033
  726MOL0     C   65  10.687   8.591   7.243  0.1184  0.2738  0.4289
  726MOL0     C   66  10.786   8.478   7.287  0.7074  0.4809 -0.0566
  726MOL0     N   67  10.925   8.518   7.257  0.3682  0.7098 -0.1623
  726MOL0     C   68  10.971   8.525   7.134 -0.1076 -0.5797  0.4019
  726MOL0     C   69  11.091   8.569   7.153 -0.9391 -0.3590 -0.4311
  726MOL0     C   70  11.205   8.590   7.052 -0.5632  0.3360  0.9623
  726MOL0     C   71  11.291   8.464   7.034  0.3801  1.2607 -0.3521
  726MOL0     C   72  11.416   8.469   7.122  0.0063  0.4007 -0.1369
  726MOL0     C   73  11.530   8.556   7.076 -0.4460  0.9319  0.1719
  726MOL0     O   74  11.625   8.488   6.988 -0.0468 -0.1971  0.0550
  726MOL0     C   75  11.736   8.560   6.947 -0.6314  0.0669  0.2615
  726MOL0     C   76  11.833   8.509   6.860  0.0257 -0.2526  0.1893
  726MOL0     C   77  11.945   8.576   6.812 -0.2252 -0.4928  0.1209
  726MOL0     C   78  12.038   8.505   6.719 -0.1118 -0.3129 -0.3560
  726MOL0     C   79  11.961   8.709   6.852  0.4836  0.6154 -0.8793
  726MOL0     C   80  12.077   8.801   6.808  0.3415  0.0169 -0.2590
  726MOL0     O   81  12.163   8.743   6.720 -0.6978  0.2200  0.3423
  726MOL0     C   82  12.277   8.805   6.686  1.0571  0.3883 -0.2262
  726MOL0     C   83  12.303   8.787   6.546  0.2504 -0.1003 -0.0428
  726MOL0     C   84  12.431   8.830   6.503 -0.5073  0.5462  0.7772
  726MOL0     C   85  12.520   8.895   6.595  0.1196 -0.8322  0.7205
  726MOL0     O   86  12.644   8.938   6.557  0.3632 -0.0286  0.0272
  726MOL0     C   87  12.721   8.879   6.441 -0.1564 -0.2236 -0.3467
  726MOL0     C   88  12.698   8.951   6.308  0.3875 -0.0198 -0.1380
  726MOL0     C   89  12.749   9.097   6.307  0.1142 -0.3480 -0.0658
  726MOL0     C   90  12.898   9.119   6.321 -0.3334 -0.2597  0.5718
  726MOL0     C   91  12.932   9.259   6.367  0.0598 -0.5230 -0.1274
  726MOL0     C   92  13.081   9.277   6.392 -0.3853  0.1333  0.3024
  726MOL0     C   93  13.166   9.280   6.270 -0.1145  0.0440  0.6075
  726MOL0     C   94  13.316   9.274   6.294  0.6727 -0.9478 -0.4509
  726MOL0    Cl   95  13.380   9.434   6.342  0.0735 -0.1935  0.0723
  726MOL0     C   96  12.490   8.919   6.725  0.0413 -0.2261 -0.0229
  726MOL0     C   97  12.366   8.872   6.775 -0.4631  0.4138 -0.1492
  726MOL0     O   98  12.087   8.910   6.861 -0.1533 -0.5949 -1.0530
  726MOL0     C   99  11.853   8.769   6.913 -0.1955 -0.1613  0.4693
  726MOL0     C  100  11.754   8.693   6.969  0.2500 -0.8022  0.8847
  726MOL0     N  101  11.118   8.602   7.289  0.9976  0.1897 -0.0216
  726MOL0     N  102  11.011   8.573   7.347  0.0711  0.1216 -1.2142
  726MOL0     C  103   9.937   7.902   6.787 -0.5998 -1.0336 -0.4386
  726MOL0     C  104   9.859   7.860   6.679 -0.6962 -0.4057  1.2956
  726MOL0     C  105   9.686   7.839   6.242  0.2093  0.6191 -0.1343
  726MOL0     C  106   9.683   7.895   6.114 -0.2418  0.4623 -0.1005
  726MOL0     C  107   9.580   7.858   6.020  0.3178 -0.0508  1.5667
  726MOL0     C  108   9.485   7.764   6.044  0.7979 -0.6897  0.6060
  726MOL0     O  109   9.381   7.725   5.965  0.2356  0.2786 -0.3444
  726MOL0     C  110   9.246   7.753   6.019 -1.9633  0.0073  0.1768
  726MOL0     C  111   9.133   7.669   5.941  0.3921 -1.3731 -0.6475
  726MOL0     C  112   9.151   7.521   5.975 -0.2612  1.1150 -0.1385
  726MOL0     C  113   9.078   7.488   6.102 -0.2998 -0.0805  0.4887
  726MOL0     C  114   9.088   7.339   6.118 -1.3621  0.3350  0.4361
  726MOL0     C  115   9.090   7.224   6.148  0.7464  0.1021  0.8736
  726MOL0     C  116   9.491   7.704   6.178 -0.2468 -0.2606 -0.1576
  726MOL0     C  117   9.591   7.733   6.275  0.5586 -1.2110 -0.2567
  726MOL0     C  118   9.607   7.657   6.406  0.7663 -1.0825  0.6032
  726MOL0     H  119   9.905   8.133   6.478  0.3455  0.5730 -0.3078
  726MOL0     H  120  10.059   8.188   6.664 -3.6854  1.6982  3.4279
  726MOL0     H  121  10.090   8.240   6.861 -0.6117 -0.0971  2.7234
  726MOL0     H  122  10.257   8.179   6.838  0.7457  0.0872  2.2875
  726MOL0     H  123  10.100   8.255   7.082  0.2615 -0.1471  1.7001
  726MOL0     H  124  10.228   8.137   7.103 -1.4031 -0.4245  0.2708
  726MOL0     H  125  10.377   8.318   6.969  0.2966  0.5652  0.4854
  726MOL0     H  126  10.248   8.426   6.996 -0.9972 -0.8829 -0.4876
  726MOL0     H  127  10.303   8.418   7.242 -1.3287  2.0870 -1.1042
  726MOL0     H  128  10.412   8.274   7.211  0.1713  1.4233  0.5138
  726MOL0     H  129  10.458   8.540   7.071  3.5597  1.9344 -0.4231
  726MOL0     H  130  10.570   8.408   7.098 -1.1150  0.5093 -1.2527
  726MOL0     H  131  10.470   8.630   7.268 -1.7985 -1.1271 -0.5458
  726MOL0     H  132  10.544   8.488   7.351 -2.0994 -1.3634 -1.4881
  726MOL0     H  133  10.709   8.672   7.313  2.3395  0.8150 -0.8025
  726MOL0     H  134  10.703   8.618   7.138 -0.5298 -2.1836 -0.3669
  726MOL0     H  135  10.765   8.440   7.387  3.0207 -2.7693 -0.6058
  726MOL0     H  136  10.757   8.390   7.228 -0.6096  0.7283  0.2050
  726MOL0     H  137  10.926   8.471   7.051  0.3886  1.6500 -1.4221
  726MOL0     H  138  11.254   8.687   7.067  1.2950  0.1199 -2.7131
  726MOL0     H  139  11.154   8.601   6.957 -0.9602  0.9140  1.2394
  726MOL0     H  140  11.239   8.368   7.041  0.6749  1.1546  0.4441
  726MOL0     H  141  11.322   8.467   6.929 -1.4513 -1.4380 -1.0818
  726MOL0     H  142  11.390   8.497   7.225 -1.0322 -1.5866  0.1906
  726MOL0     H  143  11.458   8.368   7.129 -0.8452 -0.0066 -0.7760
  726MOL0     H  144  11.487   8.644   7.027 -2.7531  2.1529  3.9478
  726MOL0     H  145  11.596   8.592   7.155  0.4063  0.1440 -0.1655
  726MOL0     H  146  11.820   8.408   6.823  1.1049  0.3120 -1.9055
  726MOL0     H  147  12.139   8.503   6.761  1.7447  1.9275 -4.1662
  726MOL0     H  148  12.032   8.560   6.625  2.7682 -0.4255 -0.7112
  726MOL0     H  149  11.993   8.407   6.702 -2.3152  0.2738  1.5666
  726MOL0     H  150  12.238   8.739   6.473  1.7752 -0.2833 -1.3330
  726MOL0     H  151  12.444   8.820   6.395  2.1206  1.4865  0.9156
  726MOL0     H  152  12.822   8.869   6.481 -1.6530  0.2905  4.1551
  726MOL0     H  153  12.674   8.781   6.428  0.0408 -0.7803  2.5979
  726MOL0     H  154  12.745   8.899   6.224  2.4836  1.4565  0.0188
  726MOL0     H  155  12.590   8.951   6.292  0.6172 -2.3250 -2.3764
  726MOL0     H  156  12.700   9.149   6.390 -1.2914  0.3979 -1.3016
  726MOL0     H  157  12.720   9.156   6.219  2.3760  0.6359 -0.2065
  726MOL0     H  158  12.939   9.087   6.225  0.4099  1.6788  0.2160
  726MOL0     H  159  12.940   9.046   6.392 -0.3995 -2.5197 -1.5749
  726MOL0     H  160  12.893   9.342   6.308 -0.0115  1.1960  2.1887
  726MOL0     H  161  12.880   9.270   6.463 -0.9266  1.9475 -0.8626
  726MOL0     H  162  13.111   9.195   6.457  1.3221  0.1624 -0.3929
  726MOL0     H  163  13.093   9.369   6.449  2.5211  0.1201 -0.1211
  726MOL0     H  164  13.150   9.369   6.209  2.5087  1.0960  1.2947
  726MOL0     H  165  13.141   9.195   6.205  0.0377  0.2749  0.2483
  726MOL0     H  166  13.368   9.263   6.198  1.8274  0.5410 -0.0361
  726MOL0     H  167  13.334   9.201   6.373  0.9402 -0.2569  0.1368
  726MOL0     H  168  12.567   8.971   6.782  0.5210  0.9595 -1.6848
  726MOL0     H  169  12.353   8.872   6.883 -1.1885 -0.1529 -0.2342
  726MOL0     H  170  11.850   8.874   6.940 -2.3960 -0.2146  0.6230
  726MOL0     H  171  11.685   8.753   7.029  0.6883  0.9683 -0.3108
  726MOL0     H  172   9.936   7.836   6.873 -0.7519 -1.0599 -0.4605
  726MOL0     H  173   9.807   7.767   6.701  0.2633 -0.7461  2.2177
  726MOL0     H  174   9.760   7.963   6.080  0.9245 -2.3025 -3.6704
  726MOL0     H  175   9.590   7.914   5.927  2.7467 -0.5288  1.4799
  726MOL0     H  176   9.226   7.716   6.120 -3.0705 -0.8653 -0.3330
  726MOL0     H  177   9.226   7.861   6.019  0.3788  0.4775  0.3000
  726MOL0     H  178   9.146   7.701   5.837  2.2134  0.6340  0.0993
  726MOL0     H  179   9.037   7.703   5.980  2.1840 -0.9217  4.0737
  726MOL0     H  180   9.112   7.460   5.892 -1.6661  4.5500 -2.2129
  726MOL0     H  181   9.253   7.490   6.001 -1.1063  0.5995  2.9294
  726MOL0     H  182   8.972   7.507   6.083  0.2667 -0.0563 -3.5794
  726MOL0     H  183   9.116   7.548   6.185  5.0765  1.0059 -2.2491
  726MOL0     H  184   9.094   7.118   6.161  0.1280  0.1609  1.5555
  726MOL0     H  185   9.417   7.629   6.206  0.5747 -1.6060 -1.4106
  726MOL0     H  186   9.708   7.617   6.415  1.4156  0.5924  1.0455
  726MOL0     H  187   9.598   7.720   6.494  1.8315 -0.7947  0.5204
  726MOL0     H  188   9.533   7.576   6.406 -2.2484  1.4289 -0.9345
  727MOL0     O  189   0.966   0.409   0.413  0.0560  0.0989  0.2635
  727MOL0     C  190   0.908   0.331   0.338  0.4870  0.1439  0.7290
  727MOL0     O  191   0.839   0.375   0.232  0.2206 -0.2867  0.1906
  727MOL0     C  192   0.855   0.506   0.187  0.3186 -0.8396 -0.0680
  727MOL0     C  193   0.976   0.581   0.182 -0.9594  0.7338 -0.1444
  727MOL0     C  194   0.993   0.705   0.128  0.6495  0.2093 -0.4088
  727MOL0     C  195   0.874   0.757   0.069  0.6613  0.4890 -0.0485
  727MOL0     O  196   0.877   0.887   0.025 -0.0046 -0.4571 -0.9417
  727MOL0     C  197   0.824   0.912  -0.108  0.0336  0.1472  1.0739
  727MOL0     C  198   0.829   1.058  -0.154  0.5585 -0.8114 -0.4273
  727MOL0     C  199   0.974   1.110  -0.141  0.5426 -0.0734  0.0714
  727MOL0     C  200   0.968   1.254  -0.199 -0.4154 -0.2037 -0.3190
  727MOL0     C  201   1.094   1.312  -0.248 -0.1091 -0.3626 -0.0004
  727MOL0     C  202   1.066   1.454  -0.303  0.0172  0.0116  0.2560
  727MOL0     C  203   1.200   1.522  -0.327 -0.3648 -0.9139 -0.1200
  727MOL0     C  204   1.183   1.643  -0.417 -0.7774 -0.5188  0.0294
  727MOL0     N  205   1.144   1.777  -0.361  0.1955 -0.1254 -0.6915
  727MOL0     C  206   1.042   1.854  -0.412  0.3653 -0.1439  0.6722
  727MOL0     C  207   1.052   1.969  -0.342 -0.6896 -0.0178  0.1237
  727MOL0     C  208   0.964   2.086  -0.388 -0.0454  0.1585 -0.7498
  727MOL0     C  209   1.041   2.209  -0.429 -0.3786  0.7194  0.4342
  727MOL0     C  210   1.127   2.272  -0.320  0.2371  0.4378 -0.1646
  727MOL0     C  211   1.093   2.419  -0.273  0.6435  0.0179  0.2099
  727MOL0     O  212   0.952   2.439  -0.254 -0.2740 -0.2712 -0.3748
  727MOL0     C  213   0.911   2.562  -0.215  0.4825 -0.6243 -1.6127
  727MOL0     C  214   0.995   2.678  -0.208 -0.4875  0.5449 -0.2572
  727MOL0     C  215   0.952   2.807  -0.189  1.0942 -0.7671  0.1669
  727MOL0     C  216   1.055   2.916  -0.189 -0.7317  0.7851  0.2283
  727MOL0     C  217   0.812   2.833  -0.173  0.7633 -0.9854 -0.0959
  727MOL0     C  218   0.746   2.964  -0.150 -0.0331 -0.0286  0.9888
  727MOL0     O  219   0.804   3.078  -0.190  0.3275  0.1771 -0.8426
  727MOL0     C  220   0.739   3.198  -0.151  0.5638  0.8937  0.3088
  727MOL0     C  221   0.621   3.234  -0.210  0.9335 -0.5829  0.1017
  727MOL0     C  222   0.563   3.355  -0.180 -0.3438 -0.5371 -0.8201
  727MOL0     C  223   0.622   3.445  -0.079 -0.2458  0.2029  0.6436
  727MOL0     O  224   0.573   3.566  -0.046 -0.4129 -0.8561 -1.0576
  727MOL0     C  225   0.444   3.606  -0.094  0.2097  1.2087 -0.1505
  727MOL0     C  226   0.404   3.732  -0.019 -0.4428 -0.0737  0.4429
  727MOL0     C  227   0.270   3.775  -0.077  0.1949 -0.0062  0.7200
  727MOL0     C  228   0.258   3.812  -0.223  0.0542 -0.5091 -0.4328
  727MOL0     C  229   0.138   3.755  -0.303 -0.4004  0.6271 -0.1886
  727MOL0     C  230   0.005   3.811  -0.246 -0.1138  0.2368 -0.2265
  727MOL0     C  231  -0.130   3.755  -0.316  0.5099 -0.1172  0.5960
  727MOL0     C  232  -0.131   3.603  -0.347 -0.8043  0.0788  0.9370
  727MOL0    Cl  233  -0.018   3.574  -0.492  0.6424  0.0680  0.6977
  727MOL0     C  234   0.735   3.398  -0.015 -0.9303 -0.7477  0.1155
  727MOL0     C  235   0.791   3.277  -0.049 -0.3147 -0.7282  0.1891
  727MOL0     O  236   0.633   2.956  -0.105 -0.2431 -0.3544  0.0312
  727MOL0     C  237   0.727   2.718  -0.172  0.8937  0.2798 -0.7619
  727MOL0     C  238   0.777   2.590  -0.190  0.0676 -0.5453  0.0834
  727MOL0     N  239   1.160   1.957  -0.257  0.8804 -0.2734 -0.0729
  727MOL0     N  240   1.216   1.845  -0.267  0.4185 -0.3447  0.1371
  727MOL0     C  241   0.755   0.682   0.057  0.0926  0.0105 -0.2497
  727MOL0     C  242   0.743   0.556   0.123 -0.5092 -0.3657  0.2069
  727MOL0     C  243   0.912   0.182   0.356  0.2570  0.6752 -0.1558
  727MOL0     C  244   0.862   0.102   0.249 -0.1444  0.0575  0.7073
  727MOL0     C  245   0.867  -0.040   0.252  0.5141  0.6427 -0.8867
  727MOL0     C  246   0.904  -0.108   0.367 -0.6246 -0.0374 -0.0279
  727MOL0     O  247   0.910  -0.240   0.385  0.0646  0.1312 -0.3293
  727MOL0     C  248   0.833  -0.319   0.290 -0.1958  0.3340  0.4095
  727MOL0     C  249   0.679  -0.311   0.294 -0.8634 -0.3601  0.0868
  727MOL0     C  250   0.617  -0.395   0.177  0.4749  0.0597 -0.0689
  727MOL0     C  251   0.471  -0.438   0.187  0.1030 -0.5358 -0.7903
  727MOL0     C  252   0.380  -0.320   0.185  0.5169  0.7589  0.5917
  727MOL0     C  253   0.290  -0.235   0.177 -0.0308  0.4882  0.1189
  727MOL0     C  254   0.952  -0.029   0.470 -0.8316  0.0379  0.0420
  727MOL0     C  255   0.956   0.109   0.460 -0.2101 -0.5731  0.3959
  727MOL0     C  256   1.028   0.181   0.581  0.2402 -0.5155  1.3027
  727MOL0     H  257   1.070   0.539   0.218 -1.9385 -1.4047  0.0190
  727MOL0     H  258   1.084   0.763   0.140  0.9354 -0.1405 -0.8472
  727MOL0     H  259   0.719   0.880  -0.109  0.2410 -0.9067 -2.5011
  727MOL0     H  260   0.868   0.847  -0.183 -1.9747 -2.2265  1.8120
  727MOL0     H  261   0.792   1.058  -0.256 -0.9420  3.4903 -0.0956
  727MOL0     H  262   0.760   1.116  -0.091  0.9433  1.0593 -1.6572
  727MOL0     H  263   1.008   1.093  -0.038 -0.4129 -0.8572  0.2770
  727MOL0     H  264   1.046   1.057  -0.204  2.4466  1.9570  0.4008
  727MOL0     H  265   0.900   1.256  -0.284  0.1402  2.6172 -0.8225
  727MOL0     H  266   0.932   1.310  -0.112  0.7379 -2.4232  1.6879
  727MOL0     H  267   1.135   1.246  -0.325  0.5459 -3.4398  2.7388
  727MOL0     H  268   1.162   1.322  -0.163  0.6198 -1.1983 -0.4705
  727MOL0     H  269   1.024   1.443  -0.404  1.0927 -0.9079 -0.1150
  727MOL0     H  270   1.005   1.512  -0.234 -0.0826 -0.9345  0.9773
  727MOL0     H  271   1.275   1.465  -0.383  0.6847  0.4407 -0.1575
  727MOL0     H  272   1.246   1.554  -0.233 -1.5295  1.4195 -0.2887
  727MOL0     H  273   1.279   1.668  -0.464 -0.3989  1.5553  1.7200
  727MOL0     H  274   1.117   1.624  -0.502 -0.9009  1.9080 -0.5122
  727MOL0     H  275   0.969   1.841  -0.491 -0.8462 -0.6512  1.8319
  727MOL0     H  276   0.901   2.115  -0.304  1.3021 -0.5375  0.5665
  727MOL0     H  277   0.896   2.060  -0.470  0.7774  0.2835 -1.4970
  727MOL0     H  278   1.099   2.167  -0.512  1.2489 -0.2351  2.0019
  727MOL0     H  279   0.976   2.281  -0.479  0.5660 -0.0762 -2.1129
  727MOL0     H  280   1.112   2.213  -0.229  1.2933 -2.3815 -1.6724
  727MOL0     H  281   1.232   2.263  -0.350 -0.0868  1.2286 -1.6629
  727MOL0     H  282   1.140   2.440  -0.177  1.2802  0.0207 -0.1017
  727MOL0     H  283   1.133   2.475  -0.358  2.4832 -2.6218 -0.8003
  727MOL0     H  284   1.097   2.645  -0.225 -0.3661  0.4619  0.5833
  727MOL0     H  285   1.151   2.864  -0.200 -0.8096  0.4194  1.1461
  727MOL0     H  286   1.048   2.984  -0.103  1.3663 -0.2968  1.3443
  727MOL0     H  287   1.046   2.968  -0.285 -1.4936  0.0292 -0.1165
  727MOL0     H  288   0.580   3.165  -0.283  2.4097 -1.3483 -0.0555
  727MOL0     H  289   0.478   3.395  -0.234 -1.4303  0.2181  1.3560
  727MOL0     H  290   0.456   3.624  -0.201  3.0342 -0.2562 -0.1767
  727MOL0     H  291   0.367   3.529  -0.089  1.3046 -0.1038 -2.0545
  727MOL0     H  292   0.394   3.721   0.090 -0.2334  0.0691  0.4792
  727MOL0     H  293   0.478   3.809  -0.044 -2.2664  1.5961 -0.0545
  727MOL0     H  294   0.242   3.862  -0.016  1.4631  1.9611 -1.3536
  727MOL0     H  295   0.205   3.689  -0.056  1.0266 -2.1418 -4.2225
  727MOL0     H  296   0.353   3.787  -0.271  1.3942  3.0050  0.0358
  727MOL0     H  297   0.251   3.922  -0.222  0.7240 -0.4619  0.5060
  727MOL0     H  298   0.139   3.772  -0.411 -2.9476  0.3449 -0.3035
  727MOL0     H  299   0.143   3.649  -0.276 -0.3896  0.8483  0.7145
  727MOL0     H  300   0.008   3.919  -0.263  0.6042  0.7391  2.5426
  727MOL0     H  301   0.010   3.795  -0.138  1.2900 -0.8969 -0.4321
  727MOL0     H  302  -0.143   3.817  -0.405  0.5104 -0.1258  0.5904
  727MOL0     H  303  -0.209   3.767  -0.240  1.8028 -0.8874  2.1189
  727MOL0     H  304  -0.234   3.577  -0.376 -0.7564  0.0394  0.8012
  727MOL0     H  305  -0.083   3.548  -0.266  1.9481 -0.5988 -1.0011
  727MOL0     H  306   0.784   3.456   0.062 -0.1522 -1.0562 -0.1329
  727MOL0     H  307   0.881   3.239  -0.003 -1.0987 -3.0754 -0.0547
  727MOL0     H  308   0.620   2.733  -0.165  0.8283 -0.3205 -0.4816
  727MOL0     H  309   0.706   2.510  -0.207  1.1749 -1.1193 -2.3554
  727MOL0     H  310   0.658   0.710   0.019 -0.1675 -1.7804 -1.0322
  727MOL0     H  311   0.659   0.488   0.115 -0.4104 -0.4941  0.2521
  727MOL0     H  312   0.832   0.148   0.156  1.1685  0.2761  0.3741
  727MOL0     H  313   0.830  -0.083   0.159 -0.9505  2.6991 -1.3090
  727MOL0     H  314   0.865  -0.291   0.189  3.2660  3.0186  2.0073
  727MOL0     H  315   0.865  -0.420   0.316 -0.8738  0.1401  0.5097
  727MOL0     H  316   0.641  -0.209   0.283 -0.6319 -0.4097 -1.2863
  727MOL0     H  317   0.646  -0.358   0.387 -3.2585  0.3366 -0.3406
  727MOL0     H  318   0.617  -0.331   0.089  0.0458 -0.9048 -0.7925
  727MOL0     H  319   0.688  -0.475   0.159  0.2040 -0.1648 -0.1517
  727MOL0     H  320   0.453  -0.475   0.289 -0.1149  0.4831 -0.4452
  727MOL0     H  321   0.442  -0.516   0.116 -1.6652  2.3098 -3.4222
  727MOL0     H  322   0.221  -0.153   0.180 -0.9211 -0.2733  1.2030
  727MOL0     H  323   0.984  -0.074   0.564 -1.6362 -0.7494 -0.0547
  727MOL0     H  324   0.952   0.227   0.645 -2.7878 -1.0555 -1.6322
  727MOL0     H  325   1.096   0.111   0.630  0.2774  0.1712  2.2741
  727MOL0     H  326   1.090   0.263   0.543 -2.5274  0.6677 -1.0489
  728MOL0     O  327   3.804   0.363   6.754 -0.1807 -0.1089 -0.2365
  728MOL0     C  328   3.710   0.436   6.710 -0.8931 -0.1635 -0.3799
  728MOL0     O  329   3.714   0.573   6.702 -0.5589  0.2620  0.3016
  728MOL0     C  330   3.821   0.631   6.747 -0.1055  0.4384 -0.0196
  728MOL0     C  331   3.863   0.612   6.880  0.2796 -0.2004  0.8140
  728MOL0     C  332   3.969   0.684   6.934  0.3249  0.7270 -0.5816
  728MOL0     C  333   4.041   0.775   6.848 -0.5019 -0.9144 -0.5108
  728MOL0     O  334   4.156   0.828   6.912  0.7616  0.4991  0.8184
  728MOL0     C  335   4.184   0.959   6.889 -0.2695 -0.3627 -0.6013
  728MOL0     C  336   4.307   0.992   6.973 -0.0555  0.4893  0.1968
  728MOL0     C  337   4.360   1.133   6.938 -0.3060 -0.3806 -0.6155
  728MOL0     C  338   4.499   1.163   7.004  0.1763 -0.3211  0.1217
  728MOL0     C  339   4.620   1.137   6.915 -0.1016 -0.2837  0.1119
  728MOL0     C  340   4.753   1.189   6.977 -0.7986 -0.4418 -0.0380
  728MOL0     C  341   4.868   1.148   6.886 -0.1085 -0.1934  0.6030
  728MOL0     C  342   4.999   1.211   6.932 -0.5656 -0.1869  1.3433
  728MOL0     N  343   5.118   1.147   6.872  0.0298 -0.5870 -0.4486
  728MOL0     C  344   5.146   1.126   6.732 -0.7184 -0.2223  1.1250
  728MOL0     C  345   5.259   1.045   6.724 -0.1340  0.1664  0.1451
  728MOL0     C  346   5.337   0.995   6.606  0.3318  0.5224  0.0018
  728MOL0     C  347   5.372   1.090   6.495 -0.1326  0.1223 -0.0693
  728MOL0     C  348   5.437   1.018   6.381 -0.7779  0.5525 -0.4307
  728MOL0     C  349   5.466   1.110   6.258  0.6325  0.4256 -0.5360
  728MOL0     O  350   5.348   1.181   6.209  0.1841  0.4404  0.0402
  728MOL0     C  351   5.255   1.104   6.140  0.8946  0.3068  0.9259
  728MOL0     C  352   5.284   1.035   6.024 -0.0372  0.1776  0.3809
  728MOL0     C  353   5.200   0.945   5.958  1.1649  0.3119  0.1091
  728MOL0     C  354   5.260   0.862   5.841 -0.1395 -0.3025  0.2943
  728MOL0     C  355   5.062   0.939   5.998  0.1267  0.6274  1.3577
  728MOL0     C  356   4.962   0.854   5.933 -0.4048 -0.5421  1.0175
  728MOL0     O  357   4.852   0.842   6.012  0.1591 -0.2727  0.7361
  728MOL0     C  358   4.738   0.795   5.968  0.1352  0.8222  0.2080
  728MOL0     C  359   4.689   0.813   5.833  0.2010  0.7748 -0.6446
  728MOL0     C  360   4.565   0.763   5.797 -1.0782  0.3116  0.4764
  728MOL0     C  361   4.486   0.693   5.882  0.4209 -0.1457  0.3863
  728MOL0     O  362   4.366   0.636   5.849 -0.2975  0.3986  0.1337
  728MOL0     C  363   4.313   0.648   5.718 -0.0394  0.0172 -0.6552
  728MOL0     C  364   4.177   0.583   5.715 -0.2975 -0.5447  0.1374
  728MOL0     C  365   4.115   0.620   5.582  0.3401 -0.1396  0.2918
  728MOL0     C  366   3.977   0.565   5.560 -0.3792  0.4113 -0.4826
  728MOL0     C  367   3.912   0.601   5.424 -0.6995 -0.2809 -0.3870
  728MOL0     C  368   4.007   0.599   5.307 -0.7117  0.2832  0.7581
  728MOL0     C  369   3.926   0.616   5.170 -0.4246  0.1331 -0.6235
  728MOL0     C  370   4.023   0.613   5.051  0.8192  0.3056 -0.5624
  728MOL0    Cl  371   3.920   0.642   4.904  0.2362 -0.2951 -0.1838
  728MOL0     C  372   4.526   0.680   6.017 -0.2196  0.5615 -0.1797
  728MOL0     C  373   4.652   0.730   6.061  0.5309 -0.7762  1.1294
  728MOL0     O  374   4.983   0.800   5.823 -0.1868  1.1709  0.7901
  728MOL0     C  375   5.027   1.014   6.112 -1.2638  0.6148  1.2161
  728MOL0     C  376   5.118   1.099   6.180  0.7644  0.6256  0.3603
  728MOL0     N  377   5.305   1.026   6.861 -0.4213 -0.6827  0.1593
  728MOL0     N  378   5.221   1.090   6.942  0.0539 -0.6788 -0.4792
  728MOL0     C  379   3.993   0.811   6.717 -0.9398  0.0627 -0.3177
  728MOL0     C  380   3.882   0.737   6.670 -1.0395  0.3630 -0.4435
  728MOL0     C  381   3.590   0.368   6.659  0.2628  0.3184  0.5269
  728MOL0     C  382   3.459   0.424   6.673  0.4810  0.7912  0.2268
  728MOL0     C  383   3.338   0.356   6.651 -0.1332 -0.1659  0.0963
  728MOL0     C  384   3.333   0.228   6.605  0.0854  0.1355  0.4142
  728MOL0     O  385   3.206   0.180   6.585  0.9475  0.4482 -0.0029
  728MOL0     C  386   3.208   0.040   6.561  0.3992  0.0965  0.2263
  728MOL0     C  387   3.075  -0.016   6.535  0.3118 -1.2609 -0.2015
  728MOL0     C  388   3.078  -0.168   6.510  0.2362  0.3273  0.9345
  728MOL0     C  389   2.954  -0.212   6.438  0.2919  0.6201 -0.1303
  728MOL0     C  390   2.939  -0.162   6.306 -0.0003  0.7104 -0.6264
  728MOL0     C  391   2.928  -0.128   6.188  0.4579 -0.0822 -0.2115
  728MOL0     C  392   3.457   0.168   6.579  0.1591 -0.3582  0.2866
  728MOL0     C  393   3.580   0.228   6.612 -0.1939 -0.5241 -0.4342
  728MOL0     C  394   3.694   0.134   6.592  0.8405 -0.2613  0.2847
  728MOL0     H  395   3.814   0.545   6.949  0.7066  0.5657  1.8975
  728MOL0     H  396   4.001   0.674   7.037  1.0294 -3.9081 -1.0334
  728MOL0     H  397   4.104   1.029   6.917  0.3687  0.2237 -0.2061
  728MOL0     H  398   4.197   0.980   6.782 -0.2780  1.6677 -0.2583
  728MOL0     H  399   4.301   0.972   7.080  1.5964 -1.6468 -0.0429
  728MOL0     H  400   4.386   0.924   6.941 -0.2575  0.8268 -1.0800
  728MOL0     H  401   4.359   1.154   6.831  0.9796 -1.6850 -0.9111
  728MOL0     H  402   4.291   1.194   6.997 -0.7191 -2.3049  0.9776
  728MOL0     H  403   4.500   1.268   7.035  0.8438  0.0912 -1.2178
  728MOL0     H  404   4.509   1.099   7.092 -2.1153 -1.2742 -0.2276
  728MOL0     H  405   4.598   1.190   6.822  0.1587  1.4264  0.9806
  728MOL0     H  406   4.624   1.030   6.890 -1.2129 -0.5746  1.0719
  728MOL0     H  407   4.739   1.297   6.991  1.8321  0.1694 -1.5536
  728MOL0     H  408   4.757   1.127   7.067 -0.4680 -1.4057 -0.7013
  728MOL0     H  409   4.830   1.176   6.787 -2.8816 -1.8666  1.0874
  728MOL0     H  410   4.882   1.040   6.884 -0.9059 -0.3916 -3.4640
  728MOL0     H  411   4.992   1.315   6.899  1.1970 -1.1330 -2.6591
  728MOL0     H  412   5.017   1.202   7.040 -4.1874  2.7684  2.4262
  728MOL0     H  413   5.099   1.177   6.648  2.1456  3.1919  1.3406
  728MOL0     H  414   5.273   0.930   6.547 -0.3039  0.7436  0.4360
  728MOL0     H  415   5.424   0.942   6.647  2.5655  3.1300 -1.0157
  728MOL0     H  416   5.286   1.153   6.472  0.8839  2.2471  1.6405
  728MOL0     H  417   5.440   1.166   6.534 -2.6526  1.9253  1.0933
  728MOL0     H  418   5.531   0.969   6.410 -0.9150 -2.4414 -4.3199
  728MOL0     H  419   5.378   0.933   6.347  1.9508 -1.3154 -0.8605
  728MOL0     H  420   5.535   1.182   6.301 -1.1801  0.3475  2.8623
  728MOL0     H  421   5.511   1.055   6.175 -2.1611  1.7672 -3.1532
  728MOL0     H  422   5.381   1.056   5.980 -0.6378  3.0394  0.2235
  728MOL0     H  423   5.221   0.921   5.758 -0.2330 -0.1006  0.4824
  728MOL0     H  424   5.245   0.754   5.834  1.8429 -0.5900 -0.4800
  728MOL0     H  425   5.369   0.865   5.828  0.0880 -2.3313  1.3734
  728MOL0     H  426   4.745   0.865   5.756  0.0349  0.2392 -1.1387
  728MOL0     H  427   4.528   0.779   5.696  2.7646  1.0479 -0.9529
  728MOL0     H  428   4.310   0.756   5.699 -0.5796  0.5698  2.0795
  728MOL0     H  429   4.378   0.598   5.646  0.3127 -3.0101  1.5640
  728MOL0     H  430   4.190   0.475   5.726  0.8736 -0.2701  1.7234
  728MOL0     H  431   4.113   0.630   5.790  0.5845  1.0080 -0.0627
  728MOL0     H  432   4.182   0.575   5.508  1.0924  2.1949 -0.5126
  728MOL0     H  433   4.112   0.728   5.568  0.0479 -0.3327 -1.4040
  728MOL0     H  434   3.928   0.618   5.642  1.1328  1.7175 -0.3632
  728MOL0     H  435   3.970   0.459   5.587 -2.6109  0.8111  0.7628
  728MOL0     H  436   3.828   0.532   5.410  0.2217 -2.6214  3.9294
  728MOL0     H  437   3.880   0.705   5.427 -0.1171 -0.0931 -0.5436
  728MOL0     H  438   4.058   0.502   5.313 -1.5151 -0.1853  0.2563
  728MOL0     H  439   4.081   0.679   5.311  1.8451 -1.7110 -2.2979
  728MOL0     H  440   3.873   0.712   5.173 -1.8999 -0.5962 -2.1312
  728MOL0     H  441   3.856   0.533   5.165  0.8670 -1.0003 -0.7063
  728MOL0     H  442   4.080   0.520   5.053  0.0939 -0.1678 -1.4647
  728MOL0     H  443   4.093   0.697   5.056 -0.3860  1.2552  2.0204
  728MOL0     H  444   4.468   0.620   6.086 -0.4746 -1.4471 -2.0094
  728MOL0     H  445   4.684   0.729   6.164  2.7373 -2.5424  0.5015
  728MOL0     H  446   4.926   1.006   6.151 -0.6672 -4.9261  2.4095
  728MOL0     H  447   5.087   1.158   6.266 -0.0464  2.7468 -1.3085
  728MOL0     H  448   4.041   0.875   6.644  0.1466 -2.6514 -2.1344
  728MOL0     H  449   3.844   0.751   6.569  0.3484  4.3848 -0.5929
  728MOL0     H  450   3.455   0.530   6.699  1.8394  0.8437  0.2837
  728MOL0     H  451   3.239   0.399   6.663 -0.8716 -0.9260 -2.4851
  728MOL0     H  452   3.264   0.018   6.470  0.3954  1.3492 -0.0978
  728MOL0     H  453   3.259  -0.009   6.644 -0.0120 -1.5244 -0.4399
  728MOL0     H  454   3.032   0.035   6.449 -1.6866 -2.5255 -0.0026
  728MOL0     H  455   3.026  -0.006   6.632  0.4762  0.3496 -0.2580
  728MOL0     H  456   3.158  -0.199   6.442  0.8950 -1.4124  2.4257
  728MOL0     H  457   3.082  -0.220   6.606 -0.1563 -1.4530  0.0157
  728MOL0     H  458   2.867  -0.183   6.498  0.5783  2.0869 -0.3869
  728MOL0     H  459   2.960  -0.321   6.440  2.5102  0.6881  1.9855
  728MOL0     H  460   2.939  -0.083   6.091  3.4526 -2.0747 -0.9769
  728MOL0     H  461   3.450   0.078   6.518  0.1851  0.6239 -1.2176
  728MOL0     H  462   3.730   0.093   6.687 -1.4865 -2.6949  0.2382
  728MOL0     H  463   3.657   0.049   6.534  2.6809 -1.1317  0.3134
  728MOL0     H  464   3.778   0.189   6.549 -1.4944  3.5567  0.0824
  729MOL0     O  465   6.566   4.209   1.539  0.5718 -0.9096  0.3457
  729MOL0     C  466   6.505   4.254   1.636  0.0886 -0.4034  0.3345
  729MOL0     O  467   6.555   4.301   1.757  0.2962  0.2648  0.2264
  729MOL0     C  468   6.690   4.327   1.770 -0.8698 -0.2392 -1.0646
  729MOL0     C  469   6.777   4.221   1.780 -1.0208 -0.5221  0.4613
  729MOL0     C  470   6.907   4.233   1.822  0.0368 -0.5124  0.1243
  729MOL0     C  471   6.967   4.360   1.840  0.2377 -0.6502 -0.0884
  729MOL0     O  472   7.096   4.396   1.872  0.3263  0.1842 -0.1141
  729MOL0     C  473   7.178   4.298   1.932 -0.3213  0.4751  0.2344
  729MOL0     C  474   7.312   4.354   1.976  0.0286 -0.7166  0.0628
  729MOL0     C  475   7.383   4.443   1.876 -0.0257 -0.2191  0.0088
  729MOL0     C  476   7.511   4.493   1.947  0.8134  0.3283  0.2938
  729MOL0     C  477   7.599   4.580   1.859  0.2686 -0.0410  0.4683
  729MOL0     C  478   7.736   4.618   1.920 -0.1832 -0.5901 -1.0443
  729MOL0     C  479   7.846   4.509   1.910 -0.2651  0.3216 -0.5197
  729MOL0     C  480   7.959   4.531   2.011  0.3976 -0.7703  0.5888
  729MOL0     N  481   8.056   4.635   1.959  0.2692  1.3925 -0.1036
  729MOL0     C  482   8.191   4.641   1.935  0.0992  0.4878 -0.5346
  729MOL0     C  483   8.235   4.775   1.931 -0.3277  0.0471  0.3043
  729MOL0     C  484   8.377   4.827   1.925  0.2375  0.4937  0.5015
  729MOL0     C  485   8.388   4.977   1.886 -0.3437  1.0964 -0.0241
  729MOL0     C  486   8.540   5.009   1.878 -0.4377 -0.7808  0.4868
  729MOL0     C  487   8.574   5.141   1.792 -1.0152 -0.6353  0.1891
  729MOL0     O  488   8.707   5.182   1.822  0.2008  0.0013  0.1324
  729MOL0     C  489   8.758   5.224   1.943  0.5355  0.1058 -0.5988
  729MOL0     C  490   8.891   5.225   1.963 -0.5006  0.2059 -0.3020
  729MOL0     C  491   8.953   5.259   2.090 -0.7953  0.5303 -0.3083
  729MOL0     C  492   9.098   5.267   2.094  0.0796 -0.1823  0.3173
  729MOL0     C  493   8.869   5.277   2.201 -1.3681 -0.4714 -0.2811
  729MOL0     C  494   8.924   5.313   2.332  0.2266  0.5667 -0.3021
  729MOL0     O  495   8.847   5.263   2.434  0.1012  0.8241 -0.3183
  729MOL0     C  496   8.881   5.290   2.558  0.3205 -1.4189  0.2649
  729MOL0     C  497   8.952   5.201   2.633 -0.2126  0.5618  0.3034
  729MOL0     C  498   8.998   5.241   2.760  0.8565 -0.3977 -0.0495
  729MOL0     C  499   8.953   5.364   2.813 -1.0523  0.6890 -0.4139
  729MOL0     O  500   8.987   5.403   2.944 -0.8651 -0.1137 -0.4103
  729MOL0     C  501   8.985   5.542   2.983 -0.0323  0.5323  0.7346
  729MOL0     C  502   8.855   5.580   3.048  0.0822 -0.0370 -0.4866
  729MOL0     C  503   8.875   5.696   3.137  0.6223 -0.7542  0.1744
  729MOL0     C  504   8.740   5.736   3.210  0.4472  0.1191 -0.3699
  729MOL0     C  505   8.767   5.877   3.285 -1.1708  0.4829 -0.3612
  729MOL0     C  506   8.634   5.931   3.332  0.1916 -1.0016 -0.9134
  729MOL0     C  507   8.670   6.054   3.411 -0.2801 -0.0407 -0.3229
  729MOL0     C  508   8.552   6.133   3.468  0.0048 -0.1334 -0.1198
  729MOL0    Cl  509   8.479   6.230   3.342  0.0229 -0.0247 -0.0596
  729MOL0     C  510   8.869   5.444   2.738 -0.1246 -0.4835  0.3007
  729MOL0     C  511   8.840   5.412   2.608  0.1493  0.0905  0.0712
  729MOL0     O  512   9.035   5.368   2.355  0.4361 -0.1286  0.9519
  729MOL0     C  513   8.730   5.271   2.175 -0.5205  0.1112 -0.5520
  729MOL0     C  514   8.679   5.249   2.049 -0.3225  0.6210  0.1213
  729MOL0     N  515   8.114   4.846   1.940  0.2625 -0.6634  0.6868
  729MOL0     N  516   8.012   4.764   1.954  0.3827 -0.0605  0.6312
  729MOL0     C  517   6.882   4.473   1.815 -0.6986  0.7256  0.0794
  729MOL0     C  518   6.747   4.453   1.779  0.4415 -0.2021  0.5712
  729MOL0     C  519   6.366   4.266   1.620  0.2435 -0.9568 -0.3698
  729MOL0     C  520   6.292   4.252   1.739 -0.2082 -0.3867  0.0789
  729MOL0     C  521   6.154   4.266   1.734  0.0208  0.0707  0.7050
  729MOL0     C  522   6.088   4.285   1.613 -0.7243 -0.1277  0.5510
  729MOL0     O  523   5.954   4.294   1.597 -0.2718 -0.1770 -0.3361
  729MOL0     C  524   5.893   4.383   1.683  0.5013 -0.6358 -0.4208
  729MOL0     C  525   5.771   4.431   1.610  1.1489  0.1579  0.0371
  729MOL0     C  526   5.798   4.502   1.475 -0.0582  0.2054  0.2950
  729MOL0     C  527   5.674   4.562   1.413 -1.1880 -0.0984 -0.1262
  729MOL0     C  528   5.567   4.463   1.392 -0.1248  0.2733 -0.8238
  729MOL0     C  529   5.483   4.384   1.379  0.2613 -0.7358  0.2456
  729MOL0     C  530   6.163   4.288   1.494  0.1735  0.0481 -0.6942
  729MOL0     C  531   6.299   4.279   1.494 -0.4398  0.0562  0.3685
  729MOL0     C  532   6.383   4.296   1.365  0.2423 -0.9307 -0.0863
  729MOL0     H  533   6.742   4.119   1.772  0.6515 -1.1303  0.3877
  729MOL0     H  534   6.957   4.137   1.824  2.2082  0.5688  0.4839
  729MOL0     H  535   7.202   4.218   1.861  0.4826  0.9951 -0.0916
  729MOL0     H  536   7.126   4.249   2.014  0.8208  0.5905  1.0421
  729MOL0     H  537   7.298   4.427   2.057  2.1398  2.1348 -1.9322
  729MOL0     H  538   7.365   4.261   1.997 -2.1798 -2.7099 -2.5616
  729MOL0     H  539   7.398   4.383   1.786 -1.0045 -1.8570  0.8709
  729MOL0     H  540   7.321   4.529   1.851  0.6152  0.6894  1.4333
  729MOL0     H  541   7.492   4.553   2.037  2.8747  2.0029 -0.3105
  729MOL0     H  542   7.573   4.406   1.973  0.0681 -0.9850 -2.0264
  729MOL0     H  543   7.541   4.656   1.806 -1.3015 -1.5724 -0.1179
  729MOL0     H  544   7.626   4.518   1.773 -2.0591 -1.0629  0.4057
  729MOL0     H  545   7.774   4.707   1.869  4.0467  0.7109  3.5946
  729MOL0     H  546   7.730   4.648   2.025 -0.8163  1.4701 -1.6208
  729MOL0     H  547   7.893   4.504   1.812 -0.3369 -0.7621 -0.5035
  729MOL0     H  548   7.805   4.412   1.938 -2.0063  1.2503  0.3605
  729MOL0     H  549   7.918   4.565   2.106 -1.4901  0.8111 -0.7106
  729MOL0     H  550   8.010   4.435   2.023 -1.3760 -1.8026  0.2388
  729MOL0     H  551   8.264   4.560   1.939 -0.1102  0.2831  3.8496
  729MOL0     H  552   8.424   4.765   1.848 -2.2731  0.6760 -1.3350
  729MOL0     H  553   8.429   4.818   2.021  1.5810  1.1481 -0.1444
  729MOL0     H  554   8.335   5.002   1.793  0.4567  2.1836 -0.2161
  729MOL0     H  555   8.335   5.037   1.961 -0.9566  3.4221 -2.1628
  729MOL0     H  556   8.589   5.021   1.975  0.9271  0.6999 -0.3340
  729MOL0     H  557   8.590   4.933   1.818 -3.9248 -1.8457 -1.3082
  729MOL0     H  558   8.558   5.125   1.685  0.6587  1.6471 -0.4779
  729MOL0     H  559   8.505   5.224   1.810 -0.8524 -0.3247 -0.5999
  729MOL0     H  560   8.940   5.202   1.869 -3.3717  0.3652 -1.9468
  729MOL0     H  561   9.147   5.221   2.180  1.9210  1.9490  0.4935
  729MOL0     H  562   9.124   5.374   2.100 -2.2094  0.4037  1.0824
  729MOL0     H  563   9.144   5.228   2.004  1.0601  0.3424  0.5781
  729MOL0     H  564   8.973   5.105   2.588  0.5147  0.5821  0.5873
  729MOL0     H  565   9.045   5.167   2.825 -1.8581 -3.0279 -0.8379
  729MOL0     H  566   9.070   5.556   3.051  3.5402  0.0862 -3.2132
  729MOL0     H  567   8.994   5.615   2.902 -2.7268 -1.2232 -1.3204
  729MOL0     H  568   8.785   5.612   2.970 -0.4507  2.1139  0.8009
  729MOL0     H  569   8.814   5.496   3.105  1.1886 -1.2984 -1.4753
  729MOL0     H  570   8.905   5.781   3.075 -0.8739  0.8842  1.5973
  729MOL0     H  571   8.947   5.663   3.212  0.3589 -2.2958 -0.2080
  729MOL0     H  572   8.700   5.663   3.281 -2.2171  1.9356  0.1271
  729MOL0     H  573   8.671   5.758   3.128  1.2284  0.5201 -0.9435
  729MOL0     H  574   8.844   5.873   3.362 -0.7588  0.6111 -0.7664
  729MOL0     H  575   8.809   5.947   3.213  0.2115  0.0424 -0.0096
  729MOL0     H  576   8.576   5.862   3.395 -0.6273  0.1957 -0.3153
  729MOL0     H  577   8.568   5.966   3.252  0.2702  0.7796 -0.2440
  729MOL0     H  578   8.734   6.129   3.364  2.0660 -1.4349  0.5112
  729MOL0     H  579   8.721   6.012   3.498  0.0694 -1.4879 -1.1996
  729MOL0     H  580   8.590   6.201   3.544  3.4784 -2.9778  0.9808
  729MOL0     H  581   8.477   6.061   3.502  0.7318 -0.3803  0.9926
  729MOL0     H  582   8.828   5.537   2.775  2.0979  0.4687  0.5658
  729MOL0     H  583   8.785   5.486   2.551  0.9655  1.1458  0.6286
  729MOL0     H  584   8.663   5.293   2.258  0.3009 -0.6259  0.3239
  729MOL0     H  585   8.572   5.243   2.031 -1.1165  1.1893  3.7855
  729MOL0     H  586   6.931   4.570   1.824  1.6121 -0.2866 -0.8054
  729MOL0     H  587   6.703   4.548   1.752  0.3728  0.6528  3.3802
  729MOL0     H  588   6.338   4.232   1.835  1.6182 -1.6377 -0.9900
  729MOL0     H  589   6.085   4.275   1.817 -2.0616 -1.5067 -0.7332
  729MOL0     H  590   5.871   4.335   1.779 -2.3758 -1.2487 -1.2951
  729MOL0     H  591   5.956   4.472   1.697  1.0052 -1.1386  0.6226
  729MOL0     H  592   5.703   4.493   1.670  1.1270 -1.2277  1.5189
  729MOL0     H  593   5.704   4.348   1.588 -1.3882  2.2255 -0.5693
  729MOL0     H  594   5.866   4.586   1.493 -0.6062  0.8485 -0.5681
  729MOL0     H  595   5.850   4.437   1.404  0.3768  0.1953  0.6129
  729MOL0     H  596   5.689   4.605   1.313 -3.3658  0.5671 -0.2126
  729MOL0     H  597   5.644   4.647   1.475  1.0845  1.3833 -0.8983
  729MOL0     H  598   5.400   4.318   1.361  1.1892 -1.3566 -2.1154
  729MOL0     H  599   6.106   4.315   1.406  0.3504  0.4021 -0.7032
  729MOL0     H  600   6.314   4.342   1.294  0.2364  0.6201  0.8668
  729MOL0     H  601   6.466   4.366   1.383  0.4049 -1.7469  3.0272
  729MOL0     H  602   6.423   4.199   1.337 -1.9782 -1.8366 -0.3047
  730MOL0     O  603   6.140   5.207   6.759 -0.6902  0.0317 -0.2804
  730MOL0     C  604   6.070   5.292   6.810  0.5409 -0.5369 -0.0890
  730MOL0     O  605   6.105   5.391   6.885 -0.5048 -0.1017 -0.3928
  730MOL0     C  606   6.236   5.438   6.883 -0.2364 -0.2537 -0.1628
  730MOL0     C  607   6.288   5.483   6.998 -0.3054  0.7714  0.0197
  730MOL0     C  608   6.424   5.517   7.005 -0.6038 -0.9268  0.7967
  730MOL0     C  609   6.503   5.511   6.892  0.4423  0.6997 -0.0054
  730MOL0     O  610   6.638   5.540   6.900  0.2670  0.4345  0.0745
  730MOL0     C  611   6.734   5.501   6.796 -0.6949  0.2532 -0.3902
  730MOL0     C  612   6.760   5.353   6.780  0.6709 -0.4306 -0.2075
  730MOL0     C  613   6.872   5.315   6.686  0.3210 -0.0843  0.2006
  730MOL0     C  614   6.941   5.185   6.729  0.0074  0.1045 -0.8297
  730MOL0     C  615   7.044   5.147   6.626  1.4437 -0.0681  0.4822
  730MOL0     C  616   7.137   5.253   6.567  0.2005  0.0239  0.3521
  730MOL0     C  617   7.218   5.319   6.683  0.9421  0.7182  0.3029
  730MOL0     C  618   7.335   5.235   6.733 -0.4314  0.2748  0.2606
  730MOL0     N  619   7.447   5.229   6.644 -0.5694  0.3858  0.1251
  730MOL0     C  620   7.557   5.301   6.650 -0.3180 -0.0460 -0.6473
  730MOL0     C  621   7.652   5.232   6.576  0.1902 -1.3778 -0.3061
  730MOL0     C  622   7.798   5.268   6.565  0.0121  0.7560  0.0298
  730MOL0     C  623   7.821   5.412   6.520 -1.1935  0.0393 -0.7813
  730MOL0     C  624   7.969   5.440   6.482  0.6823  0.2104 -0.5750
  730MOL0     C  625   8.067   5.472   6.593  1.2090  0.3299 -0.3450
  730MOL0     O  626   8.117   5.355   6.665 -0.4162 -0.6185 -0.1326
  730MOL0     C  627   8.216   5.279   6.609 -0.1835 -0.4401  0.2038
  730MOL0     C  628   8.265   5.172   6.684  0.1310  0.0900  0.0588
  730MOL0     C  629   8.359   5.085   6.629 -1.1199 -0.4446 -0.6025
  730MOL0     C  630   8.405   4.974   6.718 -0.2831 -0.1829  0.3034
  730MOL0     C  631   8.406   5.105   6.497  0.5095  0.4162  0.2849
  730MOL0     C  632   8.492   5.004   6.427 -0.4161  0.5999  0.1085
  730MOL0     O  633   8.577   5.052   6.333  0.0350 -0.2264  0.0352
  730MOL0     C  634   8.677   4.960   6.296 -0.4564  0.1712  1.3252
  730MOL0     C  635   8.649   4.855   6.206 -0.4918  0.5079 -0.4427
  730MOL0     C  636   8.755   4.773   6.159  0.3296  0.0719 -0.9410
  730MOL0     C  637   8.890   4.792   6.205 -0.5640 -0.3682  0.2937
  730MOL0     O  638   9.003   4.722   6.165  0.3088  0.1700 -0.0483
  730MOL0     C  639   8.988   4.579   6.169 -0.0599 -0.5267 -0.0628
  730MOL0     C  640   9.111   4.508   6.122  0.3854 -0.3801  0.1235
  730MOL0     C  641   9.226   4.512   6.223 -0.9176 -0.8609 -0.4029
  730MOL0     C  642   9.341   4.589   6.163  0.2818 -0.4500  0.1814
  730MOL0     C  643   9.464   4.602   6.267  0.2542  0.0157  0.3786
  730MOL0     C  644   9.542   4.486   6.300 -0.5738  0.0502  0.6042
  730MOL0     C  645   9.561   4.380   6.186 -0.9008 -0.9367 -0.7086
  730MOL0     C  646   9.659   4.441   6.078 -0.1163  0.0171 -1.4613
  730MOL0    Cl  647   9.716   4.321   5.970  0.5481 -0.1605  0.1301
  730MOL0     C  648   8.910   4.902   6.287  0.1520  0.2353 -0.8418
  730MOL0     C  649   8.804   4.977   6.335  1.0217  0.4714  1.1947
  730MOL0     O  650   8.476   4.888   6.461 -0.1467 -0.0164  0.1322
  730MOL0     C  651   8.355   5.204   6.425 -0.9667  0.4726  0.0753
  730MOL0     C  652   8.267   5.291   6.480 -0.9288 -0.6343 -0.8209
  730MOL0     N  653   7.594   5.122   6.519 -0.3858 -0.5697 -0.7102
  730MOL0     N  654   7.472   5.113   6.567 -0.1511 -1.0320  0.4674
  730MOL0     C  655   6.440   5.491   6.769  0.2396  0.5987 -0.7942
  730MOL0     C  656   6.312   5.441   6.767 -0.8087  1.0134  0.1028
  730MOL0     C  657   5.920   5.252   6.818 -0.2519  0.0105  0.1138
  730MOL0     C  658   5.832   5.349   6.770  0.3283  0.4910  0.3916
  730MOL0     C  659   5.696   5.322   6.760 -0.0972  0.3919  0.0832
  730MOL0     C  660   5.639   5.210   6.808  0.1429 -0.8404 -0.1353
  730MOL0     O  661   5.506   5.202   6.786 -0.1737  0.4722 -0.4806
  730MOL0     C  662   5.421   5.081   6.771 -0.9345  0.1794 -0.2176
  730MOL0     C  663   5.287   5.133   6.717 -0.3290  0.1488  0.3991
  730MOL0     C  664   5.200   5.012   6.679  0.3308  0.7700 -0.8849
  730MOL0     C  665   5.054   5.072   6.657  0.6934 -0.3634  0.3225
  730MOL0     C  666   4.973   4.958   6.601  0.1373 -0.1964 -0.6821
  730MOL0     C  667   4.915   4.863   6.550  0.1965  0.2082 -0.4273
  730MOL0     C  668   5.726   5.110   6.850 -1.1192 -0.0897  0.5856
  730MOL0     C  669   5.864   5.130   6.865 -0.5347 -0.5835  0.4807
  730MOL0     C  670   5.952   5.026   6.924  0.1253  0.2457 -1.0829
  730MOL0     H  671   6.232   5.499   7.089 -1.3922 -0.5397 -0.3883
  730MOL0     H  672   6.467   5.552   7.098  0.7066 -0.4253  0.0225
  730MOL0     H  673   6.831   5.546   6.818 -0.6175 -0.4790  0.8483
  730MOL0     H  674   6.712   5.534   6.694  2.7023  2.5592 -0.5171
  730MOL0     H  675   6.772   5.314   6.881 -1.0663  2.3290  1.1722
  730MOL0     H  676   6.666   5.308   6.748 -0.4474  1.1228  0.7896
  730MOL0     H  677   6.839   5.306   6.582  1.7775 -0.9195 -0.2194
  730MOL0     H  678   6.941   5.399   6.670  1.2604 -1.0619 -1.1316
  730MOL0     H  679   6.992   5.203   6.824 -1.4073 -0.9019  0.1766
  730MOL0     H  680   6.869   5.104   6.746 -1.8829  2.3155  3.0623
  730MOL0     H  681   6.975   5.111   6.548 -1.2838 -0.4603  2.9093
  730MOL0     H  682   7.099   5.055   6.651  0.8224 -0.5122  0.2462
  730MOL0     H  683   7.203   5.206   6.494 -1.4356 -1.6431 -0.1128
  730MOL0     H  684   7.082   5.329   6.510  0.2585 -1.8044 -2.3283
  730MOL0     H  685   7.155   5.346   6.768  2.1781  0.7261  1.2456
  730MOL0     H  686   7.262   5.416   6.657 -1.1682  2.2104  1.9120
  730MOL0     H  687   7.369   5.283   6.825  0.5641 -0.3623  0.2368
  730MOL0     H  688   7.297   5.136   6.758  0.0566 -0.4107 -1.6011
  730MOL0     H  689   7.592   5.382   6.714  1.2205 -1.5951  0.5857
  730MOL0     H  690   7.842   5.202   6.491 -1.0942  0.2606 -0.2092
  730MOL0     H  691   7.842   5.245   6.663  1.9351  2.0030 -0.4801
  730MOL0     H  692   7.768   5.454   6.434 -0.1782  1.7225 -0.6210
  730MOL0     H  693   7.784   5.478   6.599 -0.6763  2.8601 -2.7707
  730MOL0     H  694   8.006   5.364   6.414  1.6454  1.6665 -1.7451
  730MOL0     H  695   7.957   5.533   6.425 -2.1133 -0.3402 -1.0198
  730MOL0     H  696   8.158   5.519   6.554  0.4144  1.9218 -0.3548
  730MOL0     H  697   8.021   5.542   6.664  0.2334  0.6771 -1.2941
  730MOL0     H  698   8.219   5.147   6.779 -5.3569  0.5229 -2.1594
  730MOL0     H  699   8.339   4.890   6.698 -0.4802  0.0457 -0.0134
  730MOL0     H  700   8.393   5.010   6.821  2.0825  1.2554  0.1511
  730MOL0     H  701   8.511   4.951   6.705 -0.1914  0.0379  0.6391
  730MOL0     H  702   8.546   4.825   6.191 -0.1401 -2.2795  1.8658
  730MOL0     H  703   8.717   4.700   6.088 -0.9489 -0.4242  0.2250
  730MOL0     H  704   8.965   4.543   6.270 -0.6241 -0.6828 -0.2427
  730MOL0     H  705   8.900   4.557   6.107 -1.5892  1.0760  1.4275
  730MOL0     H  706   9.081   4.404   6.109 -2.6065 -0.3448  4.4703
  730MOL0     H  707   9.153   4.534   6.024 -2.6218 -0.2202 -1.2365
  730MOL0     H  708   9.260   4.410   6.246  2.1524 -0.4367 -2.5266
  730MOL0     H  709   9.208   4.555   6.322  1.5005 -0.7823  0.0595
  730MOL0     H  710   9.314   4.694   6.151  0.6631 -0.0216  2.6419
  730MOL0     H  711   9.366   4.550   6.063 -1.1260  1.5616 -1.0237
  730MOL0     H  712   9.537   4.674   6.228 -1.0810  1.1038 -0.1799
  730MOL0     H  713   9.433   4.649   6.361  1.2597 -1.0503  1.2698
  730MOL0     H  714   9.495   4.429   6.382 -0.0775  0.2261  1.0118
  730MOL0     H  715   9.638   4.527   6.330  1.0892 -1.3750 -2.3025
  730MOL0     H  716   9.467   4.336   6.151 -1.6601 -0.1100  0.2272
  730MOL0     H  717   9.610   4.296   6.237 -0.9397 -0.9619 -0.7136
  730MOL0     H  718   9.737   4.505   6.120  0.8656  0.0802 -3.2396
  730MOL0     H  719   9.599   4.508   6.015 -1.9138 -0.3380 -0.1786
  730MOL0     H  720   9.014   4.918   6.314 -0.9369  2.7262  2.5918
  730MOL0     H  721   8.815   5.052   6.412 -0.6044  0.0376  1.9015
  730MOL0     H  722   8.404   5.224   6.330 -1.1877  0.8780  0.0454
  730MOL0     H  723   8.251   5.387   6.431  2.8073  2.4439  3.0885
  730MOL0     H  724   6.499   5.508   6.680  0.6169  1.1624 -0.4437
  730MOL0     H  725   6.281   5.388   6.678 -0.5862 -0.7627  1.0436
  730MOL0     H  726   5.869   5.442   6.728 -0.0956  0.1196 -0.8516
  730MOL0     H  727   5.638   5.403   6.716  0.7027  1.1711  0.4128
  730MOL0     H  728   5.468   5.015   6.697 -0.4514  0.3896 -0.1038
  730MOL0     H  729   5.398   5.024   6.862  0.9026 -0.6921 -0.2445
  730MOL0     H  730   5.309   5.191   6.627  2.1354  2.4653  2.3026
  730MOL0     H  731   5.252   5.208   6.789  0.9040 -0.0290  1.2140
  730MOL0     H  732   5.254   4.973   6.592  1.4024  0.7047 -0.2007
  730MOL0     H  733   5.198   4.933   6.755 -0.7650 -0.2835 -1.9549
  730MOL0     H  734   5.061   5.144   6.575  0.5661 -0.4733  0.2146
  730MOL0     H  735   5.004   5.119   6.742 -0.0858  0.9471 -0.8255
  730MOL0     H  736   4.883   4.775   6.498 -1.2732  0.0506  0.6633
  730MOL0     H  737   5.678   5.013   6.860 -0.9530 -0.3451 -0.8870
  730MOL0     H  738   6.029   5.062   6.993  0.4853 -0.1829 -1.2527
  730MOL0     H  739   5.890   4.948   6.969  2.9360 -1.5484  0.0108
  730MOL0     H  740   6.005   4.970   6.846 -0.7054 -0.8101 -0.9142
  731MOL0     O  741   2.016   3.867   6.273 -0.2052  0.1671 -0.1637
  731MOL0     C  742   1.927   3.786   6.312  0.7159  0.2352  0.3617
  731MOL0     O  743   1.951   3.683   6.394  0.5379 -0.0116 -0.6566
  731MOL0     C  744   2.083   3.662   6.429  0.8425 -0.2664 -0.5871
  731MOL0     C  745   2.097   3.622   6.566  0.1576 -0.4866 -1.1534
  731MOL0     C  746   2.215   3.570   6.621  0.3368 -0.1346  0.7032
  731MOL0     C  747   2.317   3.542   6.531  0.2405 -0.6263  0.0025
  731MOL0     O  748   2.436   3.487   6.567  0.1512  0.4987 -0.1555
  731MOL0     C  749   2.555   3.541   6.522 -1.2879  1.0805  0.3606
  731MOL0     C  750   2.667   3.470   6.607  0.2189 -0.2471 -0.1937
  731MOL0     C  751   2.781   3.563   6.638 -0.1244  0.6168 -0.4638
  731MOL0     C  752   2.894   3.474   6.691 -0.2777  0.5032  0.3482
  731MOL0     C  753   3.006   3.568   6.732  0.1559  0.1825 -0.0666
  731MOL0     C  754   2.978   3.672   6.844 -0.0509  0.4650 -0.0965
  731MOL0     C  755   3.116   3.746   6.852  0.5606  0.1053  0.0028
  731MOL0     C  756   3.089   3.872   6.940 -0.6878 -0.2117 -0.1191
  731MOL0     N  757   3.053   3.844   7.076  0.5075  0.8499 -0.3223
  731MOL0     C  758   3.129   3.813   7.193  0.5826  0.3438  0.2578
  731MOL0     C  759   3.041   3.802   7.296  0.3916  0.2621  0.1336
  731MOL0     C  760   3.064   3.763   7.443 -0.2029  0.2935  0.7739
  731MOL0     C  761   2.958   3.832   7.529  0.8122 -0.1154 -0.6475
  731MOL0     C  762   2.931   3.749   7.668  0.0589 -0.5600  0.3756
  731MOL0     C  763   3.043   3.771   7.775  0.1289  0.0022  0.4374
  731MOL0     O  764   3.068   3.909   7.790 -0.0108  0.3394 -0.0264
  731MOL0     C  765   3.197   3.929   7.821  0.5113 -0.2162  0.4946
  731MOL0     C  766   3.291   3.955   7.718  0.0674 -0.9473 -0.3632
  731MOL0     C  767   3.430   3.967   7.752  0.6315  0.7299 -0.5516
  731MOL0     C  768   3.524   3.940   7.634 -0.3800  0.0011  1.0805
  731MOL0     C  769   3.464   3.980   7.885 -0.0167 -0.2380 -0.0447
  731MOL0     C  770   3.598   4.013   7.920 -0.7260 -0.0231 -0.3011
  731MOL0     O  771   3.653   3.940   8.014  0.0916 -0.0625  0.2063
  731MOL0     C  772   3.791   3.929   8.046  0.0991  0.4423  0.4513
  731MOL0     C  773   3.889   4.030   8.017  0.5039 -0.2345  0.0858
  731MOL0     C  774   4.024   4.029   8.059 -0.3706 -0.2871  0.1188
  731MOL0     C  775   4.074   3.918   8.120 -0.3003  0.5674 -0.0281
  731MOL0     O  776   4.203   3.905   8.157  0.2370  0.4719  0.0039
  731MOL0     C  777   4.296   4.019   8.145 -0.4693 -0.2209 -0.1029
  731MOL0     C  778   4.435   3.968   8.180  0.0119 -0.0180 -0.1885
  731MOL0     C  779   4.550   4.060   8.157 -0.0411 -0.3485  0.2825
  731MOL0     C  780   4.555   4.173   8.266  0.8137 -0.6043  0.3200
  731MOL0     C  781   4.668   4.269   8.233  0.4983 -0.3604 -0.2376
  731MOL0     C  782   4.804   4.217   8.260 -0.9746  0.6467 -0.0013
  731MOL0     C  783   4.913   4.330   8.271  0.3827  0.7659  0.7745
  731MOL0     C  784   4.946   4.383   8.132 -0.3399 -0.5662 -0.5762
  731MOL0    Cl  785   5.126   4.442   8.115  0.5652 -0.5486 -0.8194
  731MOL0     C  786   3.985   3.814   8.148 -0.0872 -0.2398 -0.4406
  731MOL0     C  787   3.845   3.821   8.113 -0.2835  0.0464 -0.2087
  731MOL0     O  788   3.657   4.100   7.853 -0.1320  0.3371  0.5852
  731MOL0     C  789   3.372   3.968   7.983  0.0648 -0.4722 -0.3592
  731MOL0     C  790   3.239   3.939   7.958  0.6591 -0.0821  0.4404
  731MOL0     N  791   2.917   3.830   7.241  0.7317 -0.7856 -0.4204
  731MOL0     N  792   2.928   3.856   7.113 -0.1915  0.9678  0.1079
  731MOL0     C  793   2.296   3.572   6.394  0.0638 -1.0847 -0.3157
  731MOL0     C  794   2.188   3.641   6.341 -0.0487  0.2764 -0.3833
  731MOL0     C  795   1.792   3.797   6.265 -0.3927 -0.6108 -0.5462
  731MOL0     C  796   1.642   3.677   6.360  0.2471 -0.2395  0.7975
  731MOL0     C  797   1.445   3.685   6.301 -0.9682 -0.4804  0.0353
  731MOL0     C  798   1.386   3.813   6.141 -0.0239 -0.4002  1.0350
  731MOL0     O  799   1.254   3.814   6.100  0.1949 -0.5239 -0.0067
  731MOL0     C  800   1.189   3.692   6.145 -0.8222  0.0447 -0.5022
  731MOL0     C  801   1.040   3.700   6.111 -0.4226 -0.1527 -0.4215
  731MOL0     C  802   0.953   3.805   6.183  0.1129  0.9359  0.6620
  731MOL0     C  803   0.884   3.744   6.300  0.6626  0.4662  0.3534
  731MOL0     C  804   0.973   3.684   6.404 -0.8514  0.8403  0.0580
  731MOL0     C  805   1.042   3.637   6.497 -0.7044  0.2882 -0.1929
  731MOL0     C  806   1.531   3.934   6.038  1.2723 -0.4208 -0.2566
  731MOL0     C  807   1.735   3.929   6.101  0.1486  0.5846  0.5045
  731MOL0     C  808   1.834   4.015   6.050 -0.7983  0.0464 -0.4967
  731MOL0     H  809   2.009   3.609   6.628  1.7965  1.4891  1.8343
  731MOL0     H  810   2.222   3.525   6.720 -1.2410 -0.8653  0.5068
  731MOL0     H  811   2.556   3.643   6.559  0.9215  1.3994 -0.4515
  731MOL0     H  812   2.566   3.526   6.414 -2.7907  2.3630  0.0022
  731MOL0     H  813   2.620   3.428   6.696  0.6204 -2.7116 -1.0775
  731MOL0     H  814   2.699   3.384   6.548 -0.2211  0.1998 -1.1041
  731MOL0     H  815   2.813   3.610   6.545  1.4637 -0.7459 -0.6563
  731MOL0     H  816   2.760   3.643   6.709  0.0850  1.9424 -1.8444
  731MOL0     H  817   2.865   3.418   6.780  1.4684 -1.2298 -0.1103
  731MOL0     H  818   2.937   3.409   6.614  1.2809  0.8241  0.9101
  731MOL0     H  819   3.029   3.627   6.643 -0.0742 -2.0970 -1.7333
  731MOL0     H  820   3.093   3.505   6.751 -0.7041 -0.6337  1.3967
  731MOL0     H  821   2.897   3.742   6.824  0.0020  0.2527 -1.0945
  731MOL0     H  822   2.955   3.626   6.941 -0.9673 -1.8553 -1.3502
  731MOL0     H  823   3.146   3.787   6.755 -1.9332 -1.5526 -1.5750
  731MOL0     H  824   3.199   3.693   6.901  2.0638 -0.1540 -2.6003
  731MOL0     H  825   3.175   3.940   6.945  0.7339 -1.9587  0.2119
  731MOL0     H  826   3.008   3.932   6.899  0.0818  2.0897  1.4719
  731MOL0     H  827   3.236   3.795   7.203  0.4729 -0.8104 -0.4161
  731MOL0     H  828   3.168   3.775   7.474  1.6964 -4.2867 -2.6280
  731MOL0     H  829   3.049   3.655   7.456  1.1739  0.3675  3.7572
  731MOL0     H  830   2.999   3.930   7.554  0.2717 -0.0224 -0.0874
  731MOL0     H  831   2.869   3.837   7.465 -1.1935  1.0149  2.0607
  731MOL0     H  832   2.833   3.774   7.711 -1.1197 -1.4280 -1.6613
  731MOL0     H  833   2.925   3.642   7.644  2.6965 -1.1946  2.0709
  731MOL0     H  834   3.013   3.722   7.868  0.9735 -2.9421 -0.6917
  731MOL0     H  835   3.135   3.729   7.732  0.0165  1.0584 -0.8845
  731MOL0     H  836   3.259   3.927   7.618 -0.3172 -1.2994 -0.1457
  731MOL0     H  837   3.630   3.944   7.659 -0.1592 -0.8082  0.3268
  731MOL0     H  838   3.505   4.015   7.558 -0.8309 -2.3487 -1.2716
  731MOL0     H  839   3.506   3.841   7.591 -0.6104 -0.4712  2.2106
  731MOL0     H  840   3.858   4.121   7.967  0.9279 -0.4717 -0.6265
  731MOL0     H  841   4.089   4.111   8.030 -2.8836  1.5911 -0.6157
  731MOL0     H  842   4.309   4.041   8.038 -3.5374  2.3882 -0.0944
  731MOL0     H  843   4.267   4.102   8.210  1.0904 -0.6995  1.2576
  731MOL0     H  844   4.440   3.940   8.286  0.8650  1.1873  0.1234
  731MOL0     H  845   4.463   3.873   8.134  1.5780  1.4393 -2.4982
  731MOL0     H  846   4.539   4.107   8.059  0.9922 -0.7607 -0.0486
  731MOL0     H  847   4.639   3.995   8.157 -1.4800 -2.4407  1.4664
  731MOL0     H  848   4.560   4.137   8.369  0.5432  0.7874  0.8445
  731MOL0     H  849   4.464   4.231   8.254  1.0558 -0.1015  0.8706
  731MOL0     H  850   4.651   4.308   8.131 -1.5109  1.9516  0.8561
  731MOL0     H  851   4.654   4.354   8.300 -0.9619 -0.1960 -0.7155
  731MOL0     H  852   4.837   4.139   8.191 -3.6423 -1.8564  1.3442
  731MOL0     H  853   4.803   4.161   8.353 -0.4735 -2.3051 -1.6521
  731MOL0     H  854   4.999   4.280   8.316  1.6224  0.4985 -1.7691
  731MOL0     H  855   4.885   4.416   8.332 -1.1452  1.8250 -1.2992
  731MOL0     H  856   4.868   4.455   8.107 -1.7038 -2.3802 -1.7246
  731MOL0     H  857   4.926   4.299   8.066 -2.6977  0.8997 -1.8311
  731MOL0     H  858   4.027   3.731   8.204  1.7427  0.7835 -0.2199
  731MOL0     H  859   3.798   3.734   8.159 -1.1723  0.2004 -0.8047
  731MOL0     H  860   3.400   3.977   8.087 -0.6374 -1.8314 -0.0379
  731MOL0     H  861   3.170   3.928   8.041  0.3399  1.1989  0.3590
  731MOL0     H  862   2.370   3.538   6.322  2.1389  0.9796  0.7038
  731MOL0     H  863   2.181   3.660   6.234 -1.2173  1.5675 -0.1127
  731MOL0     H  864   1.664   3.618   6.448 -1.4101  1.9029  2.7995
  731MOL0     H  865   1.359   3.628   6.336 -3.5869  0.5588 -4.0341
  731MOL0     H  866   1.231   3.606   6.094 -1.8738 -0.5581 -0.3719
  731MOL0     H  867   1.199   3.676   6.253  1.6153 -1.6615 -0.8984
  731MOL0     H  868   1.006   3.597   6.129  2.7892 -1.0491  1.2295
  731MOL0     H  869   1.038   3.725   6.004 -1.7042 -0.2590 -0.4408
  731MOL0     H  870   1.013   3.894   6.208 -0.5661  1.6802 -0.2745
  731MOL0     H  871   0.876   3.838   6.112  0.8783 -0.3273 -0.8062
  731MOL0     H  872   0.812   3.668   6.268  0.7181  0.4861  0.1806
  731MOL0     H  873   0.826   3.817   6.357  0.1379 -0.1153  0.5794
  731MOL0     H  874   1.090   3.597   6.584  0.8322  2.8651  0.2167
  731MOL0     H  875   1.484   3.990   5.957 -1.0497  0.3749  1.5145
  731MOL0     H  876   1.799   4.116   6.077  0.3247  0.2037  0.4655
  731MOL0     H  877   1.928   4.005   6.105 -1.4698 -0.3748  0.6132
  731MOL0     H  878   1.841   4.014   5.941  2.4247 -0.8538 -0.3903
  732MOL0     O  879   5.173   1.251   8.529  0.4553 -0.1476  0.5150
  732MOL0     C  880   5.188   1.277   8.408 -0.4204 -0.2294 -0.4637
  732MOL0     O  881   5.091   1.320   8.326  0.4156 -0.9649  0.4376
  732MOL0     C  882   4.958   1.307   8.361 -0.3900  0.5216  0.3031
  732MOL0     C  883   4.880   1.407   8.418  0.0931 -0.5662 -0.5784
  732MOL0     C  884   4.747   1.377   8.457  0.8193  0.0928  0.0353
  732MOL0     C  885   4.690   1.257   8.425  0.1522 -0.8565  0.3585
  732MOL0     O  886   4.554   1.263   8.452  0.4150  0.5851 -0.5512
  732MOL0     C  887   4.495   1.145   8.507  0.2305 -0.2411 -0.0482
  732MOL0     C  888   4.339   1.146   8.511 -0.0569  0.5409 -1.0434
  732MOL0     C  889   4.249   1.168   8.398 -0.3330 -0.8303  1.3161
  732MOL0     C  890   4.279   1.070   8.290  0.7381 -0.0034  0.5547
  732MOL0     C  891   4.213   1.090   8.150  0.1347 -0.4775  0.8896
  732MOL0     C  892   4.233   1.229   8.081 -0.2620  0.1324 -0.1303
  732MOL0     C  893   4.375   1.258   8.030 -0.0258 -0.1495  0.7402
  732MOL0     C  894   4.387   1.386   7.946  0.1838 -0.5887  0.1753
  732MOL0     N  895   4.528   1.405   7.892 -0.4412 -0.3634 -0.1165
  732MOL0     C  896   4.553   1.430   7.760 -0.5165  0.5984 -0.2512
  732MOL0     C  897   4.689   1.447   7.759  0.2627 -0.0028  0.5322
  732MOL0     C  898   4.780   1.479   7.640  0.2229  0.1760 -0.9457
  732MOL0     C  899   4.919   1.508   7.700 -0.2112 -0.3157 -0.4422
  732MOL0     C  900   5.011   1.562   7.593 -0.0315  0.7012 -1.2250
  732MOL0     C  901   5.155   1.563   7.644 -0.0298 -0.0988  0.7208
  732MOL0     O  902   5.254   1.576   7.536  0.4127 -0.2968  0.3201
  732MOL0     C  903   5.272   1.702   7.477  0.4682  0.2781  0.0702
  732MOL0     C  904   5.196   1.820   7.492  1.0177 -0.7163 -0.0848
  732MOL0     C  905   5.227   1.951   7.431  0.4976  0.4475 -0.8870
  732MOL0     C  906   5.129   2.059   7.441  0.4091  0.4290  0.0719
  732MOL0     C  907   5.344   1.954   7.343 -0.8564 -0.0367 -0.7461
  732MOL0     C  908   5.390   2.072   7.268 -1.0221  0.5826  0.4369
  732MOL0     O  909   5.481   2.052   7.167  0.8567 -0.4033 -0.2811
  732MOL0     C  910   5.505   2.154   7.080  0.4435  0.1892  0.5834
  732MOL0     C  911   5.592   2.260   7.102  0.5351  0.0621  0.6023
  732MOL0     C  912   5.612   2.361   7.005 -0.1173  0.1823  0.6930
  732MOL0     C  913   5.560   2.347   6.876 -0.3974  0.3785 -0.4502
  732MOL0     O  914   5.612   2.434   6.784 -0.1640 -0.7442  0.1534
  732MOL0     C  915   5.628   2.402   6.649 -0.9674 -0.0510  0.3080
  732MOL0     C  916   5.529   2.478   6.570  0.5704 -0.3392 -0.3602
  732MOL0     C  917   5.580   2.620   6.531 -0.1419 -0.8709 -0.5850
  732MOL0     C  918   5.599   2.710   6.652  0.2844  0.3480 -0.5948
  732MOL0     C  919   5.629   2.855   6.611 -1.2699 -0.7832  0.2935
  732MOL0     C  920   5.775   2.894   6.581 -1.1538 -0.7823  0.4300
  732MOL0     C  921   5.852   2.940   6.699  0.7956  0.6914 -0.3178
  732MOL0     C  922   5.989   3.001   6.652  0.6256 -0.1481 -0.3051
  732MOL0    Cl  923   6.057   3.106   6.779  0.1997  0.2887  0.1971
  732MOL0     C  924   5.476   2.239   6.851  0.2128 -0.3017 -0.5412
  732MOL0     C  925   5.450   2.144   6.948  0.3933 -0.3013 -0.1837
  732MOL0     O  926   5.376   2.185   7.317  0.3102  0.3494 -0.4655
  732MOL0     C  927   5.418   1.833   7.325  0.0132 -0.3872  0.1975
  732MOL0     C  928   5.388   1.711   7.391  0.3724 -0.6684  1.0265
  732MOL0     N  929   4.739   1.422   7.889  0.1344 -0.3811  0.3362
  732MOL0     N  930   4.642   1.384   7.969  0.2931  0.4161 -0.3564
  732MOL0     C  931   4.765   1.158   8.368  0.2465 -0.6325  0.5206
  732MOL0     C  932   4.902   1.181   8.338  0.1642  0.3084  0.6858
  732MOL0     C  933   5.325   1.245   8.345 -0.2154  0.0776 -0.5425
  732MOL0     C  934   5.377   1.330   8.245 -0.4736  0.5491  0.1902
  732MOL0     C  935   5.511   1.305   8.194  0.3370 -0.3476 -0.5685
  732MOL0     C  936   5.585   1.201   8.255 -0.1624  0.6725 -0.1442
  732MOL0     O  937   5.710   1.162   8.215  0.9954 -0.1020 -0.0961
  732MOL0     C  938   5.780   1.262   8.147  0.8449  0.0903  0.4260
  732MOL0     C  939   5.921   1.220   8.153  0.8245  0.0181 -0.2314
  732MOL0     C  940   5.971   1.155   8.021  0.0763  0.8136  0.0284
  732MOL0     C  941   6.050   1.022   8.051 -0.6153  0.3166 -0.6896
  732MOL0     C  942   6.182   1.051   8.106 -0.8897 -0.0223  0.2632
  732MOL0     C  943   6.298   1.074   8.153  0.4006 -1.1149  0.5472
  732MOL0     C  944   5.531   1.111   8.342 -1.0298 -0.9124  0.7007
  732MOL0     C  945   5.409   1.138   8.394 -0.0910  0.5783 -0.3640
  732MOL0     C  946   5.372   1.048   8.514 -0.4919  0.4432 -0.5047
  732MOL0     H  947   4.924   1.505   8.435 -0.8072 -0.7416  4.0940
  732MOL0     H  948   4.688   1.452   8.508 -1.1972  1.2835 -3.6399
  732MOL0     H  949   4.528   1.120   8.609 -2.2620  1.9100  1.4158
  732MOL0     H  950   4.528   1.060   8.446  0.5327 -0.5834  0.5780
  732MOL0     H  951   4.307   1.048   8.550 -2.0085  1.0491 -1.2421
  732MOL0     H  952   4.313   1.216   8.590  0.0226  0.3720 -0.8674
  732MOL0     H  953   4.146   1.146   8.429 -1.3277  3.6606  1.9369
  732MOL0     H  954   4.249   1.274   8.374  0.5742 -1.2155 -0.5529
  732MOL0     H  955   4.385   1.088   8.268  0.8142 -1.3942 -0.3504
  732MOL0     H  956   4.280   0.967   8.325 -0.2955  0.3237  1.6113
  732MOL0     H  957   4.106   1.066   8.157  0.5964 -2.4251  2.3890
  732MOL0     H  958   4.255   1.017   8.080  0.3085  0.7128 -0.2731
  732MOL0     H  959   4.161   1.230   7.998  1.3513 -4.2656 -1.8736
  732MOL0     H  960   4.200   1.315   8.139  2.2744  1.2583 -0.2180
  732MOL0     H  961   4.405   1.171   7.970 -0.9185 -0.2233  0.3754
  732MOL0     H  962   4.448   1.257   8.112 -0.2133  0.8076  0.9247
  732MOL0     H  963   4.306   1.378   7.873 -0.7825  0.8228  1.0477
  732MOL0     H  964   4.361   1.469   8.012 -0.9323 -0.2060 -0.7143
  732MOL0     H  965   4.488   1.418   7.675 -2.1333 -0.9794  1.1293
  732MOL0     H  966   4.742   1.570   7.593  0.2595 -1.1802 -3.8277
  732MOL0     H  967   4.778   1.408   7.556 -0.4188  3.3772 -3.8804
  732MOL0     H  968   4.917   1.596   7.765  0.3211  0.0486 -0.9108
  732MOL0     H  969   4.957   1.413   7.739 -0.3407 -0.6917 -1.2337
  732MOL0     H  970   5.000   1.496   7.506 -0.0598  1.9306 -2.1816
  732MOL0     H  971   4.974   1.660   7.561  2.0551  1.7594 -0.5977
  732MOL0     H  972   5.172   1.648   7.711  2.1350 -0.6093  0.8873
  732MOL0     H  973   5.168   1.470   7.699  2.5281  1.2851  2.6356
  732MOL0     H  974   5.104   1.828   7.549  2.2417 -2.2120  2.2716
  732MOL0     H  975   5.028   2.017   7.439  1.0090 -1.1492  0.7828
  732MOL0     H  976   5.140   2.128   7.358  0.3940 -0.0967 -0.3737
  732MOL0     H  977   5.149   2.108   7.537  1.9935 -0.4990  0.2618
  732MOL0     H  978   5.659   2.259   7.188  0.5595  0.7703  0.5981
  732MOL0     H  979   5.682   2.438   7.034  1.1923 -1.1836  1.2898
  732MOL0     H  980   5.727   2.442   6.629 -1.8900  2.7223  0.8454
  732MOL0     H  981   5.629   2.294   6.628  0.5460 -0.1391  0.7643
  732MOL0     H  982   5.493   2.424   6.482 -2.9294 -0.5076  0.9972
  732MOL0     H  983   5.440   2.493   6.632  0.9040 -1.7676  0.5304
  732MOL0     H  984   5.508   2.662   6.460  0.6590  1.0220 -0.3405
  732MOL0     H  985   5.675   2.620   6.476 -0.9702  1.1831 -2.1441
  732MOL0     H  986   5.686   2.674   6.709 -1.6052 -1.1669  1.5258
  732MOL0     H  987   5.517   2.700   6.723  0.7963  0.1568 -0.0188
  732MOL0     H  988   5.565   2.873   6.524  0.3758 -2.0650 -1.2843
  732MOL0     H  989   5.610   2.915   6.700 -0.8692  0.0544 -0.1701
  732MOL0     H  990   5.768   2.977   6.511 -2.0465  0.2144  1.6697
  732MOL0     H  991   5.824   2.806   6.536  0.6620  0.0089  0.7696
  732MOL0     H  992   5.861   2.870   6.782  0.0697  1.0040  0.0400
  732MOL0     H  993   5.789   3.020   6.742  1.2441 -0.0836  1.9182
  732MOL0     H  994   5.982   3.056   6.558  3.0234  0.6151 -0.0982
  732MOL0     H  995   6.053   2.918   6.619 -0.5570 -1.3109  0.2283
  732MOL0     H  996   5.433   2.221   6.753  0.4050 -0.8145 -0.5305
  732MOL0     H  997   5.392   2.055   6.925 -0.4250 -0.3300  1.8190
  732MOL0     H  998   5.507   1.821   7.264  1.0389 -3.8186  2.1372
  732MOL0     H  999   5.445   1.619   7.385  2.3864  0.4970  1.4091
  732MOL0     H 1000   4.735   1.066   8.319  0.8124  0.4689 -2.0393
  732MOL0     H 1001   4.968   1.110   8.290 -1.8696 -2.2293  1.4287
  732MOL0     H 1002   5.329   1.421   8.211  2.6612  2.3255  0.1423
  732MOL0     H 1003   5.561   1.373   8.125 -0.0333  0.5927  0.0635
  732MOL0     H 1004   5.755   1.286   8.043  0.0219 -3.6608 -0.3662
  732MOL0     H 1005   5.778   1.353   8.208  0.4621  1.2637 -1.2707
  732MOL0     H 1006   5.939   1.157   8.240  0.2672  3.2495  2.4283
  732MOL0     H 1007   5.977   1.311   8.175 -0.3226  0.2284  2.1191
  732MOL0     H 1008   5.888   1.122   7.958 -1.1203  1.9751  0.9532
  732MOL0     H 1009   6.016   1.233   7.959  0.0656 -0.3816 -1.5552
  732MOL0     H 1010   6.068   0.967   7.958 -0.9726 -2.3014  0.6797
  732MOL0     H 1011   6.004   0.945   8.114  2.5773 -0.8046  0.4893
  732MOL0     H 1012   6.386   1.111   8.200 -0.6960  2.8570 -0.1118
  732MOL0     H 1013   5.590   1.023   8.363  0.2858 -0.6656 -1.5920
  732MOL0     H 1014   5.369   1.097   8.612  2.5662  1.2583 -0.7464
  732MOL0     H 1015   5.276   0.996   8.503  0.0746 -0.9007  0.5144
  732MOL0     H 1016   5.444   0.967   8.526 -1.5582 -0.3157  1.3479
  733MOL0     O 1017   1.233  10.667   4.740  0.0630  0.4087  0.3370
  733MOL0     C 1018   1.185  10.602   4.645  0.8638  0.1430 -0.3118
  733MOL0     O 1019   1.185  10.463   4.629  0.0738 -0.7617  0.0706
  733MOL0     C 1020   1.246  10.389   4.730 -0.1702  0.0038 -0.3563
  733MOL0     C 1021   1.385  10.361   4.731 -0.4910  0.0266 -0.4005
  733MOL0     C 1022   1.450  10.275   4.822 -0.2145  0.5550  0.1563
  733MOL0     C 1023   1.375  10.226   4.931 -0.0521 -1.0361 -0.4024
  733MOL0     O 1024   1.438  10.130   5.015 -0.5597 -0.2944  0.2041
  733MOL0     C 1025   1.373  10.070   5.126 -0.2133  0.1149  0.4397
  733MOL0     C 1026   1.375  10.169   5.240 -0.3559 -1.0579 -0.0772
  733MOL0     C 1027   1.355  10.098   5.370  0.2476 -0.2830  0.3827
  733MOL0     C 1028   1.247  10.147   5.464  0.2640  0.6305  0.0895
  733MOL0     C 1029   1.282  10.295   5.501  0.4036 -0.1646  0.5428
  733MOL0     C 1030   1.177  10.356   5.600  0.2208 -0.2499  0.1495
  733MOL0     C 1031   1.032  10.342   5.546 -0.3491 -0.4518 -0.2976
  733MOL0     C 1032   0.924  10.433   5.621  0.0150 -0.2011 -0.4068
  733MOL0     N 1033   0.898  10.406   5.768 -0.0004 -0.1989  0.7309
  733MOL0     C 1034   0.881  10.286   5.832  0.0618  0.9051 -0.1371
  733MOL0     C 1035   0.877  10.316   5.968  0.4101 -0.2340  0.2657
  733MOL0     C 1036   0.835  10.223   6.085 -0.6546 -0.1271  1.3788
  733MOL0     C 1037   0.689  10.223   6.119  0.8193 -0.1941 -0.0923
  733MOL0     C 1038   0.606  10.183   5.995  0.6322  0.5879 -0.1963
  733MOL0     C 1039   0.461  10.200   6.021 -0.5491 -0.9120  0.3218
  733MOL0     O 1040   0.388  10.127   5.926 -0.2526 -0.8489  0.1596
  733MOL0     C 1041   0.261  10.158   5.905 -0.1031  0.2875 -0.0782
  733MOL0     C 1042   0.175  10.222   5.994  0.5193  0.1407 -0.4228
  733MOL0     C 1043   0.035  10.224   5.974 -0.5068 -0.0195  0.2163
  733MOL0     C 1044  -0.035  10.296   6.078  0.6585  0.8868 -0.3977
  733MOL0     C 1045  -0.025  10.168   5.860  0.2127 -0.9282  0.8358
  733MOL0     C 1046  -0.166  10.166   5.837 -0.2049  0.5173 -0.4790
  733MOL0     O 1047  -0.213  10.120   5.718 -0.7363 -0.2647  0.2180
  733MOL0     C 1048  -0.343  10.135   5.686  0.1175  0.4830  0.2693
  733MOL0     C 1049  -0.416  10.018   5.643 -0.0803 -0.2278 -0.3806
  733MOL0     C 1050  -0.522  10.029   5.554  0.0399 -0.0900 -0.3729
  733MOL0     C 1051  -0.575  10.152   5.525 -0.6438  0.3325  0.1848
  733MOL0     O 1052  -0.685  10.173   5.458 -0.8501  0.0333 -0.7161
  733MOL0     C 1053  -0.660  10.195   5.314  0.7266 -0.2590  0.2246
  733MOL0     C 1054  -0.741  10.322   5.273 -0.2146  0.3141  1.3982
  733MOL0     C 1055  -0.699  10.384   5.135  0.5429  0.6330 -0.2082
  733MOL0     C 1056  -0.742  10.294   5.012 -0.7127  0.3659  0.7939
  733MOL0     C 1057  -0.668  10.344   4.876 -0.4499  0.1486 -0.5991
  733MOL0     C 1058  -0.715  10.276   4.751 -0.2169  0.1966  0.4403
  733MOL0     C 1059  -0.841  10.322   4.683 -0.6997  1.2823  0.9649
  733MOL0     C 1060  -0.834  10.461   4.630  0.1334 -0.2632 -0.4040
  733MOL0    Cl 1061  -0.986  10.466   4.535  0.2685 -0.5748  0.0102
  733MOL0     C 1062  -0.508  10.267   5.574  0.5579  0.7278  0.3949
  733MOL0     C 1063  -0.401  10.257   5.663 -0.1927  1.0542  0.6440
  733MOL0     O 1064  -0.240  10.220   5.927  0.6780 -0.6049  1.1757
  733MOL0     C 1065   0.065  10.101   5.771  0.2573  0.4054  0.5381
  733MOL0     C 1066   0.202  10.099   5.789 -0.2288 -1.0890 -0.5854
  733MOL0     N 1067   0.882  10.456   5.975 -1.1177  0.0608  1.6086
  733MOL0     N 1068   0.899  10.512   5.857 -0.0182 -0.3964 -0.1662
  733MOL0     C 1069   1.236  10.254   4.931  0.8989  0.3202  1.1960
  733MOL0     C 1070   1.172  10.328   4.830  0.0994 -0.2993 -0.2798
  733MOL0     C 1071   1.114  10.678   4.540  0.1019 -0.4611 -0.6537
  733MOL0     C 1072   1.020  10.595   4.467 -0.3012  0.5085 -0.5336
  733MOL0     C 1073   0.950  10.641   4.358 -0.1298  0.5784 -0.3306
  733MOL0     C 1074   0.972  10.772   4.312 -0.8694  0.5770 -0.5512
  733MOL0     O 1075   0.901  10.816   4.198 -0.9626  0.2145 -0.6685
  733MOL0     C 1076   0.900  10.954   4.164  0.2998  0.8385  0.5659
  733MOL0     C 1077   0.753  10.967   4.105 -0.4253 -0.0586 -0.8119
  733MOL0     C 1078   0.699  11.107   4.113  0.9082  1.2026  0.0952
  733MOL0     C 1079   0.778  11.219   4.042 -0.4114 -0.2110 -0.0633
  733MOL0     C 1080   0.738  11.348   4.102 -0.3470 -0.1101  0.1464
  733MOL0     C 1081   0.711  11.453   4.153 -1.2106 -0.0667 -0.7011
  733MOL0     C 1082   1.068  10.852   4.377  0.5519  0.2707  0.2819
  733MOL0     C 1083   1.139  10.810   4.497  0.3816  0.8492 -0.3619
  733MOL0     C 1084   1.229  10.908   4.575  0.3921  0.5462  1.2437
  733MOL0     H 1085   1.441  10.414   4.654  0.1465  1.7341  1.1723
  733MOL0     H 1086   1.558  10.260   4.818 -0.7241 -4.5764 -2.0849
  733MOL0     H 1087   1.426   9.981   5.161 -0.8074 -0.7720 -0.8246
  733MOL0     H 1088   1.275  10.034   5.092 -0.5689  0.6170  0.9334
  733MOL0     H 1089   1.474  10.217   5.242  1.1570 -3.8595  3.6017
  733MOL0     H 1090   1.310  10.254   5.219  1.0356 -0.3838 -2.0680
  733MOL0     H 1091   1.326   9.993   5.361  4.0261 -1.3815 -1.2093
  733MOL0     H 1092   1.452  10.093   5.422  0.4441 -2.8264 -0.1002
  733MOL0     H 1093   1.155  10.138   5.405  1.4794  0.1171 -1.8202
  733MOL0     H 1094   1.237  10.083   5.552  2.5554 -1.1293 -0.8248
  733MOL0     H 1095   1.297  10.360   5.415  1.1050 -0.1375  0.6798
  733MOL0     H 1096   1.381  10.288   5.546  1.8202 -1.2966 -2.4430
  733MOL0     H 1097   1.185  10.304   5.696 -1.7434  2.4713  1.9091
  733MOL0     H 1098   1.212  10.459   5.605 -0.2339  0.0547 -1.9214
  733MOL0     H 1099   0.995  10.241   5.567  2.4822 -1.5477 -0.1433
  733MOL0     H 1100   1.030  10.366   5.440 -0.7063  3.9425  0.5288
  733MOL0     H 1101   0.962  10.535   5.611 -0.0878 -0.2734 -1.8310
  733MOL0     H 1102   0.830  10.429   5.564  0.5747  0.1935 -1.3970
  733MOL0     H 1103   0.848  10.192   5.791 -0.8157  0.8937  0.5467
  733MOL0     H 1104   0.901  10.248   6.168  2.3112 -0.0701 -0.8188
  733MOL0     H 1105   0.858  10.123   6.046 -0.4078  0.5822 -0.3527
  733MOL0     H 1106   0.660  10.162   6.204 -1.0114  1.9320  0.9116
  733MOL0     H 1107   0.668  10.326   6.151  2.3690  0.7072 -1.7390
  733MOL0     H 1108   0.631  10.242   5.906 -1.9569  2.2733  0.0895
  733MOL0     H 1109   0.615  10.077   5.971  0.5784  0.6498 -0.4856
  733MOL0     H 1110   0.430  10.163   6.120 -1.6447 -0.7447  0.0525
  733MOL0     H 1111   0.422  10.302   6.018  0.3668 -0.5823 -1.3244
  733MOL0     H 1112   0.221  10.253   6.087 -0.1744  0.2626 -0.1100
  733MOL0     H 1113  -0.099  10.376   6.039  0.6628  1.0313 -0.1119
  733MOL0     H 1114   0.029  10.354   6.144  2.7478 -0.0324 -1.5351
  733MOL0     H 1115  -0.091  10.219   6.133  2.0816  0.8945  1.1164
  733MOL0     H 1116  -0.391   9.915   5.666  1.8594  0.3700  0.4123
  733MOL0     H 1117  -0.577   9.938   5.532 -3.2817  1.3117  1.3181
  733MOL0     H 1118  -0.551  10.203   5.308  0.7782 -0.6016  0.6045
  733MOL0     H 1119  -0.699  10.115   5.251 -0.5835  2.3405 -2.4970
  733MOL0     H 1120  -0.843  10.286   5.260  0.3171 -0.1516 -2.7237
  733MOL0     H 1121  -0.724  10.405   5.342 -0.0085  1.8194 -0.3860
  733MOL0     H 1122  -0.590  10.381   5.132  0.5069  0.2370 -2.2692
  733MOL0     H 1123  -0.730  10.489   5.123 -0.8027  0.4636  1.3388
  733MOL0     H 1124  -0.849  10.300   4.992 -0.6069 -0.4600 -0.1041
  733MOL0     H 1125  -0.727  10.187   5.024 -2.3557  0.2845  2.5683
  733MOL0     H 1126  -0.678  10.452   4.869  0.0087  0.1126 -2.0880
  733MOL0     H 1127  -0.565  10.309   4.884 -0.6512 -0.7366 -1.6543
  733MOL0     H 1128  -0.723  10.170   4.773  0.3249  0.1539  0.4407
  733MOL0     H 1129  -0.633  10.279   4.678  2.4179 -4.2106  2.8104
  733MOL0     H 1130  -0.917  10.303   4.760 -0.7484 -2.2605  0.2105
  733MOL0     H 1131  -0.862  10.248   4.605  1.2398  0.7347  0.8874
  733MOL0     H 1132  -0.743  10.473   4.570  0.4788 -4.4402 -1.0341
  733MOL0     H 1133  -0.835  10.543   4.702 -0.7997  0.6522 -1.4266
  733MOL0     H 1134  -0.545  10.368   5.562 -1.4316  0.0565  0.4824
  733MOL0     H 1135  -0.353  10.346   5.701  3.7630  0.3803 -2.1401
  733MOL0     H 1136   0.038  10.049   5.679  2.5527  1.5328 -0.8405
  733MOL0     H 1137   0.266  10.050   5.716  0.4555 -1.2102  0.0780
  733MOL0     H 1138   1.177  10.210   5.010  0.0056 -0.1920  0.2774
  733MOL0     H 1139   1.064  10.343   4.833  0.2475  1.0225 -0.9495
  733MOL0     H 1140   0.981  10.497   4.489 -0.3976  0.6778  0.0636
  733MOL0     H 1141   0.875  10.581   4.309  0.7755 -0.1364 -0.8797
  733MOL0     H 1142   0.908  11.026   4.246  0.0284 -0.1960  1.5307
  733MOL0     H 1143   0.979  10.982   4.094  1.2670 -0.9471  0.8618
  733MOL0     H 1144   0.690  10.892   4.153  2.1296 -2.0342 -0.3320
  733MOL0     H 1145   0.755  10.950   3.997 -1.9245 -2.3856 -0.5452
  733MOL0     H 1146   0.603  11.096   4.063  1.1533  2.0872 -0.5872
  733MOL0     H 1147   0.677  11.118   4.219 -0.3693 -2.2674  0.3242
  733MOL0     H 1148   0.753  11.226   3.936  1.2872  1.1547 -0.4271
  733MOL0     H 1149   0.883  11.191   4.049 -0.8924 -1.9906  0.3733
  733MOL0     H 1150   0.694  11.553   4.186 -1.5097  0.5973 -2.7228
  733MOL0     H 1151   1.094  10.948   4.335  1.6538 -0.9228 -1.9491
  733MOL0     H 1152   1.229  11.000   4.516  2.6842 -0.5365 -0.6054
  733MOL0     H 1153   1.187  10.921   4.675 -2.2265 -1.7640  0.5677
  733MOL0     H 1154   1.332  10.874   4.586 -0.1892 -1.9618 -0.4205
  734MOL0     O 1155   5.453   7.641   7.677 -0.0969 -0.4906  0.2101
  734MOL0     C 1156   5.343   7.630   7.735  0.0640 -0.2101 -0.0815
  734MOL0     O 1157   5.264   7.733   7.791 -0.3220 -0.2722  0.2998
  734MOL0     C 1158   5.252   7.852   7.727  0.9481 -0.7177 -0.1976
  734MOL0     C 1159   5.172   7.937   7.800  0.3570  0.2785 -0.5016
  734MOL0     C 1160   5.144   8.063   7.754  0.9707 -0.1573  0.6566
  734MOL0     C 1161   5.202   8.117   7.638 -0.1654 -0.5247 -0.3684
  734MOL0     O 1162   5.186   8.245   7.592  0.1711  0.4678 -0.0336
  734MOL0     C 1163   5.053   8.291   7.573  1.5676 -0.6103  0.3567
  734MOL0     C 1164   5.021   8.314   7.419  0.3980  1.0599  0.4444
  734MOL0     C 1165   5.101   8.421   7.355  0.6371  0.1007 -0.0715
  734MOL0     C 1166   5.069   8.427   7.207  0.2871 -0.6581  0.5906
  734MOL0     C 1167   5.088   8.311   7.115  0.3764 -0.4407 -0.2070
  734MOL0     C 1168   5.224   8.241   7.130 -0.1461 -1.3126  0.3534
  734MOL0     C 1169   5.339   8.336   7.101 -1.5929  0.5869  0.0622
  734MOL0     C 1170   5.468   8.251   7.069  0.1546  0.8638  0.0823
  734MOL0     N 1171   5.529   8.186   7.182 -1.0663  0.7632 -0.4527
  734MOL0     C 1172   5.552   8.262   7.290 -0.4370 -0.3300 -0.1029
  734MOL0     C 1173   5.557   8.174   7.389 -0.5804  0.4051 -0.6649
  734MOL0     C 1174   5.591   8.200   7.529 -0.3999 -0.2743  0.3700
  734MOL0     C 1175   5.540   8.332   7.588  0.4024  0.3576  0.4457
  734MOL0     C 1176   5.621   8.360   7.708 -0.1375  1.0846 -0.9114
  734MOL0     C 1177   5.576   8.486   7.772 -0.1895  0.0856  0.6059
  734MOL0     O 1178   5.666   8.509   7.873  0.2292 -0.1341 -0.1058
  734MOL0     C 1179   5.659   8.620   7.950 -0.5380 -0.8081  0.6264
  734MOL0     C 1180   5.545   8.700   7.964 -0.2347 -0.0097  0.0642
  734MOL0     C 1181   5.530   8.811   8.045 -0.9046 -0.2641 -0.3915
  734MOL0     C 1182   5.402   8.888   8.030 -0.2331  0.0123 -0.3770
  734MOL0     C 1183   5.654   8.852   8.112 -0.4767 -0.5596  0.4824
  734MOL0     C 1184   5.662   8.962   8.207 -0.2969 -0.9233  0.1916
  734MOL0     O 1185   5.787   9.026   8.229  0.0052 -0.0313  0.4956
  734MOL0     C 1186   5.809   9.098   8.345  0.2475  0.0594 -0.6170
  734MOL0     C 1187   5.750   9.077   8.471 -0.6819  0.4367 -0.8735
  734MOL0     C 1188   5.792   9.161   8.581  0.7304 -0.2176 -0.6496
  734MOL0     C 1189   5.882   9.264   8.571 -0.3482  0.0492  0.2589
  734MOL0     O 1190   5.925   9.355   8.666 -0.0467 -0.2513  0.0789
  734MOL0     C 1191   6.029   9.308   8.751 -0.2580 -0.0672 -0.2914
  734MOL0     C 1192   6.090   9.431   8.817 -0.1185 -0.1668 -0.5471
  734MOL0     C 1193   6.174   9.414   8.952 -0.8646  0.8663  0.1806
  734MOL0     C 1194   6.092   9.330   9.058 -0.5019  1.6794  0.4366
  734MOL0     C 1195   6.159   9.334   9.192  0.7606  0.1652 -0.2924
  734MOL0     C 1196   6.074   9.257   9.300  0.8321  0.0212 -0.4077
  734MOL0     C 1197   6.177   9.223   9.418 -0.2314 -0.2852 -0.5253
  734MOL0     C 1198   6.113   9.126   9.518 -1.0841  0.1857 -0.7333
  734MOL0    Cl 1199   6.225   9.116   9.665  0.0007  0.0270  0.5840
  734MOL0     C 1200   5.946   9.268   8.447  0.4330 -1.2917 -1.2528
  734MOL0     C 1201   5.912   9.190   8.342 -0.5420  0.3245  0.2621
  734MOL0     O 1202   5.561   8.998   8.262  0.3882  0.3766  0.0423
  734MOL0     C 1203   5.773   8.781   8.085 -0.1474  0.8512 -0.7423
  734MOL0     C 1204   5.781   8.665   8.005 -0.8258 -0.2463  0.8320
  734MOL0     N 1205   5.545   8.041   7.339 -0.3509  0.7222 -0.6882
  734MOL0     N 1206   5.529   8.051   7.210  0.5144  0.0190  0.3455
  734MOL0     C 1207   5.275   8.025   7.562 -0.5137 -0.5668 -0.4494
  734MOL0     C 1208   5.292   7.895   7.605 -0.3791  0.0156 -0.4117
  734MOL0     C 1209   5.276   7.503   7.732 -0.1051 -0.9453  0.5589
  734MOL0     C 1210   5.133   7.500   7.713 -0.0679 -0.3170 -0.5382
  734MOL0     C 1211   5.072   7.375   7.705 -0.0874 -0.6269  0.0873
  734MOL0     C 1212   5.142   7.257   7.727  0.2195 -0.1543  0.1970
  734MOL0     O 1213   5.086   7.134   7.726  0.2302  0.0325  0.0267
  734MOL0     C 1214   4.998   7.103   7.843 -0.2470  0.0558 -0.5409
  734MOL0     C 1215   4.888   7.012   7.804  0.3732 -0.7932  0.2789
  734MOL0     C 1216   4.926   6.887   7.725 -0.9989  0.2764  0.2934
  734MOL0     C 1217   5.050   6.805   7.784 -0.4414 -0.8023  0.0995
  734MOL0     C 1218   5.021   6.779   7.924  0.6772 -0.1229  0.5508
  734MOL0     C 1219   4.985   6.776   8.040 -0.0494 -0.6032  0.1694
  734MOL0     C 1220   5.277   7.261   7.745  0.1733 -1.2189 -0.2886
  734MOL0     C 1221   5.349   7.381   7.746  0.1977 -1.0651 -0.1269
  734MOL0     C 1222   5.493   7.378   7.776  0.0058  0.3244  0.1359
  734MOL0     H 1223   5.146   7.915   7.903  0.2260 -1.4376 -0.8751
  734MOL0     H 1224   5.095   8.131   7.823 -0.0818  2.4548 -2.4005
  734MOL0     H 1225   5.041   8.385   7.628 -0.9943  0.1551 -1.3357
  734MOL0     H 1226   4.976   8.221   7.607  0.1146  0.6366 -0.2690
  734MOL0     H 1227   5.041   8.216   7.376 -0.0218  0.0170  2.4968
  734MOL0     H 1228   4.914   8.328   7.404  0.2579 -1.3030 -1.2008
  734MOL0     H 1229   5.091   8.520   7.400  1.2207 -0.2660  0.9127
  734MOL0     H 1230   5.204   8.383   7.362  0.1325 -1.6715 -1.5916
  734MOL0     H 1231   4.966   8.463   7.201  0.1075 -1.1459  0.6410
  734MOL0     H 1232   5.130   8.505   7.160 -1.0122  0.2973  0.4556
  734MOL0     H 1233   5.057   8.342   7.015 -3.1086 -0.5615  0.7054
  734MOL0     H 1234   5.013   8.237   7.144 -0.4669  0.4947  0.0345
  734MOL0     H 1235   5.232   8.203   7.232  1.1403 -1.8220  0.0770
  734MOL0     H 1236   5.249   8.158   7.063  4.4510 -2.0493  2.6057
  734MOL0     H 1237   5.363   8.395   7.189  0.9996  2.4232 -1.7169
  734MOL0     H 1238   5.322   8.392   7.009  2.2959  0.4660 -0.9149
  734MOL0     H 1239   5.453   8.184   6.984  2.1668  0.4009  0.0294
  734MOL0     H 1240   5.552   8.316   7.039  3.9340 -3.1187  0.9920
  734MOL0     H 1241   5.549   8.370   7.293 -0.1259 -0.2191 -1.9831
  734MOL0     H 1242   5.698   8.185   7.540 -0.5365 -0.7693  1.1226
  734MOL0     H 1243   5.545   8.124   7.594  1.0724 -0.2111  1.5321
  734MOL0     H 1244   5.558   8.411   7.515 -0.6352  0.6591  0.5059
  734MOL0     H 1245   5.435   8.331   7.617 -0.4467  3.0647 -2.0274
  734MOL0     H 1246   5.610   8.279   7.781 -0.6003  2.2535  0.3476
  734MOL0     H 1247   5.730   8.364   7.696  0.1676 -2.5058 -0.3934
  734MOL0     H 1248   5.585   8.569   7.701 -0.1285  1.5786  2.2800
  734MOL0     H 1249   5.474   8.480   7.810 -0.7316 -0.7177 -0.9088
  734MOL0     H 1250   5.460   8.680   7.900 -0.2708 -2.0615  0.6678
  734MOL0     H 1251   5.325   8.827   8.079  1.0725 -1.4491 -0.0647
  734MOL0     H 1252   5.387   8.903   7.923  0.0703  0.7120 -0.3284
  734MOL0     H 1253   5.398   8.985   8.081 -0.6712  1.9463 -3.8303
  734MOL0     H 1254   5.677   8.998   8.479  0.1087 -0.1559  1.2397
  734MOL0     H 1255   5.744   9.145   8.677  1.2786 -0.2457 -0.3793
  734MOL0     H 1256   5.995   9.244   8.833  2.2466 -2.1763 -0.7838
  734MOL0     H 1257   6.098   9.246   8.693  3.6385  1.8966  1.8362
  734MOL0     H 1258   6.157   9.488   8.752 -0.9999  3.0239  1.1566
  734MOL0     H 1259   6.008   9.497   8.845  0.7767 -0.3020  2.8601
  734MOL0     H 1260   6.193   9.509   9.002 -3.0039  0.5034  1.8384
  734MOL0     H 1261   6.273   9.373   8.928 -1.6867 -1.7668  0.9142
  734MOL0     H 1262   6.097   9.226   9.026  0.2569  2.1858 -1.2173
  734MOL0     H 1263   5.985   9.350   9.064 -0.7232  0.2093  2.3612
  734MOL0     H 1264   6.265   9.307   9.184  1.4421  0.5804  4.4498
  734MOL0     H 1265   6.164   9.441   9.214 -0.4658  0.4499 -1.3038
  734MOL0     H 1266   6.032   9.169   9.249  1.9932  0.2909 -1.8948
  734MOL0     H 1267   5.984   9.312   9.330 -1.0146 -1.5551 -2.6458
  734MOL0     H 1268   6.209   9.307   9.480 -0.2599 -2.2853  2.3753
  734MOL0     H 1269   6.266   9.181   9.371  0.0973  1.0279 -1.1118
  734MOL0     H 1270   6.109   9.026   9.474  0.1289 -0.1935 -0.0165
  734MOL0     H 1271   6.016   9.151   9.561  0.4819  2.1052  1.9982
  734MOL0     H 1272   6.020   9.346   8.429 -0.1568 -0.2243  0.7260
  734MOL0     H 1273   5.976   9.200   8.255  2.1861  0.3714  2.1220
  734MOL0     H 1274   5.864   8.819   8.128 -1.2141  3.6802 -0.8042
  734MOL0     H 1275   5.867   8.617   7.960 -1.3026 -0.6295  0.2979
  734MOL0     H 1276   5.320   8.054   7.468 -0.4304 -0.2309 -0.3066
  734MOL0     H 1277   5.360   7.832   7.549 -0.1027 -2.2418  2.2104
  734MOL0     H 1278   5.075   7.592   7.710 -1.2146 -1.0325 -1.2841
  734MOL0     H 1279   4.964   7.368   7.696  0.1456 -1.6677 -3.7940
  734MOL0     H 1280   5.065   7.047   7.909  1.0003 -1.2703 -2.7987
  734MOL0     H 1281   4.959   7.187   7.901 -1.6087 -0.0704 -1.2164
  734MOL0     H 1282   4.816   7.071   7.747 -0.4026 -3.3846 -1.6068
  734MOL0     H 1283   4.833   6.991   7.896  2.3765  0.7469  1.9454
  734MOL0     H 1284   4.837   6.824   7.721 -0.7429 -0.0298 -1.0757
  734MOL0     H 1285   4.952   6.916   7.623  1.2067 -0.8676  0.4689
  734MOL0     H 1286   5.150   6.849   7.774 -0.6208  0.1571  2.0231
  734MOL0     H 1287   5.058   6.712   7.727  1.0042 -0.0167 -1.0519
  734MOL0     H 1288   4.969   6.768   8.146  0.4885  0.3871  0.3416
  734MOL0     H 1289   5.340   7.173   7.752 -0.0305 -1.7060 -3.1897
  734MOL0     H 1290   5.518   7.278   7.813  1.7601 -0.9390 -3.9321
  734MOL0     H 1291   5.554   7.408   7.690 -1.2540  1.0941 -0.5085
  734MOL0     H 1292   5.513   7.449   7.858  0.1243 -0.3575  0.7031
  735MOL0     O 1293   5.916   6.075   7.898 -0.8101  0.5183  0.4509
  735MOL0     C 1294   5.868   6.077   7.785 -0.4378  1.3163  0.5033
  735MOL0     O 1295   5.946   6.087   7.669  0.6089 -0.4910  0.4784
  735MOL0     C 1296   6.086   6.091   7.665 -0.6902  0.8106 -1.0318
  735MOL0     C 1297   6.174   6.122   7.770  0.0432 -0.5384  0.4209
  735MOL0     C 1298   6.319   6.131   7.749  0.3557  0.4924  0.6886
  735MOL0     C 1299   6.369   6.103   7.624 -0.0049  0.5746  0.3004
  735MOL0     O 1300   6.500   6.105   7.594  0.1793  0.4418 -0.0055
  735MOL0     C 1301   6.604   6.124   7.687 -0.3296  0.6608 -0.1002
  735MOL0     C 1302   6.742   6.116   7.610 -0.4693  1.2778  0.7025
  735MOL0     C 1303   6.768   5.963   7.581  0.2184 -0.9317  0.0418
  735MOL0     C 1304   6.915   5.949   7.546 -0.1734  0.1600  0.9557
  735MOL0     C 1305   6.940   5.853   7.431 -0.2335  0.6343 -0.4527
  735MOL0     C 1306   7.084   5.809   7.417 -0.2473  0.0640 -0.6671
  735MOL0     C 1307   7.167   5.874   7.304 -0.8504 -0.0651 -0.5321
  735MOL0     C 1308   7.315   5.834   7.310  0.7210  0.6374  0.0872
  735MOL0     N 1309   7.368   5.883   7.428  0.2258  0.5862  0.2493
  735MOL0     C 1310   7.403   6.014   7.451  0.4851 -0.7255 -0.1235
  735MOL0     C 1311   7.472   6.011   7.562 -0.0889 -0.1621  0.8690
  735MOL0     C 1312   7.526   6.132   7.636 -0.8160  0.0929 -0.5506
  735MOL0     C 1313   7.670   6.168   7.589 -0.3315 -0.9003  0.2002
  735MOL0     C 1314   7.681   6.257   7.464  0.4740 -0.0782 -0.3161
  735MOL0     C 1315   7.839   6.271   7.429  1.0072  0.3910 -0.7210
  735MOL0     O 1316   7.862   6.312   7.294 -0.2033  0.7812 -0.1310
  735MOL0     C 1317   7.847   6.436   7.249  0.2683 -1.0473 -0.7168
  735MOL0     C 1318   7.853   6.550   7.339  0.2489 -0.0025  0.3662
  735MOL0     C 1319   7.819   6.679   7.294  0.2329 -0.9876  0.1390
  735MOL0     C 1320   7.824   6.793   7.402 -0.5174  0.4552  0.8865
  735MOL0     C 1321   7.791   6.698   7.155 -0.9462  0.2729  0.7567
  735MOL0     C 1322   7.786   6.831   7.096 -0.3889 -0.8456  1.0822
  735MOL0     O 1323   7.892   6.851   7.004  0.1797 -0.2406 -0.6919
  735MOL0     C 1324   7.908   6.974   6.947  0.9528  0.0032  0.1803
  735MOL0     C 1325   8.031   7.038   6.959 -0.3945  0.2973 -0.0013
  735MOL0     C 1326   8.057   7.164   6.894 -0.3339  0.5989  0.8844
  735MOL0     C 1327   7.964   7.209   6.804  0.5476 -0.8266 -0.1625
  735MOL0     O 1328   7.989   7.325   6.732 -0.5281  0.2070 -0.1919
  735MOL0     C 1329   8.082   7.310   6.621  0.0757 -0.0090  0.4798
  735MOL0     C 1330   8.110   7.446   6.550  0.2089  0.3484  0.0086
  735MOL0     C 1331   7.998   7.509   6.455 -0.4125  0.4538 -0.5935
  735MOL0     C 1332   7.967   7.411   6.342  0.1755 -0.5924  0.9431
  735MOL0     C 1333   7.855   7.483   6.243  0.1863  0.4402 -0.4185
  735MOL0     C 1334   7.880   7.439   6.098  0.3136 -0.7522  0.1397
  735MOL0     C 1335   7.767   7.497   6.007 -0.6272 -0.1842 -0.5091
  735MOL0     C 1336   7.797   7.451   5.860  1.0180  0.3660 -0.2186
  735MOL0    Cl 1337   7.958   7.514   5.820  0.6024  0.1158  0.3190
  735MOL0     C 1338   7.839   7.154   6.785 -0.3612 -0.5875 -0.6829
  735MOL0     C 1339   7.812   7.035   6.855 -0.5912 -0.6104 -0.2631
  735MOL0     O 1340   7.711   6.922   7.136 -0.1059  0.7149 -0.1501
  735MOL0     C 1341   7.785   6.579   7.067 -0.4778 -0.5933 -0.3141
  735MOL0     C 1342   7.819   6.450   7.117  0.9359 -0.2720  0.8145
  735MOL0     N 1343   7.466   5.888   7.620 -0.8734 -0.6990 -0.4923
  735MOL0     N 1344   7.403   5.816   7.535 -1.0102  0.0608 -0.6754
  735MOL0     C 1345   6.280   6.061   7.516 -1.1045 -0.5823  0.1161
  735MOL0     C 1346   6.139   6.055   7.537  0.9128  0.2359 -0.5887
  735MOL0     C 1347   5.725   6.074   7.753  1.0599 -0.3499 -0.5664
  735MOL0     C 1348   5.671   6.167   7.661  0.5158 -0.4273 -0.1675
  735MOL0     C 1349   5.544   6.141   7.605  0.4061  0.3840 -0.1170
  735MOL0     C 1350   5.455   6.049   7.663 -0.1012 -0.4063  0.2992
  735MOL0     O 1351   5.327   6.044   7.619  0.4828  0.3542  0.0820
  735MOL0     C 1352   5.233   5.945   7.654  0.1496  0.5488  0.3291
  735MOL0     C 1353   5.095   5.972   7.597 -0.9908  0.2259 -0.8652
  735MOL0     C 1354   4.998   5.868   7.623 -0.1038  1.3302 -0.2178
  735MOL0     C 1355   4.869   5.891   7.552  0.7116 -1.2193  0.2010
  735MOL0     C 1356   4.753   5.791   7.566 -0.2926 -0.5017  0.4116
  735MOL0     C 1357   4.656   5.713   7.564 -0.0958 -0.1012  0.3585
  735MOL0     C 1358   5.508   5.962   7.767  1.5269 -0.1938  0.1121
  735MOL0     C 1359   5.640   5.976   7.817  0.1065  0.6356  0.8049
  735MOL0     C 1360   5.687   5.880   7.922 -0.4013  0.0824  0.0057
  735MOL0     H 1361   6.135   6.151   7.867 -3.2860  1.0816 -1.2106
  735MOL0     H 1362   6.380   6.154   7.836 -2.2193 -1.8390  3.3202
  735MOL0     H 1363   6.611   6.046   7.764  0.7321  1.3666  0.5458
  735MOL0     H 1364   6.593   6.226   7.725  0.3723  0.3190  1.0843
  735MOL0     H 1365   6.757   6.173   7.518  2.6821 -1.3317 -0.6334
  735MOL0     H 1366   6.819   6.165   7.671 -1.3802  2.1010  1.2135
  735MOL0     H 1367   6.748   5.908   7.673 -0.1978  1.8097  1.6868
  735MOL0     H 1368   6.709   5.925   7.496  0.8252 -1.1005 -0.3149
  735MOL0     H 1369   6.961   6.042   7.511  0.2050 -0.1164  0.7030
  735MOL0     H 1370   6.964   5.908   7.635  0.3057 -0.6323  0.3441
  735MOL0     H 1371   6.910   5.900   7.337 -1.0305  1.8671  0.3894
  735MOL0     H 1372   6.876   5.765   7.445 -1.9345  1.4208 -2.6979
  735MOL0     H 1373   7.136   5.807   7.513 -1.5874  2.2311  0.1635
  735MOL0     H 1374   7.095   5.702   7.393  3.7750  0.6038 -1.9824
  735MOL0     H 1375   7.165   5.983   7.308 -0.6201 -0.0760  2.8839
  735MOL0     H 1376   7.131   5.855   7.202  2.9612  2.5471 -2.5901
  735MOL0     H 1377   7.323   5.725   7.308 -1.0026  0.4814  0.6112
  735MOL0     H 1378   7.367   5.871   7.221 -0.8110  2.2327 -0.2101
  735MOL0     H 1379   7.380   6.096   7.384 -2.0368  0.0397  1.5301
  735MOL0     H 1380   7.530   6.111   7.743 -0.6457 -1.6248 -0.8641
  735MOL0     H 1381   7.457   6.215   7.615 -3.2223 -1.7748 -0.4442
  735MOL0     H 1382   7.732   6.213   7.666  1.9607 -3.9368  0.3184
  735MOL0     H 1383   7.731   6.079   7.570 -0.5358 -1.5041  2.1240
  735MOL0     H 1384   7.625   6.202   7.387  0.1930  0.9446 -0.8539
  735MOL0     H 1385   7.647   6.360   7.478 -0.3474 -0.5329  1.2035
  735MOL0     H 1386   7.890   6.328   7.508  1.4602  1.1939 -1.5807
  735MOL0     H 1387   7.875   6.168   7.433 -1.5368 -0.5672  2.4769
  735MOL0     H 1388   7.855   6.539   7.447 -3.4676  0.3356  0.6098
  735MOL0     H 1389   7.924   6.839   7.397 -0.1292 -0.3244  1.3808
  735MOL0     H 1390   7.807   6.752   7.501 -1.0128 -1.6897 -0.0301
  735MOL0     H 1391   7.747   6.868   7.383 -1.3770  0.1373  2.8888
  735MOL0     H 1392   8.106   6.984   7.017 -0.7993  0.6062  0.8357
  735MOL0     H 1393   8.149   7.217   6.917 -2.1579  2.3562  5.1075
  735MOL0     H 1394   8.179   7.267   6.644  0.3660  0.8518  0.9217
  735MOL0     H 1395   8.036   7.238   6.552  3.2731 -2.3990  0.6145
  735MOL0     H 1396   8.140   7.531   6.612 -3.5788  1.9239 -0.0886
  735MOL0     H 1397   8.197   7.424   6.486 -0.0772 -0.5644 -0.0732
  735MOL0     H 1398   8.042   7.597   6.408  1.5464 -0.3192 -0.3157
  735MOL0     H 1399   7.906   7.542   6.504 -1.6488  0.3991 -2.7902
  735MOL0     H 1400   7.930   7.313   6.374  2.4452 -1.2054  1.8239
  735MOL0     H 1401   8.055   7.396   6.280 -1.6493 -0.3369 -1.8922
  735MOL0     H 1402   7.757   7.465   6.288 -1.5714  4.2401 -2.2194
  735MOL0     H 1403   7.872   7.591   6.257  1.0429  1.0186 -4.7036
  735MOL0     H 1404   7.875   7.330   6.090  4.1237 -1.3124  2.6251
  735MOL0     H 1405   7.975   7.483   6.069 -0.5514  0.0558 -1.5976
  735MOL0     H 1406   7.754   7.606   6.015 -1.3115 -0.3625  1.3369
  735MOL0     H 1407   7.670   7.457   6.038 -1.0821  2.2407  1.6529
  735MOL0     H 1408   7.727   7.505   5.795  0.4330  1.9630  1.6450
  735MOL0     H 1409   7.784   7.343   5.846 -2.8390  0.3054  2.2543
  735MOL0     H 1410   7.759   7.208   6.734 -1.6748 -0.2266  1.6306
  735MOL0     H 1411   7.713   6.992   6.839  0.7319 -3.5093 -1.2834
  735MOL0     H 1412   7.770   6.582   6.960 -0.3337 -1.8262 -0.3817
  735MOL0     H 1413   7.818   6.358   7.059 -3.9083 -1.0281  1.6681
  735MOL0     H 1414   6.316   6.044   7.415  1.1799 -1.8966  1.0746
  735MOL0     H 1415   6.062   6.025   7.465 -1.1169  0.9954  1.1616
  735MOL0     H 1416   5.735   6.246   7.622 -0.5596  0.5095 -0.1069
  735MOL0     H 1417   5.512   6.204   7.523  2.9222 -0.6023 -1.9884
  735MOL0     H 1418   5.288   5.857   7.620  1.3289  0.7141  1.6851
  735MOL0     H 1419   5.229   5.930   7.762 -1.2678 -1.3987  0.0425
  735MOL0     H 1420   5.111   5.972   7.489 -1.8220 -0.3611 -1.0074
  735MOL0     H 1421   5.051   6.062   7.641  0.8167  0.0927  1.4192
  735MOL0     H 1422   5.047   5.776   7.589 -0.8802  0.4876  0.8558
  735MOL0     H 1423   4.982   5.862   7.731 -2.4709 -0.9752 -0.5834
  735MOL0     H 1424   4.888   5.916   7.447 -0.7933  0.0263  0.1884
  735MOL0     H 1425   4.831   5.985   7.593  0.5073 -0.4304 -1.6910
  735MOL0     H 1426   4.577   5.641   7.575  0.4468 -0.6852  0.4894
  735MOL0     H 1427   5.441   5.883   7.799 -0.2342  1.0125 -0.4566
  735MOL0     H 1428   5.618   5.795   7.934  0.3084 -0.3034  1.6178
  735MOL0     H 1429   5.787   5.850   7.891 -0.1456 -0.6259  1.4115
  735MOL0     H 1430   5.693   5.932   8.018  0.0764 -2.5240  1.5092
  736MOL0     O 1431   6.121   9.368   5.283  0.3544  0.8400 -0.0378
  736MOL0     C 1432   6.030   9.438   5.240 -0.1088  0.4434 -0.0209
  736MOL0     O 1433   6.053   9.557   5.168 -0.5076  0.6508 -0.4853
  736MOL0     C 1434   6.184   9.581   5.151  0.7087  0.5401 -0.1562
  736MOL0     C 1435   6.271   9.500   5.069  0.3849  0.4581  0.3616
  736MOL0     C 1436   6.405   9.520   5.074 -0.5228  0.0885 -0.0552
  736MOL0     C 1437   6.465   9.611   5.163  0.1264  0.1196 -0.3688
  736MOL0     O 1438   6.606   9.615   5.169  0.7658  0.6464  0.8199
  736MOL0     C 1439   6.679   9.634   5.293 -0.4526 -0.1111 -0.7898
  736MOL0     C 1440   6.809   9.569   5.280 -0.1870  0.5762 -0.5360
  736MOL0     C 1441   6.909   9.628   5.182 -0.3252 -0.6005 -0.4676
  736MOL0     C 1442   7.043   9.541   5.180 -0.6816 -0.1458  0.0390
  736MOL0     C 1443   7.163   9.612   5.122  0.1191 -0.4967  0.5566
  736MOL0     C 1444   7.209   9.723   5.219 -1.1383 -0.1928  0.0369
  736MOL0     C 1445   7.310   9.825   5.152  0.2553 -0.6195 -0.7757
  736MOL0     C 1446   7.393   9.901   5.263  0.3750  0.2503  0.9704
  736MOL0     N 1447   7.512   9.964   5.210 -0.2611 -0.1275 -0.1691
  736MOL0     C 1448   7.638   9.899   5.198  0.2362 -0.1842 -0.6109
  736MOL0     C 1449   7.714   9.977   5.119  0.5105  0.2711  0.1015
  736MOL0     C 1450   7.858   9.965   5.078 -0.2367 -0.4787  0.0620
  736MOL0     C 1451   7.866   9.899   4.940 -0.2400 -0.8621 -0.4874
  736MOL0     C 1452   8.013   9.895   4.903 -0.3566 -0.1931 -0.0036
  736MOL0     C 1453   8.027   9.887   4.749  0.2406  0.0902 -0.4791
  736MOL0     O 1454   8.148   9.832   4.711  0.0975 -0.8373 -0.0944
  736MOL0     C 1455   8.252   9.914   4.737 -0.2782  0.7188  0.2766
  736MOL0     C 1456   8.290  10.008   4.650 -0.7300  0.7253 -0.4898
  736MOL0     C 1457   8.402  10.087   4.664 -0.2202 -0.6600  1.1295
  736MOL0     C 1458   8.445  10.178   4.550  0.4908 -0.4208 -0.2123
  736MOL0     C 1459   8.494  10.048   4.767 -0.5175  0.3005 -0.3390
  736MOL0     C 1460   8.627  10.119   4.776  0.9352  0.6820  0.2236
  736MOL0     O 1461   8.730  10.037   4.811  0.0180 -0.6440 -0.4426
  736MOL0     C 1462   8.847  10.096   4.846 -0.7146 -0.3694  0.4843
  736MOL0     C 1463   8.936  10.146   4.754 -0.2341  0.2207 -1.0238
  736MOL0     C 1464   9.061  10.189   4.794  0.1579  0.8466  0.2626
  736MOL0     C 1465   9.079  10.222   4.930 -0.0996 -0.4177 -0.2510
  736MOL0     O 1466   9.202  10.274   4.959 -0.0368 -0.0401  0.4209
  736MOL0     C 1467   9.221  10.340   5.089 -0.0496 -0.1826  0.0634
  736MOL0     C 1468   9.302  10.472   5.088  0.0160  0.0902  0.5356
  736MOL0     C 1469   9.330  10.514   5.234 -0.7727 -0.0014 -0.5599
  736MOL0     C 1470   9.457  10.427   5.284 -0.6794  0.2800 -0.4684
  736MOL0     C 1471   9.480  10.422   5.435  0.1532 -0.1717  0.1278
  736MOL0     C 1472   9.357  10.366   5.511 -0.2048  0.4739 -0.2094
  736MOL0     C 1473   9.390  10.354   5.658  0.8990 -0.8468  1.0905
  736MOL0     C 1474   9.271  10.316   5.743  0.6028 -0.3605  0.3286
  736MOL0    Cl 1475   9.131  10.441   5.741  0.1442  0.2407  0.1391
  736MOL0     C 1476   8.978  10.188   5.025  0.5721 -0.4690  0.3012
  736MOL0     C 1477   8.859  10.124   4.978 -0.3667 -0.1348 -0.6509
  736MOL0     O 1478   8.629  10.238   4.759  0.3322  0.0623  0.2946
  736MOL0     C 1479   8.457   9.950   4.868  0.5262  0.4458 -0.1798
  736MOL0     C 1480   8.336   9.882   4.843 -0.0230  0.5229  0.2234
  736MOL0     N 1481   7.637  10.092   5.101  0.1386  0.2431 -0.1939
  736MOL0     N 1482   7.520  10.086   5.147  0.4792  0.5275 -0.5052
  736MOL0     C 1483   6.382   9.685   5.247 -0.0144 -0.3820  0.0338
  736MOL0     C 1484   6.240   9.672   5.235 -0.5569 -0.2705 -0.7464
  736MOL0     C 1485   5.893   9.439   5.294  0.2124 -0.4535  0.1471
  736MOL0     C 1486   5.803   9.551   5.260 -0.1198  0.1408  0.4417
  736MOL0     C 1487   5.673   9.550   5.303 -0.5205 -0.8626  0.2641
  736MOL0     C 1488   5.617   9.454   5.370  0.4407 -0.5098  0.2687
  736MOL0     O 1489   5.483   9.454   5.398 -0.1120  0.1623  0.1770
  736MOL0     C 1490   5.386   9.495   5.298  0.7898 -0.1447  0.3404
  736MOL0     C 1491   5.242   9.464   5.355 -0.0888  0.1325 -0.6129
  736MOL0     C 1492   5.132   9.519   5.263  0.0166 -0.3524 -0.3928
  736MOL0     C 1493   4.995   9.466   5.315  0.1974  0.2831 -0.3628
  736MOL0     C 1494   4.965   9.532   5.442  0.0665 -0.3332  0.3286
  736MOL0     C 1495   4.933   9.601   5.540  0.3594 -0.1462  0.6163
  736MOL0     C 1496   5.696   9.348   5.416 -0.3134 -0.7294  0.7554
  736MOL0     C 1497   5.833   9.340   5.371 -0.5430 -0.5967  0.3371
  736MOL0     C 1498   5.907   9.211   5.405 -0.6118  0.1238 -0.1093
  736MOL0     H 1499   6.229   9.425   5.004  1.0439  0.9751 -0.6842
  736MOL0     H 1500   6.470   9.469   5.003  2.2628  0.4053  2.0967
  736MOL0     H 1501   6.632   9.594   5.383 -1.7546 -0.8405 -1.7670
  736MOL0     H 1502   6.708   9.740   5.290  1.4384 -0.5057  1.6361
  736MOL0     H 1503   6.862   9.556   5.375  3.7186 -1.1669 -2.6794
  736MOL0     H 1504   6.780   9.470   5.244 -2.4303  1.2295 -0.6489
  736MOL0     H 1505   6.865   9.636   5.082  1.2891  0.2835 -1.1456
  736MOL0     H 1506   6.919   9.733   5.208 -0.5382 -1.2804  2.7329
  736MOL0     H 1507   7.077   9.518   5.282 -0.9011 -2.2231 -0.3249
  736MOL0     H 1508   7.030   9.444   5.133 -0.4258 -1.5358  2.6371
  736MOL0     H 1509   7.125   9.657   5.030  3.3256 -0.1729 -0.7291
  736MOL0     H 1510   7.245   9.544   5.096  1.0459  0.4874  0.8272
  736MOL0     H 1511   7.123   9.781   5.252  0.4045  2.2636  0.0168
  736MOL0     H 1512   7.262   9.686   5.308 -0.6627  1.9399  0.7022
  736MOL0     H 1513   7.252   9.899   5.097  2.4939 -0.7852 -3.5932
  736MOL0     H 1514   7.388   9.778   5.091  0.3834 -1.7968  0.2363
  736MOL0     H 1515   7.324   9.982   5.290 -2.1660 -0.3901 -2.9061
  736MOL0     H 1516   7.410   9.835   5.348 -0.9319 -1.6890 -0.2039
  736MOL0     H 1517   7.670   9.807   5.245  2.0290  1.1257  0.8883
  736MOL0     H 1518   7.914   9.910   5.154 -1.1600  1.3347  2.1775
  736MOL0     H 1519   7.892  10.068   5.064 -1.3917 -0.1519 -0.4545
  736MOL0     H 1520   7.823   9.798   4.947 -0.2148 -0.8483 -0.1179
  736MOL0     H 1521   7.812   9.967   4.874 -0.5670 -0.9768 -0.3448
  736MOL0     H 1522   8.059   9.988   4.937 -0.0203 -0.7549  1.1133
  736MOL0     H 1523   8.062   9.816   4.959 -1.7199 -0.1489  1.3158
  736MOL0     H 1524   7.943   9.833   4.705 -0.4711  0.0949  0.8312
  736MOL0     H 1525   8.022   9.982   4.696  0.9588 -0.0753 -0.8522
  736MOL0     H 1526   8.238  10.038   4.560  0.3388  3.2434 -0.3545
  736MOL0     H 1527   8.536  10.145   4.499 -1.1399 -1.1639 -2.8447
  736MOL0     H 1528   8.451  10.284   4.576  1.6734 -0.5070 -0.0890
  736MOL0     H 1529   8.375  10.172   4.466  1.1223  1.4645 -0.9300
  736MOL0     H 1530   8.900  10.154   4.652 -0.0879  0.1833 -1.0774
  736MOL0     H 1531   9.141  10.213   4.725  0.1018 -0.0683 -0.1258
  736MOL0     H 1532   9.126  10.365   5.137  0.1468 -2.3596  1.7991
  736MOL0     H 1533   9.290  10.270   5.137  2.3131 -1.4003 -4.5718
  736MOL0     H 1534   9.397  10.453   5.037 -1.3310  0.8430 -2.4877
  736MOL0     H 1535   9.243  10.550   5.037 -0.5278  0.5306  1.7934
  736MOL0     H 1536   9.247  10.500   5.303 -0.5776  4.0460  0.7903
  736MOL0     H 1537   9.355  10.621   5.230 -0.9424  0.0089 -1.7646
  736MOL0     H 1538   9.549  10.466   5.240 -1.0922 -0.2525 -1.8668
  736MOL0     H 1539   9.455  10.322   5.256  4.3523 -1.0137  2.7793
  736MOL0     H 1540   9.565  10.356   5.457 -0.3654 -1.2096 -0.8796
  736MOL0     H 1541   9.516  10.520   5.468 -0.2475  0.3347 -0.9209
  736MOL0     H 1542   9.314  10.273   5.472 -2.0513  1.1911  0.0006
  736MOL0     H 1543   9.273  10.436   5.505 -1.4106 -0.7516  1.2551
  736MOL0     H 1544   9.414  10.451   5.703 -0.2722  0.2458 -0.5479
  736MOL0     H 1545   9.468  10.278   5.671  1.3367 -0.4750  0.6977
  736MOL0     H 1546   9.294  10.301   5.849  1.7171 -2.0198 -0.0985
  736MOL0     H 1547   9.232  10.219   5.709 -0.3628  0.3186 -0.5629
  736MOL0     H 1548   8.993  10.214   5.130  0.9623  0.8894 -0.0721
  736MOL0     H 1549   8.780  10.087   5.042  0.7204  1.7364  1.9379
  736MOL0     H 1550   8.525   9.912   4.944 -0.4240 -2.8540 -0.8214
  736MOL0     H 1551   8.314   9.801   4.912  0.3295  1.9215  2.0619
  736MOL0     H 1552   6.425   9.764   5.308 -3.1981  2.7083 -1.3855
  736MOL0     H 1553   6.177   9.731   5.301  1.6481  2.8322 -1.1979
  736MOL0     H 1554   5.827   9.644   5.209  1.1595  0.3538  1.3600
  736MOL0     H 1555   5.618   9.642   5.289  0.9829  0.7515  3.7868
  736MOL0     H 1556   5.404   9.602   5.288 -1.2207  0.6365  3.6606
  736MOL0     H 1557   5.396   9.432   5.209 -1.6313  3.0955 -2.4557
  736MOL0     H 1558   5.232   9.515   5.450  2.9736 -4.5521  2.7122
  736MOL0     H 1559   5.232   9.360   5.387 -2.7196  0.0232 -1.5835
  736MOL0     H 1560   5.135   9.627   5.274  1.3512 -0.2500 -1.4263
  736MOL0     H 1561   5.135   9.497   5.155 -1.8171  3.9342 -1.5111
  736MOL0     H 1562   4.995   9.358   5.326  3.5954  0.2635  0.3458
  736MOL0     H 1563   4.914   9.499   5.248 -1.5320 -0.7066  1.1384
  736MOL0     H 1564   4.917   9.667   5.624 -1.0561 -1.0357  1.0649
  736MOL0     H 1565   5.643   9.278   5.480  0.2340 -1.7714  0.0981
  736MOL0     H 1566   5.985   9.225   5.480  0.2393 -2.5173 -0.3988
  736MOL0     H 1567   5.839   9.133   5.442 -0.6016 -0.9438 -2.1790
  736MOL0     H 1568   5.965   9.170   5.322  0.3271 -0.6650  0.9049
  737MOL0     O 1569   8.716   6.031   1.253 -0.4877 -0.4875  0.1723
  737MOL0     C 1570   8.714   5.926   1.322  0.2442 -0.3449  0.3300
  737MOL0     O 1571   8.606   5.884   1.405  0.0405 -0.1849 -0.2247
  737MOL0     C 1572   8.472   5.888   1.376 -0.3374 -0.4314 -0.1591
  737MOL0     C 1573   8.416   5.858   1.257  0.5287  0.9117  0.1855
  737MOL0     C 1574   8.282   5.884   1.233  0.3294  0.2719  0.4838
  737MOL0     C 1575   8.200   5.935   1.335 -0.5756 -0.1940  0.3128
  737MOL0     O 1576   8.065   5.938   1.305  0.4656  0.6314 -0.7078
  737MOL0     C 1577   7.978   6.041   1.362 -0.7277  0.4147  0.4224
  737MOL0     C 1578   7.906   5.981   1.491 -0.9263 -0.3072  0.0696
  737MOL0     C 1579   7.767   5.926   1.451  0.1875  0.4763  0.5087
  737MOL0     C 1580   7.678   5.907   1.568  0.8794 -0.3834 -0.4306
  737MOL0     C 1581   7.532   5.888   1.536 -0.0995  0.5876 -0.6517
  737MOL0     C 1582   7.492   5.772   1.444 -0.9469  0.9993  0.4227
  737MOL0     C 1583   7.346   5.724   1.448 -0.1235 -0.0892 -0.5683
  737MOL0     C 1584   7.241   5.819   1.391 -0.9292 -0.3289 -0.4884
  737MOL0     N 1585   7.113   5.754   1.361 -0.0047 -0.0304 -1.0052
  737MOL0     C 1586   7.049   5.733   1.243  0.4277 -0.2723  0.7762
  737MOL0     C 1587   6.935   5.668   1.281  0.7212  0.8658  0.2817
  737MOL0     C 1588   6.831   5.610   1.184  0.5294 -0.1681 -0.4459
  737MOL0     C 1589   6.864   5.590   1.038 -1.0415 -0.2002  0.3514
  737MOL0     C 1590   6.735   5.577   0.938  0.1466  0.0254  0.7018
  737MOL0     C 1591   6.642   5.466   0.975  0.1079  0.4197 -0.4068
  737MOL0     O 1592   6.718   5.350   0.941  0.6045  0.2953 -0.9285
  737MOL0     C 1593   6.713   5.301   0.811 -0.1744 -0.5097 -0.6684
  737MOL0     C 1594   6.655   5.377   0.702 -0.6527 -0.4298  0.8298
  737MOL0     C 1595   6.645   5.322   0.573 -0.6293  0.0965 -0.0337
  737MOL0     C 1596   6.597   5.409   0.469 -0.3221 -0.1453  0.1699
  737MOL0     C 1597   6.687   5.186   0.558 -0.3515  0.2067 -0.4873
  737MOL0     C 1598   6.676   5.105   0.435  0.4763  1.2494  0.7120
  737MOL0     O 1599   6.774   5.008   0.402 -0.1447  0.9673  0.0696
  737MOL0     C 1600   6.755   4.915   0.292 -0.2099 -0.1690  0.0106
  737MOL0     C 1601   6.877   4.865   0.242 -0.2079 -0.2497 -0.3586
  737MOL0     C 1602   6.873   4.778   0.126 -0.2962 -0.2170  0.5491
  737MOL0     C 1603   6.749   4.748   0.066  0.2759 -0.7947  1.1141
  737MOL0     O 1604   6.737   4.662  -0.040 -0.3958  0.3369  0.7118
  737MOL0     C 1605   6.793   4.708  -0.165  0.0192  0.0125  0.0629
  737MOL0     C 1606   6.694   4.810  -0.237 -0.2013 -0.7146 -0.0396
  737MOL0     C 1607   6.716   4.803  -0.387 -0.7670 -0.3997 -1.0686
  737MOL0     C 1608   6.645   4.931  -0.452  0.0074 -0.4949 -0.5240
  737MOL0     C 1609   6.637   4.909  -0.602  0.9659 -0.0844  0.3222
  737MOL0     C 1610   6.781   4.882  -0.667  0.2425  0.0923 -0.5799
  737MOL0     C 1611   6.761   4.854  -0.827 -0.4771 -0.2427  0.0649
  737MOL0     C 1612   6.896   4.807  -0.885  0.2646 -0.6844  1.1215
  737MOL0    Cl 1613   6.908   4.805  -1.067 -0.0897  0.2362  0.3889
  737MOL0     C 1614   6.630   4.793   0.130  0.2535  0.3682 -0.5540
  737MOL0     C 1615   6.629   4.876   0.244 -0.4392  0.4985  0.0557
  737MOL0     O 1616   6.595   5.145   0.357  0.6213 -0.3264  1.0314
  737MOL0     C 1617   6.738   5.110   0.669  0.2688 -0.6331 -0.2428
  737MOL0     C 1618   6.743   5.167   0.798 -0.0321  0.9694  0.5827
  737MOL0     N 1619   6.943   5.639   1.409  0.4544 -0.4151  0.0454
  737MOL0     N 1620   7.054   5.686   1.460  0.1667  0.3009  0.9659
  737MOL0     C 1621   8.257   5.965   1.455  0.3815  0.2397 -0.7382
  737MOL0     C 1622   8.388   5.943   1.472  0.5787 -0.0383  0.3960
  737MOL0     C 1623   8.840   5.844   1.322 -0.3108  0.1744 -0.3416
  737MOL0     C 1624   8.863   5.753   1.427 -1.0280 -0.7313 -0.3004
  737MOL0     C 1625   8.974   5.668   1.426 -0.2341 -0.1067  1.1728
  737MOL0     C 1626   9.063   5.655   1.317 -0.6877  0.0163  0.6279
  737MOL0     O 1627   9.175   5.572   1.312  0.6978  0.2694 -0.6646
  737MOL0     C 1628   9.221   5.527   1.445 -0.3778 -0.4190  0.0470
  737MOL0     C 1629   9.149   5.387   1.460  0.0424  0.2405  0.6978
  737MOL0     C 1630   9.231   5.286   1.364 -0.7546 -0.1881  0.2238
  737MOL0     C 1631   9.162   5.212   1.248  0.3850  0.5046  0.2728
  737MOL0     C 1632   9.091   5.311   1.169 -0.0071 -0.0604 -0.4362
  737MOL0     C 1633   9.025   5.386   1.109  0.1350 -1.4999  0.1533
  737MOL0     C 1634   9.042   5.746   1.215 -0.1413  0.0215 -0.3134
  737MOL0     C 1635   8.937   5.843   1.220  1.0252  0.1274 -0.2151
  737MOL0     C 1636   8.938   5.934   1.103  0.4910 -0.1349  1.0698
  737MOL0     H 1637   8.474   5.821   1.174 -0.5792  1.2888 -0.7861
  737MOL0     H 1638   8.225   5.854   1.145 -1.2561 -0.9900  1.8677
  737MOL0     H 1639   7.905   6.067   1.285  0.1256 -3.1599 -1.8296
  737MOL0     H 1640   8.035   6.128   1.396 -1.1376  0.5090  0.8847
  737MOL0     H 1641   7.962   5.896   1.531  0.4808  2.2528  4.0395
  737MOL0     H 1642   7.906   6.051   1.574 -0.6265 -0.6837  0.3879
  737MOL0     H 1643   7.715   5.995   1.383 -0.5570 -1.9379 -1.5270
  737MOL0     H 1644   7.781   5.828   1.403 -0.4867  0.0633  1.1396
  737MOL0     H 1645   7.704   5.821   1.630 -1.4777  1.4070  3.3927
  737MOL0     H 1646   7.686   5.989   1.639  1.6135  1.3441 -2.3853
  737MOL0     H 1647   7.489   5.976   1.487 -2.9053 -0.8414 -0.9439
  737MOL0     H 1648   7.471   5.869   1.625 -0.5927  2.4387 -0.5423
  737MOL0     H 1649   7.506   5.809   1.342  0.6476  4.7258  1.8000
  737MOL0     H 1650   7.556   5.684   1.456 -0.4542  1.0084 -1.7740
  737MOL0     H 1651   7.327   5.693   1.552  2.5714  0.3905  0.1454
  737MOL0     H 1652   7.336   5.635   1.387 -0.9896  0.5928 -1.4510
  737MOL0     H 1653   7.229   5.908   1.454 -1.1963  0.7870 -2.0668
  737MOL0     H 1654   7.275   5.860   1.295 -1.2881  1.0963 -0.0391
  737MOL0     H 1655   7.068   5.777   1.145 -0.0136 -3.9010 -1.0989
  737MOL0     H 1656   6.753   5.686   1.186  2.1726  1.6016 -0.9768
  737MOL0     H 1657   6.790   5.511   1.209 -3.5689  1.2800 -0.7122
  737MOL0     H 1658   6.933   5.670   1.009 -0.7586  0.8958  3.6439
  737MOL0     H 1659   6.937   5.509   1.031  0.3722  1.0211  0.3463
  737MOL0     H 1660   6.673   5.666   0.953 -0.9276 -0.4120 -0.8523
  737MOL0     H 1661   6.764   5.581   0.832  0.3318  1.5746  0.7749
  737MOL0     H 1662   6.631   5.471   1.084  0.1486 -3.1228 -0.1293
  737MOL0     H 1663   6.540   5.452   0.939 -0.7823 -2.6296  2.7445
  737MOL0     H 1664   6.624   5.481   0.706 -1.7844 -0.6476 -1.1125
  737MOL0     H 1665   6.494   5.384   0.441 -0.4970  1.9752 -1.2972
  737MOL0     H 1666   6.667   5.395   0.386  1.0744 -0.5731  1.3772
  737MOL0     H 1667   6.602   5.513   0.502  0.4484 -0.6399  1.7181
  737MOL0     H 1668   6.973   4.878   0.291 -1.0798 -0.1213  1.3709
  737MOL0     H 1669   6.968   4.743   0.088 -0.2618  0.0047  0.4282
  737MOL0     H 1670   6.892   4.753  -0.160  0.6423 -1.4041  3.4305
  737MOL0     H 1671   6.809   4.614  -0.218  2.5869 -0.4968  1.6089
  737MOL0     H 1672   6.591   4.786  -0.209  0.6528 -0.6701  3.5875
  737MOL0     H 1673   6.722   4.907  -0.196 -1.1866 -0.8391  1.0044
  737MOL0     H 1674   6.666   4.712  -0.423  3.2136 -3.5043  0.3311
  737MOL0     H 1675   6.823   4.794  -0.411 -0.7032 -0.9434 -0.6240
  737MOL0     H 1676   6.703   5.021  -0.428 -1.0869 -0.1464  0.9861
  737MOL0     H 1677   6.542   4.944  -0.416 -0.7407 -3.8026 -1.2016
  737MOL0     H 1678   6.575   4.821  -0.624  1.3652  0.0614 -1.6198
  737MOL0     H 1679   6.589   4.992  -0.655  0.7630  0.6077  1.5509
  737MOL0     H 1680   6.834   4.797  -0.625 -3.3228 -1.6036  0.8500
  737MOL0     H 1681   6.844   4.971  -0.658 -0.8954  1.1894 -2.7086
  737MOL0     H 1682   6.735   4.949  -0.873 -0.2851  0.4828  1.3880
  737MOL0     H 1683   6.682   4.783  -0.855 -0.3702  0.8085 -3.2980
  737MOL0     H 1684   6.907   4.706  -0.843  1.2066 -2.4263 -2.7388
  737MOL0     H 1685   6.971   4.881  -0.858 -1.9638  2.2897 -0.2488
  737MOL0     H 1686   6.532   4.772   0.089 -0.8373  0.4330  1.8951
  737MOL0     H 1687   6.532   4.907   0.282  1.2910  2.2401  3.6340
  737MOL0     H 1688   6.779   5.010   0.657 -0.5970 -0.9415 -0.7093
  737MOL0     H 1689   6.779   5.106   0.880  3.2124  1.6009 -0.2424
  737MOL0     H 1690   8.208   6.009   1.541  2.7016 -0.0524  0.8452
  737MOL0     H 1691   8.431   5.966   1.569  2.3382  0.1734 -0.3916
  737MOL0     H 1692   8.790   5.746   1.507 -1.9207  0.3272 -0.9950
  737MOL0     H 1693   8.985   5.594   1.505 -0.7558 -2.3134 -0.7208
  737MOL0     H 1694   9.331   5.524   1.443 -0.2211  1.4220  1.8150
  737MOL0     H 1695   9.211   5.590   1.534 -0.7911 -0.4530  0.0254
  737MOL0     H 1696   9.048   5.379   1.421  0.3169 -2.8039  0.3347
  737MOL0     H 1697   9.166   5.344   1.560  3.6587 -0.4705 -0.0648
  737MOL0     H 1698   9.319   5.332   1.318 -2.3365 -1.2946 -4.4903
  737MOL0     H 1699   9.269   5.211   1.434  2.5627  1.4112  0.3354
  737MOL0     H 1700   9.084   5.143   1.283  1.1432 -1.8221 -2.1943
  737MOL0     H 1701   9.225   5.154   1.179 -0.1992  0.5784 -0.3311
  737MOL0     H 1702   8.971   5.451   1.044  1.9434  0.1427  0.1831
  737MOL0     H 1703   9.115   5.732   1.136 -0.3586  0.7276 -0.6467
  737MOL0     H 1704   8.995   6.022   1.132  5.2581 -2.8487  0.9602
  737MOL0     H 1705   8.992   5.884   1.021  1.5498 -2.1959  2.9158
  737MOL0     H 1706   8.839   5.955   1.061  0.2837  0.1331  1.6882
  738MOL0     O 1707   0.629   0.480   9.280 -1.0115 -0.2959 -0.5651
  738MOL0     C 1708   0.563   0.424   9.185 -0.3167 -0.1406  0.6125
  738MOL0     O 1709   0.615   0.367   9.079 -0.2872 -0.6872 -0.5967
  738MOL0     C 1710   0.754   0.372   9.066  0.1136  0.1994  0.5433
  738MOL0     C 1711   0.822   0.248   9.092  0.7429  0.2499  1.3656
  738MOL0     C 1712   0.958   0.240   9.086 -0.5391 -0.1145 -0.3317
  738MOL0     C 1713   1.035   0.353   9.062 -0.0450  0.1285  0.7224
  738MOL0     O 1714   1.170   0.330   9.064  0.7449 -0.5324 -0.5627
  738MOL0     C 1715   1.254   0.422   8.987 -0.0845  1.1517  0.2178
  738MOL0     C 1716   1.391   0.354   8.967  0.3127  0.2467 -0.5325
  738MOL0     C 1717   1.479   0.449   8.899  0.4318 -0.2675  0.3186
  738MOL0     C 1718   1.632   0.418   8.913  0.0761  1.2394 -0.0360
  738MOL0     C 1719   1.704   0.546   8.891 -0.7539 -0.5453  0.5204
  738MOL0     C 1720   1.856   0.538   8.915  0.2574 -0.4803  0.2690
  738MOL0     C 1721   1.918   0.679   8.880 -0.1361 -0.5773 -0.3133
  738MOL0     C 1722   2.057   0.706   8.939  0.2134  0.7569  0.7267
  738MOL0     N 1723   2.159   0.602   8.933  0.5336  0.4341 -0.9012
  738MOL0     C 1724   2.218   0.574   8.813 -0.4610 -0.0650  0.2753
  738MOL0     C 1725   2.293   0.466   8.837  0.1593  0.0476 -0.7540
  738MOL0     C 1726   2.409   0.425   8.751  0.1848  0.5928 -0.4463
  738MOL0     C 1727   2.361   0.308   8.658  0.5327 -0.1238 -0.8119
  738MOL0     C 1728   2.474   0.253   8.576 -0.2237  0.5649  0.6995
  738MOL0     C 1729   2.582   0.176   8.649 -0.0944 -0.8062 -0.8460
  738MOL0     O 1730   2.657   0.093   8.562 -0.2494 -0.0776  0.0928
  738MOL0     C 1731   2.778   0.044   8.596 -0.1444 -0.0447  0.0186
  738MOL0     C 1732   2.863   0.102   8.696  1.0323 -0.2113 -0.2163
  738MOL0     C 1733   2.997   0.052   8.717  0.6567 -0.5538 -0.0111
  738MOL0     C 1734   3.070   0.114   8.821 -0.5248 -0.1921 -0.0634
  738MOL0     C 1735   3.042  -0.049   8.634 -0.1862  0.2856  0.0472
  738MOL0     C 1736   3.179  -0.115   8.651 -0.1955 -0.3490  0.1398
  738MOL0     O 1737   3.259  -0.081   8.761 -0.2506 -0.1519  0.6367
  738MOL0     C 1738   3.388  -0.123   8.755 -0.5081 -0.4238 -0.1688
  738MOL0     C 1739   3.475  -0.126   8.646 -0.1856 -0.1034 -0.8257
  738MOL0     C 1740   3.601  -0.175   8.658  0.1209 -0.7427 -0.0123
  738MOL0     C 1741   3.640  -0.242   8.776  0.4003  0.9319  0.2466
  738MOL0     O 1742   3.775  -0.273   8.787  0.2316 -0.2078  0.5177
  738MOL0     C 1743   3.823  -0.340   8.908 -0.3510 -0.4207  0.4154
  738MOL0     C 1744   3.974  -0.321   8.903  0.0033  0.1580 -1.1365
  738MOL0     C 1745   4.046  -0.405   8.798 -0.3112 -0.1925 -0.0761
  738MOL0     C 1746   4.040  -0.552   8.830  0.3293 -0.3177  0.6231
  738MOL0     C 1747   4.146  -0.630   8.755 -0.4306 -0.5713  0.1498
  738MOL0     C 1748   4.102  -0.786   8.738  0.2099  0.1463  0.2342
  738MOL0     C 1749   4.176  -0.875   8.632 -0.7394  0.2485 -0.2256
  738MOL0     C 1750   4.327  -0.878   8.643 -0.5663 -0.0555  0.9694
  738MOL0    Cl 1751   4.378  -0.961   8.791 -0.0690  0.0030 -0.2712
  738MOL0     C 1752   3.551  -0.244   8.884 -0.2035  0.6532  0.0541
  738MOL0     C 1753   3.432  -0.187   8.873 -0.6872  0.1891  0.4031
  738MOL0     O 1754   3.207  -0.201   8.565  0.2547  0.0661 -0.7846
  738MOL0     C 1755   2.965  -0.087   8.524  0.1325  0.9950  0.7963
  738MOL0     C 1756   2.835  -0.044   8.505  0.5935 -0.6714  0.3362
  738MOL0     N 1757   2.276   0.425   8.975 -0.4317 -0.7350  0.7286
  738MOL0     N 1758   2.197   0.513   9.026  0.6667  0.4797  0.6020
  738MOL0     C 1759   0.969   0.474   9.037 -0.0695  0.4534  0.5802
  738MOL0     C 1760   0.830   0.480   9.026 -0.1745  0.3211 -0.4498
  738MOL0     C 1761   0.412   0.423   9.205  1.1242  1.0966 -0.1600
  738MOL0     C 1762   0.359   0.517   9.294 -0.2300 -0.0713  0.4663
  738MOL0     C 1763   0.231   0.509   9.330 -0.4340  0.0899 -0.6518
  738MOL0     C 1764   0.147   0.409   9.273  0.9197  0.1412  0.2610
  738MOL0     O 1765   0.013   0.401   9.296 -0.5720  0.5467  0.0501
  738MOL0     C 1766  -0.054   0.489   9.380 -0.1716  0.0539  0.7869
  738MOL0     C 1767  -0.195   0.448   9.372 -0.5002 -0.4704  1.0414
  738MOL0     C 1768  -0.278   0.492   9.243  0.6184  0.3049 -0.0823
  738MOL0     C 1769  -0.411   0.562   9.281 -0.6210 -0.1575  0.0995
  738MOL0     C 1770  -0.397   0.708   9.306  1.0510 -0.8889 -0.6689
  738MOL0     C 1771  -0.417   0.828   9.334  0.2605  0.1990  1.0365
  738MOL0     C 1772   0.189   0.311   9.175  0.4029  0.6046 -0.2235
  738MOL0     C 1773   0.324   0.320   9.142 -0.8774  0.4516 -0.8352
  738MOL0     C 1774   0.370   0.209   9.049  1.2505 -0.2404 -0.1527
  738MOL0     H 1775   0.772   0.156   9.118 -0.0512  0.6486  1.2634
  738MOL0     H 1776   1.008   0.144   9.076  1.1355  0.2244  3.3439
  738MOL0     H 1777   1.283   0.512   9.042 -0.2770 -0.0691  2.4253
  738MOL0     H 1778   1.207   0.456   8.894  1.0937  0.3652 -0.6919
  738MOL0     H 1779   1.436   0.321   9.062  3.7903  3.4173 -0.8570
  738MOL0     H 1780   1.368   0.270   8.901  1.5538 -1.3114  0.9120
  738MOL0     H 1781   1.453   0.466   8.794  2.1768  1.9571  0.1750
  738MOL0     H 1782   1.459   0.553   8.928 -1.3263 -0.3801 -0.3720
  738MOL0     H 1783   1.658   0.376   9.011  0.1655 -0.9525 -0.9307
  738MOL0     H 1784   1.679   0.349   8.843 -2.1049 -3.7422  2.8348
  738MOL0     H 1785   1.671   0.626   8.957  0.7223  0.7314 -0.2214
  738MOL0     H 1786   1.699   0.584   8.788  0.0571  0.0128  0.6795
  738MOL0     H 1787   1.882   0.497   9.013 -0.3018  2.4046  1.7378
  738MOL0     H 1788   1.891   0.465   8.842  1.1352 -0.5850  0.7821
  738MOL0     H 1789   1.845   0.753   8.915  1.1329  0.1337  0.9548
  738MOL0     H 1790   1.927   0.690   8.772  0.0175 -0.4406 -0.2862
  738MOL0     H 1791   2.105   0.784   8.880  1.9834 -0.3150  0.7085
  738MOL0     H 1792   2.036   0.737   9.042 -3.2049  1.2129  0.0106
  738MOL0     H 1793   2.228   0.619   8.714 -0.1571 -0.0320  0.3178
  738MOL0     H 1794   2.487   0.381   8.814 -1.8551  0.2000  1.9911
  738MOL0     H 1795   2.453   0.505   8.692  1.0455  0.3113 -0.1953
  738MOL0     H 1796   2.323   0.224   8.717  1.9062 -0.9954 -1.1275
  738MOL0     H 1797   2.282   0.340   8.589 -0.6662 -0.6251  0.2788
  738MOL0     H 1798   2.427   0.184   8.506 -2.1095  3.5309 -1.1951
  738MOL0     H 1799   2.518   0.334   8.517  1.2458  1.8175  3.3198
  738MOL0     H 1800   2.643   0.245   8.707 -0.0277 -1.0819 -0.5807
  738MOL0     H 1801   2.535   0.105   8.718 -1.6741 -0.3357 -1.3942
  738MOL0     H 1802   2.838   0.186   8.760 -0.2801 -0.0664 -0.8948
  738MOL0     H 1803   3.075   0.037   8.899  2.0998 -0.5054 -0.4438
  738MOL0     H 1804   3.021   0.202   8.864 -1.5482 -0.5682 -0.4229
  738MOL0     H 1805   3.172   0.138   8.790  0.4406 -2.4959  1.1064
  738MOL0     H 1806   3.444  -0.080   8.553 -1.7621  1.4828  0.4231
  738MOL0     H 1807   3.680  -0.163   8.584  0.2077  0.3253  0.2407
  738MOL0     H 1808   3.789  -0.286   8.996 -2.9394 -1.5755  0.2067
  738MOL0     H 1809   3.789  -0.444   8.912  0.1217 -0.7103 -1.5760
  738MOL0     H 1810   4.001  -0.216   8.890  1.5937  0.0938  1.0421
  738MOL0     H 1811   4.024  -0.333   9.000  0.0830 -2.1243 -1.4002
  738MOL0     H 1812   4.150  -0.372   8.806 -0.8753  2.0555 -1.2396
  738MOL0     H 1813   4.012  -0.371   8.700 -3.7340  3.2275  2.0161
  738MOL0     H 1814   3.939  -0.579   8.795  0.4798  1.8234 -1.7474
  738MOL0     H 1815   4.054  -0.566   8.938  2.0170  2.0905  0.7831
  738MOL0     H 1816   4.164  -0.580   8.660  0.5846  2.7344  1.9334
  738MOL0     H 1817   4.238  -0.618   8.813  0.3677  1.4005 -1.4201
  738MOL0     H 1818   3.993  -0.792   8.732  0.3228 -1.6582 -0.7879
  738MOL0     H 1819   4.130  -0.816   8.840  0.9423 -2.5803 -0.6894
  738MOL0     H 1820   4.149  -0.835   8.533  0.0606 -0.5048 -0.7569
  738MOL0     H 1821   4.147  -0.980   8.623 -0.6585  0.2344 -0.3210
  738MOL0     H 1822   4.366  -0.776   8.634  2.2979 -1.2309 -3.1492
  738MOL0     H 1823   4.361  -0.932   8.554  4.4532  2.6763  0.8747
  738MOL0     H 1824   3.587  -0.281   8.980  0.9143 -0.2459 -0.6876
  738MOL0     H 1825   3.353  -0.199   8.946 -4.3096 -1.0731 -3.3482
  738MOL0     H 1826   2.999  -0.167   8.459 -1.6458  2.1052 -1.6527
  738MOL0     H 1827   2.769  -0.089   8.432 -3.0032  1.8656  1.7385
  738MOL0     H 1828   1.014   0.571   9.017 -2.5198  1.2381 -1.6524
  738MOL0     H 1829   0.777   0.575   9.029 -0.6524  0.1159 -1.7994
  738MOL0     H 1830   0.424   0.597   9.329  1.4832  0.3390 -3.2713
  738MOL0     H 1831   0.183   0.590   9.383 -1.2172 -0.3628 -0.6427
  738MOL0     H 1832  -0.021   0.488   9.484  1.1524  1.0464  0.4193
  738MOL0     H 1833  -0.042   0.588   9.335  1.6010  1.4927  4.0435
  738MOL0     H 1834  -0.236   0.487   9.466 -1.9278 -0.2664  0.3704
  738MOL0     H 1835  -0.206   0.340   9.378  1.0299 -0.8052 -1.0386
  738MOL0     H 1836  -0.217   0.555   9.177  1.0884  1.8511  1.7432
  738MOL0     H 1837  -0.306   0.403   9.186 -2.1643  1.3771 -0.5507
  738MOL0     H 1838  -0.463   0.515   9.365 -3.4724 -2.9820 -2.9215
  738MOL0     H 1839  -0.484   0.560   9.200 -1.2132  3.1292  0.4039
  738MOL0     H 1840  -0.406   0.931   9.358 -0.7927  1.0861 -1.8366
  738MOL0     H 1841   0.120   0.242   9.127  2.4125 -0.1927 -2.1414
  738MOL0     H 1842   0.444   0.154   9.108 -0.5762 -0.1509  2.3489
  738MOL0     H 1843   0.280   0.158   9.016 -0.3912  2.6117 -0.4585
  738MOL0     H 1844   0.418   0.251   8.959  0.7571  0.1502 -0.2368
  739MOL0     O 1845   0.179   4.695   1.606 -0.6019  0.1257  0.3091
  739MOL0     C 1846   0.078   4.629   1.584  0.7631 -0.3211 -0.2002
  739MOL0     O 1847   0.059   4.557   1.470 -0.3446  0.3221 -0.3826
  739MOL0     C 1848   0.138   4.576   1.359  0.8281  0.5242  0.8853
  739MOL0     C 1849   0.207   4.463   1.313 -0.4385 -0.1845 -0.5104
  739MOL0     C 1850   0.285   4.482   1.191  0.5498 -0.3871 -0.7423
  739MOL0     C 1851   0.305   4.614   1.138  0.2135 -0.7041  0.3492
  739MOL0     O 1852   0.399   4.633   1.040 -0.0343  0.2313  0.0469
  739MOL0     C 1853   0.392   4.763   0.965  0.3211  0.8809 -1.3728
  739MOL0     C 1854   0.458   4.734   0.829 -0.6288  0.7056 -0.6250
  739MOL0     C 1855   0.612   4.722   0.847  0.1388  0.4794 -0.4717
  739MOL0     C 1856   0.692   4.722   0.712  0.2217 -0.3130 -0.9902
  739MOL0     C 1857   0.846   4.708   0.738 -0.6740  0.5555 -0.2114
  739MOL0     C 1858   0.897   4.554   0.765 -0.2350  0.2186 -0.2932
  739MOL0     C 1859   1.053   4.547   0.781  0.4677 -0.3942 -0.2235
  739MOL0     C 1860   1.094   4.407   0.839 -0.6812 -0.8674  1.1092
  739MOL0     N 1861   1.243   4.403   0.823 -0.8113  0.0062  0.0075
  739MOL0     C 1862   1.331   4.402   0.927  0.0200  0.3117  0.2665
  739MOL0     C 1863   1.442   4.351   0.880 -0.0865  0.0891  0.3930
  739MOL0     C 1864   1.575   4.358   0.951 -0.0076 -1.2572  0.0810
  739MOL0     C 1865   1.637   4.214   0.962 -0.4289 -0.0063  0.3972
  739MOL0     C 1866   1.710   4.144   0.846  0.9153  0.1981 -0.8557
  739MOL0     C 1867   1.772   4.018   0.896 -0.4865  0.2259  0.0061
  739MOL0     O 1868   1.887   4.026   0.974  0.2127  0.3207 -0.3898
  739MOL0     C 1869   1.959   3.909   0.993 -0.4538  0.4028 -0.5088
  739MOL0     C 1870   2.090   3.924   1.031 -0.2050  0.3280 -0.0290
  739MOL0     C 1871   2.175   3.816   1.057  0.6264 -0.3586 -0.3580
  739MOL0     C 1872   2.314   3.850   1.100  0.0358  0.8592  0.2198
  739MOL0     C 1873   2.126   3.683   1.045  0.9402  0.2502 -0.4717
  739MOL0     C 1874   2.213   3.565   1.077  0.6641 -0.9041 -0.8414
  739MOL0     O 1875   2.335   3.544   1.013 -0.0438 -0.1345 -0.1222
  739MOL0     C 1876   2.423   3.461   1.069 -0.6330 -0.0672 -0.3460
  739MOL0     C 1877   2.401   3.328   1.065  0.8511  0.5992  0.2787
  739MOL0     C 1878   2.491   3.238   1.130 -0.4609  0.1608  0.0765
  739MOL0     C 1879   2.597   3.289   1.204  0.7383  0.0982  1.0729
  739MOL0     O 1880   2.677   3.196   1.270 -0.3609 -0.0244 -0.1158
  739MOL0     C 1881   2.681   3.054   1.233 -0.3845  0.2903 -1.2593
  739MOL0     C 1882   2.815   2.986   1.267  0.1237  0.0304 -1.2386
  739MOL0     C 1883   2.830   2.839   1.227  0.0103 -0.0073  0.6686
  739MOL0     C 1884   2.761   2.737   1.327  0.0175 -0.1918 -0.6688
  739MOL0     C 1885   2.801   2.596   1.298 -0.2692 -0.5378 -0.4288
  739MOL0     C 1886   2.693   2.497   1.362 -0.0556  0.2239  0.2698
  739MOL0     C 1887   2.736   2.352   1.325 -0.2880  0.3016 -0.0390
  739MOL0     C 1888   2.620   2.254   1.310  0.5269  0.3254 -0.0147
  739MOL0    Cl 1889   2.674   2.089   1.310 -0.3433 -0.5638 -0.1992
  739MOL0     C 1890   2.623   3.427   1.214  0.0561 -0.0006  0.0201
  739MOL0     C 1891   2.537   3.515   1.140  0.4136  0.5889 -0.0336
  739MOL0     O 1892   2.157   3.496   1.161  0.6248 -0.0116 -0.4648
  739MOL0     C 1893   1.991   3.662   1.009 -0.0038  0.1460 -0.0371
  739MOL0     C 1894   1.905   3.773   0.984 -0.1575 -0.3293 -0.8430
  739MOL0     N 1895   1.416   4.306   0.750 -0.6850 -0.2507  0.5255
  739MOL0     N 1896   1.304   4.341   0.721  1.1310 -0.1353  0.5446
  739MOL0     C 1897   0.234   4.722   1.196  1.0850 -0.3904 -0.4608
  739MOL0     C 1898   0.143   4.700   1.297  0.9317 -0.0860 -0.4861
  739MOL0     C 1899  -0.037   4.628   1.683  0.0567 -0.5153  0.3258
  739MOL0     C 1900  -0.118   4.511   1.689 -0.3835 -0.2446  0.8450
  739MOL0     C 1901  -0.217   4.495   1.775 -0.1700 -0.8037 -0.7373
  739MOL0     C 1902  -0.246   4.599   1.862  1.1773 -0.5534  0.9086
  739MOL0     O 1903  -0.356   4.620   1.946  0.4184  0.1974  0.4005
  739MOL0     C 1904  -0.442   4.498   1.955  0.0807 -0.1071  0.2571
  739MOL0     C 1905  -0.393   4.397   2.066  0.4164 -0.2549 -0.0159
  739MOL0     C 1906  -0.441   4.419   2.205 -0.1663  0.0801  0.3531
  739MOL0     C 1907  -0.387   4.559   2.261 -0.7820  0.1376  0.9831
  739MOL0     C 1908  -0.385   4.558   2.405  0.0719  0.2682  0.3716
  739MOL0     C 1909  -0.384   4.582   2.521 -0.7428 -0.4190  0.8160
  739MOL0     C 1910  -0.166   4.710   1.862  0.5593 -0.7756 -1.3692
  739MOL0     C 1911  -0.063   4.731   1.772 -0.4467 -0.4412 -0.0256
  739MOL0     C 1912   0.009   4.864   1.783 -0.1453  0.4407 -0.1724
  739MOL0     H 1913   0.211   4.377   1.378  2.1826 -0.4554 -0.8923
  739MOL0     H 1914   0.337   4.396   1.150 -0.3929 -0.2673 -2.2400
  739MOL0     H 1915   0.438   4.846   1.017  2.5839 -0.3825 -1.2525
  739MOL0     H 1916   0.287   4.778   0.937 -0.4929 -0.2037  0.8564
  739MOL0     H 1917   0.423   4.640   0.786 -1.0297  1.1118 -1.1895
  739MOL0     H 1918   0.429   4.807   0.753 -0.1269  0.3952 -1.1273
  739MOL0     H 1919   0.646   4.801   0.914  0.6598  0.2357 -0.4426
  739MOL0     H 1920   0.641   4.629   0.897 -0.7728  1.0073  1.1021
  739MOL0     H 1921   0.654   4.640   0.652 -0.0390  1.3770 -3.2886
  739MOL0     H 1922   0.666   4.812   0.655 -0.6339 -1.2556 -2.1210
  739MOL0     H 1923   0.882   4.776   0.816 -0.8062 -2.1484  2.3643
  739MOL0     H 1924   0.900   4.737   0.647 -1.6832  2.8538 -0.1589
  739MOL0     H 1925   0.848   4.535   0.861 -0.2640 -2.3756 -0.7545
  739MOL0     H 1926   0.861   4.486   0.688  0.2253  0.0613 -0.3677
  739MOL0     H 1927   1.086   4.633   0.840  2.4814 -0.9643 -0.4293
  739MOL0     H 1928   1.089   4.546   0.678 -2.7390 -1.8980 -1.4696
  739MOL0     H 1929   1.067   4.391   0.944 -0.6091 -0.5965  1.1688
  739MOL0     H 1930   1.052   4.318   0.792 -1.1762 -1.3143  2.3287
  739MOL0     H 1931   1.312   4.448   1.023 -1.3414 -2.5713  1.4672
  739MOL0     H 1932   1.560   4.416   1.042  1.2286 -0.3491 -0.2684
  739MOL0     H 1933   1.626   4.431   0.886 -2.6655 -1.5497 -2.5723
  739MOL0     H 1934   1.716   4.226   1.037 -1.1550 -1.9256  1.5259
  739MOL0     H 1935   1.566   4.147   1.012  0.2755 -0.8611  0.2838
  739MOL0     H 1936   1.642   4.117   0.764  0.4510 -0.3414 -0.3033
  739MOL0     H 1937   1.794   4.205   0.811 -0.7876  1.6511 -2.6456
  739MOL0     H 1938   1.696   3.958   0.948  1.2620 -2.8342 -0.7286
  739MOL0     H 1939   1.798   3.961   0.807  3.7365  0.0317  1.1683
  739MOL0     H 1940   2.133   4.023   1.030 -0.7215  0.5580 -0.4479
  739MOL0     H 1941   2.337   3.811   1.199 -2.7400 -2.1940 -0.1794
  739MOL0     H 1942   2.317   3.959   1.093 -0.0059  0.7441 -2.4877
  739MOL0     H 1943   2.383   3.798   1.033 -1.0859 -2.0484  1.1545
  739MOL0     H 1944   2.306   3.302   1.020  1.1372 -1.4324  0.7663
  739MOL0     H 1945   2.472   3.131   1.130  0.6676 -0.0626  1.5745
  739MOL0     H 1946   2.606   2.988   1.279  0.5524 -1.2149 -1.7958
  739MOL0     H 1947   2.675   3.046   1.124 -0.2096  2.5252 -1.4749
  739MOL0     H 1948   2.894   3.045   1.219  0.8573  1.7994  1.8684
  739MOL0     H 1949   2.833   2.987   1.375 -0.2746 -0.2397 -1.1685
  739MOL0     H 1950   2.936   2.816   1.212 -0.2467  0.2713 -1.9067
  739MOL0     H 1951   2.784   2.823   1.129  0.3373 -3.1259  0.9264
  739MOL0     H 1952   2.653   2.751   1.317  0.1500  2.1494  0.3415
  739MOL0     H 1953   2.787   2.765   1.430 -0.9372 -0.2509 -0.4014
  739MOL0     H 1954   2.824   2.576   1.193 -2.1128 -0.9868 -0.7878
  739MOL0     H 1955   2.889   2.570   1.357 -1.2241 -0.9894  0.8306
  739MOL0     H 1956   2.593   2.517   1.322 -0.2990 -2.3802 -0.5679
  739MOL0     H 1957   2.678   2.509   1.470  1.5430 -0.9192  0.6541
  739MOL0     H 1958   2.806   2.315   1.401  0.0736  0.9901 -0.0294
  739MOL0     H 1959   2.799   2.343   1.236 -2.0858 -3.4961 -1.1299
  739MOL0     H 1960   2.564   2.278   1.219  1.0060  3.2326  0.3828
  739MOL0     H 1961   2.542   2.268   1.386 -0.5403  1.5765 -1.2882
  739MOL0     H 1962   2.707   3.465   1.271  0.3042 -2.5266  1.4804
  739MOL0     H 1963   2.561   3.621   1.140 -2.1762  1.2326 -0.2554
  739MOL0     H 1964   1.960   3.560   0.986 -1.5761  0.9127 -1.5096
  739MOL0     H 1965   1.802   3.769   0.949 -0.8368  4.2670  0.0457
  739MOL0     H 1966   0.238   4.821   1.152 -1.1666 -1.0699 -2.4515
  739MOL0     H 1967   0.094   4.787   1.340  2.0584 -0.1315  0.9863
  739MOL0     H 1968  -0.102   4.429   1.619  2.3862 -0.3462  1.4566
  739MOL0     H 1969  -0.269   4.399   1.769  1.7019 -1.9094  0.0073
  739MOL0     H 1970  -0.542   4.532   1.984  0.3375  1.1983 -0.3328
  739MOL0     H 1971  -0.451   4.439   1.863  2.0052 -1.2469  0.7452
  739MOL0     H 1972  -0.284   4.390   2.063  0.5095  1.3126 -1.7967
  739MOL0     H 1973  -0.448   4.304   2.045 -0.4225  0.1438  0.3518
  739MOL0     H 1974  -0.550   4.430   2.208 -0.0613  0.9783  1.1836
  739MOL0     H 1975  -0.414   4.329   2.262  0.7544 -1.9546 -3.0019
  739MOL0     H 1976  -0.456   4.635   2.223 -0.3844 -0.5880 -1.3193
  739MOL0     H 1977  -0.286   4.580   2.225 -1.5393 -0.3979 -1.6978
  739MOL0     H 1978  -0.397   4.584   2.627 -1.0488  2.0447  0.7714
  739MOL0     H 1979  -0.190   4.790   1.931 -2.8799 -0.3174 -2.8850
  739MOL0     H 1980   0.100   4.860   1.843  1.1563 -0.8846 -2.1319
  739MOL0     H 1981   0.054   4.899   1.690  2.5537 -1.5411  0.2778
  739MOL0     H 1982  -0.054   4.946   1.821  1.0017  2.0019 -1.4791
  740MOL0     O 1983   9.126   9.278   9.775 -0.1147 -0.7250  0.2022
  740MOL0     C 1984   9.115   9.374   9.702 -0.9841  0.0383  0.1464
  740MOL0     O 1985   9.215   9.422   9.625  0.0733  0.7332  0.2017
  740MOL0     C 1986   9.341   9.370   9.609  0.0966 -1.0560 -0.2427
  740MOL0     C 1987   9.425   9.316   9.719 -0.0927  0.6383  0.5804
  740MOL0     C 1988   9.551   9.280   9.688 -0.1051 -0.0130  0.8775
  740MOL0     C 1989   9.612   9.309   9.562 -0.4727  0.4822 -0.6783
  740MOL0     O 1990   9.748   9.305   9.545  0.5182  0.3922 -0.4573
  740MOL0     C 1991   9.840   9.293   9.657 -0.3376 -0.3677  1.0715
  740MOL0     C 1992   9.970   9.240   9.589 -0.3378  0.4485  0.9602
  740MOL0     C 1993   9.943   9.121   9.494 -0.1011  0.0200 -0.1260
  740MOL0     C 1994  10.067   9.081   9.423  0.6424 -0.1770 -0.8861
  740MOL0     C 1995  10.034   8.952   9.346 -0.1399 -0.2760 -0.7553
  740MOL0     C 1996  10.153   8.897   9.271 -0.2927 -0.8461 -0.5749
  740MOL0     C 1997  10.116   8.771   9.195 -0.3226 -0.1197  0.3426
  740MOL0     C 1998  10.235   8.714   9.124 -0.0782  0.4542  1.1196
  740MOL0     N 1999  10.276   8.799   9.016  0.0796 -0.4274 -0.4237
  740MOL0     C 2000  10.360   8.906   9.015  0.1303  0.3823  0.6440
  740MOL0     C 2001  10.359   8.947   8.886  0.2381  0.3649 -0.2536
  740MOL0     C 2002  10.448   9.061   8.834 -0.1809 -0.2325  0.9504
  740MOL0     C 2003  10.590   9.010   8.785  0.5506 -0.8295 -0.5718
  740MOL0     C 2004  10.585   8.914   8.668 -0.6302 -0.3185 -0.2694
  740MOL0     C 2005  10.726   8.875   8.623 -0.7055  0.4883 -0.1018
  740MOL0     O 2006  10.796   8.787   8.708 -0.5798 -0.1971  0.5278
  740MOL0     C 2007  10.935   8.793   8.704  1.4659 -0.3550  0.5497
  740MOL0     C 2008  11.003   8.827   8.584  1.6026  0.2019  0.1828
  740MOL0     C 2009  11.138   8.812   8.580 -0.8482 -0.0569  0.4798
  740MOL0     C 2010  11.192   8.840   8.445  0.0136  0.1822  0.4769
  740MOL0     C 2011  11.217   8.775   8.690  0.3417 -0.4009 -0.3933
  740MOL0     C 2012  11.367   8.772   8.695 -0.3182 -0.4343  0.1293
  740MOL0     O 2013  11.441   8.820   8.591  0.8041 -0.3348  0.1542
  740MOL0     C 2014  11.584   8.836   8.605 -0.2868 -0.5891  0.2228
  740MOL0     C 2015  11.648   8.881   8.722 -0.8279  0.6519  0.7463
  740MOL0     C 2016  11.784   8.921   8.721 -0.3180  0.0907  0.2172
  740MOL0     C 2017  11.857   8.922   8.604 -0.1379 -0.1671  0.1279
  740MOL0     O 2018  11.990   8.960   8.610 -0.4796 -0.0151  0.2013
  740MOL0     C 2019  12.078   8.955   8.491 -0.8815 -0.7560 -0.2127
  740MOL0     C 2020  12.218   8.977   8.535 -0.4507  0.0262 -0.4506
  740MOL0     C 2021  12.299   8.864   8.604  0.9172 -0.4003  0.6947
  740MOL0     C 2022  12.231   8.824   8.737  0.1184  0.5122 -0.5031
  740MOL0     C 2023  12.313   8.717   8.803  0.4820  0.0777 -0.0910
  740MOL0     C 2024  12.442   8.759   8.868 -1.5238  0.4023  0.7000
  740MOL0     C 2025  12.433   8.859   8.973 -0.4532  0.5223  0.9553
  740MOL0     C 2026  12.556   8.859   9.052 -0.8759 -0.4274 -0.4644
  740MOL0    Cl 2027  12.678   8.945   8.970 -0.1281  0.0064  0.3926
  740MOL0     C 2028  11.790   8.893   8.487  0.1732  1.0421 -0.0978
  740MOL0     C 2029  11.662   8.838   8.489  0.2893 -0.3626 -0.1075
  740MOL0     O 2030  11.419   8.719   8.792  0.1256 -0.2961  0.6093
  740MOL0     C 2031  11.151   8.742   8.808  0.5893  0.9959 -0.5122
  740MOL0     C 2032  11.012   8.755   8.814  0.3395  0.3660  0.2522
  740MOL0     N 2033  10.270   8.869   8.817 -0.2967 -0.6001 -0.1402
  740MOL0     N 2034  10.215   8.789   8.898  0.0680  1.1748  0.3983
  740MOL0     C 2035   9.530   9.341   9.453 -0.1981  0.3102 -0.4400
  740MOL0     C 2036   9.398   9.388   9.480 -0.6197 -0.3125 -0.5808
  740MOL0     C 2037   8.993   9.457   9.691 -0.0046 -0.4837 -0.1777
  740MOL0     C 2038   8.994   9.572   9.609 -0.2733  0.7629 -0.6030
  740MOL0     C 2039   8.883   9.650   9.597  1.3139 -0.5736 -0.1022
  740MOL0     C 2040   8.759   9.603   9.623  0.5202 -0.3501 -0.1704
  740MOL0     O 2041   8.655   9.679   9.575  0.0840 -0.1794 -0.7117
  740MOL0     C 2042   8.522   9.637   9.593 -0.4170 -0.2183 -0.0766
  740MOL0     C 2043   8.449   9.766   9.548  0.8961 -0.0323  0.7059
  740MOL0     C 2044   8.323   9.767   9.642 -0.3286 -0.7163  0.5969
  740MOL0     C 2045   8.238   9.883   9.594 -1.0037  0.3577 -0.9420
  740MOL0     C 2046   8.284  10.001   9.667  0.7037  0.1677 -0.0720
  740MOL0     C 2047   8.310  10.104   9.726  0.0974 -0.1050 -0.1410
  740MOL0     C 2048   8.760   9.489   9.701  0.3684  0.3509 -0.5632
  740MOL0     C 2049   8.870   9.417   9.752 -0.3739  0.0266  0.7651
  740MOL0     C 2050   8.850   9.309   9.851 -0.0274  0.0966  0.1417
  740MOL0     H 2051   9.389   9.301   9.820 -0.8723  0.5211  0.2927
  740MOL0     H 2052   9.618   9.248   9.767  2.1004 -0.9935 -1.2703
  740MOL0     H 2053   9.821   9.219   9.734 -0.2166 -0.7404  0.7490
  740MOL0     H 2054   9.873   9.391   9.693  0.3110  0.6777 -2.0028
  740MOL0     H 2055  10.013   9.322   9.530  1.2031  1.0575  2.8388
  740MOL0     H 2056  10.049   9.210   9.659 -0.3651 -0.7704  0.4879
  740MOL0     H 2057   9.911   9.034   9.552  2.3466  0.0293  1.4087
  740MOL0     H 2058   9.866   9.143   9.419  0.3046  1.0336 -0.2664
  740MOL0     H 2059  10.108   9.162   9.362 -2.5601  2.4671  0.1614
  740MOL0     H 2060  10.144   9.048   9.494 -0.2357 -0.8077 -0.2108
  740MOL0     H 2061   9.947   8.969   9.281 -0.4913 -1.7673 -0.7150
  740MOL0     H 2062  10.007   8.879   9.423  1.1670  0.0872  0.0735
  740MOL0     H 2063  10.189   8.979   9.208 -3.2683  1.1725  0.1088
  740MOL0     H 2064  10.236   8.879   9.340  0.1297  1.9158 -0.2578
  740MOL0     H 2065  10.027   8.787   9.133 -1.4765 -1.1000  1.6995
  740MOL0     H 2066  10.082   8.707   9.276 -1.6555  0.2179  0.0903
  740MOL0     H 2067  10.318   8.714   9.196  0.1784  0.6233  0.8254
  740MOL0     H 2068  10.200   8.616   9.093  1.0724  0.7720 -1.5034
  740MOL0     H 2069  10.422   8.948   9.093 -0.3374  0.6921  0.8531
  740MOL0     H 2070  10.465   9.139   8.908 -1.1264  1.7694 -0.8530
  740MOL0     H 2071  10.403   9.116   8.751 -0.1716 -2.0814 -0.3509
  740MOL0     H 2072  10.646   9.101   8.758 -0.9131 -0.1487 -1.4337
  740MOL0     H 2073  10.631   8.956   8.871  2.3874  2.0629  0.5363
  740MOL0     H 2074  10.531   8.821   8.691  2.9347 -2.8102 -1.1079
  740MOL0     H 2075  10.532   8.968   8.590 -1.4976  2.7432  2.2531
  740MOL0     H 2076  10.730   8.828   8.524 -2.4599  0.6935 -0.2990
  740MOL0     H 2077  10.781   8.969   8.611 -1.3473  0.8005 -0.6830
  740MOL0     H 2078  10.948   8.862   8.497  1.5482 -0.7966 -0.1923
  740MOL0     H 2079  11.237   8.939   8.431  1.6869 -0.8817 -3.2602
  740MOL0     H 2080  11.117   8.844   8.365  0.5651 -0.7513 -0.1036
  740MOL0     H 2081  11.265   8.764   8.416 -2.2559 -1.0815 -2.4844
  740MOL0     H 2082  11.601   8.876   8.820  1.5271 -3.3599  1.9416
  740MOL0     H 2083  11.825   8.975   8.806  0.1184  4.4331 -2.4549
  740MOL0     H 2084  12.071   8.862   8.435 -0.2701 -0.4901 -0.7340
  740MOL0     H 2085  12.058   9.032   8.416  0.5564 -0.2305 -0.0804
  740MOL0     H 2086  12.267   9.004   8.440  0.0623  1.4870  0.2003
  740MOL0     H 2087  12.217   9.058   8.608  1.4045 -1.1691  0.9776
  740MOL0     H 2088  12.397   8.910   8.618  0.4980  1.5556 -2.0104
  740MOL0     H 2089  12.297   8.774   8.543  1.1532 -0.5291  0.8744
  740MOL0     H 2090  12.135   8.781   8.708  0.0920  0.2809 -0.0900
  740MOL0     H 2091  12.219   8.901   8.814  2.6295  0.3439  0.1450
  740MOL0     H 2092  12.246   8.671   8.877 -0.1716 -0.5807 -1.0826
  740MOL0     H 2093  12.340   8.640   8.731 -1.0957  0.2775 -0.9391
  740MOL0     H 2094  12.510   8.778   8.784  1.2984 -2.4511  2.0951
  740MOL0     H 2095  12.473   8.667   8.919  0.0457  2.3286  3.5367
  740MOL0     H 2096  12.343   8.833   9.030 -1.0392 -3.0823 -1.2522
  740MOL0     H 2097  12.410   8.958   8.933 -1.8595  1.0754  2.9780
  740MOL0     H 2098  12.590   8.759   9.082 -0.0094  0.3022  1.1837
  740MOL0     H 2099  12.527   8.911   9.144 -1.5243  2.4817 -2.1845
  740MOL0     H 2100  11.841   8.904   8.391  0.4449 -2.0817 -0.4187
  740MOL0     H 2101  11.612   8.817   8.395  0.6070  0.2664 -0.4241
  740MOL0     H 2102  11.201   8.714   8.901 -0.0837 -2.3971 -1.0369
  740MOL0     H 2103  10.969   8.731   8.910 -0.0592 -0.3442 -0.0986
  740MOL0     H 2104   9.579   9.358   9.357 -2.1374  1.0055 -1.3533
  740MOL0     H 2105   9.344   9.432   9.397 -1.2440  0.2223  0.0965
  740MOL0     H 2106   9.081   9.610   9.556 -1.9820  1.9258 -2.7632
  740MOL0     H 2107   8.880   9.744   9.542  1.6471 -1.7852 -2.3418
  740MOL0     H 2108   8.498   9.558   9.521  1.0897 -0.1379 -0.6921
  740MOL0     H 2109   8.516   9.606   9.698 -1.4809  2.9829  0.9251
  740MOL0     H 2110   8.416   9.769   9.443  0.1028  1.7488  0.9768
  740MOL0     H 2111   8.505   9.856   9.574 -2.0419  1.5165  2.1991
  740MOL0     H 2112   8.273   9.674   9.615  1.0559 -0.5839 -2.8678
  740MOL0     H 2113   8.354   9.764   9.747 -0.4710 -2.3523  0.6132
  740MOL0     H 2114   8.134   9.880   9.627 -1.1967  2.0684 -1.3312
  740MOL0     H 2115   8.221   9.886   9.486 -3.5457  0.6593 -0.5878
  740MOL0     H 2116   8.339  10.193   9.777  1.6569 -1.3360  1.2516
  740MOL0     H 2117   8.667   9.455   9.747  1.9148 -1.3960  1.5303
  740MOL0     H 2118   8.747   9.320   9.885 -1.3923  0.8805 -3.7473
  740MOL0     H 2119   8.871   9.213   9.803  0.1799  0.7733 -1.1900
  740MOL0     H 2120   8.908   9.325   9.942 -3.1015 -1.7340  2.5976
  741MOL0     O 2121   7.319   5.682   8.948 -0.9876 -0.9945 -0.3860
  741MOL0     C 2122   7.205   5.723   8.990 -0.0914  0.0159  0.6577
  741MOL0     O 2123   7.164   5.858   9.011 -0.3496  0.2418 -0.6492
  741MOL0     C 2124   7.258   5.956   8.989 -0.3423 -0.3156 -0.6102
  741MOL0     C 2125   7.392   5.960   9.049  0.1734 -0.2896 -0.1849
  741MOL0     C 2126   7.473   6.071   9.028 -1.2029  0.6747  0.7988
  741MOL0     C 2127   7.433   6.171   8.934 -0.2399 -0.9791  0.0466
  741MOL0     O 2128   7.512   6.282   8.903  0.0574 -0.1471  0.2855
  741MOL0     C 2129   7.657   6.259   8.881 -0.0492  0.3556 -0.3793
  741MOL0     C 2130   7.730   6.376   8.835  0.1500  1.1197  0.3323
  741MOL0     C 2131   7.727   6.392   8.684 -0.5529  0.8905  0.0724
  741MOL0     C 2132   7.825   6.504   8.647  0.5376  0.5300 -0.3728
  741MOL0     C 2133   7.819   6.529   8.498  0.4821  0.3255 -0.2400
  741MOL0     C 2134   7.891   6.664   8.461 -0.3269  0.2257 -0.9743
  741MOL0     C 2135   7.895   6.689   8.308  0.5043  0.2873 -0.8130
  741MOL0     C 2136   8.007   6.607   8.253 -0.4014 -0.3614  0.2877
  741MOL0     N 2137   8.138   6.673   8.293 -0.2932  0.2112 -0.2557
  741MOL0     C 2138   8.169   6.798   8.257  0.2058  0.9073  1.0391
  741MOL0     C 2139   8.300   6.814   8.294 -0.1662 -0.2143 -0.3058
  741MOL0     C 2140   8.399   6.925   8.261 -0.0321 -0.5376  0.2261
  741MOL0     C 2141   8.445   6.920   8.109  0.6435 -0.0870 -0.1268
  741MOL0     C 2142   8.330   6.934   8.009  0.3712  0.4514  0.0075
  741MOL0     C 2143   8.378   6.947   7.863  1.3206 -0.3206  0.4399
  741MOL0     O 2144   8.400   7.081   7.833  1.0464 -0.1387 -0.3400
  741MOL0     C 2145   8.462   7.122   7.714  0.1791 -0.7625  0.3622
  741MOL0     C 2146   8.492   7.255   7.692 -0.2521  0.2867 -0.3399
  741MOL0     C 2147   8.566   7.302   7.581  0.3992 -0.1950  0.3859
  741MOL0     C 2148   8.577   7.448   7.554  0.4717  0.3061  0.2390
  741MOL0     C 2149   8.631   7.200   7.497  0.5637 -0.4101 -0.1025
  741MOL0     C 2150   8.715   7.214   7.377  0.4887 -0.7209  0.3024
  741MOL0     O 2151   8.712   7.337   7.309 -0.4534 -0.5923 -0.0365
  741MOL0     C 2152   8.809   7.359   7.214 -0.4695 -0.3550  0.0360
  741MOL0     C 2153   8.796   7.300   7.090 -0.7417  0.3163 -0.1708
  741MOL0     C 2154   8.874   7.342   6.980 -0.0241  1.4029 -0.6461
  741MOL0     C 2155   8.977   7.435   7.002  0.4639 -0.4189 -0.1580
  741MOL0     O 2156   9.064   7.459   6.896 -0.0520 -0.6094  0.3451
  741MOL0     C 2157   9.199   7.511   6.921  0.0098 -0.2560 -0.5576
  741MOL0     C 2158   9.302   7.500   6.813  0.0435  0.5664  0.3376
  741MOL0     C 2159   9.326   7.620   6.714 -0.0847  0.1758 -0.9101
  741MOL0     C 2160   9.223   7.631   6.607 -0.8572  0.0279  0.2368
  741MOL0     C 2161   9.213   7.766   6.538  0.2238 -0.2690  0.0913
  741MOL0     C 2162   9.101   7.755   6.434  0.0975  0.4046 -0.2052
  741MOL0     C 2163   8.984   7.851   6.463  0.0567  0.1449  0.2665
  741MOL0     C 2164   8.891   7.869   6.341  0.0180 -0.5536  0.5198
  741MOL0    Cl 2165   8.972   7.875   6.176  0.6300  0.0220  0.1865
  741MOL0     C 2166   8.983   7.495   7.131 -0.3285 -0.0084 -0.5263
  741MOL0     C 2167   8.900   7.460   7.232  0.8422 -0.4780 -0.4812
  741MOL0     O 2168   8.795   7.121   7.353 -0.7077 -0.0444 -0.3746
  741MOL0     C 2169   8.587   7.068   7.516  0.0555  1.3920 -0.7058
  741MOL0     C 2170   8.513   7.030   7.627  0.3568  0.7132  0.5341
  741MOL0     N 2171   8.345   6.697   8.350 -0.6450  0.1439  0.7290
  741MOL0     N 2172   8.248   6.623   8.357 -0.5247 -0.1817 -0.1250
  741MOL0     C 2173   7.305   6.160   8.883  0.8839 -0.0066 -0.4784
  741MOL0     C 2174   7.218   6.057   8.904 -0.3167 -0.1695 -0.2381
  741MOL0     C 2175   7.084   5.632   8.991  0.8301  0.0335 -0.5327
  741MOL0     C 2176   7.056   5.545   8.880 -1.2478 -0.0012 -0.4468
  741MOL0     C 2177   6.947   5.456   8.895 -0.7386  0.5205 -0.2263
  741MOL0     C 2178   6.868   5.452   9.004 -0.0689  0.2176  0.5062
  741MOL0     O 2179   6.771   5.360   9.018  0.3930  0.3524 -0.3032
  741MOL0     C 2180   6.662   5.376   9.110 -0.3949 -0.2578 -0.4052
  741MOL0     C 2181   6.550   5.288   9.072 -0.1812 -0.4632  0.0869
  741MOL0     C 2182   6.484   5.345   8.943 -0.4151  0.2378  0.0352
  741MOL0     C 2183   6.333   5.296   8.941  0.1320 -0.0700  0.3267
  741MOL0     C 2184   6.336   5.152   8.923  0.6373  0.1146 -0.7077
  741MOL0     C 2185   6.336   5.033   8.917 -0.9959  0.1446  1.4500
  741MOL0     C 2186   6.901   5.534   9.115  0.1179 -0.1891  0.1014
  741MOL0     C 2187   7.005   5.627   9.115 -0.3447  0.6429  1.1231
  741MOL0     C 2188   7.031   5.701   9.245  0.2249 -0.5202 -0.0805
  741MOL0     H 2189   7.421   5.880   9.116  1.4668  1.7022  1.7670
  741MOL0     H 2190   7.572   6.074   9.072 -0.6867 -2.2073  0.0605
  741MOL0     H 2191   7.663   6.184   8.803  0.6220  2.2103 -2.2159
  741MOL0     H 2192   7.696   6.226   8.978  0.3967  0.8641 -0.3758
  741MOL0     H 2193   7.686   6.460   8.890  2.0960  2.3454  0.1103
  741MOL0     H 2194   7.831   6.365   8.875  0.0391 -0.3932  0.2278
  741MOL0     H 2195   7.755   6.304   8.625 -1.5027  0.1395  0.7104
  741MOL0     H 2196   7.630   6.430   8.648 -0.2916  1.6270  0.1308
  741MOL0     H 2197   7.802   6.593   8.705  1.4586  0.0350  0.7809
  741MOL0     H 2198   7.928   6.477   8.671 -0.7005 -1.0692  4.1364
  741MOL0     H 2199   7.718   6.531   8.457 -0.9624 -2.6095  2.7459
  741MOL0     H 2200   7.865   6.444   8.446 -1.5599 -1.4126  0.6608
  741MOL0     H 2201   7.847   6.748   8.515  1.0196  0.1487  0.3170
  741MOL0     H 2202   7.995   6.661   8.495 -1.0323 -0.2766  1.2701
  741MOL0     H 2203   7.914   6.796   8.292  2.4679 -0.0679 -1.0757
  741MOL0     H 2204   7.799   6.656   8.267  0.2717 -0.4992  0.3329
  741MOL0     H 2205   8.007   6.506   8.296  2.9339 -1.5701 -2.1535
  741MOL0     H 2206   8.004   6.597   8.145  0.9672 -1.7794  0.3425
  741MOL0     H 2207   8.103   6.866   8.204 -2.2342 -2.9189 -1.3032
  741MOL0     H 2208   8.482   6.906   8.330  0.0592  0.1655  0.3181
  741MOL0     H 2209   8.363   7.026   8.284  1.2841 -0.1154  0.4982
  741MOL0     H 2210   8.518   6.994   8.075 -2.0309  0.8597 -4.6413
  741MOL0     H 2211   8.497   6.825   8.088 -0.6244 -0.9019  0.3118
  741MOL0     H 2212   8.275   6.840   8.019  0.3481  0.0049 -3.2379
  741MOL0     H 2213   8.272   7.024   8.034 -1.4466  0.0262 -2.3261
  741MOL0     H 2214   8.465   6.882   7.848  0.9704 -0.1857 -3.1414
  741MOL0     H 2215   8.299   6.912   7.796  1.5659 -0.3795  0.1793
  741MOL0     H 2216   8.444   7.329   7.755  0.3704 -0.0045  0.5036
  741MOL0     H 2217   8.671   7.479   7.508 -0.4706  3.0316 -0.0061
  741MOL0     H 2218   8.555   7.493   7.651  0.9254 -2.8424  1.9191
  741MOL0     H 2219   8.496   7.476   7.485 -0.7497 -0.6253  1.2403
  741MOL0     H 2220   8.731   7.214   7.079 -0.5554  0.1165  0.2625
  741MOL0     H 2221   8.857   7.287   6.887  1.2795  0.5116 -0.3820
  741MOL0     H 2222   9.184   7.617   6.942  1.6759 -0.3674  1.5318
  741MOL0     H 2223   9.245   7.464   7.008  0.6563 -0.5270 -1.0351
  741MOL0     H 2224   9.399   7.494   6.863  0.4273 -1.2340 -0.5295
  741MOL0     H 2225   9.296   7.403   6.763  0.2023  1.2161 -0.9943
  741MOL0     H 2226   9.422   7.610   6.662 -1.2926 -0.4649 -3.1288
  741MOL0     H 2227   9.335   7.710   6.776  2.4183 -1.1245  0.8028
  741MOL0     H 2228   9.131   7.613   6.663 -1.2236 -3.4242 -1.2450
  741MOL0     H 2229   9.225   7.550   6.534 -1.6496  2.8487 -3.2157
  741MOL0     H 2230   9.189   7.844   6.611  0.7150 -1.5370  1.6900
  741MOL0     H 2231   9.311   7.787   6.494  0.3277 -0.7399  0.0918
  741MOL0     H 2232   9.065   7.652   6.424 -0.8709  0.7316 -0.1322
  741MOL0     H 2233   9.150   7.774   6.338  0.1749  0.4460 -0.1574
  741MOL0     H 2234   9.011   7.947   6.508  2.9487 -0.3315 -0.2992
  741MOL0     H 2235   8.922   7.801   6.537 -1.2543 -0.8492 -1.4379
  741MOL0     H 2236   8.830   7.958   6.356 -0.9922 -1.4503  1.9606
  741MOL0     H 2237   8.826   7.781   6.334  2.1385 -2.2121  0.7065
  741MOL0     H 2238   9.055   7.575   7.141 -0.4810 -0.0547  1.2988
  741MOL0     H 2239   8.902   7.515   7.326 -0.7137 -0.9386 -0.1476
  741MOL0     H 2240   8.611   6.994   7.441 -1.5031  0.4599 -0.3206
  741MOL0     H 2241   8.499   6.923   7.638  2.8793  0.5238  3.4531
  741MOL0     H 2242   7.269   6.237   8.815 -0.5118 -0.5764 -0.4003
  741MOL0     H 2243   7.120   6.044   8.860  1.0429 -1.7040 -3.0570
  741MOL0     H 2244   7.120   5.562   8.794 -0.0724 -1.4173  0.0884
  741MOL0     H 2245   6.930   5.389   8.812 -2.2605  1.4187 -0.6812
  741MOL0     H 2246   6.687   5.340   9.211 -0.5179 -0.0302 -0.2917
  741MOL0     H 2247   6.629   5.480   9.113 -1.2661 -0.5445  1.4882
  741MOL0     H 2248   6.491   5.303   9.162 -0.9718  3.3848 -0.9040
  741MOL0     H 2249   6.576   5.183   9.051 -3.6860 -1.3171 -0.7191
  741MOL0     H 2250   6.483   5.455   8.941 -2.7855  0.3795  2.5672
  741MOL0     H 2251   6.537   5.307   8.856 -3.2502 -1.8431 -0.9497
  741MOL0     H 2252   6.274   5.336   8.858  1.9105  1.7445 -0.1389
  741MOL0     H 2253   6.299   5.329   9.040  2.3072  2.0700  0.4453
  741MOL0     H 2254   6.335   4.926   8.909  1.1897  0.0871  1.3203
  741MOL0     H 2255   6.840   5.533   9.205  3.1489  0.6342  2.3244
  741MOL0     H 2256   7.037   5.625   9.323  1.2472 -0.6370 -0.2543
  741MOL0     H 2257   7.123   5.761   9.240  0.5670 -0.9549  0.8004
  741MOL0     H 2258   6.946   5.766   9.268 -0.2837  0.2028 -3.4578
  742MOL0     O 2259   7.365   8.033  10.253  0.4940  0.0484 -0.3339
  742MOL0     C 2260   7.389   8.106  10.163 -0.0313 -0.4025 -0.2410
  742MOL0     O 2261   7.319   8.114  10.051  0.0235  0.3312 -0.6099
  742MOL0     C 2262   7.208   8.039  10.026  0.5807  0.4786 -0.0599
  742MOL0     C 2263   7.152   7.929  10.098 -0.1831 -1.0327  0.3851
  742MOL0     C 2264   7.036   7.868  10.046 -0.4774  0.0208 -0.5073
  742MOL0     C 2265   6.996   7.888   9.919 -0.3310  1.0170 -0.3349
  742MOL0     O 2266   6.903   7.792   9.880  0.8018  0.9097  0.3958
  742MOL0     C 2267   6.945   7.651   9.897 -0.0876  0.4332  1.0076
  742MOL0     C 2268   7.054   7.627   9.783 -0.1297  0.2066 -0.4851
  742MOL0     C 2269   7.001   7.628   9.641 -0.5515  0.2994 -0.9438
  742MOL0     C 2270   7.120   7.631   9.546 -0.0008  0.5467 -0.6855
  742MOL0     C 2271   7.071   7.652   9.408  0.3030  1.2826 -0.0987
  742MOL0     C 2272   7.199   7.653   9.318 -0.6118  0.9733  0.2280
  742MOL0     C 2273   7.178   7.677   9.165  0.3380 -0.3290  0.5225
  742MOL0     C 2274   7.314   7.675   9.079  0.7266 -0.0789 -0.5761
  742MOL0     N 2275   7.434   7.713   9.147 -0.5945 -0.3173 -0.1483
  742MOL0     C 2276   7.496   7.842   9.143  0.0542 -0.0604 -0.1958
  742MOL0     C 2277   7.605   7.832   9.222  0.2980 -0.2732 -0.3288
  742MOL0     C 2278   7.690   7.947   9.261 -0.3222 -0.4930  0.0934
  742MOL0     C 2279   7.739   8.033   9.143 -0.0299 -0.0213 -0.1431
  742MOL0     C 2280   7.805   8.167   9.212  0.2415 -0.7682 -0.0495
  742MOL0     C 2281   7.695   8.271   9.226 -0.2663 -0.4071 -0.2827
  742MOL0     O 2282   7.732   8.405   9.220 -0.0021 -0.0668 -0.0821
  742MOL0     C 2283   7.832   8.461   9.296 -0.1671 -0.0555 -0.6997
  742MOL0     C 2284   7.878   8.413   9.422  0.5392  0.3336 -0.1070
  742MOL0     C 2285   7.980   8.478   9.497 -0.5614 -0.4883  0.0410
  742MOL0     C 2286   8.028   8.431   9.622 -0.5145 -0.0030 -0.1069
  742MOL0     C 2287   8.033   8.595   9.440 -0.0128 -0.5819  0.2420
  742MOL0     C 2288   8.133   8.676   9.500  0.5613  0.4568 -0.1801
  742MOL0     O 2289   8.243   8.718   9.425  0.3060  0.6119  0.1037
  742MOL0     C 2290   8.345   8.754   9.507 -0.4473 -0.4515 -0.3486
  742MOL0     C 2291   8.370   8.892   9.540  0.2042  0.7109  0.1149
  742MOL0     C 2292   8.469   8.927   9.627 -0.1291  0.3822  0.3100
  742MOL0     C 2293   8.555   8.829   9.687  0.2929  0.4813 -0.0673
  742MOL0     O 2294   8.658   8.889   9.753 -0.1997  0.5442  0.8929
  742MOL0     C 2295   8.708   8.820   9.870 -0.5935  0.0229 -0.0285
  742MOL0     C 2296   8.788   8.915   9.959 -0.0321 -0.7504  0.1137
  742MOL0     C 2297   8.712   9.037  10.025 -0.4625  0.1987  0.5467
  742MOL0     C 2298   8.617   8.999  10.138 -0.0312  0.1912  0.8978
  742MOL0     C 2299   8.684   8.954  10.266 -0.0374 -0.5379 -0.4272
  742MOL0     C 2300   8.572   8.916  10.365  0.5457 -0.9094 -0.1690
  742MOL0     C 2301   8.623   8.912  10.512 -0.8357  0.6098 -0.2929
  742MOL0     C 2302   8.526   8.834  10.597 -0.2976  0.4565 -0.3538
  742MOL0    Cl 2303   8.596   8.832  10.761  0.2277  0.1104  0.0369
  742MOL0     C 2304   8.538   8.692   9.659 -0.2212  0.6992  0.3183
  742MOL0     C 2305   8.428   8.656   9.566 -0.1246 -0.3744  0.2728
  742MOL0     O 2306   8.101   8.715   9.609 -0.5991  0.3978  0.3144
  742MOL0     C 2307   7.993   8.623   9.308 -0.3149 -1.0388 -0.0288
  742MOL0     C 2308   7.896   8.573   9.241  0.4523  0.1477 -0.2075
  742MOL0     N 2309   7.612   7.705   9.277 -0.6386 -0.0249  0.2808
  742MOL0     N 2310   7.512   7.633   9.228  0.0063 -0.1405  0.2256
  742MOL0     C 2311   7.053   7.989   9.838 -0.6812  1.0158  0.0977
  742MOL0     C 2312   7.155   8.067   9.899  0.9942 -0.3681  0.5149
  742MOL0     C 2313   7.520   8.180  10.172 -0.3573  0.7603  0.4175
  742MOL0     C 2314   7.558   8.238  10.046  0.4779 -0.4945 -0.6460
  742MOL0     C 2315   7.671   8.320  10.046  0.4052 -0.4241 -0.3690
  742MOL0     C 2316   7.756   8.325  10.161 -0.5025 -0.5098  0.4033
  742MOL0     O 2317   7.874   8.400  10.161  0.6280 -0.7529  0.6534
  742MOL0     C 2318   7.957   8.405  10.042 -0.5941 -0.4849 -0.0596
  742MOL0     C 2319   8.080   8.481  10.078 -0.4663  0.4754  0.8129
  742MOL0     C 2320   8.072   8.607  10.164  0.7526 -0.2598 -0.2882
  742MOL0     C 2321   8.220   8.643  10.206  0.1470  0.8007  0.1475
  742MOL0     C 2322   8.222   8.763  10.286 -0.4071 -1.2592 -0.8332
  742MOL0     C 2323   8.224   8.867  10.354  0.0890  0.0504 -0.1954
  742MOL0     C 2324   7.725   8.258  10.277 -0.3147  0.1040  1.4622
  742MOL0     C 2325   7.612   8.179  10.280 -0.3070 -0.6838  0.8331
  742MOL0     C 2326   7.592   8.102  10.408  0.9682 -0.5990 -0.0150
  742MOL0     H 2327   7.185   7.904  10.198  1.9836  3.2041  0.9154
  742MOL0     H 2328   6.991   7.794  10.111  1.8273  0.7634  2.0945
  742MOL0     H 2329   6.861   7.582   9.884  0.2916  0.2118 -0.5143
  742MOL0     H 2330   6.989   7.636   9.996 -1.9898 -0.1068  1.8091
  742MOL0     H 2331   7.137   7.694   9.802 -0.0432 -0.0043 -0.0921
  742MOL0     H 2332   7.082   7.523   9.806  0.0118  0.1071 -1.1035
  742MOL0     H 2333   6.951   7.531   9.629  3.0734 -1.9063  0.1049
  742MOL0     H 2334   6.935   7.713   9.625  1.0679  2.0860  1.2117
  742MOL0     H 2335   7.191   7.711   9.573 -0.1464  1.7508 -3.5064
  742MOL0     H 2336   7.176   7.538   9.552 -0.9689  0.0299  0.7241
  742MOL0     H 2337   7.025   7.751   9.394 -0.2701  1.7158  3.7535
  742MOL0     H 2338   6.985   7.589   9.382  1.7666  0.3639 -3.2387
  742MOL0     H 2339   7.268   7.726   9.360 -0.3748  2.0686 -1.8895
  742MOL0     H 2340   7.253   7.558   9.326  2.9348  2.7673 -0.5146
  742MOL0     H 2341   7.138   7.776   9.141  4.3462  1.2840 -0.3865
  742MOL0     H 2342   7.107   7.600   9.133 -0.9583  1.4657 -1.1975
  742MOL0     H 2343   7.330   7.571   9.047  2.2138 -0.0577  0.0047
  742MOL0     H 2344   7.296   7.727   8.985  0.2841  0.1216 -0.3822
  742MOL0     H 2345   7.467   7.928   9.084 -0.3852  1.4238  2.0572
  742MOL0     H 2346   7.784   7.909   9.302  0.3044 -0.7088 -1.4394
  742MOL0     H 2347   7.642   8.018   9.329 -2.0240 -0.1777 -1.3747
  742MOL0     H 2348   7.827   7.983   9.102  0.4899 -1.2046  2.2290
  742MOL0     H 2349   7.652   8.047   9.077 -0.2389  3.1861  0.6295
  742MOL0     H 2350   7.868   8.140   9.297  1.8966  3.2345  0.2149
  742MOL0     H 2351   7.878   8.217   9.148  1.7119 -0.8878  1.4793
  742MOL0     H 2352   7.624   8.252   9.145 -2.0737  1.1878  0.8381
  742MOL0     H 2353   7.640   8.248   9.318  1.9343  1.5754  1.6709
  742MOL0     H 2354   7.826   8.328   9.465  0.3140  0.5130 -0.0244
  742MOL0     H 2355   8.137   8.429   9.622 -0.4980 -0.5221 -1.6447
  742MOL0     H 2356   7.996   8.333   9.659  3.9955 -0.7626  2.5453
  742MOL0     H 2357   7.986   8.495   9.700 -0.5550  0.7408 -0.7317
  742MOL0     H 2358   8.313   8.969   9.490 -1.4927  0.3984  1.4832
  742MOL0     H 2359   8.480   9.035   9.630 -0.9200  0.4610  0.6256
  742MOL0     H 2360   8.624   8.783   9.929  0.0014 -2.1682 -0.4815
  742MOL0     H 2361   8.755   8.727   9.836 -2.0869 -0.8376  0.2009
  742MOL0     H 2362   8.820   8.858  10.046  0.0909  0.1567  0.6710
  742MOL0     H 2363   8.873   8.947   9.898 -3.5295  3.9865 -2.9453
  742MOL0     H 2364   8.662   9.097   9.948  1.1191 -0.0898 -0.7850
  742MOL0     H 2365   8.792   9.104  10.060 -0.6637  3.1067 -3.7318
  742MOL0     H 2366   8.542   8.924  10.111 -3.0459  2.3377  2.6466
  742MOL0     H 2367   8.562   9.091  10.161  4.2451  3.4619 -0.6554
  742MOL0     H 2368   8.757   8.874  10.252 -0.4824 -1.4218  1.9763
  742MOL0     H 2369   8.730   9.046  10.305 -2.2500  0.3253  0.2853
  742MOL0     H 2370   8.535   8.816  10.339  2.4420 -1.4112 -1.1124
  742MOL0     H 2371   8.491   8.988  10.359 -0.4874 -1.9289  0.9792
  742MOL0     H 2372   8.634   9.017  10.541  0.9777  0.1995  0.7006
  742MOL0     H 2373   8.722   8.864  10.516 -0.0012  2.3035  0.8756
  742MOL0     H 2374   8.526   8.729  10.568 -0.5953  0.2320  0.4271
  742MOL0     H 2375   8.419   8.859  10.592 -0.6333 -1.0653 -3.1500
  742MOL0     H 2376   8.597   8.611   9.701 -2.1924 -0.5505  0.7781
  742MOL0     H 2377   8.402   8.554   9.537  1.3774 -0.6121 -0.3293
  742MOL0     H 2378   8.027   8.716   9.264 -1.2856 -0.6764 -0.0368
  742MOL0     H 2379   7.860   8.614   9.147 -1.1754  0.1644  0.3982
  742MOL0     H 2380   7.026   8.002   9.734  0.7009 -1.1555 -0.6025
  742MOL0     H 2381   7.206   8.144   9.842 -0.1349 -0.4690 -0.6679
  742MOL0     H 2382   7.488   8.246   9.963 -1.1962  0.5200  0.7986
  742MOL0     H 2383   7.697   8.367   9.951  0.3686  1.8669  0.6881
  742MOL0     H 2384   7.976   8.301  10.013  4.7785 -0.1735  1.1624
  742MOL0     H 2385   7.917   8.457   9.955 -0.8986 -1.5105 -0.5486
  742MOL0     H 2386   8.123   8.508   9.982 -5.2447  0.2622 -1.6793
  742MOL0     H 2387   8.157   8.409  10.108 -1.0893 -0.6736 -0.2325
  742MOL0     H 2388   8.008   8.680  10.114 -0.9654  0.8461  3.2431
  742MOL0     H 2389   8.027   8.576  10.258  0.9545  1.3771  0.3652
  742MOL0     H 2390   8.288   8.646  10.120 -2.1735  1.5560 -1.7525
  742MOL0     H 2391   8.259   8.563  10.270 -0.1930  1.5920  1.3693
  742MOL0     H 2392   8.231   8.958  10.409  0.2380  0.1716 -0.4117
  742MOL0     H 2393   7.793   8.273  10.360 -2.5081  0.1452  3.3468
  742MOL0     H 2394   7.498   8.122  10.459 -1.0525 -1.6935 -3.0036
  742MOL0     H 2395   7.594   7.995  10.387 -0.1350 -0.3257 -1.6773
  742MOL0     H 2396   7.678   8.114  10.474  1.5453  1.9744 -1.1029
  743MOL0     O 2397   0.943   3.580   5.762  0.0102  0.3593  0.2900
  743MOL0     C 2398   0.999   3.472   5.790 -0.0016 -0.3334  0.2574
  743MOL0     O 2399   0.925   3.361   5.821  0.3899  0.2943  0.0572
  743MOL0     C 2400   0.790   3.364   5.805  0.8369  0.3272 -1.4468
  743MOL0     C 2401   0.713   3.428   5.897 -0.0093  0.3671  0.4315
  743MOL0     C 2402   0.579   3.442   5.887  0.0363  0.7199  0.4993
  743MOL0     C 2403   0.512   3.377   5.777  0.1887 -0.4122  0.5289
  743MOL0     O 2404   0.377   3.371   5.770  0.3942 -0.3206  0.0310
  743MOL0     C 2405   0.308   3.492   5.808  0.1323 -0.6646  0.7950
  743MOL0     C 2406   0.158   3.472   5.794 -0.7088  0.1960 -0.2660
  743MOL0     C 2407   0.099   3.407   5.910  0.0053 -0.0414 -0.0317
  743MOL0     C 2408  -0.039   3.361   5.893  0.2350  0.1124  0.1162
  743MOL0     C 2409  -0.098   3.304   6.013  0.5324  1.0900  0.6236
  743MOL0     C 2410  -0.027   3.175   6.067 -0.9852 -0.4995  0.3625
  743MOL0     C 2411  -0.103   3.126   6.184 -0.3011 -0.5317  0.1618
  743MOL0     C 2412  -0.062   3.179   6.325 -0.4886 -0.1858 -0.0276
  743MOL0     N 2413   0.075   3.208   6.356  0.4685 -0.8059 -0.4949
  743MOL0     C 2414   0.178   3.119   6.362  0.1361  0.2074  0.0027
  743MOL0     C 2415   0.286   3.194   6.402  1.0741  0.8301 -0.5622
  743MOL0     C 2416   0.429   3.141   6.401 -0.0058 -0.7474 -0.1915
  743MOL0     C 2417   0.496   3.165   6.532  0.1179  0.9243  0.0036
  743MOL0     C 2418   0.639   3.115   6.527  0.7405 -0.5140 -0.1700
  743MOL0     C 2419   0.720   3.151   6.641  0.0973 -0.3288  0.2202
  743MOL0     O 2420   0.860   3.148   6.596 -0.2061 -0.8953 -0.3278
  743MOL0     C 2421   0.954   3.172   6.690  0.0210 -0.0313  0.4721
  743MOL0     C 2422   0.936   3.164   6.824 -0.0477  0.5634  0.1570
  743MOL0     C 2423   1.045   3.156   6.912  0.5916  0.0188  0.7358
  743MOL0     C 2424   1.016   3.124   7.064 -0.5484 -0.2185  0.1269
  743MOL0     C 2425   1.176   3.161   6.861 -0.3366 -0.6764 -1.0911
  743MOL0     C 2426   1.299   3.161   6.950  1.1742  0.0440  0.4781
  743MOL0     O 2427   1.385   3.061   6.931 -0.6431  0.9725 -0.4194
  743MOL0     C 2428   1.488   3.044   7.022 -0.5913 -0.9407 -0.0264
  743MOL0     C 2429   1.613   3.118   7.005 -0.8737 -0.1907 -0.1021
  743MOL0     C 2430   1.734   3.068   7.071  0.4288  0.2030 -0.2083
  743MOL0     C 2431   1.712   2.974   7.178 -0.6235  0.0660 -0.1110
  743MOL0     O 2432   1.810   2.943   7.274 -0.8341  0.4045  0.6854
  743MOL0     C 2433   1.949   2.966   7.257 -0.0097  1.0305 -0.6699
  743MOL0     C 2434   2.025   2.919   7.390  0.5792  0.6480 -1.1538
  743MOL0     C 2435   2.008   3.024   7.500  0.1124  0.3380 -0.0398
  743MOL0     C 2436   2.110   3.002   7.613 -0.5361  0.3580  0.6537
  743MOL0     C 2437   2.100   3.109   7.729  1.1111  0.3593  0.7897
  743MOL0     C 2438   2.134   3.245   7.692 -0.2174  0.1311  0.2825
  743MOL0     C 2439   2.146   3.332   7.815 -0.0045 -0.0754  0.5355
  743MOL0     C 2440   2.140   3.489   7.789 -1.0806 -0.8303 -0.0980
  743MOL0    Cl 2441   2.231   3.537   7.644  0.1302  0.2955 -0.1323
  743MOL0     C 2442   1.592   2.915   7.192 -0.1136  0.8611  0.5257
  743MOL0     C 2443   1.483   2.944   7.109  0.0787  0.0078 -0.4211
  743MOL0     O 2444   1.310   3.253   7.029 -0.0023  0.2726 -0.2562
  743MOL0     C 2445   1.197   3.192   6.727  0.8986  0.2905  0.2284
  743MOL0     C 2446   1.082   3.201   6.646 -0.4390 -0.7005  0.3958
  743MOL0     N 2447   0.252   3.324   6.400 -0.1465 -0.1556  0.3583
  743MOL0     N 2448   0.128   3.328   6.372  0.9313 -0.9480  0.6756
  743MOL0     C 2449   0.587   3.307   5.681  0.3660  0.0984  0.6257
  743MOL0     C 2450   0.723   3.308   5.697 -0.3149 -0.1142  0.3733
  743MOL0     C 2451   1.156   3.461   5.791  0.5966 -0.2950 -0.3387
  743MOL0     C 2452   1.222   3.583   5.773 -0.5638  0.5410 -0.7994
  743MOL0     C 2453   1.365   3.585   5.763  0.2691 -0.1013 -0.0007
  743MOL0     C 2454   1.439   3.465   5.769  0.0394  0.7607 -0.6936
  743MOL0     O 2455   1.575   3.451   5.760  0.0418  0.2055  0.0014
  743MOL0     C 2456   1.647   3.569   5.788  0.7694 -0.2230 -0.3320
  743MOL0     C 2457   1.691   3.652   5.663 -0.0615 -0.7749  0.3597
  743MOL0     C 2458   1.759   3.783   5.718 -0.4722 -0.2435  0.5596
  743MOL0     C 2459   1.770   3.879   5.599  0.0090  1.2076 -0.5404
  743MOL0     C 2460   1.812   4.017   5.639 -0.2637 -0.3274 -0.4332
  743MOL0     C 2461   1.851   4.129   5.666  0.0648 -0.8350 -0.5152
  743MOL0     C 2462   1.363   3.338   5.774 -0.3712  0.4380  0.3885
  743MOL0     C 2463   1.228   3.342   5.788 -0.0529  0.1186 -0.1843
  743MOL0     C 2464   1.150   3.212   5.791  0.1329  0.5605 -0.1918
  743MOL0     H 2465   0.750   3.469   5.990  4.4207  1.3271 -1.4698
  743MOL0     H 2466   0.521   3.495   5.962  0.6323  0.6113  1.0409
  743MOL0     H 2467   0.334   3.578   5.745  1.3816 -1.7623 -0.2488
  743MOL0     H 2468   0.320   3.525   5.912  2.9300  0.4215  0.2328
  743MOL0     H 2469   0.123   3.574   5.783  3.1081  1.6708 -0.3547
  743MOL0     H 2470   0.135   3.420   5.701 -0.9416 -1.1088  0.4811
  743MOL0     H 2471   0.162   3.319   5.923 -1.1566 -0.7336  1.1306
  743MOL0     H 2472   0.100   3.470   6.000 -0.1424  0.1897 -0.1897
  743MOL0     H 2473  -0.101   3.444   5.859 -0.8203 -0.4513  0.6087
  743MOL0     H 2474  -0.032   3.290   5.810  4.7963  1.0068 -0.5262
  743MOL0     H 2475  -0.200   3.276   5.987 -0.3062  0.7667  3.8707
  743MOL0     H 2476  -0.104   3.383   6.089  0.1933  0.6630  1.0466
  743MOL0     H 2477  -0.024   3.107   5.982 -3.8087  1.2305 -1.2858
  743MOL0     H 2478   0.078   3.197   6.090 -1.2923 -1.2304  2.8415
  743MOL0     H 2479  -0.075   3.020   6.187 -0.5857 -0.6170 -0.2027
  743MOL0     H 2480  -0.208   3.123   6.154 -0.0846  1.7208 -1.0314
  743MOL0     H 2481  -0.110   3.277   6.337  0.2764  0.0890  0.9149
  743MOL0     H 2482  -0.094   3.111   6.404  0.6567  1.6594  2.1526
  743MOL0     H 2483   0.179   3.011   6.347  0.9196  0.2397 -0.2424
  743MOL0     H 2484   0.485   3.198   6.327  1.5789  1.8746  2.7466
  743MOL0     H 2485   0.426   3.035   6.376 -1.3011 -0.7993  0.1330
  743MOL0     H 2486   0.499   3.271   6.557  0.9609  1.0220 -0.4502
  743MOL0     H 2487   0.430   3.123   6.608  0.1344 -1.0981 -1.0354
  743MOL0     H 2488   0.647   3.010   6.498 -0.7077 -0.8777  0.6349
  743MOL0     H 2489   0.685   3.171   6.446 -1.7991 -0.6959 -1.8364
  743MOL0     H 2490   0.676   3.245   6.676 -0.8282 -0.7841  0.3305
  743MOL0     H 2491   0.692   3.073   6.713 -3.0965 -0.7108 -1.2828
  743MOL0     H 2492   0.841   3.149   6.874  0.8780 -0.2863  1.7547
  743MOL0     H 2493   1.095   3.156   7.133  1.0861 -1.3871 -1.1001
  743MOL0     H 2494   0.998   3.017   7.080  0.4187 -0.1062  2.3642
  743MOL0     H 2495   0.931   3.183   7.096  0.0696  2.3816 -2.5866
  743MOL0     H 2496   1.623   3.202   6.937 -0.3423  0.6808  1.0227
  743MOL0     H 2497   1.829   3.112   7.045 -0.8080  1.1908 -3.5760
  743MOL0     H 2498   1.983   2.896   7.180 -0.2239 -1.8103  1.6288
  743MOL0     H 2499   1.972   3.069   7.229 -0.7033  1.4619  0.3045
  743MOL0     H 2500   1.984   2.822   7.418  0.6683  0.7730 -0.5856
  743MOL0     H 2501   2.130   2.906   7.366  1.1153  2.8837 -0.3357
  743MOL0     H 2502   1.906   3.020   7.539 -0.0918  0.9295 -0.4904
  743MOL0     H 2503   2.018   3.120   7.447  0.4925  2.1809  3.1213
  743MOL0     H 2504   2.209   2.993   7.566 -0.5859  0.4089  0.5408
  743MOL0     H 2505   2.087   2.909   7.666 -1.6327  0.7290  0.8342
  743MOL0     H 2506   2.001   3.108   7.775  0.9188  3.1220  0.5641
  743MOL0     H 2507   2.172   3.078   7.805  1.6887 -2.8471 -0.8842
  743MOL0     H 2508   2.059   3.283   7.622  0.5824 -0.4494 -0.9334
  743MOL0     H 2509   2.227   3.256   7.634  1.6311  0.5408  3.1385
  743MOL0     H 2510   2.234   3.291   7.863 -1.0474 -2.6904  0.3613
  743MOL0     H 2511   2.058   3.317   7.879 -1.6501  1.7536 -1.1226
  743MOL0     H 2512   2.175   3.541   7.879  1.0840 -0.9387 -0.8062
  743MOL0     H 2513   2.042   3.534   7.773 -0.7950 -0.5483 -1.1544
  743MOL0     H 2514   1.575   2.839   7.267  2.4082  0.9614  1.2903
  743MOL0     H 2515   1.396   2.880   7.115  0.8401 -1.4067 -2.9491
  743MOL0     H 2516   1.289   3.205   6.671 -0.9377  1.9865 -2.6912
  743MOL0     H 2517   1.098   3.245   6.548 -0.4806  2.6882  1.7710
  743MOL0     H 2518   0.552   3.263   5.589 -0.6368  0.4158  0.8469
  743MOL0     H 2519   0.791   3.265   5.625 -1.6478  0.7462 -1.4683
  743MOL0     H 2520   1.169   3.678   5.777  0.2102  0.9580  2.1514
  743MOL0     H 2521   1.407   3.684   5.750  0.9744 -0.3070  0.6296
  743MOL0     H 2522   1.593   3.619   5.869 -0.2984 -1.9203  0.0380
  743MOL0     H 2523   1.744   3.536   5.827  0.8064 -0.7239 -0.8421
  743MOL0     H 2524   1.605   3.670   5.598  0.6172 -0.2685 -0.4181
  743MOL0     H 2525   1.768   3.599   5.605  2.2004  2.2328  0.3683
  743MOL0     H 2526   1.694   3.829   5.793  0.7036  2.2048  0.1824
  743MOL0     H 2527   1.859   3.758   5.754 -1.0132 -3.2553  0.2618
  743MOL0     H 2528   1.664   3.885   5.572 -0.9091 -2.3506  1.5432
  743MOL0     H 2529   1.830   3.839   5.517 -2.6766 -1.6005 -1.3555
  743MOL0     H 2530   1.879   4.229   5.693 -2.1493  0.0644 -1.3264
  743MOL0     H 2531   1.411   3.241   5.770  1.9748  1.5307 -0.1842
  743MOL0     H 2532   1.216   3.125   5.785 -1.0763 -0.2980 -2.3247
  743MOL0     H 2533   1.101   3.204   5.888  2.2240 -0.0538  0.8664
  743MOL0     H 2534   1.079   3.210   5.707  1.0985 -2.2307 -1.0307
  744MOL0     O 2535   5.259   4.700   8.931  0.1296  0.3020 -0.4388
  744MOL0     C 2536   5.208   4.714   8.820 -0.5915 -0.1182 -0.2085
  744MOL0     O 2537   5.234   4.817   8.738  0.4070 -0.4993  0.4612
  744MOL0     C 2538   5.331   4.913   8.757  0.2024 -0.4621 -0.4481
  744MOL0     C 2539   5.403   4.940   8.870  0.1386 -0.3090 -0.4611
  744MOL0     C 2540   5.500   5.042   8.877  0.1695 -0.0909 -0.1416
  744MOL0     C 2541   5.513   5.125   8.771  0.6072  0.5706 -0.2677
  744MOL0     O 2542   5.590   5.235   8.772  0.3865 -0.3438  0.2863
  744MOL0     C 2543   5.695   5.256   8.872 -0.5278 -0.1526  0.3654
  744MOL0     C 2544   5.779   5.379   8.837  0.1009  1.6098  0.0864
  744MOL0     C 2545   5.884   5.386   8.941 -0.7344 -0.5759  0.0026
  744MOL0     C 2546   5.974   5.506   8.914 -0.0843 -0.2486  0.4502
  744MOL0     C 2547   6.077   5.544   9.023 -0.0527 -1.6532 -0.7923
  744MOL0     C 2548   6.190   5.628   8.963 -0.4450  0.3993 -0.7614
  744MOL0     C 2549   6.280   5.690   9.080 -0.8206 -0.6300  1.0862
  744MOL0     C 2550   6.404   5.763   9.014  0.0773 -0.1876 -0.2870
  744MOL0     N 2551   6.484   5.814   9.114 -0.1759  0.4426 -0.3971
  744MOL0     C 2552   6.532   5.943   9.110  0.4106 -0.4293 -1.0014
  744MOL0     C 2553   6.635   5.951   9.202  0.3028 -0.6175 -0.1663
  744MOL0     C 2554   6.711   6.080   9.228  0.2607  0.7641 -0.3146
  744MOL0     C 2555   6.810   6.111   9.115  0.9147  0.9541  0.0927
  744MOL0     C 2556   6.912   6.225   9.173 -0.1587  0.6874 -0.2271
  744MOL0     C 2557   6.992   6.305   9.068  0.3583  0.7931  0.4473
  744MOL0     O 2558   6.922   6.426   9.037 -0.0246 -0.5797 -0.0750
  744MOL0     C 2559   6.999   6.531   8.984 -0.4079 -0.9756 -0.0099
  744MOL0     C 2560   7.129   6.532   8.924  0.3452  1.1080  0.1290
  744MOL0     C 2561   7.205   6.642   8.891 -0.4149  0.3486 -0.2322
  744MOL0     C 2562   7.345   6.608   8.840 -0.0741 -0.5473 -0.1247
  744MOL0     C 2563   7.160   6.776   8.926  1.3509 -0.0461  0.5434
  744MOL0     C 2564   7.236   6.901   8.900  0.1815  0.2041  0.1813
  744MOL0     O 2565   7.201   7.017   8.966 -0.4564  0.0595 -0.1209
  744MOL0     C 2566   7.268   7.135   8.947  0.2810  0.3269  0.8099
  744MOL0     C 2567   7.194   7.245   8.880 -0.7511  0.4570 -0.5866
  744MOL0     C 2568   7.266   7.361   8.831 -0.4545 -0.3939 -0.1536
  744MOL0     C 2569   7.400   7.371   8.871  0.1910 -0.5085 -1.1819
  744MOL0     O 2570   7.470   7.484   8.831 -0.2960 -0.0199 -0.4117
  744MOL0     C 2571   7.612   7.478   8.800  0.4402  0.2867  0.1930
  744MOL0     C 2572   7.664   7.606   8.721  0.2782  0.0114  0.2649
  744MOL0     C 2573   7.683   7.721   8.811 -0.7335  0.4127  0.0781
  744MOL0     C 2574   7.719   7.856   8.748  0.1729 -0.8614 -0.0547
  744MOL0     C 2575   7.867   7.862   8.684  0.0463 -0.3236 -0.3368
  744MOL0     C 2576   7.900   7.996   8.622 -0.5199 -0.7646  0.8128
  744MOL0     C 2577   7.912   8.099   8.745 -0.5345  0.9982 -0.8008
  744MOL0     C 2578   8.001   8.228   8.713  0.2717 -0.8352 -0.4474
  744MOL0    Cl 2579   8.007   8.337   8.856  0.1935  0.0794  0.4299
  744MOL0     C 2580   7.466   7.275   8.941  0.8301  0.1724 -0.0597
  744MOL0     C 2581   7.408   7.153   8.968  0.4255 -0.9838 -0.4668
  744MOL0     O 2582   7.310   6.891   8.802  0.3320  0.0606  1.0482
  744MOL0     C 2583   7.030   6.783   8.985 -0.4080  0.4625  0.3711
  744MOL0     C 2584   6.956   6.666   9.016  0.3808  0.6494  0.4951
  744MOL0     N 2585   6.661   5.822   9.250  0.0795 -0.7604  0.6336
  744MOL0     N 2586   6.566   5.752   9.203  0.0617 -0.1611 -0.5276
  744MOL0     C 2587   5.436   5.101   8.661  0.3752 -0.8643 -1.0368
  744MOL0     C 2588   5.354   4.987   8.645 -0.6822  0.2933  0.9531
  744MOL0     C 2589   5.104   4.610   8.779  0.6599 -0.0212  0.7556
  744MOL0     C 2590   5.091   4.496   8.861 -0.1970 -0.0889 -0.6194
  744MOL0     C 2591   4.978   4.414   8.855 -0.0410  0.3158 -0.4623
  744MOL0     C 2592   4.879   4.434   8.762 -0.2526 -0.7361 -0.1048
  744MOL0     O 2593   4.768   4.344   8.760 -0.4826 -0.0798  0.4449
  744MOL0     C 2594   4.718   4.277   8.872 -0.2016  0.5644  0.5304
  744MOL0     C 2595   4.601   4.196   8.837  1.0465  0.1636 -0.2265
  744MOL0     C 2596   4.485   4.287   8.827  0.1806 -0.6875 -0.0351
  744MOL0     C 2597   4.361   4.229   8.750  0.4443 -0.1034 -0.3895
  744MOL0     C 2598   4.293   4.128   8.830 -0.4619 -0.5480 -0.1372
  744MOL0     C 2599   4.230   4.050   8.902 -0.0158 -0.8563  0.5218
  744MOL0     C 2600   4.894   4.533   8.668 -0.7621  0.2981  0.1463
  744MOL0     C 2601   5.011   4.622   8.673  0.1912 -0.1935 -0.5664
  744MOL0     C 2602   5.018   4.724   8.568  0.1645 -0.4169 -0.3566
  744MOL0     H 2603   5.397   4.883   8.962  3.2369 -0.4483 -0.2125
  744MOL0     H 2604   5.547   5.070   8.971 -1.0746  3.1730 -0.3741
  744MOL0     H 2605   5.754   5.165   8.886 -1.6703 -1.6432 -3.2727
  744MOL0     H 2606   5.654   5.284   8.970 -0.1496  1.4112  0.1067
  744MOL0     H 2607   5.818   5.384   8.735  1.2586 -2.1855  0.1751
  744MOL0     H 2608   5.707   5.458   8.861 -1.5193  0.0016  0.8029
  744MOL0     H 2609   5.846   5.389   9.044 -1.5300  3.6103 -0.2476
  744MOL0     H 2610   5.948   5.298   8.936 -1.9258 -1.5661  1.2747
  744MOL0     H 2611   6.026   5.483   8.820 -0.5328  2.2597 -0.4999
  744MOL0     H 2612   5.901   5.587   8.901 -1.1481 -1.3171 -0.4617
  744MOL0     H 2613   6.111   5.457   9.081 -3.1399 -2.7011 -0.3486
  744MOL0     H 2614   6.014   5.608   9.085 -0.6754  0.0783 -3.0733
  744MOL0     H 2615   6.254   5.560   8.907 -0.0984  1.0954 -1.2228
  744MOL0     H 2616   6.150   5.703   8.894 -2.5355  0.4079  0.4000
  744MOL0     H 2617   6.313   5.609   9.146  0.2702 -0.0337  1.2981
  744MOL0     H 2618   6.227   5.769   9.133  1.5495  0.7232  1.5968
  744MOL0     H 2619   6.463   5.694   8.954 -3.1784 -1.6464 -2.0950
  744MOL0     H 2620   6.369   5.850   8.957 -0.3726  0.3010  0.6996
  744MOL0     H 2621   6.499   6.023   9.044 -1.6994 -0.5362 -0.1686
  744MOL0     H 2622   6.772   6.063   9.317 -2.0101 -0.1444  1.1493
  744MOL0     H 2623   6.640   6.161   9.248  0.0988  0.1119  1.9851
  744MOL0     H 2624   6.862   6.023   9.076  0.9878 -0.3439  2.8384
  744MOL0     H 2625   6.761   6.153   9.027  1.1042  1.9071  0.4279
  744MOL0     H 2626   6.848   6.290   9.235 -0.1820  1.7413 -1.3122
  744MOL0     H 2627   6.978   6.176   9.246  0.0630  0.3903 -0.6272
  744MOL0     H 2628   7.090   6.313   9.115 -0.4770 -0.6652  2.5332
  744MOL0     H 2629   7.020   6.259   8.973  2.0588 -0.6947  1.6240
  744MOL0     H 2630   7.177   6.442   8.887 -0.0380  0.1456  1.8565
  744MOL0     H 2631   7.420   6.670   8.890 -1.2056 -1.7107  3.3202
  744MOL0     H 2632   7.351   6.624   8.732 -4.5619 -1.6065 -0.7589
  744MOL0     H 2633   7.384   6.509   8.866  1.2751  0.2651  1.0644
  744MOL0     H 2634   7.087   7.243   8.859 -1.1367  2.6911  0.8293
  744MOL0     H 2635   7.219   7.444   8.778 -0.0877  0.8019  1.3155
  744MOL0     H 2636   7.670   7.481   8.893  3.4927  4.4399 -1.5494
  744MOL0     H 2637   7.641   7.386   8.749  1.4681  1.2027 -0.9380
  744MOL0     H 2638   7.759   7.590   8.669  1.9766  1.1101  2.8317
  744MOL0     H 2639   7.589   7.639   8.649 -1.9229  0.2005  2.5061
  744MOL0     H 2640   7.758   7.688   8.884 -1.2378 -0.5033  0.1845
  744MOL0     H 2641   7.593   7.731   8.873  0.7190 -0.6779  2.5078
  744MOL0     H 2642   7.715   7.926   8.832  2.0902 -0.9379  0.1476
  744MOL0     H 2643   7.646   7.888   8.673 -1.7807  0.1481  2.1672
  744MOL0     H 2644   7.930   7.846   8.772  1.2522  1.0381 -0.9069
  744MOL0     H 2645   7.871   7.777   8.615  2.7601  0.5765 -1.4260
  744MOL0     H 2646   7.815   8.030   8.563  0.1276 -0.4245  0.0463
  744MOL0     H 2647   7.988   7.994   8.556 -1.4043  0.5049 -0.4842
  744MOL0     H 2648   7.968   8.037   8.816 -1.2628 -0.3697 -1.3673
  744MOL0     H 2649   7.809   8.122   8.774 -0.0038 -1.2296  3.7001
  744MOL0     H 2650   7.949   8.279   8.631 -3.0089  0.1038  2.0104
  744MOL0     H 2651   8.104   8.198   8.688  0.8146  0.8856 -0.3959
  744MOL0     H 2652   7.574   7.268   8.942  0.7408 -1.7616  0.1280
  744MOL0     H 2653   7.474   7.070   8.989  0.5700 -0.3875  1.6281
  744MOL0     H 2654   6.986   6.878   9.017 -2.6886 -1.1816  2.5180
  744MOL0     H 2655   6.863   6.661   9.071 -0.2343 -0.1946 -0.5871
  744MOL0     H 2656   5.455   5.174   8.582  3.4572 -2.0605 -1.5563
  744MOL0     H 2657   5.298   4.974   8.552 -0.6376  1.9925  0.6379
  744MOL0     H 2658   5.164   4.488   8.942 -0.0394  3.0809 -0.3325
  744MOL0     H 2659   4.971   4.339   8.933 -0.2428  1.3487  0.5387
  744MOL0     H 2660   4.792   4.206   8.910  0.0965  1.2730  1.3093
  744MOL0     H 2661   4.703   4.352   8.950  2.8294 -1.8451  3.7289
  744MOL0     H 2662   4.568   4.126   8.914  2.2635  0.8924  1.0046
  744MOL0     H 2663   4.613   4.147   8.740 -0.3313  0.3052 -0.4957
  744MOL0     H 2664   4.454   4.332   8.922  0.5851  0.2664 -0.3449
  744MOL0     H 2665   4.500   4.383   8.776 -3.4421  0.2789  0.4342
  744MOL0     H 2666   4.396   4.188   8.655  0.9360  2.4931 -1.4248
  744MOL0     H 2667   4.288   4.309   8.735  0.9236  0.0373 -2.2816
  744MOL0     H 2668   4.188   3.987   8.978 -0.2038 -2.9783 -1.2252
  744MOL0     H 2669   4.818   4.552   8.592 -2.8388  2.0894  2.5313
  744MOL0     H 2670   5.093   4.690   8.496  2.2802  4.3248 -0.8005
  744MOL0     H 2671   4.919   4.739   8.522  1.2265 -0.5982 -2.8428
  744MOL0     H 2672   5.056   4.824   8.592  1.1488  0.0062 -3.2424
  745MOL0     O 2673   5.659   4.758   1.777 -0.9378 -0.7098 -0.3343
  745MOL0     C 2674   5.632   4.753   1.896 -0.5581 -0.9645 -0.2048
  745MOL0     O 2675   5.680   4.664   1.986  0.4013  0.6732  0.3150
  745MOL0     C 2676   5.815   4.636   1.978 -0.7646 -0.4435  0.5314
  745MOL0     C 2677   5.918   4.711   1.920 -0.7654 -0.9306 -0.6181
  745MOL0     C 2678   6.050   4.676   1.942  0.0905 -0.1501 -0.0587
  745MOL0     C 2679   6.078   4.563   2.016 -0.4916  0.5547  1.0040
  745MOL0     O 2680   6.208   4.531   2.022  0.3993  0.0123 -0.0228
  745MOL0     C 2681   6.263   4.477   2.140  0.1649 -0.0240 -0.6168
  745MOL0     C 2682   6.417   4.491   2.112 -0.1353 -0.1654 -0.0503
  745MOL0     C 2683   6.456   4.630   2.153 -0.2015  1.0166  0.8629
  745MOL0     C 2684   6.591   4.670   2.106  0.2386  0.4522  0.0013
  745MOL0     C 2685   6.653   4.768   2.203 -0.8948  0.1850 -0.0131
  745MOL0     C 2686   6.799   4.811   2.162  0.1363 -0.2806  0.5969
  745MOL0     C 2687   6.892   4.683   2.158 -0.4104 -0.0074  0.3405
  745MOL0     C 2688   7.039   4.715   2.220 -0.6367  0.1343  0.7459
  745MOL0     N 2689   7.111   4.807   2.132  1.1288 -0.4201 -0.3459
  745MOL0     C 2690   7.127   4.936   2.176 -0.9355 -0.3633 -0.8564
  745MOL0     C 2691   7.200   5.001   2.089 -0.9247 -0.3373  0.6680
  745MOL0     C 2692   7.266   5.138   2.108  0.4319 -0.0717  0.0582
  745MOL0     C 2693   7.412   5.143   2.061  0.7189 -0.2743  0.1158
  745MOL0     C 2694   7.497   5.014   2.098 -0.3296 -0.7441  0.6384
  745MOL0     C 2695   7.648   5.039   2.087 -0.7903  0.0086  0.0372
  745MOL0     O 2696   7.680   5.151   2.179  0.7266 -0.4921  0.3143
  745MOL0     C 2697   7.812   5.190   2.189 -0.2499  0.6988 -0.6163
  745MOL0     C 2698   7.844   5.316   2.253  0.5961 -0.1760 -0.3490
  745MOL0     C 2699   7.977   5.361   2.256  0.7163 -0.0071 -0.0090
  745MOL0     C 2700   7.992   5.494   2.329 -0.0383  0.2836 -0.0194
  745MOL0     C 2701   8.074   5.289   2.183 -0.1090  0.8373 -0.0401
  745MOL0     C 2702   8.218   5.338   2.171  0.2848  0.5610  0.6776
  745MOL0     O 2703   8.243   5.474   2.173  0.5292  0.1975 -0.1491
  745MOL0     C 2704   8.368   5.513   2.200  0.6218 -0.4729  0.6339
  745MOL0     C 2705   8.428   5.520   2.329 -0.0582  0.1354 -0.2377
  745MOL0     C 2706   8.567   5.574   2.343 -0.3074  0.2336  0.1515
  745MOL0     C 2707   8.629   5.627   2.222 -0.1102 -0.2797  0.8303
  745MOL0     O 2708   8.750   5.690   2.234  0.2425  0.3431  1.0013
  745MOL0     C 2709   8.849   5.669   2.342 -1.1816  0.8893 -0.6008
  745MOL0     C 2710   8.933   5.799   2.343 -0.5263 -0.4407 -0.3713
  745MOL0     C 2711   9.091   5.765   2.333 -0.7482 -0.2638  0.1054
  745MOL0     C 2712   9.134   5.734   2.185  0.7105 -0.9746  0.3186
  745MOL0     C 2713   9.254   5.650   2.182 -0.1593 -1.1713 -0.5203
  745MOL0     C 2714   9.295   5.599   2.038  0.7694 -0.2300  0.2426
  745MOL0     C 2715   9.411   5.496   2.035  0.7172 -0.6570 -0.9875
  745MOL0     C 2716   9.480   5.494   1.892  0.5928 -0.5357 -0.5823
  745MOL0    Cl 2717   9.570   5.649   1.857  0.1138  0.5466  0.3252
  745MOL0     C 2718   8.559   5.634   2.105  0.2050  0.3644  0.3742
  745MOL0     C 2719   8.426   5.578   2.092 -0.2887 -0.2858 -0.1539
  745MOL0     O 2720   8.302   5.249   2.163 -0.2034 -0.4689 -0.5020
  745MOL0     C 2721   8.043   5.172   2.128  0.1176  0.2277  0.3245
  745MOL0     C 2722   7.918   5.117   2.131  0.4237 -0.5174 -0.6507
  745MOL0     N 2723   7.212   4.916   1.983  0.1704 -0.0967 -0.2980
  745MOL0     N 2724   7.168   4.798   2.016  0.2472  1.1788  0.4733
  745MOL0     C 2725   5.975   4.488   2.074 -0.0060  0.0312  0.2126
  745MOL0     C 2726   5.844   4.522   2.052  0.2719  0.1129 -0.1723
  745MOL0     C 2727   5.510   4.819   1.935 -0.3972  0.8639  0.5394
  745MOL0     C 2728   5.393   4.769   1.880 -0.2138  0.1250  0.1846
  745MOL0     C 2729   5.265   4.814   1.918 -0.7012  0.5818 -0.3274
  745MOL0     C 2730   5.253   4.914   2.012  0.1103 -0.8027  1.0306
  745MOL0     O 2731   5.131   4.961   2.052  0.0420 -0.4225 -0.4614
  745MOL0     C 2732   5.123   5.062   2.157 -1.4986 -0.1064 -0.2146
  745MOL0     C 2733   4.980   5.089   2.188 -0.6973  0.5374  0.7984
  745MOL0     C 2734   4.900   4.960   2.206  0.1642  0.5998  0.4825
  745MOL0     C 2735   4.971   4.851   2.288 -0.9465  0.7088  0.5498
  745MOL0     C 2736   4.970   4.893   2.429  0.1552  0.4127  0.5966
  745MOL0     C 2737   4.988   4.910   2.550 -0.3514 -0.0465  0.5489
  745MOL0     C 2738   5.374   4.969   2.064  0.2826 -0.4804 -0.3973
  745MOL0     C 2739   5.503   4.915   2.036 -0.5046 -0.7300  0.6144
  745MOL0     C 2740   5.621   4.947   2.132  0.2704 -0.4596  0.6047
  745MOL0     H 2741   5.898   4.791   1.849  3.5784  1.6043  0.5973
  745MOL0     H 2742   6.128   4.731   1.890 -0.0405  1.3977  1.2933
  745MOL0     H 2743   6.229   4.375   2.160 -0.3657  0.0825 -0.9674
  745MOL0     H 2744   6.234   4.531   2.231 -0.5177 -1.0849 -0.1986
  745MOL0     H 2745   6.467   4.419   2.179  1.4345  2.2339  1.5060
  745MOL0     H 2746   6.450   4.470   2.010 -0.6858 -1.5382  0.0265
  745MOL0     H 2747   6.373   4.690   2.114 -1.2549 -0.4702  0.7235
  745MOL0     H 2748   6.447   4.629   2.262  1.4449  0.0030  1.0244
  745MOL0     H 2749   6.651   4.579   2.092  0.5142  0.7448 -0.7867
  745MOL0     H 2750   6.584   4.708   2.004  0.9136 -2.1217 -1.1086
  745MOL0     H 2751   6.660   4.721   2.301  2.4013 -3.8543 -1.8166
  745MOL0     H 2752   6.590   4.857   2.203 -1.4574 -0.2014  0.5832
  745MOL0     H 2753   6.787   4.845   2.059  4.0801 -1.3375 -0.3573
  745MOL0     H 2754   6.843   4.901   2.206  0.8635 -0.3216 -0.0228
  745MOL0     H 2755   6.901   4.645   2.056  0.0125 -2.1872  1.1342
  745MOL0     H 2756   6.850   4.605   2.222  0.8066  0.6450  2.0162
  745MOL0     H 2757   7.032   4.753   2.323 -1.5876 -1.3904  1.2825
  745MOL0     H 2758   7.095   4.621   2.222 -1.6272 -0.6066 -2.1234
  745MOL0     H 2759   7.116   4.966   2.280  1.5680 -1.9651 -0.0153
  745MOL0     H 2760   7.277   5.157   2.216 -2.5816 -1.8488  0.7898
  745MOL0     H 2761   7.211   5.220   2.061  3.1023  1.5640 -0.4153
  745MOL0     H 2762   7.398   5.153   1.953 -2.7506  5.5143  0.6533
  745MOL0     H 2763   7.461   5.233   2.100  0.9158 -0.8320  1.2141
  745MOL0     H 2764   7.473   4.990   2.202 -0.1466 -2.2231  0.3718
  745MOL0     H 2765   7.464   4.933   2.031 -6.4614  1.9466 -0.2841
  745MOL0     H 2766   7.705   4.956   2.128 -0.8463  0.3878  0.9167
  745MOL0     H 2767   7.678   5.044   1.982  0.1621 -0.6231  0.2752
  745MOL0     H 2768   7.762   5.380   2.282  0.5786  0.4483 -1.6981
  745MOL0     H 2769   7.916   5.497   2.408  1.6687 -0.9560  1.7764
  745MOL0     H 2770   7.987   5.583   2.267  0.4837  0.1293 -0.2872
  745MOL0     H 2771   8.091   5.489   2.374  0.2549  0.8918 -0.5830
  745MOL0     H 2772   8.372   5.478   2.413  1.1306 -2.3692 -0.6019
  745MOL0     H 2773   8.605   5.566   2.444  0.7838  0.2753 -0.2518
  745MOL0     H 2774   8.811   5.651   2.443  4.0884 -1.2208  1.3576
  745MOL0     H 2775   8.911   5.580   2.327  2.2336  2.4188  2.8107
  745MOL0     H 2776   8.899   5.870   2.267  1.5397  1.6696  0.5545
  745MOL0     H 2777   8.912   5.848   2.439 -2.4530 -1.2206 -0.3471
  745MOL0     H 2778   9.107   5.670   2.383  1.3089 -1.5477 -2.6909
  745MOL0     H 2779   9.147   5.852   2.369  0.0839 -0.2028 -1.2332
  745MOL0     H 2780   9.170   5.826   2.137 -0.6144  0.5032  1.9976
  745MOL0     H 2781   9.050   5.693   2.127 -1.0543 -0.3234  2.2751
  745MOL0     H 2782   9.331   5.713   2.227 -2.4022  1.2987  0.1113
  745MOL0     H 2783   9.243   5.559   2.242  1.3848 -1.2078 -0.2524
  745MOL0     H 2784   9.324   5.690   1.984  0.0340 -0.2621 -0.2262
  745MOL0     H 2785   9.205   5.557   1.991  2.1136 -3.5852  0.3237
  745MOL0     H 2786   9.357   5.405   2.061 -1.7541  0.6588 -1.2545
  745MOL0     H 2787   9.495   5.512   2.103  0.2901  0.7196 -0.7504
  745MOL0     H 2788   9.414   5.471   1.807 -1.4837  2.1514  0.1689
  745MOL0     H 2789   9.555   5.415   1.896 -0.2577 -1.3590 -0.3955
  745MOL0     H 2790   8.593   5.681   2.013 -0.1408  0.3800  0.2528
  745MOL0     H 2791   8.363   5.575   2.004 -1.3612 -3.3336  0.6182
  745MOL0     H 2792   8.120   5.119   2.075  0.6432 -0.3069  1.5819
  745MOL0     H 2793   7.912   5.021   2.081 -2.1967 -0.6352 -0.2372
  745MOL0     H 2794   6.002   4.405   2.138  0.9088 -0.1391 -0.3796
  745MOL0     H 2795   5.759   4.473   2.099  2.0021 -3.3136 -0.3405
  745MOL0     H 2796   5.400   4.699   1.797  1.2182 -1.9502  1.9632
  745MOL0     H 2797   5.175   4.774   1.871 -1.0080  2.1282 -1.1157
  745MOL0     H 2798   5.181   5.039   2.247  1.4040  0.4181 -1.8274
  745MOL0     H 2799   5.178   5.149   2.119  0.5679 -1.1111  0.2965
  745MOL0     H 2800   4.931   5.138   2.103  0.1056  0.7901  0.4763
  745MOL0     H 2801   4.987   5.155   2.275  1.2610  0.8381  0.4439
  745MOL0     H 2802   4.797   4.978   2.238 -0.1541 -1.2334  0.6269
  745MOL0     H 2803   4.885   4.905   2.112  0.6845 -1.0076  1.3164
  745MOL0     H 2804   5.068   4.819   2.251 -1.0271  2.6898 -1.6197
  745MOL0     H 2805   4.912   4.759   2.288  1.7611 -1.1475 -1.1016
  745MOL0     H 2806   5.023   4.929   2.649  1.2150  0.4416 -0.0707
  745MOL0     H 2807   5.365   5.036   2.149 -0.4275  0.6187 -1.3148
  745MOL0     H 2808   5.620   4.883   2.221  0.9343  0.3802  1.2448
  745MOL0     H 2809   5.717   4.941   2.080 -0.4729  3.8972 -1.7607
  745MOL0     H 2810   5.606   5.045   2.177 -1.3033  0.3997 -1.6481
  746MOL0     O 2811   0.292  10.493  10.913 -0.0109  0.0995  0.0912
  746MOL0     C 2812   0.227  10.415  10.844 -0.0923  0.3939  0.1355
  746MOL0     O 2813   0.282  10.315  10.778  0.2176 -0.4049  1.3018
  746MOL0     C 2814   0.411  10.272  10.804 -0.0479  0.5840  0.4036
  746MOL0     C 2815   0.519  10.355  10.750 -0.2576 -0.2117  0.0670
  746MOL0     C 2816   0.646  10.302  10.757 -0.6428  0.4609  0.3826
  746MOL0     C 2817   0.671  10.177  10.833  0.3081 -1.1572 -0.1864
  746MOL0     O 2818   0.798  10.136  10.866 -0.6248 -0.0975 -0.0536
  746MOL0     C 2819   0.912  10.223  10.827  0.3896 -0.0817  0.2466
  746MOL0     C 2820   1.031  10.169  10.914 -0.9381 -0.2808  0.6860
  746MOL0     C 2821   1.158  10.162  10.846 -0.4658 -0.9390 -0.1739
  746MOL0     C 2822   1.218  10.313  10.832 -0.5668 -0.2958 -0.9708
  746MOL0     C 2823   1.354  10.309  10.771  0.3113  0.2283 -0.0742
  746MOL0     C 2824   1.401  10.437  10.713  0.2460 -0.5927  0.0058
  746MOL0     C 2825   1.530  10.426  10.633  0.7011 -0.1530 -0.1578
  746MOL0     C 2826   1.656  10.405  10.718  0.7817  0.2656 -0.0054
  746MOL0     N 2827   1.765  10.371  10.630  0.0890 -0.8578  0.5482
  746MOL0     C 2828   1.772  10.255  10.563  0.0267  0.5907 -0.0029
  746MOL0     C 2829   1.850  10.268  10.457  0.3042 -0.2998 -0.6772
  746MOL0     C 2830   1.895  10.163  10.354  0.0739 -1.2487 -0.3481
  746MOL0     C 2831   1.794  10.094  10.265  0.2536 -0.6994  0.7314
  746MOL0     C 2832   1.765  10.204  10.165  0.9378  0.8475  0.1784
  746MOL0     C 2833   1.676  10.149  10.055 -0.4625  0.8523  0.6217
  746MOL0     O 2834   1.555  10.104  10.122  0.0817 -0.0414 -0.0752
  746MOL0     C 2835   1.444  10.084  10.047 -0.4147 -0.5439  0.4710
  746MOL0     C 2836   1.343  10.024  10.104  0.7619  0.4046 -0.4446
  746MOL0     C 2837   1.212   9.999  10.050  0.7553 -0.0796  1.0341
  746MOL0     C 2838   1.101   9.944  10.132 -0.5564 -0.5356 -0.1178
  746MOL0     C 2839   1.189  10.039   9.915 -0.4296 -0.3975  0.1664
  746MOL0     C 2840   1.055  10.022   9.848  0.0463 -0.2613  0.3756
  746MOL0     O 2841   0.939  10.047   9.920  0.3224 -0.1467 -0.0093
  746MOL0     C 2842   0.817   9.996   9.888  0.1585 -1.2434  0.0859
  746MOL0     C 2843   0.786   9.886   9.804  0.0563 -0.4243  0.6340
  746MOL0     C 2844   0.656   9.841   9.785 -0.4715 -0.2991  0.1134
  746MOL0     C 2845   0.544   9.910   9.847 -0.8455  0.8701  0.4738
  746MOL0     O 2846   0.429   9.868   9.800  0.0254 -0.5331  0.1610
  746MOL0     C 2847   0.308   9.906   9.866  0.0103 -0.0661 -0.0383
  746MOL0     C 2848   0.184   9.811   9.853 -0.7185 -0.2339 -0.3554
  746MOL0     C 2849   0.224   9.662   9.836  0.4902 -0.7125 -0.2219
  746MOL0     C 2850   0.253   9.592   9.973 -0.4357 -0.9798 -0.3115
  746MOL0     C 2851   0.257   9.438   9.955 -0.7546  0.5608 -0.7059
  746MOL0     C 2852   0.122   9.374   9.919 -0.7112 -1.1284 -0.3903
  746MOL0     C 2853   0.121   9.228   9.963 -0.3805  0.4408  0.3435
  746MOL0     C 2854  -0.013   9.182  10.038 -0.1744  0.6564 -0.3119
  746MOL0    Cl 2855  -0.143   9.133   9.922  0.6905 -0.1296 -0.2449
  746MOL0     C 2856   0.568  10.018   9.925 -0.0968 -0.3146 -0.1202
  746MOL0     C 2857   0.703  10.061   9.945  0.3537 -0.1316  0.8041
  746MOL0     O 2858   1.058  10.001   9.728 -0.4249 -0.1140  0.0014
  746MOL0     C 2859   1.304  10.076   9.842  1.0135 -0.0234 -1.0975
  746MOL0     C 2860   1.423  10.106   9.908  0.0261  0.6312 -0.3032
  746MOL0     N 2861   1.888  10.405  10.450  0.6702 -0.1799 -0.4318
  746MOL0     N 2862   1.833  10.473  10.554  0.1562  0.7900  0.7220
  746MOL0     C 2863   0.557  10.100  10.871  0.5220 -0.8132  0.2298
  746MOL0     C 2864   0.433  10.148  10.855  0.6449  0.5966 -1.1318
  746MOL0     C 2865   0.105  10.477  10.788  0.6937  0.2052 -0.4443
  746MOL0     C 2866   0.064  10.443  10.658  0.1114 -0.2352  0.1295
  746MOL0     C 2867  -0.061  10.493  10.606  0.0099  0.7314 -0.1973
  746MOL0     C 2868  -0.142  10.580  10.678 -0.9025  0.6075  1.3443
  746MOL0     O 2869  -0.257  10.615  10.621  0.1248  0.6514  0.6525
  746MOL0     C 2870  -0.379  10.628  10.701 -0.1251 -0.1439 -0.2438
  746MOL0     C 2871  -0.499  10.606  10.604 -0.4621  0.3341 -0.0021
  746MOL0     C 2872  -0.631  10.664  10.642 -0.1587  0.2599  0.0366
  746MOL0     C 2873  -0.697  10.584  10.762 -0.7509  0.0846  0.0077
  746MOL0     C 2874  -0.823  10.650  10.789 -0.4897  0.1417 -0.8535
  746MOL0     C 2875  -0.940  10.687  10.821  0.4239  0.0724  1.6807
  746MOL0     C 2876  -0.110  10.607  10.815  0.1248 -0.0496 -0.0387
  746MOL0     C 2877   0.013  10.554  10.869 -0.0581  0.0844 -0.7910
  746MOL0     C 2878   0.034  10.572  11.016  0.0313 -0.2934  0.8429
  746MOL0     H 2879   0.490  10.443  10.693 -1.8913 -0.4146  0.5404
  746MOL0     H 2880   0.732  10.360  10.724 -0.6157 -0.3377 -1.0364
  746MOL0     H 2881   0.906  10.330  10.850 -1.5111 -0.2125  0.5145
  746MOL0     H 2882   0.933  10.211  10.720  1.3821  1.4780  0.2323
  746MOL0     H 2883   1.048  10.237  10.998  1.8123 -0.6651  0.5227
  746MOL0     H 2884   0.998  10.068  10.938 -2.5705  0.1482  0.3782
  746MOL0     H 2885   1.218  10.105  10.917  0.9244  0.7909  0.1374
  746MOL0     H 2886   1.143  10.107  10.753 -2.5742 -0.3072 -0.2475
  746MOL0     H 2887   1.146  10.365  10.768 -0.2503 -0.9686 -1.9080
  746MOL0     H 2888   1.222  10.371  10.924 -1.3072 -1.4906 -0.1591
  746MOL0     H 2889   1.348  10.234  10.692  0.8027 -0.9960  1.0179
  746MOL0     H 2890   1.424  10.277  10.849 -0.5257  2.0515  1.5111
  746MOL0     H 2891   1.325  10.493  10.657  1.0574 -1.1085 -1.6502
  746MOL0     H 2892   1.427  10.506  10.794 -1.3099  2.9237 -2.2431
  746MOL0     H 2893   1.541  10.520  10.578 -0.3111  0.0021 -0.1316
  746MOL0     H 2894   1.521  10.341  10.565  1.5357 -0.3255 -0.0548
  746MOL0     H 2895   1.684  10.505  10.752 -0.1914  0.2610  0.8584
  746MOL0     H 2896   1.650  10.335  10.802  1.1329  1.2573  0.8722
  746MOL0     H 2897   1.721  10.166  10.597 -0.2459  1.3257  1.6333
  746MOL0     H 2898   1.919  10.073  10.411 -2.6547 -2.3066 -0.7116
  746MOL0     H 2899   1.988  10.189  10.304  0.7820  2.5462  2.5170
  746MOL0     H 2900   1.849  10.014  10.215  1.3677 -1.5418  3.1496
  746MOL0     H 2901   1.704  10.067  10.321 -2.3524  2.9435 -1.2669
  746MOL0     H 2902   1.707  10.279  10.219 -2.5120 -0.5571 -1.3194
  746MOL0     H 2903   1.853  10.243  10.114  1.4427 -1.4277 -0.8127
  746MOL0     H 2904   1.661  10.221   9.973 -0.9044 -2.5262 -2.5190
  746MOL0     H 2905   1.734  10.065  10.016 -0.7449  0.3347  1.3006
  746MOL0     H 2906   1.348   9.998  10.209 -0.3063  1.0775 -0.2108
  746MOL0     H 2907   1.058   9.849  10.101  0.3176 -1.5150  1.5143
  746MOL0     H 2908   1.022  10.019  10.142  0.5173  0.6560 -0.3438
  746MOL0     H 2909   1.149   9.927  10.229  2.6958 -1.8482 -1.8088
  746MOL0     H 2910   0.865   9.832   9.752 -1.1392 -0.8012 -0.8350
  746MOL0     H 2911   0.633   9.752   9.727 -3.2998  0.2760  0.2204
  746MOL0     H 2912   0.323   9.905   9.975 -2.9593 -0.5869  0.4455
  746MOL0     H 2913   0.272  10.005   9.839 -0.5697 -0.5603 -1.1273
  746MOL0     H 2914   0.116   9.822   9.938 -1.1962  0.2457 -0.7917
  746MOL0     H 2915   0.128   9.845   9.765  1.6761  0.9381 -1.5049
  746MOL0     H 2916   0.312   9.653   9.772  0.6915  2.1583 -0.4698
  746MOL0     H 2917   0.141   9.612   9.786  0.7460 -1.0141 -0.3483
  746MOL0     H 2918   0.201   9.627  10.063  1.7773  2.9098 -0.3305
  746MOL0     H 2919   0.359   9.614   9.988 -0.5438 -0.2782 -0.5348
  746MOL0     H 2920   0.325   9.401   9.877 -0.8090 -1.9512  0.3207
  746MOL0     H 2921   0.296   9.392  10.047  1.0771  0.4349 -1.5048
  746MOL0     H 2922   0.104   9.378   9.811  0.8277  3.5567 -0.7260
  746MOL0     H 2923   0.042   9.432   9.966 -0.2750  1.8722 -3.0280
  746MOL0     H 2924   0.189   9.212  10.047 -2.6663 -2.7759  1.7934
  746MOL0     H 2925   0.158   9.160   9.886 -0.6615 -1.4974  1.8531
  746MOL0     H 2926  -0.042   9.263  10.105  0.1719  0.7109 -0.2292
  746MOL0     H 2927  -0.000   9.095  10.103  0.4095 -0.6232 -2.0400
  746MOL0     H 2928   0.479  10.065   9.967  1.1504  2.7665 -0.6166
  746MOL0     H 2929   0.725  10.148  10.007  0.6728  1.5000 -1.4510
  746MOL0     H 2930   1.292  10.112   9.740  1.6627  0.6761 -0.9328
  746MOL0     H 2931   1.503  10.148   9.848  0.7505 -0.6711 -0.2889
  746MOL0     H 2932   0.579  10.006  10.919 -0.0300  0.3447  2.9338
  746MOL0     H 2933   0.349  10.090  10.892  0.9866  0.9739  0.3095
  746MOL0     H 2934   0.122  10.373  10.598 -1.7614 -4.8551  3.0795
  746MOL0     H 2935  -0.081  10.464  10.504  2.4790 -1.7252 -0.1074
  746MOL0     H 2936  -0.367  10.557  10.783  0.1992  1.6438  1.2908
  746MOL0     H 2937  -0.392  10.727  10.745 -1.5513 -1.1592  1.7370
  746MOL0     H 2938  -0.509  10.497  10.610 -0.1863  0.3586  0.9968
  746MOL0     H 2939  -0.469  10.633  10.502  1.6991 -0.9848  0.2354
  746MOL0     H 2940  -0.617  10.769  10.672 -1.7105  0.6415 -0.5149
  746MOL0     H 2941  -0.687  10.654  10.549 -1.4842  1.5338  0.6664
  746MOL0     H 2942  -0.631  10.579  10.849 -1.0520 -0.7037  0.2030
  746MOL0     H 2943  -0.719  10.490  10.709 -1.5229  0.4570 -0.3514
  746MOL0     H 2944  -1.036  10.717  10.856 -0.4120  0.4302 -0.6986
  746MOL0     H 2945  -0.177  10.660  10.881  0.1548 -0.5102  0.3690
  746MOL0     H 2946   0.082  10.483  11.056  0.3439 -2.5353 -3.8525
  746MOL0     H 2947   0.094  10.663  11.024  0.5556 -0.5220 -0.2659
  746MOL0     H 2948  -0.063  10.587  11.065  0.2165 -0.4325  1.2529
  747MOL0     O 2949   5.842   9.465   0.137  0.2735 -0.1229  0.1431
  747MOL0     C 2950   5.763   9.526   0.209  1.3385  0.0016 -1.0227
  747MOL0     O 2951   5.794   9.609   0.313  0.2679 -0.0361 -0.0182
  747MOL0     C 2952   5.928   9.636   0.324  0.5854 -0.3890  0.0948
  747MOL0     C 2953   5.998   9.576   0.421  0.3319  0.3006  0.3114
  747MOL0     C 2954   6.134   9.599   0.438  0.1516 -0.8709  0.8504
  747MOL0     C 2955   6.195   9.702   0.358  0.3983  0.0355 -0.9629
  747MOL0     O 2956   6.322   9.754   0.383  0.0909 -0.9661  0.2654
  747MOL0     C 2957   6.418   9.661   0.412  1.1062  0.4148  0.0199
  747MOL0     C 2958   6.547   9.729   0.425  0.5124 -0.1836  0.2787
  747MOL0     C 2959   6.557   9.831   0.541  0.1696 -0.2679 -0.2191
  747MOL0     C 2960   6.696   9.900   0.536  0.1828  0.3912 -0.3015
  747MOL0     C 2961   6.816   9.807   0.550  0.0971 -0.1301 -0.4888
  747MOL0     C 2962   6.948   9.881   0.557 -0.0660 -0.0546 -0.0537
  747MOL0     C 2963   7.064   9.787   0.567  0.2898  0.1105 -0.0424
  747MOL0     C 2964   7.191   9.868   0.597 -0.4662 -0.6566 -0.1885
  747MOL0     N 2965   7.223   9.963   0.491  0.3913 -0.1101  0.3295
  747MOL0     C 2966   7.208   9.956   0.358  0.6343 -0.5410  0.4834
  747MOL0     C 2967   7.289  10.045   0.304 -0.3135  0.0656 -0.2167
  747MOL0     C 2968   7.291  10.070   0.157 -0.5240  0.1380  0.1635
  747MOL0     C 2969   7.425  10.037   0.087 -0.3970  0.3811  0.1494
  747MOL0     C 2970   7.429  10.072  -0.061  0.3867  0.7553  0.6050
  747MOL0     C 2971   7.563  10.123  -0.099 -0.4969  0.7501  0.4726
  747MOL0     O 2972   7.665  10.032  -0.080 -0.3528  0.0013  0.1116
  747MOL0     C 2973   7.791  10.063  -0.105 -0.4211 -0.0186 -0.0190
  747MOL0     C 2974   7.844  10.195  -0.113 -0.0597 -0.0535  0.4776
  747MOL0     C 2975   7.975  10.228  -0.137 -0.2340  0.5040 -0.5682
  747MOL0     C 2976   8.019  10.371  -0.137  0.1379  0.5251 -0.6606
  747MOL0     C 2977   8.068  10.121  -0.158  1.0974 -0.0398 -0.1406
  747MOL0     C 2978   8.215  10.133  -0.192  0.4336 -0.0217  0.7308
  747MOL0     O 2979   8.285  10.251  -0.201  0.5962 -0.0763  0.0880
  747MOL0     C 2980   8.414  10.255  -0.176  0.2914 -0.6614  0.3394
  747MOL0     C 2981   8.503  10.262  -0.278  0.8182  0.0796  0.4131
  747MOL0     C 2982   8.641  10.271  -0.255  0.2738 -0.1471 -0.0253
  747MOL0     C 2983   8.693  10.256  -0.119  0.4029 -0.1775 -0.8577
  747MOL0     O 2984   8.827  10.247  -0.076  0.1657  0.0687  0.3197
  747MOL0     C 2985   8.921  10.193  -0.182  0.4663 -0.4205 -0.2061
  747MOL0     C 2986   9.061  10.182  -0.133  0.1326  0.0126  0.8382
  747MOL0     C 2987   9.171  10.192  -0.244 -0.3823  0.7013  0.5512
  747MOL0     C 2988   9.293  10.099  -0.225  0.6147  0.4785  0.6196
  747MOL0     C 2989   9.409  10.140  -0.317  0.2594  0.3723  1.4396
  747MOL0     C 2990   9.387  10.126  -0.472  0.0193  0.0029  0.2023
  747MOL0     C 2991   9.504  10.169  -0.556 -0.3444  0.0223  0.4940
  747MOL0     C 2992   9.561  10.312  -0.511 -0.3031  0.6912  0.7382
  747MOL0    Cl 2993   9.671  10.369  -0.641 -0.4092 -0.0206  0.3021
  747MOL0     C 2994   8.604  10.270  -0.012  0.7771 -0.3979  0.6543
  747MOL0     C 2995   8.462  10.267  -0.047  0.0058  0.5237  1.0263
  747MOL0     O 2996   8.265  10.032  -0.223 -1.2429  0.0476  0.4609
  747MOL0     C 2997   8.016   9.988  -0.145 -0.3373  0.1815 -0.1688
  747MOL0     C 2998   7.878   9.959  -0.126 -0.3767 -0.4550 -0.0199
  747MOL0     N 2999   7.351  10.113   0.408 -0.1479 -0.8148 -0.3724
  747MOL0     N 3000   7.314  10.055   0.517  0.6852 -0.1643 -0.9893
  747MOL0     C 3001   6.120   9.755   0.257  0.4379 -0.9378  0.4473
  747MOL0     C 3002   5.986   9.725   0.249  0.2708  0.0317 -0.0389
  747MOL0     C 3003   5.620   9.472   0.216  0.6118  0.2069 -0.0664
  747MOL0     C 3004   5.578   9.373   0.121 -0.5451 -0.5076 -0.7383
  747MOL0     C 3005   5.455   9.314   0.115  0.2739  0.4168 -0.7249
  747MOL0     C 3006   5.349   9.355   0.185  0.7273  0.1548  0.2333
  747MOL0     O 3007   5.230   9.296   0.158 -0.0195 -0.2357  0.1859
  747MOL0     C 3008   5.120   9.362   0.214  0.9016  0.6112 -0.6379
  747MOL0     C 3009   4.988   9.298   0.180  0.0159 -0.6085  0.6082
  747MOL0     C 3010   4.962   9.160   0.249 -0.9832 -0.4693 -0.0712
  747MOL0     C 3011   4.831   9.093   0.223 -0.0729  0.8857  0.7511
  747MOL0     C 3012   4.716   9.176   0.264 -0.1276 -0.2210 -0.3859
  747MOL0     C 3013   4.624   9.251   0.294 -0.7439  0.8900  0.0983
  747MOL0     C 3014   5.383   9.446   0.292  1.0155 -0.5107  0.2239
  747MOL0     C 3015   5.516   9.498   0.316 -0.1421 -0.3147 -0.5606
  747MOL0     C 3016   5.531   9.589   0.435 -0.0069 -0.3840 -0.3043
  747MOL0     H 3017   5.955   9.505   0.491  2.1735 -2.6246 -1.3430
  747MOL0     H 3018   6.198   9.544   0.505  1.9694 -1.1092 -0.9762
  747MOL0     H 3019   6.430   9.582   0.337 -2.5347 -2.8997  2.5780
  747MOL0     H 3020   6.402   9.620   0.511 -0.2864  1.1832  0.1432
  747MOL0     H 3021   6.610   9.641   0.441 -1.4929 -1.4376  1.7062
  747MOL0     H 3022   6.579   9.777   0.332 -0.5363 -3.8832 -2.2046
  747MOL0     H 3023   6.468   9.894   0.533 -0.8664 -1.8119 -1.8676
  747MOL0     H 3024   6.550   9.778   0.637  2.0459 -1.2476 -0.5766
  747MOL0     H 3025   6.703   9.947   0.437 -1.2239  0.0661 -0.5819
  747MOL0     H 3026   6.708   9.980   0.610  0.7714  0.9501 -0.9777
  747MOL0     H 3027   6.812   9.755   0.454  1.8954  3.0321 -2.4625
  747MOL0     H 3028   6.805   9.747   0.640  1.8886  1.3897  0.8262
  747MOL0     H 3029   6.963   9.938   0.464 -2.4616  2.7701  1.1592
  747MOL0     H 3030   6.955   9.939   0.649  0.9547 -0.8022  0.3531
  747MOL0     H 3031   7.069   9.719   0.482 -1.0115 -0.7486  0.5286
  747MOL0     H 3032   7.052   9.731   0.660 -0.3897 -1.1763 -0.8731
  747MOL0     H 3033   7.177   9.918   0.693 -1.5159 -2.0247  0.4076
  747MOL0     H 3034   7.275   9.797   0.601  0.6122  0.5969  0.1139
  747MOL0     H 3035   7.145   9.888   0.302 -0.0296  0.8748 -0.5669
  747MOL0     H 3036   7.265  10.175   0.145 -1.8115 -0.3318 -1.7199
  747MOL0     H 3037   7.208  10.012   0.116 -1.9893  0.7456  2.1539
  747MOL0     H 3038   7.498  10.096   0.143 -0.0633 -0.6829  0.8739
  747MOL0     H 3039   7.457   9.933   0.101 -0.9006 -0.4103 -3.5765
  747MOL0     H 3040   7.424   9.976  -0.113  5.3188  0.8961 -0.6461
  747MOL0     H 3041   7.347  10.141  -0.080 -1.3897 -0.3249  3.5614
  747MOL0     H 3042   7.552  10.163  -0.200 -0.7175 -0.8516 -0.1538
  747MOL0     H 3043   7.585  10.210  -0.037  1.7521  1.4068 -1.1117
  747MOL0     H 3044   7.771  10.272  -0.091 -0.5807 -0.5506  0.5012
  747MOL0     H 3045   8.116  10.373  -0.087 -0.9824 -3.4907  2.1027
  747MOL0     H 3046   7.958  10.439  -0.077  1.9107  0.4434  1.3126
  747MOL0     H 3047   8.027  10.411  -0.239 -0.0216 -2.2127 -1.8259
  747MOL0     H 3048   8.486  10.279  -0.384  3.3224  0.6825  0.0421
  747MOL0     H 3049   8.707  10.271  -0.342  0.6042 -2.6504  0.1303
  747MOL0     H 3050   8.886  10.096  -0.217 -1.8470  0.2176  0.1945
  747MOL0     H 3051   8.929  10.264  -0.265 -0.8127  0.1591  0.1466
  747MOL0     H 3052   9.069  10.263  -0.059  1.4425 -0.1367  0.8857
  747MOL0     H 3053   9.068  10.094  -0.068 -1.8067 -2.3459 -1.8981
  747MOL0     H 3054   9.197  10.297  -0.255 -3.6687  1.4306 -2.1831
  747MOL0     H 3055   9.134  10.171  -0.345  3.6575 -3.7030 -0.3742
  747MOL0     H 3056   9.261   9.998  -0.251  0.6877  0.8897 -1.1639
  747MOL0     H 3057   9.323  10.113  -0.121 -0.9726 -0.9411  1.3118
  747MOL0     H 3058   9.430  10.246  -0.296  3.1742  0.8327 -2.6470
  747MOL0     H 3059   9.498  10.083  -0.291  1.2129  0.5111 -1.2643
  747MOL0     H 3060   9.301  10.177  -0.516  1.7806 -0.0684 -3.6893
  747MOL0     H 3061   9.373  10.019  -0.490  0.4843 -0.2879  1.4302
  747MOL0     H 3062   9.466  10.169  -0.658 -0.3610  5.8045  0.1512
  747MOL0     H 3063   9.591  10.103  -0.549  1.3277  1.6412 -2.9081
  747MOL0     H 3064   9.604  10.302  -0.410 -2.2244  1.6000  1.6917
  747MOL0     H 3065   9.478  10.383  -0.514 -1.2669 -0.1144 -5.6245
  747MOL0     H 3066   8.643  10.260   0.089  1.4473  0.8630  0.5312
  747MOL0     H 3067   8.394  10.249   0.036 -1.1987 -0.0503 -0.0443
  747MOL0     H 3068   8.084   9.904  -0.134  0.3095  0.9943  3.1652
  747MOL0     H 3069   7.849   9.857  -0.104 -0.1048 -0.6884 -0.7125
  747MOL0     H 3070   6.160   9.836   0.198 -1.5080 -1.6611 -2.0332
  747MOL0     H 3071   5.915   9.778   0.186 -0.2808  1.1443  1.4441
  747MOL0     H 3072   5.641   9.348   0.037 -0.4173 -1.7511 -0.2963
  747MOL0     H 3073   5.437   9.253   0.026  1.4493 -1.3321  0.1794
  747MOL0     H 3074   5.127   9.353   0.323  1.2263  4.6095 -0.1499
  747MOL0     H 3075   5.110   9.470   0.197 -1.8342  1.2201  3.3566
  747MOL0     H 3076   4.996   9.275   0.074  2.6573 -1.9754  1.0239
  747MOL0     H 3077   4.910   9.368   0.213  0.5816  0.4709 -0.2814
  747MOL0     H 3078   5.040   9.089   0.220 -1.3456 -0.4085 -1.2335
  747MOL0     H 3079   4.972   9.181   0.356  1.3390 -0.7040 -0.1910
  747MOL0     H 3080   4.823   8.989   0.256 -0.6568 -0.7740 -3.9009
  747MOL0     H 3081   4.836   9.070   0.116  1.3239  2.2046  0.4926
  747MOL0     H 3082   4.540   9.316   0.305 -1.5524  0.6846 -3.5068
  747MOL0     H 3083   5.299   9.477   0.353 -1.8101 -2.8561 -2.1675
  747MOL0     H 3084   5.624   9.569   0.489  0.0017  0.5106  0.0207
  747MOL0     H 3085   5.516   9.690   0.395 -1.7280 -1.7446 -3.4614
  747MOL0     H 3086   5.456   9.576   0.514 -0.8485  0.4391 -0.9465
  748MOL0     O 3087   9.719   5.013   9.207  0.0642 -0.4537 -0.5412
  748MOL0     C 3088   9.666   5.088   9.126  0.9466  0.2495  0.5317
  748MOL0     O 3089   9.527   5.102   9.121 -0.7169  0.2578  0.9932
  748MOL0     C 3090   9.448   5.029   9.202 -0.5926  0.6384 -0.2894
  748MOL0     C 3091   9.406   4.902   9.163  0.3969 -1.1186  0.0892
  748MOL0     C 3092   9.322   4.816   9.235 -0.1297 -0.1902 -0.6151
  748MOL0     C 3093   9.268   4.871   9.356 -0.4124 -0.4973  0.4756
  748MOL0     O 3094   9.167   4.815   9.429 -0.1314  0.5723 -0.5684
  748MOL0     C 3095   9.140   4.684   9.388  1.0185 -0.0830  0.0498
  748MOL0     C 3096   9.051   4.616   9.483  0.5171  0.4793  1.4958
  748MOL0     C 3097   9.122   4.591   9.620  0.9593 -1.3621  0.4749
  748MOL0     C 3098   9.093   4.445   9.664  0.8637 -0.0556  0.2221
  748MOL0     C 3099   9.168   4.413   9.794 -0.8544  0.5958  0.1549
  748MOL0     C 3100   9.321   4.389   9.776  0.5962 -0.0310 -0.6165
  748MOL0     C 3101   9.379   4.315   9.894  0.0039 -0.1271 -0.2450
  748MOL0     C 3102   9.501   4.224   9.863  0.8564  0.1389  0.3484
  748MOL0     N 3103   9.623   4.292   9.827 -0.5519 -0.1006  0.4056
  748MOL0     C 3104   9.688   4.287   9.707 -0.4445 -0.2845 -0.4405
  748MOL0     C 3105   9.800   4.358   9.734  1.0561  0.3448 -0.3178
  748MOL0     C 3106   9.909   4.379   9.636  0.2334  0.4892  0.5222
  748MOL0     C 3107  10.026   4.443   9.702 -1.1347  0.0162  0.4015
  748MOL0     C 3108  10.139   4.476   9.603 -0.0359 -0.2045 -0.1301
  748MOL0     C 3109  10.117   4.615   9.534  0.1027  0.7615  0.0486
  748MOL0     O 3110  10.097   4.723   9.628 -0.3480 -0.3735 -0.8111
  748MOL0     C 3111  10.114   4.849   9.586  0.9505  0.3207  0.2848
  748MOL0     C 3112  10.205   4.931   9.656  0.5639  0.4398  0.5449
  748MOL0     C 3113  10.221   5.065   9.617 -0.3932  0.4948  0.4369
  748MOL0     C 3114  10.306   5.155   9.699  0.5309  0.4351  0.3573
  748MOL0     C 3115  10.148   5.117   9.505  0.2833 -0.2263  0.6193
  748MOL0     C 3116  10.151   5.260   9.445 -0.9025  1.0331  0.2898
  748MOL0     O 3117  10.142   5.255   9.306  0.5725 -0.0295  0.1360
  748MOL0     C 3118  10.120   5.375   9.237 -0.2914 -0.1813 -0.5555
  748MOL0     C 3119  10.065   5.494   9.294  0.4097  0.3649  0.0238
  748MOL0     C 3120  10.045   5.601   9.214  0.5681 -0.3391  0.2391
  748MOL0     C 3121  10.078   5.608   9.077 -0.3788 -0.4946  0.6404
  748MOL0     O 3122  10.079   5.720   8.996  1.0808 -0.4008 -0.7337
  748MOL0     C 3123   9.995   5.837   9.031  0.0250  0.0021  0.4191
  748MOL0     C 3124   9.984   5.936   8.916  0.2996  0.0789  0.1815
  748MOL0     C 3125  10.105   6.021   8.928 -0.4294 -0.6576  0.6525
  748MOL0     C 3126  10.187   6.033   8.801  0.1590 -0.8265  0.3225
  748MOL0     C 3127  10.251   5.906   8.756 -0.2876  0.2222 -0.0914
  748MOL0     C 3128  10.349   5.946   8.648 -0.6793 -1.1469  0.1008
  748MOL0     C 3129  10.441   5.836   8.574  0.7149  1.0789  0.6365
  748MOL0     C 3130  10.351   5.722   8.529 -0.9844  0.7178 -0.0942
  748MOL0    Cl 3131  10.191   5.787   8.456  0.4597 -0.2415  0.6292
  748MOL0     C 3132  10.120   5.493   9.018  0.6204 -0.9933  0.5086
  748MOL0     C 3133  10.145   5.383   9.099  0.3733  0.1999  0.5734
  748MOL0     O 3134  10.173   5.360   9.507 -0.4088  0.5023 -0.3665
  748MOL0     C 3135  10.058   5.029   9.434  0.3245 -0.2145 -0.1857
  748MOL0     C 3136  10.041   4.894   9.474  0.4292 -0.1708 -0.6413
  748MOL0     N 3137   9.794   4.414   9.861  0.3638 -0.5850 -0.5284
  748MOL0     N 3138   9.689   4.372   9.919 -0.5801  0.1898 -0.8598
  748MOL0     C 3139   9.311   5.003   9.393 -0.3110 -0.4671  0.5857
  748MOL0     C 3140   9.398   5.076   9.316 -0.2318  0.6244  0.4170
  748MOL0     C 3141   9.731   5.162   9.012  0.0060  0.3075  0.1868
  748MOL0     C 3142   9.660   5.260   8.933  0.4215  0.2360 -0.1476
  748MOL0     C 3143   9.727   5.320   8.827  0.6185  0.4078  0.5329
  748MOL0     C 3144   9.862   5.293   8.791  0.3032 -0.0989 -0.1399
  748MOL0     O 3145   9.921   5.364   8.696  0.5395  0.5183  0.3179
  748MOL0     C 3146   9.947   5.496   8.727  0.1547  0.1927 -1.2579
  748MOL0     C 3147   9.926   5.592   8.615  0.0430  0.0209 -0.0276
  748MOL0     C 3148   9.770   5.603   8.593  0.4635 -0.2074 -0.6136
  748MOL0     C 3149   9.694   5.690   8.698  0.1124 -0.3502  0.7099
  748MOL0     C 3150   9.700   5.840   8.685  0.7388  0.8868 -0.3881
  748MOL0     C 3151   9.698   5.957   8.676 -0.0857  1.2922  0.0942
  748MOL0     C 3152   9.929   5.190   8.857  1.5826 -0.7579  0.2115
  748MOL0     C 3153   9.867   5.131   8.963  0.3890  0.6981 -1.5033
  748MOL0     C 3154   9.945   5.026   9.025 -0.2221  0.2240 -0.0063
  748MOL0     H 3155   9.443   4.861   9.069  0.2427 -0.6237 -0.1953
  748MOL0     H 3156   9.300   4.716   9.201  0.1218 -0.2613 -0.5666
  748MOL0     H 3157   9.224   4.615   9.379 -0.2314 -1.8230  1.0908
  748MOL0     H 3158   9.087   4.682   9.292  0.7787 -0.6210  0.1869
  748MOL0     H 3159   8.956   4.669   9.491  0.2021  0.7288 -2.0277
  748MOL0     H 3160   9.034   4.525   9.424 -1.7701  0.5873  1.9101
  748MOL0     H 3161   9.227   4.618   9.608  0.4635 -0.1494 -1.6828
  748MOL0     H 3162   9.080   4.659   9.694  0.2636 -1.2735  0.0126
  748MOL0     H 3163   8.986   4.445   9.686  0.7233  0.4052 -0.4461
  748MOL0     H 3164   9.111   4.372   9.585 -2.4825 -0.8438  0.0391
  748MOL0     H 3165   9.116   4.332   9.844 -0.7227  0.3467 -0.1085
  748MOL0     H 3166   9.167   4.499   9.861 -2.0564 -0.3557  1.4004
  748MOL0     H 3167   9.338   4.319   9.694  1.5292 -1.5548  0.8133
  748MOL0     H 3168   9.376   4.481   9.756  0.7420  0.4636  1.7262
  748MOL0     H 3169   9.302   4.252   9.938 -2.2223  1.9774 -0.9476
  748MOL0     H 3170   9.409   4.387   9.971 -0.4473  0.2402 -0.4096
  748MOL0     H 3171   9.526   4.174   9.957 -0.5371  2.4835  2.0983
  748MOL0     H 3172   9.476   4.155   9.782 -0.2357  2.1982 -1.1622
  748MOL0     H 3173   9.667   4.219   9.626 -1.7973 -0.6159  0.1542
  748MOL0     H 3174   9.888   4.449   9.555  2.4678  0.5528 -0.0723
  748MOL0     H 3175   9.954   4.285   9.602  1.2173  1.4637 -0.9942
  748MOL0     H 3176  10.010   4.537   9.756  0.8844 -0.2446  1.5584
  748MOL0     H 3177  10.061   4.373   9.779 -0.3780 -0.5901 -0.4837
  748MOL0     H 3178  10.234   4.497   9.653 -1.0382  1.4452  1.1733
  748MOL0     H 3179  10.152   4.396   9.530  0.7719  1.0797 -1.4396
  748MOL0     H 3180  10.214   4.637   9.488  0.7442 -0.5273  0.7253
  748MOL0     H 3181  10.034   4.604   9.463  0.0702  4.5033 -0.7106
  748MOL0     H 3182  10.267   4.898   9.740 -2.1440 -0.6787  2.2644
  748MOL0     H 3183  10.243   5.195   9.779 -1.4104  1.5734 -1.6421
  748MOL0     H 3184  10.350   5.229   9.633  0.5084  0.7604  0.7037
  748MOL0     H 3185  10.393   5.115   9.753  0.1391 -0.5629  0.2662
  748MOL0     H 3186  10.026   5.493   9.395  0.1735 -3.0632  0.0241
  748MOL0     H 3187   9.999   5.694   9.246 -2.5166 -0.5958 -2.8377
  748MOL0     H 3188   9.895   5.797   9.049 -0.3195  0.1773 -1.0451
  748MOL0     H 3189  10.025   5.885   9.125  1.6015  1.1754 -0.6312
  748MOL0     H 3190   9.986   5.883   8.820  0.5148 -3.2259  1.8789
  748MOL0     H 3191   9.893   5.997   8.912  0.2867  0.0012 -2.0062
  748MOL0     H 3192  10.178   5.972   8.994 -0.1780  1.6857  2.2563
  748MOL0     H 3193  10.087   6.120   8.971  0.1733  0.1040 -0.7745
  748MOL0     H 3194  10.269   6.098   8.831 -1.1127  0.3398  1.3926
  748MOL0     H 3195  10.140   6.074   8.710  1.3102 -1.8932 -0.7898
  748MOL0     H 3196  10.316   5.866   8.834  0.8241  2.6575  0.3105
  748MOL0     H 3197  10.189   5.829   8.708 -1.5078  1.2782 -0.2626
  748MOL0     H 3198  10.417   6.023   8.684 -3.4219  1.4756  0.1276
  748MOL0     H 3199  10.285   6.000   8.578  1.1307  1.0439  0.0257
  748MOL0     H 3200  10.514   5.806   8.651  1.5409  2.8264  0.5818
  748MOL0     H 3201  10.492   5.882   8.489 -2.3321  1.2591 -1.2094
  748MOL0     H 3202  10.337   5.667   8.622 -0.2314  1.9334  0.7653
  748MOL0     H 3203  10.410   5.664   8.458 -0.8463  2.2569 -1.2943
  748MOL0     H 3204  10.164   5.486   8.919  2.5453 -0.3066  1.2649
  748MOL0     H 3205  10.169   5.285   9.058 -0.2808 -1.5723  4.0093
  748MOL0     H 3206  10.014   5.058   9.339  0.1695  0.4934  0.0981
  748MOL0     H 3207   9.959   4.837   9.430 -1.0365  0.7937  0.7656
  748MOL0     H 3208   9.275   5.045   9.487 -0.9025  1.6415 -0.5304
  748MOL0     H 3209   9.427   5.174   9.354  1.9870  1.2315 -2.4767
  748MOL0     H 3210   9.557   5.282   8.956  0.9390  1.0424  1.5818
  748MOL0     H 3211   9.666   5.397   8.782  0.1803  0.6327  1.4850
  748MOL0     H 3212   9.900   5.543   8.814 -1.1818  1.6144 -2.6874
  748MOL0     H 3213  10.052   5.484   8.756 -1.3629  0.2366  6.6236
  748MOL0     H 3214   9.973   5.565   8.520  0.4512 -2.9876  0.9120
  748MOL0     H 3215   9.964   5.689   8.646  2.5022 -0.3182 -1.7005
  748MOL0     H 3216   9.746   5.647   8.496  1.7713  0.2931 -0.7293
  748MOL0     H 3217   9.718   5.507   8.593 -0.2296  0.1509 -1.5844
  748MOL0     H 3218   9.739   5.673   8.796 -0.4727 -0.6293  0.9336
  748MOL0     H 3219   9.590   5.657   8.691  0.0206  0.2368 -1.5920
  748MOL0     H 3220   9.726   6.060   8.663  0.9745  1.1535  1.0885
  748MOL0     H 3221  10.031   5.157   8.840  2.0359  0.1592  1.0445
  748MOL0     H 3222   9.892   4.930   9.022  0.3714 -0.1387  0.6090
  748MOL0     H 3223  10.048   5.016   8.989  0.6704  0.7930  2.2146
  748MOL0     H 3224   9.951   5.054   9.131 -1.1288  0.8586 -0.1160
  749MOL0     O 3225   1.186   2.779   3.797 -0.0560 -0.1793  0.0085
  749MOL0     C 3226   1.155   2.813   3.680  0.8342  0.0605 -1.0289
  749MOL0     O 3227   1.223   2.909   3.602 -0.4723 -0.1303  0.1345
  749MOL0     C 3228   1.317   2.989   3.666 -0.3950 -0.4877 -0.8957
  749MOL0     C 3229   1.457   2.985   3.641 -0.2608 -0.1413 -0.0245
  749MOL0     C 3230   1.540   3.092   3.678  0.6996 -0.0545 -0.1223
  749MOL0     C 3231   1.490   3.209   3.744  0.0556  0.3436  0.5350
  749MOL0     O 3232   1.583   3.317   3.761 -0.7997 -0.9806  0.4195
  749MOL0     C 3233   1.515   3.443   3.798 -0.2108 -0.3209 -0.0117
  749MOL0     C 3234   1.603   3.574   3.792  0.0760 -0.0033  0.4090
  749MOL0     C 3235   1.682   3.590   3.917  0.1232  0.3387  0.0181
  749MOL0     C 3236   1.804   3.679   3.920  0.1122 -0.0649  0.7232
  749MOL0     C 3237   1.781   3.814   3.859  0.2049 -0.0189  0.1413
  749MOL0     C 3238   1.676   3.909   3.921 -0.1575  0.0244  0.5883
  749MOL0     C 3239   1.724   4.053   3.931  0.4120 -0.0994 -0.0900
  749MOL0     C 3240   1.604   4.143   3.954 -0.1147 -1.4508  0.1449
  749MOL0     N 3241   1.642   4.286   3.982 -0.6976  0.7487 -0.0828
  749MOL0     C 3242   1.700   4.323   4.097 -0.2146 -0.0429 -0.0369
  749MOL0     C 3243   1.741   4.452   4.079 -0.3854 -0.6606 -0.3579
  749MOL0     C 3244   1.823   4.530   4.178  0.5689  0.5446 -1.1403
  749MOL0     C 3245   1.966   4.568   4.120  0.0833  0.6691 -0.2033
  749MOL0     C 3246   2.051   4.442   4.111  0.5642  0.0509 -0.9261
  749MOL0     C 3247   2.194   4.472   4.063 -0.3687  0.7151 -0.7617
  749MOL0     O 3248   2.282   4.362   4.068  0.3306 -0.3394  0.2891
  749MOL0     C 3249   2.263   4.249   3.984 -0.4547 -0.1770 -0.1107
  749MOL0     C 3250   2.361   4.145   3.989  0.5092 -0.4920  0.3560
  749MOL0     C 3251   2.346   4.027   3.915 -0.9964 -0.4224 -0.1994
  749MOL0     C 3252   2.461   3.932   3.919 -0.1018 -0.0223  0.5280
  749MOL0     C 3253   2.240   4.014   3.822  0.2817  1.1485  0.4990
  749MOL0     C 3254   2.219   3.884   3.729  0.1584 -0.0154  0.1850
  749MOL0     O 3255   2.158   3.913   3.611 -0.0596  0.3730  1.2709
  749MOL0     C 3256   2.116   3.811   3.527  0.2752  0.4116 -1.0677
  749MOL0     C 3257   2.125   3.834   3.390  0.5260 -0.4011  0.6803
  749MOL0     C 3258   2.057   3.742   3.302 -0.4797 -0.2302  0.2189
  749MOL0     C 3259   2.000   3.623   3.345  0.4544  0.4630  0.1361
  749MOL0     O 3260   1.942   3.544   3.249  0.8423 -0.0201  0.1941
  749MOL0     C 3261   1.892   3.410   3.290 -0.3889 -0.3024 -0.6435
  749MOL0     C 3262   1.816   3.344   3.179 -0.0918 -0.1980 -1.0175
  749MOL0     C 3263   1.683   3.419   3.147 -0.2728  0.6346  0.6274
  749MOL0     C 3264   1.599   3.340   3.044 -0.7265  0.6702 -0.1029
  749MOL0     C 3265   1.531   3.211   3.103 -0.1330  0.7222 -0.1061
  749MOL0     C 3266   1.464   3.120   3.002 -0.4321  0.3428  0.6938
  749MOL0     C 3267   1.433   2.987   3.073 -0.5489 -0.9201  0.9257
  749MOL0     C 3268   1.403   2.882   2.968  0.6553  1.2239  0.0414
  749MOL0    Cl 3269   1.454   2.713   3.022 -0.0078  0.5403 -0.1888
  749MOL0     C 3270   2.002   3.601   3.485 -0.6338  0.7110 -0.0777
  749MOL0     C 3271   2.042   3.702   3.582  0.3855  0.3485  0.3474
  749MOL0     O 3272   2.252   3.767   3.768  0.0590 -0.0388 -0.0956
  749MOL0     C 3273   2.142   4.119   3.815  0.0039  0.4745 -0.2569
  749MOL0     C 3274   2.163   4.236   3.887  0.9685  0.4082 -0.7419
  749MOL0     N 3275   1.703   4.491   3.951 -0.7482 -1.4264 -0.3658
  749MOL0     N 3276   1.645   4.386   3.895  0.7325 -0.4559  0.3415
  749MOL0     C 3277   1.352   3.212   3.765 -0.1473  0.7172  0.2065
  749MOL0     C 3278   1.268   3.107   3.724  0.3766  0.4325 -0.2586
  749MOL0     C 3279   1.043   2.742   3.622  0.3485  0.0166  0.2728
  749MOL0     C 3280   1.064   2.661   3.513 -0.7188  0.7071  0.1611
  749MOL0     C 3281   0.965   2.582   3.452  0.5726 -0.1620  0.3915
  749MOL0     C 3282   0.836   2.588   3.502 -0.2882 -0.3312 -0.3369
  749MOL0     O 3283   0.736   2.505   3.457  0.5726  0.0520  0.5091
  749MOL0     C 3284   0.773   2.417   3.347  1.2382  0.4694  0.4928
  749MOL0     C 3285   0.645   2.324   3.313  0.3303  0.8552  0.8870
  749MOL0     C 3286   0.522   2.411   3.268  0.0589  0.2708  0.0348
  749MOL0     C 3287   0.392   2.339   3.273  0.8931  0.1555 -0.0547
  749MOL0     C 3288   0.374   2.210   3.198 -0.1535  0.2172  0.4299
  749MOL0     C 3289   0.353   2.109   3.139  0.2333  0.0707  1.2649
  749MOL0     C 3290   0.805   2.675   3.606 -0.3431 -0.2686 -0.2356
  749MOL0     C 3291   0.906   2.743   3.673 -0.3078 -0.4453  0.2483
  749MOL0     C 3292   0.873   2.841   3.783 -0.6791 -0.4425 -0.0685
  749MOL0     H 3293   1.495   2.896   3.591 -1.8337 -0.2354 -1.1198
  749MOL0     H 3294   1.642   3.076   3.644 -0.5113 -2.4651 -3.0998
  749MOL0     H 3295   1.476   3.430   3.899 -1.1131 -1.0475 -0.4403
  749MOL0     H 3296   1.431   3.455   3.729 -0.5556 -2.5186 -0.0374
  749MOL0     H 3297   1.668   3.558   3.705  0.2827 -1.7487  0.8446
  749MOL0     H 3298   1.534   3.656   3.772  0.3015 -0.3487 -2.2219
  749MOL0     H 3299   1.608   3.635   3.984  0.0386 -1.9367  1.5863
  749MOL0     H 3300   1.714   3.490   3.949 -1.3534  0.7103  2.9606
  749MOL0     H 3301   1.840   3.683   4.024  3.1427  2.3965 -0.2713
  749MOL0     H 3302   1.873   3.630   3.852 -2.2360 -2.1573 -0.3153
  749MOL0     H 3303   1.762   3.802   3.752 -0.9408 -0.5369  0.3804
  749MOL0     H 3304   1.878   3.863   3.869  0.6731 -1.2536  2.4489
  749MOL0     H 3305   1.582   3.895   3.867  0.3704  0.0887 -0.3803
  749MOL0     H 3306   1.669   3.874   4.024  0.3161  1.2803  1.0721
  749MOL0     H 3307   1.750   4.087   3.830 -3.0378  1.5468 -0.5654
  749MOL0     H 3308   1.802   4.069   4.006 -0.2241  1.0713  0.3437
  749MOL0     H 3309   1.535   4.152   3.869 -1.5446  0.4040  1.4154
  749MOL0     H 3310   1.547   4.108   4.041  0.1720 -0.8154  0.5893
  749MOL0     H 3311   1.706   4.275   4.194 -2.1312  0.8976  0.5858
  749MOL0     H 3312   1.830   4.475   4.273 -1.8812  2.5927  0.3655
  749MOL0     H 3313   1.763   4.619   4.199  1.6622  1.0501  0.0087
  749MOL0     H 3314   1.940   4.606   4.021 -0.0414 -1.1094 -0.8906
  749MOL0     H 3315   2.010   4.636   4.194  0.4906 -0.3578  0.5244
  749MOL0     H 3316   2.041   4.402   4.213 -1.4443 -0.9737 -1.4797
  749MOL0     H 3317   2.007   4.368   4.043 -0.4161  1.3029 -1.6955
  749MOL0     H 3318   2.194   4.512   3.962 -1.9274  0.1133 -1.0339
  749MOL0     H 3319   2.239   4.542   4.135 -0.1415 -1.7206  1.6342
  749MOL0     H 3320   2.435   4.158   4.067 -0.1161 -3.0587  1.4741
  749MOL0     H 3321   2.477   3.884   3.823  1.3119  1.5165 -0.0610
  749MOL0     H 3322   2.426   3.848   3.981 -4.8263  1.0664 -0.3282
  749MOL0     H 3323   2.549   3.978   3.966 -0.9851  2.4680 -0.1082
  749MOL0     H 3324   2.172   3.925   3.354 -0.4397 -0.0817  0.2159
  749MOL0     H 3325   2.065   3.752   3.194  3.6870 -0.1095  0.3688
  749MOL0     H 3326   1.985   3.359   3.318  0.6218  2.4491  1.4214
  749MOL0     H 3327   1.834   3.404   3.382 -2.7168 -3.1560 -2.1214
  749MOL0     H 3328   1.882   3.318   3.095 -1.8012 -1.0642 -2.1497
  749MOL0     H 3329   1.789   3.245   3.215 -0.1337  0.0111 -0.4661
  749MOL0     H 3330   1.713   3.517   3.110  2.3818  0.7293  2.6963
  749MOL0     H 3331   1.620   3.435   3.234 -1.2497  2.8888 -0.4125
  749MOL0     H 3332   1.658   3.314   2.956  1.2709 -2.0095  1.8993
  749MOL0     H 3333   1.514   3.404   3.016  0.7737  3.6688  1.6488
  749MOL0     H 3334   1.615   3.163   3.155 -1.7161 -0.6080  1.3414
  749MOL0     H 3335   1.455   3.236   3.178  1.0186  0.5493  1.1675
  749MOL0     H 3336   1.533   3.109   2.918 -1.4583 -0.4580 -0.0747
  749MOL0     H 3337   1.372   3.173   2.975  0.9587  2.1409 -0.8392
  749MOL0     H 3338   1.348   3.001   3.140 -2.3703 -0.5966 -1.3314
  749MOL0     H 3339   1.513   2.950   3.137  1.3836 -0.1730 -0.9233
  749MOL0     H 3340   1.459   2.903   2.877 -0.6260 -2.1731 -1.7008
  749MOL0     H 3341   1.294   2.886   2.956  0.1015 -1.9095  2.5861
  749MOL0     H 3342   1.949   3.517   3.529 -0.3125  0.9607  0.8053
  749MOL0     H 3343   2.037   3.693   3.690  6.1598 -0.0766  0.9010
  749MOL0     H 3344   2.055   4.121   3.749  0.2036  0.6569 -0.5151
  749MOL0     H 3345   2.090   4.316   3.877 -0.2760 -0.6460 -0.3014
  749MOL0     H 3346   1.305   3.288   3.828 -1.7244 -0.4495  0.5082
  749MOL0     H 3347   1.162   3.122   3.742  0.5317  0.5818  0.5886
  749MOL0     H 3348   1.166   2.655   3.477 -0.4706 -0.8709  1.0247
  749MOL0     H 3349   0.993   2.527   3.363 -1.9385 -0.5210 -0.2655
  749MOL0     H 3350   0.796   2.475   3.257  0.5697  0.6672  0.4443
  749MOL0     H 3351   0.852   2.346   3.373  1.0628  0.6890  1.6738
  749MOL0     H 3352   0.619   2.273   3.407 -1.8157 -0.2847 -0.2439
  749MOL0     H 3353   0.663   2.245   3.240 -1.1232  0.4829  0.8962
  749MOL0     H 3354   0.521   2.498   3.334 -2.3867 -1.8572  3.0838
  749MOL0     H 3355   0.539   2.430   3.161 -0.4259 -0.4076 -0.1716
  749MOL0     H 3356   0.316   2.408   3.235 -1.2305 -2.2693 -0.4880
  749MOL0     H 3357   0.388   2.307   3.378  1.8151  0.1750 -0.0106
  749MOL0     H 3358   0.325   2.021   3.084 -0.5509  1.1941 -0.2146
  749MOL0     H 3359   0.702   2.674   3.641  0.3310  2.5380  2.3172
  749MOL0     H 3360   0.892   2.788   3.877  0.7780  1.3627  0.7039
  749MOL0     H 3361   0.947   2.921   3.788 -1.8042  0.5784  0.9643
  749MOL0     H 3362   0.772   2.883   3.778  0.0584  1.5022  0.4320
  750MOL0     O 3363  10.008   3.470   4.995 -0.0725 -0.1078 -0.2482
  750MOL0     C 3364  10.005   3.570   4.923 -0.2197 -0.6558 -0.6204
  750MOL0     O 3365  10.068   3.685   4.961  0.8834 -0.2775  0.5305
  750MOL0     C 3366  10.142   3.704   5.079  0.3583 -0.3157  0.1156
  750MOL0     C 3367  10.193   3.598   5.159 -0.7536 -1.1533 -0.4818
  750MOL0     C 3368  10.262   3.625   5.273 -1.0048 -0.0560  0.4511
  750MOL0     C 3369  10.304   3.757   5.298  0.0591  0.0387 -0.4473
  750MOL0     O 3370  10.399   3.792   5.389 -0.1618 -0.3228 -0.0824
  750MOL0     C 3371  10.483   3.685   5.433  0.4404 -0.0528  0.6557
  750MOL0     C 3372  10.609   3.736   5.497 -0.1774  0.5250  0.5636
  750MOL0     C 3373  10.592   3.817   5.624 -0.2006 -0.3858  0.4291
  750MOL0     C 3374  10.723   3.811   5.703  0.3195 -0.0225  0.5290
  750MOL0     C 3375  10.723   3.921   5.823 -0.0986 -0.2565 -0.6304
  750MOL0     C 3376  10.865   3.939   5.869  0.9494  0.2948  0.4132
  750MOL0     C 3377  10.876   4.052   5.974 -0.1290 -0.1848 -0.2653
  750MOL0     C 3378  11.019   4.046   6.033  0.1342  0.1039  0.1227
  750MOL0     N 3379  11.130   4.072   5.932  0.1381 -0.5460 -0.2567
  750MOL0     C 3380  11.204   4.186   5.929 -0.6960 -0.5859 -0.5034
  750MOL0     C 3381  11.324   4.152   5.865 -0.4734 -0.0606 -0.0043
  750MOL0     C 3382  11.446   4.239   5.849  0.2874 -0.8702 -0.6624
  750MOL0     C 3383  11.560   4.168   5.917 -0.2412 -0.0097  0.3386
  750MOL0     C 3384  11.530   4.145   6.064  0.2179 -0.0410  0.7322
  750MOL0     C 3385  11.666   4.138   6.137 -0.4197  0.0948 -0.3635
  750MOL0     O 3386  11.737   4.269   6.138 -0.3838  0.5098  0.3529
  750MOL0     C 3387  11.868   4.277   6.183  0.6302  0.1229  1.1921
  750MOL0     C 3388  11.957   4.164   6.193 -0.4420  0.5094  0.3651
  750MOL0     C 3389  12.094   4.167   6.224 -0.5820  0.7990 -0.4499
  750MOL0     C 3390  12.169   4.036   6.257 -0.3880  0.3554  0.3776
  750MOL0     C 3391  12.152   4.297   6.245 -0.1352  1.0522  0.1509
  750MOL0     C 3392  12.296   4.320   6.275 -0.0042  1.0235 -0.1361
  750MOL0     O 3393  12.393   4.251   6.204  0.0775  0.7851 -0.0172
  750MOL0     C 3394  12.520   4.302   6.215 -0.0462  0.1517  0.2859
  750MOL0     C 3395  12.625   4.209   6.233 -0.0261 -0.1024  0.0929
  750MOL0     C 3396  12.753   4.249   6.246 -0.9577 -0.5718 -0.0055
  750MOL0     C 3397  12.791   4.380   6.216  0.0523  0.1104  0.4744
  750MOL0     O 3398  12.927   4.412   6.224  0.5994 -1.1186  0.0177
  750MOL0     C 3399  12.956   4.541   6.285  1.0853  0.6729 -0.1823
  750MOL0     C 3400  13.007   4.654   6.192 -0.6220  0.1153  0.8729
  750MOL0     C 3401  13.028   4.790   6.254  0.0956 -0.7175 -0.2794
  750MOL0     C 3402  13.098   4.884   6.150  0.2889  0.3468  0.2110
  750MOL0     C 3403  13.131   5.017   6.223  0.5413  0.0139  0.0614
  750MOL0     C 3404  13.206   5.121   6.142  0.5908  0.8021  0.4058
  750MOL0     C 3405  13.102   5.192   6.039 -0.2581 -0.0906  0.4171
  750MOL0     C 3406  13.151   5.336   5.995 -0.3152  0.4658 -0.7185
  750MOL0    Cl 3407  13.326   5.341   5.965 -0.5727 -0.4795  0.0401
  750MOL0     C 3408  12.690   4.475   6.182 -1.1873  0.6695  0.3041
  750MOL0     C 3409  12.560   4.434   6.171  0.8118 -0.5813  0.1772
  750MOL0     O 3410  12.319   4.416   6.346 -0.1713 -0.0382 -0.4808
  750MOL0     C 3411  12.064   4.407   6.240  1.1106  0.2926 -0.9348
  750MOL0     C 3412  11.922   4.401   6.206 -0.7518 -0.8447 -0.1024
  750MOL0     N 3413  11.311   4.023   5.815  0.3911  0.2547 -0.6710
  750MOL0     N 3414  11.194   3.983   5.849  0.0358  1.0407  0.1015
  750MOL0     C 3415  10.256   3.860   5.227 -0.3370  0.1661 -0.9092
  750MOL0     C 3416  10.168   3.842   5.111 -0.9134  0.7341 -0.4139
  750MOL0     C 3417   9.910   3.579   4.811  0.5700  0.2419  0.2272
  750MOL0     C 3418   9.802   3.495   4.813 -0.3771 -0.4847  0.2635
  750MOL0     C 3419   9.698   3.511   4.713  0.8225 -0.2877 -0.3570
  750MOL0     C 3420   9.717   3.608   4.613  0.4873 -1.5581 -0.2291
  750MOL0     O 3421   9.609   3.605   4.524 -0.9477  0.9570  0.3810
  750MOL0     C 3422   9.595   3.716   4.432  0.2103 -0.0167 -0.5061
  750MOL0     C 3423   9.561   3.854   4.503 -0.0703 -0.0194  0.2811
  750MOL0     C 3424   9.420   3.846   4.558  0.3219 -1.2397 -0.5119
  750MOL0     C 3425   9.401   3.916   4.684 -0.5123 -0.2567  0.5594
  750MOL0     C 3426   9.260   3.906   4.730  0.6159  0.2298  0.1538
  750MOL0     C 3427   9.141   3.913   4.743  0.2860 -0.5700  0.4139
  750MOL0     C 3428   9.834   3.687   4.609 -0.1581  0.5071 -0.3569
  750MOL0     C 3429   9.929   3.675   4.702  0.2248  0.0802  0.6298
  750MOL0     C 3430  10.056   3.755   4.685  0.1947 -0.7523  0.8894
  750MOL0     H 3431  10.190   3.491   5.140  1.8305 -1.7005  1.6750
  750MOL0     H 3432  10.293   3.538   5.329  1.3579 -1.1035 -2.2429
  750MOL0     H 3433  10.506   3.630   5.342 -1.1496  1.2011 -0.5653
  750MOL0     H 3434  10.427   3.619   5.501 -1.1598  0.8522  0.2685
  750MOL0     H 3435  10.671   3.648   5.515 -2.0920 -0.9965  0.0020
  750MOL0     H 3436  10.661   3.789   5.417 -3.6439  1.3059 -1.3521
  750MOL0     H 3437  10.553   3.918   5.607  0.0402 -0.2496  0.6659
  750MOL0     H 3438  10.510   3.767   5.676  1.0271 -3.0567 -0.0462
  750MOL0     H 3439  10.727   3.715   5.755 -2.5826 -2.4248 -3.1661
  750MOL0     H 3440  10.806   3.820   5.632 -1.0128  2.0305 -0.8508
  750MOL0     H 3441  10.663   3.877   5.903  2.1785 -0.3743  1.1412
  750MOL0     H 3442  10.691   4.024   5.803 -2.3394 -0.6846  0.5620
  750MOL0     H 3443  10.900   3.844   5.910  1.2152  1.2433  2.4940
  750MOL0     H 3444  10.923   3.967   5.781 -1.6963 -1.3285 -2.0653
  750MOL0     H 3445  10.824   4.021   6.065  1.5626  0.6069  1.0189
  750MOL0     H 3446  10.835   4.147   5.938 -2.1177 -0.0151  2.1659
  750MOL0     H 3447  11.026   4.128   6.104  0.4711 -0.3092  0.5786
  750MOL0     H 3448  11.038   3.950   6.083 -0.5437 -0.6620 -1.0209
  750MOL0     H 3449  11.191   4.286   5.968  0.9707 -0.4384 -0.2733
  750MOL0     H 3450  11.428   4.334   5.900 -1.8297 -2.1453  1.1428
  750MOL0     H 3451  11.476   4.258   5.746  0.5302  0.2959 -0.3819
  750MOL0     H 3452  11.584   4.071   5.872  0.8073  0.4350 -0.1065
  750MOL0     H 3453  11.647   4.231   5.898  1.3148 -2.6389 -2.2123
  750MOL0     H 3454  11.482   4.233   6.107  3.0700  0.9508  2.1095
  750MOL0     H 3455  11.470   4.055   6.082 -1.2085  1.0872  1.8467
  750MOL0     H 3456  11.669   4.093   6.236 -0.5003 -1.2752 -0.9714
  750MOL0     H 3457  11.720   4.071   6.069  1.0305  0.4860  0.3619
  750MOL0     H 3458  11.917   4.065   6.173 -2.0255  1.2204 -0.0852
  750MOL0     H 3459  12.270   4.042   6.217 -1.3104  1.4799 -2.0054
  750MOL0     H 3460  12.122   3.947   6.215  1.7380  0.6378 -2.9765
  750MOL0     H 3461  12.163   4.032   6.366 -1.5913 -0.9223  0.2960
  750MOL0     H 3462  12.595   4.106   6.245  3.0388 -0.9835  1.1491
  750MOL0     H 3463  12.834   4.180   6.269  0.7688  0.9657 -1.1297
  750MOL0     H 3464  12.875   4.571   6.352 -1.1285 -0.6001 -2.1549
  750MOL0     H 3465  13.043   4.523   6.349  1.3032 -0.6639 -0.8222
  750MOL0     H 3466  13.098   4.625   6.139 -0.6344 -0.5828  1.2199
  750MOL0     H 3467  12.924   4.657   6.121 -0.0313 -3.1300 -0.1071
  750MOL0     H 3468  13.099   4.778   6.336  2.1637 -1.5828 -2.0947
  750MOL0     H 3469  12.937   4.834   6.295 -0.0990  1.3801 -2.6875
  750MOL0     H 3470  13.027   4.912   6.072  2.2538 -1.6728 -2.5658
  750MOL0     H 3471  13.181   4.839   6.094  0.1513  0.9542 -0.4935
  750MOL0     H 3472  13.042   5.065   6.265  0.6895  2.8943 -2.5229
  750MOL0     H 3473  13.193   4.971   6.300 -1.4226 -3.5371 -0.2514
  750MOL0     H 3474  13.281   5.070   6.080 -2.1268 -1.1135 -1.5565
  750MOL0     H 3475  13.253   5.196   6.205 -0.1053  1.6697 -0.0831
  750MOL0     H 3476  13.001   5.197   6.079 -0.1267  0.7258  0.6644
  750MOL0     H 3477  13.090   5.140   5.944 -0.1085 -2.5812  1.6575
  750MOL0     H 3478  13.133   5.408   6.076  1.3837 -0.8270  0.9195
  750MOL0     H 3479  13.108   5.363   5.899  1.3580 -1.8301 -2.2283
  750MOL0     H 3480  12.718   4.578   6.163  0.2425  0.7606  2.5251
  750MOL0     H 3481  12.494   4.517   6.148 -0.5233 -0.9079  2.5017
  750MOL0     H 3482  12.100   4.509   6.242 -0.1214  0.7450 -1.2470
  750MOL0     H 3483  11.862   4.489   6.185  1.4443  0.5140 -1.0647
  750MOL0     H 3484  10.280   3.963   5.252  2.6836 -0.6284 -0.1021
  750MOL0     H 3485  10.141   3.924   5.045 -3.0980 -0.5470 -1.2419
  750MOL0     H 3486   9.780   3.422   4.890 -0.3575 -0.4977  0.2566
  750MOL0     H 3487   9.615   3.444   4.730  1.7859 -1.0435  1.7050
  750MOL0     H 3488   9.689   3.739   4.380 -0.3785  0.2306 -1.4923
  750MOL0     H 3489   9.521   3.709   4.352 -2.5079  0.5913  1.7989
  750MOL0     H 3490   9.562   3.943   4.439 -2.4595 -0.3974 -0.4154
  750MOL0     H 3491   9.628   3.887   4.582  0.4725  0.1532 -0.2429
  750MOL0     H 3492   9.371   3.892   4.472  3.1547 -1.8585 -2.5978
  750MOL0     H 3493   9.388   3.745   4.587  0.8417 -0.7778  1.8829
  750MOL0     H 3494   9.436   4.019   4.670 -2.2250  0.4074  0.9172
  750MOL0     H 3495   9.464   3.869   4.760 -0.3006  0.3019  0.7328
  750MOL0     H 3496   9.035   3.924   4.742  0.3434  0.0204  0.5443
  750MOL0     H 3497   9.842   3.753   4.523 -1.2123  0.5756 -0.4175
  750MOL0     H 3498  10.058   3.832   4.762  1.3756 -0.6623  0.7725
  750MOL0     H 3499  10.129   3.679   4.714  0.5681 -0.1205  1.6564
  750MOL0     H 3500  10.080   3.790   4.585  0.5253 -1.7267  0.6146
  751MOL0     O 3501   8.963   8.323   1.010  0.3204  0.4499  0.8415
  751MOL0     C 3502   8.852   8.304   0.955 -0.9383  0.4641  0.0049
  751MOL0     O 3503   8.780   8.395   0.895  0.0712  0.3438 -0.4590
  751MOL0     C 3504   8.835   8.517   0.854 -0.2219 -0.3534  0.0228
  751MOL0     C 3505   8.974   8.542   0.834  0.1620  0.0815 -0.6227
  751MOL0     C 3506   9.016   8.667   0.796 -0.0050  0.4391 -0.5518
  751MOL0     C 3507   8.922   8.773   0.781 -0.0507  0.2705 -0.3113
  751MOL0     O 3508   8.981   8.884   0.732  0.3751 -0.2432 -0.3056
  751MOL0     C 3509   8.913   8.999   0.686 -0.6314  0.5545  0.9457
  751MOL0     C 3510   9.026   9.104   0.670  0.1722  1.2301 -0.4485
  751MOL0     C 3511   9.146   9.062   0.589  0.1282 -0.3664 -0.0776
  751MOL0     C 3512   9.226   9.186   0.569 -0.4978  0.1745 -0.0359
  751MOL0     C 3513   9.356   9.142   0.492 -0.5764 -0.0931 -0.0478
  751MOL0     C 3514   9.400   9.273   0.425 -0.1718 -0.4038 -0.7795
  751MOL0     C 3515   9.538   9.258   0.352 -0.2543  0.5880  0.9068
  751MOL0     C 3516   9.535   9.154   0.229 -0.0632 -0.7613 -0.1054
  751MOL0     N 3517   9.661   9.157   0.153 -0.5585 -0.6224  0.2684
  751MOL0     C 3518   9.765   9.247   0.168  0.1276 -0.6622  0.1576
  751MOL0     C 3519   9.847   9.216   0.067 -0.2932  1.2734 -0.2113
  751MOL0     C 3520   9.975   9.284   0.032 -0.3181  0.7940  0.1719
  751MOL0     C 3521  10.087   9.244   0.130  0.3947  0.6814  0.1514
  751MOL0     C 3522  10.233   9.231   0.066  0.4739  0.3844 -0.3668
  751MOL0     C 3523  10.289   9.370   0.037 -0.4180 -0.6524 -0.9259
  751MOL0     O 3524  10.424   9.357  -0.009 -0.7214 -0.1814 -0.4677
  751MOL0     C 3525  10.498   9.469  -0.034  0.7877 -0.0314  0.4610
  751MOL0     C 3526  10.442   9.599  -0.018 -0.0296  0.4159  0.4551
  751MOL0     C 3527  10.514   9.714  -0.053  0.0743 -0.0193 -0.3108
  751MOL0     C 3528  10.445   9.855  -0.031  0.2059 -0.0786 -0.5402
  751MOL0     C 3529  10.647   9.705  -0.089  0.1649 -0.1828  0.5848
  751MOL0     C 3530  10.740   9.813  -0.142 -0.1378  0.2118  0.1950
  751MOL0     O 3531  10.864   9.773  -0.178  0.4320 -0.3429  0.9052
  751MOL0     C 3532  10.969   9.866  -0.159  0.2694  1.5592  0.3762
  751MOL0     C 3533  11.047   9.899  -0.265  0.0255  0.3638  0.5338
  751MOL0     C 3534  11.167   9.973  -0.256 -0.0530  0.3378  0.1085
  751MOL0     C 3535  11.201  10.030  -0.133  0.3597  1.0781 -0.2850
  751MOL0     O 3536  11.301  10.116  -0.100 -0.5786 -0.3602  0.0258
  751MOL0     C 3537  11.359  10.200  -0.199 -0.0400  0.0503 -0.1753
  751MOL0     C 3538  11.475  10.115  -0.253  0.5792  0.3889 -0.1890
  751MOL0     C 3539  11.576  10.086  -0.150 -0.1450 -0.3876 -0.3834
  751MOL0     C 3540  11.684  10.009  -0.213 -0.4387 -0.7854 -0.4586
  751MOL0     C 3541  11.787   9.990  -0.099  0.0564  1.6797 -0.2183
  751MOL0     C 3542  11.911   9.905  -0.153 -0.5729 -0.4203 -0.3473
  751MOL0     C 3543  12.028   9.915  -0.052  0.1701 -0.2723  0.5869
  751MOL0     C 3544  12.132   9.807  -0.075  0.8030 -0.6727  0.6205
  751MOL0    Cl 3545  12.200   9.828  -0.242 -0.0558 -0.0452  0.0726
  751MOL0     C 3546  11.106  10.012  -0.032  0.7389 -1.1086 -0.4190
  751MOL0     C 3547  11.000   9.922  -0.036  0.6139 -0.3459  0.2920
  751MOL0     O 3548  10.711   9.937  -0.151  0.6647  0.3614 -0.1129
  751MOL0     C 3549  10.701   9.570  -0.093  1.0608 -0.5186 -0.5495
  751MOL0     C 3550  10.621   9.456  -0.075  0.1555  0.2972  0.0351
  751MOL0     N 3551   9.798   9.101  -0.001 -0.2341 -0.1819 -0.3134
  751MOL0     N 3552   9.685   9.068   0.053  0.2779 -0.1339 -0.4592
  751MOL0     C 3553   8.785   8.740   0.795  0.2250 -0.5263  0.7341
  751MOL0     C 3554   8.741   8.612   0.819  0.0701 -0.4900  1.2148
  751MOL0     C 3555   8.788   8.167   0.960  0.9182 -0.1218  0.7296
  751MOL0     C 3556   8.685   8.138   0.872 -0.2821 -0.6593 -0.5957
  751MOL0     C 3557   8.611   8.022   0.865  0.6988  0.8451  0.2982
  751MOL0     C 3558   8.638   7.931   0.972 -0.4717 -0.7877 -0.3313
  751MOL0     O 3559   8.564   7.818   1.005  0.1561  0.2282  0.5079
  751MOL0     C 3560   8.461   7.782   0.912  0.2925 -0.3577 -0.2326
  751MOL0     C 3561   8.411   7.643   0.952 -0.6682  0.0085  0.6258
  751MOL0     C 3562   8.540   7.557   0.959  0.0200  0.1923 -0.5740
  751MOL0     C 3563   8.496   7.413   0.930 -0.0481 -0.3311  0.4539
  751MOL0     C 3564   8.603   7.317   0.930  0.7965  0.1016 -0.2183
  751MOL0     C 3565   8.690   7.230   0.942  0.0031 -0.5301 -0.8025
  751MOL0     C 3566   8.738   7.959   1.063 -1.4081  0.0922  0.8932
  751MOL0     C 3567   8.821   8.074   1.061  0.1625  0.6869 -0.2494
  751MOL0     C 3568   8.925   8.089   1.165 -0.0889 -0.4514 -0.2308
  751MOL0     H 3569   9.058   8.476   0.857 -2.0861 -2.0398  2.2518
  751MOL0     H 3570   9.124   8.676   0.785  0.1552 -1.7999 -1.3005
  751MOL0     H 3571   8.830   9.032   0.749  1.7253  3.5226  2.7585
  751MOL0     H 3572   8.869   8.974   0.589  1.5781 -1.0715  0.2830
  751MOL0     H 3573   8.988   9.189   0.614  0.4885  0.9254 -1.1440
  751MOL0     H 3574   9.054   9.137   0.770 -0.8743  1.3528 -0.1823
  751MOL0     H 3575   9.215   9.007   0.653  0.8102  2.6482  2.0055
  751MOL0     H 3576   9.131   9.008   0.495 -1.4106 -1.7065  0.8807
  751MOL0     H 3577   9.170   9.266   0.521 -1.4438  0.4164  1.3672
  751MOL0     H 3578   9.260   9.223   0.666 -1.0117 -0.9108  0.5861
  751MOL0     H 3579   9.325   9.065   0.421 -1.3884 -1.8612  2.0674
  751MOL0     H 3580   9.425   9.089   0.559 -2.2952 -5.8138 -2.2517
  751MOL0     H 3581   9.324   9.307   0.354 -0.5089  0.3764 -0.0592
  751MOL0     H 3582   9.404   9.353   0.500  3.0118 -1.9190  0.8693
  751MOL0     H 3583   9.619   9.237   0.423  1.0077  2.5392  0.1359
  751MOL0     H 3584   9.565   9.357   0.312 -1.4173 -0.5007 -2.9840
  751MOL0     H 3585   9.527   9.055   0.274  0.3817  0.2183  2.3018
  751MOL0     H 3586   9.443   9.168   0.170  0.7228 -0.5002 -1.2914
  751MOL0     H 3587   9.786   9.329   0.237  3.0274 -2.3570  1.4809
  751MOL0     H 3588   9.953   9.390   0.040  1.8569  1.5368 -2.3470
  751MOL0     H 3589  10.012   9.261  -0.068 -2.5164  0.5143 -0.6333
  751MOL0     H 3590  10.087   9.318   0.210 -1.1335  0.5519  0.3013
  751MOL0     H 3591  10.062   9.148   0.176  0.6535  0.1904 -0.7106
  751MOL0     H 3592  10.301   9.185   0.138  1.3989  1.1667 -0.7202
  751MOL0     H 3593  10.237   9.166  -0.022  1.0553 -0.9881  0.6366
  751MOL0     H 3594  10.221   9.421  -0.032  0.1887 -0.6403 -1.5269
  751MOL0     H 3595  10.302   9.416   0.135 -0.4071 -2.2652 -0.1341
  751MOL0     H 3596  10.341   9.605   0.023 -1.4622 -0.2909 -2.6458
  751MOL0     H 3597  10.509   9.911   0.038  1.2713 -3.4517  1.3906
  751MOL0     H 3598  10.346   9.844   0.012  1.3133  1.3202  2.7191
  751MOL0     H 3599  10.448   9.905  -0.129  2.0193 -0.9381 -0.9733
  751MOL0     H 3600  11.024   9.867  -0.366  1.5212  0.3894  0.1618
  751MOL0     H 3601  11.217   9.995  -0.350  2.8133  1.9148  1.8692
  751MOL0     H 3602  11.288  10.222  -0.280  0.4710  1.9849 -0.1295
  751MOL0     H 3603  11.397  10.287  -0.145 -0.8999 -1.2570  2.6975
  751MOL0     H 3604  11.443  10.028  -0.311 -1.1044  1.5588 -1.0925
  751MOL0     H 3605  11.516  10.171  -0.338 -1.7674  0.3988 -1.3927
  751MOL0     H 3606  11.531  10.031  -0.066  2.0653 -2.0694 -0.2130
  751MOL0     H 3607  11.631  10.174  -0.116  1.9809 -2.3016  1.4921
  751MOL0     H 3608  11.722  10.067  -0.298 -0.2880 -2.2062 -1.4121
  751MOL0     H 3609  11.655   9.910  -0.249 -1.9070 -0.6049  0.1889
  751MOL0     H 3610  11.820  10.087  -0.062 -1.2663  2.6459 -1.4914
  751MOL0     H 3611  11.750   9.933  -0.013  0.7654 -0.9486 -1.5441
  751MOL0     H 3612  11.950   9.942  -0.248 -0.1434 -0.2675 -0.1162
  751MOL0     H 3613  11.876   9.803  -0.165  0.4829 -0.5892 -2.4960
  751MOL0     H 3614  11.991   9.897   0.049  0.7240 -2.4568  0.4397
  751MOL0     H 3615  12.069  10.016  -0.045 -2.0295  0.6877  0.6748
  751MOL0     H 3616  12.084   9.709  -0.063  1.3446 -0.9214  0.7924
  751MOL0     H 3617  12.221   9.811  -0.012  1.6798 -3.1559 -0.3162
  751MOL0     H 3618  11.121  10.058   0.065  1.7199  2.1639 -1.9517
  751MOL0     H 3619  10.946   9.890   0.053  2.2113  0.3645  1.5802
  751MOL0     H 3620  10.807   9.560  -0.115  1.4582 -1.2168  1.5371
  751MOL0     H 3621  10.674   9.362  -0.083  2.2868  1.4314  0.0094
  751MOL0     H 3622   8.719   8.817   0.754  1.7278 -0.5834 -2.1110
  751MOL0     H 3623   8.634   8.593   0.808 -0.5720  1.6611  3.0397
  751MOL0     H 3624   8.654   8.207   0.794 -1.3995 -0.0315  0.3675
  751MOL0     H 3625   8.530   8.005   0.796  1.4716  1.7707 -0.8866
  751MOL0     H 3626   8.390   7.864   0.924  0.6802 -0.0425 -0.0926
  751MOL0     H 3627   8.482   7.777   0.805 -0.8523 -0.5680 -0.4583
  751MOL0     H 3628   8.335   7.605   0.882  0.0450  1.5854 -1.0900
  751MOL0     H 3629   8.374   7.649   1.055 -1.6663  0.5367  0.2540
  751MOL0     H 3630   8.626   7.588   0.899  0.9849 -0.1133  0.6013
  751MOL0     H 3631   8.573   7.561   1.063 -0.5678  0.7251 -0.4012
  751MOL0     H 3632   8.451   7.406   0.830 -0.0695 -1.7709  0.5410
  751MOL0     H 3633   8.427   7.381   1.008 -0.5831  1.2844  0.6841
  751MOL0     H 3634   8.766   7.156   0.953  0.8910  0.6416  1.7288
  751MOL0     H 3635   8.762   7.887   1.141 -0.4877  0.3938  0.9020
  751MOL0     H 3636   8.888   8.049   1.260  1.6377 -1.3363  0.0936
  751MOL0     H 3637   9.024   8.053   1.135 -0.9300 -2.6265 -0.5442
  751MOL0     H 3638   8.935   8.196   1.187  1.4083 -0.5078 -0.5206
  752MOL0     O 3639   3.428   8.210   9.777  0.3436 -0.4975 -0.0131
  752MOL0     C 3640   3.527   8.130   9.766 -0.0415 -0.3706  0.1273
  752MOL0     O 3641   3.517   8.002   9.746 -0.1409  0.3598 -0.5312
  752MOL0     C 3642   3.399   7.927   9.753 -0.6769  0.6756 -0.0521
  752MOL0     C 3643   3.420   7.789   9.768  0.5360  0.6799 -0.1643
  752MOL0     C 3644   3.312   7.704   9.792 -0.0631  0.0957  0.7403
  752MOL0     C 3645   3.179   7.755   9.804 -0.1359 -0.3508  0.5424
  752MOL0     O 3646   3.071   7.678   9.811 -0.0545 -0.0016 -0.6814
  752MOL0     C 3647   3.077   7.529   9.842  0.6808  0.0827  0.5661
  752MOL0     C 3648   3.039   7.450   9.719 -0.7328  0.3223  0.1329
  752MOL0     C 3649   3.168   7.395   9.644  0.2622  0.4078  0.1874
  752MOL0     C 3650   3.135   7.305   9.529  0.1356 -0.3734 -0.3649
  752MOL0     C 3651   3.240   7.231   9.456 -0.6143  0.1442  0.3757
  752MOL0     C 3652   3.182   7.116   9.376 -0.4690 -0.5157 -0.8031
  752MOL0     C 3653   3.298   7.063   9.292 -1.0959  0.4619  0.7241
  752MOL0     C 3654   3.272   6.941   9.199 -0.8039 -0.3663 -0.4754
  752MOL0     N 3655   3.360   6.929   9.083  1.0069 -0.0631  0.7155
  752MOL0     C 3656   3.497   6.931   9.074 -0.2970  0.6793 -0.1331
  752MOL0     C 3657   3.530   6.957   8.943 -0.7519  1.1347  1.0059
  752MOL0     C 3658   3.665   7.007   8.893  0.5468 -1.2312  0.2852
  752MOL0     C 3659   3.639   7.093   8.765  0.5541 -0.7476  0.2743
  752MOL0     C 3660   3.754   7.145   8.685  0.4950  0.6558  1.2946
  752MOL0     C 3661   3.856   7.239   8.755 -0.2613 -0.7994  0.2092
  752MOL0     O 3662   3.965   7.259   8.659  0.4252  0.5194 -0.3704
  752MOL0     C 3663   4.087   7.312   8.708  0.2264  0.7162  0.2108
  752MOL0     C 3664   4.190   7.328   8.624  0.0110  0.4327  0.1435
  752MOL0     C 3665   4.309   7.387   8.662 -0.8180  0.2715  0.5751
  752MOL0     C 3666   4.410   7.404   8.547  0.4069  0.7193  0.8466
  752MOL0     C 3667   4.338   7.436   8.789  0.1153  0.8788 -0.4055
  752MOL0     C 3668   4.473   7.506   8.832 -0.3260  0.1872  0.4713
  752MOL0     O 3669   4.473   7.575   8.943 -0.6704  0.6701 -0.8528
  752MOL0     C 3670   4.589   7.627   8.991  0.0192 -0.0012  0.4313
  752MOL0     C 3671   4.642   7.753   8.949  0.0526 -0.6806  0.0027
  752MOL0     C 3672   4.755   7.814   9.007 -0.0344  0.2611  1.0686
  752MOL0     C 3673   4.823   7.760   9.106 -0.0548 -0.3570  0.3984
  752MOL0     O 3674   4.935   7.821   9.157 -0.4640 -0.2188  0.2212
  752MOL0     C 3675   5.063   7.745   9.167 -0.6946 -0.3635 -0.2575
  752MOL0     C 3676   5.128   7.782   9.305 -0.5121  0.1355  1.0456
  752MOL0     C 3677   5.253   7.698   9.346  0.0278 -0.2013 -0.0893
  752MOL0     C 3678   5.309   7.746   9.483 -0.6859  0.6142 -0.7277
  752MOL0     C 3679   5.447   7.690   9.511 -0.3429 -0.2046 -0.2601
  752MOL0     C 3680   5.478   7.678   9.661 -0.3572 -0.5122 -0.8588
  752MOL0     C 3681   5.628   7.637   9.691  0.6241 -0.5167  0.5974
  752MOL0     C 3682   5.674   7.655   9.841 -0.8663  0.0079  1.0355
  752MOL0    Cl 3683   5.833   7.583   9.865 -0.3843  0.3846  0.3265
  752MOL0     C 3684   4.781   7.637   9.149 -0.8346 -0.8774  0.6961
  752MOL0     C 3685   4.664   7.565   9.096  0.2472 -0.5819  0.5706
  752MOL0     O 3686   4.570   7.498   8.754 -0.3764 -0.4841 -0.5289
  752MOL0     C 3687   4.224   7.421   8.880 -0.5323 -0.1871 -0.1110
  752MOL0     C 3688   4.104   7.365   8.835 -0.0368  0.1624  0.4379
  752MOL0     N 3689   3.413   6.945   8.878 -0.5347  0.5805  0.9229
  752MOL0     N 3690   3.320   6.952   8.952  0.8623 -0.1145 -0.1262
  752MOL0     C 3691   3.159   7.892   9.774 -0.1194  0.2055 -0.8904
  752MOL0     C 3692   3.270   7.977   9.751  0.2041  0.0749  0.0099
  752MOL0     C 3693   3.666   8.185   9.796 -0.4016  0.4143 -0.5685
  752MOL0     C 3694   3.703   8.309   9.750 -0.0377 -0.1978 -0.1112
  752MOL0     C 3695   3.829   8.359   9.768  0.1228 -0.6057  0.5388
  752MOL0     C 3696   3.932   8.300   9.850 -0.0254  0.0368 -0.6596
  752MOL0     O 3697   4.054   8.349   9.880 -0.5987 -0.2739  0.5501
  752MOL0     C 3698   4.066   8.492   9.856 -0.3993 -0.0620  0.4362
  752MOL0     C 3699   4.212   8.527   9.901 -0.0849  0.7166 -0.0262
  752MOL0     C 3700   4.311   8.487   9.795 -0.5271  0.0884 -0.0428
  752MOL0     C 3701   4.454   8.497   9.858 -0.0238  0.6875 -0.7876
  752MOL0     C 3702   4.488   8.369   9.926  1.0117 -0.8622 -0.5669
  752MOL0     C 3703   4.506   8.263   9.981  0.3814 -0.7147 -0.5510
  752MOL0     C 3704   3.894   8.175   9.905  1.0027 -0.6242  0.0404
  752MOL0     C 3705   3.769   8.121   9.870  0.0233  0.9735  0.1143
  752MOL0     C 3706   3.719   8.002   9.957 -1.3370  0.7376  0.2074
  752MOL0     H 3707   3.514   7.734   9.767  0.8617  1.2329 -0.9191
  752MOL0     H 3708   3.339   7.599   9.794 -3.4296 -1.6021 -6.6518
  752MOL0     H 3709   2.990   7.519   9.907 -0.1211  1.3742 -0.2629
  752MOL0     H 3710   3.169   7.488   9.885 -0.2798 -0.2135  2.4103
  752MOL0     H 3711   2.974   7.366   9.748  0.4678 -1.0699 -1.0508
  752MOL0     H 3712   2.982   7.508   9.646  0.4651 -1.9314 -2.7970
  752MOL0     H 3713   3.227   7.477   9.602 -0.2243  0.9246  0.4913
  752MOL0     H 3714   3.219   7.336   9.721 -0.9061 -0.5814  0.2446
  752MOL0     H 3715   3.065   7.238   9.580 -0.4559 -0.5690 -1.3946
  752MOL0     H 3716   3.088   7.362   9.448  2.0746 -1.4854 -2.3817
  752MOL0     H 3717   3.306   7.204   9.539  0.1922  1.0094  0.0475
  752MOL0     H 3718   3.305   7.301   9.402  1.2598 -1.7035  0.1170
  752MOL0     H 3719   3.148   7.044   9.451 -0.8631  1.4253  0.9523
  752MOL0     H 3720   3.100   7.144   9.309  1.7594 -1.1975 -4.0878
  752MOL0     H 3721   3.372   7.024   9.363  1.0689 -1.1716 -2.2352
  752MOL0     H 3722   3.337   7.153   9.243 -0.1315  0.9907  2.3603
  752MOL0     H 3723   3.286   6.861   9.272  0.2401 -0.1497 -0.4244
  752MOL0     H 3724   3.174   6.938   9.151 -1.4983 -2.8500  0.9232
  752MOL0     H 3725   3.557   6.935   9.165 -0.5073 -5.4952  0.6560
  752MOL0     H 3726   3.731   6.920   8.884 -0.9578 -2.4004  0.0555
  752MOL0     H 3727   3.706   7.079   8.964 -0.4214 -1.1107  0.7491
  752MOL0     H 3728   3.571   7.032   8.705 -1.5251 -1.8025  3.4349
  752MOL0     H 3729   3.573   7.174   8.798  0.7588 -0.4811  0.0271
  752MOL0     H 3730   3.804   7.066   8.628  1.2784  2.5881 -0.8736
  752MOL0     H 3731   3.717   7.201   8.598 -1.9389 -1.3409  0.9333
  752MOL0     H 3732   3.818   7.335   8.791 -0.7323 -1.5396  1.7706
  752MOL0     H 3733   3.886   7.190   8.848  0.0847  0.7714  0.9465
  752MOL0     H 3734   4.172   7.306   8.519 -1.3069  2.9194 -0.2209
  752MOL0     H 3735   4.446   7.506   8.536  0.0943  1.0139  2.2639
  752MOL0     H 3736   4.365   7.362   8.457 -0.7206 -1.1708  2.1908
  752MOL0     H 3737   4.498   7.342   8.568 -2.7025 -3.2255  4.1795
  752MOL0     H 3738   4.592   7.817   8.877 -0.1278  2.2002  2.4710
  752MOL0     H 3739   4.777   7.913   8.969 -0.5121  1.1988  3.1408
  752MOL0     H 3740   5.041   7.638   9.161 -2.0379 -0.1067 -0.3635
  752MOL0     H 3741   5.137   7.767   9.089  2.3291 -2.1989  1.8876
  752MOL0     H 3742   5.150   7.889   9.310 -1.1210  0.2939  0.4854
  752MOL0     H 3743   5.056   7.750   9.380  0.0418  1.0901  2.0128
  752MOL0     H 3744   5.320   7.705   9.260 -1.8458  1.0164 -1.5244
  752MOL0     H 3745   5.232   7.591   9.354 -1.3442 -0.0211 -0.9106
  752MOL0     H 3746   5.239   7.741   9.567  1.3265  2.9057  1.2623
  752MOL0     H 3747   5.331   7.852   9.467 -0.2080  0.8152  0.9923
  752MOL0     H 3748   5.462   7.592   9.467 -1.5322 -0.1764 -0.7810
  752MOL0     H 3749   5.513   7.765   9.466 -0.4211  0.3176  0.4788
  752MOL0     H 3750   5.409   7.608   9.709  1.0934 -1.0464  0.5338
  752MOL0     H 3751   5.465   7.770   9.719  0.5520 -1.9326  1.7628
  752MOL0     H 3752   5.699   7.699   9.635  0.2461  1.1251  1.8450
  752MOL0     H 3753   5.636   7.534   9.655 -2.2445 -0.4819 -0.4031
  752MOL0     H 3754   5.604   7.593   9.899 -0.6414 -0.1731  1.1141
  752MOL0     H 3755   5.676   7.760   9.871  1.8582 -0.2262  1.9664
  752MOL0     H 3756   4.824   7.580   9.231 -0.7122 -2.5863 -0.4973
  752MOL0     H 3757   4.620   7.472   9.131  0.7658 -0.2342  2.2280
  752MOL0     H 3758   4.233   7.446   8.985 -0.1126 -2.1566  0.3686
  752MOL0     H 3759   4.021   7.362   8.905  0.5877 -0.0307  1.1897
  752MOL0     H 3760   3.060   7.934   9.769  0.1587  0.7672 -1.8092
  752MOL0     H 3761   3.240   8.075   9.715 -0.1302 -1.5931 -4.9507
  752MOL0     H 3762   3.637   8.376   9.696  1.0877 -0.2408 -1.6171
  752MOL0     H 3763   3.843   8.455   9.718  4.3702 -1.9513 -1.4019
  752MOL0     H 3764   4.048   8.535   9.757  1.1309  1.9698  0.9714
  752MOL0     H 3765   3.993   8.540   9.922 -1.0288 -2.0717  1.3034
  752MOL0     H 3766   4.225   8.479   9.998 -3.3654  0.8572  0.6015
  752MOL0     H 3767   4.219   8.634   9.925 -0.3650  0.1765  2.7593
  752MOL0     H 3768   4.285   8.386   9.762  0.6984 -0.9340  1.9265
  752MOL0     H 3769   4.306   8.562   9.716  1.7597  0.6248  0.2506
  752MOL0     H 3770   4.469   8.567   9.941 -0.3796 -1.0895  0.8522
  752MOL0     H 3771   4.523   8.523   9.777 -2.3020  0.1287 -3.0091
  752MOL0     H 3772   4.539   8.174  10.031  2.0275 -0.9002 -1.8878
  752MOL0     H 3773   3.968   8.129   9.970  0.5023 -0.8128  0.4804
  752MOL0     H 3774   3.629   8.025  10.013 -1.4570 -0.1813  0.3955
  752MOL0     H 3775   3.701   7.919   9.887  2.3390  0.4045 -0.5733
  752MOL0     H 3776   3.790   7.966  10.032 -1.9401  1.5425  1.1788
  753MOL0     O 3777   6.491   0.305   5.769  0.4073  0.6859 -1.2657
  753MOL0     C 3778   6.404   0.394   5.778 -0.5608  0.1846 -0.7217
  753MOL0     O 3779   6.420   0.525   5.753 -0.8839 -0.2280  0.0510
  753MOL0     C 3780   6.537   0.581   5.698  0.5824  0.9941  0.2928
  753MOL0     C 3781   6.532   0.670   5.593  0.0206  0.7218  0.3623
  753MOL0     C 3782   6.658   0.722   5.548 -0.4851 -0.0151 -0.3213
  753MOL0     C 3783   6.778   0.695   5.612  0.6064 -0.8413  0.3488
  753MOL0     O 3784   6.900   0.737   5.558  0.1817 -0.5743  0.2929
  753MOL0     C 3785   6.948   0.873   5.596  1.2199  0.3610 -0.6121
  753MOL0     C 3786   7.014   0.871   5.728 -0.1667  0.9730 -0.8714
  753MOL0     C 3787   7.075   1.015   5.766  0.0969 -0.4752  0.2666
  753MOL0     C 3788   7.172   1.007   5.880 -0.3464 -0.6530 -0.9509
  753MOL0     C 3789   7.196   1.139   5.939 -0.0120 -0.9718  0.3184
  753MOL0     C 3790   7.338   1.161   5.990 -0.4109 -1.0133  0.1039
  753MOL0     C 3791   7.373   1.300   6.048 -0.7418  0.0123  0.2663
  753MOL0     C 3792   7.413   1.408   5.946 -0.9166 -0.5882  1.0908
  753MOL0     N 3793   7.541   1.384   5.884  0.9327  0.6606  0.6570
  753MOL0     C 3794   7.664   1.429   5.924  0.4675  0.1676  0.0121
  753MOL0     C 3795   7.752   1.369   5.837 -0.8967  0.1726 -0.2145
  753MOL0     C 3796   7.899   1.392   5.862  0.3203  0.2097 -0.2392
  753MOL0     C 3797   7.994   1.279   5.831  0.4248 -0.3583  0.6549
  753MOL0     C 3798   7.957   1.143   5.889  0.2080 -0.0674 -0.3827
  753MOL0     C 3799   7.975   1.131   6.040 -0.9758  0.8723  0.4839
  753MOL0     O 3800   7.843   1.122   6.108  0.3916 -0.9135 -0.3737
  753MOL0     C 3801   7.853   1.083   6.243 -0.5279  0.2002  0.3697
  753MOL0     C 3802   7.965   1.084   6.323 -0.0396 -0.0050  0.2393
  753MOL0     C 3803   7.965   1.031   6.456  0.0903  0.0843  0.9436
  753MOL0     C 3804   8.104   1.018   6.506 -0.8376  0.0869  0.8227
  753MOL0     C 3805   7.847   0.989   6.505  0.0429  0.0212  0.8879
  753MOL0     C 3806   7.832   0.940   6.643 -0.3563 -0.5007 -0.7020
  753MOL0     O 3807   7.709   0.901   6.670 -0.2516 -0.0751  0.6098
  753MOL0     C 3808   7.685   0.822   6.782 -0.8604  0.1307 -0.1717
  753MOL0     C 3809   7.594   0.854   6.886 -0.1441  0.6334  0.5750
  753MOL0     C 3810   7.572   0.766   6.990  0.4493  0.0678  0.1153
  753MOL0     C 3811   7.633   0.637   6.993 -0.1937 -0.4163  0.5711
  753MOL0     O 3812   7.634   0.557   7.098 -0.9474 -0.1156 -0.2735
  753MOL0     C 3813   7.764   0.502   7.147 -0.0294  0.1666  0.0643
  753MOL0     C 3814   7.870   0.602   7.173 -0.3246 -0.1353  0.2951
  753MOL0     C 3815   8.006   0.535   7.181 -0.0328  0.1460  0.0729
  753MOL0     C 3816   8.069   0.540   7.035 -0.4881 -0.2752 -0.0800
  753MOL0     C 3817   8.173   0.433   7.018  0.2721  0.1805 -0.0320
  753MOL0     C 3818   8.287   0.458   7.114 -0.1838 -0.0066 -0.3892
  753MOL0     C 3819   8.403   0.356   7.083  0.2840 -0.7436  0.7069
  753MOL0     C 3820   8.521   0.364   7.180  0.1521  0.2981  0.4407
  753MOL0    Cl 3821   8.637   0.498   7.162 -0.1504 -0.0867  0.0618
  753MOL0     C 3822   7.712   0.599   6.884  0.0978  0.1040  0.2266
  753MOL0     C 3823   7.739   0.696   6.779 -0.4541  0.7495  0.3167
  753MOL0     O 3824   7.925   0.936   6.724 -0.5836  0.3560 -0.3568
  753MOL0     C 3825   7.728   0.994   6.421  0.5368 -1.4226  0.1994
  753MOL0     C 3826   7.729   1.033   6.290  0.1579 -1.0417 -0.4016
  753MOL0     N 3827   7.681   1.300   5.738 -0.1875 -0.0561  0.3205
  753MOL0     N 3828   7.560   1.296   5.770 -0.3514  0.1249 -0.2096
  753MOL0     C 3829   6.771   0.626   5.727 -0.2985  0.3627  0.4177
  753MOL0     C 3830   6.657   0.568   5.772  0.0877 -0.2886  0.6930
  753MOL0     C 3831   6.265   0.349   5.814 -0.0720 -0.5896  0.4937
  753MOL0     C 3832   6.252   0.216   5.851  0.2174  0.1716 -0.5205
  753MOL0     C 3833   6.128   0.148   5.861 -0.2384 -0.6034  0.6149
  753MOL0     C 3834   6.010   0.229   5.856  0.0826  0.7155  0.2108
  753MOL0     O 3835   5.887   0.168   5.851 -0.6459  0.0016 -0.1516
  753MOL0     C 3836   5.853   0.094   5.963  0.8984 -0.3233  0.1881
  753MOL0     C 3837   5.727   0.150   6.033  0.2497  0.8855  0.0696
  753MOL0     C 3838   5.715   0.299   6.040  0.0835 -0.9184 -0.1627
  753MOL0     C 3839   5.819   0.363   6.138 -0.6750  1.0135  0.3172
  753MOL0     C 3840   5.837   0.298   6.269 -0.1667 -0.0187 -0.5177
  753MOL0     C 3841   5.864   0.221   6.355 -0.5475 -0.8517 -0.2154
  753MOL0     C 3842   6.025   0.358   5.811  0.1790  0.0545  0.4627
  753MOL0     C 3843   6.144   0.422   5.784 -0.5975  0.4604  0.2641
  753MOL0     C 3844   6.139   0.560   5.724 -0.1216  0.5549  0.5575
  753MOL0     H 3845   6.440   0.681   5.538 -0.9637 -0.1085  1.7739
  753MOL0     H 3846   6.654   0.788   5.461 -0.7663 -0.3516 -0.5648
  753MOL0     H 3847   6.862   0.940   5.602  0.3369 -0.8556  1.2822
  753MOL0     H 3848   7.014   0.907   5.516  2.8232 -0.0948  0.4829
  753MOL0     H 3849   6.935   0.857   5.801  2.1136 -2.7555  1.2080
  753MOL0     H 3850   7.089   0.792   5.736  1.3426  2.5725  3.7019
  753MOL0     H 3851   7.117   1.067   5.680 -1.7449  0.3258 -0.1766
  753MOL0     H 3852   6.993   1.081   5.792  0.5547 -0.0718  0.6962
  753MOL0     H 3853   7.139   0.937   5.958  2.9865  0.7932  2.0238
  753MOL0     H 3854   7.267   0.973   5.836  1.0644  1.5457  0.2050
  753MOL0     H 3855   7.124   1.165   6.017 -0.1822 -2.3170  0.6248
  753MOL0     H 3856   7.184   1.213   5.859  0.9301  0.2402  1.2612
  753MOL0     H 3857   7.349   1.076   6.058 -0.5540 -0.5178  0.7685
  753MOL0     H 3858   7.402   1.152   5.902 -0.3041  1.3229 -0.1287
  753MOL0     H 3859   7.454   1.296   6.121  0.3269 -2.7203 -0.9436
  753MOL0     H 3860   7.276   1.311   6.099 -1.5712 -1.2857 -0.9629
  753MOL0     H 3861   7.337   1.401   5.867  1.6420 -1.6163 -1.4576
  753MOL0     H 3862   7.412   1.508   5.989  2.4792 -0.8262  2.0134
  753MOL0     H 3863   7.687   1.499   6.004 -1.3920  1.3601 -0.4311
  753MOL0     H 3864   7.898   1.432   5.964 -2.2885  1.8102 -0.7898
  753MOL0     H 3865   7.927   1.475   5.796  0.2864  0.9681  0.6701
  753MOL0     H 3866   7.999   1.268   5.722 -0.1454 -0.8437  0.6722
  753MOL0     H 3867   8.095   1.307   5.861  0.4293  1.7318 -1.0164
  753MOL0     H 3868   7.849   1.134   5.872 -0.3216  2.6766  0.9161
  753MOL0     H 3869   8.025   1.074   5.838  0.2917  0.5604 -1.1337
  753MOL0     H 3870   8.041   1.048   6.066 -0.6625  0.8735 -0.2796
  753MOL0     H 3871   8.018   1.225   6.076  1.3310  0.6616 -1.4580
  753MOL0     H 3872   8.058   1.105   6.270 -0.3462  1.4449  0.2467
  753MOL0     H 3873   8.189   1.054   6.447  1.1943 -1.5236  2.6213
  753MOL0     H 3874   8.123   0.911   6.519  2.5218  0.5843  0.8471
  753MOL0     H 3875   8.115   1.082   6.595 -1.3726  1.8853 -0.3442
  753MOL0     H 3876   7.548   0.953   6.891  1.0582  1.2576 -0.2321
  753MOL0     H 3877   7.512   0.816   7.065 -1.9758  0.4667 -1.9555
  753MOL0     H 3878   7.741   0.457   7.244  0.4803  0.5273  0.3548
  753MOL0     H 3879   7.792   0.422   7.078  2.5183 -0.1038  1.3147
  753MOL0     H 3880   7.883   0.663   7.083  0.6255 -4.4267 -2.7957
  753MOL0     H 3881   7.830   0.659   7.258 -1.5485  0.4413 -0.6358
  753MOL0     H 3882   8.006   0.436   7.227  1.0703 -0.5842 -1.4101
  753MOL0     H 3883   8.073   0.592   7.244 -0.7500 -0.6792  1.6371
  753MOL0     H 3884   8.108   0.641   7.019 -0.1270 -0.3222  0.4728
  753MOL0     H 3885   8.002   0.525   6.950  0.6091  0.7308 -1.1618
  753MOL0     H 3886   8.118   0.342   7.044  1.6613 -0.5343  0.5237
  753MOL0     H 3887   8.196   0.423   6.912  1.4889 -0.7486  0.2985
  753MOL0     H 3888   8.258   0.445   7.219  0.8816 -0.5972 -0.1535
  753MOL0     H 3889   8.324   0.558   7.092  1.2782 -0.2135  0.9167
  753MOL0     H 3890   8.443   0.388   6.986  1.3720  2.0575  1.9774
  753MOL0     H 3891   8.357   0.257   7.087 -1.8608 -0.1203 -3.2584
  753MOL0     H 3892   8.576   0.270   7.170  2.3789  1.5394  0.3728
  753MOL0     H 3893   8.478   0.372   7.280  0.9791 -3.0031  1.1986
  753MOL0     H 3894   7.759   0.502   6.877  0.1245  0.0862  0.6153
  753MOL0     H 3895   7.808   0.665   6.702  0.9670 -1.3122  2.2752
  753MOL0     H 3896   7.636   0.965   6.471  1.2947 -2.2511  1.1489
  753MOL0     H 3897   7.637   1.049   6.236 -0.8785  0.0585  1.5503
  753MOL0     H 3898   6.854   0.591   5.788 -2.2242 -1.3601  2.1929
  753MOL0     H 3899   6.654   0.499   5.856  2.6751  0.5292  1.5464
  753MOL0     H 3900   6.346   0.168   5.878 -0.2269  0.0277  0.8189
  753MOL0     H 3901   6.127   0.041   5.882  2.7984 -0.8127  0.1314
  753MOL0     H 3902   5.841  -0.013   5.943  2.4996 -0.6217  0.7391
  753MOL0     H 3903   5.926   0.099   6.044  1.4402 -3.4479  0.0105
  753MOL0     H 3904   5.726   0.103   6.132  1.9540 -1.9988 -1.1533
  753MOL0     H 3905   5.641   0.112   5.977  0.3583 -2.6306  1.9396
  753MOL0     H 3906   5.723   0.346   5.942 -0.3752  1.3247  0.8210
  753MOL0     H 3907   5.616   0.333   6.071  2.0416  0.9014  5.1667
  753MOL0     H 3908   5.806   0.471   6.155  0.7239  1.2025  0.2936
  753MOL0     H 3909   5.912   0.354   6.081 -0.8450  1.8466 -0.1117
  753MOL0     H 3910   5.873   0.145   6.429  0.5516 -0.1406  0.4207
  753MOL0     H 3911   5.941   0.415   5.772 -0.6578 -0.8164  0.9590
  753MOL0     H 3912   6.043   0.594   5.684  1.4011  3.7264 -0.7424
  753MOL0     H 3913   6.167   0.632   5.800  0.1738  0.6585  0.3529
  753MOL0     H 3914   6.210   0.577   5.642 -2.0501 -2.0705 -1.8649
  754MOL0     O 3915   7.592   4.793   8.143 -0.3187  0.5718  0.2767
  754MOL0     C 3916   7.646   4.693   8.088  0.0552  0.0254 -0.2113
  754MOL0     O 3917   7.760   4.687   8.007 -0.4988 -0.2667 -0.0330
  754MOL0     C 3918   7.841   4.798   7.987  1.2823 -0.1205  0.1403
  754MOL0     C 3919   7.942   4.818   8.079  0.1995  0.2602  0.1805
  754MOL0     C 3920   8.035   4.912   8.043  0.6151 -0.5739 -1.0845
  754MOL0     C 3921   8.012   5.006   7.945 -0.7665 -1.4920  0.0730
  754MOL0     O 3922   8.104   5.114   7.939  0.0962  0.3104 -0.0253
  754MOL0     C 3923   8.088   5.213   7.843  0.1806 -0.2763 -0.0479
  754MOL0     C 3924   8.159   5.177   7.709  0.3408  0.0668 -1.5582
  754MOL0     C 3925   8.306   5.164   7.723 -0.3464 -0.1975  0.0068
  754MOL0     C 3926   8.364   5.196   7.575 -0.2825 -0.2163 -0.5896
  754MOL0     C 3927   8.520   5.200   7.589 -0.1406  0.7580  0.8844
  754MOL0     C 3928   8.591   5.201   7.453  0.9555  0.1240 -0.7267
  754MOL0     C 3929   8.736   5.256   7.454  0.4092  0.0098  0.8099
  754MOL0     C 3930   8.779   5.293   7.306  0.3624 -0.3166 -0.0317
  754MOL0     N 3931   8.919   5.345   7.297  0.7780  0.3634 -0.2629
  754MOL0     C 3932   9.029   5.294   7.234 -0.4157  0.1906 -0.0866
  754MOL0     C 3933   9.135   5.372   7.272  0.1597  0.0828 -0.0138
  754MOL0     C 3934   9.281   5.352   7.231  0.0644  0.1357  0.2004
  754MOL0     C 3935   9.326   5.210   7.268 -0.9855  0.2563 -0.3498
  754MOL0     C 3936   9.372   5.200   7.415  0.2466 -0.0914 -0.4311
  754MOL0     C 3937   9.415   5.064   7.439 -0.2213  0.2145 -0.3193
  754MOL0     O 3938   9.508   4.997   7.353  0.3627  0.2859 -0.5733
  754MOL0     C 3939   9.624   5.064   7.317 -0.5610 -0.4605 -0.6686
  754MOL0     C 3940   9.671   5.026   7.193  0.4862  0.8553 -0.8530
  754MOL0     C 3941   9.804   5.066   7.149  0.0700  1.3801 -0.0739
  754MOL0     C 3942   9.856   5.003   7.026  0.2353  0.2119  0.2885
  754MOL0     C 3943   9.869   5.168   7.222  1.4369 -0.2895  0.0369
  754MOL0     C 3944   9.999   5.216   7.186 -0.1258  1.0419 -0.2484
  754MOL0     O 3945  10.006   5.349   7.163  0.8426 -0.5613  0.5709
  754MOL0     C 3946  10.124   5.420   7.164  0.2010 -0.5343 -0.3507
  754MOL0     C 3947  10.151   5.519   7.070  0.2208  0.9308 -0.3583
  754MOL0     C 3948  10.274   5.586   7.063  0.5936  0.1510 -0.3153
  754MOL0     C 3949  10.372   5.570   7.162  0.1098  0.3702 -0.2648
  754MOL0     O 3950  10.485   5.646   7.161  0.6225 -0.5530 -0.1863
  754MOL0     C 3951  10.594   5.571   7.111 -0.1938  0.3941 -1.1269
  754MOL0     C 3952  10.711   5.678   7.107 -0.7311  0.1139 -0.1197
  754MOL0     C 3953  10.813   5.607   7.027 -0.0245  0.6524  0.4870
  754MOL0     C 3954  10.920   5.701   6.972 -0.3663  0.3562  0.0964
  754MOL0     C 3955  11.059   5.666   7.039 -0.3382  0.2558  0.1241
  754MOL0     C 3956  11.077   5.732   7.174  0.4800  0.4739 -0.2218
  754MOL0     C 3957  11.214   5.705   7.240  0.0575  0.5028 -0.2976
  754MOL0     C 3958  11.233   5.749   7.378  0.5318  0.0246  1.1043
  754MOL0    Cl 3959  11.393   5.729   7.433  0.0493  0.3152 -0.2208
  754MOL0     C 3960  10.347   5.465   7.258 -1.0222 -0.2443 -0.8664
  754MOL0     C 3961  10.225   5.396   7.263 -0.9561 -1.2550 -0.3535
  754MOL0     O 3962  10.091   5.139   7.190  0.6017  0.4830 -0.4830
  754MOL0     C 3963   9.812   5.212   7.342  0.5292 -0.1952  0.1651
  754MOL0     C 3964   9.701   5.155   7.394  0.0526  0.5204  0.8204
  754MOL0     N 3965   9.081   5.470   7.352  0.9738  0.5707 -0.0724
  754MOL0     N 3966   8.953   5.456   7.359 -0.2269 -0.1555  0.0718
  754MOL0     C 3967   7.905   4.983   7.854 -0.2029 -0.3802  0.1085
  754MOL0     C 3968   7.821   4.874   7.871  0.8479 -0.7392  0.5474
  754MOL0     C 3969   7.579   4.565   8.120  0.0569  0.4060  0.2161
  754MOL0     C 3970   7.483   4.568   8.221 -0.5614 -0.5518 -0.0764
  754MOL0     C 3971   7.421   4.454   8.273  0.4339  0.2125 -0.4556
  754MOL0     C 3972   7.433   4.333   8.207  0.4341  0.4137  0.3664
  754MOL0     O 3973   7.375   4.213   8.243  0.0611  0.7760 -0.5488
  754MOL0     C 3974   7.285   4.206   8.356  0.1912  0.0687  0.0851
  754MOL0     C 3975   7.161   4.291   8.333 -1.1455  0.0328 -0.0781
  754MOL0     C 3976   7.063   4.259   8.445 -0.5034 -0.2696  0.9808
  754MOL0     C 3977   6.938   4.343   8.417 -0.2247 -0.2631 -0.0157
  754MOL0     C 3978   6.897   4.420   8.529  0.0490  0.5956 -1.3903
  754MOL0     C 3979   6.843   4.490   8.622  0.1260  0.4824 -0.1897
  754MOL0     C 3980   7.525   4.328   8.105  1.1817  0.7321 -0.0860
  754MOL0     C 3981   7.600   4.438   8.062 -1.3864 -0.5563  0.6415
  754MOL0     C 3982   7.689   4.414   7.952  0.4391  0.2282 -0.1791
  754MOL0     H 3983   7.946   4.755   8.168  1.9090  1.3776  0.9557
  754MOL0     H 3984   8.119   4.928   8.109 -0.4418 -1.1414  0.4734
  754MOL0     H 3985   8.137   5.308   7.868 -0.6217 -0.2170  1.3980
  754MOL0     H 3986   7.984   5.243   7.829  0.8765  0.7781 -4.3887
  754MOL0     H 3987   8.120   5.077   7.686 -0.8769  0.3013 -0.6056
  754MOL0     H 3988   8.131   5.252   7.634  2.4772  1.1834 -1.3135
  754MOL0     H 3989   8.349   5.233   7.796 -2.4758  2.3986 -1.0351
  754MOL0     H 3990   8.342   5.063   7.747 -1.4513 -0.5056  0.4068
  754MOL0     H 3991   8.336   5.119   7.503  0.5595 -0.8269 -0.2796
  754MOL0     H 3992   8.328   5.295   7.547 -0.2709  0.0177  0.1908
  754MOL0     H 3993   8.551   5.109   7.641 -3.2170 -1.4341 -0.7792
  754MOL0     H 3994   8.545   5.286   7.652 -0.2834 -1.5517  4.3991
  754MOL0     H 3995   8.593   5.097   7.417  2.0185  0.0967 -0.6270
  754MOL0     H 3996   8.528   5.260   7.386  0.2737  0.8014  0.4866
  754MOL0     H 3997   8.808   5.184   7.495  1.3742 -1.4675 -2.9650
  754MOL0     H 3998   8.737   5.348   7.512 -2.3102  0.3237  0.4540
  754MOL0     H 3999   8.796   5.210   7.238  0.5733  0.5921 -1.1311
  754MOL0     H 4000   8.708   5.362   7.260  0.7023  0.2358  0.2543
  754MOL0     H 4001   9.024   5.203   7.175 -0.3355  0.2497 -0.1837
  754MOL0     H 4002   9.347   5.434   7.261 -0.8513  2.0384 -2.5980
  754MOL0     H 4003   9.274   5.366   7.123  0.7099  0.1240  0.1526
  754MOL0     H 4004   9.243   5.143   7.245  0.3867 -0.7864 -2.6693
  754MOL0     H 4005   9.404   5.186   7.195  0.3146  1.5791  0.5493
  754MOL0     H 4006   9.460   5.263   7.432  1.7886 -1.5936 -2.4188
  754MOL0     H 4007   9.292   5.217   7.488  0.2004 -3.3187  0.4232
  754MOL0     H 4008   9.438   5.047   7.544  0.3638 -0.2560 -0.5138
  754MOL0     H 4009   9.324   5.004   7.426 -0.4316  0.8867 -2.2833
  754MOL0     H 4010   9.607   4.951   7.146  0.0256  1.6402 -1.4999
  754MOL0     H 4011   9.810   4.907   7.003  0.2732 -0.1618  1.7099
  754MOL0     H 4012   9.962   4.979   7.035 -0.0540 -1.0614  0.4555
  754MOL0     H 4013   9.850   5.076   6.944 -0.8331  0.3975  0.5085
  754MOL0     H 4014  10.070   5.539   7.001 -1.3895  0.4682  1.3021
  754MOL0     H 4015  10.286   5.658   6.983 -0.7525  1.3467  0.5368
  754MOL0     H 4016  10.630   5.501   7.187 -1.3395  0.1179 -0.8179
  754MOL0     H 4017  10.587   5.535   7.008 -2.8979  3.5771 -2.2281
  754MOL0     H 4018  10.680   5.770   7.056 -0.5016 -0.8449 -2.1132
  754MOL0     H 4019  10.756   5.694   7.205  1.0856  0.1278 -0.9018
  754MOL0     H 4020  10.769   5.569   6.934 -0.9519  3.6468 -0.4086
  754MOL0     H 4021  10.863   5.526   7.081  0.7198  0.6105 -0.2474
  754MOL0     H 4022  10.892   5.804   6.993 -0.5062  0.0410  1.5192
  754MOL0     H 4023  10.922   5.684   6.863 -1.1947  3.0062 -0.3960
  754MOL0     H 4024  11.086   5.561   7.047  0.3020  0.2578 -1.4801
  754MOL0     H 4025  11.138   5.701   6.971  1.2302 -0.0232  1.7207
  754MOL0     H 4026  10.991   5.696   7.232 -0.8913  2.1292 -1.1330
  754MOL0     H 4027  11.065   5.840   7.167  0.5573  0.4416 -0.8753
  754MOL0     H 4028  11.280   5.767   7.178 -1.2392  0.9691 -1.2479
  754MOL0     H 4029  11.244   5.600   7.245  1.7378  0.9151 -0.9964
  754MOL0     H 4030  11.159   5.699   7.441 -0.6479 -1.9572 -1.6549
  754MOL0     H 4031  11.221   5.857   7.376 -2.7565 -0.2487  1.3280
  754MOL0     H 4032  10.423   5.452   7.334 -2.3532  1.0429  0.7825
  754MOL0     H 4033  10.191   5.337   7.349  0.9233  0.5903  1.7712
  754MOL0     H 4034   9.870   5.275   7.408 -0.1828 -1.0254  1.6200
  754MOL0     H 4035   9.669   5.177   7.495  1.8885 -0.0852  1.5647
  754MOL0     H 4036   7.894   5.058   7.776 -0.8636  1.2956  1.7377
  754MOL0     H 4037   7.747   4.849   7.795  1.0665 -0.5372  0.2639
  754MOL0     H 4038   7.482   4.660   8.278  0.8948 -0.3927 -0.2720
  754MOL0     H 4039   7.371   4.461   8.369  1.5149  0.3880  0.1165
  754MOL0     H 4040   7.260   4.102   8.377  4.4013 -1.1044  0.1345
  754MOL0     H 4041   7.334   4.254   8.441  0.1500  1.8770 -0.8632
  754MOL0     H 4042   7.124   4.268   8.232  1.0904  3.6981 -1.9215
  754MOL0     H 4043   7.182   4.398   8.333  1.9543 -0.4980  1.1432
  754MOL0     H 4044   7.038   4.152   8.445 -1.4746 -0.0579  1.2403
  754MOL0     H 4045   7.104   4.276   8.545 -1.9197  2.1446  1.2300
  754MOL0     H 4046   6.853   4.283   8.382 -1.3137  1.0256  0.3081
  754MOL0     H 4047   6.959   4.411   8.334  1.9903 -1.2167 -0.3080
  754MOL0     H 4048   6.783   4.558   8.678  3.0389  1.3750  2.0719
  754MOL0     H 4049   7.540   4.232   8.057 -1.4697 -0.2576  0.8599
  754MOL0     H 4050   7.678   4.316   7.904  3.1105 -1.1249  1.6884
  754MOL0     H 4051   7.676   4.494   7.878 -5.0873  0.4962  0.6567
  754MOL0     H 4052   7.791   4.407   7.991  0.2726 -0.6672  0.1196
  755MOL0     O 4053   8.121   8.388   6.691  1.0174  0.9630  0.6932
  755MOL0     C 4054   8.038   8.300   6.709  0.9074  0.4357  0.4992
  755MOL0     O 4055   8.043   8.210   6.821  0.5272 -0.0308 -0.7705
  755MOL0     C 4056   8.148   8.222   6.902 -0.1212  0.0390 -0.3904
  755MOL0     C 4057   8.183   8.338   6.965 -0.0966 -0.3456  0.3910
  755MOL0     C 4058   8.297   8.355   7.046 -0.7591  0.2973 -0.3250
  755MOL0     C 4059   8.383   8.246   7.051 -0.6436  0.1664  0.2712
  755MOL0     O 4060   8.500   8.228   7.118 -0.6165 -0.0792 -0.3324
  755MOL0     C 4061   8.539   8.331   7.199  0.2855 -0.2618  0.1896
  755MOL0     C 4062   8.688   8.346   7.253 -0.0380 -0.7775  0.2732
  755MOL0     C 4063   8.797   8.334   7.138  0.8001 -0.1942  0.2973
  755MOL0     C 4064   8.940   8.382   7.178 -0.2694 -0.7664  0.5890
  755MOL0     C 4065   9.033   8.373   7.057  0.6555  0.2193 -0.3306
  755MOL0     C 4066   9.179   8.419   7.062  0.3484 -0.1968 -0.0421
  755MOL0     C 4067   9.276   8.344   7.153 -0.2450  0.3896  0.4127
  755MOL0     C 4068   9.425   8.389   7.151  0.6907  0.5848 -0.4848
  755MOL0     N 4069   9.452   8.532   7.198 -0.3849  0.0729 -0.0304
  755MOL0     C 4070   9.471   8.573   7.333  0.3306  0.4538 -0.4608
  755MOL0     C 4071   9.487   8.715   7.324 -0.7170  0.5366  0.2257
  755MOL0     C 4072   9.525   8.803   7.443  0.0104  0.5238 -0.2270
  755MOL0     C 4073   9.413   8.908   7.478 -0.3688  0.1428  0.7117
  755MOL0     C 4074   9.282   8.833   7.524 -0.3350  0.1730 -0.5685
  755MOL0     C 4075   9.180   8.807   7.411  0.6911  0.8835 -0.1428
  755MOL0     O 4076   9.152   8.924   7.339  0.7593 -0.3427 -0.9528
  755MOL0     C 4077   9.079   8.891   7.223  0.1324 -0.5263 -0.1340
  755MOL0     C 4078   8.939   8.922   7.213 -0.0950  0.5540 -1.1049
  755MOL0     C 4079   8.855   8.879   7.114 -0.0508  0.8421 -0.0590
  755MOL0     C 4080   8.710   8.891   7.130 -0.1469 -0.5747 -1.2080
  755MOL0     C 4081   8.913   8.794   7.015  0.6595  0.2501  0.6657
  755MOL0     C 4082   8.830   8.735   6.912  0.3396  0.7095  0.9288
  755MOL0     O 4083   8.868   8.601   6.883  0.9205 -0.7366  0.3962
  755MOL0     C 4084   8.783   8.531   6.796  0.6899  0.6430  0.4592
  755MOL0     C 4085   8.833   8.442   6.700 -0.1999  0.2836 -0.2999
  755MOL0     C 4086   8.745   8.374   6.613 -0.5519  0.7214 -0.1606
  755MOL0     C 4087   8.601   8.386   6.633  0.3248  0.2895 -0.3735
  755MOL0     O 4088   8.511   8.319   6.551 -0.1500 -0.3203 -0.6067
  755MOL0     C 4089   8.421   8.231   6.616 -0.8167 -0.4763 -0.0296
  755MOL0     C 4090   8.447   8.085   6.576  0.2020  0.8518  0.7209
  755MOL0     C 4091   8.580   8.040   6.585 -0.4977  1.0457  0.3071
  755MOL0     C 4092   8.629   8.060   6.725  0.1466 -0.7664 -0.2796
  755MOL0     C 4093   8.769   8.005   6.735  0.7067  0.4406  0.0407
  755MOL0     C 4094   8.841   8.043   6.865 -0.3055 -0.7847 -0.2687
  755MOL0     C 4095   8.998   8.035   6.863 -0.0236  0.0629  0.1371
  755MOL0     C 4096   9.080   8.147   6.793  0.3235  0.7761 -0.0104
  755MOL0    Cl 4097   9.254   8.139   6.823 -0.4166  0.0606 -0.0393
  755MOL0     C 4098   8.549   8.466   6.732 -0.1035 -0.2917  0.0424
  755MOL0     C 4099   8.636   8.535   6.822  0.3097 -0.5897  0.9504
  755MOL0     O 4100   8.758   8.808   6.845  0.3194  0.2816 -0.4386
  755MOL0     C 4101   9.054   8.772   7.009  0.3854  0.5053  0.0672
  755MOL0     C 4102   9.137   8.823   7.114 -0.6726  0.2767 -0.1624
  755MOL0     N 4103   9.486   8.751   7.187 -0.5012 -0.7143 -0.2023
  755MOL0     N 4104   9.465   8.638   7.118  0.6339  0.7031  0.0298
  755MOL0     C 4105   8.346   8.125   6.989 -0.3015  0.1411  0.6277
  755MOL0     C 4106   8.235   8.118   6.906 -0.2197  0.2596  0.7015
  755MOL0     C 4107   7.917   8.297   6.632 -0.2962 -0.5560  0.1816
  755MOL0     C 4108   7.799   8.263   6.701  0.1201  0.8795 -0.3087
  755MOL0     C 4109   7.666   8.268   6.633 -0.5471 -0.6203 -0.7274
  755MOL0     C 4110   7.664   8.295   6.496 -0.8025  0.4114  0.7152
  755MOL0     O 4111   7.553   8.297   6.413  0.5764 -0.0456  0.2069
  755MOL0     C 4112   7.422   8.247   6.448 -0.6629 -0.7787 -0.1511
  755MOL0     C 4113   7.383   8.127   6.360 -0.3602  0.0276 -0.1954
  755MOL0     C 4114   7.370   8.159   6.207 -0.5165 -0.0504  0.2506
  755MOL0     C 4115   7.314   8.044   6.123 -0.4292  0.7008 -0.3744
  755MOL0     C 4116   7.186   7.979   6.170  0.0464  0.1809  0.4409
  755MOL0     C 4117   7.090   7.911   6.195 -0.1598 -0.8944  0.4261
  755MOL0     C 4118   7.786   8.322   6.426  1.3241  0.2945  0.7493
  755MOL0     C 4119   7.911   8.316   6.488 -0.7598 -0.6437 -0.1348
  755MOL0     C 4120   8.039   8.326   6.402  0.3101 -0.0330 -0.1771
  755MOL0     H 4121   8.109   8.417   6.954  1.1761  0.7539 -0.8129
  755MOL0     H 4122   8.326   8.449   7.091  0.6863 -0.8369  1.2538
  755MOL0     H 4123   8.471   8.328   7.284  0.9002 -2.5298  0.6753
  755MOL0     H 4124   8.527   8.426   7.145 -2.0860 -1.0937 -0.9065
  755MOL0     H 4125   8.693   8.444   7.301 -1.0654 -1.0171  0.9043
  755MOL0     H 4126   8.705   8.265   7.326 -0.1582 -1.0287  0.0251
  755MOL0     H 4127   8.798   8.229   7.108 -4.2698 -0.4841  0.2302
  755MOL0     H 4128   8.762   8.390   7.051 -0.1199 -1.4565 -0.1759
  755MOL0     H 4129   8.931   8.483   7.218 -2.1298 -1.7133  2.7922
  755MOL0     H 4130   8.977   8.319   7.259 -0.2483 -2.2084 -0.5049
  755MOL0     H 4131   8.985   8.421   6.971  1.6284 -0.1819 -1.1255
  755MOL0     H 4132   9.038   8.267   7.030 -2.0257 -0.0193 -0.1437
  755MOL0     H 4133   9.224   8.422   6.963  2.9803  1.7606  1.0752
  755MOL0     H 4134   9.166   8.522   7.098  0.0456  0.0779 -0.9217
  755MOL0     H 4135   9.272   8.237   7.128  2.8830  0.5966 -1.4314
  755MOL0     H 4136   9.246   8.342   7.258  1.3783  0.1754  0.9057
  755MOL0     H 4137   9.488   8.317   7.204 -0.0089 -0.7198 -1.3768
  755MOL0     H 4138   9.437   8.381   7.042  3.6877  0.3217 -0.2093
  755MOL0     H 4139   9.467   8.509   7.421  0.9217  1.3675  0.2598
  755MOL0     H 4140   9.623   8.848   7.426 -0.3170  1.2205 -0.3095
  755MOL0     H 4141   9.549   8.737   7.527  0.2999  0.2696 -0.5067
  755MOL0     H 4142   9.448   8.966   7.563  3.5485  1.8039 -1.7798
  755MOL0     H 4143   9.402   8.968   7.387  1.7282  1.2817  1.1558
  755MOL0     H 4144   9.305   8.743   7.581  1.8026  1.7519  1.2220
  755MOL0     H 4145   9.229   8.900   7.591  0.1289  2.7812 -2.6365
  755MOL0     H 4146   9.222   8.732   7.343  2.3855  1.1352  0.5870
  755MOL0     H 4147   9.098   8.749   7.455  0.7422  0.1036 -1.0147
  755MOL0     H 4148   8.906   8.998   7.282 -0.5235  1.5614 -2.3882
  755MOL0     H 4149   8.683   8.969   7.202 -0.5454 -1.1502 -0.7224
  755MOL0     H 4150   8.684   8.791   7.166 -1.3022  0.3563  0.6892
  755MOL0     H 4151   8.650   8.912   7.041 -1.7985  0.9294  0.1821
  755MOL0     H 4152   8.937   8.409   6.707  0.0813  1.4956  3.1438
  755MOL0     H 4153   8.789   8.301   6.547 -0.2159  2.2252 -1.6722
  755MOL0     H 4154   8.420   8.245   6.725 -2.1284  0.5825 -0.1470
  755MOL0     H 4155   8.317   8.248   6.585  0.7501  3.0899 -4.4845
  755MOL0     H 4156   8.385   8.021   6.639 -0.1814  1.0608  0.5596
  755MOL0     H 4157   8.414   8.075   6.472  2.4960 -1.5092  0.0971
  755MOL0     H 4158   8.642   8.103   6.521  1.8528 -0.5471  0.8617
  755MOL0     H 4159   8.588   7.933   6.564 -2.1582  1.0450 -0.4693
  755MOL0     H 4160   8.565   8.004   6.794 -0.8912 -0.1343 -0.6955
  755MOL0     H 4161   8.626   8.164   6.760 -2.6513  0.6492 -4.0319
  755MOL0     H 4162   8.764   7.899   6.760  2.0763  0.2737 -0.3240
  755MOL0     H 4163   8.828   8.026   6.645  0.8720 -1.3421 -0.3086
  755MOL0     H 4164   8.803   7.978   6.945 -2.5315 -0.5945 -1.1075
  755MOL0     H 4165   8.821   8.149   6.880 -0.3989 -0.7049 -0.9516
  755MOL0     H 4166   9.030   7.942   6.815 -0.2558  2.2820 -4.8620
  755MOL0     H 4167   9.038   8.045   6.964 -1.1812 -2.3444  0.9111
  755MOL0     H 4168   9.045   8.248   6.815  2.5296  2.2811 -2.7664
  755MOL0     H 4169   9.078   8.131   6.684 -1.5659  1.5902 -0.1331
  755MOL0     H 4170   8.440   8.459   6.735 -0.1168  0.0197  1.2423
  755MOL0     H 4171   8.606   8.604   6.900 -1.2751  0.0194 -0.1439
  755MOL0     H 4172   9.101   8.714   6.930  1.3780  0.6912  0.5059
  755MOL0     H 4173   9.244   8.807   7.106 -0.3222  2.6609 -1.3171
  755MOL0     H 4174   8.407   8.039   7.014  2.3634  1.5265 -0.6631
  755MOL0     H 4175   8.218   8.024   6.856  2.5806 -1.4066  2.5972
  755MOL0     H 4176   7.790   8.229   6.804  2.2017 -1.7293 -0.8666
  755MOL0     H 4177   7.581   8.249   6.698  0.8762 -2.3981  0.7067
  755MOL0     H 4178   7.430   8.206   6.549  0.8518 -1.5047 -0.5291
  755MOL0     H 4179   7.351   8.330   6.441 -0.4480 -0.6353 -0.7040
  755MOL0     H 4180   7.285   8.094   6.397 -0.7655 -0.0928 -1.3070
  755MOL0     H 4181   7.447   8.039   6.370  0.3679  0.5114 -0.4873
  755MOL0     H 4182   7.304   8.246   6.195  0.8511  0.8036 -1.4905
  755MOL0     H 4183   7.469   8.185   6.169  0.0794 -2.9390 -0.4436
  755MOL0     H 4184   7.383   7.960   6.120 -1.9187 -0.7027  1.7244
  755MOL0     H 4185   7.293   8.074   6.020  2.3448  2.4007 -0.5359
  755MOL0     H 4186   7.009   7.848   6.227  0.2676 -1.5969  0.1628
  755MOL0     H 4187   7.762   8.330   6.321  2.2517 -2.4688  0.2394
  755MOL0     H 4188   8.043   8.429   6.365 -3.1390  0.3128  0.1335
  755MOL0     H 4189   8.131   8.299   6.455  0.2246 -0.8620 -0.4431
  755MOL0     H 4190   8.033   8.260   6.315 -2.2779 -1.2200  0.8171
  756MOL0     O 4191   7.215   5.241   2.523 -0.0890  0.6929  0.1512
  756MOL0     C 4192   7.263   5.321   2.440  0.3052 -0.5174 -0.1350
  756MOL0     O 4193   7.394   5.350   2.426  0.0573 -0.0842 -0.0759
  756MOL0     C 4194   7.483   5.296   2.511  0.1969 -0.5376  0.2638
  756MOL0     C 4195   7.572   5.381   2.583 -0.9794  0.2210  0.2595
  756MOL0     C 4196   7.670   5.330   2.673  0.0856 -1.1486  0.1627
  756MOL0     C 4197   7.701   5.193   2.673 -0.1408  0.6890  0.0006
  756MOL0     O 4198   7.805   5.149   2.749 -0.0962  0.4629 -0.2096
  756MOL0     C 4199   7.892   5.045   2.687  0.4262 -0.6515  1.0240
  756MOL0     C 4200   7.963   5.087   2.555  0.4276 -0.1792  0.1338
  756MOL0     C 4201   8.073   5.190   2.569 -0.5713  1.0515 -0.2701
  756MOL0     C 4202   8.199   5.117   2.599 -0.0514 -0.4313 -0.1461
  756MOL0     C 4203   8.313   5.223   2.616 -0.5023  0.5650  0.0388
  756MOL0     C 4204   8.440   5.163   2.675 -0.3550  1.0151  0.3419
  756MOL0     C 4205   8.496   5.032   2.597  0.4227 -0.2931  0.8639
  756MOL0     C 4206   8.512   5.060   2.451 -0.7318  0.0401  0.9265
  756MOL0     N 4207   8.586   4.951   2.378  0.3103  1.0249  0.2794
  756MOL0     C 4208   8.534   4.831   2.329  0.2900 -0.4664  0.1789
  756MOL0     C 4209   8.624   4.772   2.246  0.5469  0.5299 -0.1917
  756MOL0     C 4210   8.611   4.632   2.179 -0.0744 -0.9208  0.0672
  756MOL0     C 4211   8.719   4.526   2.233 -0.4563  0.0345  1.5810
  756MOL0     C 4212   8.735   4.499   2.385 -0.1690 -0.7200 -0.0334
  756MOL0     C 4213   8.594   4.502   2.460  1.0437 -0.1168 -0.2768
  756MOL0     O 4214   8.608   4.502   2.605 -0.6794  0.5190  0.1247
  756MOL0     C 4215   8.679   4.592   2.683  0.1598 -0.3987  0.3770
  756MOL0     C 4216   8.755   4.542   2.789 -0.0098  0.0066 -0.1217
  756MOL0     C 4217   8.839   4.630   2.859  0.4988  0.6240  0.6638
  756MOL0     C 4218   8.893   4.566   2.982 -0.3243  0.5246 -0.4501
  756MOL0     C 4219   8.854   4.768   2.822 -1.1849 -0.7752 -0.0986
  756MOL0     C 4220   8.945   4.859   2.892  0.3779  0.1821 -0.7290
  756MOL0     O 4221   8.947   4.851   3.027  0.4618  0.1961  0.0144
  756MOL0     C 4222   9.046   4.935   3.075  0.3898  0.1438  0.6771
  756MOL0     C 4223   9.165   4.879   3.098  0.3495  0.2512 -0.2480
  756MOL0     C 4224   9.276   4.946   3.139 -0.6666 -0.3893  0.0929
  756MOL0     C 4225   9.270   5.092   3.159 -0.3132 -0.3690  0.6626
  756MOL0     O 4226   9.375   5.167   3.209 -0.1552  0.2374 -0.5322
  756MOL0     C 4227   9.498   5.096   3.224  0.8043  0.1703 -0.0203
  756MOL0     C 4228   9.611   5.180   3.282 -0.2133 -0.2224  0.0609
  756MOL0     C 4229   9.726   5.098   3.329 -0.0784 -0.3800 -0.7487
  756MOL0     C 4230   9.813   5.023   3.225 -0.0618  0.5854  0.3236
  756MOL0     C 4231   9.953   5.087   3.212 -1.0150  0.3004  0.8180
  756MOL0     C 4232  10.044   5.015   3.107  0.3788 -0.4831  0.5544
  756MOL0     C 4233  10.190   5.079   3.122  0.1754  1.5152  0.0771
  756MOL0     C 4234  10.293   4.989   3.049 -0.1203  0.7413  1.0908
  756MOL0    Cl 4235  10.439   5.093   3.056 -0.0685 -0.1324  0.2532
  756MOL0     C 4236   9.138   5.146   3.149 -0.3686 -0.8915 -0.1491
  756MOL0     C 4237   9.030   5.078   3.103  0.2659  0.0524  0.1016
  756MOL0     O 4238   9.020   4.923   2.821  0.0983 -0.6467 -0.2070
  756MOL0     C 4239   8.778   4.807   2.710 -0.0765  0.3887 -0.1964
  756MOL0     C 4240   8.686   4.720   2.645 -0.3170  0.6242  0.0488
  756MOL0     N 4241   8.731   4.853   2.241 -0.9068 -0.9761 -0.0005
  756MOL0     N 4242   8.714   4.957   2.324  0.5838 -0.5814  0.3561
  756MOL0     C 4243   7.623   5.109   2.589 -0.4120 -0.6082 -0.0435
  756MOL0     C 4244   7.520   5.158   2.505  0.3054 -0.5437 -0.7102
  756MOL0     C 4245   7.158   5.387   2.347  0.4330 -0.3113 -0.3298
  756MOL0     C 4246   7.055   5.309   2.287 -0.0416 -0.1859  0.2029
  756MOL0     C 4247   6.959   5.351   2.200  0.2383 -0.0159 -0.2982
  756MOL0     C 4248   6.955   5.486   2.150 -0.3635  1.0906  0.6697
  756MOL0     O 4249   6.860   5.530   2.058  0.3925  0.6862 -0.3476
  756MOL0     C 4250   6.869   5.667   2.014 -0.1467 -0.8299 -0.2684
  756MOL0     C 4251   6.796   5.676   1.878  0.3329  0.6178 -0.1949
  756MOL0     C 4252   6.651   5.693   1.899  1.0707  0.3469  0.3216
  756MOL0     C 4253   6.564   5.703   1.764 -0.2569  0.5748 -0.0105
  756MOL0     C 4254   6.443   5.774   1.786 -0.1638  1.0823 -0.2994
  756MOL0     C 4255   6.345   5.835   1.810  0.7247 -0.5219 -0.2936
  756MOL0     C 4256   7.055   5.564   2.214 -0.4444 -0.3878  0.0105
  756MOL0     C 4257   7.156   5.518   2.303 -0.1486  0.2320  0.3994
  756MOL0     C 4258   7.269   5.602   2.347 -1.2365 -1.1237 -0.7520
  756MOL0     H 4259   7.538   5.484   2.588 -0.8949  0.3562 -1.3416
  756MOL0     H 4260   7.707   5.414   2.732  1.1311 -1.6260  0.2108
  756MOL0     H 4261   7.824   4.964   2.659 -0.2996 -0.2939  1.6873
  756MOL0     H 4262   7.967   5.009   2.757  3.0037  4.1336  1.1001
  756MOL0     H 4263   8.007   4.997   2.509  3.2973  1.2649 -0.2060
  756MOL0     H 4264   7.890   5.121   2.482  0.1935 -2.8945 -1.0227
  756MOL0     H 4265   8.091   5.234   2.471 -0.7021  1.1019 -0.2722
  756MOL0     H 4266   8.054   5.262   2.649  0.4531  0.1397  0.8389
  756MOL0     H 4267   8.191   5.062   2.694  2.0923 -1.2722 -0.3784
  756MOL0     H 4268   8.222   5.035   2.530  3.9104 -1.1560  1.7067
  756MOL0     H 4269   8.283   5.312   2.672 -0.3128  0.3910  0.4252
  756MOL0     H 4270   8.344   5.261   2.518  1.7612 -2.5881 -0.6082
  756MOL0     H 4271   8.516   5.240   2.688 -1.5417  2.2976 -0.0952
  756MOL0     H 4272   8.412   5.127   2.775  3.2014 -0.3885  0.9736
  756MOL0     H 4273   8.433   4.943   2.602  0.5087 -0.4159 -0.0787
  756MOL0     H 4274   8.591   5.011   2.645  2.0390  1.0283 -1.5474
  756MOL0     H 4275   8.411   5.057   2.407 -0.5828  0.5215  0.5413
  756MOL0     H 4276   8.559   5.158   2.438 -2.1743  0.6545  0.0747
  756MOL0     H 4277   8.432   4.800   2.348  1.2529 -3.8818  0.3109
  756MOL0     H 4278   8.625   4.641   2.071  1.5872  1.1065  0.3750
  756MOL0     H 4279   8.510   4.595   2.197 -0.6457 -0.4283 -1.8683
  756MOL0     H 4280   8.689   4.433   2.183 -0.7786  0.8474  0.2182
  756MOL0     H 4281   8.821   4.554   2.204  0.0860  0.6864  3.9469
  756MOL0     H 4282   8.761   4.394   2.399 -2.2109 -1.0887  1.4321
  756MOL0     H 4283   8.818   4.559   2.422  2.0603 -2.2951 -2.1664
  756MOL0     H 4284   8.523   4.580   2.429 -1.5854 -2.2038  0.1821
  756MOL0     H 4285   8.550   4.407   2.429  1.8135 -1.3407  2.1450
  756MOL0     H 4286   8.755   4.439   2.821  0.4110 -0.1364 -0.5609
  756MOL0     H 4287   8.988   4.601   3.024 -2.4281  4.5016  1.5643
  756MOL0     H 4288   8.908   4.459   2.967  0.4094  0.5010  0.4048
  756MOL0     H 4289   8.821   4.587   3.061 -0.8477 -0.2786 -0.6995
  756MOL0     H 4290   9.178   4.773   3.080 -0.6195  0.2924 -1.2972
  756MOL0     H 4291   9.366   4.884   3.141 -0.5848 -0.2755 -0.0106
  756MOL0     H 4292   9.493   5.009   3.289  0.9763  0.8465  0.9121
  756MOL0     H 4293   9.529   5.051   3.129  1.8807 -0.2510  0.5084
  756MOL0     H 4294   9.641   5.256   3.209 -0.6933 -1.5205 -1.5199
  756MOL0     H 4295   9.570   5.244   3.361  1.4356 -0.1026  0.8823
  756MOL0     H 4296   9.680   5.023   3.394 -0.0164  0.6917  0.5780
  756MOL0     H 4297   9.797   5.163   3.382 -0.3016  0.5715 -1.6089
  756MOL0     H 4298   9.765   5.038   3.127  0.0849  2.5173  0.4959
  756MOL0     H 4299   9.816   4.918   3.255 -1.0113  0.0877 -1.1806
  756MOL0     H 4300   9.947   5.196   3.201 -0.1431  0.2501 -0.3463
  756MOL0     H 4301  10.011   5.072   3.303 -1.8014 -1.8258  1.0294
  756MOL0     H 4302   9.990   5.031   3.013 -1.2100  1.8236  1.7453
  756MOL0     H 4303  10.040   4.908   3.128 -1.3848 -0.8165 -1.1253
  756MOL0     H 4304  10.225   5.069   3.225 -1.7911 -2.3557  0.5307
  756MOL0     H 4305  10.192   5.180   3.079  1.7446  2.0339  1.2380
  756MOL0     H 4306  10.266   4.972   2.944  5.1271  0.3032 -0.4745
  756MOL0     H 4307  10.312   4.894   3.100 -0.7383 -0.4223 -0.7570
  756MOL0     H 4308   9.123   5.251   3.174 -3.5190 -0.7276 -2.1568
  756MOL0     H 4309   8.936   5.127   3.081  0.0884  0.2445  1.1866
  756MOL0     H 4310   8.792   4.906   2.668 -3.3154  0.5021 -1.2688
  756MOL0     H 4311   8.629   4.754   2.559 -1.0809 -1.8514 -0.5048
  756MOL0     H 4312   7.635   5.001   2.593  0.9276 -0.4667  2.9939
  756MOL0     H 4313   7.460   5.091   2.444 -2.0631 -2.1365  3.0676
  756MOL0     H 4314   7.039   5.206   2.320  2.1079 -0.7240 -0.2669
  756MOL0     H 4315   6.891   5.282   2.150  1.5576 -0.1471 -1.9993
  756MOL0     H 4316   6.836   5.733   2.094  2.4161 -1.5257  1.4957
  756MOL0     H 4317   6.974   5.678   1.987  0.2666 -2.6812  0.4140
  756MOL0     H 4318   6.806   5.585   1.819 -0.5164 -1.1225  2.1685
  756MOL0     H 4319   6.831   5.761   1.818 -0.0111  1.9575  1.4219
  756MOL0     H 4320   6.619   5.615   1.969 -0.2056  2.3036  2.0263
  756MOL0     H 4321   6.631   5.784   1.956  0.9617 -0.5088  1.6736
  756MOL0     H 4322   6.533   5.603   1.733  2.7447 -0.0077 -1.4262
  756MOL0     H 4323   6.621   5.765   1.694 -0.7791 -0.8073 -1.7101
  756MOL0     H 4324   6.257   5.883   1.848  0.3156 -1.9539  0.6480
  756MOL0     H 4325   7.067   5.667   2.184 -0.4736 -1.3267 -3.7992
  756MOL0     H 4326   7.276   5.590   2.455  2.9017 -0.9869 -0.8398
  756MOL0     H 4327   7.366   5.565   2.311 -0.8041 -1.0396  0.2796
  756MOL0     H 4328   7.262   5.708   2.318  0.7554 -1.0332 -1.0423
  757MOL0     O 4329   6.079   1.032   2.301 -0.6324  0.4734  0.2084
  757MOL0     C 4330   6.181   0.961   2.315  0.6499  0.6730 -0.4100
  757MOL0     O 4331   6.200   0.842   2.253 -0.3097  0.1810  0.9543
  757MOL0     C 4332   6.088   0.785   2.202 -0.2650 -0.0320 -0.1943
  757MOL0     C 4333   6.026   0.678   2.276 -1.0250  0.5648 -0.2723
  757MOL0     C 4334   5.919   0.613   2.214  0.2129 -0.7081  1.0975
  757MOL0     C 4335   5.885   0.628   2.085  0.2133  0.9890  0.8757
  757MOL0     O 4336   5.773   0.562   2.041 -0.3498  0.1584 -0.0238
  757MOL0     C 4337   5.747   0.541   1.902  0.3091  0.7989  0.3202
  757MOL0     C 4338   5.626   0.624   1.852  0.1636 -0.0335  0.0287
  757MOL0     C 4339   5.491   0.611   1.933  0.6661  0.4970 -0.1916
  757MOL0     C 4340   5.457   0.462   1.945 -0.4168 -0.1469 -0.6054
  757MOL0     C 4341   5.316   0.446   2.015  0.6820  1.3704  0.7122
  757MOL0     C 4342   5.299   0.310   2.091  0.3927 -0.0806 -0.6219
  757MOL0     C 4343   5.322   0.194   1.999 -0.5999  0.5175  1.5674
  757MOL0     C 4344   5.292   0.049   2.051 -0.0143 -0.1581  0.2012
  757MOL0     N 4345   5.177   0.044   2.142 -0.5235  0.6434  0.6284
  757MOL0     C 4346   5.047   0.036   2.093 -0.5940  0.0445  0.2600
  757MOL0     C 4347   4.980   0.071   2.199  0.8074 -0.3267 -0.9826
  757MOL0     C 4348   4.831   0.086   2.219 -0.0790  0.2746  0.6327
  757MOL0     C 4349   4.777   0.050   2.360 -0.3542  0.5813  0.1345
  757MOL0     C 4350   4.807   0.152   2.472  0.7143 -0.1933  0.0908
  757MOL0     C 4351   4.738   0.283   2.463  0.2591  0.2190  0.7504
  757MOL0     O 4352   4.748   0.352   2.593 -0.1988  0.2221  0.4622
  757MOL0     C 4353   4.720   0.489   2.596  0.4860  0.2210 -0.5784
  757MOL0     C 4354   4.723   0.549   2.723  0.3194 -0.7213  0.0653
  757MOL0     C 4355   4.683   0.678   2.743 -0.4647 -0.0942 -0.5591
  757MOL0     C 4356   4.676   0.736   2.878  0.6986 -0.5457 -0.0211
  757MOL0     C 4357   4.661   0.761   2.625  0.6252  0.2067 -0.4739
  757MOL0     C 4358   4.647   0.914   2.626  0.2500  0.0545  0.3042
  757MOL0     O 4359   4.591   0.969   2.520  0.4418  0.0963  0.3688
  757MOL0     C 4360   4.595   1.103   2.501 -0.3680  0.6440  0.6692
  757MOL0     C 4361   4.493   1.184   2.543 -0.4403  1.0931 -0.6397
  757MOL0     C 4362   4.499   1.318   2.523 -0.0581  0.0760 -0.5732
  757MOL0     C 4363   4.605   1.384   2.465  0.1413 -0.6293  0.0121
  757MOL0     O 4364   4.611   1.523   2.449  0.6842  0.1070 -0.1134
  757MOL0     C 4365   4.699   1.592   2.355  0.0179 -0.5867 -0.0673
  757MOL0     C 4366   4.627   1.727   2.344 -0.8764 -0.9460  0.0804
  757MOL0     C 4367   4.703   1.823   2.254 -0.0482  0.8661  0.2068
  757MOL0     C 4368   4.615   1.936   2.200  0.8576  0.1861 -0.5826
  757MOL0     C 4369   4.611   2.055   2.299 -0.2151  1.1199  0.8205
  757MOL0     C 4370   4.488   2.143   2.264 -0.1837 -0.4735 -0.4637
  757MOL0     C 4371   4.479   2.285   2.327 -0.4068 -0.2544 -0.4269
  757MOL0     C 4372   4.354   2.358   2.272  0.5468  0.8831  0.1955
  757MOL0    Cl 4373   4.204   2.261   2.299  0.0036  0.1638 -0.2852
  757MOL0     C 4374   4.702   1.308   2.410  0.2339  1.0685  0.2031
  757MOL0     C 4375   4.703   1.168   2.436  0.5892  0.4555  0.5654
  757MOL0     O 4376   4.690   0.980   2.719  0.1545  0.1487  0.1831
  757MOL0     C 4377   4.669   0.708   2.494  0.5002  0.0681 -0.2813
  757MOL0     C 4378   4.693   0.571   2.480 -0.2441  1.2048 -0.3041
  757MOL0     N 4379   5.065   0.085   2.304  0.8206 -0.4585  0.9423
  757MOL0     N 4380   5.185   0.054   2.273  0.3771  0.2621 -0.7075
  757MOL0     C 4381   5.959   0.719   2.011 -0.7471 -0.1931  0.3024
  757MOL0     C 4382   6.048   0.801   2.070  0.0861  0.1495  0.2661
  757MOL0     C 4383   6.290   1.010   2.394 -1.0613  0.4807 -0.1472
  757MOL0     C 4384   6.295   1.142   2.414 -0.0808  0.2778 -0.6485
  757MOL0     C 4385   6.403   1.202   2.465  0.0777 -0.3719 -0.4805
  757MOL0     C 4386   6.515   1.137   2.515  0.3600 -0.3474  1.3260
  757MOL0     O 4387   6.617   1.215   2.563  0.3265 -0.2134  0.6963
  757MOL0     C 4388   6.733   1.157   2.625 -0.6450 -0.3995 -0.6351
  757MOL0     C 4389   6.844   1.258   2.668 -0.9639 -0.2528 -0.0849
  757MOL0     C 4390   6.781   1.391   2.723 -0.1735 -0.1578  0.3624
  757MOL0     C 4391   6.882   1.474   2.808 -0.5453 -0.2480 -0.0635
  757MOL0     C 4392   6.837   1.607   2.834 -0.1666  0.6098 -0.5031
  757MOL0     C 4393   6.795   1.719   2.852 -0.3606  0.1529 -0.5821
  757MOL0     C 4394   6.513   0.999   2.504  0.3875  0.1697  0.5079
  757MOL0     C 4395   6.403   0.934   2.441  0.8411  0.4873 -0.8909
  757MOL0     C 4396   6.416   0.783   2.424 -0.1856  0.6429 -0.0944
  757MOL0     H 4397   6.058   0.662   2.378 -1.5347 -2.4746 -0.4998
  757MOL0     H 4398   5.862   0.537   2.267 -0.8740  0.0623  1.0692
  757MOL0     H 4399   5.723   0.435   1.893 -1.3712  1.1686  0.1342
  757MOL0     H 4400   5.843   0.556   1.853  0.9690 -1.1543  0.9260
  757MOL0     H 4401   5.667   0.725   1.845  1.1266 -0.4865 -1.0530
  757MOL0     H 4402   5.614   0.598   1.746 -1.0652 -0.9146  0.3619
  757MOL0     H 4403   5.499   0.659   2.032  1.8121  1.1040 -0.5536
  757MOL0     H 4404   5.414   0.668   1.881  0.0539  0.3957  0.5851
  757MOL0     H 4405   5.467   0.411   1.849  0.5113 -0.7117 -0.2212
  757MOL0     H 4406   5.538   0.421   2.007 -1.5615 -0.4447  0.7472
  757MOL0     H 4407   5.250   0.444   1.927  1.8969 -1.1559 -0.2457
  757MOL0     H 4408   5.294   0.534   2.077 -1.2204  0.6109  1.1756
  757MOL0     H 4409   5.371   0.314   2.174  1.0653 -0.1162 -1.1949
  757MOL0     H 4410   5.199   0.309   2.136 -0.5315 -3.9018 -2.3768
  757MOL0     H 4411   5.428   0.198   1.972 -0.5696 -0.7679  1.4368
  757MOL0     H 4412   5.257   0.210   1.913  0.3608  1.8160  1.0508
  757MOL0     H 4413   5.277  -0.020   1.967  1.9768  1.3742 -1.5354
  757MOL0     H 4414   5.372   0.014   2.116  0.4024 -0.4535 -0.4641
  757MOL0     H 4415   5.017   0.025   1.990  0.4639 -0.9816  0.0478
  757MOL0     H 4416   4.775   0.035   2.140 -0.9215  0.8090  0.8718
  757MOL0     H 4417   4.816   0.193   2.200 -0.7798  0.6450  2.9846
  757MOL0     H 4418   4.669   0.030   2.359 -0.3851  0.7249 -0.8473
  757MOL0     H 4419   4.826  -0.044   2.385  0.5172  1.6243  2.6682
  757MOL0     H 4420   4.756   0.122   2.564  1.8817  2.8792  1.8974
  757MOL0     H 4421   4.914   0.156   2.492  0.6671 -1.9186  0.8582
  757MOL0     H 4422   4.789   0.335   2.381 -1.7724 -0.2128 -0.8571
  757MOL0     H 4423   4.631   0.280   2.445 -0.0545  1.4639  2.2227
  757MOL0     H 4424   4.746   0.499   2.816  4.1457  2.0371  0.8464
  757MOL0     H 4425   4.579   0.782   2.894  0.2183 -1.6539  0.3592
  757MOL0     H 4426   4.754   0.811   2.895 -0.7473  0.9517  0.1546
  757MOL0     H 4427   4.683   0.658   2.954  1.2779  2.1638  2.9108
  757MOL0     H 4428   4.399   1.145   2.581  0.5913 -0.0840  0.8391
  757MOL0     H 4429   4.417   1.383   2.553 -0.3567  0.3366 -1.8543
  757MOL0     H 4430   4.802   1.599   2.389  0.1536 -1.9858 -0.1191
  757MOL0     H 4431   4.697   1.545   2.256 -2.2337  0.0554 -0.3919
  757MOL0     H 4432   4.533   1.709   2.291 -0.7604  0.9669 -0.8471
  757MOL0     H 4433   4.619   1.766   2.446  2.6836 -2.5847  1.1646
  757MOL0     H 4434   4.752   1.763   2.177 -0.0208 -0.2072  1.0376
  757MOL0     H 4435   4.794   1.874   2.287 -0.2368  0.3331  1.5935
  757MOL0     H 4436   4.511   1.904   2.194  1.0989 -0.4123 -1.9821
  757MOL0     H 4437   4.651   1.971   2.102  0.9402  2.2037  0.1304
  757MOL0     H 4438   4.596   2.024   2.403 -1.0421  2.1584  1.0231
  757MOL0     H 4439   4.707   2.107   2.294  0.4100 -0.1001 -0.7449
  757MOL0     H 4440   4.400   2.093   2.305  0.7911  0.4540  3.1300
  757MOL0     H 4441   4.490   2.154   2.155  2.8415  0.2161 -0.4482
  757MOL0     H 4442   4.569   2.346   2.312 -1.4417  1.0252 -1.7957
  757MOL0     H 4443   4.462   2.277   2.434 -2.8892  2.0665 -0.5229
  757MOL0     H 4444   4.365   2.386   2.167  1.0794 -2.5593 -0.7785
  757MOL0     H 4445   4.338   2.447   2.333 -0.9013  1.2604 -0.6668
  757MOL0     H 4446   4.788   1.346   2.355  1.2711 -0.1072  0.9271
  757MOL0     H 4447   4.786   1.108   2.398 -0.5009 -0.4420 -0.4844
  757MOL0     H 4448   4.651   0.773   2.409 -2.6879 -2.0878 -1.4576
  757MOL0     H 4449   4.700   0.530   2.380 -0.2935  1.2035 -0.3071
  757MOL0     H 4450   5.940   0.735   1.905  0.3418  0.0841  0.1406
  757MOL0     H 4451   6.102   0.876   2.012 -1.3919 -0.6156 -2.2265
  757MOL0     H 4452   6.222   1.209   2.370  1.2511  0.3763 -2.8360
  757MOL0     H 4453   6.409   1.310   2.474 -1.5610 -0.3975  2.0570
  757MOL0     H 4454   6.704   1.104   2.716  2.6630  2.1736  2.2091
  757MOL0     H 4455   6.804   1.092   2.573  2.4898  0.5778  2.0567
  757MOL0     H 4456   6.911   1.288   2.587 -0.3926 -0.0977  0.4379
  757MOL0     H 4457   6.903   1.204   2.742  1.3129  1.4096 -0.5880
  757MOL0     H 4458   6.744   1.446   2.636 -1.4218 -2.1692 -0.4490
  757MOL0     H 4459   6.685   1.366   2.770 -1.0375 -1.2611 -1.8266
  757MOL0     H 4460   6.977   1.491   2.756  0.2619 -1.3366  0.9848
  757MOL0     H 4461   6.908   1.421   2.900 -0.8236 -2.3750 -1.1543
  757MOL0     H 4462   6.754   1.816   2.867 -1.1109  0.1475 -2.3969
  757MOL0     H 4463   6.591   0.927   2.527 -1.2788 -2.1279 -0.5912
  757MOL0     H 4464   6.498   0.739   2.481  2.0869  3.3630 -0.9866
  757MOL0     H 4465   6.319   0.742   2.452  0.6177 -0.8343  0.6489
  757MOL0     H 4466   6.432   0.754   2.319 -0.7537 -1.2277  0.3087
  758MOL0     O 4467   1.204  10.728   5.284  0.5669 -0.0027 -0.5850
  758MOL0     C 4468   1.152  10.625   5.258  0.5627  0.4064  0.9662
  758MOL0     O 4469   1.221  10.514   5.208 -0.5641 -0.0066 -0.0552
  758MOL0     C 4470   1.341  10.546   5.146  0.1387 -0.0799 -1.4404
  758MOL0     C 4471   1.451  10.544   5.237  0.2494  0.1330 -0.1334
  758MOL0     C 4472   1.572  10.578   5.185 -0.6680  0.2814  1.1504
  758MOL0     C 4473   1.593  10.608   5.045 -0.1423 -0.4408  0.3606
  758MOL0     O 4474   1.710  10.672   5.011 -0.2697  0.4778 -0.2760
  758MOL0     C 4475   1.707  10.784   4.924  0.7055  0.6412  0.1181
  758MOL0     C 4476   1.647  10.908   4.996 -0.4841  0.6847  0.2115
  758MOL0     C 4477   1.649  11.036   4.912 -0.2096 -0.4553  0.9397
  758MOL0     C 4478   1.518  11.042   4.822 -0.3619  0.2478 -0.9030
  758MOL0     C 4479   1.542  11.126   4.690 -0.2747  0.4564 -1.0188
  758MOL0     C 4480   1.538  11.273   4.736 -0.6263  0.8718 -0.5483
  758MOL0     C 4481   1.597  11.360   4.628 -0.2659 -0.8839  0.4841
  758MOL0     C 4482   1.565  11.504   4.658  0.8840  0.4013  0.1807
  758MOL0     N 4483   1.630  11.604   4.573 -0.0723  0.0111  0.8984
  758MOL0     C 4484   1.739  11.594   4.500 -0.2112  0.9550  0.5314
  758MOL0     C 4485   1.757  11.713   4.439 -0.3827  0.4697 -0.2305
  758MOL0     C 4486   1.869  11.756   4.353 -0.1390 -0.0371 -0.3211
  758MOL0     C 4487   1.989  11.813   4.429 -0.0503 -0.5286 -0.1067
  758MOL0     C 4488   2.092  11.711   4.486  0.4970  0.7122 -1.2758
  758MOL0     C 4489   2.112  11.582   4.415 -0.3389  1.0653  0.1909
  758MOL0     O 4490   2.165  11.609   4.284 -0.2715  0.8288  0.4449
  758MOL0     C 4491   2.299  11.584   4.260  0.1075 -0.0980 -0.0724
  758MOL0     C 4492   2.341  11.568   4.131  0.1472  0.5281 -0.0898
  758MOL0     C 4493   2.479  11.561   4.089 -0.2872 -0.6381  0.0336
  758MOL0     C 4494   2.502  11.555   3.932 -0.1578 -0.2129  0.0739
  758MOL0     C 4495   2.574  11.544   4.192 -0.0761 -0.3859  0.0417
  758MOL0     C 4496   2.712  11.519   4.173 -0.0502 -0.2369  0.4343
  758MOL0     O 4497   2.798  11.499   4.286 -0.6836  0.0519  0.5456
  758MOL0     C 4498   2.933  11.492   4.268 -0.2122  0.7883 -0.5188
  758MOL0     C 4499   2.992  11.384   4.204  0.1572  0.5582  1.0504
  758MOL0     C 4500   3.134  11.359   4.203 -0.5163  0.4195  0.1931
  758MOL0     C 4501   3.213  11.454   4.262 -0.8990 -0.1627 -0.5977
  758MOL0     O 4502   3.358  11.446   4.257  0.2300  0.5470  0.2235
  758MOL0     C 4503   3.414  11.316   4.245  0.2189 -0.5187  0.3941
  758MOL0     C 4504   3.472  11.292   4.105 -0.2989 -0.9791  0.4247
  758MOL0     C 4505   3.551  11.161   4.089 -0.1893  0.8988  0.5148
  758MOL0     C 4506   3.471  11.062   4.003 -0.8873 -0.3723  0.8378
  758MOL0     C 4507   3.569  10.946   3.969 -1.1226  0.5381  0.5004
  758MOL0     C 4508   3.596  10.845   4.100  0.5028 -0.6786 -0.0466
  758MOL0     C 4509   3.669  10.731   4.034 -0.5994  0.1801  0.3200
  758MOL0     C 4510   3.651  10.598   4.110 -0.2071 -1.0681  0.4018
  758MOL0    Cl 4511   3.478  10.537   4.083 -0.0463  0.4843 -0.1726
  758MOL0     C 4512   3.162  11.567   4.329 -0.1633  0.6452  0.5164
  758MOL0     C 4513   3.021  11.579   4.337 -0.5958 -0.4354 -0.0249
  758MOL0     O 4514   2.754  11.509   4.059 -0.0596 -0.3933  0.1129
  758MOL0     C 4515   2.526  11.561   4.326  0.1355  0.2537  0.8823
  758MOL0     C 4516   2.393  11.580   4.360 -0.1011  0.7662  0.3470
  758MOL0     N 4517   1.659  11.787   4.474  1.7002 -0.8172  0.2059
  758MOL0     N 4518   1.565  11.722   4.540  0.2182  0.1958  0.6814
  758MOL0     C 4519   1.479  10.597   4.961 -0.0284  0.7893 -0.0393
  758MOL0     C 4520   1.358  10.554   5.016  0.2477  0.3120  0.3589
  758MOL0     C 4521   0.998  10.617   5.271  0.0633  0.6093  0.1799
  758MOL0     C 4522   0.946  10.678   5.384  0.2040 -0.1791 -0.5500
  758MOL0     C 4523   0.813  10.677   5.413 -0.2253  1.1551  0.5431
  758MOL0     C 4524   0.728  10.611   5.321  0.1055  0.0986  0.0512
  758MOL0     O 4525   0.591  10.601   5.318  0.7742 -0.8615 -1.1006
  758MOL0     C 4526   0.525  10.729   5.347 -0.7479 -0.1568 -1.0320
  758MOL0     C 4527   0.437  10.771   5.234  0.1731  0.0322  0.3552
  758MOL0     C 4528   0.519  10.778   5.097 -0.1280  0.1384 -0.0078
  758MOL0     C 4529   0.463  10.865   4.981 -0.8482  0.3769 -0.4630
  758MOL0     C 4530   0.462  11.001   5.032 -0.2292 -0.0808 -0.3336
  758MOL0     C 4531   0.472  11.110   5.081 -0.3385  0.0840 -0.4932
  758MOL0     C 4532   0.785  10.554   5.203  0.5821 -0.6693  0.5761
  758MOL0     C 4533   0.920  10.554   5.179  0.4503 -0.8100  0.2353
  758MOL0     C 4534   0.976  10.494   5.051 -0.0835 -0.6879 -0.0091
  758MOL0     H 4535   1.439  10.512   5.341 -5.3023  2.8922  0.4428
  758MOL0     H 4536   1.656  10.581   5.254  1.8814 -3.1738 -1.4344
  758MOL0     H 4537   1.641  10.764   4.840  1.4347  3.2047 -1.1500
  758MOL0     H 4538   1.804  10.794   4.873 -0.5156 -2.4354 -3.2341
  758MOL0     H 4539   1.548  10.898   5.041 -1.2363  0.4193 -1.4203
  758MOL0     H 4540   1.721  10.923   5.075  0.5157  1.4999 -0.8367
  758MOL0     H 4541   1.659  11.121   4.981 -1.6948  0.5087  0.0220
  758MOL0     H 4542   1.728  11.032   4.837 -1.3773 -1.6385 -0.2822
  758MOL0     H 4543   1.490  10.943   4.787 -1.9234  0.4020 -0.1701
  758MOL0     H 4544   1.436  11.089   4.878  0.7507  2.9827 -1.3765
  758MOL0     H 4545   1.468  11.105   4.613 -2.1280 -0.7452  0.9496
  758MOL0     H 4546   1.639  11.104   4.645 -0.3843 -1.5629 -0.3776
  758MOL0     H 4547   1.430  11.289   4.746 -1.3485 -2.4127 -1.8468
  758MOL0     H 4548   1.602  11.282   4.825 -0.3473 -1.5910 -0.4391
  758MOL0     H 4549   1.561  11.342   4.526 -1.5331 -0.4062  0.8185
  758MOL0     H 4550   1.705  11.349   4.614 -0.5490 -1.2064 -1.8097
  758MOL0     H 4551   1.458  11.527   4.666  0.5346 -0.7970 -0.7398
  758MOL0     H 4552   1.604  11.530   4.757  1.4599  2.9974 -0.6569
  758MOL0     H 4553   1.794  11.501   4.492 -2.2002 -0.3132  0.9287
  758MOL0     H 4554   1.832  11.831   4.282 -0.6718  0.8151  0.8253
  758MOL0     H 4555   1.895  11.664   4.299  0.5554  0.2194 -0.4247
  758MOL0     H 4556   2.037  11.881   4.359 -0.4253  2.0429  1.9990
  758MOL0     H 4557   1.947  11.876   4.508  0.4701  0.4075 -0.5654
  758MOL0     H 4558   2.193  11.753   4.493  1.4258 -1.2724 -1.9885
  758MOL0     H 4559   2.051  11.682   4.583 -3.9143  0.4711 -2.9709
  758MOL0     H 4560   2.173  11.515   4.477  0.1382  0.1477 -1.2270
  758MOL0     H 4561   2.018  11.528   4.400 -1.0746  2.7350 -1.5894
  758MOL0     H 4562   2.266  11.588   4.055  0.4949 -0.4758 -0.7081
  758MOL0     H 4563   2.577  11.625   3.894  0.4397  0.4973  2.3954
  758MOL0     H 4564   2.404  11.564   3.884 -0.4166 -2.2954  0.0960
  758MOL0     H 4565   2.531  11.457   3.892 -0.2403 -0.0223 -0.4541
  758MOL0     H 4566   2.928  11.304   4.169 -3.0637  1.6101  4.0210
  758MOL0     H 4567   3.162  11.264   4.160 -2.7564  0.1850 -0.8945
  758MOL0     H 4568   3.492  11.296   4.319 -0.1204 -2.1547  0.3452
  758MOL0     H 4569   3.341  11.237   4.265  0.3417 -0.4194  1.2436
  758MOL0     H 4570   3.383  11.297   4.041  0.6837  1.3545 -0.9013
  758MOL0     H 4571   3.535  11.381   4.091  1.0733 -1.8180  1.1570
  758MOL0     H 4572   3.568  11.100   4.178 -0.0232 -1.1760 -0.8776
  758MOL0     H 4573   3.638  11.177   4.025 -0.7160 -2.9762 -1.5049
  758MOL0     H 4574   3.428  11.109   3.914 -0.9060  1.2065  1.6369
  758MOL0     H 4575   3.388  11.023   4.063 -0.7107 -1.6911  0.2399
  758MOL0     H 4576   3.533  10.885   3.886  1.4391  1.4920 -1.4221
  758MOL0     H 4577   3.667  10.984   3.939 -1.4847  1.2975  0.2671
  758MOL0     H 4578   3.503  10.817   4.151  0.2042  2.0516  1.0846
  758MOL0     H 4579   3.660  10.897   4.172  0.0005 -0.1457  0.0215
  758MOL0     H 4580   3.776  10.751   4.021 -0.8766 -0.0429 -3.4215
  758MOL0     H 4581   3.631  10.708   3.934  2.6874  0.1990 -1.0528
  758MOL0     H 4582   3.663  10.613   4.217 -3.7300  0.2642  0.7357
  758MOL0     H 4583   3.717  10.514   4.089 -0.7806 -1.0788 -1.5944
  758MOL0     H 4584   3.232  11.637   4.374  0.9324  0.5482 -0.9535
  758MOL0     H 4585   2.989  11.662   4.399  3.1727  0.5537  0.8984
  758MOL0     H 4586   2.596  11.570   4.409  3.1806  3.8227 -1.7405
  758MOL0     H 4587   2.377  11.592   4.466  0.9586 -2.7410  1.0279
  758MOL0     H 4588   1.485  10.603   4.853  0.7867  0.9710  0.0114
  758MOL0     H 4589   1.265  10.550   4.961  0.5610 -2.5939 -0.1235
  758MOL0     H 4590   1.011  10.710   5.465 -2.2372 -0.2846  1.5723
  758MOL0     H 4591   0.768  10.719   5.502 -1.2392  0.9749  0.1342
  758MOL0     H 4592   0.470  10.718   5.442  1.1780  0.9271  0.2778
  758MOL0     H 4593   0.604  10.804   5.359  0.7364 -1.5216 -2.0200
  758MOL0     H 4594   0.395  10.871   5.248 -2.3630 -0.8072 -0.6186
  758MOL0     H 4595   0.345  10.715   5.216  0.9835 -0.8957 -1.1143
  758MOL0     H 4596   0.616  10.817   5.128  0.7501 -1.2252 -0.9257
  758MOL0     H 4597   0.550  10.678   5.065 -0.8707  0.2336 -1.0770
  758MOL0     H 4598   0.362  10.834   4.955 -1.8759  3.2614 -0.2562
  758MOL0     H 4599   0.535  10.860   4.899 -0.1196  0.2840  0.1680
  758MOL0     H 4600   0.483  11.189   5.152  0.9979 -2.8007  2.7676
  758MOL0     H 4601   0.715  10.508   5.135  0.8418 -0.2363  0.0063
  758MOL0     H 4602   0.896  10.476   4.979 -0.4318  0.5715  0.0292
  758MOL0     H 4603   1.047  10.555   4.994 -1.0160 -0.1252 -0.6107
  758MOL0     H 4604   1.019  10.396   5.073  0.7160 -0.5177 -0.7535
  759MOL0     O 4605  10.567   8.186   4.435 -0.3246 -0.0363 -0.2147
  759MOL0     C 4606  10.569   8.227   4.546  0.0146 -0.2036 -0.3206
  759MOL0     O 4607  10.678   8.208   4.632  0.0855 -0.4282 -0.3454
  759MOL0     C 4608  10.789   8.141   4.602 -1.8245  0.5497 -0.0075
  759MOL0     C 4609  10.872   8.118   4.717  0.2542  0.2320  0.2133
  759MOL0     C 4610  10.980   8.034   4.705 -0.2046 -0.2972  0.0921
  759MOL0     C 4611  11.028   7.986   4.589 -0.8448  0.0361  0.6812
  759MOL0     O 4612  11.143   7.914   4.590  0.1188  0.3483 -0.3531
  759MOL0     C 4613  11.210   7.897   4.467 -0.1339 -0.3589 -0.3391
  759MOL0     C 4614  11.351   7.857   4.493  0.2947 -0.1555  0.3074
  759MOL0     C 4615  11.422   7.804   4.367 -0.3863  0.5419 -0.2994
  759MOL0     C 4616  11.558   7.757   4.400  0.8601  0.2407  1.2842
  759MOL0     C 4617  11.654   7.743   4.283  0.2745 -0.2893  0.6555
  759MOL0     C 4618  11.789   7.705   4.341  0.0839  1.0665 -0.4404
  759MOL0     C 4619  11.882   7.687   4.218  0.0944 -0.8886  0.7776
  759MOL0     C 4620  12.011   7.616   4.251 -0.2785 -0.1593  1.1752
  759MOL0     N 4621  12.115   7.622   4.145 -1.6050 -0.0108  0.3271
  759MOL0     C 4622  12.105   7.587   4.016 -0.1537  0.2436  0.7018
  759MOL0     C 4623  12.228   7.609   3.967 -0.7216  0.5371 -0.6993
  759MOL0     C 4624  12.264   7.586   3.825 -0.4382 -0.2617  0.1028
  759MOL0     C 4625  12.373   7.477   3.811  0.2086 -0.4286  0.1459
  759MOL0     C 4626  12.514   7.536   3.857 -0.0984  0.6364  0.8093
  759MOL0     C 4627  12.625   7.438   3.818 -0.4442  0.1215 -0.0317
  759MOL0     O 4628  12.749   7.517   3.840  0.4496  0.2180 -0.5887
  759MOL0     C 4629  12.866   7.446   3.834  0.5418  0.4312  0.2721
  759MOL0     C 4630  12.891   7.306   3.825  0.4491 -0.2780 -0.0941
  759MOL0     C 4631  13.020   7.253   3.824 -0.2617 -0.8964  0.7011
  759MOL0     C 4632  13.021   7.102   3.834  0.1087  1.0078  0.8311
  759MOL0     C 4633  13.132   7.340   3.811  0.4417  0.1377 -0.2884
  759MOL0     C 4634  13.268   7.296   3.765 -0.7294 -0.6852  0.2164
  759MOL0     O 4635  13.366   7.387   3.771  0.3413 -0.2626  0.0344
  759MOL0     C 4636  13.499   7.347   3.780  0.2375  0.3690 -0.1910
  759MOL0     C 4637  13.588   7.391   3.685  0.2441 -0.2519  1.1962
  759MOL0     C 4638  13.726   7.358   3.684 -0.0612  0.2442  0.3378
  759MOL0     C 4639  13.772   7.283   3.793 -0.1444  0.3696 -0.1116
  759MOL0     O 4640  13.899   7.227   3.771 -0.2405  0.6021  0.4121
  759MOL0     C 4641  13.965   7.150   3.880  0.0028 -0.3238  0.2198
  759MOL0     C 4642  14.072   7.054   3.824  1.1617  0.3550  0.3268
  759MOL0     C 4643  14.200   7.125   3.783 -0.1665  0.6261 -0.8640
  759MOL0     C 4644  14.307   7.014   3.782  0.1337 -0.4753 -0.0630
  759MOL0     C 4645  14.379   7.016   3.907 -0.2791 -0.6220  0.1768
  759MOL0     C 4646  14.501   6.924   3.914 -0.5687  0.4682  0.7230
  759MOL0     C 4647  14.563   6.937   4.051  0.2239  0.5852  0.2432
  759MOL0     C 4648  14.665   6.831   4.081  0.3060 -0.1470  0.6988
  759MOL0    Cl 4649  14.709   6.818   4.255  0.8091  0.1799  0.4386
  759MOL0     C 4650  13.689   7.255   3.905  0.1374 -0.0219  0.6935
  759MOL0     C 4651  13.547   7.289   3.899  0.0374 -0.5783  1.1620
  759MOL0     O 4652  13.288   7.182   3.727 -0.1029 -1.2435  0.0358
  759MOL0     C 4653  13.112   7.482   3.828 -0.6817  0.7070 -0.6808
  759MOL0     C 4654  12.987   7.533   3.837 -0.1586  1.0786 -0.5810
  759MOL0     N 4655  12.307   7.665   4.067 -0.2682  0.4201  0.4581
  759MOL0     N 4656  12.241   7.669   4.169  0.3712 -0.3072  0.3316
  759MOL0     C 4657  10.951   8.008   4.474 -0.5700 -0.7639 -0.8533
  759MOL0     C 4658  10.836   8.088   4.479 -0.1737 -0.1546 -0.0875
  759MOL0     C 4659  10.460   8.312   4.595 -0.1085 -0.0308  0.6583
  759MOL0     C 4660  10.367   8.356   4.496 -0.3855 -0.1090  0.3847
  759MOL0     C 4661  10.266   8.441   4.528  0.4297  0.1316 -1.2648
  759MOL0     C 4662  10.240   8.486   4.656 -0.1651 -0.6263  0.4157
  759MOL0     O 4663  10.149   8.583   4.697 -0.6904 -0.4156 -0.0354
  759MOL0     C 4664  10.026   8.578   4.637  0.7181 -0.1827  0.1407
  759MOL0     C 4665   9.905   8.584   4.739  0.5540 -1.2334 -0.5259
  759MOL0     C 4666   9.926   8.694   4.857 -0.6618  0.4422 -0.1311
  759MOL0     C 4667   9.822   8.686   4.964  0.1317 -0.2742 -0.2126
  759MOL0     C 4668   9.883   8.618   5.083  0.1466  0.3299 -1.2847
  759MOL0     C 4669   9.940   8.556   5.172  0.2934  0.7830  0.2476
  759MOL0     C 4670  10.325   8.442   4.752 -0.0910 -0.7221  0.0952
  759MOL0     C 4671  10.441   8.364   4.723 -0.4433  1.1186  0.5659
  759MOL0     C 4672  10.526   8.316   4.841  0.3902 -0.4531  1.2874
  759MOL0     H 4673  10.861   8.162   4.815  2.4144 -0.5668  0.8819
  759MOL0     H 4674  11.034   8.027   4.799 -0.4489  3.4282  0.6805
  759MOL0     H 4675  11.203   7.986   4.404  1.6189 -0.2978 -0.4961
  759MOL0     H 4676  11.167   7.812   4.412 -1.2744  0.9526 -1.5545
  759MOL0     H 4677  11.411   7.944   4.521 -0.9003  1.2015 -1.1649
  759MOL0     H 4678  11.359   7.774   4.563  0.9345 -1.7160 -1.5358
  759MOL0     H 4679  11.362   7.718   4.337 -1.8567  0.6696  1.9927
  759MOL0     H 4680  11.422   7.881   4.290 -1.1153 -0.5267 -1.3931
  759MOL0     H 4681  11.611   7.805   4.484  2.6138  2.8703 -1.1499
  759MOL0     H 4682  11.554   7.654   4.436 -1.2260 -0.3565 -0.4768
  759MOL0     H 4683  11.660   7.834   4.222 -1.2690 -0.3682  0.3315
  759MOL0     H 4684  11.615   7.669   4.213  1.9509 -1.7919  1.2464
  759MOL0     H 4685  11.834   7.782   4.406 -1.1339  0.9511  0.5723
  759MOL0     H 4686  11.796   7.619   4.408  3.4019  4.1176  3.7215
  759MOL0     H 4687  11.910   7.788   4.188 -1.2952  1.1965  5.5383
  759MOL0     H 4688  11.841   7.621   4.141  0.6681  0.1098 -0.4243
  759MOL0     H 4689  12.048   7.672   4.337  0.4276  2.8339 -0.8985
  759MOL0     H 4690  11.992   7.511   4.274  0.4275 -0.8494 -1.1492
  759MOL0     H 4691  12.022   7.540   3.964  1.4003 -0.9130 -0.8435
  759MOL0     H 4692  12.291   7.680   3.776 -1.2208 -0.2770 -0.3841
  759MOL0     H 4693  12.176   7.566   3.763  1.5276  1.0522 -3.4068
  759MOL0     H 4694  12.351   7.380   3.856 -0.2757  0.0618  0.9937
  759MOL0     H 4695  12.382   7.444   3.707  1.7908 -1.4475  0.5613
  759MOL0     H 4696  12.525   7.623   3.792 -2.1037  0.6874  0.4497
  759MOL0     H 4697  12.513   7.574   3.960  0.3304  1.1081  0.6372
  759MOL0     H 4698  12.626   7.348   3.880  4.4466  0.3936  0.6660
  759MOL0     H 4699  12.629   7.417   3.711  0.2336  2.4016 -0.5129
  759MOL0     H 4700  12.802   7.245   3.833 -2.0641  3.0560 -0.0912
  759MOL0     H 4701  12.925   7.060   3.865  0.2523  0.3392  0.3809
  759MOL0     H 4702  13.099   7.071   3.904 -0.8492  2.1053  2.4529
  759MOL0     H 4703  13.036   7.060   3.734 -2.3190 -0.8036  1.1472
  759MOL0     H 4704  13.539   7.458   3.616 -3.5730 -3.1808  0.7443
  759MOL0     H 4705  13.789   7.395   3.604  0.7920  1.9637  1.7322
  759MOL0     H 4706  14.004   7.218   3.956 -1.4722  0.2034  0.5334
  759MOL0     H 4707  13.884   7.090   3.925 -0.6544 -1.2474 -2.0494
  759MOL0     H 4708  14.083   6.970   3.894 -0.0358 -0.7609 -0.7730
  759MOL0     H 4709  14.028   7.010   3.735 -3.3168  2.3510  1.2703
  759MOL0     H 4710  14.216   7.202   3.858  1.2770  0.7866 -1.2964
  759MOL0     H 4711  14.182   7.161   3.681 -0.8197  1.1538 -0.5667
  759MOL0     H 4712  14.382   7.034   3.705 -1.2707 -1.2277 -1.6980
  759MOL0     H 4713  14.273   6.914   3.755  0.7180 -1.1721  1.6878
  759MOL0     H 4714  14.416   7.117   3.928  0.9676 -0.6165 -1.7386
  759MOL0     H 4715  14.303   6.980   3.976 -2.6814 -0.0665 -2.0310
  759MOL0     H 4716  14.572   6.960   3.839  0.6202  0.3731  1.7592
  759MOL0     H 4717  14.473   6.821   3.890 -0.5717  0.5484  0.3829
  759MOL0     H 4718  14.478   6.924   4.119 -2.3660 -0.2215 -2.8935
  759MOL0     H 4719  14.608   7.036   4.060 -0.1850  0.7457  0.5597
  759MOL0     H 4720  14.752   6.853   4.019 -0.2655  0.8890  0.2318
  759MOL0     H 4721  14.629   6.734   4.045  0.8930  0.6772 -2.3957
  759MOL0     H 4722  13.713   7.191   3.989  0.1610  0.2430  0.8900
  759MOL0     H 4723  13.486   7.257   3.984 -1.6829  0.7549  0.5075
  759MOL0     H 4724  13.200   7.545   3.817  2.0560 -2.4243  1.5466
  759MOL0     H 4725  12.990   7.641   3.854  1.7020  0.9012  0.4623
  759MOL0     H 4726  10.959   7.949   4.384 -1.1175 -0.9675 -0.7734
  759MOL0     H 4727  10.772   8.086   4.392  0.9320  2.7110 -1.0603
  759MOL0     H 4728  10.370   8.313   4.396 -3.6897 -2.8999  1.2794
  759MOL0     H 4729  10.210   8.471   4.440  1.0885 -0.6035 -1.9534
  759MOL0     H 4730  10.028   8.660   4.564  2.7510  2.6484  3.0810
  759MOL0     H 4731  10.018   8.489   4.575  0.1000 -0.2152  0.2613
  759MOL0     H 4732   9.901   8.484   4.783 -0.2431 -1.4915 -1.1652
  759MOL0     H 4733   9.809   8.603   4.691  0.3335 -1.1136 -0.0394
  759MOL0     H 4734  10.020   8.672   4.908 -1.4962  0.3395  1.4315
  759MOL0     H 4735   9.932   8.789   4.804  1.0990 -0.3288 -1.3827
  759MOL0     H 4736   9.731   8.633   4.934 -0.8028  0.5237  1.1105
  759MOL0     H 4737   9.782   8.785   4.987 -2.4223 -0.7709 -2.0534
  759MOL0     H 4738   9.999   8.508   5.247  1.3858 -1.5262 -1.9237
  759MOL0     H 4739  10.296   8.470   4.852  0.5437  1.4309 -0.2811
  759MOL0     H 4740  10.545   8.209   4.835 -0.7094 -0.6673  1.3858
  759MOL0     H 4741  10.621   8.369   4.855  1.2664 -2.0235  1.4649
  759MOL0     H 4742  10.472   8.330   4.935 -1.1421 -1.3515  0.5715
  760MOL0     O 4743   0.449   4.999   0.566 -0.3010  0.1861  0.2050
  760MOL0     C 4744   0.376   5.088   0.592  0.6974  0.0474 -0.4763
  760MOL0     O 4745   0.408   5.191   0.689  0.5815  0.6313 -0.2357
  760MOL0     C 4746   0.530   5.175   0.747  0.6799  0.7172  0.1017
  760MOL0     C 4747   0.550   5.103   0.863  0.8467 -0.5280  0.5435
  760MOL0     C 4748   0.682   5.089   0.903 -0.0109 -0.5019 -0.3585
  760MOL0     C 4749   0.789   5.149   0.840  1.1604  0.3032 -0.0340
  760MOL0     O 4750   0.923   5.140   0.883 -0.2411  0.6845 -0.6692
  760MOL0     C 4751   0.955   5.043   0.988  0.7763 -0.2306  0.6735
  760MOL0     C 4752   0.966   5.101   1.125 -0.2117  0.2684 -0.7657
  760MOL0     C 4753   1.094   5.185   1.136 -0.1985  0.4564 -0.2842
  760MOL0     C 4754   1.124   5.198   1.289 -0.5975  0.5973 -0.3969
  760MOL0     C 4755   1.230   5.304   1.303 -0.4800  0.8563  0.5323
  760MOL0     C 4756   1.268   5.313   1.450  0.2986  0.0316 -0.8376
  760MOL0     C 4757   1.357   5.437   1.475  0.3713 -0.5241  0.2007
  760MOL0     C 4758   1.419   5.432   1.613  0.3144  0.0741 -0.0395
  760MOL0     N 4759   1.320   5.437   1.731  0.6800 -0.3129 -0.3701
  760MOL0     C 4760   1.240   5.546   1.764  0.0769 -0.7240 -0.1680
  760MOL0     C 4761   1.137   5.496   1.840 -0.2017 -0.8902 -0.1254
  760MOL0     C 4762   1.028   5.582   1.897 -0.3448  0.6369 -0.7601
  760MOL0     C 4763   1.083   5.655   2.026  0.0237  0.0890  0.0362
  760MOL0     C 4764   1.074   5.559   2.149 -0.6708 -0.4419  0.8258
  760MOL0     C 4765   1.170   5.601   2.271  1.1691  0.0164  0.3206
  760MOL0     O 4766   1.244   5.488   2.334  0.0443 -0.4291  0.1366
  760MOL0     C 4767   1.340   5.423   2.268 -0.3514 -0.0370 -0.3177
  760MOL0     C 4768   1.397   5.303   2.322 -0.4418 -0.2144  0.6584
  760MOL0     C 4769   1.522   5.250   2.276 -0.1083 -0.3989  0.2023
  760MOL0     C 4770   1.586   5.123   2.336  0.4226 -0.3492  0.4344
  760MOL0     C 4771   1.581   5.309   2.160  0.1013  0.9671 -0.2285
  760MOL0     C 4772   1.701   5.257   2.095  0.0412 -0.3415  0.4901
  760MOL0     O 4773   1.721   5.276   1.959 -0.1961 -0.3532 -0.1415
  760MOL0     C 4774   1.824   5.209   1.913  0.0245 -0.0229  0.2849
  760MOL0     C 4775   1.866   5.079   1.953  0.2073  0.5868  0.3376
  760MOL0     C 4776   1.959   5.018   1.877 -0.3827 -0.1349  0.0481
  760MOL0     C 4777   2.012   5.070   1.759  0.3673 -0.0513 -0.2639
  760MOL0     O 4778   2.087   5.005   1.664 -0.2037 -0.8347  0.8027
  760MOL0     C 4779   2.094   4.859   1.658 -0.4125  0.0770  0.6274
  760MOL0     C 4780   2.109   4.821   1.506  0.1993  0.0595  0.5035
  760MOL0     C 4781   2.240   4.876   1.433  0.5168  1.0952  0.2687
  760MOL0     C 4782   2.235   4.830   1.283  0.1635  0.7448 -0.1021
  760MOL0     C 4783   2.370   4.861   1.221 -0.5843  0.6609 -0.4660
  760MOL0     C 4784   2.385   4.873   1.073 -0.2566  0.8190 -0.8177
  760MOL0     C 4785   2.320   4.756   1.004  0.5442 -0.3820 -0.9700
  760MOL0     C 4786   2.314   4.778   0.848 -0.2469 -0.4325 -0.6581
  760MOL0    Cl 4787   2.243   4.643   0.762  0.0725  0.3613 -0.0858
  760MOL0     C 4788   1.975   5.196   1.719 -0.0007  0.2841  0.2058
  760MOL0     C 4789   1.881   5.271   1.797 -0.1577 -0.2855 -0.5340
  760MOL0     O 4790   1.791   5.236   2.177  0.1847  0.2262  0.2031
  760MOL0     C 4791   1.508   5.406   2.091 -0.3265  0.2265 -1.0138
  760MOL0     C 4792   1.405   5.471   2.156  0.2265  0.2602  0.2043
  760MOL0     N 4793   1.155   5.349   1.837 -0.3293 -1.3818  0.3684
  760MOL0     N 4794   1.266   5.322   1.780 -0.6457  0.0897  0.3689
  760MOL0     C 4795   0.774   5.221   0.727  0.7067  0.7938  0.0588
  760MOL0     C 4796   0.640   5.234   0.685 -1.4870 -0.0692 -0.4194
  760MOL0     C 4797   0.239   5.093   0.527 -0.7308  0.3284 -0.3908
  760MOL0     C 4798   0.148   5.192   0.572 -1.3342  0.0147 -0.0642
  760MOL0     C 4799   0.026   5.213   0.508 -0.4616  0.8056 -0.1189
  760MOL0     C 4800  -0.004   5.131   0.405  0.7106 -0.3891 -0.0744
  760MOL0     O 4801  -0.127   5.144   0.345 -0.3319 -0.0755 -0.0558
  760MOL0     C 4802  -0.161   5.088   0.211  0.1441 -0.3365 -0.5739
  760MOL0     C 4803  -0.247   5.181   0.133 -0.4649 -0.9127 -0.4680
  760MOL0     C 4804  -0.377   5.208   0.204  0.4059 -0.0641  0.1792
  760MOL0     C 4805  -0.478   5.294   0.119 -0.9766  1.5452 -0.0050
  760MOL0     C 4806  -0.445   5.423   0.062  0.4143  0.0297 -0.6260
  760MOL0     C 4807  -0.423   5.527   0.015  0.3670 -0.7912 -0.1132
  760MOL0     C 4808   0.067   5.019   0.368  0.6579  0.4824 -0.6737
  760MOL0     C 4809   0.198   5.005   0.427  0.0378  0.5282 -0.4369
  760MOL0     C 4810   0.278   4.891   0.378 -0.1568 -0.7588 -0.4834
  760MOL0     H 4811   0.469   5.064   0.922  1.5066 -2.7140  0.0896
  760MOL0     H 4812   0.697   5.050   1.003  2.2277  0.4342 -0.2739
  760MOL0     H 4813   1.053   5.000   0.967  2.0824  2.2982  1.2409
  760MOL0     H 4814   0.877   4.966   0.989 -0.0316  0.4516  4.4893
  760MOL0     H 4815   0.883   5.168   1.152  0.3045  0.2846  0.8858
  760MOL0     H 4816   0.956   5.014   1.191 -0.4021  1.0913  0.3244
  760MOL0     H 4817   1.181   5.142   1.085  1.6213  2.8881  0.5885
  760MOL0     H 4818   1.077   5.282   1.088 -2.1121  0.7404  0.8703
  760MOL0     H 4819   1.028   5.221   1.337  0.1378 -0.9017  1.9673
  760MOL0     H 4820   1.159   5.104   1.332 -0.3704  1.2031  0.7697
  760MOL0     H 4821   1.181   5.395   1.267 -0.8369  0.3041 -0.4275
  760MOL0     H 4822   1.321   5.290   1.243  0.7185  0.1501  2.4154
  760MOL0     H 4823   1.182   5.311   1.517  0.1705  1.1151 -0.9504
  760MOL0     H 4824   1.327   5.223   1.471 -3.1930 -2.1080  0.7162
  760MOL0     H 4825   1.291   5.525   1.476  1.8093  0.5911 -0.0418
  760MOL0     H 4826   1.432   5.444   1.396  2.6451 -1.4131  2.1654
  760MOL0     H 4827   1.478   5.341   1.630 -1.2953 -0.9334  0.5085
  760MOL0     H 4828   1.477   5.524   1.620 -1.0336  0.8427  2.4960
  760MOL0     H 4829   1.243   5.651   1.736  1.0818 -0.6315  0.2510
  760MOL0     H 4830   0.945   5.519   1.932 -0.2778  1.1778  0.4062
  760MOL0     H 4831   0.983   5.654   1.828 -0.7375 -0.7439 -1.9903
  760MOL0     H 4832   1.185   5.691   2.016  0.0202 -0.2026 -1.3611
  760MOL0     H 4833   1.022   5.745   2.040  0.8450  0.9089 -1.4182
  760MOL0     H 4834   0.974   5.570   2.191 -1.5000 -0.7792 -0.9756
  760MOL0     H 4835   1.097   5.454   2.128 -0.1058 -0.2574  0.4947
  760MOL0     H 4836   1.248   5.676   2.253  2.6084 -1.4262  0.3660
  760MOL0     H 4837   1.105   5.645   2.347 -0.5208 -1.4762 -0.2134
  760MOL0     H 4838   1.351   5.250   2.405 -2.9059  1.9186  0.7663
  760MOL0     H 4839   1.690   5.137   2.368 -0.0306 -1.9222  2.7613
  760MOL0     H 4840   1.578   5.047   2.257  1.4273 -1.7348  1.6218
  760MOL0     H 4841   1.526   5.091   2.421  1.0885 -2.8488  0.0455
  760MOL0     H 4842   1.824   5.021   2.036  2.1082  0.5213  1.3126
  760MOL0     H 4843   1.984   4.916   1.904 -2.9571 -0.5312  1.2429
  760MOL0     H 4844   2.189   4.822   1.698 -0.1457  0.2102  0.1159
  760MOL0     H 4845   2.017   4.800   1.709  2.8083 -3.3589  2.0024
  760MOL0     H 4846   2.091   4.715   1.489 -1.7909  0.4733 -0.2689
  760MOL0     H 4847   2.027   4.875   1.457  1.7560  1.6048 -0.4995
  760MOL0     H 4848   2.328   4.830   1.480 -0.6872 -1.3206  0.3416
  760MOL0     H 4849   2.241   4.985   1.436  0.1318  1.0796  1.3623
  760MOL0     H 4850   2.148   4.876   1.235 -1.6438 -0.2262  2.0185
  760MOL0     H 4851   2.236   4.722   1.269  4.1206  0.6413 -0.2249
  760MOL0     H 4852   2.397   4.960   1.258 -3.7882  1.0891  1.1402
  760MOL0     H 4853   2.444   4.789   1.256 -1.2943  1.0401  2.0459
  760MOL0     H 4854   2.494   4.877   1.061  0.1710  0.1193  2.1806
  760MOL0     H 4855   2.332   4.963   1.041 -2.0707  0.6463  1.4918
  760MOL0     H 4856   2.216   4.742   1.032  0.9238  0.1529  0.8598
  760MOL0     H 4857   2.369   4.665   1.041 -0.2925 -0.8714 -1.0582
  760MOL0     H 4858   2.418   4.781   0.812 -0.3447  0.0756 -0.9052
  760MOL0     H 4859   2.267   4.873   0.824 -0.1578  0.2454  1.6112
  760MOL0     H 4860   1.993   5.242   1.623 -1.1333 -0.4293 -0.3650
  760MOL0     H 4861   1.841   5.365   1.761 -2.0008 -1.4655 -1.7047
  760MOL0     H 4862   1.540   5.447   1.995 -0.8461  2.8560 -0.1252
  760MOL0     H 4863   1.373   5.562   2.107 -2.4694 -0.1476  1.0662
  760MOL0     H 4864   0.856   5.271   0.677  1.6387  1.1867  1.9051
  760MOL0     H 4865   0.632   5.282   0.588 -2.1655  0.1385 -0.2648
  760MOL0     H 4866   0.169   5.260   0.654 -1.5128 -1.0470  0.8750
  760MOL0     H 4867  -0.043   5.291   0.538 -1.5202 -0.8612  2.1486
  760MOL0     H 4868  -0.072   5.063   0.152 -0.8195 -0.7596 -1.9161
  760MOL0     H 4869  -0.220   4.999   0.232 -0.8080  1.0053  3.3181
  760MOL0     H 4870  -0.261   5.145   0.031 -0.3594  3.1271 -2.0878
  760MOL0     H 4871  -0.193   5.273   0.109 -0.5112 -1.4388 -2.8891
  760MOL0     H 4872  -0.427   5.117   0.238 -1.1689  1.6188  2.7036
  760MOL0     H 4873  -0.354   5.264   0.296  1.3653 -0.5454  0.2464
  760MOL0     H 4874  -0.568   5.324   0.172 -0.7549 -1.7186  2.5601
  760MOL0     H 4875  -0.512   5.236   0.033  5.2543  0.8103 -2.5164
  760MOL0     H 4876  -0.401   5.623  -0.027  2.0755 -0.9360  0.3596
  760MOL0     H 4877   0.038   4.958   0.283  1.1168 -1.6141  0.6037
  760MOL0     H 4878   0.371   4.927   0.335 -0.1908  0.7236  0.6332
  760MOL0     H 4879   0.298   4.823   0.462  1.1987  0.5815  0.3252
  760MOL0     H 4880   0.229   4.842   0.294 -0.6376 -1.2553  0.0723
  761MOL0     O 4881   9.763   5.655   3.978  0.0402 -0.1591 -0.0311
  761MOL0     C 4882   9.649   5.660   3.943  0.5304  0.1296 -0.4867
  761MOL0     O 4883   9.567   5.754   3.983  0.0704 -0.1904  0.4495
  761MOL0     C 4884   9.598   5.842   4.086  0.5039  1.2010  0.3089
  761MOL0     C 4885   9.599   5.978   4.060  0.4762 -0.1843  1.0541
  761MOL0     C 4886   9.650   6.064   4.156 -0.0334 -0.5882 -0.9654
  761MOL0     C 4887   9.684   6.029   4.287  0.1712  0.2649  0.4143
  761MOL0     O 4888   9.725   6.129   4.365  1.0875  0.4349 -0.7854
  761MOL0     C 4889   9.685   6.124   4.501 -0.0530  0.5108  0.3103
  761MOL0     C 4890   9.817   6.077   4.579  0.9480 -0.7797  0.0353
  761MOL0     C 4891   9.828   6.141   4.713  0.1928 -0.0325  0.0725
  761MOL0     C 4892   9.930   6.253   4.712  0.9887  0.1152  0.2784
  761MOL0     C 4893   9.885   6.388   4.649 -0.5452 -0.2657  0.1172
  761MOL0     C 4894  10.004   6.487   4.636  0.3042  0.3854 -0.3188
  761MOL0     C 4895   9.962   6.625   4.613  0.1793  0.0379 -0.3385
  761MOL0     C 4896   9.940   6.652   4.463  1.7306 -0.1840 -0.6432
  761MOL0     N 4897  10.057   6.675   4.378 -0.2799 -0.8922 -0.3289
  761MOL0     C 4898  10.135   6.583   4.310  0.5323 -0.6546  1.0211
  761MOL0     C 4899  10.199   6.658   4.216  0.6672  0.5900 -0.3908
  761MOL0     C 4900  10.286   6.604   4.105  0.2338 -0.4149 -0.1848
  761MOL0     C 4901  10.427   6.666   4.097  1.1453  0.1340 -0.1111
  761MOL0     C 4902  10.511   6.598   3.978 -0.4048  0.5822 -0.1836
  761MOL0     C 4903  10.454   6.614   3.837  0.5856  0.5990 -0.1858
  761MOL0     O 4904  10.554   6.603   3.745  0.2252 -0.4545  0.0016
  761MOL0     C 4905  10.612   6.706   3.690 -0.2344 -0.0001  0.3904
  761MOL0     C 4906  10.605   6.838   3.731 -0.1667 -0.1764 -0.0587
  761MOL0     C 4907  10.673   6.942   3.670 -0.4531 -0.0300 -0.6908
  761MOL0     C 4908  10.667   7.082   3.725  0.4108  0.4191 -0.3027
  761MOL0     C 4909  10.763   6.916   3.561  0.1131 -0.3275  0.2100
  761MOL0     C 4910  10.829   7.012   3.473 -0.1645  0.4400 -1.0273
  761MOL0     O 4911  10.872   7.121   3.528  0.3121  0.5506 -0.1324
  761MOL0     C 4912  10.919   7.219   3.442  0.1376 -0.1927  0.4947
  761MOL0     C 4913  11.057   7.247   3.437  0.6660  0.1093 -0.5644
  761MOL0     C 4914  11.106   7.361   3.369 -0.2307  0.1267  0.3187
  761MOL0     C 4915  11.020   7.452   3.306  0.4504 -1.2076  1.7288
  761MOL0     O 4916  11.061   7.570   3.249 -0.6885  0.3730 -0.1742
  761MOL0     C 4917  11.160   7.539   3.153 -0.4258  0.2235  0.3575
  761MOL0     C 4918  11.115   7.466   3.028  0.0280  0.4072 -0.5489
  761MOL0     C 4919  11.136   7.304   3.031  1.0688 -0.0511 -0.7855
  761MOL0     C 4920  11.108   7.234   2.901 -0.2268  0.8379 -0.9949
  761MOL0     C 4921  11.209   7.241   2.787 -0.6733  0.0712  0.5839
  761MOL0     C 4922  11.154   7.181   2.654  0.1130 -0.5216  0.2105
  761MOL0     C 4923  11.182   7.032   2.653  0.2377  0.2783  0.9629
  761MOL0     C 4924  11.175   6.969   2.517  0.0656 -0.3074 -0.2437
  761MOL0    Cl 4925  11.219   6.795   2.538  0.5727  0.4469 -0.1758
  761MOL0     C 4926  10.884   7.421   3.303 -0.0627  0.4018 -1.2173
  761MOL0     C 4927  10.829   7.309   3.374  0.1109 -0.5246 -0.4999
  761MOL0     O 4928  10.835   6.980   3.356 -0.1397  0.6917 -0.7237
  761MOL0     C 4929  10.773   6.784   3.532  0.7668 -0.0107  0.7900
  761MOL0     C 4930  10.693   6.683   3.586  0.3623 -1.0449 -0.2480
  761MOL0     N 4931  10.166   6.789   4.236 -0.7994 -0.1448 -0.2807
  761MOL0     N 4932  10.079   6.794   4.321  0.1235 -0.3542 -0.0627
  761MOL0     C 4933   9.681   5.893   4.317  0.0967 -0.4054 -0.9383
  761MOL0     C 4934   9.644   5.796   4.218 -0.0483 -0.1777  0.6472
  761MOL0     C 4935   9.595   5.554   3.851  0.2999 -0.2292  0.4349
  761MOL0     C 4936   9.466   5.575   3.804 -0.2523  0.2979 -0.7796
  761MOL0     C 4937   9.399   5.504   3.701  0.0350  0.2708 -0.1791
  761MOL0     C 4938   9.462   5.375   3.667  0.2185 -0.4947 -0.0176
  761MOL0     O 4939   9.410   5.284   3.580 -0.1245 -0.0188 -0.3128
  761MOL0     C 4940   9.307   5.332   3.500  0.5116 -0.4792  0.9717
  761MOL0     C 4941   9.163   5.326   3.555 -0.4733  0.5319 -0.3051
  761MOL0     C 4942   9.094   5.441   3.487  0.3203 -0.4938  0.2368
  761MOL0     C 4943   8.940   5.429   3.515  0.4333 -0.6625 -0.5731
  761MOL0     C 4944   8.876   5.347   3.407  0.4401 -0.3738 -0.9025
  761MOL0     C 4945   8.828   5.296   3.307 -0.1583  0.3116  0.0207
  761MOL0     C 4946   9.592   5.339   3.720  0.5838 -0.0719  0.1408
  761MOL0     C 4947   9.656   5.434   3.811  0.1177 -0.4102 -0.1586
  761MOL0     C 4948   9.794   5.400   3.842 -0.9323  0.0003 -0.4244
  761MOL0     H 4949   9.569   6.013   3.962  0.3037  0.8569  1.4676
  761MOL0     H 4950   9.657   6.172   4.144 -0.4827 -0.3025  0.9871
  761MOL0     H 4951   9.616   6.040   4.515  0.1081  0.1321 -1.0412
  761MOL0     H 4952   9.646   6.221   4.530 -2.1961 -0.6575  1.5778
  761MOL0     H 4953   9.809   5.968   4.582  1.1106 -0.7783  0.5438
  761MOL0     H 4954   9.905   6.091   4.516  0.4105 -0.3110 -0.6343
  761MOL0     H 4955   9.732   6.166   4.758  0.4635  1.9749 -0.3565
  761MOL0     H 4956   9.870   6.064   4.778 -1.0379 -1.2089 -0.4863
  761MOL0     H 4957   9.976   6.274   4.809  3.3530  3.8557 -1.4056
  761MOL0     H 4958  10.010   6.208   4.651  1.1474  1.1374 -0.3048
  761MOL0     H 4959   9.801   6.439   4.697  0.5992  1.1359  0.6795
  761MOL0     H 4960   9.836   6.379   4.551 -2.4825  3.7396  0.5519
  761MOL0     H 4961  10.074   6.471   4.719  1.8651  0.1938 -1.6322
  761MOL0     H 4962  10.069   6.459   4.553  3.2220  1.5709  1.4025
  761MOL0     H 4963  10.047   6.685   4.645  0.3116 -0.9159  1.1563
  761MOL0     H 4964   9.872   6.646   4.672  1.3490  1.2563  1.0711
  761MOL0     H 4965   9.884   6.571   4.415  0.2548  1.3215 -1.5658
  761MOL0     H 4966   9.872   6.737   4.457 -1.9334 -2.5047  3.0646
  761MOL0     H 4967  10.150   6.477   4.328  3.2173 -0.6797 -0.7783
  761MOL0     H 4968  10.234   6.623   4.010 -0.6807  1.2618  0.6054
  761MOL0     H 4969  10.304   6.497   4.118  1.0672 -0.1620  0.8609
  761MOL0     H 4970  10.434   6.776   4.097 -0.7270  0.3078 -1.4381
  761MOL0     H 4971  10.468   6.642   4.195 -0.8209  4.2395  1.9743
  761MOL0     H 4972  10.605   6.653   3.982 -1.2589  2.1213 -0.3951
  761MOL0     H 4973  10.520   6.490   3.994 -1.0387  0.7522  1.5411
  761MOL0     H 4974  10.382   6.533   3.819  1.1725  0.1462 -0.5282
  761MOL0     H 4975  10.397   6.705   3.814 -0.0517  0.6659  1.5469
  761MOL0     H 4976  10.555   6.861   3.825  0.5138  0.6948  0.0950
  761MOL0     H 4977  10.619   7.157   3.662 -0.4770  2.6494  2.8240
  761MOL0     H 4978  10.763   7.133   3.736 -0.9006  3.1789 -0.6743
  761MOL0     H 4979  10.609   7.082   3.817 -0.8731  2.4548 -1.0267
  761MOL0     H 4980  11.118   7.179   3.495 -0.7591 -0.8586 -0.1342
  761MOL0     H 4981  11.214   7.358   3.359 -0.2886 -0.8804 -0.0797
  761MOL0     H 4982  11.194   7.639   3.124  0.7486 -0.7379 -1.8662
  761MOL0     H 4983  11.252   7.505   3.200 -1.9117 -3.0262  1.1780
  761MOL0     H 4984  11.008   7.479   3.010 -0.6296 -4.8657 -2.2203
  761MOL0     H 4985  11.171   7.507   2.943 -0.0844 -1.2880 -1.4889
  761MOL0     H 4986  11.053   7.262   3.090 -0.1793  0.2755 -2.2541
  761MOL0     H 4987  11.229   7.266   3.073  1.8772  1.5955 -1.0283
  761MOL0     H 4988  11.018   7.284   2.863  0.0511  1.8888 -0.3248
  761MOL0     H 4989  11.089   7.127   2.914 -0.5104  1.1990  2.9346
  761MOL0     H 4990  11.235   7.345   2.764  1.6217  0.1675  3.1435
  761MOL0     H 4991  11.297   7.188   2.823 -3.2475 -4.1276  1.3542
  761MOL0     H 4992  11.196   7.228   2.565 -0.4472 -1.4909 -0.5822
  761MOL0     H 4993  11.047   7.200   2.646  0.4447  1.1451 -0.6557
  761MOL0     H 4994  11.118   6.973   2.720 -1.7761 -1.6414 -2.3837
  761MOL0     H 4995  11.288   7.022   2.679  0.1645 -2.4807  0.4941
  761MOL0     H 4996  11.255   7.003   2.451  1.6494 -2.6008  0.3632
  761MOL0     H 4997  11.077   6.968   2.470 -0.1650 -1.7176  0.2227
  761MOL0     H 4998  10.811   7.474   3.243  0.3092  2.6807  0.2136
  761MOL0     H 4999  10.721   7.306   3.374  0.0587 -0.9146  2.0035
  761MOL0     H 5000  10.841   6.762   3.450  0.7307  2.6244 -0.0585
  761MOL0     H 5001  10.703   6.582   3.548  3.8661 -0.8127 -0.3079
  761MOL0     H 5002   9.716   5.848   4.409 -1.4576 -0.3949 -0.3117
  761MOL0     H 5003   9.654   5.688   4.233 -1.4782 -0.5611 -0.8728
  761MOL0     H 5004   9.416   5.664   3.840 -0.1728  1.2837 -2.9257
  761MOL0     H 5005   9.301   5.537   3.668  1.5607  4.8887 -0.7655
  761MOL0     H 5006   9.327   5.432   3.460  0.1297 -1.5898 -2.3103
  761MOL0     H 5007   9.302   5.278   3.405  0.0261  2.0715 -0.5623
  761MOL0     H 5008   9.155   5.351   3.661 -4.0512 -3.0683  0.5519
  761MOL0     H 5009   9.122   5.225   3.545  0.8384 -0.0859  0.2834
  761MOL0     H 5010   9.140   5.534   3.522  2.8581 -1.3861 -0.5129
  761MOL0     H 5011   9.105   5.427   3.379 -1.0641 -1.8523  0.2476
  761MOL0     H 5012   8.896   5.528   3.525  0.2262 -0.7315 -0.8231
  761MOL0     H 5013   8.916   5.381   3.611  0.2495 -3.6513 -2.0166
  761MOL0     H 5014   8.780   5.251   3.223  1.7849 -0.9757 -0.4603
  761MOL0     H 5015   9.645   5.250   3.689 -1.3039 -2.2004  2.5914
  761MOL0     H 5016   9.830   5.325   3.770  0.3805  0.9706 -0.8255
  761MOL0     H 5017   9.855   5.488   3.818 -0.3099 -0.6859 -1.4892
  761MOL0     H 5018   9.825   5.370   3.942 -1.1652 -2.9892 -1.1654
  762MOL0     O 5019  11.279   4.161   7.629  0.2743 -0.4776  0.2963
  762MOL0     C 5020  11.173   4.128   7.680  0.0890 -0.6959 -0.8184
  762MOL0     O 5021  11.050   4.125   7.610  0.1352  0.7807 -0.3284
  762MOL0     C 5022  11.054   4.134   7.475  0.1190  0.0437  0.2728
  762MOL0     C 5023  11.091   4.034   7.390  0.0378  0.9059  0.2903
  762MOL0     C 5024  11.085   4.043   7.250  0.6332  0.0625  0.0044
  762MOL0     C 5025  11.059   4.168   7.182 -0.6064 -0.4495 -0.6580
  762MOL0     O 5026  11.049   4.171   7.048  0.3487 -0.4753 -0.2606
  762MOL0     C 5027  11.084   4.284   6.968 -0.1656  0.1816 -0.2070
  762MOL0     C 5028  11.072   4.237   6.823 -0.5484 -0.3201  0.0717
  762MOL0     C 5029  10.927   4.213   6.791  0.0232 -0.0167 -0.3653
  762MOL0     C 5030  10.842   4.331   6.753 -0.2823 -0.1319 -0.3899
  762MOL0     C 5031  10.686   4.306   6.747  0.0705 -0.1115  0.3327
  762MOL0     C 5032  10.597   4.426   6.733 -0.2827  0.4448  0.4924
  762MOL0     C 5033  10.450   4.392   6.755  0.1212  0.4913  0.4695
  762MOL0     C 5034  10.377   4.354   6.622  0.1214  0.7964  0.0375
  762MOL0     N 5035  10.242   4.301   6.664 -0.0580  0.7087 -0.2420
  762MOL0     C 5036  10.137   4.377   6.680  0.8434  0.5510  0.2383
  762MOL0     C 5037  10.032   4.285   6.704 -0.0329 -0.1232 -0.7912
  762MOL0     C 5038   9.895   4.299   6.751  0.2581 -0.6724 -0.7431
  762MOL0     C 5039   9.806   4.341   6.629 -0.5834 -0.5457  0.2102
  762MOL0     C 5040   9.666   4.389   6.662  0.8873 -0.0632  0.7387
  762MOL0     C 5041   9.644   4.526   6.727  0.9374  0.6323  0.2196
  762MOL0     O 5042   9.685   4.622   6.631  1.0502  0.3078 -0.3716
  762MOL0     C 5043   9.657   4.754   6.661 -0.1175  0.2112  0.6948
  762MOL0     C 5044   9.704   4.836   6.557 -0.3953 -0.1717  0.0389
  762MOL0     C 5045   9.698   4.979   6.558  0.2893 -0.1250 -1.0523
  762MOL0     C 5046   9.749   5.061   6.438 -0.5453  0.1644  0.1475
  762MOL0     C 5047   9.642   5.036   6.678  0.1565 -0.5323 -0.4491
  762MOL0     C 5048   9.617   5.187   6.708  0.2007  0.9779 -0.8375
  762MOL0     O 5049   9.574   5.211   6.841  0.5128 -0.3040  0.0300
  762MOL0     C 5050   9.535   5.343   6.882  0.3278 -0.0169 -0.4360
  762MOL0     C 5051   9.581   5.398   7.005  0.7599 -0.4023 -0.2354
  762MOL0     C 5052   9.571   5.528   7.036  0.3457 -0.8276 -0.0583
  762MOL0     C 5053   9.495   5.613   6.965  0.6536 -0.2705 -0.7969
  762MOL0     O 5054   9.471   5.739   7.012  0.0804  0.6432  0.8244
  762MOL0     C 5055   9.337   5.757   7.073 -0.3613  0.2091  0.3707
  762MOL0     C 5056   9.341   5.777   7.228  0.2574 -0.1559 -0.0952
  762MOL0     C 5057   9.447   5.877   7.277 -1.1525 -0.1365 -0.2030
  762MOL0     C 5058   9.441   6.022   7.208 -1.0498  0.1958  0.4858
  762MOL0     C 5059   9.577   6.092   7.221 -0.0010 -0.0813  0.8699
  762MOL0     C 5060   9.681   6.026   7.128 -0.0215 -0.3395 -0.1674
  762MOL0     C 5061   9.827   6.060   7.165 -0.1020  0.5078 -0.2961
  762MOL0     C 5062   9.937   5.997   7.068  0.2113 -0.9035 -0.3180
  762MOL0    Cl 5063   9.931   5.817   7.055 -0.0570 -0.2015  0.1024
  762MOL0     C 5064   9.428   5.563   6.854 -0.3434 -0.2202  0.8740
  762MOL0     C 5065   9.459   5.433   6.808 -0.3320 -0.1329  0.3587
  762MOL0     O 5066   9.635   5.270   6.619 -0.1018  0.6372  0.0402
  762MOL0     C 5067   9.593   4.952   6.779  0.5851  0.3907 -0.2070
  762MOL0     C 5068   9.594   4.810   6.768 -0.5504  0.5823  0.6415
  762MOL0     N 5069  10.088   4.160   6.690 -0.6592 -0.4779 -0.2332
  762MOL0     N 5070  10.209   4.167   6.663 -0.4281  0.7525 -0.1940
  762MOL0     C 5071  11.020   4.271   7.270  0.3940  0.2155 -0.5946
  762MOL0     C 5072  11.022   4.254   7.414  0.1697  1.0613  0.8139
  762MOL0     C 5073  11.162   4.072   7.825  0.0877 -0.1646 -0.9524
  762MOL0     C 5074  11.055   3.985   7.854 -0.4706 -0.1647  0.8436
  762MOL0     C 5075  11.060   3.920   7.974  0.0299  0.7063 -0.0470
  762MOL0     C 5076  11.168   3.944   8.073 -0.0838  0.9988 -0.4789
  762MOL0     O 5077  11.140   3.898   8.199  0.3137  0.1166 -0.1961
  762MOL0     C 5078  11.222   3.937   8.313  0.4753  0.2071 -0.2488
  762MOL0     C 5079  11.346   3.848   8.311  0.5046  0.2808 -0.1914
  762MOL0     C 5080  11.452   3.902   8.414 -0.1488 -0.3851 -0.4297
  762MOL0     C 5081  11.575   3.816   8.415 -1.1106 -0.2537  0.3668
  762MOL0     C 5082  11.524   3.679   8.461  0.5933  0.1240 -0.1049
  762MOL0     C 5083  11.501   3.579   8.528  0.1957  0.1226  0.1960
  762MOL0     C 5084  11.267   4.031   8.043 -0.6183  0.0101 -0.0710
  762MOL0     C 5085  11.268   4.102   7.922 -0.9267  1.6808  0.4150
  762MOL0     C 5086  11.386   4.199   7.892  0.3014  0.4296 -0.1551
  762MOL0     H 5087  11.111   3.935   7.429 -2.2484 -0.7689 -2.3765
  762MOL0     H 5088  11.108   3.961   7.182 -2.5485  1.5218 -3.1468
  762MOL0     H 5089  11.191   4.306   6.981 -0.2931  1.3876 -1.0348
  762MOL0     H 5090  11.019   4.369   6.990  1.7272  0.7987  4.0667
  762MOL0     H 5091  11.110   4.308   6.748 -1.2582  0.3946  0.3627
  762MOL0     H 5092  11.140   4.153   6.809  2.5486  2.2875 -1.8060
  762MOL0     H 5093  10.930   4.151   6.701  0.0762 -0.8596  0.2080
  762MOL0     H 5094  10.883   4.155   6.873  2.2461  0.5097  1.3141
  762MOL0     H 5095  10.860   4.412   6.824  0.6342 -1.4827  0.9795
  762MOL0     H 5096  10.876   4.366   6.655  0.5087 -1.4463 -0.6151
  762MOL0     H 5097  10.663   4.245   6.835 -1.0339 -1.7069 -0.9869
  762MOL0     H 5098  10.655   4.241   6.664  1.5105  0.9765 -1.1268
  762MOL0     H 5099  10.625   4.505   6.803 -1.1682  0.3463  0.9722
  762MOL0     H 5100  10.615   4.474   6.636  1.3989 -0.4654  0.3130
  762MOL0     H 5101  10.393   4.467   6.810  1.7477  1.2392  1.1945
  762MOL0     H 5102  10.436   4.303   6.818 -0.0040  0.3259  0.2094
  762MOL0     H 5103  10.364   4.441   6.557  1.0672  0.6450 -0.3791
  762MOL0     H 5104  10.431   4.277   6.566 -0.2846  0.9419 -0.5690
  762MOL0     H 5105  10.128   4.485   6.683 -3.1944  0.3598 -0.2955
  762MOL0     H 5106   9.888   4.366   6.837 -3.2328 -2.6208  0.7228
  762MOL0     H 5107   9.859   4.203   6.788 -1.5841 -0.0760 -0.9018
  762MOL0     H 5108   9.856   4.424   6.579 -0.5085 -1.7999 -1.9168
  762MOL0     H 5109   9.801   4.259   6.556  0.9339 -0.4219 -0.0659
  762MOL0     H 5110   9.604   4.383   6.572  0.1053  0.5880  1.2218
  762MOL0     H 5111   9.620   4.319   6.732 -1.8317 -0.1468 -0.9623
  762MOL0     H 5112   9.541   4.543   6.761  0.1376  1.4530 -2.3903
  762MOL0     H 5113   9.707   4.541   6.815  3.0103  2.9065 -1.5272
  762MOL0     H 5114   9.758   4.795   6.473  2.0349  2.4100  0.1862
  762MOL0     H 5115   9.796   5.013   6.352  0.9741  1.2444  0.3391
  762MOL0     H 5116   9.823   5.134   6.472  1.6986 -1.1529 -1.5604
  762MOL0     H 5117   9.670   5.126   6.401 -1.1942  0.6259  2.2155
  762MOL0     H 5118   9.622   5.324   7.073 -2.3203  0.5441  3.0214
  762MOL0     H 5119   9.590   5.577   7.131  0.2614 -0.2492 -0.3334
  762MOL0     H 5120   9.293   5.848   7.031  2.2111  1.0654 -0.6865
  762MOL0     H 5121   9.274   5.670   7.051  0.4458 -0.1872 -0.4625
  762MOL0     H 5122   9.241   5.820   7.238 -0.8135 -1.9143 -2.2713
  762MOL0     H 5123   9.345   5.676   7.271 -2.9329  0.2022  1.3413
  762MOL0     H 5124   9.548   5.836   7.266 -0.0211  2.6847 -1.3897
  762MOL0     H 5125   9.435   5.899   7.384 -3.1605  2.4369 -0.8595
  762MOL0     H 5126   9.357   6.076   7.251 -1.1248 -0.8102  1.6374
  762MOL0     H 5127   9.432   6.013   7.099  1.8196 -0.4040  0.2061
  762MOL0     H 5128   9.561   6.198   7.198 -4.1470 -0.8486 -0.7856
  762MOL0     H 5129   9.601   6.088   7.327 -1.8257 -0.9458  1.2886
  762MOL0     H 5130   9.664   6.066   7.027  3.8475  0.2137 -0.7490
  762MOL0     H 5131   9.667   5.917   7.124  1.8436 -0.5600 -1.7892
  762MOL0     H 5132   9.851   6.035   7.269 -0.8028 -3.9969 -0.9967
  762MOL0     H 5133   9.837   6.169   7.164  0.1879  0.4823 -0.8592
  762MOL0     H 5134  10.038   6.026   7.096  1.5646 -2.2577 -3.2622
  762MOL0     H 5135   9.918   6.052   6.974  3.3179 -1.5942 -1.4603
  762MOL0     H 5136   9.380   5.631   6.783  1.0336 -0.3920 -0.2827
  762MOL0     H 5137   9.418   5.410   6.710  1.4704  3.3484 -1.3807
  762MOL0     H 5138   9.564   4.996   6.874 -1.4522 -1.8343  0.2944
  762MOL0     H 5139   9.565   4.749   6.853 -1.5649 -0.1874 -0.2459
  762MOL0     H 5140  10.987   4.370   7.238 -4.5672 -0.2698  1.9682
  762MOL0     H 5141  10.999   4.350   7.457 -2.3344  1.0086 -0.2484
  762MOL0     H 5142  10.987   3.962   7.772  3.4439 -1.4268 -2.3745
  762MOL0     H 5143  10.983   3.847   7.993 -0.4293  0.6925 -1.8581
  762MOL0     H 5144  11.241   4.044   8.311 -1.1053  0.5340  0.2578
  762MOL0     H 5145  11.168   3.918   8.407 -1.1111  0.3662 -1.0860
  762MOL0     H 5146  11.398   3.845   8.215 -0.2035  1.1659 -0.6187
  762MOL0     H 5147  11.302   3.750   8.335  1.7387 -0.2758 -0.1407
  762MOL0     H 5148  11.488   4.002   8.386 -1.8639  1.0420  2.0184
  762MOL0     H 5149  11.407   3.918   8.513  1.1555  2.1063 -0.1518
  762MOL0     H 5150  11.652   3.859   8.479 -1.2268 -1.4058  1.3189
  762MOL0     H 5151  11.607   3.811   8.310 -0.2947  1.7649  0.4747
  762MOL0     H 5152  11.490   3.492   8.589 -0.8182  0.4963  0.5635
  762MOL0     H 5153  11.347   4.058   8.111 -0.5822 -1.5092  0.5274
  762MOL0     H 5154  11.453   4.213   7.978  0.9484  1.6714 -0.8383
  762MOL0     H 5155  11.438   4.153   7.808  0.0947 -1.6651  0.7923
  762MOL0     H 5156  11.341   4.293   7.861 -1.5523  0.1518  1.4996
  763MOL0     O 5157  10.730   7.952   2.684  0.1173  0.3160 -0.6987
  763MOL0     C 5158  10.660   7.914   2.589 -0.0867 -0.3992  0.6106
  763MOL0     O 5159  10.695   7.827   2.493 -0.3894  0.7342  0.5050
  763MOL0     C 5160  10.819   7.767   2.497 -0.4786  0.3909 -0.4909
  763MOL0     C 5161  10.842   7.657   2.589  0.1854  0.2819 -0.1381
  763MOL0     C 5162  10.968   7.598   2.590  0.1545  0.5488  0.1544
  763MOL0     C 5163  11.065   7.638   2.495 -0.1058  0.6906  1.4046
  763MOL0     O 5164  11.187   7.576   2.504  0.5003 -0.7246 -0.4150
  763MOL0     C 5165  11.280   7.593   2.392 -0.4045 -0.7135 -0.6285
  763MOL0     C 5166  11.355   7.457   2.395 -0.1227 -0.4461 -0.2069
  763MOL0     C 5167  11.454   7.452   2.512 -0.4829  0.7812  0.2869
  763MOL0     C 5168  11.533   7.320   2.510 -0.3375 -0.7183 -0.0074
  763MOL0     C 5169  11.603   7.302   2.641  0.4511  0.2833 -0.2081
  763MOL0     C 5170  11.662   7.160   2.648  0.2949 -0.1389 -0.2766
  763MOL0     C 5171  11.691   7.130   2.794  0.2748 -0.1942  0.0989
  763MOL0     C 5172  11.715   6.974   2.810 -0.3532 -0.0016 -0.0562
  763MOL0     N 5173  11.764   6.940   2.944 -0.1570  0.4369  0.1984
  763MOL0     C 5174  11.686   6.924   3.049  0.6285  1.0356  0.1989
  763MOL0     C 5175  11.760   6.866   3.145  0.0469 -1.1158  0.3098
  763MOL0     C 5176  11.725   6.820   3.285 -0.1114  0.3990 -0.2472
  763MOL0     C 5177  11.730   6.664   3.270  0.4433 -0.8251  0.7593
  763MOL0     C 5178  11.707   6.587   3.404  0.0007 -1.0307 -0.1365
  763MOL0     C 5179  11.665   6.443   3.379 -0.1865  0.8081  0.0937
  763MOL0     O 5180  11.532   6.429   3.319 -0.0136  0.4110  0.1510
  763MOL0     C 5181  11.426   6.372   3.386  0.0573  0.6380  0.3475
  763MOL0     C 5182  11.302   6.376   3.315 -0.7283 -0.2457  1.0670
  763MOL0     C 5183  11.175   6.324   3.355 -0.2684 -0.4798  0.2985
  763MOL0     C 5184  11.072   6.326   3.252  0.5406  0.1534  0.4851
  763MOL0     C 5185  11.173   6.269   3.485  0.4857  0.2058 -0.0195
  763MOL0     C 5186  11.053   6.205   3.547 -0.5789  0.1623 -0.6291
  763MOL0     O 5187  10.944   6.224   3.485  0.2561 -0.5197 -0.2153
  763MOL0     C 5188  10.821   6.197   3.533 -0.0429  0.4480 -0.4193
  763MOL0     C 5189  10.772   6.265   3.651 -0.0095  0.0744  0.5551
  763MOL0     C 5190  10.639   6.255   3.682  0.1921  0.3780  0.3030
  763MOL0     C 5191  10.548   6.187   3.600  0.2664  1.0813 -0.4168
  763MOL0     O 5192  10.418   6.192   3.628  0.1953  0.9075 -0.8790
  763MOL0     C 5193  10.370   6.229   3.754 -1.0475  0.2567  0.6837
  763MOL0     C 5194  10.229   6.179   3.776  0.2885  0.6024 -0.0966
  763MOL0     C 5195  10.179   6.221   3.912  0.2063 -0.1340  0.0238
  763MOL0     C 5196  10.047   6.148   3.944  0.1879  0.9323 -0.4389
  763MOL0     C 5197  10.082   6.007   4.017  0.1043 -0.7273 -0.3865
  763MOL0     C 5198   9.969   5.944   4.094 -0.0993  0.8039 -0.5019
  763MOL0     C 5199  10.015   5.829   4.187 -0.2865  0.6908  0.3801
  763MOL0     C 5200  10.094   5.721   4.119  0.5553  0.3053 -0.9954
  763MOL0    Cl 5201  10.111   5.594   4.244  0.0279  0.1026 -0.2149
  763MOL0     C 5202  10.597   6.105   3.489  0.1901 -0.1051  0.6437
  763MOL0     C 5203  10.729   6.118   3.453  0.2233  0.3778 -0.6048
  763MOL0     O 5204  11.076   6.139   3.645  0.7505  0.5410 -0.0529
  763MOL0     C 5205  11.290   6.269   3.560 -0.1355 -0.7887  0.1367
  763MOL0     C 5206  11.417   6.308   3.509  0.2827  0.0209 -0.3235
  763MOL0     N 5207  11.891   6.853   3.094  0.7255  0.0695 -0.5328
  763MOL0     N 5208  11.887   6.900   2.973 -0.0560 -0.4302 -0.5391
  763MOL0     C 5209  11.042   7.754   2.413  0.4083 -0.5308 -0.1376
  763MOL0     C 5210  10.916   7.815   2.414  0.0216  0.3663  0.1464
  763MOL0     C 5211  10.528   7.976   2.573  0.5200  0.1534  0.4181
  763MOL0     C 5212  10.504   8.057   2.464  0.5427 -0.7117  0.8444
  763MOL0     C 5213  10.383   8.116   2.446 -0.0528  0.2727 -0.3394
  763MOL0     C 5214  10.280   8.091   2.533 -0.4059  0.8224 -0.3377
  763MOL0     O 5215  10.154   8.148   2.500 -0.3645  0.0402 -0.1741
  763MOL0     C 5216  10.051   8.114   2.588  0.7072 -0.0305 -0.2764
  763MOL0     C 5217   9.928   8.192   2.540 -0.7714  0.3195  0.8962
  763MOL0     C 5218   9.883   8.170   2.393 -1.3679 -0.5681 -0.1973
  763MOL0     C 5219   9.746   8.230   2.371  0.6576  0.5178  0.7008
  763MOL0     C 5220   9.736   8.285   2.232  0.6314  0.4530  0.8763
  763MOL0     C 5221   9.719   8.332   2.125  0.0067  0.4439  0.3392
  763MOL0     C 5222  10.305   8.010   2.650  0.6186  0.6234  0.2851
  763MOL0     C 5223  10.421   7.947   2.665 -1.2666  0.1910  0.0385
  763MOL0     C 5224  10.434   7.865   2.787 -0.6898  0.0151 -0.4294
  763MOL0     H 5225  10.766   7.611   2.650  1.1754 -1.4812 -0.1698
  763MOL0     H 5226  10.993   7.513   2.654 -2.0477 -1.3447 -1.3423
  763MOL0     H 5227  11.358   7.669   2.405  0.5394 -1.9627  1.5049
  763MOL0     H 5228  11.234   7.618   2.296  0.6199  2.2680 -0.4534
  763MOL0     H 5229  11.283   7.374   2.394  0.0689 -0.6120 -0.3930
  763MOL0     H 5230  11.421   7.456   2.308  2.9435  3.1175  1.7858
  763MOL0     H 5231  11.526   7.534   2.505 -0.0612  0.3432 -0.6898
  763MOL0     H 5232  11.395   7.443   2.604 -0.2644 -1.7311  0.2458
  763MOL0     H 5233  11.467   7.238   2.481 -1.8887  1.3934 -2.8095
  763MOL0     H 5234  11.601   7.331   2.425 -1.9407 -2.4091 -1.5895
  763MOL0     H 5235  11.539   7.314   2.729  0.1104 -0.1029 -0.3945
  763MOL0     H 5236  11.689   7.369   2.636  0.9385 -0.0946  1.9721
  763MOL0     H 5237  11.596   7.078   2.616  1.0351 -0.9535  0.2323
  763MOL0     H 5238  11.744   7.155   2.575 -1.6891 -2.6135 -2.5612
  763MOL0     H 5239  11.608   7.148   2.863  1.6683  0.1076  1.7596
  763MOL0     H 5240  11.782   7.177   2.833  0.7753 -2.6376  2.1529
  763MOL0     H 5241  11.620   6.920   2.808  0.3690 -1.3254  0.3950
  763MOL0     H 5242  11.789   6.945   2.735 -1.3067 -0.7645 -0.7235
  763MOL0     H 5243  11.583   6.959   3.045  0.5044  1.0705  2.3317
  763MOL0     H 5244  11.629   6.857   3.324 -1.8475 -0.5688 -3.2758
  763MOL0     H 5245  11.810   6.849   3.347 -1.0550  0.8840  0.8607
  763MOL0     H 5246  11.646   6.639   3.204  0.2138  1.1922  0.2463
  763MOL0     H 5247  11.819   6.629   3.216  0.2903  0.1590 -0.1559
  763MOL0     H 5248  11.801   6.587   3.460 -1.0932  0.7715  1.8142
  763MOL0     H 5249  11.641   6.643   3.470  1.9788 -0.8128  1.7752
  763MOL0     H 5250  11.729   6.392   3.306 -0.9775 -4.8544  2.7752
  763MOL0     H 5251  11.669   6.388   3.474 -1.8894 -1.7919 -1.2336
  763MOL0     H 5252  11.315   6.422   3.218  2.0791  0.4551  1.6967
  763MOL0     H 5253  11.105   6.380   3.163  2.0847  1.4061  1.7484
  763MOL0     H 5254  10.999   6.399   3.289 -0.7931 -0.9256  0.0477
  763MOL0     H 5255  11.012   6.237   3.234 -3.2888  1.9063  3.1569
  763MOL0     H 5256  10.834   6.332   3.709 -1.0849  2.0249 -0.4366
  763MOL0     H 5257  10.606   6.309   3.770 -1.2094  1.9035 -1.0982
  763MOL0     H 5258  10.430   6.182   3.832  1.4482  0.8088 -0.7803
  763MOL0     H 5259  10.361   6.338   3.754 -3.4310  0.1263 -0.5692
  763MOL0     H 5260  10.170   6.225   3.697 -0.0992  0.6522  0.2195
  763MOL0     H 5261  10.221   6.070   3.772 -0.5096  0.5800  1.3539
  763MOL0     H 5262  10.163   6.329   3.913  0.9070 -0.0237 -0.3698
  763MOL0     H 5263  10.249   6.202   3.994  0.4074  2.0023  0.3945
  763MOL0     H 5264   9.989   6.124   3.855  1.5461 -2.6154 -0.5353
  763MOL0     H 5265   9.985   6.219   4.000 -2.6908  1.7073 -4.1793
  763MOL0     H 5266  10.135   5.946   3.944  0.9091  1.5361 -1.8153
  763MOL0     H 5267  10.165   6.024   4.086 -1.5871  1.7104  1.2112
  763MOL0     H 5268   9.891   5.923   4.021  0.1521  2.7298 -1.3780
  763MOL0     H 5269   9.918   6.016   4.158 -2.2297 -0.5670 -0.5578
  763MOL0     H 5270   9.928   5.788   4.239  0.7126 -0.4991  1.1622
  763MOL0     H 5271  10.072   5.876   4.268 -0.6510  1.8046  0.0137
  763MOL0     H 5272  10.193   5.755   4.087 -0.0440  1.8160 -1.3632
  763MOL0     H 5273  10.042   5.678   4.032  1.9839  2.1104 -2.8611
  763MOL0     H 5274  10.515   6.061   3.433  1.6872 -0.0054 -1.8125
  763MOL0     H 5275  10.771   6.057   3.374  1.3893 -1.4612  1.3426
  763MOL0     H 5276  11.295   6.229   3.660 -1.1001 -0.0540  0.4952
  763MOL0     H 5277  11.498   6.287   3.577  0.8722 -1.0975 -1.3376
  763MOL0     H 5278  11.119   7.807   2.358 -1.9787  2.0842 -1.1695
  763MOL0     H 5279  10.884   7.901   2.356  1.4999 -0.0513 -1.3655
  763MOL0     H 5280  10.590   8.079   2.401 -0.2835  2.3571  0.6231
  763MOL0     H 5281  10.366   8.167   2.352 -2.1532  0.4089  0.0603
  763MOL0     H 5282  10.050   8.006   2.572 -0.0252  0.1720 -1.7765
  763MOL0     H 5283  10.067   8.142   2.693 -1.6633  0.4092  0.0178
  763MOL0     H 5284   9.947   8.299   2.554  1.9341  0.4275 -2.2086
  763MOL0     H 5285   9.846   8.163   2.606  1.0834 -1.8695  2.3977
  763MOL0     H 5286   9.948   8.213   2.316  1.2350 -0.9096  1.6770
  763MOL0     H 5287   9.878   8.064   2.366 -1.1832 -0.0574 -2.4824
  763MOL0     H 5288   9.733   8.321   2.432 -0.3075  1.7324 -1.2170
  763MOL0     H 5289   9.662   8.166   2.398 -0.1683  0.3656 -1.9777
  763MOL0     H 5290   9.709   8.370   2.026  0.5333 -1.3709 -0.4653
  763MOL0     H 5291  10.226   8.002   2.724  0.3052  2.2689  0.1692
  763MOL0     H 5292  10.520   7.889   2.850  0.2513 -2.8758 -0.4695
  763MOL0     H 5293  10.344   7.858   2.849 -0.6761  0.8704 -0.3014
  763MOL0     H 5294  10.453   7.761   2.757 -1.5593 -0.6978  1.3597
  764MOL0     O 5295   3.079   7.316  10.480 -0.4613 -0.0485 -0.6913
  764MOL0     C 5296   3.139   7.228  10.540  0.0506 -0.4521  0.1894
  764MOL0     O 5297   3.085   7.106  10.580 -0.6023 -0.1527 -0.1990
  764MOL0     C 5298   2.953   7.101  10.596 -0.5445  0.0608 -0.3349
  764MOL0     C 5299   2.883   7.198  10.663 -0.0350  0.6360 -1.0494
  764MOL0     C 5300   2.747   7.172  10.692  0.3180 -0.4723  0.5649
  764MOL0     C 5301   2.679   7.055  10.655 -0.1521  0.5174  0.9100
  764MOL0     O 5302   2.547   7.035  10.666  0.9446  0.0806  0.9049
  764MOL0     C 5303   2.460   7.133  10.731 -0.3854  0.6440 -0.5108
  764MOL0     C 5304   2.308   7.103  10.708 -0.0442  0.1327 -0.4758
  764MOL0     C 5305   2.262   7.146  10.567 -0.6078 -0.9972 -0.5833
  764MOL0     C 5306   2.146   7.057  10.510  0.1383 -0.3230 -0.6898
  764MOL0     C 5307   2.076   7.135  10.395  0.0089 -0.5033 -0.1483
  764MOL0     C 5308   1.925   7.124  10.398  0.2878 -0.9782 -0.0084
  764MOL0     C 5309   1.852   7.224  10.490  0.3080  0.8378 -0.2714
  764MOL0     C 5310   1.871   7.194  10.640 -0.7959  0.6202  0.6810
  764MOL0     N 5311   1.806   7.299  10.719  0.2236  1.0521  0.0556
  764MOL0     C 5312   1.869   7.404  10.778 -0.4941 -0.7275  0.0126
  764MOL0     C 5313   1.778   7.455  10.865 -0.3531  1.1395 -1.0652
  764MOL0     C 5314   1.791   7.562  10.962 -0.3552  0.1867 -0.1812
  764MOL0     C 5315   1.711   7.690  10.928 -0.5409  0.6993  0.4433
  764MOL0     C 5316   1.786   7.790  10.838 -0.7976  0.3223 -0.9088
  764MOL0     C 5317   1.786   7.735  10.697 -0.8245  0.1143 -0.7941
  764MOL0     O 5318   1.667   7.684  10.651 -0.2958  0.7467  0.4027
  764MOL0     C 5319   1.550   7.753  10.651 -0.7298  0.3199  0.8963
  764MOL0     C 5320   1.546   7.890  10.641 -0.0158 -0.3077 -0.3343
  764MOL0     C 5321   1.422   7.966  10.627  0.2414 -0.0668  0.7126
  764MOL0     C 5322   1.429   8.113  10.606  0.4235  0.4523  0.1688
  764MOL0     C 5323   1.307   7.886  10.594 -0.6409 -0.1222 -0.1585
  764MOL0     C 5324   1.176   7.938  10.566  0.3145  0.0681 -0.5755
  764MOL0     O 5325   1.116   7.888  10.459  0.5885  0.4192 -0.0878
  764MOL0     C 5326   1.005   7.944  10.402  0.1805 -0.1667 -0.4098
  764MOL0     C 5327   0.999   8.080  10.370 -1.0842  0.5888 -0.1841
  764MOL0     C 5328   0.902   8.124  10.282 -0.9921  1.0416  0.0693
  764MOL0     C 5329   0.805   8.041  10.234 -0.0438 -0.0241 -0.1109
  764MOL0     O 5330   0.714   8.082  10.138 -0.6282 -0.8860  0.4223
  764MOL0     C 5331   0.698   8.217  10.097  0.2616  0.2648  0.3820
  764MOL0     C 5332   0.793   8.255   9.982 -0.4335  0.1915  0.2553
  764MOL0     C 5333   0.772   8.141   9.876 -0.4209  0.1256  0.5936
  764MOL0     C 5334   0.833   8.194   9.744  0.1215  0.5729 -0.3310
  764MOL0     C 5335   0.761   8.306   9.665  0.8247  0.0067 -0.1554
  764MOL0     C 5336   0.602   8.290   9.646  0.1667 -0.5676 -0.1912
  764MOL0     C 5337   0.570   8.162   9.575 -0.0842  0.5055 -0.6673
  764MOL0     C 5338   0.440   8.112   9.627  0.7604  0.1178 -0.5380
  764MOL0    Cl 5339   0.301   8.221   9.597  0.2891  0.1659  0.7838
  764MOL0     C 5340   0.800   7.913  10.277  0.3859 -0.1095 -0.3276
  764MOL0     C 5341   0.915   7.861  10.357 -0.0764 -0.8877 -0.2429
  764MOL0     O 5342   1.126   8.030  10.634  0.0910  0.3190 -0.5528
  764MOL0     C 5343   1.311   7.748  10.605 -0.2556  0.1672 -0.3197
  764MOL0     C 5344   1.431   7.682  10.630  0.4491 -0.1180 -0.2252
  764MOL0     N 5345   1.669   7.372  10.870  0.0902 -0.0632  0.6098
  764MOL0     N 5346   1.691   7.270  10.789  0.1350  0.8707 -0.3661
  764MOL0     C 5347   2.755   6.968  10.573 -0.0140 -0.2963  0.6199
  764MOL0     C 5348   2.884   6.987  10.546 -0.0347 -0.2547 -0.3856
  764MOL0     C 5349   3.277   7.262  10.582 -0.0809  0.5986 -0.5672
  764MOL0     C 5350   3.338   7.163  10.666  0.4391 -0.6584  0.3389
  764MOL0     C 5351   3.464   7.176  10.713  0.0633 -0.2778 -0.6016
  764MOL0     C 5352   3.549   7.282  10.670  0.0987  0.0426  1.0020
  764MOL0     O 5353   3.685   7.279  10.706 -0.2707  0.1352 -0.1928
  764MOL0     C 5354   3.715   7.250  10.836 -0.4351  0.3831  0.0977
  764MOL0     C 5355   3.857   7.304  10.861  0.2182 -0.8848 -0.5008
  764MOL0     C 5356   3.878   7.372  10.997 -0.8507 -0.2663 -0.0726
  764MOL0     C 5357   3.856   7.268  11.109 -0.1294 -0.1076  0.3590
  764MOL0     C 5358   3.963   7.166  11.119 -0.6329  0.1929 -0.8977
  764MOL0     C 5359   4.048   7.076  11.112  0.3198  0.5611  0.1085
  764MOL0     C 5360   3.500   7.365  10.574  0.1181 -0.0369 -0.1418
  764MOL0     C 5361   3.367   7.362  10.534 -0.0474 -0.2997  0.5487
  764MOL0     C 5362   3.318   7.474  10.458  0.0901  0.6631 -0.5759
  764MOL0     H 5363   2.934   7.289  10.690  1.2836 -0.7391  1.5960
  764MOL0     H 5364   2.685   7.249  10.738 -1.1123 -1.6270  0.6320
  764MOL0     H 5365   2.484   7.223  10.675  2.0586  0.9732  0.9088
  764MOL0     H 5366   2.486   7.147  10.836 -3.1454 -1.0286  0.5269
  764MOL0     H 5367   2.288   6.999  10.734  2.0220 -0.1922 -0.0439
  764MOL0     H 5368   2.254   7.173  10.773 -0.4348  0.8531 -1.5463
  764MOL0     H 5369   2.227   7.250  10.564  0.2568 -0.7002 -0.5945
  764MOL0     H 5370   2.353   7.147  10.506  1.0588 -0.4884  1.7433
  764MOL0     H 5371   2.182   6.959  10.474 -0.6594 -0.6068 -0.7364
  764MOL0     H 5372   2.075   7.015  10.582 -0.7610 -0.9035 -1.8806
  764MOL0     H 5373   2.112   7.097  10.299  0.4994 -0.6029  0.0699
  764MOL0     H 5374   2.112   7.239  10.392  4.4901 -1.8190  0.9271
  764MOL0     H 5375   1.894   7.147  10.296  0.7105  0.8499  0.2345
  764MOL0     H 5376   1.886   7.027  10.429  0.1454 -1.0188 -0.3214
  764MOL0     H 5377   1.744   7.221  10.470  0.0828  2.6598  0.4573
  764MOL0     H 5378   1.876   7.328  10.464  0.9591  0.5948 -0.6443
  764MOL0     H 5379   1.821   7.101  10.668  0.7343  0.2235  2.2354
  764MOL0     H 5380   1.977   7.185  10.663 -1.0564 -1.3621  1.2333
  764MOL0     H 5381   1.968   7.445  10.761 -1.0018  1.7906  2.4535
  764MOL0     H 5382   1.897   7.585  10.978 -0.1117 -1.4256  0.7899
  764MOL0     H 5383   1.752   7.520  11.056  1.0200 -2.5554 -0.7202
  764MOL0     H 5384   1.616   7.649  10.891 -0.1802 -1.8183  2.0421
  764MOL0     H 5385   1.690   7.735  11.026 -0.9020 -0.0565  0.7252
  764MOL0     H 5386   1.734   7.885  10.851 -3.7698 -1.4790  2.1767
  764MOL0     H 5387   1.892   7.796  10.864 -0.5021  0.0315 -2.0227
  764MOL0     H 5388   1.823   7.820  10.639 -3.9807  2.6915  0.6861
  764MOL0     H 5389   1.864   7.658  10.696 -1.0577 -0.2083  1.3164
  764MOL0     H 5390   1.636   7.946  10.663  0.8267 -1.5335 -0.5770
  764MOL0     H 5391   1.443   8.120  10.498  1.7604 -1.3597  0.1662
  764MOL0     H 5392   1.513   8.163  10.655  0.8297 -1.8777  2.0392
  764MOL0     H 5393   1.341   8.172  10.635  0.2060 -0.1218  0.7100
  764MOL0     H 5394   1.078   8.151  10.393 -0.3864  0.3648 -1.7112
  764MOL0     H 5395   0.908   8.223  10.238 -2.1646  0.4970 -1.3985
  764MOL0     H 5396   0.599   8.236  10.054  1.6062  0.7932 -2.7050
  764MOL0     H 5397   0.714   8.284  10.183  0.1208  2.3964 -1.1587
  764MOL0     H 5398   0.770   8.358   9.951 -3.2240 -1.0830 -2.4231
  764MOL0     H 5399   0.896   8.247  10.018  0.0906  0.1524 -1.1631
  764MOL0     H 5400   0.669   8.106   9.858 -0.4155  0.7201 -0.7350
  764MOL0     H 5401   0.821   8.045   9.894 -1.4782 -0.7002 -0.6667
  764MOL0     H 5402   0.848   8.107   9.680 -3.1613  0.3161 -0.9008
  764MOL0     H 5403   0.926   8.241   9.778  1.0297 -1.3596 -0.0494
  764MOL0     H 5404   0.778   8.407   9.702 -0.4284  0.1897 -0.0157
  764MOL0     H 5405   0.808   8.296   9.566  2.2438  1.4980  0.3161
  764MOL0     H 5406   0.565   8.378   9.594  4.6558 -0.1830 -3.3120
  764MOL0     H 5407   0.566   8.275   9.749  1.9198 -2.9105  0.1666
  764MOL0     H 5408   0.640   8.082   9.601  1.3339  2.3459  1.6035
  764MOL0     H 5409   0.561   8.170   9.466 -0.0211  0.8305 -0.6537
  764MOL0     H 5410   0.444   8.101   9.735  0.9713 -2.3486 -0.7537
  764MOL0     H 5411   0.418   8.020   9.573 -0.0126  0.1139 -0.2306
  764MOL0     H 5412   0.720   7.844  10.251  0.2306 -1.0151  2.2138
  764MOL0     H 5413   0.930   7.756  10.383  0.1794 -0.4662  1.4160
  764MOL0     H 5414   1.215   7.701  10.586  1.7846 -3.6681 -2.1230
  764MOL0     H 5415   1.435   7.574  10.634 -0.1690 -0.2164 -1.6931
  764MOL0     H 5416   2.706   6.875  10.546  0.9210 -0.4119 -0.7332
  764MOL0     H 5417   2.949   6.916  10.496  1.6025  1.2895 -0.5601
  764MOL0     H 5418   3.276   7.079  10.696 -2.4401  1.3696  0.5280
  764MOL0     H 5419   3.517   7.105  10.776 -0.1788  1.7236  2.0422
  764MOL0     H 5420   3.646   7.301  10.904 -1.6018 -0.2456 -0.5863
  764MOL0     H 5421   3.732   7.142  10.839  2.5934  0.7868  0.6525
  764MOL0     H 5422   3.871   7.384  10.788 -1.7673 -1.1849 -1.2676
  764MOL0     H 5423   3.935   7.227  10.855  0.1029 -1.0232 -0.2445
  764MOL0     H 5424   3.981   7.401  11.022 -1.1500  0.0023  0.8893
  764MOL0     H 5425   3.824   7.466  11.015  2.3772  1.5240  1.2564
  764MOL0     H 5426   3.756   7.225  11.105 -0.5543  0.7952  0.9355
  764MOL0     H 5427   3.862   7.320  11.206 -0.1451  0.8984 -0.1696
  764MOL0     H 5428   4.107   6.989  11.092 -3.5170 -1.7953 -2.2667
  764MOL0     H 5429   3.565   7.442  10.533  1.5971 -2.2728 -2.2511
  764MOL0     H 5430   3.249   7.440  10.380 -3.4411  0.8811  2.1858
  764MOL0     H 5431   3.264   7.551  10.515 -0.8566  0.6658 -1.4564
  764MOL0     H 5432   3.406   7.516  10.409 -1.4141  2.9455 -1.5470
  765MOL0     O 5433   2.714   7.914   3.543  0.0567  0.7308  0.7487
  765MOL0     C 5434   2.653   7.990   3.618  0.6306  0.7480 -0.2702
  765MOL0     O 5435   2.707   8.046   3.734  0.2281 -0.3148  0.3417
  765MOL0     C 5436   2.828   8.015   3.781  0.2628  0.2397 -0.3572
  765MOL0     C 5437   2.939   7.979   3.709  0.2838  0.3107  0.4722
  765MOL0     C 5438   3.072   7.965   3.758 -0.0691 -0.3740  0.7526
  765MOL0     C 5439   3.100   7.990   3.889  0.6603  0.6028 -0.7156
  765MOL0     O 5440   3.213   7.990   3.956 -0.9740 -0.3017 -0.2846
  765MOL0     C 5441   3.323   7.951   3.887 -0.3430  0.2584  0.0462
  765MOL0     C 5442   3.455   7.934   3.972  0.9080  0.5102 -1.2096
  765MOL0     C 5443   3.576   7.921   3.871 -0.0596  0.2262  0.1771
  765MOL0     C 5444   3.626   8.062   3.808  0.7192 -0.5307 -0.6193
  765MOL0     C 5445   3.717   8.034   3.688 -0.1879  0.9301  0.8979
  765MOL0     C 5446   3.855   7.968   3.725  0.1672 -0.0363  0.3157
  765MOL0     C 5447   3.944   8.004   3.596  0.0247  0.3260 -0.7131
  765MOL0     C 5448   4.077   7.930   3.602  0.4558 -0.6407  0.0786
  765MOL0     N 5449   4.161   7.977   3.487 -0.2957 -0.7366 -0.5725
  765MOL0     C 5450   4.199   8.103   3.452 -0.4314 -0.1734  0.6161
  765MOL0     C 5451   4.264   8.089   3.337 -0.7596  0.6011 -0.4174
  765MOL0     C 5452   4.333   8.192   3.247  0.5093  0.3097 -0.8717
  765MOL0     C 5453   4.481   8.175   3.236  0.2118  0.1691  0.4235
  765MOL0     C 5454   4.552   8.278   3.143  0.7462  0.5825  1.4591
  765MOL0     C 5455   4.708   8.254   3.135  0.2394  0.3055 -0.1024
  765MOL0     O 5456   4.754   8.113   3.130  0.1491 -0.0640  0.5675
  765MOL0     C 5457   4.874   8.086   3.073  0.0098 -0.4186  0.3343
  765MOL0     C 5458   4.895   7.953   3.041 -0.1817  0.8424  0.1488
  765MOL0     C 5459   5.017   7.902   2.990  0.3911  0.3676  0.5047
  765MOL0     C 5460   5.020   7.763   2.930  0.2839 -0.3696 -0.7296
  765MOL0     C 5461   5.131   7.992   2.995  0.7751 -0.0229  0.5260
  765MOL0     C 5462   5.270   7.942   2.959  0.2235  0.4268  0.0761
  765MOL0     O 5463   5.366   8.022   3.002 -0.2451 -0.5889 -0.0078
  765MOL0     C 5464   5.494   7.974   2.979  0.0411 -0.2674  0.1722
  765MOL0     C 5465   5.542   7.878   3.069  0.1024 -0.9084 -0.3227
  765MOL0     C 5466   5.680   7.845   3.067 -0.6261  0.2919 -1.1453
  765MOL0     C 5467   5.769   7.904   2.970 -0.4797 -0.0665 -0.1983
  765MOL0     O 5468   5.899   7.865   2.957 -0.0736  0.2431  0.2777
  765MOL0     C 5469   5.925   7.725   2.979 -0.1695  0.7349  0.1534
  765MOL0     C 5470   6.075   7.688   2.966 -0.8833  0.0246  0.2945
  765MOL0     C 5471   6.169   7.760   3.055  0.3308  0.9195 -0.5996
  765MOL0     C 5472   6.317   7.768   3.008  0.2605  0.0341 -0.1913
  765MOL0     C 5473   6.397   7.832   3.122 -0.5896 -0.4148 -0.0108
  765MOL0     C 5474   6.548   7.855   3.085 -0.5116 -0.4778 -0.2013
  765MOL0     C 5475   6.620   7.948   3.182 -0.2917  0.5790  0.4007
  765MOL0     C 5476   6.651   7.881   3.309  0.6671  0.3987  0.0937
  765MOL0    Cl 5477   6.782   7.957   3.396  0.4996 -0.3197 -0.4529
  765MOL0     C 5478   5.719   8.002   2.890 -0.2726 -0.6366  0.8658
  765MOL0     C 5479   5.589   8.048   2.901  0.2820  1.0790  0.4658
  765MOL0     O 5480   5.288   7.846   2.883  0.6787 -0.0737 -0.0289
  765MOL0     C 5481   5.109   8.122   3.042 -0.0460  0.0099  0.5350
  765MOL0     C 5482   4.984   8.175   3.066 -0.1455 -0.3581  0.1989
  765MOL0     N 5483   4.275   7.953   3.308  0.1932  0.3981  0.6682
  765MOL0     N 5484   4.211   7.888   3.394 -0.0299 -0.6594 -0.7058
  765MOL0     C 5485   2.992   8.023   3.965  0.5344  0.5951 -0.4621
  765MOL0     C 5486   2.861   8.032   3.918  0.1375  0.8941  0.0287
  765MOL0     C 5487   2.518   8.026   3.576  0.7305  1.1398  0.7309
  765MOL0     C 5488   2.457   8.140   3.620  0.7954 -0.2518 -0.7268
  765MOL0     C 5489   2.339   8.183   3.561 -0.5324  0.0811 -0.4252
  765MOL0     C 5490   2.272   8.111   3.465  0.3627 -0.1217  0.8282
  765MOL0     O 5491   2.159   8.171   3.411  0.3919 -0.1346 -0.4171
  765MOL0     C 5492   2.077   8.087   3.321 -0.2151 -1.2625 -0.0953
  765MOL0     C 5493   1.956   8.174   3.268  0.5278 -0.2429 -0.1519
  765MOL0     C 5494   1.871   8.197   3.388 -0.6156 -0.0095 -0.0577
  765MOL0     C 5495   1.770   8.310   3.354 -0.3861  0.7127  0.2775
  765MOL0     C 5496   1.830   8.435   3.388  0.7919 -0.6294 -0.2718
  765MOL0     C 5497   1.868   8.552   3.400 -0.1450  0.0063  0.5491
  765MOL0     C 5498   2.311   7.978   3.442 -0.1642  0.6984 -0.5095
  765MOL0     C 5499   2.436   7.933   3.496  0.6159  0.0957 -0.0855
  765MOL0     C 5500   2.471   7.796   3.466  0.4097 -0.0727  0.4701
  765MOL0     H 5501   2.919   7.967   3.603  1.0178  1.9682  0.1243
  765MOL0     H 5502   3.151   7.944   3.686  0.9116  4.6552 -0.0201
  765MOL0     H 5503   3.342   8.019   3.804  0.5291 -0.1364 -0.0940
  765MOL0     H 5504   3.307   7.854   3.839 -2.2366  1.0025 -0.9209
  765MOL0     H 5505   3.464   8.023   4.035 -0.3814  0.1795 -0.5271
  765MOL0     H 5506   3.450   7.841   4.030 -0.7977  1.0350 -0.4564
  765MOL0     H 5507   3.663   7.879   3.923 -2.5751 -2.0399  2.9288
  765MOL0     H 5508   3.552   7.854   3.788  0.3633  0.1007  0.1513
  765MOL0     H 5509   3.542   8.119   3.768  1.3120  1.7096  1.1294
  765MOL0     H 5510   3.664   8.122   3.892  1.4523 -0.0769 -1.2556
  765MOL0     H 5511   3.736   8.130   3.638  0.0518  0.5599  0.2597
  765MOL0     H 5512   3.656   7.970   3.624 -0.2168 -0.7036  2.5067
  765MOL0     H 5513   3.882   8.027   3.812  1.8879  1.0083 -0.8609
  765MOL0     H 5514   3.853   7.859   3.733  2.2956 -0.3431 -2.0759
  765MOL0     H 5515   3.966   8.112   3.598 -1.0105  0.5423 -0.3716
  765MOL0     H 5516   3.897   7.979   3.501 -0.9026 -1.0437  0.0831
  765MOL0     H 5517   4.129   7.959   3.694  0.6707  1.9882 -0.7879
  765MOL0     H 5518   4.064   7.821   3.606  0.9936 -0.7146 -0.1418
  765MOL0     H 5519   4.171   8.194   3.503 -2.8003 -0.8141  0.6156
  765MOL0     H 5520   4.302   8.291   3.280  0.0149 -0.5504  1.4167
  765MOL0     H 5521   4.279   8.183   3.152 -1.3982 -0.2210  0.2123
  765MOL0     H 5522   4.532   8.182   3.332  0.0056 -0.0546  0.5504
  765MOL0     H 5523   4.507   8.072   3.209 -2.2283 -0.5730  0.6825
  765MOL0     H 5524   4.517   8.261   3.041  1.6553  1.0618  1.0575
  765MOL0     H 5525   4.523   8.380   3.172 -3.2854 -0.2487  0.9982
  765MOL0     H 5526   4.753   8.303   3.049  0.5811 -0.4894 -0.3866
  765MOL0     H 5527   4.742   8.304   3.226  1.1054  0.3282 -0.4344
  765MOL0     H 5528   4.809   7.886   3.040 -0.6156  1.2248 -3.5615
  765MOL0     H 5529   5.054   7.764   2.826  0.8671  0.1941 -0.5402
  765MOL0     H 5530   4.918   7.725   2.933 -0.6318  1.9376  0.2760
  765MOL0     H 5531   5.086   7.693   2.983 -2.9394 -1.3170  2.4346
  765MOL0     H 5532   5.477   7.832   3.142  0.9576 -1.4414  0.1204
  765MOL0     H 5533   5.718   7.800   3.158  0.8749  1.3339 -1.2222
  765MOL0     H 5534   5.887   7.693   3.077 -2.0658 -2.7677 -1.5583
  765MOL0     H 5535   5.866   7.665   2.909  2.8861 -0.1667 -1.8477
  765MOL0     H 5536   6.096   7.582   2.979 -0.2982 -0.8260 -5.3575
  765MOL0     H 5537   6.101   7.705   2.861 -2.2863  0.7729  0.0409
  765MOL0     H 5538   6.151   7.720   3.156 -1.6519  0.7349 -0.9852
  765MOL0     H 5539   6.135   7.863   3.067 -2.7850 -0.1092  0.7288
  765MOL0     H 5540   6.316   7.835   2.922 -0.8122  1.4690  0.9042
  765MOL0     H 5541   6.357   7.670   2.979 -2.3859 -0.5212 -2.3044
  765MOL0     H 5542   6.356   7.932   3.135 -2.2515 -0.8720 -1.3830
  765MOL0     H 5543   6.383   7.773   3.213 -0.8402 -2.4452 -1.2918
  765MOL0     H 5544   6.554   7.907   2.990  0.2595  1.6879  0.9707
  765MOL0     H 5545   6.595   7.756   3.080 -3.2968 -1.9953  1.0150
  765MOL0     H 5546   6.568   8.043   3.193  1.9196  1.6428  2.7831
  765MOL0     H 5547   6.718   7.967   3.137  0.2978 -1.8205  0.5420
  765MOL0     H 5548   6.678   7.776   3.295  1.0614  0.4219  0.6197
  765MOL0     H 5549   6.557   7.885   3.364 -0.6260 -1.9568 -1.7802
  765MOL0     H 5550   5.785   8.053   2.820  0.6039 -2.4248  0.3265
  765MOL0     H 5551   5.560   8.143   2.856  1.7972  2.9996  3.2125
  765MOL0     H 5552   5.190   8.194   3.049 -0.3203  0.9801 -3.5009
  765MOL0     H 5553   4.963   8.279   3.087 -0.8631 -0.7277  1.4786
  765MOL0     H 5554   3.001   8.044   4.071  1.9137  2.5330 -0.9162
  765MOL0     H 5555   2.780   8.067   3.980  0.5874  1.6952  0.1908
  765MOL0     H 5556   2.519   8.198   3.687  0.7609 -0.2529 -0.6941
  765MOL0     H 5557   2.295   8.281   3.574 -2.6502 -0.6623 -1.5119
  765MOL0     H 5558   2.135   8.052   3.235  0.0584  0.5043 -0.6833
  765MOL0     H 5559   2.023   8.011   3.378  1.8013  0.2969  4.3693
  765MOL0     H 5560   1.908   8.125   3.183  0.1742 -2.7834  1.4202
  765MOL0     H 5561   1.983   8.275   3.237  1.1940  0.4908  2.5417
  765MOL0     H 5562   1.817   8.102   3.389  0.1419 -0.5161 -2.1588
  765MOL0     H 5563   1.922   8.218   3.482 -0.7465  0.0502  0.0013
  765MOL0     H 5564   1.680   8.283   3.410  0.1157 -0.3184  0.5938
  765MOL0     H 5565   1.745   8.308   3.248  0.6344 -2.1416  0.0294
  765MOL0     H 5566   1.910   8.648   3.422 -0.6195  0.2225  0.5145
  765MOL0     H 5567   2.248   7.915   3.379  0.3676 -1.7274  1.2406
  765MOL0     H 5568   2.560   7.793   3.403  2.7269  0.9139  3.4719
  765MOL0     H 5569   2.510   7.743   3.553 -0.3542  0.4886  1.1723
  765MOL0     H 5570   2.378   7.749   3.432  0.2232  0.9440 -0.5003
  766MOL0     O 5571   0.753   1.670   9.505  1.0571  0.3726  1.1401
  766MOL0     C 5572   0.754   1.564   9.567  0.1972  0.4754 -0.3843
  766MOL0     O 5573   0.644   1.478   9.584  0.1578 -0.3300 -0.6548
  766MOL0     C 5574   0.525   1.522   9.535  0.5301 -1.2107 -0.2297
  766MOL0     C 5575   0.463   1.639   9.594  0.5048  0.4992  0.7650
  766MOL0     C 5576   0.338   1.683   9.547  0.3450 -1.1798 -0.1691
  766MOL0     C 5577   0.273   1.620   9.440 -0.0916  0.1057 -0.5543
  766MOL0     O 5578   0.175   1.661   9.360  0.2871  0.7381  0.2538
  766MOL0     C 5579   0.085   1.765   9.403  0.3269 -0.1927  0.1207
  766MOL0     C 5580  -0.040   1.778   9.321 -0.4131  0.7372  0.5941
  766MOL0     C 5581  -0.013   1.767   9.175 -0.6479 -0.3033  0.0607
  766MOL0     C 5582  -0.151   1.770   9.116  0.0281 -0.0819  0.1309
  766MOL0     C 5583  -0.159   1.690   8.987 -0.0745 -0.6309 -0.3801
  766MOL0     C 5584  -0.298   1.736   8.919  0.3693 -0.7748 -0.4475
  766MOL0     C 5585  -0.302   1.696   8.768  0.1504 -0.2658 -0.0757
  766MOL0     C 5586  -0.427   1.744   8.700  0.7636  0.0842  0.7559
  766MOL0     N 5587  -0.452   1.889   8.694 -0.8839 -0.3456 -0.0248
  766MOL0     C 5588  -0.379   1.989   8.624  0.4056  0.6890 -0.8881
  766MOL0     C 5589  -0.426   2.111   8.666  0.6093  0.2566 -0.5589
  766MOL0     C 5590  -0.359   2.239   8.639 -0.3129  1.1736 -0.0199
  766MOL0     C 5591  -0.428   2.375   8.653  0.1957  0.4459  1.1351
  766MOL0     C 5592  -0.369   2.455   8.763 -0.1421 -0.3795  0.0867
  766MOL0     C 5593  -0.236   2.532   8.745 -0.2951  0.2900  0.2280
  766MOL0     O 5594  -0.278   2.670   8.717 -0.4661 -0.6729 -0.0718
  766MOL0     C 5595  -0.274   2.715   8.589  0.9956  0.3924  0.3578
  766MOL0     C 5596  -0.164   2.692   8.501 -0.0349  0.5622 -0.2952
  766MOL0     C 5597  -0.152   2.745   8.379  0.9294 -0.0305  0.4508
  766MOL0     C 5598  -0.018   2.714   8.308 -0.0056  0.2226  0.2865
  766MOL0     C 5599  -0.264   2.809   8.326 -0.7814  0.4459 -0.2151
  766MOL0     C 5600  -0.283   2.832   8.188 -0.1234  0.3450  0.2098
  766MOL0     O 5601  -0.410   2.851   8.137 -0.4700  0.0731 -0.0588
  766MOL0     C 5602  -0.424   2.877   8.000  0.4054  0.5117  0.5692
  766MOL0     C 5603  -0.519   2.799   7.932 -0.5410 -0.8670  0.1064
  766MOL0     C 5604  -0.532   2.818   7.787  0.7139  0.5821 -0.2659
  766MOL0     C 5605  -0.457   2.917   7.716  0.6127  0.1498 -0.0145
  766MOL0     O 5606  -0.497   2.933   7.589  0.8240 -0.1776  0.4786
  766MOL0     C 5607  -0.436   3.029   7.506  0.4260 -1.2300 -0.7063
  766MOL0     C 5608  -0.480   3.025   7.362  1.0922 -0.2453  0.2348
  766MOL0     C 5609  -0.626   3.075   7.359  0.3611 -0.7193 -0.2037
  766MOL0     C 5610  -0.647   3.231   7.347  0.2631  0.0424 -0.6356
  766MOL0     C 5611  -0.790   3.256   7.313 -0.1748 -0.5286 -0.1959
  766MOL0     C 5612  -0.842   3.395   7.293 -0.0327  0.1057  0.0303
  766MOL0     C 5613  -0.788   3.456   7.162 -0.3497  1.0163 -0.7235
  766MOL0     C 5614  -0.807   3.603   7.145 -0.4526  0.2023  0.3201
  766MOL0    Cl 5615  -0.981   3.644   7.175 -0.1486  0.2280  0.0048
  766MOL0     C 5616  -0.370   2.997   7.785 -0.4101 -0.0175 -0.2742
  766MOL0     C 5617  -0.345   2.963   7.920 -0.2443 -1.0253  0.4051
  766MOL0     O 5618  -0.177   2.848   8.121 -0.5875  0.1912 -1.2410
  766MOL0     C 5619  -0.369   2.840   8.414  0.0771  0.1539 -0.1641
  766MOL0     C 5620  -0.371   2.788   8.540  0.7337  0.6033  0.4991
  766MOL0     N 5621  -0.532   2.084   8.757 -0.3675 -1.0007  0.0215
  766MOL0     N 5622  -0.537   1.951   8.783 -0.2115  0.0675  0.0551
  766MOL0     C 5623   0.339   1.499   9.386  0.3461 -0.3090 -0.1376
  766MOL0     C 5624   0.454   1.451   9.439  0.4459  0.1577  0.3711
  766MOL0     C 5625   0.880   1.520   9.642  1.4581 -1.1790  0.4463
  766MOL0     C 5626   0.858   1.404   9.714 -0.8833  0.1268  0.6578
  766MOL0     C 5627   0.963   1.360   9.798  0.3095  0.5148  0.0485
  766MOL0     C 5628   1.080   1.426   9.806  0.1939 -0.0668 -1.0488
  766MOL0     O 5629   1.166   1.374   9.904 -0.0894 -0.3507  0.1851
  766MOL0     C 5630   1.308   1.393   9.896  0.1109 -0.7066 -0.2869
  766MOL0     C 5631   1.343   1.506   9.993  0.6186  0.4268 -0.1942
  766MOL0     C 5632   1.398   1.448  10.137  0.5888 -0.5133 -0.4579
  766MOL0     C 5633   1.516   1.544  10.177  0.4135  0.5764 -0.2602
  766MOL0     C 5634   1.583   1.513  10.310  0.7730 -0.2455 -0.6752
  766MOL0     C 5635   1.642   1.489  10.417 -0.1114  0.1880  0.4065
  766MOL0     C 5636   1.106   1.541   9.733 -0.4309  0.8973 -0.5359
  766MOL0     C 5637   1.007   1.586   9.648  1.4718  0.8555 -0.6462
  766MOL0     C 5638   1.037   1.715   9.577  1.1138  0.2923 -0.7222
  766MOL0     H 5639   0.527   1.684   9.669  2.2251  0.3677 -0.5795
  766MOL0     H 5640   0.306   1.777   9.592 -0.2729 -0.7356 -1.4934
  766MOL0     H 5641   0.135   1.861   9.419  2.1015 -0.9684 -0.5819
  766MOL0     H 5642   0.043   1.750   9.504 -1.4232  1.3854 -0.3181
  766MOL0     H 5643  -0.108   1.696   9.345  1.6971 -1.8196 -1.6604
  766MOL0     H 5644  -0.086   1.872   9.354  0.6490  2.7276 -3.0616
  766MOL0     H 5645   0.037   1.857   9.138  1.1940 -1.6665 -0.9157
  766MOL0     H 5646   0.037   1.675   9.145 -2.4648 -1.0237 -0.9055
  766MOL0     H 5647  -0.231   1.729   9.178 -0.5321 -2.1848 -1.8496
  766MOL0     H 5648  -0.177   1.877   9.116 -2.3819 -0.6053 -0.7624
  766MOL0     H 5649  -0.147   1.583   9.008 -2.1542 -0.6472  1.0245
  766MOL0     H 5650  -0.082   1.722   8.917 -2.1745  2.6155 -1.4327
  766MOL0     H 5651  -0.384   1.698   8.975  0.5052 -0.2643  0.1185
  766MOL0     H 5652  -0.317   1.843   8.919 -3.2133 -1.2333 -2.5580
  766MOL0     H 5653  -0.298   1.589   8.745  1.4714 -0.2790  0.1732
  766MOL0     H 5654  -0.216   1.742   8.719 -0.4860 -1.2531 -2.2633
  766MOL0     H 5655  -0.427   1.703   8.599  1.1120 -0.7160  1.0733
  766MOL0     H 5656  -0.514   1.703   8.752  0.3817 -0.8556 -0.5922
  766MOL0     H 5657  -0.288   1.974   8.567  0.4150 -0.2516 -0.6408
  766MOL0     H 5658  -0.330   2.219   8.535 -2.0009 -0.4221 -0.2458
  766MOL0     H 5659  -0.266   2.227   8.697  0.2496 -0.7227 -1.2119
  766MOL0     H 5660  -0.425   2.421   8.554  2.2135 -1.1535  0.3892
  766MOL0     H 5661  -0.534   2.353   8.671 -0.0524 -0.2433 -0.9760
  766MOL0     H 5662  -0.448   2.521   8.798 -0.9676 -2.1886  1.8425
  766MOL0     H 5663  -0.352   2.381   8.842  2.3034  0.5392  0.5070
  766MOL0     H 5664  -0.179   2.529   8.839 -0.5839 -1.1609  0.3734
  766MOL0     H 5665  -0.181   2.487   8.662 -1.6466  1.5166 -1.3885
  766MOL0     H 5666  -0.075   2.638   8.532  0.7739  0.5511 -2.4367
  766MOL0     H 5667  -0.025   2.621   8.251  0.0226 -0.3395  1.1767
  766MOL0     H 5668   0.057   2.710   8.387 -0.3305  1.2612  0.6590
  766MOL0     H 5669   0.033   2.787   8.245  4.0811  0.0091  2.9710
  766MOL0     H 5670  -0.593   2.729   7.971 -2.2009  0.8809  0.2690
  766MOL0     H 5671  -0.600   2.753   7.733  0.6710 -1.8500  2.4987
  766MOL0     H 5672  -0.465   3.124   7.553  0.3770 -1.5329 -0.1268
  766MOL0     H 5673  -0.328   3.016   7.517  0.2345 -1.0453  2.1624
  766MOL0     H 5674  -0.417   3.093   7.302 -0.8480  0.7039 -0.8121
  766MOL0     H 5675  -0.472   2.929   7.311 -0.2532 -0.2042 -0.0687
  766MOL0     H 5676  -0.684   3.042   7.446 -2.5774  0.5245 -1.5396
  766MOL0     H 5677  -0.676   3.036   7.269 -1.9926  1.8142 -0.1260
  766MOL0     H 5678  -0.574   3.257   7.269  0.1725 -3.9578 -2.2712
  766MOL0     H 5679  -0.613   3.289   7.433 -1.7309  3.6393 -2.0427
  766MOL0     H 5680  -0.827   3.195   7.230 -0.0188  1.2765 -1.6601
  766MOL0     H 5681  -0.842   3.221   7.403  2.4649 -0.9012  1.2806
  766MOL0     H 5682  -0.806   3.453   7.378 -0.9716  1.4863 -0.4650
  766MOL0     H 5683  -0.951   3.389   7.293  0.0549 -1.8972  0.5621
  766MOL0     H 5684  -0.835   3.412   7.074  0.8018 -1.5391 -0.1554
  766MOL0     H 5685  -0.679   3.446   7.167 -0.6419 -3.1221  0.5479
  766MOL0     H 5686  -0.756   3.629   7.052  2.4386 -3.8401  0.4777
  766MOL0     H 5687  -0.761   3.660   7.226  1.0057  0.7745 -0.8597
  766MOL0     H 5688  -0.307   3.073   7.740 -1.2367  2.0853  1.9441
  766MOL0     H 5689  -0.280   3.025   7.981  0.8671 -1.2181 -0.5342
  766MOL0     H 5690  -0.446   2.913   8.389  0.9552  1.2396  0.2120
  766MOL0     H 5691  -0.457   2.797   8.606  0.5472 -2.7865  0.8855
  766MOL0     H 5692   0.294   1.447   9.302 -0.0385 -0.5946  0.2412
  766MOL0     H 5693   0.488   1.358   9.394 -0.6037 -0.8144  1.5167
  766MOL0     H 5694   0.774   1.336   9.713  0.8919 -2.2099 -0.1035
  766MOL0     H 5695   0.963   1.273   9.863  0.9459  1.5040  1.4096
  766MOL0     H 5696   1.365   1.302   9.919 -0.3461 -1.6038 -2.4577
  766MOL0     H 5697   1.339   1.430   9.799  1.3576 -0.2895  0.2536
  766MOL0     H 5698   1.249   1.559  10.007 -0.3081 -0.8489 -1.2649
  766MOL0     H 5699   1.422   1.572   9.956 -0.9662  2.2633 -0.4501
  766MOL0     H 5700   1.320   1.454  10.214  0.3851 -2.6897 -0.4196
  766MOL0     H 5701   1.439   1.347  10.129  0.1040 -0.6272 -1.8238
  766MOL0     H 5702   1.491   1.650  10.175 -0.7471  0.3458  0.6425
  766MOL0     H 5703   1.586   1.523  10.096  0.5215 -1.6980  0.3375
  766MOL0     H 5704   1.703   1.457  10.500  1.3419  3.1175  0.6173
  766MOL0     H 5705   1.195   1.603   9.746 -1.1550  1.4793  2.5403
  766MOL0     H 5706   1.141   1.741   9.599  1.3249 -0.3248 -0.9748
  766MOL0     H 5707   1.022   1.713   9.469  2.8046 -0.9525 -0.9799
  766MOL0     H 5708   0.966   1.791   9.610 -0.3143 -1.0714 -0.5330
  767MOL0     O 5709  10.122   3.982   0.989  0.1691 -0.0746  0.4560
  767MOL0     C 5710  10.150   4.052   0.894 -0.5145 -0.3240 -0.2763
  767MOL0     O 5711  10.276   4.077   0.846  0.4944  0.0740  0.0527
  767MOL0     C 5712  10.381   4.004   0.891 -0.1917  0.3504 -0.3091
  767MOL0     C 5713  10.403   3.867   0.861  0.5190 -0.5516  0.0900
  767MOL0     C 5714  10.513   3.797   0.913 -0.0934  0.2799  0.8415
  767MOL0     C 5715  10.608   3.869   0.985 -0.1638  0.6021  0.1972
  767MOL0     O 5716  10.727   3.822   1.035 -0.5859  0.0172  0.1326
  767MOL0     C 5717  10.765   3.686   1.018 -0.6686 -0.0738 -0.4500
  767MOL0     C 5718  10.882   3.641   1.108 -0.4190 -0.2958 -0.0153
  767MOL0     C 5719  10.915   3.489   1.089 -0.0103 -0.2607  0.5482
  767MOL0     C 5720  11.059   3.454   1.114 -0.0214 -0.4753  0.3584
  767MOL0     C 5721  11.088   3.306   1.101 -0.0189  0.5336 -0.5241
  767MOL0     C 5722  11.218   3.271   1.165  0.0740 -0.1047  0.4738
  767MOL0     C 5723  11.281   3.139   1.128  0.6776  0.6920 -0.4781
  767MOL0     C 5724  11.313   3.140   0.978  0.1491  0.0956  0.3456
  767MOL0     N 5725  11.399   3.253   0.930  0.1902  0.6433 -0.3588
  767MOL0     C 5726  11.536   3.253   0.915 -0.6061  0.3072  0.4065
  767MOL0     C 5727  11.566   3.372   0.858  0.1560  0.0215  0.2012
  767MOL0     C 5728  11.712   3.406   0.825 -0.2890  0.4176 -0.3800
  767MOL0     C 5729  11.747   3.312   0.704  0.9385  0.2085 -0.1472
  767MOL0     C 5730  11.886   3.358   0.663 -0.8705 -0.9154 -0.2688
  767MOL0     C 5731  11.971   3.269   0.577  0.0944  0.1541 -0.2353
  767MOL0     O 5732  12.099   3.328   0.558 -0.2585 -0.0844  0.4433
  767MOL0     C 5733  12.187   3.243   0.484  0.4169  0.3352  0.6714
  767MOL0     C 5734  12.312   3.298   0.459 -0.4657 -0.3894  0.2664
  767MOL0     C 5735  12.415   3.228   0.387  0.0672  0.2528 -0.9196
  767MOL0     C 5736  12.540   3.303   0.383  0.3145  1.1359 -0.2188
  767MOL0     C 5737  12.386   3.102   0.335  0.4240 -0.8378  0.9718
  767MOL0     C 5738  12.474   3.041   0.232  0.5988  0.1925 -0.8749
  767MOL0     O 5739  12.499   2.911   0.243 -0.3112 -0.6116  0.1908
  767MOL0     C 5740  12.591   2.841   0.158  0.7500 -0.5664 -0.5518
  767MOL0     C 5741  12.713   2.902   0.098 -0.4168  1.4385  0.4947
  767MOL0     C 5742  12.794   2.824   0.021  0.0436  0.2341 -1.2249
  767MOL0     C 5743  12.769   2.692   0.000 -0.2470  0.4808 -0.0249
  767MOL0     O 5744  12.832   2.621  -0.099  0.3088 -0.7495  0.3898
  767MOL0     C 5745  12.930   2.534  -0.052 -0.7777 -0.1216 -0.7032
  767MOL0     C 5746  13.000   2.463  -0.171  1.3768 -0.1660 -0.8382
  767MOL0     C 5747  13.052   2.552  -0.286  0.7132 -0.6603 -0.4498
  767MOL0     C 5748  13.139   2.463  -0.373  0.2471 -0.0603 -0.0805
  767MOL0     C 5749  13.212   2.540  -0.478 -0.1391  0.5894  0.6157
  767MOL0     C 5750  13.301   2.464  -0.571  0.2723  0.0674 -0.1684
  767MOL0     C 5751  13.360   2.553  -0.691  1.5952  0.0060  0.2359
  767MOL0     C 5752  13.450   2.489  -0.798 -0.0023 -0.1037  0.1594
  767MOL0    Cl 5753  13.387   2.549  -0.944  0.4946 -0.3893 -0.7191
  767MOL0     C 5754  12.662   2.627   0.058 -0.2793  0.1160 -0.0895
  767MOL0     C 5755  12.571   2.704   0.140 -0.0565 -0.0153 -0.5308
  767MOL0     O 5756  12.513   3.111   0.138  0.8930 -0.7611  0.6089
  767MOL0     C 5757  12.253   3.050   0.352  0.5604 -0.8643  0.2654
  767MOL0     C 5758  12.156   3.111   0.425 -0.5526 -0.8069  0.2845
  767MOL0     N 5759  11.448   3.445   0.856  0.4849  0.0316  0.3249
  767MOL0     N 5760  11.348   3.375   0.892  0.0535 -0.4802  0.2931
  767MOL0     C 5761  10.588   4.004   1.013  1.0826 -0.2407 -0.4180
  767MOL0     C 5762  10.471   4.070   0.969  0.3807 -0.3851 -0.5866
  767MOL0     C 5763  10.036   4.104   0.828 -0.5343 -0.1865  0.7008
  767MOL0     C 5764   9.921   4.143   0.898 -0.2220 -0.1350  0.4071
  767MOL0     C 5765   9.808   4.194   0.842  0.3280 -0.2022 -0.2990
  767MOL0     C 5766   9.801   4.219   0.710 -0.7771 -0.6867  0.6371
  767MOL0     O 5767   9.695   4.278   0.633 -0.1234  0.5029  0.5896
  767MOL0     C 5768   9.584   4.339   0.694 -0.0327  0.2685 -0.2578
  767MOL0     C 5769   9.623   4.481   0.733 -0.3522  0.7315 -0.1753
  767MOL0     C 5770   9.505   4.585   0.736  0.6154  0.3360  0.0317
  767MOL0     C 5771   9.485   4.669   0.863 -0.4437 -0.5274 -0.6261
  767MOL0     C 5772   9.393   4.620   0.960  1.1301  0.1391  0.0758
  767MOL0     C 5773   9.305   4.580   1.039 -0.4073 -0.6092  0.0645
  767MOL0     C 5774   9.905   4.175   0.635 -0.5396 -0.2601  0.7742
  767MOL0     C 5775  10.021   4.114   0.687 -0.0533 -0.0976  0.4359
  767MOL0     C 5776  10.133   4.089   0.582 -0.6399 -0.1460  0.2081
  767MOL0     H 5777  10.332   3.813   0.798  1.4590 -2.2818  0.4575
  767MOL0     H 5778  10.535   3.698   0.873  1.7063  2.2837 -3.9062
  767MOL0     H 5779  10.787   3.671   0.912 -0.2374  0.1807 -0.4009
  767MOL0     H 5780  10.680   3.623   1.048 -0.1904 -0.1320  0.8564
  767MOL0     H 5781  10.972   3.698   1.081 -1.2153 -0.0365 -2.4110
  767MOL0     H 5782  10.844   3.670   1.206 -2.5440  1.5414 -1.2835
  767MOL0     H 5783  10.850   3.443   1.163 -0.4596  0.9362  0.9069
  767MOL0     H 5784  10.888   3.456   0.988 -2.1939 -0.2957  1.1161
  767MOL0     H 5785  11.111   3.515   1.041 -0.5699  1.1369  1.2549
  767MOL0     H 5786  11.088   3.491   1.213 -1.2691  2.5066 -0.2889
  767MOL0     H 5787  11.086   3.271   0.997  1.4198 -2.1380  0.2416
  767MOL0     H 5788  11.014   3.250   1.158 -0.1213  0.0449 -1.1312
  767MOL0     H 5789  11.284   3.354   1.137 -4.8895  4.1799  0.1363
  767MOL0     H 5790  11.212   3.268   1.274 -1.9696  1.2749  0.4416
  767MOL0     H 5791  11.215   3.055   1.153  2.1589  0.0778  1.6339
  767MOL0     H 5792  11.373   3.126   1.186  1.6439  2.2883 -1.5709
  767MOL0     H 5793  11.368   3.048   0.955 -1.0001 -0.6232  0.3575
  767MOL0     H 5794  11.212   3.134   0.935 -0.0184  1.2499  0.5546
  767MOL0     H 5795  11.614   3.181   0.937  0.2904  0.7738 -1.0873
  767MOL0     H 5796  11.781   3.393   0.909 -1.2307  3.6530  1.0657
  767MOL0     H 5797  11.716   3.512   0.799 -0.7069  0.9223  1.5039
  767MOL0     H 5798  11.754   3.206   0.731 -0.5377 -0.2586 -1.4265
  767MOL0     H 5799  11.683   3.312   0.616  1.0956 -1.7738 -0.3148
  767MOL0     H 5800  11.871   3.459   0.623  1.6928  0.8188  2.7817
  767MOL0     H 5801  11.948   3.378   0.750 -1.2816 -0.9579  0.0394
  767MOL0     H 5802  11.984   3.172   0.625 -2.2012 -1.2161 -2.1478
  767MOL0     H 5803  11.922   3.250   0.481 -2.7172  0.1509  1.0923
  767MOL0     H 5804  12.327   3.403   0.482 -0.1343  1.8182 -7.3262
  767MOL0     H 5805  12.530   3.383   0.310 -0.3461  0.5182 -0.8094
  767MOL0     H 5806  12.617   3.236   0.344  1.5758  0.6320  2.7846
  767MOL0     H 5807  12.576   3.337   0.481 -2.0560  1.0559  0.7408
  767MOL0     H 5808  12.751   3.003   0.111  0.8641  0.6845  3.5249
  767MOL0     H 5809  12.885   2.857  -0.028 -0.0384  1.2747 -0.7021
  767MOL0     H 5810  13.006   2.590   0.003 -0.7643 -1.1026  0.3277
  767MOL0     H 5811  12.885   2.464   0.019 -2.5228  1.6043 -0.0277
  767MOL0     H 5812  13.079   2.401  -0.127  0.1996 -2.2806 -1.5651
  767MOL0     H 5813  12.922   2.394  -0.206 -0.1272  1.2145 -0.3228
  767MOL0     H 5814  13.108   2.631  -0.236 -1.1469 -0.3089  1.1786
  767MOL0     H 5815  12.973   2.600  -0.344  2.2392 -0.2410 -2.2817
  767MOL0     H 5816  13.063   2.402  -0.423 -0.8582  0.5410  0.8246
  767MOL0     H 5817  13.203   2.392  -0.322 -1.8494 -2.7910 -0.9749
  767MOL0     H 5818  13.141   2.597  -0.539  0.5507 -1.0113 -1.8347
  767MOL0     H 5819  13.280   2.604  -0.421  0.8209  0.9145 -0.8541
  767MOL0     H 5820  13.242   2.388  -0.622  0.7445  0.1556 -0.8483
  767MOL0     H 5821  13.374   2.409  -0.510 -1.3818 -1.9184  0.1299
  767MOL0     H 5822  13.424   2.631  -0.649  0.7013 -0.0348  1.7460
  767MOL0     H 5823  13.278   2.602  -0.745  0.9194  0.7127  1.8260
  767MOL0     H 5824  13.454   2.380  -0.796  1.1691 -0.0848 -0.2630
  767MOL0     H 5825  13.547   2.534  -0.774 -1.2347  0.8516  4.1073
  767MOL0     H 5826  12.636   2.522   0.044 -1.0032  0.3835 -0.8700
  767MOL0     H 5827  12.484   2.672   0.197  1.6224  0.2782  2.3900
  767MOL0     H 5828  12.237   2.954   0.303  1.6045 -1.0500  0.2652
  767MOL0     H 5829  12.065   3.057   0.446 -1.7621  1.8096  2.3341
  767MOL0     H 5830  10.660   4.061   1.071  0.9283 -1.1562  0.7168
  767MOL0     H 5831  10.464   4.177   0.983 -0.3511 -0.4499 -0.4311
  767MOL0     H 5832   9.921   4.126   1.006 -1.2565  1.5408  0.7043
  767MOL0     H 5833   9.729   4.221   0.911  1.5860  0.7390  0.8282
  767MOL0     H 5834   9.502   4.340   0.622 -2.6853 -0.6324  2.5068
  767MOL0     H 5835   9.553   4.274   0.777  1.2205  1.7192  1.4141
  767MOL0     H 5836   9.693   4.523   0.659  2.3373 -1.3087  1.0268
  767MOL0     H 5837   9.669   4.493   0.832  1.0164  0.4185 -0.7435
  767MOL0     H 5838   9.508   4.664   0.660 -0.6263  1.3384  0.9762
  767MOL0     H 5839   9.405   4.542   0.719  1.4070 -2.4377  1.7347
  767MOL0     H 5840   9.449   4.769   0.836  0.6336 -0.8810 -3.7957
  767MOL0     H 5841   9.580   4.688   0.915  0.1528  0.3267 -1.9714
  767MOL0     H 5842   9.225   4.563   1.108 -0.1193 -1.6495  0.1569
  767MOL0     H 5843   9.898   4.183   0.527 -1.5073  0.4226  0.8756
  767MOL0     H 5844  10.098   4.119   0.482 -3.8138  2.9658  2.0479
  767MOL0     H 5845  10.219   4.149   0.611  0.2214 -1.5516  0.6933
  767MOL0     H 5846  10.162   3.984   0.571  1.0380 -0.0516  2.8377
  768MOL0     O 5847   3.398   2.760   1.374 -0.0707 -0.0315 -0.6660
  768MOL0     C 5848   3.454   2.810   1.470  0.2619  0.0307 -0.6133
  768MOL0     O 5849   3.587   2.812   1.496  0.1480 -0.1574 -0.1809
  768MOL0     C 5850   3.656   2.734   1.411 -0.1857 -1.2161 -0.7609
  768MOL0     C 5851   3.649   2.597   1.428 -0.3952 -0.3847  0.0486
  768MOL0     C 5852   3.734   2.518   1.356  0.1448  0.0982 -0.0161
  768MOL0     C 5853   3.819   2.571   1.263  1.3208 -0.6799 -1.2734
  768MOL0     O 5854   3.908   2.486   1.208  0.4975 -0.4696  0.1113
  768MOL0     C 5855   3.908   2.483   1.063  1.5276 -0.1091 -0.8925
  768MOL0     C 5856   4.001   2.375   0.996  1.1781 -1.0264  0.0048
  768MOL0     C 5857   4.141   2.355   1.065  0.3804 -0.4091  0.5841
  768MOL0     C 5858   4.205   2.491   1.089  0.2140  0.5190  0.6516
  768MOL0     C 5859   4.352   2.479   1.122 -0.0386  0.1595 -0.4731
  768MOL0     C 5860   4.410   2.616   1.121 -0.4303  0.4288 -0.1540
  768MOL0     C 5861   4.559   2.593   1.178  0.2348 -0.3319  0.4141
  768MOL0     C 5862   4.655   2.717   1.154 -0.6206  0.4496 -0.6561
  768MOL0     N 5863   4.795   2.689   1.191  0.0960 -0.4864 -0.2792
  768MOL0     C 5864   4.897   2.641   1.123 -1.0766  0.4697  0.3856
  768MOL0     C 5865   5.006   2.663   1.193  0.5435 -0.2900 -0.3985
  768MOL0     C 5866   5.145   2.650   1.135  0.2119  0.1054 -0.3153
  768MOL0     C 5867   5.210   2.502   1.140  0.7420  0.1320  1.0191
  768MOL0     C 5868   5.127   2.408   1.048 -0.0816  0.5454 -0.1805
  768MOL0     C 5869   5.184   2.268   1.048 -0.4033  0.0260 -0.2477
  768MOL0     O 5870   5.321   2.253   0.997 -0.3594 -0.7218 -0.0407
  768MOL0     C 5871   5.350   2.204   0.874 -0.0514  0.1473 -0.2108
  768MOL0     C 5872   5.477   2.243   0.818  0.3234 -0.1985 -0.0857
  768MOL0     C 5873   5.514   2.202   0.690  0.6112  0.1534 -0.2050
  768MOL0     C 5874   5.650   2.230   0.631 -0.2444  0.2547  0.2393
  768MOL0     C 5875   5.430   2.116   0.610 -0.0192 -0.3882  0.5250
  768MOL0     C 5876   5.464   2.071   0.470  0.4367 -0.6474  0.1143
  768MOL0     O 5877   5.507   2.170   0.383  0.1263  0.4800 -0.6508
  768MOL0     C 5878   5.560   2.129   0.265  0.4140  0.0460  1.5710
  768MOL0     C 5879   5.639   2.017   0.252 -0.1523 -0.5973  0.2137
  768MOL0     C 5880   5.672   1.975   0.124 -0.1966  0.0260 -0.3274
  768MOL0     C 5881   5.648   2.052   0.007 -0.0205  0.3576 -1.4883
  768MOL0     O 5882   5.682   1.994  -0.113  0.0365 -0.1332 -0.2324
  768MOL0     C 5883   5.786   2.056  -0.195  0.1154 -0.7097 -0.8079
  768MOL0     C 5884   5.924   2.037  -0.131  0.5404 -0.7900  1.5857
  768MOL0     C 5885   6.029   2.096  -0.229  0.1243 -0.2339  0.2247
  768MOL0     C 5886   6.174   2.077  -0.178  0.8083 -0.2272  0.5303
  768MOL0     C 5887   6.263   1.977  -0.265  0.7772 -0.4408  0.3009
  768MOL0     C 5888   6.317   1.872  -0.158  0.4686 -0.8858  0.1222
  768MOL0     C 5889   6.401   1.769  -0.229  0.6352  0.1079  0.8555
  768MOL0     C 5890   6.448   1.650  -0.145 -0.1972 -0.5544 -0.3804
  768MOL0    Cl 5891   6.602   1.693  -0.072 -0.4017 -0.5376 -0.2034
  768MOL0     C 5892   5.589   2.172   0.029  0.7126  0.4632  0.1888
  768MOL0     C 5893   5.535   2.209   0.155  0.1523  0.5184 -0.1350
  768MOL0     O 5894   5.426   1.959   0.439  0.3738 -0.1980 -0.3705
  768MOL0     C 5895   5.308   2.082   0.671  0.0968  0.5358 -0.6411
  768MOL0     C 5896   5.261   2.126   0.794 -0.6929 -0.1557 -0.1698
  768MOL0     N 5897   4.969   2.698   1.320  0.9375 -0.5319  0.0621
  768MOL0     N 5898   4.842   2.716   1.315  1.0229  0.3511 -0.2525
  768MOL0     C 5899   3.834   2.706   1.251 -0.3620  0.5461 -0.0977
  768MOL0     C 5900   3.745   2.787   1.323 -0.3851 -0.5497  0.2606
  768MOL0     C 5901   3.361   2.880   1.570  0.6158 -0.6709  0.2047
  768MOL0     C 5902   3.420   2.935   1.682 -0.1832 -0.5670  0.1549
  768MOL0     C 5903   3.340   3.010   1.766 -0.7077  0.3187 -0.6233
  768MOL0     C 5904   3.203   3.029   1.744 -0.3466  0.0081 -0.7191
  768MOL0     O 5905   3.134   3.117   1.823 -0.8348 -0.2430  0.0627
  768MOL0     C 5906   2.995   3.133   1.811 -0.2097  0.2426  0.5926
  768MOL0     C 5907   2.940   3.218   1.922  0.4025 -0.3573  0.2791
  768MOL0     C 5908   2.953   3.157   2.061  0.6954 -0.7325  0.1158
  768MOL0     C 5909   2.870   3.233   2.167  0.4029  0.6759 -0.8206
  768MOL0     C 5910   2.918   3.179   2.293  0.8024 -0.4338 -1.3782
  768MOL0     C 5911   2.935   3.112   2.396  0.0445 -0.4862  0.3694
  768MOL0     C 5912   3.149   2.961   1.638  0.6471  0.5388 -0.3367
  768MOL0     C 5913   3.220   2.900   1.540  0.6185  1.0098 -0.3810
  768MOL0     C 5914   3.143   2.861   1.416  0.5058  0.2261  0.5998
  768MOL0     H 5915   3.586   2.556   1.506 -0.0734 -0.5117  0.2440
  768MOL0     H 5916   3.743   2.411   1.368  0.3766 -0.2285 -2.5616
  768MOL0     H 5917   3.938   2.580   1.023  0.2055  1.3214  1.3173
  768MOL0     H 5918   3.808   2.458   1.028  1.5651  0.3399 -1.3282
  768MOL0     H 5919   3.958   2.276   1.012  0.2065 -0.4609  1.0898
  768MOL0     H 5920   4.000   2.399   0.890  0.3515 -0.9717  0.0162
  768MOL0     H 5921   4.115   2.307   1.160 -2.8139  0.8858  0.5009
  768MOL0     H 5922   4.203   2.289   1.003 -2.3483 -2.3395 -0.2804
  768MOL0     H 5923   4.183   2.554   1.002 -0.1757  3.3066  2.6284
  768MOL0     H 5924   4.165   2.550   1.171 -1.0255  2.3081 -1.1342
  768MOL0     H 5925   4.401   2.410   1.052  0.7723 -0.3117  0.5413
  768MOL0     H 5926   4.369   2.432   1.219 -0.9144  1.4306  0.3289
  768MOL0     H 5927   4.413   2.656   1.019 -0.1042  0.8313  0.0110
  768MOL0     H 5928   4.348   2.694   1.168  1.1931  3.6566 -2.9621
  768MOL0     H 5929   4.611   2.514   1.122  0.2566  0.3550 -0.5583
  768MOL0     H 5930   4.553   2.558   1.281 -1.5157 -1.0429  0.1104
  768MOL0     H 5931   4.651   2.742   1.048 -0.8643  0.2506 -0.6952
  768MOL0     H 5932   4.616   2.798   1.217 -2.1435 -0.3328 -0.5276
  768MOL0     H 5933   4.898   2.607   1.020  0.8050  0.9768  0.2138
  768MOL0     H 5934   5.197   2.716   1.206 -1.7285  2.5192 -0.9892
  768MOL0     H 5935   5.150   2.696   1.036  0.7058 -1.5563 -1.0994
  768MOL0     H 5936   5.316   2.507   1.115  0.7983  5.4308  1.0984
  768MOL0     H 5937   5.207   2.480   1.247 -0.3094  0.6563  1.1162
  768MOL0     H 5938   5.021   2.405   1.074 -0.5161  0.0966 -1.9018
  768MOL0     H 5939   5.133   2.446   0.946  0.5242 -1.3489 -0.9028
  768MOL0     H 5940   5.176   2.213   1.142  1.4862  1.1584  0.6452
  768MOL0     H 5941   5.114   2.214   0.984 -0.8924 -0.5198  0.7332
  768MOL0     H 5942   5.547   2.308   0.870 -1.4019 -0.1361  2.2895
  768MOL0     H 5943   5.693   2.141   0.585 -2.1038 -1.3327  1.3672
  768MOL0     H 5944   5.720   2.253   0.712 -1.6580 -2.1227  2.2985
  768MOL0     H 5945   5.638   2.311   0.559 -0.2065 -1.4589 -1.7718
  768MOL0     H 5946   5.659   1.953   0.337 -2.5413 -1.9697 -0.1698
  768MOL0     H 5947   5.729   1.885   0.103 -1.1076 -0.3647 -1.1922
  768MOL0     H 5948   5.777   2.012  -0.294  0.0401  0.9007 -1.5484
  768MOL0     H 5949   5.779   2.164  -0.208  2.3650 -0.6533 -1.9482
  768MOL0     H 5950   5.921   2.081  -0.031  0.0869 -3.4366  2.8174
  768MOL0     H 5951   5.941   1.929  -0.130  1.0925 -0.8316 -1.8613
  768MOL0     H 5952   6.003   2.201  -0.242  1.9542  0.1165 -0.9168
  768MOL0     H 5953   6.020   2.040  -0.323 -1.3573  0.6298 -0.1822
  768MOL0     H 5954   6.191   2.081  -0.070 -2.7058  1.0308  1.1767
  768MOL0     H 5955   6.214   2.175  -0.205 -2.1893  0.7010 -1.0588
  768MOL0     H 5956   6.204   1.926  -0.341 -1.3632 -1.7080  2.6451
  768MOL0     H 5957   6.343   2.025  -0.322  2.5362 -4.6373 -1.1046
  768MOL0     H 5958   6.235   1.828  -0.100  1.8144 -1.4726  1.6821
  768MOL0     H 5959   6.387   1.921  -0.090 -0.5838  0.8836 -0.0031
  768MOL0     H 5960   6.487   1.825  -0.267  1.7102 -0.4674  2.3537
  768MOL0     H 5961   6.334   1.723  -0.303  1.6395 -0.7726  0.4562
  768MOL0     H 5962   6.468   1.561  -0.207  0.9223 -0.8128  0.3315
  768MOL0     H 5963   6.379   1.613  -0.069  1.9398 -1.0765  1.4095
  768MOL0     H 5964   5.581   2.238  -0.057 -0.8153  2.6105  1.8518
  768MOL0     H 5965   5.488   2.306   0.167 -0.9428  0.2259 -1.7170
  768MOL0     H 5966   5.249   2.019   0.605  0.5487  0.8464 -1.3541
  768MOL0     H 5967   5.166   2.086   0.828 -0.2076  0.6474  2.3313
  768MOL0     H 5968   3.911   2.760   1.197 -2.3290 -0.0234 -3.7780
  768MOL0     H 5969   3.771   2.892   1.333  4.0949 -1.4953  0.5982
  768MOL0     H 5970   3.528   2.926   1.690  0.2192 -0.2783 -3.2372
  768MOL0     H 5971   3.387   3.054   1.853 -2.1111 -2.6993  1.8438
  768MOL0     H 5972   2.981   3.183   1.715  1.8496  0.3880  0.3075
  768MOL0     H 5973   2.939   3.040   1.798 -1.2995  1.1483 -1.8134
  768MOL0     H 5974   2.834   3.234   1.905  0.8192  1.9760 -0.4242
  768MOL0     H 5975   2.983   3.318   1.909 -1.4705  0.2946 -1.4198
  768MOL0     H 5976   2.918   3.054   2.064 -0.2843 -0.3980  1.3408
  768MOL0     H 5977   3.057   3.167   2.094  0.2439 -0.3525  1.5218
  768MOL0     H 5978   2.761   3.221   2.164 -0.2233  4.7530 -0.1656
  768MOL0     H 5979   2.886   3.341   2.154  2.3286  0.7704  1.5646
  768MOL0     H 5980   2.941   3.051   2.483 -1.8068  0.0868  0.9394
  768MOL0     H 5981   3.042   2.970   1.624  0.8247  0.9692 -1.5543
  768MOL0     H 5982   3.205   2.874   1.327 -1.9275  2.1521 -0.9397
  768MOL0     H 5983   3.095   2.763   1.414 -4.4412  2.3417 -2.0187
  768MOL0     H 5984   3.064   2.935   1.399 -0.7029 -0.4088  3.0402
  769MOL0     O 5985   1.773   3.414   6.812 -0.6846  0.5522  0.3284
  769MOL0     C 5986   1.718   3.494   6.882 -0.6852  0.6723  0.2054
  769MOL0     O 5987   1.761   3.538   7.001  0.6345 -0.7678  0.4060
  769MOL0     C 5988   1.881   3.478   7.048  0.1859 -0.3432 -0.6495
  769MOL0     C 5989   2.004   3.480   6.981  0.1925 -0.3492  1.0673
  769MOL0     C 5990   2.119   3.424   7.027 -0.0180  0.0405 -0.4675
  769MOL0     C 5991   2.119   3.362   7.154  0.6200 -0.7120 -0.1426
  769MOL0     O 5992   2.237   3.304   7.201  0.3365 -0.2240  0.2944
  769MOL0     C 5993   2.270   3.323   7.337 -0.5991 -0.3283 -0.5411
  769MOL0     C 5994   2.414   3.280   7.367 -0.0773  0.7354  0.4499
  769MOL0     C 5995   2.416   3.133   7.403  0.3077 -0.1760 -0.1238
  769MOL0     C 5996   2.549   3.068   7.365 -0.4440 -0.2787  1.1559
  769MOL0     C 5997   2.674   3.143   7.435  0.3029 -0.4634  0.6317
  769MOL0     C 5998   2.676   3.135   7.584  0.1531 -0.1525 -0.5928
  769MOL0     C 5999   2.811   3.211   7.634 -0.1293 -0.1992 -0.7138
  769MOL0     C 6000   2.810   3.241   7.785  0.7805  0.5341  0.1660
  769MOL0     N 6001   2.915   3.332   7.836 -0.1814 -0.5009  0.3973
  769MOL0     C 6002   3.052   3.322   7.826  0.6962  0.2221  0.3278
  769MOL0     C 6003   3.087   3.426   7.912  0.4175 -0.1015  0.4044
  769MOL0     C 6004   3.229   3.447   7.954 -1.1626 -0.5426 -0.1609
  769MOL0     C 6005   3.237   3.448   8.115 -0.2025 -0.2896  1.2786
  769MOL0     C 6006   3.225   3.588   8.168  0.2006 -0.0251  0.0106
  769MOL0     C 6007   3.188   3.595   8.308  0.1124  0.5243 -0.6390
  769MOL0     O 6008   3.297   3.540   8.394  0.5047  0.5779  0.6499
  769MOL0     C 6009   3.417   3.613   8.399 -0.1255 -0.2118 -0.9889
  769MOL0     C 6010   3.424   3.749   8.353  0.4856 -0.1215  0.1943
  769MOL0     C 6011   3.540   3.826   8.384 -1.1771  0.1876  0.1069
  769MOL0     C 6012   3.536   3.978   8.359  0.2294  0.2172  0.0287
  769MOL0     C 6013   3.657   3.760   8.439 -0.1861  0.5596 -0.0052
  769MOL0     C 6014   3.787   3.832   8.471 -0.0643  0.5730 -0.6540
  769MOL0     O 6015   3.811   3.953   8.416 -0.9226  0.0464 -0.3299
  769MOL0     C 6016   3.924   4.033   8.423 -0.0602 -0.2005 -0.5214
  769MOL0     C 6017   4.050   3.995   8.472 -0.5739 -0.6063  0.3930
  769MOL0     C 6018   4.163   4.080   8.470  0.6947  0.1284 -0.4093
  769MOL0     C 6019   4.156   4.211   8.428  1.0468  0.5177 -0.6475
  769MOL0     O 6020   4.276   4.280   8.419 -0.3623 -0.5667  0.5342
  769MOL0     C 6021   4.253   4.419   8.424 -0.8196  0.0173 -0.3026
  769MOL0     C 6022   4.391   4.495   8.450  0.4769 -0.0870  0.1711
  769MOL0     C 6023   4.373   4.647   8.481 -0.5378  0.8881  0.1776
  769MOL0     C 6024   4.512   4.693   8.523  0.3616  0.4932 -0.2537
  769MOL0     C 6025   4.508   4.849   8.538  0.7202  0.1205  0.1232
  769MOL0     C 6026   4.643   4.912   8.536 -0.0974 -0.9083  0.5961
  769MOL0     C 6027   4.612   5.065   8.545  0.2206 -0.0175 -0.7825
  769MOL0     C 6028   4.741   5.142   8.530  0.6801 -0.5767  0.6227
  769MOL0    Cl 6029   4.687   5.322   8.498 -0.1363  0.3810 -0.0165
  769MOL0     C 6030   4.022   4.253   8.389  0.1982 -1.2622  0.5566
  769MOL0     C 6031   3.915   4.164   8.391  0.4604 -1.4373  0.9621
  769MOL0     O 6032   3.870   3.767   8.527 -0.1495  0.4335  0.1421
  769MOL0     C 6033   3.639   3.627   8.462 -0.1449  0.0528 -0.9265
  769MOL0     C 6034   3.523   3.555   8.449 -0.0525 -0.0804  0.7239
  769MOL0     N 6035   2.979   3.494   7.962 -0.1934  0.3625  0.2354
  769MOL0     N 6036   2.885   3.440   7.903  0.4389 -0.4162 -0.9804
  769MOL0     C 6037   1.997   3.372   7.233  0.2907  1.0229 -1.2543
  769MOL0     C 6038   1.883   3.431   7.180  0.1790  0.6755  0.2016
  769MOL0     C 6039   1.598   3.563   6.827 -2.0547  0.9514  0.0932
  769MOL0     C 6040   1.576   3.697   6.864 -0.0259 -0.2395 -0.8569
  769MOL0     C 6041   1.462   3.771   6.816 -0.0617 -0.4637 -0.3370
  769MOL0     C 6042   1.371   3.705   6.729  0.2893  0.2211  0.3331
  769MOL0     O 6043   1.247   3.755   6.693  0.4554 -0.7208 -0.6637
  769MOL0     C 6044   1.203   3.878   6.766  0.1594  1.0291  0.8603
  769MOL0     C 6045   1.068   3.921   6.707  0.2465 -0.1181 -1.2564
  769MOL0     C 6046   1.094   3.977   6.571  0.9866 -0.6170  0.3780
  769MOL0     C 6047   0.958   4.019   6.506 -0.3633 -0.1416  0.3820
  769MOL0     C 6048   0.903   4.136   6.572  0.0440  0.1370  0.2187
  769MOL0     C 6049   0.878   4.241   6.626 -0.8876  0.0808 -0.8802
  769MOL0     C 6050   1.394   3.574   6.692 -0.5160  0.7961 -0.5625
  769MOL0     C 6051   1.509   3.501   6.735 -0.5191  0.5311 -0.2533
  769MOL0     C 6052   1.505   3.360   6.695  0.2533 -0.5231 -0.0480
  769MOL0     H 6053   1.994   3.529   6.885  1.7853 -3.1554 -0.6442
  769MOL0     H 6054   2.217   3.423   6.980  0.5524 -1.7495  0.6519
  769MOL0     H 6055   2.200   3.271   7.403 -1.4252  0.6961 -0.5700
  769MOL0     H 6056   2.254   3.425   7.373 -1.5559 -1.1784  1.5976
  769MOL0     H 6057   2.473   3.309   7.280  0.4004 -0.3368  0.4023
  769MOL0     H 6058   2.452   3.329   7.457  0.2458  0.0325  0.6994
  769MOL0     H 6059   2.396   3.109   7.507 -0.1860 -0.3680 -0.2614
  769MOL0     H 6060   2.341   3.085   7.339 -1.3270 -1.3356  2.5354
  769MOL0     H 6061   2.550   2.961   7.389 -0.9254  0.3306  4.2974
  769MOL0     H 6062   2.557   3.068   7.256  1.3746  2.7166  1.1919
  769MOL0     H 6063   2.666   3.250   7.413 -1.7039 -0.8473 -0.6816
  769MOL0     H 6064   2.768   3.105   7.394 -1.0968 -4.5616  0.8327
  769MOL0     H 6065   2.587   3.181   7.628  0.4142  1.2578 -1.4619
  769MOL0     H 6066   2.695   3.031   7.612  2.0107  0.8021  2.0031
  769MOL0     H 6067   2.822   3.307   7.583 -0.8259  0.2245 -0.0822
  769MOL0     H 6068   2.893   3.140   7.618  0.6304  0.7335 -1.1369
  769MOL0     H 6069   2.714   3.287   7.809  0.3454  0.6705 -1.7033
  769MOL0     H 6070   2.807   3.145   7.839 -0.7850  0.7985  0.6001
  769MOL0     H 6071   3.117   3.249   7.780  0.3130 -0.3356  0.6507
  769MOL0     H 6072   3.273   3.540   7.919 -0.8605 -0.3174  0.7781
  769MOL0     H 6073   3.294   3.363   7.929 -0.3250 -0.1899  0.7485
  769MOL0     H 6074   3.160   3.384   8.160 -1.9116  1.1528  0.5223
  769MOL0     H 6075   3.337   3.409   8.135  0.9228  0.5864 -1.9526
  769MOL0     H 6076   3.328   3.621   8.150 -0.4255  1.1903 -1.5607
  769MOL0     H 6077   3.158   3.651   8.109  0.3542  0.5844  0.4692
  769MOL0     H 6078   3.158   3.694   8.344  2.9958  1.4074 -0.4750
  769MOL0     H 6079   3.103   3.525   8.315  1.3039 -0.9339 -0.1440
  769MOL0     H 6080   3.337   3.805   8.321  1.2575  1.2868  0.4701
  769MOL0     H 6081   3.592   4.008   8.270  4.1168 -0.9499  1.8408
  769MOL0     H 6082   3.561   4.048   8.440  1.7764  0.4069 -0.5841
  769MOL0     H 6083   3.429   3.990   8.342  0.3629 -0.1756 -1.1325
  769MOL0     H 6084   4.075   3.899   8.517 -1.3540 -2.2585 -2.3929
  769MOL0     H 6085   4.258   4.037   8.501 -0.8905 -0.4964  4.4845
  769MOL0     H 6086   4.200   4.450   8.333 -1.5135  1.2345  0.4883
  769MOL0     H 6087   4.198   4.445   8.515  0.9483  1.4800  0.4043
  769MOL0     H 6088   4.433   4.442   8.536 -1.0016  0.7516  1.4597
  769MOL0     H 6089   4.456   4.485   8.363  1.4690  2.5758  0.5185
  769MOL0     H 6090   4.304   4.679   8.559  1.0134  3.5138  0.5962
  769MOL0     H 6091   4.341   4.694   8.387  0.4711 -0.0545 -0.6756
  769MOL0     H 6092   4.594   4.658   8.460  0.0342 -1.2753  0.2621
  769MOL0     H 6093   4.528   4.653   8.624 -1.9394 -1.3887 -0.5493
  769MOL0     H 6094   4.445   4.891   8.458 -2.1508 -0.3604  1.9695
  769MOL0     H 6095   4.454   4.873   8.630 -0.7982  0.0485 -0.7037
  769MOL0     H 6096   4.699   4.897   8.443  1.7035  0.8004  1.3324
  769MOL0     H 6097   4.710   4.870   8.611 -1.8211 -1.2409  2.0099
  769MOL0     H 6098   4.575   5.104   8.640  1.0116 -1.9918  0.3761
  769MOL0     H 6099   4.543   5.089   8.463  0.4105  2.8843 -0.1918
  769MOL0     H 6100   4.820   5.094   8.472  2.5195 -0.0208  2.5116
  769MOL0     H 6101   4.789   5.146   8.628  2.1796 -1.6087 -0.0271
  769MOL0     H 6102   3.993   4.353   8.357 -0.9662 -2.2130 -1.5652
  769MOL0     H 6103   3.818   4.187   8.348  0.7122 -2.4958 -0.2391
  769MOL0     H 6104   3.730   3.586   8.504  0.5318  0.4573 -1.9767
  769MOL0     H 6105   3.511   3.451   8.479  1.2536 -0.3341  0.4332
  769MOL0     H 6106   2.001   3.332   7.333 -1.1632 -3.6013 -2.7834
  769MOL0     H 6107   1.799   3.443   7.249  0.4229 -1.5369  0.9448
  769MOL0     H 6108   1.643   3.744   6.936  0.2546  0.9530 -1.8529
  769MOL0     H 6109   1.440   3.869   6.857  2.0969  0.6580 -1.6163
  769MOL0     H 6110   1.176   3.844   6.866 -3.0405 -0.8921 -0.4751
  769MOL0     H 6111   1.274   3.961   6.772  1.6314  0.1126 -1.6937
  769MOL0     H 6112   1.027   3.988   6.783  1.5244 -0.8025  0.0816
  769MOL0     H 6113   1.000   3.835   6.697  1.0749 -0.7778 -1.2918
  769MOL0     H 6114   1.155   4.068   6.568  4.4269 -2.7736 -0.2671
  769MOL0     H 6115   1.150   3.907   6.510  0.5763 -0.8287  0.2419
  769MOL0     H 6116   0.882   3.941   6.513 -0.1650 -0.8444 -3.1518
  769MOL0     H 6117   0.967   4.044   6.400  0.0600  0.8531  0.6364
  769MOL0     H 6118   0.866   4.333   6.681 -2.4497  0.3187 -1.5650
  769MOL0     H 6119   1.330   3.518   6.624 -0.1896 -0.4477  0.1349
  769MOL0     H 6120   1.489   3.310   6.791  0.3496  1.4880  1.0640
  769MOL0     H 6121   1.430   3.338   6.619  0.4198  0.5792 -0.5437
  769MOL0     H 6122   1.599   3.332   6.646  0.8758  0.4114  0.5770
  770MOL0     O 6123   8.834  10.967   2.750  0.1342  0.1178 -0.6761
  770MOL0     C 6124   8.851  10.906   2.644  0.7569  0.3617 -0.2732
  770MOL0     O 6125   8.771  10.809   2.593  0.2467  0.3253 -0.5459
  770MOL0     C 6126   8.681  10.753   2.674  0.7597  0.4930 -0.2233
  770MOL0     C 6127   8.569  10.824   2.714  0.6383  0.1514 -0.1920
  770MOL0     C 6128   8.475  10.767   2.799 -0.6225 -0.1859 -0.0462
  770MOL0     C 6129   8.495  10.633   2.843 -0.2246 -0.2921 -0.6264
  770MOL0     O 6130   8.414  10.559   2.924 -0.3790 -0.1749  0.2805
  770MOL0     C 6131   8.327  10.637   3.012  0.5425 -0.4377  0.3275
  770MOL0     C 6132   8.237  10.541   3.093 -0.4259  0.0843  0.7656
  770MOL0     C 6133   8.092  10.595   3.118  0.0065  0.1514  0.9247
  770MOL0     C 6134   7.986  10.493   3.156  0.4016  0.9313 -0.0530
  770MOL0     C 6135   7.857  10.554   3.202 -0.2724 -0.5705 -0.2725
  770MOL0     C 6136   7.754  10.456   3.257  0.2964  0.0427 -0.9435
  770MOL0     C 6137   7.626  10.525   3.312  0.7999  0.3373 -1.0676
  770MOL0     C 6138   7.635  10.556   3.454 -0.0969  0.4829 -0.0184
  770MOL0     N 6139   7.639  10.425   3.532  0.1158  0.5332  0.3664
  770MOL0     C 6140   7.733  10.399   3.631  0.1045  0.0717  0.6707
  770MOL0     C 6141   7.685  10.287   3.695 -0.2421  0.2823 -0.1822
  770MOL0     C 6142   7.760  10.210   3.803 -0.0993 -0.1824  0.0303
  770MOL0     C 6143   7.712  10.066   3.811 -0.6117 -0.2687  0.5879
  770MOL0     C 6144   7.769   9.995   3.938  0.2064 -0.0009  0.3514
  770MOL0     C 6145   7.739   9.844   3.937 -0.0424 -0.0344  0.0177
  770MOL0     O 6146   7.780   9.773   3.815 -0.5643  0.0935 -0.0361
  770MOL0     C 6147   7.913   9.764   3.810 -0.4188 -0.3951  0.5287
  770MOL0     C 6148   7.995   9.680   3.893 -0.8394 -0.4407  0.1599
  770MOL0     C 6149   8.138   9.683   3.876  0.2040  0.2231 -0.8889
  770MOL0     C 6150   8.228   9.610   3.974  0.1132 -0.0337 -0.2109
  770MOL0     C 6151   8.196   9.765   3.772  0.4889  0.3845 -0.5596
  770MOL0     C 6152   8.344   9.776   3.761 -0.0138 -0.2060 -0.5139
  770MOL0     O 6153   8.397   9.900   3.773  0.0716 -0.1110  1.3703
  770MOL0     C 6154   8.530   9.917   3.756 -0.7921  0.2164 -0.3329
  770MOL0     C 6155   8.610   9.855   3.863  0.8518 -0.9723 -0.3801
  770MOL0     C 6156   8.754   9.892   3.869  0.5961  0.4028 -0.6641
  770MOL0     C 6157   8.808   9.978   3.776  0.5304 -0.1926  0.3531
  770MOL0     O 6158   8.934  10.031   3.797 -0.2968  0.4724 -0.2533
  770MOL0     C 6159   9.034   9.938   3.745  0.2084 -0.6815 -0.0973
  770MOL0     C 6160   9.133  10.015   3.669 -0.1524  0.6152 -0.2416
  770MOL0     C 6161   9.205   9.941   3.557  0.4503  0.0243 -0.0640
  770MOL0     C 6162   9.293   9.822   3.602 -0.1956 -0.8126 -0.6172
  770MOL0     C 6163   9.354   9.750   3.489  0.6656  0.2751 -0.3172
  770MOL0     C 6164   9.486   9.797   3.442 -0.1045 -0.7054 -0.6297
  770MOL0     C 6165   9.544   9.718   3.319 -0.9590  0.4475  0.3311
  770MOL0     C 6166   9.684   9.664   3.322  0.4124 -0.0961 -0.0874
  770MOL0    Cl 6167   9.734   9.625   3.172  0.1121  0.0887  0.1876
  770MOL0     C 6168   8.722  10.032   3.668 -0.0268  0.7613  0.1957
  770MOL0     C 6169   8.583  10.000   3.651 -0.6147  0.2016  0.1119
  770MOL0     O 6170   8.406   9.676   3.748  0.0349  0.1706  0.0995
  770MOL0     C 6171   8.118   9.837   3.694  0.7135  0.0061  0.5803
  770MOL0     C 6172   7.977   9.843   3.712  0.0308  0.8992 -0.6467
  770MOL0     N 6173   7.571  10.246   3.630  0.4959  0.2559 -0.4796
  770MOL0     N 6174   7.551  10.322   3.530 -0.1384 -0.4959  0.4553
  770MOL0     C 6175   8.611  10.562   2.805  0.1162 -0.5290 -0.0212
  770MOL0     C 6176   8.698  10.618   2.719  0.9664  0.4836  0.1700
  770MOL0     C 6177   8.954  10.958   2.544  0.3685 -0.3379  0.2849
  770MOL0     C 6178   8.973  10.881   2.428  0.6110 -0.2865  0.3328
  770MOL0     C 6179   9.063  10.918   2.330  0.4358 -0.4969  0.2482
  770MOL0     C 6180   9.134  11.040   2.339  0.9932  0.2298 -0.2393
  770MOL0     O 6181   9.207  11.092   2.239 -0.4173 -0.1172  0.1695
  770MOL0     C 6182   9.307  11.002   2.195 -0.5003  0.2490  0.3310
  770MOL0     C 6183   9.402  10.958   2.305  0.2946  0.3213  0.6762
  770MOL0     C 6184   9.478  11.061   2.383 -0.6886 -0.3215 -0.4141
  770MOL0     C 6185   9.565  11.001   2.484  0.3032  0.3221 -0.5167
  770MOL0     C 6186   9.494  10.955   2.606 -0.5784 -1.0132 -0.7205
  770MOL0     C 6187   9.444  10.918   2.709 -0.2803  0.2048  0.1244
  770MOL0     C 6188   9.117  11.115   2.457 -0.2049 -0.0605 -0.1742
  770MOL0     C 6189   9.030  11.077   2.557 -0.1321  0.4918  0.5293
  770MOL0     C 6190   9.033  11.166   2.678  0.1476  0.9051 -0.6625
  770MOL0     H 6191   8.540  10.922   2.676 -0.4925 -0.3802 -0.7819
  770MOL0     H 6192   8.391  10.832   2.822 -1.2960 -1.0556 -0.0167
  770MOL0     H 6193   8.263  10.703   2.953 -0.8802 -0.6553  1.5757
  770MOL0     H 6194   8.390  10.701   3.074  0.9588  0.6813 -1.1978
  770MOL0     H 6195   8.235  10.444   3.043  1.2386 -1.1518  2.8809
  770MOL0     H 6196   8.291  10.512   3.184  0.7506 -0.7401 -0.1658
  770MOL0     H 6197   8.104  10.678   3.188 -0.9546  1.2604 -0.1738
  770MOL0     H 6198   8.053  10.634   3.023  3.5039 -0.7398 -1.0898
  770MOL0     H 6199   7.965  10.421   3.075 -0.7040  1.3738 -0.1807
  770MOL0     H 6200   8.039  10.439   3.235 -1.1053  1.2295  1.2222
  770MOL0     H 6201   7.815  10.619   3.124 -2.4257  0.8138  1.9156
  770MOL0     H 6202   7.871  10.623   3.285  0.2001 -1.3856  0.3329
  770MOL0     H 6203   7.715  10.400   3.171 -3.4064  3.2790 -1.6650
  770MOL0     H 6204   7.797  10.387   3.330  0.1575  1.7397  0.8217
  770MOL0     H 6205   7.546  10.453   3.294  1.7195 -1.1205  0.4257
  770MOL0     H 6206   7.591  10.616   3.261 -1.2549  0.7639  0.9249
  770MOL0     H 6207   7.716  10.619   3.491  1.2571 -1.0952 -0.1779
  770MOL0     H 6208   7.542  10.599   3.492 -0.8419 -2.8262  2.4195
  770MOL0     H 6209   7.820  10.452   3.669  0.8255 -2.2792  2.4902
  770MOL0     H 6210   7.743  10.258   3.900 -0.0294 -2.8836  1.4690
  770MOL0     H 6211   7.867  10.204   3.781 -0.5055  1.4084 -2.9197
  770MOL0     H 6212   7.602  10.064   3.815 -0.7718 -2.0226 -2.2566
  770MOL0     H 6213   7.737  10.023   3.714 -0.5371  0.1426  0.4199
  770MOL0     H 6214   7.878   9.997   3.927  0.1800  0.0647  0.0976
  770MOL0     H 6215   7.740  10.048   4.029  0.7320 -2.2808  1.9421
  770MOL0     H 6216   7.776   9.790   4.025 -3.0194 -1.6507  0.4292
  770MOL0     H 6217   7.633   9.825   3.960 -0.0566 -1.5909 -1.1127
  770MOL0     H 6218   7.951   9.610   3.965  0.4776 -1.4235  0.0406
  770MOL0     H 6219   8.257   9.518   3.923  0.0758  2.0800 -4.4782
  770MOL0     H 6220   8.181   9.602   4.073  2.3936  1.6485  1.1027
  770MOL0     H 6221   8.324   9.662   3.983 -0.3025  0.3993  5.1084
  770MOL0     H 6222   8.574   9.786   3.939  0.5391  0.4028  0.7669
  770MOL0     H 6223   8.806   9.854   3.956 -0.2671  0.4932 -0.0903
  770MOL0     H 6224   9.084   9.887   3.828 -0.8626 -3.1519 -0.8682
  770MOL0     H 6225   8.989   9.860   3.683  3.3048 -1.5657 -1.4467
  770MOL0     H 6226   9.091  10.106   3.624  0.0006  0.1383 -1.3934
  770MOL0     H 6227   9.208  10.033   3.747  0.0536  2.0391 -0.7341
  770MOL0     H 6228   9.259  10.010   3.491  0.5103 -0.4484 -0.5137
  770MOL0     H 6229   9.134   9.900   3.484 -2.7343  2.6829  1.2509
  770MOL0     H 6230   9.225   9.760   3.662 -0.6635  0.2582 -0.0103
  770MOL0     H 6231   9.370   9.838   3.678 -0.8192 -1.9758  0.3027
  770MOL0     H 6232   9.366   9.644   3.515  0.4089  0.4923  0.7413
  770MOL0     H 6233   9.280   9.754   3.409  1.6573 -0.0779 -1.2698
  770MOL0     H 6234   9.556   9.808   3.526  1.8371 -2.6850 -1.8713
  770MOL0     H 6235   9.464   9.899   3.411 -1.0977  0.0607  2.2930
  770MOL0     H 6236   9.527   9.784   3.233 -0.8301 -2.1630 -1.8184
  770MOL0     H 6237   9.479   9.630   3.314 -2.3337  1.4465 -0.3266
  770MOL0     H 6238   9.695   9.580   3.391  1.5619  1.6359  1.9736
  770MOL0     H 6239   9.750   9.741   3.363  0.8764  0.2729 -1.4852
  770MOL0     H 6240   8.774  10.109   3.612  1.0490  1.0519  1.5228
  770MOL0     H 6241   8.521  10.034   3.569 -0.5769  0.4002  0.1644
  770MOL0     H 6242   8.155   9.894   3.610 -1.7843  1.3164  0.2732
  770MOL0     H 6243   7.910   9.890   3.641 -2.9311 -0.5488  0.9906
  770MOL0     H 6244   8.636  10.460   2.831 -0.0503 -0.6013 -0.1450
  770MOL0     H 6245   8.789  10.565   2.693  0.0866  0.3426 -2.9486
  770MOL0     H 6246   8.926  10.784   2.422  1.7565 -0.9896  1.9016
  770MOL0     H 6247   9.074  10.864   2.237 -0.1108 -1.3217  0.6452
  770MOL0     H 6248   9.260  10.913   2.153  0.8933  0.0937 -1.0088
  770MOL0     H 6249   9.357  11.060   2.117 -2.1747  1.7413  0.3089
  770MOL0     H 6250   9.482  10.910   2.248  0.5518  1.7818 -0.2213
  770MOL0     H 6251   9.346  10.891   2.372 -2.3047  1.4270 -0.2455
  770MOL0     H 6252   9.547  11.120   2.323  1.8586 -2.4060  0.3285
  770MOL0     H 6253   9.414  11.135   2.432  1.1748  0.8814  0.3119
  770MOL0     H 6254   9.638  11.078   2.513 -0.5824  1.0134 -0.0617
  770MOL0     H 6255   9.624  10.921   2.438 -1.8820  0.5474 -4.0773
  770MOL0     H 6256   9.387  10.870   2.786 -0.1684 -2.1869 -1.1842
  770MOL0     H 6257   9.181  11.203   2.463 -2.9923  2.0778  0.4686
  770MOL0     H 6258   9.119  11.234   2.676 -1.4166  3.0529 -4.0228
  770MOL0     H 6259   8.941  11.225   2.691  0.1957  0.8382 -0.0019
  770MOL0     H 6260   9.043  11.098   2.762  2.7903  0.4418 -1.2711
  771MOL0     O 6261   9.004   6.155   0.378  1.2350  0.3156  0.4509
  771MOL0     C 6262   8.925   6.057   0.400  0.1573  0.7950  0.3532
  771MOL0     O 6263   8.866   6.016   0.516 -1.1298 -0.9728 -0.1105
  771MOL0     C 6264   8.894   6.105   0.622 -0.5956 -0.6658  0.0182
  771MOL0     C 6265   8.972   6.056   0.726  0.2729  0.4138 -0.5932
  771MOL0     C 6266   9.003   6.132   0.848  0.6980 -0.0127  0.2027
  771MOL0     C 6267   8.951   6.266   0.861 -0.6082 -0.3476  0.4612
  771MOL0     O 6268   8.991   6.361   0.957  0.0458 -0.2425 -0.7237
  771MOL0     C 6269   9.081   6.319   1.061 -0.2177  0.0638 -0.4939
  771MOL0     C 6270   9.123   6.423   1.160  0.3681  0.4722 -0.0039
  771MOL0     C 6271   9.220   6.524   1.104 -0.9170  0.0204  0.8446
  771MOL0     C 6272   9.214   6.651   1.180 -0.0437 -0.1387 -0.5939
  771MOL0     C 6273   9.300   6.750   1.100  0.3290 -0.5736  0.6751
  771MOL0     C 6274   9.312   6.883   1.176 -0.1738  0.1445 -0.2891
  771MOL0     C 6275   9.401   6.976   1.103 -0.0643  0.7090  0.3510
  771MOL0     C 6276   9.332   7.050   0.988 -0.8636 -0.1881  0.1476
  771MOL0     N 6277   9.247   7.162   1.041  0.0737  0.2195  0.9931
  771MOL0     C 6278   9.145   7.214   0.968 -0.4450  0.2717  0.3263
  771MOL0     C 6279   9.103   7.321   1.035 -0.0563  0.7240  0.2573
  771MOL0     C 6280   8.997   7.419   0.987  0.6796  0.0251  0.1514
  771MOL0     C 6281   9.057   7.563   0.966  1.1618  0.3898  0.1559
  771MOL0     C 6282   8.960   7.665   0.905  0.5003  0.6797  0.0057
  771MOL0     C 6283   8.998   7.809   0.904 -0.3107  0.1770 -0.8680
  771MOL0     O 6284   9.129   7.819   0.847 -0.1265 -0.1256  1.2201
  771MOL0     C 6285   9.202   7.925   0.888  0.8035  0.7745  0.4648
  771MOL0     C 6286   9.339   7.901   0.907 -0.0251  0.2734  0.3247
  771MOL0     C 6287   9.421   8.002   0.963  0.5932 -0.1374  1.0154
  771MOL0     C 6288   9.557   7.955   1.003  0.0485 -0.2400  1.2948
  771MOL0     C 6289   9.369   8.130   0.985 -0.0587 -0.1690  0.2355
  771MOL0     C 6290   9.451   8.248   1.036 -0.1900  0.5085  1.0769
  771MOL0     O 6291   9.589   8.260   1.009  0.1257  0.2718  0.2448
  771MOL0     C 6292   9.654   8.371   1.059  0.9403  0.3612 -0.3031
  771MOL0     C 6293   9.711   8.376   1.185  0.4756  0.1497 -0.0559
  771MOL0     C 6294   9.802   8.478   1.213  0.1993 -0.0410  0.1741
  771MOL0     C 6295   9.831   8.576   1.126 -0.1522 -0.0644 -0.4312
  771MOL0     O 6296   9.928   8.664   1.167 -0.3178 -0.6480 -0.1300
  771MOL0     C 6297   9.966   8.785   1.091  0.3462  0.3254 -0.4112
  771MOL0     C 6298   9.982   8.898   1.195 -0.4090 -0.4199 -0.2388
  771MOL0     C 6299   9.860   8.918   1.285  0.7882 -0.7761 -0.8571
  771MOL0     C 6300   9.733   8.948   1.213 -0.0648  0.6467 -0.1801
  771MOL0     C 6301   9.643   9.028   1.310  0.8093  0.1583  0.1258
  771MOL0     C 6302   9.582   8.945   1.422 -0.2549  0.5892 -0.0658
  771MOL0     C 6303   9.493   9.028   1.519 -1.0129 -0.3790 -0.3348
  771MOL0     C 6304   9.345   9.030   1.474  0.6230 -0.3962  0.0585
  771MOL0    Cl 6305   9.237   9.107   1.595 -0.4260  0.5956 -0.2646
  771MOL0     C 6306   9.758   8.585   1.005 -0.1576  0.4874  0.9712
  771MOL0     C 6307   9.668   8.479   0.970  0.1290 -0.4838 -0.8036
  771MOL0     O 6308   9.384   8.330   1.100 -0.4780  0.0110  0.0081
  771MOL0     C 6309   9.235   8.155   0.952  0.3425  0.0284  0.6595
  771MOL0     C 6310   9.154   8.055   0.910 -0.0624 -0.2287 -0.5602
  771MOL0     N 6311   9.169   7.329   1.149  0.4936  0.0399  0.0632
  771MOL0     N 6312   9.268   7.243   1.148  0.1947  0.4498 -0.6715
  771MOL0     C 6313   8.871   6.315   0.752 -0.3413 -0.1363  0.1410
  771MOL0     C 6314   8.846   6.235   0.629  0.7214  0.4598 -0.1414
  771MOL0     C 6315   8.900   5.971   0.285  1.0027 -0.1012 -0.0113
  771MOL0     C 6316   8.896   6.039   0.156 -0.4454  0.2918  0.0398
  771MOL0     C 6317   8.862   5.967   0.037  0.0616  0.8422 -0.9306
  771MOL0     C 6318   8.823   5.830   0.045  0.2185 -0.1645  0.0719
  771MOL0     O 6319   8.776   5.766  -0.062 -0.0255  0.4484  0.1053
  771MOL0     C 6320   8.772   5.830  -0.192  1.1035 -0.6421 -0.4363
  771MOL0     C 6321   8.724   5.741  -0.302  0.8418 -0.7534 -0.0663
  771MOL0     C 6322   8.789   5.597  -0.307 -0.2072 -0.3014  0.7026
  771MOL0     C 6323   8.944   5.583  -0.302 -0.5597  0.2149  0.6734
  771MOL0     C 6324   9.011   5.659  -0.414  0.4657 -0.4318 -0.2669
  771MOL0     C 6325   9.062   5.715  -0.510  0.6515  0.1643  1.1311
  771MOL0     C 6326   8.846   5.771   0.169 -0.2847  0.3106 -1.2965
  771MOL0     C 6327   8.881   5.834   0.288  1.4408  0.1931  0.5547
  771MOL0     C 6328   8.909   5.745   0.410  0.1365 -0.1524 -1.0759
  771MOL0     H 6329   9.009   5.954   0.717  0.8743  0.6588 -0.9627
  771MOL0     H 6330   9.062   6.088   0.928 -1.2300 -1.1495  1.0876
  771MOL0     H 6331   9.178   6.289   1.021  2.2109  3.8525  1.9200
  771MOL0     H 6332   9.021   6.242   1.109  0.8890 -0.1052  0.6697
  771MOL0     H 6333   9.030   6.468   1.197  0.3286 -1.2362  2.1480
  771MOL0     H 6334   9.166   6.377   1.250  2.3995  0.2481 -1.0355
  771MOL0     H 6335   9.318   6.474   1.103 -0.5484  0.6872  1.6554
  771MOL0     H 6336   9.204   6.548   0.999 -1.2209  2.9967  1.4872
  771MOL0     H 6337   9.110   6.686   1.187 -0.3028 -1.2102  2.0295
  771MOL0     H 6338   9.253   6.640   1.281 -1.7683  1.7714  0.3519
  771MOL0     H 6339   9.265   6.756   0.996  0.4414 -1.5997  0.5725
  771MOL0     H 6340   9.398   6.704   1.090 -0.0937 -0.9710 -3.6322
  771MOL0     H 6341   9.213   6.929   1.185 -0.8085 -0.8784 -1.4846
  771MOL0     H 6342   9.369   6.865   1.267 -0.2190  1.1323 -0.0572
  771MOL0     H 6343   9.486   6.918   1.065  0.1296  1.2881 -0.1186
  771MOL0     H 6344   9.458   7.047   1.164  1.1222 -0.6604  0.9035
  771MOL0     H 6345   9.411   7.087   0.923 -0.4149 -2.1348 -0.4841
  771MOL0     H 6346   9.283   6.979   0.922 -0.2832  0.6350 -1.2067
  771MOL0     H 6347   9.118   7.201   0.864 -0.4335 -0.7679  0.4377
  771MOL0     H 6348   8.920   7.415   1.064  1.5321  4.9831  1.6092
  771MOL0     H 6349   8.957   7.383   0.892 -0.7415  0.0603  0.7120
  771MOL0     H 6350   9.099   7.607   1.056  0.2779  0.9316  0.3134
  771MOL0     H 6351   9.142   7.549   0.898  2.0073  2.1674  0.7892
  771MOL0     H 6352   8.952   7.632   0.800  0.7871  1.7271 -0.3538
  771MOL0     H 6353   8.867   7.643   0.959  1.2940  0.2279  1.2186
  771MOL0     H 6354   8.917   7.869   0.861  0.3604  1.2470 -0.6898
  771MOL0     H 6355   9.015   7.832   1.010  1.6145 -4.2574  0.0177
  771MOL0     H 6356   9.378   7.802   0.888  0.4004  0.4523  0.2649
  771MOL0     H 6357   9.626   7.991   0.927  0.1999 -0.1235  1.4867
  771MOL0     H 6358   9.571   7.848   1.019 -2.1497 -0.6563  0.7472
  771MOL0     H 6359   9.586   8.002   1.098  2.0924  0.2872  0.4389
  771MOL0     H 6360   9.706   8.301   1.263 -0.2625  0.3216  0.0683
  771MOL0     H 6361   9.844   8.484   1.314 -1.5953  0.2941  0.9375
  771MOL0     H 6362  10.061   8.778   1.038 -0.6587 -2.6121 -2.0410
  771MOL0     H 6363   9.894   8.811   1.013  0.3911 -0.6352 -0.7902
  771MOL0     H 6364  10.067   8.877   1.261 -0.8722  0.0872  0.5379
  771MOL0     H 6365  10.005   8.994   1.148  2.3813 -1.1135 -0.4639
  771MOL0     H 6366   9.886   9.002   1.350 -3.8190  0.7009 -0.6181
  771MOL0     H 6367   9.838   8.832   1.349  1.9519 -1.0774 -0.8249
  771MOL0     H 6368   9.693   8.851   1.183 -1.6255  0.5979  1.8269
  771MOL0     H 6369   9.757   9.016   1.131  3.4230  2.3973  2.0300
  771MOL0     H 6370   9.702   9.109   1.354  2.6078 -1.0245  0.0184
  771MOL0     H 6371   9.573   9.089   1.252  2.1720  3.8668  2.0718
  771MOL0     H 6372   9.667   8.905   1.477 -1.8913 -4.0139 -0.4301
  771MOL0     H 6373   9.526   8.861   1.381  1.5874 -0.2133 -1.0647
  771MOL0     H 6374   9.519   9.133   1.507  1.5082 -0.8645  0.3267
  771MOL0     H 6375   9.492   8.994   1.623 -1.8856 -0.5601 -0.3865
  771MOL0     H 6376   9.313   8.925   1.470  0.0068 -0.2148  0.0953
  771MOL0     H 6377   9.336   9.071   1.374  1.1818  1.3905  0.7057
  771MOL0     H 6378   9.776   8.670   0.941  1.2501 -1.5202 -1.4795
  771MOL0     H 6379   9.619   8.492   0.874  1.9451 -1.2068 -1.8684
  771MOL0     H 6380   9.202   8.259   0.956 -0.2549 -0.0818 -0.8407
  771MOL0     H 6381   9.055   8.092   0.888  1.1302  2.1050 -2.6070
  771MOL0     H 6382   8.834   6.417   0.753  0.5263  0.1834  0.4760
  771MOL0     H 6383   8.783   6.266   0.546  1.0381 -0.5172 -0.7633
  771MOL0     H 6384   8.906   6.146   0.143 -0.6974  0.0678 -2.4577
  771MOL0     H 6385   8.859   6.028  -0.052 -1.2557  0.7232 -0.9932
  771MOL0     H 6386   8.712   5.921  -0.193  1.6612 -0.2445  0.5661
  771MOL0     H 6387   8.873   5.861  -0.223 -0.1435  2.6785 -1.6561
  771MOL0     H 6388   8.753   5.797  -0.392  2.3394  2.5959  2.3212
  771MOL0     H 6389   8.615   5.732  -0.291  0.9702 -0.7934  1.3248
  771MOL0     H 6390   8.748   5.530  -0.231 -0.0071  1.3025  2.2852
  771MOL0     H 6391   8.752   5.560  -0.403 -0.8664  2.4010 -0.1728
  771MOL0     H 6392   8.971   5.478  -0.308 -1.7556 -0.0368 -0.8200
  771MOL0     H 6393   8.984   5.635  -0.214 -0.5396  1.0794  0.1714
  771MOL0     H 6394   9.096   5.764  -0.598  0.1934 -0.4541  0.5979
  771MOL0     H 6395   8.847   5.664   0.186  0.7097  0.4077 -0.7123
  771MOL0     H 6396   8.810   5.729   0.453  1.2467  0.3718  1.9674
  771MOL0     H 6397   8.949   5.648   0.379 -0.4103 -0.4396 -0.8824
  771MOL0     H 6398   8.979   5.791   0.481 -4.2283  3.8947  1.2193
  772MOL0     O 6399   9.915  11.434  10.378  0.0697 -0.0270  0.3169
  772MOL0     C 6400  10.013  11.360  10.394  1.0863  1.2610  0.0646
  772MOL0     O 6401  10.017  11.255  10.485  0.2173  0.1061 -0.1490
  772MOL0     C 6402   9.915  11.228  10.574 -0.0506  0.2009 -0.4024
  772MOL0     C 6403   9.842  11.331  10.647 -0.6821  0.0057 -0.2308
  772MOL0     C 6404   9.764  11.303  10.756 -0.5260 -0.2259  0.8385
  772MOL0     C 6405   9.753  11.168  10.799 -0.1191  1.3849  0.4742
  772MOL0     O 6406   9.683  11.139  10.919 -0.0399  0.2233  0.1662
  772MOL0     C 6407   9.652  11.241  11.014 -1.1574 -0.4268 -0.1585
  772MOL0     C 6408   9.657  11.198  11.161 -0.3245  0.9611  0.1206
  772MOL0     C 6409   9.788  11.226  11.235 -0.6963  0.4373 -0.2076
  772MOL0     C 6410   9.767  11.186  11.383  0.2741  0.2065  0.5887
  772MOL0     C 6411   9.779  11.032  11.402 -0.3337 -0.6672  0.2892
  772MOL0     C 6412   9.714  10.978  11.538 -0.2551 -0.0080 -0.0120
  772MOL0     C 6413   9.784  11.034  11.658 -0.3653 -0.5656 -0.5270
  772MOL0     C 6414   9.933  11.005  11.674  0.3555  0.3850 -0.7300
  772MOL0     N 6415   9.983  10.869  11.635  0.0807  0.3153 -0.1473
  772MOL0     C 6416   9.943  10.747  11.686  0.4539  1.0370 -0.0854
  772MOL0     C 6417  10.018  10.657  11.629 -1.2908  0.1868  0.2744
  772MOL0     C 6418  10.003  10.508  11.627  0.7082 -0.0982 -0.1862
  772MOL0     C 6419   9.934  10.449  11.754  0.1912 -0.1084 -0.0391
  772MOL0     C 6420   9.785  10.447  11.722  1.1885 -0.4409  0.0514
  772MOL0     C 6421   9.707  10.370  11.831  0.4584  0.8608  0.9365
  772MOL0     O 6422   9.733  10.230  11.824  0.3129  0.7164  0.3053
  772MOL0     C 6423   9.613  10.163  11.843 -1.2131  0.2287  0.6428
  772MOL0     C 6424   9.557  10.103  11.736  0.2323  0.3125  0.0095
  772MOL0     C 6425   9.443  10.023  11.744  0.2349 -0.4664  0.1922
  772MOL0     C 6426   9.388   9.956  11.620 -0.6549  1.0220  0.9243
  772MOL0     C 6427   9.376  10.003  11.864 -0.0763  0.0094 -0.1535
  772MOL0     C 6428   9.246   9.925  11.874 -0.0315  0.3214  0.7970
  772MOL0     O 6429   9.153   9.953  11.773  0.3836  0.1544 -0.1269
  772MOL0     C 6430   9.018   9.915  11.775  0.1017 -1.1093  0.3780
  772MOL0     C 6431   8.944   9.873  11.883 -0.8108  0.5425  0.2176
  772MOL0     C 6432   8.807   9.859  11.874 -0.5539  0.4521 -0.6832
  772MOL0     C 6433   8.736   9.898  11.760  0.6892  0.4667  0.1626
  772MOL0     O 6434   8.596   9.901  11.781  0.2217  0.1458  0.3809
  772MOL0     C 6435   8.528   9.980  11.677  0.4036 -0.5725  0.2773
  772MOL0     C 6436   8.459   9.888  11.575 -0.2971  0.6885 -0.2098
  772MOL0     C 6437   8.348   9.796  11.621 -0.5032 -0.0805 -0.1946
  772MOL0     C 6438   8.311   9.699  11.508 -0.7858 -0.5427 -0.2910
  772MOL0     C 6439   8.229   9.582  11.555 -0.0088 -0.5067  0.7561
  772MOL0     C 6440   8.083   9.643  11.588  0.3907  0.7149 -0.5299
  772MOL0     C 6441   7.974   9.527  11.588 -0.4706 -0.4399 -0.0940
  772MOL0     C 6442   7.842   9.594  11.617  0.8901 -0.0359 -1.1401
  772MOL0    Cl 6443   7.709   9.467  11.604  0.5013  0.4317  0.0201
  772MOL0     C 6444   8.810   9.935  11.638 -1.2377  0.0047 -1.1325
  772MOL0     C 6445   8.947   9.940  11.652 -0.9582 -0.5835  0.8895
  772MOL0     O 6446   9.233   9.858  11.970  0.4479  0.2585 -0.0863
  772MOL0     C 6447   9.425  10.077  11.975 -0.6020  0.8117 -0.1067
  772MOL0     C 6448   9.553  10.147  11.967 -0.0377  0.8784  0.0777
  772MOL0     N 6449  10.119  10.726  11.556 -0.1346  0.3515  0.3171
  772MOL0     N 6450  10.099  10.856  11.560  0.5633  0.2251 -0.4386
  772MOL0     C 6451   9.815  11.062  10.729  0.5969  0.1031  0.3657
  772MOL0     C 6452   9.901  11.097  10.625  0.7030 -0.2971  0.3007
  772MOL0     C 6453  10.136  11.385  10.318 -0.4217 -0.0155  0.8210
  772MOL0     C 6454  10.238  11.289  10.329 -0.8224 -0.7703  0.5279
  772MOL0     C 6455  10.363  11.299  10.273 -0.2806 -1.7927  0.0486
  772MOL0     C 6456  10.398  11.411  10.196 -0.3221  0.7455  0.2194
  772MOL0     O 6457  10.513  11.428  10.136 -0.2886  0.0616  0.9126
  772MOL0     C 6458  10.628  11.426  10.221 -0.7456 -0.6385 -0.8995
  772MOL0     C 6459  10.765  11.450  10.171  0.2983 -0.0674 -0.3926
  772MOL0     C 6460  10.804  11.352  10.051  0.1325 -0.0701  0.5411
  772MOL0     C 6461  10.957  11.360  10.023  0.4262 -0.4927 -0.4960
  772MOL0     C 6462  10.994  11.337   9.879  0.5037 -0.2064 -0.2949
  772MOL0     C 6463  11.022  11.326   9.759 -0.3434 -0.6261 -0.2275
  772MOL0     C 6464  10.298  11.509  10.183 -0.3673 -0.2831 -0.0866
  772MOL0     C 6465  10.168  11.502  10.244 -0.5121  0.5013 -1.1441
  772MOL0     C 6466  10.068  11.612  10.220  0.0010  0.6567  0.1806
  772MOL0     H 6467   9.853  11.432  10.609  1.8302  0.3405  1.2111
  772MOL0     H 6468   9.728  11.390  10.809  0.5332  1.1164 -0.5583
  772MOL0     H 6469   9.544  11.250  10.997 -1.1320 -1.2995 -0.7729
  772MOL0     H 6470   9.699  11.338  10.993 -1.1173 -0.5252 -0.5180
  772MOL0     H 6471   9.580  11.244  11.223  0.5024  1.4880  0.7760
  772MOL0     H 6472   9.634  11.091  11.155 -2.3394  1.4093 -0.9856
  772MOL0     H 6473   9.865  11.160  11.193 -0.2218  1.1083 -0.4015
  772MOL0     H 6474   9.817  11.330  11.216 -0.8026  0.1824 -1.9634
  772MOL0     H 6475   9.852  11.229  11.438  0.8667  3.9869 -2.7715
  772MOL0     H 6476   9.677  11.229  11.427 -0.3910 -0.6584  0.1093
  772MOL0     H 6477   9.885  11.003  11.401  0.1677  1.0338 -1.1344
  772MOL0     H 6478   9.729  10.989  11.315 -0.9746  1.7069 -0.5853
  772MOL0     H 6479   9.616  11.027  11.538  0.6578  1.8981 -0.0176
  772MOL0     H 6480   9.704  10.869  11.538  0.8304 -0.1810 -2.4432
  772MOL0     H 6481   9.742  10.993  11.750  1.0136 -3.4818 -1.0748
  772MOL0     H 6482   9.763  11.141  11.651  0.0719 -0.4955 -0.8079
  772MOL0     H 6483   9.982  11.084  11.617  0.7114  0.8940  0.2485
  772MOL0     H 6484   9.968  11.030  11.775  1.6385  0.7058 -1.2350
  772MOL0     H 6485   9.855  10.722  11.744 -0.2318  1.1321 -1.0553
  772MOL0     H 6486  10.103  10.462  11.622 -0.1535 -1.9123 -1.5727
  772MOL0     H 6487   9.953  10.484  11.533  0.8535  0.4580 -0.4098
  772MOL0     H 6488   9.971  10.348  11.775  2.3814  0.4063 -1.0786
  772MOL0     H 6489   9.948  10.511  11.842  0.7939  0.4018 -0.4875
  772MOL0     H 6490   9.730  10.539  11.700 -0.2598 -1.2277  0.1851
  772MOL0     H 6491   9.769  10.379  11.638 -2.3884  1.0383 -0.6620
  772MOL0     H 6492   9.744  10.407  11.927 -1.0475 -0.5299  2.1038
  772MOL0     H 6493   9.599  10.386  11.821 -0.3202 -4.0447 -1.5316
  772MOL0     H 6494   9.603  10.118  11.639 -0.0904 -2.9766 -0.7866
  772MOL0     H 6495   9.341   9.862  11.648 -0.2892  0.5341 -0.0502
  772MOL0     H 6496   9.459   9.946  11.537  1.9067  2.4385  2.7788
  772MOL0     H 6497   9.317  10.026  11.575  1.0510  1.8129 -0.6673
  772MOL0     H 6498   8.986   9.849  11.980 -1.7440 -0.6191  0.3537
  772MOL0     H 6499   8.753   9.819  11.960 -1.9139  0.8547 -1.3214
  772MOL0     H 6500   8.453  10.036  11.734  1.2684 -0.3433  1.2282
  772MOL0     H 6501   8.592  10.062  11.641 -0.1192  0.6919  2.0459
  772MOL0     H 6502   8.419   9.951  11.495  0.1081  0.3027 -0.7191
  772MOL0     H 6503   8.535   9.819  11.538  0.1411 -0.1205  2.0354
  772MOL0     H 6504   8.255   9.849  11.642  0.0034  0.6101  0.3568
  772MOL0     H 6505   8.376   9.743  11.713 -1.6577 -0.3517  0.0178
  772MOL0     H 6506   8.400   9.667  11.453  1.7185 -1.8175  4.0772
  772MOL0     H 6507   8.246   9.760  11.444 -0.4661 -0.7477 -0.8176
  772MOL0     H 6508   8.227   9.525  11.461  1.2517  2.0850 -0.9596
  772MOL0     H 6509   8.275   9.529  11.639 -0.6420 -1.1202  0.7377
  772MOL0     H 6510   8.056   9.721  11.516  2.1941 -0.0920 -2.1823
  772MOL0     H 6511   8.086   9.692  11.686 -0.0176  2.4433 -1.3269
  772MOL0     H 6512   8.005   9.463  11.671  1.1548  2.8003  2.0360
  772MOL0     H 6513   7.963   9.474  11.493  1.7865  0.2513 -0.7965
  772MOL0     H 6514   7.819   9.675  11.546 -1.1332  0.8838  0.4685
  772MOL0     H 6515   7.852   9.626  11.721 -0.3570 -1.6514 -0.4924
  772MOL0     H 6516   8.773   9.962  11.540 -0.7483  3.6432 -0.4721
  772MOL0     H 6517   9.012   9.966  11.569  1.2035 -2.2904  1.9542
  772MOL0     H 6518   9.380  10.048  12.070 -0.8295 -0.8008 -0.6680
  772MOL0     H 6519   9.598  10.189  12.056  1.8395  1.6683 -1.1640
  772MOL0     H 6520   9.802  10.958  10.755  0.7245 -0.4703 -1.7036
  772MOL0     H 6521   9.958  11.017  10.579 -0.1145 -1.6264  1.4989
  772MOL0     H 6522  10.225  11.198  10.387  1.4184 -0.9357  0.8594
  772MOL0     H 6523  10.446  11.236  10.302 -0.0898 -0.4623  2.7885
  772MOL0     H 6524  10.605  11.496  10.302  0.3156 -2.6871  1.3084
  772MOL0     H 6525  10.633  11.329  10.270 -0.0478  0.7841  2.1108
  772MOL0     H 6526  10.833  11.442  10.256 -0.1735 -0.5377 -0.0602
  772MOL0     H 6527  10.780  11.553  10.136 -0.7074  0.9280  1.9074
  772MOL0     H 6528  10.766  11.252  10.075 -2.7238  0.5310 -1.0092
  772MOL0     H 6529  10.744  11.375   9.962  0.6192 -0.7355  0.0269
  772MOL0     H 6530  11.015  11.295  10.089 -1.4630  0.0492  1.8653
  772MOL0     H 6531  10.992  11.462  10.042  1.3636 -0.6241 -1.4292
  772MOL0     H 6532  11.049  11.308   9.657  1.9446  1.3173 -0.0494
  772MOL0     H 6533  10.328  11.600  10.132  0.8967  0.4402  1.8209
  772MOL0     H 6534   9.981  11.572  10.168  1.6314  0.1640 -2.3540
  772MOL0     H 6535  10.032  11.653  10.315  1.4460  0.0995  1.0055
  772MOL0     H 6536  10.105  11.692  10.155  1.3207 -1.1394 -1.4035
  773MOL0     O 6537   4.073   8.540   6.359 -1.1051 -0.3408  0.1255
  773MOL0     C 6538   4.106   8.536   6.233 -1.1829  0.2796 -0.1005
  773MOL0     O 6539   4.016   8.545   6.133 -0.2936  0.1791 -0.4771
  773MOL0     C 6540   3.886   8.594   6.161  0.2104  0.6703  1.4052
  773MOL0     C 6541   3.844   8.723   6.105 -1.3477 -0.0981  0.1163
  773MOL0     C 6542   3.720   8.784   6.138  0.0444 -0.2335 -0.0648
  773MOL0     C 6543   3.636   8.723   6.231 -0.5299  0.5722  0.4279
  773MOL0     O 6544   3.522   8.784   6.274 -0.6375 -0.6215 -0.5360
  773MOL0     C 6545   3.513   8.792   6.414 -0.3999  0.5797  0.3324
  773MOL0     C 6546   3.389   8.870   6.453  0.2331  0.3271  0.2561
  773MOL0     C 6547   3.370   8.888   6.604  1.4227 -0.2698  0.7477
  773MOL0     C 6548   3.396   8.769   6.692 -0.1607 -0.1674  0.9636
  773MOL0     C 6549   3.348   8.798   6.832  0.0048  0.1677  0.0754
  773MOL0     C 6550   3.387   8.682   6.926  0.2125 -0.4448  0.4817
  773MOL0     C 6551   3.365   8.716   7.070  0.5270  0.0544 -0.1611
  773MOL0     C 6552   3.395   8.598   7.159  0.1784 -0.2467 -0.1139
  773MOL0     N 6553   3.338   8.613   7.295 -0.1198 -0.0219 -0.5230
  773MOL0     C 6554   3.344   8.724   7.376  0.2200 -0.1430  0.4789
  773MOL0     C 6555   3.244   8.702   7.462  0.2070  0.5824 -0.5336
  773MOL0     C 6556   3.213   8.811   7.560  0.7348  0.0623 -0.0421
  773MOL0     C 6557   3.066   8.807   7.605 -0.5610  0.6042  0.9675
  773MOL0     C 6558   3.020   8.897   7.721 -0.1310 -0.1927  0.4752
  773MOL0     C 6559   2.964   9.026   7.662 -0.4154 -0.5291 -0.2415
  773MOL0     O 6560   3.069   9.125   7.690  0.1430  0.7667 -0.4119
  773MOL0     C 6561   3.086   9.215   7.583  0.3280  0.1609 -0.6383
  773MOL0     C 6562   2.988   9.247   7.494  0.8670  0.3090  1.4700
  773MOL0     C 6563   3.012   9.336   7.378  0.0672  0.1293  0.8106
  773MOL0     C 6564   2.896   9.369   7.290 -0.3003 -0.8302 -0.2240
  773MOL0     C 6565   3.144   9.377   7.356  0.2340  0.3790  1.1210
  773MOL0     C 6566   3.195   9.437   7.228 -1.2774  0.3982  0.9719
  773MOL0     O 6567   3.333   9.426   7.202  0.3148  0.6310 -0.7187
  773MOL0     C 6568   3.384   9.491   7.092 -0.4207 -0.0917  0.6573
  773MOL0     C 6569   3.489   9.585   7.113 -1.0827 -0.4256 -0.7172
  773MOL0     C 6570   3.544   9.641   6.995  0.1977 -0.1081 -0.6484
  773MOL0     C 6571   3.509   9.605   6.866 -0.0560  0.4675  0.6993
  773MOL0     O 6572   3.584   9.658   6.759 -0.0225 -0.2611 -0.9133
  773MOL0     C 6573   3.621   9.601   6.634  0.2142  0.2883 -0.2382
  773MOL0     C 6574   3.641   9.723   6.541 -0.1902 -0.0561 -0.2547
  773MOL0     C 6575   3.637   9.683   6.394 -0.5484  0.2816 -0.3063
  773MOL0     C 6576   3.750   9.581   6.346 -0.1247 -0.2056  0.1803
  773MOL0     C 6577   3.894   9.610   6.383  0.4061 -0.1030 -1.1908
  773MOL0     C 6578   3.988   9.524   6.304  0.3928  0.7485  0.7963
  773MOL0     C 6579   4.131   9.562   6.310  0.2927  0.2838 -0.1012
  773MOL0     C 6580   4.219   9.454   6.270 -0.0757  0.4033  0.2192
  773MOL0    Cl 6581   4.205   9.321   6.378 -0.5669 -0.1431 -0.1496
  773MOL0     C 6582   3.412   9.515   6.846 -1.1377  0.7454  0.0644
  773MOL0     C 6583   3.350   9.460   6.959  0.5908  0.0969  0.0801
  773MOL0     O 6584   3.118   9.500   7.157 -0.0777 -0.5460  0.3336
  773MOL0     C 6585   3.228   9.366   7.469 -0.0122  0.5355 -0.5739
  773MOL0     C 6586   3.216   9.277   7.572 -0.0866  0.1637 -0.0132
  773MOL0     N 6587   3.183   8.586   7.441 -0.0357  0.3495 -0.5217
  773MOL0     N 6588   3.251   8.526   7.352 -0.2972  0.2771 -0.2248
  773MOL0     C 6589   3.666   8.595   6.272  0.6638 -0.7145 -0.4226
  773MOL0     C 6590   3.791   8.527   6.233  0.8479  0.5303  0.2137
  773MOL0     C 6591   4.252   8.503   6.199 -0.1686  1.4771 -0.6298
  773MOL0     C 6592   4.283   8.479   6.061  0.3163 -0.4817 -0.5034
  773MOL0     C 6593   4.407   8.444   6.019  0.4777 -0.0235 -0.4942
  773MOL0     C 6594   4.515   8.435   6.109 -0.6154  0.6621  0.4244
  773MOL0     O 6595   4.652   8.402   6.071  0.4003  0.5745 -0.2359
  773MOL0     C 6596   4.678   8.368   5.930 -0.8803 -0.2678  0.3382
  773MOL0     C 6597   4.828   8.387   5.923  0.3572 -1.4329 -0.7461
  773MOL0     C 6598   4.884   8.381   5.775 -0.1063  0.4109 -0.0311
  773MOL0     C 6599   4.864   8.239   5.710  0.6180 -0.1724 -0.3448
  773MOL0     C 6600   4.940   8.134   5.768  0.2187  0.6114 -0.4570
  773MOL0     C 6601   5.007   8.040   5.821 -0.2551  0.2018  0.3718
  773MOL0     C 6602   4.481   8.437   6.238 -0.6800 -0.1914 -0.0156
  773MOL0     C 6603   4.357   8.464   6.290 -0.2337  0.8862  0.9154
  773MOL0     C 6604   4.342   8.448   6.442 -0.7944  0.2236  0.2948
  773MOL0     H 6605   3.918   8.766   6.037 -0.2348 -1.5656  0.3427
  773MOL0     H 6606   3.700   8.882   6.098 -0.0880 -0.0495  0.4488
  773MOL0     H 6607   3.600   8.844   6.456 -0.3731  1.1162 -0.3679
  773MOL0     H 6608   3.510   8.692   6.457 -0.2375  0.3221 -0.2425
  773MOL0     H 6609   3.390   8.971   6.411 -1.2752  0.9157  1.5311
  773MOL0     H 6610   3.304   8.823   6.403  0.4453 -0.1021  0.2913
  773MOL0     H 6611   3.439   8.966   6.636 -1.0481  1.8667  1.1573
  773MOL0     H 6612   3.269   8.929   6.612  1.3033  0.1986 -2.0691
  773MOL0     H 6613   3.339   8.685   6.651  1.2753 -0.7627  0.1463
  773MOL0     H 6614   3.502   8.742   6.687 -0.0122  0.1241  2.1260
  773MOL0     H 6615   3.239   8.801   6.835  0.0399  3.2633  2.2209
  773MOL0     H 6616   3.392   8.891   6.868 -0.4675 -0.7982  3.5299
  773MOL0     H 6617   3.333   8.589   6.904 -3.2788  1.5409 -0.0625
  773MOL0     H 6618   3.492   8.666   6.901  0.8392  2.0164  1.2232
  773MOL0     H 6619   3.262   8.753   7.074  0.1284 -0.7931 -1.7810
  773MOL0     H 6620   3.417   8.809   7.091  0.5151 -0.4251  2.2961
  773MOL0     H 6621   3.341   8.512   7.118  0.9343 -1.0912  0.6327
  773MOL0     H 6622   3.500   8.567   7.168  0.8592  1.5515 -1.2201
  773MOL0     H 6623   3.398   8.816   7.358 -2.7189  0.8734 -6.0665
  773MOL0     H 6624   3.237   8.911   7.523  0.3189  0.1668 -0.0395
  773MOL0     H 6625   3.279   8.803   7.647  1.9176  0.4305 -0.8789
  773MOL0     H 6626   2.999   8.807   7.519  2.2664  1.4562 -1.3762
  773MOL0     H 6627   3.069   8.703   7.640  1.4965 -0.7057 -2.5722
  773MOL0     H 6628   2.951   8.837   7.782  0.4332 -1.2652  0.0802
  773MOL0     H 6629   3.106   8.916   7.785 -0.9398 -1.1750  1.9211
  773MOL0     H 6630   2.952   9.014   7.554  0.6030  0.9705 -0.5478
  773MOL0     H 6631   2.866   9.057   7.700 -2.0456 -0.7822 -3.8504
  773MOL0     H 6632   2.896   9.189   7.491  0.9634  0.0795 -2.4124
  773MOL0     H 6633   2.868   9.474   7.283 -1.1972 -1.0280  0.2692
  773MOL0     H 6634   2.801   9.323   7.317 -0.4555 -1.7132 -2.0604
  773MOL0     H 6635   2.922   9.325   7.193  0.9639 -1.2178  0.2707
  773MOL0     H 6636   3.533   9.614   7.208 -3.1057  0.5300 -0.0259
  773MOL0     H 6637   3.629   9.708   7.000 -0.4264  0.6491  0.2513
  773MOL0     H 6638   3.720   9.555   6.629 -0.4893 -1.1401 -2.4374
  773MOL0     H 6639   3.546   9.535   6.590 -0.4823 -0.4817  1.9871
  773MOL0     H 6640   3.554   9.784   6.565 -0.7781 -0.8027 -0.4207
  773MOL0     H 6641   3.728   9.782   6.569  1.1021  0.2476 -4.2690
  773MOL0     H 6642   3.646   9.777   6.339  1.0558 -0.3243 -1.1453
  773MOL0     H 6643   3.543   9.632   6.371  0.8290 -1.9683 -1.3236
  773MOL0     H 6644   3.743   9.572   6.237  0.7551 -0.3163  0.1266
  773MOL0     H 6645   3.726   9.491   6.404 -0.9504 -0.3101 -0.3089
  773MOL0     H 6646   3.909   9.716   6.359 -1.0658  0.5024  0.3799
  773MOL0     H 6647   3.917   9.591   6.488  0.4763 -1.0274 -1.3628
  773MOL0     H 6648   3.959   9.534   6.199 -1.2532 -2.6156  0.7886
  773MOL0     H 6649   3.970   9.419   6.329 -2.8945  0.7015 -1.2344
  773MOL0     H 6650   4.151   9.602   6.410 -1.5591 -0.2973  0.5404
  773MOL0     H 6651   4.135   9.646   6.239 -1.3281  1.0134  0.6125
  773MOL0     H 6652   4.323   9.490   6.267  1.3208 -3.1878 -3.7035
  773MOL0     H 6653   4.187   9.419   6.172  0.5323 -1.2171  0.5779
  773MOL0     H 6654   3.378   9.480   6.749 -1.4257 -0.7691  0.6816
  773MOL0     H 6655   3.258   9.403   6.951  0.1979  0.3864  2.1419
  773MOL0     H 6656   3.318   9.424   7.453 -0.0044  0.8543  0.5312
  773MOL0     H 6657   3.296   9.239   7.634 -1.3875 -0.6103  1.2533
  773MOL0     H 6658   3.603   8.542   6.343  0.4499  0.9943  0.7228
  773MOL0     H 6659   3.805   8.426   6.271 -1.7978 -0.2537 -0.7069
  773MOL0     H 6660   4.213   8.478   5.978  1.3495  0.0342 -1.4092
  773MOL0     H 6661   4.437   8.419   5.917  0.5835  0.3075 -0.5441
  773MOL0     H 6662   4.644   8.264   5.922 -2.8699  0.3490  0.2455
  773MOL0     H 6663   4.636   8.436   5.855  0.2578  1.0388  0.8509
  773MOL0     H 6664   4.882   8.312   5.981 -0.5117 -4.4549 -3.5822
  773MOL0     H 6665   4.860   8.487   5.954  3.5524 -3.1450  2.1883
  773MOL0     H 6666   4.828   8.454   5.716 -0.7258  0.0436  0.0895
  773MOL0     H 6667   4.985   8.422   5.776  0.5904 -0.9551 -2.8607
  773MOL0     H 6668   4.890   8.245   5.604 -0.2261  0.8484 -0.5123
  773MOL0     H 6669   4.757   8.217   5.712  0.1938  1.5691 -1.1934
  773MOL0     H 6670   5.044   7.953   5.871  0.5025  0.9747  1.1929
  773MOL0     H 6671   4.562   8.403   6.302 -0.8297  0.0174  0.2825
  773MOL0     H 6672   4.319   8.551   6.467  0.1170  0.4718  0.1502
  773MOL0     H 6673   4.251   8.392   6.467 -1.1324  1.0611  0.9679
  773MOL0     H 6674   4.434   8.415   6.491  0.1064  0.8870 -0.9119
  774MOL0     O 6675  11.429   6.135   2.216  0.4040 -0.0263 -0.5252
  774MOL0     C 6676  11.440   6.204   2.320  0.2325  0.3765 -0.0495
  774MOL0     O 6677  11.559   6.262   2.370  0.5415 -0.1238 -0.0638
  774MOL0     C 6678  11.652   6.299   2.279  0.2288  0.8281 -0.0121
  774MOL0     C 6679  11.698   6.203   2.186 -0.6078  0.1584  0.1134
  774MOL0     C 6680  11.803   6.249   2.104  0.2983  0.9688 -0.3732
  774MOL0     C 6681  11.856   6.380   2.110  0.1629 -0.7714 -0.2109
  774MOL0     O 6682  11.961   6.427   2.027  0.3009 -0.7692  0.4289
  774MOL0     C 6683  12.064   6.495   2.105 -0.7009 -0.0132 -0.8660
  774MOL0     C 6684  12.171   6.535   2.001 -0.5518  1.4080  0.2713
  774MOL0     C 6685  12.290   6.617   2.062 -0.8541 -0.0684  0.7444
  774MOL0     C 6686  12.404   6.633   1.957 -0.5396  0.3732 -0.1242
  774MOL0     C 6687  12.538   6.680   2.017 -0.0958 -0.4588  0.1243
  774MOL0     C 6688  12.631   6.755   1.928 -0.2024  0.0335  0.7567
  774MOL0     C 6689  12.697   6.653   1.834 -0.4022 -0.7613  0.2487
  774MOL0     C 6690  12.726   6.714   1.695  0.4520  0.4654  0.0148
  774MOL0     N 6691  12.615   6.689   1.599  0.6749 -0.1232 -0.1094
  774MOL0     C 6692  12.487   6.727   1.626 -0.1818 -0.0438 -0.5196
  774MOL0     C 6693  12.417   6.650   1.545 -0.0094  0.1614 -0.3962
  774MOL0     C 6694  12.264   6.636   1.553 -0.0313 -0.3765  0.4320
  774MOL0     C 6695  12.179   6.749   1.574  0.4733  0.1129 -0.5563
  774MOL0     C 6696  12.034   6.703   1.543 -0.0411 -0.6968  0.1498
  774MOL0     C 6697  11.938   6.781   1.636 -0.1374 -0.2052  0.6725
  774MOL0     O 6698  11.945   6.707   1.755 -0.5689 -0.6268  0.6054
  774MOL0     C 6699  11.823   6.702   1.816 -0.1611  0.0787  0.8603
  774MOL0     C 6700  11.749   6.584   1.809  0.7185  0.4147 -0.3496
  774MOL0     C 6701  11.620   6.562   1.862  0.2753 -0.2476  0.7006
  774MOL0     C 6702  11.548   6.434   1.837  0.6095  0.3055  0.2679
  774MOL0     C 6703  11.563   6.679   1.933  0.4368 -0.4598 -0.6067
  774MOL0     C 6704  11.431   6.676   1.999  0.6486 -0.1336 -0.1392
  774MOL0     O 6705  11.382   6.555   2.036  0.6528  0.7536  0.2196
  774MOL0     C 6706  11.252   6.565   2.089  0.1644  0.1524 -0.1087
  774MOL0     C 6707  11.151   6.588   2.002  0.5347 -0.2466 -0.8697
  774MOL0     C 6708  11.017   6.585   2.044  0.4847  0.8389  1.4076
  774MOL0     C 6709  10.986   6.554   2.172 -0.0893 -0.6487 -1.0618
  774MOL0     O 6710  10.859   6.568   2.219 -0.5977 -0.1078 -0.5233
  774MOL0     C 6711  10.784   6.680   2.173  0.5904 -1.1094 -0.2819
  774MOL0     C 6712  10.658   6.706   2.252  0.7394  0.3564 -0.2227
  774MOL0     C 6713  10.587   6.836   2.229 -0.3158  0.7224 -0.4338
  774MOL0     C 6714  10.548   6.860   2.085  0.2203  0.6767  0.5744
  774MOL0     C 6715  10.462   6.978   2.051 -0.2320 -0.8616 -0.4001
  774MOL0     C 6716  10.435   6.992   1.895  0.3441 -0.1407  0.0857
  774MOL0     C 6717  10.338   7.109   1.861 -0.6433 -0.2023 -0.6813
  774MOL0     C 6718  10.199   7.059   1.862 -0.2126  0.4331  0.2151
  774MOL0    Cl 6719  10.084   7.187   1.800 -0.2045 -0.2260 -0.5774
  774MOL0     C 6720  11.095   6.552   2.266 -0.3467 -0.3612 -0.1139
  774MOL0     C 6721  11.229   6.562   2.224  0.1942 -0.1421  0.5839
  774MOL0     O 6722  11.371   6.779   2.031 -0.4365 -0.4037  0.4283
  774MOL0     C 6723  11.646   6.796   1.944  0.9480  0.0760  0.1664
  774MOL0     C 6724  11.767   6.809   1.888 -0.2022  0.4976  0.0369
  774MOL0     N 6725  12.495   6.568   1.463 -0.5574 -0.1482 -0.0193
  774MOL0     N 6726  12.622   6.603   1.499  0.2598  0.0219 -0.4833
  774MOL0     C 6727  11.778   6.472   2.186  0.1579  0.3613 -1.1768
  774MOL0     C 6728  11.690   6.429   2.282  0.1647 -0.8186 -0.7129
  774MOL0     C 6729  11.308   6.223   2.394 -0.0978  0.2787 -0.1543
  774MOL0     C 6730  11.194   6.174   2.333 -0.5916  0.1893 -0.7185
  774MOL0     C 6731  11.069   6.187   2.395 -0.0191  0.7244  0.6202
  774MOL0     C 6732  11.049   6.252   2.512 -0.6061 -0.8468  0.6318
  774MOL0     O 6733  10.933   6.268   2.572 -0.2640 -0.2638  0.5945
  774MOL0     C 6734  10.815   6.209   2.516 -0.6332  0.4429  0.2235
  774MOL0     C 6735  10.700   6.224   2.599 -0.3419 -0.8766 -1.1827
  774MOL0     C 6736  10.660   6.372   2.623  0.3992 -0.0541  0.5729
  774MOL0     C 6737  10.602   6.458   2.504 -0.4627  0.2761  0.0610
  774MOL0     C 6738  10.486   6.382   2.451  0.5197 -0.0537  0.6364
  774MOL0     C 6739  10.389   6.319   2.404 -0.4706 -0.2608 -0.1206
  774MOL0     C 6740  11.168   6.310   2.569 -0.0084 -0.5356  0.6094
  774MOL0     C 6741  11.295   6.298   2.514  0.1566  0.0062  0.0248
  774MOL0     C 6742  11.408   6.367   2.591 -0.0230 -0.2144  0.6994
  774MOL0     H 6743  11.655   6.103   2.196 -3.2345  1.4298  6.0649
  774MOL0     H 6744  11.846   6.167   2.047  2.4209 -0.1764  2.5799
  774MOL0     H 6745  12.111   6.420   2.170  1.9431  1.0486 -1.4197
  774MOL0     H 6746  12.029   6.584   2.158  0.8519 -1.1691  2.3882
  774MOL0     H 6747  12.214   6.444   1.957 -4.1163  0.9613 -2.8586
  774MOL0     H 6748  12.121   6.589   1.920 -1.2236 -1.4464 -1.3493
  774MOL0     H 6749  12.252   6.717   2.085  0.5327  1.6814 -3.6215
  774MOL0     H 6750  12.325   6.560   2.149 -1.3230 -1.1378  0.2476
  774MOL0     H 6751  12.419   6.535   1.911 -0.9292 -0.2829  1.0905
  774MOL0     H 6752  12.368   6.702   1.881 -1.4266 -1.1961 -1.1795
  774MOL0     H 6753  12.580   6.588   2.059 -1.0858 -1.6621 -1.3878
  774MOL0     H 6754  12.512   6.733   2.109  1.8338 -2.3915  1.8941
  774MOL0     H 6755  12.577   6.834   1.875  0.9884  1.0778  1.0699
  774MOL0     H 6756  12.704   6.812   1.985  0.5440 -1.2730  1.1408
  774MOL0     H 6757  12.653   6.553   1.826  0.6267 -1.0836 -2.0666
  774MOL0     H 6758  12.798   6.637   1.873 -0.2669  2.3996  1.5216
  774MOL0     H 6759  12.754   6.818   1.713  2.9208 -0.4641  2.1802
  774MOL0     H 6760  12.814   6.661   1.656 -0.6499 -2.0298  0.6950
  774MOL0     H 6761  12.447   6.792   1.704  2.4953  2.4467 -1.0525
  774MOL0     H 6762  12.238   6.561   1.629 -1.4230 -0.4612 -0.1003
  774MOL0     H 6763  12.231   6.595   1.457  0.5628 -0.0174  0.0736
  774MOL0     H 6764  12.198   6.782   1.676  2.2959  0.5425 -1.0010
  774MOL0     H 6765  12.209   6.831   1.507  1.1591 -0.1958 -0.6329
  774MOL0     H 6766  12.003   6.702   1.438 -0.1603  1.2482  0.1204
  774MOL0     H 6767  12.025   6.597   1.569 -0.5098 -1.2796 -2.1541
  774MOL0     H 6768  11.972   6.884   1.653  1.8926 -0.1927 -2.5023
  774MOL0     H 6769  11.841   6.794   1.587  0.9032 -0.5315 -1.6261
  774MOL0     H 6770  11.804   6.511   1.752 -0.4902 -0.5316 -0.3443
  774MOL0     H 6771  11.441   6.459   1.829  1.2073  3.2050  0.3705
  774MOL0     H 6772  11.564   6.374   1.927  1.2526  1.6304  1.0720
  774MOL0     H 6773  11.576   6.387   1.742  0.9492  1.7757 -0.3896
  774MOL0     H 6774  11.177   6.591   1.896 -1.8425  2.4583 -1.5391
  774MOL0     H 6775  10.940   6.603   1.970  2.1553 -2.8507 -1.5827
  774MOL0     H 6776  10.845   6.769   2.163  1.7232 -1.9429 -0.9583
  774MOL0     H 6777  10.739   6.657   2.076  2.6288 -0.4226 -1.4397
  774MOL0     H 6778  10.584   6.628   2.234 -0.8801  1.9723 -0.8484
  774MOL0     H 6779  10.686   6.705   2.358  1.1075  1.5541 -0.2943
  774MOL0     H 6780  10.648   6.918   2.268 -0.0719 -0.1644  1.0797
  774MOL0     H 6781  10.500   6.846   2.294  0.6874 -0.3093  1.1347
  774MOL0     H 6782  10.493   6.775   2.044  1.0410 -0.6488  2.1069
  774MOL0     H 6783  10.638   6.864   2.023 -0.0440 -1.6042 -0.0336
  774MOL0     H 6784  10.375   6.966   2.116 -0.2110 -0.3818 -0.2768
  774MOL0     H 6785  10.522   7.064   2.085 -0.2625 -1.3896  1.0802
  774MOL0     H 6786  10.402   6.894   1.860  0.7076 -0.0313 -0.5908
  774MOL0     H 6787  10.525   7.026   1.842 -2.5381  3.8116 -2.9614
  774MOL0     H 6788  10.357   7.144   1.760 -0.2052  0.1213 -0.4927
  774MOL0     H 6789  10.346   7.197   1.926  1.4330 -0.8994  0.0876
  774MOL0     H 6790  10.166   7.026   1.961 -0.2800  1.9346  0.7208
  774MOL0     H 6791  10.197   6.972   1.795  0.4240  0.3316  0.3241
  774MOL0     H 6792  11.068   6.542   2.371 -4.2694 -0.8430 -0.9974
  774MOL0     H 6793  11.314   6.565   2.291  1.3580 -0.7109 -0.8341
  774MOL0     H 6794  11.613   6.885   1.997 -1.8628  0.2867 -1.7217
  774MOL0     H 6795  11.822   6.902   1.894 -2.3678  1.8804 -0.4328
  774MOL0     H 6796  11.806   6.577   2.189 -0.1364  0.5185 -3.0749
  774MOL0     H 6797  11.645   6.505   2.344  1.6470 -0.5280  0.0570
  774MOL0     H 6798  11.192   6.116   2.241 -0.5123  0.8888 -1.1651
  774MOL0     H 6799  10.986   6.144   2.341  1.2283  2.0398 -2.6079
  774MOL0     H 6800  10.802   6.244   2.413 -0.7553 -2.3000 -0.7592
  774MOL0     H 6801  10.832   6.101   2.517 -1.0739  0.3565 -0.9080
  774MOL0     H 6802  10.727   6.187   2.699 -2.3902 -0.0169 -0.2643
  774MOL0     H 6803  10.618   6.173   2.547 -2.4643 -0.2967  1.3430
  774MOL0     H 6804  10.578   6.375   2.696  0.4075 -0.1713  0.5873
  774MOL0     H 6805  10.743   6.429   2.668  1.6786 -2.2613  1.1586
  774MOL0     H 6806  10.673   6.481   2.423 -3.2630 -0.9771 -3.0033
  774MOL0     H 6807  10.580   6.557   2.545 -1.8829  0.5562 -1.2934
  774MOL0     H 6808  10.316   6.262   2.351 -0.3524 -0.9926  0.4986
  774MOL0     H 6809  11.153   6.361   2.664  1.6113  0.2267  0.5002
  774MOL0     H 6810  11.440   6.455   2.535  2.1248 -2.0794 -1.2063
  774MOL0     H 6811  11.382   6.403   2.691  1.6704  1.8168  0.4708
  774MOL0     H 6812  11.492   6.302   2.617 -0.9252 -1.2973  0.9808
  775MOL0     O 6813  11.205   8.728  10.377  0.2499 -0.3272  0.0777
  775MOL0     C 6814  11.124   8.700  10.468 -0.3760 -0.2922  0.9332
  775MOL0     O 6815  11.122   8.753  10.596  0.8478  0.1772 -0.4669
  775MOL0     C 6816  11.243   8.777  10.657  0.0379 -0.2264  0.3440
  775MOL0     C 6817  11.352   8.856  10.611 -0.1082  0.2016  1.0050
  775MOL0     C 6818  11.471   8.872  10.687  0.1638  0.3592  0.1857
  775MOL0     C 6819  11.475   8.827  10.820  0.7453 -0.4237 -0.0743
  775MOL0     O 6820  11.587   8.861  10.892  0.2525 -0.4255  0.5440
  775MOL0     C 6821  11.608   8.797  11.022 -0.5170 -0.2029  0.2127
  775MOL0     C 6822  11.730   8.863  11.091  0.2401 -0.1351  0.3889
  775MOL0     C 6823  11.871   8.821  11.043  0.5924  0.1163 -0.6141
  775MOL0     C 6824  11.989   8.925  11.034  1.2054  0.6975 -0.0012
  775MOL0     C 6825  12.018   8.997  11.167  0.3403 -0.5497  1.0963
  775MOL0     C 6826  12.128   9.106  11.149 -0.0153  0.2306  0.0385
  775MOL0     C 6827  12.117   9.197  11.267  0.0801 -0.1956 -0.0557
  775MOL0     C 6828  12.235   9.296  11.255 -0.6715 -0.0817  0.9615
  775MOL0     N 6829  12.319   9.321  11.369  0.1605 -0.1808 -0.3104
  775MOL0     C 6830  12.361   9.230  11.467 -0.4224  0.1039 -0.3533
  775MOL0     C 6831  12.435   9.297  11.558 -0.6588  0.1774  0.2957
  775MOL0     C 6832  12.489   9.244  11.690  0.5901 -0.4770 -0.0020
  775MOL0     C 6833  12.398   9.282  11.820 -0.2668  0.6400  0.7613
  775MOL0     C 6834  12.261   9.209  11.825 -0.9050 -0.5791 -0.3798
  775MOL0     C 6835  12.141   9.302  11.853  0.6610 -0.6668 -0.8371
  775MOL0     O 6836  12.027   9.218  11.831  0.1696  0.4473  0.4474
  775MOL0     C 6837  11.907   9.255  11.891  0.5531  0.0190  1.8445
  775MOL0     C 6838  11.887   9.354  11.979 -0.4009  0.1255  0.1622
  775MOL0     C 6839  11.764   9.394  12.029  0.9598 -0.0712 -1.2300
  775MOL0     C 6840  11.778   9.501  12.131 -0.7895 -0.0697  0.2220
  775MOL0     C 6841  11.653   9.317  11.992  0.5645 -1.3698 -0.4314
  775MOL0     C 6842  11.518   9.348  12.051  0.0356  0.8795 -0.1716
  775MOL0     O 6843  11.437   9.238  12.050  0.3691  0.1699  0.2097
  775MOL0     C 6844  11.307   9.253  12.083  0.2207 -0.5985 -0.0396
  775MOL0     C 6845  11.206   9.258  11.974 -0.3859 -0.0653 -0.5090
  775MOL0     C 6846  11.071   9.256  12.004  0.1305  0.2090 -1.3579
  775MOL0     C 6847  11.030   9.276  12.136  0.6309  0.9022 -1.2693
  775MOL0     O 6848  10.899   9.299  12.178 -0.6134  0.3545  0.3669
  775MOL0     C 6849  10.835   9.172  12.194  0.3603 -0.3500  0.5465
  775MOL0     C 6850  10.708   9.192  12.274  0.7247  0.4484 -0.0760
  775MOL0     C 6851  10.737   9.258  12.406 -0.9296 -0.2695 -0.0938
  775MOL0     C 6852  10.626   9.288  12.503  0.2250  0.1434 -0.1098
  775MOL0     C 6853  10.682   9.325  12.643  0.0373  0.4178 -0.6201
  775MOL0     C 6854  10.550   9.334  12.736 -0.3851  0.9450 -0.0307
  775MOL0     C 6855  10.578   9.326  12.888  0.3603 -0.7722 -0.2149
  775MOL0     C 6856  10.589   9.182  12.941  0.3659 -0.2630 -0.1263
  775MOL0    Cl 6857  10.436   9.088  12.899  0.3668  0.5172 -0.6083
  775MOL0     C 6858  11.127   9.267  12.236  0.1763 -0.4996 -0.0811
  775MOL0     C 6859  11.266   9.260  12.213 -0.6046  0.3618  0.3619
  775MOL0     O 6860  11.486   9.464  12.076  0.3709  0.0612  0.4599
  775MOL0     C 6861  11.663   9.212  11.894 -0.0883 -0.0844  0.1575
  775MOL0     C 6862  11.792   9.186  11.844  0.4239  1.2122  0.5257
  775MOL0     N 6863  12.443   9.428  11.506 -0.4504 -0.0362 -0.5702
  775MOL0     N 6864  12.366   9.444  11.404 -0.1651 -0.1879 -0.5247
  775MOL0     C 6865  11.373   8.745  10.862 -0.2516  0.1612 -0.3714
  775MOL0     C 6866  11.259   8.714  10.780  0.1962  0.1750  0.2803
  775MOL0     C 6867  11.005   8.611  10.442 -0.3745 -0.5488  0.8934
  775MOL0     C 6868  10.878   8.658  10.474  1.0314 -0.0377  0.6061
  775MOL0     C 6869  10.761   8.584  10.452 -0.1088 -0.7169  0.0232
  775MOL0     C 6870  10.771   8.457  10.403 -0.8509 -0.7864 -0.4539
  775MOL0     O 6871  10.661   8.378  10.378 -0.2467 -0.3883 -0.3427
  775MOL0     C 6872  10.534   8.420  10.424 -0.1300  0.2538 -0.6561
  775MOL0     C 6873  10.451   8.317  10.372  0.9792  0.7992 -0.1995
  775MOL0     C 6874  10.307   8.369  10.388  0.4521 -1.0496 -0.1541
  775MOL0     C 6875  10.215   8.258  10.332  0.6800  0.1017  0.4167
  775MOL0     C 6876  10.076   8.277  10.381  0.2293  0.1160 -0.6091
  775MOL0     C 6877   9.965   8.303  10.414  0.1900 -0.1409  0.3584
  775MOL0     C 6878  10.898   8.408  10.362  0.1841  0.0097  0.1552
  775MOL0     C 6879  11.012   8.479  10.379 -0.0248 -1.5414 -0.3395
  775MOL0     C 6880  11.141   8.422  10.330 -0.2068 -1.2128 -0.3319
  775MOL0     H 6881  11.337   8.896  10.511 -2.3866  3.0864  2.3391
  775MOL0     H 6882  11.564   8.913  10.649 -0.0920  1.5108  0.7571
  775MOL0     H 6883  11.621   8.694  10.989 -2.0962  0.0093 -1.2664
  775MOL0     H 6884  11.523   8.813  11.089 -2.4122  0.2842 -2.1312
  775MOL0     H 6885  11.709   8.970  11.087 -3.8083 -0.7570  0.9444
  775MOL0     H 6886  11.732   8.845  11.199  1.7769  1.9564  0.7836
  775MOL0     H 6887  11.905   8.747  11.116 -0.0250  2.0792  1.7983
  775MOL0     H 6888  11.856   8.780  10.943 -1.0687  0.1320 -0.3975
  775MOL0     H 6889  12.081   8.876  10.997  0.7696  0.6495 -1.0695
  775MOL0     H 6890  11.952   8.984  10.950  0.9030 -2.0062 -1.9128
  775MOL0     H 6891  12.056   8.929  11.243  1.7271 -1.0511 -0.0041
  775MOL0     H 6892  11.925   9.049  11.194  0.2838 -0.6041  1.0092
  775MOL0     H 6893  12.228   9.072  11.121  0.0765  0.0092  0.6345
  775MOL0     H 6894  12.097   9.162  11.060 -1.9337  1.0845  1.1710
  775MOL0     H 6895  12.117   9.133  11.355  1.1667 -2.3839 -1.5565
  775MOL0     H 6896  12.020   9.248  11.257 -0.7638 -1.7279  0.1439
  775MOL0     H 6897  12.301   9.266  11.172 -0.8299 -0.1178  0.8493
  775MOL0     H 6898  12.195   9.393  11.226  1.5978  1.4660  2.6220
  775MOL0     H 6899  12.339   9.124  11.471  1.8885 -0.4540 -1.0387
  775MOL0     H 6900  12.591   9.274  11.714 -0.3448  3.8697 -0.7368
  775MOL0     H 6901  12.477   9.136  11.679  1.3008 -0.5099 -0.5144
  775MOL0     H 6902  12.451   9.252  11.910 -1.1748 -2.5991  0.3516
  775MOL0     H 6903  12.376   9.388  11.829 -2.4262  0.4427 -1.2070
  775MOL0     H 6904  12.258   9.166  11.724 -0.3298  1.6402 -1.3997
  775MOL0     H 6905  12.262   9.128  11.899 -1.2006  1.1128  1.5366
  775MOL0     H 6906  12.147   9.342  11.954  1.8636  0.5863 -1.3633
  775MOL0     H 6907  12.139   9.378  11.774 -0.6676  0.6161  0.3817
  775MOL0     H 6908  11.969   9.400  12.033  2.7174 -1.6592 -2.7148
  775MOL0     H 6909  11.701   9.576  12.110 -0.7481  0.7158  2.5096
  775MOL0     H 6910  11.870   9.559  12.135 -1.7020  1.4537 -0.0926
  775MOL0     H 6911  11.746   9.459  12.227 -1.0497  2.0057  1.0971
  775MOL0     H 6912  11.229   9.246  11.869 -2.0638 -1.5992 -0.7578
  775MOL0     H 6913  10.988   9.258  11.934 -2.8744 -0.4042  1.9589
  775MOL0     H 6914  10.805   9.122  12.101  0.2543 -1.6811  1.2706
  775MOL0     H 6915  10.892   9.103  12.256 -1.2032 -1.8926  0.3388
  775MOL0     H 6916  10.626   9.245  12.226  0.5565 -0.0248 -0.3232
  775MOL0     H 6917  10.682   9.086  12.286  0.6134  0.3473 -1.0958
  775MOL0     H 6918  10.794   9.350  12.394 -0.7954 -0.3866 -0.3671
  775MOL0     H 6919  10.809   9.199  12.464  1.5518  1.7447 -0.9791
  775MOL0     H 6920  10.558   9.203  12.513  1.6474 -0.9403  0.6713
  775MOL0     H 6921  10.577   9.378  12.465  1.9158  1.6978  1.2147
  775MOL0     H 6922  10.760   9.253  12.666  1.3780  0.3489 -4.5921
  775MOL0     H 6923  10.731   9.422  12.648 -0.0735  0.5519 -1.8659
  775MOL0     H 6924  10.474   9.261  12.707 -1.1149  1.7134 -0.0745
  775MOL0     H 6925  10.506   9.430  12.709 -2.4706  0.0143 -0.1486
  775MOL0     H 6926  10.491   9.370  12.939 -0.6032 -1.5780 -1.1095
  775MOL0     H 6927  10.673   9.378  12.903 -0.1395  0.3629 -0.8167
  775MOL0     H 6928  10.591   9.196  13.050  0.5593 -0.5813 -0.0856
  775MOL0     H 6929  10.680   9.134  12.904  0.4380  0.3551 -0.7604
  775MOL0     H 6930  11.098   9.275  12.340  2.4630  0.0677  0.5751
  775MOL0     H 6931  11.341   9.249  12.290  1.5265 -0.6158 -1.7357
  775MOL0     H 6932  11.572   9.163  11.861 -1.8067  3.0814 -0.2190
  775MOL0     H 6933  11.807   9.114  11.764 -0.0020  2.0029 -0.2837
  775MOL0     H 6934  11.361   8.705  10.963 -1.2861  2.9760  0.7237
  775MOL0     H 6935  11.181   8.645  10.810  1.9225 -0.9969  2.3332
  775MOL0     H 6936  10.871   8.759  10.513  2.4655 -0.1846  1.3315
  775MOL0     H 6937  10.663   8.623  10.478  1.1891  1.5474  1.9451
  775MOL0     H 6938  10.537   8.427  10.533 -0.5653  1.9009 -0.7152
  775MOL0     H 6939  10.508   8.523  10.395  1.1443  0.9044  0.4139
  775MOL0     H 6940  10.470   8.216  10.412 -3.9443  0.4060  1.8090
  775MOL0     H 6941  10.462   8.296  10.265  1.8306 -1.3757  0.2512
  775MOL0     H 6942  10.295   8.381  10.496  0.6891  1.7727 -0.3643
  775MOL0     H 6943  10.285   8.462  10.335 -1.4980 -1.0558  0.5600
  775MOL0     H 6944  10.246   8.156  10.356  1.1599 -0.1809 -1.3054
  775MOL0     H 6945  10.215   8.254  10.223 -2.1201  0.5185  0.3230
  775MOL0     H 6946   9.865   8.310  10.451 -0.2977 -4.4099  0.3421
  775MOL0     H 6947  10.899   8.311  10.314 -2.7255  0.2190 -0.4911
  775MOL0     H 6948  11.118   8.373  10.235 -1.1100  0.9782 -1.2989
  775MOL0     H 6949  11.226   8.491  10.329  0.1442 -1.6433 -0.4363
  775MOL0     H 6950  11.177   8.339  10.392 -1.1985 -0.6814  0.9920
  776MOL0     O 6951   3.237  10.338   0.931 -0.4709 -0.9128 -0.2177
  776MOL0     C 6952   3.208  10.263   1.021  0.4112  0.8019  0.4876
  776MOL0     O 6953   3.234  10.291   1.150  0.3173  0.2764  0.2230
  776MOL0     C 6954   3.326  10.388   1.183 -0.1690 -0.8047 -0.3536
  776MOL0     C 6955   3.281  10.510   1.228  0.8799 -0.1014 -0.3579
  776MOL0     C 6956   3.365  10.620   1.264  0.0382  0.6267  0.1710
  776MOL0     C 6957   3.503  10.610   1.253  0.3831  0.7095  0.3228
  776MOL0     O 6958   3.580  10.722   1.279  0.4648 -0.3955 -0.6636
  776MOL0     C 6959   3.707  10.705   1.329  0.4418  0.0035 -0.3412
  776MOL0     C 6960   3.747  10.849   1.384  0.1993  0.5536 -0.0520
  776MOL0     C 6961   3.751  10.955   1.270 -0.6621  0.8006 -0.2710
  776MOL0     C 6962   3.833  11.078   1.305 -0.6189 -0.4679  0.3834
  776MOL0     C 6963   3.775  11.165   1.418  0.3223  0.3554 -0.4958
  776MOL0     C 6964   3.858  11.290   1.421  0.7214 -0.3253 -0.4371
  776MOL0     C 6965   3.994  11.271   1.475  0.1777  0.5514 -0.0534
  776MOL0     C 6966   4.090  11.384   1.468 -0.5152  0.0135 -1.1072
  776MOL0     N 6967   4.219  11.338   1.525 -0.3159  0.1201 -0.2054
  776MOL0     C 6968   4.314  11.283   1.439 -0.2788  0.2794  0.3415
  776MOL0     C 6969   4.413  11.242   1.526  0.9984  0.5317  0.2108
  776MOL0     C 6970   4.543  11.172   1.483 -0.4046 -0.1099  0.0934
  776MOL0     C 6971   4.643  11.261   1.405 -1.1512  0.5932 -0.2352
  776MOL0     C 6972   4.759  11.176   1.349  0.5260 -0.3571  0.1596
  776MOL0     C 6973   4.865  11.265   1.293 -0.1768  0.3777 -0.0103
  776MOL0     O 6974   4.832  11.349   1.186  0.3054 -0.4127  0.0367
  776MOL0     C 6975   4.939  11.424   1.131  0.4929 -0.9885  0.1158
  776MOL0     C 6976   5.070  11.443   1.173 -0.2894  0.5564 -0.2694
  776MOL0     C 6977   5.164  11.517   1.104 -0.0538 -0.3950  0.7833
  776MOL0     C 6978   5.310  11.502   1.138  0.7732 -0.4149 -0.5607
  776MOL0     C 6979   5.128  11.584   0.985 -0.8182  0.3653  0.3412
  776MOL0     C 6980   5.219  11.684   0.919  0.3699  0.3479 -0.5147
  776MOL0     O 6981   5.316  11.730   0.999 -0.3651 -0.6118 -0.4669
  776MOL0     C 6982   5.426  11.804   0.945  0.0634 -0.0815  0.0748
  776MOL0     C 6983   5.564  11.778   0.966 -1.2212 -0.0046 -0.4368
  776MOL0     C 6984   5.670  11.844   0.905  1.2082 -0.2487 -0.8573
  776MOL0     C 6985   5.643  11.949   0.819  0.1971 -0.3014 -0.4835
  776MOL0     O 6986   5.734  12.029   0.764  0.0008 -0.5876  0.3861
  776MOL0     C 6987   5.871  11.991   0.772  0.0813 -0.1685 -0.2252
  776MOL0     C 6988   5.963  12.076   0.681 -0.1440  0.0334  0.0883
  776MOL0     C 6989   6.019  12.196   0.755 -0.3355 -0.4695 -0.2979
  776MOL0     C 6990   6.105  12.273   0.656 -0.8493 -0.2061  0.3594
  776MOL0     C 6991   6.213  12.365   0.717 -0.0582 -0.0696 -0.1643
  776MOL0     C 6992   6.143  12.480   0.799 -0.9560  0.1622  0.2775
  776MOL0     C 6993   6.233  12.603   0.796  0.6191 -0.9012  0.0974
  776MOL0     C 6994   6.210  12.696   0.676 -0.3346 -0.1907 -0.7721
  776MOL0    Cl 6995   6.324  12.664   0.540 -0.0700  0.0030  0.1356
  776MOL0     C 6996   5.508  11.986   0.801 -0.2381  0.0646 -0.0696
  776MOL0     C 6997   5.403  11.921   0.863 -0.3058  0.3965  0.0225
  776MOL0     O 6998   5.189  11.731   0.812 -0.8167  0.1680  0.2989
  776MOL0     C 6999   4.996  11.558   0.937 -0.0813 -0.0430  0.4948
  776MOL0     C 7000   4.908  11.480   1.008  0.6022 -0.5178 -0.5164
  776MOL0     N 7001   4.372  11.283   1.656  0.5832  0.2020 -0.2542
  776MOL0     N 7002   4.262  11.340   1.652  0.1031  0.2144 -0.2072
  776MOL0     C 7003   3.551  10.488   1.201  0.3583  0.0092  0.1030
  776MOL0     C 7004   3.465  10.375   1.164 -0.5961 -0.2063  0.8492
  776MOL0     C 7005   3.125  10.141   0.998 -0.7566  0.0541  0.2136
  776MOL0     C 7006   3.033  10.098   1.095  0.3805  0.0368  0.4028
  776MOL0     C 7007   2.968   9.980   1.085 -0.2444 -0.2759 -0.8544
  776MOL0     C 7008   2.993   9.897   0.972 -0.0344 -0.7734  0.0669
  776MOL0     O 7009   2.956   9.767   0.964 -0.0226  0.0022  0.0381
  776MOL0     C 7010   2.951   9.688   1.089  0.1209  0.4455 -0.4916
  776MOL0     C 7011   3.010   9.551   1.063  0.7207 -1.0271 -0.0044
  776MOL0     C 7012   2.929   9.471   0.958 -0.4995  0.6007 -0.6266
  776MOL0     C 7013   3.007   9.365   0.892 -0.2142 -0.6086 -0.5550
  776MOL0     C 7014   2.916   9.297   0.798 -0.1997  0.0824 -0.6559
  776MOL0     C 7015   2.849   9.242   0.712 -0.5162  0.0797 -0.4010
  776MOL0     C 7016   3.067   9.944   0.863  0.0288 -0.2415  0.2213
  776MOL0     C 7017   3.136  10.068   0.880 -0.0811 -0.3728  0.7179
  776MOL0     C 7018   3.236  10.088   0.776  0.1370  0.4110  0.4458
  776MOL0     H 7019   3.174  10.530   1.238  1.0831 -0.3603  4.5150
  776MOL0     H 7020   3.336  10.721   1.290  3.4989  2.9690 -3.7784
  776MOL0     H 7021   3.766  10.679   1.241 -1.8554  0.6569 -2.1674
  776MOL0     H 7022   3.719  10.625   1.403  1.2274 -1.1138 -1.6268
  776MOL0     H 7023   3.685  10.886   1.466 -0.4056 -1.3866  0.4162
  776MOL0     H 7024   3.844  10.842   1.433  0.5917 -1.1304 -0.9979
  776MOL0     H 7025   3.786  10.903   1.180 -3.0651 -2.2906  0.3964
  776MOL0     H 7026   3.647  10.983   1.253 -0.9110  1.7448  2.3639
  776MOL0     H 7027   3.932  11.050   1.343 -0.2721  1.3994  0.9561
  776MOL0     H 7028   3.832  11.140   1.215 -2.3162 -0.7633  0.1734
  776MOL0     H 7029   3.761  11.113   1.513 -1.2957 -2.8352 -2.2948
  776MOL0     H 7030   3.672  11.195   1.396  0.1913  1.3396  1.2829
  776MOL0     H 7031   3.872  11.334   1.322 -0.0902  0.0101 -0.4027
  776MOL0     H 7032   3.804  11.354   1.490 -0.1411 -1.6089  0.1164
  776MOL0     H 7033   4.044  11.203   1.406 -1.3749  0.6642 -1.3663
  776MOL0     H 7034   4.000  11.225   1.573 -1.2566  0.7581  0.1561
  776MOL0     H 7035   4.101  11.414   1.364  1.5918 -0.4382 -1.0542
  776MOL0     H 7036   4.035  11.458   1.528 -2.3911 -1.9397 -0.2526
  776MOL0     H 7037   4.312  11.264   1.332 -0.4950  1.6030  0.0841
  776MOL0     H 7038   4.514  11.091   1.415 -1.8984 -0.1437  0.7251
  776MOL0     H 7039   4.595  11.138   1.573  0.2347 -1.3351 -0.7042
  776MOL0     H 7040   4.586  11.315   1.328  0.3175 -0.0888 -1.8514
  776MOL0     H 7041   4.693  11.341   1.461  1.0767  2.3104 -4.2149
  776MOL0     H 7042   4.803  11.125   1.435  3.0987  1.0107 -0.2514
  776MOL0     H 7043   4.737  11.106   1.268 -2.9857 -1.4255  1.8035
  776MOL0     H 7044   4.898  11.325   1.378  1.6174  0.4379 -0.7158
  776MOL0     H 7045   4.948  11.200   1.266 -1.4387 -0.7442 -1.3623
  776MOL0     H 7046   5.085  11.394   1.269 -0.2467  2.4214  0.7226
  776MOL0     H 7047   5.315  11.412   1.199  1.2317 -2.4109 -3.3590
  776MOL0     H 7048   5.342  11.594   1.188  2.7007  0.1110 -2.5929
  776MOL0     H 7049   5.374  11.491   1.050  1.5714 -0.2510 -0.0123
  776MOL0     H 7050   5.579  11.701   1.041  0.3004  3.0670  2.6493
  776MOL0     H 7051   5.766  11.804   0.936  0.4692 -3.3869 -2.1952
  776MOL0     H 7052   5.901  12.007   0.876 -1.5614  0.9240  0.1098
  776MOL0     H 7053   5.891  11.887   0.746 -0.2779 -0.6797  1.4077
  776MOL0     H 7054   6.047  12.010   0.656  0.5242  0.3769  1.3400
  776MOL0     H 7055   5.920  12.094   0.582  1.4308 -0.5635 -0.7347
  776MOL0     H 7056   6.093  12.158   0.825 -1.1072  1.7851  1.8622
  776MOL0     H 7057   5.942  12.254   0.807  1.3196 -1.5525  3.7159
  776MOL0     H 7058   6.036  12.333   0.595  2.2505  0.8570 -2.3712
  776MOL0     H 7059   6.151  12.198   0.591  0.2886  0.1490  0.7369
  776MOL0     H 7060   6.282  12.312   0.784 -0.7458 -0.6645  0.0881
  776MOL0     H 7061   6.273  12.395   0.631 -2.6093 -1.7873 -2.7195
  776MOL0     H 7062   6.124  12.445   0.900  0.6543  2.4083  1.4349
  776MOL0     H 7063   6.046  12.513   0.761 -1.3660 -1.1640  0.1301
  776MOL0     H 7064   6.339  12.579   0.808  0.5100 -0.8861  1.1640
  776MOL0     H 7065   6.201  12.662   0.883 -1.5583  0.5664 -1.5721
  776MOL0     H 7066   6.247  12.792   0.714 -0.7910 -0.0586 -0.6479
  776MOL0     H 7067   6.107  12.709   0.641 -0.0399 -0.6738 -1.8567
  776MOL0     H 7068   5.480  12.067   0.735  1.1349 -0.2389 -1.0966
  776MOL0     H 7069   5.301  11.955   0.844 -0.3643 -0.3296 -1.0006
  776MOL0     H 7070   4.975  11.611   0.845  1.7965 -0.0312  0.0314
  776MOL0     H 7071   4.810  11.469   0.962  0.0695  0.5027  0.3133
  776MOL0     H 7072   3.657  10.475   1.185  0.3473 -0.5935  0.4924
  776MOL0     H 7073   3.514  10.289   1.118  0.9478  0.7640  0.5931
  776MOL0     H 7074   3.025  10.144   1.193  0.2907 -0.0628  0.4419
  776MOL0     H 7075   2.918   9.934   1.170 -0.4785  1.0624 -0.2433
  776MOL0     H 7076   2.990   9.728   1.182 -2.9281 -0.1538  1.1703
  776MOL0     H 7077   2.845   9.680   1.115 -0.3622  0.4272 -2.2760
  776MOL0     H 7078   3.007   9.496   1.158 -3.4771 -0.3608  0.4209
  776MOL0     H 7079   3.112   9.568   1.027 -0.2038  0.2736 -2.1493
  776MOL0     H 7080   2.839   9.433   1.008 -2.2979  2.8586 -1.9503
  776MOL0     H 7081   2.891   9.542   0.885 -1.4291 -0.1187 -0.8636
  776MOL0     H 7082   3.069   9.296   0.949  2.4663 -1.4687 -4.1025
  776MOL0     H 7083   3.088   9.407   0.832 -0.7995 -0.0083 -0.9385
  776MOL0     H 7084   2.794   9.203   0.629  0.5148  0.3959 -1.2583
  776MOL0     H 7085   3.080   9.875   0.780  2.0446 -0.5229  0.7214
  776MOL0     H 7086   3.228  10.006   0.704 -1.4285 -0.9309  2.0492
  776MOL0     H 7087   3.215  10.186   0.733 -0.3137  0.3325  0.4845
  776MOL0     H 7088   3.341  10.097   0.806  1.0081  0.3530 -2.2872
  777MOL0     O 7089   1.914   8.459   1.173 -0.0083  0.3815 -0.4848
  777MOL0     C 7090   1.825   8.544   1.150 -0.1367 -0.1113 -0.4846
  777MOL0     O 7091   1.828   8.632   1.046  0.4167  0.2212  0.5002
  777MOL0     C 7092   1.937   8.630   0.964  0.4449 -0.2267  0.1500
  777MOL0     C 7093   1.947   8.532   0.870 -0.7623  0.2847 -0.0917
  777MOL0     C 7094   2.061   8.519   0.789 -0.7921  0.5559 -0.2327
  777MOL0     C 7095   2.166   8.612   0.804 -0.4032  0.1067  0.6826
  777MOL0     O 7096   2.281   8.592   0.737  0.3286 -0.1176 -0.6881
  777MOL0     C 7097   2.400   8.591   0.811  0.2236  0.0429  0.4536
  777MOL0     C 7098   2.501   8.686   0.737 -0.3874 -0.3655 -0.2109
  777MOL0     C 7099   2.460   8.819   0.700  0.3187 -1.0201 -0.6967
  777MOL0     C 7100   2.554   8.910   0.632  0.0390  0.2207  0.5591
  777MOL0     C 7101   2.499   9.038   0.567  0.3570  0.8253 -0.0071
  777MOL0     C 7102   2.476   9.150   0.669  0.0688 -1.3945  0.7068
  777MOL0     C 7103   2.400   9.272   0.599  0.2336 -0.0724  0.3580
  777MOL0     C 7104   2.261   9.260   0.533  0.4299  0.1179  0.1911
  777MOL0     N 7105   2.159   9.191   0.618 -0.3002  0.4236  0.2564
  777MOL0     C 7106   2.143   9.054   0.623 -0.3697 -0.3381 -0.2787
  777MOL0     C 7107   2.027   9.042   0.685  0.6209  0.1107  0.5946
  777MOL0     C 7108   1.948   8.914   0.708  0.4672 -0.2881 -0.0972
  777MOL0     C 7109   1.820   8.911   0.631 -0.3404 -0.6005 -0.3918
  777MOL0     C 7110   1.727   8.803   0.700  0.3229  0.8754 -0.1564
  777MOL0     C 7111   1.586   8.814   0.638 -1.1347  0.7821 -0.7529
  777MOL0     O 7112   1.508   8.693   0.660  0.9533 -0.6431  0.0361
  777MOL0     C 7113   1.526   8.583   0.583 -1.2197 -0.3080  0.3471
  777MOL0     C 7114   1.464   8.465   0.608 -0.1153 -0.0966  0.7272
  777MOL0     C 7115   1.467   8.349   0.519  0.0429  0.5297 -0.5237
  777MOL0     C 7116   1.393   8.229   0.552 -0.7343 -0.0745 -0.6305
  777MOL0     C 7117   1.547   8.357   0.401 -0.2545  0.6331  0.1721
  777MOL0     C 7118   1.563   8.242   0.310  0.4787  0.5320  0.7071
  777MOL0     O 7119   1.684   8.210   0.256 -0.7442 -0.1562  0.2249
  777MOL0     C 7120   1.709   8.097   0.185  0.1153  0.0887 -0.4192
  777MOL0     C 7121   1.738   7.977   0.252  0.4938  0.1936  1.1607
  777MOL0     C 7122   1.731   7.856   0.181 -0.6505 -0.0080  0.0226
  777MOL0     C 7123   1.723   7.853   0.037 -0.2849  0.1204 -0.6728
  777MOL0     O 7124   1.717   7.733  -0.031  0.0150 -0.0489  0.0109
  777MOL0     C 7125   1.590   7.671  -0.032 -0.5418  0.7363 -0.0297
  777MOL0     C 7126   1.571   7.577  -0.145 -0.2848 -0.4495 -0.0790
  777MOL0     C 7127   1.598   7.429  -0.107 -0.2825  0.2995  0.4449
  777MOL0     C 7128   1.532   7.327  -0.201 -0.0626  0.0266  0.3777
  777MOL0     C 7129   1.597   7.193  -0.194  0.3408  1.6797 -0.3893
  777MOL0     C 7130   1.529   7.086  -0.291 -0.2665 -0.4645 -0.5216
  777MOL0     C 7131   1.558   7.106  -0.444  0.4792  0.0433 -1.1727
  777MOL0     C 7132   1.537   6.974  -0.511  0.2804 -0.2668 -0.7670
  777MOL0    Cl 7133   1.368   6.915  -0.489 -0.0998 -0.2323 -0.0877
  777MOL0     C 7134   1.699   7.978  -0.033  0.4806 -0.0399 -0.2854
  777MOL0     C 7135   1.683   8.097   0.044  0.1622  0.4211 -0.1234
  777MOL0     O 7136   1.459   8.177   0.280  0.8086 -0.2990  0.2716
  777MOL0     C 7137   1.618   8.477   0.381 -1.2094 -0.8581  0.0654
  777MOL0     C 7138   1.608   8.582   0.469 -0.5995 -0.2471  0.8446
  777MOL0     N 7139   1.969   9.169   0.715 -0.2828  0.5748 -0.4905
  777MOL0     N 7140   2.063   9.253   0.681  0.2690  0.3179  0.7025
  777MOL0     C 7141   2.144   8.722   0.891  0.2695  0.0346 -0.3461
  777MOL0     C 7142   2.030   8.734   0.976 -0.2780  0.1291  0.4601
  777MOL0     C 7143   1.708   8.568   1.235 -0.0908  0.4587  0.3915
  777MOL0     C 7144   1.619   8.667   1.197  0.8893 -0.0477  0.8788
  777MOL0     C 7145   1.502   8.694   1.273  0.7360 -0.3197 -0.7181
  777MOL0     C 7146   1.469   8.631   1.391 -0.2681 -0.3531  0.6781
  777MOL0     O 7147   1.361   8.666   1.468  0.3632  0.3935 -0.4409
  777MOL0     C 7148   1.389   8.659   1.610  0.3727 -1.1414 -0.0209
  777MOL0     C 7149   1.270   8.718   1.688 -0.6214 -0.1070  0.0696
  777MOL0     C 7150   1.253   8.865   1.653  0.1585  0.2715  0.3458
  777MOL0     C 7151   1.178   8.955   1.756 -0.2008 -0.0461 -0.2704
  777MOL0     C 7152   1.040   8.915   1.762  0.1524 -0.4033  0.1052
  777MOL0     C 7153   0.934   8.862   1.784  0.7287 -0.3752 -0.1859
  777MOL0     C 7154   1.559   8.532   1.425 -0.2298 -0.2047  0.0118
  777MOL0     C 7155   1.677   8.505   1.356  0.0267 -0.6034 -0.0253
  777MOL0     C 7156   1.779   8.417   1.427  0.3733 -0.7063  0.3901
  777MOL0     H 7157   1.862   8.465   0.870 -0.9490  0.5118  0.2218
  777MOL0     H 7158   2.075   8.425   0.737  3.6066  0.5218  0.5953
  777MOL0     H 7159   2.436   8.487   0.811  2.1656  0.6675 -0.7566
  777MOL0     H 7160   2.383   8.627   0.912 -1.1263 -0.8548  0.5683
  777MOL0     H 7161   2.593   8.692   0.796 -0.9911  2.1161  0.5692
  777MOL0     H 7162   2.538   8.635   0.647 -2.0105 -1.3831 -0.3308
  777MOL0     H 7163   2.369   8.812   0.639  1.9614  0.9844 -3.6255
  777MOL0     H 7164   2.429   8.863   0.795  2.1601 -1.1419  0.0049
  777MOL0     H 7165   2.645   8.939   0.686  0.3535 -1.5461  1.0255
  777MOL0     H 7166   2.594   8.847   0.552 -0.1486 -0.3598  0.9233
  777MOL0     H 7167   2.404   9.009   0.521 -0.4035  1.0043  1.3979
  777MOL0     H 7168   2.561   9.077   0.485 -1.0518  0.0833 -1.5048
  777MOL0     H 7169   2.416   9.110   0.751  1.5329 -1.5560  1.7303
  777MOL0     H 7170   2.578   9.165   0.703  0.4169 -1.6838 -0.1692
  777MOL0     H 7171   2.469   9.314   0.526  0.0467 -0.6754 -0.1805
  777MOL0     H 7172   2.391   9.348   0.677 -0.3916  1.3035 -0.9913
  777MOL0     H 7173   2.221   9.361   0.520 -2.6362 -0.8157  1.4896
  777MOL0     H 7174   2.263   9.200   0.442 -2.5049  1.9695 -1.2462
  777MOL0     H 7175   2.215   8.984   0.581  1.7544  0.5841  1.6053
  777MOL0     H 7176   1.918   8.903   0.813  0.5462  1.2143  0.0925
  777MOL0     H 7177   2.008   8.825   0.684  0.5494 -0.6894  1.4739
  777MOL0     H 7178   1.776   9.010   0.643  2.3112  0.4935  1.4711
  777MOL0     H 7179   1.836   8.888   0.525  0.6530  2.9582 -1.1523
  777MOL0     H 7180   1.778   8.710   0.675  1.8512  1.1897  1.5731
  777MOL0     H 7181   1.716   8.818   0.808 -0.0052  1.8712 -0.3159
  777MOL0     H 7182   1.535   8.902   0.678 -0.8816  2.0500 -3.0132
  777MOL0     H 7183   1.588   8.830   0.529  0.1951  2.6022 -0.5081
  777MOL0     H 7184   1.405   8.470   0.699 -0.9345  1.6704  0.1391
  777MOL0     H 7185   1.461   8.144   0.549 -0.3269  0.0072  2.9284
  777MOL0     H 7186   1.310   8.212   0.481 -1.7484 -0.4183  0.5975
  777MOL0     H 7187   1.352   8.234   0.653  1.3339  3.1811  0.1777
  777MOL0     H 7188   1.744   7.979   0.360  3.1912  2.0160  1.0583
  777MOL0     H 7189   1.747   7.758   0.224  2.3775 -0.5321 -2.0429
  777MOL0     H 7190   1.579   7.621   0.064 -4.1177 -0.6392 -0.9929
  777MOL0     H 7191   1.511   7.746  -0.043 -0.9649  0.0169 -2.5342
  777MOL0     H 7192   1.463   7.565  -0.160 -0.5377 -0.0948  1.3125
  777MOL0     H 7193   1.618   7.621  -0.233  0.0159  1.4120  0.9482
  777MOL0     H 7194   1.555   7.396  -0.011  1.1444 -2.2397  0.3055
  777MOL0     H 7195   1.706   7.414  -0.111 -0.2157  0.4038  1.5653
  777MOL0     H 7196   1.538   7.367  -0.302  0.2461  2.7397  1.3681
  777MOL0     H 7197   1.429   7.305  -0.171  0.0689 -1.4881 -0.2129
  777MOL0     H 7198   1.704   7.204  -0.215  0.6393 -1.2792 -0.8525
  777MOL0     H 7199   1.590   7.147  -0.095  1.5709 -0.2313 -1.1407
  777MOL0     H 7200   1.422   7.089  -0.269  0.1020 -1.6326  1.7761
  777MOL0     H 7201   1.553   6.982  -0.267  1.3832 -0.1404 -0.5842
  777MOL0     H 7202   1.664   7.132  -0.453  1.0449  1.8100  5.3405
  777MOL0     H 7203   1.490   7.179  -0.489 -1.0268 -0.3454  0.3925
  777MOL0     H 7204   1.600   6.901  -0.459  0.0344 -0.1761 -0.3370
  777MOL0     H 7205   1.559   6.990  -0.617  0.8855  1.7950 -0.3782
  777MOL0     H 7206   1.693   7.973  -0.141  2.9148  1.8847 -0.6214
  777MOL0     H 7207   1.667   8.188  -0.014  0.6789  0.1079 -0.7722
  777MOL0     H 7208   1.691   8.493   0.302 -1.2142  0.5662  0.3127
  777MOL0     H 7209   1.666   8.668   0.437 -1.8020  0.2782 -0.0034
  777MOL0     H 7210   2.217   8.803   0.886  0.1524  0.1514 -0.1735
  777MOL0     H 7211   2.018   8.822   1.039  4.0338 -0.0741  1.8892
  777MOL0     H 7212   1.618   8.712   1.098  2.6696 -0.2237  0.7546
  777MOL0     H 7213   1.430   8.765   1.232 -1.8397 -2.8179 -0.8442
  777MOL0     H 7214   1.401   8.553   1.634 -1.1760 -1.0956  1.1208
  777MOL0     H 7215   1.482   8.712   1.632 -0.9229  1.6420 -0.7321
  777MOL0     H 7216   1.281   8.714   1.797 -0.1780 -4.7737  0.0417
  777MOL0     H 7217   1.183   8.658   1.660 -0.3537 -0.9905  1.0398
  777MOL0     H 7218   1.352   8.906   1.631 -0.0387 -0.0993 -1.3529
  777MOL0     H 7219   1.204   8.859   1.556  0.2294 -1.2073  0.3801
  777MOL0     H 7220   1.188   9.062   1.737  1.8522 -0.3703 -1.2159
  777MOL0     H 7221   1.234   8.941   1.849  1.9846  0.3862 -1.4707
  777MOL0     H 7222   0.832   8.833   1.794  0.7042 -0.1959  0.0922
  777MOL0     H 7223   1.540   8.473   1.514 -0.9475 -2.3651 -1.4859
  777MOL0     H 7224   1.870   8.473   1.447 -1.2595  2.1459  0.3945
  777MOL0     H 7225   1.743   8.376   1.522 -1.0947 -1.0271 -0.2626
  777MOL0     H 7226   1.788   8.336   1.354 -1.8209 -0.0144 -0.7710
  778MOL0     O 7227   8.999   5.732   9.031 -0.0767 -0.3335 -0.2152
  778MOL0     C 7228   9.107   5.714   8.975  0.0938  0.1004  0.9602
  778MOL0     O 7229   9.132   5.758   8.843 -0.8301 -0.7473 -0.2281
  778MOL0     C 7230   9.030   5.801   8.763 -0.4741 -0.1804  0.1157
  778MOL0     C 7231   8.923   5.721   8.712  0.5197  0.5042 -0.9349
  778MOL0     C 7232   8.834   5.760   8.617  1.1392  0.7616  0.9063
  778MOL0     C 7233   8.842   5.890   8.576  0.9644  0.6662  0.6092
  778MOL0     O 7234   8.758   5.935   8.480 -0.5481 -0.1497  0.3081
  778MOL0     C 7235   8.685   6.059   8.507  0.1554 -0.5343 -0.3837
  778MOL0     C 7236   8.539   6.022   8.527 -0.4361 -0.6544 -0.6775
  778MOL0     C 7237   8.454   6.148   8.560 -0.3547 -0.5458 -1.4567
  778MOL0     C 7238   8.395   6.234   8.449 -0.1289  0.0315 -0.3432
  778MOL0     C 7239   8.336   6.151   8.339 -0.2181 -0.0286  0.6078
  778MOL0     C 7240   8.293   6.246   8.219 -0.1213 -1.3203  0.1727
  778MOL0     C 7241   8.262   6.180   8.092 -0.0243  0.4138 -0.2106
  778MOL0     C 7242   8.142   6.091   8.101 -0.1272 -0.1555 -0.1097
  778MOL0     N 7243   8.029   6.162   8.161  0.3987  0.0096  0.2044
  778MOL0     C 7244   7.961   6.268   8.098 -0.4804  0.4745  0.3573
  778MOL0     C 7245   7.848   6.282   8.172  0.1762  0.2393  0.8363
  778MOL0     C 7246   7.732   6.378   8.140 -0.1360 -0.0246  0.3477
  778MOL0     C 7247   7.604   6.316   8.084 -0.6031 -0.2380  1.3445
  778MOL0     C 7248   7.519   6.254   8.191  0.1318  0.0825 -0.0334
  778MOL0     C 7249   7.450   6.355   8.276 -0.7592 -0.0797 -0.1958
  778MOL0     O 7250   7.363   6.434   8.194 -0.5337 -0.3562 -0.7766
  778MOL0     C 7251   7.295   6.533   8.262  0.1099 -0.1326 -0.3703
  778MOL0     C 7252   7.195   6.594   8.192  0.6994 -0.8347 -0.1929
  778MOL0     C 7253   7.113   6.682   8.251 -0.4312 -0.9752  0.2112
  778MOL0     C 7254   6.993   6.716   8.171  1.1908  0.0766  0.8730
  778MOL0     C 7255   7.131   6.715   8.393  0.4608  0.1699  0.3704
  778MOL0     C 7256   7.036   6.801   8.464  0.5812  0.0684 -0.3547
  778MOL0     O 7257   7.019   6.772   8.600 -0.8511 -0.3687  0.0092
  778MOL0     C 7258   6.909   6.820   8.657  0.2061 -0.0556  0.6912
  778MOL0     C 7259   6.917   6.947   8.714 -0.1026 -0.3921 -1.2070
  778MOL0     C 7260   6.802   7.003   8.776 -0.4877 -0.1532 -0.1928
  778MOL0     C 7261   6.688   6.926   8.783 -0.0918 -0.4069  0.3269
  778MOL0     O 7262   6.579   6.974   8.842 -0.9292 -0.0820 -0.1980
  778MOL0     C 7263   6.525   7.100   8.794 -0.0617  1.1371 -0.1184
  778MOL0     C 7264   6.413   7.139   8.888  0.2989 -0.3652  0.6076
  778MOL0     C 7265   6.470   7.211   9.017 -0.7772  0.2671 -0.7708
  778MOL0     C 7266   6.515   7.349   8.974  0.2435 -0.5426 -0.3247
  778MOL0     C 7267   6.503   7.445   9.094 -0.1833  0.5170 -0.3772
  778MOL0     C 7268   6.574   7.385   9.218  0.2236  0.2634 -0.2014
  778MOL0     C 7269   6.728   7.389   9.208 -0.6471 -0.0017  0.4033
  778MOL0     C 7270   6.789   7.521   9.148  0.7000 -0.0330  0.7718
  778MOL0    Cl 7271   6.743   7.650   9.269 -0.1962  0.4033 -0.1257
  778MOL0     C 7272   6.674   6.810   8.718 -0.0975 -0.3538 -0.5126
  778MOL0     C 7273   6.778   6.757   8.653 -0.1157 -0.5243  1.4345
  778MOL0     O 7274   6.983   6.891   8.402 -0.3563 -0.1057 -0.0149
  778MOL0     C 7275   7.232   6.652   8.467 -1.3451  0.1645  0.4530
  778MOL0     C 7276   7.326   6.572   8.393  0.1458 -0.2550  0.1947
  778MOL0     N 7277   7.865   6.203   8.277  0.1059 -0.0115 -0.0812
  778MOL0     N 7278   7.969   6.128   8.272  1.3764 -0.3658  0.4622
  778MOL0     C 7279   8.951   5.974   8.611  0.6303  0.1713 -0.9151
  778MOL0     C 7280   9.045   5.923   8.696 -0.3913  0.1415  0.4459
  778MOL0     C 7281   9.226   5.638   9.051 -0.3396 -0.7554  0.3105
  778MOL0     C 7282   9.350   5.626   8.992  0.6650 -0.2022 -0.3101
  778MOL0     C 7283   9.456   5.568   9.054  0.0506 -0.8322 -0.1022
  778MOL0     C 7284   9.449   5.516   9.183 -0.5202  0.1858 -0.9039
  778MOL0     O 7285   9.547   5.437   9.238  0.5495  0.3795  0.9660
  778MOL0     C 7286   9.662   5.505   9.270  0.1724  0.1631 -0.5105
  778MOL0     C 7287   9.732   5.423   9.381 -0.6618  0.0796 -0.2362
  778MOL0     C 7288   9.646   5.376   9.499 -0.5596  0.3353  0.5621
  778MOL0     C 7289   9.733   5.293   9.589  0.7267 -0.2622 -0.8677
  778MOL0     C 7290   9.715   5.149   9.567  0.8674 -0.2514 -0.1111
  778MOL0     C 7291   9.706   5.030   9.557 -0.6067  0.5152  0.0325
  778MOL0     C 7292   9.317   5.515   9.239  0.4478 -0.2126  0.7835
  778MOL0     C 7293   9.203   5.574   9.174  0.5743 -0.3061  0.2529
  778MOL0     C 7294   9.067   5.550   9.239 -0.0963  0.7934  0.4704
  778MOL0     H 7295   8.916   5.630   8.772 -1.2644  0.9190 -0.4479
  778MOL0     H 7296   8.743   5.705   8.596  2.5907 -1.1272 -0.8431
  778MOL0     H 7297   8.689   6.127   8.421 -0.5276  1.7952  1.3050
  778MOL0     H 7298   8.716   6.110   8.599 -0.1408 -2.4243  0.8169
  778MOL0     H 7299   8.492   5.961   8.449 -1.3672 -0.1657 -0.5218
  778MOL0     H 7300   8.530   5.961   8.617  0.2545 -0.2619 -0.3341
  778MOL0     H 7301   8.366   6.117   8.618  2.2970 -1.3263  2.5416
  778MOL0     H 7302   8.509   6.204   8.636  1.2639 -3.3746 -0.3932
  778MOL0     H 7303   8.321   6.306   8.485 -1.9077  0.3369 -4.1865
  778MOL0     H 7304   8.481   6.294   8.415 -0.4085  1.5149  1.3996
  778MOL0     H 7305   8.249   6.089   8.363 -0.3857  0.0674  0.2441
  778MOL0     H 7306   8.414   6.081   8.307  2.5732  2.8015  0.7059
  778MOL0     H 7307   8.213   6.316   8.244  0.5609  0.4245 -2.1052
  778MOL0     H 7308   8.384   6.306   8.211  0.6016 -2.3539  0.3723
  778MOL0     H 7309   8.337   6.106   8.064  1.6180  1.4957  1.1065
  778MOL0     H 7310   8.245   6.253   8.013 -2.1448  1.9805  1.5302
  778MOL0     H 7311   8.114   6.077   7.996 -0.4429  2.0462 -0.3764
  778MOL0     H 7312   8.176   5.995   8.140 -0.0756 -1.2226 -2.5993
  778MOL0     H 7313   7.997   6.304   8.002  0.9819  0.0694  0.7288
  778MOL0     H 7314   7.779   6.440   8.063 -1.2773  0.2050 -0.1856
  778MOL0     H 7315   7.701   6.440   8.224 -0.9519  0.1924 -0.1062
  778MOL0     H 7316   7.552   6.399   8.035 -1.6950 -2.7241 -2.1164
  778MOL0     H 7317   7.629   6.245   8.004 -1.7379  0.6306  0.1880
  778MOL0     H 7318   7.437   6.195   8.149  0.7236 -0.6499 -0.1725
  778MOL0     H 7319   7.583   6.191   8.254 -2.7772 -3.6846 -0.5132
  778MOL0     H 7320   7.390   6.301   8.349 -0.3385 -0.9750 -0.5020
  778MOL0     H 7321   7.525   6.405   8.338 -0.0376 -1.9951  0.5385
  778MOL0     H 7322   7.174   6.546   8.096 -1.4729  1.2414 -0.8515
  778MOL0     H 7323   6.968   6.658   8.082  0.6664  0.8583  0.5103
  778MOL0     H 7324   6.984   6.821   8.143 -1.1838 -0.6061 -1.1920
  778MOL0     H 7325   6.909   6.689   8.236  1.1111 -0.2656  0.6298
  778MOL0     H 7326   7.015   6.992   8.709  0.2409 -0.8306  0.8061
  778MOL0     H 7327   6.789   7.106   8.808 -0.9528 -0.2406 -0.0918
  778MOL0     H 7328   6.594   7.184   8.784 -0.3102  1.7456  2.5574
  778MOL0     H 7329   6.490   7.094   8.690  1.9837 -1.4038 -0.7595
  778MOL0     H 7330   6.343   7.206   8.837  1.6238 -0.7623 -1.8655
  778MOL0     H 7331   6.351   7.051   8.907  0.1647 -1.4331 -3.8590
  778MOL0     H 7332   6.544   7.147   9.066 -0.6986  0.7104 -0.3049
  778MOL0     H 7333   6.389   7.218   9.090 -0.5705 -2.5272 -0.1694
  778MOL0     H 7334   6.474   7.410   8.893  4.1228  2.6113 -0.2130
  778MOL0     H 7335   6.614   7.322   8.937 -0.2706 -0.5487 -1.7681
  778MOL0     H 7336   6.541   7.545   9.069  0.5869 -0.1761 -2.1745
  778MOL0     H 7337   6.395   7.456   9.109 -0.1603 -0.4693  0.6531
  778MOL0     H 7338   6.541   7.285   9.248  0.5380  0.3729  0.5443
  778MOL0     H 7339   6.526   7.438   9.302 -3.5314 -0.5512 -1.6258
  778MOL0     H 7340   6.761   7.304   9.148 -1.5679 -0.1461  0.0797
  778MOL0     H 7341   6.773   7.375   9.307 -1.5446  3.0419  1.3600
  778MOL0     H 7342   6.760   7.540   9.044 -0.6604 -0.7574  0.9950
  778MOL0     H 7343   6.896   7.505   9.156  0.4347 -1.5724  1.6745
  778MOL0     H 7344   6.579   6.757   8.721  1.1959 -2.7130  1.0311
  778MOL0     H 7345   6.761   6.658   8.611 -2.7401  0.2974  0.4205
  778MOL0     H 7346   7.256   6.683   8.568  1.0484 -0.0541  0.0056
  778MOL0     H 7347   7.406   6.541   8.459 -0.1118  0.2226  0.7435
  778MOL0     H 7348   8.965   6.073   8.568  3.5725  0.3829  0.2782
  778MOL0     H 7349   9.122   5.992   8.731  0.7294 -1.2670  0.8792
  778MOL0     H 7350   9.370   5.665   8.893  0.7916  4.8920  1.4716
  778MOL0     H 7351   9.538   5.559   8.983 -0.8406  2.5934 -1.7556
  778MOL0     H 7352   9.727   5.520   9.183 -0.5677 -0.8244 -1.2590
  778MOL0     H 7353   9.638   5.606   9.305 -1.1057  0.0747 -1.0813
  778MOL0     H 7354   9.817   5.485   9.412 -0.4027  0.9086 -2.4620
  778MOL0     H 7355   9.760   5.331   9.329 -3.2424 -0.6730 -0.4095
  778MOL0     H 7356   9.596   5.464   9.541 -1.1961  0.4632 -0.4440
  778MOL0     H 7357   9.558   5.317   9.472  0.8291 -1.0148 -1.2406
  778MOL0     H 7358   9.706   5.319   9.692 -1.0428 -1.5704 -0.9561
  778MOL0     H 7359   9.835   5.330   9.577  0.1186  1.0537 -2.2945
  778MOL0     H 7360   9.720   4.924   9.548  2.5005  0.9773 -2.8869
  778MOL0     H 7361   9.300   5.444   9.320  1.1384 -2.0547 -0.6249
  778MOL0     H 7362   9.003   5.497   9.168 -0.7116  1.0631  0.8178
  778MOL0     H 7363   9.068   5.474   9.317  0.5346  0.5452  0.2259
  778MOL0     H 7364   9.020   5.639   9.281  1.5994  0.7927  2.5374
  779MOL0     O 7365   2.442  11.021   5.037 -0.3126 -0.6360  0.1444
  779MOL0     C 7366   2.339  11.003   4.974 -0.6424 -0.7884 -0.0178
  779MOL0     O 7367   2.327  10.953   4.846 -0.2109  0.2719  0.0817
  779MOL0     C 7368   2.439  10.893   4.796 -0.5787  1.2210  0.8122
  779MOL0     C 7369   2.499  10.935   4.680 -0.1013  0.2509  0.4764
  779MOL0     C 7370   2.619  10.880   4.643 -0.0702 -0.9392 -0.4985
  779MOL0     C 7371   2.682  10.771   4.706  0.0383  0.2109 -0.4015
  779MOL0     O 7372   2.805  10.711   4.658 -1.0145  1.3870  1.0936
  779MOL0     C 7373   2.804  10.567   4.643  1.0150 -0.3128  1.1290
  779MOL0     C 7374   2.840  10.534   4.490  0.4884  0.2206 -0.2428
  779MOL0     C 7375   2.984  10.574   4.442  1.0141 -0.3193 -0.2125
  779MOL0     C 7376   3.076  10.452   4.475  1.4201 -0.4085 -0.1418
  779MOL0     C 7377   3.215  10.491   4.415  0.4224 -0.1432  0.1352
  779MOL0     C 7378   3.275  10.347   4.389 -0.2862 -0.3131  0.6034
  779MOL0     C 7379   3.418  10.350   4.368 -0.7093  0.1732  0.4432
  779MOL0     C 7380   3.484  10.342   4.504  0.0562  0.3883 -0.0959
  779MOL0     N 7381   3.628  10.373   4.504  0.6262 -0.0397  0.2153
  779MOL0     C 7382   3.708  10.377   4.392  0.1236 -0.0237  0.1428
  779MOL0     C 7383   3.828  10.416   4.441 -0.5642 -0.9115 -0.6856
  779MOL0     C 7384   3.950  10.443   4.351 -0.3676  0.3753 -0.3860
  779MOL0     C 7385   3.990  10.322   4.270 -0.6107 -0.3875  0.2174
  779MOL0     C 7386   4.062  10.363   4.138  0.7409 -0.2097  0.1543
  779MOL0     C 7387   4.200  10.279   4.136  0.1897  0.5801 -0.1411
  779MOL0     O 7388   4.261  10.315   4.012 -0.5566  0.6683 -0.2350
  779MOL0     C 7389   4.391  10.276   3.988  0.0387 -0.3955 -0.4258
  779MOL0     C 7390   4.440  10.306   3.859 -0.0904  1.1526 -1.0937
  779MOL0     C 7391   4.580  10.290   3.835 -0.0177  0.3808  0.5345
  779MOL0     C 7392   4.623  10.339   3.692 -0.5105 -0.4761 -0.5022
  779MOL0     C 7393   4.673  10.228   3.929  0.0499  0.2719 -0.9066
  779MOL0     C 7394   4.822  10.206   3.910  0.2443  0.1510 -0.4023
  779MOL0     O 7395   4.883  10.236   3.787 -0.0608  0.3342 -0.2410
  779MOL0     C 7396   5.016  10.258   3.787  0.3554  0.0414 -0.0689
  779MOL0     C 7397   5.075  10.375   3.844 -0.0613  0.3766  0.3034
  779MOL0     C 7398   5.210  10.385   3.856 -0.1113 -0.6468  0.9733
  779MOL0     C 7399   5.292  10.279   3.807 -0.9958  0.2816  0.6559
  779MOL0     O 7400   5.427  10.271   3.824  0.2279  1.0622 -0.3575
  779MOL0     C 7401   5.489  10.335   3.936 -0.5270 -1.1065 -0.3210
  779MOL0     C 7402   5.630  10.288   3.945  0.0569 -0.3728 -1.3742
  779MOL0     C 7403   5.645  10.133   3.942  0.7376  0.2346  0.1511
  779MOL0     C 7404   5.712  10.079   4.066  0.3366 -0.3402 -0.5727
  779MOL0     C 7405   5.849  10.137   4.082 -0.1477 -0.3030 -0.1146
  779MOL0     C 7406   5.938  10.067   4.178  0.3423 -0.2744 -0.4558
  779MOL0     C 7407   6.069  10.146   4.171 -0.4272  0.1979 -0.1526
  779MOL0     C 7408   6.184  10.085   4.263 -0.1071  0.0911 -0.0173
  779MOL0    Cl 7409   6.280   9.975   4.185  0.1056  0.4978 -0.3114
  779MOL0     C 7410   5.234  10.164   3.752  0.2822  0.3240  1.0592
  779MOL0     C 7411   5.099  10.161   3.736 -0.6939 -0.1379  0.5381
  779MOL0     O 7412   4.881  10.163   4.012  1.2280  0.4410 -0.0147
  779MOL0     C 7413   4.611  10.188   4.051 -0.1630 -0.1160 -0.1468
  779MOL0     C 7414   4.480  10.216   4.080  0.4629 -1.2527  0.3103
  779MOL0     N 7415   3.820  10.431   4.577  0.3590 -0.3609 -0.1644
  779MOL0     N 7416   3.700  10.402   4.615  0.8464 -0.0468  1.0711
  779MOL0     C 7417   2.612  10.720   4.818 -0.4073 -0.2508  0.3725
  779MOL0     C 7418   2.497  10.783   4.865  0.2331  0.7405  0.1891
  779MOL0     C 7419   2.230  11.074   5.033  0.5143 -0.0181  0.5512
  779MOL0     C 7420   2.245  11.208   5.067 -1.0200 -0.4077 -0.8879
  779MOL0     C 7421   2.140  11.290   5.112 -0.1881 -0.0951  0.1592
  779MOL0     C 7422   2.012  11.236   5.128 -0.3358  1.0166  0.6274
  779MOL0     O 7423   1.911  11.310   5.186 -0.0140  0.2405  0.7342
  779MOL0     C 7424   1.913  11.452   5.207 -1.1209  1.0030  0.3694
  779MOL0     C 7425   1.787  11.499   5.281 -0.1522 -0.0875 -0.4981
  779MOL0     C 7426   1.650  11.455   5.212  0.9596 -0.0879  0.4235
  779MOL0     C 7427   1.613  11.543   5.095 -0.2437  0.6372  0.7232
  779MOL0     C 7428   1.477  11.489   5.055  0.5412  0.5656  0.4348
  779MOL0     C 7429   1.362  11.461   5.024  0.1922  1.0066  0.1391
  779MOL0     C 7430   1.995  11.102   5.089  0.0308 -0.2042  0.1896
  779MOL0     C 7431   2.102  11.024   5.045 -0.1150 -0.1670  0.2924
  779MOL0     C 7432   2.074  10.883   4.990 -0.4535  0.2110  0.2862
  779MOL0     H 7433   2.454  11.008   4.614  0.1214 -0.6198 -0.6637
  779MOL0     H 7434   2.659  10.919   4.550 -1.1956 -0.5161 -0.8154
  779MOL0     H 7435   2.703  10.527   4.655  1.3310 -0.9229  1.7944
  779MOL0     H 7436   2.873  10.523   4.715 -0.2565 -2.0926  1.3066
  779MOL0     H 7437   2.825  10.427   4.476  0.2931  0.6348 -4.2325
  779MOL0     H 7438   2.772  10.592   4.427  2.8538  1.9768 -1.3345
  779MOL0     H 7439   2.981  10.604   4.336  1.5506 -0.3185 -0.2279
  779MOL0     H 7440   3.027  10.656   4.499 -1.0724 -0.0688  1.0896
  779MOL0     H 7441   3.079  10.445   4.584  2.3018 -0.0945 -0.1414
  779MOL0     H 7442   3.025  10.363   4.435  1.7888  0.2672 -2.1952
  779MOL0     H 7443   3.253  10.558   4.493  0.6680  0.4539 -0.4873
  779MOL0     H 7444   3.225  10.540   4.318  2.6305  0.6186  0.6805
  779MOL0     H 7445   3.253  10.291   4.480  1.3107  2.9113  3.2077
  779MOL0     H 7446   3.225  10.291   4.309  4.8473 -2.5780 -1.4330
  779MOL0     H 7447   3.464  10.441   4.328  0.3708 -1.0464 -1.2277
  779MOL0     H 7448   3.441  10.260   4.310 -0.8211 -0.5472  1.5067
  779MOL0     H 7449   3.444  10.413   4.577  1.6793  0.3843  0.8631
  779MOL0     H 7450   3.480  10.239   4.542 -3.6087  0.2406 -0.5263
  779MOL0     H 7451   3.664  10.379   4.293 -1.1403 -3.6809  0.4860
  779MOL0     H 7452   4.034  10.471   4.417 -0.4807 -1.1281  0.4447
  779MOL0     H 7453   3.926  10.523   4.281  0.3857 -0.3744 -1.5237
  779MOL0     H 7454   4.058  10.272   4.339  0.5291  2.3185  1.2034
  779MOL0     H 7455   3.906  10.256   4.249 -0.5667 -0.5112  0.4275
  779MOL0     H 7456   3.995  10.329   4.059  0.8907 -0.7972  0.2749
  779MOL0     H 7457   4.073  10.470   4.121 -2.1523  0.0623 -0.4661
  779MOL0     H 7458   4.260  10.301   4.225  0.4694 -2.5260  0.5600
  779MOL0     H 7459   4.171  10.173   4.138  0.5559  0.4674  2.1186
  779MOL0     H 7460   4.362  10.350   3.798 -2.2368 -0.8071  0.0588
  779MOL0     H 7461   4.650  10.262   3.619 -0.1248 -0.4133 -0.4289
  779MOL0     H 7462   4.711  10.399   3.717 -1.8211  0.5502  1.9746
  779MOL0     H 7463   4.546  10.407   3.656 -0.3815 -0.0106  0.0932
  779MOL0     H 7464   5.005  10.455   3.867  0.5013  1.4233 -1.4031
  779MOL0     H 7465   5.252  10.474   3.902  0.4079  0.6580 -1.8062
  779MOL0     H 7466   5.485  10.444   3.927  0.8805 -1.0677 -0.6515
  779MOL0     H 7467   5.431  10.315   4.027 -1.9965  2.2027 -0.3883
  779MOL0     H 7468   5.696  10.335   3.871  1.9117 -0.8359 -0.0928
  779MOL0     H 7469   5.676  10.327   4.036  2.3370 -0.0000 -2.6196
  779MOL0     H 7470   5.707  10.105   3.857  0.0713 -0.1687 -0.2134
  779MOL0     H 7471   5.551  10.079   3.926  3.5089 -4.8698 -1.0762
  779MOL0     H 7472   5.718   9.971   4.055 -0.7511 -0.4233 -0.4520
  779MOL0     H 7473   5.641  10.097   4.147  0.1625 -1.8123 -0.3810
  779MOL0     H 7474   5.901  10.138   3.985 -1.0821  2.0050 -0.6592
  779MOL0     H 7475   5.840  10.243   4.110  0.8718 -0.1828 -0.1768
  779MOL0     H 7476   5.947   9.963   4.144  1.6509 -0.2234 -0.3075
  779MOL0     H 7477   5.894  10.074   4.278 -2.4213 -0.5586 -1.5788
  779MOL0     H 7478   6.061  10.252   4.198  0.5869  0.5878 -1.2712
  779MOL0     H 7479   6.106  10.143   4.068  0.3868 -1.8116  0.1548
  779MOL0     H 7480   6.148  10.043   4.357  0.5718  2.7806  1.5698
  779MOL0     H 7481   6.251  10.170   4.281 -1.5286  1.3877 -0.5958
  779MOL0     H 7482   5.304  10.095   3.708  1.8652  1.6943  1.3092
  779MOL0     H 7483   5.061  10.069   3.693 -2.3402  0.1539  1.2827
  779MOL0     H 7484   4.663  10.128   4.125 -1.8444 -1.9351 -0.3636
  779MOL0     H 7485   4.440  10.186   4.176  0.6833  1.9095  1.5118
  779MOL0     H 7486   2.647  10.628   4.864  0.3836 -0.1167  0.0518
  779MOL0     H 7487   2.438  10.748   4.949 -0.2062  0.0624 -0.3783
  779MOL0     H 7488   2.341  11.250   5.040 -0.7264 -0.5153 -0.0409
  779MOL0     H 7489   2.149  11.394   5.143 -4.0361 -0.4576  3.2502
  779MOL0     H 7490   1.999  11.477   5.270  2.3791 -3.1468 -2.2026
  779MOL0     H 7491   1.909  11.510   5.115  0.7367 -2.3396 -2.0400
  779MOL0     H 7492   1.791  11.606   5.304 -1.1302 -0.3009  0.8056
  779MOL0     H 7493   1.780  11.442   5.374 -2.0926 -0.4541 -0.8163
  779MOL0     H 7494   1.655  11.349   5.188 -1.2055 -0.6681  2.1849
  779MOL0     H 7495   1.572  11.465   5.288  1.5999  2.0814  0.8622
  779MOL0     H 7496   1.683  11.528   5.012  0.5223 -4.1199  1.8941
  779MOL0     H 7497   1.602  11.649   5.117 -2.4904  1.0090 -1.7343
  779MOL0     H 7498   1.264  11.432   4.993  1.3846 -5.5281  0.9505
  779MOL0     H 7499   1.897  11.056   5.103 -0.9931  1.3803 -1.3357
  779MOL0     H 7500   2.051  10.887   4.883  0.0947 -0.2618  0.1445
  779MOL0     H 7501   2.160  10.819   5.012  1.0834  2.3692  0.9424
  779MOL0     H 7502   1.985  10.847   5.042 -0.2872  1.1845  1.2955
  780MOL0     O 7503   5.544   4.270   6.653  0.5552 -0.3229 -0.2521
  780MOL0     C 7504   5.601   4.176   6.699 -0.3713  0.4084  0.2842
  780MOL0     O 7505   5.534   4.055   6.718  0.3038 -0.5148 -0.5450
  780MOL0     C 7506   5.395   4.045   6.720  0.9102 -0.1319  0.5527
  780MOL0     C 7507   5.324   4.061   6.606 -0.4630  0.2528  0.8762
  780MOL0     C 7508   5.185   4.037   6.597 -0.3454 -0.6203  0.0186
  780MOL0     C 7509   5.115   4.013   6.719 -0.1657  0.3407 -0.2157
  780MOL0     O 7510   4.981   4.000   6.705  0.3047  0.4463 -0.4900
  780MOL0     C 7511   4.897   3.975   6.824  0.2530 -0.2874 -0.6621
  780MOL0     C 7512   4.751   4.013   6.787  0.5380  0.8187 -0.4594
  780MOL0     C 7513   4.650   3.939   6.888  0.8166 -0.3501 -0.1863
  780MOL0     C 7514   4.533   3.877   6.796  0.1281 -0.3437  0.3685
  780MOL0     C 7515   4.428   3.823   6.892 -0.1114  0.2282  0.1750
  780MOL0     C 7516   4.340   3.927   6.946  0.1191 -0.3525 -0.5475
  780MOL0     C 7517   4.212   3.873   7.021  0.3530  0.5876  0.6642
  780MOL0     C 7518   4.247   3.783   7.143 -0.7601 -0.9457  0.5678
  780MOL0     N 7519   4.338   3.856   7.240 -0.0577  0.1033 -0.4413
  780MOL0     C 7520   4.307   3.979   7.300  0.6392  0.4774 -0.3550
  780MOL0     C 7521   4.420   4.013   7.368 -0.3335  0.3471 -0.6716
  780MOL0     C 7522   4.442   4.142   7.434  0.1455 -1.1209  0.2846
  780MOL0     C 7523   4.465   4.254   7.328  0.5657 -0.0291  0.8447
  780MOL0     C 7524   4.576   4.225   7.225  0.1321  0.1180  1.0968
  780MOL0     C 7525   4.715   4.258   7.275 -0.6898 -0.2537  0.0160
  780MOL0     O 7526   4.807   4.224   7.170  0.2675 -0.1325 -0.2597
  780MOL0     C 7527   4.909   4.140   7.215  0.1353 -0.3138 -0.0547
  780MOL0     C 7528   4.908   4.007   7.192 -0.0555 -0.1491 -0.4107
  780MOL0     C 7529   5.003   3.913   7.226 -0.5206  0.2372  0.4435
  780MOL0     C 7530   4.963   3.773   7.200  0.4224 -0.3504 -0.9424
  780MOL0     C 7531   5.119   3.956   7.283 -0.4590 -0.3600 -0.2728
  780MOL0     C 7532   5.236   3.871   7.312 -0.6442 -0.4376 -0.5750
  780MOL0     O 7533   5.360   3.936   7.317 -0.0165  0.4529 -0.0049
  780MOL0     C 7534   5.481   3.868   7.351 -0.4053 -0.0246 -0.3381
  780MOL0     C 7535   5.598   3.909   7.284  0.3727 -0.0129 -0.5241
  780MOL0     C 7536   5.725   3.850   7.312 -0.2414 -0.3892  0.6972
  780MOL0     C 7537   5.736   3.750   7.411 -0.2703 -0.4838 -0.1432
  780MOL0     O 7538   5.859   3.704   7.441 -0.0259  0.7691 -0.6513
  780MOL0     C 7539   5.875   3.562   7.405  0.4099  0.7589  0.4561
  780MOL0     C 7540   5.915   3.525   7.260  0.4980 -0.4627  0.0097
  780MOL0     C 7541   6.032   3.613   7.203  0.6652  0.3391  0.0842
  780MOL0     C 7542   6.158   3.576   7.281 -0.7282 -0.6454  0.5929
  780MOL0     C 7543   6.282   3.621   7.207 -0.0385  0.2665  0.0693
  780MOL0     C 7544   6.408   3.621   7.292 -0.0499  0.8092 -0.0811
  780MOL0     C 7545   6.418   3.715   7.418  0.1152 -0.1813  0.8938
  780MOL0     C 7546   6.563   3.757   7.454 -0.7796  0.5324  0.5746
  780MOL0    Cl 7547   6.647   3.620   7.533  0.4740 -0.0207 -0.0094
  780MOL0     C 7548   5.623   3.705   7.473 -0.3904 -0.0600  0.3107
  780MOL0     C 7549   5.495   3.767   7.452  0.5270  0.3872 -0.4194
  780MOL0     O 7550   5.220   3.744   7.326 -0.1057 -0.4720  1.0911
  780MOL0     C 7551   5.131   4.096   7.307  0.2424  0.6660  0.2836
  780MOL0     C 7552   5.026   4.187   7.279 -0.1488  0.3070  0.0068
  780MOL0     N 7553   4.511   3.906   7.365  0.1912 -0.2973  0.2690
  780MOL0     N 7554   4.461   3.810   7.290 -0.3347  0.6406  0.0605
  780MOL0     C 7555   5.189   3.991   6.841  0.3760 -0.1923 -0.0663
  780MOL0     C 7556   5.332   3.994   6.829  0.2244 -0.1747  0.0382
  780MOL0     C 7557   5.738   4.180   6.743  0.8098 -0.1162 -0.5616
  780MOL0     C 7558   5.776   4.105   6.859 -0.3888 -0.2506  0.4066
  780MOL0     C 7559   5.911   4.100   6.903  0.3973  0.3807 -0.2319
  780MOL0     C 7560   6.007   4.182   6.849 -0.4638  0.2497 -0.2639
  780MOL0     O 7561   6.141   4.165   6.901 -0.4052  0.1945  0.0297
  780MOL0     C 7562   6.216   4.284   6.905 -1.1790  0.6246 -0.2983
  780MOL0     C 7563   6.316   4.278   7.024  1.3268  1.2612  0.1401
  780MOL0     C 7564   6.244   4.310   7.155 -1.0475  0.1604 -0.5168
  780MOL0     C 7565   6.322   4.269   7.279 -0.8507  0.4382  0.1794
  780MOL0     C 7566   6.444   4.337   7.286 -0.6251  0.5410  0.7775
  780MOL0     C 7567   6.555   4.388   7.282 -0.7595 -0.0287 -0.2593
  780MOL0     C 7568   5.964   4.273   6.749 -0.2292  0.8461  1.3669
  780MOL0     C 7569   5.837   4.266   6.692  0.2920 -0.2064  0.1142
  780MOL0     C 7570   5.817   4.362   6.565  0.6765 -0.0329  0.3176
  780MOL0     H 7571   5.382   4.093   6.520  0.3068  1.1499  1.6975
  780MOL0     H 7572   5.141   4.062   6.501 -2.4809 -0.1444  1.0593
  780MOL0     H 7573   4.919   4.049   6.901  1.1958  0.7529 -1.8851
  780MOL0     H 7574   4.902   3.874   6.865  1.1181  0.2121  0.4978
  780MOL0     H 7575   4.743   4.121   6.796 -2.3072  0.7742 -1.5899
  780MOL0     H 7576   4.729   3.991   6.682 -1.2340  0.8100 -0.1210
  780MOL0     H 7577   4.709   3.860   6.935  1.2862  0.4334  0.5737
  780MOL0     H 7578   4.611   4.015   6.956  1.6013 -1.2376  1.2971
  780MOL0     H 7579   4.494   3.959   6.735 -0.1269 -0.9104 -0.2445
  780MOL0     H 7580   4.572   3.804   6.725 -0.2071  1.8639 -2.2616
  780MOL0     H 7581   4.481   3.764   6.968  2.4981  0.2019 -1.5158
  780MOL0     H 7582   4.368   3.754   6.831  0.0227  1.6532 -1.6682
  780MOL0     H 7583   4.397   3.992   7.013 -0.5577 -0.6274  0.3188
  780MOL0     H 7584   4.303   3.998   6.872  0.7432  0.1876 -0.3551
  780MOL0     H 7585   4.172   3.799   6.951 -1.8726  2.2671  0.0547
  780MOL0     H 7586   4.141   3.953   7.046  1.1204  1.3098  0.5811
  780MOL0     H 7587   4.160   3.767   7.207 -1.4667  3.0274  0.9136
  780MOL0     H 7588   4.287   3.688   7.109 -3.4566 -2.2422  0.7618
  780MOL0     H 7589   4.209   4.024   7.288 -1.6958 -3.9116  0.4498
  780MOL0     H 7590   4.530   4.134   7.499 -0.2132  2.0605  1.3766
  780MOL0     H 7591   4.365   4.176   7.504  0.4206 -0.2441  0.1788
  780MOL0     H 7592   4.370   4.266   7.274  0.4711 -1.4125  0.6798
  780MOL0     H 7593   4.479   4.350   7.379 -2.8979  1.2658 -0.3138
  780MOL0     H 7594   4.559   4.130   7.172 -0.3731  0.1786  1.1474
  780MOL0     H 7595   4.558   4.298   7.146 -0.5659  0.1315  1.2618
  780MOL0     H 7596   4.721   4.363   7.305  0.5262 -0.0822 -0.7311
  780MOL0     H 7597   4.726   4.201   7.368  2.6642 -0.0512 -0.1293
  780MOL0     H 7598   4.816   3.976   7.144 -0.0349  0.8537 -1.1074
  780MOL0     H 7599   4.972   3.708   7.288  1.2870  0.3247 -0.5201
  780MOL0     H 7600   5.028   3.717   7.131  1.9581 -1.7749  1.5020
  780MOL0     H 7601   4.857   3.765   7.175  0.9795 -1.6126 -3.2119
  780MOL0     H 7602   5.589   3.989   7.211 -3.2524  1.4008  1.2169
  780MOL0     H 7603   5.810   3.874   7.249 -1.4745  0.0059 -0.8532
  780MOL0     H 7604   5.959   3.533   7.468  0.7940 -1.5410 -0.9902
  780MOL0     H 7605   5.785   3.504   7.429 -1.8054  2.7025 -2.3655
  780MOL0     H 7606   5.935   3.418   7.255 -1.5172 -0.8201 -1.4773
  780MOL0     H 7607   5.830   3.533   7.192  0.2190  1.5216  0.5312
  780MOL0     H 7608   5.997   3.714   7.223 -0.4684 -0.1356  0.6128
  780MOL0     H 7609   6.033   3.603   7.094 -2.9194 -1.8343  0.0818
  780MOL0     H 7610   6.167   3.469   7.302 -1.5106 -0.5480  1.5055
  780MOL0     H 7611   6.153   3.628   7.377 -0.1305  1.4770 -0.4603
  780MOL0     H 7612   6.292   3.552   7.122  3.1513  3.0424 -2.0971
  780MOL0     H 7613   6.282   3.714   7.149 -0.0826 -1.6063 -3.2159
  780MOL0     H 7614   6.486   3.649   7.221 -1.0253  1.6861 -0.8352
  780MOL0     H 7615   6.426   3.518   7.323  0.2781  0.4607 -1.4019
  780MOL0     H 7616   6.364   3.680   7.507 -1.3961  2.6709  1.2173
  780MOL0     H 7617   6.370   3.811   7.398 -0.3936 -0.5257  0.4334
  780MOL0     H 7618   6.555   3.840   7.525 -1.6203  1.7589 -0.8921
  780MOL0     H 7619   6.623   3.794   7.370 -1.6728 -3.2511 -1.9604
  780MOL0     H 7620   5.638   3.632   7.552 -0.3069  0.2262  0.5593
  780MOL0     H 7621   5.403   3.736   7.501  0.5121  3.6698  1.9612
  780MOL0     H 7622   5.219   4.124   7.364  0.6867 -1.6330  0.8409
  780MOL0     H 7623   5.040   4.291   7.308  1.7527 -0.2712  1.3826
  780MOL0     H 7624   5.137   3.978   6.936 -0.4782  2.2887 -0.1171
  780MOL0     H 7625   5.388   3.961   6.916 -1.0249  0.5735  1.1653
  780MOL0     H 7626   5.708   4.054   6.926 -1.7454 -0.9067 -1.3903
  780MOL0     H 7627   5.936   4.047   6.994  3.3436  0.7056 -0.7593
  780MOL0     H 7628   6.275   4.306   6.816  0.7089 -0.6744  0.5733
  780MOL0     H 7629   6.151   4.372   6.917  0.1771  1.7258 -0.7809
  780MOL0     H 7630   6.395   4.351   7.005  2.3333  0.2283  0.2634
  780MOL0     H 7631   6.367   4.181   7.025  3.6797  2.4148  0.5044
  780MOL0     H 7632   6.230   4.418   7.158  1.3974  0.6412 -2.6625
  780MOL0     H 7633   6.148   4.258   7.155  0.8543 -3.7177 -0.9199
  780MOL0     H 7634   6.339   4.161   7.275 -1.0267  0.3847  0.7758
  780MOL0     H 7635   6.264   4.289   7.370 -0.4371 -2.3762  1.1553
  780MOL0     H 7636   6.643   4.448   7.273 -1.5503  1.5319  1.6628
  780MOL0     H 7637   6.040   4.334   6.701 -0.7248 -0.6945 -1.6883
  780MOL0     H 7638   5.750   4.307   6.497  0.4168  1.0750 -0.3662
  780MOL0     H 7639   5.773   4.459   6.591 -1.2810 -0.5186 -0.9689
  780MOL0     H 7640   5.915   4.381   6.522  0.8567 -0.7681  0.3950
  781MOL0     O 7641   7.749   2.397   0.096  0.2547 -1.6439  0.4418
  781MOL0     C 7642   7.696   2.424  -0.010 -0.3516 -0.3208  0.0281
  781MOL0     O 7643   7.758   2.401  -0.134 -0.1687 -0.1339 -0.0296
  781MOL0     C 7644   7.873   2.334  -0.158  0.5864 -0.4373 -0.0138
  781MOL0     C 7645   7.937   2.365  -0.278  1.0515  0.0722  0.9964
  781MOL0     C 7646   8.059   2.302  -0.310  0.2689 -0.3980  0.6756
  781MOL0     C 7647   8.132   2.217  -0.215 -0.7169 -0.6484  0.3720
  781MOL0     O 7648   8.248   2.153  -0.228 -0.1116  0.1788  0.8425
  781MOL0     C 7649   8.294   2.142  -0.359 -0.1122  0.7048 -0.4622
  781MOL0     C 7650   8.419   2.051  -0.365 -0.3023 -0.8856 -0.0099
  781MOL0     C 7651   8.542   2.134  -0.352  1.0846 -0.8760  0.2396
  781MOL0     C 7652   8.674   2.055  -0.374  0.8387  0.4350  0.1001
  781MOL0     C 7653   8.779   2.159  -0.402  0.1061  0.1854  0.1491
  781MOL0     C 7654   8.913   2.091  -0.414 -0.2216 -0.3865  0.4814
  781MOL0     C 7655   9.007   2.175  -0.502  0.2831  0.0078 -0.3051
  781MOL0     C 7656   9.115   2.100  -0.558 -0.4903  0.3760  0.3469
  781MOL0     N 7657   9.197   2.170  -0.667 -0.2950  0.0240 -0.1625
  781MOL0     C 7658   9.314   2.234  -0.661  0.3514  0.2773 -0.2125
  781MOL0     C 7659   9.354   2.243  -0.793 -0.4137 -0.3008  0.0097
  781MOL0     C 7660   9.491   2.281  -0.852 -0.4481 -0.3373 -0.0472
  781MOL0     C 7661   9.599   2.177  -0.871  0.2453  0.2554 -0.8982
  781MOL0     C 7662   9.588   2.098  -0.995 -0.3743  0.0354  0.7001
  781MOL0     C 7663   9.715   2.019  -1.029 -0.0846 -0.0754 -0.7907
  781MOL0     O 7664   9.831   2.068  -0.955  0.0321  0.7880 -0.0871
  781MOL0     C 7665   9.947   1.995  -0.955  0.6981 -0.2993  0.6496
  781MOL0     C 7666   9.996   1.941  -1.074  0.2601  0.2198  0.0777
  781MOL0     C 7667  10.101   1.857  -1.061  0.6240 -0.4698  0.0452
  781MOL0     C 7668  10.136   1.813  -1.199  0.5802  0.1671  0.3539
  781MOL0     C 7669  10.172   1.840  -0.938  0.1385  0.4520 -0.1788
  781MOL0     C 7670  10.300   1.751  -0.922  0.0843 -0.6973 -1.4057
  781MOL0     O 7671  10.333   1.728  -0.787  0.4332  0.0520 -0.1014
  781MOL0     C 7672  10.433   1.642  -0.752  0.9796  0.3209 -0.9403
  781MOL0     C 7673  10.551   1.612  -0.828  0.1224  0.0648 -0.3639
  781MOL0     C 7674  10.637   1.512  -0.791 -0.4893  0.2288  0.8879
  781MOL0     C 7675  10.631   1.448  -0.668  0.4381 -0.1545  0.9019
  781MOL0     O 7676  10.740   1.375  -0.626  0.0708 -0.0835  0.2503
  781MOL0     C 7677  10.779   1.374  -0.484  0.5022  0.8846 -0.1356
  781MOL0     C 7678  10.932   1.367  -0.485 -0.3764  0.2004 -1.0334
  781MOL0     C 7679  10.996   1.289  -0.597 -0.8392  0.5874 -0.2648
  781MOL0     C 7680  10.962   1.137  -0.583  0.1789 -0.9878  0.6340
  781MOL0     C 7681  10.980   1.070  -0.723  0.2922 -0.7736 -0.7713
  781MOL0     C 7682  11.127   1.057  -0.745  0.5875  0.1209 -0.9557
  781MOL0     C 7683  11.143   0.997  -0.894 -0.2244  0.4281  0.2134
  781MOL0     C 7684  11.079   0.863  -0.917 -0.1732 -0.5956 -0.0075
  781MOL0    Cl 7685  11.099   0.756  -0.777  0.1494 -0.7502  0.2001
  781MOL0     C 7686  10.517   1.474  -0.587 -0.4944 -0.0969 -0.0101
  781MOL0     C 7687  10.417   1.561  -0.633 -0.5631 -0.2880  0.1502
  781MOL0     O 7688  10.355   1.706  -1.019  0.3391 -1.2778  0.2597
  781MOL0     C 7689  10.122   1.898  -0.825  0.8137  0.5938 -0.1578
  781MOL0     C 7690  10.005   1.968  -0.834 -0.2912 -0.6160 -0.0161
  781MOL0     N 7691   9.256   2.201  -0.879  0.4705  0.0222 -0.1347
  781MOL0     N 7692   9.163   2.158  -0.799  0.2124 -0.1516  0.4963
  781MOL0     C 7693   8.067   2.184  -0.100 -0.6717  0.5887  0.4414
  781MOL0     C 7694   7.945   2.245  -0.062 -0.1415 -0.2382 -0.0464
  781MOL0     C 7695   7.561   2.493  -0.006 -0.4358 -0.0933  0.7482
  781MOL0     C 7696   7.512   2.545   0.123  0.2336 -0.4425  0.6458
  781MOL0     C 7697   7.385   2.607   0.131  0.4935 -0.7544 -0.2983
  781MOL0     C 7698   7.309   2.624   0.016 -0.2673  1.7941 -0.3141
  781MOL0     O 7699   7.177   2.670   0.021 -1.3133  0.7313 -0.8037
  781MOL0     C 7700   7.130   2.743   0.131 -0.0544  0.2967 -0.8816
  781MOL0     C 7701   7.175   2.888   0.130 -1.1211  0.4080  0.5297
  781MOL0     C 7702   7.128   2.964   0.245  0.4928 -0.3905 -0.5835
  781MOL0     C 7703   6.995   3.031   0.221  0.2338 -0.7243  0.8190
  781MOL0     C 7704   7.012   3.162   0.162  0.3018 -0.8032 -0.0553
  781MOL0     C 7705   7.034   3.271   0.103 -0.7225  0.1607 -0.1112
  781MOL0     C 7706   7.357   2.590  -0.106 -0.4204 -0.3466 -0.3425
  781MOL0     C 7707   7.479   2.526  -0.120 -0.4531  0.2247 -0.1253
  781MOL0     C 7708   7.525   2.493  -0.264  0.2099  0.3308 -0.5050
  781MOL0     H 7709   7.878   2.425  -0.347 -1.2681 -2.8963  0.1806
  781MOL0     H 7710   8.097   2.322  -0.409  0.9832 -0.2507  0.9705
  781MOL0     H 7711   8.319   2.239  -0.402 -2.2489  0.5671 -2.2166
  781MOL0     H 7712   8.220   2.100  -0.429 -0.8645  2.1585 -0.5907
  781MOL0     H 7713   8.416   1.985  -0.278 -0.3392  0.6614  1.2034
  781MOL0     H 7714   8.420   1.987  -0.454  1.1226 -0.2505 -0.4784
  781MOL0     H 7715   8.526   2.218  -0.420 -0.5456 -0.5163  1.0037
  781MOL0     H 7716   8.543   2.176  -0.251 -0.4682  1.9028 -0.7675
  781MOL0     H 7717   8.704   1.995  -0.287 -1.0614  0.1172  0.5707
  781MOL0     H 7718   8.670   1.986  -0.459 -1.1306  0.6955 -0.0518
  781MOL0     H 7719   8.789   2.236  -0.324  0.5965  0.7870 -0.4912
  781MOL0     H 7720   8.762   2.218  -0.492  4.4106  0.4789 -0.7196
  781MOL0     H 7721   8.957   2.080  -0.315  2.4635  2.6623 -0.1894
  781MOL0     H 7722   8.903   1.993  -0.461  0.4943  0.4813 -1.6594
  781MOL0     H 7723   9.040   2.262  -0.444 -0.1568 -0.0913  0.1036
  781MOL0     H 7724   8.956   2.208  -0.593 -0.1451  1.4032  0.4048
  781MOL0     H 7725   9.171   2.071  -0.469 -0.5717 -0.7412  0.0546
  781MOL0     H 7726   9.071   2.010  -0.602 -3.2298  0.9340  1.6831
  781MOL0     H 7727   9.366   2.275  -0.575  1.3919  1.0723 -1.1899
  781MOL0     H 7728   9.534   2.353  -0.781 -0.6942  0.0356 -0.2751
  781MOL0     H 7729   9.473   2.333  -0.947 -1.1890 -1.0990 -0.3351
  781MOL0     H 7730   9.695   2.228  -0.866  1.0537 -1.2362 -0.5178
  781MOL0     H 7731   9.595   2.116  -0.780  2.2383 -0.4438 -1.2252
  781MOL0     H 7732   9.495   2.040  -0.998 -2.3573  2.9999 -2.6403
  781MOL0     H 7733   9.563   2.155  -1.085 -2.7431 -1.4830  0.2941
  781MOL0     H 7734   9.704   1.911  -1.022 -2.4015  0.0819 -1.1903
  781MOL0     H 7735   9.733   2.020  -1.137  1.1075 -2.4270 -0.6861
  781MOL0     H 7736   9.951   1.955  -1.172 -0.5321  0.7061  0.4954
  781MOL0     H 7737  10.150   1.900  -1.263 -0.9702  1.8416  2.1837
  781MOL0     H 7738  10.049   1.752  -1.225  0.0733 -1.3426  4.7863
  781MOL0     H 7739  10.227   1.756  -1.221  0.6414  0.3101  0.2324
  781MOL0     H 7740  10.562   1.673  -0.918  0.0390 -0.5302 -0.7813
  781MOL0     H 7741  10.716   1.486  -0.861 -0.1645 -0.1244  1.3803
  781MOL0     H 7742  10.744   1.462  -0.429  1.1588  1.5457 -0.7527
  781MOL0     H 7743  10.741   1.280  -0.443  1.1155  0.5473 -0.3331
  781MOL0     H 7744  10.974   1.467  -0.500  1.8350 -0.6910 -1.2939
  781MOL0     H 7745  10.969   1.333  -0.387  1.0488  0.0608 -1.5899
  781MOL0     H 7746  11.103   1.305  -0.581 -1.4005  3.1414  1.3879
  781MOL0     H 7747  10.965   1.323  -0.696 -2.6198 -0.1492 -0.0059
  781MOL0     H 7748  10.856   1.136  -0.558  0.0131 -0.5008 -0.0454
  781MOL0     H 7749  11.027   1.092  -0.507  0.3807 -2.1008 -0.1656
  781MOL0     H 7750  10.932   0.971  -0.722 -1.8658  0.0774  3.8285
  781MOL0     H 7751  10.937   1.138  -0.797  1.4409  0.4719 -0.3280
  781MOL0     H 7752  11.162   0.987  -0.668 -0.8878  0.7122  0.3266
  781MOL0     H 7753  11.183   1.150  -0.734  5.1100 -2.3492 -0.8408
  781MOL0     H 7754  11.252   0.998  -0.901 -0.1868  3.7146 -0.4732
  781MOL0     H 7755  11.101   1.071  -0.963 -2.1990 -0.7313  0.0984
  781MOL0     H 7756  11.119   0.799  -0.996  1.0414 -1.0273  0.9194
  781MOL0     H 7757  10.972   0.860  -0.936 -0.1143  0.1852 -0.5509
  781MOL0     H 7758  10.513   1.420  -0.492  0.9722 -0.7504 -0.2793
  781MOL0     H 7759  10.333   1.578  -0.567  0.3012  2.3269  0.7193
  781MOL0     H 7760  10.174   1.880  -0.732 -0.7998 -1.9100  0.3728
  781MOL0     H 7761   9.957   2.014  -0.748 -2.0038 -0.2903 -1.0857
  781MOL0     H 7762   8.112   2.117  -0.027 -1.7207  0.0003  0.5663
  781MOL0     H 7763   7.891   2.210   0.025  1.9274  0.2396  1.4953
  781MOL0     H 7764   7.567   2.543   0.216 -0.3522  1.8483  1.1049
  781MOL0     H 7765   7.352   2.639   0.229 -0.4016 -0.2531 -0.7476
  781MOL0     H 7766   7.022   2.745   0.119 -0.1657 -3.0785 -1.1839
  781MOL0     H 7767   7.150   2.699   0.229  0.1494  4.1674  1.0456
  781MOL0     H 7768   7.145   2.944   0.041 -1.7326  0.1120  0.5406
  781MOL0     H 7769   7.282   2.896   0.149 -1.3039  1.4101  1.1756
  781MOL0     H 7770   7.114   2.904   0.336  1.0892  0.2574 -0.0549
  781MOL0     H 7771   7.197   3.043   0.273  1.0312 -0.8059 -0.7291
  781MOL0     H 7772   6.943   3.038   0.316 -4.0433 -1.0577 -1.2746
  781MOL0     H 7773   6.931   2.966   0.160 -1.9211  2.1011 -0.1384
  781MOL0     H 7774   7.068   3.364   0.061  2.6426 -1.5362 -1.4903
  781MOL0     H 7775   7.289   2.625  -0.183  0.3390  0.0108 -0.8557
  781MOL0     H 7776   7.541   2.385  -0.267 -2.7112 -0.2355  0.6814
  781MOL0     H 7777   7.453   2.537  -0.334  1.4285  3.4937  0.0631
  781MOL0     H 7778   7.624   2.535  -0.281  0.1453 -0.2759 -2.6065
  782MOL0     O 7779   7.157  11.158   0.232  0.4856 -0.2672 -0.6483
  782MOL0     C 7780   7.171  11.246   0.318  0.0864 -0.7641  0.5840
  782MOL0     O 7781   7.262  11.342   0.310  0.6029  0.0930  0.4913
  782MOL0     C 7782   7.362  11.355   0.220 -1.0103 -0.1031 -0.2249
  782MOL0     C 7783   7.476  11.265   0.234 -0.9068 -0.8832  0.4789
  782MOL0     C 7784   7.584  11.266   0.143 -0.8118 -0.5041  0.4702
  782MOL0     C 7785   7.578  11.343   0.026 -0.0489  0.1898 -0.0322
  782MOL0     O 7786   7.688  11.331  -0.059 -0.0337 -0.4210 -0.3222
  782MOL0     C 7787   7.685  11.399  -0.183 -0.1435 -0.6652 -0.3507
  782MOL0     C 7788   7.823  11.366  -0.252 -1.1703  0.7253 -0.5493
  782MOL0     C 7789   7.848  11.213  -0.264  0.1686 -0.9120  0.0248
  782MOL0     C 7790   7.943  11.194  -0.373  0.4583 -0.3766  0.3879
  782MOL0     C 7791   8.081  11.243  -0.345  0.1708 -0.5219 -0.9427
  782MOL0     C 7792   8.149  11.153  -0.233 -0.6883 -0.5656  0.4092
  782MOL0     C 7793   8.295  11.197  -0.231 -0.1771 -0.1277 -0.0581
  782MOL0     C 7794   8.330  11.345  -0.196 -0.2364  0.0614 -0.6591
  782MOL0     N 7795   8.473  11.349  -0.156  0.4109  0.8563  0.1432
  782MOL0     C 7796   8.564  11.419  -0.217 -0.6654  0.3045 -1.0265
  782MOL0     C 7797   8.682  11.377  -0.169 -0.3323 -1.1620  0.3587
  782MOL0     C 7798   8.815  11.425  -0.226  0.0702  1.2023 -0.7524
  782MOL0     C 7799   8.928  11.404  -0.126  0.6749 -0.5701 -0.7114
  782MOL0     C 7800   9.060  11.443  -0.191  0.0804  0.4613  1.2721
  782MOL0     C 7801   9.182  11.467  -0.101 -0.2834  0.1500 -0.5984
  782MOL0     O 7802   9.308  11.505  -0.175  0.5753 -0.2868 -0.3752
  782MOL0     C 7803   9.437  11.509  -0.108 -0.5060 -1.1428 -0.2092
  782MOL0     C 7804   9.452  11.486   0.023  0.8645 -0.6372 -0.4526
  782MOL0     C 7805   9.582  11.492   0.087 -0.6414  0.1092  0.7036
  782MOL0     C 7806   9.587  11.476   0.235  0.0301  0.2850 -0.0607
  782MOL0     C 7807   9.702  11.529   0.017 -0.0212 -0.6074 -0.3490
  782MOL0     C 7808   9.838  11.549   0.084 -0.7887  0.1739  0.1369
  782MOL0     O 7809   9.879  11.476   0.193  0.0106  0.4002  0.1832
  782MOL0     C 7810  10.009  11.489   0.242 -1.1181 -0.1610 -0.1016
  782MOL0     C 7811  10.032  11.532   0.372  0.0457  0.0470  0.0185
  782MOL0     C 7812  10.165  11.535   0.427 -0.2501  0.0217 -0.6074
  782MOL0     C 7813  10.277  11.489   0.352  0.5670  0.0546 -0.1804
  782MOL0     O 7814  10.397  11.495   0.419 -0.3846  0.1021  0.9041
  782MOL0     C 7815  10.506  11.433   0.357 -0.4700  0.5198 -0.5613
  782MOL0     C 7816  10.628  11.470   0.445 -0.2303  0.4807 -0.3647
  782MOL0     C 7817  10.653  11.615   0.444 -0.2011 -0.0550  0.1797
  782MOL0     C 7818  10.799  11.643   0.484  1.2039  0.6539  0.0118
  782MOL0     C 7819  10.829  11.617   0.629 -0.2027 -0.3883  0.3428
  782MOL0     C 7820  10.952  11.694   0.678 -0.5356 -0.2193 -0.0235
  782MOL0     C 7821  10.973  11.674   0.824  0.0126  0.3131 -0.8534
  782MOL0     C 7822  11.114  11.711   0.886 -0.3144  0.8796 -0.1019
  782MOL0    Cl 7823  11.143  11.883   0.858  0.1326 -0.0662  0.2720
  782MOL0     C 7824  10.258  11.461   0.216  0.6000 -0.4855 -0.4207
  782MOL0     C 7825  10.121  11.466   0.167 -0.0636 -0.1692  0.5424
  782MOL0     O 7826   9.908  11.641   0.032  0.4367  0.4826  0.0764
  782MOL0     C 7827   9.674  11.557  -0.121  0.5056 -0.4147  0.3466
  782MOL0     C 7828   9.549  11.546  -0.180  0.2329 -1.0035  0.6591
  782MOL0     N 7829   8.662  11.279  -0.073 -0.2831  0.0088 -0.1520
  782MOL0     N 7830   8.533  11.269  -0.066  0.1287  0.7276 -0.2783
  782MOL0     C 7831   7.464  11.432   0.017  0.5768  0.4769 -0.3002
  782MOL0     C 7832   7.362  11.436   0.112  1.0140 -0.6010 -0.4837
  782MOL0     C 7833   7.084  11.254   0.443  0.0289  0.3084  0.0692
  782MOL0     C 7834   7.123  11.335   0.553  0.7581  0.3362 -0.3447
  782MOL0     C 7835   7.040  11.340   0.674 -0.5640  0.4343 -0.0832
  782MOL0     C 7836   6.920  11.263   0.686  0.5841 -0.2246  0.9586
  782MOL0     O 7837   6.844  11.256   0.800 -0.0757  1.3649  0.2626
  782MOL0     C 7838   6.875  11.327   0.913 -0.1268  0.1046  0.3540
  782MOL0     C 7839   6.780  11.296   1.033  0.1303  0.8346 -1.0690
  782MOL0     C 7840   6.778  11.146   1.076  0.8251 -0.7703 -1.0056
  782MOL0     C 7841   6.686  11.140   1.201  0.2766  0.5347  0.1010
  782MOL0     C 7842   6.758  11.187   1.324  0.4541  0.6545 -0.1436
  782MOL0     C 7843   6.838  11.231   1.403  0.1008 -0.6799 -0.6314
  782MOL0     C 7844   6.885  11.194   0.577  0.3073 -0.4109  0.8469
  782MOL0     C 7845   6.967  11.189   0.456 -0.3546 -0.2908  0.2228
  782MOL0     C 7846   6.899  11.121   0.337  0.2752 -0.1694 -0.3357
  782MOL0     H 7847   7.487  11.207   0.324  2.5273  0.0378  0.7980
  782MOL0     H 7848   7.674  11.207   0.158  0.1313  1.1279  1.5121
  782MOL0     H 7849   7.676  11.506  -0.164  1.0499 -0.1561 -2.3860
  782MOL0     H 7850   7.602  11.374  -0.250 -1.8650 -0.1598  1.4640
  782MOL0     H 7851   7.814  11.412  -0.351  1.2839 -3.0111 -2.8014
  782MOL0     H 7852   7.911  11.404  -0.198  1.1181 -1.3252 -2.5484
  782MOL0     H 7853   7.870  11.163  -0.170 -0.1779  0.2586  0.7589
  782MOL0     H 7854   7.761  11.163  -0.308  3.0971 -3.8151 -2.9570
  782MOL0     H 7855   7.938  11.088  -0.399  1.9890 -0.2744 -0.4147
  782MOL0     H 7856   7.912  11.239  -0.468  2.8267  2.2684  0.7434
  782MOL0     H 7857   8.092  11.349  -0.318 -0.7306 -1.3364  3.3442
  782MOL0     H 7858   8.138  11.237  -0.439  1.6072  4.3745 -0.6698
  782MOL0     H 7859   8.101  11.180  -0.139  0.1154  0.3808  0.5602
  782MOL0     H 7860   8.137  11.045  -0.244 -0.3639 -1.1083  4.2073
  782MOL0     H 7861   8.339  11.182  -0.330 -2.4781 -3.8743 -0.7091
  782MOL0     H 7862   8.334  11.116  -0.168  1.6258 -1.1797 -2.4147
  782MOL0     H 7863   8.300  11.424  -0.265 -0.4557 -0.0099 -0.6452
  782MOL0     H 7864   8.266  11.359  -0.108  1.5871 -0.4555  0.8193
  782MOL0     H 7865   8.556  11.502  -0.287  0.1481  1.1976 -0.0817
  782MOL0     H 7866   8.815  11.533  -0.244  1.7978  1.5644  0.9919
  782MOL0     H 7867   8.842  11.376  -0.320  0.7534 -4.2452  1.9134
  782MOL0     H 7868   8.907  11.474  -0.044  2.7655  0.3056 -0.8648
  782MOL0     H 7869   8.933  11.301  -0.092  0.5723  0.1742  1.7459
  782MOL0     H 7870   9.082  11.359  -0.257 -0.7641  0.5480  0.8679
  782MOL0     H 7871   9.059  11.537  -0.247  0.4933  0.6996  1.6600
  782MOL0     H 7872   9.149  11.541  -0.028 -0.3546  0.0276 -0.5056
  782MOL0     H 7873   9.204  11.372  -0.052 -2.9022  0.4972  1.4349
  782MOL0     H 7874   9.364  11.479   0.086  0.5026 -0.0506 -0.8766
  782MOL0     H 7875   9.607  11.373   0.267 -0.2413 -0.6951 -2.7421
  782MOL0     H 7876   9.491  11.503   0.281  0.8876 -1.6953  3.1352
  782MOL0     H 7877   9.660  11.549   0.270 -0.2394  0.7806 -0.5067
  782MOL0     H 7878   9.948  11.549   0.438 -0.1715  0.5151 -0.3777
  782MOL0     H 7879  10.176  11.562   0.532 -0.8267  0.9837 -0.7891
  782MOL0     H 7880  10.493  11.325   0.364  0.1897  0.2991 -2.3635
  782MOL0     H 7881  10.526  11.456   0.252  0.1580  0.2204 -0.5077
  782MOL0     H 7882  10.601  11.446   0.548 -0.7189 -0.6950 -0.7524
  782MOL0     H 7883  10.720  11.428   0.403 -1.0461  0.1339 -1.8723
  782MOL0     H 7884  10.590  11.673   0.513 -2.6709  3.1059 -4.2027
  782MOL0     H 7885  10.638  11.666   0.348  3.3195 -0.0945 -0.4981
  782MOL0     H 7886  10.813  11.750   0.467  1.7367  0.4113 -1.2116
  782MOL0     H 7887  10.870  11.602   0.412 -0.9730  1.0653 -2.5435
  782MOL0     H 7888  10.740  11.638   0.688 -0.7858 -0.8887 -0.3402
  782MOL0     H 7889  10.849  11.510   0.639  1.6732 -0.0711  0.3713
  782MOL0     H 7890  10.952  11.802   0.660 -0.2367 -0.0578  0.8967
  782MOL0     H 7891  11.040  11.659   0.624 -0.1813  1.0606 -0.3180
  782MOL0     H 7892  10.944  11.570   0.841 -0.6451  0.1346 -2.8395
  782MOL0     H 7893  10.894  11.729   0.876  0.1302 -0.9793  0.7613
  782MOL0     H 7894  11.188  11.653   0.830 -1.7133 -1.6677  0.5078
  782MOL0     H 7895  11.115  11.692   0.993 -2.3736  0.0542 -0.1868
  782MOL0     H 7896  10.340  11.432   0.151  0.4187 -0.3465 -0.7096
  782MOL0     H 7897  10.118  11.450   0.060  6.2873  1.7314 -0.3686
  782MOL0     H 7898   9.749  11.600  -0.187  0.5745  2.1139  1.9420
  782MOL0     H 7899   9.531  11.578  -0.282 -2.0155  0.4427  1.4255
  782MOL0     H 7900   7.456  11.484  -0.079  0.8071 -1.5821 -1.4906
  782MOL0     H 7901   7.275  11.499   0.097  0.1400 -1.5714  0.4165
  782MOL0     H 7902   7.213  11.393   0.569 -0.1852  1.0234  3.1711
  782MOL0     H 7903   7.081  11.397   0.757  0.5523  0.4855 -0.6426
  782MOL0     H 7904   6.977  11.312   0.947 -0.6245 -0.3792  1.7146
  782MOL0     H 7905   6.868  11.432   0.884  2.8554  0.5751  1.0908
  782MOL0     H 7906   6.688  11.327   0.984  1.0377  1.8671 -2.1630
  782MOL0     H 7907   6.789  11.365   1.117 -0.0996  0.4306 -0.7073
  782MOL0     H 7908   6.736  11.085   0.996  0.0023 -0.5052 -0.7851
  782MOL0     H 7909   6.876  11.100   1.094  0.5203 -0.9910  0.1618
  782MOL0     H 7910   6.652  11.036   1.213  2.7201 -0.4585 -0.9053
  782MOL0     H 7911   6.593  11.195   1.184  1.9062  2.9103 -1.8231
  782MOL0     H 7912   6.910  11.293   1.454  1.3369 -2.7790  0.3015
  782MOL0     H 7913   6.794  11.135   0.582  0.6761 -0.8814  2.4846
  782MOL0     H 7914   6.962  11.038   0.302 -0.5668 -1.8655  1.8936
  782MOL0     H 7915   6.808  11.074   0.375 -0.2580  2.0503  1.2991
  782MOL0     H 7916   6.892  11.196   0.258  2.0767  1.0427  0.5705
  783MOL0     O 7917   7.459   2.682   8.467  0.1403  0.1656 -0.8334
  783MOL0     C 7918   7.481   2.741   8.366 -0.8974 -0.8335  0.1245
  783MOL0     O 7919   7.400   2.745   8.256 -0.3938 -0.2699  0.4700
  783MOL0     C 7920   7.276   2.694   8.259 -0.1254 -0.8033 -0.0809
  783MOL0     C 7921   7.190   2.698   8.376 -0.3960 -0.2701  0.2784
  783MOL0     C 7922   7.059   2.645   8.377  0.7218  0.3630 -0.1270
  783MOL0     C 7923   7.023   2.571   8.258 -0.2967 -0.6206  0.4946
  783MOL0     O 7924   6.904   2.519   8.241  0.2329  0.3397  0.0608
  783MOL0     C 7925   6.830   2.471   8.351  0.5273  1.5346 -0.4172
  783MOL0     C 7926   6.846   2.306   8.353  0.3888 -0.9139 -0.3769
  783MOL0     C 7927   6.974   2.262   8.411 -0.1969  0.1910 -0.0882
  783MOL0     C 7928   6.982   2.115   8.430 -0.0645  0.2130  0.3735
  783MOL0     C 7929   6.952   2.023   8.313 -0.4051  0.3446 -0.2297
  783MOL0     C 7930   7.079   2.022   8.218 -0.1313 -0.0221 -0.3202
  783MOL0     C 7931   7.189   1.921   8.245 -0.6435  1.1357  0.8938
  783MOL0     C 7932   7.285   1.913   8.131 -0.0406 -0.0306  0.4282
  783MOL0     N 7933   7.395   1.815   8.143  0.0309 -0.1735 -0.3434
  783MOL0     C 7934   7.408   1.704   8.070  0.1028  0.9701  0.2510
  783MOL0     C 7935   7.514   1.636   8.115  0.3230 -0.9637  0.6692
  783MOL0     C 7936   7.578   1.513   8.055  0.0062  0.5436  0.0070
  783MOL0     C 7937   7.659   1.523   7.925 -0.1786  0.0452 -0.1432
  783MOL0     C 7938   7.797   1.587   7.955 -0.5874  0.8302 -0.1877
  783MOL0     C 7939   7.887   1.577   7.838 -0.7772  0.0376 -0.3593
  783MOL0     O 7940   7.890   1.441   7.794  0.5687  0.1222 -1.2078
  783MOL0     C 7941   7.991   1.398   7.712  0.0616  0.2192 -0.2846
  783MOL0     C 7942   8.054   1.489   7.624 -0.6740 -0.1195  0.2161
  783MOL0     C 7943   8.135   1.442   7.518 -0.1342  0.5844 -0.2523
  783MOL0     C 7944   8.195   1.549   7.430 -0.3531 -0.0593 -0.3121
  783MOL0     C 7945   8.163   1.304   7.511  0.5187  1.0865  0.5292
  783MOL0     C 7946   8.258   1.247   7.414  0.6703 -1.1483 -0.3520
  783MOL0     O 7947   8.377   1.314   7.394  0.7236 -0.6400 -0.2082
  783MOL0     C 7948   8.481   1.268   7.311 -0.0857  0.1103  0.4428
  783MOL0     C 7949   8.590   1.354   7.303  0.7172 -0.3182 -0.6544
  783MOL0     C 7950   8.699   1.326   7.223  1.1156  0.0254  0.3374
  783MOL0     C 7951   8.709   1.199   7.164  0.3513 -0.2112  0.2823
  783MOL0     O 7952   8.809   1.156   7.077  0.6460  0.1474 -0.3562
  783MOL0     C 7953   8.940   1.189   7.131  0.7893  0.0791  0.4136
  783MOL0     C 7954   9.042   1.168   7.027  0.0561  0.8803  0.2447
  783MOL0     C 7955   9.185   1.170   7.081  0.0070 -0.0722 -0.7073
  783MOL0     C 7956   9.284   1.213   6.975 -0.0134  0.0815  1.2739
  783MOL0     C 7957   9.435   1.207   7.022 -0.0736 -0.1118 -0.2436
  783MOL0     C 7958   9.478   1.067   7.070  0.5366  0.5646  0.2406
  783MOL0     C 7959   9.466   0.951   6.962 -1.1094 -1.3233  0.2639
  783MOL0     C 7960   9.555   0.834   6.985  0.1669  0.7628  1.2773
  783MOL0    Cl 7961   9.576   0.738   6.834 -0.1024 -0.4745  0.2636
  783MOL0     C 7962   8.598   1.112   7.171  0.9403 -0.1231 -0.0153
  783MOL0     C 7963   8.482   1.149   7.236 -0.6261 -0.2771 -0.2238
  783MOL0     O 7964   8.231   1.139   7.372  0.1752  0.8453 -0.8259
  783MOL0     C 7965   8.095   1.211   7.596  1.3393 -0.2308 -0.7151
  783MOL0     C 7966   8.008   1.259   7.698  0.6615 -0.6354  0.0244
  783MOL0     N 7967   7.563   1.702   8.220 -0.0644 -0.1657  0.0900
  783MOL0     N 7968   7.489   1.809   8.243  0.0035  0.9029 -0.3133
  783MOL0     C 7969   7.110   2.559   8.144 -0.8094 -0.3472 -0.0985
  783MOL0     C 7970   7.231   2.626   8.151  0.0342 -0.5193 -0.3095
  783MOL0     C 7971   7.623   2.797   8.369 -0.2928  0.5634 -1.0792
  783MOL0     C 7972   7.687   2.862   8.475  0.3083  0.1303 -1.0153
  783MOL0     C 7973   7.824   2.898   8.476 -0.3212 -0.6537  0.0287
  783MOL0     C 7974   7.907   2.870   8.370 -0.1811  0.1636  0.1592
  783MOL0     O 7975   8.039   2.910   8.360  0.5216 -0.7189  0.1217
  783MOL0     C 7976   8.094   3.008   8.441  0.5732  0.3909 -0.0583
  783MOL0     C 7977   8.025   3.143   8.430 -0.6188 -0.0031  0.8818
  783MOL0     C 7978   8.078   3.237   8.544  0.5395 -0.4199  0.7058
  783MOL0     C 7979   8.029   3.386   8.525 -0.4720  0.2899  0.0224
  783MOL0     C 7980   8.056   3.467   8.642  0.2820  0.0417 -0.1872
  783MOL0     C 7981   8.067   3.539   8.744 -0.2629 -0.4479 -0.5523
  783MOL0     C 7982   7.847   2.801   8.266 -0.2796  0.1500  0.2285
  783MOL0     C 7983   7.711   2.769   8.263 -0.4541  0.1675  0.5930
  783MOL0     C 7984   7.667   2.688   8.145  0.0569 -0.2912  0.5447
  783MOL0     H 7985   7.214   2.739   8.473 -1.7116  1.7010 -0.1708
  783MOL0     H 7986   7.004   2.643   8.471 -0.7212  1.5234 -0.9015
  783MOL0     H 7987   6.725   2.495   8.333 -0.4915 -0.3681  2.3063
  783MOL0     H 7988   6.859   2.506   8.450  1.6718 -1.3501  0.3679
  783MOL0     H 7989   6.760   2.273   8.412  1.3302 -1.4124  0.7575
  783MOL0     H 7990   6.825   2.272   8.251 -3.1546 -3.5196  1.0243
  783MOL0     H 7991   7.053   2.294   8.343  2.1704 -0.7352  2.0867
  783MOL0     H 7992   6.994   2.310   8.507 -0.0338  0.8669 -0.4602
  783MOL0     H 7993   7.085   2.093   8.461 -0.4083 -1.3206  0.5056
  783MOL0     H 7994   6.914   2.085   8.510  0.2176  0.5388  0.7393
  783MOL0     H 7995   6.867   2.059   8.255  0.3874  1.2972 -0.8279
  783MOL0     H 7996   6.935   1.925   8.358  0.3978  0.2160 -0.1877
  783MOL0     H 7997   7.028   1.994   8.125  0.3837  0.2798 -0.6988
  783MOL0     H 7998   7.122   2.122   8.213  0.5130 -0.3587 -2.8557
  783MOL0     H 7999   7.142   1.823   8.258  0.7418  0.1483 -1.0658
  783MOL0     H 8000   7.244   1.945   8.337  2.8635  0.2217 -0.7819
  783MOL0     H 8001   7.236   1.897   8.035  1.5091  0.0188 -0.4113
  783MOL0     H 8002   7.326   2.015   8.127  0.2381 -0.1663 -0.4588
  783MOL0     H 8003   7.349   1.668   7.986  3.0811 -0.2159 -1.4689
  783MOL0     H 8004   7.495   1.447   8.029 -0.8290  1.4246  0.4109
  783MOL0     H 8005   7.636   1.454   8.127 -0.1357  0.6082  0.1744
  783MOL0     H 8006   7.680   1.422   7.888 -0.0041 -0.8205  2.1525
  783MOL0     H 8007   7.606   1.589   7.857  1.2935  1.3885 -0.0565
  783MOL0     H 8008   7.793   1.692   7.987 -1.6680  0.1515  2.1087
  783MOL0     H 8009   7.840   1.523   8.033  0.7542  0.6958 -0.9977
  783MOL0     H 8010   7.855   1.632   7.749 -0.2729  2.8975  1.1145
  783MOL0     H 8011   7.988   1.608   7.868 -1.8193  2.1460  1.1581
  783MOL0     H 8012   8.030   1.594   7.618  1.1010  0.6244  3.6835
  783MOL0     H 8013   8.288   1.587   7.474  0.6985 -1.0790 -1.5799
  783MOL0     H 8014   8.124   1.628   7.405 -2.2974 -2.0460 -1.5015
  783MOL0     H 8015   8.210   1.504   7.332 -3.5725 -4.0233  0.7122
  783MOL0     H 8016   8.597   1.443   7.366  0.6560 -0.9440  0.2649
  783MOL0     H 8017   8.781   1.397   7.220  2.4245 -1.4490 -0.0461
  783MOL0     H 8018   8.959   1.290   7.167 -0.4748 -0.3576  2.4471
  783MOL0     H 8019   8.957   1.118   7.212  0.2658  0.4509  0.8584
  783MOL0     H 8020   9.034   1.068   6.983 -0.5225  0.7281  0.6912
  783MOL0     H 8021   9.031   1.247   6.953 -0.3394  0.2205 -0.4171
  783MOL0     H 8022   9.211   1.070   7.115  1.3171 -0.5819 -2.9844
  783MOL0     H 8023   9.191   1.234   7.170  1.7423 -0.0899 -0.7831
  783MOL0     H 8024   9.255   1.306   6.926 -2.3222 -1.0695  0.3154
  783MOL0     H 8025   9.287   1.139   6.895 -2.1691  0.5890  0.6659
  783MOL0     H 8026   9.492   1.266   6.950 -0.3518  1.5733  0.8452
  783MOL0     H 8027   9.430   1.273   7.110 -1.0016  2.8161 -2.3377
  783MOL0     H 8028   9.432   1.040   7.166  0.4397  0.1751  0.0837
  783MOL0     H 8029   9.580   1.093   7.099  1.1644 -1.1952 -0.2984
  783MOL0     H 8030   9.503   0.990   6.867 -2.3832 -2.8373 -0.8872
  783MOL0     H 8031   9.359   0.935   6.948 -1.5036  2.0698 -1.6051
  783MOL0     H 8032   9.514   0.783   7.072  0.1009  0.0198  0.8185
  783MOL0     H 8033   9.657   0.864   7.009 -0.7212  3.4914  2.0399
  783MOL0     H 8034   8.611   1.013   7.127 -2.5114 -0.8095  0.1951
  783MOL0     H 8035   8.399   1.080   7.247 -0.2077 -0.9774 -1.2495
  783MOL0     H 8036   8.108   1.104   7.583 -1.5004 -0.9399  1.4388
  783MOL0     H 8037   7.959   1.193   7.770 -3.0014  1.9733  0.1634
  783MOL0     H 8038   7.089   2.514   8.048  2.0761 -2.7956  0.2933
  783MOL0     H 8039   7.306   2.619   8.073  0.7162  1.3375  0.1403
  783MOL0     H 8040   7.628   2.907   8.554  2.0761 -0.3091  0.6422
  783MOL0     H 8041   7.846   2.959   8.563 -0.7581  1.1446 -1.0730
  783MOL0     H 8042   8.094   2.976   8.546  3.6110 -0.0528 -0.0988
  783MOL0     H 8043   8.197   3.029   8.413 -0.1642 -0.5683 -4.0659
  783MOL0     H 8044   7.916   3.136   8.439 -0.6999  2.3300  2.3939
  783MOL0     H 8045   8.057   3.190   8.337 -1.2913 -1.4808 -0.1409
  783MOL0     H 8046   8.041   3.198   8.639  2.8937 -1.7439  1.1396
  783MOL0     H 8047   8.187   3.237   8.546  0.6640  0.4458 -1.9331
  783MOL0     H 8048   7.922   3.378   8.502 -0.0921 -4.2573 -1.0777
  783MOL0     H 8049   8.082   3.428   8.439 -0.1300 -1.2460 -0.5622
  783MOL0     H 8050   8.077   3.604   8.828 -2.8369 -2.0607  1.1388
  783MOL0     H 8051   7.919   2.769   8.192  0.0518  0.4967  0.3958
  783MOL0     H 8052   7.593   2.751   8.094  1.4092  0.4006 -0.6332
  783MOL0     H 8053   7.753   2.681   8.078  0.7890  1.8434  1.2124
  783MOL0     H 8054   7.614   2.596   8.172 -2.3570  0.9630  0.3945
  784MOL0     O 8055   1.266   5.910   0.722  0.0178  0.7608  0.8388
  784MOL0     C 8056   1.302   5.829   0.812  0.5367 -0.5079 -0.2923
  784MOL0     O 8057   1.425   5.765   0.813 -0.1392  0.0466 -0.3252
  784MOL0     C 8058   1.494   5.805   0.699  0.1607  0.1675 -0.1038
  784MOL0     C 8059   1.550   5.946   0.676 -0.2045  0.7230 -0.2324
  784MOL0     C 8060   1.628   5.962   0.554  0.6572 -0.3330 -0.6460
  784MOL0     C 8061   1.669   5.861   0.469  0.4224 -0.3772 -0.6428
  784MOL0     O 8062   1.742   5.880   0.359 -0.2109  0.1156  0.2955
  784MOL0     C 8063   1.869   5.950   0.383 -0.9293  0.2824  0.1281
  784MOL0     C 8064   1.931   6.005   0.254 -0.5430 -0.5721  0.0179
  784MOL0     C 8065   1.834   6.104   0.187 -0.8004  0.3618  0.6153
  784MOL0     C 8066   1.894   6.146   0.044  0.4200  0.6420 -0.1273
  784MOL0     C 8067   1.798   6.226  -0.043 -0.2938 -0.6004 -0.9617
  784MOL0     C 8068   1.860   6.267  -0.171 -0.0806 -0.2000 -0.1126
  784MOL0     C 8069   1.776   6.359  -0.258 -0.2712 -0.2249  0.0294
  784MOL0     C 8070   1.832   6.379  -0.405 -0.1712 -0.2106  0.1482
  784MOL0     N 8071   1.767   6.471  -0.497 -0.3434 -0.0463 -0.7409
  784MOL0     C 8072   1.806   6.596  -0.526 -0.1613 -0.2366 -0.3727
  784MOL0     C 8073   1.731   6.640  -0.634  0.6270 -0.5656 -0.2025
  784MOL0     C 8074   1.752   6.765  -0.711 -1.3497 -0.0161  1.3406
  784MOL0     C 8075   1.804   6.733  -0.855  0.0349 -0.6978 -0.3227
  784MOL0     C 8076   1.935   6.661  -0.866 -0.7894  0.0469 -0.3125
  784MOL0     C 8077   1.945   6.594  -1.000  0.1642 -0.4323 -0.1682
  784MOL0     O 8078   1.864   6.478  -0.994  0.2620 -0.1448  0.4264
  784MOL0     C 8079   1.892   6.377  -1.088 -0.2164  0.2224 -0.3206
  784MOL0     C 8080   1.959   6.396  -1.212 -0.3158  0.0657  0.5853
  784MOL0     C 8081   1.960   6.283  -1.300  0.1672  0.4266  0.1593
  784MOL0     C 8082   2.041   6.302  -1.423  0.3416 -0.3161  0.4689
  784MOL0     C 8083   1.903   6.158  -1.259  0.2479 -0.4690  0.3582
  784MOL0     C 8084   1.909   6.034  -1.335  0.2909  0.2203  0.9984
  784MOL0     O 8085   1.885   5.918  -1.264 -0.2453 -0.4471 -0.4442
  784MOL0     C 8086   1.855   5.789  -1.308 -0.8505  0.1459  0.1985
  784MOL0     C 8087   1.896   5.679  -1.230 -0.5924 -0.5258  0.7117
  784MOL0     C 8088   1.862   5.552  -1.266  0.6002 -0.5957 -0.7272
  784MOL0     C 8089   1.811   5.519  -1.395 -0.0160 -0.6738 -0.7281
  784MOL0     O 8090   1.774   5.396  -1.445  0.1757 -0.4031  0.1292
  784MOL0     C 8091   1.769   5.280  -1.359 -0.3392 -0.4463 -0.6661
  784MOL0     C 8092   1.648   5.295  -1.265 -0.4014  0.4452  0.5549
  784MOL0     C 8093   1.525   5.330  -1.357  0.5177 -0.5429 -0.4594
  784MOL0     C 8094   1.396   5.333  -1.268 -0.1692  0.6748 -0.7380
  784MOL0     C 8095   1.287   5.232  -1.318  0.1332  0.4741 -0.4712
  784MOL0     C 8096   1.324   5.077  -1.338  0.4354  0.2556 -0.4394
  784MOL0     C 8097   1.197   5.015  -1.397  0.8279 -0.0887 -0.0186
  784MOL0     C 8098   1.203   4.974  -1.538 -0.3594 -0.8615 -0.4989
  784MOL0    Cl 8099   1.319   4.840  -1.567  0.0510  0.0121  0.3885
  784MOL0     C 8100   1.785   5.631  -1.483 -0.0624  0.0292  0.1634
  784MOL0     C 8101   1.809   5.763  -1.439 -0.9509 -0.1818  0.4087
  784MOL0     O 8102   1.926   6.039  -1.458 -0.1043 -0.1071 -0.3591
  784MOL0     C 8103   1.841   6.149  -1.131 -0.0625 -0.4850 -0.2253
  784MOL0     C 8104   1.838   6.265  -1.052 -0.1160  1.1265 -0.4780
  784MOL0     N 8105   1.629   6.545  -0.646 -0.8846 -0.0861  1.2965
  784MOL0     N 8106   1.657   6.445  -0.571  0.2787 -0.2573 -0.6978
  784MOL0     C 8107   1.614   5.739   0.500 -0.1902  0.0169  0.6923
  784MOL0     C 8108   1.532   5.713   0.604 -0.1333 -0.1485 -0.0212
  784MOL0     C 8109   1.196   5.771   0.893  0.7275  0.1853  0.7589
  784MOL0     C 8110   1.194   5.631   0.918  0.5801  0.5010  1.0868
  784MOL0     C 8111   1.088   5.577   0.990  0.4994  0.3375  0.0511
  784MOL0     C 8112   0.989   5.661   1.051 -0.1463  0.1526 -0.4890
  784MOL0     O 8113   0.881   5.605   1.115  0.3082 -0.2943  0.4036
  784MOL0     C 8114   0.775   5.587   1.025 -0.3931 -0.6682  0.9553
  784MOL0     C 8115   0.706   5.458   1.055  0.4942  0.2962  0.3681
  784MOL0     C 8116   0.643   5.453   1.196  0.0289  0.0142  0.3439
  784MOL0     C 8117   0.712   5.349   1.281 -0.2392  0.4915  0.9800
  784MOL0     C 8118   0.686   5.370   1.424 -0.2415 -0.4073  0.2223
  784MOL0     C 8119   0.658   5.372   1.540 -0.2505  0.1120  0.7454
  784MOL0     C 8120   0.990   5.806   1.026  0.1822 -0.4277 -0.0181
  784MOL0     C 8121   1.099   5.860   0.953 -0.3781 -0.5243 -0.4542
  784MOL0     C 8122   1.109   6.012   0.936  0.2120  0.3223 -0.2325
  784MOL0     H 8123   1.513   6.033   0.730  0.1008  0.6455  0.1035
  784MOL0     H 8124   1.659   6.063   0.527 -1.3939  0.3391 -0.6780
  784MOL0     H 8125   1.938   5.877   0.426 -0.7941  0.0342 -0.5054
  784MOL0     H 8126   1.855   6.032   0.454  1.6546  0.4447  0.5298
  784MOL0     H 8127   2.019   6.065   0.278 -0.8149 -0.7772  1.6141
  784MOL0     H 8128   1.970   5.923   0.194  3.9241  1.3270 -0.0611
  784MOL0     H 8129   1.741   6.052   0.160 -1.2803  1.2879  0.4599
  784MOL0     H 8130   1.820   6.187   0.256  0.2838  1.0362  0.0525
  784MOL0     H 8131   1.985   6.202   0.064  0.3345  1.1749 -1.1971
  784MOL0     H 8132   1.922   6.060  -0.018 -1.1908 -1.4502  1.8432
  784MOL0     H 8133   1.774   6.311   0.022 -0.6811 -0.8126 -0.8214
  784MOL0     H 8134   1.707   6.170  -0.068 -0.0478 -1.5347  0.1479
  784MOL0     H 8135   1.947   6.319  -0.129  0.0018  0.5790 -1.1987
  784MOL0     H 8136   1.876   6.174  -0.227  0.6880 -0.6700  0.8626
  784MOL0     H 8137   1.785   6.460  -0.216  2.5519 -0.5878  0.5086
  784MOL0     H 8138   1.671   6.331  -0.263 -1.4178  3.6945 -2.1849
  784MOL0     H 8139   1.933   6.419  -0.408  0.0392 -0.8015 -1.7750
  784MOL0     H 8140   1.831   6.278  -0.447  1.7486 -0.7500  1.3166
  784MOL0     H 8141   1.888   6.653  -0.483 -1.4704  1.9386 -0.6133
  784MOL0     H 8142   1.819   6.839  -0.665 -0.2781  0.1132 -0.3256
  784MOL0     H 8143   1.656   6.817  -0.718 -2.6257 -2.2033  1.7683
  784MOL0     H 8144   1.733   6.660  -0.894  0.2690 -1.6389  0.9422
  784MOL0     H 8145   1.791   6.824  -0.914 -2.0428 -2.4814 -2.8207
  784MOL0     H 8146   2.014   6.735  -0.852 -0.0071 -0.7790 -0.2580
  784MOL0     H 8147   1.939   6.586  -0.786  2.9794  0.5328  0.1089
  784MOL0     H 8148   1.905   6.669  -1.068  0.1179 -0.5501 -0.2701
  784MOL0     H 8149   2.051   6.580  -1.023 -0.0234 -0.1473 -1.2656
  784MOL0     H 8150   2.004   6.493  -1.230  1.4564 -0.7921  0.0798
  784MOL0     H 8151   1.988   6.291  -1.517  3.6439  0.2176 -1.6239
  784MOL0     H 8152   2.128   6.234  -1.427 -0.6237 -1.6316  0.9136
  784MOL0     H 8153   2.089   6.400  -1.429 -2.4528  1.1485  0.3420
  784MOL0     H 8154   1.950   5.700  -1.138 -0.4289  2.9941 -0.0513
  784MOL0     H 8155   1.886   5.469  -1.201  0.8845 -1.5717 -2.0224
  784MOL0     H 8156   1.778   5.192  -1.423 -1.8918 -1.1381 -0.0092
  784MOL0     H 8157   1.860   5.290  -1.300 -1.4008  3.5553  0.6663
  784MOL0     H 8158   1.624   5.201  -1.213  0.5043 -0.8689 -1.2805
  784MOL0     H 8159   1.671   5.377  -1.197  1.3472 -0.2022  0.7982
  784MOL0     H 8160   1.522   5.254  -1.435 -0.0394  2.0313 -3.1045
  784MOL0     H 8161   1.529   5.435  -1.387 -0.1935  1.1754  4.4650
  784MOL0     H 8162   1.349   5.431  -1.266  0.4490  0.9992  1.8014
  784MOL0     H 8163   1.431   5.309  -1.167  0.3897 -0.2154 -1.1313
  784MOL0     H 8164   1.201   5.232  -1.250  0.1082  2.5182 -0.4295
  784MOL0     H 8165   1.251   5.265  -1.416  0.1035 -0.5181 -0.8012
  784MOL0     H 8166   1.346   5.035  -1.239 -1.1793  2.1994  0.8520
  784MOL0     H 8167   1.407   5.063  -1.407  1.8526 -2.9880  1.6921
  784MOL0     H 8168   1.109   5.074  -1.372  0.6751 -0.1773 -0.3415
  784MOL0     H 8169   1.179   4.923  -1.340 -0.0819  0.1931  0.1685
  784MOL0     H 8170   1.222   5.067  -1.594 -0.9232 -1.1434 -1.1754
  784MOL0     H 8171   1.106   4.933  -1.570 -0.4962 -2.2229  1.5090
  784MOL0     H 8172   1.744   5.609  -1.581  0.6977  2.5875 -0.8189
  784MOL0     H 8173   1.777   5.844  -1.504  0.5858  1.3877  1.5039
  784MOL0     H 8174   1.786   6.060  -1.103 -0.9458 -0.7476 -2.5163
  784MOL0     H 8175   1.780   6.255  -0.960 -0.4084  0.4366 -0.7310
  784MOL0     H 8176   1.633   5.653   0.436 -2.1480  0.3197 -0.3895
  784MOL0     H 8177   1.494   5.611   0.609 -0.8963  0.1410  0.2679
  784MOL0     H 8178   1.263   5.561   0.871 -1.3182 -0.6875 -0.0683
  784MOL0     H 8179   1.081   5.471   1.009 -1.3025  0.3756 -0.1774
  784MOL0     H 8180   0.709   5.671   1.048 -2.8499 -2.6283  1.4852
  784MOL0     H 8181   0.815   5.595   0.923  0.8836 -0.9037  1.4168
  784MOL0     H 8182   0.751   5.364   1.021  0.0347  0.6674 -1.3495
  784MOL0     H 8183   0.619   5.450   0.989  0.3706 -5.1877  0.6916
  784MOL0     H 8184   0.647   5.549   1.249  0.4364 -0.4481  1.1771
  784MOL0     H 8185   0.540   5.420   1.187 -0.2751  0.3749  2.1235
  784MOL0     H 8186   0.820   5.365   1.272 -0.3638  1.8145  1.6122
  784MOL0     H 8187   0.677   5.252   1.244  0.5809 -0.0355  1.5504
  784MOL0     H 8188   0.630   5.393   1.641  0.0295 -0.6642  0.9946
  784MOL0     H 8189   0.911   5.878   1.048 -0.1401  1.0302 -4.8487
  784MOL0     H 8190   1.064   6.028   0.838  3.1028 -1.1863 -1.9398
  784MOL0     H 8191   1.049   6.064   1.011 -1.0791  0.5364 -1.3774
  784MOL0     H 8192   1.212   6.047   0.944 -0.0385  0.9474  0.3821
  785MOL0     O 8193   4.970  10.823   6.252 -0.1856 -0.1799  0.6237
  785MOL0     C 8194   5.008  10.864   6.358 -0.0587 -0.4520 -0.6863
  785MOL0     O 8195   5.133  10.855   6.401  0.3995 -0.2014 -0.7472
  785MOL0     C 8196   5.235  10.806   6.319  0.8160 -0.7587 -0.4218
  785MOL0     C 8197   5.293  10.679   6.341  0.1447 -0.2514 -0.2682
  785MOL0     C 8198   5.376  10.627   6.247 -0.6747  0.0031 -0.3937
  785MOL0     C 8199   5.414  10.697   6.132  1.1711  0.4183 -0.3646
  785MOL0     O 8200   5.481  10.628   6.038  0.1278 -0.4873 -0.0196
  785MOL0     C 8201   5.445  10.660   5.900 -0.0142  0.2250 -0.4498
  785MOL0     C 8202   5.457  10.539   5.801  0.6784 -0.0671  0.1676
  785MOL0     C 8203   5.581  10.449   5.795 -0.7135 -0.0412 -0.5235
  785MOL0     C 8204   5.553  10.321   5.714  0.5380 -0.1203  0.5346
  785MOL0     C 8205   5.665  10.223   5.758  0.5496 -0.2183 -0.0905
  785MOL0     C 8206   5.637  10.095   5.679  0.5142 -0.0405 -1.7412
  785MOL0     C 8207   5.742   9.990   5.682  0.1675  0.5258 -0.8797
  785MOL0     C 8208   5.697   9.859   5.609 -0.2015 -0.5749  0.1630
  785MOL0     N 8209   5.679   9.890   5.464 -0.2322  0.0924  0.1583
  785MOL0     C 8210   5.777   9.914   5.369  0.6029  0.3129 -0.6111
  785MOL0     C 8211   5.704   9.919   5.254 -0.4177  0.7334 -0.7885
  785MOL0     C 8212   5.767   9.938   5.119  0.2689 -0.3807 -0.9130
  785MOL0     C 8213   5.919   9.935   5.107  0.7092 -0.1073 -0.0924
  785MOL0     C 8214   5.971   9.993   4.979 -0.8927  0.2708 -0.1050
  785MOL0     C 8215   6.131  10.009   4.983  0.1919 -0.8501 -0.1763
  785MOL0     O 8216   6.171  10.088   4.866 -0.2943 -0.2651 -0.0093
  785MOL0     C 8217   6.302  10.115   4.844 -1.0935  0.3550  0.2226
  785MOL0     C 8218   6.406  10.113   4.936  0.4118  1.3803  0.1293
  785MOL0     C 8219   6.538  10.160   4.914 -0.6489  0.6640 -1.3790
  785MOL0     C 8220   6.631  10.163   5.038 -0.2734  0.7009  0.4034
  785MOL0     C 8221   6.568  10.207   4.787  0.3757  0.6215  1.0380
  785MOL0     C 8222   6.693  10.274   4.759 -0.2652 -0.1434 -0.2697
  785MOL0     O 8223   6.689  10.367   4.669  0.8449 -0.2872  0.5880
  785MOL0     C 8224   6.795  10.454   4.647 -0.3904  1.3596 -0.2154
  785MOL0     C 8225   6.795  10.539   4.531  0.4282 -0.1279  0.4015
  785MOL0     C 8226   6.901  10.637   4.515  0.1933  0.4449  0.5552
  785MOL0     C 8227   7.007  10.643   4.604 -0.3997 -0.4263 -1.1782
  785MOL0     O 8228   7.121  10.701   4.582 -1.0195 -0.1189  0.4687
  785MOL0     C 8229   7.118  10.844   4.559  0.0885 -0.0755  0.2995
  785MOL0     C 8230   7.239  10.904   4.627 -0.2272  0.3654  0.0781
  785MOL0     C 8231   7.227  10.938   4.779  0.1094 -0.3942  0.2464
  785MOL0     C 8232   7.353  11.017   4.821  0.1738 -0.6246 -0.0406
  785MOL0     C 8233   7.345  11.070   4.963  0.3467  0.4487 -0.7110
  785MOL0     C 8234   7.484  11.111   5.022  0.3948  0.4961 -0.3929
  785MOL0     C 8235   7.593  11.001   5.051 -0.3108  0.1563 -0.1926
  785MOL0     C 8236   7.713  11.062   5.110 -0.6165  0.2793 -0.7551
  785MOL0    Cl 8237   7.809  10.921   5.141  0.2705  0.6559 -0.1022
  785MOL0     C 8238   7.008  10.569   4.720 -0.6506  0.6143 -1.1084
  785MOL0     C 8239   6.897  10.484   4.742  0.3591  0.5439 -0.0770
  785MOL0     O 8240   6.796  10.232   4.812  0.1147 -0.1711  0.7192
  785MOL0     C 8241   6.462  10.205   4.692  0.5076  0.0171  0.0838
  785MOL0     C 8242   6.334  10.161   4.720 -0.4312  0.0870 -0.9063
  785MOL0     N 8243   5.567   9.915   5.288 -0.8755  0.3376 -0.1146
  785MOL0     N 8244   5.556   9.904   5.412  0.0127  0.2536 -0.5585
  785MOL0     C 8245   5.365  10.826   6.120  0.5087  0.3204  0.9418
  785MOL0     C 8246   5.278  10.886   6.212 -0.3572 -0.8347  0.1711
  785MOL0     C 8247   4.914  10.938   6.447  0.3431 -0.3321  0.5780
  785MOL0     C 8248   4.778  10.949   6.404 -0.0377  0.2047  0.1969
  785MOL0     C 8249   4.679  11.023   6.472 -0.4159  0.3685  1.0967
  785MOL0     C 8250   4.708  11.086   6.583 -0.1448 -0.5544  0.2687
  785MOL0     O 8251   4.592  11.139   6.635 -0.2490  0.0398 -0.2421
  785MOL0     C 8252   4.597  11.196   6.777  0.0461  0.5400  1.1581
  785MOL0     C 8253   4.592  11.092   6.889  0.4635  0.0975 -0.2687
  785MOL0     C 8254   4.444  11.068   6.944 -0.3951 -0.7590  1.1699
  785MOL0     C 8255   4.443  11.109   7.095  1.0156 -0.1318  0.8068
  785MOL0     C 8256   4.306  11.093   7.154 -0.7850 -0.2115  0.5811
  785MOL0     C 8257   4.198  11.087   7.202 -0.6930 -1.0442  0.1560
  785MOL0     C 8258   4.835  11.088   6.636 -0.4028  0.3618 -0.3677
  785MOL0     C 8259   4.941  11.017   6.566  0.3252  0.0821  0.4954
  785MOL0     C 8260   5.080  11.027   6.622 -0.1843  0.8393  0.3055
  785MOL0     H 8261   5.279  10.610   6.424  2.4903  0.5273  0.8466
  785MOL0     H 8262   5.417  10.528   6.263  0.2870  0.7498  2.3081
  785MOL0     H 8263   5.508  10.741   5.864  4.0605 -2.3867  0.1406
  785MOL0     H 8264   5.338  10.684   5.898 -0.4124 -1.4457 -1.0557
  785MOL0     H 8265   5.367  10.476   5.805 -0.7500  1.6715 -2.0716
  785MOL0     H 8266   5.442  10.586   5.703 -0.6284 -0.6278  0.0761
  785MOL0     H 8267   5.668  10.507   5.766 -1.6435  2.4011  1.2608
  785MOL0     H 8268   5.607  10.431   5.900  2.4974  1.3874 -0.9690
  785MOL0     H 8269   5.456  10.275   5.736 -0.2125 -1.8395 -4.8862
  785MOL0     H 8270   5.544  10.352   5.609 -2.9445 -0.8833  0.4841
  785MOL0     H 8271   5.655  10.207   5.866 -0.7213  0.9281 -0.0184
  785MOL0     H 8272   5.764  10.259   5.730  0.6511  1.9921  2.6774
  785MOL0     H 8273   5.541  10.059   5.717  0.0535  1.3170 -1.5571
  785MOL0     H 8274   5.626  10.129   5.576 -0.5870 -0.1484 -1.6670
  785MOL0     H 8275   5.757   9.968   5.788  0.0353  0.5041 -0.8655
  785MOL0     H 8276   5.831  10.025   5.629  0.6356 -1.8040 -1.7141
  785MOL0     H 8277   5.764   9.774   5.627 -1.9635 -1.6433  2.0088
  785MOL0     H 8278   5.605   9.825   5.657 -0.0864  0.4113  1.0971
  785MOL0     H 8279   5.882   9.901   5.389  0.4172 -2.0965 -0.9915
  785MOL0     H 8280   5.733  10.023   5.058  3.3752  0.9463 -0.9511
  785MOL0     H 8281   5.736   9.851   5.060  1.7708 -2.1574  0.8155
  785MOL0     H 8282   5.955   9.990   5.195  1.5271 -1.4258  0.4224
  785MOL0     H 8283   5.952   9.831   5.107  1.8183  0.2241 -0.8460
  785MOL0     H 8284   5.930   9.937   4.895  4.5049 -2.8390 -1.1373
  785MOL0     H 8285   5.938  10.097   4.968  0.7215  1.3113  3.1947
  785MOL0     H 8286   6.158  10.064   5.073 -1.8219 -0.7070  0.3964
  785MOL0     H 8287   6.180   9.912   4.972 -0.3372 -1.2063  0.4881
  785MOL0     H 8288   6.372  10.066   5.028  1.3083  1.0310  0.2939
  785MOL0     H 8289   6.719  10.098   5.032  0.4663  1.5327  1.7959
  785MOL0     H 8290   6.578  10.144   5.132  0.8369  0.4589  1.0067
  785MOL0     H 8291   6.664  10.265   5.057 -0.4789  0.9581 -0.5986
  785MOL0     H 8292   6.713  10.520   4.462  0.1543  1.1457  0.3634
  785MOL0     H 8293   6.896  10.683   4.417  1.7158 -1.8463 -0.6781
  785MOL0     H 8294   7.118  10.865   4.452 -0.4132 -2.1767 -0.1485
  785MOL0     H 8295   7.026  10.886   4.602  0.0061 -2.2587  2.5102
  785MOL0     H 8296   7.319  10.831   4.613 -0.3292 -0.1254  1.8184
  785MOL0     H 8297   7.264  10.995   4.572 -1.6154  1.1966  0.7652
  785MOL0     H 8298   7.219  10.842   4.832  0.9310 -1.0753 -0.8220
  785MOL0     H 8299   7.133  10.985   4.810  1.8449  2.0003  2.1502
  785MOL0     H 8300   7.373  11.100   4.753  0.8265  0.8329  1.8235
  785MOL0     H 8301   7.440  10.951   4.813 -0.0835 -0.7724 -2.0099
  785MOL0     H 8302   7.273  11.150   4.981 -0.4405 -0.7373  1.8727
  785MOL0     H 8303   7.311  10.981   5.018 -0.1067  0.7557 -0.4892
  785MOL0     H 8304   7.477  11.160   5.119  2.2371 -1.1127  0.6159
  785MOL0     H 8305   7.523  11.188   4.954 -0.3637 -0.8876 -2.4772
  785MOL0     H 8306   7.614  10.947   4.958 -2.7785  0.2588 -0.8803
  785MOL0     H 8307   7.558  10.930   5.127 -3.4147  3.2712  1.5732
  785MOL0     H 8308   7.695  11.107   5.208 -1.0136 -0.4665 -0.4715
  785MOL0     H 8309   7.761  11.134   5.043 -0.2698  2.7617  1.9593
  785MOL0     H 8310   7.097  10.568   4.782 -1.5715 -0.0268  0.2523
  785MOL0     H 8311   6.907  10.424   4.832 -0.3011  1.2504  0.4819
  785MOL0     H 8312   6.474  10.244   4.592 -0.6327  3.9936  1.2941
  785MOL0     H 8313   6.265  10.159   4.636  0.4053 -1.0137 -1.5998
  785MOL0     H 8314   5.383  10.885   6.030 -0.0850  2.3023  2.0523
  785MOL0     H 8315   5.261  10.992   6.203 -2.4624 -0.7578  3.3796
  785MOL0     H 8316   4.749  10.905   6.310 -0.2145 -3.4322  1.7662
  785MOL0     H 8317   4.578  11.009   6.436 -0.2228  0.3073  0.5576
  785MOL0     H 8318   4.685  11.261   6.781 -0.9878  1.9964  1.1942
  785MOL0     H 8319   4.520  11.274   6.786  0.5001  1.8645 -3.4956
  785MOL0     H 8320   4.654  11.136   6.968  1.4612  1.6050 -1.8206
  785MOL0     H 8321   4.646  10.999   6.868  2.0607  0.4318  2.0506
  785MOL0     H 8322   4.372  11.110   6.874 -0.6490 -1.5675  0.9342
  785MOL0     H 8323   4.423  10.962   6.929 -0.9545 -0.3511 -1.3505
  785MOL0     H 8324   4.479  11.212   7.095 -0.7079  0.5010  1.6252
  785MOL0     H 8325   4.509  11.041   7.150  0.1017 -1.1640  0.6694
  785MOL0     H 8326   4.100  11.092   7.243  0.2363  0.7945  2.3300
  785MOL0     H 8327   4.861  11.144   6.725 -0.2974  0.8035 -0.6699
  785MOL0     H 8328   5.146  11.068   6.546 -1.4847 -0.2340 -1.4659
  785MOL0     H 8329   5.081  11.089   6.713  1.0857  1.0049  0.1950
  785MOL0     H 8330   5.113  10.926   6.648  1.1509  0.9637 -0.7972
  786MOL0     O 8331   9.708   8.444   3.810 -0.5002 -0.3423  0.1685
  786MOL0     C 8332   9.620   8.477   3.893 -0.0945 -0.1385  0.4136
  786MOL0     O 8333   9.637   8.543   4.014 -0.2119  0.7121  1.1331
  786MOL0     C 8334   9.747   8.613   4.046 -0.3857  0.6144  0.1795
  786MOL0     C 8335   9.875   8.562   4.036  0.0168 -0.5356 -0.5019
  786MOL0     C 8336   9.992   8.651   4.055  0.3641  0.2716  0.6130
  786MOL0     C 8337   9.961   8.788   4.073 -0.3679  0.7521  0.1547
  786MOL0     O 8338  10.060   8.878   4.070  0.6837 -0.9970 -0.3856
  786MOL0     C 8339  10.153   8.873   4.177  0.1858  0.2335  0.3109
  786MOL0     C 8340  10.278   8.947   4.134 -0.3664  0.0878  0.0037
  786MOL0     C 8341  10.351   8.878   4.026  0.3816 -1.0820 -0.4839
  786MOL0     C 8342  10.470   8.945   3.972 -0.6674 -0.7590  0.1900
  786MOL0     C 8343  10.589   8.853   3.942 -0.8764  0.8813 -0.2156
  786MOL0     C 8344  10.683   8.920   3.845  0.3344  0.3226  1.1994
  786MOL0     C 8345  10.775   8.816   3.781 -1.0803  0.2791  0.0472
  786MOL0     C 8346  10.875   8.888   3.699 -0.0559  0.1279  0.6687
  786MOL0     N 8347  10.985   8.796   3.674  0.2011 -0.1577 -0.0771
  786MOL0     C 8348  11.015   8.718   3.564 -0.2830  0.0046  0.1388
  786MOL0     C 8349  11.139   8.683   3.587  0.0690 -0.5747 -0.5620
  786MOL0     C 8350  11.210   8.577   3.510  0.0089  0.5982  0.3222
  786MOL0     C 8351  11.295   8.615   3.388 -1.1800  0.1812  0.4380
  786MOL0     C 8352  11.320   8.493   3.297 -0.8710  0.0670 -0.1147
  786MOL0     C 8353  11.314   8.497   3.137 -0.4763  0.8057  0.4230
  786MOL0     O 8354  11.434   8.546   3.081 -0.2160 -0.4494  0.2849
  786MOL0     C 8355  11.535   8.451   3.078 -0.3434  0.7520  0.4657
  786MOL0     C 8356  11.660   8.497   3.046 -0.3482 -0.6511  0.8611
  786MOL0     C 8357  11.780   8.425   3.038 -0.5856 -0.4333 -1.0060
  786MOL0     C 8358  11.902   8.501   3.006 -0.1148  0.3853 -0.4312
  786MOL0     C 8359  11.774   8.289   3.080  0.2235 -0.6047  0.0656
  786MOL0     C 8360  11.895   8.206   3.075 -0.1396  0.4201 -0.5496
  786MOL0     O 8361  11.886   8.084   3.014 -0.0669  0.0322 -0.0942
  786MOL0     C 8362  12.004   8.030   2.964  0.1831 -0.6508 -0.4143
  786MOL0     C 8363  12.070   8.104   2.864  0.4153  0.0965  0.8649
  786MOL0     C 8364  12.193   8.060   2.808  0.1710 -0.1596 -0.4586
  786MOL0     C 8365  12.235   7.934   2.839 -0.0605 -0.3292  0.5157
  786MOL0     O 8366  12.354   7.890   2.789  0.0409  0.5958  0.8206
  786MOL0     C 8367  12.435   7.774   2.833 -0.2002 -0.9059  1.4787
  786MOL0     C 8368  12.577   7.785   2.771  0.0420 -0.7020  0.5863
  786MOL0     C 8369  12.670   7.667   2.800  0.0765  0.4733 -0.7938
  786MOL0     C 8370  12.695   7.666   2.948  0.0458  0.2531  1.0872
  786MOL0     C 8371  12.804   7.570   3.000  0.4888 -0.2439  0.2144
  786MOL0     C 8372  12.937   7.599   2.950  0.1306  0.3648  0.4066
  786MOL0     C 8373  13.038   7.523   3.039  0.0671 -1.0894  0.5934
  786MOL0     C 8374  13.187   7.536   2.989 -0.2399  0.1333  0.0334
  786MOL0    Cl 8375  13.233   7.717   2.994  0.2757  0.0319  0.1297
  786MOL0     C 8376  12.162   7.847   2.925 -0.8991  0.4112  0.2847
  786MOL0     C 8377  12.049   7.900   2.998 -0.2681 -0.4855  0.3411
  786MOL0     O 8378  11.997   8.251   3.127  0.6041  0.1195  0.0908
  786MOL0     C 8379  11.653   8.234   3.109  0.8161 -0.0164  0.5192
  786MOL0     C 8380  11.539   8.310   3.110  0.0766 -0.7188  0.0713
  786MOL0     N 8381  11.178   8.723   3.715 -0.3582  0.7493 -0.5002
  786MOL0     N 8382  11.088   8.790   3.767  0.5175 -0.4818 -0.3180
  786MOL0     C 8383   9.834   8.835   4.063 -0.9884  0.5609 -0.5952
  786MOL0     C 8384   9.727   8.749   4.049 -0.6081 -0.4627  0.0784
  786MOL0     C 8385   9.479   8.460   3.862  0.0578 -0.6764  0.3611
  786MOL0     C 8386   9.390   8.559   3.912  0.6667 -0.3698  0.5559
  786MOL0     C 8387   9.257   8.542   3.890 -0.3707  0.3592 -0.3631
  786MOL0     C 8388   9.203   8.424   3.830  0.7199 -0.2227  0.6431
  786MOL0     O 8389   9.066   8.407   3.824 -0.3303 -0.2752  0.4847
  786MOL0     C 8390   8.993   8.435   3.947  0.4923  0.0257 -0.6415
  786MOL0     C 8391   8.843   8.445   3.915 -0.0789  0.5706 -0.0040
  786MOL0     C 8392   8.789   8.307   3.867  0.3583  0.7673 -0.2126
  786MOL0     C 8393   8.817   8.184   3.958 -0.2721 -0.2334 -0.2970
  786MOL0     C 8394   8.728   8.065   3.945 -0.2096 -0.1354  0.1281
  786MOL0     C 8395   8.658   7.971   3.929 -0.0755  0.5947  0.3374
  786MOL0     C 8396   9.291   8.331   3.765 -0.4382  0.1378 -0.5736
  786MOL0     C 8397   9.429   8.342   3.797  0.3638 -0.1442  0.1050
  786MOL0     C 8398   9.520   8.235   3.746 -0.9360  0.2069  0.3530
  786MOL0     H 8399   9.893   8.459   4.006  1.8109 -1.2322  2.5049
  786MOL0     H 8400  10.093   8.619   4.032 -0.1538  1.1860 -3.8252
  786MOL0     H 8401  10.174   8.770   4.207  0.3130  0.4628  1.0247
  786MOL0     H 8402  10.110   8.924   4.263  5.1943  5.1349  0.5337
  786MOL0     H 8403  10.237   9.042   4.097  0.3932 -0.2999 -1.9019
  786MOL0     H 8404  10.337   8.958   4.225 -1.3874 -1.4139  0.8850
  786MOL0     H 8405  10.372   8.783   4.076 -2.0815  0.5605  4.2568
  786MOL0     H 8406  10.274   8.854   3.951 -1.6726 -4.2767  2.3253
  786MOL0     H 8407  10.441   8.991   3.877  2.1461 -0.3292 -0.5397
  786MOL0     H 8408  10.505   9.031   4.029  1.2306 -0.1870 -1.7032
  786MOL0     H 8409  10.550   8.765   3.889  0.9774 -0.3023  0.3004
  786MOL0     H 8410  10.633   8.824   4.038 -0.3623  1.4494 -0.2780
  786MOL0     H 8411  10.628   8.964   3.762  0.3470  1.5100  1.8013
  786MOL0     H 8412  10.734   9.007   3.889  0.7840  0.6669  0.0423
  786MOL0     H 8413  10.718   8.747   3.717 -0.4017 -0.4634  0.2365
  786MOL0     H 8414  10.814   8.760   3.866 -0.4051 -0.2219 -0.5876
  786MOL0     H 8415  10.831   8.924   3.606 -0.3552 -0.9282  0.3861
  786MOL0     H 8416  10.910   8.974   3.756 -2.4098  0.9902  0.9042
  786MOL0     H 8417  10.957   8.697   3.475 -0.0523  0.6656 -0.1789
  786MOL0     H 8418  11.136   8.505   3.474  2.7399 -2.6362  0.7307
  786MOL0     H 8419  11.270   8.528   3.587  0.8084  0.8179 -0.1532
  786MOL0     H 8420  11.242   8.687   3.326  1.1981  0.4113 -1.4766
  786MOL0     H 8421  11.387   8.656   3.433 -0.7621 -0.8865  0.5868
  786MOL0     H 8422  11.411   8.441   3.328 -0.5621  1.5332  1.6325
  786MOL0     H 8423  11.244   8.417   3.316  0.9739 -1.6261  0.9013
  786MOL0     H 8424  11.297   8.397   3.095  1.2526  0.3429  0.7601
  786MOL0     H 8425  11.231   8.559   3.101  0.4421  0.6061 -2.1960
  786MOL0     H 8426  11.653   8.598   3.007 -2.4844 -1.5919 -1.5155
  786MOL0     H 8427  11.945   8.557   3.090 -0.1358  0.3830 -0.4182
  786MOL0     H 8428  11.869   8.575   2.933  0.5141  0.0044 -1.1121
  786MOL0     H 8429  11.980   8.435   2.967  0.9910 -0.0525  2.3067
  786MOL0     H 8430  12.034   8.204   2.841 -0.1306  0.4007  2.8197
  786MOL0     H 8431  12.261   8.117   2.746  2.1204 -2.9233 -1.0901
  786MOL0     H 8432  12.431   7.772   2.942  0.4185  1.3244  1.5938
  786MOL0     H 8433  12.378   7.689   2.796 -1.0296  0.8495 -1.6518
  786MOL0     H 8434  12.569   7.787   2.662  0.6603 -3.9894  0.3891
  786MOL0     H 8435  12.625   7.880   2.798  2.3032 -1.6426  0.1416
  786MOL0     H 8436  12.770   7.674   2.757  2.5371  1.6445  4.3446
  786MOL0     H 8437  12.630   7.567   2.779 -0.6763  0.4331  0.6703
  786MOL0     H 8438  12.604   7.640   3.002 -0.5730 -0.0060 -0.0590
  786MOL0     H 8439  12.726   7.767   2.977  0.8615  0.3297  0.0127
  786MOL0     H 8440  12.795   7.593   3.107 -2.0775  2.1313 -0.3920
  786MOL0     H 8441  12.783   7.465   2.978 -1.9124  0.5856 -1.8729
  786MOL0     H 8442  12.953   7.707   2.957 -2.3232  0.8905 -0.8435
  786MOL0     H 8443  12.954   7.562   2.848 -0.3277 -2.0965  1.1670
  786MOL0     H 8444  13.020   7.416   3.051  2.4167 -1.8517 -1.6051
  786MOL0     H 8445  13.036   7.576   3.134 -0.2402 -2.8114  1.5826
  786MOL0     H 8446  13.182   7.511   2.882  0.9922  1.9053 -0.4896
  786MOL0     H 8447  13.247   7.476   3.057 -1.6273  0.6012  1.7473
  786MOL0     H 8448  12.209   7.754   2.955  3.0448  1.2583 -2.4386
  786MOL0     H 8449  12.019   7.874   3.099  2.7907  0.5433  1.6177
  786MOL0     H 8450  11.648   8.132   3.147 -1.8621 -1.1409 -2.3815
  786MOL0     H 8451  11.457   8.264   3.164 -0.3535  0.3578  0.3614
  786MOL0     H 8452   9.837   8.944   4.061 -1.9664  0.5930 -1.0310
  786MOL0     H 8453   9.629   8.793   4.031  1.0386  3.3216 -0.5588
  786MOL0     H 8454   9.435   8.642   3.966  1.7604  1.0631 -2.3352
  786MOL0     H 8455   9.191   8.616   3.936 -1.7428 -0.5341 -0.8408
  786MOL0     H 8456   9.022   8.357   4.018  0.3752 -1.8236 -2.5098
  786MOL0     H 8457   9.025   8.526   3.998  0.2504  0.5739 -1.4420
  786MOL0     H 8458   8.833   8.524   3.840 -0.4048  2.4195  1.8718
  786MOL0     H 8459   8.794   8.470   4.010 -1.7009 -2.7918  0.1732
  786MOL0     H 8460   8.682   8.310   3.845  0.9552  2.0672 -3.4447
  786MOL0     H 8461   8.834   8.277   3.771 -1.9486 -3.8624 -0.1087
  786MOL0     H 8462   8.816   8.220   4.061 -1.1338  1.5580 -0.8822
  786MOL0     H 8463   8.919   8.158   3.926 -0.1960  0.7921 -0.9516
  786MOL0     H 8464   8.586   7.892   3.921  0.1624  0.5573 -1.9584
  786MOL0     H 8465   9.257   8.243   3.713 -0.8582  0.3586 -0.6809
  786MOL0     H 8466   9.477   8.142   3.707  1.9912 -0.9239 -0.5213
  786MOL0     H 8467   9.589   8.274   3.670 -0.4568 -1.4579 -0.1235
  786MOL0     H 8468   9.583   8.205   3.830 -2.2422  0.7362  1.5578
  787MOL0     O 8469   6.222   3.805   5.312 -0.6554  0.6522  0.4518
  787MOL0     C 8470   6.216   3.699   5.248  0.2514  0.0305  0.8281
  787MOL0     O 8471   6.316   3.629   5.205 -0.6763  0.3546  0.4886
  787MOL0     C 8472   6.447   3.665   5.229  0.8353  0.3465 -1.1291
  787MOL0     C 8473   6.530   3.556   5.252  0.2047  0.1274 -0.0686
  787MOL0     C 8474   6.673   3.579   5.262  0.3603  0.3844  0.4148
  787MOL0     C 8475   6.729   3.696   5.242 -0.1812  0.0865  0.4658
  787MOL0     O 8476   6.864   3.726   5.252  0.4107 -0.7187 -0.6128
  787MOL0     C 8477   6.962   3.639   5.192 -0.6705  0.0905  0.3107
  787MOL0     C 8478   7.079   3.727   5.149 -0.0809  0.7176 -0.0757
  787MOL0     C 8479   7.062   3.797   5.010 -1.0142 -0.1486 -0.6117
  787MOL0     C 8480   7.177   3.894   4.987 -0.6311 -0.0226  0.4979
  787MOL0     C 8481   7.145   3.970   4.856 -0.2863  0.2922 -0.5834
  787MOL0     C 8482   7.269   3.994   4.767 -0.1622  0.3294  0.2968
  787MOL0     C 8483   7.257   4.113   4.664  0.7400  0.5921  0.2501
  787MOL0     C 8484   7.224   4.253   4.721 -0.3270  0.5995 -0.4860
  787MOL0     N 8485   7.254   4.358   4.628 -0.3459  0.4740 -0.4291
  787MOL0     C 8486   7.322   4.474   4.668 -0.9227 -0.0752  0.9242
  787MOL0     C 8487   7.356   4.536   4.553  0.4570 -0.5297 -0.3590
  787MOL0     C 8488   7.450   4.659   4.546  0.8491  0.7040  0.0819
  787MOL0     C 8489   7.375   4.791   4.531  0.4753 -0.1950  0.7111
  787MOL0     C 8490   7.295   4.833   4.654 -0.0805 -0.4543  0.5557
  787MOL0     C 8491   7.377   4.844   4.786  0.1610 -0.2055  0.1435
  787MOL0     O 8492   7.457   4.963   4.788 -0.1038  0.4307 -0.3666
  787MOL0     C 8493   7.569   4.974   4.869  0.1587  0.2841 -0.1270
  787MOL0     C 8494   7.600   4.895   4.982 -0.4975  0.0484  0.3580
  787MOL0     C 8495   7.714   4.925   5.063 -0.3803  0.6182  0.6533
  787MOL0     C 8496   7.742   4.821   5.171  0.9558 -0.2577 -0.3862
  787MOL0     C 8497   7.784   5.043   5.049  0.8502  0.3538 -0.4425
  787MOL0     C 8498   7.905   5.065   5.124 -0.7361 -0.2343  0.3660
  787MOL0     O 8499   8.010   4.969   5.130  0.2956 -0.5891  0.4783
  787MOL0     C 8500   8.113   4.982   5.216  0.3349 -0.0483 -0.4775
  787MOL0     C 8501   8.240   5.014   5.163 -0.8611  0.1988  0.3567
  787MOL0     C 8502   8.352   5.050   5.243  0.1887 -0.5437  0.2536
  787MOL0     C 8503   8.338   5.052   5.382 -0.6847 -0.7463  0.4378
  787MOL0     O 8504   8.444   5.096   5.464 -0.7139  0.0861  0.2458
  787MOL0     C 8505   8.586   5.074   5.426  0.7353 -0.2217 -0.1878
  787MOL0     C 8506   8.643   4.940   5.471  0.5797  1.0353 -0.0751
  787MOL0     C 8507   8.537   4.824   5.456 -0.2582  0.0432 -0.4591
  787MOL0     C 8508   8.612   4.695   5.474  0.6078  0.0519  0.5180
  787MOL0     C 8509   8.508   4.585   5.482 -0.5544  0.4993  0.4662
  787MOL0     C 8510   8.571   4.445   5.452 -0.1682  0.6633 -0.2671
  787MOL0     C 8511   8.637   4.414   5.311 -0.0194  0.1447 -0.4275
  787MOL0     C 8512   8.525   4.399   5.211  0.7888 -0.5214 -0.0393
  787MOL0    Cl 8513   8.402   4.267   5.223 -0.3467 -0.2086 -0.2916
  787MOL0     C 8514   8.214   5.021   5.432  1.4928 -0.5729  0.5223
  787MOL0     C 8515   8.102   4.985   5.349 -0.2260  0.2594 -0.5945
  787MOL0     O 8516   7.900   5.168   5.192 -0.1064  0.2579  0.2495
  787MOL0     C 8517   7.750   5.126   4.945 -0.7661  0.2202 -0.0232
  787MOL0     C 8518   7.646   5.094   4.857  0.5412  0.1572 -0.3288
  787MOL0     N 8519   7.308   4.459   4.446  0.1567 -0.0766  0.2761
  787MOL0     N 8520   7.251   4.350   4.493  0.4444  0.5300  0.1874
  787MOL0     C 8521   6.647   3.805   5.225  0.0287  0.2088 -0.2746
  787MOL0     C 8522   6.508   3.793   5.221 -0.1212  0.2107 -0.5679
  787MOL0     C 8523   6.092   3.625   5.243  0.5251 -0.0940 -0.7956
  787MOL0     C 8524   6.093   3.485   5.263  0.2813 -0.1644  0.3567
  787MOL0     C 8525   5.973   3.415   5.265  0.0676  0.3186 -0.3846
  787MOL0     C 8526   5.852   3.481   5.237 -0.3386  0.0717 -0.3375
  787MOL0     O 8527   5.727   3.426   5.230 -0.4084  0.0279  0.0709
  787MOL0     C 8528   5.713   3.287   5.275 -0.6837 -1.2233  1.2286
  787MOL0     C 8529   5.730   3.260   5.416 -0.2273  0.0743 -0.6283
  787MOL0     C 8530   5.593   3.271   5.484  0.6563 -0.5131  0.4143
  787MOL0     C 8531   5.608   3.284   5.629 -0.7625 -0.0813 -0.0385
  787MOL0     C 8532   5.686   3.180   5.698  0.2363 -0.6156 -0.6630
  787MOL0     C 8533   5.755   3.108   5.769 -0.5495  0.2885  0.4947
  787MOL0     C 8534   5.853   3.614   5.227 -0.5884 -0.3437  0.1493
  787MOL0     C 8535   5.967   3.694   5.230 -0.1689  0.5166 -0.1544
  787MOL0     C 8536   5.953   3.844   5.208 -0.1791 -0.4463 -0.4144
  787MOL0     H 8537   6.475   3.463   5.262 -0.3715  0.4331 -0.3614
  787MOL0     H 8538   6.730   3.489   5.285  1.8302  0.9054 -1.0086
  787MOL0     H 8539   6.922   3.592   5.102 -1.5498  2.2135 -0.4680
  787MOL0     H 8540   6.990   3.577   5.278  1.0401  2.1347  1.3270
  787MOL0     H 8541   7.094   3.804   5.225  0.2337 -0.0675  0.6758
  787MOL0     H 8542   7.171   3.669   5.157 -1.4760 -1.3877  1.7983
  787MOL0     H 8543   7.055   3.724   4.929  1.2636 -0.5593 -0.5166
  787MOL0     H 8544   6.965   3.846   5.011 -0.8913  0.0918 -0.2757
  787MOL0     H 8545   7.192   3.955   5.077  0.6998  0.6140 -0.1273
  787MOL0     H 8546   7.272   3.843   4.970 -0.9823  0.0132 -1.9079
  787MOL0     H 8547   7.085   4.061   4.867 -0.6064 -0.1612  2.2075
  787MOL0     H 8548   7.072   3.912   4.799 -0.3574 -1.0211  0.7581
  787MOL0     H 8549   7.366   4.012   4.815  1.1613 -1.6436 -1.4465
  787MOL0     H 8550   7.301   3.903   4.715 -0.7913 -1.3321  2.6339
  787MOL0     H 8551   7.178   4.092   4.591 -1.3904  3.8038  1.4070
  787MOL0     H 8552   7.346   4.136   4.604 -0.8740  1.2073 -2.0238
  787MOL0     H 8553   7.120   4.247   4.754  0.8035  0.5470  3.5777
  787MOL0     H 8554   7.281   4.272   4.812  1.5162  2.1814 -1.8949
  787MOL0     H 8555   7.344   4.506   4.769 -3.6100  0.3518  1.4592
  787MOL0     H 8556   7.513   4.639   4.458  2.2703 -3.5398  1.7840
  787MOL0     H 8557   7.510   4.655   4.637  1.1186 -0.5824 -0.1267
  787MOL0     H 8558   7.444   4.874   4.514  1.1231 -0.6594  1.0526
  787MOL0     H 8559   7.310   4.771   4.445  2.3311  1.8496 -1.3155
  787MOL0     H 8560   7.242   4.928   4.636  0.4286 -0.7163 -3.2839
  787MOL0     H 8561   7.220   4.757   4.674 -0.6832 -0.1905 -0.5862
  787MOL0     H 8562   7.306   4.856   4.867 -1.8360  0.1483 -1.5754
  787MOL0     H 8563   7.433   4.751   4.801  1.9593  1.1643  2.6012
  787MOL0     H 8564   7.547   4.802   4.997 -1.5551  0.8653  2.1024
  787MOL0     H 8565   7.686   4.728   5.165  1.7012 -0.7519  0.0863
  787MOL0     H 8566   7.721   4.857   5.272 -3.0428 -2.4858 -0.2312
  787MOL0     H 8567   7.843   4.780   5.171  1.1831  0.2830 -1.3265
  787MOL0     H 8568   8.247   5.029   5.056 -1.7311  1.2625  0.4326
  787MOL0     H 8569   8.448   5.067   5.194  0.2244  0.9323  0.7788
  787MOL0     H 8570   8.597   5.108   5.323  1.1527 -1.5839 -0.6116
  787MOL0     H 8571   8.651   5.147   5.476 -0.5850 -1.0236  2.8948
  787MOL0     H 8572   8.727   4.911   5.408  0.8337  0.8239  0.3558
  787MOL0     H 8573   8.669   4.946   5.577 -2.7921 -1.4721  1.0816
  787MOL0     H 8574   8.489   4.817   5.358 -3.0184 -2.3535  0.8859
  787MOL0     H 8575   8.464   4.834   5.537  0.1286  2.0654 -0.3292
  787MOL0     H 8576   8.679   4.694   5.561  2.2888  1.5351 -0.6767
  787MOL0     H 8577   8.681   4.667   5.393  1.4867 -2.7558  2.0598
  787MOL0     H 8578   8.450   4.585   5.574  0.5960  0.7713  1.2067
  787MOL0     H 8579   8.439   4.605   5.399  0.5906 -0.8328 -0.8778
  787MOL0     H 8580   8.487   4.378   5.474  0.0059  1.6852  4.4944
  787MOL0     H 8581   8.650   4.425   5.525 -0.0699  0.2143 -0.4868
  787MOL0     H 8582   8.694   4.321   5.321  2.5309  1.6122 -0.6131
  787MOL0     H 8583   8.715   4.486   5.286  0.2350 -0.1193 -0.4018
  787MOL0     H 8584   8.581   4.391   5.117  1.3317  0.5915  0.1756
  787MOL0     H 8585   8.469   4.493   5.210  1.1925 -0.2820 -0.7581
  787MOL0     H 8586   8.200   5.020   5.540 -1.8842 -0.1529  0.1867
  787MOL0     H 8587   8.011   4.982   5.409  1.2220  1.6679  1.8375
  787MOL0     H 8588   7.805   5.218   4.929 -0.3140  0.5484  2.8589
  787MOL0     H 8589   7.635   5.153   4.767  0.4303 -0.7888 -0.9522
  787MOL0     H 8590   6.691   3.904   5.220  1.6126 -0.5363 -2.4022
  787MOL0     H 8591   6.451   3.876   5.179  2.8966  2.6361 -0.2277
  787MOL0     H 8592   6.187   3.434   5.276  0.9266  0.0157 -2.7745
  787MOL0     H 8593   5.972   3.307   5.276 -0.9949  0.2851 -0.7858
  787MOL0     H 8594   5.608   3.274   5.248 -1.0517  0.3634  1.8087
  787MOL0     H 8595   5.768   3.217   5.211 -2.1104 -0.5944 -0.8228
  787MOL0     H 8596   5.795   3.333   5.465 -2.5658 -0.7860  4.3517
  787MOL0     H 8597   5.774   3.162   5.431  1.5672  1.0650  0.9979
  787MOL0     H 8598   5.538   3.361   5.452  0.1448 -1.3090 -1.0010
  787MOL0     H 8599   5.526   3.189   5.457 -3.1178  1.1931  3.5691
  787MOL0     H 8600   5.508   3.285   5.673 -1.5475  0.8385 -1.7247
  787MOL0     H 8601   5.653   3.382   5.648 -0.0464 -0.5622  0.7885
  787MOL0     H 8602   5.819   3.040   5.822  0.9480  0.0524 -1.5016
  787MOL0     H 8603   5.756   3.663   5.218 -1.2841 -1.2200  2.4164
  787MOL0     H 8604   5.848   3.875   5.208 -0.4954 -1.4872  0.2763
  787MOL0     H 8605   6.004   3.898   5.288 -0.0016 -1.6813  0.3210
  787MOL0     H 8606   5.995   3.865   5.109  1.4009  0.6880  0.4554
  788MOL0     O 8607   9.835   7.009   0.244  0.1534 -0.2325  0.7022
  788MOL0     C 8608   9.771   6.921   0.301 -0.2519 -0.3068 -0.5858
  788MOL0     O 8609   9.829   6.825   0.379  0.3692 -1.0481 -0.0212
  788MOL0     C 8610   9.959   6.812   0.400 -0.7523 -0.6210 -0.4453
  788MOL0     C 8611  10.063   6.840   0.315  0.7271  0.7009  0.1955
  788MOL0     C 8612  10.199   6.831   0.345  1.0588  0.1139  0.7689
  788MOL0     C 8613  10.230   6.766   0.473  0.5664  0.0175  0.5873
  788MOL0     O 8614  10.357   6.732   0.518  0.8114  0.2388 -0.2184
  788MOL0     C 8615  10.458   6.707   0.409  0.0754 -0.5997  0.2813
  788MOL0     C 8616  10.580   6.636   0.475 -0.3158  0.2384 -0.5661
  788MOL0     C 8617  10.684   6.739   0.532 -0.0317 -0.5328 -0.6274
  788MOL0     C 8618  10.803   6.661   0.586  0.8763  0.2641 -0.3625
  788MOL0     C 8619  10.914   6.761   0.621 -0.0560  0.0041  0.0283
  788MOL0     C 8620  11.013   6.693   0.721  0.0476  0.1874  0.2203
  788MOL0     C 8621  11.097   6.800   0.795 -0.5101 -0.5186  0.4942
  788MOL0     C 8622  11.182   6.884   0.697  0.3098  0.8346  0.6724
  788MOL0     N 8623  11.284   6.798   0.634  0.4325  0.3026 -0.3283
  788MOL0     C 8624  11.288   6.768   0.505 -0.3829  0.6127 -0.0585
  788MOL0     C 8625  11.408   6.708   0.484  0.2876  0.3737  0.6611
  788MOL0     C 8626  11.449   6.670   0.340 -0.4868 -0.0622 -0.2154
  788MOL0     C 8627  11.566   6.759   0.294  0.2625 -0.2410  0.1465
  788MOL0     C 8628  11.693   6.710   0.370 -0.2019 -0.2026 -0.2003
  788MOL0     C 8629  11.813   6.727   0.279  0.1792 -0.2632 -0.6685
  788MOL0     O 8630  11.862   6.854   0.249 -0.3077 -0.3102 -0.2710
  788MOL0     C 8631  11.950   6.884   0.144  0.1708 -0.3589  0.7889
  788MOL0     C 8632  12.010   6.786   0.058  0.2768 -0.0207 -1.1639
  788MOL0     C 8633  12.096   6.814  -0.050 -0.6034 -0.2879  0.4697
  788MOL0     C 8634  12.149   6.703  -0.134 -0.2037  0.7262 -0.6009
  788MOL0     C 8635  12.111   6.956  -0.091 -0.2214  0.0044 -0.6119
  788MOL0     C 8636  12.175   7.006  -0.217 -0.6168  0.1294  0.6471
  788MOL0     O 8637  12.225   7.128  -0.220  0.6918  0.6701 -0.5397
  788MOL0     C 8638  12.307   7.166  -0.324 -0.3203 -0.3842  0.1967
  788MOL0     C 8639  12.257   7.180  -0.458 -0.4320  0.4041  0.1492
  788MOL0     C 8640  12.345   7.222  -0.554  0.4975  0.2581  0.4120
  788MOL0     C 8641  12.477   7.253  -0.525 -0.2802  0.0436 -0.3046
  788MOL0     O 8642  12.554   7.294  -0.629 -0.0277  0.1064 -0.1308
  788MOL0     C 8643  12.697   7.276  -0.601 -0.7483 -0.2842 -0.0650
  788MOL0     C 8644  12.778   7.298  -0.727  0.0053  0.3785  0.9351
  788MOL0     C 8645  12.772   7.183  -0.834  0.1979 -0.4858  0.2975
  788MOL0     C 8646  12.878   7.195  -0.953 -0.4387 -0.0188  0.0442
  788MOL0     C 8647  12.853   7.087  -1.058 -0.2605 -0.6085 -1.0331
  788MOL0     C 8648  12.944   6.958  -1.037  0.1283 -0.0782  0.2345
  788MOL0     C 8649  12.945   6.860  -1.150  0.6753  0.1700 -0.0352
  788MOL0     C 8650  13.040   6.906  -1.260  0.2777 -0.4575  0.5481
  788MOL0    Cl 8651  13.211   6.859  -1.200 -0.0230 -0.6932  0.1737
  788MOL0     C 8652  12.525   7.238  -0.393 -0.2062  0.0022  0.0286
  788MOL0     C 8653  12.444   7.192  -0.293 -0.9512 -0.1525 -0.4083
  788MOL0     O 8654  12.186   6.920  -0.311  0.8952  0.3891  0.2667
  788MOL0     C 8655  12.053   7.052  -0.003  0.1610  0.3083  0.6251
  788MOL0     C 8656  11.978   7.022   0.112 -1.6489  0.4711  0.1170
  788MOL0     N 8657  11.471   6.697   0.603 -0.1830  0.0055 -0.2359
  788MOL0     N 8658  11.398   6.749   0.695 -0.4325  0.1454 -0.3647
  788MOL0     C 8659  10.128   6.743   0.563  0.0363 -0.1700 -0.6468
  788MOL0     C 8660  10.000   6.759   0.526  0.4657 -0.7087  0.5283
  788MOL0     C 8661   9.616   6.929   0.297 -0.5181  0.8809  0.6942
  788MOL0     C 8662   9.564   7.032   0.223  0.2985  0.0954 -0.7282
  788MOL0     C 8663   9.419   7.038   0.208 -0.2242  0.6494 -0.1922
  788MOL0     C 8664   9.329   6.945   0.262  0.2414  0.0356 -0.1771
  788MOL0     O 8665   9.191   6.946   0.231 -0.1832 -0.7585 -0.0594
  788MOL0     C 8666   9.096   6.878   0.318  0.0809  0.6541 -0.1619
  788MOL0     C 8667   8.958   6.949   0.330  0.1362  0.3472  0.8551
  788MOL0     C 8668   8.902   7.011   0.200 -0.3053 -0.0178  1.0075
  788MOL0     C 8669   8.888   6.907   0.090 -0.0085 -0.5421  0.3166
  788MOL0     C 8670   8.773   6.815   0.113 -0.4742  0.2933 -0.8802
  788MOL0     C 8671   8.677   6.741   0.142  0.3601  0.0427  0.3730
  788MOL0     C 8672   9.392   6.848   0.342 -0.1997 -0.6638  0.0824
  788MOL0     C 8673   9.527   6.834   0.356 -0.8774 -0.3946 -0.3451
  788MOL0     C 8674   9.582   6.724   0.448  0.9224 -0.5645 -0.6186
  788MOL0     H 8675  10.034   6.876   0.217 -1.3651  0.5510  0.7128
  788MOL0     H 8676  10.278   6.838   0.271 -2.0098  1.7528 -2.6857
  788MOL0     H 8677  10.496   6.805   0.378  1.8920 -1.5209 -0.5400
  788MOL0     H 8678  10.419   6.654   0.322  0.1187 -0.7452  0.3500
  788MOL0     H 8679  10.539   6.578   0.558  1.8760 -2.3122 -1.1359
  788MOL0     H 8680  10.634   6.569   0.408 -0.0648 -0.2005  0.0680
  788MOL0     H 8681  10.719   6.807   0.454 -0.6238  2.9731  1.8880
  788MOL0     H 8682  10.632   6.806   0.602 -0.0471  1.3935 -2.3868
  788MOL0     H 8683  10.773   6.621   0.683  0.2071  2.9746  0.6349
  788MOL0     H 8684  10.851   6.586   0.522  0.0680 -1.4845  1.0009
  788MOL0     H 8685  10.866   6.852   0.660  0.4657  0.9263 -1.3906
  788MOL0     H 8686  10.956   6.797   0.527  1.0591 -2.2277 -0.3915
  788MOL0     H 8687  10.958   6.641   0.799 -0.4486  1.3148  0.6441
  788MOL0     H 8688  11.076   6.626   0.662 -1.8492 -0.2786 -1.3698
  788MOL0     H 8689  11.168   6.756   0.866 -1.7539 -0.7569  1.6181
  788MOL0     H 8690  11.033   6.871   0.847 -0.4460 -0.3835  0.3921
  788MOL0     H 8691  11.111   6.928   0.626 -0.4832 -0.4565  0.6391
  788MOL0     H 8692  11.227   6.966   0.753  0.9893  1.5353 -0.8361
  788MOL0     H 8693  11.215   6.790   0.427 -0.4128 -0.3013 -0.3085
  788MOL0     H 8694  11.368   6.687   0.268 -0.7647 -2.3808 -0.5385
  788MOL0     H 8695  11.470   6.562   0.342  0.8365  0.1792 -0.2385
  788MOL0     H 8696  11.587   6.771   0.187  2.0773  2.4197  0.7011
  788MOL0     H 8697  11.549   6.858   0.337  1.9389 -0.6271  1.8315
  788MOL0     H 8698  11.704   6.764   0.464  3.3748  1.7545 -1.5360
  788MOL0     H 8699  11.692   6.604   0.396  2.0868 -0.2240 -0.0387
  788MOL0     H 8700  11.894   6.675   0.331  2.3929  1.9514 -1.6514
  788MOL0     H 8701  11.783   6.684   0.183 -1.4182 -1.3907  0.3011
  788MOL0     H 8702  11.992   6.682   0.085  2.6267 -0.1840  0.0074
  788MOL0     H 8703  12.148   6.613  -0.072  0.8827  0.4630 -0.9472
  788MOL0     H 8704  12.253   6.718  -0.164  0.5894  0.4035  1.8226
  788MOL0     H 8705  12.074   6.682  -0.211 -0.1063 -0.6964 -0.3340
  788MOL0     H 8706  12.155   7.166  -0.491 -0.0652  0.5299 -1.0769
  788MOL0     H 8707  12.317   7.221  -0.659  1.9894 -0.3706 -0.0076
  788MOL0     H 8708  12.725   7.353  -0.529 -0.3375 -0.2760 -0.2312
  788MOL0     H 8709  12.717   7.179  -0.555 -3.6311 -0.3622  1.2207
  788MOL0     H 8710  12.738   7.386  -0.777 -0.8083 -0.7233 -0.4290
  788MOL0     H 8711  12.884   7.318  -0.707  0.8543  1.0352 -3.3782
  788MOL0     H 8712  12.671   7.176  -0.875  1.1929  3.0980 -3.3575
  788MOL0     H 8713  12.783   7.091  -0.775 -0.7403  0.1331  1.4955
  788MOL0     H 8714  12.979   7.182  -0.914 -0.1098  1.4634 -0.2721
  788MOL0     H 8715  12.884   7.298  -0.988 -0.5393  0.0978  0.3652
  788MOL0     H 8716  12.750   7.053  -1.048 -0.1595 -0.4130  0.8697
  788MOL0     H 8717  12.869   7.125  -1.160 -0.8665  0.9302 -0.5764
  788MOL0     H 8718  12.919   6.904  -0.946  2.7288 -0.2702  0.9012
  788MOL0     H 8719  13.045   7.000  -1.031 -1.6538  4.5944  2.7984
  788MOL0     H 8720  12.848   6.838  -1.195  2.7962 -4.8541 -3.0768
  788MOL0     H 8721  12.976   6.761  -1.113 -2.5739 -1.2307 -0.7043
  788MOL0     H 8722  13.019   7.011  -1.283 -1.1768 -0.8020  0.1988
  788MOL0     H 8723  13.016   6.851  -1.351 -1.9413 -0.5470  1.1310
  788MOL0     H 8724  12.620   7.278  -0.359  1.4106 -3.5196  0.0866
  788MOL0     H 8725  12.501   7.189  -0.200 -0.0253  0.4488 -0.9463
  788MOL0     H 8726  12.064   7.157  -0.031 -0.0057  0.2454  0.3214
  788MOL0     H 8727  11.957   7.102   0.182  2.5821 -0.3801  2.7007
  788MOL0     H 8728  10.143   6.690   0.657 -0.5936 -0.2211 -0.5690
  788MOL0     H 8729   9.929   6.732   0.604 -1.6765  0.9412 -0.7302
  788MOL0     H 8730   9.618   7.112   0.173  1.3489  0.0809  0.3648
  788MOL0     H 8731   9.376   7.114   0.144 -2.4808  0.1963  0.6593
  788MOL0     H 8732   9.069   6.777   0.286 -2.3316  0.6277  1.6611
  788MOL0     H 8733   9.146   6.881   0.415  1.0802  2.5763 -0.6817
  788MOL0     H 8734   8.970   7.027   0.406  1.3965  0.7802  0.2320
  788MOL0     H 8735   8.881   6.879   0.364 -0.5546 -0.0467 -1.3948
  788MOL0     H 8736   8.809   7.062   0.222 -0.6358 -0.9479  1.8352
  788MOL0     H 8737   8.969   7.079   0.147  1.5824 -1.8378  0.8834
  788MOL0     H 8738   8.980   6.849   0.075 -0.5092 -1.0745 -0.8142
  788MOL0     H 8739   8.873   6.964  -0.003  3.0588  0.7697  0.5001
  788MOL0     H 8740   8.605   6.668   0.171  2.7000 -2.0480  1.2652
  788MOL0     H 8741   9.339   6.775   0.402 -1.0394 -0.9798 -1.0109
  788MOL0     H 8742   9.638   6.649   0.391 -1.6591 -1.0834 -2.6502
  788MOL0     H 8743   9.640   6.770   0.529 -1.1465  0.8822  0.1378
  788MOL0     H 8744   9.503   6.665   0.495  1.4261 -2.8082 -2.3790
  789MOL0     O 8745   6.792   0.677   1.570 -0.0692 -0.2796 -0.6815
  789MOL0     C 8746   6.679   0.636   1.541 -0.0896 -0.3795 -0.1651
  789MOL0     O 8747   6.564   0.667   1.611  0.2757 -0.4367 -0.2299
  789MOL0     C 8748   6.545   0.775   1.698 -1.1926 -0.0090  0.5685
  789MOL0     C 8749   6.618   0.786   1.815  0.7881 -0.4612 -0.7790
  789MOL0     C 8750   6.576   0.877   1.918  0.2312 -0.3360  0.3395
  789MOL0     C 8751   6.470   0.970   1.890 -0.3112  0.0147  1.0609
  789MOL0     O 8752   6.424   1.052   1.987  0.4634 -0.1067  0.1156
  789MOL0     C 8753   6.508   1.094   2.098 -0.8874 -0.1677  0.4305
  789MOL0     C 8754   6.638   1.171   2.059  0.4786 -0.3405  0.7175
  789MOL0     C 8755   6.719   1.221   2.181  0.5365 -0.3487 -0.3078
  789MOL0     C 8756   6.666   1.356   2.240 -0.1735  0.1534 -0.2222
  789MOL0     C 8757   6.773   1.445   2.304 -0.7077 -0.5467 -1.0469
  789MOL0     C 8758   6.713   1.592   2.330 -0.1251 -0.2614  0.5367
  789MOL0     C 8759   6.840   1.674   2.360 -0.3626  0.0540  0.8274
  789MOL0     C 8760   6.798   1.815   2.382  0.3380 -0.5319 -0.0120
  789MOL0     N 8761   6.919   1.890   2.431 -1.0033 -0.3474 -0.2032
  789MOL0     C 8762   6.967   1.892   2.560 -0.0065  0.6269  0.0710
  789MOL0     C 8763   7.080   1.965   2.557 -0.2981  0.1636 -0.2574
  789MOL0     C 8764   7.164   2.007   2.681  0.4930  0.2976  0.0965
  789MOL0     C 8765   7.142   2.153   2.722  0.2485  0.3245  0.9510
  789MOL0     C 8766   7.187   2.199   2.857 -0.5691  0.4077 -1.0470
  789MOL0     C 8767   7.330   2.183   2.880  0.3221 -0.2763 -0.7320
  789MOL0     O 8768   7.387   2.202   3.017 -0.4388  0.2043  0.2978
  789MOL0     C 8769   7.521   2.209   3.033 -0.5443 -0.0465  0.3117
  789MOL0     C 8770   7.569   2.229   3.163  0.8634  0.6746  0.8015
  789MOL0     C 8771   7.707   2.240   3.186  0.8828  0.7507  0.4619
  789MOL0     C 8772   7.745   2.269   3.329  0.5785 -0.0934  0.7849
  789MOL0     C 8773   7.797   2.228   3.088 -0.7132  0.0042 -0.0515
  789MOL0     C 8774   7.943   2.233   3.097  0.4231 -0.5354  0.4009
  789MOL0     O 8775   8.011   2.321   3.016  0.0820  0.3809  0.2396
  789MOL0     C 8776   8.150   2.317   3.025  1.1328  1.1423 -0.1400
  789MOL0     C 8777   8.208   2.375   3.136  1.0432 -0.4514  0.1055
  789MOL0     C 8778   8.340   2.377   3.147  0.7284  0.1237 -0.4272
  789MOL0     C 8779   8.429   2.327   3.051  0.5145 -0.7276 -0.8260
  789MOL0     O 8780   8.561   2.325   3.078 -0.2171 -0.1885 -0.4964
  789MOL0     C 8781   8.653   2.310   2.970  0.6637  0.3117 -0.4714
  789MOL0     C 8782   8.793   2.315   3.023 -0.3326  0.7412  0.3355
  789MOL0     C 8783   8.832   2.190   3.098  0.8523  0.0667 -1.1214
  789MOL0     C 8784   8.861   2.064   3.009 -0.1168  0.2296 -1.5232
  789MOL0     C 8785   8.913   1.944   3.084  0.4867  1.0422  0.5090
  789MOL0     C 8786   8.919   1.830   2.987 -0.0697  0.0921  0.4403
  789MOL0     C 8787   8.994   1.709   3.061  0.0005 -0.6465 -0.2920
  789MOL0     C 8788   8.989   1.572   2.992  0.0006  0.5882  0.4961
  789MOL0    Cl 8789   8.888   1.565   2.843 -0.3114 -0.1018 -0.4276
  789MOL0     C 8790   8.368   2.262   2.938 -0.6377 -0.3120 -0.3099
  789MOL0     C 8791   8.232   2.266   2.920  0.7130  0.8221 -0.1189
  789MOL0     O 8792   7.994   2.145   3.167 -0.4912  0.9166 -0.1392
  789MOL0     C 8793   7.750   2.215   2.953 -0.6402  0.2876 -0.1604
  789MOL0     C 8794   7.610   2.203   2.923 -0.2639  0.5569 -0.1575
  789MOL0     N 8795   7.101   2.008   2.426 -0.0675 -0.1575  0.1874
  789MOL0     N 8796   7.008   1.960   2.353 -0.1546  0.0178 -0.4240
  789MOL0     C 8797   6.413   0.969   1.763 -0.2145 -0.5767 -1.0970
  789MOL0     C 8798   6.443   0.873   1.667  1.0034  0.6451 -0.2889
  789MOL0     C 8799   6.659   0.551   1.418  0.1834  0.5723 -0.1328
  789MOL0     C 8800   6.537   0.479   1.412 -0.5287  0.0714  0.0707
  789MOL0     C 8801   6.513   0.407   1.296 -0.4134  0.0386  0.3718
  789MOL0     C 8802   6.606   0.389   1.196  0.1358  0.5567 -0.0735
  789MOL0     O 8803   6.595   0.312   1.078 -0.6490  0.3893 -0.0296
  789MOL0     C 8804   6.499   0.205   1.078 -0.1085 -0.6829 -0.1670
  789MOL0     C 8805   6.547   0.096   1.181 -1.0808  0.3215  0.5326
  789MOL0     C 8806   6.432  -0.010   1.188 -0.3927  0.7922  0.1468
  789MOL0     C 8807   6.287   0.023   1.193  0.3916  0.2710  0.2140
  789MOL0     C 8808   6.239   0.110   1.298  0.9102  0.3870  0.2699
  789MOL0     C 8809   6.188   0.185   1.386 -0.5734  1.1857 -0.5239
  789MOL0     C 8810   6.728   0.461   1.205 -0.3292  0.0813  0.0359
  789MOL0     C 8811   6.757   0.553   1.311  0.2252 -0.6048 -0.1145
  789MOL0     C 8812   6.877   0.641   1.304  0.2260  0.0653  0.1398
  789MOL0     H 8813   6.690   0.710   1.843  1.4876  0.4135 -0.1457
  789MOL0     H 8814   6.631   0.890   2.010 -0.7098  1.0060  0.7337
  789MOL0     H 8815   6.554   1.007   2.147  3.1163  2.5907  2.1538
  789MOL0     H 8816   6.460   1.156   2.174 -1.3387  0.3823 -0.2929
  789MOL0     H 8817   6.688   1.117   1.978 -3.2887 -0.7092 -1.6029
  789MOL0     H 8818   6.597   1.253   2.000  2.3150 -0.6416 -1.0684
  789MOL0     H 8819   6.716   1.149   2.263 -3.4110  1.1984  1.1252
  789MOL0     H 8820   6.825   1.233   2.154 -0.0910  0.9652 -2.4257
  789MOL0     H 8821   6.628   1.410   2.153  0.0848  1.7346  0.6045
  789MOL0     H 8822   6.581   1.338   2.306 -1.2134  2.5422 -0.8131
  789MOL0     H 8823   6.855   1.443   2.232  1.8839 -0.5511  1.7170
  789MOL0     H 8824   6.808   1.409   2.401 -1.7693  0.5795 -0.2181
  789MOL0     H 8825   6.651   1.632   2.249  0.5548 -2.0789 -0.9702
  789MOL0     H 8826   6.654   1.598   2.421 -2.7708  1.4173 -1.1613
  789MOL0     H 8827   6.900   1.670   2.268 -1.3835  0.1739  0.1326
  789MOL0     H 8828   6.885   1.633   2.451  0.6221  0.1286  0.3935
  789MOL0     H 8829   6.751   1.850   2.289 -2.3696 -1.1780  1.0284
  789MOL0     H 8830   6.725   1.826   2.462  0.0010  0.3088 -0.4250
  789MOL0     H 8831   6.924   1.837   2.644  4.9612 -1.9302  1.3496
  789MOL0     H 8832   7.271   1.991   2.668  0.3801  0.6450 -1.5750
  789MOL0     H 8833   7.132   1.939   2.760  0.2583 -0.5307 -0.6886
  789MOL0     H 8834   7.185   2.218   2.645 -1.6995 -1.1111 -1.5142
  789MOL0     H 8835   7.036   2.177   2.711  0.5554  0.5300 -3.0309
  789MOL0     H 8836   7.155   2.303   2.866 -3.4813 -0.4034 -0.9438
  789MOL0     H 8837   7.128   2.129   2.919 -0.3034  0.2812 -0.9343
  789MOL0     H 8838   7.364   2.086   2.844 -0.4729 -0.3776 -1.2466
  789MOL0     H 8839   7.369   2.267   2.822  3.0672 -0.8524  0.1310
  789MOL0     H 8840   7.488   2.254   3.232 -0.7637  0.4948 -0.9619
  789MOL0     H 8841   7.818   2.349   3.340  0.7523 -0.4902  3.0469
  789MOL0     H 8842   7.791   2.194   3.394  1.7204  1.9308  2.4280
  789MOL0     H 8843   7.655   2.307   3.378  0.7371  0.8511  0.3590
  789MOL0     H 8844   8.142   2.410   3.216 -0.8587 -0.4105 -1.4008
  789MOL0     H 8845   8.380   2.409   3.243 -0.9919 -2.6606  1.3939
  789MOL0     H 8846   8.633   2.215   2.919 -2.1702  1.7079 -2.1929
  789MOL0     H 8847   8.623   2.391   2.903  0.8522  3.0864  2.5750
  789MOL0     H 8848   8.875   2.331   2.952 -0.2689  0.7577  0.4138
  789MOL0     H 8849   8.798   2.410   3.077  0.4627 -0.4531  2.4532
  789MOL0     H 8850   8.759   2.165   3.175  1.4328 -0.7884 -0.8270
  789MOL0     H 8851   8.923   2.214   3.154 -1.0999 -0.5690  2.5825
  789MOL0     H 8852   8.939   2.088   2.937  2.4721 -0.5976  0.8436
  789MOL0     H 8853   8.771   2.040   2.950 -0.2709 -2.6128 -0.3109
  789MOL0     H 8854   9.015   1.962   3.121  0.2335 -1.2616  2.5910
  789MOL0     H 8855   8.855   1.920   3.173  0.5925  1.6798  0.7551
  789MOL0     H 8856   8.989   1.856   2.907 -0.8446  1.5119  0.1991
  789MOL0     H 8857   8.820   1.804   2.949  1.9173 -1.7605 -4.1397
  789MOL0     H 8858   8.941   1.694   3.156 -1.1111  1.6477 -0.4991
  789MOL0     H 8859   9.097   1.741   3.076  0.2109 -1.3265 -0.2556
  789MOL0     H 8860   8.946   1.505   3.067  1.3230 -0.2011  0.5919
  789MOL0     H 8861   9.091   1.546   2.960 -0.3728 -0.6428  0.2496
  789MOL0     H 8862   8.426   2.215   2.858  1.0391  0.8733  0.1469
  789MOL0     H 8863   8.190   2.211   2.835 -2.3574  1.1175  1.0667
  789MOL0     H 8864   7.822   2.216   2.872  1.5209 -1.3751  1.6060
  789MOL0     H 8865   7.580   2.179   2.822 -0.7701  1.6873 -0.2920
  789MOL0     H 8866   6.329   1.035   1.744 -1.2177 -0.8305  1.9318
  789MOL0     H 8867   6.398   0.878   1.569  1.2817  2.3280 -0.3633
  789MOL0     H 8868   6.455   0.487   1.483  1.0048  1.0320  1.7971
  789MOL0     H 8869   6.417   0.355   1.300  0.4472 -1.5703  0.8230
  789MOL0     H 8870   6.413   0.258   1.121  0.1357 -0.1507 -0.3202
  789MOL0     H 8871   6.476   0.168   0.978 -2.9860  2.3582 -0.8116
  789MOL0     H 8872   6.559   0.121   1.287 -0.4314  1.8659  0.1228
  789MOL0     H 8873   6.645   0.058   1.150 -0.0974  1.0881  2.5127
  789MOL0     H 8874   6.443  -0.082   1.107  0.3955  0.8700  0.1777
  789MOL0     H 8875   6.465  -0.068   1.274  3.3556 -1.3157 -2.4163
  789MOL0     H 8876   6.235  -0.072   1.202  0.1711  0.4316  0.6512
  789MOL0     H 8877   6.258   0.075   1.101  2.2706  4.5139  1.7649
  789MOL0     H 8878   6.154   0.252   1.462  0.3828 -2.6630  3.6818
  789MOL0     H 8879   6.796   0.440   1.123 -1.2844  0.9944 -1.0295
  789MOL0     H 8880   6.841   0.737   1.342 -0.7375 -0.0033 -0.5585
  789MOL0     H 8881   6.965   0.603   1.357  0.7219  0.8938 -0.0652
  789MOL0     H 8882   6.904   0.656   1.199  3.2556 -0.7333  0.7190
  790MOL0     O 8883   2.041   7.524   1.646  0.3310 -0.0774 -0.0034
  790MOL0     C 8884   1.919   7.527   1.637 -0.3382 -0.2362  0.1996
  790MOL0     O 8885   1.844   7.642   1.646 -0.0608  0.1658 -1.0236
  790MOL0     C 8886   1.902   7.763   1.644  0.5294 -0.6876 -0.3766
  790MOL0     C 8887   2.023   7.799   1.586  0.1307 -0.2755  0.1494
  790MOL0     C 8888   2.083   7.928   1.603  0.8558  1.1639  0.9886
  790MOL0     C 8889   2.009   8.025   1.667 -0.0022  0.1752 -0.7191
  790MOL0     O 8890   2.060   8.141   1.715 -0.0904 -0.5339  0.1746
  790MOL0     C 8891   2.011   8.259   1.645 -0.6240 -0.3980  0.1315
  790MOL0     C 8892   2.109   8.371   1.657  0.1170  0.3693 -0.1881
  790MOL0     C 8893   2.242   8.336   1.589 -0.3898  1.1407  0.0501
  790MOL0     C 8894   2.327   8.464   1.560  0.2551 -1.2547  0.2283
  790MOL0     C 8895   2.460   8.440   1.481  0.0075 -0.0523  0.1939
  790MOL0     C 8896   2.454   8.394   1.331 -0.1472 -0.2410  0.7245
  790MOL0     C 8897   2.333   8.459   1.248  0.3826  0.0315  1.3893
  790MOL0     C 8898   2.346   8.438   1.092  0.6985  0.2853  0.3532
  790MOL0     N 8899   2.307   8.298   1.057 -0.3132 -0.8525 -0.5157
  790MOL0     C 8900   2.196   8.223   1.084 -0.0764  0.2750 -0.5315
  790MOL0     C 8901   2.228   8.095   1.039  0.0316 -0.2318 -0.6336
  790MOL0     C 8902   2.138   7.974   1.044  0.2825 -0.0949 -0.2915
  790MOL0     C 8903   2.107   7.955   1.200 -0.2867  0.4278 -0.0200
  790MOL0     C 8904   2.010   7.837   1.215 -0.1527  0.4086  0.3660
  790MOL0     C 8905   1.869   7.872   1.181 -0.0278  0.4119 -1.0995
  790MOL0     O 8906   1.812   7.935   1.297 -0.0428 -0.8692  0.4342
  790MOL0     C 8907   1.685   7.972   1.288  0.7826 -0.1206 -0.1158
  790MOL0     C 8908   1.583   7.925   1.211 -0.1428  0.1360  0.5061
  790MOL0     C 8909   1.448   7.954   1.239  0.5382  0.5323  0.0079
  790MOL0     C 8910   1.332   7.890   1.150 -0.7363 -0.0506 -0.7397
  790MOL0     C 8911   1.419   8.046   1.343  0.0737  0.2517  0.8948
  790MOL0     C 8912   1.286   8.092   1.385 -0.6379 -0.3662  0.3988
  790MOL0     O 8913   1.282   8.164   1.505 -0.4010  0.1106 -0.3782
  790MOL0     C 8914   1.183   8.256   1.519  0.0888  0.5120 -1.2487
  790MOL0     C 8915   1.090   8.251   1.631  1.2413  0.1075 -1.3964
  790MOL0     C 8916   0.996   8.352   1.659 -0.2462  0.9988  0.4692
  790MOL0     C 8917   0.980   8.452   1.567 -0.8709 -0.6685  0.1777
  790MOL0     O 8918   0.869   8.533   1.570  0.0913  0.0139 -0.0606
  790MOL0     C 8919   0.740   8.464   1.576  0.1257 -0.5807 -0.3294
  790MOL0     C 8920   0.675   8.408   1.453 -1.2466 -0.2386 -0.2926
  790MOL0     C 8921   0.622   8.508   1.359 -0.1323 -0.4483  0.2095
  790MOL0     C 8922   0.513   8.446   1.271  0.1382  0.9917 -0.0755
  790MOL0     C 8923   0.480   8.519   1.145  0.6110 -0.6527  0.8168
  790MOL0     C 8924   0.383   8.645   1.156 -0.5884  0.4094 -0.4868
  790MOL0     C 8925   0.397   8.738   1.032  0.4797 -0.4900 -0.1274
  790MOL0     C 8926   0.363   8.669   0.898  0.2035 -0.6152 -0.3515
  790MOL0    Cl 8927   0.219   8.570   0.918 -0.0260  0.0325  0.0457
  790MOL0     C 8928   1.069   8.463   1.458  0.5779 -0.5064 -0.7988
  790MOL0     C 8929   1.169   8.367   1.441  0.2079  0.2605  0.0131
  790MOL0     O 8930   1.192   8.057   1.313 -0.1921 -0.3849  0.3419
  790MOL0     C 8931   1.524   8.100   1.415 -0.8084 -0.2860 -0.6331
  790MOL0     C 8932   1.653   8.072   1.373 -0.2904  0.3332  0.2833
  790MOL0     N 8933   2.358   8.100   0.984  0.4427  0.3934  0.1295
  790MOL0     N 8934   2.404   8.218   1.001  0.1402 -0.9416  0.1660
  790MOL0     C 8935   1.878   7.995   1.708 -0.9053  0.3152  0.4603
  790MOL0     C 8936   1.829   7.868   1.704  0.4618 -0.6919 -0.1483
  790MOL0     C 8937   1.853   7.396   1.616 -0.2497  0.2882 -0.2416
  790MOL0     C 8938   1.724   7.399   1.568 -0.0410 -0.7375  0.1747
  790MOL0     C 8939   1.654   7.282   1.540  0.0475  0.1149  0.5671
  790MOL0     C 8940   1.712   7.147   1.547  0.2750 -1.0927  0.2506
  790MOL0     O 8941   1.643   7.049   1.492 -0.1938  0.4296 -0.1726
  790MOL0     C 8942   1.705   6.918   1.503  0.4974  0.0418  0.4543
  790MOL0     C 8943   1.606   6.811   1.450 -0.2550  0.6475 -0.8195
  790MOL0     C 8944   1.675   6.667   1.463 -0.5378  0.0058 -0.4928
  790MOL0     C 8945   1.553   6.577   1.437 -0.0359  0.5853 -0.2841
  790MOL0     C 8946   1.572   6.435   1.474  0.7052  0.1763  0.6966
  790MOL0     C 8947   1.564   6.248   1.515  0.0898 -0.1127 -1.0207
  790MOL0     C 8948   1.853   7.139   1.588  0.4015  0.3607  0.3887
  790MOL0     C 8949   1.914   7.262   1.629  0.7102 -1.0306  0.5609
  790MOL0     C 8950   2.056   7.252   1.673  0.3505 -0.0118  0.4441
  790MOL0     H 8951   2.090   7.729   1.538  3.1145  2.5032 -0.1265
  790MOL0     H 8952   2.183   7.949   1.565 -0.2661  2.0272 -1.7485
  790MOL0     H 8953   1.911   8.286   1.679 -1.6338 -2.7246 -0.8235
  790MOL0     H 8954   1.996   8.242   1.538 -1.0920  0.6673  0.0127
  790MOL0     H 8955   2.065   8.452   1.598  0.2566  1.1732  0.7843
  790MOL0     H 8956   2.124   8.395   1.763 -1.6039 -0.4669  0.2864
  790MOL0     H 8957   2.302   8.271   1.654 -0.1111  2.2179  0.8949
  790MOL0     H 8958   2.221   8.282   1.496 -1.3887 -1.2589  1.5696
  790MOL0     H 8959   2.267   8.538   1.506  1.9849 -1.4180 -2.0463
  790MOL0     H 8960   2.365   8.509   1.653  0.4061  1.7315 -1.1594
  790MOL0     H 8961   2.501   8.353   1.532  0.5632  0.2271  0.2285
  790MOL0     H 8962   2.533   8.521   1.490  0.0575  0.1429 -1.5865
  790MOL0     H 8963   2.546   8.409   1.274  0.3949 -3.4993  0.5606
  790MOL0     H 8964   2.444   8.285   1.326 -2.1975 -0.0430 -1.0591
  790MOL0     H 8965   2.333   8.564   1.280  1.1469  0.3129  0.4989
  790MOL0     H 8966   2.232   8.426   1.273  0.8109 -0.4884  2.5285
  790MOL0     H 8967   2.269   8.504   1.052  0.4031  0.6032  1.4086
  790MOL0     H 8968   2.443   8.466   1.052 -0.2789  1.6485 -1.1664
  790MOL0     H 8969   2.098   8.255   1.118 -0.6400 -0.5714 -1.3316
  790MOL0     H 8970   2.185   7.886   0.999  0.5093  1.0205 -2.4054
  790MOL0     H 8971   2.050   8.003   0.986  0.7121  1.0906 -0.3879
  790MOL0     H 8972   2.200   7.915   1.240  1.8684  2.8985 -2.1769
  790MOL0     H 8973   2.072   8.048   1.247 -2.7213  0.7154 -2.1614
  790MOL0     H 8974   2.030   7.751   1.151 -1.8847  0.6441 -0.5660
  790MOL0     H 8975   2.029   7.807   1.318  0.5746  0.9499  0.3958
  790MOL0     H 8976   1.852   7.939   1.096  2.9926 -1.4492 -3.3627
  790MOL0     H 8977   1.807   7.784   1.165 -0.2018  0.6751 -1.9093
  790MOL0     H 8978   1.594   7.846   1.137 -1.6001  0.6639 -0.3162
  790MOL0     H 8979   1.374   7.810   1.088  0.1938 -0.1086 -0.0681
  790MOL0     H 8980   1.313   7.956   1.065  0.3274 -0.5969 -1.4338
  790MOL0     H 8981   1.240   7.856   1.198 -0.2856 -0.8525 -0.4160
  790MOL0     H 8982   1.099   8.166   1.697  0.2152  0.0068 -1.3644
  790MOL0     H 8983   0.939   8.336   1.750 -0.3648 -1.4902  0.0280
  790MOL0     H 8984   0.744   8.382   1.648 -0.7498 -1.5722 -1.3518
  790MOL0     H 8985   0.673   8.535   1.625  1.7344  0.7695 -0.0027
  790MOL0     H 8986   0.755   8.360   1.398  0.9552  1.6758  1.0433
  790MOL0     H 8987   0.591   8.339   1.469 -1.4329  0.3287  1.3794
  790MOL0     H 8988   0.698   8.554   1.296 -1.1603 -1.4365 -1.8225
  790MOL0     H 8989   0.572   8.590   1.411  1.0554  0.4535 -0.0185
  790MOL0     H 8990   0.427   8.441   1.338  0.3597  4.3100  0.6048
  790MOL0     H 8991   0.547   8.345   1.245  0.0605  0.6829  0.9925
  790MOL0     H 8992   0.575   8.549   1.100  0.1921 -1.8173 -0.9584
  790MOL0     H 8993   0.433   8.449   1.075  0.5348 -1.4358  1.6303
  790MOL0     H 8994   0.430   8.699   1.239  2.3515 -1.4453 -0.7801
  790MOL0     H 8995   0.277   8.629   1.176 -0.3316  1.2180  1.8954
  790MOL0     H 8996   0.502   8.770   1.029  0.8046 -1.5779 -1.3645
  790MOL0     H 8997   0.329   8.821   1.051  1.6039  0.5870 -0.6994
  790MOL0     H 8998   0.447   8.608   0.863  0.5373  1.4826 -3.6858
  790MOL0     H 8999   0.345   8.746   0.822  0.3682 -0.4307 -0.2042
  790MOL0     H 9000   1.059   8.541   1.383  3.2070  0.7970  0.0732
  790MOL0     H 9001   1.230   8.375   1.352  2.6303 -1.1169  1.4379
  790MOL0     H 9002   1.532   8.161   1.504  3.8251 -0.0242 -0.9953
  790MOL0     H 9003   1.749   8.107   1.410  3.1614 -0.5198 -6.3326
  790MOL0     H 9004   1.811   8.073   1.743 -1.9932 -0.5297  0.3140
  790MOL0     H 9005   1.730   7.839   1.740  0.4920  0.5448  1.0060
  790MOL0     H 9006   1.668   7.490   1.550  1.9525  0.4233 -0.4071
  790MOL0     H 9007   1.550   7.287   1.509  0.4431 -1.3327 -1.2341
  790MOL0     H 9008   1.796   6.923   1.443  0.4371 -1.3768  0.2117
  790MOL0     H 9009   1.740   6.904   1.605  1.7401 -0.8819 -0.0809
  790MOL0     H 9010   1.590   6.823   1.342 -3.2581  0.1068 -0.5181
  790MOL0     H 9011   1.508   6.831   1.495 -0.8199 -1.5032 -0.9951
  790MOL0     H 9012   1.762   6.633   1.406  1.0319 -2.6411  3.0661
  790MOL0     H 9013   1.717   6.656   1.564 -1.4520  0.7798 -0.0132
  790MOL0     H 9014   1.522   6.577   1.332 -2.9851 -0.4924  0.4981
  790MOL0     H 9015   1.475   6.597   1.511  0.3796 -1.4301  0.7880
  790MOL0     H 9016   1.557   6.146   1.547  1.9989 -0.5778 -1.8770
  790MOL0     H 9017   1.904   7.044   1.595  0.9018  0.3285 -2.3034
  790MOL0     H 9018   2.081   7.149   1.701 -1.8656 -0.7065  0.0740
  790MOL0     H 9019   2.126   7.285   1.596  0.0074  0.5999  0.3925
  790MOL0     H 9020   2.074   7.307   1.766  1.3581 -0.0581  0.2865
  791MOL0     O 9021   8.251   0.805   6.277 -0.5874 -0.4523 -0.5063
  791MOL0     C 9022   8.219   0.769   6.166  0.7710 -0.9565  1.4006
  791MOL0     O 9023   8.301   0.769   6.060  0.2639  0.1614  0.4908
  791MOL0     C 9024   8.441   0.757   6.071 -0.1219 -0.3765  0.5748
  791MOL0     C 9025   8.508   0.791   5.947  0.4648  0.2390  0.6975
  791MOL0     C 9026   8.644   0.802   5.940 -0.0107 -0.3125 -0.6524
  791MOL0     C 9027   8.722   0.763   6.043  0.2346  0.3106  0.1608
  791MOL0     O 9028   8.861   0.760   6.040 -0.0901  0.2094 -0.3715
  791MOL0     C 9029   8.911   0.700   5.912 -0.0922 -0.5195  0.1517
  791MOL0     C 9030   9.032   0.608   5.954  0.2606 -0.0993 -0.7864
  791MOL0     C 9031   9.106   0.545   5.837 -0.5646  0.5336 -0.0499
  791MOL0     C 9032   9.214   0.443   5.883  0.4332 -0.2223 -0.5753
  791MOL0     C 9033   9.320   0.508   5.974  0.6468 -0.0457 -0.3466
  791MOL0     C 9034   9.430   0.408   6.010  0.0389 -0.0226  0.0560
  791MOL0     C 9035   9.518   0.474   6.119 -0.1217  1.0215 -0.0246
  791MOL0     C 9036   9.636   0.383   6.160 -0.2381  0.1257  0.1869
  791MOL0     N 9037   9.744   0.379   6.065  0.0239  0.6038  0.3931
  791MOL0     C 9038   9.789   0.475   5.991 -1.3641 -0.7505  0.1525
  791MOL0     C 9039   9.877   0.410   5.909 -1.0964 -0.0912 -0.1165
  791MOL0     C 9040   9.964   0.487   5.811 -0.3257  0.6840 -1.4107
  791MOL0     C 9041  10.057   0.402   5.713 -0.0100  0.3232 -1.0336
  791MOL0     C 9042   9.959   0.333   5.614  0.3044  0.1163 -0.3192
  791MOL0     C 9043  10.050   0.259   5.516  0.1105  0.1362 -1.4348
  791MOL0     O 9044  10.110   0.357   5.434  0.4689 -0.3330 -0.4871
  791MOL0     C 9045  10.235   0.336   5.382 -0.4248  0.1049 -0.3379
  791MOL0     C 9046  10.334   0.435   5.404  1.0057  0.6450  0.1314
  791MOL0     C 9047  10.463   0.422   5.350  0.7669  0.0234 -0.4133
  791MOL0     C 9048  10.568   0.524   5.376 -0.3697  0.2655 -0.6518
  791MOL0     C 9049  10.491   0.296   5.287 -0.5163 -0.2581 -0.0381
  791MOL0     C 9050  10.618   0.266   5.224  0.2359  0.5884  0.1660
  791MOL0     O 9051  10.669   0.148   5.257  0.0227 -0.3635  0.2045
  791MOL0     C 9052  10.794   0.109   5.200 -0.0605 -0.2489 -0.7706
  791MOL0     C 9053  10.812  -0.011   5.142 -0.6377 -0.4187  0.4191
  791MOL0     C 9054  10.936  -0.042   5.076 -0.0783  0.5118  0.3780
  791MOL0     C 9055  11.046   0.033   5.080  1.0473 -0.8229  0.0100
  791MOL0     O 9056  11.160   0.014   5.009 -0.2241  0.1179 -0.1374
  791MOL0     C 9057  11.132  -0.017   4.877 -0.1556  0.1268  0.1424
  791MOL0     C 9058  11.206  -0.151   4.857  0.7255 -0.5000  0.5678
  791MOL0     C 9059  11.228  -0.198   4.712  0.4374 -0.8504  0.5048
  791MOL0     C 9060  11.262  -0.337   4.699 -0.1249  0.7986  0.2210
  791MOL0     C 9061  11.314  -0.374   4.563 -0.1436 -0.0307  0.0548
  791MOL0     C 9062  11.337  -0.521   4.552 -0.5098 -0.1427 -1.1431
  791MOL0     C 9063  11.425  -0.568   4.435 -0.4539  0.1208 -0.2704
  791MOL0     C 9064  11.485  -0.714   4.455  0.4517  0.1831  0.0004
  791MOL0    Cl 9065  11.526  -0.744   4.625  0.4217 -0.0626  0.0488
  791MOL0     C 9066  11.031   0.154   5.156  0.5937 -0.3032  0.0580
  791MOL0     C 9067  10.906   0.200   5.212  0.3101 -0.4071 -0.2726
  791MOL0     O 9068  10.669   0.350   5.147 -0.3507 -0.2882  0.4199
  791MOL0     C 9069  10.386   0.206   5.265 -0.3252 -0.3948 -0.4740
  791MOL0     C 9070  10.257   0.228   5.305 -0.0558 -0.4364  0.5119
  791MOL0     N 9071   9.882   0.279   5.932  0.0799  0.5822  0.4217
  791MOL0     N 9072   9.809   0.260   6.041 -0.0279 -0.7932 -0.5772
  791MOL0     C 9073   8.660   0.714   6.162  0.1645 -0.6423  0.7840
  791MOL0     C 9074   8.518   0.705   6.172 -0.1441 -0.1798 -0.5865
  791MOL0     C 9075   8.073   0.777   6.134 -0.8197  0.4054 -0.2169
  791MOL0     C 9076   8.042   0.811   6.001 -0.1252  0.2301 -0.4384
  791MOL0     C 9077   7.915   0.792   5.945  0.8019  0.3310  0.1082
  791MOL0     C 9078   7.810   0.750   6.036 -0.1123 -1.0356  0.3470
  791MOL0     O 9079   7.685   0.763   5.991  0.7299 -0.3585 -0.5687
  791MOL0     C 9080   7.577   0.720   6.079  0.1064 -0.0655 -0.9096
  791MOL0     C 9081   7.448   0.724   6.010  0.2602 -0.6994  0.3623
  791MOL0     C 9082   7.335   0.642   6.079  0.3367  0.0034  0.1290
  791MOL0     C 9083   7.228   0.601   5.985 -0.2278 -0.1510  0.3866
  791MOL0     C 9084   7.131   0.537   6.070  0.0922 -0.0364  0.2734
  791MOL0     C 9085   7.052   0.477   6.143 -0.1991  0.1475  0.2135
  791MOL0     C 9086   7.845   0.719   6.165 -0.1490  0.2406 -0.5542
  791MOL0     C 9087   7.971   0.728   6.219 -0.6578  0.4953 -0.2850
  791MOL0     C 9088   7.991   0.677   6.355 -0.1809  0.1153  0.1099
  791MOL0     H 9089   8.445   0.819   5.863  1.3360 -0.8777 -0.3676
  791MOL0     H 9090   8.672   0.853   5.849 -0.3270 -0.3532 -0.7756
  791MOL0     H 9091   8.940   0.791   5.858  0.9578  1.4236  3.6788
  791MOL0     H 9092   8.828   0.652   5.858 -1.3394  1.0709  0.5578
  791MOL0     H 9093   9.102   0.679   6.001  1.9844 -0.0364 -3.2315
  791MOL0     H 9094   8.995   0.536   6.026  0.3401  0.5766 -0.0558
  791MOL0     H 9095   9.040   0.489   5.771  2.6527 -2.3523 -1.1562
  791MOL0     H 9096   9.155   0.621   5.776  3.0378 -2.0187 -0.6817
  791MOL0     H 9097   9.165   0.361   5.935  1.9815 -1.4787 -0.9941
  791MOL0     H 9098   9.256   0.392   5.796  2.7739  2.0077 -0.9087
  791MOL0     H 9099   9.280   0.542   6.070 -1.4366 -1.2472 -0.7229
  791MOL0     H 9100   9.349   0.598   5.920  0.2924  0.9367  1.0539
  791MOL0     H 9101   9.385   0.317   6.050  2.3777 -0.6675  1.4272
  791MOL0     H 9102   9.493   0.382   5.924  3.0132  2.4247  1.2781
  791MOL0     H 9103   9.457   0.478   6.209 -1.1329 -2.4979 -0.3903
  791MOL0     H 9104   9.553   0.574   6.093 -2.6523  2.3207  1.2713
  791MOL0     H 9105   9.679   0.413   6.257  2.0148 -1.3126 -0.2967
  791MOL0     H 9106   9.594   0.284   6.177  1.2822 -0.1418  2.9726
  791MOL0     H 9107   9.757   0.579   5.994 -0.3153 -0.4020 -0.1129
  791MOL0     H 9108  10.026   0.554   5.872  1.1735 -0.1633 -1.9529
  791MOL0     H 9109   9.900   0.548   5.747 -2.2200  1.8648  1.4195
  791MOL0     H 9110  10.133   0.469   5.672  2.8406 -1.7401  0.5083
  791MOL0     H 9111  10.124   0.347   5.780 -1.2250 -0.0254 -0.0503
  791MOL0     H 9112   9.899   0.265   5.674 -0.2819  0.2634 -0.7303
  791MOL0     H 9113   9.898   0.401   5.554  0.4171  1.3120  0.8732
  791MOL0     H 9114  10.124   0.192   5.560 -3.2054 -4.3853 -2.0097
  791MOL0     H 9115   9.984   0.194   5.458 -1.5116 -0.1148  0.5689
  791MOL0     H 9116  10.313   0.526   5.459  2.9459  2.4661 -1.9479
  791MOL0     H 9117  10.667   0.478   5.371 -0.7913 -0.4961 -3.2817
  791MOL0     H 9118  10.548   0.563   5.476  1.6016 -0.4664  0.0710
  791MOL0     H 9119  10.567   0.606   5.304  1.2766  0.2890 -0.6749
  791MOL0     H 9120  10.738  -0.091   5.135  1.9749 -3.2458  2.4958
  791MOL0     H 9121  10.933  -0.129   5.011 -1.3493 -0.3457  1.5293
  791MOL0     H 9122  11.028  -0.033   4.846  0.3086 -2.2061 -0.3195
  791MOL0     H 9123  11.163   0.066   4.812 -1.5227  0.7636  0.2509
  791MOL0     H 9124  11.308  -0.153   4.897 -0.0682 -0.7308  2.7057
  791MOL0     H 9125  11.145  -0.227   4.908 -0.0910 -0.1541  0.1256
  791MOL0     H 9126  11.296  -0.140   4.650 -0.7698 -1.3867 -1.4240
  791MOL0     H 9127  11.134  -0.194   4.656  0.1688  0.2087  0.9942
  791MOL0     H 9128  11.166  -0.383   4.722 -0.6419  2.2932  1.1594
  791MOL0     H 9129  11.340  -0.368   4.769  3.0367 -1.6466 -3.8912
  791MOL0     H 9130  11.240  -0.343   4.489 -0.2465  2.5621  1.1421
  791MOL0     H 9131  11.399  -0.306   4.553 -0.0432 -0.2283 -0.4853
  791MOL0     H 9132  11.237  -0.557   4.529 -0.9113  0.8801 -1.0351
  791MOL0     H 9133  11.374  -0.556   4.649 -0.8252 -2.2327 -1.7120
  791MOL0     H 9134  11.512  -0.502   4.442 -0.5971  0.1236  2.3679
  791MOL0     H 9135  11.368  -0.561   4.342 -0.1719 -0.5819 -0.5003
  791MOL0     H 9136  11.582  -0.716   4.405  0.6999  0.0591  0.4832
  791MOL0     H 9137  11.420  -0.797   4.427  0.9892 -0.4383  0.5809
  791MOL0     H 9138  11.110   0.228   5.156  1.7920 -1.5235  0.8976
  791MOL0     H 9139  10.900   0.296   5.263 -0.1204 -0.4664 -0.2071
  791MOL0     H 9140  10.398   0.127   5.191  0.3038  1.2947 -2.2415
  791MOL0     H 9141  10.175   0.165   5.272 -2.4044  3.7930 -2.7656
  791MOL0     H 9142   8.704   0.685   6.257 -0.4121 -1.1795  0.9017
  791MOL0     H 9143   8.457   0.670   6.254  0.3345  1.9526  0.7658
  791MOL0     H 9144   8.109   0.855   5.928 -0.9073 -0.1125 -1.3916
  791MOL0     H 9145   7.884   0.827   5.847 -2.1046 -2.2551 -0.0840
  791MOL0     H 9146   7.605   0.615   6.093 -0.4418 -1.2650 -6.4278
  791MOL0     H 9147   7.577   0.787   6.165  2.1665  0.8345 -1.5534
  791MOL0     H 9148   7.467   0.692   5.907  0.3354  3.9060 -1.3012
  791MOL0     H 9149   7.414   0.828   6.007  0.4186 -0.4673  3.6303
  791MOL0     H 9150   7.380   0.557   6.131  2.2256 -0.2406 -1.7633
  791MOL0     H 9151   7.291   0.711   6.153  2.8134  1.8202  0.0178
  791MOL0     H 9152   7.253   0.525   5.911 -1.4687 -0.0685 -0.1319
  791MOL0     H 9153   7.183   0.684   5.929  3.5136  1.1639 -1.0528
  791MOL0     H 9154   6.972   0.433   6.199  2.7052 -2.5273  2.5970
  791MOL0     H 9155   7.765   0.699   6.236  0.1838  1.4790  0.1847
  791MOL0     H 9156   7.934   0.585   6.374  3.0723 -1.4027  4.1397
  791MOL0     H 9157   8.096   0.648   6.365 -0.4539 -2.1292 -2.5537
  791MOL0     H 9158   7.956   0.749   6.430 -0.9248 -0.6201  0.4964
  792MOL0     O 9159   5.755   7.558  10.676 -0.2537  0.4620 -0.8660
  792MOL0     C 9160   5.692   7.581  10.780 -0.8110  0.8712 -0.5005
  792MOL0     O 9161   5.742   7.600  10.905 -0.6173 -0.4458  0.0521
  792MOL0     C 9162   5.873   7.611  10.932 -0.8382  0.2633  0.3957
  792MOL0     C 9163   5.976   7.581  10.840 -0.2880  0.3172 -0.7944
  792MOL0     C 9164   6.108   7.584  10.887  0.4532  0.3646 -0.6500
  792MOL0     C 9165   6.141   7.623  11.012 -0.4361 -0.4715  0.1668
  792MOL0     O 9166   6.281   7.617  11.051  0.3333  0.1306  0.9242
  792MOL0     C 9167   6.375   7.524  10.998 -0.1381 -0.4612  0.8482
  792MOL0     C 9168   6.493   7.519  11.094 -0.4307  0.1228 -0.4971
  792MOL0     C 9169   6.590   7.633  11.070 -0.2823  0.2256  0.0285
  792MOL0     C 9170   6.710   7.626  11.156  0.5025  0.4503 -0.9506
  792MOL0     C 9171   6.793   7.760  11.153  0.2326  0.0474  0.0737
  792MOL0     C 9172   6.894   7.740  11.267  0.2030  0.5654 -0.9006
  792MOL0     C 9173   6.937   7.883  11.304  0.2012  0.4787  0.2305
  792MOL0     C 9174   7.008   7.888  11.440 -0.5260 -0.6474 -0.4776
  792MOL0     N 9175   7.066   8.021  11.466 -1.0709  0.4829  0.8691
  792MOL0     C 9176   7.191   8.050  11.437  0.2067 -0.6920  0.8016
  792MOL0     C 9177   7.196   8.186  11.434  0.5589  0.4869 -0.7877
  792MOL0     C 9178   7.306   8.281  11.409 -0.3850  0.0103  0.0138
  792MOL0     C 9179   7.424   8.273  11.505  0.2694  0.0621  0.6639
  792MOL0     C 9180   7.405   8.359  11.630 -0.9920 -0.1374  0.1446
  792MOL0     C 9181   7.526   8.358  11.730  0.8117 -0.2779 -0.2224
  792MOL0     O 9182   7.487   8.427  11.850 -0.6840  0.1576  0.6958
  792MOL0     C 9183   7.566   8.417  11.962  0.0274 -0.0871 -0.2837
  792MOL0     C 9184   7.691   8.347  11.969  0.5824  0.7499 -0.3324
  792MOL0     C 9185   7.760   8.352  12.095  0.3894 -0.2750  0.4280
  792MOL0     C 9186   7.895   8.278  12.109 -0.1323  0.3430 -0.2719
  792MOL0     C 9187   7.706   8.436  12.207 -0.7734 -0.0910  0.0592
  792MOL0     C 9188   7.785   8.440  12.344 -0.2755 -0.6731  0.0342
  792MOL0     O 9189   7.756   8.550  12.426 -0.3762 -0.0081 -0.2977
  792MOL0     C 9190   7.869   8.579  12.509 -0.4292 -0.1397 -0.9042
  792MOL0     C 9191   7.996   8.615  12.467  0.2012  0.1372  0.5237
  792MOL0     C 9192   8.095   8.655  12.553 -0.0356  1.4222  0.1221
  792MOL0     C 9193   8.074   8.653  12.692 -0.8423 -0.0255  0.0389
  792MOL0     O 9194   8.175   8.691  12.773 -0.4510 -0.7792 -0.1911
  792MOL0     C 9195   8.171   8.636  12.908  0.0250 -0.0683 -0.0546
  792MOL0     C 9196   8.292   8.671  12.989 -0.4940  0.8515 -0.1136
  792MOL0     C 9197   8.369   8.561  13.059  0.6781 -0.6763 -0.3450
  792MOL0     C 9198   8.493   8.610  13.131  0.1151 -0.5362  0.5604
  792MOL0     C 9199   8.574   8.494  13.182  0.4707  0.6252 -0.0386
  792MOL0     C 9200   8.716   8.535  13.222 -0.5538  0.0723 -0.2954
  792MOL0     C 9201   8.801   8.422  13.280  0.0619 -0.2438  0.3121
  792MOL0     C 9202   8.943   8.468  13.269 -0.9804  0.7089 -1.0310
  792MOL0    Cl 9203   9.030   8.394  13.404  0.3490 -0.3028  0.2098
  792MOL0     C 9204   7.938   8.622  12.742 -0.2643  0.4082  0.1345
  792MOL0     C 9205   7.836   8.585  12.648 -0.2810 -0.3076  0.0153
  792MOL0     O 9206   7.861   8.347  12.371  0.1687 -0.7514  0.1569
  792MOL0     C 9207   7.584   8.496  12.194  0.3106  0.3781  0.2566
  792MOL0     C 9208   7.520   8.500  12.068  0.9247 -0.8815  0.2695
  792MOL0     N 9209   7.070   8.227  11.469  0.0071  0.1000  0.1932
  792MOL0     N 9210   6.995   8.133  11.499  0.5016  0.6917  0.0651
  792MOL0     C 9211   6.040   7.673  11.098 -0.3243  0.6974  0.7860
  792MOL0     C 9212   5.904   7.664  11.060 -1.0622  0.0856 -0.1891
  792MOL0     C 9213   5.545   7.576  10.780 -0.8539 -0.0843 -0.2372
  792MOL0     C 9214   5.476   7.620  10.884 -0.4603  0.1180  0.3656
  792MOL0     C 9215   5.328   7.603  10.897 -0.1573  0.0373 -0.4781
  792MOL0     C 9216   5.255   7.550  10.796  0.1554  0.8886  0.1812
  792MOL0     O 9217   5.119   7.544  10.812 -0.7092  0.0761 -0.3733
  792MOL0     C 9218   5.034   7.577  10.705 -0.7058  0.1871  0.3068
  792MOL0     C 9219   4.892   7.582  10.739 -0.5872 -0.5601  0.7894
  792MOL0     C 9220   4.840   7.444  10.774  0.2388  0.1528 -1.0800
  792MOL0     C 9221   4.694   7.450  10.829  0.4899  0.4304  0.2550
  792MOL0     C 9222   4.665   7.341  10.918  0.4130  0.3294 -0.9649
  792MOL0     C 9223   4.646   7.261  11.002 -0.7196 -0.3112 -0.0049
  792MOL0     C 9224   5.329   7.508  10.687 -0.1755 -0.1971 -0.7007
  792MOL0     C 9225   5.472   7.518  10.681  0.6511 -0.7858  0.8712
  792MOL0     C 9226   5.532   7.466  10.552 -0.6667 -0.4762 -0.2482
  792MOL0     H 9227   5.967   7.560  10.734  1.8898 -0.8224 -0.8241
  792MOL0     H 9228   6.182   7.569  10.809 -1.2547  0.2935 -2.2994
  792MOL0     H 9229   6.404   7.551  10.897 -1.6813  0.0862  0.5286
  792MOL0     H 9230   6.330   7.424  10.989  1.3860 -1.1902  0.9817
  792MOL0     H 9231   6.456   7.516  11.197  0.6584 -2.1495 -0.1035
  792MOL0     H 9232   6.557   7.430  11.088  0.5826  0.3602  3.5169
  792MOL0     H 9233   6.614   7.651  10.965  0.3871 -0.2078  0.1029
  792MOL0     H 9234   6.534   7.726  11.084  2.2605  1.5040  2.8177
  792MOL0     H 9235   6.674   7.615  11.258  0.1601  1.6793 -0.9144
  792MOL0     H 9236   6.766   7.539  11.122  2.6250  2.0298 -1.7445
  792MOL0     H 9237   6.723   7.843  11.167 -1.2991 -0.9894 -1.0798
  792MOL0     H 9238   6.843   7.756  11.056  1.1818  0.6251  0.5291
  792MOL0     H 9239   6.837   7.704  11.353  0.1310  0.2833 -1.0653
  792MOL0     H 9240   6.969   7.668  11.234 -0.0076 -1.6031  2.7360
  792MOL0     H 9241   6.850   7.948  11.303 -0.1273  0.0396  0.1251
  792MOL0     H 9242   6.999   7.922  11.223 -1.4261  0.7520 -0.9308
  792MOL0     H 9243   6.940   7.852  11.518  1.6719  0.4202  2.1075
  792MOL0     H 9244   7.089   7.815  11.436  0.1588  0.1366 -3.4064
  792MOL0     H 9245   7.263   7.970  11.421  3.6205  1.5245  3.4753
  792MOL0     H 9246   7.277   8.386  11.423 -0.0977 -0.1307  2.0172
  792MOL0     H 9247   7.341   8.270  11.306 -0.9101  1.2556 -0.3143
  792MOL0     H 9248   7.447   8.171  11.535 -0.5105 -0.3573 -0.1308
  792MOL0     H 9249   7.509   8.315  11.450 -1.3218 -0.6866 -2.5820
  792MOL0     H 9250   7.399   8.464  11.599  2.5477  0.0989 -0.1989
  792MOL0     H 9251   7.317   8.320  11.683 -1.0024  0.0283  0.2516
  792MOL0     H 9252   7.559   8.255  11.748  0.2103 -0.5250 -0.5206
  792MOL0     H 9253   7.612   8.405  11.682  2.0051  0.1011  2.1358
  792MOL0     H 9254   7.728   8.291  11.884 -0.9370  1.0827 -1.2458
  792MOL0     H 9255   7.964   8.352  12.151  0.3474  0.0787 -0.5790
  792MOL0     H 9256   7.937   8.248  12.013  4.2587 -2.8010  2.2439
  792MOL0     H 9257   7.882   8.187  12.169 -0.8989 -0.4095 -1.5150
  792MOL0     H 9258   8.007   8.618  12.359 -2.4314  0.6684  0.2121
  792MOL0     H 9259   8.198   8.674  12.522 -0.2117  2.0157 -0.1060
  792MOL0     H 9260   8.083   8.660  12.968 -0.6752  0.5006 -1.2553
  792MOL0     H 9261   8.168   8.527  12.897 -0.9760  0.0322 -0.9453
  792MOL0     H 9262   8.358   8.729  12.924 -0.2718 -0.2006 -0.8582
  792MOL0     H 9263   8.259   8.738  13.069 -0.3494 -0.5904  1.2068
  792MOL0     H 9264   8.395   8.492  12.979  0.9159  1.1165 -1.8837
  792MOL0     H 9265   8.300   8.508  13.126 -1.3501  0.8258 -1.1419
  792MOL0     H 9266   8.445   8.669  13.209 -1.3499 -2.1955  0.9674
  792MOL0     H 9267   8.555   8.666  13.060  1.3842 -1.0098  1.2650
  792MOL0     H 9268   8.522   8.444  13.264 -4.1713 -1.4294 -3.7126
  792MOL0     H 9269   8.593   8.419  13.105 -0.8541 -0.1583  0.3650
  792MOL0     H 9270   8.714   8.619  13.292  0.6095 -1.5211  1.7552
  792MOL0     H 9271   8.763   8.564  13.128 -1.4243 -1.1841 -1.1414
  792MOL0     H 9272   8.786   8.332  13.220 -1.1018  0.6672 -0.8232
  792MOL0     H 9273   8.762   8.412  13.381  0.8858  2.5873  0.9967
  792MOL0     H 9274   8.950   8.576  13.283 -0.1327  0.4621  0.7465
  792MOL0     H 9275   8.995   8.451  13.175 -0.3939  0.4832 -0.6715
  792MOL0     H 9276   7.909   8.633  12.846 -2.1362  0.7429 -0.3767
  792MOL0     H 9277   7.740   8.546  12.679 -0.7591  0.7112 -0.1658
  792MOL0     H 9278   7.544   8.549  12.280  1.1284 -0.5296  1.2036
  792MOL0     H 9279   7.435   8.565  12.050  1.8994  0.1892 -0.5819
  792MOL0     H 9280   6.070   7.715  11.193  0.5211  1.3006  0.2564
  792MOL0     H 9281   5.822   7.691  11.125 -2.0236 -0.1048 -1.2748
  792MOL0     H 9282   5.522   7.673  10.967  0.0420 -2.9238  2.2346
  792MOL0     H 9283   5.291   7.642  10.991 -3.2637 -0.0651 -1.5661
  792MOL0     H 9284   5.063   7.676  10.667  0.8634 -1.4786 -3.2529
  792MOL0     H 9285   5.055   7.510  10.621 -2.4084 -2.2073  1.6657
  792MOL0     H 9286   4.838   7.607  10.647  3.1233 -3.2425 -2.4267
  792MOL0     H 9287   4.876   7.654  10.820 -0.8497  0.3410 -0.0363
  792MOL0     H 9288   4.840   7.378  10.686 -1.1798  1.4778 -2.1096
  792MOL0     H 9289   4.913   7.399  10.842 -2.1525 -2.8187 -0.2761
  792MOL0     H 9290   4.620   7.441  10.748 -1.5216  2.4559  1.7501
  792MOL0     H 9291   4.673   7.541  10.886  2.6710 -0.6209  2.9265
  792MOL0     H 9292   4.624   7.199  11.087  3.0282 -3.0579 -0.7344
  792MOL0     H 9293   5.283   7.438  10.618  0.0200 -1.1170  0.0851
  792MOL0     H 9294   5.573   7.548  10.492  0.2833 -0.4226  0.4511
  792MOL0     H 9295   5.611   7.395  10.581  2.0304  1.6552 -1.8889
  792MOL0     H 9296   5.465   7.424  10.477  0.2340  2.0193 -2.6310
  793MOL0     O 9297   6.043  11.461   0.579 -0.2496  0.1026 -0.1402
  793MOL0     C 9298   5.938  11.529   0.573  0.5652  0.0514  0.2756
  793MOL0     O 9299   5.920  11.647   0.507  0.3494  0.1033  1.0595
  793MOL0     C 9300   6.012  11.686   0.413  0.0812  0.7689  0.2313
  793MOL0     C 9301   5.976  11.688   0.274 -0.5841  0.0895  0.6158
  793MOL0     C 9302   6.068  11.738   0.178 -0.6782 -0.5725 -0.5376
  793MOL0     C 9303   6.193  11.781   0.219  0.1628  0.8993  0.0746
  793MOL0     O 9304   6.292  11.800   0.123  0.5292  0.6208  0.7447
  793MOL0     C 9305   6.254  11.850  -0.008  0.2757  0.1449 -1.5265
  793MOL0     C 9306   6.366  11.928  -0.086  0.3243  0.1944  0.2273
  793MOL0     C 9307   6.491  11.832  -0.089  0.2205 -0.9422  0.0590
  793MOL0     C 9308   6.604  11.897  -0.172 -0.5601  0.0329  0.2073
  793MOL0     C 9309   6.739  11.813  -0.152  0.0008 -0.5809  0.5793
  793MOL0     C 9310   6.852  11.864  -0.240 -0.4911 -0.2388  0.5757
  793MOL0     C 9311   6.967  11.767  -0.235 -0.6037  0.2097 -0.4291
  793MOL0     C 9312   7.061  11.815  -0.355 -0.2976 -0.2930  0.3407
  793MOL0     N 9313   7.184  11.743  -0.382 -0.2189  0.4431 -0.2584
  793MOL0     C 9314   7.248  11.717  -0.506 -0.1206  0.0029 -0.0281
  793MOL0     C 9315   7.350  11.635  -0.472  0.4879 -0.1285 -0.2435
  793MOL0     C 9316   7.456  11.583  -0.567 -0.0566 -0.1651 -0.7874
  793MOL0     C 9317   7.573  11.682  -0.579  0.4626 -0.3778  0.5194
  793MOL0     C 9318   7.648  11.701  -0.451 -0.2856 -0.3960  0.0439
  793MOL0     C 9319   7.784  11.757  -0.475 -0.7326  0.4644 -0.1314
  793MOL0     O 9320   7.866  11.649  -0.517  0.8113 -0.5847  0.4965
  793MOL0     C 9321   8.004  11.661  -0.514 -0.2206  0.1038 -0.0191
  793MOL0     C 9322   8.078  11.556  -0.554  0.6181  0.3024 -0.7400
  793MOL0     C 9323   8.221  11.549  -0.553 -1.1171 -0.2844 -0.1191
  793MOL0     C 9324   8.288  11.419  -0.583  0.2222 -0.7370 -0.2586
  793MOL0     C 9325   8.299  11.674  -0.521  0.0666  0.5393 -0.2808
  793MOL0     C 9326   8.453  11.690  -0.521  0.5870  0.0679  0.2578
  793MOL0     O 9327   8.524  11.568  -0.519 -0.6678  0.3190 -0.1473
  793MOL0     C 9328   8.661  11.555  -0.539  0.4034 -0.7825  0.4541
  793MOL0     C 9329   8.713  11.433  -0.588 -0.3724 -1.2268 -0.1755
  793MOL0     C 9330   8.843  11.415  -0.620 -0.1802  1.0747 -1.2077
  793MOL0     C 9331   8.939  11.514  -0.583  0.6673 -0.9853 -1.1069
  793MOL0     O 9332   9.069  11.490  -0.612  0.1334 -0.1875  0.0961
  793MOL0     C 9333   9.122  11.360  -0.593 -0.1064 -0.4491 -0.1615
  793MOL0     C 9334   9.273  11.387  -0.552 -0.4085  0.1547  0.4205
  793MOL0     C 9335   9.352  11.474  -0.647 -0.6856  0.0247 -0.0480
  793MOL0     C 9336   9.380  11.422  -0.782 -0.8498  0.3377 -0.3401
  793MOL0     C 9337   9.451  11.511  -0.886 -0.1967 -0.0693 -0.2185
  793MOL0     C 9338   9.433  11.456  -1.030 -0.4444  0.2031 -0.2764
  793MOL0     C 9339   9.554  11.512  -1.107 -0.1010  0.7017 -0.1848
  793MOL0     C 9340   9.556  11.454  -1.245 -0.6290  0.6085 -0.4223
  793MOL0    Cl 9341   9.672  11.542  -1.346 -0.0886  0.4419  0.1341
  793MOL0     C 9342   8.891  11.628  -0.518 -0.4375 -0.6223  0.8624
  793MOL0     C 9343   8.753  11.656  -0.508  1.1262 -0.0879  0.1876
  793MOL0     O 9344   8.502  11.806  -0.528  0.0604  0.0594  0.2095
  793MOL0     C 9345   8.216  11.782  -0.491 -0.4084 -0.4807 -0.4459
  793MOL0     C 9346   8.073  11.780  -0.485  0.2743  0.0349  1.0433
  793MOL0     N 9347   7.370  11.641  -0.333 -0.0160  0.0931  0.1312
  793MOL0     N 9348   7.263  11.692  -0.276  0.5880 -0.4944 -0.3169
  793MOL0     C 9349   6.226  11.771   0.349 -0.6070 -0.5739  0.9597
  793MOL0     C 9350   6.136  11.731   0.445 -0.7731 -0.0464 -0.6980
  793MOL0     C 9351   5.817  11.477   0.643 -0.4583 -1.0798 -0.3405
  793MOL0     C 9352   5.711  11.564   0.671 -0.3792 -0.8002  0.5052
  793MOL0     C 9353   5.588  11.524   0.718 -0.0323  0.3956 -0.6511
  793MOL0     C 9354   5.562  11.387   0.755  0.2786 -0.2386 -0.5306
  793MOL0     O 9355   5.434  11.353   0.806  0.5896 -0.2441  0.3818
  793MOL0     C 9356   5.392  11.238   0.858 -0.2677 -0.0807 -1.8808
  793MOL0     C 9357   5.300  11.155   0.764 -0.4405  0.7550 -1.1155
  793MOL0     C 9358   5.158  11.203   0.721 -0.6254  0.7762  0.0765
  793MOL0     C 9359   5.152  11.352   0.680  0.2889  0.2609 -0.3765
  793MOL0     C 9360   5.014  11.397   0.663 -0.7514  0.2805  1.0464
  793MOL0     C 9361   4.893  11.418   0.631 -0.8576 -0.5349  0.0225
  793MOL0     C 9362   5.667  11.297   0.725  0.6920 -0.3949 -0.2164
  793MOL0     C 9363   5.797  11.341   0.684 -0.4584 -0.1574 -0.7929
  793MOL0     C 9364   5.901  11.237   0.659  0.0119  0.5319  0.0319
  793MOL0     H 9365   5.875  11.659   0.248 -0.0291 -1.5462  0.2255
  793MOL0     H 9366   6.038  11.758   0.075  1.3239  0.2073 -1.0035
  793MOL0     H 9367   6.172  11.921   0.002  1.3447  1.4220 -1.5415
  793MOL0     H 9368   6.211  11.773  -0.073  0.0515 -0.7599 -0.3551
  793MOL0     H 9369   6.337  11.954  -0.189 -4.6536 -0.8623  1.0881
  793MOL0     H 9370   6.385  12.020  -0.031 -0.3322  1.1303 -1.0647
  793MOL0     H 9371   6.528  11.817   0.013  1.1257  0.5465 -0.0237
  793MOL0     H 9372   6.465  11.736  -0.135  1.6304 -1.6213  0.6161
  793MOL0     H 9373   6.561  11.898  -0.273  0.3861 -0.6248 -0.2170
  793MOL0     H 9374   6.610  12.004  -0.148 -1.6582 -0.0946  1.1635
  793MOL0     H 9375   6.712  11.708  -0.169  3.0197 -1.4325  0.4792
  793MOL0     H 9376   6.785  11.814  -0.053 -0.4888 -0.0729  0.8020
  793MOL0     H 9377   6.801  11.862  -0.337  0.0074 -3.2115  0.3027
  793MOL0     H 9378   6.882  11.967  -0.220  2.2404 -0.5462 -1.3726
  793MOL0     H 9379   6.930  11.665  -0.251 -1.5706 -0.4453  4.3802
  793MOL0     H 9380   7.018  11.784  -0.140 -1.0214  2.8059 -0.5986
  793MOL0     H 9381   7.013  11.806  -0.453  1.5978  0.4938 -0.6975
  793MOL0     H 9382   7.085  11.920  -0.339  0.1488  0.1764 -2.8092
  793MOL0     H 9383   7.204  11.766  -0.593 -1.1441 -0.5596  0.1635
  793MOL0     H 9384   7.418  11.550  -0.664  0.9187 -0.2979 -1.1300
  793MOL0     H 9385   7.493  11.488  -0.529  1.1243  0.1304 -1.1584
  793MOL0     H 9386   7.639  11.634  -0.652 -0.1843 -0.9128  0.2750
  793MOL0     H 9387   7.536  11.774  -0.625 -1.1718  0.5536  3.4668
  793MOL0     H 9388   7.594  11.778  -0.393 -1.6327  0.3522 -2.0865
  793MOL0     H 9389   7.660  11.612  -0.389 -0.1088 -0.5417 -0.2018
  793MOL0     H 9390   7.781  11.834  -0.553 -1.1275  0.3273 -0.2563
  793MOL0     H 9391   7.822  11.810  -0.388  1.1868 -2.9571  1.3107
  793MOL0     H 9392   8.018  11.471  -0.581 -0.6884  1.5396 -1.9088
  793MOL0     H 9393   8.326  11.359  -0.500  1.0551  0.9883  0.6603
  793MOL0     H 9394   8.365  11.443  -0.656 -2.7804  4.0742 -2.3715
  793MOL0     H 9395   8.217  11.344  -0.621  0.7206 -2.5751  2.1766
  793MOL0     H 9396   8.647  11.347  -0.596  0.4524 -1.8363 -0.5958
  793MOL0     H 9397   8.861  11.317  -0.663  1.8870  0.1796  1.4004
  793MOL0     H 9398   9.078  11.307  -0.508  0.1586 -1.8661 -0.8670
  793MOL0     H 9399   9.124  11.297  -0.683  0.9428  0.9576 -1.1550
  793MOL0     H 9400   9.262  11.442  -0.459 -1.8110  2.2489 -0.8956
  793MOL0     H 9401   9.317  11.287  -0.553  0.2437  0.4109 -1.7820
  793MOL0     H 9402   9.437  11.510  -0.589 -0.1014  1.1096 -1.5171
  793MOL0     H 9403   9.294  11.566  -0.662 -2.6080 -0.8001  1.7367
  793MOL0     H 9404   9.280  11.407  -0.823 -0.2212 -0.2492 -1.7029
  793MOL0     H 9405   9.431  11.327  -0.769 -0.0426  0.8988  0.7509
  793MOL0     H 9406   9.417  11.614  -0.878 -0.1461 -0.1309  1.0526
  793MOL0     H 9407   9.559  11.509  -0.864 -0.1126  1.1014 -0.4886
  793MOL0     H 9408   9.338  11.487  -1.075 -0.9282 -1.6550 -0.6144
  793MOL0     H 9409   9.429  11.347  -1.024 -1.0090  0.3139  2.6604
  793MOL0     H 9410   9.642  11.503  -1.043 -2.2787 -1.2004  2.8334
  793MOL0     H 9411   9.532  11.618  -1.127 -1.6063  0.1536 -1.6320
  793MOL0     H 9412   9.453  11.460  -1.280 -1.3897 -2.8167  0.8288
  793MOL0     H 9413   9.584  11.348  -1.238  0.4290  0.9773  1.6596
  793MOL0     H 9414   8.964  11.701  -0.486 -0.1371  0.0517 -1.2213
  793MOL0     H 9415   8.722  11.745  -0.456 -2.2335 -0.9726 -0.0665
  793MOL0     H 9416   8.274  11.867  -0.458  0.0830 -1.4604  1.3404
  793MOL0     H 9417   8.020  11.870  -0.456  0.5753 -0.0752  1.9800
  793MOL0     H 9418   6.327  11.790   0.382  1.8227 -3.0704 -3.9268
  793MOL0     H 9419   6.183  11.738   0.543  0.2079 -0.4671 -1.1172
  793MOL0     H 9420   5.714  11.671   0.651  0.9080 -0.8177  0.5063
  793MOL0     H 9421   5.521  11.606   0.742  3.5568  3.0745  1.3022
  793MOL0     H 9422   5.468  11.165   0.887 -2.0374 -1.6070 -0.8952
  793MOL0     H 9423   5.335  11.264   0.948 -0.0527 -2.9302 -0.8298
  793MOL0     H 9424   5.280  11.055   0.804  0.4830 -0.0164 -2.4928
  793MOL0     H 9425   5.367  11.138   0.679  0.3370  3.1608 -1.0570
  793MOL0     H 9426   5.113  11.135   0.648  0.8040 -1.7490  1.4017
  793MOL0     H 9427   5.096  11.202   0.811 -1.8997 -2.1120 -0.7198
  793MOL0     H 9428   5.198  11.376   0.584 -2.6421  3.1832 -1.2453
  793MOL0     H 9429   5.201  11.412   0.757  1.4975 -0.0019 -0.9108
  793MOL0     H 9430   4.799  11.429   0.581  0.6210  1.6945 -2.5370
  793MOL0     H 9431   5.659  11.189   0.736  0.1322 -0.4969 -1.4491
  793MOL0     H 9432   5.917  11.218   0.552 -0.5189  2.2553 -0.3896
  793MOL0     H 9433   5.995  11.253   0.713 -2.2010  3.0289  3.5705
  793MOL0     H 9434   5.857  11.145   0.699 -0.3741  0.2179 -1.0765
  794MOL0     O 9435   6.365  11.461   0.001  0.0544 -0.5741  0.0763
  794MOL0     C 9436   6.264  11.430  -0.067 -0.1498  0.0080  0.0067
  794MOL0     O 9437   6.269  11.397  -0.200  0.2355 -0.2900 -0.0176
  794MOL0     C 9438   6.388  11.410  -0.273  0.0828  1.0190  0.0255
  794MOL0     C 9439   6.387  11.524  -0.352  0.1778  0.7027 -0.0210
  794MOL0     C 9440   6.505  11.569  -0.402 -0.1015  0.3849  0.1054
  794MOL0     C 9441   6.625  11.489  -0.385  0.0210 -0.6397  0.4244
  794MOL0     O 9442   6.747  11.524  -0.446  0.1247  0.0880  0.2995
  794MOL0     C 9443   6.740  11.560  -0.580  0.0263  0.0085  0.8759
  794MOL0     C 9444   6.877  11.527  -0.652 -0.3583  0.1544 -0.1459
  794MOL0     C 9445   6.879  11.581  -0.798 -0.1393 -0.7879 -0.5137
  794MOL0     C 9446   7.006  11.558  -0.882 -0.5417 -0.3809 -0.8280
  794MOL0     C 9447   7.084  11.700  -0.876  0.0524  0.6782  1.3102
  794MOL0     C 9448   7.217  11.691  -0.944 -0.2564  0.8162  0.6112
  794MOL0     C 9449   7.310  11.814  -0.921  0.2905 -0.0791 -0.9332
  794MOL0     C 9450   7.428  11.807  -1.016 -0.0757  0.5058 -0.5227
  794MOL0     N 9451   7.529  11.899  -0.980 -0.4889 -0.8754  0.5323
  794MOL0     C 9452   7.562  12.022  -1.044  0.7331  0.2570  0.4897
  794MOL0     C 9453   7.681  12.062  -0.995  0.1078  0.4945 -0.3820
  794MOL0     C 9454   7.739  12.196  -1.034 -0.2393  0.3179 -0.6404
  794MOL0     C 9455   7.852  12.174  -1.129 -0.5356  0.4301  0.7647
  794MOL0     C 9456   7.986  12.155  -1.058 -0.2975 -0.0233  0.0273
  794MOL0     C 9457   8.107  12.122  -1.139  0.4669 -0.8201  0.2475
  794MOL0     O 9458   8.094  11.986  -1.187 -0.1025 -0.4139 -0.4432
  794MOL0     C 9459   8.155  11.966  -1.305  0.0491  0.4272  0.6777
  794MOL0     C 9460   8.114  11.866  -1.387  0.8818  0.3852  0.5717
  794MOL0     C 9461   8.168  11.830  -1.516 -0.6684 -0.1613 -0.2808
  794MOL0     C 9462   8.107  11.711  -1.581  0.2190 -0.3897 -0.0385
  794MOL0     C 9463   8.276  11.916  -1.560 -0.2186  0.2173 -0.2359
  794MOL0     C 9464   8.342  11.905  -1.687 -0.3904  0.6210 -0.4556
  794MOL0     O 9465   8.466  11.976  -1.703 -0.0914  0.1263 -0.4846
  794MOL0     C 9466   8.542  11.994  -1.814 -0.4041 -0.2168 -0.1893
  794MOL0     C 9467   8.646  12.082  -1.804  0.1275 -0.5398 -0.0176
  794MOL0     C 9468   8.711  12.125  -1.920  0.3238  0.6116 -1.7139
  794MOL0     C 9469   8.687  12.052  -2.039 -0.2993 -0.8682 -0.6825
  794MOL0     O 9470   8.757  12.085  -2.145 -0.2995 -0.2157  0.0777
  794MOL0     C 9471   8.901  12.075  -2.126 -0.1492 -0.3999 -0.2407
  794MOL0     C 9472   8.968  12.067  -2.268 -0.3067 -0.0569 -0.1537
  794MOL0     C 9473   9.119  12.068  -2.281 -0.0929 -0.0380  0.0564
  794MOL0     C 9474   9.186  11.961  -2.193 -0.3414  0.4475  0.4823
  794MOL0     C 9475   9.340  11.978  -2.201  0.3526  0.5641 -0.4941
  794MOL0     C 9476   9.404  11.840  -2.175 -0.1435 -0.2345  0.2548
  794MOL0     C 9477   9.551  11.855  -2.153  0.0231 -0.2663 -0.9792
  794MOL0     C 9478   9.610  11.781  -2.034 -0.0488  1.2140  0.1304
  794MOL0    Cl 9479   9.786  11.805  -2.011  0.1890 -0.3260  0.0051
  794MOL0     C 9480   8.593  11.948  -2.048 -0.6652  0.0194 -0.0505
  794MOL0     C 9481   8.516  11.923  -1.929 -0.1903 -0.0755  0.3642
  794MOL0     O 9482   8.282  11.851  -1.777  0.0697  0.2980  0.4878
  794MOL0     C 9483   8.328  12.006  -1.465 -0.3363 -0.2707 -0.3418
  794MOL0     C 9484   8.278  12.020  -1.340 -0.2200  0.0814  1.0527
  794MOL0     N 9485   7.729  11.967  -0.909  0.3227  0.2208  0.4649
  794MOL0     N 9486   7.638  11.868  -0.901 -0.8878 -0.6793  0.7147
  794MOL0     C 9487   6.621  11.381  -0.305 -0.1666 -0.2770  0.3032
  794MOL0     C 9488   6.507  11.335  -0.249  1.0743 -0.8544 -0.8252
  794MOL0     C 9489   6.132  11.423  -0.009 -0.2784 -0.7538 -0.4977
  794MOL0     C 9490   6.032  11.445  -0.102 -0.3167 -0.6702  0.0857
  794MOL0     C 9491   5.899  11.437  -0.067  0.2638 -0.2411 -0.3500
  794MOL0     C 9492   5.871  11.426   0.069  0.0408  0.4259  0.5033
  794MOL0     O 9493   5.746  11.448   0.116 -0.4427  0.1428  0.0440
  794MOL0     C 9494   5.706  11.330   0.194 -0.6571 -0.1502 -0.5674
  794MOL0     C 9495   5.614  11.359   0.311  0.5107  0.6695 -1.1545
  794MOL0     C 9496   5.465  11.420   0.275 -0.1931  0.1000 -1.2097
  794MOL0     C 9497   5.370  11.303   0.244 -0.4724  0.2060  0.5575
  794MOL0     C 9498   5.239  11.351   0.218 -0.2009  0.1713 -0.2287
  794MOL0     C 9499   5.124  11.378   0.196  0.0438 -0.5581  0.1468
  794MOL0     C 9500   5.977  11.406   0.164 -1.0650 -0.7136  0.4716
  794MOL0     C 9501   6.111  11.407   0.124  0.1405  0.1349  0.3265
  794MOL0     C 9502   6.216  11.389   0.238  0.3044 -0.5458  0.1713
  794MOL0     H 9503   6.293  11.573  -0.375  0.0950 -0.1316 -1.6457
  794MOL0     H 9504   6.496  11.656  -0.467  3.4435  1.3083  0.6381
  794MOL0     H 9505   6.714  11.665  -0.593 -1.3779 -0.5965 -2.5835
  794MOL0     H 9506   6.659  11.498  -0.621 -1.7088  2.4507  0.3630
  794MOL0     H 9507   6.969  11.555  -0.599  0.1035 -2.0446  0.2881
  794MOL0     H 9508   6.879  11.418  -0.655 -2.0594  0.1070 -0.3236
  794MOL0     H 9509   6.794  11.535  -0.851  1.3510 -0.0489 -3.8290
  794MOL0     H 9510   6.848  11.686  -0.792 -1.6271 -1.1481 -1.2409
  794MOL0     H 9511   7.071  11.481  -0.838 -2.2276 -0.3545  1.9062
  794MOL0     H 9512   6.977  11.541  -0.986 -1.9723  0.0806 -0.5269
  794MOL0     H 9513   7.096  11.728  -0.771  0.7144  0.5119  1.2835
  794MOL0     H 9514   7.035  11.780  -0.931 -1.4889 -1.2924 -0.3811
  794MOL0     H 9515   7.274  11.602  -0.915 -2.2837 -0.6343  0.4125
  794MOL0     H 9516   7.204  11.676  -1.051 -0.3906 -1.3549  0.8692
  794MOL0     H 9517   7.355  11.811  -0.821  0.0373 -0.2008 -0.8191
  794MOL0     H 9518   7.255  11.908  -0.931  0.4855  0.1256 -0.1998
  794MOL0     H 9519   7.465  11.704  -1.011  0.2510  0.6569  0.2373
  794MOL0     H 9520   7.403  11.834  -1.119  3.1372  0.8668 -1.3139
  794MOL0     H 9521   7.499  12.084  -1.107  0.3057 -0.9009 -0.2599
  794MOL0     H 9522   7.765  12.256  -0.946  0.3068 -1.1976  0.2731
  794MOL0     H 9523   7.657  12.249  -1.083 -0.4953 -1.0236 -1.7428
  794MOL0     H 9524   7.830  12.082  -1.184 -0.3726  0.3267  0.8690
  794MOL0     H 9525   7.865  12.263  -1.191  0.0679 -0.4462 -0.4063
  794MOL0     H 9526   8.002  12.249  -1.004 -2.9080  1.0180 -0.8681
  794MOL0     H 9527   7.970  12.081  -0.979  0.8112  0.1534  0.4401
  794MOL0     H 9528   8.126  12.202  -1.211 -0.3251 -1.4343 -0.6615
  794MOL0     H 9529   8.189  12.127  -1.066 -1.3091 -3.5275  2.6459
  794MOL0     H 9530   8.032  11.813  -1.339  1.2961 -0.7374  0.0608
  794MOL0     H 9531   8.007  11.728  -1.622 -1.2902 -3.0051  2.1829
  794MOL0     H 9532   8.092  11.629  -1.510 -1.0823  0.7239  1.0428
  794MOL0     H 9533   8.174  11.669  -1.656 -1.4804  0.2036 -1.9929
  794MOL0     H 9534   8.682  12.131  -1.714  2.4534  1.3563 -1.8230
  794MOL0     H 9535   8.775  12.210  -1.896 -0.4451  0.5886  0.5969
  794MOL0     H 9536   8.945  12.160  -2.074 -0.3191 -1.9650  2.6226
  794MOL0     H 9537   8.923  11.983  -2.072 -0.5618  1.3963  3.2179
  794MOL0     H 9538   8.935  11.977  -2.320  0.0693  0.0638 -0.6064
  794MOL0     H 9539   8.927  12.157  -2.315 -1.9060 -0.5279  0.2800
  794MOL0     H 9540   9.154  12.166  -2.247 -1.4451  0.0127  1.4206
  794MOL0     H 9541   9.140  12.057  -2.388  0.6774 -2.8666  0.4179
  794MOL0     H 9542   9.156  11.861  -2.226  1.4106  0.5943 -1.7997
  794MOL0     H 9543   9.160  11.971  -2.087 -0.8022 -0.6021  0.4782
  794MOL0     H 9544   9.377  12.006  -2.300 -0.9724  0.2575 -1.1040
  794MOL0     H 9545   9.372  12.052  -2.128 -0.4849 -0.2037  0.6856
  794MOL0     H 9546   9.392  11.770  -2.258  2.0358  0.1374 -0.4582
  794MOL0     H 9547   9.351  11.798  -2.089  0.5229  2.3740  2.0729
  794MOL0     H 9548   9.583  11.959  -2.141 -1.5688  0.3396 -1.6306
  794MOL0     H 9549   9.599  11.800  -2.234 -1.9821 -2.7969 -0.5901
  794MOL0     H 9550   9.587  11.674  -2.030  2.6308  0.5867  0.9979
  794MOL0     H 9551   9.560  11.822  -1.946 -0.1943 -2.6889  2.1035
  794MOL0     H 9552   8.575  11.904  -2.145  4.0329  0.3645 -1.3540
  794MOL0     H 9553   8.435  11.851  -1.941  1.4599 -1.6969 -1.9028
  794MOL0     H 9554   8.422  12.059  -1.472  1.2404 -2.8731  0.0367
  794MOL0     H 9555   8.320  12.086  -1.264  0.5448 -1.0588  1.6521
  794MOL0     H 9556   6.713  11.327  -0.284 -0.6122 -0.9070  0.6661
  794MOL0     H 9557   6.527  11.259  -0.174  1.6580 -0.1692 -0.2598
  794MOL0     H 9558   6.053  11.474  -0.205 -1.1709 -0.5540 -0.0617
  794MOL0     H 9559   5.812  11.454  -0.129 -0.5073 -1.2207  0.4169
  794MOL0     H 9560   5.660  11.258   0.126 -1.1452  0.0402 -0.4386
  794MOL0     H 9561   5.787  11.271   0.239 -0.5284 -0.2337 -0.9047
  794MOL0     H 9562   5.671  11.430   0.371  2.4792 -1.9735  0.3180
  794MOL0     H 9563   5.601  11.271   0.375  3.3656  1.6268  0.9406
  794MOL0     H 9564   5.422  11.481   0.354 -3.6516 -1.3224 -1.8186
  794MOL0     H 9565   5.477  11.488   0.190  0.9883  1.4067 -0.0636
  794MOL0     H 9566   5.364  11.242   0.335 -1.3291  1.3514  1.3113
  794MOL0     H 9567   5.405  11.245   0.159  0.3032  1.3201  0.1028
  794MOL0     H 9568   5.018  11.395   0.191  0.1626 -0.0113 -0.6687
  794MOL0     H 9569   5.956  11.412   0.270 -1.3585 -1.9156  0.4944
  794MOL0     H 9570   6.310  11.339   0.213  0.5886  0.1004 -0.0841
  794MOL0     H 9571   6.254  11.486   0.272  0.7005 -1.0755  1.2571
  794MOL0     H 9572   6.168  11.345   0.326  0.1744  0.2606  0.5135
  795MOL0     O 9573   3.436   0.491   2.133 -0.0235  0.0362  0.3231
  795MOL0     C 9574   3.491   0.507   2.245  0.2883 -0.1274  0.6632
  795MOL0     O 9575   3.503   0.622   2.314 -0.3775  0.2988  0.8371
  795MOL0     C 9576   3.440   0.740   2.279  0.4252  0.9554  0.5957
  795MOL0     C 9577   3.338   0.766   2.187 -0.4183  0.2277  0.4975
  795MOL0     C 9578   3.279   0.890   2.172 -0.6822  0.1849 -0.0112
  795MOL0     C 9579   3.334   0.998   2.233 -0.3409 -0.0826  0.4861
  795MOL0     O 9580   3.281   1.120   2.211 -0.4610 -0.7075 -0.1147
  795MOL0     C 9581   3.254   1.211   2.321  0.5020  0.4661  0.3376
  795MOL0     C 9582   3.159   1.329   2.276 -0.6499 -0.3939 -0.2997
  795MOL0     C 9583   3.218   1.417   2.156  0.2641 -0.6519  0.0692
  795MOL0     C 9584   3.116   1.522   2.117  0.2687  0.2169 -0.2781
  795MOL0     C 9585   3.154   1.622   2.013 -0.4863 -0.2102  0.4478
  795MOL0     C 9586   3.026   1.704   1.980  0.1536  0.4287 -0.0384
  795MOL0     C 9587   3.052   1.781   1.844 -1.1984  0.0204  0.3315
  795MOL0     C 9588   2.937   1.864   1.786 -0.5058  0.8476  0.3825
  795MOL0     N 9589   2.956   1.942   1.658  0.9988 -0.2004  0.0203
  795MOL0     C 9590   2.959   1.895   1.536 -0.5266 -0.3581 -0.0287
  795MOL0     C 9591   3.012   1.997   1.463  0.4184 -0.0229  0.4053
  795MOL0     C 9592   3.056   1.971   1.321 -0.2105 -0.6844 -0.7726
  795MOL0     C 9593   3.206   1.984   1.296  0.9456 -0.4556 -0.0584
  795MOL0     C 9594   3.216   1.979   1.147  0.2343  0.0886 -0.0640
  795MOL0     C 9595   3.363   2.004   1.102 -0.1556  0.2873 -0.5635
  795MOL0     O 9596   3.349   2.042   0.964 -0.1483 -0.1984 -0.5657
  795MOL0     C 9597   3.464   2.055   0.892 -0.0220  0.7445  0.2333
  795MOL0     C 9598   3.443   2.053   0.756  0.0044 -0.5064 -0.3257
  795MOL0     C 9599   3.542   2.066   0.666 -0.1120  0.4962 -0.2025
  795MOL0     C 9600   3.500   2.067   0.516 -0.0066 -0.4125 -0.0980
  795MOL0     C 9601   3.675   2.080   0.712  0.0171  0.1328  0.2803
  795MOL0     C 9602   3.797   2.097   0.630 -0.5728  1.0799 -0.0845
  795MOL0     O 9603   3.923   2.094   0.692  0.2879  0.4962 -0.1235
  795MOL0     C 9604   4.048   2.068   0.628  0.3200 -0.1959 -0.5600
  795MOL0     C 9605   4.162   2.084   0.699 -0.0232 -0.3845 -0.4281
  795MOL0     C 9606   4.282   2.060   0.627 -0.6707  0.2939 -0.1671
  795MOL0     C 9607   4.293   2.019   0.489  0.5313 -0.2488  0.4610
  795MOL0     O 9608   4.414   1.996   0.434 -0.1033  0.0706 -0.3438
  795MOL0     C 9609   4.528   2.082   0.460  0.4272 -0.3549 -0.3972
  795MOL0     C 9610   4.634   2.041   0.359  0.6584 -1.1451  0.3332
  795MOL0     C 9611   4.592   2.063   0.213  0.5381  0.5068  0.1641
  795MOL0     C 9612   4.537   1.935   0.144  0.9153  0.6800  0.1600
  795MOL0     C 9613   4.540   1.946  -0.008 -0.8388 -0.2412  0.2398
  795MOL0     C 9614   4.451   1.842  -0.074  0.2937  1.1248  0.2606
  795MOL0     C 9615   4.296   1.871  -0.069  0.4238  0.0028  0.2574
  795MOL0     C 9616   4.260   1.988  -0.163  0.2770  0.2420  0.3148
  795MOL0    Cl 9617   4.257   1.918  -0.333 -0.2604  0.0639 -0.3699
  795MOL0     C 9618   4.173   1.981   0.436  0.6747 -0.3047 -0.2176
  795MOL0     C 9619   4.054   2.027   0.499  0.9248  0.3318  0.2923
  795MOL0     O 9620   3.783   2.136   0.512  0.6094 -0.2142 -0.7153
  795MOL0     C 9621   3.695   2.067   0.850 -0.4749  0.5268  0.1500
  795MOL0     C 9622   3.591   2.056   0.939  0.9456 -0.3878  0.5812
  795MOL0     N 9623   3.023   2.105   1.543  0.1289  0.1161  0.0283
  795MOL0     N 9624   2.982   2.073   1.662 -0.6263 -0.1106  0.6908
  795MOL0     C 9625   3.439   0.977   2.325 -0.2269  0.4106 -0.5268
  795MOL0     C 9626   3.481   0.846   2.354  0.3313  0.1178 -0.1154
  795MOL0     C 9627   3.563   0.386   2.298 -0.9177  0.0374 -0.8696
  795MOL0     C 9628   3.529   0.256   2.252  1.1768 -0.3823  0.0846
  795MOL0     C 9629   3.611   0.149   2.289  0.5626 -0.0583 -1.0407
  795MOL0     C 9630   3.729   0.156   2.367 -0.0890 -0.5211  0.3223
  795MOL0     O 9631   3.806   0.047   2.401 -0.2245  0.4934  0.2854
  795MOL0     C 9632   3.778  -0.083   2.338 -0.5878 -0.2717  0.2794
  795MOL0     C 9633   3.859  -0.189   2.401  0.0015 -0.6975  0.5020
  795MOL0     C 9634   3.853  -0.312   2.308  0.1385  0.0688 -0.5041
  795MOL0     C 9635   3.834  -0.440   2.398  0.5742 -1.3777  0.1856
  795MOL0     C 9636   3.891  -0.560   2.334  0.2234  0.4584  1.0134
  795MOL0     C 9637   3.931  -0.653   2.272 -0.0901 -0.7397  0.5679
  795MOL0     C 9638   3.764   0.287   2.404  0.1544  0.4757  1.1699
  795MOL0     C 9639   3.686   0.394   2.373  0.9706 -0.3242  0.3284
  795MOL0     C 9640   3.745   0.516   2.427 -0.4791 -0.1371  0.2444
  795MOL0     H 9641   3.303   0.684   2.125 -0.9565  0.3309  0.6581
  795MOL0     H 9642   3.194   0.904   2.106 -0.0953 -3.2907 -1.6994
  795MOL0     H 9643   3.350   1.250   2.356  0.6873 -0.4027  0.8133
  795MOL0     H 9644   3.220   1.151   2.406  2.4096 -2.7133 -0.9492
  795MOL0     H 9645   3.064   1.302   2.228 -0.9954  3.0304 -1.8452
  795MOL0     H 9646   3.135   1.391   2.363 -0.5436 -0.2068 -0.4037
  795MOL0     H 9647   3.312   1.460   2.191  1.1932 -2.3558 -0.2153
  795MOL0     H 9648   3.240   1.342   2.079  3.1687 -1.5601  1.6222
  795MOL0     H 9649   3.017   1.484   2.089 -0.2448  1.5329 -0.3132
  795MOL0     H 9650   3.097   1.578   2.209  1.5918 -2.3210  1.6604
  795MOL0     H 9651   3.191   1.566   1.927  1.1641  0.7459  0.4889
  795MOL0     H 9652   3.227   1.687   2.063  0.1504 -0.1561 -0.5330
  795MOL0     H 9653   2.933   1.647   1.970  1.2231 -1.4138  0.0354
  795MOL0     H 9654   3.002   1.781   2.054 -0.9027  1.0237 -0.9551
  795MOL0     H 9655   3.086   1.700   1.779  2.3096  0.4490  1.4227
  795MOL0     H 9656   3.128   1.855   1.871 -1.7182  0.7886 -0.2504
  795MOL0     H 9657   2.850   1.800   1.773 -2.1780  2.8756  1.1011
  795MOL0     H 9658   2.915   1.942   1.859  1.0452  1.1833  0.5410
  795MOL0     H 9659   2.957   1.790   1.509  0.7604  0.3171 -3.1983
  795MOL0     H 9660   2.994   2.040   1.262 -0.9202 -1.2688 -0.7304
  795MOL0     H 9661   3.031   1.868   1.295 -1.4550 -0.3084 -1.1364
  795MOL0     H 9662   3.250   2.074   1.340  0.2968  0.1107 -0.5517
  795MOL0     H 9663   3.248   1.894   1.342  0.4740 -1.2621 -1.1666
  795MOL0     H 9664   3.189   1.880   1.109  1.0303  0.7400 -2.5288
  795MOL0     H 9665   3.144   2.048   1.102  0.9661  0.0506 -1.3396
  795MOL0     H 9666   3.401   2.090   1.158 -1.0522 -0.3663  1.1254
  795MOL0     H 9667   3.412   1.908   1.118 -1.6939 -0.8827 -2.4048
  795MOL0     H 9668   3.341   2.052   0.719 -0.0596  1.3543 -0.2932
  795MOL0     H 9669   3.575   2.006   0.466 -0.1764 -0.9704  0.3253
  795MOL0     H 9670   3.491   2.168   0.474  1.8384  0.4019  1.3286
  795MOL0     H 9671   3.407   2.010   0.508  0.2318 -0.8100 -0.0221
  795MOL0     H 9672   4.155   2.115   0.802 -0.6816  2.2812 -1.2099
  795MOL0     H 9673   4.371   2.085   0.684 -0.0923  1.4467 -1.5385
  795MOL0     H 9674   4.496   2.186   0.447 -1.0110 -0.7552 -0.2883
  795MOL0     H 9675   4.572   2.072   0.560  1.3635  3.3659 -0.2843
  795MOL0     H 9676   4.730   2.087   0.380  1.1712  0.2010 -4.0118
  795MOL0     H 9677   4.649   1.933   0.368 -0.3841 -1.3647 -0.2940
  795MOL0     H 9678   4.677   2.117   0.172 -0.2840  2.9014  1.4079
  795MOL0     H 9679   4.511   2.136   0.213 -1.2162 -1.2848  2.0766
  795MOL0     H 9680   4.435   1.926   0.183  0.7850 -1.2801 -0.5451
  795MOL0     H 9681   4.598   1.849   0.173 -0.9893 -2.3662 -3.9880
  795MOL0     H 9682   4.514   2.048  -0.037 -0.9523  0.0434  1.3179
  795MOL0     H 9683   4.643   1.934  -0.043  0.9154  3.5969  3.3743
  795MOL0     H 9684   4.467   1.746  -0.026  0.4026 -0.5399 -2.8557
  795MOL0     H 9685   4.476   1.822  -0.179 -0.1280 -2.9447  0.8083
  795MOL0     H 9686   4.256   1.895   0.030 -2.9476 -1.1204 -0.7262
  795MOL0     H 9687   4.243   1.786  -0.111 -3.6843  1.8974  1.1436
  795MOL0     H 9688   4.321   2.077  -0.140  0.9438 -0.6027  1.9541
  795MOL0     H 9689   4.160   2.013  -0.129  0.5584  0.5958  0.9010
  795MOL0     H 9690   4.180   1.940   0.336  0.0079  0.8354 -0.7521
  795MOL0     H 9691   3.962   2.021   0.442 -0.1821 -1.3246  2.1243
  795MOL0     H 9692   3.795   2.056   0.890  0.1134 -0.3122 -1.4586
  795MOL0     H 9693   3.624   2.054   1.042 -1.9234  1.7718  1.6938
  795MOL0     H 9694   3.481   1.061   2.379  0.3155 -1.0648  1.4748
  795MOL0     H 9695   3.554   0.826   2.432  0.0138 -3.2732 -0.5513
  795MOL0     H 9696   3.442   0.231   2.192  0.5704  1.6397  0.0441
  795MOL0     H 9697   3.579   0.054   2.246  2.7339 -1.5263  0.3757
  795MOL0     H 9698   3.675  -0.120   2.341 -0.8957  0.2074 -2.1546
  795MOL0     H 9699   3.810  -0.063   2.235 -2.1513  3.0988  0.3235
  795MOL0     H 9700   3.829  -0.218   2.502  0.7432 -0.8827  0.6775
  795MOL0     H 9701   3.960  -0.149   2.419 -1.3186  1.9222  2.8374
  795MOL0     H 9702   3.769  -0.300   2.238  0.0988  3.4259 -0.0490
  795MOL0     H 9703   3.938  -0.320   2.240  2.1133  0.0206  1.8402
  795MOL0     H 9704   3.731  -0.465   2.425 -0.1392  1.2537  0.2224
  795MOL0     H 9705   3.889  -0.427   2.492 -1.2604  0.6880  1.0665
  795MOL0     H 9706   3.962  -0.733   2.207 -0.2256 -0.0549 -0.3693
  795MOL0     H 9707   3.863   0.303   2.444  1.2112  1.6271 -1.6752
  795MOL0     H 9708   3.851   0.519   2.454 -0.3401  4.2491 -0.0319
  795MOL0     H 9709   3.735   0.596   2.353  1.5122 -1.3508 -1.4596
  795MOL0     H 9710   3.675   0.537   2.508 -2.8893  0.8625 -1.9481
  796MOL0     O 9711   9.184   0.492   6.333 -0.6996 -0.1824  0.4622
  796MOL0     C 9712   9.265   0.555   6.400 -0.4209  0.5028  0.8090
  796MOL0     O 9713   9.345   0.502   6.498 -0.5782 -0.1904  0.1406
  796MOL0     C 9714   9.330   0.370   6.512  0.2551  0.6608 -0.1104
  796MOL0     C 9715   9.424   0.276   6.473  0.5132 -0.5378  0.2490
  796MOL0     C 9716   9.414   0.138   6.503  0.1447 -1.2007  0.4959
  796MOL0     C 9717   9.304   0.095   6.573 -0.0609  0.7690  0.0287
  796MOL0     O 9718   9.278  -0.043   6.594 -0.0860 -0.0362  0.2336
  796MOL0     C 9719   9.291  -0.061   6.738 -0.1434 -0.0301  0.6244
  796MOL0     C 9720   9.357  -0.194   6.765 -0.4285 -0.4553 -0.6733
  796MOL0     C 9721   9.489  -0.231   6.683  0.6693  0.2985 -0.8656
  796MOL0     C 9722   9.617  -0.156   6.717 -0.5558 -0.2039 -0.0848
  796MOL0     C 9723   9.663  -0.159   6.864 -0.5955  0.8436  0.4520
  796MOL0     C 9724   9.706  -0.302   6.912  0.7419 -0.1485  0.7558
  796MOL0     C 9725   9.714  -0.312   7.063  0.0165 -0.2257  0.4703
  796MOL0     C 9726   9.826  -0.234   7.130  0.8177  0.0138  0.2607
  796MOL0     N 9727   9.962  -0.288   7.099 -0.8882  0.5011 -0.3323
  796MOL0     C 9728  10.029  -0.260   6.977  0.7153  0.3490 -0.0038
  796MOL0     C 9729  10.155  -0.309   6.990  1.0841 -0.5782 -0.5041
  796MOL0     C 9730  10.262  -0.327   6.887  0.7515 -0.6390  0.4994
  796MOL0     C 9731  10.285  -0.474   6.848  0.3749 -0.6689  0.9455
  796MOL0     C 9732  10.409  -0.515   6.763  0.4278  0.1324  0.0713
  796MOL0     C 9733  10.422  -0.454   6.627 -0.1286  0.1594 -0.5095
  796MOL0     O 9734  10.516  -0.524   6.547  0.1290  0.1887 -0.2047
  796MOL0     C 9735  10.636  -0.521   6.595 -0.2113  0.6286 -0.1996
  796MOL0     C 9736  10.692  -0.645   6.619  0.5847 -0.3432 -0.1013
  796MOL0     C 9737  10.819  -0.654   6.680 -1.2708  0.3866  0.0394
  796MOL0     C 9738  10.871  -0.797   6.709 -0.3000 -0.0550 -0.0715
  796MOL0     C 9739  10.885  -0.535   6.720 -0.8125 -1.0411 -0.7382
  796MOL0     C 9740  11.015  -0.530   6.791  0.2295  0.6460 -0.3274
  796MOL0     O 9741  11.011  -0.605   6.911  0.2358  0.1393 -0.1594
  796MOL0     C 9742  11.129  -0.620   6.982  0.0731  0.5153 -0.1479
  796MOL0     C 9743  11.120  -0.653   7.123 -0.1318  0.3874  0.1446
  796MOL0     C 9744  11.223  -0.680   7.204 -0.4376  0.3652  0.5547
  796MOL0     C 9745  11.360  -0.672   7.155  0.4746 -0.2481  0.1242
  796MOL0     O 9746  11.459  -0.671   7.254 -0.0522 -0.6033 -0.3534
  796MOL0     C 9747  11.589  -0.662   7.201 -0.5126  0.1152  0.0181
  796MOL0     C 9748  11.707  -0.721   7.284  0.0859 -0.6634  0.3375
  796MOL0     C 9749  11.733  -0.633   7.399 -0.1288  0.1579 -0.1874
  796MOL0     C 9750  11.637  -0.674   7.526 -0.7580  1.1392  0.2127
  796MOL0     C 9751  11.622  -0.565   7.627  0.0690 -0.5659 -0.0816
  796MOL0     C 9752  11.761  -0.502   7.689  0.7333 -0.6286  0.6179
  796MOL0     C 9753  11.842  -0.599   7.776  0.1140 -0.6703 -0.5044
  796MOL0     C 9754  11.982  -0.547   7.809 -1.0130 -1.5871 -0.0833
  796MOL0    Cl 9755  11.991  -0.429   7.942  0.1119 -0.2447  0.4904
  796MOL0     C 9756  11.369  -0.629   7.022  0.4259 -0.0663 -0.6811
  796MOL0     C 9757  11.260  -0.619   6.931  0.0878  1.0246  0.3601
  796MOL0     O 9758  11.103  -0.459   6.754  0.0033  0.0333  0.1445
  796MOL0     C 9759  10.827  -0.413   6.687  0.9292 -0.2936 -0.5636
  796MOL0     C 9760  10.706  -0.406   6.626 -0.0072 -0.3152 -0.2529
  796MOL0     N 9761  10.161  -0.354   7.123  0.0940  0.4695 -0.2128
  796MOL0     N 9762  10.047  -0.347   7.181 -0.0370  0.4412  0.2263
  796MOL0     C 9763   9.201   0.186   6.613  0.8127 -0.2262  0.9796
  796MOL0     C 9764   9.219   0.321   6.578  0.1495 -0.7445  0.8834
  796MOL0     C 9765   9.288   0.696   6.361 -0.7656  0.1482 -0.3406
  796MOL0     C 9766   9.196   0.755   6.271  0.0833  0.0454 -0.5180
  796MOL0     C 9767   9.190   0.893   6.242 -0.7237  0.6284 -0.3397
  796MOL0     C 9768   9.284   0.980   6.299 -0.4935  0.3727 -0.4352
  796MOL0     O 9769   9.269   1.112   6.282 -0.6476 -0.6611 -0.0787
  796MOL0     C 9770   9.340   1.202   6.366 -0.1407 -0.6808  0.3085
  796MOL0     C 9771   9.280   1.222   6.506  0.1714  0.7922 -1.1658
  796MOL0     C 9772   9.142   1.295   6.498  0.6427 -0.6603  0.2677
  796MOL0     C 9773   9.070   1.291   6.629 -0.0025  1.2040 -0.3891
  796MOL0     C 9774   8.956   1.382   6.657 -0.4966 -0.0499 -0.8637
  796MOL0     C 9775   8.870   1.460   6.703  0.5514 -0.2484 -0.1331
  796MOL0     C 9776   9.388   0.915   6.368 -1.2161  0.4791  0.9924
  796MOL0     C 9777   9.398   0.777   6.402  0.1909 -0.5728  0.3647
  796MOL0     C 9778   9.514   0.730   6.488 -0.3148  0.4809  0.7330
  796MOL0     H 9779   9.503   0.309   6.406  0.8767  1.9862  1.8037
  796MOL0     H 9780   9.474   0.061   6.457  0.2020  0.0215 -1.5976
  796MOL0     H 9781   9.196  -0.050   6.792  1.1020  0.7446  2.7361
  796MOL0     H 9782   9.360   0.009   6.785 -0.7736  1.2150 -0.2138
  796MOL0     H 9783   9.367  -0.207   6.874  0.8430  2.4274 -0.3515
  796MOL0     H 9784   9.292  -0.271   6.723  0.7558 -1.2742 -1.0481
  796MOL0     H 9785   9.504  -0.338   6.694 -0.9101  0.2080  0.7766
  796MOL0     H 9786   9.464  -0.211   6.578  0.8703 -0.9174 -1.1534
  796MOL0     H 9787   9.696  -0.186   6.648  2.9429 -1.3977  3.9862
  796MOL0     H 9788   9.586  -0.056   6.686  0.9960  0.0498 -0.9158
  796MOL0     H 9789   9.580  -0.122   6.925 -2.0093 -1.7456  0.2385
  796MOL0     H 9790   9.756  -0.102   6.871  0.6953 -0.8246 -1.7336
  796MOL0     H 9791   9.632  -0.378   6.884 -2.1673  2.2436  1.4784
  796MOL0     H 9792   9.801  -0.324   6.863  0.7262  0.4435  0.4623
  796MOL0     H 9793   9.715  -0.419   7.088 -2.5135  0.2104  2.8402
  796MOL0     H 9794   9.619  -0.284   7.109  1.3055 -0.0348  3.2794
  796MOL0     H 9795   9.824  -0.128   7.102 -1.9201 -0.2595 -0.9254
  796MOL0     H 9796   9.808  -0.228   7.238 -0.1967 -0.1165  0.1160
  796MOL0     H 9797   9.987  -0.209   6.891  0.7612  0.3982  0.0033
  796MOL0     H 9798  10.359  -0.286   6.918 -0.1971  1.6074  0.7123
  796MOL0     H 9799  10.234  -0.273   6.796  1.8736  0.1071  0.5713
  796MOL0     H 9800  10.311  -0.525   6.941  2.4645  0.3803  1.0052
  796MOL0     H 9801  10.195  -0.517   6.803  0.1373  0.5431  0.2048
  796MOL0     H 9802  10.498  -0.490   6.821  0.8843 -0.9908 -0.1118
  796MOL0     H 9803  10.404  -0.624   6.759 -0.6662  0.1367  0.9146
  796MOL0     H 9804  10.328  -0.451   6.572  0.7642 -0.5965 -2.1408
  796MOL0     H 9805  10.460  -0.353   6.644 -2.0466  0.5105  2.5287
  796MOL0     H 9806  10.643  -0.734   6.581 -0.9193  1.2555 -2.1325
  796MOL0     H 9807  10.832  -0.820   6.808 -0.6183 -0.5129 -0.3016
  796MOL0     H 9808  10.981  -0.800   6.709 -0.3202 -0.9357  0.1272
  796MOL0     H 9809  10.840  -0.855   6.622 -0.7991  1.0300 -0.6397
  796MOL0     H 9810  11.016  -0.664   7.150 -0.1083  1.1942  0.5823
  796MOL0     H 9811  11.219  -0.701   7.311  1.6304  2.5313  1.1592
  796MOL0     H 9812  11.607  -0.714   7.106  0.8985  2.1636 -0.8940
  796MOL0     H 9813  11.601  -0.557   7.174  1.0690 -0.1851 -0.5674
  796MOL0     H 9814  11.688  -0.822   7.323  2.2072 -1.3746 -0.3432
  796MOL0     H 9815  11.799  -0.743   7.229 -1.2631 -3.6539 -0.9505
  796MOL0     H 9816  11.711  -0.528   7.375 -0.8750 -0.3419 -1.8769
  796MOL0     H 9817  11.835  -0.634   7.439 -1.0122 -0.5230  2.1827
  796MOL0     H 9818  11.673  -0.765   7.573 -0.8277  0.8622 -0.2604
  796MOL0     H 9819  11.532  -0.688   7.497 -1.0272  2.3739  0.5148
  796MOL0     H 9820  11.567  -0.481   7.583  1.9925  0.3648 -0.8287
  796MOL0     H 9821  11.554  -0.610   7.700 -1.9735  0.5990 -1.1622
  796MOL0     H 9822  11.735  -0.407   7.738 -1.1024  0.5851 -2.4544
  796MOL0     H 9823  11.824  -0.465   7.609 -1.6511 -1.1885 -1.6527
  796MOL0     H 9824  11.861  -0.689   7.717  3.3254 -0.2674 -0.2573
  796MOL0     H 9825  11.786  -0.623   7.867  3.4814 -0.7527  1.7458
  796MOL0     H 9826  12.037  -0.516   7.719  0.1890  0.9949  1.4316
  796MOL0     H 9827  12.040  -0.631   7.848  2.7264  0.0417 -1.6340
  796MOL0     H 9828  11.466  -0.599   6.986  0.8831  1.4238  1.5870
  796MOL0     H 9829  11.291  -0.603   6.828  2.2533 -0.5456  0.6915
  796MOL0     H 9830  10.885  -0.323   6.705  0.4077 -0.0628 -0.0053
  796MOL0     H 9831  10.677  -0.305   6.597  3.6581  1.0296  0.1847
  796MOL0     H 9832   9.109   0.147   6.656 -0.4097 -0.8942 -1.9804
  796MOL0     H 9833   9.134   0.379   6.612 -0.4032 -2.2077  2.1159
  796MOL0     H 9834   9.123   0.690   6.225 -0.3973 -1.2384  1.8896
  796MOL0     H 9835   9.109   0.916   6.174 -1.2457 -2.9670 -1.1039
  796MOL0     H 9836   9.446   1.178   6.377 -0.5468 -2.5083  0.5184
  796MOL0     H 9837   9.342   1.303   6.324  1.2051 -0.8254 -0.0181
  796MOL0     H 9838   9.354   1.282   6.560 -1.0510  2.0525 -0.8263
  796MOL0     H 9839   9.266   1.130   6.562 -0.8811  1.9110  0.5116
  796MOL0     H 9840   9.153   1.397   6.460  1.8304 -0.6299  0.6493
  796MOL0     H 9841   9.076   1.240   6.431 -0.1661  0.6791 -0.0715
  796MOL0     H 9842   9.143   1.297   6.710  0.4391  0.9890 -0.7701
  796MOL0     H 9843   9.037   1.187   6.635 -0.2223  1.2819 -0.2051
  796MOL0     H 9844   8.816   1.544   6.742  0.2495 -1.2577  1.7468
  796MOL0     H 9845   9.470   0.977   6.405 -0.0098 -0.9419  0.8327
  796MOL0     H 9846   9.592   0.802   6.514  4.1749 -3.5476 -0.2749
  796MOL0     H 9847   9.477   0.693   6.584  3.7038 -1.0342  1.9007
  796MOL0     H 9848   9.571   0.653   6.435  1.9057 -0.4258  4.1453
  797MOL0     O 9849   2.771   5.901   2.059  0.6777 -0.1038  0.2285
  797MOL0     C 9850   2.823   6.004   2.037  0.9092  0.0318 -0.3340
  797MOL0     O 9851   2.847   6.096   2.128 -0.0723 -1.0888  0.4515
  797MOL0     C 9852   2.812   6.069   2.262 -0.7475 -0.1295  1.5021
  797MOL0     C 9853   2.900   6.128   2.363  0.5785  0.5093  0.0672
  797MOL0     C 9854   2.865   6.135   2.496 -0.0607 -0.3880 -0.5492
  797MOL0     C 9855   2.740   6.084   2.541  0.3194 -0.4671  0.1674
  797MOL0     O 9856   2.706   6.093   2.676 -0.4655  0.3410 -0.3596
  797MOL0     C 9857   2.586   6.047   2.720  0.1049  0.4111 -1.1088
  797MOL0     C 9858   2.574   6.060   2.876 -0.0674  0.1901 -0.5007
  797MOL0     C 9859   2.692   5.996   2.929  0.6528  0.2608 -0.9654
  797MOL0     C 9860   2.667   5.938   3.073  0.1390  0.5213 -0.0184
  797MOL0     C 9861   2.787   5.851   3.134  0.4730 -0.4302 -0.2905
  797MOL0     C 9862   2.794   5.716   3.066  0.5888 -0.6567  0.0222
  797MOL0     C 9863   2.931   5.658   3.055 -0.4203 -0.9817 -0.5082
  797MOL0     C 9864   3.006   5.663   3.184  0.0457 -0.7825  0.0337
  797MOL0     N 9865   3.144   5.612   3.177  0.3608  0.5243  0.7384
  797MOL0     C 9866   3.177   5.485   3.129 -0.9920  0.2416 -1.1740
  797MOL0     C 9867   3.318   5.483   3.116  0.8741 -1.1584 -0.0604
  797MOL0     C 9868   3.421   5.377   3.065 -0.3945 -0.0670  0.0509
  797MOL0     C 9869   3.498   5.298   3.175  0.5679  0.3943  0.6276
  797MOL0     C 9870   3.437   5.155   3.171 -0.3576  0.4112  0.2167
  797MOL0     C 9871   3.298   5.140   3.225 -0.1126  0.4493  0.0516
  797MOL0     O 9872   3.203   5.161   3.117  0.1849  0.4748 -0.2178
  797MOL0     C 9873   3.070   5.115   3.136  0.0382 -0.5578  0.1781
  797MOL0     C 9874   3.022   5.018   3.227 -0.4781 -0.0267 -0.6614
  797MOL0     C 9875   2.896   4.979   3.239  0.1314  0.5068 -0.1265
  797MOL0     C 9876   2.867   4.880   3.353  0.0738 -0.2201  0.4394
  797MOL0     C 9877   2.799   5.036   3.160 -0.5980  0.4066 -0.1840
  797MOL0     C 9878   2.663   4.994   3.145 -0.5774  0.5136 -0.3429
  797MOL0     O 9879   2.564   5.081   3.096  0.1356 -0.7937 -0.0039
  797MOL0     C 9880   2.427   5.052   3.106  0.0653 -0.1408  0.9669
  797MOL0     C 9881   2.368   4.930   3.091  0.9542 -0.0364 -0.8572
  797MOL0     C 9882   2.236   4.901   3.114  0.0295  0.0317 -0.2812
  797MOL0     C 9883   2.150   5.006   3.138  0.5713  0.0377 -0.1641
  797MOL0     O 9884   2.015   4.973   3.163  0.1014  0.2672 -0.3801
  797MOL0     C 9885   1.911   5.050   3.112  0.2889  0.4806  0.8208
  797MOL0     C 9886   1.786   4.965   3.072  0.2492  0.6804  0.8300
  797MOL0     C 9887   1.811   4.924   2.920  0.1870 -0.2484 -0.1211
  797MOL0     C 9888   1.912   4.812   2.883  0.8206 -0.6609  0.2719
  797MOL0     C 9889   1.844   4.679   2.902  0.5115  0.0875 -0.8965
  797MOL0     C 9890   1.942   4.570   2.853 -0.7635 -0.5549 -0.5940
  797MOL0     C 9891   2.075   4.549   2.923 -0.0454  0.1033 -0.3422
  797MOL0     C 9892   2.081   4.436   3.030  0.1462 -0.8372 -0.2808
  797MOL0    Cl 9893   2.253   4.434   3.098 -0.4173  0.1067 -0.2196
  797MOL0     C 9894   2.199   5.141   3.140  0.2332 -0.7326  0.9686
  797MOL0     C 9895   2.336   5.164   3.116 -0.1907  0.1285 -0.8083
  797MOL0     O 9896   2.643   4.877   3.178 -0.6962  0.0942  0.1275
  797MOL0     C 9897   2.836   5.145   3.079 -1.1059  0.3150 -0.3735
  797MOL0     C 9898   2.970   5.180   3.061 -0.2209  0.1326 -0.7493
  797MOL0     N 9899   3.358   5.611   3.165  0.8638  0.5269 -1.4872
  797MOL0     N 9900   3.257   5.682   3.209  0.3191  0.5254 -0.3205
  797MOL0     C 9901   2.656   6.023   2.446  0.3805 -0.1692 -0.0965
  797MOL0     C 9902   2.694   6.017   2.309  0.3468 -0.1378  0.3375
  797MOL0     C 9903   2.885   6.019   1.906 -0.5831  0.1947  0.3377
  797MOL0     C 9904   3.004   6.102   1.892 -0.8737  1.1546  0.4238
  797MOL0     C 9905   3.070   6.121   1.772  0.5100 -0.6696  0.9485
  797MOL0     C 9906   3.023   6.054   1.661  0.1527 -0.2749  0.3888
  797MOL0     O 9907   3.103   6.067   1.554  0.3978  0.0045  0.1261
  797MOL0     C 9908   3.030   6.071   1.433  0.6130 -0.2082  0.6285
  797MOL0     C 9909   3.104   6.156   1.332 -0.1082 -0.0860  1.1691
  797MOL0     C 9910   3.072   6.307   1.358  0.0252  0.0661 -0.4632
  797MOL0     C 9911   3.177   6.409   1.308 -0.0815 -0.3927 -0.1792
  797MOL0     C 9912   3.186   6.516   1.407 -0.3403 -1.1184  0.0701
  797MOL0     C 9913   3.212   6.600   1.497 -0.1345  0.7876 -0.2984
  797MOL0     C 9914   2.907   5.982   1.666  0.0047  0.1318 -0.4472
  797MOL0     C 9915   2.835   5.970   1.783 -0.1193  0.7915 -0.6007
  797MOL0     C 9916   2.696   5.915   1.781  0.5352 -0.2478 -0.7016
  797MOL0     H 9917   3.001   6.161   2.341  1.5495 -1.7115  0.8665
  797MOL0     H 9918   2.936   6.173   2.569 -0.7626 -0.3123  0.1200
  797MOL0     H 9919   2.558   5.943   2.700 -0.6977 -0.2669  2.7704
  797MOL0     H 9920   2.502   6.103   2.677 -0.3213 -0.6865 -1.7509
  797MOL0     H 9921   2.569   6.167   2.899 -0.6441  0.0332  0.1522
  797MOL0     H 9922   2.482   6.015   2.915  0.3800 -0.8039 -0.5487
  797MOL0     H 9923   2.731   5.914   2.869  1.2357  0.9995 -1.6143
  797MOL0     H 9924   2.771   6.071   2.921  0.9931  0.2049  1.1639
  797MOL0     H 9925   2.632   6.015   3.141 -1.4050  1.4910 -1.8223
  797MOL0     H 9926   2.587   5.864   3.067  2.8095 -2.5565 -0.6732
  797MOL0     H 9927   2.766   5.840   3.241 -0.9195  2.2067 -0.2017
  797MOL0     H 9928   2.874   5.916   3.118  0.1472 -0.1813 -1.0797
  797MOL0     H 9929   2.724   5.649   3.116 -0.1834 -2.7929 -3.5092
  797MOL0     H 9930   2.754   5.733   2.965  1.3009  1.4722  0.0526
  797MOL0     H 9931   2.996   5.703   2.979  0.7674 -1.7204  0.0476
  797MOL0     H 9932   2.926   5.559   3.009  0.4232  0.1967 -3.3553
  797MOL0     H 9933   3.012   5.765   3.223  0.1035 -0.6486 -0.3207
  797MOL0     H 9934   2.948   5.601   3.254  0.0186 -1.1920 -0.3474
  797MOL0     H 9935   3.108   5.405   3.105 -2.1334  0.5290  0.9731
  797MOL0     H 9936   3.495   5.433   3.006 -0.9794  2.7315  1.8000
  797MOL0     H 9937   3.369   5.303   3.002 -1.5034  0.7584 -0.0321
  797MOL0     H 9938   3.604   5.294   3.148  0.1066 -2.8621 -1.3493
  797MOL0     H 9939   3.495   5.349   3.271  1.6986 -0.6907  1.2790
  797MOL0     H 9940   3.459   5.122   3.069  1.2610  1.7246  0.0765
  797MOL0     H 9941   3.504   5.090   3.229  2.1153  0.0987 -2.7420
  797MOL0     H 9942   3.299   5.042   3.274  4.8762  0.8865  1.4390
  797MOL0     H 9943   3.277   5.210   3.306  0.7591 -1.7464  2.3157
  797MOL0     H 9944   3.098   4.974   3.291  0.5927  0.4503 -1.5818
  797MOL0     H 9945   2.834   4.785   3.308 -1.2666  0.5340 -0.2625
  797MOL0     H 9946   2.785   4.921   3.413  0.8707  1.2074  0.5749
  797MOL0     H 9947   2.962   4.860   3.402  0.5271 -0.4541 -0.5187
  797MOL0     H 9948   2.435   4.846   3.075  1.2861  0.0169  0.2080
  797MOL0     H 9949   2.194   4.801   3.112 -0.3533 -0.1442  4.6675
  797MOL0     H 9950   1.878   5.116   3.193  0.0029 -1.2470  2.1661
  797MOL0     H 9951   1.944   5.113   3.029 -0.6331 -2.8019 -2.3350
  797MOL0     H 9952   1.779   4.880   3.140  0.2418  0.8655  1.0638
  797MOL0     H 9953   1.695   5.025   3.077 -0.5490  0.1554 -3.4921
  797MOL0     H 9954   1.839   5.011   2.860 -0.6003 -0.4305 -0.7638
  797MOL0     H 9955   1.715   4.900   2.874  1.3533 -3.1058 -1.3308
  797MOL0     H 9956   2.002   4.821   2.945 -0.0703 -0.6672  1.6043
  797MOL0     H 9957   1.940   4.832   2.779 -0.6157 -3.0690 -0.6646
  797MOL0     H 9958   1.818   4.666   3.008 -0.7983 -0.4034 -1.2597
  797MOL0     H 9959   1.747   4.674   2.851  0.5925 -0.8879 -0.9822
  797MOL0     H 9960   1.967   4.598   2.750  1.6611  2.7848  0.7346
  797MOL0     H 9961   1.890   4.476   2.834 -1.5907 -0.1888 -0.1728
  797MOL0     H 9962   2.116   4.637   2.972  1.0115  0.1442 -1.2440
  797MOL0     H 9963   2.142   4.521   2.841 -1.1930  1.2684 -1.7353
  797MOL0     H 9964   2.057   4.337   2.990  0.3225 -1.2862  0.7129
  797MOL0     H 9965   2.023   4.459   3.119  1.3138  0.9368  0.0804
  797MOL0     H 9966   2.125   5.220   3.150  0.2117 -0.3287 -1.7539
  797MOL0     H 9967   2.368   5.267   3.103  0.9903 -0.1610 -0.3199
  797MOL0     H 9968   2.764   5.192   3.012  1.2822  2.0578 -1.9325
  797MOL0     H 9969   2.991   5.251   2.982  1.4369  0.9434  0.3662
  797MOL0     H 9970   2.560   5.987   2.482 -1.3849  4.4426  0.3711
  797MOL0     H 9971   2.621   5.973   2.242 -0.1734  0.7028  0.3450
  797MOL0     H 9972   3.053   6.142   1.980  0.9395 -0.1845  0.0775
  797MOL0     H 9973   3.164   6.173   1.770  0.6169 -0.8920 -0.3278
  797MOL0     H 9974   3.020   5.968   1.397  0.0182  0.1836 -0.3876
  797MOL0     H 9975   2.930   6.114   1.441  0.1352 -0.7242 -1.7098
  797MOL0     H 9976   3.071   6.134   1.230 -0.3266  1.9113  0.7697
  797MOL0     H 9977   3.213   6.144   1.339  0.2677 -0.5429 -2.9446
  797MOL0     H 9978   2.976   6.329   1.311 -0.2096  0.1079  0.0265
  797MOL0     H 9979   3.074   6.307   1.468  1.3418  0.6381 -0.4680
  797MOL0     H 9980   3.141   6.447   1.212 -0.8714 -1.4195 -0.3105
  797MOL0     H 9981   3.279   6.371   1.304 -0.2275 -1.1869  2.1822
  797MOL0     H 9982   3.227   6.673   1.574 -0.1938 -0.6602  1.1374
  797MOL0     H 9983   2.865   5.930   1.581 -1.7211  0.0835  0.3953
  797MOL0     H 9984   2.625   5.993   1.811 -1.4790 -1.4649 -1.9966
  797MOL0     H 9985   2.671   5.882   1.679  0.0768  0.2427 -0.7526
  797MOL0     H 9986   2.666   5.822   1.830 -5.7298  2.0523  0.7658
  798MOL0     O 9987   5.783   7.882   4.239 -0.3257  0.1602  0.4868
  798MOL0     C 9988   5.831   7.879   4.351  0.2968  0.1369  0.3765
  798MOL0     O 9989   5.858   7.985   4.426 -0.2110 -0.2207  0.3231
  798MOL0     C 9990   5.878   8.102   4.360 -0.0614  1.2290 -0.6627
  798MOL0     C 9991   5.978   8.112   4.258  0.2317 -0.2531  0.2833
  798MOL0     C 9992   6.017   8.226   4.196  0.1517 -0.2607 -0.0136
  798MOL0     C 9993   5.956   8.350   4.240  0.6969 -0.1654 -0.2473
  798MOL0     O 9994   5.993   8.471   4.187  0.0725 -0.4254 -0.0673
  798MOL0     C 9995   6.122   8.490   4.128 -0.4086  1.1395 -0.7020
  798MOL0     C 9996   6.147   8.644   4.097 -0.1632 -0.5464  0.0257
  798MOL0     C 9997   6.036   8.730   4.040 -0.1355 -0.1466  0.4928
  798MOL0     C 9998   6.017   8.718   3.888  0.4050  0.2679 -0.6835
  798MOL0     C 9999   5.920   8.830   3.844 -0.1837 -0.7789  0.4201
  798MOL0     C10000   5.910   8.828   3.689 -0.0890  0.5805  0.1196
  798MOL0     C10001   5.781   8.896   3.648 -0.1544  1.4246 -0.1870
  798MOL0     C10002   5.799   9.047   3.641  0.0801 -0.1091 -0.3570
  798MOL0     N10003   5.904   9.087   3.551 -0.3781 -0.3775 -0.0743
  798MOL0     C10004   6.022   9.155   3.584  0.6666  1.4584 -0.0941
  798MOL0     C10005   6.085   9.176   3.467  0.4565  0.1902 -0.5065
  798MOL0     C10006   6.222   9.230   3.452  0.4132  0.8485 -0.2230
  798MOL0     C10007   6.212   9.378   3.417 -0.1628  1.2262  0.2647
  798MOL0     C10008   6.225   9.398   3.265  0.5429  0.3928  0.2406
  798MOL0     C10009   6.357   9.383   3.197 -0.7487  0.1791 -0.5058
  798MOL0     O10010   6.443   9.495   3.239  0.0912 -0.3672  0.4429
  798MOL0     C10011   6.572   9.504   3.198  0.7507  0.0566  0.9874
  798MOL0     C10012   6.647   9.583   3.274 -0.5359 -0.2996 -0.6062
  798MOL0     C10013   6.788   9.579   3.274 -0.1938  0.0670 -0.0276
  798MOL0     C10014   6.871   9.680   3.352 -0.4157  0.2433  0.0885
  798MOL0     C10015   6.854   9.502   3.172 -0.3188  0.1574 -0.9272
  798MOL0     C10016   7.003   9.509   3.157 -0.4870  0.6532 -0.5759
  798MOL0     O10017   7.089   9.482   3.264  0.3075  0.5617  0.4572
  798MOL0     C10018   7.224   9.484   3.239  0.7626 -0.3988  0.5829
  798MOL0     C10019   7.312   9.386   3.291  0.2134  0.0146  0.4115
  798MOL0     C10020   7.448   9.386   3.266 -0.0598  0.5089  0.0441
  798MOL0     C10021   7.504   9.486   3.195 -0.6905  0.1779 -0.2565
  798MOL0     O10022   7.639   9.479   3.180 -0.5806 -0.1857 -0.0243
  798MOL0     C10023   7.695   9.458   3.053  0.1521 -0.1804  0.4578
  798MOL0     C10024   7.827   9.388   3.063  0.5324 -1.1542 -0.0125
  798MOL0     C10025   7.802   9.237   3.092  0.1513 -0.5767  0.3720
  798MOL0     C10026   7.841   9.147   2.975  0.5227  0.6361 -0.1757
  798MOL0     C10027   7.798   9.001   3.005  0.0409  0.2478  0.0609
  798MOL0     C10028   7.857   8.893   2.900 -0.0372 -0.9019 -0.6016
  798MOL0     C10029   7.787   8.752   2.922 -0.5336 -0.5548 -0.0597
  798MOL0     C10030   7.832   8.647   2.828 -0.6769  0.2786  0.2319
  798MOL0    Cl10031   8.000   8.614   2.868 -0.3300  0.1260 -0.3334
  798MOL0     C10032   7.428   9.585   3.143 -0.0968  0.3833  0.2184
  798MOL0     C10033   7.286   9.587   3.166  0.4246 -0.4473  0.5422
  798MOL0     O10034   7.037   9.533   3.046 -0.4228  0.2603  0.2996
  798MOL0     C10035   6.769   9.422   3.097 -1.0941  0.1509 -0.9952
  798MOL0     C10036   6.628   9.421   3.103 -0.2683  0.6851  0.5629
  798MOL0     N10037   6.002   9.140   3.365  0.1088  0.1417 -0.5503
  798MOL0     N10038   5.896   9.083   3.416 -0.0606 -0.5015  0.6994
  798MOL0     C10039   5.851   8.344   4.332  0.2382  0.4879 -0.6332
  798MOL0     C10040   5.813   8.220   4.392 -0.2372 -0.9263 -0.0912
  798MOL0     C10041   5.840   7.748   4.419  0.6717  0.5667  0.0115
  798MOL0     C10042   5.756   7.643   4.363 -0.0462  1.3045  0.1256
  798MOL0     C10043   5.742   7.523   4.431  0.6187 -0.1386 -0.2367
  798MOL0     C10044   5.816   7.501   4.544 -0.1754  0.8738  0.5261
  798MOL0     O10045   5.785   7.372   4.594  0.1890  0.5700 -0.3459
  798MOL0     C10046   5.748   7.362   4.736 -0.3500  0.0374  0.2207
  798MOL0     C10047   5.878   7.349   4.815 -0.5061  0.3083 -0.0664
  798MOL0     C10048   5.844   7.305   4.951 -1.1145 -0.6772 -0.2647
  798MOL0     C10049   5.965   7.318   5.049 -0.6975  0.5097 -0.1872
  798MOL0     C10050   6.048   7.196   5.040 -1.0484  0.6874  0.7799
  798MOL0     C10051   6.126   7.106   5.030  0.3604  1.1800  0.7215
  798MOL0     C10052   5.908   7.599   4.590 -0.3644  0.2332 -0.0588
  798MOL0     C10053   5.924   7.725   4.529  0.1002 -0.0741 -0.2871
  798MOL0     C10054   6.018   7.822   4.601 -0.0662 -0.8657  0.8427
  798MOL0     H10055   6.044   8.030   4.234  2.2841  0.3375  3.2980
  798MOL0     H10056   6.109   8.228   4.139 -1.9805  1.1222 -3.8268
  798MOL0     H10057   6.129   8.431   4.036 -0.5373 -0.3903  0.2284
  798MOL0     H10058   6.200   8.455   4.196  0.1060  1.5460 -1.0735
  798MOL0     H10059   6.192   8.680   4.191  2.5494 -0.4511 -1.1993
  798MOL0     H10060   6.224   8.646   4.020 -1.1944 -0.8267 -1.0291
  798MOL0     H10061   5.935   8.708   4.076 -0.5311 -0.4154 -0.7265
  798MOL0     H10062   6.052   8.834   4.067  0.3111 -0.2656  0.6810
  798MOL0     H10063   6.113   8.734   3.838  1.4589 -0.4080  1.0198
  798MOL0     H10064   5.989   8.617   3.855  3.5734 -0.8304 -0.3869
  798MOL0     H10065   5.958   8.932   3.861  1.4192 -1.2088 -0.4092
  798MOL0     H10066   5.826   8.822   3.899 -0.8038 -0.7806 -0.6234
  798MOL0     H10067   6.001   8.872   3.649  1.6341 -3.5217 -1.0467
  798MOL0     H10068   5.914   8.729   3.643  0.7425  1.7777 -2.5494
  798MOL0     H10069   5.700   8.848   3.704  0.9110  0.1751  0.3502
  798MOL0     H10070   5.781   8.854   3.547 -1.6521 -0.9792  0.7045
  798MOL0     H10071   5.699   9.080   3.611 -2.1289 -1.9089  4.0745
  798MOL0     H10072   5.810   9.099   3.737  3.7284 -1.0959 -0.0849
  798MOL0     H10073   6.067   9.169   3.681  0.7495 -0.2355  0.1481
  798MOL0     H10074   6.292   9.171   3.391 -0.8434  0.3181 -1.1900
  798MOL0     H10075   6.256   9.233   3.556 -3.4995  2.4056  1.1882
  798MOL0     H10076   6.113   9.416   3.444 -0.7654  1.3085 -1.8757
  798MOL0     H10077   6.279   9.440   3.477  1.9645 -2.4752  2.0851
  798MOL0     H10078   6.150   9.346   3.205  2.4579 -1.1582 -0.9188
  798MOL0     H10079   6.196   9.503   3.250  1.3266  0.3447 -1.9884
  798MOL0     H10080   6.406   9.289   3.224  1.9627  1.8944  1.1491
  798MOL0     H10081   6.337   9.378   3.090 -0.8860 -0.3945 -0.4559
  798MOL0     H10082   6.596   9.638   3.353  0.1849  0.6607 -0.8012
  798MOL0     H10083   6.923   9.638   3.438 -0.5342 -2.2662 -0.9664
  798MOL0     H10084   6.813   9.765   3.387  1.2719  1.2722  0.5014
  798MOL0     H10085   6.942   9.722   3.280 -0.2109 -0.7902 -0.3421
  798MOL0     H10086   7.269   9.298   3.337 -0.0563 -2.6650 -4.3520
  798MOL0     H10087   7.505   9.298   3.293  0.5367 -0.0762 -2.8089
  798MOL0     H10088   7.627   9.420   2.976  0.0675  1.7157 -0.4686
  798MOL0     H10089   7.718   9.559   3.018 -0.8663 -0.0292  0.1732
  798MOL0     H10090   7.895   9.412   2.981  1.0040 -1.6932  0.2168
  798MOL0     H10091   7.884   9.425   3.149  0.3733  1.5483 -0.9920
  798MOL0     H10092   7.698   9.216   3.118  0.0057 -0.2251  0.0849
  798MOL0     H10093   7.870   9.219   3.176  2.9555 -0.5217 -1.7471
  798MOL0     H10094   7.949   9.146   2.962  0.8060 -0.1991  1.7607
  798MOL0     H10095   7.795   9.174   2.880  0.3023  1.8352  0.2542
  798MOL0     H10096   7.838   8.983   3.105 -2.6431 -0.9259  1.0230
  798MOL0     H10097   7.689   8.997   3.014 -0.0265 -1.9357 -1.0081
  798MOL0     H10098   7.963   8.895   2.928  0.3100  1.8358 -1.7980
  798MOL0     H10099   7.858   8.922   2.795  1.0830  0.6911 -0.1838
  798MOL0     H10100   7.678   8.761   2.917 -0.3339  2.6954 -4.3000
  798MOL0     H10101   7.814   8.716   3.022 -0.6893  1.1052  0.6177
  798MOL0     H10102   7.823   8.676   2.724  0.4253  0.4767  0.1815
  798MOL0     H10103   7.784   8.551   2.852 -0.0537 -0.1442 -0.1813
  798MOL0     H10104   7.486   9.657   3.085 -1.5013  0.7283 -0.8093
  798MOL0     H10105   7.223   9.666   3.125  2.2132 -0.3947 -2.3977
  798MOL0     H10106   6.826   9.355   3.034  5.1269  3.8390 -0.1163
  798MOL0     H10107   6.578   9.336   3.058 -1.3495  1.8308 -0.5016
  798MOL0     H10108   5.790   8.431   4.356 -0.4049 -0.1084 -0.0516
  798MOL0     H10109   5.745   8.205   4.475 -0.1926 -0.4028  0.0419
  798MOL0     H10110   5.711   7.677   4.270 -0.4134  2.7631  0.8055
  798MOL0     H10111   5.673   7.454   4.383 -2.0109  0.0389  2.9018
  798MOL0     H10112   5.706   7.460   4.756 -1.3666  0.0676 -1.7806
  798MOL0     H10113   5.676   7.282   4.756 -1.9997  1.3151 -0.4472
  798MOL0     H10114   5.923   7.447   4.835 -1.4020  0.4238  1.5503
  798MOL0     H10115   5.959   7.289   4.772  0.2781  1.4946 -0.3137
  798MOL0     H10116   5.765   7.370   4.991  0.8784  4.2138 -3.3294
  798MOL0     H10117   5.808   7.202   4.951 -0.5984 -0.8672 -1.2764
  798MOL0     H10118   5.936   7.312   5.154  0.7365 -1.1442  0.1756
  798MOL0     H10119   6.018   7.413   5.044 -2.9926  1.7738 -3.0817
  798MOL0     H10120   6.190   7.021   5.031 -0.2833  0.6231 -1.1152
  798MOL0     H10121   5.972   7.569   4.672 -0.3753 -0.5340 -0.3317
  798MOL0     H10122   6.071   7.882   4.526  0.0130 -2.5978 -0.5621
  798MOL0     H10123   5.948   7.873   4.668 -2.3090 -1.9036 -0.6201
  798MOL0     H10124   6.090   7.765   4.661  1.4456  0.3215  0.2436
  799MOL0     O10125   2.286  11.215   4.626  0.4446 -0.3912 -0.6439
  799MOL0     C10126   2.318  11.317   4.687  0.3103  0.4241  0.8171
  799MOL0     O10127   2.447  11.357   4.713 -0.3786 -0.0625  0.0764
  799MOL0     C10128   2.542  11.269   4.672  0.5149 -0.1226  0.4582
  799MOL0     C10129   2.579  11.277   4.540 -0.4343 -0.5982  0.1681
  799MOL0     C10130   2.701  11.232   4.494 -0.2059  0.2836  0.6591
  799MOL0     C10131   2.801  11.184   4.583 -0.6650  0.9739 -0.4949
  799MOL0     O10132   2.926  11.149   4.545 -0.5775  0.1392 -0.2178
  799MOL0     C10133   2.931  11.057   4.434  0.3281  0.1660  0.3822
  799MOL0     C10134   3.070  11.032   4.379  0.1451 -0.2712  0.0380
  799MOL0     C10135   3.160  10.958   4.473 -0.6500  0.0372 -0.1942
  799MOL0     C10136   3.304  10.919   4.421  0.4518  0.7521 -0.8668
  799MOL0     C10137   3.403  10.898   4.537  0.9490  0.5199 -0.7090
  799MOL0     C10138   3.544  10.888   4.476  0.1620 -0.2758  0.0467
  799MOL0     C10139   3.657  10.861   4.576 -0.4844 -0.0545 -0.2429
  799MOL0     C10140   3.783  10.804   4.505 -1.1449 -0.3358 -0.0835
  799MOL0     N10141   3.853  10.891   4.405  0.3186 -1.1107 -0.1262
  799MOL0     C10142   3.840  11.027   4.387  0.2127  0.1717 -0.4105
  799MOL0     C10143   3.918  11.054   4.275 -0.1402  0.1021 -0.4103
  799MOL0     C10144   3.944  11.179   4.205 -0.2829  0.4668 -0.0366
  799MOL0     C10145   4.029  11.281   4.294 -0.5061 -0.2940  0.1526
  799MOL0     C10146   4.070  11.398   4.211  0.4719 -0.3388  0.4078
  799MOL0     C10147   4.157  11.495   4.298  0.1611 -0.5568 -0.5578
  799MOL0     O10148   4.297  11.450   4.293 -0.0921 -0.1925  0.2056
  799MOL0     C10149   4.389  11.538   4.347 -0.0195  1.0805  0.5104
  799MOL0     C10150   4.364  11.656   4.417  0.5139  0.7221  0.0415
  799MOL0     C10151   4.468  11.736   4.469 -0.2881  0.1143 -0.5510
  799MOL0     C10152   4.420  11.862   4.533  0.0748  0.1192 -0.8489
  799MOL0     C10153   4.602  11.693   4.457  0.0165  0.5251  0.3953
  799MOL0     C10154   4.715  11.776   4.502  0.8676 -0.4008  0.2978
  799MOL0     O10155   4.693  11.897   4.573 -0.1163 -0.2881 -0.3173
  799MOL0     C10156   4.791  11.992   4.607 -0.9302 -0.5883 -0.0577
  799MOL0     C10157   4.749  12.095   4.691  0.2591  0.4279 -0.3277
  799MOL0     C10158   4.834  12.202   4.732  0.5102 -0.2912  1.2136
  799MOL0     C10159   4.968  12.202   4.680  0.9767  0.2830 -0.7507
  799MOL0     O10160   5.062  12.305   4.702 -0.4235 -0.2065 -0.6373
  799MOL0     C10161   4.998  12.437   4.705 -0.2409  0.0586 -0.3824
  799MOL0     C10162   5.113  12.536   4.712 -0.0208 -0.3492 -0.1716
  799MOL0     C10163   5.056  12.683   4.701 -0.2445 -0.1721  0.7390
  799MOL0     C10164   5.149  12.795   4.755 -0.0519 -0.3958 -0.2406
  799MOL0     C10165   5.297  12.796   4.720  0.0355  0.5371 -0.5123
  799MOL0     C10166   5.329  12.832   4.573  0.7387  0.0338  0.1752
  799MOL0     C10167   5.274  12.957   4.516  0.0254  0.0861  0.6381
  799MOL0     C10168   5.318  13.076   4.598 -0.4436 -0.4695 -0.2821
  799MOL0    Cl10169   5.231  13.235   4.567  0.2557  0.0449 -0.0985
  799MOL0     C10170   5.005  12.108   4.590 -0.0300 -0.1276  0.2244
  799MOL0     C10171   4.919  12.005   4.548 -0.1637 -0.1290 -1.1717
  799MOL0     O10172   4.831  11.730   4.491  0.2224  0.3092 -0.7267
  799MOL0     C10173   4.629  11.571   4.386  0.6652 -0.9965  0.0997
  799MOL0     C10174   4.524  11.486   4.343 -0.4961 -0.7281 -0.4664
  799MOL0     N10175   3.971  10.932   4.223  0.0715  0.6540 -0.1638
  799MOL0     N10176   3.925  10.840   4.299  0.4282 -0.4624  0.0199
  799MOL0     C10177   2.761  11.173   4.719 -1.2035  0.2071  0.7378
  799MOL0     C10178   2.631  11.214   4.765 -0.7033  0.1142  0.3670
  799MOL0     C10179   2.204  11.395   4.753 -0.4882  0.9253  0.2337
  799MOL0     C10180   2.242  11.521   4.787 -0.7235  0.3901  0.5033
  799MOL0     C10181   2.149  11.609   4.835  0.0304 -0.9927  0.1753
  799MOL0     C10182   2.013  11.573   4.842 -0.2296 -0.8006  0.4852
  799MOL0     O10183   1.900  11.652   4.874 -0.4028  0.5701  0.2232
  799MOL0     C10184   1.931  11.780   4.934 -0.3727 -1.3476  0.3390
  799MOL0     C10185   1.808  11.849   4.989 -0.2265  0.0843 -0.8026
  799MOL0     C10186   1.688  11.850   4.899  0.8408 -0.7085 -0.5338
  799MOL0     C10187   1.579  11.953   4.958  0.4635  0.9014  0.2289
  799MOL0     C10188   1.445  11.896   4.958 -0.2509 -0.4216  0.3419
  799MOL0     C10189   1.338  11.842   4.960  0.5328 -0.6044  0.3189
  799MOL0     C10190   1.981  11.439   4.819 -0.4038  0.2090 -0.1697
  799MOL0     C10191   2.074  11.342   4.778 -1.0172 -0.3276 -0.0225
  799MOL0     C10192   2.032  11.202   4.753 -0.1536  0.1341  0.0512
  799MOL0     H10193   2.509  11.323   4.470 -1.1940 -1.1901  0.5258
  799MOL0     H10194   2.726  11.246   4.390 -0.7961 -2.3900  0.0949
  799MOL0     H10195   2.880  11.098   4.346  0.0339  0.5155  0.7185
  799MOL0     H10196   2.880  10.962   4.454 -0.5085 -0.3086 -3.2204
  799MOL0     H10197   3.066  10.972   4.287  3.5420 -1.1798  0.3577
  799MOL0     H10198   3.110  11.131   4.355 -0.3141 -0.0863  0.0275
  799MOL0     H10199   3.166  11.022   4.561 -0.3526 -0.8123  0.4181
  799MOL0     H10200   3.106  10.870   4.509 -0.9499  1.2031  2.3964
  799MOL0     H10201   3.304  10.817   4.383  0.3815 -0.1587  1.3872
  799MOL0     H10202   3.340  10.989   4.346  1.5274  1.1710  0.0146
  799MOL0     H10203   3.383  10.811   4.599  2.6292  3.2346  4.2132
  799MOL0     H10204   3.394  10.975   4.614  2.0154  0.0032 -0.0363
  799MOL0     H10205   3.537  10.808   4.401 -0.3635  0.3203 -0.5426
  799MOL0     H10206   3.573  10.985   4.435  0.1737  0.1623  1.0528
  799MOL0     H10207   3.632  10.790   4.656  2.6474  0.7795  1.6810
  799MOL0     H10208   3.692  10.952   4.627 -0.5787  0.7567 -1.5797
  799MOL0     H10209   3.861  10.776   4.576 -1.5950  0.2614  0.6616
  799MOL0     H10210   3.761  10.717   4.443  3.5323 -0.9713 -1.2147
  799MOL0     H10211   3.795  11.099   4.455  1.6602  0.4156  0.3369
  799MOL0     H10212   3.852  11.228   4.173  1.0369  3.5051  0.4376
  799MOL0     H10213   4.013  11.155   4.123 -0.3344 -2.9029  0.7584
  799MOL0     H10214   3.968  11.303   4.381 -0.5511 -0.8917  0.2796
  799MOL0     H10215   4.116  11.226   4.332  0.4576  0.1286 -1.3318
  799MOL0     H10216   4.126  11.369   4.122 -1.9315  1.3145 -1.8103
  799MOL0     H10217   3.980  11.453   4.182  0.3936 -1.4294 -1.5946
  799MOL0     H10218   4.135  11.598   4.267  2.1416 -0.9660 -3.8030
  799MOL0     H10219   4.128  11.497   4.404  2.5942  1.1114  0.1695
  799MOL0     H10220   4.260  11.686   4.413  0.6567  1.1040 -1.7509
  799MOL0     H10221   4.460  11.953   4.486 -2.4841  0.9900 -1.5221
  799MOL0     H10222   4.437  11.861   4.641  1.9188 -2.5916 -1.0770
  799MOL0     H10223   4.311  11.851   4.526  0.0895 -3.1795  1.6665
  799MOL0     H10224   4.648  12.085   4.729  1.4271 -1.4307  2.5528
  799MOL0     H10225   4.796  12.271   4.807  1.8019  0.8094  0.9049
  799MOL0     H10226   4.940  12.457   4.615  0.2768  1.2357 -0.4761
  799MOL0     H10227   4.937  12.449   4.795  1.4934  1.6184  0.6438
  799MOL0     H10228   5.168  12.532   4.807 -0.1594  2.8127  0.1688
  799MOL0     H10229   5.177  12.520   4.624 -0.9225  0.8868 -1.0914
  799MOL0     H10230   4.957  12.694   4.746  0.3690 -2.6758  2.9508
  799MOL0     H10231   5.040  12.708   4.596 -0.9982  2.3276  1.3898
  799MOL0     H10232   5.158  12.795   4.864 -0.6796 -2.6595 -0.1247
  799MOL0     H10233   5.101  12.889   4.730  0.8541  0.0078 -0.4881
  799MOL0     H10234   5.329  12.869   4.795 -1.0082 -1.1002  1.6199
  799MOL0     H10235   5.336  12.697   4.746 -1.3860 -0.3398 -1.5866
  799MOL0     H10236   5.287  12.747   4.519  0.2960 -0.5344  1.3857
  799MOL0     H10237   5.434  12.821   4.547  0.2011 -3.0380 -1.1742
  799MOL0     H10238   5.166  12.948   4.502 -0.0665 -2.4635  2.3492
  799MOL0     H10239   5.320  12.969   4.417  2.5135 -2.6591  1.3429
  799MOL0     H10240   5.424  13.099   4.583 -0.6189  0.7668  0.2414
  799MOL0     H10241   5.306  13.057   4.705 -3.3713  1.9430 -0.0154
  799MOL0     H10242   5.105  12.127   4.553  0.6481  0.3013  2.1678
  799MOL0     H10243   4.949  11.937   4.469  0.5262 -0.1008 -0.9410
  799MOL0     H10244   4.734  11.544   4.381  0.5848 -1.4338  0.6737
  799MOL0     H10245   4.558  11.391   4.302 -2.1496 -1.6474  0.2197
  799MOL0     H10246   2.840  11.139   4.786  0.4239  1.5281 -0.4436
  799MOL0     H10247   2.604  11.213   4.870  0.5042  3.0172  0.8101
  799MOL0     H10248   2.343  11.561   4.777 -0.7461  0.1811 -0.7253
  799MOL0     H10249   2.177  11.706   4.876 -1.6658 -1.0406  1.5942
  799MOL0     H10250   1.998  11.765   5.019 -0.6080 -0.1435  0.7520
  799MOL0     H10251   1.968  11.856   4.864 -4.0902  0.0179 -0.3912
  799MOL0     H10252   1.835  11.952   5.016  0.9954 -0.7693  1.5624
  799MOL0     H10253   1.773  11.799   5.080 -0.1416  0.5090 -0.5280
  799MOL0     H10254   1.718  11.893   4.803  0.8408  1.2490  0.2990
  799MOL0     H10255   1.652  11.748   4.881 -0.4163 -0.4682  0.4353
  799MOL0     H10256   1.576  12.035   4.886 -0.3710 -0.0774 -0.9004
  799MOL0     H10257   1.608  11.989   5.057  3.3996 -1.0224  0.1995
  799MOL0     H10258   1.242  11.795   4.970  0.7927 -1.6792 -1.8245
  799MOL0     H10259   1.878  11.404   4.828 -0.1884 -0.7628 -1.3926
  799MOL0     H10260   2.088  11.132   4.816 -1.6344 -2.5795 -1.4843
  799MOL0     H10261   1.927  11.194   4.783  0.3777  0.1678  2.0760
  799MOL0     H10262   2.048  11.173   4.649  2.7000 -1.7013  0.8760
  800MOL0     O10263   8.963   9.232   8.658 -0.3877  0.0890  0.4345
  800MOL0     C10264   9.053   9.205   8.745  0.1439 -0.7752  0.0035
  800MOL0     O10265   9.035   9.129   8.861 -0.2974  0.0653  0.3418
  800MOL0     C10266   8.926   9.042   8.855 -0.4179  0.3650  1.0992
  800MOL0     C10267   8.885   8.981   8.730  0.1695 -0.0102 -0.2514
  800MOL0     C10268   8.756   8.925   8.725 -0.3997 -0.2759 -0.0259
  800MOL0     C10269   8.671   8.928   8.835 -0.3746 -0.7088  0.0867
  800MOL0     O10270   8.545   8.869   8.824 -0.4637  0.3038 -0.3754
  800MOL0     C10271   8.497   8.805   8.947  0.0724 -0.2052 -0.1711
  800MOL0     C10272   8.368   8.728   8.915 -0.5638  0.1627  0.1164
  800MOL0     C10273   8.304   8.649   9.026  1.4602  0.1958 -0.5648
  800MOL0     C10274   8.400   8.564   9.112 -0.1871 -0.1059 -0.1002
  800MOL0     C10275   8.331   8.457   9.197  0.2435  0.1027 -0.6667
  800MOL0     C10276   8.415   8.375   9.294 -0.4321  0.2469 -0.1985
  800MOL0     C10277   8.349   8.235   9.330 -0.6393  0.1723 -0.5455
  800MOL0     C10278   8.455   8.123   9.326  0.1319 -0.1694  0.2777
  800MOL0     N10279   8.553   8.130   9.435  0.1198 -0.0592  1.1217
  800MOL0     C10280   8.659   8.218   9.445 -0.6775 -0.8402 -0.3056
  800MOL0     C10281   8.714   8.196   9.567  0.6034 -0.6359  0.9656
  800MOL0     C10282   8.830   8.270   9.639  0.6036  0.1010 -0.0823
  800MOL0     C10283   8.910   8.182   9.730  0.0761 -0.8038  0.9248
  800MOL0     C10284   9.014   8.270   9.808  0.4404 -0.4045  0.4370
  800MOL0     C10285   9.136   8.318   9.724 -0.4735  0.8666 -0.7915
  800MOL0     O10286   9.240   8.372   9.812  0.0366  0.3793 -0.3970
  800MOL0     C10287   9.356   8.414   9.753 -0.1087 -0.4814  0.3909
  800MOL0     C10288   9.391   8.401   9.623  0.3589  0.8528  0.5075
  800MOL0     C10289   9.508   8.468   9.574 -0.4594 -0.4869 -0.2156
  800MOL0     C10290   9.529   8.464   9.422  0.4825  0.0971 -0.2777
  800MOL0     C10291   9.592   8.543   9.664 -0.8181 -0.3417  0.0667
  800MOL0     C10292   9.724   8.627   9.625  0.4055  0.1920 -0.8894
  800MOL0     O10293   9.762   8.728   9.714 -0.5916 -0.2060  0.2785
  800MOL0     C10294   9.890   8.771   9.725 -0.3062  0.3904 -0.5615
  800MOL0     C10295   9.904   8.900   9.788  1.3173  0.9989  0.0834
  800MOL0     C10296  10.031   8.951   9.813  0.6936  1.2341  0.2110
  800MOL0     C10297  10.146   8.876   9.771  0.4619  0.3542  0.0012
  800MOL0     O10298  10.273   8.919   9.778  0.6219  0.7369 -0.4583
  800MOL0     C10299  10.290   9.042   9.841  0.7471 -0.5998 -0.6337
  800MOL0     C10300  10.432   9.085   9.851  0.6200  1.6417 -0.8144
  800MOL0     C10301  10.510   9.070   9.721 -0.0648  0.6485  0.2943
  800MOL0     C10302  10.479   9.169   9.611 -0.4210 -0.0968 -0.7122
  800MOL0     C10303  10.586   9.183   9.492 -0.4448 -0.9166  0.6062
  800MOL0     C10304  10.650   9.050   9.457 -0.1281  0.1276  0.5887
  800MOL0     C10305  10.545   8.960   9.395 -0.3549  0.2628  0.4370
  800MOL0     C10306  10.612   8.823   9.347  0.3920 -0.4777 -0.6818
  800MOL0    Cl10307  10.728   8.867   9.233 -0.0847 -0.0169  0.2728
  800MOL0     C10308  10.131   8.749   9.715  0.7412 -0.1800  0.1493
  800MOL0     C10309  10.004   8.690   9.701 -0.1289  0.1124  0.3666
  800MOL0     O10310   9.789   8.589   9.526 -0.0420  0.1567 -0.0074
  800MOL0     C10311   9.559   8.535   9.796  0.3214 -0.5089 -0.5085
  800MOL0     C10312   9.444   8.478   9.835  0.2844 -0.4975  0.1917
  800MOL0     N10313   8.645   8.088   9.618  0.1642  0.6891 -0.0826
  800MOL0     N10314   8.557   8.043   9.537  0.2768 -0.1685 -0.3036
  800MOL0     C10315   8.707   9.003   8.946  0.0324 -0.6479 -0.0517
  800MOL0     C10316   8.836   9.045   8.955  0.0520 -0.0853  0.9289
  800MOL0     C10317   9.191   9.265   8.731  0.5710 -0.0232  0.2998
  800MOL0     C10318   9.292   9.218   8.816 -0.0146  0.1947  0.6679
  800MOL0     C10319   9.425   9.259   8.803 -0.1592 -0.3673 -0.4764
  800MOL0     C10320   9.462   9.352   8.722  0.4169 -0.2666  1.1714
  800MOL0     O10321   9.590   9.397   8.727 -1.1814 -0.5920  0.4861
  800MOL0     C10322   9.617   9.517   8.806  0.4101  0.1786  0.0872
  800MOL0     C10323   9.759   9.517   8.861 -0.6645  0.0356 -0.4672
  800MOL0     C10324   9.855   9.566   8.749 -0.9470  0.5782 -0.6033
  800MOL0     C10325  10.002   9.556   8.791 -0.6654 -0.3651  0.0804
  800MOL0     C10326  10.071   9.651   8.700  0.4954  1.6275  0.5764
  800MOL0     C10327  10.121   9.734   8.629  0.2170  0.9124 -1.1090
  800MOL0     C10328   9.352   9.414   8.642 -0.7814 -0.1079  0.3420
  800MOL0     C10329   9.219   9.377   8.652  0.6393  0.4840  0.4451
  800MOL0     C10330   9.118   9.444   8.548 -0.5111  0.1102 -1.1420
  800MOL0     H10331   8.931   8.989   8.632  0.2567  0.2077 -0.1922
  800MOL0     H10332   8.734   8.885   8.626 -1.7084  1.6258 -0.5442
  800MOL0     H10333   8.471   8.879   9.024 -2.4239 -1.3514  0.1835
  800MOL0     H10334   8.576   8.739   8.983 -0.3488  0.8437  2.9831
  800MOL0     H10335   8.302   8.807   8.880 -1.7291 -0.8217  0.0347
  800MOL0     H10336   8.387   8.651   8.839  3.0198 -1.6195  2.4986
  800MOL0     H10337   8.258   8.723   9.092  2.0174 -0.4125  0.5380
  800MOL0     H10338   8.225   8.588   8.981 -0.0185  2.0055 -0.5630
  800MOL0     H10339   8.453   8.500   9.041 -0.7344 -0.5591 -0.1057
  800MOL0     H10340   8.473   8.623   9.169 -1.8694  2.8600 -0.8515
  800MOL0     H10341   8.287   8.387   9.126  1.3665 -3.6539  1.9920
  800MOL0     H10342   8.251   8.503   9.257 -0.5808  2.9451 -3.6688
  800MOL0     H10343   8.503   8.355   9.231 -0.8110 -0.2877 -0.5631
  800MOL0     H10344   8.438   8.438   9.380  1.1420  1.0731 -1.1666
  800MOL0     H10345   8.263   8.221   9.265 -1.4720  2.7877 -0.1185
  800MOL0     H10346   8.313   8.238   9.433  1.3608 -0.1636  0.2105
  800MOL0     H10347   8.400   8.031   9.347 -0.4220  0.2995  0.9091
  800MOL0     H10348   8.500   8.125   9.227  1.7657  1.2784  0.9920
  800MOL0     H10349   8.674   8.303   9.379  0.9246  0.7469  1.9607
  800MOL0     H10350   8.789   8.352   9.698  0.0601 -0.1137 -0.1558
  800MOL0     H10351   8.897   8.300   9.558  0.9896 -1.9840 -0.6010
  800MOL0     H10352   8.834   8.140   9.796  2.4972 -0.3999  4.1979
  800MOL0     H10353   8.966   8.098   9.686 -0.3016 -0.7078  0.2386
  800MOL0     H10354   8.967   8.351   9.865 -0.2845 -1.0191  0.7211
  800MOL0     H10355   9.045   8.202   9.888  2.2577  0.6095  0.6446
  800MOL0     H10356   9.175   8.226   9.679 -0.5866  1.4068 -2.0251
  800MOL0     H10357   9.115   8.392   9.646  1.1392 -0.8816 -3.0597
  800MOL0     H10358   9.332   8.344   9.552 -2.0546  0.3036  2.7733
  800MOL0     H10359   9.633   8.435   9.404  0.7504  0.9328 -0.1021
  800MOL0     H10360   9.517   8.562   9.377  1.6072 -0.0434 -0.9065
  800MOL0     H10361   9.458   8.398   9.370 -0.3821 -0.1153  1.1066
  800MOL0     H10362   9.822   8.960   9.824 -0.8092  0.3855 -3.2374
  800MOL0     H10363  10.037   9.041   9.874  1.7086  0.1795  1.7304
  800MOL0     H10364  10.235   9.117   9.783  2.2321 -1.5501 -3.4710
  800MOL0     H10365  10.247   9.035   9.941  0.3607  0.5537 -0.7032
  800MOL0     H10366  10.432   9.193   9.873  2.1918  1.1071  2.3346
  800MOL0     H10367  10.476   9.014   9.921 -1.3379 -0.2153 -1.3875
  800MOL0     H10368  10.505   8.969   9.679  1.3631  0.5369  0.3273
  800MOL0     H10369  10.615   9.089   9.746 -0.4349  1.6939  1.1337
  800MOL0     H10370  10.456   9.270   9.646 -0.6337  0.0094 -1.1542
  800MOL0     H10371  10.385   9.142   9.564 -0.5622  0.6247 -0.8576
  800MOL0     H10372  10.534   9.241   9.415  1.3008  0.5230  0.4347
  800MOL0     H10373  10.666   9.247   9.530  1.4025 -2.9109  0.2600
  800MOL0     H10374  10.705   9.003   9.539 -0.2828 -0.9815  0.0739
  800MOL0     H10375  10.736   9.066   9.391  2.4014 -3.0749  2.7942
  800MOL0     H10376  10.502   9.006   9.306  0.3852 -0.3254 -0.2364
  800MOL0     H10377  10.462   8.934   9.462 -0.2414  2.4959  1.5120
  800MOL0     H10378  10.532   8.758   9.311 -2.2992  0.3241  3.1995
  800MOL0     H10379  10.646   8.771   9.437 -2.1854  0.3575  0.8879
  800MOL0     H10380  10.225   8.698   9.695 -1.8397 -4.0201 -4.4235
  800MOL0     H10381   9.988   8.588   9.666 -0.9010 -0.7664  3.0776
  800MOL0     H10382   9.628   8.583   9.864  1.5040 -4.0497  0.9993
  800MOL0     H10383   9.402   8.487   9.935 -3.1453  1.5147 -1.2365
  800MOL0     H10384   8.649   9.013   9.038  2.0633  0.2613  1.1849
  800MOL0     H10385   8.852   9.087   9.054  0.6565  0.2158  0.7090
  800MOL0     H10386   9.272   9.130   8.877  1.0468 -0.5417  0.0105
  800MOL0     H10387   9.496   9.215   8.872 -0.4693  2.5234  1.9032
  800MOL0     H10388   9.594   9.614   8.761 -0.1254  1.1006  2.2250
  800MOL0     H10389   9.569   9.495   8.901  3.2607 -3.2699  0.9321
  800MOL0     H10390   9.773   9.411   8.885  2.9365  0.6150  0.4312
  800MOL0     H10391   9.774   9.562   8.959 -1.9137  1.4242 -0.8674
  800MOL0     H10392   9.833   9.516   8.654  2.2373  1.1799 -1.7779
  800MOL0     H10393   9.830   9.672   8.747 -0.5503  0.6621 -1.2314
  800MOL0     H10394  10.036   9.452   8.784 -0.5550 -0.4231  1.2483
  800MOL0     H10395  10.007   9.597   8.892 -1.6844  2.4934 -0.9341
  800MOL0     H10396  10.194   9.800   8.586  1.8160 -0.8058 -1.1649
  800MOL0     H10397   9.374   9.493   8.570 -0.1609 -1.1472 -0.6393
  800MOL0     H10398   9.147   9.545   8.519  0.8221  1.5925  4.2377
  800MOL0     H10399   9.107   9.380   8.459  1.3923  1.1855 -2.2135
  800MOL0     H10400   9.018   9.468   8.585 -0.4150  1.8657 -1.9419
  801MOL0     O10401   4.850  10.029  10.139  0.2077 -0.0554 -0.0159
  801MOL0     C10402   4.776   9.952  10.192 -0.1176 -0.1731 -0.1821
  801MOL0     O10403   4.824   9.851  10.257 -0.8336  0.3421 -0.6761
  801MOL0     C10404   4.953   9.802  10.260  0.2814 -0.7817  0.1871
  801MOL0     C10405   4.975   9.666  10.277 -0.1305  0.0657  0.7748
  801MOL0     C10406   5.110   9.625  10.280 -0.4261  0.5423 -0.4364
  801MOL0     C10407   5.222   9.710  10.256 -0.2958 -0.7222  0.4551
  801MOL0     O10408   5.358   9.685  10.247  0.3538  0.5611 -0.5958
  801MOL0     C10409   5.398   9.554  10.290  0.3684  0.4042  0.0723
  801MOL0     C10410   5.551   9.527  10.289  0.4753  0.1444  0.7753
  801MOL0     C10411   5.629   9.613  10.194  0.4980 -0.1676 -1.1583
  801MOL0     C10412   5.776   9.579  10.216 -0.0625  0.9280  0.4078
  801MOL0     C10413   5.867   9.668  10.133 -0.0005 -0.2162  0.1841
  801MOL0     C10414   6.014   9.634  10.152  0.0124  0.3000  0.4302
  801MOL0     C10415   6.080   9.714  10.262 -0.6320  0.7727  0.5099
  801MOL0     C10416   6.224   9.664  10.285 -0.2228 -0.0727  0.5861
  801MOL0     N10417   6.317   9.731  10.192  0.1208 -0.4827 -0.3865
  801MOL0     C10418   6.356   9.865  10.207  0.0675  0.2478  0.5995
  801MOL0     C10419   6.435   9.889  10.102  0.1194  0.0498 -0.1958
  801MOL0     C10420   6.509  10.019  10.067 -0.1389  0.1819  0.1853
  801MOL0     C10421   6.645   9.980  10.010 -0.5711  0.6374 -0.5852
  801MOL0     C10422   6.670  10.076   9.895 -0.7817  0.8948  0.8805
  801MOL0     C10423   6.813  10.084   9.858 -0.0917  0.3432  0.8382
  801MOL0     O10424   6.855   9.948   9.827 -0.2596  0.0212  0.1808
  801MOL0     C10425   6.946   9.950   9.722 -0.4590  1.1721 -0.6044
  801MOL0     C10426   6.931   9.881   9.605  0.0701  0.2785 -0.7683
  801MOL0     C10427   7.017   9.883   9.500 -0.1521 -0.1049 -0.3491
  801MOL0     C10428   6.998   9.782   9.390 -0.5596  1.3263  1.3874
  801MOL0     C10429   7.129   9.972   9.509  0.4608 -0.7091 -0.0048
  801MOL0     C10430   7.229   9.993   9.403  0.9180 -0.2441  0.7756
  801MOL0     O10431   7.346  10.054   9.444  0.7855  0.4532 -0.2786
  801MOL0     C10432   7.454  10.063   9.360 -0.7012  0.9623  0.2190
  801MOL0     C10433   7.505  10.183   9.335  0.0236 -0.2586  0.5483
  801MOL0     C10434   7.626  10.202   9.259 -0.1585  0.4040 -0.2705
  801MOL0     C10435   7.696  10.086   9.221  0.1110 -0.7011  0.5751
  801MOL0     O10436   7.814  10.099   9.150 -0.4302  0.7078  0.2750
  801MOL0     C10437   7.850  10.000   9.049 -0.4393  0.3670 -0.4574
  801MOL0     C10438   7.958  10.055   8.957 -0.0910 -0.2807 -0.3577
  801MOL0     C10439   7.894  10.149   8.851 -0.6182 -0.3920 -0.2276
  801MOL0     C10440   7.979  10.177   8.726 -0.7513  0.0145 -0.4490
  801MOL0     C10441   8.061  10.295   8.770 -0.1331 -0.0747 -0.5114
  801MOL0     C10442   8.003  10.434   8.759 -0.2048  0.0913  0.2798
  801MOL0     C10443   7.979  10.488   8.612 -0.2974  0.4080  0.6575
  801MOL0     C10444   8.000  10.641   8.616  0.5657 -1.2477 -0.2146
  801MOL0    Cl10445   7.895  10.726   8.742 -0.0634  0.2022  0.0348
  801MOL0     C10446   7.647   9.960   9.252 -0.9687  0.7924  0.8154
  801MOL0     C10447   7.524   9.943   9.317 -0.0476  0.0519 -0.4091
  801MOL0     O10448   7.204   9.959   9.291  0.7256  0.9560 -0.5361
  801MOL0     C10449   7.152  10.045   9.630  0.5435 -0.4581 -0.3430
  801MOL0     C10450   7.060  10.030   9.732 -0.3424 -0.1739 -0.0178
  801MOL0     N10451   6.438   9.777  10.023  0.0707 -0.9410  0.3024
  801MOL0     N10452   6.369   9.681  10.074  0.2192 -0.0859  0.2117
  801MOL0     C10453   5.191   9.843  10.254 -0.1386  0.8931  0.1809
  801MOL0     C10454   5.063   9.885  10.249 -0.4902  0.2750 -0.2307
  801MOL0     C10455   4.629   9.987  10.206  0.1939 -0.0085 -0.9264
  801MOL0     C10456   4.547   9.903  10.288 -0.8227 -0.4494 -0.9380
  801MOL0     C10457   4.413   9.936  10.323 -0.7286  0.4777  0.1569
  801MOL0     C10458   4.352  10.053  10.265 -1.1842  0.0318  0.2676
  801MOL0     O10459   4.241  10.079  10.324  0.8939 -0.4765  0.1908
  801MOL0     C10460   4.165  10.193  10.275 -0.2425 -0.0558  0.3435
  801MOL0     C10461   4.029  10.211  10.349 -0.9899 -0.4555  0.3332
  801MOL0     C10462   3.913  10.131  10.291  0.2727 -0.6080  0.1153
  801MOL0     C10463   3.790  10.151  10.380  0.3302 -0.3312 -0.0953
  801MOL0     C10464   3.664  10.177  10.303  0.4859  0.2670 -0.3086
  801MOL0     C10465   3.565  10.201  10.231 -0.9638  0.0933  0.5920
  801MOL0     C10466   4.429  10.125  10.171  0.3930  0.2107 -0.7919
  801MOL0     C10467   4.564  10.097  10.145 -0.2712 -0.4968  0.6673
  801MOL0     C10468   4.623  10.179  10.032 -1.3866  0.3403  0.1402
  801MOL0     H10469   4.895   9.595  10.293 -1.6138  1.3705 -0.6044
  801MOL0     H10470   5.124   9.517  10.284  1.1432  0.7121 -0.6114
  801MOL0     H10471   5.350   9.477  10.229 -1.0354 -2.2503  4.0743
  801MOL0     H10472   5.369   9.526  10.392 -1.2032 -0.3199 -0.5299
  801MOL0     H10473   5.576   9.544  10.394  2.1943  2.2464  0.1073
  801MOL0     H10474   5.567   9.423  10.260 -2.9531 -0.5631  0.9723
  801MOL0     H10475   5.611   9.590  10.089 -1.8548  0.8157 -1.0274
  801MOL0     H10476   5.607   9.716  10.223  1.1226 -0.5450  0.8145
  801MOL0     H10477   5.804   9.581  10.321  2.2616  1.4306 -0.1578
  801MOL0     H10478   5.795   9.475  10.189  0.1570  0.8999  0.6644
  801MOL0     H10479   5.854   9.776  10.140  3.2532  0.3021  0.0402
  801MOL0     H10480   5.842   9.633  10.033 -1.6858 -1.9788  1.1588
  801MOL0     H10481   6.022   9.529  10.180  1.5790  0.2863  0.0121
  801MOL0     H10482   6.055   9.641  10.050  3.2076 -0.1835  1.5707
  801MOL0     H10483   6.019   9.685  10.348  0.0852  2.7455  1.7583
  801MOL0     H10484   6.072   9.822  10.248  0.7556  0.5551 -2.8231
  801MOL0     H10485   6.257   9.691  10.386 -0.5254 -1.2272  1.0164
  801MOL0     H10486   6.233   9.555  10.274  1.1231  0.2450 -2.2529
  801MOL0     H10487   6.317   9.935  10.280  0.3885  0.0528  0.9567
  801MOL0     H10488   6.511  10.082  10.156  0.2273  0.1670  0.1902
  801MOL0     H10489   6.450  10.075   9.994  0.5000  1.4179  0.5942
  801MOL0     H10490   6.719   9.990  10.091 -0.7293 -1.1909 -0.1710
  801MOL0     H10491   6.653   9.877   9.976 -2.9225 -0.2578  1.3284
  801MOL0     H10492   6.606  10.054   9.809  1.7430  2.8630 -1.7015
  801MOL0     H10493   6.639  10.176   9.924 -2.1729  0.1357  2.1611
  801MOL0     H10494   6.803  10.143   9.767  0.1554 -4.0597 -2.4099
  801MOL0     H10495   6.880  10.128   9.932  1.0403 -0.3045  0.2403
  801MOL0     H10496   6.843   9.818   9.601 -0.1081  0.5746 -2.0708
  801MOL0     H10497   7.082   9.713   9.378 -0.9176  1.1742 -0.5812
  801MOL0     H10498   6.986   9.831   9.293  1.8817 -2.5836 -1.1758
  801MOL0     H10499   6.916   9.714   9.414 -0.3202  0.3836 -0.3834
  801MOL0     H10500   7.435  10.258   9.368 -1.7372 -0.7499 -1.8121
  801MOL0     H10501   7.661  10.301   9.230 -1.4355  0.3452 -2.2167
  801MOL0     H10502   7.901   9.915   9.095 -1.8176 -0.9204 -1.2151
  801MOL0     H10503   7.767   9.951   8.997  0.6516  0.1134 -2.0065
  801MOL0     H10504   8.025  10.120   9.014  2.4850 -2.6090 -0.4833
  801MOL0     H10505   8.015   9.975   8.908 -1.0902 -1.3021  0.1260
  801MOL0     H10506   7.847  10.238   8.893  0.5335  0.0710  0.1098
  801MOL0     H10507   7.807  10.095   8.813 -0.1387 -2.0979  0.9424
  801MOL0     H10508   7.922  10.201   8.635  0.3680  0.9895 -0.9221
  801MOL0     H10509   8.033  10.084   8.706 -0.9880 -0.0231 -0.9380
  801MOL0     H10510   8.106  10.271   8.867 -2.0244  2.9216  1.2625
  801MOL0     H10511   8.139  10.298   8.695  1.1264  2.4294  0.7620
  801MOL0     H10512   8.067  10.490   8.828  1.1875 -0.4214 -0.5635
  801MOL0     H10513   7.900  10.437   8.795 -2.3041 -0.2788 -4.8278
  801MOL0     H10514   7.876  10.474   8.576  0.8717 -1.7883 -2.2600
  801MOL0     H10515   8.038  10.444   8.532 -1.5522 -1.0140  0.4569
  801MOL0     H10516   7.958  10.671   8.520  0.7554  1.7344  0.5531
  801MOL0     H10517   8.108  10.654   8.626  0.6217 -1.4531 -0.5115
  801MOL0     H10518   7.699   9.868   9.227 -2.5432  0.0556  0.0885
  801MOL0     H10519   7.490   9.842   9.339  1.5611 -0.5605 -0.6108
  801MOL0     H10520   7.226  10.123   9.644  0.4019  0.0688 -2.3068
  801MOL0     H10521   7.077  10.081   9.826 -0.9506 -0.5435  0.2999
  801MOL0     H10522   5.269   9.918  10.244 -0.8278  1.6303  0.2462
  801MOL0     H10523   5.046   9.992  10.239 -1.6632  0.3278  1.7711
  801MOL0     H10524   4.581   9.806  10.325 -0.0408  0.4342  0.7472
  801MOL0     H10525   4.357   9.876  10.395  1.6864 -1.1861  0.8028
  801MOL0     H10526   4.220  10.286  10.295  0.8651 -0.1660 -1.8946
  801MOL0     H10527   4.154  10.186  10.166 -2.5868 -4.3266  0.6435
  801MOL0     H10528   4.009  10.318  10.341  2.1892  0.0971 -1.9973
  801MOL0     H10529   4.059  10.181  10.450  1.7300 -1.7055 -0.7341
  801MOL0     H10530   3.894  10.145  10.184  0.3342 -6.1949 -0.9585
  801MOL0     H10531   3.930  10.024  10.278  0.4305 -0.4182 -1.3768
  801MOL0     H10532   3.800  10.229  10.455  0.5012 -2.4789  2.2399
  801MOL0     H10533   3.782  10.066  10.449  2.4622  1.0443  1.9655
  801MOL0     H10534   3.478  10.215  10.171 -1.6637 -2.3841  0.9235
  801MOL0     H10535   4.376  10.211  10.133  2.8642  2.9798  1.5448
  801MOL0     H10536   4.553  10.240   9.973 -2.4288 -1.0440 -0.0952
  801MOL0     H10537   4.707  10.244  10.060  1.1042 -1.5414 -2.3383
  801MOL0     H10538   4.657  10.098   9.966 -0.0399  1.1777 -0.2363
  802MOL0     O10539  11.012   0.727   3.805  0.5824  0.6109 -0.5083
  802MOL0     C10540  10.925   0.812   3.783 -0.5215 -0.4563 -0.2601
  802MOL0     O10541  10.947   0.949   3.788  0.7410 -0.5718  0.9038
  802MOL0     C10542  11.068   1.009   3.824  0.4498  0.5701 -0.3209
  802MOL0     C10543  11.142   0.954   3.933  0.1432 -1.2073  0.3862
  802MOL0     C10544  11.258   1.021   3.988  0.8697 -0.8783  0.0959
  802MOL0     C10545  11.308   1.132   3.916 -0.4910 -0.2504 -0.8458
  802MOL0     O10546  11.420   1.207   3.947  0.0545  0.5201  0.6059
  802MOL0     C10547  11.513   1.153   4.041  0.6140  0.4331  0.6907
  802MOL0     C10548  11.652   1.222   4.038  0.3986 -1.0126  0.1998
  802MOL0     C10549  11.694   1.270   3.904  0.0624 -0.2860  1.2286
  802MOL0     C10550  11.833   1.337   3.893  0.5448  0.1826  0.3576
  802MOL0     C10551  11.948   1.237   3.862  0.5185  0.2622 -0.0146
  802MOL0     C10552  12.081   1.301   3.857 -0.4377  0.6831 -1.3822
  802MOL0     C10553  12.121   1.384   3.738  0.1341 -0.1247 -0.4698
  802MOL0     C10554  12.130   1.308   3.609  0.2448 -0.6500  0.3354
  802MOL0     N10555  12.201   1.395   3.510  1.0097 -0.2653 -0.3133
  802MOL0     C10556  12.335   1.422   3.510 -0.3052 -0.3967 -0.0265
  802MOL0     C10557  12.348   1.486   3.389  0.2323  0.2349  0.0134
  802MOL0     C10558  12.461   1.553   3.341  0.3943 -0.0592  0.3612
  802MOL0     C10559  12.556   1.447   3.281 -0.0429 -0.4787 -0.1395
  802MOL0     C10560  12.681   1.509   3.220 -0.8408  0.8795  0.6905
  802MOL0     C10561  12.758   1.394   3.153 -0.0357 -0.1193  0.0724
  802MOL0     O10562  12.799   1.297   3.244 -0.2762 -0.0470  0.2331
  802MOL0     C10563  12.920   1.321   3.316  0.6579 -0.4847 -0.1793
  802MOL0     C10564  12.995   1.443   3.315 -0.4121  0.1417 -0.0562
  802MOL0     C10565  13.111   1.448   3.389 -0.3069  1.2630  0.0667
  802MOL0     C10566  13.192   1.574   3.372 -0.0840 -0.8076  0.4473
  802MOL0     C10567  13.143   1.344   3.476 -0.7550 -0.5678 -0.9599
  802MOL0     C10568  13.259   1.355   3.575  0.5321 -0.5526 -0.6819
  802MOL0     O10569  13.302   1.233   3.615  0.2456  0.6048 -0.1749
  802MOL0     C10570  13.406   1.218   3.704 -0.7798  0.1506  0.2358
  802MOL0     C10571  13.510   1.140   3.664 -0.2275  0.7498  1.2024
  802MOL0     C10572  13.613   1.096   3.752 -0.2737  0.5706  0.0604
  802MOL0     C10573  13.613   1.132   3.889 -0.0575 -0.0598  0.3062
  802MOL0     O10574  13.711   1.107   3.982 -0.4497  0.3396  0.1633
  802MOL0     C10575  13.765   0.972   3.962  0.6175 -0.0302 -0.2236
  802MOL0     C10576  13.836   0.925   4.091  0.3569  0.0391  0.1584
  802MOL0     C10577  13.945   1.019   4.140  0.9553  0.0409  0.9664
  802MOL0     C10578  14.042   0.949   4.236  0.1113 -0.3190  0.1844
  802MOL0     C10579  14.156   1.049   4.275  0.7644 -0.2360  0.8392
  802MOL0     C10580  14.285   0.964   4.303  0.0983  0.8149  0.0051
  802MOL0     C10581  14.400   1.049   4.344 -0.7301 -0.2326 -0.2368
  802MOL0     C10582  14.522   0.957   4.373 -0.1828  0.2954 -0.2994
  802MOL0    Cl10583  14.672   1.056   4.407  0.0129  0.0474  0.2453
  802MOL0     C10584  13.505   1.217   3.923 -0.8757  0.1653 -0.0767
  802MOL0     C10585  13.411   1.270   3.834 -0.6736 -0.4618  0.1561
  802MOL0     O10586  13.289   1.467   3.611 -0.6897 -0.1649 -0.3637
  802MOL0     C10587  13.062   1.229   3.479  0.0507  1.0624 -0.4054
  802MOL0     C10588  12.959   1.221   3.392 -0.1308  0.2606  0.5310
  802MOL0     N10589  12.239   1.457   3.311  1.2339 -0.2688 -0.0730
  802MOL0     N10590  12.143   1.413   3.390 -0.5098 -0.0938  0.2087
  802MOL0     C10591  11.240   1.180   3.807  0.4308  0.1159  0.0457
  802MOL0     C10592  11.112   1.129   3.765  0.1869  0.3192 -0.7078
  802MOL0     C10593  10.787   0.774   3.749  0.5452  0.1825  0.2050
  802MOL0     C10594  10.686   0.868   3.787  0.2997 -0.1952  0.3288
  802MOL0     C10595  10.556   0.844   3.758  0.0550 -0.3140 -0.5797
  802MOL0     C10596  10.512   0.721   3.707  0.7133 -0.4776  0.5758
  802MOL0     O10597  10.376   0.721   3.712 -0.2434  0.5634  0.9292
  802MOL0     C10598  10.309   0.597   3.681 -0.4783  1.0246 -0.3993
  802MOL0     C10599  10.165   0.621   3.731 -0.0478  0.4882 -0.0259
  802MOL0     C10600  10.093   0.744   3.674  0.0095  0.0510  0.5598
  802MOL0     C10601   9.962   0.777   3.747 -0.1446  0.4463  0.5561
  802MOL0     C10602   9.866   0.671   3.743  0.6152 -0.0122  0.9058
  802MOL0     C10603   9.806   0.565   3.750 -0.2950 -0.5486 -0.5324
  802MOL0     C10604  10.609   0.626   3.661  0.3757 -1.0064 -0.3095
  802MOL0     C10605  10.750   0.653   3.676 -0.4124  0.3255 -0.2175
  802MOL0     C10606  10.851   0.577   3.609 -0.2336  0.6426  0.9956
  802MOL0     H10607  11.112   0.870   3.995  2.5617 -0.0866  3.3287
  802MOL0     H10608  11.301   0.980   4.079  3.0440  1.1591  0.0984
  802MOL0     H10609  11.533   1.049   4.012  1.8783  0.3651  1.7274
  802MOL0     H10610  11.476   1.156   4.144  1.5850  1.3596  1.0262
  802MOL0     H10611  11.644   1.316   4.093 -1.2277 -0.6615 -0.5657
  802MOL0     H10612  11.719   1.148   4.082 -1.7621 -1.9134  2.1452
  802MOL0     H10613  11.704   1.183   3.839  0.0129 -0.3399  1.2935
  802MOL0     H10614  11.617   1.337   3.866  3.3284  1.9085 -2.1642
  802MOL0     H10615  11.840   1.406   3.808 -0.3700 -1.6389 -1.2548
  802MOL0     H10616  11.860   1.392   3.983 -1.6196 -1.0711  1.8505
  802MOL0     H10617  11.930   1.188   3.766 -1.5836 -0.4386  0.6926
  802MOL0     H10618  11.956   1.162   3.940  0.4781 -0.8630 -1.0590
  802MOL0     H10619  12.095   1.360   3.948  0.0725 -0.6169 -0.5900
  802MOL0     H10620  12.149   1.216   3.867  0.4568  1.6319  1.9833
  802MOL0     H10621  12.221   1.418   3.764 -0.2290  1.3889 -0.9293
  802MOL0     H10622  12.063   1.476   3.725 -1.2042 -1.2841 -3.7948
  802MOL0     H10623  12.188   1.215   3.612  0.3280 -0.5968  0.3787
  802MOL0     H10624  12.024   1.296   3.584  0.4277  0.2833 -1.0415
  802MOL0     H10625  12.414   1.434   3.584  1.0376  1.7489 -1.6762
  802MOL0     H10626  12.511   1.618   3.413  2.5515 -0.4470 -0.6957
  802MOL0     H10627  12.429   1.627   3.267  1.1386 -0.6542 -0.5713
  802MOL0     H10628  12.575   1.373   3.360 -1.0373 -0.9222 -0.2976
  802MOL0     H10629  12.496   1.392   3.208 -1.2703  1.0297 -0.3156
  802MOL0     H10630  12.642   1.581   3.148  0.4680  1.1892  0.2635
  802MOL0     H10631  12.747   1.560   3.291 -0.4788  0.1193  0.9220
  802MOL0     H10632  12.681   1.339   3.099 -0.9158  3.2413 -2.4365
  802MOL0     H10633  12.834   1.422   3.079  1.4882 -1.2462  1.1309
  802MOL0     H10634  12.960   1.525   3.254 -2.0715  1.4068  2.4129
  802MOL0     H10635  13.178   1.644   3.456  0.7826  1.2380 -1.0251
  802MOL0     H10636  13.169   1.629   3.280 -0.6152  0.1171  1.1110
  802MOL0     H10637  13.300   1.561   3.359  0.5561  2.7628  0.9817
  802MOL0     H10638  13.517   1.113   3.560 -2.2692  3.1195  0.3667
  802MOL0     H10639  13.688   1.028   3.711 -0.5741  0.4452 -0.2857
  802MOL0     H10640  13.686   0.896   3.951  0.9275 -0.9540  2.9507
  802MOL0     H10641  13.843   0.959   3.886  1.1975 -3.9688  0.8091
  802MOL0     H10642  13.758   0.920   4.167  0.4950  2.6352  0.5731
  802MOL0     H10643  13.878   0.827   4.068 -1.2638 -0.7522  0.4352
  802MOL0     H10644  13.902   1.108   4.186 -0.6819 -0.1341 -0.1569
  802MOL0     H10645  13.992   1.062   4.052 -2.1487  2.4164  0.2949
  802MOL0     H10646  14.089   0.861   4.191  0.2220 -0.9487  1.4877
  802MOL0     H10647  13.993   0.923   4.330 -1.6936 -1.9468 -1.1192
  802MOL0     H10648  14.178   1.115   4.191  0.1766 -0.1875  0.7228
  802MOL0     H10649  14.127   1.110   4.361  0.2195 -0.7911  1.0564
  802MOL0     H10650  14.307   0.918   4.206  1.8187  0.2642  0.6199
  802MOL0     H10651  14.269   0.887   4.380  1.6395 -0.5068 -0.9217
  802MOL0     H10652  14.380   1.119   4.425  1.3361 -1.6473  1.6076
  802MOL0     H10653  14.434   1.115   4.263 -2.0381  3.9084  2.3341
  802MOL0     H10654  14.537   0.894   4.285 -0.7533 -0.1541 -0.0842
  802MOL0     H10655  14.518   0.886   4.456 -0.1969  0.4306 -0.1832
  802MOL0     H10656  13.485   1.234   4.029  0.7646 -3.0542  0.8804
  802MOL0     H10657  13.333   1.336   3.872 -0.0845 -0.6964  1.8842
  802MOL0     H10658  13.079   1.145   3.546 -0.9376  1.3131  0.1870
  802MOL0     H10659  12.896   1.133   3.396 -1.4073  1.1734  1.6544
  802MOL0     H10660  11.274   1.270   3.756 -1.4146  0.4957 -0.6141
  802MOL0     H10661  11.063   1.175   3.680  2.0532  2.8783 -0.5157
  802MOL0     H10662  10.710   0.958   3.843 -1.5870  0.8161 -0.3769
  802MOL0     H10663  10.483   0.906   3.810  1.7024 -2.9276  5.9088
  802MOL0     H10664  10.304   0.577   3.574  0.9566 -0.4103 -0.2410
  802MOL0     H10665  10.352   0.516   3.741  2.2200  2.7766  0.2367
  802MOL0     H10666  10.164   0.624   3.840  0.6997 -1.9924  0.1278
  802MOL0     H10667  10.106   0.531   3.708  2.0368 -1.3710  1.4494
  802MOL0     H10668  10.167   0.825   3.673  1.6330 -1.3251  2.3229
  802MOL0     H10669  10.074   0.722   3.568  0.6371  1.3169  0.1582
  802MOL0     H10670   9.916   0.867   3.704 -3.4840 -0.4610  1.9308
  802MOL0     H10671   9.993   0.798   3.849  3.7327  0.6900 -0.5184
  802MOL0     H10672   9.763   0.469   3.770 -0.2347 -0.2129  1.3324
  802MOL0     H10673  10.572   0.543   3.603  0.1921  2.0041 -4.9934
  802MOL0     H10674  10.799   0.505   3.544 -0.9891  2.3594 -0.3991
  802MOL0     H10675  10.918   0.644   3.554  0.1604 -2.2558 -2.4664
  802MOL0     H10676  10.897   0.518   3.688  0.7720  1.8602  1.3528
  803MOL0     O10677   6.029  10.031   4.594  0.4576 -0.2930  0.2888
  803MOL0     C10678   5.961   9.935   4.614  0.4817  0.7468 -0.3937
  803MOL0     O10679   6.006   9.809   4.649 -0.4469  0.7719  1.0455
  803MOL0     C10680   6.140   9.786   4.647 -0.1170 -0.5384  0.4260
  803MOL0     C10681   6.221   9.802   4.534 -0.7195 -0.4720  0.5618
  803MOL0     C10682   6.361   9.779   4.538  0.1547 -0.1156 -0.3535
  803MOL0     C10683   6.423   9.729   4.647 -0.1358 -0.0133 -0.1754
  803MOL0     O10684   6.556   9.703   4.640  0.5693  0.3423  0.4325
  803MOL0     C10685   6.621   9.632   4.744  0.2258 -0.7636 -0.0248
  803MOL0     C10686   6.686   9.736   4.840  0.5310  0.4480 -0.4957
  803MOL0     C10687   6.807   9.803   4.770 -0.4381 -0.6420 -0.1447
  803MOL0     C10688   6.948   9.742   4.792 -0.2644 -0.0145  0.6367
  803MOL0     C10689   7.067   9.801   4.723 -0.7622 -0.6927 -0.2066
  803MOL0     C10690   7.201   9.716   4.729 -0.7196 -0.6408  0.1617
  803MOL0     C10691   7.330   9.804   4.691  0.6871  0.6840 -0.1735
  803MOL0     C10692   7.460   9.717   4.699 -0.3460  0.3364  0.1216
  803MOL0     N10693   7.560   9.793   4.615  0.6915  0.1078 -0.7220
  803MOL0     C10694   7.562   9.780   4.478  0.3481 -0.2281 -0.6060
  803MOL0     C10695   7.671   9.855   4.445 -0.6060  0.0296 -0.2052
  803MOL0     C10696   7.729   9.858   4.304 -0.0207 -0.1869 -0.1910
  803MOL0     C10697   7.864   9.928   4.311 -0.6336 -0.8270 -0.3041
  803MOL0     C10698   7.977   9.842   4.377 -0.0664 -0.2133  0.3120
  803MOL0     C10699   8.120   9.906   4.353  1.5372  0.1866  0.8908
  803MOL0     O10700   8.165   9.882   4.213 -0.6939 -0.3572  0.5829
  803MOL0     C10701   8.300   9.908   4.205  0.5611  0.0557  0.4080
  803MOL0     C10702   8.347  10.021   4.127  0.2712  0.6015 -0.1594
  803MOL0     C10703   8.482  10.059   4.124  0.5311  0.1936  0.2400
  803MOL0     C10704   8.527  10.177   4.041  1.0033 -0.8657  0.6721
  803MOL0     C10705   8.567   9.988   4.215 -0.6940 -0.4265 -0.1987
  803MOL0     C10706   8.718  10.018   4.224  0.5897 -0.5908 -0.8008
  803MOL0     O10707   8.796   9.928   4.291 -0.4948 -0.0078 -0.5279
  803MOL0     C10708   8.927   9.954   4.298 -1.1169  0.4826 -0.4117
  803MOL0     C10709   9.010   9.952   4.190  0.2010 -0.4209  0.5121
  803MOL0     C10710   9.139   9.985   4.196  0.3245 -0.2344  0.0239
  803MOL0     C10711   9.195  10.030   4.315 -0.7223 -0.2871  0.6276
  803MOL0     O10712   9.322  10.085   4.317  0.0110 -0.3165 -0.3796
  803MOL0     C10713   9.386  10.136   4.197 -0.0252 -0.0245 -0.3939
  803MOL0     C10714   9.489  10.055   4.139 -0.2255  0.4395 -0.4206
  803MOL0     C10715   9.453   9.906   4.118 -0.5659  0.6727  0.5806
  803MOL0     C10716   9.573   9.816   4.092 -0.8069 -0.3999 -0.1333
  803MOL0     C10717   9.647   9.791   4.223  0.3307  0.1880 -0.9640
  803MOL0     C10718   9.798   9.772   4.199  0.1449 -0.2586  0.0628
  803MOL0     C10719   9.827   9.625   4.151  0.1334 -0.1326  0.0734
  803MOL0     C10720   9.977   9.600   4.125  0.1425 -0.1682 -0.9710
  803MOL0    Cl10721  10.053   9.699   3.999  0.1497 -0.6907 -0.1448
  803MOL0     C10722   9.119  10.018   4.434  0.4148 -0.5780  0.1932
  803MOL0     C10723   8.979   9.980   4.424 -1.0388 -0.8003 -0.5069
  803MOL0     O10724   8.762  10.120   4.179 -0.5194  0.4693 -0.7667
  803MOL0     C10725   8.519   9.882   4.293  0.0033  0.0051  0.4139
  803MOL0     C10726   8.389   9.841   4.283 -0.0711  0.3271  0.0262
  803MOL0     N10727   7.730   9.912   4.554  1.1889  0.2427 -0.0921
  803MOL0     N10728   7.662   9.873   4.666  0.7238  0.0468  0.6128
  803MOL0     C10729   6.343   9.705   4.760  0.3539  0.1579  0.3774
  803MOL0     C10730   6.200   9.731   4.760 -0.0684 -0.3895  0.6001
  803MOL0     C10731   5.812   9.947   4.616  0.0014 -0.0313 -0.3246
  803MOL0     C10732   5.733   9.838   4.602  0.1458 -0.5731  0.4612
  803MOL0     C10733   5.596   9.837   4.612 -0.4432 -0.7338  0.4890
  803MOL0     C10734   5.527   9.960   4.629  0.5481  0.8888  0.0893
  803MOL0     O10735   5.389   9.962   4.632  0.6851 -0.5062 -0.6181
  803MOL0     C10736   5.298   9.851   4.617  0.1406 -0.1235  0.0629
  803MOL0     C10737   5.223   9.865   4.480 -0.1514 -0.0126  0.5664
  803MOL0     C10738   5.319   9.840   4.362 -0.1181  0.7445  0.0822
  803MOL0     C10739   5.387   9.958   4.297 -0.7148 -0.6067  0.0542
  803MOL0     C10740   5.297  10.019   4.194  0.6079 -0.2018 -0.1624
  803MOL0     C10741   5.217  10.047   4.108 -0.3486  0.5297 -0.2003
  803MOL0     C10742   5.602  10.076   4.654  0.3270  0.2767 -0.5892
  803MOL0     C10743   5.738  10.070   4.650 -0.5702 -0.4178  0.1263
  803MOL0     C10744   5.801  10.204   4.674  0.2168 -0.2836  0.6152
  803MOL0     H10745   6.172   9.835   4.443 -0.1630 -1.3160 -0.0623
  803MOL0     H10746   6.422   9.793   4.449  0.2300 -2.8622 -0.8242
  803MOL0     H10747   6.708   9.584   4.698  1.1821  1.3093 -0.4988
  803MOL0     H10748   6.555   9.557   4.789  0.6473  0.0014  2.0176
  803MOL0     H10749   6.609   9.806   4.872 -1.3981 -1.2049 -1.2689
  803MOL0     H10750   6.709   9.685   4.934 -0.9802  1.1776  0.3188
  803MOL0     H10751   6.795   9.808   4.661  0.1031  0.0498 -0.1818
  803MOL0     H10752   6.811   9.906   4.805  2.4581 -0.8223  0.3641
  803MOL0     H10753   6.969   9.744   4.899 -0.6640  1.1151  0.7038
  803MOL0     H10754   6.949   9.647   4.737 -0.8347  0.4116 -0.1213
  803MOL0     H10755   7.099   9.896   4.767 -1.6168 -0.3236 -0.3731
  803MOL0     H10756   7.053   9.827   4.617  1.0862 -2.9532 -1.1120
  803MOL0     H10757   7.219   9.698   4.836  0.5783 -2.1971 -0.2673
  803MOL0     H10758   7.181   9.626   4.669 -2.5103  1.0281 -1.8786
  803MOL0     H10759   7.341   9.884   4.765 -0.7872 -1.4091  2.4704
  803MOL0     H10760   7.325   9.848   4.590 -1.6414  1.2652  0.1273
  803MOL0     H10761   7.494   9.714   4.803  0.6878  5.9795  0.2378
  803MOL0     H10762   7.450   9.612   4.668 -2.7556  1.1535 -2.2548
  803MOL0     H10763   7.490   9.730   4.415 -2.1025  0.5537  1.4126
  803MOL0     H10764   7.655   9.899   4.235  0.1953 -2.9384 -2.2384
  803MOL0     H10765   7.740   9.758   4.261  0.5598  0.4833 -1.6629
  803MOL0     H10766   7.876   9.953   4.205 -0.5988 -1.4158 -0.4413
  803MOL0     H10767   7.865  10.020   4.370 -1.6658 -2.5830  2.6500
  803MOL0     H10768   7.954   9.838   4.484 -0.4812 -0.1755  0.2235
  803MOL0     H10769   7.972   9.743   4.331 -0.2345 -1.0232  2.0010
  803MOL0     H10770   8.103  10.012   4.377 -0.6496 -0.1306  0.8950
  803MOL0     H10771   8.200   9.871   4.418  4.5357  0.4750 -2.3320
  803MOL0     H10772   8.273  10.078   4.073  1.4259  2.9860  0.6576
  803MOL0     H10773   8.573  10.250   4.108  2.5117 -1.8386  0.7298
  803MOL0     H10774   8.443  10.220   3.986  1.2053 -3.6736 -2.1204
  803MOL0     H10775   8.595  10.138   3.965  1.6512  0.6352  0.4618
  803MOL0     H10776   8.979   9.922   4.090 -1.5434 -2.1143  1.4993
  803MOL0     H10777   9.197   9.988   4.104  0.2126  0.1141 -0.0342
  803MOL0     H10778   9.308  10.148   4.122  0.5218 -0.6950 -1.0979
  803MOL0     H10779   9.435  10.231   4.220  0.6529 -0.3432 -0.4963
  803MOL0     H10780   9.527  10.097   4.045 -1.8249 -1.6408 -2.1038
  803MOL0     H10781   9.575  10.060   4.206 -2.4984 -1.0779  2.8837
  803MOL0     H10782   9.386   9.899   4.032  1.1089 -0.8336 -0.6868
  803MOL0     H10783   9.404   9.859   4.204  0.5703  0.2461  1.0205
  803MOL0     H10784   9.635   9.870   4.020 -0.0440  0.1291  0.8856
  803MOL0     H10785   9.544   9.718   4.053 -0.8572  0.3189 -2.0254
  803MOL0     H10786   9.642   9.872   4.297 -1.2519  0.1695 -1.0241
  803MOL0     H10787   9.606   9.697   4.264 -2.3799  1.4947 -0.4789
  803MOL0     H10788   9.846   9.788   4.296 -1.2554  0.9437  0.5936
  803MOL0     H10789   9.833   9.846   4.126 -0.3082 -2.1106 -2.1640
  803MOL0     H10790   9.766   9.620   4.059 -1.5378  0.2800  1.1106
  803MOL0     H10791   9.791   9.551   4.222 -1.0650  1.1743  0.9010
  803MOL0     H10792   9.984   9.498   4.086 -0.3845 -0.7416  0.3555
  803MOL0     H10793  10.024   9.601   4.224 -0.2461  2.3579 -0.7513
  803MOL0     H10794   9.177  10.053   4.519  0.7569 -0.5609 -0.0474
  803MOL0     H10795   8.918   9.982   4.514  1.4904 -1.2643  1.3168
  803MOL0     H10796   8.588   9.836   4.363  1.5052 -0.1460 -1.1105
  803MOL0     H10797   8.346   9.767   4.349 -0.7183 -1.6212 -2.4378
  803MOL0     H10798   6.378   9.662   4.853 -0.0187  0.2522  0.5640
  803MOL0     H10799   6.142   9.701   4.846  0.5804 -0.7039  0.9359
  803MOL0     H10800   5.784   9.743   4.593  2.1986  0.6675 -3.1127
  803MOL0     H10801   5.554   9.738   4.597 -0.4034 -0.5726 -0.7834
  803MOL0     H10802   5.346   9.753   4.614  0.3034 -0.0329 -0.4069
  803MOL0     H10803   5.228   9.846   4.701  0.5440  3.2423  0.7660
  803MOL0     H10804   5.168   9.960   4.483 -1.3592 -0.7101  2.0934
  803MOL0     H10805   5.141   9.794   4.473 -1.0049  1.0740 -1.6046
  803MOL0     H10806   5.396   9.773   4.400  0.8339  2.0000  0.4537
  803MOL0     H10807   5.256   9.782   4.294 -2.2873  1.3145  1.4777
  803MOL0     H10808   5.477   9.916   4.251  1.8188  1.5230  2.6621
  803MOL0     H10809   5.425  10.029   4.371  3.4580 -2.4015 -0.0985
  803MOL0     H10810   5.141  10.068   4.035 -0.4823  0.2697 -0.1350
  803MOL0     H10811   5.541  10.165   4.668 -0.3871  0.0166 -1.9285
  803MOL0     H10812   5.796  10.227   4.781 -1.8669  2.4505  0.0575
  803MOL0     H10813   5.898  10.204   4.624 -0.0972 -0.3259 -0.0155
  803MOL0     H10814   5.752  10.290   4.626  0.6216  0.4959  1.5783
  804MOL0     O10815  11.167  10.508   1.666 -0.5354 -0.0633  0.0629
  804MOL0     C10816  11.153  10.445   1.771 -0.0125 -0.2063 -0.0090
  804MOL0     O10817  11.041  10.385   1.812 -0.0377  0.0913 -0.6479
  804MOL0     C10818  10.922  10.430   1.759 -0.4293  0.5182 -0.5210
  804MOL0     C10819  10.835  10.494   1.843  0.9360  0.2526  0.8878
  804MOL0     C10820  10.698  10.513   1.800 -0.8322  0.7180 -0.0671
  804MOL0     C10821  10.663  10.484   1.670  0.2358 -0.0834  0.0090
  804MOL0     O10822  10.537  10.508   1.608 -0.7227  0.5866  0.2297
  804MOL0     C10823  10.477  10.624   1.645  0.3617 -0.7432  0.1579
  804MOL0     C10824  10.368  10.643   1.539 -0.0972  0.2624  0.5918
  804MOL0     C10825  10.417  10.681   1.392  0.1688 -0.4888 -0.3940
  804MOL0     C10826  10.503  10.814   1.380  0.5131 -0.3160 -0.7821
  804MOL0     C10827  10.648  10.791   1.323 -0.1383  0.9492 -0.2159
  804MOL0     C10828  10.749  10.753   1.436  0.0261  0.0167  0.4820
  804MOL0     C10829  10.889  10.726   1.370 -0.4314  0.6690 -0.0688
  804MOL0     C10830  10.996  10.734   1.469 -0.7581  0.0105  0.1427
  804MOL0     N10831  11.124  10.694   1.408 -0.2898  0.1460  0.4085
  804MOL0     C10832  11.167  10.567   1.363 -0.3158 -0.5260  0.0431
  804MOL0     C10833  11.277  10.590   1.292 -0.0596 -0.3338  0.5949
  804MOL0     C10834  11.366  10.482   1.231 -0.3857  0.7280 -0.4645
  804MOL0     C10835  11.488  10.450   1.325 -0.3974 -1.2863 -0.1261
  804MOL0     C10836  11.461  10.319   1.401 -0.2181 -0.3519 -0.2858
  804MOL0     C10837  11.584  10.264   1.473 -0.0500 -0.3656  0.3117
  804MOL0     O10838  11.688  10.240   1.382  0.3268  0.1267 -0.0900
  804MOL0     C10839  11.816  10.213   1.434 -0.2467  0.5961  0.1287
  804MOL0     C10840  11.847  10.185   1.560 -0.1848  0.3693 -0.6183
  804MOL0     C10841  11.974  10.143   1.601  0.7434 -0.1359 -0.5611
  804MOL0     C10842  11.983  10.101   1.738 -0.4895  0.0447  0.7584
  804MOL0     C10843  12.079  10.143   1.505  0.5617 -0.1424  0.1888
  804MOL0     C10844  12.224  10.112   1.544 -0.8340  0.6416 -0.7545
  804MOL0     O10845  12.305  10.104   1.439 -0.7603 -0.0122  0.0167
  804MOL0     C10846  12.440  10.089   1.449 -0.3523 -0.5329  1.0032
  804MOL0     C10847  12.515  10.159   1.547  0.6955 -0.2976  0.5772
  804MOL0     C10848  12.647  10.142   1.546 -0.5058 -0.2520  0.3496
  804MOL0     C10849  12.712  10.072   1.447 -0.0975 -0.6059  0.0071
  804MOL0     O10850  12.847  10.085   1.455  0.1794 -0.2836  0.7724
  804MOL0     C10851  12.921  10.023   1.348 -0.0319 -0.0990 -0.6650
  804MOL0     C10852  13.070   9.998   1.373 -0.1941 -0.9069 -0.1651
  804MOL0     C10853  13.142   9.966   1.244 -0.3138 -0.3707  0.0372
  804MOL0     C10854  13.295   9.943   1.271  0.2387  0.1290 -0.0306
  804MOL0     C10855  13.371  10.066   1.311  0.2039 -0.7531 -0.2431
  804MOL0     C10856  13.493  10.027   1.402 -0.0944 -0.3843  0.0306
  804MOL0     C10857  13.599   9.951   1.336  0.2531  0.3809  0.0742
  804MOL0     C10858  13.732   9.971   1.406 -0.7587  0.2225 -0.6592
  804MOL0    Cl10859  13.748   9.935   1.571  0.2104  0.0279  0.4727
  804MOL0     C10860  12.638   9.997   1.351  0.0077 -0.0597  0.0092
  804MOL0     C10861  12.501  10.008   1.359  1.0058  0.3428 -0.0686
  804MOL0     O10862  12.252  10.082   1.661  0.0850 -0.1349 -0.4870
  804MOL0     C10863  12.046  10.178   1.376  0.4064  0.1134  0.5573
  804MOL0     C10864  11.916  10.212   1.341 -0.9442  0.6239 -0.3319
  804MOL0     N10865  11.292  10.729   1.278  0.2997 -0.0693  0.5412
  804MOL0     N10866  11.195  10.786   1.339 -0.4222  0.5455  0.0725
  804MOL0     C10867  10.761  10.431   1.587  0.8296 -0.1755  0.8159
  804MOL0     C10868  10.888  10.403   1.631 -0.0154  0.3008 -0.1182
  804MOL0     C10869  11.273  10.422   1.855 -0.1694 -0.2157 -0.3299
  804MOL0     C10870  11.399  10.403   1.788  0.4633  0.1091 -0.2689
  804MOL0     C10871  11.517  10.385   1.863  0.9322  0.4864  0.0284
  804MOL0     C10872  11.511  10.373   2.008  0.6946  0.0147 -0.4673
  804MOL0     O10873  11.618  10.351   2.098  0.5147 -0.5090  1.1988
  804MOL0     C10874  11.745  10.314   2.039 -0.1134  0.4873  0.5781
  804MOL0     C10875  11.753  10.166   1.993  0.3651  0.3543  0.4754
  804MOL0     C10876  11.684  10.063   2.081  0.4387  0.1224  0.5417
  804MOL0     C10877  11.696   9.923   2.035  0.0327  0.4947 -0.0858
  804MOL0     C10878  11.843   9.893   2.030 -0.3904  0.8159  0.2839
  804MOL0     C10879  11.968   9.872   2.011 -0.8453  0.0934  0.0962
  804MOL0     C10880  11.388  10.396   2.070 -0.0429 -0.0276  0.1320
  804MOL0     C10881  11.268  10.420   1.997 -0.3147  0.4188 -0.4426
  804MOL0     C10882  11.145  10.428   2.090 -0.5578  0.1869 -0.2002
  804MOL0     H10883  10.861  10.533   1.941 -0.7616 -0.4920  1.6872
  804MOL0     H10884  10.616  10.567   1.848  0.5330  1.3270  1.6756
  804MOL0     H10885  10.545  10.708   1.663  1.7087 -1.9685  1.0849
  804MOL0     H10886  10.423  10.607   1.739  2.1307  1.5603  1.7237
  804MOL0     H10887  10.329  10.544   1.515  3.5181 -0.6868 -2.2766
  804MOL0     H10888  10.288  10.703   1.583 -0.1162  1.1811 -0.6380
  804MOL0     H10889  10.460  10.592   1.345  0.9260  0.2692 -1.1639
  804MOL0     H10890  10.326  10.688   1.332 -0.6435  1.1496  0.9403
  804MOL0     H10891  10.455  10.882   1.309  0.6336  0.9743  0.3490
  804MOL0     H10892  10.519  10.855   1.480 -0.6609 -1.3337 -0.1376
  804MOL0     H10893  10.672  10.885   1.273  0.4809 -0.4703 -2.8370
  804MOL0     H10894  10.642  10.716   1.243  0.6007 -0.4377  0.9596
  804MOL0     H10895  10.745  10.835   1.507 -0.3930  0.3579  0.0718
  804MOL0     H10896  10.724  10.662   1.491  1.4551 -0.4464  0.3946
  804MOL0     H10897  10.900  10.780   1.275 -1.7796  0.7429 -0.2043
  804MOL0     H10898  10.888  10.624   1.330 -0.3513  0.3065  0.8387
  804MOL0     H10899  11.004  10.839   1.497  0.6951 -0.4895  1.7919
  804MOL0     H10900  10.965  10.669   1.552  0.9819  1.6722  2.2147
  804MOL0     H10901  11.124  10.470   1.387 -2.5529  0.3807  0.0042
  804MOL0     H10902  11.400  10.530   1.139 -0.1555  1.2403 -0.1127
  804MOL0     H10903  11.301  10.396   1.208 -0.0860  0.5045 -0.4892
  804MOL0     H10904  11.576  10.446   1.261 -1.6803  1.7103 -2.3356
  804MOL0     H10905  11.507  10.533   1.394 -1.6797 -0.4286 -0.7448
  804MOL0     H10906  11.380  10.345   1.470  1.6316  0.4465  1.7003
  804MOL0     H10907  11.427  10.244   1.329  0.6841 -0.4992 -0.5624
  804MOL0     H10908  11.608  10.333   1.554  1.3869 -1.5372  0.9335
  804MOL0     H10909  11.552  10.167   1.512 -0.6302 -1.3105 -2.2626
  804MOL0     H10910  11.767  10.200   1.632  2.4250  0.5256  2.4606
  804MOL0     H10911  12.034  10.177   1.797 -0.6500 -0.5899  1.7440
  804MOL0     H10912  12.037  10.006   1.747 -1.6785 -0.8049 -0.6005
  804MOL0     H10913  11.884  10.081   1.780 -0.1348  0.1375  1.6677
  804MOL0     H10914  12.468  10.213   1.629  1.0580 -0.6038  0.9907
  804MOL0     H10915  12.698  10.186   1.632 -0.4992 -2.4903  1.5652
  804MOL0     H10916  12.868   9.931   1.323 -5.0483  2.3590 -0.3240
  804MOL0     H10917  12.916  10.086   1.258 -0.0507 -0.4813 -0.9340
  804MOL0     H10918  13.115  10.088   1.416  2.3426 -1.6522 -1.0761
  804MOL0     H10919  13.093   9.925   1.451  1.1917  0.9407  1.2732
  804MOL0     H10920  13.129  10.039   1.163 -1.6867 -2.3470 -1.6270
  804MOL0     H10921  13.098   9.872   1.209 -2.0615  0.3277  0.2455
  804MOL0     H10922  13.344   9.905   1.181  1.0046 -0.3291  0.5684
  804MOL0     H10923  13.305   9.866   1.348  1.1772  0.0950 -0.1774
  804MOL0     H10924  13.395  10.117   1.217  0.7947  2.1006  1.3572
  804MOL0     H10925  13.305  10.124   1.376 -0.1137 -1.5636  0.1731
  804MOL0     H10926  13.454   9.980   1.492 -2.0994  0.2033 -0.4701
  804MOL0     H10927  13.524  10.130   1.421 -2.4623  0.6952 -1.3672
  804MOL0     H10928  13.606   9.985   1.232 -2.1868 -0.7405 -0.5387
  804MOL0     H10929  13.573   9.845   1.347 -0.3817  0.2736 -1.9422
  804MOL0     H10930  13.767  10.074   1.393  0.5228 -0.3237 -1.7267
  804MOL0     H10931  13.799   9.914   1.342  0.3383 -3.0749  3.0136
  804MOL0     H10932  12.676   9.926   1.279  0.7264 -0.6723  0.9639
  804MOL0     H10933  12.434   9.953   1.294 -1.6593  0.3624  2.4187
  804MOL0     H10934  12.125  10.163   1.303 -0.9445  0.0035 -0.9385
  804MOL0     H10935  11.899  10.238   1.237  0.9294 -0.0005 -0.8353
  804MOL0     H10936  10.735  10.407   1.484 -1.5430 -1.7291  1.6863
  804MOL0     H10937  10.963  10.369   1.560  0.4122  0.8481  0.0618
  804MOL0     H10938  11.427  10.427   1.686  0.9906  2.9606  0.4420
  804MOL0     H10939  11.610  10.378   1.807  0.6980  1.0577 -0.4400
  804MOL0     H10940  11.772  10.385   1.960  0.7417  0.2746  0.6585
  804MOL0     H10941  11.830  10.324   2.107  1.4559 -1.3575 -0.9730
  804MOL0     H10942  11.859  10.142   1.987 -0.1316 -4.1570  3.9956
  804MOL0     H10943  11.705  10.166   1.895  1.9139  1.5121 -0.3153
  804MOL0     H10944  11.723  10.081   2.182 -0.7344 -0.0048  1.0297
  804MOL0     H10945  11.576  10.079   2.085  0.2178 -1.1096 -0.1745
  804MOL0     H10946  11.649   9.907   1.938 -2.3217  3.8665  0.3238
  804MOL0     H10947  11.655   9.850   2.106 -1.4931 -0.8403 -2.2164
  804MOL0     H10948  12.073   9.861   1.993 -0.3495  0.7105  2.4016
  804MOL0     H10949  11.370  10.381   2.176 -1.6215 -0.5607 -0.1842
  804MOL0     H10950  11.095  10.332   2.108 -0.3424  0.2364  0.6909
  804MOL0     H10951  11.176  10.452   2.192  0.0282 -0.4926 -0.2098
  804MOL0     H10952  11.072  10.504   2.062  1.7695  2.3730 -0.6622
  805MOL0     O10953   9.982   4.437   8.517  0.7240 -0.4181 -0.2823
  805MOL0     C10954  10.052   4.377   8.600 -0.0419 -0.9120  0.2238
  805MOL0     O10955  10.187   4.373   8.608 -0.2899 -0.2243 -0.0553
  805MOL0     C10956  10.271   4.415   8.514 -0.1859 -0.2613  0.0562
  805MOL0     C10957  10.302   4.344   8.396 -0.3837  0.6792 -0.4499
  805MOL0     C10958  10.389   4.382   8.297  0.3585  0.5853 -0.3303
  805MOL0     C10959  10.470   4.489   8.314 -0.5033 -0.2616 -0.3442
  805MOL0     O10960  10.562   4.507   8.214  0.4714 -0.0229 -0.6611
  805MOL0     C10961  10.588   4.645   8.174 -0.2068  0.2134 -0.3929
  805MOL0     C10962  10.658   4.630   8.048 -0.0305  0.2963 -0.2365
  805MOL0     C10963  10.683   4.761   7.977  0.6779  0.5400  0.5676
  805MOL0     C10964  10.814   4.832   8.019  0.1622 -0.5217 -0.2006
  805MOL0     C10965  10.840   4.949   7.916 -0.2114  0.4914  1.2398
  805MOL0     C10966  10.984   5.005   7.906  0.4544 -0.3077 -0.3228
  805MOL0     C10967  11.076   4.890   7.860 -0.8412 -0.0414  0.1689
  805MOL0     C10968  11.216   4.953   7.821  0.5599 -0.3524 -0.4614
  805MOL0     N10969  11.311   4.855   7.765  0.8101  0.0655  0.0562
  805MOL0     C10970  11.409   4.790   7.830 -0.1262 -0.4850 -0.3365
  805MOL0     C10971  11.462   4.704   7.737  0.9203  0.1906 -0.1196
  805MOL0     C10972  11.575   4.612   7.759 -0.8306 -0.7837  0.3244
  805MOL0     C10973  11.634   4.613   7.897  0.2850  0.7762 -0.5871
  805MOL0     C10974  11.771   4.550   7.927  0.4654 -0.3561 -0.0706
  805MOL0     C10975  11.783   4.407   7.864  0.6019 -0.6416 -0.3107
  805MOL0     O10976  11.911   4.355   7.895  0.7063  0.1739 -0.5507
  805MOL0     C10977  11.956   4.316   8.020  0.6366  0.1438 -0.2061
  805MOL0     C10978  11.877   4.311   8.135 -0.1364 -0.2609 -0.6981
  805MOL0     C10979  11.926   4.277   8.271  0.0161  0.1532  0.3086
  805MOL0     C10980  11.827   4.308   8.375  0.0309  0.1032  0.1361
  805MOL0     C10981  12.057   4.240   8.288 -0.5806 -0.4537  0.3500
  805MOL0     C10982  12.132   4.214   8.422  0.0760  0.0617  0.1225
  805MOL0     O10983  12.265   4.185   8.420 -0.0662 -0.0333  0.6705
  805MOL0     C10984  12.316   4.134   8.539 -0.0605 -0.2499  0.1405
  805MOL0     C10985  12.273   4.033   8.623  0.4385  0.0007 -0.5731
  805MOL0     C10986  12.348   3.987   8.735  0.1635 -0.4404 -1.0110
  805MOL0     C10987  12.470   4.048   8.767  0.4878 -1.1054  0.2030
  805MOL0     O10988  12.531   3.998   8.880 -0.5846 -0.2509 -0.5360
  805MOL0     C10989  12.618   4.088   8.962 -0.1356 -0.6753 -0.0631
  805MOL0     C10990  12.549   4.200   9.044  0.3438  0.2866  0.4441
  805MOL0     C10991  12.442   4.143   9.139 -0.4758 -0.3596  1.0419
  805MOL0     C10992  12.512   4.108   9.280 -1.0103  0.5978  0.6215
  805MOL0     C10993  12.418   4.049   9.386  0.4500 -0.0281  0.1187
  805MOL0     C10994  12.394   3.898   9.367 -0.5323  0.1736 -0.1896
  805MOL0     C10995  12.317   3.848   9.485  0.0339 -0.3510  0.3769
  805MOL0     C10996  12.172   3.913   9.498  0.3891  0.3539 -0.8248
  805MOL0    Cl10997  12.073   3.780   9.573  0.2267 -0.0363 -0.2853
  805MOL0     C10998  12.505   4.163   8.693  0.1544  0.7583 -0.8428
  805MOL0     C10999  12.432   4.205   8.588 -1.2883  1.0422  0.0106
  805MOL0     O11000  12.062   4.214   8.522 -0.2948 -0.3619 -0.7120
  805MOL0     C11001  12.142   4.258   8.176  0.3101  0.2586  0.2582
  805MOL0     C11002  12.092   4.294   8.044 -0.3937 -0.9880 -0.2372
  805MOL0     N11003  11.392   4.714   7.620 -0.3502  0.5679  0.0010
  805MOL0     N11004  11.303   4.809   7.639 -1.1834 -0.1549 -0.4865
  805MOL0     C11005  10.447   4.567   8.426 -0.2139 -0.4809  0.4052
  805MOL0     C11006  10.356   4.523   8.532 -0.1753 -0.1652  0.0328
  805MOL0     C11007   9.964   4.307   8.700  0.3640  0.1276 -0.3158
  805MOL0     C11008   9.815   4.324   8.705 -0.2473  0.1856 -0.9683
  805MOL0     C11009   9.733   4.260   8.805 -0.1321 -0.5952 -0.2000
  805MOL0     C11010   9.796   4.191   8.907  0.6755 -0.6338 -0.1333
  805MOL0     O11011   9.707   4.157   9.008 -0.3547 -0.6084 -0.3995
  805MOL0     C11012   9.754   4.067   9.107  0.1497  0.8661 -0.7628
  805MOL0     C11013   9.639   3.993   9.176  0.9906 -0.3849  0.2911
  805MOL0     C11014   9.531   4.090   9.232 -0.5316 -0.6032 -0.5985
  805MOL0     C11015   9.593   4.185   9.334  0.4596  0.5053  0.6564
  805MOL0     C11016   9.502   4.275   9.397  0.4105 -0.2793  1.2909
  805MOL0     C11017   9.420   4.349   9.445  0.1085 -0.5168  0.8342
  805MOL0     C11018   9.931   4.178   8.898  0.3740 -0.0072 -0.5374
  805MOL0     C11019  10.019   4.222   8.811 -0.3136 -0.7857  0.7791
  805MOL0     C11020  10.160   4.179   8.812 -0.4135 -0.3062 -0.6641
  805MOL0     H11021  10.247   4.252   8.386  0.7646  0.1490 -2.7049
  805MOL0     H11022  10.391   4.318   8.209 -0.8441  2.3806 -1.7207
  805MOL0     H11023  10.657   4.683   8.250  1.5355 -0.8950 -1.3493
  805MOL0     H11024  10.500   4.710   8.170 -1.8950 -1.2684  4.3239
  805MOL0     H11025  10.753   4.580   8.069  0.6646  2.5916  2.8369
  805MOL0     H11026  10.603   4.555   7.990  1.2704 -2.1761  1.5307
  805MOL0     H11027  10.693   4.747   7.868  0.8059 -1.8584  0.8324
  805MOL0     H11028  10.595   4.824   7.986 -0.0128 -0.6372  2.4597
  805MOL0     H11029  10.807   4.867   8.122 -2.3158 -1.2797 -0.0502
  805MOL0     H11030  10.891   4.755   8.009  1.0545  0.4653 -1.1988
  805MOL0     H11031  10.768   5.029   7.930  0.7110  1.4211  0.8252
  805MOL0     H11032  10.835   4.909   7.814  3.5012 -0.1571  1.1688
  805MOL0     H11033  10.970   5.076   7.824 -0.6109  0.0177  0.1166
  805MOL0     H11034  11.023   5.051   7.998  3.7961 -2.0354 -0.7390
  805MOL0     H11035  11.030   4.844   7.772  0.2299  0.7696 -0.8508
  805MOL0     H11036  11.090   4.823   7.945  2.2554  0.2697  0.0373
  805MOL0     H11037  11.204   5.044   7.763  0.5851 -2.2218 -3.6313
  805MOL0     H11038  11.251   4.963   7.924  0.7921 -2.7088 -0.2549
  805MOL0     H11039  11.443   4.798   7.933 -0.2044  1.2806 -0.4285
  805MOL0     H11040  11.648   4.647   7.685  1.7200  0.3275  3.1339
  805MOL0     H11041  11.554   4.507   7.737 -0.8506 -0.6422 -0.3566
  805MOL0     H11042  11.642   4.718   7.927 -2.6426  0.7824  0.5166
  805MOL0     H11043  11.563   4.557   7.958 -1.8303  1.4075 -2.3292
  805MOL0     H11044  11.856   4.605   7.885  0.4518  0.1591  0.5671
  805MOL0     H11045  11.791   4.549   8.034 -1.4933 -0.0532  0.3352
  805MOL0     H11046  11.711   4.335   7.905 -1.5266  0.8051 -1.3626
  805MOL0     H11047  11.769   4.409   7.756  0.6676 -1.5241 -0.3438
  805MOL0     H11048  11.770   4.325   8.130 -0.0023  0.6463 -1.1482
  805MOL0     H11049  11.810   4.217   8.434 -0.5259 -0.2793 -0.5977
  805MOL0     H11050  11.730   4.346   8.341  0.2574 -1.2717 -2.2916
  805MOL0     H11051  11.867   4.382   8.444 -0.6178 -1.3459  2.1593
  805MOL0     H11052  12.174   3.999   8.593  0.3245 -1.1276  0.9642
  805MOL0     H11053  12.303   3.897   8.775 -0.7310  0.0612 -0.8825
  805MOL0     H11054  12.676   4.027   9.031 -2.3995 -3.3456 -0.3447
  805MOL0     H11055  12.686   4.149   8.901 -0.1974 -0.5464 -0.0046
  805MOL0     H11056  12.629   4.252   9.099  0.8684 -0.9996  0.9197
  805MOL0     H11057  12.503   4.271   8.974  0.7916  0.0953 -0.0542
  805MOL0     H11058  12.400   4.054   9.092 -0.2639 -0.6537  1.4070
  805MOL0     H11059  12.358   4.211   9.155  1.8777  2.1378  3.9612
  805MOL0     H11060  12.553   4.199   9.324  0.2258  0.5816 -0.4497
  805MOL0     H11061  12.595   4.038   9.270 -0.2381  0.8793  3.8523
  805MOL0     H11062  12.457   4.075   9.485 -1.9664  0.2827  1.0638
  805MOL0     H11063  12.322   4.102   9.391 -0.2417 -1.1279 -1.0178
  805MOL0     H11064  12.492   3.850   9.356  0.2462  1.8898 -1.1830
  805MOL0     H11065  12.337   3.878   9.275 -3.5206 -0.1061  1.6121
  805MOL0     H11066  12.372   3.859   9.579 -0.0115 -0.3704  0.4055
  805MOL0     H11067  12.307   3.741   9.466  1.7427 -0.2769 -1.2714
  805MOL0     H11068  12.133   3.940   9.399 -1.7950  1.8650  0.3544
  805MOL0     H11069  12.162   3.998   9.567 -0.2380  0.0941 -0.5903
  805MOL0     H11070  12.590   4.224   8.722  0.1954  0.7331 -0.9102
  805MOL0     H11071  12.458   4.298   8.540  3.8354  1.2289  2.4093
  805MOL0     H11072  12.248   4.233   8.178  0.2208 -0.0973  0.5624
  805MOL0     H11073  12.169   4.306   7.968  0.4693  2.4252  1.0020
  805MOL0     H11074  10.513   4.653   8.438 -0.0070 -0.0719 -2.7902
  805MOL0     H11075  10.353   4.578   8.626 -0.8327 -0.3631  0.1361
  805MOL0     H11076   9.763   4.380   8.628 -1.4218  0.4965  0.0258
  805MOL0     H11077   9.630   4.293   8.800 -0.7327 -1.4348  3.4979
  805MOL0     H11078   9.823   3.994   9.062  0.7862  0.3728  0.9450
  805MOL0     H11079   9.817   4.132   9.169  2.7320  0.2489 -2.5898
  805MOL0     H11080   9.668   3.922   9.253 -0.9475  0.5963  2.0363
  805MOL0     H11081   9.591   3.939   9.094 -0.0145  1.0773 -0.1285
  805MOL0     H11082   9.491   4.161   9.159  2.0706 -0.6388 -2.1842
  805MOL0     H11083   9.449   4.031   9.274  1.0593 -2.6363 -0.1938
  805MOL0     H11084   9.665   4.240   9.272  1.4609 -0.0245  1.3310
  805MOL0     H11085   9.645   4.120   9.405  3.2898  2.9136  0.9580
  805MOL0     H11086   9.344   4.418   9.477 -0.1436  1.0041 -2.5959
  805MOL0     H11087   9.968   4.117   8.980  0.1035 -0.9671 -1.1117
  805MOL0     H11088  10.224   4.267   8.828 -0.1705 -0.6569  0.3999
  805MOL0     H11089  10.182   4.112   8.896  3.9608 -0.9542 -2.0353
  805MOL0     H11090  10.182   4.125   8.719 -0.5778 -2.7134  0.6065
  806MOL0     O11091   9.054  10.228   5.369  0.1122 -0.5302 -0.2102
  806MOL0     C11092   8.985  10.254   5.469  0.6012 -0.5522  0.4434
  806MOL0     O11093   8.913  10.375   5.486 -0.4065 -0.3093 -0.1127
  806MOL0     C11094   8.914  10.451   5.377 -0.7362 -0.1023 -0.1158
  806MOL0     C11095   8.846  10.422   5.263 -0.1740 -0.3473  0.0008
  806MOL0     C11096   8.849  10.504   5.142  0.0715 -0.4331  0.3937
  806MOL0     C11097   8.938  10.610   5.147  0.0629  0.9085  0.9984
  806MOL0     O11098   8.949  10.696   5.043 -0.3818  0.3453  0.4047
  806MOL0     C11099   9.002  10.642   4.927 -0.2260 -0.5079  0.4215
  806MOL0     C11100   8.918  10.689   4.806  0.4103  0.9402 -0.3023
  806MOL0     C11101   8.793  10.601   4.781  0.0076 -0.1432  0.1596
  806MOL0     C11102   8.716  10.636   4.654  0.7325  0.8345  0.1297
  806MOL0     C11103   8.632  10.511   4.614  0.5777 -0.8971  0.0099
  806MOL0     C11104   8.562  10.534   4.484 -0.1974 -0.2928 -0.2624
  806MOL0     C11105   8.441  10.639   4.506 -0.1425  1.2591  0.8893
  806MOL0     C11106   8.346  10.647   4.388 -0.1574 -0.1279 -0.2185
  806MOL0     N11107   8.230  10.733   4.424 -0.1191  0.1501  0.4025
  806MOL0     C11108   8.243  10.868   4.445  0.2352 -0.4337 -0.2934
  806MOL0     C11109   8.117  10.913   4.442  0.9445  0.1683  0.2584
  806MOL0     C11110   8.070  11.058   4.445 -0.4658 -0.3009 -1.0633
  806MOL0     C11111   8.137  11.154   4.341  0.8933  0.6934  0.0913
  806MOL0     C11112   8.085  11.297   4.329  0.4410  0.0823  0.5525
  806MOL0     C11113   7.936  11.297   4.309  0.6106 -0.0358  0.7514
  806MOL0     O11114   7.889  11.191   4.220  0.2365 -0.0221  0.5184
  806MOL0     C11115   7.768  11.137   4.237 -0.1870 -0.4863 -0.0651
  806MOL0     C11116   7.668  11.176   4.327 -0.4553  0.0381 -0.0224
  806MOL0     C11117   7.545  11.115   4.334 -0.5731  1.1521 -0.4542
  806MOL0     C11118   7.440  11.187   4.423 -0.2446 -0.0316 -0.2287
  806MOL0     C11119   7.520  10.995   4.249  0.3814 -0.1485 -0.0913
  806MOL0     C11120   7.386  10.923   4.239 -1.0586  0.7689  0.5503
  806MOL0     O11121   7.378  10.830   4.139 -0.1792  0.4980  0.8697
  806MOL0     C11122   7.275  10.740   4.132  0.7358  0.8913 -0.4049
  806MOL0     C11123   7.196  10.720   4.012  0.8465  0.8690 -0.6904
  806MOL0     C11124   7.079  10.641   4.014 -0.1380 -0.5045 -0.5369
  806MOL0     C11125   7.030  10.593   4.135 -0.5061 -0.5920  0.0308
  806MOL0     O11126   6.908  10.534   4.140  0.7705  0.1062  0.0842
  806MOL0     C11127   6.799  10.617   4.099  0.5281  0.2222 -0.6323
  806MOL0     C11128   6.718  10.538   3.997  0.5566 -0.4548 -0.0271
  806MOL0     C11129   6.584  10.580   3.969  0.4919  0.1386 -0.4623
  806MOL0     C11130   6.528  10.480   3.867  0.8781  0.4941  0.3704
  806MOL0     C11131   6.373  10.500   3.837  0.7720 -1.0927 -0.3736
  806MOL0     C11132   6.286  10.426   3.946  0.2980  0.1519 -0.0190
  806MOL0     C11133   6.140  10.431   3.916  0.2233 -0.0510 -0.2732
  806MOL0     C11134   6.099  10.367   3.793 -0.4401  0.4963  0.6445
  806MOL0    Cl11135   5.924  10.418   3.765 -0.2895 -0.6230  0.4677
  806MOL0     C11136   7.114  10.598   4.249  0.5069 -0.2249 -0.3601
  806MOL0     C11137   7.241  10.662   4.247 -0.0478  0.1687 -0.0409
  806MOL0     O11138   7.292  10.941   4.318  0.7598  0.3199  0.6693
  806MOL0     C11139   7.629  10.953   4.173  0.9830  0.8941  0.1468
  806MOL0     C11140   7.745  11.025   4.165  0.6400  0.1137 -0.7070
  806MOL0     N11141   8.034  10.806   4.408  0.5065 -0.0733  0.4416
  806MOL0     N11142   8.102  10.699   4.406 -0.0466 -0.0857 -0.2154
  806MOL0     C11143   9.011  10.643   5.261  0.2430 -0.0938 -0.1634
  806MOL0     C11144   8.993  10.566   5.378  0.5823  0.2149 -0.8490
  806MOL0     C11145   8.980  10.163   5.584 -0.4625  0.1370 -0.7141
  806MOL0     C11146   8.928  10.208   5.714 -0.2932  0.5281 -0.7114
  806MOL0     C11147   8.930  10.126   5.827  0.6221 -0.5296  0.4117
  806MOL0     C11148   8.993  10.001   5.820 -0.1224 -0.1127 -0.2802
  806MOL0     O11149   8.975   9.919   5.926 -0.3108  0.6397 -0.7066
  806MOL0     C11150   8.872   9.814   5.915  0.1440 -0.3097 -0.5611
  806MOL0     C11151   8.819   9.747   6.044  0.4077 -0.5811  1.0038
  806MOL0     C11152   8.732   9.634   6.012 -0.4930  0.1318  0.0572
  806MOL0     C11153   8.679   9.556   6.128 -0.1207  0.3250 -0.7522
  806MOL0     C11154   8.774   9.504   6.223  0.3698  0.1935 -0.2510
  806MOL0     C11155   8.871   9.464   6.293 -0.1608  0.1565 -0.3621
  806MOL0     C11156   9.045   9.958   5.700  0.1871 -0.3308  0.3709
  806MOL0     C11157   9.027  10.031   5.576 -0.0429 -0.4767  0.0777
  806MOL0     C11158   9.060   9.962   5.447 -0.2263 -0.2418 -0.5949
  806MOL0     H11159   8.783  10.333   5.266 -4.1809  2.2388 -0.8309
  806MOL0     H11160   8.804  10.458   5.056 -0.9379  0.1372  0.6001
  806MOL0     H11161   9.015  10.533   4.929  0.0931 -0.4860 -0.1639
  806MOL0     H11162   9.100  10.690   4.928 -2.0459  3.7018  0.3667
  806MOL0     H11163   8.889  10.792   4.829 -0.1024  0.3128  2.2377
  806MOL0     H11164   8.983  10.687   4.719  1.5198  2.9392  0.4344
  806MOL0     H11165   8.830  10.499   4.773 -0.2188 -0.2749  0.7020
  806MOL0     H11166   8.729  10.610   4.870 -0.0454 -2.0076  0.3413
  806MOL0     H11167   8.646  10.716   4.678  0.5514  0.4887  0.8061
  806MOL0     H11168   8.772  10.663   4.564 -0.8752 -2.0165 -1.8866
  806MOL0     H11169   8.567  10.488   4.699  1.7343  0.0281  1.2077
  806MOL0     H11170   8.695  10.422   4.607  1.0344 -0.5497 -0.3669
  806MOL0     H11171   8.638  10.561   4.411  0.2071 -3.3362 -1.1023
  806MOL0     H11172   8.521  10.437   4.454 -0.0683 -0.7295  0.9270
  806MOL0     H11173   8.481  10.740   4.518 -0.7585  1.8330 -1.3189
  806MOL0     H11174   8.383  10.604   4.592  0.7962 -3.3946 -0.0839
  806MOL0     H11175   8.405  10.685   4.304  0.9419 -0.8494  0.2026
  806MOL0     H11176   8.309  10.549   4.355 -1.4929 -0.7529  2.7984
  806MOL0     H11177   8.339  10.919   4.445  1.7990 -3.1546 -1.0801
  806MOL0     H11178   8.100  11.096   4.543 -1.2246 -0.9562 -0.5680
  806MOL0     H11179   7.961  11.070   4.447 -0.2617  2.4260  1.1685
  806MOL0     H11180   8.245  11.151   4.356  1.0836  1.6772 -0.8837
  806MOL0     H11181   8.121  11.107   4.243 -1.2557  0.9243  0.2858
  806MOL0     H11182   8.113  11.354   4.418  2.8616  0.9908 -0.6842
  806MOL0     H11183   8.140  11.343   4.246  0.1967  4.3790  2.5018
  806MOL0     H11184   7.895  11.281   4.409  0.4478 -0.7501  0.5768
  806MOL0     H11185   7.909  11.393   4.264 -1.6292 -1.0189 -0.1816
  806MOL0     H11186   7.673  11.267   4.386  0.6535  1.0102 -1.5566
  806MOL0     H11187   7.339  11.172   4.383 -1.8639  1.5473  2.9329
  806MOL0     H11188   7.469  11.289   4.447  1.3200 -0.1623 -1.4017
  806MOL0     H11189   7.442  11.138   4.521  1.8276  1.2685  0.4422
  806MOL0     H11190   7.229  10.774   3.923  1.2847  2.0280  0.1498
  806MOL0     H11191   7.029  10.645   3.918 -1.7893  1.7183  0.3446
  806MOL0     H11192   6.743  10.632   4.192  2.0550 -7.1897  2.1282
  806MOL0     H11193   6.825  10.714   4.055 -0.9367  1.1841  0.5222
  806MOL0     H11194   6.776  10.556   3.906 -1.1428  1.8200 -0.7706
  806MOL0     H11195   6.724  10.431   4.018 -0.3652 -0.2749  1.2516
  806MOL0     H11196   6.574  10.681   3.926  1.6524  0.5971  0.3128
  806MOL0     H11197   6.516  10.569   4.054 -0.5399  0.4286 -1.2285
  806MOL0     H11198   6.552  10.376   3.889  2.0565  0.5692 -0.4478
  806MOL0     H11199   6.577  10.506   3.773 -2.9798  1.6256 -1.5297
  806MOL0     H11200   6.348  10.606   3.843  1.1184 -0.8629 -2.4206
  806MOL0     H11201   6.361  10.457   3.737  0.2258 -0.5139 -0.5638
  806MOL0     H11202   6.289  10.475   4.043 -1.7965  2.1229 -0.8513
  806MOL0     H11203   6.317  10.321   3.951  0.6056  0.3107  2.2500
  806MOL0     H11204   6.123  10.539   3.911  2.6745  0.3505 -1.5227
  806MOL0     H11205   6.079  10.378   3.990  1.0428  0.5755  0.8897
  806MOL0     H11206   6.101  10.258   3.793  0.9511  0.5018  0.1395
  806MOL0     H11207   6.160  10.395   3.707 -1.8868  3.8319  0.5341
  806MOL0     H11208   7.082  10.552   4.342  2.1136  0.2627  0.4595
  806MOL0     H11209   7.303  10.665   4.336 -0.0539  0.6195 -0.0469
  806MOL0     H11210   7.618  10.857   4.123 -1.3908  0.4907  1.2936
  806MOL0     H11211   7.832  10.992   4.108  1.4323 -0.4472  0.7631
  806MOL0     H11212   9.075  10.731   5.260 -0.5800  0.5099 -0.4746
  806MOL0     H11213   9.050  10.589   5.467  1.6878 -1.0135 -1.2146
  806MOL0     H11214   8.884  10.307   5.718 -1.6593 -0.0745  0.0718
  806MOL0     H11215   8.891  10.166   5.920 -1.7565 -1.0691 -0.2866
  806MOL0     H11216   8.784   9.850   5.860 -0.9405 -2.0483 -0.0555
  806MOL0     H11217   8.917   9.735   5.855 -0.0310 -0.0211 -1.0791
  806MOL0     H11218   8.766   9.818   6.108  1.1439 -0.2566  1.2658
  806MOL0     H11219   8.910   9.714   6.095  2.0720  1.0618 -0.7004
  806MOL0     H11220   8.655   9.669   5.943  1.6368  0.8632 -2.0761
  806MOL0     H11221   8.788   9.562   5.952 -0.5342 -0.5442  0.8087
  806MOL0     H11222   8.625   9.469   6.088  0.7500 -1.4396  1.6628
  806MOL0     H11223   8.600   9.618   6.172  1.3835  0.6643  1.6126
  806MOL0     H11224   8.954   9.434   6.354 -1.0740 -1.8793 -0.0149
  806MOL0     H11225   9.094   9.861   5.700  0.7512 -0.0580  1.6242
  806MOL0     H11226   8.988   9.980   5.366 -1.2148  0.0229  0.3223
  806MOL0     H11227   9.161   9.985   5.411  0.6703 -1.0256  1.2955
  806MOL0     H11228   9.063   9.858   5.480  2.3344  0.9346  3.8280
  807MOL0     O11229   7.599   5.873   2.123 -0.0089 -0.3916 -0.0991
  807MOL0     C11230   7.522   5.881   2.020  0.4567  0.3461 -0.2725
  807MOL0     O11231   7.520   5.991   1.938  0.5210 -0.1373 -0.9400
  807MOL0     C11232   7.609   6.088   1.970  0.1196 -0.4073  0.3351
  807MOL0     C11233   7.572   6.189   2.052 -0.3325 -0.0331 -0.8178
  807MOL0     C11234   7.667   6.281   2.088 -0.5574  0.3989  0.8637
  807MOL0     C11235   7.802   6.273   2.050 -0.7714  0.7182  0.1173
  807MOL0     O11236   7.895   6.363   2.106  0.2158  0.7768  0.2792
  807MOL0     C11237   7.870   6.500   2.090  0.4792  0.2612  0.8618
  807MOL0     C11238   7.975   6.591   2.134 -0.4189  0.3791  0.5237
  807MOL0     C11239   8.109   6.563   2.063  0.3861 -0.3256  0.4052
  807MOL0     C11240   8.205   6.483   2.148 -0.2778 -0.5141 -0.5882
  807MOL0     C11241   8.278   6.561   2.260  0.9215 -0.6409  0.1409
  807MOL0     C11242   8.381   6.478   2.344 -0.3791 -0.0254 -1.1562
  807MOL0     C11243   8.306   6.392   2.448 -0.6641 -0.6395 -0.0556
  807MOL0     C11244   8.286   6.456   2.584 -0.6151  0.1746  0.0423
  807MOL0     N11245   8.411   6.514   2.645  0.1724  0.2526 -0.0387
  807MOL0     C11246   8.536   6.455   2.638 -0.1809 -0.1917 -0.3117
  807MOL0     C11247   8.624   6.547   2.695  0.2126 -0.2123  0.2124
  807MOL0     C11248   8.766   6.522   2.721  0.5226  0.2758  0.4385
  807MOL0     C11249   8.775   6.500   2.869  0.5090 -0.1966 -0.2220
  807MOL0     C11250   8.693   6.385   2.922  0.1273  0.5688 -0.4851
  807MOL0     C11251   8.726   6.330   3.062 -0.2494 -0.5953  0.0262
  807MOL0     O11252   8.867   6.313   3.085 -0.0988 -0.4658  0.5482
  807MOL0     C11253   8.941   6.232   3.004  0.1302  0.4528 -0.0441
  807MOL0     C11254   9.071   6.267   2.998 -1.4260 -0.7025  0.0874
  807MOL0     C11255   9.161   6.190   2.937 -0.2101  0.2561  0.8324
  807MOL0     C11256   9.305   6.221   2.966 -0.0249 -0.3216 -0.9155
  807MOL0     C11257   9.119   6.061   2.874 -0.1808 -0.4336  1.1755
  807MOL0     C11258   9.212   5.975   2.791 -0.0539  0.6018  0.4047
  807MOL0     O11259   9.181   5.846   2.760 -0.3224 -0.8593 -0.0229
  807MOL0     C11260   9.253   5.754   2.675 -0.0829 -0.1929  0.0625
  807MOL0     C11261   9.198   5.629   2.668 -0.6984  1.1864 -0.6836
  807MOL0     C11262   9.262   5.520   2.611 -0.3974  0.0469 -1.0049
  807MOL0     C11263   9.394   5.535   2.558 -0.8740 -0.4867 -0.0563
  807MOL0     O11264   9.471   5.433   2.501 -0.2245  0.1383  0.2378
  807MOL0     C11265   9.391   5.343   2.419  0.1093 -1.1344  0.3270
  807MOL0     C11266   9.458   5.209   2.435 -0.7643 -1.1389 -0.4831
  807MOL0     C11267   9.382   5.092   2.363 -0.6843 -0.5694  0.1828
  807MOL0     C11268   9.262   5.054   2.445 -0.5944 -0.3385  0.6521
  807MOL0     C11269   9.208   4.911   2.431  0.6436 -0.4716  0.1608
  807MOL0     C11270   9.143   4.884   2.290 -0.0570  0.2088  0.4278
  807MOL0     C11271   9.062   4.746   2.271 -0.3262 -0.0360  0.1146
  807MOL0     C11272   9.168   4.646   2.235 -0.5917 -0.3733 -0.0906
  807MOL0    Cl11273   9.114   4.483   2.207 -0.0237  0.3055  0.3106
  807MOL0     C11274   9.460   5.660   2.581 -0.4925  0.1286 -0.5851
  807MOL0     C11275   9.387   5.769   2.631 -0.2613 -0.0791  0.0508
  807MOL0     O11276   9.305   6.036   2.742 -0.5964  0.1383 -0.4712
  807MOL0     C11277   8.983   6.033   2.869 -0.3621 -0.4227  1.0729
  807MOL0     C11278   8.894   6.123   2.938 -0.2941  0.4575 -0.1099
  807MOL0     N11279   8.551   6.661   2.726  0.4227  0.0239 -0.4489
  807MOL0     N11280   8.423   6.638   2.703 -0.1973 -0.5698  0.1362
  807MOL0     C11281   7.836   6.167   1.959  0.4285 -0.0831 -0.5288
  807MOL0     C11282   7.742   6.067   1.924 -0.3319 -0.4236  0.2558
  807MOL0     C11283   7.432   5.772   1.970  1.0313  1.2640  0.6972
  807MOL0     C11284   7.332   5.806   1.878 -0.5541 -1.0602  0.8472
  807MOL0     C11285   7.246   5.716   1.821  0.9583 -0.9155 -0.5389
  807MOL0     C11286   7.250   5.586   1.874 -0.4669 -0.0890 -0.6594
  807MOL0     O11287   7.169   5.490   1.828  0.6025 -0.1071 -0.5073
  807MOL0     C11288   7.145   5.483   1.690 -0.0659  0.5984  0.0056
  807MOL0     C11289   7.152   5.331   1.659  0.0461 -0.0680  0.3480
  807MOL0     C11290   7.146   5.306   1.508  0.5721 -1.3591 -0.5177
  807MOL0     C11291   7.146   5.161   1.469 -0.3553 -0.2962 -0.7875
  807MOL0     C11292   7.078   5.140   1.339 -0.1466 -0.3670  0.3078
  807MOL0     C11293   7.002   5.146   1.244 -0.1241 -0.1590 -0.0973
  807MOL0     C11294   7.334   5.552   1.981  0.5749  0.4768 -1.1371
  807MOL0     C11295   7.437   5.641   2.025  0.9792  0.7750  1.2158
  807MOL0     C11296   7.551   5.593   2.108  1.0090 -0.4265  0.0417
  807MOL0     H11297   7.470   6.189   2.089  0.0147 -0.7943  0.2215
  807MOL0     H11298   7.628   6.369   2.140  0.8733  1.8148 -0.3520
  807MOL0     H11299   7.779   6.510   2.148  0.3140 -0.3198  0.7105
  807MOL0     H11300   7.852   6.535   1.988  2.9632  1.6917  0.8167
  807MOL0     H11301   7.952   6.698   2.126 -1.1162  0.1866 -0.2750
  807MOL0     H11302   7.988   6.563   2.239 -2.8044 -0.7921  0.5926
  807MOL0     H11303   8.095   6.505   1.971  0.1461  0.8250 -0.3047
  807MOL0     H11304   8.155   6.656   2.028 -2.6076  0.1195 -2.9260
  807MOL0     H11305   8.151   6.401   2.197 -0.7843  0.4745  0.5571
  807MOL0     H11306   8.278   6.441   2.079 -2.2287 -3.9426 -0.7815
  807MOL0     H11307   8.203   6.608   2.324  0.7050  1.1105 -1.2971
  807MOL0     H11308   8.332   6.643   2.212 -0.5092  0.9635  1.1504
  807MOL0     H11309   8.436   6.416   2.272  0.1223 -1.0123  0.0414
  807MOL0     H11310   8.454   6.538   2.400 -1.0480 -1.0656  0.9277
  807MOL0     H11311   8.356   6.297   2.469  2.2222  0.9545  0.8621
  807MOL0     H11312   8.202   6.378   2.417 -0.8685  1.3739 -0.4262
  807MOL0     H11313   8.206   6.530   2.578 -1.6090 -0.9741 -1.5795
  807MOL0     H11314   8.248   6.379   2.652 -0.9175  0.1457 -0.1607
  807MOL0     H11315   8.565   6.354   2.611  2.0028 -0.1142  1.4626
  807MOL0     H11316   8.821   6.615   2.706  3.4916 -0.7992  3.5356
  807MOL0     H11317   8.794   6.431   2.667  0.8604  0.5558  0.1412
  807MOL0     H11318   8.882   6.483   2.880  0.4402 -1.6766 -1.4777
  807MOL0     H11319   8.759   6.588   2.932  2.2981  1.3157 -1.7613
  807MOL0     H11320   8.586   6.410   2.927 -0.2691 -0.4055 -3.0001
  807MOL0     H11321   8.704   6.296   2.860  1.0486 -0.0315  0.5009
  807MOL0     H11322   8.696   6.405   3.135 -0.1691  0.6125 -1.1507
  807MOL0     H11323   8.677   6.237   3.093  0.5844 -0.4030  2.0938
  807MOL0     H11324   9.098   6.355   3.057  0.7896 -0.3183 -1.3885
  807MOL0     H11325   9.314   6.284   3.055 -3.1327  0.6170 -1.1439
  807MOL0     H11326   9.349   6.296   2.899  0.0594  0.5172  0.0621
  807MOL0     H11327   9.368   6.132   2.973 -2.5594 -2.0661  1.9922
  807MOL0     H11328   9.100   5.610   2.712  0.0615  2.8732  1.9607
  807MOL0     H11329   9.231   5.416   2.615  1.5468 -0.7797 -4.1067
  807MOL0     H11330   9.283   5.339   2.436 -0.1834  1.5377 -0.3562
  807MOL0     H11331   9.407   5.365   2.313 -0.8182 -1.5430  0.0896
  807MOL0     H11332   9.555   5.217   2.386 -0.4437  3.1523  0.4507
  807MOL0     H11333   9.479   5.195   2.541  0.9634  0.7405 -0.5236
  807MOL0     H11334   9.444   5.002   2.363  0.4937  0.2268 -0.1859
  807MOL0     H11335   9.357   5.124   2.262 -2.5938 -3.7542 -0.4887
  807MOL0     H11336   9.188   5.134   2.441 -2.7317 -2.1797  1.4752
  807MOL0     H11337   9.290   5.056   2.550 -2.0888 -2.3182  1.1606
  807MOL0     H11338   9.289   4.838   2.444  0.8163  0.0763  2.7772
  807MOL0     H11339   9.128   4.908   2.506 -2.4073  2.7636 -2.6057
  807MOL0     H11340   9.222   4.878   2.214 -0.5969 -0.7654 -0.0747
  807MOL0     H11341   9.072   4.968   2.280 -0.9394 -0.6719 -1.2494
  807MOL0     H11342   9.000   4.752   2.181 -0.4579 -1.2172  0.1182
  807MOL0     H11343   9.009   4.707   2.359  0.3242  0.0929  0.5734
  807MOL0     H11344   9.250   4.652   2.307 -0.5258  1.5617 -0.2670
  807MOL0     H11345   9.216   4.674   2.141  3.0612 -1.8392  1.1645
  807MOL0     H11346   9.562   5.685   2.551 -0.4364  1.9882  0.9594
  807MOL0     H11347   9.445   5.860   2.648  2.0224 -1.8269  2.3978
  807MOL0     H11348   8.943   5.943   2.823 -2.8195  0.9964  0.2453
  807MOL0     H11349   8.794   6.081   2.943  0.9245 -2.7425 -0.3611
  807MOL0     H11350   7.940   6.155   1.931  0.4367 -1.2473 -0.0656
  807MOL0     H11351   7.771   5.989   1.854 -0.6161  2.4694 -3.3821
  807MOL0     H11352   7.319   5.909   1.845 -2.3014 -1.8344 -1.1333
  807MOL0     H11353   7.171   5.755   1.752 -3.2338 -4.4549  1.5184
  807MOL0     H11354   7.044   5.522   1.674  0.1882  1.3368  0.1164
  807MOL0     H11355   7.208   5.539   1.620 -0.6851 -1.0538 -1.9630
  807MOL0     H11356   7.068   5.284   1.711 -0.4404  1.0380  0.5760
  807MOL0     H11357   7.244   5.287   1.700 -0.4315 -2.8111 -1.2534
  807MOL0     H11358   7.052   5.355   1.481  0.7476 -0.1690  0.9197
  807MOL0     H11359   7.221   5.358   1.447  0.9262 -1.8200 -0.4822
  807MOL0     H11360   7.098   5.099   1.546 -0.8712  4.0097  2.7381
  807MOL0     H11361   7.250   5.127   1.471  1.3825  4.4178  1.2001
  807MOL0     H11362   6.932   5.140   1.163  1.9667 -2.2489 -1.8739
  807MOL0     H11363   7.331   5.448   2.014 -1.4040 -0.3377 -3.5364
  807MOL0     H11364   7.646   5.623   2.064  0.7286 -0.6721 -0.7540
  807MOL0     H11365   7.545   5.650   2.201  0.0651  3.0420 -1.9575
  807MOL0     H11366   7.551   5.485   2.125 -2.1017 -0.2640  1.8835
  808MOL0     O11367   9.315   6.341   5.012 -0.1245 -0.3360 -0.2246
  808MOL0     C11368   9.364   6.224   5.006 -0.1924 -0.0646 -0.1240
  808MOL0     O11369   9.386   6.159   4.890 -0.6852  0.0551  0.7072
  808MOL0     C11370   9.394   6.252   4.785  0.1479  0.3545 -0.0981
  808MOL0     C11371   9.301   6.237   4.681  1.2283 -0.5787  0.0984
  808MOL0     C11372   9.305   6.324   4.572  0.4082  1.3085 -0.9391
  808MOL0     C11373   9.409   6.418   4.560  0.0476  0.8407  0.2031
  808MOL0     O11374   9.425   6.499   4.451 -0.7546  0.1074  0.0503
  808MOL0     C11375   9.459   6.426   4.332  0.6649  0.2178 -0.2463
  808MOL0     C11376   9.562   6.507   4.257 -0.4099 -0.5293 -0.3353
  808MOL0     C11377   9.564   6.484   4.108  0.1581 -0.9510  1.0749
  808MOL0     C11378   9.645   6.583   4.018  0.3757  0.0021 -0.0617
  808MOL0     C11379   9.616   6.566   3.865  0.5431 -0.0364 -0.0311
  808MOL0     C11380   9.715   6.467   3.806 -0.4354 -0.7894  0.5063
  808MOL0     C11381   9.679   6.437   3.661  0.0271  0.3149 -0.4344
  808MOL0     C11382   9.537   6.471   3.604  0.1335 -0.2765  0.7909
  808MOL0     N11383   9.528   6.427   3.463  0.9794  0.1926 -1.1551
  808MOL0     C11384   9.548   6.300   3.411  0.5615 -0.2467 -0.0484
  808MOL0     C11385   9.528   6.317   3.279 -0.1004  0.3849  0.5626
  808MOL0     C11386   9.577   6.219   3.180 -1.0162  0.2787 -0.2498
  808MOL0     C11387   9.640   6.274   3.045  0.0457  0.8340 -0.4893
  808MOL0     C11388   9.692   6.158   2.952  0.1796 -0.2222  0.0228
  808MOL0     C11389   9.773   6.047   3.026  1.1563  0.3456  0.6308
  808MOL0     O11390   9.686   5.948   3.079  0.1369  0.0894 -0.2570
  808MOL0     C11391   9.745   5.848   3.152 -0.6512  1.2523 -0.0527
  808MOL0     C11392   9.665   5.752   3.210  0.1293 -0.0106 -0.2667
  808MOL0     C11393   9.720   5.656   3.294  0.0854 -0.2350 -0.0536
  808MOL0     C11394   9.616   5.562   3.347  0.3935  0.1644 -0.4961
  808MOL0     C11395   9.863   5.633   3.308  0.4904 -0.9499  0.3392
  808MOL0     C11396   9.924   5.522   3.377  0.3785 -0.3675 -0.2947
  808MOL0     O11397  10.063   5.524   3.395 -0.3511 -1.1801 -0.5881
  808MOL0     C11398  10.120   5.406   3.443 -0.3337 -0.2975 -0.8481
  808MOL0     C11399  10.235   5.375   3.384 -0.5611  1.2159  0.4254
  808MOL0     C11400  10.301   5.259   3.424  0.8589 -1.3362 -0.4417
  808MOL0     C11401  10.256   5.180   3.523 -0.0632  0.8544 -0.4421
  808MOL0     O11402  10.331   5.064   3.546 -0.1744 -0.2538 -0.1018
  808MOL0     C11403  10.320   5.010   3.674  0.9006 -0.1025 -0.2725
  808MOL0     C11404  10.424   4.906   3.705  0.3450 -0.3464  0.4840
  808MOL0     C11405  10.566   4.961   3.734  0.9221  0.0343 -0.8185
  808MOL0     C11406  10.623   5.052   3.634  0.1682  0.2988  0.6253
  808MOL0     C11407  10.640   4.995   3.492  0.1914  0.2188  0.0227
  808MOL0     C11408  10.711   5.087   3.404 -0.3162 -1.0485 -0.4545
  808MOL0     C11409  10.869   5.084   3.422 -0.0576 -0.1930 -0.3806
  808MOL0     C11410  10.928   5.198   3.350 -0.2687  0.2679 -0.0329
  808MOL0    Cl11411  10.898   5.190   3.177 -0.1020 -0.1740 -0.0852
  808MOL0     C11412  10.138   5.211   3.589  0.2734  0.0699 -0.4070
  808MOL0     C11413  10.071   5.327   3.550 -1.3365 -0.7803 -0.7814
  808MOL0     O11414   9.851   5.426   3.400 -0.8475  0.4406 -0.6669
  808MOL0     C11415   9.941   5.727   3.243 -0.1443 -0.5379  1.0028
  808MOL0     C11416   9.888   5.826   3.163  0.0876 -0.2679 -0.5238
  808MOL0     N11417   9.477   6.443   3.252  0.5164 -0.2963  0.0414
  808MOL0     N11418   9.488   6.514   3.360 -0.2698  0.6465 -0.5577
  808MOL0     C11419   9.487   6.432   4.673 -0.6233 -0.4428  0.0006
  808MOL0     C11420   9.494   6.340   4.778 -0.1932 -0.8625  0.9276
  808MOL0     C11421   9.427   6.167   5.132 -0.0006 -1.2174 -0.1435
  808MOL0     C11422   9.496   6.049   5.123  0.3704 -0.1551 -0.4017
  808MOL0     C11423   9.556   5.986   5.235  0.0682  0.5741  0.0587
  808MOL0     C11424   9.537   6.036   5.363 -0.6544 -0.3086 -0.5075
  808MOL0     O11425   9.593   5.965   5.472 -0.2646 -0.1947 -0.5312
  808MOL0     C11426   9.534   5.989   5.605  0.5948  0.2365 -0.1299
  808MOL0     C11427   9.538   5.855   5.682 -0.3391 -1.4235 -0.4569
  808MOL0     C11428   9.445   5.756   5.618 -0.6161  0.2886  0.6350
  808MOL0     C11429   9.450   5.615   5.673  0.6772 -0.3835  0.2421
  808MOL0     C11430   9.372   5.520   5.592  0.3191 -0.1526  0.6780
  808MOL0     C11431   9.296   5.445   5.531  0.8026 -0.6996  0.0108
  808MOL0     C11432   9.465   6.151   5.381 -0.5045 -0.5537 -1.0123
  808MOL0     C11433   9.410   6.223   5.269 -0.1594  0.4208  1.1573
  808MOL0     C11434   9.341   6.355   5.295  0.0336 -0.8422 -0.6737
  808MOL0     H11435   9.225   6.163   4.704  0.8503 -0.8796 -1.9550
  808MOL0     H11436   9.236   6.331   4.489  0.6526  0.2570 -1.2463
  808MOL0     H11437   9.368   6.417   4.273  1.3428 -3.0359 -0.9838
  808MOL0     H11438   9.493   6.323   4.350 -2.1244 -0.5849  1.0286
  808MOL0     H11439   9.540   6.610   4.284  0.6994  0.4353 -2.7857
  808MOL0     H11440   9.666   6.480   4.279  0.0569  1.4689  0.0992
  808MOL0     H11441   9.605   6.385   4.086 -0.9116 -0.7565 -2.5642
  808MOL0     H11442   9.461   6.480   4.072 -0.2863  3.2015  1.3974
  808MOL0     H11443   9.611   6.686   4.029  0.7222  0.3978 -2.2268
  808MOL0     H11444   9.752   6.568   4.033  0.3370  0.8749  1.1522
  808MOL0     H11445   9.615   6.656   3.803  1.4914 -0.7034 -1.0390
  808MOL0     H11446   9.513   6.527   3.859  1.1729 -1.5650 -3.1748
  808MOL0     H11447   9.818   6.504   3.804 -0.5556 -0.4818 -1.1432
  808MOL0     H11448   9.713   6.381   3.874  0.0443 -1.0773  0.1649
  808MOL0     H11449   9.704   6.334   3.636  0.7117  0.3988 -0.1152
  808MOL0     H11450   9.748   6.496   3.600  0.3730 -0.1574 -0.5076
  808MOL0     H11451   9.457   6.422   3.660  2.7387 -1.9458  3.3530
  808MOL0     H11452   9.516   6.578   3.614  0.7567 -0.1353  0.6282
  808MOL0     H11453   9.597   6.218   3.462  1.0988 -0.5219 -0.9947
  808MOL0     H11454   9.495   6.158   3.140 -0.1479 -0.4723 -0.9425
  808MOL0     H11455   9.644   6.145   3.225 -1.2611 -1.7851 -3.0483
  808MOL0     H11456   9.584   6.350   2.990  0.5518  1.6875  0.1543
  808MOL0     H11457   9.732   6.324   3.077  0.8717 -0.3800 -0.8778
  808MOL0     H11458   9.610   6.101   2.908  1.1073 -1.2500 -0.4242
  808MOL0     H11459   9.748   6.202   2.869 -0.6917  1.9316  0.5179
  808MOL0     H11460   9.851   6.000   2.965  1.6770  1.4388  0.4246
  808MOL0     H11461   9.822   6.093   3.113 -0.7954  0.9835  1.4348
  808MOL0     H11462   9.560   5.760   3.183  0.5575 -1.0710 -2.5109
  808MOL0     H11463   9.594   5.484   3.274  0.9052 -0.7730  0.3215
  808MOL0     H11464   9.513   5.599   3.350 -1.0578 -3.3460 -1.5367
  808MOL0     H11465   9.641   5.521   3.446  0.8655  2.2349  0.2931
  808MOL0     H11466  10.273   5.431   3.299  0.9704 -1.8604 -1.0727
  808MOL0     H11467  10.393   5.238   3.370  1.5739  3.2842 -1.4721
  808MOL0     H11468  10.342   5.087   3.748  4.2819 -1.0100 -0.1441
  808MOL0     H11469  10.220   4.968   3.685  1.6090 -1.4224  1.7481
  808MOL0     H11470  10.396   4.843   3.789  2.8593 -2.1416  0.0943
  808MOL0     H11471  10.422   4.841   3.617  2.2628  0.6074 -0.3207
  808MOL0     H11472  10.632   4.873   3.736  1.1434  0.1147 -2.5577
  808MOL0     H11473  10.566   5.005   3.834 -1.3318 -1.6566  0.0233
  808MOL0     H11474  10.715   5.090   3.679 -0.5871  1.1516  1.4845
  808MOL0     H11475  10.553   5.136   3.638  1.3155  1.2546  1.3799
  808MOL0     H11476  10.705   4.906   3.491 -0.2640 -0.1200  0.1360
  808MOL0     H11477  10.542   4.967   3.453  0.3167 -0.2007 -0.0024
  808MOL0     H11478  10.678   5.190   3.421  3.5692  0.0259  1.9205
  808MOL0     H11479  10.686   5.071   3.299 -0.6276 -0.1652 -0.5240
  808MOL0     H11480  10.918   4.997   3.378  1.2509  1.1801 -1.7537
  808MOL0     H11481  10.904   5.091   3.525  1.0326  0.3168 -0.7688
  808MOL0     H11482  11.036   5.205   3.368 -0.4021  6.9035  0.3294
  808MOL0     H11483  10.903   5.295   3.393  1.0131  0.5211  0.1834
  808MOL0     H11484  10.101   5.146   3.668 -0.5099 -2.8771 -3.0246
  808MOL0     H11485   9.985   5.355   3.609  1.5217  0.2520  3.3629
  808MOL0     H11486  10.046   5.716   3.216  0.0272  2.4959  0.0207
  808MOL0     H11487   9.962   5.885   3.110  0.2352 -0.8959 -1.0230
  808MOL0     H11488   9.557   6.514   4.680  0.7332 -1.6257  0.7846
  808MOL0     H11489   9.564   6.343   4.861  0.3283 -3.6640  0.6892
  808MOL0     H11490   9.512   6.005   5.025 -0.1075 -1.8927  0.2508
  808MOL0     H11491   9.610   5.893   5.227  3.2953  2.3802 -0.9585
  808MOL0     H11492   9.594   6.061   5.660  0.4151 -0.3550  0.8535
  808MOL0     H11493   9.426   6.007   5.606 -0.1950 -3.5765  0.2319
  808MOL0     H11494   9.493   5.876   5.780 -0.0688  0.8450 -0.7715
  808MOL0     H11495   9.638   5.811   5.687  0.0980 -0.3473  2.8406
  808MOL0     H11496   9.341   5.791   5.612 -0.8087 -0.2212  0.9224
  808MOL0     H11497   9.473   5.736   5.514 -0.1903 -0.3844  0.8767
  808MOL0     H11498   9.416   5.607   5.777  1.8461 -1.5253  0.5526
  808MOL0     H11499   9.549   5.568   5.668  0.6851 -0.3222 -0.1768
  808MOL0     H11500   9.228   5.379   5.480  1.0804  1.2588 -3.1994
  808MOL0     H11501   9.450   6.195   5.479 -2.4450 -0.4490 -1.3248
  808MOL0     H11502   9.239   6.370   5.259  0.0576 -0.1204 -0.4511
  808MOL0     H11503   9.343   6.383   5.400 -2.6306 -0.4195 -0.6542
  808MOL0     H11504   9.388   6.443   5.250 -0.8723  1.4615  2.5272
  809MOL0     O11505   1.029  10.058   3.196 -0.1206 -0.7359  0.9938
  809MOL0     C11506   0.961   9.979   3.135  0.1579  0.4524  0.5865
  809MOL0     O11507   1.006   9.860   3.084 -0.1338  0.5219 -0.2843
  809MOL0     C11508   1.115   9.800   3.131  0.3843 -0.0242 -0.1765
  809MOL0     C11509   1.105   9.663   3.151  0.6101  0.7789  0.8344
  809MOL0     C11510   1.220   9.588   3.184  0.0502 -0.6764 -0.7337
  809MOL0     C11511   1.345   9.652   3.189 -0.2479 -0.9130  1.0927
  809MOL0     O11512   1.469   9.602   3.210 -0.2342 -0.0715 -0.5689
  809MOL0     C11513   1.474   9.475   3.266  0.2866  0.5629  0.8526
  809MOL0     C11514   1.485   9.363   3.160 -0.7543  0.0062 -0.6664
  809MOL0     C11515   1.575   9.395   3.038 -0.6081  0.7809 -0.3415
  809MOL0     C11516   1.715   9.415   3.072  0.7385 -0.1849 -1.0603
  809MOL0     C11517   1.803   9.380   2.948 -0.4584  0.3551  0.9268
  809MOL0     C11518   1.946   9.441   2.967  0.5480  0.2677 -0.0367
  809MOL0     C11519   2.033   9.453   2.847 -0.5904 -0.9066 -0.0697
  809MOL0     C11520   2.182   9.485   2.895 -0.0882 -1.0280 -0.1946
  809MOL0     N11521   2.227   9.392   2.988  0.2350  0.7910 -0.7157
  809MOL0     C11522   2.257   9.266   2.945  0.0592 -0.3579  0.0203
  809MOL0     C11523   2.356   9.223   3.030  0.1097 -0.4889 -0.1872
  809MOL0     C11524   2.441   9.100   3.014  0.0786 -0.2661 -0.5191
  809MOL0     C11525   2.589   9.132   3.007 -0.4369  0.1896 -0.1895
  809MOL0     C11526   2.667   9.023   2.924 -0.1822 -0.8682  0.4938
  809MOL0     C11527   2.677   8.889   2.988  0.9126 -0.7385 -0.2723
  809MOL0     O11528   2.725   8.789   2.897  0.2366  0.0414 -0.7203
  809MOL0     C11529   2.783   8.675   2.937  0.2429 -0.0003  0.1816
  809MOL0     C11530   2.875   8.614   2.848  0.5130  0.1673  0.8680
  809MOL0     C11531   2.948   8.499   2.879 -0.6118  1.0185 -0.9135
  809MOL0     C11532   3.012   8.419   2.770 -0.5431 -0.0716  0.7101
  809MOL0     C11533   2.950   8.444   3.012  0.4100 -0.7306  0.1189
  809MOL0     C11534   3.002   8.307   3.051 -1.1055  0.0102 -0.2236
  809MOL0     O11535   2.957   8.244   3.153  0.4857  0.4204  0.2565
  809MOL0     C11536   3.029   8.151   3.231 -0.6702  0.6042  0.6208
  809MOL0     C11537   3.147   8.185   3.291 -0.1390 -0.5633 -0.4681
  809MOL0     C11538   3.212   8.104   3.383  0.0165 -0.5310 -1.0799
  809MOL0     C11539   3.165   7.968   3.394  0.1228  0.2473 -0.3451
  809MOL0     O11540   3.227   7.870   3.468  0.1108 -0.0705  0.1742
  809MOL0     C11541   3.358   7.898   3.515 -0.4313  0.8869 -0.6724
  809MOL0     C11542   3.472   7.921   3.403 -0.0199 -0.5603 -0.2319
  809MOL0     C11543   3.474   7.824   3.295  0.0383 -0.3166  0.0397
  809MOL0     C11544   3.606   7.825   3.216 -0.1234 -1.3196  0.0835
  809MOL0     C11545   3.698   7.716   3.271 -0.1641 -0.6291 -0.2120
  809MOL0     C11546   3.821   7.697   3.179 -0.1357  0.7429  0.2698
  809MOL0     C11547   3.921   7.587   3.230  0.3313  1.1308  0.7063
  809MOL0     C11548   3.847   7.454   3.238 -0.4434 -0.0868  0.5176
  809MOL0    Cl11549   3.959   7.304   3.268 -0.3465  0.3778  0.2216
  809MOL0     C11550   3.054   7.933   3.323  0.7855  0.8603  0.9136
  809MOL0     C11551   2.990   8.018   3.241  0.4092  0.8089 -0.0461
  809MOL0     O11552   3.107   8.274   2.996 -0.2064 -0.6965 -0.9184
  809MOL0     C11553   2.869   8.519   3.113 -0.0609 -0.2180  0.0228
  809MOL0     C11554   2.791   8.638   3.076  0.8098  0.7568  0.1551
  809MOL0     N11555   2.368   9.325   3.125 -0.4009  0.1689 -0.0789
  809MOL0     N11556   2.290   9.426   3.103 -0.8781  0.0451  0.6773
  809MOL0     C11557   1.351   9.785   3.173  0.3237 -0.3449  1.2278
  809MOL0     C11558   1.242   9.862   3.145  0.0513 -0.4109  0.7117
  809MOL0     C11559   0.818  10.010   3.105  0.9634  0.4328  0.4240
  809MOL0     C11560   0.755  10.093   3.200 -0.0837  0.6286  0.1530
  809MOL0     C11561   0.625  10.133   3.182 -1.1949  0.1779 -0.4475
  809MOL0     C11562   0.549  10.096   3.070  0.2750  0.1066  0.1573
  809MOL0     O11563   0.422  10.150   3.050  0.5021  0.5614  0.2544
  809MOL0     C11564   0.317  10.073   2.989  1.0473  0.0278 -0.6031
  809MOL0     C11565   0.191  10.162   3.007 -0.2930 -0.5179 -0.8643
  809MOL0     C11566   0.061  10.092   2.962 -0.5438  0.2578  0.3712
  809MOL0     C11567  -0.063  10.182   2.967  0.4794 -0.0008  1.2671
  809MOL0     C11568  -0.028  10.312   2.914  0.6698 -0.9550  1.1209
  809MOL0     C11569   0.014  10.409   2.856 -0.4969 -0.2734  0.8506
  809MOL0     C11570   0.606  10.005   2.977  0.5319 -0.3836 -0.0631
  809MOL0     C11571   0.744   9.971   2.989 -0.4226  0.6770 -0.0226
  809MOL0     C11572   0.803   9.888   2.874 -0.3074 -0.2848  0.5429
  809MOL0     H11573   1.007   9.616   3.148  0.5315  0.9001  1.3975
  809MOL0     H11574   1.208   9.482   3.203 -0.8744 -0.5231 -0.4093
  809MOL0     H11575   1.389   9.452   3.332  1.5077  1.6788  2.9266
  809MOL0     H11576   1.567   9.477   3.324  3.2741  0.7188 -3.4931
  809MOL0     H11577   1.522   9.275   3.214  0.8551 -0.0733 -1.8386
  809MOL0     H11578   1.397   9.326   3.107  0.2222  0.8510 -3.0199
  809MOL0     H11579   1.557   9.304   2.981  2.7447 -1.1052  1.2820
  809MOL0     H11580   1.544   9.487   2.987  0.1971  0.6136 -1.1805
  809MOL0     H11581   1.724   9.519   3.105 -1.6701 -0.6022  1.2521
  809MOL0     H11582   1.745   9.351   3.155  0.7457 -0.1404 -1.0282
  809MOL0     H11583   1.755   9.420   2.859  0.0557 -0.8626  0.0779
  809MOL0     H11584   1.822   9.272   2.941  1.4116  0.6529  0.7092
  809MOL0     H11585   1.936   9.533   3.026  0.1313  0.8015 -0.9190
  809MOL0     H11586   1.995   9.372   3.037 -0.7278  0.6727  1.3108
  809MOL0     H11587   2.005   9.529   2.773  3.7493  1.1585  0.1073
  809MOL0     H11588   2.035   9.361   2.789  2.3714 -0.3558 -0.9907
  809MOL0     H11589   2.246   9.490   2.806 -0.4771 -0.3649 -0.4526
  809MOL0     H11590   2.181   9.583   2.944  2.5002 -1.9047  1.8350
  809MOL0     H11591   2.209   9.211   2.865  2.7030  0.2459 -2.1154
  809MOL0     H11592   2.408   9.050   2.923  2.5580 -2.6045 -0.2543
  809MOL0     H11593   2.414   9.037   3.100 -3.3900  2.3406  0.5323
  809MOL0     H11594   2.603   9.221   2.946 -1.9110  0.0589 -0.7626
  809MOL0     H11595   2.635   9.140   3.106  2.0844 -1.2885 -1.1480
  809MOL0     H11596   2.617   9.023   2.826  0.8702  1.4810 -0.1099
  809MOL0     H11597   2.767   9.054   2.893 -0.4078  0.1855  0.7828
  809MOL0     H11598   2.737   8.903   3.079 -1.6643 -1.9954  1.7805
  809MOL0     H11599   2.577   8.864   3.026 -0.1806 -0.1016 -2.5490
  809MOL0     H11600   2.885   8.659   2.749  2.3111 -0.3152  0.7838
  809MOL0     H11601   2.966   8.445   2.674  1.1142 -0.2000 -0.1597
  809MOL0     H11602   2.996   8.311   2.780 -2.6195  0.1913  0.5477
  809MOL0     H11603   3.120   8.434   2.772 -0.2722 -1.5157 -0.8524
  809MOL0     H11604   3.193   8.281   3.268  1.6106 -1.0005  1.0078
  809MOL0     H11605   3.290   8.151   3.442  0.9707 -0.8319 -2.0727
  809MOL0     H11606   3.367   7.971   3.595 -2.5904 -0.1464  0.6070
  809MOL0     H11607   3.380   7.804   3.568 -1.2979  0.1398 -1.5829
  809MOL0     H11608   3.468   8.024   3.366 -0.6553 -0.7958 -0.8346
  809MOL0     H11609   3.571   7.909   3.448 -0.5081 -2.2175  0.4598
  809MOL0     H11610   3.390   7.848   3.229 -0.8875  3.5648  2.3292
  809MOL0     H11611   3.467   7.728   3.347 -3.0170  0.6924  1.7743
  809MOL0     H11612   3.654   7.922   3.205 -1.7628 -0.4280  0.3922
  809MOL0     H11613   3.578   7.792   3.116 -1.6360 -4.8835  1.5177
  809MOL0     H11614   3.735   7.736   3.372  1.8917 -2.7353 -0.4424
  809MOL0     H11615   3.637   7.625   3.274  0.0495 -0.7691 -0.0592
  809MOL0     H11616   3.892   7.780   3.165  1.7563 -0.7629  0.6267
  809MOL0     H11617   3.774   7.685   3.081 -1.4340 -1.2501  1.0911
  809MOL0     H11618   3.956   7.614   3.330  0.1375  2.6746  0.3826
  809MOL0     H11619   4.003   7.576   3.159 -0.9097 -0.0070 -0.6254
  809MOL0     H11620   3.797   7.430   3.144  1.1627 -2.5996  0.1893
  809MOL0     H11621   3.776   7.448   3.321  0.5492 -2.7107  1.2697
  809MOL0     H11622   3.018   7.831   3.337 -0.9934  1.2741 -0.2681
  809MOL0     H11623   2.897   7.997   3.190  0.1540  3.4461 -0.8494
  809MOL0     H11624   2.885   8.491   3.217  0.7262  0.9756  0.2416
  809MOL0     H11625   2.744   8.687   3.160 -0.4527 -2.0196  1.2037
  809MOL0     H11626   1.445   9.838   3.179  1.4272 -2.3531  2.8452
  809MOL0     H11627   1.238   9.970   3.133 -1.8822 -0.4674  0.5579
  809MOL0     H11628   0.813  10.116   3.288  2.3229  0.0214 -1.1979
  809MOL0     H11629   0.567  10.189   3.254 -4.2184 -3.1724  0.0416
  809MOL0     H11630   0.325  10.070   2.880 -1.7195  1.3662 -0.9332
  809MOL0     H11631   0.315   9.980   3.046  3.9554  0.2461  0.0264
  809MOL0     H11632   0.211  10.258   2.957 -0.1550  0.8855  1.7138
  809MOL0     H11633   0.182  10.178   3.115  1.5482  2.5959 -1.0378
  809MOL0     H11634   0.083  10.043   2.866  0.7165  1.3478  0.0715
  809MOL0     H11635   0.049  10.006   3.028 -2.0422  1.1156  1.2788
  809MOL0     H11636  -0.117  10.186   3.061  1.3004 -0.0245  1.7550
  809MOL0     H11637  -0.129  10.124   2.902 -2.2687  2.0654  2.0094
  809MOL0     H11638   0.040  10.501   2.807 -2.9549  0.3170  0.5246
  809MOL0     H11639   0.552   9.981   2.886 -0.1276  0.6775  0.0314
  809MOL0     H11640   0.861   9.953   2.807 -1.6183  3.3041  2.5846
  809MOL0     H11641   0.856   9.799   2.908 -0.2613 -1.2273 -1.7807
  809MOL0     H11642   0.720   9.851   2.814 -0.5163 -1.0818  1.3098
  810MOL0     O11643   0.934   9.984   6.590 -0.3868 -0.5111  0.2894
  810MOL0     C11644   0.892   9.967   6.701 -0.0969 -0.7609 -0.1069
  810MOL0     O11645   0.766   9.945   6.731  0.2992  0.2115  0.8236
  810MOL0     C11646   0.690   9.877   6.643  0.7635  0.0795 -0.2145
  810MOL0     C11647   0.661   9.754   6.685 -0.1823  0.0354 -1.0586
  810MOL0     C11648   0.581   9.673   6.607  0.4004 -0.2614  0.5552
  810MOL0     C11649   0.529   9.713   6.479 -0.2580  0.5793 -0.6013
  810MOL0     O11650   0.453   9.643   6.383 -0.1626 -0.3390  0.4614
  810MOL0     C11651   0.386   9.525   6.437  0.1587 -0.5524 -0.2896
  810MOL0     C11652   0.299   9.469   6.329  0.0813 -0.8273 -0.0541
  810MOL0     C11653   0.158   9.527   6.315  0.1104 -0.2806  0.2509
  810MOL0     C11654   0.071   9.452   6.202  0.2737  0.7927  0.9920
  810MOL0     C11655  -0.077   9.509   6.207  0.7283 -0.4486 -0.0443
  810MOL0     C11656  -0.175   9.422   6.133  0.7364  0.0239 -0.6927
  810MOL0     C11657  -0.319   9.476   6.155 -0.0202 -0.1560 -0.8785
  810MOL0     C11658  -0.419   9.394   6.074  0.0394 -0.6624 -0.1036
  810MOL0     N11659  -0.550   9.442   6.110 -0.0902 -0.1052 -0.6745
  810MOL0     C11660  -0.652   9.362   6.149 -1.2234 -0.4305  0.2615
  810MOL0     C11661  -0.757   9.445   6.153 -0.3615  0.1027 -0.3180
  810MOL0     C11662  -0.892   9.380   6.164 -0.0614  0.5156 -0.6617
  810MOL0     C11663  -1.008   9.439   6.085  0.0368 -0.6049 -0.3446
  810MOL0     C11664  -0.978   9.421   5.931  0.2989  0.0515  0.0976
  810MOL0     C11665  -1.085   9.484   5.843  0.9691  0.2964  0.2942
  810MOL0     O11666  -1.216   9.433   5.880  0.0484 -0.4739  0.3519
  810MOL0     C11667  -1.261   9.328   5.804 -0.6502  0.0768  0.3657
  810MOL0     C11668  -1.274   9.322   5.668 -0.0301 -0.4230 -0.8613
  810MOL0     C11669  -1.321   9.203   5.608  0.2314  0.3251 -0.1330
  810MOL0     C11670  -1.348   9.202   5.460 -0.7123 -0.6589 -0.2518
  810MOL0     C11671  -1.357   9.091   5.682 -0.1534  0.2374 -0.6795
  810MOL0     C11672  -1.379   8.958   5.632 -0.2682 -0.1813  0.4345
  810MOL0     O11673  -1.326   8.844   5.699  1.1667  0.0971  0.2819
  810MOL0     C11674  -1.306   8.734   5.613  0.3300 -0.0640 -0.2947
  810MOL0     C11675  -1.366   8.613   5.649 -0.6481 -0.4359  0.6200
  810MOL0     C11676  -1.358   8.496   5.569  0.1971  0.0012 -0.1389
  810MOL0     C11677  -1.278   8.492   5.459 -0.2931  0.0041  0.9776
  810MOL0     O11678  -1.257   8.382   5.385 -0.3482  0.4572  0.2688
  810MOL0     C11679  -1.319   8.256   5.402  0.4736 -0.5129  0.3118
  810MOL0     C11680  -1.290   8.157   5.285  0.6013 -0.0688 -0.0342
  810MOL0     C11681  -1.144   8.113   5.276  1.0732 -0.5412  1.2673
  810MOL0     C11682  -1.143   8.020   5.163  0.4563  0.9200  0.2123
  810MOL0     C11683  -1.003   7.972   5.140 -0.4387  0.1306  0.1754
  810MOL0     C11684  -1.004   7.847   5.050 -0.0991  0.9912  0.2627
  810MOL0     C11685  -0.871   7.844   4.972 -0.5005  1.5107 -0.6108
  810MOL0     C11686  -0.856   7.719   4.888  0.4209  1.6841 -0.5769
  810MOL0    Cl11687  -0.803   7.580   4.994  0.3327 -0.6361  0.3969
  810MOL0     C11688  -1.216   8.618   5.419 -1.2439  1.1029  0.3377
  810MOL0     C11689  -1.230   8.737   5.488  0.2464 -0.1374 -0.2320
  810MOL0     O11690  -1.438   8.944   5.527 -0.5366 -0.7410  0.6332
  810MOL0     C11691  -1.354   9.104   5.825 -1.1626 -0.8062 -0.9437
  810MOL0     C11692  -1.295   9.222   5.880 -0.0513 -0.8334 -0.5520
  810MOL0     N11693  -0.727   9.569   6.129 -1.3694 -0.5153  0.2549
  810MOL0     N11694  -0.597   9.564   6.094  0.5657 -0.3777  0.5394
  810MOL0     C11695   0.566   9.840   6.442 -0.8735 -0.2306  1.2423
  810MOL0     C11696   0.650   9.922   6.522  0.4098  0.4589  0.3702
  810MOL0     C11697   0.977   9.984   6.823 -0.3860  0.2401  0.0864
  810MOL0     C11698   0.920   9.977   6.950  0.1622  0.5609 -0.8362
  810MOL0     C11699   0.993   9.996   7.068 -0.4620  0.1320  0.9281
  810MOL0     C11700   1.137  10.015   7.059 -0.6828  1.1763  0.1079
  810MOL0     O11701   1.224  10.022   7.169 -0.1670  0.2643  0.2225
  810MOL0     C11702   1.163  10.066   7.296 -0.2965 -0.0070 -0.1141
  810MOL0     C11703   1.281  10.085   7.405  0.1297  0.1632  0.3963
  810MOL0     C11704   1.378  10.194   7.364 -0.0366  0.1056  0.0458
  810MOL0     C11705   1.510  10.207   7.450  0.6525  0.7101  0.4260
  810MOL0     C11706   1.491  10.208   7.599 -0.0907 -0.0634  0.8784
  810MOL0     C11707   1.484  10.217   7.720 -0.3137  0.4269 -0.0600
  810MOL0     C11708   1.196  10.020   6.929 -0.4282  0.2287 -0.3767
  810MOL0     C11709   1.119  10.013   6.813  0.3698  0.1912 -0.3327
  810MOL0     C11710   1.188  10.043   6.682  0.3520  0.4261  0.7239
  810MOL0     H11711   0.685   9.718   6.784  0.0133 -0.9550 -1.4482
  810MOL0     H11712   0.554   9.574   6.644  2.3326 -1.0185  0.1122
  810MOL0     H11713   0.327   9.547   6.526 -2.5945  0.2338 -2.1808
  810MOL0     H11714   0.463   9.451   6.462 -0.7352 -0.6758  2.4028
  810MOL0     H11715   0.369   9.458   6.246  2.2207  2.1312  1.1894
  810MOL0     H11716   0.268   9.366   6.353 -0.2903 -1.4156 -2.7914
  810MOL0     H11717   0.108   9.510   6.411  0.0342  0.6492  0.3828
  810MOL0     H11718   0.161   9.635   6.296  1.2207  0.0520  2.0394
  810MOL0     H11719   0.120   9.465   6.105 -1.7933  0.2429 -0.1775
  810MOL0     H11720   0.066   9.345   6.225 -0.3221 -0.1795 -2.9772
  810MOL0     H11721  -0.087   9.610   6.167 -2.0149  0.6877  3.0829
  810MOL0     H11722  -0.107   9.500   6.311 -1.5121 -3.4243 -0.8077
  810MOL0     H11723  -0.147   9.418   6.027  3.8078  1.6258 -0.0579
  810MOL0     H11724  -0.175   9.325   6.183 -1.4076 -0.3929 -1.3894
  810MOL0     H11725  -0.340   9.577   6.121 -2.3696 -0.3646 -0.1998
  810MOL0     H11726  -0.343   9.464   6.261  0.7651  0.1354 -0.6574
  810MOL0     H11727  -0.402   9.403   5.966 -0.4929  1.6510 -0.0620
  810MOL0     H11728  -0.416   9.290   6.106 -0.3282 -0.4464  0.6447
  810MOL0     H11729  -0.645   9.254   6.158  0.7528 -0.4580 -1.0973
  810MOL0     H11730  -0.917   9.371   6.270 -0.3762  2.3508 -0.5465
  810MOL0     H11731  -0.874   9.281   6.122 -2.1539 -0.8679  1.4381
  810MOL0     H11732  -1.103   9.396   6.117 -0.0286  1.2723  2.2702
  810MOL0     H11733  -1.014   9.544   6.114  1.3407 -0.7184  0.4215
  810MOL0     H11734  -0.874   9.439   5.904  0.2462  0.5231  0.2104
  810MOL0     H11735  -0.989   9.313   5.914 -0.1044  0.0847  0.1426
  810MOL0     H11736  -1.092   9.593   5.846 -1.6262  0.2900 -2.0969
  810MOL0     H11737  -1.062   9.465   5.738  0.6790  5.1519 -0.8689
  810MOL0     H11738  -1.244   9.403   5.603 -0.6052  1.5687  1.2243
  810MOL0     H11739  -1.453   9.183   5.433 -0.7644 -0.1572 -0.4051
  810MOL0     H11740  -1.295   9.129   5.399 -4.1176 -5.0159  1.4169
  810MOL0     H11741  -1.329   9.303   5.423 -1.4906 -0.2648  0.3907
  810MOL0     H11742  -1.433   8.611   5.734  0.6299  3.0790  1.8590
  810MOL0     H11743  -1.417   8.412   5.603 -1.4083  1.8936  2.1190
  810MOL0     H11744  -1.288   8.215   5.499 -1.0466  0.7652  1.3927
  810MOL0     H11745  -1.428   8.260   5.398  0.3450 -3.2706 -0.6020
  810MOL0     H11746  -1.354   8.069   5.274  0.9385 -0.5576  1.5699
  810MOL0     H11747  -1.305   8.219   5.196  2.0643  2.2015  1.2088
  810MOL0     H11748  -1.126   8.059   5.370  0.3841 -2.3867  0.3985
  810MOL0     H11749  -1.077   8.197   5.256  0.6815 -0.5260 -0.0731
  810MOL0     H11750  -1.184   8.068   5.074  1.5373 -0.3506 -1.0187
  810MOL0     H11751  -1.208   7.936   5.189  0.4945  0.9826  0.5153
  810MOL0     H11752  -0.943   8.050   5.094  0.1346 -0.1014  0.5245
  810MOL0     H11753  -0.964   7.950   5.240  0.9530 -0.6220 -0.5031
  810MOL0     H11754  -1.086   7.851   4.978 -1.0528 -1.3787  1.1045
  810MOL0     H11755  -1.025   7.759   5.111 -1.8587  1.6156  0.6182
  810MOL0     H11756  -0.781   7.860   5.032  1.9963  2.5195 -4.2884
  810MOL0     H11757  -0.862   7.924   4.899  1.9363  1.2737 -0.6428
  810MOL0     H11758  -0.789   7.730   4.802 -1.1011  0.1328 -2.0369
  810MOL0     H11759  -0.955   7.697   4.847  0.9594 -0.1305 -0.9830
  810MOL0     H11760  -1.149   8.620   5.333  1.3500 -0.4879  2.1802
  810MOL0     H11761  -1.178   8.828   5.463 -0.0942  0.2137  0.3205
  810MOL0     H11762  -1.391   9.024   5.888 -1.9752  0.5521  0.3644
  810MOL0     H11763  -1.272   9.219   5.986  0.5173  3.2759 -0.4125
  810MOL0     H11764   0.547   9.868   6.339 -1.5122 -0.6464  1.2407
  810MOL0     H11765   0.690  10.018   6.490  0.1475 -0.1697 -2.0369
  810MOL0     H11766   0.818   9.944   6.961  0.4563  0.0336  0.4852
  810MOL0     H11767   0.939   9.978   7.161  1.0763 -0.9329  1.6519
  810MOL0     H11768   1.116  10.161   7.272  2.6934  1.7663  0.5518
  810MOL0     H11769   1.088   9.999   7.340 -0.3554  1.6150  2.4769
  810MOL0     H11770   1.339   9.994   7.426  0.5406  0.6341  1.4051
  810MOL0     H11771   1.251  10.113   7.507 -0.2526 -0.2184  0.3958
  810MOL0     H11772   1.401  10.177   7.258 -4.3474 -1.0621 -0.9017
  810MOL0     H11773   1.328  10.291   7.376 -0.3385  0.2088 -1.7846
  810MOL0     H11774   1.568  10.295   7.419 -1.1894  2.2323  1.1122
  810MOL0     H11775   1.563  10.112   7.439 -1.1149 -0.7933  3.6326
  810MOL0     H11776   1.479  10.234   7.826 -2.4326  2.5470 -0.4072
  810MOL0     H11777   1.304  10.022   6.920 -0.3446 -2.1939 -0.6374
  810MOL0     H11778   1.296  10.060   6.692  0.2453 -0.0466  3.3033
  810MOL0     H11779   1.172   9.958   6.616 -0.3830  1.0340  0.0917
  810MOL0     H11780   1.135  10.123   6.629 -1.8061 -2.4742 -1.8848
  811MOL0     O11781   3.492  11.320   6.431  0.3813 -0.0376 -0.7165
  811MOL0     C11782   3.535  11.205   6.433 -0.1574 -0.3283 -0.0053
  811MOL0     O11783   3.650  11.169   6.382 -0.5851  0.4205 -0.5653
  811MOL0     C11784   3.757  11.257   6.364  0.6092 -0.5144 -0.1628
  811MOL0     C11785   3.847  11.279   6.468 -0.3899  0.1824  0.1940
  811MOL0     C11786   3.953  11.370   6.462  0.3347 -0.4714  1.7312
  811MOL0     C11787   3.965  11.446   6.340  1.0133 -0.9111 -1.2020
  811MOL0     O11788   4.065  11.539   6.332 -0.4763  0.2870 -0.1330
  811MOL0     C11789   4.116  11.544   6.199  0.7529 -0.6157  1.4111
  811MOL0     C11790   4.266  11.574   6.211  0.5190  0.7907 -1.0572
  811MOL0     C11791   4.336  11.496   6.326  0.2594  0.4545  0.0601
  811MOL0     C11792   4.494  11.516   6.316 -0.3527 -0.0082  0.4179
  811MOL0     C11793   4.573  11.460   6.431  0.4835 -0.2274  0.0789
  811MOL0     C11794   4.714  11.517   6.445  0.0175 -0.4082 -0.3129
  811MOL0     C11795   4.824  11.481   6.349  0.8376 -0.0567  0.0859
  811MOL0     C11796   4.855  11.336   6.326 -0.5046  0.0548 -0.3008
  811MOL0     N11797   4.965  11.309   6.239  0.3295  0.1919  1.0116
  811MOL0     C11798   5.095  11.356   6.238 -0.2431  0.3592 -0.1727
  811MOL0     C11799   5.145  11.306   6.126  0.4803  0.2946  0.1516
  811MOL0     C11800   5.271  11.351   6.080 -0.0483  0.4238 -0.8635
  811MOL0     C11801   5.346  11.240   6.009 -0.6420  1.0155 -0.2645
  811MOL0     C11802   5.489  11.284   5.965  0.2861  0.1149  0.2603
  811MOL0     C11803   5.551  11.185   5.871 -0.5405  0.2806 -0.4503
  811MOL0     O11804   5.564  11.057   5.931 -0.1826  0.1214  0.2190
  811MOL0     C11805   5.662  10.969   5.884 -0.1416  0.0739 -0.3538
  811MOL0     C11806   5.710  10.978   5.756 -0.2544 -0.3061 -0.6155
  811MOL0     C11807   5.814  10.895   5.707  0.5102  0.1856 -0.2944
  811MOL0     C11808   5.862  10.922   5.570  0.2817 -0.1895  0.2315
  811MOL0     C11809   5.872  10.797   5.800  0.1499 -0.0453 -0.2404
  811MOL0     C11810   5.988  10.713   5.767  0.5780  0.8454  0.2936
  811MOL0     O11811   6.011  10.681   5.631  0.0504 -0.6155  0.6802
  811MOL0     C11812   6.131  10.634   5.604 -0.0785  0.3443  0.7760
  811MOL0     C11813   6.225  10.707   5.529 -0.1909 -0.6043 -0.1824
  811MOL0     C11814   6.354  10.664   5.494 -0.6160 -0.9564 -0.2472
  811MOL0     C11815   6.391  10.539   5.530  0.1495  0.5489  0.6877
  811MOL0     O11816   6.519  10.491   5.504 -0.0588 -0.0246  0.3405
  811MOL0     C11817   6.626  10.543   5.577  0.1248  0.1554 -0.5823
  811MOL0     C11818   6.750  10.471   5.526  0.1732  0.3242 -1.1765
  811MOL0     C11819   6.806  10.531   5.392 -0.1855  0.1206  0.1811
  811MOL0     C11820   6.952  10.498   5.378  0.4701  0.6918  0.8029
  811MOL0     C11821   7.005  10.541   5.240 -0.2323 -0.2756  0.8835
  811MOL0     C11822   7.147  10.580   5.260  0.5349 -0.0868  0.4007
  811MOL0     C11823   7.200  10.636   5.127 -0.6312  0.5178  0.2585
  811MOL0     C11824   7.338  10.692   5.130 -0.3444 -0.0515 -1.2606
  811MOL0    Cl11825   7.343  10.825   5.264 -0.4695 -0.1515 -0.2987
  811MOL0     C11826   6.295  10.454   5.595 -0.2310 -0.3440  0.8261
  811MOL0     C11827   6.165  10.497   5.629  0.3425 -0.4545 -0.2824
  811MOL0     O11828   6.061  10.682   5.858  0.3295  0.4426  0.3007
  811MOL0     C11829   5.821  10.793   5.932 -1.0434 -0.2633  0.3672
  811MOL0     C11830   5.715  10.877   5.976  0.9167  0.4995 -0.0943
  811MOL0     N11831   5.057  11.219   6.061 -0.0555 -0.7434 -0.3010
  811MOL0     N11832   4.952  11.226   6.129  0.7710 -0.7235  0.3259
  811MOL0     C11833   3.864  11.423   6.240 -0.4394 -0.0945 -0.1169
  811MOL0     C11834   3.760  11.335   6.246 -0.6404 -0.5069  0.3213
  811MOL0     C11835   3.438  11.098   6.460 -0.1760 -0.8220 -0.4301
  811MOL0     C11836   3.413  11.003   6.355  0.7971  0.0782  0.0514
  811MOL0     C11837   3.300  10.921   6.378  0.0141 -0.6696  0.1076
  811MOL0     C11838   3.207  10.933   6.478 -0.0218 -0.2139 -0.1877
  811MOL0     O11839   3.097  10.851   6.471  0.2063 -0.3625 -0.1506
  811MOL0     C11840   3.025  10.813   6.594 -0.1580  0.1964 -0.3519
  811MOL0     C11841   2.917  10.712   6.557 -0.3269  0.7201 -0.4609
  811MOL0     C11842   2.797  10.777   6.486  0.3231  0.8571 -0.2329
  811MOL0     C11843   2.701  10.870   6.562  0.1285 -0.1938 -0.0799
  811MOL0     C11844   2.637  10.803   6.674 -0.0269  0.0642 -0.5767
  811MOL0     C11845   2.571  10.740   6.752  0.3073  0.1538 -0.4665
  811MOL0     C11846   3.244  11.024   6.581 -0.2991 -0.0583  0.0090
  811MOL0     C11847   3.355  11.109   6.572  0.4838  0.6979 -0.4078
  811MOL0     C11848   3.384  11.195   6.691  0.7159 -0.6121 -0.1343
  811MOL0     H11849   3.824  11.221   6.557 -0.6345 -0.0124  0.0067
  811MOL0     H11850   4.017  11.399   6.545  0.2759 -0.0733  1.6429
  811MOL0     H11851   4.079  11.618   6.128  2.9840 -2.7401 -2.2735
  811MOL0     H11852   4.105  11.448   6.148  0.6076 -0.4377  1.1016
  811MOL0     H11853   4.298  11.541   6.112 -0.4211  0.2206 -1.1838
  811MOL0     H11854   4.282  11.681   6.227  0.5693  0.4518  1.5025
  811MOL0     H11855   4.302  11.530   6.424 -0.1585  1.2503 -0.3452
  811MOL0     H11856   4.310  11.391   6.310  3.2653 -0.4828  0.8102
  811MOL0     H11857   4.527  11.470   6.223  0.6304 -1.7983  1.5863
  811MOL0     H11858   4.520  11.620   6.295  0.3488 -0.6708 -2.3554
  811MOL0     H11859   4.589  11.352   6.420 -2.1965 -0.7023 -0.0140
  811MOL0     H11860   4.530  11.489   6.528  2.3214  0.9197  0.5926
  811MOL0     H11861   4.706  11.623   6.473 -0.0451 -0.3111 -0.6973
  811MOL0     H11862   4.759  11.480   6.538  2.9765 -1.5411 -2.0787
  811MOL0     H11863   4.914  11.525   6.393  0.4773  2.4148 -1.4552
  811MOL0     H11864   4.807  11.538   6.257 -0.1372  1.3225  1.0737
  811MOL0     H11865   4.882  11.277   6.414 -0.7034 -1.3746 -1.1558
  811MOL0     H11866   4.763  11.298   6.280 -0.2896  3.3829 -4.0349
  811MOL0     H11867   5.134  11.428   6.310 -0.7287 -0.4633  0.9410
  811MOL0     H11868   5.334  11.381   6.164  0.5879  1.9053 -1.8132
  811MOL0     H11869   5.250  11.430   6.007  1.2099  0.2276 -1.4571
  811MOL0     H11870   5.359  11.150   6.071 -0.0660  1.4829  0.3075
  811MOL0     H11871   5.292  11.192   5.926 -1.6184 -1.5750  1.7415
  811MOL0     H11872   5.487  11.380   5.911 -1.3095 -1.3426 -2.4720
  811MOL0     H11873   5.553  11.307   6.051 -0.4105  2.4842  0.2173
  811MOL0     H11874   5.499  11.164   5.778 -1.2333 -0.0751  0.0067
  811MOL0     H11875   5.650  11.222   5.843  2.6327 -5.7843  1.0561
  811MOL0     H11876   5.658  11.049   5.693  0.0142  1.0438  0.6455
  811MOL0     H11877   5.838  10.841   5.500 -1.7057 -0.7094  1.4322
  811MOL0     H11878   5.971  10.920   5.580  0.3971 -3.0002 -0.5044
  811MOL0     H11879   5.826  11.014   5.525  1.3115  0.9733  1.6873
  811MOL0     H11880   6.196  10.804   5.492  1.9628  0.0918 -0.2035
  811MOL0     H11881   6.411  10.724   5.424  0.6025 -1.8857 -0.0879
  811MOL0     H11882   6.614  10.648   5.547  0.9455  1.1753  2.3087
  811MOL0     H11883   6.611  10.517   5.682  2.2324 -1.8625 -0.7070
  811MOL0     H11884   6.824  10.468   5.606 -0.5449 -3.6681 -0.4655
  811MOL0     H11885   6.727  10.365   5.524 -0.7729  0.4164  1.5597
  811MOL0     H11886   6.782  10.637   5.388 -1.9907 -0.1089  2.5102
  811MOL0     H11887   6.748  10.481   5.314 -1.2437  2.4301 -0.5842
  811MOL0     H11888   6.963  10.390   5.368 -3.0704  0.3681 -1.2698
  811MOL0     H11889   7.015  10.517   5.465  1.8582 -1.1552  0.2731
  811MOL0     H11890   7.002  10.458   5.169  2.8630  0.3454 -0.0970
  811MOL0     H11891   6.953  10.627   5.197  0.0607 -0.2818  0.5197
  811MOL0     H11892   7.202  10.497   5.306  1.3835 -0.4238 -1.1634
  811MOL0     H11893   7.164  10.660   5.333  3.3670  1.5497 -1.8467
  811MOL0     H11894   7.136  10.715   5.087 -0.7736 -0.1654 -0.9036
  811MOL0     H11895   7.201  10.553   5.055 -0.5478 -3.3667  4.3162
  811MOL0     H11896   7.368  10.735   5.034 -3.3922  2.4618 -1.2165
  811MOL0     H11897   7.402  10.610   5.166 -4.5327 -2.6030  1.1170
  811MOL0     H11898   6.341  10.366   5.640  3.9071  0.3312 -1.6081
  811MOL0     H11899   6.100  10.433   5.688 -0.0850 -1.6027 -1.9140
  811MOL0     H11900   5.866  10.734   6.011 -0.0884 -0.1819 -0.1064
  811MOL0     H11901   5.678  10.875   6.078 -1.9918 -0.0137 -1.0641
  811MOL0     H11902   3.872  11.492   6.156  2.4747 -0.5954 -0.3586
  811MOL0     H11903   3.684  11.331   6.168  1.7289 -4.1179 -2.0909
  811MOL0     H11904   3.485  10.994   6.275  1.3632 -1.2477  0.6773
  811MOL0     H11905   3.264  10.845   6.310 -2.3617  1.6161 -1.4129
  811MOL0     H11906   3.094  10.774   6.669 -1.0754  1.3269  1.1293
  811MOL0     H11907   2.976  10.903   6.632  2.9232  0.8775  2.5304
  811MOL0     H11908   2.881  10.663   6.648 -0.1880 -0.1835 -0.8869
  811MOL0     H11909   2.952  10.631   6.492 -0.1585  0.2989  0.1503
  811MOL0     H11910   2.835  10.838   6.404 -0.1413  3.0352  1.0865
  811MOL0     H11911   2.744  10.696   6.435  0.5623  0.2865  0.4067
  811MOL0     H11912   2.635  10.911   6.484  0.9603  1.6604  0.1496
  811MOL0     H11913   2.749  10.959   6.605 -2.7648  0.5758  1.8697
  811MOL0     H11914   2.496  10.702   6.818  1.4565 -1.8828 -0.2511
  811MOL0     H11915   3.175  11.045   6.662  0.2148 -0.8468  0.6596
  811MOL0     H11916   3.313  11.167   6.769  0.3718  1.0055  0.1717
  811MOL0     H11917   3.489  11.178   6.717 -0.3888 -2.4184  4.0008
  811MOL0     H11918   3.374  11.303   6.678 -0.6431 -0.3062  2.6998
  812MOL0     O11919  10.680   2.989  10.920 -0.7976 -0.6418  0.6043
  812MOL0     C11920  10.570   2.955  10.963 -0.6944  0.2251 -0.9168
  812MOL0     O11921  10.534   2.828  10.972  0.5578  0.5332 -0.6532
  812MOL0     C11922  10.635   2.732  10.944 -0.7310 -0.2460 -0.2275
  812MOL0     C11923  10.688   2.674  11.059  0.8649  0.1399  0.8126
  812MOL0     C11924  10.789   2.583  11.037  0.1141  0.7002  0.3289
  812MOL0     C11925  10.844   2.550  10.915 -0.6833  0.7000 -0.5818
  812MOL0     O11926  10.955   2.474  10.918 -0.5223 -0.5982  0.4888
  812MOL0     C11927  11.051   2.494  10.812  0.3148  0.1319 -0.2838
  812MOL0     C11928  11.182   2.431  10.859 -0.3916  0.1345 -0.7713
  812MOL0     C11929  11.258   2.511  10.972  0.7684  0.3601 -0.2666
  812MOL0     C11930  11.399   2.456  11.005  1.0538  0.5505 -0.5156
  812MOL0     C11931  11.461   2.511  11.135  0.4249  1.5740  0.4857
  812MOL0     C11932  11.564   2.404  11.176 -0.2834  0.6013 -0.4064
  812MOL0     C11933  11.639   2.422  11.312  0.2251 -0.1921 -0.3827
  812MOL0     C11934  11.730   2.305  11.345  0.6507 -1.1352 -0.3636
  812MOL0     N11935  11.842   2.273  11.262 -0.1165  0.1745 -0.7589
  812MOL0     C11936  11.913   2.361  11.177 -0.1385  0.1732 -0.1232
  812MOL0     C11937  11.986   2.288  11.101 -0.1153 -0.0836 -0.2334
  812MOL0     C11938  12.094   2.347  11.015  0.1289 -0.1583 -0.4720
  812MOL0     C11939  12.052   2.433  10.903 -0.2297 -0.0795 -0.6577
  812MOL0     C11940  12.113   2.584  10.879 -0.0968  0.7006  0.1552
  812MOL0     C11941  12.272   2.570  10.881 -0.9661 -0.0546 -0.3838
  812MOL0     O11942  12.329   2.495  10.770  0.1771  0.9580  1.1125
  812MOL0     C11943  12.467   2.470  10.766  0.8402  0.0905 -0.2059
  812MOL0     C11944  12.559   2.515  10.856  0.1758 -0.1299  0.5996
  812MOL0     C11945  12.694   2.487  10.836 -0.1860 -0.3636 -0.4625
  812MOL0     C11946  12.787   2.563  10.921 -0.4829  0.3734 -1.1002
  812MOL0     C11947  12.735   2.407  10.723 -0.5653 -0.3251  1.0754
  812MOL0     C11948  12.873   2.368  10.683 -0.2600  1.0441  0.2393
  812MOL0     O11949  12.886   2.295  10.570 -0.2642  0.0601  0.6320
  812MOL0     C11950  13.000   2.219  10.556 -0.3962  0.8289  0.6092
  812MOL0     C11951  12.987   2.083  10.520 -0.3698  0.5473  0.1812
  812MOL0     C11952  13.099   2.001  10.521 -0.4428 -0.0983  0.3581
  812MOL0     C11953  13.225   2.043  10.568 -0.3209 -0.4544 -0.0900
  812MOL0     O11954  13.327   1.949  10.598  0.2752 -0.0836  0.2247
  812MOL0     C11955  13.359   1.964  10.738 -0.0009 -0.3533 -0.1220
  812MOL0     C11956  13.431   1.830  10.771  0.5358  0.1113  0.2283
  812MOL0     C11957  13.332   1.707  10.766  0.9444  0.0687  0.1453
  812MOL0     C11958  13.338   1.618  10.890  0.3181  0.2576 -0.2915
  812MOL0     C11959  13.261   1.484  10.876  0.0122 -0.0781  0.5734
  812MOL0     C11960  13.109   1.505  10.844 -0.9360  0.2276 -0.6639
  812MOL0     C11961  13.039   1.599  10.937 -0.3279  0.0718 -0.8067
  812MOL0     C11962  13.064   1.572  11.090  0.3269 -0.2693 -0.8090
  812MOL0    Cl11963  13.007   1.406  11.143  0.0575  0.4009 -0.0869
  812MOL0     C11964  13.243   2.179  10.568  0.9544  0.5628  0.3627
  812MOL0     C11965  13.132   2.264  10.564 -0.1955 -0.2373  0.0030
  812MOL0     O11966  12.968   2.405  10.754  0.1286 -0.3212  0.5489
  812MOL0     C11967  12.634   2.355  10.641  0.9932  0.1011  0.0713
  812MOL0     C11968  12.506   2.391  10.665  0.4063 -0.0062  0.7644
  812MOL0     N11969  11.972   2.154  11.138  0.1754 -0.4860 -0.4405
  812MOL0     N11970  11.888   2.142  11.238 -0.1718  0.4844  0.4700
  812MOL0     C11971  10.778   2.589  10.801  0.5398 -0.2675  0.6940
  812MOL0     C11972  10.669   2.684  10.816 -0.0501  0.0464 -0.3698
  812MOL0     C11973  10.474   3.067  10.996 -0.0591 -0.5045  0.3350
  812MOL0     C11974  10.332   3.042  10.982 -0.6755 -0.1517 -0.2804
  812MOL0     C11975  10.244   3.148  11.021 -0.4751  0.6345  0.2725
  812MOL0     C11976  10.283   3.266  11.077  0.6591 -0.3225  0.6636
  812MOL0     O11977  10.179   3.361  11.098 -0.0529 -0.4611 -0.2546
  812MOL0     C11978  10.225   3.494  11.148 -0.3262  0.2697  0.9469
  812MOL0     C11979  10.102   3.576  11.151  0.6157 -0.0027 -0.1645
  812MOL0     C11980  10.008   3.562  11.274 -0.1780 -0.1332  0.2900
  812MOL0     C11981   9.961   3.418  11.307  0.3220  0.0753 -0.1178
  812MOL0     C11982   9.898   3.417  11.443 -0.8122 -0.0856 -0.6325
  812MOL0     C11983   9.838   3.421  11.547 -0.4913  0.0305 -0.3520
  812MOL0     C11984  10.415   3.282  11.095 -0.2692  0.5751  1.1274
  812MOL0     C11985  10.513   3.195  11.043 -0.0874  0.1524 -0.3632
  812MOL0     C11986  10.656   3.224  11.069 -0.5019  0.2787  0.2497
  812MOL0     H11987  10.662   2.699  11.161  1.0487 -0.0354  0.9038
  812MOL0     H11988  10.840   2.549  11.126  0.2179  2.3693  0.9400
  812MOL0     H11989  11.067   2.600  10.792 -2.6257  0.0563 -4.1923
  812MOL0     H11990  11.017   2.439  10.723  0.3832  1.8957 -1.4442
  812MOL0     H11991  11.177   2.338  10.915 -0.6337  1.5467  1.6776
  812MOL0     H11992  11.248   2.434  10.771  1.6785  0.3802  0.7066
  812MOL0     H11993  11.280   2.613  10.938  1.3575  0.3027 -0.0813
  812MOL0     H11994  11.202   2.510  11.065  2.3851 -4.0337  0.9114
  812MOL0     H11995  11.385   2.348  11.013 -2.4778  1.0062  2.4349
  812MOL0     H11996  11.471   2.471  10.925  2.9459 -2.2497  0.5050
  812MOL0     H11997  11.385   2.522  11.213 -2.9395 -0.4676 -2.2031
  812MOL0     H11998  11.509   2.606  11.111  1.4802  1.0187  0.3434
  812MOL0     H11999  11.509   2.310  11.187 -2.2466  1.9576  3.1165
  812MOL0     H12000  11.635   2.385  11.095  2.4682  0.9455  1.7992
  812MOL0     H12001  11.570   2.445  11.394  0.1319 -3.4241  0.5478
  812MOL0     H12002  11.707   2.508  11.304  1.6002 -1.2284 -0.1451
  812MOL0     H12003  11.771   2.328  11.444 -0.0875 -0.8048 -0.1278
  812MOL0     H12004  11.658   2.223  11.357  0.2345 -0.5914  1.0847
  812MOL0     H12005  11.908   2.469  11.170  0.3691  0.1798 -0.4020
  812MOL0     H12006  12.166   2.277  10.970  0.4857  0.4455 -0.8647
  812MOL0     H12007  12.163   2.400  11.081 -0.2272 -2.0067  1.4888
  812MOL0     H12008  12.083   2.392  10.807  0.6856  0.2147 -0.4943
  812MOL0     H12009  11.946   2.444  10.926 -0.2631 -2.7563  0.9287
  812MOL0     H12010  12.086   2.612  10.776  2.3985  1.4320 -0.3835
  812MOL0     H12011  12.069   2.658  10.947 -2.0792  1.9835 -2.3315
  812MOL0     H12012  12.314   2.669  10.865  1.0070 -1.3424 -4.3015
  812MOL0     H12013  12.303   2.518  10.972  1.5316 -0.4873 -1.4075
  812MOL0     H12014  12.526   2.585  10.932  0.6628 -0.7570  1.4145
  812MOL0     H12015  12.870   2.607  10.866 -0.6502  1.2386 -0.6753
  812MOL0     H12016  12.810   2.487  10.997 -0.3496  1.1824 -0.3118
  812MOL0     H12017  12.737   2.634  10.987 -0.7998  0.5116 -1.4873
  812MOL0     H12018  12.895   2.049  10.474 -0.0601  1.1377 -0.9112
  812MOL0     H12019  13.081   1.895  10.507 -0.5884 -0.5259  3.1258
  812MOL0     H12020  13.421   2.054  10.740 -0.5791  0.0488  1.8475
  812MOL0     H12021  13.274   1.979  10.806  2.0224 -2.2457  3.1246
  812MOL0     H12022  13.512   1.797  10.705  0.9858  0.8151  0.4164
  812MOL0     H12023  13.459   1.846  10.875 -1.0423  0.5625  0.6014
  812MOL0     H12024  13.362   1.647  10.680 -1.2550  0.5045 -1.0173
  812MOL0     H12025  13.229   1.734  10.740  1.2182  1.5607  0.5160
  812MOL0     H12026  13.300   1.691  10.962 -0.3912 -1.4768  1.1469
  812MOL0     H12027  13.438   1.584  10.918 -0.9461 -2.8750  0.9001
  812MOL0     H12028  13.307   1.416  10.803 -0.8398 -2.2183  1.9222
  812MOL0     H12029  13.261   1.423  10.967 -1.1218 -1.9969 -0.6280
  812MOL0     H12030  13.055   1.410  10.840  0.4860 -0.5834 -2.2317
  812MOL0     H12031  13.111   1.549  10.744  3.5620 -3.5323 -2.6296
  812MOL0     H12032  12.935   1.582  10.908 -1.0905 -0.1847  1.8218
  812MOL0     H12033  13.063   1.702  10.910  1.0282 -0.1681 -0.5572
  812MOL0     H12034  13.010   1.647  11.149  3.0354  2.4222 -1.4715
  812MOL0     H12035  13.169   1.598  11.105  0.1686 -0.6140  1.0652
  812MOL0     H12036  13.346   2.212  10.574  1.2202  1.0330 -3.6717
  812MOL0     H12037  13.140   2.372  10.568  2.0261 -0.4045  2.8513
  812MOL0     H12038  12.659   2.310  10.545 -0.7378  0.3521 -0.5281
  812MOL0     H12039  12.422   2.351  10.609  0.9007  0.8195 -0.6115
  812MOL0     H12040  10.816   2.562  10.703  1.6948  0.7609  0.8341
  812MOL0     H12041  10.615   2.721  10.729 -1.4132 -0.7807  0.1079
  812MOL0     H12042  10.296   2.945  10.947  0.3702 -0.4528 -0.5406
  812MOL0     H12043  10.136   3.147  11.015 -0.5546  3.5614 -0.4186
  812MOL0     H12044  10.284   3.489  11.240 -1.2662 -0.0654  1.5481
  812MOL0     H12045  10.295   3.535  11.074 -0.5299  1.6979  1.5192
  812MOL0     H12046  10.049   3.551  11.058 -2.4967  0.8322  1.2484
  812MOL0     H12047  10.125   3.683  11.151 -0.6972  0.3164  1.3144
  812MOL0     H12048  10.068   3.597  11.359  2.2222 -1.6786 -0.6819
  812MOL0     H12049   9.916   3.621  11.263  0.8229  1.6429  0.9844
  812MOL0     H12050  10.043   3.345  11.311 -0.1769 -0.4555  2.5985
  812MOL0     H12051   9.884   3.382  11.237 -0.0377 -0.7778  0.6842
  812MOL0     H12052   9.800   3.421  11.647  2.9403  2.6050  1.1383
  812MOL0     H12053  10.452   3.375  11.138  1.7402  1.8500 -2.8723
  812MOL0     H12054  10.661   3.293  11.153  1.4074 -2.6883  2.7892
  812MOL0     H12055  10.697   3.131  11.108  0.3350  0.7950  0.6234
  812MOL0     H12056  10.703   3.263  10.978 -2.6680  0.7843 -0.7151
  813MOL0     O12057   1.101   0.995   1.395 -0.3415  0.6770 -0.5043
  813MOL0     C12058   1.098   1.104   1.456 -0.9205  0.4890  0.2321
  813MOL0     O12059   1.196   1.162   1.528  0.6928  0.9993 -0.3691
  813MOL0     C12060   1.302   1.084   1.562  0.4637 -0.0881  0.3824
  813MOL0     C12061   1.288   0.961   1.622 -0.1925 -0.1575 -0.3536
  813MOL0     C12062   1.405   0.891   1.662  0.5888 -0.3771 -0.0073
  813MOL0     C12063   1.535   0.960   1.656  0.3757 -0.5664 -0.2174
  813MOL0     O12064   1.642   0.890   1.704  0.6085 -0.2967 -0.0540
  813MOL0     C12065   1.772   0.938   1.669 -0.5559 -0.4111 -0.5887
  813MOL0     C12066   1.888   0.830   1.700 -0.0417 -0.2015 -0.0808
  813MOL0     C12067   2.021   0.891   1.672 -1.0216 -1.2201  0.1045
  813MOL0     C12068   2.146   0.824   1.735 -0.5240 -1.0128  0.2733
  813MOL0     C12069   2.276   0.900   1.709 -0.3442  1.2249  0.0429
  813MOL0     C12070   2.396   0.836   1.785 -0.4098 -0.4880 -0.0181
  813MOL0     C12071   2.523   0.901   1.754 -0.7547 -0.4374  0.3274
  813MOL0     C12072   2.646   0.812   1.731 -0.7786 -0.2543 -0.3247
  813MOL0     N12073   2.764   0.898   1.729 -0.2032 -0.3956 -0.2787
  813MOL0     C12074   2.864   0.910   1.831  0.1643 -0.8481 -0.1347
  813MOL0     C12075   2.955   0.996   1.780 -0.3755  0.0201 -0.4915
  813MOL0     C12076   3.069   1.033   1.874 -0.1980 -0.1787  0.1751
  813MOL0     C12077   3.204   0.974   1.821 -1.0495 -0.0550 -0.0070
  813MOL0     C12078   3.210   0.823   1.803  0.3072  0.3522  0.1118
  813MOL0     C12079   3.348   0.771   1.758 -0.5840  0.6554 -0.1386
  813MOL0     O12080   3.444   0.752   1.871 -0.9686  0.0972 -0.2559
  813MOL0     C12081   3.563   0.689   1.835 -1.0507 -0.0389 -0.6890
  813MOL0     C12082   3.643   0.649   1.943 -0.5350 -0.4398  0.4363
  813MOL0     C12083   3.760   0.575   1.936  0.2035  0.5558 -0.6191
  813MOL0     C12084   3.824   0.555   2.070 -0.7598  0.1673  0.6758
  813MOL0     C12085   3.824   0.560   1.811 -0.3231  1.0408  0.0739
  813MOL0     C12086   3.957   0.497   1.798  0.1780 -1.2442 -0.0086
  813MOL0     O12087   4.029   0.535   1.688 -0.3123 -0.4478  0.4990
  813MOL0     C12088   4.131   0.453   1.645 -0.0181 -0.4479 -0.8112
  813MOL0     C12089   4.087   0.355   1.565  0.2240 -0.1298 -0.1200
  813MOL0     C12090   4.187   0.266   1.521  1.2081  0.1747 -0.8445
  813MOL0     C12091   4.321   0.268   1.554 -0.5382  0.2574  0.9241
  813MOL0     O12092   4.415   0.175   1.503  0.5027 -0.4676  0.4965
  813MOL0     C12093   4.517   0.119   1.576 -0.5232 -0.1253  0.0142
  813MOL0     C12094   4.656   0.194   1.545  0.7429  0.0869 -0.5222
  813MOL0     C12095   4.762   0.127   1.630  0.4706 -0.0335  0.7861
  813MOL0     C12096   4.898   0.204   1.623 -0.5462  0.3139  1.2023
  813MOL0     C12097   4.972   0.164   1.491  0.5644 -0.5543 -0.2197
  813MOL0     C12098   5.107   0.243   1.486 -0.0868  0.1552 -0.6751
  813MOL0     C12099   5.204   0.207   1.597  0.0643 -1.1388  0.0453
  813MOL0     C12100   5.343   0.251   1.578 -0.3214  0.5019  0.7023
  813MOL0    Cl12101   5.361   0.387   1.464 -0.3000 -0.1191  0.0190
  813MOL0     C12102   4.365   0.364   1.637 -0.0546 -0.2288  0.6547
  813MOL0     C12103   4.268   0.456   1.690 -0.2915 -0.4335 -0.3966
  813MOL0     O12104   3.985   0.400   1.868  0.1714 -0.2636  0.2733
  813MOL0     C12105   3.755   0.618   1.696 -0.1310 -0.1339 -0.1593
  813MOL0     C12106   3.623   0.668   1.716  0.7219 -0.2747  0.0068
  813MOL0     N12107   2.914   1.033   1.650 -0.2212  0.1853  0.7765
  813MOL0     N12108   2.797   0.980   1.626  0.4797 -0.2609  0.8132
  813MOL0     C12109   1.537   1.093   1.612 -0.6292 -0.0870 -0.4507
  813MOL0     C12110   1.423   1.154   1.562  0.0682 -0.0932 -0.3777
  813MOL0     C12111   0.986   1.196   1.421 -0.3157 -0.0124  0.2913
  813MOL0     C12112   1.027   1.335   1.398  0.2307  0.3328  0.6782
  813MOL0     C12113   0.928   1.430   1.356 -0.1144 -0.9488  0.4682
  813MOL0     C12114   0.797   1.392   1.334  0.4226  0.7507  0.5861
  813MOL0     O12115   0.708   1.479   1.282 -0.0376  0.2524  0.2147
  813MOL0     C12116   0.598   1.512   1.363 -0.3086 -0.2712  0.6810
  813MOL0     C12117   0.629   1.632   1.458  0.0987  0.3579  0.2598
  813MOL0     C12118   0.618   1.758   1.388  0.2291 -0.3529 -1.0572
  813MOL0     C12119   0.676   1.875   1.463 -0.7399 -0.1239 -0.3688
  813MOL0     C12120   0.600   1.901   1.593 -0.1299  0.3280  0.5554
  813MOL0     C12121   0.549   1.935   1.699 -0.4901  0.0171 -0.2311
  813MOL0     C12122   0.762   1.255   1.350 -0.1696  0.7151  0.5250
  813MOL0     C12123   0.854   1.157   1.394  0.5669 -0.7728 -0.2745
  813MOL0     C12124   0.796   1.014   1.407 -0.4872  0.3143  0.0877
  813MOL0     H12125   1.194   0.907   1.631  0.5915 -1.2843  1.4334
  813MOL0     H12126   1.405   0.787   1.693 -0.2209 -1.3352 -2.9286
  813MOL0     H12127   1.802   1.029   1.722 -1.4433  1.5169 -3.1729
  813MOL0     H12128   1.770   0.965   1.563 -2.8693 -2.9446 -1.3171
  813MOL0     H12129   1.894   0.808   1.807 -1.4397 -1.5865 -0.2502
  813MOL0     H12130   1.868   0.735   1.650 -1.2249 -1.0842  1.9770
  813MOL0     H12131   2.045   0.897   1.565  0.2804  1.4086  0.4660
  813MOL0     H12132   2.023   0.992   1.714 -1.3415 -1.3492  0.4330
  813MOL0     H12133   2.128   0.823   1.843  1.1286  2.2983  0.7211
  813MOL0     H12134   2.142   0.722   1.696  1.3552 -0.5320 -1.2850
  813MOL0     H12135   2.268   1.007   1.732  0.0937  1.9013 -2.6517
  813MOL0     H12136   2.296   0.895   1.602 -0.8744  1.3173 -0.0644
  813MOL0     H12137   2.384   0.848   1.893 -0.4771 -3.4471  0.4074
  813MOL0     H12138   2.406   0.730   1.759  0.8502 -0.1616 -0.9911
  813MOL0     H12139   2.535   0.977   1.831 -3.9828 -1.0352  1.6199
  813MOL0     H12140   2.503   0.953   1.660 -0.3651 -2.2044 -0.7879
  813MOL0     H12141   2.656   0.730   1.804 -0.0244  1.0559  1.0860
  813MOL0     H12142   2.640   0.756   1.637 -1.0250 -0.4847 -0.1761
  813MOL0     H12143   2.855   0.870   1.931  0.5735  1.4274  0.8713
  813MOL0     H12144   3.055   0.988   1.972 -1.1400  0.0570  0.1603
  813MOL0     H12145   3.080   1.142   1.879 -0.8383 -0.1775  2.1680
  813MOL0     H12146   3.232   1.008   1.721  1.6322 -1.6837  0.0913
  813MOL0     H12147   3.290   1.001   1.883 -0.9875  1.0215 -0.5489
  813MOL0     H12148   3.184   0.773   1.898  0.9376  0.6054  0.4223
  813MOL0     H12149   3.131   0.783   1.738  0.2945 -3.9551  2.3640
  813MOL0     H12150   3.322   0.675   1.713 -0.0072  1.2471 -1.7856
  813MOL0     H12151   3.390   0.832   1.677 -3.0410  1.4255 -0.9131
  813MOL0     H12152   3.600   0.675   2.039  1.8163 -1.5099  1.8784
  813MOL0     H12153   3.757   0.603   2.142  0.5280 -0.6816  2.5453
  813MOL0     H12154   3.921   0.607   2.073 -1.3094  1.1896  1.2932
  813MOL0     H12155   3.840   0.449   2.091  0.8057  0.4674  1.1218
  813MOL0     H12156   3.981   0.343   1.541  0.6795 -1.2376 -1.7263
  813MOL0     H12157   4.152   0.182   1.462  3.1026 -1.4320  0.1949
  813MOL0     H12158   4.498   0.108   1.683  1.7393 -0.5731  0.4141
  813MOL0     H12159   4.532   0.014   1.551  3.3216  0.1050  0.6456
  813MOL0     H12160   4.679   0.181   1.439 -0.7142  1.3259 -1.0312
  813MOL0     H12161   4.650   0.300   1.569 -1.0526  0.0123 -0.4476
  813MOL0     H12162   4.779   0.027   1.588  1.4797  0.2493  0.4990
  813MOL0     H12163   4.729   0.130   1.734 -0.2737 -2.6351  0.7038
  813MOL0     H12164   4.951   0.174   1.714  1.5615  1.9236  0.5621
  813MOL0     H12165   4.887   0.313   1.619  2.1980  0.6220  0.0793
  813MOL0     H12166   4.975   0.055   1.485 -5.8624 -1.3232  2.2321
  813MOL0     H12167   4.915   0.193   1.402 -0.0138  0.4121  0.4458
  813MOL0     H12168   5.095   0.351   1.470 -0.0136  0.0878 -1.2219
  813MOL0     H12169   5.160   0.211   1.396  0.6529 -2.1928  0.5200
  813MOL0     H12170   5.202   0.099   1.618  0.0577 -1.0284  0.6169
  813MOL0     H12171   5.179   0.261   1.688 -1.5794 -2.6659  0.5670
  813MOL0     H12172   5.404   0.164   1.550  0.3834 -0.1826  3.9141
  813MOL0     H12173   5.389   0.262   1.677  3.4926 -0.7669 -0.7622
  813MOL0     H12174   4.467   0.380   1.668  0.7961 -4.3742  0.5869
  813MOL0     H12175   4.311   0.533   1.753  1.2167 -1.1539 -0.4903
  813MOL0     H12176   3.801   0.609   1.599 -1.1104  3.5688 -1.1322
  813MOL0     H12177   3.567   0.704   1.630  0.5263  3.8620  1.6166
  813MOL0     H12178   1.625   1.154   1.628  1.2806 -3.1708  1.7595
  813MOL0     H12179   1.425   1.260   1.538 -0.1676 -0.4330 -2.0040
  813MOL0     H12180   1.130   1.367   1.397 -0.2221  1.8974  0.2503
  813MOL0     H12181   0.958   1.534   1.349 -1.0291 -0.7657 -1.0108
  813MOL0     H12182   0.516   1.533   1.294 -1.1106  0.2647  1.7531
  813MOL0     H12183   0.568   1.431   1.430 -2.9819  0.8188  0.9436
  813MOL0     H12184   0.727   1.629   1.508  0.0356  2.7694  0.6236
  813MOL0     H12185   0.557   1.624   1.539  1.5223 -3.5543  1.3764
  813MOL0     H12186   0.657   1.751   1.286 -2.4503  0.0045 -2.1887
  813MOL0     H12187   0.510   1.774   1.376  0.1120 -1.9485 -2.3701
  813MOL0     H12188   0.691   1.958   1.394  2.3651 -1.9300 -2.1098
  813MOL0     H12189   0.778   1.846   1.491 -0.1064  0.8758 -1.5563
  813MOL0     H12190   0.495   1.957   1.788 -0.4735  1.0153 -0.4576
  813MOL0     H12191   0.660   1.237   1.319 -0.2339  1.1793  0.4623
  813MOL0     H12192   0.829   0.977   1.505  1.1964 -1.8241 -1.2196
  813MOL0     H12193   0.688   1.015   1.389 -0.2855  1.0028 -1.2133
  813MOL0     H12194   0.842   0.957   1.327  2.5203  1.4405  0.8774
  814MOL0     O12195   7.008   4.498   7.169  0.3746  0.0449  0.0566
  814MOL0     C12196   7.115   4.472   7.229  0.0689 -0.0757  0.1960
  814MOL0     O12197   7.126   4.392   7.339 -0.0312 -0.5239  0.6708
  814MOL0     C12198   7.010   4.342   7.396 -1.1931 -0.4286  1.3883
  814MOL0     C12199   6.951   4.235   7.332 -0.3220  0.7604 -0.3731
  814MOL0     C12200   6.832   4.185   7.392 -0.4876  0.6199  0.5250
  814MOL0     C12201   6.785   4.232   7.514 -0.1355 -1.0488 -0.7183
  814MOL0     O12202   6.675   4.160   7.562 -0.3679  0.2853  0.2284
  814MOL0     C12203   6.581   4.222   7.640 -0.9914 -0.4668  0.0761
  814MOL0     C12204   6.452   4.139   7.631 -0.4969 -0.2734 -0.5872
  814MOL0     C12205   6.330   4.203   7.701 -0.4914  0.0016 -1.1434
  814MOL0     C12206   6.195   4.141   7.655 -0.8167 -0.0381 -0.5266
  814MOL0     C12207   6.083   4.185   7.753  0.0741 -0.6775  0.2551
  814MOL0     C12208   5.940   4.182   7.686  0.3257 -0.0977  0.9800
  814MOL0     C12209   5.903   4.047   7.625 -0.2312 -0.5996  0.2235
  814MOL0     C12210   5.922   3.924   7.716  0.3261 -0.3875 -0.1149
  814MOL0     N12211   5.845   3.915   7.835  0.2559 -0.5877  0.3548
  814MOL0     C12212   5.711   3.957   7.858 -0.6736 -0.2886 -0.3722
  814MOL0     C12213   5.707   3.959   7.993  0.4938  0.0579 -0.5124
  814MOL0     C12214   5.590   3.998   8.084 -0.1787 -0.7200  0.7124
  814MOL0     C12215   5.565   4.142   8.123  0.7327  0.3260 -0.5734
  814MOL0     C12216   5.441   4.149   8.217 -0.8797  0.1962  0.2929
  814MOL0     C12217   5.318   4.087   8.148  0.5285 -0.3568 -0.4866
  814MOL0     O12218   5.214   4.083   8.244 -0.6686  0.2388 -0.6533
  814MOL0     C12219   5.110   3.992   8.219 -0.1613 -0.6250  0.4173
  814MOL0     C12220   5.073   3.915   8.323 -1.0470  0.6314  0.1102
  814MOL0     C12221   4.979   3.814   8.316  0.0018  0.6153  1.2438
  814MOL0     C12222   4.970   3.728   8.442 -0.5957  0.4373 -0.5183
  814MOL0     C12223   4.916   3.781   8.188 -1.0031  0.3927 -0.0496
  814MOL0     C12224   4.819   3.672   8.160 -0.2326  0.0335  0.4919
  814MOL0     O12225   4.809   3.621   8.032 -0.1004 -0.3300 -0.7637
  814MOL0     C12226   4.695   3.562   7.995  1.1614  0.0248 -0.8250
  814MOL0     C12227   4.572   3.616   8.036  0.2844 -0.3667 -0.4268
  814MOL0     C12228   4.447   3.563   7.990 -0.5749 -0.2748 -0.0936
  814MOL0     C12229   4.448   3.448   7.914  0.4707  0.4072 -0.5662
  814MOL0     O12230   4.335   3.382   7.868  0.2745 -0.6226  0.2193
  814MOL0     C12231   4.204   3.440   7.873  0.0858 -0.9040  1.1510
  814MOL0     C12232   4.154   3.380   7.746 -0.0641 -0.1849 -0.9600
  814MOL0     C12233   3.999   3.395   7.732 -0.0351  0.2096  0.2807
  814MOL0     C12234   3.975   3.347   7.593 -0.0937 -1.1293  0.6045
  814MOL0     C12235   4.002   3.454   7.481 -0.1245  0.3828  0.0132
  814MOL0     C12236   3.962   3.400   7.336 -0.8000 -0.4066  0.2074
  814MOL0     C12237   4.028   3.500   7.228  1.2711 -0.1531 -0.6395
  814MOL0     C12238   3.923   3.569   7.143 -0.3640  0.2615  0.4072
  814MOL0    Cl12239   3.817   3.448   7.049  0.2660  0.1464  0.3809
  814MOL0     C12240   4.575   3.387   7.881 -0.3890 -0.1510 -0.9925
  814MOL0     C12241   4.693   3.445   7.918 -0.7731 -0.4628 -0.4133
  814MOL0     O12242   4.753   3.635   8.260  0.3679 -0.1850  0.2870
  814MOL0     C12243   4.953   3.869   8.084 -0.5033  0.4611 -1.0778
  814MOL0     C12244   5.046   3.969   8.097  0.5707  0.0778 -0.8033
  814MOL0     N12245   5.822   3.901   8.043  0.6152 -0.4849  0.6368
  814MOL0     N12246   5.895   3.876   7.952 -0.0777  0.3239 -0.4510
  814MOL0     C12247   6.853   4.337   7.585 -0.7221 -0.1637 -1.2684
  814MOL0     C12248   6.963   4.388   7.517  0.1622 -0.8097 -0.1749
  814MOL0     C12249   7.231   4.549   7.181  0.3771 -0.5651 -0.2881
  814MOL0     C12250   7.344   4.551   7.271  1.1176  0.9092  0.4667
  814MOL0     C12251   7.467   4.593   7.227  0.2443 -0.3957  0.0356
  814MOL0     C12252   7.479   4.659   7.102  0.3712 -0.3629  0.0380
  814MOL0     O12253   7.603   4.705   7.065  0.6227  0.0640 -0.1908
  814MOL0     C12254   7.625   4.782   6.946  0.1319 -0.0444  0.7466
  814MOL0     C12255   7.572   4.927   6.947 -0.2328  1.1916 -0.1692
  814MOL0     C12256   7.654   5.033   6.869 -1.0344  0.6671 -0.5179
  814MOL0     C12257   7.791   5.031   6.946 -0.1800  0.2304  0.3160
  814MOL0     C12258   7.844   5.169   6.957  0.0820 -0.0335  0.5887
  814MOL0     C12259   7.875   5.282   6.962  0.3297  0.0638  0.2096
  814MOL0     C12260   7.366   4.667   7.025  0.3845 -0.5430 -0.3468
  814MOL0     C12261   7.243   4.606   7.049  0.5948  1.2052 -0.5620
  814MOL0     C12262   7.151   4.569   6.942  0.6432 -0.5167 -0.2885
  814MOL0     H12263   6.984   4.188   7.240 -3.4779 -1.9394 -0.3061
  814MOL0     H12264   6.775   4.104   7.347  0.8978 -0.6916  1.0402
  814MOL0     H12265   6.554   4.316   7.592  2.6150 -0.0504 -1.4009
  814MOL0     H12266   6.621   4.234   7.741  0.8056 -0.9384 -0.5488
  814MOL0     H12267   6.438   4.137   7.522 -0.8877  1.9905 -0.6218
  814MOL0     H12268   6.462   4.038   7.671  0.0707 -0.0130 -0.0650
  814MOL0     H12269   6.332   4.186   7.809 -1.2465 -0.2381 -1.1551
  814MOL0     H12270   6.336   4.310   7.678 -2.2321  0.6918  1.2203
  814MOL0     H12271   6.179   4.167   7.550 -4.1946 -2.0802 -0.6603
  814MOL0     H12272   6.202   4.032   7.655  2.1594  0.0509  0.4865
  814MOL0     H12273   6.101   4.290   7.778  5.8261 -1.2942  0.1757
  814MOL0     H12274   6.081   4.122   7.842  1.8918 -0.9586  0.1458
  814MOL0     H12275   5.865   4.199   7.763  0.0454  0.2236  0.6446
  814MOL0     H12276   5.928   4.260   7.609 -1.9033 -2.3234 -1.1343
  814MOL0     H12277   5.957   4.035   7.531 -2.1317 -1.0135 -0.8812
  814MOL0     H12278   5.803   4.058   7.582  1.0363  3.0445 -2.3010
  814MOL0     H12279   5.878   3.842   7.659 -1.1618  0.4380 -0.2164
  814MOL0     H12280   6.028   3.907   7.737  1.2312  3.3364 -1.0034
  814MOL0     H12281   5.637   3.984   7.783 -0.3717 -0.1465 -0.6188
  814MOL0     H12282   5.611   3.945   8.177  1.2341 -0.6618  0.4479
  814MOL0     H12283   5.506   3.948   8.034 -0.1514  1.0509 -1.2582
  814MOL0     H12284   5.647   4.188   8.179 -0.7806 -0.3158  2.3373
  814MOL0     H12285   5.543   4.202   8.034 -0.1656  0.6391 -0.1587
  814MOL0     H12286   5.447   4.099   8.314  0.3653 -1.1905 -0.4773
  814MOL0     H12287   5.417   4.256   8.226 -2.4733 -0.1528  0.5452
  814MOL0     H12288   5.288   4.129   8.052 -0.7039  0.1128  0.0812
  814MOL0     H12289   5.340   3.983   8.122  2.3807 -0.4841  1.2685
  814MOL0     H12290   5.111   3.931   8.423  1.4536 -0.5305 -0.5752
  814MOL0     H12291   5.051   3.756   8.511 -1.1643 -0.1018  0.3803
  814MOL0     H12292   4.982   3.624   8.412  0.1239  0.0482  0.9778
  814MOL0     H12293   4.876   3.744   8.495 -0.7708  0.5288 -0.8551
  814MOL0     H12294   4.564   3.698   8.107 -1.3772  0.4961 -1.5473
  814MOL0     H12295   4.353   3.608   8.020 -0.8326 -1.6466  1.2679
  814MOL0     H12296   4.131   3.398   7.942 -1.9998  1.2565  0.3569
  814MOL0     H12297   4.215   3.548   7.868  1.2869 -1.0356  0.4911
  814MOL0     H12298   4.209   3.426   7.664  2.1383  0.8271  0.9520
  814MOL0     H12299   4.177   3.273   7.744  0.6144 -0.0523 -0.5456
  814MOL0     H12300   3.976   3.501   7.746  0.9742  0.2030  2.5244
  814MOL0     H12301   3.951   3.331   7.807 -2.4945  0.8384 -0.6850
  814MOL0     H12302   3.867   3.333   7.579 -0.2221  2.0424 -2.9546
  814MOL0     H12303   4.013   3.248   7.569 -0.5055 -0.8395 -1.4280
  814MOL0     H12304   3.953   3.550   7.505  1.3000  1.6958 -2.0451
  814MOL0     H12305   4.110   3.472   7.488  0.0657 -1.2144  2.7727
  814MOL0     H12306   3.853   3.394   7.327 -0.6133 -1.4656 -2.0385
  814MOL0     H12307   3.999   3.298   7.323 -0.7599 -0.5209  1.1395
  814MOL0     H12308   4.100   3.441   7.171  1.0546 -0.0587 -1.0132
  814MOL0     H12309   4.083   3.578   7.282 -0.0321 -1.3677  2.7052
  814MOL0     H12310   3.969   3.642   7.077  1.6256 -0.5537  0.8112
  814MOL0     H12311   3.854   3.619   7.212  1.6870  1.9483  1.3529
  814MOL0     H12312   4.565   3.298   7.821 -1.0760 -0.6618 -0.1510
  814MOL0     H12313   4.787   3.400   7.888 -1.1203  0.0212 -2.3446
  814MOL0     H12314   4.904   3.854   7.989 -0.0066 -2.4125 -0.9654
  814MOL0     H12315   5.068   4.030   8.010  0.4811  1.6339  0.2139
  814MOL0     H12316   6.829   4.368   7.686  2.2713  2.0699 -1.1023
  814MOL0     H12317   7.019   4.464   7.573 -0.9656  0.6342 -0.9380
  814MOL0     H12318   7.330   4.494   7.363 -1.0533 -0.0697 -0.4165
  814MOL0     H12319   7.549   4.567   7.292 -0.5501  0.9767  1.6302
  814MOL0     H12320   7.734   4.781   6.936  0.2284 -1.7772  1.6131
  814MOL0     H12321   7.595   4.735   6.852  0.1423 -0.5024  0.9714
  814MOL0     H12322   7.565   4.961   7.050 -1.3244  2.7374 -0.7138
  814MOL0     H12323   7.474   4.914   6.900 -0.2458 -3.1099  0.6334
  814MOL0     H12324   7.675   5.014   6.763 -3.0840  1.0241 -1.0440
  814MOL0     H12325   7.612   5.134   6.876  0.5449  1.2471  1.8578
  814MOL0     H12326   7.855   4.971   6.881  1.0493 -0.8694  2.4270
  814MOL0     H12327   7.796   4.980   7.043 -0.5078 -0.5185 -0.0457
  814MOL0     H12328   7.919   5.380   6.960  2.1958 -0.7378 -0.9915
  814MOL0     H12329   7.373   4.708   6.925 -0.8740  1.8905  0.4681
  814MOL0     H12330   7.182   4.595   6.841 -0.4675 -1.5581 -0.9223
  814MOL0     H12331   7.122   4.464   6.951  0.4882 -0.5352 -0.9274
  814MOL0     H12332   7.067   4.636   6.965  0.9528 -0.8661  2.1962
  815MOL0     O12333   6.731  10.349  10.131 -0.2115  0.5847  0.3308
  815MOL0     C12334   6.748  10.467  10.092  0.6919  0.2067 -0.0783
  815MOL0     O12335   6.649  10.558  10.087 -0.3685  0.5347  0.6909
  815MOL0     C12336   6.528  10.511  10.136 -0.2479 -0.2141 -0.6817
  815MOL0     C12337   6.460  10.413  10.061  0.4606  0.5753 -0.1578
  815MOL0     C12338   6.348  10.351  10.103 -0.3611  0.3871  1.2812
  815MOL0     C12339   6.293  10.387  10.231  0.8795 -0.1149  1.2178
  815MOL0     O12340   6.169  10.340  10.279 -0.2605 -0.3031  0.2553
  815MOL0     C12341   6.109  10.224  10.217  0.0222 -0.1470 -0.1790
  815MOL0     C12342   5.982  10.197  10.301 -0.2672  0.5778  0.4784
  815MOL0     C12343   5.872  10.296  10.274  0.5341  0.0671 -0.0050
  815MOL0     C12344   5.827  10.308  10.124  0.7007  0.8765 -0.9223
  815MOL0     C12345   5.730  10.432  10.114 -0.1063  0.9254  0.5781
  815MOL0     C12346   5.672  10.456   9.972  0.4327  0.2705 -0.1772
  815MOL0     C12347   5.578  10.571   9.960 -0.5233 -0.4761  1.3088
  815MOL0     C12348   5.452  10.556  10.046  0.1993 -0.2186 -0.3418
  815MOL0     N12349   5.387  10.430  10.019  0.1487 -0.8637  0.0442
  815MOL0     C12350   5.329  10.389   9.903  0.3838  0.7541  0.8465
  815MOL0     C12351   5.307  10.257   9.926  0.5896  0.2364  0.1605
  815MOL0     C12352   5.227  10.164   9.829 -0.5245 -0.4106  0.0738
  815MOL0     C12353   5.124  10.085   9.911 -0.7673 -0.2127  0.5632
  815MOL0     C12354   5.032  10.005   9.827 -0.1560  0.4826 -0.7745
  815MOL0     C12355   5.090   9.861   9.827 -0.8924 -0.4396 -0.0116
  815MOL0     O12356   5.022   9.780   9.723  0.2333  0.1295  0.1043
  815MOL0     C12357   4.907   9.707   9.735  0.2971  0.3426 -0.1400
  815MOL0     C12358   4.837   9.705   9.855  0.1909  0.7439 -0.4027
  815MOL0     C12359   4.715   9.640   9.879  0.5887  0.4192 -0.2371
  815MOL0     C12360   4.661   9.673  10.017  0.5556 -0.0030 -0.4844
  815MOL0     C12361   4.654   9.559   9.771 -0.0093 -1.1305 -0.1630
  815MOL0     C12362   4.525   9.486   9.776 -0.3783 -0.1129 -0.5287
  815MOL0     O12363   4.480   9.410   9.666  0.2913  0.2315  0.1706
  815MOL0     C12364   4.351   9.362   9.683  0.3429 -0.5011 -0.0533
  815MOL0     C12365   4.330   9.248   9.760 -0.3808 -0.5775  0.1109
  815MOL0     C12366   4.198   9.201   9.789 -0.0976  0.6431  0.2158
  815MOL0     C12367   4.087   9.270   9.746 -0.9500 -0.4861 -0.1898
  815MOL0     O12368   3.966   9.220   9.767  0.1399  0.4689  0.2035
  815MOL0     C12369   3.861   9.319   9.780 -0.0176  0.1168 -0.3964
  815MOL0     C12370   3.738   9.278   9.852  0.6278  0.6835 -0.0123
  815MOL0     C12371   3.642   9.185   9.773  1.0705 -0.2510 -0.2968
  815MOL0     C12372   3.499   9.193   9.831  0.5293  0.1899  0.2225
  815MOL0     C12373   3.490   9.164   9.980  0.7188  0.2530 -0.3319
  815MOL0     C12374   3.342   9.139  10.028  0.4926  0.0533  0.0124
  815MOL0     C12375   3.230   9.231   9.984 -0.8080 -0.7846 -0.8479
  815MOL0     C12376   3.269   9.375  10.025 -0.0444  0.6998  0.9314
  815MOL0    Cl12377   3.278   9.410  10.196 -0.3279  0.0388 -0.0161
  815MOL0     C12378   4.112   9.394   9.677 -0.2360  0.2070 -0.1096
  815MOL0     C12379   4.236   9.431   9.634  0.1163 -0.0786 -0.6912
  815MOL0     O12380   4.466   9.499   9.881  0.1821 -0.1037 -0.3028
  815MOL0     C12381   4.727   9.556   9.648 -0.4682  0.2109 -0.1404
  815MOL0     C12382   4.847   9.627   9.637 -0.0734 -0.2353  0.1155
  815MOL0     N12383   5.356  10.223  10.057  0.2278  0.7615  0.3376
  815MOL0     N12384   5.388  10.333  10.116 -0.4717  0.5155  0.6103
  815MOL0     C12385   6.347  10.495  10.290 -0.8413 -0.5739 -0.0484
  815MOL0     C12386   6.466  10.559  10.254  0.3930  0.4739 -0.2065
  815MOL0     C12387   6.883  10.506  10.044 -0.3442  0.5806  0.3062
  815MOL0     C12388   6.977  10.404  10.031  0.5380  0.4647  0.3912
  815MOL0     C12389   7.104  10.430  10.000 -0.9358 -0.7277 -0.4198
  815MOL0     C12390   7.148  10.562   9.965  0.0704  0.3760  0.0714
  815MOL0     O12391   7.276  10.590   9.921 -0.2826  0.1747 -0.1423
  815MOL0     C12392   7.304  10.713   9.849 -0.3086 -0.6144 -0.4556
  815MOL0     C12393   7.455  10.716   9.805  0.1907  0.0988 -1.0868
  815MOL0     C12394   7.552  10.712   9.932  0.4335 -0.0022  0.6930
  815MOL0     C12395   7.694  10.754   9.896  0.7865  0.3947 -0.2321
  815MOL0     C12396   7.688  10.891   9.854 -0.1086 -0.5876  0.7249
  815MOL0     C12397   7.663  11.008   9.822  0.3006 -0.0002 -0.0484
  815MOL0     C12398   7.041  10.664   9.960 -0.1045  0.4444  0.6575
  815MOL0     C12399   6.916  10.637   9.999 -0.6235  0.1653 -0.1728
  815MOL0     C12400   6.819  10.750   9.990 -0.4578 -0.3857  0.0650
  815MOL0     H12401   6.510  10.375   9.972  0.4248  0.1832 -0.0130
  815MOL0     H12402   6.303  10.274  10.042  2.6282  1.7141 -3.0341
  815MOL0     H12403   6.173  10.136  10.229 -1.7420 -1.3676  0.7677
  815MOL0     H12404   6.096  10.223  10.109  2.9728 -1.0459 -0.6152
  815MOL0     H12405   5.950  10.093  10.286  2.1032 -0.0567 -0.7388
  815MOL0     H12406   6.016  10.211  10.404 -0.6118  1.7090  0.4539
  815MOL0     H12407   5.786  10.264  10.333  2.1613 -2.2983  1.2602
  815MOL0     H12408   5.899  10.394  10.313  1.0779 -1.0670  2.6676
  815MOL0     H12409   5.910  10.323  10.056 -0.2567  1.5721 -1.9715
  815MOL0     H12410   5.778  10.215  10.095  2.2275  0.3697 -1.9186
  815MOL0     H12411   5.785  10.523  10.141  0.5019  0.0568  2.4833
  815MOL0     H12412   5.638  10.415  10.171 -0.7949 -0.3945 -0.8423
  815MOL0     H12413   5.752  10.456   9.897  0.5173 -1.4992 -0.1310
  815MOL0     H12414   5.624  10.364   9.938 -2.7784  2.6828 -2.7426
  815MOL0     H12415   5.548  10.588   9.856  0.6386 -2.3225  0.6089
  815MOL0     H12416   5.626  10.661   9.999 -4.0430  2.8009 -1.0972
  815MOL0     H12417   5.480  10.564  10.152  1.0701  0.2273 -0.5918
  815MOL0     H12418   5.381  10.638  10.029  0.3004  0.1580  0.9013
  815MOL0     H12419   5.302  10.437   9.809  0.8814  0.3151  0.4734
  815MOL0     H12420   5.293  10.093   9.778  1.1564  1.8009 -0.9746
  815MOL0     H12421   5.183  10.220   9.746 -1.9447  1.2949  1.8941
  815MOL0     H12422   5.175  10.018   9.981 -0.1753  0.2922  0.6302
  815MOL0     H12423   5.071  10.156   9.975 -0.9403 -0.5575  0.8070
  815MOL0     H12424   4.930  10.005   9.869  0.4043 -1.0207  0.6936
  815MOL0     H12425   5.032  10.037   9.722  0.4309 -0.8570 -1.2052
  815MOL0     H12426   5.195   9.860   9.796 -1.5085  0.6116 -2.4378
  815MOL0     H12427   5.073   9.837   9.932  1.0045  3.4478  1.3732
  815MOL0     H12428   4.887   9.764   9.931 -1.8286  1.9747  0.0530
  815MOL0     H12429   4.590   9.754  10.003 -0.3539  0.0345  3.3956
  815MOL0     H12430   4.737   9.706  10.087  0.5339 -1.5918  0.3468
  815MOL0     H12431   4.622   9.584  10.068  0.8420  0.0915 -0.0976
  815MOL0     H12432   4.415   9.202   9.810  1.4647  0.4035 -1.9288
  815MOL0     H12433   4.182   9.114   9.852 -0.6254  0.9400  0.4907
  815MOL0     H12434   3.895   9.410   9.831 -0.6721  0.5446 -0.7106
  815MOL0     H12435   3.834   9.341   9.676  2.0343  2.6708 -0.4906
  815MOL0     H12436   3.766   9.229   9.947 -0.2202  2.1327  1.0244
  815MOL0     H12437   3.682   9.370   9.870 -1.6274 -0.1258 -2.2935
  815MOL0     H12438   3.680   9.083   9.777  2.3631  0.1640 -1.4350
  815MOL0     H12439   3.638   9.221   9.670  0.7526  1.2881  0.2191
  815MOL0     H12440   3.436   9.119   9.781  0.7277  0.5723 -0.6064
  815MOL0     H12441   3.451   9.291   9.825 -2.0349 -0.8675  1.7275
  815MOL0     H12442   3.543   9.071  10.004 -3.8056 -2.4967  0.2808
  815MOL0     H12443   3.539   9.247  10.032  0.7441 -0.4803  0.8440
  815MOL0     H12444   3.353   9.135  10.137  1.1099  1.9075  0.0498
  815MOL0     H12445   3.314   9.045   9.980 -2.1976  1.8144 -2.1101
  815MOL0     H12446   3.143   9.190  10.036  0.0305  0.5688  1.7748
  815MOL0     H12447   3.208   9.212   9.878 -1.0331 -2.7464 -0.4965
  815MOL0     H12448   3.196   9.445   9.983 -1.2969 -2.4126 -2.6479
  815MOL0     H12449   3.360   9.389   9.967 -1.4911  0.4024 -1.5686
  815MOL0     H12450   4.033   9.452   9.630 -0.8832 -1.2549 -0.8834
  815MOL0     H12451   4.254   9.525   9.582  1.5854 -0.8930 -1.7350
  815MOL0     H12452   4.679   9.498   9.569 -1.9949  0.8441  0.2929
  815MOL0     H12453   4.896   9.623   9.540 -1.1400 -1.6271 -0.4041
  815MOL0     H12454   6.298  10.526  10.382  1.1872  0.2327  0.8088
  815MOL0     H12455   6.524  10.623  10.321 -0.6993  0.2346  1.0139
  815MOL0     H12456   6.952  10.302  10.061 -1.5356  0.4930 -1.0038
  815MOL0     H12457   7.179  10.353  10.009  1.4775  1.3461 -1.5477
  815MOL0     H12458   7.239  10.726   9.761  1.9684  1.2627 -1.9755
  815MOL0     H12459   7.291  10.794   9.921 -2.2733 -1.1224 -0.1668
  815MOL0     H12460   7.473  10.809   9.751  2.0574 -0.5362 -1.6208
  815MOL0     H12461   7.469  10.629   9.741 -0.5083 -0.6363 -0.2668
  815MOL0     H12462   7.509  10.773  10.012 -0.9321 -1.2653  0.9535
  815MOL0     H12463   7.555  10.607   9.962 -2.7457 -0.4808 -0.3851
  815MOL0     H12464   7.736  10.690   9.817 -0.8237  1.5103 -2.0618
  815MOL0     H12465   7.762  10.744   9.981  1.6611 -1.7418 -1.1056
  815MOL0     H12466   7.637  11.108   9.796  2.5904  0.9302  0.9253
  815MOL0     H12467   7.062  10.757   9.908 -0.3330 -0.9655 -2.1596
  815MOL0     H12468   6.756  10.770  10.077  1.5607  2.0394  1.1018
  815MOL0     H12469   6.875  10.841   9.965 -0.3195 -0.2836  0.7380
  815MOL0     H12470   6.755  10.719   9.907  1.1303 -2.4317 -0.4972
  816MOL0     O12471   7.001   0.274   3.870  0.5679 -0.5511 -0.3819
  816MOL0     C12472   6.911   0.190   3.854 -0.3067  0.3197  0.0841
  816MOL0     O12473   6.937   0.062   3.814  0.0594  1.0862  0.7594
  816MOL0     C12474   7.050   0.036   3.740 -0.5128 -0.5479  0.0500
  816MOL0     C12475   7.188   0.070   3.770  0.6938 -0.8163 -0.9627
  816MOL0     C12476   7.281   0.018   3.680 -0.2866  0.4396  0.2073
  816MOL0     C12477   7.250  -0.055   3.565 -0.7660 -0.2961 -0.4816
  816MOL0     O12478   7.334  -0.095   3.461 -0.3155 -0.2391  1.1059
  816MOL0     C12479   7.470  -0.153   3.489  0.0180  0.2828  0.6723
  816MOL0     C12480   7.579  -0.079   3.396 -0.0300 -0.1709  0.6616
  816MOL0     C12481   7.698  -0.167   3.426 -1.2075 -0.2805  0.4498
  816MOL0     C12482   7.819  -0.127   3.337  0.2600  0.2671 -0.0648
  816MOL0     C12483   7.906  -0.001   3.396  0.1898 -0.2000  0.4606
  816MOL0     C12484   7.980  -0.046   3.518  0.1974 -0.1365 -0.3154
  816MOL0     C12485   8.095   0.052   3.553  0.2948 -0.0198 -0.1745
  816MOL0     C12486   8.221   0.043   3.462 -0.0795 -1.2349  0.0743
  816MOL0     N12487   8.280  -0.091   3.484  0.1749 -0.6245 -0.6354
  816MOL0     C12488   8.366  -0.123   3.591  0.2988 -0.8132  0.7357
  816MOL0     C12489   8.388  -0.256   3.583  0.1640  0.4259  0.3488
  816MOL0     C12490   8.464  -0.362   3.668  0.2752 -0.6377 -0.3002
  816MOL0     C12491   8.398  -0.390   3.808  0.1619  0.1870  0.2622
  816MOL0     C12492   8.482  -0.324   3.923 -0.7699  0.1561  0.2673
  816MOL0     C12493   8.494  -0.163   3.948  1.0804  0.5099  0.6761
  816MOL0     O12494   8.612  -0.090   3.906 -0.6704 -0.0301  0.6456
  816MOL0     C12495   8.728  -0.110   3.979  0.9677 -0.4987  0.4317
  816MOL0     C12496   8.745  -0.195   4.079 -0.4580  0.6144  0.0754
  816MOL0     C12497   8.878  -0.210   4.137 -0.6958  0.2272 -0.6114
  816MOL0     C12498   8.899  -0.324   4.235 -0.1828 -0.6690  0.3389
  816MOL0     C12499   8.987  -0.128   4.093  0.3207  0.0558  0.0502
  816MOL0     C12500   9.114  -0.106   4.167 -0.0463  0.5950  0.3312
  816MOL0     O12501   9.222  -0.074   4.101 -0.2306 -0.5518  0.6418
  816MOL0     C12502   9.337  -0.028   4.160  0.3053  0.4724 -0.1971
  816MOL0     C12503   9.453  -0.093   4.123 -0.6599  0.4225 -0.1134
  816MOL0     C12504   9.579  -0.056   4.169 -0.5932  0.2093 -0.3192
  816MOL0     C12505   9.591   0.064   4.241  0.5912 -0.2810  0.1553
  816MOL0     O12506   9.716   0.107   4.286 -0.6566  0.3406 -0.5094
  816MOL0     C12507   9.711   0.203   4.392 -0.2664 -0.0106 -0.1627
  816MOL0     C12508   9.842   0.191   4.470  0.1302 -0.1124 -0.2755
  816MOL0     C12509   9.837   0.305   4.579 -0.9968  0.2419  0.1855
  816MOL0     C12510   9.943   0.282   4.688  0.0242  0.2222 -0.7098
  816MOL0     C12511   9.923   0.377   4.812  0.6410 -1.0240 -0.7793
  816MOL0     C12512  10.028   0.357   4.920  0.4580  0.1500  0.4087
  816MOL0     C12513   9.994   0.412   5.060  0.1663 -0.1446 -0.7711
  816MOL0     C12514   9.888   0.325   5.131 -0.0770  0.1343  0.2074
  816MOL0    Cl12515   9.914   0.148   5.140  0.1976  0.1024 -0.0371
  816MOL0     C12516   9.475   0.145   4.269  0.1022  1.3320 -0.3437
  816MOL0     C12517   9.350   0.087   4.239 -0.1881 -0.0774 -0.8516
  816MOL0     O12518   9.100  -0.099   4.286 -0.4295 -0.2599  0.0555
  816MOL0     C12519   8.963  -0.029   3.997 -0.4228 -0.1537  0.0952
  816MOL0     C12520   8.836  -0.026   3.931  0.3553  1.1443  0.0572
  816MOL0     N12521   8.322  -0.301   3.470  0.5931  0.1614 -0.6695
  816MOL0     N12522   8.261  -0.206   3.409  1.1846  0.1598 -0.1804
  816MOL0     C12523   7.119  -0.097   3.547  0.5333 -0.1235  0.5694
  816MOL0     C12524   7.019  -0.057   3.633 -0.0591 -0.6957  0.5234
  816MOL0     C12525   6.772   0.236   3.877 -0.3954  0.6743  0.1292
  816MOL0     C12526   6.754   0.371   3.904  0.2975  0.2532  0.6646
  816MOL0     C12527   6.624   0.414   3.931 -0.5121  0.7325 -0.3438
  816MOL0     C12528   6.516   0.323   3.933  0.1284 -0.2264  0.5748
  816MOL0     O12529   6.387   0.352   3.958 -0.3424  0.4902  0.1960
  816MOL0     C12530   6.353   0.478   4.010 -0.2878 -0.4687 -0.2177
  816MOL0     C12531   6.209   0.502   4.011  0.3235 -0.0455 -0.5842
  816MOL0     C12532   6.184   0.596   4.126  0.2857 -0.1615  0.4479
  816MOL0     C12533   6.033   0.623   4.120  0.5646 -0.0657  0.2585
  816MOL0     C12534   6.003   0.709   4.240  0.5848 -0.4010 -0.4032
  816MOL0     C12535   5.978   0.761   4.352 -0.1036 -0.4165  1.0883
  816MOL0     C12536   6.537   0.193   3.905  0.4338 -1.1499  0.7723
  816MOL0     C12537   6.661   0.139   3.880 -0.2194  0.1752  0.2633
  816MOL0     C12538   6.672  -0.017   3.871 -0.4604 -0.7216  0.0226
  816MOL0     H12539   7.216   0.141   3.848 -1.6757 -0.0724 -0.7201
  816MOL0     H12540   7.388   0.024   3.694  0.1535 -3.4786 -0.3524
  816MOL0     H12541   7.467  -0.259   3.465 -1.1448  0.3259  0.5815
  816MOL0     H12542   7.500  -0.140   3.593  2.3993  2.3784 -0.1454
  816MOL0     H12543   7.542  -0.083   3.293  1.9625  2.2472 -0.2657
  816MOL0     H12544   7.603   0.026   3.415  0.2014  0.1307 -1.1422
  816MOL0     H12545   7.719  -0.150   3.532 -1.1060 -0.8827  0.5312
  816MOL0     H12546   7.690  -0.275   3.410  1.9023 -1.2150  3.8528
  816MOL0     H12547   7.893  -0.207   3.333 -1.7809 -1.6520 -2.5478
  816MOL0     H12548   7.781  -0.116   3.235 -1.1584 -1.5227  0.2199
  816MOL0     H12549   7.836   0.079   3.420  2.5827  1.6072  1.8474
  816MOL0     H12550   7.973   0.043   3.321 -0.5692  1.2882  0.6325
  816MOL0     H12551   7.908  -0.048   3.600 -0.6836  2.1031 -0.9842
  816MOL0     H12552   8.011  -0.151   3.514 -0.9922 -0.4537 -1.7858
  816MOL0     H12553   8.125   0.022   3.654 -0.8205 -2.6636 -0.5519
  816MOL0     H12554   8.056   0.154   3.554 -1.8217 -0.7639  1.6349
  816MOL0     H12555   8.185   0.055   3.360  0.2935 -0.4850  0.0218
  816MOL0     H12556   8.284   0.132   3.467 -3.3627  1.5771 -3.1893
  816MOL0     H12557   8.401  -0.055   3.667 -1.6911  2.4082 -0.9704
  816MOL0     H12558   8.565  -0.323   3.679 -0.8836  2.3376  0.7799
  816MOL0     H12559   8.459  -0.456   3.611 -2.0371  0.5661 -2.2775
  816MOL0     H12560   8.294  -0.357   3.799  0.1306 -0.3550 -2.2535
  816MOL0     H12561   8.388  -0.498   3.828  2.4412 -0.0218  0.4998
  816MOL0     H12562   8.442  -0.374   4.012  1.2798 -3.4882 -0.6658
  816MOL0     H12563   8.583  -0.365   3.928 -0.5650  0.6676  0.4001
  816MOL0     H12564   8.407  -0.119   3.898  1.5923  0.6709 -0.0935
  816MOL0     H12565   8.483  -0.145   4.055 -0.3608  0.7773  0.5016
  816MOL0     H12566   8.675  -0.261   4.129  0.2323  0.1074  0.3921
  816MOL0     H12567   8.849  -0.416   4.202 -0.6896 -0.3490  0.1989
  816MOL0     H12568   8.844  -0.310   4.329 -0.0503 -3.4787  0.9170
  816MOL0     H12569   9.005  -0.344   4.251 -0.3654 -1.1875  0.9177
  816MOL0     H12570   9.443  -0.170   4.047 -1.3794  1.9924 -1.6896
  816MOL0     H12571   9.673  -0.107   4.151 -1.7786 -1.2700 -2.8539
  816MOL0     H12572   9.704   0.305   4.353 -1.3843 -0.8536 -2.3106
  816MOL0     H12573   9.625   0.185   4.458 -1.1903 -1.2958 -1.6447
  816MOL0     H12574   9.853   0.092   4.514 -1.3074 -0.9831 -1.7478
  816MOL0     H12575   9.921   0.221   4.401  0.0880  4.6961  1.3854
  816MOL0     H12576   9.739   0.308   4.627 -0.4563  0.4831  1.3095
  816MOL0     H12577   9.855   0.405   4.540 -1.8516 -0.1058 -1.1689
  816MOL0     H12578  10.040   0.300   4.641  0.0512 -1.8466 -1.5489
  816MOL0     H12579   9.945   0.179   4.724  0.4601  0.1051 -1.0754
  816MOL0     H12580   9.926   0.482   4.783  0.0593 -0.8824 -0.3553
  816MOL0     H12581   9.828   0.352   4.861  1.8090 -2.3775  0.9313
  816MOL0     H12582  10.099   0.431   4.881 -1.0362  1.4080 -0.0512
  816MOL0     H12583  10.059   0.252   4.921  2.7872  0.7853  1.2387
  816MOL0     H12584   9.952   0.511   5.047  0.4823  0.3278  1.3354
  816MOL0     H12585  10.084   0.437   5.117 -0.8635  4.0363 -0.6537
  816MOL0     H12586   9.792   0.331   5.079 -0.2688 -0.1411  0.5364
  816MOL0     H12587   9.873   0.369   5.230  1.1200 -1.4127  1.1156
  816MOL0     H12588   9.482   0.241   4.321  4.0082  1.2065 -0.3065
  816MOL0     H12589   9.265   0.138   4.283  1.3690  2.1672 -0.2861
  816MOL0     H12590   9.041   0.038   3.963  0.0369 -0.2252  0.9811
  816MOL0     H12591   8.820   0.048   3.854  1.5365  1.4785  0.1040
  816MOL0     H12592   7.100  -0.164   3.464  0.6308  1.6535 -0.9426
  816MOL0     H12593   6.915  -0.084   3.617 -0.7130  1.9538 -0.3410
  816MOL0     H12594   6.832   0.447   3.898  2.3459 -1.8080 -0.7168
  816MOL0     H12595   6.612   0.519   3.952 -0.5200  0.9409 -1.3371
  816MOL0     H12596   6.382   0.482   4.115 -0.2090  0.7292 -0.2675
  816MOL0     H12597   6.404   0.564   3.966 -3.5076  2.4428  1.2783
  816MOL0     H12598   6.154   0.409   4.030 -1.3424  0.7728 -1.2526
  816MOL0     H12599   6.178   0.537   3.912 -0.9042  2.0965  0.5061
  816MOL0     H12600   6.225   0.552   4.217  1.1143 -0.6627 -0.1442
  816MOL0     H12601   6.219   0.699   4.115 -2.5047  1.1452  2.7504
  816MOL0     H12602   5.979   0.529   4.124 -0.7961  0.7268  3.2417
  816MOL0     H12603   6.001   0.680   4.032  1.1716  3.0501  1.9117
  816MOL0     H12604   5.954   0.818   4.440 -0.0166  1.2751  0.0647
  816MOL0     H12605   6.452   0.127   3.917 -0.4906  0.0375  0.9848
  816MOL0     H12606   6.698  -0.041   3.768 -0.9936  1.0755 -0.5688
  816MOL0     H12607   6.751  -0.054   3.937  3.2576  2.9897 -1.8561
  816MOL0     H12608   6.576  -0.069   3.884  0.3156 -2.1498  0.2053
  817MOL0     O12609   8.771   2.092   2.638  0.0984 -0.0128  0.4737
  817MOL0     C12610   8.711   2.009   2.566  0.0484 -0.5234  0.3311
  817MOL0     O12611   8.771   1.912   2.495 -1.0498  0.3058  0.4477
  817MOL0     C12612   8.902   1.916   2.489 -1.0013  0.7372 -0.0608
  817MOL0     C12613   8.979   1.946   2.379 -0.5450  1.2255 -1.3048
  817MOL0     C12614   9.121   1.929   2.379 -0.9063  0.2180  0.1087
  817MOL0     C12615   9.184   1.889   2.498 -0.4122  0.1989  0.5010
  817MOL0     O12616   9.322   1.877   2.504  0.7838  0.0713  0.2887
  817MOL0     C12617   9.383   1.850   2.632  0.1369 -1.5483 -0.0852
  817MOL0     C12618   9.533   1.851   2.600 -1.0044  0.7201 -0.0794
  817MOL0     C12619   9.612   1.788   2.714 -0.6247  0.4996 -0.4840
  817MOL0     C12620   9.750   1.733   2.668 -0.8241 -0.1919  0.1128
  817MOL0     C12621   9.853   1.842   2.648 -0.2798 -0.5197  0.1840
  817MOL0     C12622   9.986   1.807   2.714 -0.6027 -0.0895 -0.2718
  817MOL0     C12623  10.047   1.671   2.667 -0.3634  0.1116  0.3542
  817MOL0     C12624  10.126   1.678   2.532  0.6901  0.2577 -1.3101
  817MOL0     N12625  10.265   1.733   2.552  0.1792  0.4607 -0.6396
  817MOL0     C12626  10.366   1.642   2.558  0.1206 -0.4439 -0.2992
  817MOL0     C12627  10.468   1.726   2.567 -0.7527 -0.3898 -0.5017
  817MOL0     C12628  10.603   1.673   2.578  0.1710 -0.0853 -0.5377
  817MOL0     C12629  10.677   1.653   2.445  0.0253  0.2836 -0.2835
  817MOL0     C12630  10.671   1.773   2.344 -0.2493  0.1079  0.1287
  817MOL0     C12631  10.767   1.885   2.369 -0.1064 -0.0781 -0.2208
  817MOL0     O12632  10.890   1.817   2.376 -0.1742 -0.5981 -0.2381
  817MOL0     C12633  11.003   1.891   2.399  0.3487  0.3286  0.1733
  817MOL0     C12634  11.007   2.033   2.407 -0.6227  0.3364 -0.8209
  817MOL0     C12635  11.128   2.105   2.410  0.0934  0.1758  0.0288
  817MOL0     C12636  11.119   2.255   2.430 -0.0918  0.0871 -0.0578
  817MOL0     C12637  11.249   2.035   2.421  0.2003 -0.2941  1.0370
  817MOL0     C12638  11.384   2.101   2.418  0.4298  0.5493 -0.9863
  817MOL0     O12639  11.405   2.234   2.442  0.6405  0.9498  0.0294
  817MOL0     C12640  11.538   2.273   2.459 -0.2156 -0.6284  0.1175
  817MOL0     C12641  11.559   2.353   2.578  0.0318  0.0777  0.0799
  817MOL0     C12642  11.679   2.395   2.601 -0.3542 -0.8071 -0.3658
  817MOL0     C12643  11.789   2.374   2.517 -0.2944  0.5529  0.1274
  817MOL0     O12644  11.918   2.423   2.531  0.4119  0.1209 -0.5392
  817MOL0     C12645  11.979   2.444   2.660 -0.2507 -0.2222 -0.3885
  817MOL0     C12646  11.982   2.308   2.734 -0.3179 -0.7135 -0.1528
  817MOL0     C12647  12.032   2.187   2.656 -0.5895  0.1611 -0.2512
  817MOL0     C12648  12.171   2.205   2.618  0.3225  0.4300  0.3938
  817MOL0     C12649  12.231   2.086   2.545  0.3951 -0.3472 -0.0143
  817MOL0     C12650  12.393   2.074   2.551  0.3428 -0.1470 -0.8884
  817MOL0     C12651  12.458   2.185   2.477  0.8553 -0.0117 -0.4713
  817MOL0     C12652  12.578   2.238   2.554 -0.7511 -0.1408 -1.4882
  817MOL0    Cl12653  12.699   2.105   2.573 -0.2885  0.1335 -0.6555
  817MOL0     C12654  11.767   2.299   2.402  0.3374 -0.0080 -0.6121
  817MOL0     C12655  11.645   2.246   2.374 -0.5477 -0.0223 -0.6771
  817MOL0     O12656  11.461   2.040   2.345  0.0458  0.1235 -0.0950
  817MOL0     C12657  11.244   1.893   2.419 -0.8834  0.2965  0.0413
  817MOL0     C12658  11.127   1.821   2.403 -0.4518 -0.5562 -0.2993
  817MOL0     N12659  10.432   1.858   2.554  0.1657  0.3953 -0.7153
  817MOL0     N12660  10.306   1.867   2.543  0.1908  0.9530 -0.0602
  817MOL0     C12661   9.107   1.870   2.609 -0.2640  0.3432  0.1288
  817MOL0     C12662   8.969   1.865   2.598  0.1727  0.0036 -0.0027
  817MOL0     C12663   8.562   2.003   2.567 -0.5776 -0.2316  0.3195
  817MOL0     C12664   8.497   1.874   2.547  0.1459  0.0529 -2.1451
  817MOL0     C12665   8.360   1.852   2.572 -0.2851  0.4945 -1.0553
  817MOL0     C12666   8.282   1.972   2.595  0.1967  0.2257 -0.6548
  817MOL0     O12667   8.147   1.975   2.618 -0.1566  0.2952 -0.1280
  817MOL0     C12668   8.065   1.893   2.537  0.8752  0.9497  0.7862
  817MOL0     C12669   7.943   1.843   2.613  0.2424 -0.0218 -1.1406
  817MOL0     C12670   7.847   1.966   2.656 -0.2439 -0.1269 -0.3387
  817MOL0     C12671   7.721   1.908   2.703  0.8312  0.4996  0.4713
  817MOL0     C12672   7.731   1.883   2.843 -0.2993  0.2283  0.0092
  817MOL0     C12673   7.745   1.864   2.956 -0.0401 -0.1103  0.1568
  817MOL0     C12674   8.337   2.099   2.604 -0.5761  0.3590 -0.8518
  817MOL0     C12675   8.476   2.117   2.580 -0.0845 -0.4828  0.5743
  817MOL0     C12676   8.519   2.262   2.584 -0.2647 -0.3784  0.4097
  817MOL0     H12677   8.915   1.968   2.294 -0.6253 -0.5862 -1.7495
  817MOL0     H12678   9.175   1.940   2.285 -1.7980 -1.5798 -0.6715
  817MOL0     H12679   9.347   1.752   2.667  1.0472 -0.6942  3.6684
  817MOL0     H12680   9.361   1.924   2.709  0.4241 -1.1407 -0.3922
  817MOL0     H12681   9.540   1.785   2.514 -0.5165  0.0473  0.4669
  817MOL0     H12682   9.578   1.949   2.582  5.1822 -1.3797  1.6266
  817MOL0     H12683   9.632   1.871   2.783 -0.1510  1.7817 -2.0911
  817MOL0     H12684   9.558   1.700   2.748 -0.0775  1.0033  1.8803
  817MOL0     H12685   9.782   1.680   2.758  0.9731  4.6616  2.7183
  817MOL0     H12686   9.746   1.673   2.576  1.4598 -1.1412  0.5718
  817MOL0     H12687   9.823   1.934   2.699  2.4638  0.2688  0.5264
  817MOL0     H12688   9.860   1.861   2.540 -1.6165 -2.1728 -0.2516
  817MOL0     H12689  10.062   1.885   2.702 -2.0777  1.2791 -1.0353
  817MOL0     H12690   9.974   1.800   2.822  0.3172 -1.7722 -0.2327
  817MOL0     H12691   9.968   1.595   2.669 -0.6235  0.3804  2.2005
  817MOL0     H12692  10.117   1.638   2.744 -0.3623  0.5726  0.5536
  817MOL0     H12693  10.141   1.576   2.497 -1.8591 -0.7325  0.2036
  817MOL0     H12694  10.054   1.742   2.480 -0.1514  0.6397  0.2753
  817MOL0     H12695  10.367   1.533   2.565 -1.8151 -0.4248  1.1518
  817MOL0     H12696  10.601   1.573   2.622 -0.8259 -0.2055 -0.8181
  817MOL0     H12697  10.680   1.725   2.634  0.7446 -0.8014 -0.6430
  817MOL0     H12698  10.784   1.636   2.461  0.8247  2.5536 -2.5047
  817MOL0     H12699  10.655   1.564   2.385  0.0815  0.4990 -0.6250
  817MOL0     H12700  10.690   1.727   2.247  0.6642  1.6263 -0.4407
  817MOL0     H12701  10.574   1.823   2.339 -0.9207 -1.2658 -1.4950
  817MOL0     H12702  10.758   1.953   2.284  1.2889  2.8272  1.7596
  817MOL0     H12703  10.740   1.943   2.458  4.1681  3.3705 -0.8033
  817MOL0     H12704  10.917   2.093   2.401 -0.9654  0.1970  1.7748
  817MOL0     H12705  11.191   2.286   2.506 -1.8872 -0.8296  2.1347
  817MOL0     H12706  11.022   2.286   2.470 -0.6756 -1.4870 -0.1823
  817MOL0     H12707  11.120   2.306   2.334 -3.6479  1.8296  0.6582
  817MOL0     H12708  11.480   2.376   2.648 -1.4027 -4.4046  0.2428
  817MOL0     H12709  11.701   2.456   2.688 -1.6759 -0.3187 -0.3430
  817MOL0     H12710  12.082   2.479   2.648 -0.6931  1.5225  0.5262
  817MOL0     H12711  11.930   2.518   2.724  0.9049 -0.0853  0.3621
  817MOL0     H12712  12.047   2.315   2.822  0.2138 -0.9346 -0.5265
  817MOL0     H12713  11.878   2.292   2.767 -0.9104  1.9499 -0.4874
  817MOL0     H12714  11.987   2.173   2.557 -1.4963 -0.7807  0.2773
  817MOL0     H12715  12.014   2.094   2.712  0.8688 -1.5317 -2.3989
  817MOL0     H12716  12.230   2.234   2.706  0.4285 -1.2635  0.9201
  817MOL0     H12717  12.181   2.280   2.538  0.1689 -0.7183 -0.7403
  817MOL0     H12718  12.187   1.990   2.575  3.3279 -1.3818  1.4194
  817MOL0     H12719  12.206   2.088   2.439 -3.8002 -1.5164  0.7706
  817MOL0     H12720  12.422   1.974   2.517  0.9461  0.3824 -1.9853
  817MOL0     H12721  12.419   2.075   2.657  0.3629  1.3487 -0.8946
  817MOL0     H12722  12.380   2.261   2.465 -0.4669 -1.2692 -0.0611
  817MOL0     H12723  12.491   2.161   2.375  1.2308  3.3170 -1.2574
  817MOL0     H12724  12.541   2.262   2.655 -0.0131  0.9752 -1.4574
  817MOL0     H12725  12.628   2.326   2.512 -1.4283  0.0704 -1.8629
  817MOL0     H12726  11.847   2.265   2.336 -0.7168 -0.3868 -1.7241
  817MOL0     H12727  11.643   2.184   2.284 -0.1027 -0.4124 -0.4267
  817MOL0     H12728  11.341   1.845   2.409 -0.2074  1.5048  0.6032
  817MOL0     H12729  11.123   1.713   2.393 -3.0487 -0.7020  1.2871
  817MOL0     H12730   9.149   1.862   2.709  0.1838  3.4460  0.2733
  817MOL0     H12731   8.912   1.834   2.685  0.1984 -0.5970 -0.1888
  817MOL0     H12732   8.553   1.784   2.526 -2.4399 -2.0458 -0.7267
  817MOL0     H12733   8.317   1.753   2.575  1.6511 -0.3769 -0.8025
  817MOL0     H12734   8.036   1.954   2.451  1.3297 -1.5349 -1.2651
  817MOL0     H12735   8.120   1.805   2.501 -0.0160  0.0079  1.6413
  817MOL0     H12736   7.967   1.770   2.692  0.4541 -2.1434 -3.0718
  817MOL0     H12737   7.900   1.772   2.542  1.5363 -1.3235 -0.6694
  817MOL0     H12738   7.901   2.021   2.734  0.0142 -2.9617  1.6538
  817MOL0     H12739   7.819   2.020   2.565  0.0806  0.3705 -0.1489
  817MOL0     H12740   7.692   1.829   2.634 -0.2640  0.6940  0.6934
  817MOL0     H12741   7.654   1.992   2.683  0.8058  0.2405 -0.6062
  817MOL0     H12742   7.758   1.855   3.063 -0.5474 -1.9466  0.1080
  817MOL0     H12743   8.279   2.182   2.642  2.1147  1.1124  2.0349
  817MOL0     H12744   8.595   2.275   2.506 -2.3955  3.1999 -1.3626
  817MOL0     H12745   8.436   2.330   2.564  1.2856  1.3471 -0.5515
  817MOL0     H12746   8.560   2.294   2.680  1.0124  0.8973 -0.5125
  818MOL0     O12747   2.812   5.114   8.583 -0.2863 -0.6573  0.7337
  818MOL0     C12748   2.793   5.013   8.637 -0.5833 -0.6071  0.4504
  818MOL0     O12749   2.893   4.926   8.679  1.0728 -0.1849 -0.1268
  818MOL0     C12750   3.025   4.964   8.650 -0.9685 -0.0437 -0.0787
  818MOL0     C12751   3.113   4.862   8.672 -0.1054  0.2722  0.3278
  818MOL0     C12752   3.253   4.872   8.661  0.4945  0.2247 -0.0115
  818MOL0     C12753   3.310   4.995   8.622  0.3111  0.3226 -0.2694
  818MOL0     O12754   3.443   5.019   8.611 -0.0696 -0.0286 -0.5283
  818MOL0     C12755   3.550   4.945   8.682  0.1562  0.7893  0.1710
  818MOL0     C12756   3.685   4.975   8.630  0.3210  0.4176  0.8218
  818MOL0     C12757   3.707   5.132   8.614  0.5328  0.3361  0.6849
  818MOL0     C12758   3.836   5.150   8.539 -0.5957  0.1388  0.4250
  818MOL0     C12759   3.844   5.292   8.491 -0.0989  0.5094  0.5266
  818MOL0     C12760   3.881   5.400   8.593  0.6345  0.4578  0.4984
  818MOL0     C12761   3.944   5.524   8.527  1.0690 -0.4503  0.1001
  818MOL0     C12762   3.934   5.642   8.634 -0.6374  0.3649  0.1833
  818MOL0     N12763   3.985   5.769   8.591 -0.1362 -0.0536 -0.4356
  818MOL0     C12764   3.934   5.844   8.489  0.3910  0.0026 -0.2968
  818MOL0     C12765   4.016   5.953   8.484 -0.1450  0.1866 -0.1954
  818MOL0     C12766   4.005   6.074   8.387 -0.3122  0.7597  0.2272
  818MOL0     C12767   4.137   6.140   8.350  0.0791 -0.1979  0.8662
  818MOL0     C12768   4.183   6.226   8.465 -0.2705 -0.7930  0.7181
  818MOL0     C12769   4.333   6.245   8.473  0.2692 -0.3156 -1.1385
  818MOL0     O12770   4.362   6.361   8.400  0.5451  0.7689  0.1741
  818MOL0     C12771   4.491   6.409   8.387 -0.2617 -0.1172  0.4106
  818MOL0     C12772   4.491   6.533   8.322 -0.6158  0.1465  0.0299
  818MOL0     C12773   4.617   6.604   8.321  0.7281  0.6192  0.0467
  818MOL0     C12774   4.607   6.748   8.280 -0.1080  0.1313 -0.3381
  818MOL0     C12775   4.734   6.543   8.366  2.2723  0.4990  0.4552
  818MOL0     C12776   4.863   6.616   8.356  0.4663 -0.0343  0.9545
  818MOL0     O12777   4.967   6.532   8.329  0.1530  0.5278 -0.4250
  818MOL0     C12778   5.095   6.569   8.345  0.3183 -0.5313  0.3161
  818MOL0     C12779   5.143   6.677   8.416  0.2159  0.0468 -0.7874
  818MOL0     C12780   5.285   6.690   8.434 -0.1027  0.4041 -0.9169
  818MOL0     C12781   5.379   6.598   8.385  0.2969  0.8834 -0.3437
  818MOL0     O12782   5.517   6.603   8.407 -0.2172  0.7798 -0.1375
  818MOL0     C12783   5.581   6.734   8.392  0.2675  0.3463 -0.2028
  818MOL0     C12784   5.731   6.732   8.418 -0.4944  0.0502  0.2354
  818MOL0     C12785   5.777   6.882   8.400 -0.3800  0.0226 -0.3832
  818MOL0     C12786   5.751   6.966   8.526  0.1044 -0.1177 -0.3290
  818MOL0     C12787   5.841   7.088   8.539 -0.6469  0.1474 -0.2891
  818MOL0     C12788   5.962   7.060   8.640  0.2190 -0.1709  0.0325
  818MOL0     C12789   6.015   7.197   8.703  0.0412  0.3369 -0.2761
  818MOL0     C12790   6.125   7.265   8.630  0.7069 -1.2001  0.1097
  818MOL0    Cl12791   6.152   7.441   8.673 -0.2949  0.0531  0.2390
  818MOL0     C12792   5.330   6.483   8.319 -0.5247 -0.0692 -0.6828
  818MOL0     C12793   5.193   6.475   8.297  0.0959  0.2049  0.3155
  818MOL0     O12794   4.864   6.736   8.386 -0.6300 -0.1472 -0.3529
  818MOL0     C12795   4.740   6.412   8.416  0.5961  0.0517 -1.0230
  818MOL0     C12796   4.616   6.350   8.429 -0.0008 -0.1007 -0.2784
  818MOL0     N12797   4.125   5.927   8.568  0.2701 -0.7492 -0.3136
  818MOL0     N12798   4.108   5.817   8.632 -0.7663 -0.7010 -0.2411
  818MOL0     C12799   3.223   5.103   8.599  0.4078 -0.6959  0.2245
  818MOL0     C12800   3.088   5.084   8.613  0.3125 -0.4363 -0.5125
  818MOL0     C12801   2.654   4.970   8.657 -0.1609  0.0991  0.2816
  818MOL0     C12802   2.624   4.837   8.661  1.0545  0.2781  0.0567
  818MOL0     C12803   2.498   4.774   8.672  0.0589  0.0945 -0.0221
  818MOL0     C12804   2.392   4.865   8.682  0.2408 -0.2134  0.3346
  818MOL0     O12805   2.262   4.824   8.712 -0.4891 -0.2512  0.1133
  818MOL0     C12806   2.238   4.680   8.729 -0.5245  0.4875  0.0459
  818MOL0     C12807   2.083   4.673   8.729  0.3581 -0.9503 -0.1054
  818MOL0     C12808   2.020   4.724   8.857  0.1315 -1.3345 -0.3269
  818MOL0     C12809   1.870   4.689   8.855 -0.4365  0.0182  0.5158
  818MOL0     C12810   1.850   4.548   8.865  0.1723  0.7574  0.3114
  818MOL0     C12811   1.845   4.432   8.864 -0.3472 -0.2287  0.1589
  818MOL0     C12812   2.412   4.997   8.682 -0.5265  0.5816 -0.9585
  818MOL0     C12813   2.540   5.054   8.655  0.7834  0.3483 -0.0132
  818MOL0     C12814   2.544   5.202   8.656  0.5114 -0.0409  0.0184
  818MOL0     H12815   3.070   4.767   8.703 -0.1814  0.3984  0.6143
  818MOL0     H12816   3.312   4.782   8.675  1.7710  1.1033  0.4978
  818MOL0     H12817   3.528   4.838   8.674  2.0825  0.2770  0.9534
  818MOL0     H12818   3.566   4.972   8.787  1.9721  3.5913 -0.7012
  818MOL0     H12819   3.761   4.935   8.697  0.0052  0.4015  1.1758
  818MOL0     H12820   3.689   4.927   8.532  1.5746 -0.9298  1.5021
  818MOL0     H12821   3.617   5.175   8.569 -2.0924 -3.0375  2.2141
  818MOL0     H12822   3.706   5.175   8.715 -0.0896  0.2862  0.7035
  818MOL0     H12823   3.925   5.138   8.601  0.5571  2.0425 -0.7641
  818MOL0     H12824   3.830   5.080   8.455  0.4454  0.4938  0.0333
  818MOL0     H12825   3.754   5.308   8.432 -0.5043  1.6646  1.4216
  818MOL0     H12826   3.930   5.290   8.423  1.7212 -1.4200  2.7251
  818MOL0     H12827   3.781   5.427   8.628 -0.3823 -0.7333 -1.2832
  818MOL0     H12828   3.942   5.371   8.679 -1.7706 -2.6996  1.3666
  818MOL0     H12829   3.895   5.544   8.432  1.5285  1.6512  0.2696
  818MOL0     H12830   4.049   5.508   8.504  1.5956 -0.4877  2.3091
  818MOL0     H12831   3.831   5.666   8.662 -1.5904 -2.6321 -0.3657
  818MOL0     H12832   3.984   5.607   8.726 -0.9568  1.4161  0.7679
  818MOL0     H12833   3.838   5.835   8.440  0.9680  1.8375 -1.8475
  818MOL0     H12834   3.937   6.146   8.433 -1.4125  0.5712 -1.0484
  818MOL0     H12835   3.971   6.032   8.292  0.4588  0.5499  0.0354
  818MOL0     H12836   4.208   6.067   8.309 -2.9701 -2.6037 -0.5788
  818MOL0     H12837   4.111   6.209   8.270 -0.7525 -1.4712 -0.0099
  818MOL0     H12838   4.139   6.325   8.445 -0.4702 -1.3158 -1.7420
  818MOL0     H12839   4.145   6.189   8.561 -0.7633 -0.7702  0.5334
  818MOL0     H12840   4.352   6.268   8.579 -3.9976  1.2755 -0.5457
  818MOL0     H12841   4.390   6.159   8.437  1.5839  0.1554 -0.2852
  818MOL0     H12842   4.400   6.577   8.283  0.7325  2.5307 -0.6372
  818MOL0     H12843   4.685   6.747   8.203  1.0507  0.9560  0.7813
  818MOL0     H12844   4.637   6.820   8.356 -0.0406 -0.2919  0.0445
  818MOL0     H12845   4.514   6.784   8.236  0.4017  0.5887 -1.0724
  818MOL0     H12846   5.095   6.767   8.452  1.2554 -0.5786  2.4802
  818MOL0     H12847   5.327   6.772   8.492  0.0552  0.2084 -0.7577
  818MOL0     H12848   5.560   6.782   8.296 -2.7181 -1.6828 -0.7076
  818MOL0     H12849   5.551   6.797   8.476  4.7545 -0.7229  2.5712
  818MOL0     H12850   5.743   6.694   8.519  1.2068  1.4693  0.6168
  818MOL0     H12851   5.766   6.665   8.339 -1.8991 -1.5618  0.9129
  818MOL0     H12852   5.727   6.936   8.319  0.9724 -0.6349 -1.7091
  818MOL0     H12853   5.886   6.877   8.390  0.0261  1.3260  2.4095
  818MOL0     H12854   5.762   6.900   8.612 -2.3051  1.8404  1.6346
  818MOL0     H12855   5.647   6.999   8.518 -0.4312 -1.5547  0.4086
  818MOL0     H12856   5.882   7.102   8.439  1.5366  2.7574  0.8268
  818MOL0     H12857   5.775   7.162   8.585 -0.6688 -2.2441  4.1799
  818MOL0     H12858   6.040   7.003   8.589 -0.4969  0.9668 -2.4779
  818MOL0     H12859   5.920   7.010   8.728 -0.6200  1.5605  0.6783
  818MOL0     H12860   6.051   7.177   8.804 -0.4603 -1.1241 -0.3623
  818MOL0     H12861   5.932   7.269   8.700 -1.5428 -1.4111  0.2216
  818MOL0     H12862   6.111   7.248   8.523 -0.7110  0.5724 -0.0215
  818MOL0     H12863   6.211   7.205   8.664 -0.2709 -1.2347  2.7772
  818MOL0     H12864   5.388   6.401   8.278 -0.5612  0.0563 -0.9916
  818MOL0     H12865   5.148   6.390   8.247  0.8026 -3.2591  4.8835
  818MOL0     H12866   4.833   6.360   8.435  0.2336 -0.1606  0.2296
  818MOL0     H12867   4.623   6.247   8.462 -0.8171 -0.2567 -0.5652
  818MOL0     H12868   3.263   5.199   8.568 -2.4535 -0.0236 -1.8123
  818MOL0     H12869   3.029   5.172   8.588  1.0809  0.6772  1.3968
  818MOL0     H12870   2.710   4.773   8.644  2.3354  2.2501 -1.1945
  818MOL0     H12871   2.489   4.666   8.679 -0.2760  0.2336  3.4758
  818MOL0     H12872   2.287   4.623   8.649 -2.2626  1.2912 -1.6940
  818MOL0     H12873   2.274   4.633   8.821 -1.0121  0.4249  0.2091
  818MOL0     H12874   2.050   4.570   8.711 -0.1681 -0.9123  0.6149
  818MOL0     H12875   2.043   4.736   8.649 -1.4092  1.0541  2.1905
  818MOL0     H12876   2.065   4.684   8.949  1.4998  1.8109  0.5220
  818MOL0     H12877   2.033   4.832   8.869 -1.0672 -1.4339  3.1990
  818MOL0     H12878   1.827   4.729   8.762  0.5118  1.1999  0.5706
  818MOL0     H12879   1.816   4.728   8.941 -0.2118  0.8534  0.2876
  818MOL0     H12880   1.835   4.326   8.854  0.2541 -0.3055  0.3485
  818MOL0     H12881   2.327   5.063   8.677 -1.1577 -0.2474 -1.3038
  818MOL0     H12882   2.585   5.240   8.750  0.6364  0.8759 -0.3859
  818MOL0     H12883   2.616   5.235   8.579  0.5800 -2.1915 -0.8947
  818MOL0     H12884   2.444   5.243   8.641  1.3740  1.3642 -2.7156
  819MOL0     O12885   7.275   4.694  11.399  0.2845 -0.5245 -0.7954
  819MOL0     C12886   7.225   4.785  11.468 -0.5705 -0.4407  0.3436
  819MOL0     O12887   7.219   4.800  11.611  0.7861  0.0346  0.2428
  819MOL0     C12888   7.290   4.700  11.681 -0.2845  0.5528  0.5589
  819MOL0     C12889   7.414   4.717  11.726 -1.2568 -0.2272  0.2262
  819MOL0     C12890   7.488   4.626  11.798  0.6081  0.1253 -0.5970
  819MOL0     C12891   7.425   4.500  11.835 -0.5846  0.1587 -0.1173
  819MOL0     O12892   7.504   4.413  11.903 -0.3326 -0.7466  0.9460
  819MOL0     C12893   7.498   4.282  11.852  0.1756  0.1956 -1.2165
  819MOL0     C12894   7.574   4.177  11.929 -0.1406 -0.1474 -0.2247
  819MOL0     C12895   7.727   4.194  11.936 -0.1114 -0.5735 -0.1508
  819MOL0     C12896   7.802   4.134  11.822  0.0677 -0.5673  0.0298
  819MOL0     C12897   7.951   4.191  11.810  0.4884 -0.4377 -0.3278
  819MOL0     C12898   8.032   4.113  11.709  0.0404  0.2404  0.9243
  819MOL0     C12899   8.165   4.193  11.701 -0.5380 -1.5405 -0.3831
  819MOL0     C12900   8.268   4.119  11.620  0.3511 -0.1237  0.6696
  819MOL0     N12901   8.237   4.130  11.476  0.0491  0.9808  0.6089
  819MOL0     C12902   8.173   4.035  11.395  0.2793  0.2358 -0.1419
  819MOL0     C12903   8.182   4.083  11.267  0.1721 -1.0206  1.0649
  819MOL0     C12904   8.124   4.034  11.136 -0.7994 -0.1472 -0.6229
  819MOL0     C12905   8.242   4.000  11.048  0.0926 -0.5887  0.2837
  819MOL0     C12906   8.297   4.114  10.954  0.0414 -0.0014 -0.4939
  819MOL0     C12907   8.420   4.073  10.873 -1.0097  0.0093  0.0752
  819MOL0     O12908   8.383   3.972  10.779 -0.0786 -0.3003 -0.4175
  819MOL0     C12909   8.471   3.931  10.679  0.1628 -0.3075 -1.0271
  819MOL0     C12910   8.608   3.931  10.703 -1.0070 -0.1564 -0.0737
  819MOL0     C12911   8.695   3.869  10.614 -1.3424  0.5699 -0.3168
  819MOL0     C12912   8.837   3.841  10.674 -0.5710 -0.6782  0.6870
  819MOL0     C12913   8.651   3.809  10.491 -0.5851 -0.5333  0.6998
  819MOL0     C12914   8.756   3.757  10.395 -0.2963 -0.0519  0.0968
  819MOL0     O12915   8.868   3.822  10.373 -0.3359  0.4771  0.6814
  819MOL0     C12916   8.965   3.764  10.291  0.0431 -0.1104 -0.5112
  819MOL0     C12917   8.941   3.742  10.156 -0.9211 -0.2871 -0.5222
  819MOL0     C12918   9.043   3.693  10.071 -0.3109  0.3983  0.8955
  819MOL0     C12919   9.175   3.680  10.122 -0.3503 -0.3232  0.0258
  819MOL0     O12920   9.267   3.627  10.043 -0.3497 -0.4533 -0.2300
  819MOL0     C12921   9.247   3.486  10.011  0.0302  0.2529  0.3065
  819MOL0     C12922   9.274   3.388  10.129  0.8530  0.8992  0.3535
  819MOL0     C12923   9.278   3.240  10.099 -0.0896 -0.5808 -0.3951
  819MOL0     C12924   9.423   3.211  10.049  0.3033 -0.1687  0.8711
  819MOL0     C12925   9.437   3.061  10.029  0.2302  0.2602 -0.0318
  819MOL0     C12926   9.581   3.017   9.980 -1.4252  0.0706  0.1152
  819MOL0     C12927   9.586   2.874   9.943  0.1468 -0.1246  0.5332
  819MOL0     C12928   9.733   2.837   9.912 -0.3636 -1.1385 -0.8242
  819MOL0    Cl12929   9.736   2.675   9.824 -0.1732 -0.2513  0.6190
  819MOL0     C12930   9.205   3.719  10.255 -0.0640 -0.1388  0.2527
  819MOL0     C12931   9.101   3.759  10.339 -0.4029  0.4756  0.1851
  819MOL0     O12932   8.728   3.643  10.355  0.8017 -0.4773 -0.4954
  819MOL0     C12933   8.513   3.802  10.480  0.6216  0.0768  0.6287
  819MOL0     C12934   8.429   3.855  10.580  0.4705 -0.3492 -0.5027
  819MOL0     N12935   8.248   4.205  11.266  0.5178 -0.1978 -0.5092
  819MOL0     N12936   8.285   4.226  11.385 -0.2978 -0.3113 -0.3322
  819MOL0     C12937   7.290   4.486  11.792 -0.5358  0.4880  0.7157
  819MOL0     C12938   7.228   4.583  11.711  0.3423 -0.0786  0.5997
  819MOL0     C12939   7.170   4.909  11.382  0.6863 -0.5248  0.0499
  819MOL0     C12940   7.151   5.023  11.454  0.4913 -1.3054 -0.3765
  819MOL0     C12941   7.108   5.140  11.391  0.6428 -0.1727 -0.3955
  819MOL0     C12942   7.095   5.151  11.251 -0.1727  0.3337 -0.5022
  819MOL0     O12943   7.052   5.268  11.190 -1.0632  0.5296  1.0060
  819MOL0     C12944   7.089   5.395  11.252  0.7914 -0.4089  0.3542
  819MOL0     C12945   7.241   5.419  11.225 -0.2700 -0.3462  0.6891
  819MOL0     C12946   7.281   5.560  11.279  0.7373  0.1063 -0.3060
  819MOL0     C12947   7.421   5.609  11.239 -0.5331 -0.2223 -0.3018
  819MOL0     C12948   7.415   5.684  11.120  0.3157 -0.3373  0.3021
  819MOL0     C12949   7.413   5.759  11.022  0.0845  0.6416 -0.2600
  819MOL0     C12950   7.115   5.032  11.178 -0.3896  0.2001  0.0300
  819MOL0     C12951   7.137   4.908  11.247  0.2012 -0.7499 -0.4229
  819MOL0     C12952   7.130   4.775  11.163  1.0331 -0.6860  0.9750
  819MOL0     H12953   7.449   4.820  11.721 -0.0612 -0.4511  2.4211
  819MOL0     H12954   7.576   4.663  11.849  0.7481 -0.4231 -0.4361
  819MOL0     H12955   7.531   4.283  11.748  4.1522  1.8166 -0.1180
  819MOL0     H12956   7.394   4.253  11.870  0.9089 -1.6510  0.4977
  819MOL0     H12957   7.538   4.184  12.032 -1.2056  3.4660 -0.7226
  819MOL0     H12958   7.551   4.074  11.899 -0.5574 -0.5134  1.2461
  819MOL0     H12959   7.758   4.297  11.957 -1.5494  0.1999 -1.5668
  819MOL0     H12960   7.763   4.136  12.021 -2.8383 -1.5467  0.4417
  819MOL0     H12961   7.806   4.028  11.849 -1.1720  0.1711  3.7066
  819MOL0     H12962   7.753   4.145  11.725 -0.5717  1.5102  0.5352
  819MOL0     H12963   7.987   4.183  11.913 -2.9064 -2.3621  0.8994
  819MOL0     H12964   7.952   4.297  11.785  2.2445  0.2083  2.1373
  819MOL0     H12965   8.046   4.012  11.749  4.4400 -0.6300 -2.1499
  819MOL0     H12966   7.986   4.104  11.610  3.7483 -1.7898 -0.8228
  819MOL0     H12967   8.209   4.201  11.800 -0.2249  1.7472 -0.6864
  819MOL0     H12968   8.148   4.297  11.671 -0.2909 -1.5185 -0.4503
  819MOL0     H12969   8.366   4.165  11.634  0.7970 -0.7942 -0.1930
  819MOL0     H12970   8.280   4.014  11.650  2.4336 -0.3068 -0.6148
  819MOL0     H12971   8.125   3.944  11.430  0.3939  1.0708  2.3134
  819MOL0     H12972   8.062   4.112  11.090 -0.9112  0.4866  0.5832
  819MOL0     H12973   8.074   3.938  11.150 -0.7304 -0.0334  0.4247
  819MOL0     H12974   8.326   3.958  11.105  1.3178  0.9943 -0.2913
  819MOL0     H12975   8.223   3.920  10.975 -0.8383  0.7375 -1.0003
  819MOL0     H12976   8.218   4.137  10.883  0.5005 -1.7667 -1.6359
  819MOL0     H12977   8.324   4.198  11.019  1.4219  0.3583 -1.4840
  819MOL0     H12978   8.474   4.149  10.816  0.0158 -1.7244 -1.3568
  819MOL0     H12979   8.494   4.034  10.944 -0.0327  1.5783 -0.0219
  819MOL0     H12980   8.646   3.981  10.792  0.5338 -0.6103 -0.4471
  819MOL0     H12981   8.830   3.838  10.783 -0.6157 -2.1936  0.6525
  819MOL0     H12982   8.896   3.924  10.635 -0.0986 -2.1443 -1.9519
  819MOL0     H12983   8.896   3.753  10.649  4.3718  2.5672 -0.3423
  819MOL0     H12984   8.840   3.758  10.119 -0.5416 -0.5374 -1.7178
  819MOL0     H12985   9.012   3.679   9.968  1.6233  2.4792 -0.0425
  819MOL0     H12986   9.149   3.465   9.968  0.4007 -2.5332  0.6486
  819MOL0     H12987   9.323   3.464   9.935  2.2454  1.3664  2.0749
  819MOL0     H12988   9.370   3.418  10.172  0.0411  0.8697  2.3193
  819MOL0     H12989   9.204   3.417  10.208  1.4627 -0.0388  1.2693
  819MOL0     H12990   9.198   3.199  10.036  2.4405 -3.5270 -1.9846
  819MOL0     H12991   9.263   3.189  10.195  3.1126 -1.7185 -0.3835
  819MOL0     H12992   9.498   3.253  10.117  2.1071  2.4192 -2.3967
  819MOL0     H12993   9.445   3.267   9.958  2.7172 -1.4899  0.5785
  819MOL0     H12994   9.402   3.010  10.120  2.0008 -1.6199 -0.3201
  819MOL0     H12995   9.362   3.039   9.953  0.0580  0.3651  0.1073
  819MOL0     H12996   9.659   3.041  10.053 -2.9035 -1.0139  2.1746
  819MOL0     H12997   9.591   3.082   9.892  3.4187 -0.0080  0.3390
  819MOL0     H12998   9.526   2.864   9.852  1.3971  3.9763 -0.9892
  819MOL0     H12999   9.552   2.810  10.025  0.1967  0.7527  1.2625
  819MOL0     H13000   9.795   2.828  10.001 -0.3844 -0.5043 -0.7458
  819MOL0     H13001   9.783   2.913   9.852  0.2106  1.3577  2.5417
  819MOL0     H13002   9.298   3.731  10.309  0.2494  0.2363 -0.3523
  819MOL0     H13003   9.126   3.769  10.445 -4.0075 -0.4713  1.2900
  819MOL0     H13004   8.469   3.738  10.404  1.0617 -0.9399  1.2159
  819MOL0     H13005   8.322   3.834  10.580 -0.0624  1.8290  2.1487
  819MOL0     H13006   7.242   4.392  11.820  1.1612 -0.5904  0.1763
  819MOL0     H13007   7.130   4.569  11.667  0.3964 -2.8665  1.1493
  819MOL0     H13008   7.167   5.033  11.561 -1.0845  0.9399 -0.2751
  819MOL0     H13009   7.077   5.229  11.446 -2.0237 -0.8903 -0.6310
  819MOL0     H13010   7.040   5.475  11.195  2.1051 -2.1616 -3.5605
  819MOL0     H13011   7.075   5.403  11.361  2.0574 -0.1405  0.5053
  819MOL0     H13012   7.255   5.415  11.117 -0.9579 -1.1611  0.6148
  819MOL0     H13013   7.299   5.333  11.261  1.2105  0.2545 -0.2111
  819MOL0     H13014   7.207   5.631  11.240 -1.3722 -0.8698  1.6613
  819MOL0     H13015   7.259   5.543  11.384  3.1307  3.0046  0.8049
  819MOL0     H13016   7.494   5.529  11.226 -1.3497 -1.1628  0.6755
  819MOL0     H13017   7.468   5.676  11.312 -0.6211 -0.1263 -0.3344
  819MOL0     H13018   7.437   5.807  10.930 -0.8676 -1.1583 -1.4993
  819MOL0     H13019   7.112   5.031  11.070 -1.1879  1.3313  0.0263
  819MOL0     H13020   7.077   4.700  11.222  0.5316  0.1290  1.5827
  819MOL0     H13021   7.079   4.798  11.069 -0.8130 -1.3709  1.7571
  819MOL0     H13022   7.227   4.730  11.142  0.2280 -1.2833 -1.9631
  820MOL0     O13023   0.392   0.224   3.852  0.4809  0.0239 -0.3697
  820MOL0     C13024   0.378   0.166   3.954 -0.6033 -0.3528 -0.5248
  820MOL0     O13025   0.393   0.231   4.080 -0.3144  0.3523 -0.2777
  820MOL0     C13026   0.391   0.366   4.109 -0.4654 -0.4315 -0.1106
  820MOL0     C13027   0.471   0.412   4.217 -0.0055 -0.0979 -0.5720
  820MOL0     C13028   0.474   0.543   4.249  0.3306 -0.7867  0.1038
  820MOL0     C13029   0.402   0.645   4.182  0.1347  0.1438  1.1092
  820MOL0     O13030   0.404   0.781   4.203  0.1542  1.0138 -0.1503
  820MOL0     C13031   0.513   0.819   4.285 -0.5165  0.6492  0.1483
  820MOL0     C13032   0.540   0.967   4.280 -0.2389 -0.1426  0.0172
  820MOL0     C13033   0.610   1.016   4.410  0.0769  0.1494  0.2309
  820MOL0     C13034   0.505   1.056   4.514  0.4057  0.5822  0.7933
  820MOL0     C13035   0.557   1.074   4.652  0.4513  0.3780 -0.1998
  820MOL0     C13036   0.445   1.110   4.752 -0.7556  0.1236  0.5872
  820MOL0     C13037   0.508   1.181   4.881  0.5453 -1.1619 -0.3600
  820MOL0     C13038   0.387   1.235   4.953  0.2286 -1.4943  0.5410
  820MOL0     N13039   0.427   1.295   5.088 -0.0192  0.0469 -1.0343
  820MOL0     C13040   0.484   1.416   5.088  0.4737  0.6612 -0.3026
  820MOL0     C13041   0.456   1.455   5.208 -0.2155 -0.8303 -1.0158
  820MOL0     C13042   0.502   1.588   5.270  0.4877 -0.5782 -0.2195
  820MOL0     C13043   0.652   1.592   5.325  0.1254  0.0049 -0.1000
  820MOL0     C13044   0.758   1.610   5.214 -0.2625 -0.0398 -0.1597
  820MOL0     C13045   0.900   1.585   5.264 -0.3906 -0.4681 -0.2977
  820MOL0     O13046   0.928   1.447   5.288 -0.6218  0.4127  0.1624
  820MOL0     C13047   1.054   1.410   5.332  0.1011 -0.5763  0.0377
  820MOL0     C13048   1.136   1.487   5.418 -0.6592  0.0274 -0.1265
  820MOL0     C13049   1.258   1.452   5.466 -1.1179  0.3962 -0.2217
  820MOL0     C13050   1.343   1.557   5.541 -0.2175  0.1637  0.1439
  820MOL0     C13051   1.308   1.318   5.437 -0.6728 -0.7783 -0.6076
  820MOL0     C13052   1.437   1.255   5.492  1.0695 -0.4331 -0.9339
  820MOL0     O13053   1.497   1.150   5.437 -0.4099  0.5600 -0.3340
  820MOL0     C13054   1.613   1.096   5.493 -0.4768 -0.5264  0.1864
  820MOL0     C13055   1.627   1.075   5.631 -0.0524  0.1376  0.6081
  820MOL0     C13056   1.751   1.040   5.680  0.0385  0.7447 -0.2845
  820MOL0     C13057   1.864   1.059   5.602 -1.0196 -0.1171  0.7961
  820MOL0     O13058   1.989   1.045   5.662  0.1343 -0.2331 -1.1032
  820MOL0     C13059   2.085   0.968   5.592 -0.7501 -0.4808 -0.4105
  820MOL0     C13060   2.061   0.829   5.631 -0.8137  0.5534 -0.1305
  820MOL0     C13061   2.193   0.747   5.611  0.0805 -0.3791 -0.3004
  820MOL0     C13062   2.163   0.601   5.621 -0.0584  0.5315  0.4109
  820MOL0     C13063   2.284   0.502   5.636  0.7719  0.5502  0.4452
  820MOL0     C13064   2.378   0.496   5.518 -0.3981 -0.3017 -0.6898
  820MOL0     C13065   2.469   0.374   5.504 -0.1401  0.0714  0.3280
  820MOL0     C13066   2.575   0.382   5.394  0.0892  0.2814  0.2843
  820MOL0    Cl13067   2.684   0.239   5.398  0.3418 -0.2395 -0.2223
  820MOL0     C13068   1.847   1.071   5.465 -0.3614 -0.9172 -0.1894
  820MOL0     C13069   1.725   1.080   5.411 -0.3115  0.0971  0.0777
  820MOL0     O13070   1.477   1.310   5.594 -0.1412 -0.1558  0.4432
  820MOL0     C13071   1.237   1.235   5.350 -1.0686 -0.2208  0.4216
  820MOL0     C13072   1.117   1.286   5.292  0.6880  0.6763 -0.4071
  820MOL0     N13073   0.371   1.372   5.277  0.8291  0.0655  0.3263
  820MOL0     N13074   0.374   1.262   5.212 -0.3967  0.6199 -0.7453
  820MOL0     C13075   0.318   0.597   4.081 -0.8135  0.0875  0.0966
  820MOL0     C13076   0.317   0.461   4.040  1.1750  0.2939 -0.4036
  820MOL0     C13077   0.372   0.010   3.970 -0.1924 -0.2179  0.3324
  820MOL0     C13078   0.389  -0.040   4.107 -0.2506 -0.7731 -1.5361
  820MOL0     C13079   0.393  -0.181   4.123  0.2840 -0.6911 -0.4885
  820MOL0     C13080   0.347  -0.273   4.026  0.2145 -0.2004 -0.2149
  820MOL0     O13081   0.357  -0.405   4.034 -0.2931 -0.0336 -0.3956
  820MOL0     C13082   0.319  -0.461   4.162  0.2181  0.0978  1.0240
  820MOL0     C13083   0.234  -0.588   4.144 -0.1931  0.3018  0.8599
  820MOL0     C13084   0.270  -0.684   4.023 -0.2593 -0.7724 -0.5920
  820MOL0     C13085   0.154  -0.787   4.007  0.5209 -0.2215  0.0314
  820MOL0     C13086   0.147  -0.883   4.123  0.8308 -0.1898  0.5271
  820MOL0     C13087   0.126  -0.968   4.201 -0.8625  0.6793  0.6950
  820MOL0     C13088   0.314  -0.212   3.901 -0.3471  0.6715 -0.1696
  820MOL0     C13089   0.332  -0.077   3.871  0.0666 -0.1322  0.3020
  820MOL0     C13090   0.301  -0.025   3.732 -0.7961 -0.4338  0.0695
  820MOL0     H13091   0.520   0.335   4.276  0.9870 -2.2753 -3.9058
  820MOL0     H13092   0.536   0.576   4.331  0.9594  0.0091 -0.6738
  820MOL0     H13093   0.604   0.768   4.253 -0.1791  1.1521  0.2973
  820MOL0     H13094   0.490   0.792   4.389  1.0342  0.8044  0.5559
  820MOL0     H13095   0.604   0.993   4.195  1.2960 -1.3652  0.7494
  820MOL0     H13096   0.440   1.009   4.262 -0.4061  0.0646  1.3491
  820MOL0     H13097   0.661   0.932   4.457 -0.4855 -0.0171  0.5633
  820MOL0     H13098   0.674   1.102   4.394  3.2900 -1.9306  1.0783
  820MOL0     H13099   0.452   1.142   4.472 -0.3018 -2.4946 -5.8654
  820MOL0     H13100   0.420   0.987   4.520 -0.1493  1.2478  0.7349
  820MOL0     H13101   0.631   1.154   4.651  1.9218 -0.8983  1.0004
  820MOL0     H13102   0.615   0.987   4.682 -0.4819 -1.1668 -2.5775
  820MOL0     H13103   0.373   1.181   4.710 -2.0621 -1.8018 -0.6032
  820MOL0     H13104   0.394   1.018   4.784 -1.3693  0.4211  0.4788
  820MOL0     H13105   0.580   1.262   4.862  0.9201 -0.8978  1.9136
  820MOL0     H13106   0.570   1.113   4.941  0.7370  0.3455  1.2117
  820MOL0     H13107   0.362   1.319   4.887  0.7431 -1.2946  0.5954
  820MOL0     H13108   0.303   1.166   4.960 -1.8525  0.8266 -0.0971
  820MOL0     H13109   0.543   1.462   5.009 -0.8085  0.4965 -1.4084
  820MOL0     H13110   0.438   1.608   5.357 -0.2374 -0.0956 -0.8477
  820MOL0     H13111   0.484   1.665   5.194 -2.4672 -0.9837 -0.0631
  820MOL0     H13112   0.652   1.677   5.393 -2.0160 -1.7883  2.3362
  820MOL0     H13113   0.680   1.503   5.381 -0.8596  0.3373  0.9532
  820MOL0     H13114   0.737   1.527   5.145  0.0303 -1.8507  1.8085
  820MOL0     H13115   0.751   1.710   5.170 -1.6558  0.1960  0.5345
  820MOL0     H13116   0.969   1.624   5.189  2.5132 -1.0016  1.9541
  820MOL0     H13117   0.917   1.642   5.356  1.0277 -0.6545 -0.4367
  820MOL0     H13118   1.101   1.584   5.452 -3.7273 -1.4956  1.5604
  820MOL0     H13119   1.316   1.661   5.525  0.2156 -0.1844 -3.8856
  820MOL0     H13120   1.446   1.554   5.504 -0.5720 -1.6051 -0.8255
  820MOL0     H13121   1.347   1.532   5.648  1.0323 -0.6679 -0.0634
  820MOL0     H13122   1.547   1.095   5.701  0.4384  1.2852  0.8614
  820MOL0     H13123   1.772   1.026   5.786  1.6600 -1.0683 -0.7955
  820MOL0     H13124   2.086   0.976   5.483 -1.3461 -2.0530 -0.5555
  820MOL0     H13125   2.180   1.007   5.630 -1.3823  1.6281 -0.8243
  820MOL0     H13126   2.036   0.807   5.735  2.0419 -2.7100  0.0530
  820MOL0     H13127   1.991   0.785   5.560  1.3201 -1.9161 -0.8316
  820MOL0     H13128   2.276   0.762   5.680 -0.4202 -2.8257  0.9430
  820MOL0     H13129   2.230   0.776   5.512 -1.3903  0.6850 -0.5707
  820MOL0     H13130   2.109   0.566   5.532  1.0067  0.3669 -0.1837
  820MOL0     H13131   2.094   0.581   5.704  2.0739 -1.8135  1.7491
  820MOL0     H13132   2.337   0.523   5.730 -0.5297  2.0125  0.8999
  820MOL0     H13133   2.251   0.398   5.643 -1.5102  1.1006 -0.9260
  820MOL0     H13134   2.437   0.589   5.524  1.0685 -1.3072  1.3483
  820MOL0     H13135   2.323   0.516   5.425 -0.7136  0.6184 -0.3218
  820MOL0     H13136   2.403   0.294   5.470 -0.0751  1.0107 -2.2842
  820MOL0     H13137   2.520   0.342   5.595  2.2353  0.4904 -0.7663
  820MOL0     H13138   2.638   0.470   5.406  0.1293  0.5683 -1.6512
  820MOL0     H13139   2.538   0.387   5.291  1.0462  0.6229 -0.0521
  820MOL0     H13140   1.934   1.071   5.400 -0.5439  1.0936 -0.5015
  820MOL0     H13141   1.716   1.108   5.306 -0.9715 -0.0579  0.0861
  820MOL0     H13142   1.280   1.140   5.321  0.5804  0.2576  1.1415
  820MOL0     H13143   1.066   1.223   5.221  2.8277 -3.6911  1.4969
  820MOL0     H13144   0.252   0.666   4.030 -0.2857  0.1298 -0.5309
  820MOL0     H13145   0.256   0.437   3.953  2.2931 -0.2820 -1.0505
  820MOL0     H13146   0.418   0.036   4.178  1.8265 -0.2187 -2.8950
  820MOL0     H13147   0.431  -0.219   4.217  1.1934 -0.9134 -0.9289
  820MOL0     H13148   0.410  -0.489   4.216  0.3098  1.1769  1.4501
  820MOL0     H13149   0.264  -0.388   4.222 -1.4267 -2.2126  2.5009
  820MOL0     H13150   0.132  -0.550   4.129 -0.4201 -0.9881 -1.3813
  820MOL0     H13151   0.231  -0.655   4.230  0.9135 -1.8590 -0.7004
  820MOL0     H13152   0.278  -0.627   3.930 -0.7484 -1.6679 -1.2090
  820MOL0     H13153   0.354  -0.751   4.042 -0.6631 -0.4196  3.2991
  820MOL0     H13154   0.180  -0.846   3.918 -1.9081 -2.3575  0.6298
  820MOL0     H13155   0.058  -0.741   3.983  1.4284  0.8327 -1.8156
  820MOL0     H13156   0.115  -1.045   4.275  0.1018  0.7413  0.9156
  820MOL0     H13157   0.275  -0.287   3.833  0.2141 -0.3775  0.6354
  820MOL0     H13158   0.204   0.025   3.742 -0.7704  0.1364 -2.0943
  820MOL0     H13159   0.374   0.040   3.683 -1.5517 -0.6123 -1.3439
  820MOL0     H13160   0.294  -0.103   3.656 -0.6575 -0.4857  0.1124
  821MOL0     O13161   0.741   7.361   9.061  0.4371  0.2211 -0.1351
  821MOL0     C13162   0.784   7.473   9.072  0.2250 -0.0145 -0.7973
  821MOL0     O13163   0.719   7.588   9.033 -0.4150  0.0421 -0.4983
  821MOL0     C13164   0.587   7.580   9.011  1.4173 -0.0809  0.4296
  821MOL0     C13165   0.488   7.535   9.103  0.0693 -0.1162  0.1083
  821MOL0     C13166   0.352   7.517   9.073  1.1992 -0.4832  0.4899
  821MOL0     C13167   0.307   7.556   8.944 -0.1418 -0.1941 -0.1289
  821MOL0     O13168   0.178   7.552   8.889  0.4931 -0.0418 -0.0633
  821MOL0     C13169   0.085   7.492   8.990  0.4260 -0.5464  0.1094
  821MOL0     C13170  -0.056   7.449   8.924 -1.1550  0.2311  0.1125
  821MOL0     C13171  -0.150   7.379   9.014 -0.5274  0.0423  0.5840
  821MOL0     C13172  -0.269   7.306   8.955  0.1583 -0.8076 -0.1773
  821MOL0     C13173  -0.347   7.234   9.063  0.2659  0.2925 -0.1591
  821MOL0     C13174  -0.446   7.133   8.999  0.3253 -0.4127  0.3672
  821MOL0     C13175  -0.529   7.061   9.102  0.5397  0.6731  1.1582
  821MOL0     C13176  -0.444   6.948   9.178 -0.3337  0.7661  0.8092
  821MOL0     N13177  -0.528   6.862   9.255 -0.7293  0.6673  0.1868
  821MOL0     C13178  -0.531   6.851   9.392 -0.2148  0.7013 -0.4427
  821MOL0     C13179  -0.649   6.782   9.413 -0.0882 -0.3322 -0.0601
  821MOL0     C13180  -0.713   6.756   9.551 -0.0090  0.1772  0.9841
  821MOL0     C13181  -0.754   6.896   9.627 -0.8983  0.9972  0.0603
  821MOL0     C13182  -0.754   6.876   9.781 -0.1751 -0.5374 -0.0193
  821MOL0     C13183  -0.617   6.884   9.854  0.1659  0.4382  0.3151
  821MOL0     O13184  -0.617   6.863   9.999 -0.1007  0.1157  0.4695
  821MOL0     C13185  -0.488   6.870  10.054  0.2762 -1.2338  1.0313
  821MOL0     C13186  -0.480   6.851  10.192 -0.1832 -0.3350  0.6961
  821MOL0     C13187  -0.356   6.837  10.251 -1.0885  0.2850  1.0103
  821MOL0     C13188  -0.356   6.798  10.391 -0.0688  0.1086  0.2637
  821MOL0     C13189  -0.237   6.855  10.180  0.2309 -0.4580 -0.0374
  821MOL0     C13190  -0.101   6.841  10.238  0.6350 -0.4768  1.3803
  821MOL0     O13191   0.001   6.893  10.163  0.0127 -0.8339  0.4345
  821MOL0     C13192   0.128   6.870  10.207 -0.6606  0.5964  0.9035
  821MOL0     C13193   0.227   6.820  10.126  0.9954  0.2258 -0.0945
  821MOL0     C13194   0.355   6.795  10.166  0.5134  0.2955 -0.6348
  821MOL0     C13195   0.398   6.823  10.298  0.6534  0.0341  0.3421
  821MOL0     O13196   0.521   6.797  10.348 -0.0149 -0.1147  0.8804
  821MOL0     C13197   0.631   6.821  10.253  0.0389  0.3069  0.0073
  821MOL0     C13198   0.763   6.786  10.321 -0.0219 -0.3696  0.1756
  821MOL0     C13199   0.778   6.878  10.450  0.2271  0.8651 -0.3047
  821MOL0     C13200   0.926   6.873  10.525 -0.7296  0.2882  0.0995
  821MOL0     C13201   0.922   6.964  10.636  0.2869 -0.0120 -0.0045
  821MOL0     C13202   1.024   6.928  10.755 -0.1526 -0.6201  0.1929
  821MOL0     C13203   0.975   6.792  10.824  0.6422 -0.5871  0.8141
  821MOL0     C13204   0.991   6.800  10.981 -0.2515 -0.2397 -0.5332
  821MOL0    Cl13205   0.909   6.661  11.061 -0.3226  0.0292 -0.3388
  821MOL0     C13206   0.297   6.880  10.385 -0.8239 -0.2822 -0.0190
  821MOL0     C13207   0.172   6.900  10.338 -0.1874 -0.0010 -0.2464
  821MOL0     O13208  -0.092   6.779  10.336 -0.0756  0.3961 -1.0187
  821MOL0     C13209  -0.248   6.899  10.047  0.0474  0.3519  0.4186
  821MOL0     C13210  -0.366   6.901   9.982 -0.2672  0.3567  0.0745
  821MOL0     N13211  -0.697   6.743   9.289  0.3513 -0.6677 -0.4090
  821MOL0     N13212  -0.617   6.780   9.202 -0.0600 -0.0993  0.3536
  821MOL0     C13213   0.401   7.609   8.862  0.3106 -0.0463 -0.3006
  821MOL0     C13214   0.541   7.629   8.887 -0.9246 -0.5567 -0.0641
  821MOL0     C13215   0.932   7.486   9.092 -0.4252 -1.1527 -1.4556
  821MOL0     C13216   0.996   7.595   9.034  0.1194 -0.4110  0.1827
  821MOL0     C13217   1.132   7.610   9.036 -0.1751  0.5117 -0.1601
  821MOL0     C13218   1.213   7.517   9.107  0.2240  0.7934  0.0462
  821MOL0     O13219   1.344   7.554   9.123  0.3768  0.4005  0.0738
  821MOL0     C13220   1.425   7.451   9.173 -0.7515  0.1121 -0.0645
  821MOL0     C13221   1.565   7.518   9.157 -0.0592  0.3380  0.2899
  821MOL0     C13222   1.685   7.417   9.147  0.8851  0.5179  0.5035
  821MOL0     C13223   1.805   7.495   9.184 -0.6457  0.0310 -0.2952
  821MOL0     C13224   1.827   7.488   9.333 -0.6022  0.3479  0.3778
  821MOL0     C13225   1.859   7.512   9.446 -0.0497 -0.2780 -0.0490
  821MOL0     C13226   1.148   7.411   9.176  0.5887  0.7128 -0.3549
  821MOL0     C13227   1.006   7.389   9.167  0.9353  0.3023 -0.7321
  821MOL0     C13228   0.946   7.262   9.229 -0.1214 -0.2576 -0.0829
  821MOL0     H13229   0.520   7.495   9.199 -1.0955 -0.9344  0.1689
  821MOL0     H13230   0.293   7.480   9.155 -0.8303  2.3800  0.4821
  821MOL0     H13231   0.049   7.559   9.068 -4.0171  1.5321 -3.2743
  821MOL0     H13232   0.138   7.409   9.036  3.1537  0.4678 -0.9890
  821MOL0     H13233  -0.110   7.531   8.877 -3.3485 -0.9718  0.4039
  821MOL0     H13234  -0.036   7.375   8.846 -2.8485 -0.8596  0.6426
  821MOL0     H13235  -0.098   7.297   9.065 -1.7272 -1.1369 -0.0343
  821MOL0     H13236  -0.195   7.445   9.089  0.5108  1.6080 -0.1027
  821MOL0     H13237  -0.332   7.376   8.899 -2.9429 -3.8833 -0.8315
  821MOL0     H13238  -0.231   7.236   8.879  0.9437 -0.5866  0.0001
  821MOL0     H13239  -0.401   7.310   9.121  0.5550 -2.0361  3.4968
  821MOL0     H13240  -0.280   7.172   9.123 -0.2278 -2.0482 -1.8844
  821MOL0     H13241  -0.515   7.183   8.930 -0.6290 -1.4154  0.5734
  821MOL0     H13242  -0.389   7.058   8.943  1.4945 -0.0006  0.9630
  821MOL0     H13243  -0.611   7.011   9.049 -0.0229  2.3761  0.3298
  821MOL0     H13244  -0.580   7.132   9.168 -0.0588  0.5417  0.8521
  821MOL0     H13245  -0.381   6.893   9.107  1.2450 -0.4422  3.0079
  821MOL0     H13246  -0.384   7.010   9.245 -0.2469  2.6575 -0.9273
  821MOL0     H13247  -0.469   6.891   9.471 -0.9923  1.9751 -0.4529
  821MOL0     H13248  -0.641   6.708   9.618  1.5150 -1.1305 -1.4278
  821MOL0     H13249  -0.802   6.693   9.547 -0.4731  0.8802 -1.8496
  821MOL0     H13250  -0.694   6.984   9.600 -1.2646  1.0146 -0.7148
  821MOL0     H13251  -0.855   6.926   9.597 -1.2193  1.2515  1.3405
  821MOL0     H13252  -0.824   6.945   9.830  0.6682  1.1305 -1.0839
  821MOL0     H13253  -0.805   6.781   9.803  3.1638 -2.0114  2.1819
  821MOL0     H13254  -0.541   6.814   9.816 -0.6341  1.2576 -3.1451
  821MOL0     H13255  -0.577   6.984   9.835  1.1246  0.1225  0.6008
  821MOL0     H13256  -0.573   6.822  10.240 -1.5274  2.0991 -0.3031
  821MOL0     H13257  -0.355   6.886  10.456  0.4566  1.6830 -1.7818
  821MOL0     H13258  -0.275   6.732  10.424  1.0613  0.3214 -1.8740
  821MOL0     H13259  -0.449   6.743  10.406 -0.0333 -0.0163  0.0221
  821MOL0     H13260   0.195   6.810  10.022 -2.6067 -0.7507  0.9870
  821MOL0     H13261   0.432   6.773  10.092 -0.9186  0.1251 -2.1400
  821MOL0     H13262   0.618   6.768  10.158  0.7172  1.8018 -0.9817
  821MOL0     H13263   0.638   6.928  10.229  1.2501  0.3419  0.4442
  821MOL0     H13264   0.775   6.681  10.349  0.4487  0.0836  1.7919
  821MOL0     H13265   0.844   6.815  10.252 -0.2777 -0.1920 -0.0516
  821MOL0     H13266   0.706   6.860  10.530  0.7947  0.4569  0.1201
  821MOL0     H13267   0.768   6.980  10.413  3.2416  0.8566 -1.4088
  821MOL0     H13268   1.013   6.897  10.463  0.7077 -1.2580  1.4180
  821MOL0     H13269   0.943   6.770  10.557  1.3565  0.7475  0.6190
  821MOL0     H13270   0.929   7.067  10.600  1.4978 -0.1634 -0.2400
  821MOL0     H13271   0.821   6.954  10.676  0.0438  1.3602 -0.2168
  821MOL0     H13272   1.023   7.015  10.821 -3.9696 -1.2425  1.1650
  821MOL0     H13273   1.125   6.914  10.715  0.4279 -1.1341  1.7859
  821MOL0     H13274   1.035   6.707  10.790  2.8713  0.6800  1.3931
  821MOL0     H13275   0.872   6.764  10.798 -0.8147  3.1762  1.7913
  821MOL0     H13276   0.931   6.887  11.008 -0.4757 -0.5542 -0.0055
  821MOL0     H13277   1.090   6.817  11.024 -1.5796  1.4714  2.0620
  821MOL0     H13278   0.323   6.901  10.489  2.3874 -1.3363 -0.5076
  821MOL0     H13279   0.104   6.939  10.412  1.1250  0.3242  0.8164
  821MOL0     H13280  -0.165   6.917   9.980 -1.4014 -1.3930 -2.0023
  821MOL0     H13281  -0.356   6.930   9.878 -3.0408 -1.1492 -0.7278
  821MOL0     H13282   0.368   7.630   8.761  1.4751 -1.3127 -0.9790
  821MOL0     H13283   0.608   7.683   8.821  2.0950 -1.8643  1.7282
  821MOL0     H13284   0.948   7.663   8.964  0.2770 -1.8774 -1.4392
  821MOL0     H13285   1.185   7.686   8.979  1.1369  0.1462  0.5361
  821MOL0     H13286   1.404   7.413   9.273  1.0190  0.7447  0.5844
  821MOL0     H13287   1.419   7.372   9.097  2.1222  1.3451 -1.7408
  821MOL0     H13288   1.564   7.581   9.246  2.5313  0.3363  0.3929
  821MOL0     H13289   1.571   7.583   9.069 -1.8075  0.3797  0.1690
  821MOL0     H13290   1.668   7.324   9.201  1.4473  0.5925  0.8186
  821MOL0     H13291   1.700   7.394   9.042  0.9813 -0.5094  0.7302
  821MOL0     H13292   1.791   7.598   9.152  3.3367  0.4486 -1.2597
  821MOL0     H13293   1.890   7.463   9.122 -0.5073  0.6193 -0.4128
  821MOL0     H13294   1.881   7.557   9.541  0.3513  0.8685 -0.6598
  821MOL0     H13295   1.206   7.358   9.250  1.8270  0.9146 -1.1557
  821MOL0     H13296   1.001   7.228   9.317 -1.1667  2.3872  1.7256
  821MOL0     H13297   0.848   7.289   9.270  0.2404 -1.4664  1.6944
  821MOL0     H13298   0.934   7.185   9.153 -0.7809 -0.7702  0.5235
  822MOL0     O13299   9.653   9.737   0.181  0.1263 -0.3611 -0.1347
  822MOL0     C13300   9.616   9.628   0.134 -0.2292  0.4185 -0.3305
  822MOL0     O13301   9.679   9.556   0.036  0.0661 -0.9307  0.1822
  822MOL0     C13302   9.795   9.599  -0.019  0.0313  0.0672  0.1331
  822MOL0     C13303   9.899   9.672   0.045  0.4053  0.6909 -0.6081
  822MOL0     C13304  10.024   9.703  -0.014 -0.9215  0.3609  0.5837
  822MOL0     C13305  10.042   9.680  -0.150  0.1225  0.5003 -0.3605
  822MOL0     O13306  10.168   9.718  -0.196  0.4864  0.1374 -0.1161
  822MOL0     C13307  10.188   9.762  -0.328 -0.5871 -0.1529  0.2348
  822MOL0     C13308  10.329   9.739  -0.368  0.0503 -0.5374  0.3414
  822MOL0     C13309  10.356   9.834  -0.488  0.4723  0.2134  0.3165
  822MOL0     C13310  10.509   9.848  -0.522  1.0646  1.0793 -0.7871
  822MOL0     C13311  10.539   9.939  -0.637 -0.0091  0.0452  0.0605
  822MOL0     C13312  10.528  10.094  -0.618 -0.0837  0.2905  0.1492
  822MOL0     C13313  10.593  10.174  -0.736 -0.6535  0.2829 -0.4399
  822MOL0     C13314  10.556  10.125  -0.875 -0.7480 -0.5452 -0.1150
  822MOL0     N13315  10.592  10.236  -0.961  0.0014 -0.8845 -0.5779
  822MOL0     C13316  10.523  10.345  -1.002  0.1893 -0.2131  0.4532
  822MOL0     C13317  10.594  10.420  -1.077  0.9423  0.4324 -1.1048
  822MOL0     C13318  10.560  10.559  -1.121  0.4270 -0.2938  0.2014
  822MOL0     C13319  10.553  10.576  -1.278  0.1555  1.6939 -0.3078
  822MOL0     C13320  10.417  10.550  -1.338  0.1691  0.9045 -0.5150
  822MOL0     C13321  10.367  10.403  -1.323  0.8699  0.5640 -0.0014
  822MOL0     O13322  10.309  10.377  -1.204  0.3349  0.1934  0.1591
  822MOL0     C13323  10.254  10.252  -1.213  0.7539  0.4038 -0.1250
  822MOL0     C13324  10.325  10.139  -1.174  1.0237  0.3642  0.7183
  822MOL0     C13325  10.272  10.009  -1.156  0.0568  0.0458  0.0776
  822MOL0     C13326  10.353   9.886  -1.128  0.4102 -0.1402  0.0647
  822MOL0     C13327  10.135   9.998  -1.172  0.2456  0.0502 -0.2604
  822MOL0     C13328  10.071   9.862  -1.154 -0.2664 -0.1573 -0.3240
  822MOL0     O13329   9.957   9.835  -1.230 -0.2180  0.6450 -0.0248
  822MOL0     C13330   9.873   9.730  -1.180  0.7180 -1.0646  0.3167
  822MOL0     C13331   9.906   9.594  -1.178  0.2427 -0.1496 -0.2863
  822MOL0     C13332   9.818   9.507  -1.100 -0.5619 -0.4116  1.3051
  822MOL0     C13333   9.702   9.560  -1.029 -0.9333  0.9269 -0.4210
  822MOL0     O13334   9.627   9.472  -0.953 -0.5801  0.0317 -0.1779
  822MOL0     C13335   9.551   9.518  -0.837 -0.3598  0.8728  0.0856
  822MOL0     C13336   9.403   9.484  -0.847 -0.4935  0.9358  0.9247
  822MOL0     C13337   9.362   9.344  -0.810  0.0957  0.5229 -0.3914
  822MOL0     C13338   9.207   9.320  -0.807 -0.1541  0.5298  0.0290
  822MOL0     C13339   9.176   9.195  -0.734  0.4744  0.3407  0.1548
  822MOL0     C13340   9.026   9.162  -0.748 -0.1771  0.2077  0.4439
  822MOL0     C13341   8.978   9.070  -0.627  0.1801  0.9671 -0.6503
  822MOL0     C13342   9.065   8.946  -0.621 -0.5309  0.1336  0.5740
  822MOL0    Cl13343   9.051   8.861  -0.779 -0.2011 -0.4427 -0.1259
  822MOL0     C13344   9.663   9.692  -1.056 -0.0521 -0.4741 -0.4375
  822MOL0     C13345   9.750   9.782  -1.123 -0.6025  0.6290  0.3916
  822MOL0     O13346  10.100   9.797  -1.051 -0.6627 -0.4459 -0.1234
  822MOL0     C13347  10.054  10.102  -1.213 -1.3491  0.1691  0.7718
  822MOL0     C13348  10.117  10.226  -1.240  1.1121 -0.7203  0.3963
  822MOL0     N13349  10.712  10.358  -1.092 -0.2673  0.5610 -0.7921
  822MOL0     N13350  10.712  10.247  -1.022 -0.5407 -0.7703  0.8697
  822MOL0     C13351   9.936   9.613  -0.225 -0.3502 -0.4126  0.5410
  822MOL0     C13352   9.822   9.574  -0.154 -0.8458  0.3059 -0.0942
  822MOL0     C13353   9.480   9.582   0.161  0.1204 -0.7467  0.7352
  822MOL0     C13354   9.398   9.517   0.061  0.2707 -0.4096 -0.4966
  822MOL0     C13355   9.264   9.483   0.080 -0.1744  0.0753  0.7754
  822MOL0     C13356   9.205   9.499   0.202 -0.4032  0.3018 -0.6756
  822MOL0     O13357   9.072   9.468   0.227  0.1969 -0.1587 -0.7597
  822MOL0     C13358   9.011   9.494   0.355  0.1236 -0.3282 -0.0370
  822MOL0     C13359   8.885   9.406   0.380  0.4594 -0.1638 -0.4513
  822MOL0     C13360   8.779   9.407   0.269  0.3572 -0.2507 -0.2132
  822MOL0     C13361   8.638   9.374   0.336 -0.2663  0.1734 -0.0940
  822MOL0     C13362   8.648   9.258   0.425  0.3054 -0.1715 -0.0857
  822MOL0     C13363   8.657   9.158   0.489  0.1375  0.5339 -0.0031
  822MOL0     C13364   9.287   9.554   0.307 -0.5710 -0.4740 -0.5932
  822MOL0     C13365   9.417   9.601   0.286  0.7650 -0.1070  0.2933
  822MOL0     C13366   9.481   9.647   0.416 -0.6413 -0.0301 -0.3694
  822MOL0     H13367   9.895   9.694   0.151  1.6588 -1.5020 -0.0315
  822MOL0     H13368  10.112   9.734   0.042 -1.8019  0.4779  1.9686
  822MOL0     H13369  10.159   9.867  -0.339  0.3519  0.1494  0.5718
  822MOL0     H13370  10.126   9.707  -0.400  0.7878 -0.7293 -0.5511
  822MOL0     H13371  10.399   9.763  -0.287  3.3330 -1.7836 -1.9178
  822MOL0     H13372  10.336   9.632  -0.391 -1.9189 -0.3777 -1.2341
  822MOL0     H13373  10.303   9.799  -0.576  0.6176  1.1001 -0.1344
  822MOL0     H13374  10.320   9.935  -0.467 -0.5831 -0.5086  2.2781
  822MOL0     H13375  10.553   9.895  -0.434 -0.2185  1.7127 -0.4467
  822MOL0     H13376  10.548   9.748  -0.541  1.2731  0.3798  2.7112
  822MOL0     H13377  10.461   9.923  -0.712 -0.4588  3.7790 -0.4610
  822MOL0     H13378  10.641   9.917  -0.669 -0.6365 -0.7992 -1.4433
  822MOL0     H13379  10.425  10.125  -0.598  0.2281  0.3161  1.9474
  822MOL0     H13380  10.591  10.113  -0.530  1.3006  0.6755 -0.8808
  822MOL0     H13381  10.701  10.161  -0.724 -0.9890 -1.3938  1.2465
  822MOL0     H13382  10.557  10.276  -0.721 -3.8132 -1.0078  2.0455
  822MOL0     H13383  10.606  10.033  -0.907 -1.9359 -1.4282  0.5089
  822MOL0     H13384  10.447  10.120  -0.879 -0.8046 -0.7757  1.2545
  822MOL0     H13385  10.420  10.362  -0.975 -0.0962 -2.6443  1.1493
  822MOL0     H13386  10.648  10.620  -1.095  0.0739  0.7486 -0.9292
  822MOL0     H13387  10.470  10.602  -1.077  0.6034 -0.7318  1.0035
  822MOL0     H13388  10.581  10.678  -1.308  2.9252  1.1518  0.2125
  822MOL0     H13389  10.613  10.503  -1.332 -2.2206 -0.7253  0.1290
  822MOL0     H13390  10.331  10.610  -1.306 -0.7598 -1.3758  1.5519
  822MOL0     H13391  10.434  10.559  -1.446 -4.0098 -0.3562 -1.4409
  822MOL0     H13392  10.296  10.395  -1.406  2.0973 -1.6735 -0.9220
  822MOL0     H13393  10.453  10.336  -1.330  1.6041  1.2058  2.1013
  822MOL0     H13394  10.431  10.137  -1.150  0.6178 -0.4115  2.6642
  822MOL0     H13395  10.314   9.806  -1.191  0.3131 -0.2740  0.2952
  822MOL0     H13396  10.348   9.857  -1.023  0.5475  0.7967  0.3376
  822MOL0     H13397  10.458   9.890  -1.157  0.0088 -3.8329 -2.6757
  822MOL0     H13398   9.991   9.557  -1.235  0.2000  2.2010 -1.9959
  822MOL0     H13399   9.843   9.402  -1.093  0.9697 -0.3909 -2.0092
  822MOL0     H13400   9.588   9.462  -0.750 -2.0734  0.7344  0.7628
  822MOL0     H13401   9.574   9.620  -0.805  0.7229 -0.2695  3.4638
  822MOL0     H13402   9.365   9.554  -0.772  0.0103  3.5845 -1.1264
  822MOL0     H13403   9.361   9.515  -0.944 -0.5302  0.2070  0.7015
  822MOL0     H13404   9.404   9.308  -0.715 -0.4937 -0.9691 -0.6603
  822MOL0     H13405   9.400   9.265  -0.876 -2.0127 -1.0570  0.1658
  822MOL0     H13406   9.158   9.314  -0.905 -0.5834  0.3675  0.2523
  822MOL0     H13407   9.159   9.392  -0.739  1.1841 -0.1415  1.7677
  822MOL0     H13408   9.234   9.107  -0.761 -0.5616  0.3986 -2.5702
  822MOL0     H13409   9.193   9.221  -0.629 -3.0924  0.8924  0.7254
  822MOL0     H13410   9.002   9.119  -0.845  0.6343 -0.2007  0.4164
  822MOL0     H13411   8.970   9.256  -0.751 -0.0278  0.2685 -1.6977
  822MOL0     H13412   8.876   9.037  -0.648  0.5405  0.1222 -1.1671
  822MOL0     H13413   8.987   9.117  -0.529  4.4809 -2.3657  0.8522
  822MOL0     H13414   9.020   8.876  -0.551  2.4928  0.0419  2.5710
  822MOL0     H13415   9.166   8.978  -0.593 -1.6214  1.1789  3.7610
  822MOL0     H13416   9.572   9.738  -1.020  0.8826  0.1114  1.3459
  822MOL0     H13417   9.725   9.887  -1.125  0.2043  0.8206  0.1394
  822MOL0     H13418   9.947  10.092  -1.228 -0.9245  0.1419 -3.2136
  822MOL0     H13419  10.058  10.313  -1.269 -1.8626 -2.6408  0.2551
  822MOL0     H13420   9.957   9.584  -0.328 -0.4011 -0.0186  0.4151
  822MOL0     H13421   9.747   9.515  -0.204 -2.6979  1.7165  0.8796
  822MOL0     H13422   9.444   9.517  -0.037  2.5486  2.9458  0.3877
  822MOL0     H13423   9.199   9.430   0.010 -1.1922 -1.9687  3.0927
  822MOL0     H13424   9.074   9.476   0.442 -2.4203 -0.7592  1.8521
  822MOL0     H13425   8.978   9.598   0.354 -0.1546 -0.4189 -0.8951
  822MOL0     H13426   8.842   9.451   0.470  0.0108  1.1867 -1.3061
  822MOL0     H13427   8.907   9.299   0.380 -1.1049 -0.6872  3.7161
  822MOL0     H13428   8.771   9.502   0.216  2.2303 -0.6883 -1.3742
  822MOL0     H13429   8.803   9.330   0.195  2.0223  0.7307 -0.7598
  822MOL0     H13430   8.562   9.346   0.262  0.4102 -3.1929  0.3120
  822MOL0     H13431   8.598   9.458   0.394  0.6125 -0.0790  0.9054
  822MOL0     H13432   8.648   9.068   0.547  0.1642  0.2582 -0.4222
  822MOL0     H13433   9.245   9.569   0.406  2.2108  1.0486  0.4747
  822MOL0     H13434   9.551   9.573   0.458  4.0244  1.4021 -4.6184
  822MOL0     H13435   9.533   9.742   0.406 -0.9521  0.2501  0.6177
  822MOL0     H13436   9.410   9.663   0.497 -1.5797 -0.4256 -1.0915
  823MOL0     O13437   2.416   3.362   5.632 -0.2936 -0.1307  0.3635
  823MOL0     C13438   2.452   3.300   5.532  0.5359  0.7838  0.2247
  823MOL0     O13439   2.559   3.222   5.523 -0.2811  0.2218 -0.0037
  823MOL0     C13440   2.638   3.208   5.638 -0.0047 -0.4884  0.2628
  823MOL0     C13441   2.715   3.318   5.688 -0.7009  0.5222  0.2388
  823MOL0     C13442   2.780   3.313   5.815  0.0249  0.2321 -0.0790
  823MOL0     C13443   2.780   3.186   5.880  0.8006 -0.6018  0.0299
  823MOL0     O13444   2.845   3.167   6.002  0.2976  0.1952 -0.2039
  823MOL0     C13445   2.964   3.245   6.019  0.2266 -0.4333 -0.0080
  823MOL0     C13446   3.045   3.215   6.135  0.4714  0.4691 -0.7097
  823MOL0     C13447   3.181   3.284   6.133  1.0622  0.6752 -0.2188
  823MOL0     C13448   3.284   3.228   6.244 -0.0393 -0.4314 -0.0167
  823MOL0     C13449   3.424   3.283   6.211 -0.8687  0.1959 -0.4912
  823MOL0     C13450   3.434   3.440   6.204 -0.3324 -0.3924  0.3241
  823MOL0     C13451   3.574   3.497   6.193  0.2387 -0.0428 -0.4311
  823MOL0     C13452   3.571   3.641   6.125 -0.5448  1.0096 -0.7437
  823MOL0     N13453   3.691   3.728   6.157  0.8085  0.3702  0.2046
  823MOL0     C13454   3.825   3.701   6.145 -0.3357 -0.4496  0.8067
  823MOL0     C13455   3.882   3.804   6.205  0.4070  0.2965  0.9191
  823MOL0     C13456   4.031   3.817   6.236 -0.0374  0.5699 -0.8059
  823MOL0     C13457   4.117   3.784   6.121 -0.7390  0.6278 -0.1387
  823MOL0     C13458   4.241   3.869   6.140 -0.1384  0.1493  0.2323
  823MOL0     C13459   4.337   3.834   6.020  0.0645 -1.3106  0.2566
  823MOL0     O13460   4.446   3.917   6.040 -0.0898 -0.2487  0.4722
  823MOL0     C13461   4.571   3.873   6.053  0.2330  0.6219  0.4337
  823MOL0     C13462   4.628   3.762   5.985  0.0412  0.1099 -0.0520
  823MOL0     C13463   4.767   3.728   5.995  0.1390  0.2066 -1.3542
  823MOL0     C13464   4.824   3.612   5.920 -0.4920 -0.1111 -0.0033
  823MOL0     C13465   4.847   3.818   6.074 -0.1860 -0.0037  0.0276
  823MOL0     C13466   5.000   3.806   6.093  0.0157 -0.2274  0.3713
  823MOL0     O13467   5.068   3.928   6.094 -0.1689 -0.0220  0.0159
  823MOL0     C13468   5.200   3.929   6.105 -0.3701 -0.4894 -0.4402
  823MOL0     C13469   5.278   3.889   6.218 -0.4767 -0.6080 -0.1532
  823MOL0     C13470   5.416   3.907   6.216 -0.6811  0.2390  0.0233
  823MOL0     C13471   5.477   3.981   6.115  0.9471  0.7621 -0.3305
  823MOL0     O13472   5.621   3.994   6.121  0.3756  0.4745  0.5472
  823MOL0     C13473   5.693   4.076   6.025 -1.1306  0.2511 -0.4354
  823MOL0     C13474   5.842   4.063   6.070  0.3416  0.3413  0.0791
  823MOL0     C13475   5.892   3.923   6.064 -0.6626 -0.6095 -0.0738
  823MOL0     C13476   6.032   3.928   6.119 -0.8224 -0.2008  0.1763
  823MOL0     C13477   6.114   3.801   6.089 -0.2573  0.3552  0.6912
  823MOL0     C13478   6.250   3.802   6.159  0.0996 -0.4984 -0.0340
  823MOL0     C13479   6.343   3.704   6.088 -0.2921 -0.0131 -0.5407
  823MOL0     C13480   6.446   3.639   6.170 -0.3621 -0.7488 -0.8315
  823MOL0    Cl13481   6.374   3.507   6.245 -0.0966  0.2289 -0.4286
  823MOL0     C13482   5.396   4.036   6.013 -0.4128  0.8626 -0.3212
  823MOL0     C13483   5.260   3.999   6.008 -0.4705 -0.1135  0.4365
  823MOL0     O13484   5.044   3.696   6.117 -0.1020  0.1845  0.0461
  823MOL0     C13485   4.781   3.923   6.140 -0.7988 -0.1289  1.4733
  823MOL0     C13486   4.648   3.940   6.139 -0.5688 -0.3209  0.7765
  823MOL0     N13487   3.788   3.904   6.237 -0.4223  0.4079 -0.1688
  823MOL0     N13488   3.676   3.860   6.196  0.2984  0.9734 -0.0789
  823MOL0     C13489   2.721   3.075   5.827 -0.7811 -0.1222 -0.5026
  823MOL0     C13490   2.646   3.083   5.708 -0.4911  0.9838 -0.1942
  823MOL0     C13491   2.354   3.290   5.431  0.0556  0.2025 -0.2218
  823MOL0     C13492   2.324   3.166   5.379 -0.0820  0.6348 -0.3035
  823MOL0     C13493   2.223   3.145   5.293  0.3943 -0.4806 -0.0779
  823MOL0     C13494   2.132   3.249   5.252 -0.4961 -1.1072  0.6022
  823MOL0     O13495   2.032   3.214   5.162  0.6969  0.4763 -0.6040
  823MOL0     C13496   1.934   3.314   5.133 -1.0904 -0.2939 -0.2032
  823MOL0     C13497   1.823   3.268   5.039  0.1696 -0.2340  0.0860
  823MOL0     C13498   1.730   3.386   5.010  0.7599 -0.4890 -0.7912
  823MOL0     C13499   1.607   3.337   4.947  0.3416 -0.2855  0.1978
  823MOL0     C13500   1.523   3.453   4.903  0.2454 -0.5825 -0.0286
  823MOL0     C13501   1.441   3.540   4.892 -0.8725 -0.1899  0.6481
  823MOL0     C13502   2.162   3.384   5.294  0.0270  0.8727 -1.1410
  823MOL0     C13503   2.275   3.403   5.384  0.7678  0.0794  0.1817
  823MOL0     C13504   2.308   3.546   5.425 -0.3218 -0.1869 -0.1913
  823MOL0     H13505   2.702   3.416   5.642 -3.5430  1.0561  1.9252
  823MOL0     H13506   2.831   3.399   5.856  0.6484  0.2549 -0.8620
  823MOL0     H13507   2.931   3.349   6.032  0.2385 -0.1350 -2.0528
  823MOL0     H13508   3.026   3.248   5.929 -2.2122  2.4093 -1.8100
  823MOL0     H13509   2.987   3.245   6.223  0.1898 -3.0238  0.4540
  823MOL0     H13510   3.065   3.107   6.135  0.1857  0.3635  1.5383
  823MOL0     H13511   3.224   3.290   6.033 -1.1089 -0.5510 -1.2871
  823MOL0     H13512   3.162   3.391   6.145  0.5878  0.5848 -0.1547
  823MOL0     H13513   3.249   3.247   6.346  0.5977 -0.3897  0.1971
  823MOL0     H13514   3.287   3.119   6.237 -0.0556 -0.3475 -1.6233
  823MOL0     H13515   3.449   3.243   6.113 -0.5225 -1.2404  0.1438
  823MOL0     H13516   3.503   3.256   6.283 -0.3343  3.5900  0.3401
  823MOL0     H13517   3.374   3.470   6.118  0.4732 -1.6346 -0.6956
  823MOL0     H13518   3.392   3.488   6.294 -0.8155 -1.4488  0.6782
  823MOL0     H13519   3.638   3.427   6.139  3.1168  1.2275  1.1276
  823MOL0     H13520   3.619   3.513   6.291  1.9400  3.2331 -1.5788
  823MOL0     H13521   3.556   3.624   6.019 -1.3633 -2.3887 -0.2015
  823MOL0     H13522   3.481   3.692   6.161 -1.1596  0.4141 -1.4089
  823MOL0     H13523   3.873   3.605   6.128 -4.0183 -2.2688 -0.5324
  823MOL0     H13524   4.065   3.747   6.313 -0.6904 -0.8352 -1.7739
  823MOL0     H13525   4.051   3.919   6.271  0.7440 -0.3767  1.7463
  823MOL0     H13526   4.139   3.677   6.117  1.1270  1.0226 -1.9592
  823MOL0     H13527   4.066   3.813   6.029 -2.0416  0.0733  0.3791
  823MOL0     H13528   4.207   3.973   6.132 -2.0994 -0.3719  1.3283
  823MOL0     H13529   4.284   3.856   6.240  0.0247  0.5700  0.2201
  823MOL0     H13530   4.368   3.730   6.018 -1.8159 -1.9224 -2.3674
  823MOL0     H13531   4.296   3.858   5.921  1.0078 -0.1989  0.1153
  823MOL0     H13532   4.553   3.706   5.929 -0.4407 -0.8245  1.4675
  823MOL0     H13533   4.899   3.659   5.857  0.9437 -2.1716  0.0778
  823MOL0     H13534   4.749   3.556   5.864  0.2358 -2.6269  1.3678
  823MOL0     H13535   4.874   3.539   5.984  1.8336 -0.6545 -2.2801
  823MOL0     H13536   5.221   3.852   6.303  0.9663 -0.4301  0.9207
  823MOL0     H13537   5.459   3.864   6.306 -0.7549  0.9768  0.4258
  823MOL0     H13538   5.674   4.034   5.926 -2.9786 -0.3873  0.1568
  823MOL0     H13539   5.666   4.182   6.030  2.5633  1.2848  0.7021
  823MOL0     H13540   5.900   4.133   6.008 -2.1168  1.2594 -1.3192
  823MOL0     H13541   5.846   4.094   6.175 -1.8196 -3.2015  1.3892
  823MOL0     H13542   5.901   3.890   5.960  3.0389 -0.3386  0.0181
  823MOL0     H13543   5.830   3.862   6.130 -0.4050  0.4000  1.1284
  823MOL0     H13544   6.030   3.943   6.228  1.1820  0.8404  0.1196
  823MOL0     H13545   6.094   4.010   6.082 -0.8693 -0.3013 -0.1222
  823MOL0     H13546   6.055   3.720   6.132  0.9600 -0.4771  0.8377
  823MOL0     H13547   6.124   3.788   5.980 -0.0236  1.5544  0.5501
  823MOL0     H13548   6.241   3.761   6.260  0.5635 -1.6813 -0.4580
  823MOL0     H13549   6.302   3.898   6.161  3.2102 -1.9776 -1.9637
  823MOL0     H13550   6.383   3.757   6.001 -1.6367  0.8802 -0.6518
  823MOL0     H13551   6.274   3.623   6.063 -3.4269  1.5504  2.3054
  823MOL0     H13552   6.488   3.717   6.233 -1.0224 -0.3140 -0.9169
  823MOL0     H13553   6.529   3.599   6.110  1.6811  1.0999  0.6252
  823MOL0     H13554   5.447   4.102   5.943  3.0932  0.0341  1.2070
  823MOL0     H13555   5.196   4.032   5.926  1.4355  0.4487 -0.8909
  823MOL0     H13556   4.840   3.986   6.206 -0.7594 -0.7583  2.0633
  823MOL0     H13557   4.613   4.024   6.198 -0.1000  1.3333 -1.1949
  823MOL0     H13558   2.723   2.984   5.886  2.6367 -1.0257 -1.7615
  823MOL0     H13559   2.581   3.000   5.683  0.9272 -0.0337 -0.6245
  823MOL0     H13560   2.380   3.078   5.409  0.5189  0.4691 -1.8220
  823MOL0     H13561   2.197   3.044   5.265  0.4493 -0.3506 -0.6177
  823MOL0     H13562   1.892   3.352   5.227 -0.3546  1.2793 -0.4776
  823MOL0     H13563   1.980   3.403   5.088 -0.6029  0.2214  1.2217
  823MOL0     H13564   1.766   3.181   5.072  1.0328 -0.9478 -0.2461
  823MOL0     H13565   1.859   3.228   4.944 -4.2868  1.4878 -2.6710
  823MOL0     H13566   1.706   3.419   5.112 -1.5796 -1.6505 -0.8981
  823MOL0     H13567   1.771   3.473   4.958  1.4230 -0.1961  0.1827
  823MOL0     H13568   1.543   3.283   5.018 -1.3768  0.8210 -0.4375
  823MOL0     H13569   1.648   3.277   4.865  0.6441  0.3860 -0.1424
  823MOL0     H13570   1.365   3.615   4.887 -1.0089 -0.3524  0.2874
  823MOL0     H13571   2.099   3.471   5.281  2.1165  2.4951 -0.8767
  823MOL0     H13572   2.252   3.551   5.518 -1.6241  2.5710 -1.0212
  823MOL0     H13573   2.416   3.565   5.431 -0.7527  2.2751  1.5328
  823MOL0     H13574   2.268   3.631   5.369  1.0108 -0.7526 -2.1187
  824MOL0     O13575   1.448   5.273   2.697  0.3964 -0.7045 -0.1494
  824MOL0     C13576   1.472   5.391   2.729 -0.0942 -0.5342  0.0820
  824MOL0     O13577   1.600   5.443   2.729  0.5255 -0.1262  0.1463
  824MOL0     C13578   1.712   5.372   2.678 -0.4514  0.0244 -0.0559
  824MOL0     C13579   1.737   5.364   2.541 -0.1225  0.5109 -0.5956
  824MOL0     C13580   1.855   5.307   2.493  1.0490 -0.4916 -0.2228
  824MOL0     C13581   1.939   5.241   2.573  0.2187  0.8343 -0.0490
  824MOL0     O13582   2.027   5.141   2.534 -0.2912  0.1287  0.4709
  824MOL0     C13583   2.038   5.111   2.397  0.0891 -0.4881  0.3710
  824MOL0     C13584   2.122   5.220   2.321  0.9032  0.1034  0.2624
  824MOL0     C13585   2.169   5.162   2.188  0.4316 -0.4224 -0.5561
  824MOL0     C13586   2.218   5.285   2.107  0.0650 -0.9039 -0.7636
  824MOL0     C13587   2.301   5.231   1.997 -0.2190  0.4678  0.2059
  824MOL0     C13588   2.340   5.338   1.883  0.2178  0.6187  0.3229
  824MOL0     C13589   2.381   5.470   1.929  0.7494 -0.2392 -0.4856
  824MOL0     C13590   2.449   5.559   1.832 -0.2102  0.0824  0.4561
  824MOL0     N13591   2.589   5.540   1.818 -0.8976 -0.2967  0.6176
  824MOL0     C13592   2.683   5.545   1.918 -0.5440 -0.2561  2.1328
  824MOL0     C13593   2.802   5.537   1.860 -1.3950 -0.0417  0.6803
  824MOL0     C13594   2.950   5.547   1.904 -0.3377  0.2169 -0.6882
  824MOL0     C13595   3.011   5.667   1.829  0.2050 -0.3587  0.0911
  824MOL0     C13596   3.152   5.711   1.868 -0.6184 -0.0846  0.8869
  824MOL0     C13597   3.269   5.615   1.823 -0.2239 -0.5149  0.1920
  824MOL0     O13598   3.279   5.509   1.916 -0.8292 -0.8095  0.3971
  824MOL0     C13599   3.387   5.519   1.999  0.1992  0.3446  0.1431
  824MOL0     C13600   3.431   5.397   2.045  0.3073 -0.5214  0.2450
  824MOL0     C13601   3.540   5.382   2.128  0.0348 -0.4475 -0.4857
  824MOL0     C13602   3.554   5.237   2.169 -0.2281 -0.0095  1.0779
  824MOL0     C13603   3.621   5.497   2.158 -0.1360  0.0757 -0.1955
  824MOL0     C13604   3.728   5.498   2.266  0.0402  0.6281 -0.2001
  824MOL0     O13605   3.754   5.385   2.330 -0.2602 -0.0232 -0.4436
  824MOL0     C13606   3.877   5.322   2.302 -0.1488 -0.6312  0.2716
  824MOL0     C13607   3.959   5.279   2.410 -1.0103  0.9171  0.3910
  824MOL0     C13608   4.077   5.209   2.376  0.0898  0.1009 -0.1714
  824MOL0     C13609   4.118   5.193   2.240 -0.6921 -0.4304 -0.2634
  824MOL0     O13610   4.224   5.119   2.213 -0.3438 -0.6524  0.7748
  824MOL0     C13611   4.338   5.115   2.315  0.2578 -0.4509 -0.2170
  824MOL0     C13612   4.472   5.080   2.251 -0.4170 -0.4427 -0.1782
  824MOL0     C13613   4.555   5.200   2.210  0.7306 -0.1089  0.2532
  824MOL0     C13614   4.611   5.262   2.341  0.3422 -0.0281 -0.0556
  824MOL0     C13615   4.715   5.368   2.304 -0.0103 -0.8632  1.1272
  824MOL0     C13616   4.780   5.458   2.413  1.0062  0.9346 -0.7738
  824MOL0     C13617   4.903   5.534   2.345  0.7138 -0.3410 -0.4617
  824MOL0     C13618   4.987   5.627   2.434 -0.8821 -0.0585  0.4941
  824MOL0    Cl13619   5.069   5.533   2.554 -0.0547  0.3194 -0.3692
  824MOL0     C13620   4.040   5.236   2.139 -0.9492 -0.1125  0.1662
  824MOL0     C13621   3.918   5.303   2.174 -0.0434  0.5025  0.1776
  824MOL0     O13622   3.804   5.597   2.273  1.2618 -0.1893  0.6911
  824MOL0     C13623   3.570   5.623   2.113  0.0904  0.0107  0.2293
  824MOL0     C13624   3.464   5.633   2.027 -0.1035  0.6659  0.5499
  824MOL0     N13625   2.776   5.502   1.729 -0.5340 -0.1112  0.4396
  824MOL0     N13626   2.654   5.515   1.701 -0.2960  0.2344 -0.4800
  824MOL0     C13627   1.913   5.242   2.716  0.3208  0.4615  0.1699
  824MOL0     C13628   1.801   5.311   2.773  0.1265 -0.7173  0.1816
  824MOL0     C13629   1.370   5.491   2.762  0.5143  1.0780  0.1416
  824MOL0     C13630   1.409   5.600   2.840  0.4181 -0.5323 -0.3201
  824MOL0     C13631   1.317   5.689   2.904  0.4096 -0.7673  1.4100
  824MOL0     C13632   1.184   5.666   2.872  0.0040  0.9397 -0.2500
  824MOL0     O13633   1.106   5.747   2.951  0.5730  0.3239 -0.2424
  824MOL0     C13634   0.966   5.711   2.950  1.1511 -0.2296 -0.2106
  824MOL0     C13635   0.940   5.585   3.022 -0.2885 -0.0085 -0.8120
  824MOL0     C13636   0.802   5.554   3.049 -0.3146 -0.7370 -0.4149
  824MOL0     C13637   0.764   5.589   3.203 -0.7472 -0.4706 -0.2127
  824MOL0     C13638   0.763   5.729   3.240 -0.8159 -0.7218 -0.0332
  824MOL0     C13639   0.758   5.848   3.271  0.8717 -0.7990  0.6427
  824MOL0     C13640   1.139   5.571   2.781  0.5014  0.2285 -0.1489
  824MOL0     C13641   1.232   5.482   2.727  0.0035 -0.8333  0.1255
  824MOL0     C13642   1.175   5.372   2.642  0.3641 -0.2725 -0.2685
  824MOL0     H13643   1.661   5.396   2.470  1.0782 -1.1416 -2.7195
  824MOL0     H13644   1.862   5.322   2.386 -2.0000  2.6416 -0.1745
  824MOL0     H13645   1.940   5.098   2.349  2.1212 -0.2576 -4.3268
  824MOL0     H13646   2.082   5.011   2.391 -1.7531 -1.4090  1.2557
  824MOL0     H13647   2.061   5.311   2.316  1.3918  0.5393  1.6506
  824MOL0     H13648   2.200   5.254   2.390 -2.2081  0.5009  3.8669
  824MOL0     H13649   2.251   5.093   2.209  1.7437  1.1685 -0.1867
  824MOL0     H13650   2.087   5.115   2.133  0.1978  1.5634 -2.0351
  824MOL0     H13651   2.132   5.342   2.072 -0.2496 -2.5026 -2.7934
  824MOL0     H13652   2.277   5.351   2.171 -1.7878 -2.0137  2.3175
  824MOL0     H13653   2.251   5.147   1.947  0.7438 -0.2810  0.4736
  824MOL0     H13654   2.400   5.215   2.041 -0.8760 -1.1659  1.1732
  824MOL0     H13655   2.422   5.296   1.823 -1.0060 -2.2966  0.4949
  824MOL0     H13656   2.254   5.357   1.818  1.4950  0.2977 -1.5525
  824MOL0     H13657   2.451   5.457   2.012 -1.5183 -2.5962  1.1904
  824MOL0     H13658   2.298   5.512   1.986  1.1853 -1.2686  0.9373
  824MOL0     H13659   2.397   5.560   1.736  0.4316  4.3901 -0.0594
  824MOL0     H13660   2.431   5.657   1.877 -1.3975 -0.5809  1.4782
  824MOL0     H13661   2.665   5.569   2.022 -1.3158  1.8062  1.5673
  824MOL0     H13662   3.006   5.454   1.895 -0.8484 -0.2077  0.3729
  824MOL0     H13663   2.956   5.556   2.012  1.3270 -0.3712 -0.7137
  824MOL0     H13664   3.012   5.645   1.722 -1.0156  0.3987 -0.0895
  824MOL0     H13665   2.956   5.758   1.851  1.1862  0.0335  1.0552
  824MOL0     H13666   3.164   5.803   1.810 -4.1174 -1.5875 -2.6740
  824MOL0     H13667   3.161   5.730   1.975  1.5835  0.7398  0.6104
  824MOL0     H13668   3.258   5.579   1.720 -1.2539 -2.1357  0.8292
  824MOL0     H13669   3.359   5.677   1.815 -1.2319  0.8095 -1.8681
  824MOL0     H13670   3.372   5.313   2.008 -1.1105 -0.7439  2.7481
  824MOL0     H13671   3.583   5.183   2.079 -2.4194 -1.2798  1.0704
  824MOL0     H13672   3.453   5.207   2.196 -1.0959 -0.8169 -2.5890
  824MOL0     H13673   3.629   5.217   2.247  1.3069  0.0087 -0.3423
  824MOL0     H13674   3.911   5.283   2.508  0.7338 -0.1626  1.3483
  824MOL0     H13675   4.129   5.160   2.459  1.8194  2.1371  0.0402
  824MOL0     H13676   4.344   5.213   2.364 -1.9344  0.7702 -2.1906
  824MOL0     H13677   4.304   5.036   2.382 -1.2664  0.7269  0.4559
  824MOL0     H13678   4.525   5.026   2.329 -1.0887 -1.9803 -0.7415
  824MOL0     H13679   4.456   5.018   2.161 -0.1359  1.0169 -1.2751
  824MOL0     H13680   4.483   5.266   2.161 -4.9609 -3.5074  3.0953
  824MOL0     H13681   4.633   5.169   2.140  2.0244  0.7508  1.2691
  824MOL0     H13682   4.654   5.188   2.409  0.8268 -0.1025 -0.4408
  824MOL0     H13683   4.536   5.319   2.397 -0.3013  0.1248 -1.0686
  824MOL0     H13684   4.796   5.311   2.258  1.7233  1.9586  0.3833
  824MOL0     H13685   4.667   5.429   2.226  2.1593 -0.8013 -0.2389
  824MOL0     H13686   4.799   5.387   2.495 -1.8363 -0.0271 -0.8549
  824MOL0     H13687   4.708   5.534   2.444  0.3152 -0.1673  0.4168
  824MOL0     H13688   4.860   5.594   2.265  0.9056  0.9808  0.3896
  824MOL0     H13689   4.972   5.458   2.309  1.5051 -0.3481  1.0062
  824MOL0     H13690   4.922   5.699   2.484 -0.0117 -0.7298  2.6886
  824MOL0     H13691   5.064   5.672   2.370 -0.1656 -1.1622  0.5555
  824MOL0     H13692   4.065   5.226   2.034 -3.5238 -0.2048 -0.4972
  824MOL0     H13693   3.845   5.316   2.095  0.3002  1.1019 -0.0464
  824MOL0     H13694   3.613   5.717   2.148 -2.3223  0.7111  1.5704
  824MOL0     H13695   3.432   5.732   1.995  0.2574  0.4668 -0.4685
  824MOL0     H13696   1.981   5.187   2.779  1.0642  0.7807 -0.3392
  824MOL0     H13697   1.775   5.300   2.878  2.4051  1.3529  1.0652
  824MOL0     H13698   1.507   5.587   2.885 -0.0599 -4.6338 -0.1392
  824MOL0     H13699   1.349   5.768   2.970  0.0210 -0.3332  1.0875
  824MOL0     H13700   0.932   5.789   3.019  1.5554 -1.0026  0.8988
  824MOL0     H13701   0.921   5.722   2.851  1.7318 -1.6921 -0.6701
  824MOL0     H13702   0.993   5.591   3.118 -1.1486  0.6000 -0.3543
  824MOL0     H13703   0.981   5.507   2.957  0.0678  1.5362 -2.5198
  824MOL0     H13704   0.737   5.601   2.974  0.3348  0.6632 -0.1330
  824MOL0     H13705   0.781   5.447   3.036  1.3586 -1.3249  1.2147
  824MOL0     H13706   0.817   5.525   3.275 -1.9422 -1.1950  0.0583
  824MOL0     H13707   0.663   5.549   3.191 -0.6038 -0.5787 -1.1432
  824MOL0     H13708   0.760   5.953   3.290 -0.5973 -0.9560  1.8582
  824MOL0     H13709   1.037   5.551   2.750  0.2721  2.0690 -0.6865
  824MOL0     H13710   1.091   5.401   2.578 -0.0383 -0.1949  0.2884
  824MOL0     H13711   1.250   5.327   2.576 -2.2129 -2.0844 -2.2039
  824MOL0     H13712   1.140   5.299   2.716  1.9400 -0.7951  0.0035
  825MOL0     O13713   0.543   8.932   4.006  0.5582  0.1961  0.5535
  825MOL0     C13714   0.578   9.003   4.101  0.1600 -0.1221 -0.0457
  825MOL0     O13715   0.706   9.040   4.126  0.2694  0.6224  0.7430
  825MOL0     C13716   0.803   8.995   4.042  0.4956 -1.0087  0.3359
  825MOL0     C13717   0.921   8.947   4.099 -0.1891 -0.1636 -0.5040
  825MOL0     C13718   1.032   8.925   4.019  0.4827  0.3978 -0.0815
  825MOL0     C13719   1.026   8.928   3.876 -0.0003 -0.8382  0.7628
  825MOL0     O13720   1.119   8.897   3.780 -0.3334 -0.4567  0.7516
  825MOL0     C13721   1.244   8.837   3.829 -0.3315  0.7473  0.1243
  825MOL0     C13722   1.239   8.690   3.850 -0.7999 -0.9279 -0.2530
  825MOL0     C13723   1.367   8.623   3.905 -0.2214 -0.0792 -0.5107
  825MOL0     C13724   1.460   8.589   3.781 -0.4215 -0.6612 -0.0404
  825MOL0     C13725   1.581   8.515   3.829 -0.7657 -0.7712 -0.9034
  825MOL0     C13726   1.686   8.519   3.723  0.1049  1.1070  0.3503
  825MOL0     C13727   1.822   8.452   3.763  0.6030 -0.1045 -0.4726
  825MOL0     C13728   1.810   8.303   3.793 -0.2556 -0.3487 -0.7117
  825MOL0     N13729   1.915   8.278   3.887 -0.2724 -0.3325  0.7501
  825MOL0     C13730   2.044   8.263   3.847 -0.3186 -0.4268  0.3179
  825MOL0     C13731   2.114   8.212   3.950  0.2679 -0.5348  0.4266
  825MOL0     C13732   2.263   8.175   3.943 -0.5085 -1.6533 -1.3454
  825MOL0     C13733   2.319   8.095   4.058  0.6244 -0.1783 -0.4147
  825MOL0     C13734   2.464   8.066   4.061  0.1188 -0.5990 -0.8022
  825MOL0     C13735   2.512   8.002   4.195  0.1624  0.3162 -0.4421
  825MOL0     O13736   2.640   7.948   4.175  0.1236 -0.6571  0.0276
  825MOL0     C13737   2.693   7.885   4.283 -1.0597  0.2729  0.0470
  825MOL0     C13738   2.809   7.816   4.264  1.0000  0.6975  0.0272
  825MOL0     C13739   2.883   7.767   4.367 -0.3343  0.6833  0.2312
  825MOL0     C13740   3.011   7.704   4.328  0.6345 -0.0036  1.0003
  825MOL0     C13741   2.835   7.770   4.495  0.7556  0.8121 -0.1987
  825MOL0     C13742   2.909   7.699   4.601 -0.0631  0.1812 -0.2887
  825MOL0     O13743   3.045   7.712   4.609 -0.0017  0.2644 -0.5967
  825MOL0     C13744   3.111   7.660   4.719  0.4832 -0.4611 -0.1650
  825MOL0     C13745   3.221   7.741   4.769 -0.2079 -0.0904  0.0582
  825MOL0     C13746   3.316   7.688   4.859 -0.2312  0.2317  0.6763
  825MOL0     C13747   3.292   7.562   4.911 -0.5631  0.5546  0.0205
  825MOL0     O13748   3.375   7.518   5.010  0.2648 -0.0910 -0.1053
  825MOL0     C13749   3.382   7.594   5.131 -0.0754 -0.0220  0.4518
  825MOL0     C13750   3.365   7.510   5.254  0.1581  0.5932  0.2268
  825MOL0     C13751   3.352   7.595   5.384 -0.1088  1.0422  0.5720
  825MOL0     C13752   3.470   7.695   5.394  0.1548  0.7567 -0.1947
  825MOL0     C13753   3.498   7.727   5.544 -0.3659  0.4585  0.2001
  825MOL0     C13754   3.617   7.830   5.550 -0.2868 -0.1714 -0.1965
  825MOL0     C13755   3.642   7.886   5.689 -0.8633  0.5649 -0.0024
  825MOL0     C13756   3.763   7.980   5.696  0.0239 -0.3208  0.5177
  825MOL0    Cl13757   3.788   7.996   5.863  0.1395  0.0432  0.2204
  825MOL0     C13758   3.182   7.484   4.866 -0.4811 -0.6836  0.1276
  825MOL0     C13759   3.097   7.531   4.765 -0.4912  0.2702  0.3556
  825MOL0     O13760   2.839   7.648   4.691  0.4056 -0.5029  0.8234
  825MOL0     C13761   2.709   7.827   4.519 -0.4373 -0.1341 -0.1566
  825MOL0     C13762   2.642   7.892   4.414 -0.8925 -0.5133  0.5822
  825MOL0     N13763   2.026   8.191   4.055 -0.1339 -0.7274 -0.3313
  825MOL0     N13764   1.913   8.234   4.015  0.1439 -0.1199  0.2583
  825MOL0     C13765   0.906   8.991   3.822  0.2730 -0.1567  0.2296
  825MOL0     C13766   0.800   9.031   3.905 -0.1733  0.4886  0.5870
  825MOL0     C13767   0.475   9.066   4.186 -0.1076 -0.5900 -0.9629
  825MOL0     C13768   0.494   9.067   4.323  0.3094  0.1120  0.6244
  825MOL0     C13769   0.390   9.105   4.409  0.6664  0.4801  0.2701
  825MOL0     C13770   0.267   9.159   4.360  0.9273  0.9688 -0.6074
  825MOL0     O13771   0.163   9.183   4.443  0.3193 -0.0365  0.2973
  825MOL0     C13772   0.019   9.151   4.412 -0.1337  0.9378  0.3815
  825MOL0     C13773  -0.062   9.151   4.540  0.2525  0.1603  0.3336
  825MOL0     C13774  -0.082   9.290   4.597 -0.5764  0.4276  0.7145
  825MOL0     C13775  -0.143   9.296   4.736 -0.4427  0.1054 -0.4682
  825MOL0     C13776  -0.057   9.273   4.846  0.0767  0.3007 -0.7652
  825MOL0     C13777   0.016   9.249   4.944  0.3364  0.1955 -0.2473
  825MOL0     C13778   0.259   9.171   4.224 -0.3187 -0.3281  1.3635
  825MOL0     C13779   0.357   9.131   4.132 -0.2151  0.6137 -0.1838
  825MOL0     C13780   0.326   9.128   3.984 -0.9754  0.1667  0.3202
  825MOL0     H13781   0.929   8.934   4.206 -0.0985 -0.8038 -0.5889
  825MOL0     H13782   1.127   8.898   4.063  0.0028 -3.5896 -1.1169
  825MOL0     H13783   1.275   8.881   3.924 -0.0667 -0.5291  0.6398
  825MOL0     H13784   1.326   8.869   3.763  0.4840  2.6633  1.9495
  825MOL0     H13785   1.164   8.665   3.925  0.6597  0.1720  1.6551
  825MOL0     H13786   1.211   8.649   3.752  0.5746  2.2632 -2.1518
  825MOL0     H13787   1.429   8.688   3.967 -0.9424 -0.6603  0.8670
  825MOL0     H13788   1.352   8.532   3.964  3.1196  1.4350  3.0545
  825MOL0     H13789   1.408   8.521   3.712  1.0099  0.5265 -2.4062
  825MOL0     H13790   1.492   8.674   3.721  0.3613 -2.1081 -1.7614
  825MOL0     H13791   1.556   8.410   3.841 -1.3945 -0.4317  1.1840
  825MOL0     H13792   1.616   8.572   3.916  0.7321  0.7296 -2.4036
  825MOL0     H13793   1.646   8.480   3.629 -1.0385  0.2052  1.1764
  825MOL0     H13794   1.718   8.622   3.705 -0.4920  1.0209 -1.3319
  825MOL0     H13795   1.862   8.498   3.853  0.7668 -2.8685  0.9701
  825MOL0     H13796   1.910   8.463   3.700  0.9118 -3.6141 -0.8216
  825MOL0     H13797   1.722   8.280   3.854  2.0096 -3.2303  1.7845
  825MOL0     H13798   1.818   8.239   3.705  2.4728 -2.0912  0.6627
  825MOL0     H13799   2.091   8.276   3.750  2.6368  0.1795  1.7190
  825MOL0     H13800   2.324   8.264   3.925 -0.0315 -1.5696  0.5244
  825MOL0     H13801   2.277   8.119   3.850 -1.1176 -1.0898 -1.7922
  825MOL0     H13802   2.287   8.149   4.147 -0.4789 -1.1207 -0.2217
  825MOL0     H13803   2.265   8.000   4.053  2.6700 -1.4686  0.4695
  825MOL0     H13804   2.491   8.008   3.972 -0.4627  0.0983 -1.4552
  825MOL0     H13805   2.509   8.166   4.058  0.1592 -0.6321 -1.9501
  825MOL0     H13806   2.505   8.068   4.281  1.6625 -1.4782  1.1622
  825MOL0     H13807   2.448   7.916   4.219 -0.5090  1.4622  2.1364
  825MOL0     H13808   2.848   7.825   4.164 -2.3543  1.7358 -1.3355
  825MOL0     H13809   3.022   7.709   4.220  1.3953  0.2384  1.0830
  825MOL0     H13810   3.014   7.601   4.364  0.5572  0.1442  1.4454
  825MOL0     H13811   3.102   7.746   4.373  1.5221  0.0972 -0.8115
  825MOL0     H13812   3.244   7.841   4.735 -0.0547  0.1075  0.7403
  825MOL0     H13813   3.411   7.736   4.882  0.2426 -1.2910  2.0368
  825MOL0     H13814   3.477   7.648   5.139  0.6495 -1.2180  0.1362
  825MOL0     H13815   3.300   7.665   5.117 -1.5835 -1.8648 -0.5325
  825MOL0     H13816   3.280   7.443   5.247  0.2631  0.4204  0.5736
  825MOL0     H13817   3.456   7.451   5.269 -0.2332  0.0308  0.4013
  825MOL0     H13818   3.346   7.523   5.467  0.4749 -1.4693 -1.4169
  825MOL0     H13819   3.251   7.638   5.382 -1.2855 -1.5477 -0.0514
  825MOL0     H13820   3.439   7.782   5.336 -1.0925 -0.9302 -2.2290
  825MOL0     H13821   3.565   7.647   5.371  1.0528  1.0752  2.4902
  825MOL0     H13822   3.401   7.772   5.568 -1.9179 -2.3568 -0.4065
  825MOL0     H13823   3.510   7.630   5.594 -2.1020  1.1513  2.0977
  825MOL0     H13824   3.605   7.913   5.480  2.9466  0.4408 -0.2109
  825MOL0     H13825   3.700   7.767   5.516 -0.4091 -0.5015  0.1210
  825MOL0     H13826   3.655   7.791   5.742  0.5702  0.4527 -0.5090
  825MOL0     H13827   3.558   7.942   5.731  0.8838  5.3113 -2.1770
  825MOL0     H13828   3.749   8.075   5.643 -0.5183  0.3547  1.8271
  825MOL0     H13829   3.850   7.932   5.651 -1.9973 -0.8783 -3.2375
  825MOL0     H13830   3.167   7.380   4.893 -0.8401 -1.1327 -1.6372
  825MOL0     H13831   3.015   7.472   4.725 -1.7242  2.4210 -0.4645
  825MOL0     H13832   2.662   7.819   4.616 -0.7076  0.7394 -0.2068
  825MOL0     H13833   2.548   7.945   4.430 -0.9484  1.0632 -3.6833
  825MOL0     H13834   0.885   9.013   3.718 -2.9926 -1.3102  0.5514
  825MOL0     H13835   0.717   9.090   3.866 -0.8102 -0.3337  0.6604
  825MOL0     H13836   0.584   9.023   4.364 -0.4364 -0.4074  1.7335
  825MOL0     H13837   0.395   9.087   4.515  2.4357  1.1687  0.3280
  825MOL0     H13838  -0.033   9.226   4.351  1.2505  0.7934 -1.0367
  825MOL0     H13839   0.005   9.048   4.378 -1.2185  0.8860  0.9350
  825MOL0     H13840  -0.007   9.087   4.610  1.5771  0.8678 -0.0268
  825MOL0     H13841  -0.162   9.110   4.525 -1.8690  4.8760 -0.1755
  825MOL0     H13842   0.013   9.343   4.602  0.2948 -0.9821 -0.3809
  825MOL0     H13843  -0.143   9.349   4.528  0.7775  0.3728 -0.5781
  825MOL0     H13844  -0.232   9.232   4.743 -0.1974 -0.0358  2.1764
  825MOL0     H13845  -0.172   9.402   4.737  1.0867  0.6875 -3.8617
  825MOL0     H13846   0.067   9.231   5.036  1.3914  0.2163 -0.8126
  825MOL0     H13847   0.170   9.220   4.185 -0.5624  0.8869  3.3355
  825MOL0     H13848   0.418   9.144   3.927 -0.9538 -2.8857 -0.6767
  825MOL0     H13849   0.290   9.030   3.955 -1.3860  0.8287 -1.5349
  825MOL0     H13850   0.257   9.206   3.951 -1.5234 -1.2122 -2.0163
  826MOL0     O13851  11.366   8.183   8.009  0.1414  0.1726 -0.4486
  826MOL0     C13852  11.358   8.061   7.988  0.1190 -0.3729 -1.0197
  826MOL0     O13853  11.456   7.995   7.924 -0.2636  0.2017  0.6421
  826MOL0     C13854  11.575   8.058   7.893 -0.5018 -0.4165  0.2613
  826MOL0     C13855  11.656   8.112   7.999  0.3024  0.9542  0.2453
  826MOL0     C13856  11.777   8.178   7.963 -0.5897  0.1020 -0.1966
  826MOL0     C13857  11.814   8.185   7.824  0.5770 -0.0890  0.0070
  826MOL0     O13858  11.916   8.271   7.785  0.1482 -0.6607 -0.5349
  826MOL0     C13859  11.861   8.405   7.778  0.6681 -0.4682 -0.6710
  826MOL0     C13860  11.984   8.496   7.770  0.5180  0.1616 -0.4261
  826MOL0     C13861  12.011   8.536   7.625 -0.1916 -1.2566  0.1498
  826MOL0     C13862  12.154   8.527   7.595  0.0886  0.0843 -0.5361
  826MOL0     C13863  12.244   8.625   7.669  0.0001  0.2533  0.2878
  826MOL0     C13864  12.393   8.609   7.622  0.3530  0.5397 -0.2078
  826MOL0     C13865  12.485   8.698   7.709  0.8298 -0.1710 -0.9508
  826MOL0     C13866  12.476   8.845   7.675 -0.2641  0.0836 -0.0877
  826MOL0     N13867  12.582   8.927   7.742 -0.5184 -0.6874  0.2295
  826MOL0     C13868  12.594   8.936   7.881 -1.0596 -1.2644 -0.7109
  826MOL0     C13869  12.680   9.044   7.899 -0.8659 -0.4016  0.5625
  826MOL0     C13870  12.705   9.104   8.035 -0.1179 -0.9602  0.1170
  826MOL0     C13871  12.840   9.169   8.054  0.2532 -0.0840 -0.0879
  826MOL0     C13872  12.875   9.206   8.200  0.1037  0.5575 -0.3145
  826MOL0     C13873  12.933   9.080   8.277 -0.6333  0.4495  0.1022
  826MOL0     O13874  13.060   9.063   8.201 -0.2162  1.0467 -0.5458
  826MOL0     C13875  13.164   9.016   8.276  0.3792  1.6026  0.2167
  826MOL0     C13876  13.290   9.014   8.229  0.2357  0.0066 -0.0972
  826MOL0     C13877  13.400   8.960   8.293  0.0445 -0.3633 -0.6078
  826MOL0     C13878  13.538   8.993   8.233  0.3425  0.2215 -1.0087
  826MOL0     C13879  13.385   8.906   8.423  0.1536 -0.4447  0.6905
  826MOL0     C13880  13.495   8.852   8.504  0.1556 -0.5223  0.1120
  826MOL0     O13881  13.614   8.817   8.439 -0.8033 -0.6222 -0.6859
  826MOL0     C13882  13.706   8.741   8.495  0.3419 -0.8432 -0.2335
  826MOL0     C13883  13.716   8.606   8.464 -0.0495  0.4096 -0.0040
  826MOL0     C13884  13.819   8.531   8.518 -0.0778 -0.9232 -0.6261
  826MOL0     C13885  13.916   8.581   8.606  0.8479 -0.6247  0.5799
  826MOL0     O13886  14.004   8.496   8.661  0.3437  0.6416  0.3039
  826MOL0     C13887  14.130   8.546   8.686 -0.1367 -1.2317  0.0224
  826MOL0     C13888  14.194   8.435   8.768  0.0667 -0.2077  0.1424
  826MOL0     C13889  14.142   8.429   8.913 -0.4944 -0.1247  0.7478
  826MOL0     C13890  14.198   8.305   8.974  0.1675  0.5568 -1.3550
  826MOL0     C13891  14.135   8.276   9.121 -0.2403 -0.0774  0.1311
  826MOL0     C13892  14.155   8.382   9.232 -0.0164 -1.2152 -0.4259
  826MOL0     C13893  14.088   8.329   9.368  0.2733  0.2559  0.2982
  826MOL0     C13894  14.173   8.215   9.438  0.6242 -0.0166 -0.5134
  826MOL0    Cl13895  14.291   8.296   9.535 -0.0342  0.2235  0.1338
  826MOL0     C13896  13.915   8.720   8.622  0.6079  0.7320  0.3208
  826MOL0     C13897  13.804   8.795   8.577  0.2648  0.0670  0.6558
  826MOL0     O13898  13.465   8.812   8.617  0.4238  0.5807 -0.1568
  826MOL0     C13899  13.260   8.897   8.470  0.5670  0.0475 -0.0902
  826MOL0     C13900  13.153   8.947   8.399 -0.0366  0.1981  0.1937
  826MOL0     N13901  12.717   9.093   7.773  0.4449  1.4115 -0.1220
  826MOL0     N13902  12.668   9.019   7.680  0.6759  0.3175 -0.2350
  826MOL0     C13903  11.734   8.128   7.725  0.2565 -0.0941  0.6280
  826MOL0     C13904  11.615   8.063   7.761  0.8258 -0.5099 -0.2417
  826MOL0     C13905  11.250   7.978   8.051 -0.2454 -0.2319  0.6451
  826MOL0     C13906  11.246   7.839   8.036 -0.8648 -0.7772 -0.2153
  826MOL0     C13907  11.143   7.761   8.093  0.8984 -0.1586  0.0228
  826MOL0     C13908  11.046   7.828   8.167  0.0256  0.0503  0.3095
  826MOL0     O13909  10.942   7.757   8.232 -0.1772  0.2570 -0.1297
  826MOL0     C13910  10.893   7.628   8.189  0.0030  0.1277  0.1454
  826MOL0     C13911  10.780   7.591   8.283 -0.5882  0.9592 -0.0206
  826MOL0     C13912  10.681   7.711   8.299  0.3196 -0.3488  0.0955
  826MOL0     C13913  10.579   7.680   8.407 -0.6948  0.8173 -0.4789
  826MOL0     C13914  10.475   7.787   8.398 -0.8424  0.2424  1.0309
  826MOL0     C13915  10.381   7.863   8.386 -0.0906  0.3664  0.1830
  826MOL0     C13916  11.050   7.963   8.173 -0.2105  0.2656 -0.6655
  826MOL0     C13917  11.144   8.041   8.123 -0.2017  0.4740  0.0668
  826MOL0     C13918  11.131   8.194   8.149 -0.1854  0.6279 -0.6129
  826MOL0     H13919  11.616   8.125   8.099 -4.1382 -0.3773 -1.1151
  826MOL0     H13920  11.836   8.227   8.039 -1.3736  0.1774  0.3728
  826MOL0     H13921  11.811   8.422   7.874 -0.2644 -2.7120 -0.7119
  826MOL0     H13922  11.796   8.419   7.692  2.4770 -0.3073 -2.0664
  826MOL0     H13923  11.969   8.593   7.819  0.7963  0.9834 -1.9075
  826MOL0     H13924  12.067   8.448   7.822 -0.1178 -2.0708 -1.3628
  826MOL0     H13925  11.947   8.491   7.548  0.2193  2.3226 -2.5955
  826MOL0     H13926  11.981   8.641   7.618  1.0052 -1.0007 -2.2992
  826MOL0     H13927  12.181   8.423   7.617  0.7689 -0.0265 -1.8583
  826MOL0     H13928  12.171   8.524   7.487  1.2559  0.1998 -0.3599
  826MOL0     H13929  12.234   8.600   7.775 -0.5666 -2.5446 -0.3358
  826MOL0     H13930  12.211   8.729   7.657  1.0612  0.7050  1.1149
  826MOL0     H13931  12.415   8.502   7.635 -0.2407 -0.1611 -3.8137
  826MOL0     H13932  12.394   8.633   7.515 -1.2542  1.1956 -0.1041
  826MOL0     H13933  12.591   8.670   7.704  0.9118  0.2960 -2.6155
  826MOL0     H13934  12.455   8.689   7.814 -1.0143  1.9322 -1.2141
  826MOL0     H13935  12.496   8.859   7.569  0.1396 -1.4015 -0.2350
  826MOL0     H13936  12.375   8.878   7.701 -0.4054 -0.7107  0.4263
  826MOL0     H13937  12.537   8.886   7.959 -1.3869 -2.2425 -1.5476
  826MOL0     H13938  12.695   9.022   8.107 -0.2097 -2.2287 -1.2890
  826MOL0     H13939  12.621   9.174   8.047  1.4488  1.0338 -0.0170
  826MOL0     H13940  12.920   9.115   8.003 -1.2387 -2.1162 -0.3935
  826MOL0     H13941  12.822   9.261   7.998 -0.2490 -0.6724 -0.9222
  826MOL0     H13942  12.950   9.286   8.200 -0.8236  1.4857  1.5926
  826MOL0     H13943  12.790   9.254   8.247 -1.2326 -1.1741 -0.8468
  826MOL0     H13944  12.945   9.100   8.384  1.9966 -0.4398  0.0497
  826MOL0     H13945  12.871   8.992   8.260  0.6012 -0.1146 -1.8031
  826MOL0     H13946  13.297   9.057   8.129  0.7004  1.4802  0.5476
  826MOL0     H13947  13.524   9.038   8.134 -0.8603 -1.1290 -1.4835
  826MOL0     H13948  13.600   8.904   8.217 -2.0819 -1.8030  0.1605
  826MOL0     H13949  13.595   9.062   8.295 -0.0841  1.1824 -1.6564
  826MOL0     H13950  13.644   8.554   8.401 -4.2017  3.2982  1.8535
  826MOL0     H13951  13.831   8.423   8.505  1.5880 -0.8147 -0.2526
  826MOL0     H13952  14.170   8.566   8.586 -1.2893 -0.5931 -0.3314
  826MOL0     H13953  14.133   8.640   8.742  1.8852 -0.9563 -0.4602
  826MOL0     H13954  14.168   8.338   8.723  3.9682 -0.6423 -1.6758
  826MOL0     H13955  14.303   8.433   8.763  0.1680 -1.7210  1.9411
  826MOL0     H13956  14.033   8.435   8.910 -0.4329  2.2098 -2.1272
  826MOL0     H13957  14.174   8.514   8.973  0.0849  2.1721 -2.5171
  826MOL0     H13958  14.307   8.300   8.973  0.2772 -2.8818  1.7976
  826MOL0     H13959  14.176   8.216   8.915  1.2175  0.2444 -1.2962
  826MOL0     H13960  14.029   8.257   9.106 -0.1335 -1.1281  0.6681
  826MOL0     H13961  14.180   8.192   9.174  0.3558  1.6033  2.5023
  826MOL0     H13962  14.109   8.475   9.195  0.1414 -0.7430  0.5267
  826MOL0     H13963  14.259   8.413   9.247 -1.0117  2.8957 -0.6994
  826MOL0     H13964  13.990   8.286   9.346 -1.1154  1.7499  3.0769
  826MOL0     H13965  14.069   8.412   9.437 -0.4707 -0.8140  1.4138
  826MOL0     H13966  14.212   8.134   9.375 -0.2454  0.1199 -1.2399
  826MOL0     H13967  14.104   8.170   9.509 -2.2224  5.7063  0.9024
  826MOL0     H13968  13.995   8.767   8.678  0.8694 -1.4706  1.9360
  826MOL0     H13969  13.816   8.903   8.580  0.4115  0.0519  0.5793
  826MOL0     H13970  13.239   8.845   8.563  0.1047 -0.2160 -0.3368
  826MOL0     H13971  13.050   8.932   8.432 -0.1102 -0.6986 -0.4138
  826MOL0     H13972  11.759   8.140   7.620 -0.6439  0.5552  0.4783
  826MOL0     H13973  11.551   8.025   7.681 -0.3073  0.2610  0.2718
  826MOL0     H13974  11.323   7.785   7.981 -2.5722 -0.7617 -2.7601
  826MOL0     H13975  11.146   7.653   8.086  0.5952 -0.2621  1.2656
  826MOL0     H13976  10.871   7.633   8.082 -0.0270 -0.4347  0.1221
  826MOL0     H13977  10.980   7.563   8.200  1.2732  1.8729  0.7531
  826MOL0     H13978  10.830   7.581   8.379  2.5515  0.8838 -1.5340
  826MOL0     H13979  10.735   7.499   8.245 -0.9238  0.9221  0.4632
  826MOL0     H13980  10.741   7.797   8.329  2.1910 -2.0240  1.4103
  826MOL0     H13981  10.636   7.731   8.201  3.6979  0.9882 -1.3337
  826MOL0     H13982  10.619   7.694   8.508  1.0543 -0.6552 -0.9124
  826MOL0     H13983  10.545   7.576   8.403  1.5442  0.0284 -0.0603
  826MOL0     H13984  10.297   7.930   8.382  0.6411  1.3386 -4.4200
  826MOL0     H13985  10.968   8.010   8.225  0.8475  0.6244  0.7518
  826MOL0     H13986  11.099   8.243   8.057 -0.6522  1.1057 -0.2108
  826MOL0     H13987  11.041   8.207   8.210 -1.9864 -3.0874 -2.1921
  826MOL0     H13988  11.219   8.233   8.201  0.2452 -1.5539  0.3945
  827MOL0     O13989   8.615   8.376  10.228  0.5779  0.0577 -0.2218
  827MOL0     C13990   8.685   8.440  10.147 -0.0221 -0.0986 -0.3056
  827MOL0     O13991   8.667   8.443  10.010 -0.4347 -0.1457 -0.7018
  827MOL0     C13992   8.552   8.384   9.957 -0.2983 -0.0051 -0.1271
  827MOL0     C13993   8.438   8.453   9.928  0.4061 -0.2027 -0.1267
  827MOL0     C13994   8.329   8.404   9.850 -1.4773  0.1295 -0.5113
  827MOL0     C13995   8.331   8.268   9.803  0.0439 -0.7233  0.0313
  827MOL0     O13996   8.239   8.223   9.712 -0.0065 -0.5982 -0.4553
  827MOL0     C13997   8.162   8.114   9.764  0.1975 -0.6647  0.6882
  827MOL0     C13998   8.064   8.076   9.655  0.3381  0.0436 -0.8664
  827MOL0     C13999   7.919   8.057   9.711 -0.0313 -0.5151 -0.9780
  827MOL0     C14000   7.827   8.006   9.606  1.1613  0.3117  0.2199
  827MOL0     C14001   7.680   7.999   9.653 -0.0694 -0.0686  0.4153
  827MOL0     C14002   7.609   8.132   9.687 -0.1368 -0.2364  0.2272
  827MOL0     C14003   7.463   8.110   9.708 -0.3421 -0.0984  0.2529
  827MOL0     C14004   7.392   8.073   9.585  0.7088  0.3277  0.3075
  827MOL0     N14005   7.396   8.168   9.470 -0.2767  0.7178 -0.7941
  827MOL0     C14006   7.405   8.302   9.459  0.5857 -0.6476 -1.0768
  827MOL0     C14007   7.392   8.319   9.326  0.7750 -0.4828 -0.2793
  827MOL0     C14008   7.381   8.456   9.265  0.1082 -0.5154  0.1697
  827MOL0     C14009   7.238   8.461   9.211  0.3934  0.5857  0.1979
  827MOL0     C14010   7.124   8.482   9.315 -0.7703 -0.0923  0.6265
  827MOL0     C14011   6.977   8.484   9.263 -0.5626  0.3745  0.1775
  827MOL0     O14012   6.882   8.467   9.362  0.8309  0.2781 -0.3069
  827MOL0     C14013   6.753   8.485   9.310  0.7904 -0.2149 -0.0090
  827MOL0     C14014   6.649   8.451   9.392 -0.7836 -0.5188  0.2641
  827MOL0     C14015   6.514   8.464   9.353 -0.5529  0.5069  0.1100
  827MOL0     C14016   6.420   8.417   9.456  0.1904 -0.0527 -0.4661
  827MOL0     C14017   6.478   8.528   9.231 -0.1735  0.1334  0.8406
  827MOL0     C14018   6.341   8.570   9.195 -0.7157  0.3063  0.2077
  827MOL0     O14019   6.332   8.665   9.092 -0.1986 -0.0459 -0.2399
  827MOL0     C14020   6.197   8.682   9.057 -0.5577 -0.8923 -0.6799
  827MOL0     C14021   6.144   8.598   8.964  0.0737  1.0789 -0.4941
  827MOL0     C14022   6.010   8.602   8.933 -0.5656 -0.1724 -0.6458
  827MOL0     C14023   5.930   8.704   8.984  1.1809 -0.8398  0.6335
  827MOL0     O14024   5.800   8.694   8.954  0.0108 -0.0875 -0.8271
  827MOL0     C14025   5.742   8.814   8.901  0.0749 -0.2242 -0.1522
  827MOL0     C14026   5.612   8.787   8.821  0.1668  0.9735 -0.0856
  827MOL0     C14027   5.642   8.708   8.690  0.2734  0.1553 -0.6944
  827MOL0     C14028   5.513   8.686   8.612  0.2968 -0.4874  0.2328
  827MOL0     C14029   5.524   8.681   8.464  0.3456  1.1146  0.0846
  827MOL0     C14030   5.571   8.537   8.420 -0.1817  0.1087  0.3824
  827MOL0     C14031   5.455   8.431   8.405 -0.1818  1.4298  0.4787
  827MOL0     C14032   5.399   8.417   8.257 -1.5686  0.4796 -0.2994
  827MOL0    Cl14033   5.309   8.552   8.205  0.3174 -0.0260 -0.2429
  827MOL0     C14034   5.986   8.801   9.067  1.2663  0.2143  0.0975
  827MOL0     C14035   6.118   8.786   9.115  0.7467 -0.9402  0.3716
  827MOL0     O14036   6.243   8.518   9.247  0.8912  0.9973  0.1374
  827MOL0     C14037   6.587   8.549   9.143 -0.2881  0.0834 -0.1309
  827MOL0     C14038   6.720   8.531   9.180 -0.2829 -0.3613 -0.9509
  827MOL0     N14039   7.381   8.203   9.256 -0.0143  0.2731 -0.4393
  827MOL0     N14040   7.386   8.112   9.346  0.4236  0.7553  0.4343
  827MOL0     C14041   8.441   8.190   9.840 -0.3597 -0.0015 -1.2304
  827MOL0     C14042   8.558   8.252   9.911  0.2290 -0.2802  0.1927
  827MOL0     C14043   8.800   8.525  10.196  0.2365 -0.0456  0.3303
  827MOL0     C14044   8.894   8.578  10.095  0.9853  1.0805  0.7764
  827MOL0     C14045   8.989   8.671  10.123 -0.1417  0.1145  0.2345
  827MOL0     C14046   8.991   8.728  10.250  0.5135 -0.2296  0.2574
  827MOL0     O14047   9.076   8.831  10.259  0.3225 -0.1670 -0.4185
  827MOL0     C14048   9.096   8.889  10.390 -0.6212  0.3051  0.7933
  827MOL0     C14049   9.188   9.010  10.361 -0.4271 -0.2238 -0.2841
  827MOL0     C14050   9.111   9.115  10.272 -0.5418 -0.0105  0.6928
  827MOL0     C14051   9.216   9.194  10.189 -0.7908  0.1444 -0.1555
  827MOL0     C14052   9.322   9.263  10.262 -0.5679  0.2239 -0.7086
  827MOL0     C14053   9.411   9.320  10.324 -0.3499 -0.0956 -0.7102
  827MOL0     C14054   8.912   8.671  10.352 -0.8729  0.1621 -0.2968
  827MOL0     C14055   8.815   8.576  10.328  0.9283  0.2374 -0.2315
  827MOL0     C14056   8.737   8.526  10.447 -0.0463  0.3843  0.7464
  827MOL0     H14057   8.438   8.552   9.972  3.4621  0.3592 -1.1555
  827MOL0     H14058   8.253   8.477   9.824  0.9677  2.9052 -0.4644
  827MOL0     H14059   8.114   8.144   9.858  0.9124 -0.6522  1.0610
  827MOL0     H14060   8.229   8.031   9.790  1.5155  0.4056  0.8325
  827MOL0     H14061   8.069   8.146   9.572 -0.7486  1.6273  0.3418
  827MOL0     H14062   8.102   7.979   9.623 -2.9294 -1.0042 -2.0165
  827MOL0     H14063   7.921   7.976   9.785 -0.9429  0.5688  0.2758
  827MOL0     H14064   7.881   8.154   9.745  3.7170  0.9750 -0.5753
  827MOL0     H14065   7.826   8.073   9.520 -4.2077  0.2108 -0.1723
  827MOL0     H14066   7.867   7.910   9.573  4.1790  0.7921  2.1313
  827MOL0     H14067   7.674   7.946   9.749 -2.3521  0.8160  0.8328
  827MOL0     H14068   7.618   7.944   9.582 -1.5381 -0.2604  1.7844
  827MOL0     H14069   7.661   8.169   9.775  1.2473 -1.1913 -0.1516
  827MOL0     H14070   7.625   8.204   9.607  2.1794 -0.8072  0.1094
  827MOL0     H14071   7.431   8.206   9.750  0.2196  0.6216 -0.8844
  827MOL0     H14072   7.454   8.035   9.787 -0.0444  2.1033  2.5014
  827MOL0     H14073   7.422   7.974   9.549 -1.2648 -1.5215  3.2740
  827MOL0     H14074   7.287   8.076   9.616  1.6066 -0.7182  3.8562
  827MOL0     H14075   7.401   8.378   9.536  0.2849 -1.1539 -0.5936
  827MOL0     H14076   7.465   8.460   9.195  0.2401 -2.3273  0.1748
  827MOL0     H14077   7.398   8.536   9.339  1.2880 -0.4283 -0.1802
  827MOL0     H14078   7.219   8.540   9.139 -1.8554 -0.2740 -0.2227
  827MOL0     H14079   7.201   8.369   9.165  0.2457  0.7787 -0.0705
  827MOL0     H14080   7.140   8.395   9.380 -0.8741 -1.9208 -1.6784
  827MOL0     H14081   7.137   8.572   9.377  1.5840  1.0554 -1.3766
  827MOL0     H14082   6.971   8.583   9.218  0.9359  1.1761  1.6335
  827MOL0     H14083   6.969   8.408   9.184  4.1958  0.4441 -0.6927
  827MOL0     H14084   6.667   8.420   9.494 -0.1976 -1.1890 -0.0305
  827MOL0     H14085   6.471   8.370   9.541  0.1389  0.5988 -0.0690
  827MOL0     H14086   6.364   8.338   9.406 -0.0095  0.4175 -0.9971
  827MOL0     H14087   6.344   8.494   9.473 -1.1550 -1.1747 -1.1668
  827MOL0     H14088   6.211   8.519   8.931 -0.1256  0.5836  0.2623
  827MOL0     H14089   5.981   8.525   8.862 -0.7967 -0.4777 -0.2212
  827MOL0     H14090   5.721   8.894   8.973 -0.7616  2.0006 -2.6969
  827MOL0     H14091   5.820   8.860   8.839  1.4686 -0.7133  1.1891
  827MOL0     H14092   5.537   8.741   8.885  0.8791 -1.2968 -0.7973
  827MOL0     H14093   5.568   8.882   8.788  2.5148  1.2209 -2.9835
  827MOL0     H14094   5.681   8.608   8.712 -0.4553 -0.1759 -0.8583
  827MOL0     H14095   5.717   8.763   8.633  0.5665  0.2056 -0.2688
  827MOL0     H14096   5.455   8.777   8.624 -0.0534 -0.5093 -1.1101
  827MOL0     H14097   5.457   8.600   8.649 -1.7278 -0.4955 -2.5297
  827MOL0     H14098   5.426   8.700   8.419 -0.4998 -0.1876  1.2688
  827MOL0     H14099   5.593   8.760   8.435  0.0638  1.3498  0.0547
  827MOL0     H14100   5.654   8.492   8.475 -1.4595 -0.4400  1.9506
  827MOL0     H14101   5.613   8.550   8.320 -0.8221 -2.6007 -0.2984
  827MOL0     H14102   5.372   8.449   8.473 -2.4522 -3.7739 -0.4474
  827MOL0     H14103   5.491   8.330   8.429 -0.3437  1.1102 -0.5887
  827MOL0     H14104   5.339   8.329   8.236  0.7638 -1.1400 -0.5434
  827MOL0     H14105   5.486   8.417   8.190 -2.0742  1.0737 -0.9743
  827MOL0     H14106   5.921   8.881   9.099 -1.2990 -1.4619 -0.6337
  827MOL0     H14107   6.151   8.867   9.179 -1.6108  0.6610 -0.3061
  827MOL0     H14108   6.568   8.593   9.045  1.0680 -1.4357 -1.1498
  827MOL0     H14109   6.792   8.569   9.109  2.0297 -3.2554 -0.3430
  827MOL0     H14110   8.448   8.091   9.796 -0.1682  0.2170 -1.6961
  827MOL0     H14111   8.654   8.200   9.910 -0.0558 -0.8110 -0.1865
  827MOL0     H14112   8.888   8.540   9.993 -0.7625 -1.4163  1.7069
  827MOL0     H14113   9.055   8.700  10.042  0.0614  2.6741  1.2098
  827MOL0     H14114   9.000   8.920  10.432 -0.5517 -0.5233  1.6065
  827MOL0     H14115   9.137   8.816  10.461 -0.0466 -1.2690 -1.0836
  827MOL0     H14116   9.283   8.972  10.322 -0.8311 -4.7567  2.3677
  827MOL0     H14117   9.223   9.043  10.460  1.8117 -1.3878 -0.6270
  827MOL0     H14118   9.041   9.073  10.200 -2.3817  0.8601  1.8891
  827MOL0     H14119   9.056   9.184  10.337 -0.2517  0.3871  0.5244
  827MOL0     H14120   9.152   9.264  10.135 -1.1973  1.4934  1.9540
  827MOL0     H14121   9.272   9.117  10.135  1.9571 -0.3284  3.0749
  827MOL0     H14122   9.496   9.377  10.357  0.5346 -1.9158  0.3556
  827MOL0     H14123   8.930   8.712  10.451  1.0164 -1.7742  0.2461
  827MOL0     H14124   8.632   8.545  10.421  0.6623 -0.0063 -2.9374
  827MOL0     H14125   8.759   8.419  10.445  2.4875  0.7863 -2.2688
  827MOL0     H14126   8.759   8.572  10.543  1.9059 -0.4113  0.7221
  828MOL0     O14127   8.855   7.169  10.498  0.4632  0.3074  0.5654
  828MOL0     C14128   8.970   7.208  10.508 -0.9586 -0.0053  0.0040
  828MOL0     O14129   9.077   7.141  10.560 -0.7831 -0.1111  0.1377
  828MOL0     C14130   9.061   7.047  10.657  0.5721  0.5918  1.2741
  828MOL0     C14131   8.948   7.022  10.732 -0.6428 -0.0982 -0.7586
  828MOL0     C14132   8.951   6.920  10.837 -0.2266 -0.0958 -0.5121
  828MOL0     C14133   9.068   6.847  10.857 -0.0952  0.4801  0.5718
  828MOL0     O14134   9.093   6.763  10.966 -0.0272  0.5219 -0.1867
  828MOL0     C14135   8.983   6.717  11.048  0.5680 -1.2339 -0.1879
  828MOL0     C14136   9.024   6.585  11.120 -0.0401  0.6311 -0.1999
  828MOL0     C14137   9.115   6.607  11.234  0.0524 -0.2259  0.5605
  828MOL0     C14138   9.128   6.484  11.324  0.1687  0.1797 -0.9037
  828MOL0     C14139   9.217   6.501  11.453  0.0395  0.7174  0.1663
  828MOL0     C14140   9.236   6.369  11.522 -0.3616  0.0524  0.4867
  828MOL0     C14141   9.310   6.385  11.651  0.6075  0.6646  0.6351
  828MOL0     C14142   9.354   6.251  11.720 -0.4444  0.1722  0.0151
  828MOL0     N14143   9.426   6.294  11.845 -0.3445 -0.5551 -0.3459
  828MOL0     C14144   9.369   6.329  11.961  0.2013  0.2865  0.0316
  828MOL0     C14145   9.469   6.386  12.031  0.5350 -0.6568 -0.1108
  828MOL0     C14146   9.466   6.464  12.158  0.4213 -0.1099  0.0320
  828MOL0     C14147   9.514   6.403  12.289 -0.2477  0.0512 -0.6402
  828MOL0     C14148   9.666   6.409  12.308 -0.3647  1.2544  0.3341
  828MOL0     C14149   9.726   6.545  12.303 -0.2388  0.1354  0.5632
  828MOL0     O14150   9.854   6.538  12.357 -0.6235  0.2885 -0.2910
  828MOL0     C14151   9.960   6.461  12.311 -0.1019  0.2882  0.5440
  828MOL0     C14152   9.974   6.434  12.177  0.1129  0.5911  0.6567
  828MOL0     C14153  10.081   6.370  12.129 -0.1752  0.7301 -0.5551
  828MOL0     C14154  10.082   6.341  11.978 -0.2084  0.7111 -0.4375
  828MOL0     C14155  10.191   6.330  12.220 -0.3256 -0.5486 -1.1098
  828MOL0     C14156  10.316   6.258  12.185  0.0607 -1.3606  0.1194
  828MOL0     O14157  10.418   6.297  12.267  0.0052 -0.5959 -0.5823
  828MOL0     C14158  10.547   6.280  12.220  0.0560  0.1286 -0.4414
  828MOL0     C14159  10.649   6.288  12.315 -0.4011  0.0176 -0.2237
  828MOL0     C14160  10.786   6.278  12.265  1.4558 -0.3951 -0.8250
  828MOL0     C14161  10.818   6.279  12.127 -0.4938 -0.7257  0.4211
  828MOL0     O14162  10.945   6.293  12.077  0.8099 -0.5314 -0.3108
  828MOL0     C14163  11.054   6.319  12.164 -0.1347 -0.9008 -1.5633
  828MOL0     C14164  11.187   6.300  12.098 -0.4285  0.2366 -0.3059
  828MOL0     C14165  11.305   6.330  12.191  0.0895  0.0865  0.3740
  828MOL0     C14166  11.443   6.287  12.137  0.9012 -0.2008  0.3145
  828MOL0     C14167  11.553   6.319  12.241  0.7324 -0.0246  0.7373
  828MOL0     C14168  11.687   6.253  12.209 -0.1156  1.1238  0.4886
  828MOL0     C14169  11.744   6.310  12.084  0.3930  0.3342  0.3880
  828MOL0     C14170  11.892   6.281  12.074 -0.0983 -1.0704  0.3830
  828MOL0    Cl14171  11.929   6.103  12.110  0.6267  0.7369  0.0504
  828MOL0     C14172  10.708   6.278  12.039 -0.2795 -0.4053 -0.0458
  828MOL0     C14173  10.584   6.280  12.082  0.5020 -0.7117  0.6839
  828MOL0     O14174  10.320   6.179  12.094 -0.0140 -0.9930  0.0423
  828MOL0     C14175  10.176   6.366  12.362  0.0883  0.3946 -0.1896
  828MOL0     C14176  10.054   6.420  12.404 -0.2500 -0.0275 -0.6732
  828MOL0     N14177   9.585   6.374  11.958  0.2277  0.6310  0.2191
  828MOL0     N14178   9.557   6.335  11.844 -0.9961  1.0598 -0.0216
  828MOL0     C14179   9.179   6.875  10.776 -0.3254 -0.7251 -1.1473
  828MOL0     C14180   9.181   6.986  10.691  0.9414 -0.8786  0.0715
  828MOL0     C14181   9.002   7.347  10.466  0.0130  0.0391  0.6328
  828MOL0     C14182   9.138   7.378  10.445 -0.3150 -0.4007 -0.7722
  828MOL0     C14183   9.179   7.506  10.401  0.2424 -0.1578  0.2036
  828MOL0     C14184   9.087   7.607  10.393  0.2468 -0.6700 -0.4522
  828MOL0     O14185   9.125   7.737  10.351 -0.1768  0.9603 -0.7299
  828MOL0     C14186   9.067   7.839  10.419 -0.3257  0.2814  0.1837
  828MOL0     C14187   9.074   7.838  10.572  0.3963  0.2697 -0.1040
  828MOL0     C14188   9.210   7.841  10.642  0.2219  0.0887 -0.2555
  828MOL0     C14189   9.280   7.972  10.612  0.0787  0.6458 -0.3771
  828MOL0     C14190   9.401   7.969  10.687 -0.0937 -0.6610  0.9906
  828MOL0     C14191   9.502   7.998  10.748 -0.1478  0.1365 -0.1651
  828MOL0     C14192   8.952   7.577  10.416  0.7484  0.3440  0.8412
  828MOL0     C14193   8.907   7.446  10.440  0.2198 -0.3265  0.2918
  828MOL0     C14194   8.761   7.434  10.458  0.6662 -0.7766  0.5289
  828MOL0     H14195   8.865   7.089  10.716 -1.2065 -0.2219  1.4297
  828MOL0     H14196   8.858   6.904  10.890 -1.3111  1.7494 -1.7542
  828MOL0     H14197   8.892   6.712  10.988 -0.1140  2.1653  0.3547
  828MOL0     H14198   8.969   6.807  11.109  0.0840  0.1721 -2.2780
  828MOL0     H14199   8.934   6.537  11.160  0.0164  1.0484  0.4418
  828MOL0     H14200   9.077   6.521  11.049  2.0133  2.0277  0.0013
  828MOL0     H14201   9.216   6.635  11.203 -1.5640  5.2430 -0.8124
  828MOL0     H14202   9.062   6.685  11.289 -2.4844 -3.3361  2.9837
  828MOL0     H14203   9.028   6.467  11.365  0.2326  0.0664 -0.7931
  828MOL0     H14204   9.158   6.400  11.259 -1.2970 -0.2846 -1.0244
  828MOL0     H14205   9.163   6.568  11.520 -1.2298  3.3022 -3.1956
  828MOL0     H14206   9.311   6.553  11.435  0.3190  0.3757  0.6301
  828MOL0     H14207   9.143   6.314  11.534  0.4960 -2.0633 -1.7167
  828MOL0     H14208   9.291   6.304  11.454 -1.8390  1.7542 -2.5467
  828MOL0     H14209   9.245   6.435  11.724  0.6420  0.5659  0.7353
  828MOL0     H14210   9.399   6.441  11.623 -0.8569  2.0377 -1.5772
  828MOL0     H14211   9.259   6.202  11.740 -0.1104 -0.6343 -0.3296
  828MOL0     H14212   9.420   6.187  11.661  0.1379  2.2734 -1.7648
  828MOL0     H14213   9.262   6.314  11.977 -0.4961  0.2215 -3.7343
  828MOL0     H14214   9.358   6.454  12.174  0.2123 -0.4421 -1.4997
  828MOL0     H14215   9.507   6.563  12.136  2.8835 -1.5649 -2.5412
  828MOL0     H14216   9.470   6.468  12.365 -0.2754 -0.7902  0.0734
  828MOL0     H14217   9.471   6.303  12.294 -0.8425  0.1628 -2.6176
  828MOL0     H14218   9.688   6.366  12.406  2.3838  1.0727 -0.2791
  828MOL0     H14219   9.715   6.358  12.224 -1.2387  3.9227 -1.9648
  828MOL0     H14220   9.706   6.586  12.203 -2.9873  1.0401  1.4235
  828MOL0     H14221   9.669   6.605  12.374 -1.4025 -0.4971  0.1790
  828MOL0     H14222   9.895   6.463  12.108  0.3936 -2.7431 -1.2995
  828MOL0     H14223   9.981   6.328  11.939 -0.6576 -0.2824  0.9561
  828MOL0     H14224  10.150   6.257  11.962 -0.1093 -0.0319  3.0961
  828MOL0     H14225  10.122   6.430  11.928 -0.3511  0.0647 -1.7476
  828MOL0     H14226  10.617   6.296  12.419 -2.6151 -2.2732 -0.6396
  828MOL0     H14227  10.857   6.291  12.346 -0.8713  1.2611  1.1037
  828MOL0     H14228  11.064   6.420  12.205  1.4557 -1.2757 -0.9643
  828MOL0     H14229  11.058   6.240  12.241 -2.0922 -0.9350 -1.4293
  828MOL0     H14230  11.187   6.199  12.057 -0.3131 -0.4009  1.1779
  828MOL0     H14231  11.202   6.377  12.023  0.9028 -0.1390 -0.4459
  828MOL0     H14232  11.287   6.281  12.287 -1.2565 -0.3595 -0.0884
  828MOL0     H14233  11.312   6.439  12.194 -1.6285  0.1913  2.1350
  828MOL0     H14234  11.453   6.345  12.045 -1.4056  0.5718  0.4844
  828MOL0     H14235  11.427   6.181  12.117 -0.1221 -0.0430  0.2452
  828MOL0     H14236  11.559   6.427  12.250  0.7375  0.0755 -0.3719
  828MOL0     H14237  11.515   6.285  12.338  0.2023  1.2822  1.0067
  828MOL0     H14238  11.681   6.144  12.198  0.7673  1.2137 -1.2972
  828MOL0     H14239  11.750   6.271  12.297 -1.3363 -1.5213  2.0314
  828MOL0     H14240  11.722   6.417  12.081  0.8280  0.3977 -1.1776
  828MOL0     H14241  11.691   6.260  12.002 -1.1338 -2.4687  2.8626
  828MOL0     H14242  11.952   6.333  12.149  0.9401 -4.4372  2.0665
  828MOL0     H14243  11.921   6.324  11.978  0.9858 -1.4686  0.5258
  828MOL0     H14244  10.726   6.310  11.937  1.1606 -1.6048 -0.2014
  828MOL0     H14245  10.503   6.288  12.010  0.7589  1.1643  0.5396
  828MOL0     H14246  10.246   6.340  12.440 -0.7174 -0.3463  0.3121
  828MOL0     H14247  10.028   6.447  12.506  1.5001 -3.5223  0.8491
  828MOL0     H14248   9.268   6.816  10.798 -0.0465  1.0775  3.8153
  828MOL0     H14249   9.278   7.009  10.647  1.0272 -1.5725 -0.1138
  828MOL0     H14250   9.217   7.304  10.450 -1.2127 -1.3523 -0.2402
  828MOL0     H14251   9.282   7.528  10.378 -0.0467 -1.5178 -2.9557
  828MOL0     H14252   9.106   7.934  10.383  2.5612 -0.0651  2.0716
  828MOL0     H14253   8.961   7.843  10.391 -0.5948 -0.8053  0.9584
  828MOL0     H14254   9.011   7.754  10.606  2.3862 -1.5956 -0.7814
  828MOL0     H14255   9.014   7.925  10.600 -0.4116  0.3886 -2.1057
  828MOL0     H14256   9.181   7.830  10.746 -2.6014  3.1311 -0.5714
  828MOL0     H14257   9.273   7.759  10.605  1.9400  1.4987 -0.6275
  828MOL0     H14258   9.218   8.056  10.645 -2.9306 -1.2216 -0.8122
  828MOL0     H14259   9.292   7.977  10.503  1.9039 -4.3440 -0.6539
  828MOL0     H14260   9.594   8.011  10.801 -0.1289 -3.4420  0.9931
  828MOL0     H14261   8.878   7.657  10.421  0.6498  0.3211 -0.0896
  828MOL0     H14262   8.728   7.420  10.561 -2.2166 -0.5094 -0.2914
  828MOL0     H14263   8.713   7.531  10.439 -0.6667 -1.4187  0.5405
  828MOL0     H14264   8.716   7.368  10.384  1.8215 -0.6641 -0.2958
  829MOL0     O14265   4.031   4.880   9.425  0.1249 -0.4003 -0.2337
  829MOL0     C14266   4.055   4.793   9.346 -0.0166  1.2603  0.4000
  829MOL0     O14267   4.161   4.796   9.267  0.5598  0.4602  0.6443
  829MOL0     C14268   4.256   4.884   9.291  0.3195  0.2699 -0.3316
  829MOL0     C14269   4.262   4.986   9.197 -0.2151  0.3159 -0.4276
  829MOL0     C14270   4.370   5.077   9.209  0.1424 -0.0768  0.4784
  829MOL0     C14271   4.473   5.071   9.302 -0.0015 -0.2030  0.0725
  829MOL0     O14272   4.576   5.166   9.308  0.0436  0.4237 -0.4417
  829MOL0     C14273   4.708   5.132   9.358  0.2464  0.0034  0.1925
  829MOL0     C14274   4.802   5.252   9.326 -0.4878  0.4750  0.2423
  829MOL0     C14275   4.824   5.352   9.443  0.7483 -0.7305 -0.2601
  829MOL0     C14276   4.901   5.468   9.388 -0.1747  0.8283 -0.0519
  829MOL0     C14277   4.992   5.543   9.490  0.0753  0.2195 -0.7753
  829MOL0     C14278   5.101   5.640   9.429 -0.6214 -0.5684 -0.0034
  829MOL0     C14279   5.035   5.719   9.315 -0.7022 -0.9730  0.2671
  829MOL0     C14280   5.109   5.849   9.274 -0.2471 -0.7069  0.9810
  829MOL0     N14281   5.249   5.825   9.229 -0.3406 -0.5915 -0.0304
  829MOL0     C14282   5.275   5.740   9.118  0.1255 -0.2673  0.0099
  829MOL0     C14283   5.414   5.733   9.119  0.9175  0.4340  0.1572
  829MOL0     C14284   5.509   5.665   9.024  0.9664 -0.5594  0.6145
  829MOL0     C14285   5.528   5.750   8.900  0.0259 -0.3010  0.5403
  829MOL0     C14286   5.675   5.753   8.850  0.2120 -0.4177 -0.5692
  829MOL0     C14287   5.713   5.867   8.755 -0.2161 -0.3730 -0.2065
  829MOL0     O14288   5.844   5.869   8.699 -0.2588  0.2739  0.3743
  829MOL0     C14289   5.945   5.939   8.760  0.6616 -0.3559 -0.0253
  829MOL0     C14290   6.061   5.964   8.689 -0.1661 -1.5282 -0.9520
  829MOL0     C14291   6.171   6.023   8.753 -0.2833  0.3150 -0.0027
  829MOL0     C14292   6.295   6.045   8.672 -0.4686  0.7064 -1.0354
  829MOL0     C14293   6.161   6.075   8.884  0.4155 -0.3668 -0.2575
  829MOL0     C14294   6.264   6.149   8.950  0.8413  0.2114  0.8429
  829MOL0     O14295   6.220   6.187   9.074 -0.1252 -0.3099  0.2745
  829MOL0     C14296   6.301   6.251   9.160  0.2772 -0.1042  0.8867
  829MOL0     C14297   6.305   6.208   9.291 -0.4715 -0.1138  1.0018
  829MOL0     C14298   6.370   6.274   9.399 -0.8311 -0.3947  0.3314
  829MOL0     C14299   6.438   6.398   9.372 -0.6313  0.7470  0.8431
  829MOL0     O14300   6.511   6.442   9.476 -0.2846  0.3332  0.6137
  829MOL0     C14301   6.530   6.582   9.493 -0.3931 -0.4345  0.2551
  829MOL0     C14302   6.594   6.608   9.625 -0.0255  1.0715 -1.3405
  829MOL0     C14303   6.738   6.560   9.636 -0.0319  0.7400  0.6218
  829MOL0     C14304   6.824   6.613   9.519  0.2427  0.4232  0.8051
  829MOL0     C14305   6.968   6.565   9.542  0.1590  1.2892  0.3408
  829MOL0     C14306   7.047   6.593   9.411 -0.2500  0.2350 -0.1432
  829MOL0     C14307   7.176   6.516   9.413 -0.9626 -0.6436  0.4533
  829MOL0     C14308   7.264   6.547   9.291  0.6727 -0.2889  0.9270
  829MOL0    Cl14309   7.425   6.472   9.322  0.1861 -0.2994  0.2129
  829MOL0     C14310   6.436   6.448   9.243 -0.6023  1.0445  0.6394
  829MOL0     C14311   6.368   6.380   9.138 -0.1315  0.7775 -0.6512
  829MOL0     O14312   6.371   6.186   8.897  0.4959 -0.1831  0.0953
  829MOL0     C14313   6.039   6.059   8.947  0.5200 -0.1221  0.1889
  829MOL0     C14314   5.935   5.994   8.888 -0.6634  0.3319 -0.1622
  829MOL0     N14315   5.466   5.806   9.221  0.1272 -0.0466 -0.0630
  829MOL0     N14316   5.368   5.861   9.291 -0.4229 -0.1113 -0.3870
  829MOL0     C14317   4.457   4.971   9.396 -1.0613 -0.1251 -0.3438
  829MOL0     C14318   4.352   4.876   9.393  0.5751 -0.7716 -0.1896
  829MOL0     C14319   3.951   4.704   9.294  0.1348  0.4553 -0.1986
  829MOL0     C14320   3.963   4.663   9.159  1.0843  1.6980 -0.1814
  829MOL0     C14321   3.852   4.601   9.092 -0.2532  0.2860 -0.5437
  829MOL0     C14322   3.737   4.555   9.166  0.0430  0.2665 -0.7952
  829MOL0     O14323   3.634   4.473   9.117  0.4771  0.6048 -0.0517
  829MOL0     C14324   3.613   4.466   8.968 -0.3958  0.0759 -0.0569
  829MOL0     C14325   3.564   4.582   8.893 -0.4803 -0.2152  0.5837
  829MOL0     C14326   3.413   4.611   8.908 -0.0890  0.6430 -0.4104
  829MOL0     C14327   3.367   4.625   9.056  0.2154 -0.5052  0.0913
  829MOL0     C14328   3.243   4.694   9.055 -0.9127 -0.4024 -0.7533
  829MOL0     C14329   3.142   4.756   9.059  0.6429 -1.1335  0.2535
  829MOL0     C14330   3.732   4.589   9.305 -0.4912 -0.2072 -0.0892
  829MOL0     C14331   3.836   4.660   9.376 -0.6752  0.3074 -0.3352
  829MOL0     C14332   3.808   4.696   9.514 -0.1188 -0.1478  1.0384
  829MOL0     H14333   4.183   5.012   9.126 -0.7869  4.4570  1.4601
  829MOL0     H14334   4.372   5.169   9.152 -1.8521 -1.1331 -1.4323
  829MOL0     H14335   4.732   5.037   9.310  3.1628  0.2330  1.0539
  829MOL0     H14336   4.713   5.119   9.466 -1.2011 -2.7716  0.0169
  829MOL0     H14337   4.899   5.207   9.300 -1.5377 -1.5520 -0.4123
  829MOL0     H14338   4.758   5.304   9.240  0.2508  0.8618  0.0894
  829MOL0     H14339   4.729   5.381   9.489 -0.5023 -2.4211 -1.6327
  829MOL0     H14340   4.882   5.301   9.520 -0.9912 -1.9041  0.3294
  829MOL0     H14341   4.969   5.418   9.319 -0.8429 -3.3750  1.9733
  829MOL0     H14342   4.826   5.533   9.343 -0.7578 -0.3354 -0.8379
  829MOL0     H14343   5.040   5.469   9.554  1.0183  1.4375 -0.0139
  829MOL0     H14344   4.932   5.613   9.548 -0.9227  0.5309 -2.1420
  829MOL0     H14345   5.144   5.701   9.509 -2.7085 -1.2929  1.7476
  829MOL0     H14346   5.182   5.580   9.385 -0.0686 -1.1651  1.7314
  829MOL0     H14347   4.930   5.742   9.337 -0.7769 -0.2512 -0.7439
  829MOL0     H14348   5.033   5.659   9.224  0.0260 -0.0972 -0.3539
  829MOL0     H14349   5.051   5.887   9.189  0.2455 -2.1239 -0.0207
  829MOL0     H14350   5.104   5.931   9.347 -2.2839  1.4101 -1.3149
  829MOL0     H14351   5.210   5.684   9.051 -0.4005  0.2988  0.0333
  829MOL0     H14352   5.462   5.576   8.982  3.3570  0.5200 -5.3718
  829MOL0     H14353   5.595   5.621   9.074  2.6475  1.8274  0.0135
  829MOL0     H14354   5.466   5.709   8.820 -1.3009  1.6501  0.5063
  829MOL0     H14355   5.500   5.853   8.923  2.0620  1.5919 -4.0848
  829MOL0     H14356   5.731   5.763   8.944  0.2732 -0.1938 -0.6303
  829MOL0     H14357   5.707   5.665   8.793  0.4836  1.5771 -3.6967
  829MOL0     H14358   5.649   5.866   8.666  0.6280  1.6509 -0.9168
  829MOL0     H14359   5.688   5.964   8.800  0.7564  0.0989 -0.6351
  829MOL0     H14360   6.057   5.951   8.581 -0.2069  3.1633 -1.7472
  829MOL0     H14361   6.374   6.014   8.741 -2.7671  2.6707  2.8132
  829MOL0     H14362   6.313   6.148   8.639  2.1817  0.1868 -1.4061
  829MOL0     H14363   6.288   5.975   8.587 -2.7976 -0.8716  0.3387
  829MOL0     H14364   6.251   6.119   9.322  0.3517 -0.7182  0.7258
  829MOL0     H14365   6.371   6.238   9.502 -2.0747 -0.9881  0.1573
  829MOL0     H14366   6.599   6.633   9.426 -1.0238  1.2266  0.8207
  829MOL0     H14367   6.433   6.628   9.474 -0.2375 -0.8046 -1.5719
  829MOL0     H14368   6.590   6.716   9.646 -2.2643  0.5857  1.3305
  829MOL0     H14369   6.533   6.570   9.707  2.1759 -2.2543 -1.0592
  829MOL0     H14370   6.752   6.452   9.644  2.1753  0.9095 -0.3628
  829MOL0     H14371   6.783   6.596   9.730  0.0897 -1.7303  1.5792
  829MOL0     H14372   6.820   6.720   9.543 -1.9943  0.0909  2.1931
  829MOL0     H14373   6.786   6.575   9.424 -0.2407  2.3180  0.1962
  829MOL0     H14374   7.024   6.615   9.622  2.4243  1.1801 -1.0831
  829MOL0     H14375   6.965   6.456   9.555 -4.2754  1.1874  0.0964
  829MOL0     H14376   7.068   6.700   9.419  1.6671 -0.2287  2.1179
  829MOL0     H14377   6.989   6.570   9.322  0.1324 -1.5081  0.0278
  829MOL0     H14378   7.142   6.412   9.422 -4.9272  0.3788 -0.6901
  829MOL0     H14379   7.228   6.532   9.508  0.4772  0.7473 -0.5323
  829MOL0     H14380   7.283   6.655   9.289  4.3004 -0.8004  2.0072
  829MOL0     H14381   7.217   6.510   9.199 -5.2705  2.7182  2.2334
  829MOL0     H14382   6.477   6.548   9.232  2.3249 -0.2683 -2.2924
  829MOL0     H14383   6.359   6.419   9.037 -0.5289  0.3757 -0.7780
  829MOL0     H14384   6.014   6.102   9.044 -0.8325 -2.0318  0.7342
  829MOL0     H14385   5.837   5.991   8.936 -1.2311  1.3046 -1.2100
  829MOL0     H14386   4.517   4.975   9.487 -0.9478 -0.8996 -0.3768
  829MOL0     H14387   4.347   4.799   9.470 -1.1315  1.6241  2.2862
  829MOL0     H14388   4.049   4.693   9.100  0.3400  2.3475 -0.9654
  829MOL0     H14389   3.872   4.584   8.987 -1.3054  2.6541 -1.1893
  829MOL0     H14390   3.713   4.443   8.928 -1.0728 -1.1813 -1.1068
  829MOL0     H14391   3.563   4.373   8.940  5.8587 -3.6681 -0.9419
  829MOL0     H14392   3.591   4.568   8.787  0.0859 -2.2685  0.9535
  829MOL0     H14393   3.612   4.672   8.931  2.3093 -1.8612  1.2803
  829MOL0     H14394   3.381   4.699   8.852 -0.3417  1.3228  0.7887
  829MOL0     H14395   3.365   4.521   8.868  2.4062 -0.2733 -1.5658
  829MOL0     H14396   3.433   4.679   9.123 -0.8963 -1.0516  1.6808
  829MOL0     H14397   3.346   4.530   9.105 -4.8087  1.1258  1.6702
  829MOL0     H14398   3.048   4.806   9.049  1.4051  0.1850 -0.7779
  829MOL0     H14399   3.633   4.571   9.347 -0.9506 -3.4197 -2.2162
  829MOL0     H14400   3.706   4.667   9.544 -1.3696  0.4465 -2.1757
  829MOL0     H14401   3.873   4.645   9.585 -0.9056 -2.9243 -0.0820
  829MOL0     H14402   3.807   4.805   9.523 -0.8289 -0.1059  0.5823
  830MOL0     O14403   8.900   3.239   0.565  0.2756 -0.9770  0.5939
  830MOL0     C14404   8.851   3.238   0.679 -0.9934 -0.4708  0.6323
  830MOL0     O14405   8.920   3.256   0.786 -0.1634  0.4711 -0.3214
  830MOL0     C14406   9.058   3.253   0.779  0.6284 -0.6247 -0.5981
  830MOL0     C14407   9.135   3.368   0.799  1.4751 -0.1982  0.0578
  830MOL0     C14408   9.274   3.372   0.807  0.5653  0.4790  0.1038
  830MOL0     C14409   9.340   3.263   0.748 -1.3175  0.7111  0.7392
  830MOL0     O14410   9.482   3.254   0.752  0.0351  0.1269 -0.4563
  830MOL0     C14411   9.546   3.284   0.634  0.2656  0.2084  0.9891
  830MOL0     C14412   9.693   3.285   0.645 -0.2722 -0.1697 -0.1023
  830MOL0     C14413   9.738   3.143   0.684  0.3134 -0.5557  0.2762
  830MOL0     C14414   9.881   3.109   0.649  0.3700 -0.3015  0.0276
  830MOL0     C14415   9.978   3.224   0.662  0.0679 -0.0547  1.0020
  830MOL0     C14416  10.104   3.159   0.711  0.3484  0.5473 -1.3864
  830MOL0     C14417  10.226   3.250   0.695  0.0887 -0.0244  0.8328
  830MOL0     C14418  10.345   3.200   0.774  0.2644  0.0403 -0.1311
  830MOL0     N14419  10.464   3.293   0.780  0.1739 -0.2742 -0.4339
  830MOL0     C14420  10.564   3.321   0.691  0.0992  0.5397  0.1103
  830MOL0     C14421  10.664   3.372   0.764 -0.3767 -0.3076  0.5135
  830MOL0     C14422  10.789   3.411   0.682 -0.2784  0.7532 -0.2099
  830MOL0     C14423  10.898   3.313   0.695  0.0538  0.0764  1.3875
  830MOL0     C14424  11.013   3.369   0.611  0.0747 -0.0512  0.2994
  830MOL0     C14425  11.147   3.284   0.622  0.8027  0.0836 -0.3883
  830MOL0     O14426  11.229   3.296   0.508  0.9929  0.0550 -0.3224
  830MOL0     C14427  11.350   3.235   0.523 -0.0188 -0.2136  0.1161
  830MOL0     C14428  11.444   3.269   0.427 -0.3658 -0.1148  0.8549
  830MOL0     C14429  11.568   3.192   0.395  0.9032 -0.2558  0.4956
  830MOL0     C14430  11.650   3.229   0.276 -1.0176 -0.1448 -0.2182
  830MOL0     C14431  11.601   3.085   0.481  0.3126  0.0422  0.2937
  830MOL0     C14432  11.720   3.003   0.468 -0.4091  0.1168 -0.4198
  830MOL0     O14433  11.763   2.968   0.346 -0.4596  0.2389  0.3402
  830MOL0     C14434  11.864   2.881   0.320 -0.0193  0.2433  0.5596
  830MOL0     C14435  11.955   2.898   0.216 -0.5978 -0.0171 -0.7343
  830MOL0     C14436  12.047   2.804   0.185  0.0055  0.3327  0.5837
  830MOL0     C14437  12.063   2.689   0.256  0.3973 -0.6135 -0.5563
  830MOL0     O14438  12.144   2.596   0.208  0.1726  0.4471 -0.4538
  830MOL0     C14439  12.197   2.498   0.298  1.1763  0.8509  0.1188
  830MOL0     C14440  12.300   2.411   0.229 -0.2496  0.8626 -0.3000
  830MOL0     C14441  12.261   2.349   0.095  1.0684 -0.2904  0.4389
  830MOL0     C14442  12.335   2.214   0.071 -0.2766  0.1782  0.3147
  830MOL0     C14443  12.494   2.231   0.090 -0.1481  0.3470  0.6214
  830MOL0     C14444  12.560   2.092   0.083  0.0668  0.3429 -0.1082
  830MOL0     C14445  12.704   2.091   0.135  0.1977 -0.4130 -0.0075
  830MOL0     C14446  12.796   2.150   0.043 -1.3693  0.6920 -0.0796
  830MOL0    Cl14447  12.954   2.157   0.117 -0.0173  0.2658  0.3522
  830MOL0     C14448  11.988   2.675   0.377 -0.5064 -0.2267 -0.9318
  830MOL0     C14449  11.888   2.767   0.402  0.7416  0.2781 -0.3495
  830MOL0     O14450  11.782   2.991   0.576  1.0976  0.2489 -0.7022
  830MOL0     C14451  11.510   3.065   0.591  0.5680 -1.0498  0.6488
  830MOL0     C14452  11.391   3.135   0.607  0.5315 -0.2205  0.6727
  830MOL0     N14453  10.624   3.384   0.892 -0.1068  0.2424  0.0876
  830MOL0     N14454  10.504   3.341   0.901 -0.0712  0.4104  0.4656
  830MOL0     C14455   9.270   3.147   0.726  0.0364  0.9402 -1.0291
  830MOL0     C14456   9.136   3.143   0.742  1.1944 -0.4155 -0.3329
  830MOL0     C14457   8.708   3.210   0.692  0.4250  0.2946  0.6676
  830MOL0     C14458   8.654   3.182   0.823 -0.6585  0.1908  0.0540
  830MOL0     C14459   8.518   3.154   0.843 -0.6226  0.0207 -0.3379
  830MOL0     C14460   8.431   3.158   0.740  0.2647 -0.0311 -0.1041
  830MOL0     O14461   8.295   3.151   0.777 -0.1154  1.2929  0.1091
  830MOL0     C14462   8.204   3.184   0.680  0.1094  0.1851  0.4231
  830MOL0     C14463   8.085   3.239   0.731  0.4133 -0.0523  0.0082
  830MOL0     C14464   7.975   3.255   0.616  0.2937  1.1513 -0.4554
  830MOL0     C14465   7.850   3.301   0.684  0.8833 -0.2130  0.5641
  830MOL0     C14466   7.876   3.448   0.717 -0.1839  0.0200  0.1793
  830MOL0     C14467   7.893   3.561   0.736 -0.4370 -0.1005  0.2619
  830MOL0     C14468   8.482   3.183   0.612 -0.6096 -0.4548 -0.2953
  830MOL0     C14469   8.614   3.210   0.588  0.5269 -0.8052  0.9874
  830MOL0     C14470   8.647   3.242   0.440  0.3158  0.5383 -0.0632
  830MOL0     H14471   9.081   3.462   0.793 -0.8980 -1.5839 -2.1982
  830MOL0     H14472   9.326   3.465   0.824  2.5727 -0.1305 -2.0965
  830MOL0     H14473   9.513   3.385   0.610 -0.8407 -0.0103  1.5173
  830MOL0     H14474   9.513   3.216   0.555  0.4578 -3.2030  3.6128
  830MOL0     H14475   9.739   3.320   0.552  1.2396  1.8571  1.3308
  830MOL0     H14476   9.736   3.342   0.727  0.1187  0.3426 -0.6476
  830MOL0     H14477   9.722   3.146   0.792 -3.0833  1.1606 -0.1514
  830MOL0     H14478   9.678   3.069   0.631 -2.7305  2.0218 -0.1488
  830MOL0     H14479   9.905   3.031   0.721  2.1074  1.8548  1.9409
  830MOL0     H14480   9.884   3.067   0.548  1.4501 -1.5578  0.5551
  830MOL0     H14481   9.958   3.314   0.721 -2.4157  0.3422 -0.3419
  830MOL0     H14482  10.009   3.245   0.559  2.2088 -2.4685  1.0292
  830MOL0     H14483  10.086   3.139   0.817  3.3153 -1.7934 -1.1967
  830MOL0     H14484  10.105   3.061   0.663 -3.2926  0.1483 -0.9534
  830MOL0     H14485  10.195   3.350   0.726  2.1067  1.4301 -1.4133
  830MOL0     H14486  10.259   3.266   0.592  0.7974 -0.3504  1.0061
  830MOL0     H14487  10.313   3.194   0.878 -1.2773 -0.2846 -0.5937
  830MOL0     H14488  10.377   3.100   0.744  1.4335  0.2352  0.4198
  830MOL0     H14489  10.578   3.299   0.586 -2.3933  2.1923 -0.6512
  830MOL0     H14490  10.829   3.509   0.710 -1.2326  2.7854 -4.9957
  830MOL0     H14491  10.756   3.427   0.579 -0.3054  1.8883 -0.0470
  830MOL0     H14492  10.915   3.289   0.801 -2.4056  0.3728  1.9042
  830MOL0     H14493  10.864   3.222   0.646 -0.3312  0.5670  0.7327
  830MOL0     H14494  10.989   3.375   0.505  1.3632 -1.5905 -0.1191
  830MOL0     H14495  11.043   3.462   0.660  2.9956 -2.4286  3.5618
  830MOL0     H14496  11.195   3.305   0.718 -0.1471 -4.5292  1.3547
  830MOL0     H14497  11.120   3.178   0.616  0.3598  0.0749  1.2416
  830MOL0     H14498  11.420   3.344   0.353  2.0343 -1.7068 -1.7168
  830MOL0     H14499  11.757   3.207   0.285 -1.1134 -1.7416 -2.3780
  830MOL0     H14500  11.629   3.334   0.255  0.2259  0.5914  1.8884
  830MOL0     H14501  11.618   3.166   0.193  0.0118  1.7157 -2.1293
  830MOL0     H14502  11.942   2.986   0.153 -3.0011 -0.5549 -1.0732
  830MOL0     H14503  12.097   2.825   0.091 -1.1851 -2.5040 -0.8120
  830MOL0     H14504  12.243   2.548   0.383  1.1659 -0.8054  1.1369
  830MOL0     H14505  12.114   2.434   0.330  1.1858  1.2013  0.8519
  830MOL0     H14506  12.392   2.469   0.218  0.7445 -0.7758 -0.9367
  830MOL0     H14507  12.320   2.328   0.298  0.9303 -2.1965 -4.0076
  830MOL0     H14508  12.276   2.418   0.011  1.5307  1.0280  1.5856
  830MOL0     H14509  12.153   2.335   0.101  0.5096  0.2895 -4.2573
  830MOL0     H14510  12.324   2.188  -0.035 -1.5457  2.5347 -0.2188
  830MOL0     H14511  12.292   2.135   0.133  0.5475  0.3950  1.1734
  830MOL0     H14512  12.537   2.301   0.017  1.2640  0.3196  1.4044
  830MOL0     H14513  12.513   2.273   0.189  2.3119 -0.3727  0.5167
  830MOL0     H14514  12.561   2.066  -0.023  0.8016  2.0366 -0.5549
  830MOL0     H14515  12.500   2.022   0.142  2.2931 -0.6343  1.1489
  830MOL0     H14516  12.739   1.988   0.144  1.1516  0.0184  1.5697
  830MOL0     H14517  12.704   2.146   0.229  2.1148 -2.0896  1.0537
  830MOL0     H14518  12.762   2.252   0.023 -0.5172  1.3600  1.6321
  830MOL0     H14519  12.814   2.085  -0.043  0.7969  0.7335  0.2734
  830MOL0     H14520  11.980   2.585   0.438  3.6999 -0.1665  0.0279
  830MOL0     H14521  11.824   2.764   0.489 -1.4206 -1.1907 -1.8894
  830MOL0     H14522  11.523   2.981   0.659  1.5075  0.1694  2.0437
  830MOL0     H14523  11.316   3.094   0.673 -1.6525  1.0163 -0.9050
  830MOL0     H14524   9.327   3.057   0.706  2.5967  1.7061  1.9230
  830MOL0     H14525   9.091   3.048   0.716 -1.4189  0.5409  0.3868
  830MOL0     H14526   8.715   3.192   0.912 -2.8811  0.9789  1.5836
  830MOL0     H14527   8.484   3.136   0.944 -0.4823  0.8816 -0.1287
  830MOL0     H14528   8.233   3.277   0.631 -2.6139  0.2880 -1.2137
  830MOL0     H14529   8.192   3.109   0.600  3.6188 -0.1867  0.0905
  830MOL0     H14530   8.103   3.328   0.792 -0.1649  1.0293 -1.3415
  830MOL0     H14531   8.040   3.159   0.791  1.4335  0.9924  2.3192
  830MOL0     H14532   7.987   3.329   0.537  1.0623  1.6000  0.0713
  830MOL0     H14533   7.951   3.158   0.572 -1.2094  1.9642 -1.5291
  830MOL0     H14534   7.826   3.239   0.770  1.6486  1.0134  1.7051
  830MOL0     H14535   7.767   3.294   0.613  1.8226 -0.8469 -0.5190
  830MOL0     H14536   7.898   3.665   0.761  1.2570  0.1193 -0.8556
  830MOL0     H14537   8.413   3.180   0.529  2.6220 -1.0592 -3.2169
  830MOL0     H14538   8.729   3.315   0.434  0.1340  0.8394  0.8394
  830MOL0     H14539   8.670   3.151   0.384 -1.0623 -0.6086  1.1837
  830MOL0     H14540   8.566   3.286   0.381  0.7002 -1.3870 -2.1256
  831MOL0     O14541   6.897   1.632  11.000  0.0813  0.0810  0.4351
  831MOL0     C14542   6.778   1.664  11.028  0.1304  0.7672 -0.5386
  831MOL0     O14543   6.726   1.788  11.018  0.9675 -0.3894  0.1183
  831MOL0     C14544   6.820   1.890  10.983 -0.4173  0.6395 -0.3121
  831MOL0     C14545   6.905   1.889  10.867 -0.4629 -0.5092 -0.1729
  831MOL0     C14546   6.986   1.999  10.837  0.3442 -0.0879  0.3104
  831MOL0     C14547   6.989   2.105  10.932  0.0593  1.3662 -0.3051
  831MOL0     O14548   7.096   2.191  10.905 -0.2563 -0.1521 -0.1310
  831MOL0     C14549   7.126   2.298  11.000  0.8740  0.9271 -0.4730
  831MOL0     C14550   7.205   2.400  10.932 -0.1237  0.4700  0.5910
  831MOL0     C14551   7.127   2.477  10.830 -0.2832  0.2409  0.5330
  831MOL0     C14552   7.214   2.591  10.763 -0.3016  0.3721  0.2045
  831MOL0     C14553   7.119   2.702  10.704  0.2754  0.4774 -0.1274
  831MOL0     C14554   7.158   2.749  10.563  0.0075 -0.0914 -0.0256
  831MOL0     C14555   7.045   2.836  10.492  0.8972 -0.5023 -0.6213
  831MOL0     C14556   7.017   2.978  10.557 -0.1776  0.8984 -0.4231
  831MOL0     N14557   6.915   2.974  10.663 -0.0473  0.3105  0.6174
  831MOL0     C14558   6.775   2.975  10.655 -0.8785  0.0086 -0.3928
  831MOL0     C14559   6.746   2.999  10.786  0.4033  1.0905 -0.4409
  831MOL0     C14560   6.606   3.033  10.827 -0.2049 -0.3180 -0.1432
  831MOL0     C14561   6.525   2.911  10.856  0.6815 -0.0897  0.2554
  831MOL0     C14562   6.401   2.948  10.938  0.5699 -0.1697 -0.4210
  831MOL0     C14563   6.302   2.828  10.935 -0.4770  0.6621  0.3569
  831MOL0     O14564   6.256   2.795  10.802 -0.4563  0.1513 -0.4881
  831MOL0     C14565   6.218   2.663  10.784  0.1595 -0.3114  0.2204
  831MOL0     C14566   6.211   2.617  10.649  1.0873 -0.3659  0.0050
  831MOL0     C14567   6.184   2.491  10.610  0.4550  0.3997 -0.0182
  831MOL0     C14568   6.208   2.447  10.464  1.0667  0.0113  0.1444
  831MOL0     C14569   6.162   2.392  10.708  1.2336 -1.2936  0.2068
  831MOL0     C14570   6.160   2.239  10.689 -0.2179 -0.2197 -0.1955
  831MOL0     O14571   6.179   2.164  10.800  0.3699  0.2608 -0.5128
  831MOL0     C14572   6.181   2.037  10.790 -1.1654  0.4249 -0.5690
  831MOL0     C14573   6.304   1.972  10.830  0.0158 -0.2677 -0.6635
  831MOL0     C14574   6.302   1.826  10.835  1.4693 -0.8802  0.4857
  831MOL0     C14575   6.192   1.748  10.786  0.2766  0.1765 -1.1395
  831MOL0     O14576   6.204   1.613  10.787  0.2759  0.9035  0.2317
  831MOL0     C14577   6.113   1.536  10.705 -0.7904  0.4074  0.1586
  831MOL0     C14578   6.151   1.386  10.698  0.4208 -1.6525  0.6369
  831MOL0     C14579   6.284   1.378  10.619 -0.7139  0.6501 -0.0866
  831MOL0     C14580   6.350   1.239  10.627 -0.2626  0.0248  0.2189
  831MOL0     C14581   6.507   1.261  10.630  1.3386 -0.3188 -0.7314
  831MOL0     C14582   6.587   1.132  10.617  0.0670  0.1555  0.1551
  831MOL0     C14583   6.729   1.192  10.621  0.6688 -0.4162  0.2543
  831MOL0     C14584   6.825   1.084  10.577 -0.4015 -0.0747  0.2209
  831MOL0    Cl14585   6.803   0.955  10.693  0.0730  0.2073  0.5594
  831MOL0     C14586   6.079   1.818  10.742  0.4399 -0.1301  0.0425
  831MOL0     C14587   6.073   1.962  10.744 -0.5918 -0.7347  0.4580
  831MOL0     O14588   6.151   2.201  10.575 -0.0237 -0.5677 -0.2798
  831MOL0     C14589   6.161   2.443  10.845  0.4478 -0.0912 -0.3274
  831MOL0     C14590   6.181   2.569  10.880  0.5151 -0.0588  0.0441
  831MOL0     N14591   6.864   3.013  10.861  0.8008 -0.7677  0.0652
  831MOL0     N14592   6.963   2.997  10.785 -0.0337 -0.0932 -0.1363
  831MOL0     C14593   6.904   2.111  11.037 -0.8378  0.0232 -0.0358
  831MOL0     C14594   6.810   2.009  11.057  0.0902 -0.4575  0.0796
  831MOL0     C14595   6.693   1.552  11.060 -0.4648 -0.1868  0.0128
  831MOL0     C14596   6.572   1.539  10.999  0.3392  0.5301 -0.6320
  831MOL0     C14597   6.484   1.436  11.025  0.5448 -0.5948  0.0678
  831MOL0     C14598   6.520   1.324  11.098 -0.2524 -0.3796 -0.1653
  831MOL0     O14599   6.448   1.215  11.123  0.1861  1.1521 -0.8030
  831MOL0     C14600   6.309   1.206  11.095 -0.3549  0.4925 -0.1079
  831MOL0     C14601   6.216   1.276  11.200  0.0474 -0.1401 -0.3273
  831MOL0     C14602   6.261   1.243  11.341  0.5105 -0.6735  0.5583
  831MOL0     C14603   6.147   1.228  11.438 -0.2518 -1.4431 -0.1044
  831MOL0     C14604   6.193   1.254  11.577 -0.2767  0.6507 -0.6751
  831MOL0     C14605   6.230   1.274  11.696 -0.3691 -0.5359 -0.4118
  831MOL0     C14606   6.646   1.324  11.144 -0.4740 -0.7551  0.4768
  831MOL0     C14607   6.730   1.432  11.135 -0.8662 -0.6725 -0.6617
  831MOL0     C14608   6.862   1.424  11.213 -1.0798  0.4507 -0.4466
  831MOL0     H14609   6.930   1.798  10.814  0.9928  0.2090 -0.7994
  831MOL0     H14610   7.044   1.990  10.745 -1.4205  0.0989 -0.8818
  831MOL0     H14611   7.189   2.260  11.081 -0.8301 -3.6050 -0.9887
  831MOL0     H14612   7.035   2.335  11.049 -0.1335 -0.9712 -0.8148
  831MOL0     H14613   7.252   2.462  11.009 -0.3878 -0.3239  1.4257
  831MOL0     H14614   7.298   2.362  10.888  1.1481  0.8393  2.8017
  831MOL0     H14615   7.080   2.406  10.761  1.1564 -0.3971  0.1590
  831MOL0     H14616   7.049   2.523  10.891 -0.4604  1.5833 -0.6686
  831MOL0     H14617   7.274   2.629  10.845 -2.6157 -0.2433  2.2940
  831MOL0     H14618   7.279   2.543  10.689 -3.9172 -2.6484 -1.3444
  831MOL0     H14619   7.118   2.794  10.762 -2.0603  0.5193 -0.1218
  831MOL0     H14620   7.017   2.661  10.704  0.4760 -0.4636  4.0476
  831MOL0     H14621   7.254   2.802  10.562  2.1255 -3.5618 -0.0382
  831MOL0     H14622   7.165   2.661  10.499  1.2551  1.2706 -1.8414
  831MOL0     H14623   6.945   2.794  10.480 -0.6114  2.9200 -1.1918
  831MOL0     H14624   7.081   2.856  10.391 -0.4915  0.6489 -0.9164
  831MOL0     H14625   7.115   3.020  10.583 -0.3875  1.6324 -0.7724
  831MOL0     H14626   6.966   3.044  10.486 -1.3454 -1.5164 -1.9650
  831MOL0     H14627   6.713   2.972  10.566  2.1114 -1.9518 -2.5968
  831MOL0     H14628   6.553   3.088  10.748  0.1467  0.3014  0.0471
  831MOL0     H14629   6.608   3.086  10.923 -1.4904 -1.7351  0.7024
  831MOL0     H14630   6.492   2.861  10.765 -0.0447  0.0814  0.4254
  831MOL0     H14631   6.581   2.829  10.901  1.5839 -0.0184 -0.6983
  831MOL0     H14632   6.428   2.968  11.042  0.6824 -2.2740  0.0031
  831MOL0     H14633   6.351   3.039  10.902 -2.1589 -1.3361  0.1525
  831MOL0     H14634   6.353   2.741  10.979 -1.0287 -0.3215 -0.8982
  831MOL0     H14635   6.215   2.861  10.992 -0.4137  1.0292  0.2378
  831MOL0     H14636   6.217   2.683  10.563 -0.3848 -2.4198 -1.7761
  831MOL0     H14637   6.201   2.530  10.394 -0.2883 -0.2422 -0.0385
  831MOL0     H14638   6.121   2.386  10.437  0.8101  0.4748 -0.0867
  831MOL0     H14639   6.299   2.388  10.447  0.9330 -0.0785 -0.2879
  831MOL0     H14640   6.391   2.031  10.855 -0.8450 -0.0028  2.0189
  831MOL0     H14641   6.390   1.770  10.865  0.5789 -3.7655 -1.8381
  831MOL0     H14642   6.015   1.539  10.752 -1.3107 -0.1803 -0.8413
  831MOL0     H14643   6.102   1.571  10.602  1.8429 -1.1165 -0.7604
  831MOL0     H14644   6.156   1.360  10.804  2.7016  0.6379  1.1991
  831MOL0     H14645   6.068   1.341  10.643 -0.9069  0.9266  0.4266
  831MOL0     H14646   6.357   1.451  10.655  1.8212 -2.2920  1.2176
  831MOL0     H14647   6.261   1.400  10.514 -2.0939 -0.3157 -0.0172
  831MOL0     H14648   6.312   1.164  10.558  0.6625  0.1780 -0.4701
  831MOL0     H14649   6.334   1.202  10.729  0.5827 -0.2063  0.2749
  831MOL0     H14650   6.529   1.337  10.555  0.5353 -0.5108 -1.1808
  831MOL0     H14651   6.519   1.301  10.731 -0.3909  0.2270 -0.7131
  831MOL0     H14652   6.577   1.078  10.522  0.5173  1.6756 -0.7916
  831MOL0     H14653   6.567   1.068  10.704  1.6737  0.6377  0.9138
  831MOL0     H14654   6.751   1.225  10.723 -2.2059 -0.6658  1.0451
  831MOL0     H14655   6.740   1.266  10.542 -0.0413 -2.7861 -2.2287
  831MOL0     H14656   6.926   1.122  10.592 -0.8009  0.6966  1.1136
  831MOL0     H14657   6.825   1.057  10.471  3.3523  2.1089 -0.5279
  831MOL0     H14658   5.995   1.765  10.700 -0.3296  2.5860 -2.1435
  831MOL0     H14659   5.993   2.011  10.690  0.2985 -0.9463 -1.1218
  831MOL0     H14660   6.127   2.374  10.921  3.2996 -1.6264 -0.2962
  831MOL0     H14661   6.165   2.594  10.984 -3.3309  0.0551 -0.4216
  831MOL0     H14662   6.911   2.178  11.122 -1.5024 -1.4083  1.2160
  831MOL0     H14663   6.732   2.022  11.131  0.1723  1.7252 -0.1325
  831MOL0     H14664   6.537   1.628  10.948  0.9687  2.6004  2.2961
  831MOL0     H14665   6.383   1.447  10.986  0.9975  1.6975 -0.6495
  831MOL0     H14666   6.296   1.247  10.994 -3.4011 -0.1638 -0.0795
  831MOL0     H14667   6.289   1.098  11.096  1.2492  0.1620  1.4035
  831MOL0     H14668   6.117   1.235  11.180  0.0635  0.1384 -0.9993
  831MOL0     H14669   6.221   1.385  11.192 -0.3683  0.0211  1.2015
  831MOL0     H14670   6.316   1.150  11.352  0.5780 -0.7841 -0.5809
  831MOL0     H14671   6.334   1.319  11.371 -0.6054  0.3344  0.8073
  831MOL0     H14672   6.126   1.121  11.426 -4.8359 -0.7250  0.0269
  831MOL0     H14673   6.060   1.292  11.425 -1.4432 -3.0569 -0.3983
  831MOL0     H14674   6.263   1.295  11.795 -3.3604  2.7404  0.0609
  831MOL0     H14675   6.702   1.240  11.183 -1.7693 -1.0503  1.7722
  831MOL0     H14676   6.876   1.323  11.253  1.2350  1.0697  0.4403
  831MOL0     H14677   6.946   1.440  11.145 -1.2636 -0.7807 -0.9864
  831MOL0     H14678   6.863   1.501  11.291 -0.2040  1.1486 -1.1296
  832MOL0     O14679   7.803   9.762   6.324  0.0756 -0.7111 -0.6920
  832MOL0     C14680   7.882   9.853   6.354  1.0035  0.3671 -0.3561
  832MOL0     O14681   7.848   9.958   6.431 -0.5680  0.4428 -0.0648
  832MOL0     C14682   7.713   9.969   6.473  0.7512 -0.1401  0.1751
  832MOL0     C14683   7.677   9.916   6.595  0.1269 -0.1226 -0.0618
  832MOL0     C14684   7.549   9.933   6.639 -0.0498 -0.1154  0.1455
  832MOL0     C14685   7.454   9.994   6.553  0.2321 -0.2601  0.3019
  832MOL0     O14686   7.328  10.015   6.596  0.8228 -1.0552  0.4356
  832MOL0     C14687   7.323  10.119   6.693  0.3656  0.5765 -0.1924
  832MOL0     C14688   7.214  10.221   6.663  0.1321 -0.5902  0.0685
  832MOL0     C14689   7.230  10.317   6.534 -0.7808  0.4273 -0.4539
  832MOL0     C14690   7.125  10.417   6.513  0.0373 -0.2637  0.3651
  832MOL0     C14691   7.106  10.446   6.364  0.0686  0.2495 -0.6448
  832MOL0     C14692   7.206  10.531   6.298 -0.0234  0.4550  0.4866
  832MOL0     C14693   7.189  10.534   6.148  0.4290  0.1299  0.0346
  832MOL0     C14694   7.228  10.406   6.075  0.7207 -0.9204 -0.5512
  832MOL0     N14695   7.373  10.370   6.082  1.1554 -0.4838  0.1609
  832MOL0     C14696   7.471  10.448   6.019 -0.1230  1.1743  0.4448
  832MOL0     C14697   7.576  10.358   5.998  0.8990  0.5276 -0.3452
  832MOL0     C14698   7.711  10.394   5.939 -0.1494  1.0757 -0.2363
  832MOL0     C14699   7.797  10.469   6.049  0.2195  0.4438 -0.4140
  832MOL0     C14700   7.814  10.392   6.176 -0.1942  0.7845 -0.2069
  832MOL0     C14701   7.910  10.452   6.282  0.7366  0.1618 -0.6331
  832MOL0     O14702   7.910  10.377   6.415 -0.5127 -0.7909 -0.2734
  832MOL0     C14703   7.806  10.399   6.505  0.3764 -0.2430  0.3384
  832MOL0     C14704   7.803  10.311   6.618  0.9795 -0.0094 -0.2626
  832MOL0     C14705   7.694  10.324   6.706  0.0950 -0.2674  0.1464
  832MOL0     C14706   7.706  10.231   6.821  0.6605 -0.5200  0.3110
  832MOL0     C14707   7.589  10.421   6.690  0.1683 -0.7068  0.8382
  832MOL0     C14708   7.476  10.442   6.779  0.3675 -0.3881 -0.0965
  832MOL0     O14709   7.472  10.362   6.891 -0.4607  0.2567  0.2115
  832MOL0     C14710   7.375  10.358   6.991  0.3947  0.5026  0.3979
  832MOL0     C14711   7.390  10.236   7.056 -0.5385 -0.0613 -0.4212
  832MOL0     C14712   7.315  10.217   7.163 -0.1181 -1.1124  0.1760
  832MOL0     C14713   7.217  10.312   7.210 -0.1933 -0.0614 -0.1056
  832MOL0     O14714   7.148  10.289   7.325  0.1155 -0.0394  0.3508
  832MOL0     C14715   7.056  10.380   7.381  0.0125  0.1591 -0.1250
  832MOL0     C14716   6.995  10.317   7.509 -0.6692  0.9671 -0.1041
  832MOL0     C14717   6.887  10.410   7.580 -0.0125  0.6093  0.6308
  832MOL0     C14718   6.850  10.350   7.708 -0.4681  0.5434 -0.2923
  832MOL0     C14719   6.743  10.439   7.790 -0.1768 -0.2713 -0.3486
  832MOL0     C14720   6.624  10.483   7.701  0.0052  0.2946 -0.4715
  832MOL0     C14721   6.531  10.371   7.666 -1.2204  0.7280 -0.2488
  832MOL0     C14722   6.447  10.308   7.780  0.5987 -0.1228  0.7728
  832MOL0    Cl14723   6.315  10.428   7.818  0.1971 -0.2955 -0.2272
  832MOL0     C14724   7.196  10.435   7.132  0.9256  0.7919 -1.2953
  832MOL0     C14725   7.272  10.451   7.012 -0.1601  0.1755  0.0918
  832MOL0     O14726   7.404  10.544   6.764 -0.4958  0.0472 -0.2005
  832MOL0     C14727   7.595  10.501   6.574  0.0895 -1.0943  0.0666
  832MOL0     C14728   7.703  10.494   6.486  0.2871  0.6549  0.4758
  832MOL0     N14729   7.537  10.232   6.061  0.2659 -0.3040  0.9040
  832MOL0     N14730   7.419  10.244   6.112  0.8462  1.0521  0.1342
  832MOL0     C14731   7.490  10.032   6.418  0.5863  0.4747 -0.0076
  832MOL0     C14732   7.624  10.028   6.382 -0.7032  0.0049  0.4268
  832MOL0     C14733   8.020   9.856   6.308  0.1374  1.3060 -0.3101
  832MOL0     C14734   8.078   9.722   6.283 -0.1968  0.1572  0.2970
  832MOL0     C14735   8.209   9.715   6.225  0.7055  0.3136  0.3708
  832MOL0     C14736   8.287   9.827   6.200  1.0196  0.5628  1.7644
  832MOL0     O14737   8.409   9.812   6.143 -0.3896 -0.3045  0.0811
  832MOL0     C14738   8.467   9.918   6.057  0.0289 -0.0461 -0.8374
  832MOL0     C14739   8.386   9.947   5.930  0.3740 -0.0394  0.3684
  832MOL0     C14740   8.474  10.032   5.832  0.9473  0.3647  1.0404
  832MOL0     C14741   8.388  10.106   5.730 -0.4421 -0.2050  0.2277
  832MOL0     C14742   8.471  10.209   5.656 -0.1633  0.9619 -0.2078
  832MOL0     C14743   8.546  10.281   5.597 -0.4036 -0.2421 -0.2736
  832MOL0     C14744   8.232   9.950   6.227 -0.2628 -0.5076 -0.0037
  832MOL0     C14745   8.097   9.968   6.279 -0.5412  0.1581  0.7364
  832MOL0     C14746   8.045  10.110   6.288  0.7922 -0.3666 -0.0507
  832MOL0     H14747   7.762   9.892   6.658  0.7726 -2.1888 -1.6145
  832MOL0     H14748   7.521   9.893   6.735  1.3944 -0.5581  0.4007
  832MOL0     H14749   7.421  10.167   6.701  0.7026 -0.3331  1.4979
  832MOL0     H14750   7.296  10.075   6.789  1.3033 -0.9098 -0.5763
  832MOL0     H14751   7.120  10.166   6.671  0.2957 -0.7790  0.7743
  832MOL0     H14752   7.212  10.282   6.754  0.5405  3.5470 -2.4303
  832MOL0     H14753   7.325  10.371   6.542 -1.6068  2.0312 -0.9695
  832MOL0     H14754   7.240  10.250   6.448  2.0293 -0.8452  0.7308
  832MOL0     H14755   7.028  10.385   6.552 -0.8753  0.7300 -0.9924
  832MOL0     H14756   7.148  10.506   6.573  0.7594  0.0603 -0.3814
  832MOL0     H14757   7.007  10.489   6.343 -0.3913 -1.0252 -1.1649
  832MOL0     H14758   7.083  10.348   6.321  1.0845 -0.7498  0.9828
  832MOL0     H14759   7.199  10.636   6.326  0.9925  0.0417  2.5141
  832MOL0     H14760   7.310  10.509   6.325  0.6557  0.4840 -1.8568
  832MOL0     H14761   7.266  10.605   6.119  2.9917 -1.3510  2.6571
  832MOL0     H14762   7.090  10.571   6.121  0.6738 -0.0265 -1.1542
  832MOL0     H14763   7.173  10.320   6.115 -2.1459  0.8026 -0.5287
  832MOL0     H14764   7.195  10.408   5.970  0.6868  1.1042 -0.5278
  832MOL0     H14765   7.478  10.550   5.983  1.3927  1.5004  1.5274
  832MOL0     H14766   7.712  10.456   5.849  0.9594  2.2974  0.5711
  832MOL0     H14767   7.767  10.305   5.909  2.3039  1.8538  1.7275
  832MOL0     H14768   7.898  10.471   6.007 -0.3975 -0.5483 -2.0658
  832MOL0     H14769   7.769  10.572   6.072  0.2233  0.1130  1.2024
  832MOL0     H14770   7.718  10.389   6.229 -0.1837 -3.8007 -0.0843
  832MOL0     H14771   7.849  10.289   6.169  1.5497  1.2412  1.1780
  832MOL0     H14772   8.010  10.461   6.239  0.3037  1.6415 -1.3701
  832MOL0     H14773   7.890  10.559   6.286 -0.7140 -0.1108  0.5078
  832MOL0     H14774   7.879  10.233   6.620  0.7673 -0.2055  1.1310
  832MOL0     H14775   7.725  10.283   6.916  4.3774 -2.5396  0.8674
  832MOL0     H14776   7.776  10.149   6.802 -0.5183 -1.3301 -0.7432
  832MOL0     H14777   7.604  10.191   6.827 -0.6748  2.6931  0.9823
  832MOL0     H14778   7.469  10.164   7.038  0.4874 -0.0656  3.3087
  832MOL0     H14779   7.312  10.121   7.213 -2.1442 -2.5140 -2.3996
  832MOL0     H14780   7.092  10.482   7.400  1.0915 -0.3808  0.7940
  832MOL0     H14781   6.979  10.406   7.307  0.2057  0.8293 -0.0976
  832MOL0     H14782   6.945  10.223   7.484  3.0938 -0.7069 -2.1223
  832MOL0     H14783   7.077  10.296   7.578 -1.0770 -0.0307  0.0882
  832MOL0     H14784   6.807  10.418   7.505  1.0956 -1.1742 -0.8252
  832MOL0     H14785   6.927  10.511   7.593  0.9617  0.1613  1.2448
  832MOL0     H14786   6.942  10.335   7.766  1.8163 -1.7331 -4.0904
  832MOL0     H14787   6.818  10.249   7.685 -2.0138  1.1684 -0.9749
  832MOL0     H14788   6.702  10.381   7.873 -1.5576 -0.1102 -0.8888
  832MOL0     H14789   6.782  10.532   7.832 -2.0029  0.0644  0.6941
  832MOL0     H14790   6.655  10.532   7.609  0.2107  0.3470 -0.3762
  832MOL0     H14791   6.578  10.558   7.765  0.3210  0.5166 -0.4990
  832MOL0     H14792   6.576  10.285   7.616 -0.1994 -0.2191  2.1567
  832MOL0     H14793   6.458  10.408   7.593 -3.6192 -0.4207  1.4325
  832MOL0     H14794   6.497  10.282   7.874 -0.1407  0.9811  1.4857
  832MOL0     H14795   6.394  10.224   7.733 -2.2279  1.8673  0.1732
  832MOL0     H14796   7.118  10.507   7.157 -0.5611 -2.0460  3.5829
  832MOL0     H14797   7.245  10.540   6.955 -0.5782 -0.4654 -0.7411
  832MOL0     H14798   7.511  10.561   6.540 -1.4716 -3.5026 -0.5930
  832MOL0     H14799   7.702  10.557   6.398 -0.3487  1.2074  0.8751
  832MOL0     H14800   7.414  10.053   6.344 -0.4473 -2.9421 -0.0973
  832MOL0     H14801   7.670  10.058   6.288  0.7922 -0.8435  0.8552
  832MOL0     H14802   8.020   9.631   6.293  0.9657 -0.4582  1.8504
  832MOL0     H14803   8.262   9.622   6.205  1.1534  0.3107  1.5261
  832MOL0     H14804   8.487  10.013   6.107 -1.0091  0.6423 -1.6728
  832MOL0     H14805   8.564   9.880   6.023  0.6687  0.0891  0.7717
  832MOL0     H14806   8.297  10.005   5.956  0.9727  2.2436 -2.1306
  832MOL0     H14807   8.364   9.846   5.894  1.1357 -1.2334  3.0422
  832MOL0     H14808   8.535  10.104   5.887  2.0258  1.1241 -1.0561
  832MOL0     H14809   8.537   9.962   5.777  0.0855  1.3910 -1.3876
  832MOL0     H14810   8.296  10.154   5.763 -2.7547 -2.6123 -2.2234
  832MOL0     H14811   8.361  10.030   5.656  1.0623 -0.7996  0.2513
  832MOL0     H14812   8.617  10.340   5.544  0.5677  1.8542  3.0624
  832MOL0     H14813   8.284  10.045   6.219 -1.1499 -0.1587 -2.4710
  832MOL0     H14814   7.946  10.121   6.242  0.9969 -0.4341 -0.5052
  832MOL0     H14815   8.035  10.127   6.396 -0.3068  0.8797 -0.3276
  832MOL0     H14816   8.116  10.184   6.250  0.3418  1.3624  2.1962
  833MOL0     O14817   0.615   4.702   6.005  0.5783  0.2121  0.0792
  833MOL0     C14818   0.630   4.726   5.882 -0.1142 -0.5246  0.2999
  833MOL0     O14819   0.543   4.792   5.800  0.8926 -0.2138  0.4670
  833MOL0     C14820   0.439   4.877   5.842 -1.0171 -0.6008 -1.4039
  833MOL0     C14821   0.454   4.957   5.959 -0.4163 -0.6202 -0.3660
  833MOL0     C14822   0.352   5.034   6.001 -0.0104 -0.9672  0.3466
  833MOL0     C14823   0.233   5.061   5.933  1.1438  0.7858 -0.5421
  833MOL0     O14824   0.158   5.163   5.984 -0.2329 -0.4490 -1.1205
  833MOL0     C14825   0.051   5.223   5.902 -0.0138  1.1696  0.4467
  833MOL0     C14826  -0.003   5.360   5.945  0.0854  0.2568  0.1419
  833MOL0     C14827  -0.081   5.353   6.078 -0.3988 -0.5222  0.2117
  833MOL0     C14828  -0.119   5.498   6.114  0.4289  0.0421 -0.1689
  833MOL0     C14829  -0.189   5.499   6.260 -0.1556  0.2127  1.2947
  833MOL0     C14830  -0.208   5.640   6.312 -0.3993 -0.6346 -0.5595
  833MOL0     C14831  -0.308   5.719   6.217 -0.1860 -0.4127  0.5848
  833MOL0     C14832  -0.328   5.870   6.260 -0.2894 -0.3132 -0.5290
  833MOL0     N14833  -0.460   5.877   6.328 -0.3112  0.6696  0.4190
  833MOL0     C14834  -0.491   5.808   6.441 -0.1747 -0.1860  0.7078
  833MOL0     C14835  -0.631   5.813   6.450  0.1667 -1.0605  1.1568
  833MOL0     C14836  -0.704   5.770   6.571 -0.2588 -0.2086  0.0301
  833MOL0     C14837  -0.825   5.692   6.537 -0.1519  0.1985 -0.1268
  833MOL0     C14838  -0.905   5.657   6.663 -0.9348  0.5559 -0.0937
  833MOL0     C14839  -1.043   5.608   6.625  0.4591  0.5119 -0.2985
  833MOL0     O14840  -1.121   5.701   6.545 -0.3851 -0.4852  0.2203
  833MOL0     C14841  -1.207   5.648   6.445  0.2384  0.7608 -0.3061
  833MOL0     C14842  -1.207   5.514   6.394 -0.4480 -0.0712  0.1923
  833MOL0     C14843  -1.292   5.471   6.283  0.2906 -0.1113  0.1311
  833MOL0     C14844  -1.292   5.327   6.249 -0.2035 -0.6280  0.3368
  833MOL0     C14845  -1.355   5.576   6.210 -0.1321  0.2267  0.6304
  833MOL0     C14846  -1.439   5.544   6.089  0.0953  0.8005 -0.1755
  833MOL0     O14847  -1.420   5.430   6.025  0.0551  0.6647 -0.2032
  833MOL0     C14848  -1.510   5.378   5.939 -0.4008 -0.8617 -0.1789
  833MOL0     C14849  -1.645   5.350   5.978  0.1294  0.0605 -0.7379
  833MOL0     C14850  -1.738   5.308   5.883  0.5154 -0.1610  0.6233
  833MOL0     C14851  -1.708   5.308   5.745 -0.0684 -0.0853  0.6803
  833MOL0     O14852  -1.796   5.286   5.644  0.5974 -0.3480 -0.3883
  833MOL0     C14853  -1.887   5.167   5.635  0.2845  0.3798 -0.7802
  833MOL0     C14854  -1.836   5.055   5.540  0.2383  0.5279 -0.1261
  833MOL0     C14855  -1.678   5.043   5.535  0.0437  0.4441  0.0142
  833MOL0     C14856  -1.653   4.906   5.484  0.0874  0.1012  0.1396
  833MOL0     C14857  -1.495   4.895   5.456  1.2357  0.6303 -0.1971
  833MOL0     C14858  -1.460   4.750   5.439 -0.2525  0.0153 -0.2014
  833MOL0     C14859  -1.320   4.732   5.385  0.2962  0.0631 -0.9196
  833MOL0     C14860  -1.293   4.735   5.231  0.5490  0.4456  0.5544
  833MOL0    Cl14861  -1.320   4.571   5.153  0.0077  0.4493 -0.7353
  833MOL0     C14862  -1.576   5.342   5.711 -0.6853 -0.5213 -0.2653
  833MOL0     C14863  -1.473   5.356   5.809  0.8119  0.4838  0.0163
  833MOL0     O14864  -1.510   5.640   6.056  0.7255 -0.0638  0.7692
  833MOL0     C14865  -1.354   5.713   6.261  0.1328 -0.0673  0.0509
  833MOL0     C14866  -1.283   5.745   6.380 -0.7548  0.0042 -0.7342
  833MOL0     N14867  -0.678   5.888   6.347  0.4758  0.5506 -0.5370
  833MOL0     N14868  -0.577   5.914   6.272 -0.2118 -0.2640  0.5868
  833MOL0     C14869   0.224   4.993   5.813  0.3415  0.7700  0.6157
  833MOL0     C14870   0.329   4.901   5.772  0.5013 -0.0822  0.4156
  833MOL0     C14871   0.752   4.689   5.811  0.3145 -0.4706 -0.5028
  833MOL0     C14872   0.814   4.770   5.713  0.7195 -0.2530 -0.1932
  833MOL0     C14873   0.934   4.743   5.661 -0.5556  0.5645 -0.6501
  833MOL0     C14874   1.008   4.627   5.694  0.1518  0.0981 -0.3712
  833MOL0     O14875   1.134   4.593   5.649  0.6947  0.0775  0.3437
  833MOL0     C14876   1.188   4.651   5.524 -0.4156 -0.4809  0.0666
  833MOL0     C14877   1.260   4.781   5.549  0.7045  0.5407  1.3035
  833MOL0     C14878   1.333   4.831   5.424  0.5194  0.1754 -0.0591
  833MOL0     C14879   1.347   4.984   5.428  0.8000  0.0438  0.4026
  833MOL0     C14880   1.214   5.049   5.398 -0.5689  0.9047 -0.3854
  833MOL0     C14881   1.106   5.093   5.381 -0.1424  0.1607 -0.0604
  833MOL0     C14882   0.955   4.541   5.782  0.1609 -0.7875  0.3142
  833MOL0     C14883   0.821   4.568   5.838  0.0761 -0.6647 -0.4075
  833MOL0     C14884   0.767   4.454   5.920 -0.3203  1.1868  0.4330
  833MOL0     H14885   0.536   4.942   6.028 -1.4511  0.3924  1.1336
  833MOL0     H14886   0.352   5.083   6.098 -0.0156 -1.0087  0.3677
  833MOL0     H14887  -0.028   5.150   5.924  0.9576  0.2976  1.1426
  833MOL0     H14888   0.077   5.224   5.796 -2.7623 -1.2676 -0.3908
  833MOL0     H14889   0.081   5.431   5.943  1.5295 -1.3841 -1.0452
  833MOL0     H14890  -0.070   5.401   5.870  1.1467 -1.1065 -1.6378
  833MOL0     H14891  -0.180   5.307   6.076  0.1451 -1.7482  0.2375
  833MOL0     H14892  -0.020   5.302   6.153 -1.1224 -0.6538  0.7129
  833MOL0     H14893  -0.030   5.562   6.121 -0.1951  0.8702  0.3962
  833MOL0     H14894  -0.187   5.544   6.042  0.7143 -2.6696 -2.3417
  833MOL0     H14895  -0.130   5.439   6.329  1.9272  0.8419  0.1340
  833MOL0     H14896  -0.282   5.445   6.236 -0.5113  1.4745 -0.3453
  833MOL0     H14897  -0.241   5.621   6.414 -3.1273  2.5917 -0.6638
  833MOL0     H14898  -0.104   5.675   6.320 -0.7295  0.3855 -0.6118
  833MOL0     H14899  -0.405   5.669   6.206 -0.7085  0.9926 -2.2387
  833MOL0     H14900  -0.267   5.727   6.116  1.6463  1.3499  1.4148
  833MOL0     H14901  -0.257   5.902   6.335 -0.6375 -1.0857  0.1490
  833MOL0     H14902  -0.346   5.928   6.169 -0.0600  1.9118  0.7861
  833MOL0     H14903  -0.417   5.758   6.503  2.9261  0.5879 -2.1045
  833MOL0     H14904  -0.736   5.860   6.623 -2.1786 -0.7782 -0.0939
  833MOL0     H14905  -0.642   5.705   6.634 -3.7121 -4.7292 -0.6848
  833MOL0     H14906  -0.892   5.755   6.477 -1.5632 -2.5178 -1.5793
  833MOL0     H14907  -0.798   5.598   6.489 -2.3781 -1.0500  0.8832
  833MOL0     H14908  -0.847   5.584   6.720 -0.8185 -0.6094 -1.6405
  833MOL0     H14909  -0.914   5.746   6.726 -0.2219  1.4004 -1.1613
  833MOL0     H14910  -1.021   5.516   6.570  1.6916  1.4716 -1.4909
  833MOL0     H14911  -1.096   5.601   6.720 -0.7150  1.7561 -0.8117
  833MOL0     H14912  -1.158   5.432   6.447  2.9970  0.1909 -2.2727
  833MOL0     H14913  -1.394   5.305   6.215  0.1730  0.7936 -1.9005
  833MOL0     H14914  -1.265   5.257   6.329  1.0222  2.3952  2.7532
  833MOL0     H14915  -1.223   5.312   6.165  1.5836 -3.0657  2.0949
  833MOL0     H14916  -1.668   5.363   6.083  0.3411  3.3515 -0.9728
  833MOL0     H14917  -1.838   5.271   5.904 -0.1867  1.2825 -0.0761
  833MOL0     H14918  -1.884   5.121   5.734 -0.3727  0.1251 -0.8733
  833MOL0     H14919  -1.989   5.194   5.604  1.0639  1.1472 -2.8126
  833MOL0     H14920  -1.878   4.964   5.583  0.8630  0.2601 -0.0754
  833MOL0     H14921  -1.872   5.064   5.438 -0.5279  4.6471  0.3263
  833MOL0     H14922  -1.629   5.043   5.633  0.6353 -3.1743 -0.1290
  833MOL0     H14923  -1.641   5.123   5.472  0.5487 -0.4442 -0.8395
  833MOL0     H14924  -1.714   4.885   5.396  0.3147 -0.0859  0.0294
  833MOL0     H14925  -1.690   4.839   5.563 -1.2880  0.1258 -0.4587
  833MOL0     H14926  -1.476   4.949   5.363  2.3220 -1.0454 -0.9965
  833MOL0     H14927  -1.436   4.936   5.538  2.0023 -1.2001  0.2058
  833MOL0     H14928  -1.521   4.694   5.368  0.9082 -2.9835  0.9971
  833MOL0     H14929  -1.472   4.695   5.533 -0.5778 -1.2319 -0.9452
  833MOL0     H14930  -1.304   4.630   5.422 -3.6328 -0.6162 -0.6100
  833MOL0     H14931  -1.257   4.807   5.433 -0.8000  2.3369 -2.8300
  833MOL0     H14932  -1.192   4.771   5.212 -0.0099  3.8020  3.0098
  833MOL0     H14933  -1.361   4.807   5.185  0.2002  0.3382  0.8917
  833MOL0     H14934  -1.539   5.350   5.609 -1.5323 -1.0698 -0.6266
  833MOL0     H14935  -1.375   5.376   5.766  0.1654  0.7465 -1.4016
  833MOL0     H14936  -1.411   5.792   6.211 -4.0236 -4.4588 -3.0769
  833MOL0     H14937  -1.269   5.850   6.407 -1.8473 -0.1537  0.5153
  833MOL0     H14938   0.141   5.012   5.747 -0.9842  0.6976  2.2080
  833MOL0     H14939   0.331   4.857   5.674  0.5531 -0.7320  0.7065
  833MOL0     H14940   0.775   4.868   5.687 -0.7811 -1.2696 -1.9614
  833MOL0     H14941   0.990   4.806   5.592  3.0295 -1.3309  0.2751
  833MOL0     H14942   1.262   4.584   5.479  0.7145  1.2296 -0.7214
  833MOL0     H14943   1.110   4.672   5.450  0.3421 -0.5428 -0.7603
  833MOL0     H14944   1.334   4.763   5.627  3.3543 -0.9306 -1.3232
  833MOL0     H14945   1.193   4.861   5.579 -0.3186  1.1662 -2.1782
  833MOL0     H14946   1.430   4.784   5.406 -1.2586 -2.5783 -3.7310
  833MOL0     H14947   1.275   4.792   5.340  0.8137 -1.4508  0.4573
  833MOL0     H14948   1.424   5.017   5.358  0.6458  1.4022  0.8384
  833MOL0     H14949   1.384   5.016   5.526 -1.6214  0.0836  1.3692
  833MOL0     H14950   1.011   5.133   5.351 -0.0075 -0.1824 -0.9760
  833MOL0     H14951   1.000   4.446   5.808  0.7542 -1.2534 -2.2201
  833MOL0     H14952   0.812   4.454   6.019 -2.7374  1.8913  1.6326
  833MOL0     H14953   0.660   4.455   5.942 -0.9147  1.6114 -2.1106
  833MOL0     H14954   0.790   4.358   5.873 -0.3113  0.8700  1.0863
  834MOL0     O14955   9.126  10.008  10.721  0.3754  0.0775 -0.2743
  834MOL0     C14956   9.151   9.891  10.704  0.0702 -0.1779 -0.2103
  834MOL0     O14957   9.260   9.840  10.639  0.1500 -0.1805 -0.0211
  834MOL0     C14958   9.343   9.931  10.576  0.0279  0.5734  0.9101
  834MOL0     C14959   9.472   9.953  10.623  1.2817  0.4407  0.1520
  834MOL0     C14960   9.556  10.056  10.576  0.3098  1.0630  0.2305
  834MOL0     C14961   9.512  10.138  10.474 -0.5801  0.4712 -0.0557
  834MOL0     O14962   9.584  10.242  10.417 -0.5977  0.2772 -0.8927
  834MOL0     C14963   9.639  10.325  10.524  0.5605  0.1487  0.3979
  834MOL0     C14964   9.693  10.460  10.466  1.4516 -0.1013  0.6502
  834MOL0     C14965   9.839  10.462  10.457  0.1303 -0.5093 -0.9306
  834MOL0     C14966   9.899  10.606  10.410 -0.6378  0.0176 -0.2702
  834MOL0     C14967  10.035  10.611  10.347  0.1516  0.4462 -0.6633
  834MOL0     C14968  10.160  10.646  10.436  0.1708  0.0307 -0.2923
  834MOL0     C14969  10.146  10.787  10.495 -0.4642 -0.1257 -0.9696
  834MOL0     C14970  10.287  10.816  10.554 -0.0097 -0.2281 -0.9708
  834MOL0     N14971  10.384  10.844  10.449 -0.2224  0.6586 -0.0375
  834MOL0     C14972  10.516  10.868  10.488  0.3996  0.1076 -0.2245
  834MOL0     C14973  10.564  10.945  10.380 -0.6768  0.4529 -0.3876
  834MOL0     C14974  10.703  10.999  10.356  0.5119  0.1063 -0.1287
  834MOL0     C14975  10.769  10.926  10.240  0.1222 -0.2712 -0.2916
  834MOL0     C14976  10.903  10.990  10.220  0.1182  0.2897 -0.4494
  834MOL0     C14977  11.000  10.882  10.164 -0.7057  0.3695 -0.6009
  834MOL0     O14978  11.128  10.942  10.147 -0.3195 -0.6162 -0.4928
  834MOL0     C14979  11.208  10.956  10.262 -0.8245 -0.7764  0.2222
  834MOL0     C14980  11.328  11.038  10.254  0.3481  0.3302  0.3061
  834MOL0     C14981  11.423  11.046  10.351 -0.0611  0.0158 -1.2874
  834MOL0     C14982  11.547  11.137  10.329  0.3507  0.1388  0.4223
  834MOL0     C14983  11.384  11.001  10.482  0.0404 -0.2491  0.3564
  834MOL0     C14984  11.462  11.026  10.604 -0.9794 -0.2940 -0.8103
  834MOL0     O14985  11.528  11.144  10.619  0.1691 -0.4508 -0.3050
  834MOL0     C14986  11.621  11.170  10.717  0.3961  0.3225 -0.1763
  834MOL0     C14987  11.608  11.120  10.851  1.2573 -1.1615  0.2526
  834MOL0     C14988  11.717  11.152  10.940 -1.4756  0.2193 -0.7175
  834MOL0     C14989  11.818  11.243  10.907  0.5677  0.5657  0.3983
  834MOL0     O14990  11.916  11.286  10.988 -0.0655 -0.0443 -0.6915
  834MOL0     C14991  11.898  11.279  11.130  0.5443 -0.3150  0.8890
  834MOL0     C14992  12.021  11.335  11.207 -0.5337 -0.4539 -0.1581
  834MOL0     C14993  12.023  11.489  11.216  0.1830 -0.0497  1.5197
  834MOL0     C14994  12.141  11.540  11.303  0.3595  0.1190  0.2974
  834MOL0     C14995  12.144  11.692  11.332  0.1160 -0.7214  1.4591
  834MOL0     C14996  12.169  11.770  11.200  0.3448 -0.6096  0.4562
  834MOL0     C14997  12.159  11.914  11.218  0.3572  0.2890  0.2903
  834MOL0     C14998  12.135  11.988  11.083  0.8477  0.0925 -0.4407
  834MOL0    Cl14999  12.121  12.158  11.108  0.4452 -0.1584  0.1200
  834MOL0     C15000  11.831  11.276  10.771  0.1023 -0.4191 -0.1695
  834MOL0     C15001  11.730  11.246  10.677  0.2809  0.1809  0.5708
  834MOL0     O15002  11.461  10.935  10.686  0.6369  0.2064 -0.2987
  834MOL0     C15003  11.278  10.917  10.495  0.3667  0.4965  0.4912
  834MOL0     C15004  11.194  10.884  10.387  0.9854  0.2603 -0.2543
  834MOL0     N15005  10.461  10.961  10.284  0.5055  0.1187 -0.0352
  834MOL0     N15006  10.362  10.901  10.332 -0.4106  0.0224  0.2018
  834MOL0     C15007   9.380  10.123  10.426  0.2110 -0.4741  0.0786
  834MOL0     C15008   9.298  10.024  10.473  0.3089  0.0446 -0.4883
  834MOL0     C15009   9.049   9.793  10.752 -0.3279 -0.0189  0.0999
  834MOL0     C15010   9.009   9.705  10.652  0.1072  0.2393 -0.1368
  834MOL0     C15011   8.893   9.624  10.677  0.3275 -0.4753 -0.2139
  834MOL0     C15012   8.829   9.629  10.799  0.2823  0.7461  0.3416
  834MOL0     O15013   8.711   9.559  10.813  0.3151  0.1913  0.2630
  834MOL0     C15014   8.735   9.422  10.811  0.4822 -0.1878  0.3115
  834MOL0     C15015   8.614   9.346  10.871  0.4274 -0.3128 -0.6790
  834MOL0     C15016   8.635   9.206  10.913 -0.7642  0.3201 -0.3608
  834MOL0     C15017   8.517   9.152  10.989  0.8227 -0.1381 -1.3187
  834MOL0     C15018   8.537   9.013  11.031 -0.6769  0.8181  0.3020
  834MOL0     C15019   8.560   8.908  11.088  0.1058  0.4920  0.0063
  834MOL0     C15020   8.865   9.726  10.894  0.3749  1.4143 -0.1874
  834MOL0     C15021   8.978   9.808  10.869  0.0077  0.2159  0.3441
  834MOL0     C15022   9.004   9.908  10.973  0.8356 -1.3078 -1.3522
  834MOL0     H15023   9.508   9.909  10.716  1.2244  0.4945  0.2003
  834MOL0     H15024   9.647  10.073  10.632 -0.0359  0.5673  0.9657
  834MOL0     H15025   9.716  10.277  10.584  0.6998  1.3409  1.1970
  834MOL0     H15026   9.551  10.360  10.578 -0.9589  1.2966 -2.5800
  834MOL0     H15027   9.645  10.477  10.370  3.6489 -0.6499 -0.6153
  834MOL0     H15028   9.658  10.543  10.528  0.7493 -0.6806  1.0451
  834MOL0     H15029   9.885  10.462  10.556 -0.3230  3.1561 -0.5637
  834MOL0     H15030   9.882  10.383  10.394 -0.3944 -1.3218 -0.2817
  834MOL0     H15031   9.816  10.632  10.344 -0.2352 -3.6164 -2.4977
  834MOL0     H15032   9.894  10.678  10.492 -1.6099 -1.5713  1.1644
  834MOL0     H15033  10.033  10.687  10.268  1.5667  0.7368 -0.4608
  834MOL0     H15034  10.052  10.515  10.296  0.6643  0.0588  0.2179
  834MOL0     H15035  10.169  10.581  10.524  0.9647  2.2103  1.3513
  834MOL0     H15036  10.255  10.625  10.387  0.6751  2.4555 -0.4775
  834MOL0     H15037  10.067  10.777  10.570 -0.1948  0.5486 -0.5909
  834MOL0     H15038  10.137  10.866  10.421  3.3662 -0.5475 -2.0678
  834MOL0     H15039  10.268  10.905  10.614 -0.5877  1.0254 -2.8962
  834MOL0     H15040  10.320  10.736  10.620 -2.3473 -0.3534  0.1641
  834MOL0     H15041  10.579  10.854  10.575  3.5812  1.2412 -2.1288
  834MOL0     H15042  10.755  10.982  10.451 -0.8943  2.3691  1.1479
  834MOL0     H15043  10.696  11.107  10.341  1.3054  0.1272 -0.4118
  834MOL0     H15044  10.773  10.819  10.260 -1.4780 -0.2725  0.1608
  834MOL0     H15045  10.712  10.948  10.149  1.2580  3.1335 -0.3354
  834MOL0     H15046  10.904  11.082  10.160  1.5484 -0.5845 -1.8425
  834MOL0     H15047  10.950  11.029  10.311  1.1891  3.4388 -2.2013
  834MOL0     H15048  11.003  10.782  10.209  5.4391 -0.5852 -2.2224
  834MOL0     H15049  10.967  10.861  10.062 -0.9856  1.1055 -0.6657
  834MOL0     H15050  11.330  11.093  10.161 -0.9574  0.0683  0.1089
  834MOL0     H15051  11.540  11.234  10.381  1.0609  0.1902  0.4283
  834MOL0     H15052  11.556  11.177  10.228  4.1549  0.9778  0.9185
  834MOL0     H15053  11.641  11.090  10.358  0.0054 -0.3836  0.7123
  834MOL0     H15054  11.518  11.081  10.898 -2.2799  2.2946 -2.8893
  834MOL0     H15055  11.699  11.119  11.042 -0.5204 -1.2240 -0.9869
  834MOL0     H15056  11.810  11.337  11.159 -1.2049 -1.4803 -1.7059
  834MOL0     H15057  11.901  11.173  11.159  3.1136 -0.0709  1.7976
  834MOL0     H15058  12.025  11.293  11.308  0.2696 -1.6287 -0.6485
  834MOL0     H15059  12.117  11.314  11.158  1.2739  2.5978  1.7284
  834MOL0     H15060  11.927  11.515  11.262  0.5264  2.4013  1.0135
  834MOL0     H15061  12.025  11.526  11.113 -0.0592 -2.0072  0.7766
  834MOL0     H15062  12.233  11.524  11.245 -0.5703  0.4345 -1.3156
  834MOL0     H15063  12.141  11.482  11.395  1.8928 -0.0823  0.2033
  834MOL0     H15064  12.051  11.711  11.386  1.2457  2.4594  2.4966
  834MOL0     H15065  12.218  11.713  11.410  1.5468  0.3726 -0.1184
  834MOL0     H15066  12.099  11.745  11.120  2.3162  0.5095 -1.7402
  834MOL0     H15067  12.267  11.747  11.154 -0.4235  0.0136 -1.6164
  834MOL0     H15068  12.247  11.961  11.264 -1.2280  3.4126  0.3490
  834MOL0     H15069  12.072  11.926  11.283 -2.2799  3.1112 -3.3835
  834MOL0     H15070  12.047  11.950  11.030  0.9201 -1.3918  0.4406
  834MOL0     H15071  12.214  11.956  11.014 -0.4643 -2.0280 -1.0609
  834MOL0     H15072  11.914  11.338  10.739 -0.6808 -0.0630 -1.6294
  834MOL0     H15073  11.734  11.279  10.574  0.4683  1.8548  1.0769
  834MOL0     H15074  11.271  10.886  10.599  3.7134  0.3549  0.7875
  834MOL0     H15075  11.116  10.810  10.406  1.3021  0.0064  0.0588
  834MOL0     H15076   9.352  10.203  10.359  0.7595 -0.4142 -0.0845
  834MOL0     H15077   9.195  10.032  10.439  0.0783  1.1490  0.4085
  834MOL0     H15078   9.062   9.681  10.560 -0.3529  2.1218 -0.9513
  834MOL0     H15079   8.860   9.551  10.603 -0.7054 -0.0999 -0.1272
  834MOL0     H15080   8.753   9.382  10.711 -1.8421 -0.2889 -0.1113
  834MOL0     H15081   8.818   9.402  10.879  0.9067  0.6398  0.0611
  834MOL0     H15082   8.546   9.346  10.785  1.9157  1.2776 -1.9324
  834MOL0     H15083   8.573   9.401  10.956 -2.7868  2.6631 -3.8514
  834MOL0     H15084   8.660   9.139  10.830  1.8337  1.0334 -0.2296
  834MOL0     H15085   8.730   9.198  10.967 -0.3594  3.2183 -0.5093
  834MOL0     H15086   8.436   9.163  10.917 -0.1692 -0.7815 -0.3292
  834MOL0     H15087   8.495   9.223  11.069  1.1683 -0.9748 -0.4631
  834MOL0     H15088   8.564   8.813  11.137  0.7026  0.0768 -0.8360
  834MOL0     H15089   8.817   9.734  10.991  2.4956 -0.6225  1.1638
  834MOL0     H15090   8.966  10.009  10.958  2.2222 -0.1808  1.7903
  834MOL0     H15091   8.964   9.871  11.068 -0.4558 -1.7196 -2.0359
  834MOL0     H15092   9.110   9.920  10.998  0.0163  0.7382  1.6893
  835MOL0     O15093   3.751   0.234   7.266 -0.5591  0.5963  0.0373
  835MOL0     C15094   3.783   0.344   7.210  0.4009  1.4408  0.4564
  835MOL0     O15095   3.715   0.400   7.106  0.2801 -0.1524  0.4211
  835MOL0     C15096   3.600   0.344   7.069  0.3065  0.2290  0.1259
  835MOL0     C15097   3.588   0.247   6.962  0.0497 -0.3567  1.0480
  835MOL0     C15098   3.464   0.189   6.948 -0.7548  0.0544 -0.0960
  835MOL0     C15099   3.351   0.220   7.026 -0.0563  0.2223  0.6483
  835MOL0     O15100   3.221   0.166   7.019 -0.4258 -0.8787 -0.0676
  835MOL0     C15101   3.205   0.064   6.918  0.3470  0.2696  0.1689
  835MOL0     C15102   3.078  -0.019   6.951 -0.8335  0.8120  0.2202
  835MOL0     C15103   2.947   0.071   6.935 -0.4784  0.1846 -0.0965
  835MOL0     C15104   2.818  -0.007   6.965  0.9336  0.1937  0.5063
  835MOL0     C15105   2.788  -0.116   6.870  0.0283 -0.3683  0.5762
  835MOL0     C15106   2.642  -0.154   6.891  0.3269 -0.7947  0.3607
  835MOL0     C15107   2.596  -0.281   6.825  0.8319  0.0589 -0.0161
  835MOL0     C15108   2.444  -0.293   6.800 -0.3735  0.1214  0.3163
  835MOL0     N15109   2.369  -0.344   6.919  0.2101 -0.4858  0.3140
  835MOL0     C15110   2.368  -0.280   7.039  0.2145 -0.7127 -0.1938
  835MOL0     C15111   2.310  -0.375   7.114 -0.9574  0.0803 -0.0463
  835MOL0     C15112   2.276  -0.365   7.254 -0.7871 -1.3953 -0.4514
  835MOL0     C15113   2.383  -0.418   7.357  0.0211 -0.3386  0.4487
  835MOL0     C15114   2.399  -0.571   7.360 -0.1927  0.5478  1.0809
  835MOL0     C15115   2.520  -0.627   7.279 -0.5050 -0.1549  0.2278
  835MOL0     O15116   2.651  -0.585   7.330  0.7679 -1.0294  0.1411
  835MOL0     C15117   2.765  -0.550   7.253  1.0330 -0.3556  0.8330
  835MOL0     C15118   2.785  -0.592   7.117  0.1882  0.3931  0.0452
  835MOL0     C15119   2.908  -0.567   7.057 -0.2159  0.2363  0.9015
  835MOL0     C15120   2.924  -0.627   6.924  0.1406  0.2477 -0.2245
  835MOL0     C15121   3.001  -0.488   7.120  0.1520 -0.2973  0.3860
  835MOL0     C15122   3.139  -0.450   7.051 -0.4774  0.4581  0.5078
  835MOL0     O15123   3.221  -0.359   7.125 -0.2992  0.0323 -0.9489
  835MOL0     C15124   3.358  -0.332   7.103  0.4776 -0.5956  0.8817
  835MOL0     C15125   3.441  -0.440   7.062  0.0851  0.1618  0.3598
  835MOL0     C15126   3.577  -0.413   7.043 -0.4674  0.0484 -0.6795
  835MOL0     C15127   3.638  -0.287   7.056  0.8683 -0.6343 -0.3361
  835MOL0     O15128   3.774  -0.280   7.026 -0.1014 -0.0099 -0.5424
  835MOL0     C15129   3.834  -0.156   6.998 -0.0191 -0.7056 -0.1167
  835MOL0     C15130   3.987  -0.177   6.961  0.9500  0.4514 -0.0269
  835MOL0     C15131   4.036  -0.071   6.871  0.2326 -0.2367 -0.3807
  835MOL0     C15132   4.183  -0.104   6.821 -0.1095  0.2958 -0.0902
  835MOL0     C15133   4.240   0.013   6.748  0.1508 -0.6150  0.0582
  835MOL0     C15134   4.262   0.152   6.820 -0.3040 -0.2635  0.6875
  835MOL0     C15135   4.312   0.270   6.723 -0.6754  1.5514  0.2557
  835MOL0     C15136   4.280   0.414   6.768 -0.3907  0.9795  0.9326
  835MOL0    Cl15137   4.384   0.454   6.901 -0.0791  0.1251 -0.1966
  835MOL0     C15138   3.550  -0.182   7.097 -0.6316  0.4368  0.3741
  835MOL0     C15139   3.413  -0.204   7.127  0.2907 -0.4990 -0.5079
  835MOL0     O15140   3.158  -0.467   6.933  0.2565  0.4410 -0.5831
  835MOL0     C15141   2.983  -0.445   7.247 -0.2366 -0.4724 -0.4806
  835MOL0     C15142   2.862  -0.474   7.311 -0.9907 -0.5442  0.4579
  835MOL0     N15143   2.268  -0.480   7.031  0.1094 -0.1456  0.5605
  835MOL0     N15144   2.309  -0.463   6.911 -0.0490 -0.2319  0.2679
  835MOL0     C15145   3.361   0.316   7.124 -0.3688  0.2642 -0.2931
  835MOL0     C15146   3.480   0.381   7.141 -0.5215  0.2743  0.1448
  835MOL0     C15147   3.907   0.399   7.248 -0.1075 -0.7783  0.6586
  835MOL0     C15148   4.002   0.413   7.150  0.6200 -0.3848 -1.0291
  835MOL0     C15149   4.128   0.463   7.177 -0.9444  0.0096 -1.1495
  835MOL0     C15150   4.162   0.513   7.300  1.2829 -0.4505  0.2184
  835MOL0     O15151   4.280   0.570   7.343  0.0813 -0.0942  0.3374
  835MOL0     C15152   4.389   0.577   7.249 -0.2916 -0.0011  0.3907
  835MOL0     C15153   4.429   0.723   7.222 -0.0117  0.2422  0.0065
  835MOL0     C15154   4.558   0.736   7.147  0.0748  1.4706 -0.6782
  835MOL0     C15155   4.559   0.684   6.998 -0.4292  0.0047  0.6737
  835MOL0     C15156   4.667   0.743   6.917  0.6381 -0.5478 -0.3032
  835MOL0     C15157   4.761   0.781   6.854  0.4456  0.8604  0.7526
  835MOL0     C15158   4.064   0.506   7.398  0.1192  0.1081  1.1984
  835MOL0     C15159   3.940   0.452   7.378 -0.0705 -0.1559  0.1593
  835MOL0     C15160   3.843   0.441   7.491 -0.4098  0.2639 -0.5434
  835MOL0     H15161   3.673   0.210   6.905  0.0412 -1.7834  1.9095
  835MOL0     H15162   3.446   0.116   6.869 -1.3646  3.1874 -3.1248
  835MOL0     H15163   3.288  -0.007   6.919 -2.0188 -2.8645 -2.5878
  835MOL0     H15164   3.186   0.101   6.817  1.8497 -0.9734 -0.6099
  835MOL0     H15165   3.068  -0.105   6.884  1.2063  0.7048 -0.0165
  835MOL0     H15166   3.085  -0.057   7.053  1.9765  0.6574  0.0536
  835MOL0     H15167   2.932   0.141   7.018 -0.5275 -0.1262  0.1585
  835MOL0     H15168   2.950   0.121   6.838  2.3622  1.7485  0.6889
  835MOL0     H15169   2.817  -0.058   7.061 -0.6303 -2.2024 -0.6917
  835MOL0     H15170   2.738   0.068   6.966 -0.5252 -1.2944  0.5400
  835MOL0     H15171   2.840  -0.208   6.899 -0.5962 -0.4384  1.5064
  835MOL0     H15172   2.808  -0.081   6.768  2.9560  0.7136  1.4282
  835MOL0     H15173   2.637  -0.158   7.001  3.0333 -1.1510  0.5286
  835MOL0     H15174   2.586  -0.068   6.855  2.1199  0.2484 -0.0503
  835MOL0     H15175   2.624  -0.363   6.892 -1.6977  0.7245  2.0288
  835MOL0     H15176   2.643  -0.280   6.726 -1.7172  2.8104 -1.3696
  835MOL0     H15177   2.404  -0.194   6.777  0.0427  0.2364  0.0766
  835MOL0     H15178   2.417  -0.357   6.715 -2.5095 -3.4784  3.3702
  835MOL0     H15179   2.419  -0.188   7.065  0.4195 -0.5337 -1.1844
  835MOL0     H15180   2.174  -0.401   7.267 -1.5147  0.9944  1.2473
  835MOL0     H15181   2.253  -0.261   7.280 -0.9748 -0.9779 -2.2090
  835MOL0     H15182   2.483  -0.377   7.338  0.2851 -2.1896 -2.9728
  835MOL0     H15183   2.354  -0.382   7.456  0.2317  1.1078  0.0099
  835MOL0     H15184   2.414  -0.594   7.466 -3.2681  0.4685  1.5868
  835MOL0     H15185   2.306  -0.620   7.330 -0.1260  0.4360  1.0579
  835MOL0     H15186   2.509  -0.735   7.281 -0.0560 -0.2451 -1.1036
  835MOL0     H15187   2.508  -0.595   7.175  0.0509  0.4639  0.3472
  835MOL0     H15188   2.706  -0.644   7.065 -0.7674 -0.4903  2.2218
  835MOL0     H15189   2.839  -0.693   6.905 -0.0663  0.7213 -0.9893
  835MOL0     H15190   3.016  -0.684   6.939 -0.6426 -0.4562  2.3028
  835MOL0     H15191   2.924  -0.552   6.844 -2.1750 -1.0126 -1.5398
  835MOL0     H15192   3.400  -0.540   7.054 -0.5951  0.1707  2.7770
  835MOL0     H15193   3.640  -0.496   7.012 -2.4079 -0.9926 -2.1020
  835MOL0     H15194   3.789  -0.104   6.913  0.7792  4.9248  2.4573
  835MOL0     H15195   3.820  -0.082   7.077 -0.3384 -2.8132  1.9203
  835MOL0     H15196   4.037  -0.190   7.058  1.5701 -0.6223 -0.4632
  835MOL0     H15197   3.998  -0.271   6.905 -1.5338  1.5230 -2.5212
  835MOL0     H15198   4.033   0.027   6.919 -3.3072 -0.8879  1.0266
  835MOL0     H15199   3.982  -0.065   6.776  4.3615  1.7657 -2.9196
  835MOL0     H15200   4.182  -0.195   6.760  2.4832  1.3875 -1.8939
  835MOL0     H15201   4.241  -0.135   6.909 -1.2258 -4.7090 -0.7832
  835MOL0     H15202   4.329  -0.038   6.709 -1.1010 -2.9972  0.1039
  835MOL0     H15203   4.172   0.032   6.665  0.3950  1.1836  0.2389
  835MOL0     H15204   4.334   0.139   6.902  0.5134  0.6131  0.1415
  835MOL0     H15205   4.166   0.186   6.859  0.1197  2.3854 -0.3247
  835MOL0     H15206   4.256   0.248   6.632  0.0674 -1.1276  0.3715
  835MOL0     H15207   4.418   0.252   6.702 -0.9733  1.1990 -0.9715
  835MOL0     H15208   4.174   0.414   6.795 -1.0623 -4.4011 -0.5603
  835MOL0     H15209   4.304   0.491   6.695  2.5184 -1.2629 -0.6724
  835MOL0     H15210   3.602  -0.088   7.113  0.0495  0.0654  0.3709
  835MOL0     H15211   3.349  -0.135   7.182 -1.5454 -3.1887  0.9505
  835MOL0     H15212   3.059  -0.384   7.294  2.6869 -2.2547 -2.5363
  835MOL0     H15213   2.852  -0.432   7.411  1.5290  0.5421  0.3462
  835MOL0     H15214   3.274   0.353   7.177 -3.0572 -0.2079 -3.9729
  835MOL0     H15215   3.502   0.447   7.225  2.1163 -3.0804  2.3859
  835MOL0     H15216   3.970   0.376   7.053 -0.4126  0.5952 -1.0911
  835MOL0     H15217   4.199   0.455   7.096  0.5101 -0.4141  0.1243
  835MOL0     H15218   4.472   0.533   7.305 -0.7985 -0.2500  0.9629
  835MOL0     H15219   4.377   0.520   7.157  0.0940 -0.0786  0.3871
  835MOL0     H15220   4.422   0.772   7.319 -2.0974  0.2995 -0.1281
  835MOL0     H15221   4.349   0.770   7.164 -1.1425 -1.6456 -0.0308
  835MOL0     H15222   4.574   0.842   7.127 -1.1010  1.6469 -0.7690
  835MOL0     H15223   4.643   0.705   7.210 -0.8940  0.0191 -0.0162
  835MOL0     H15224   4.461   0.698   6.952 -0.9764  1.7356  2.2590
  835MOL0     H15225   4.587   0.578   7.005  0.7380 -0.0073 -2.4870
  835MOL0     H15226   4.851   0.802   6.800 -1.6060  0.2130 -3.3501
  835MOL0     H15227   4.087   0.539   7.499 -2.3196 -1.7488  2.4650
  835MOL0     H15228   3.888   0.494   7.575  2.9036 -1.2312 -1.2107
  835MOL0     H15229   3.749   0.494   7.474 -1.7610 -1.3872  1.3684
  835MOL0     H15230   3.813   0.341   7.523  1.7855 -0.2194  0.1814
  836MOL0     O15231   7.735   9.450   4.495 -0.0374 -0.4689  0.3474
  836MOL0     C15232   7.661   9.357   4.532 -0.0066 -0.7821  0.1843
  836MOL0     O15233   7.628   9.253   4.451 -0.0508 -0.2985  0.0456
  836MOL0     C15234   7.706   9.235   4.340  0.8171 -0.6479 -0.1676
  836MOL0     C15235   7.816   9.157   4.352 -0.6589 -0.1888 -0.3338
  836MOL0     C15236   7.896   9.125   4.242 -1.3373  0.0837  0.1063
  836MOL0     C15237   7.862   9.177   4.118 -0.3265 -0.0942 -0.1885
  836MOL0     O15238   7.959   9.144   4.022  0.2371 -0.4872 -0.0246
  836MOL0     C15239   7.945   9.214   3.900 -0.3592 -0.7217  0.2360
  836MOL0     C15240   8.075   9.197   3.822  0.1226 -0.1225  0.4267
  836MOL0     C15241   8.204   9.210   3.909  0.6783  0.5208  0.1020
  836MOL0     C15242   8.331   9.207   3.823 -1.2103  0.2389 -1.0232
  836MOL0     C15243   8.443   9.157   3.914 -0.2754  0.6795 -0.1180
  836MOL0     C15244   8.577   9.147   3.840 -0.5003  0.2729 -0.4624
  836MOL0     C15245   8.689   9.087   3.926  0.5355  0.4760  0.9691
  836MOL0     C15246   8.810   9.038   3.839 -0.7028 -0.1774 -1.0562
  836MOL0     N15247   8.919   8.985   3.920  0.1729  0.3388 -0.2609
  836MOL0     C15248   9.040   9.054   3.940  0.5520  0.1204  0.0288
  836MOL0     C15249   9.121   8.965   3.977 -0.2966 -0.0270  0.6118
  836MOL0     C15250   9.269   8.987   4.025  0.7401 -0.3402 -0.3354
  836MOL0     C15251   9.346   9.072   3.941 -0.9364 -0.6030  0.4887
  836MOL0     C15252   9.500   9.060   3.955 -0.2616 -0.1324  0.3105
  836MOL0     C15253   9.535   9.124   4.094 -0.2498 -0.1984 -0.8026
  836MOL0     O15254   9.677   9.139   4.104  0.2119  0.0931 -0.2519
  836MOL0     C15255   9.741   9.188   4.216 -0.9175  0.3297  0.1243
  836MOL0     C15256   9.877   9.193   4.219 -0.3807 -0.6825  0.1991
  836MOL0     C15257   9.949   9.246   4.329  0.9677 -0.0445  0.1431
  836MOL0     C15258  10.098   9.247   4.325 -0.1949  0.3141 -0.8760
  836MOL0     C15259   9.878   9.303   4.437 -0.2372 -0.2065 -1.0841
  836MOL0     C15260   9.935   9.362   4.557 -0.1513 -0.4267 -0.3153
  836MOL0     O15261   9.856   9.455   4.634 -0.2989 -0.6274  0.2948
  836MOL0     C15262   9.911   9.519   4.749  0.3808  0.2035 -0.2928
  836MOL0     C15263   9.861   9.479   4.869 -0.1247 -0.3449 -0.2316
  836MOL0     C15264   9.910   9.536   4.989 -1.2432 -0.2504 -0.1024
  836MOL0     C15265  10.015   9.628   4.987 -0.0676 -0.0772 -1.2999
  836MOL0     O15266  10.043   9.688   5.108 -0.2573  0.2091  0.2393
  836MOL0     C15267  10.090   9.825   5.096  0.5184 -0.6440  0.5899
  836MOL0     C15268  10.088   9.896   5.237 -0.7055 -0.1490  0.0878
  836MOL0     C15269  10.162  10.030   5.220 -0.1397 -0.3940  0.2163
  836MOL0     C15270  10.179  10.115   5.352 -0.0847 -0.0005  0.1621
  836MOL0     C15271  10.238  10.254   5.324 -1.5510 -0.1777 -0.0336
  836MOL0     C15272  10.161  10.347   5.221 -0.4996 -0.8904 -0.5310
  836MOL0     C15273  10.226  10.491   5.228  1.4314  0.5331 -0.8555
  836MOL0     C15274  10.368  10.502   5.185  0.5881 -0.6562  0.6504
  836MOL0    Cl15275  10.403  10.471   5.007  0.0285  0.0510  0.3039
  836MOL0     C15276  10.070   9.662   4.863  0.1266 -0.6580  0.1132
  836MOL0     C15277  10.022   9.607   4.738  0.6539 -0.1023  0.4938
  836MOL0     O15278  10.042   9.326   4.597  0.0684  1.1315 -0.1638
  836MOL0     C15279   9.737   9.301   4.432  1.0896 -0.2616  0.3446
  836MOL0     C15280   9.675   9.253   4.315 -0.2513  0.3721 -0.4914
  836MOL0     N15281   9.067   8.837   3.975 -0.5112  0.1525 -0.1282
  836MOL0     N15282   8.947   8.847   3.936  0.4791 -0.4192 -0.0288
  836MOL0     C15283   7.747   9.254   4.106 -0.3355 -0.2836  0.4869
  836MOL0     C15284   7.669   9.291   4.219 -0.7475 -0.0820  0.1475
  836MOL0     C15285   7.614   9.379   4.673 -0.1833  0.6614 -0.7301
  836MOL0     C15286   7.490   9.319   4.715  0.1642 -0.2612  0.4343
  836MOL0     C15287   7.456   9.312   4.849  0.1133 -0.5556 -0.0820
  836MOL0     C15288   7.535   9.362   4.955  0.2987 -0.2437  1.5376
  836MOL0     O15289   7.504   9.344   5.092  0.0312  0.8098  0.4563
  836MOL0     C15290   7.509   9.458   5.183  0.1539 -0.8864  0.4337
  836MOL0     C15291   7.648   9.452   5.250  0.6408  0.8804  0.7483
  836MOL0     C15292   7.635   9.461   5.400 -0.7827  0.8548 -0.5307
  836MOL0     C15293   7.610   9.605   5.454  0.2011  0.2837 -0.1453
  836MOL0     C15294   7.718   9.699   5.455 -0.4359 -0.8101 -1.3656
  836MOL0     C15295   7.809   9.784   5.456  0.1660 -0.3752 -0.3462
  836MOL0     C15296   7.659   9.422   4.908  0.1427  0.0770  0.3812
  836MOL0     C15297   7.695   9.440   4.772  0.0298  0.7884 -0.7944
  836MOL0     C15298   7.833   9.499   4.742 -0.3444 -0.2496 -0.4387
  836MOL0     H15299   7.834   9.120   4.453 -2.1099  0.9900  0.3983
  836MOL0     H15300   7.966   9.042   4.245 -5.1814 -3.3970  2.2316
  836MOL0     H15301   7.926   9.317   3.934 -2.7952 -1.9955  3.1762
  836MOL0     H15302   7.861   9.184   3.836 -2.0549  0.4699  1.7894
  836MOL0     H15303   8.070   9.101   3.769  1.3626 -0.8962  1.6299
  836MOL0     H15304   8.084   9.272   3.743 -2.8951  1.4304  1.3948
  836MOL0     H15305   8.193   9.301   3.969 -2.1380  2.2927 -2.7743
  836MOL0     H15306   8.207   9.128   3.982  0.1706  0.5718  0.1848
  836MOL0     H15307   8.327   9.141   3.736 -1.5637 -1.6072  0.3383
  836MOL0     H15308   8.343   9.309   3.785 -2.7679  1.4468  1.4578
  836MOL0     H15309   8.428   9.054   3.946  2.1974  0.2750 -0.0764
  836MOL0     H15310   8.452   9.217   4.005  1.1279 -0.5589  0.5993
  836MOL0     H15311   8.562   9.078   3.757 -0.5192 -1.5071  0.9526
  836MOL0     H15312   8.608   9.241   3.794 -1.5561  0.6857 -0.3411
  836MOL0     H15313   8.641   9.005   3.980 -1.9925  0.8902 -0.4743
  836MOL0     H15314   8.718   9.155   4.006  1.1304 -1.2212  2.2527
  836MOL0     H15315   8.769   8.958   3.776 -1.6149 -0.2113 -0.4339
  836MOL0     H15316   8.850   9.124   3.784  0.3817  0.0081 -0.0247
  836MOL0     H15317   9.061   9.159   3.922  1.0742 -0.2484 -1.7012
  836MOL0     H15318   9.316   8.890   4.041  0.3957 -0.8872 -2.3362
  836MOL0     H15319   9.250   9.034   4.122  0.1803 -1.5321  0.1556
  836MOL0     H15320   9.317   9.038   3.841 -0.7771  0.1154  0.1977
  836MOL0     H15321   9.315   9.174   3.964 -2.2322 -0.8198 -0.1909
  836MOL0     H15322   9.530   8.955   3.963  1.6362  0.4600  1.9905
  836MOL0     H15323   9.550   9.114   3.874 -0.1910 -1.3344 -0.4642
  836MOL0     H15324   9.494   9.225   4.093 -0.8225 -0.3858  0.9114
  836MOL0     H15325   9.495   9.081   4.185  2.1300  2.6022  1.8041
  836MOL0     H15326   9.937   9.148   4.141 -1.3853 -0.9206 -0.4614
  836MOL0     H15327  10.123   9.220   4.222 -0.7515  1.2107 -1.2575
  836MOL0     H15328  10.130   9.163   4.388  2.4952  0.9005 -1.3165
  836MOL0     H15329  10.145   9.341   4.354 -0.8329  0.8847 -1.6773
  836MOL0     H15330   9.780   9.407   4.865 -0.2533 -0.3431  1.4683
  836MOL0     H15331   9.861   9.515   5.083 -2.2989 -2.1370 -1.0076
  836MOL0     H15332  10.191   9.821   5.054  0.1921 -2.1137 -0.1399
  836MOL0     H15333  10.019   9.872   5.027 -0.1310 -0.8370  1.1147
  836MOL0     H15334   9.984   9.919   5.263 -0.9139  0.6731 -1.3290
  836MOL0     H15335  10.136   9.843   5.319 -1.8607  1.3582  1.8145
  836MOL0     H15336  10.119  10.090   5.139  0.5006  0.1915  0.3018
  836MOL0     H15337  10.264   9.999   5.196 -0.4094 -1.0865 -0.0626
  836MOL0     H15338  10.242  10.071   5.429  0.3978  0.3421 -0.0351
  836MOL0     H15339  10.079  10.120   5.397 -0.3739  0.3926 -0.5101
  836MOL0     H15340  10.245  10.306   5.420 -0.4085  1.0514 -0.7419
  836MOL0     H15341  10.341  10.243   5.288 -1.4996  3.3612 -1.3867
  836MOL0     H15342  10.054  10.351   5.243 -0.4675  1.7974 -0.5754
  836MOL0     H15343  10.172  10.319   5.116  0.2394 -3.1435  0.0867
  836MOL0     H15344  10.206  10.541   5.324 -1.6905 -0.3894 -0.9239
  836MOL0     H15345  10.172  10.545   5.151 -0.1005  0.1697 -0.0770
  836MOL0     H15346  10.430  10.437   5.248 -0.2307 -1.5674  0.5422
  836MOL0     H15347  10.391  10.606   5.211 -4.0616 -0.0761  3.5259
  836MOL0     H15348  10.144   9.741   4.864 -2.5495  2.0109  1.9714
  836MOL0     H15349  10.054   9.639   4.640  3.7939  0.7510  1.6756
  836MOL0     H15350   9.678   9.349   4.509 -0.0003 -0.3532 -0.4021
  836MOL0     H15351   9.570   9.274   4.333 -0.1214  0.1060  0.7007
  836MOL0     H15352   7.710   9.269   4.005 -1.5616 -2.3711  0.5599
  836MOL0     H15353   7.593   9.368   4.214 -0.9803 -0.2531  0.8708
  836MOL0     H15354   7.425   9.277   4.639  2.2775 -0.1907 -1.5448
  836MOL0     H15355   7.364   9.256   4.867 -0.0942  0.1049  1.0715
  836MOL0     H15356   7.501   9.547   5.118 -3.2940 -1.0654  0.4661
  836MOL0     H15357   7.424   9.460   5.250  0.9340  0.8534  1.4488
  836MOL0     H15358   7.711   9.532   5.210  2.1376 -0.7223 -0.2420
  836MOL0     H15359   7.690   9.353   5.230 -0.7803  0.6357 -1.3768
  836MOL0     H15360   7.545   9.410   5.434 -1.4050  0.0322 -3.1739
  836MOL0     H15361   7.715   9.407   5.450 -0.5899  2.3333  0.8665
  836MOL0     H15362   7.592   9.595   5.562  3.3588  0.2531  0.4778
  836MOL0     H15363   7.520   9.630   5.398  0.1238 -0.5955 -0.4244
  836MOL0     H15364   7.884   9.861   5.452 -0.5024  0.3738  0.9999
  836MOL0     H15365   7.715   9.468   4.989 -2.0822  0.1055  2.0059
  836MOL0     H15366   7.823   9.601   4.704 -0.7011 -0.0945  0.0563
  836MOL0     H15367   7.877   9.512   4.841 -3.1572 -0.8183  0.9825
  836MOL0     H15368   7.891   9.437   4.672  1.9271  0.2188  0.9284
  837MOL0     O15369   8.013  11.219   6.382 -0.0173 -0.2246 -0.0251
  837MOL0     C15370   7.975  11.324   6.436 -0.7606  0.0398 -0.9617
  837MOL0     O15371   8.060  11.403   6.516  0.0258  0.3883  0.4639
  837MOL0     C15372   8.190  11.369   6.530 -0.3279 -0.3432 -0.1255
  837MOL0     C15373   8.228  11.243   6.578 -0.0919  0.0436  0.6162
  837MOL0     C15374   8.360  11.222   6.630  0.2787 -0.4622  0.1977
  837MOL0     C15375   8.449  11.320   6.609 -0.1951 -0.2483 -0.0939
  837MOL0     O15376   8.581  11.311   6.642  0.4913  0.0684  0.3138
  837MOL0     C15377   8.624  11.205   6.724 -0.1254  0.3611 -0.0352
  837MOL0     C15378   8.770  11.226   6.749  0.1297 -0.3124 -0.0403
  837MOL0     C15379   8.790  11.371   6.810  0.8674  0.1654  0.3137
  837MOL0     C15380   8.940  11.384   6.855 -0.0372  1.0061  0.4990
  837MOL0     C15381   8.949  11.480   6.979 -0.1877  0.4696 -0.5838
  837MOL0     C15382   8.907  11.624   6.945 -0.9046  0.5875 -0.2931
  837MOL0     C15383   8.905  11.729   7.063  0.5879 -0.0465  0.2920
  837MOL0     C15384   9.011  11.842   7.056  0.9907 -0.7081 -0.7610
  837MOL0     N15385   9.145  11.793   7.030 -0.7358  0.5206  0.4765
  837MOL0     C15386   9.237  11.851   6.937 -0.0460  0.9168  0.2122
  837MOL0     C15387   9.346  11.770   6.958 -0.3893  0.4850  1.1425
  837MOL0     C15388   9.486  11.803   6.909  0.2855  1.1717 -0.4448
  837MOL0     C15389   9.549  11.674   6.863  0.1846  0.2232  0.4588
  837MOL0     C15390   9.708  11.678   6.874  0.1322 -0.6126 -0.0901
  837MOL0     C15391   9.769  11.788   6.794 -0.1269 -0.4066  0.1778
  837MOL0     O15392   9.746  11.779   6.660  0.5659 -0.2784  0.1764
  837MOL0     C15393   9.849  11.783   6.567  0.4590 -0.8486 -1.1310
  837MOL0     C15394   9.969  11.846   6.590 -0.6518  0.5605 -0.0283
  837MOL0     C15395  10.074  11.846   6.496 -0.2970 -0.4799  0.2807
  837MOL0     C15396  10.192  11.934   6.528  0.8745 -0.4511 -0.0245
  837MOL0     C15397  10.061  11.781   6.379 -0.1543  0.2036  0.3139
  837MOL0     C15398  10.165  11.780   6.265 -0.3996 -0.0001 -0.7129
  837MOL0     O15399  10.238  11.669   6.247 -0.3340  1.0070  0.4905
  837MOL0     C15400  10.312  11.655   6.134  0.2959  0.3794  0.3467
  837MOL0     C15401  10.445  11.633   6.137 -0.7530  1.1564  0.0296
  837MOL0     C15402  10.522  11.616   6.024  1.0209 -0.0753 -0.2717
  837MOL0     C15403  10.468  11.630   5.895 -0.3194  0.5949 -0.6044
  837MOL0     O15404  10.552  11.612   5.791  0.5956 -0.5620  0.0540
  837MOL0     C15405  10.541  11.691   5.673  0.0097 -0.0199  0.1678
  837MOL0     C15406  10.660  11.655   5.575 -0.2713 -0.4445  0.0920
  837MOL0     C15407  10.797  11.674   5.641 -0.6772  0.0259  0.0512
  837MOL0     C15408  10.918  11.645   5.556  0.0541  0.2209  0.4490
  837MOL0     C15409  11.054  11.675   5.619 -0.5826  0.2666  0.6750
  837MOL0     C15410  11.168  11.646   5.525 -0.8286  0.5033  0.9887
  837MOL0     C15411  11.310  11.683   5.575  0.2859 -0.0669  0.1843
  837MOL0     C15412  11.412  11.581   5.518  0.5797 -0.0203 -0.2728
  837MOL0    Cl15413  11.405  11.583   5.343  0.5583 -0.0492 -0.3974
  837MOL0     C15414  10.329  11.669   5.895  0.6915 -0.3116  0.0143
  837MOL0     C15415  10.250  11.678   6.005  0.1101 -0.1466  0.3804
  837MOL0     O15416  10.186  11.889   6.206 -0.2262  0.5766 -0.3865
  837MOL0     C15417   9.937  11.708   6.352 -0.1956  1.1424  0.1537
  837MOL0     C15418   9.830  11.712   6.447 -0.1882 -0.0029  0.2733
  837MOL0     N15419   9.322  11.666   7.050  0.3426 -0.0760  0.0525
  837MOL0     N15420   9.207  11.692   7.103  0.7915 -0.3552 -0.3010
  837MOL0     C15421   8.417  11.438   6.537  0.0267  0.0164 -0.5370
  837MOL0     C15422   8.284  11.454   6.493  0.3489 -0.3922 -0.4869
  837MOL0     C15423   7.831  11.342   6.440 -0.4223  0.1305 -0.1852
  837MOL0     C15424   7.773  11.363   6.561  0.2954 -0.0842 -1.0269
  837MOL0     C15425   7.638  11.400   6.565  0.1968  0.1391 -0.3790
  837MOL0     C15426   7.552  11.403   6.454  0.2069 -0.0866  0.1482
  837MOL0     O15427   7.417  11.437   6.457  1.0263 -0.4200  0.3337
  837MOL0     C15428   7.358  11.454   6.585  0.2408  0.9694 -0.4473
  837MOL0     C15429   7.207  11.482   6.584 -1.0562  0.8405 -0.1665
  837MOL0     C15430   7.123  11.374   6.507 -0.0018  0.6954 -0.2688
  837MOL0     C15431   6.978  11.401   6.488 -0.0499 -0.5001  0.5606
  837MOL0     C15432   6.919  11.286   6.413  0.3169  0.1351  0.2460
  837MOL0     C15433   6.891  11.176   6.354 -0.7521 -0.6882 -0.8267
  837MOL0     C15434   7.605  11.365   6.335  0.0501 -0.5161  0.1418
  837MOL0     C15435   7.746  11.337   6.323  0.7550 -0.5610 -0.4911
  837MOL0     C15436   7.786  11.307   6.180  0.1558  0.4458  0.3911
  837MOL0     H15437   8.163  11.157   6.594  4.1652 -3.3896  1.3415
  837MOL0     H15438   8.404  11.125   6.653  0.5371 -1.0254 -2.3445
  837MOL0     H15439   8.615  11.107   6.675  0.6550 -0.1336  0.7778
  837MOL0     H15440   8.559  11.210   6.811  2.7842  1.4336  2.2437
  837MOL0     H15441   8.805  11.146   6.814  1.2630 -0.7565 -1.1489
  837MOL0     H15442   8.820  11.204   6.654 -1.7853  1.5983 -1.6201
  837MOL0     H15443   8.765  11.452   6.741  2.2858  0.9391  0.6750
  837MOL0     H15444   8.725  11.391   6.896  0.4860  1.3815 -0.2256
  837MOL0     H15445   8.984  11.286   6.874 -2.8294  0.0097  2.4613
  837MOL0     H15446   8.998  11.434   6.777  2.0353 -1.3910  0.3717
  837MOL0     H15447   9.049  11.485   7.023 -1.2036  0.4583  1.8486
  837MOL0     H15448   8.887  11.436   7.058  0.7881  0.2672  0.0832
  837MOL0     H15449   8.968  11.659   6.861 -2.8608  1.3878 -1.4328
  837MOL0     H15450   8.802  11.635   6.917 -1.5384 -1.4726  1.0781
  837MOL0     H15451   8.917  11.679   7.160 -0.2752  3.2528  2.2795
  837MOL0     H15452   8.809  11.780   7.054  1.8935  2.2198 -2.0326
  837MOL0     H15453   8.991  11.895   6.962 -0.0808  1.2156  0.4868
  837MOL0     H15454   9.001  11.909   7.142  2.2045  0.1062 -1.2212
  837MOL0     H15455   9.228  11.939   6.874 -0.7274  0.6444 -0.0805
  837MOL0     H15456   9.534  11.858   6.990 -2.2398 -2.0651  3.6481
  837MOL0     H15457   9.473  11.866   6.820 -0.0063  0.1276 -1.1633
  837MOL0     H15458   9.518  11.587   6.922 -0.7018 -0.1647 -0.5401
  837MOL0     H15459   9.518  11.657   6.759 -0.3982 -2.0877  0.9475
  837MOL0     H15460   9.745  11.697   6.975  1.2712  1.7177 -0.8875
  837MOL0     H15461   9.743  11.579   6.844  0.6263  0.3480 -3.0045
  837MOL0     H15462   9.733  11.884   6.831  0.4123 -0.6807  1.5138
  837MOL0     H15463   9.876  11.773   6.815 -0.8011 -5.1103  1.6274
  837MOL0     H15464   9.991  11.900   6.681  0.8600 -0.2701  0.1224
  837MOL0     H15465  10.164  12.035   6.497  0.5545  0.0156  1.7100
  837MOL0     H15466  10.287  11.900   6.484  0.1280 -0.5257 -1.6509
  837MOL0     H15467  10.219  11.942   6.634  1.2171  1.5003 -0.2196
  837MOL0     H15468  10.493  11.622   6.234 -1.3437 -0.9412  0.1257
  837MOL0     H15469  10.628  11.596   6.038  0.7834 -1.5920 -0.5314
  837MOL0     H15470  10.450  11.678   5.614  1.4247 -1.9789 -1.7627
  837MOL0     H15471  10.560  11.795   5.701 -0.5448  0.1183  0.0335
  837MOL0     H15472  10.649  11.550   5.546 -0.8602  0.1907 -2.1757
  837MOL0     H15473  10.665  11.718   5.485  0.1011 -0.3269  0.1966
  837MOL0     H15474  10.808  11.607   5.727 -0.2868 -0.3887 -0.3096
  837MOL0     H15475  10.802  11.779   5.670 -0.7243 -0.1604  0.7598
  837MOL0     H15476  10.894  11.694   5.461  0.0509 -0.3898  0.1288
  837MOL0     H15477  10.929  11.540   5.529  1.6648  0.4424  0.1571
  837MOL0     H15478  11.063  11.772   5.667 -1.1748  1.5922 -1.7297
  837MOL0     H15479  11.057  11.604   5.703  2.5993 -0.4574  0.0479
  837MOL0     H15480  11.147  11.699   5.432  1.0501  1.5301  1.0970
  837MOL0     H15481  11.163  11.540   5.501 -0.3503  0.5647  0.6070
  837MOL0     H15482  11.305  11.684   5.684 -0.0036  1.7113  0.1899
  837MOL0     H15483  11.329  11.786   5.543 -0.9270  0.6882  1.7280
  837MOL0     H15484  11.381  11.479   5.543 -0.2199  0.8475  2.6178
  837MOL0     H15485  11.516  11.590   5.550  0.6476  0.1362 -0.5301
  837MOL0     H15486  10.283  11.684   5.798  1.5778 -1.4124 -0.6064
  837MOL0     H15487  10.144  11.689   5.984 -0.0615  1.3596  1.8129
  837MOL0     H15488   9.915  11.645   6.266  0.5601  0.8441  0.1703
  837MOL0     H15489   9.744  11.648   6.427 -0.1001  0.0718 -0.3646
  837MOL0     H15490   8.493  11.512   6.514 -0.6010  1.6081  2.0294
  837MOL0     H15491   8.262  11.543   6.434  3.4601 -0.5960 -2.1479
  837MOL0     H15492   7.821  11.372   6.658 -2.8316 -0.6238  0.7031
  837MOL0     H15493   7.599  11.442   6.657 -2.9266  1.9856 -2.3624
  837MOL0     H15494   7.381  11.364   6.643  0.7059  1.6501  0.4557
  837MOL0     H15495   7.411  11.537   6.634 -0.4718  0.8537  0.5577
  837MOL0     H15496   7.193  11.579   6.536  1.2501  2.2093  1.7089
  837MOL0     H15497   7.176  11.488   6.688  1.5865  0.0198  0.7441
  837MOL0     H15498   7.169  11.368   6.408  2.1489  1.3753  0.6355
  837MOL0     H15499   7.140  11.281   6.562  0.9929  2.0135  1.7759
  837MOL0     H15500   6.954  11.501   6.449 -0.4336 -0.5175  0.7375
  837MOL0     H15501   6.932  11.396   6.587  2.6294 -0.0899  1.9170
  837MOL0     H15502   6.860  11.088   6.300 -1.8535 -0.4318 -0.6280
  837MOL0     H15503   7.542  11.366   6.247  2.4191 -0.0011 -1.6791
  837MOL0     H15504   7.860  11.227   6.178  0.5392  0.7620  1.3977
  837MOL0     H15505   7.696  11.276   6.125 -0.4998  0.5449  1.3815
  837MOL0     H15506   7.832  11.394   6.131 -1.2438  0.1403 -1.6066
  838MOL0     O15507   1.420   2.497   5.466 -0.3539 -0.2647  0.1294
  838MOL0     C15508   1.302   2.482   5.445 -0.9536  0.9533  0.7030
  838MOL0     O15509   1.199   2.553   5.503 -0.2903 -0.1526  0.4346
  838MOL0     C15510   1.224   2.622   5.617 -0.0711 -0.3391 -0.4560
  838MOL0     C15511   1.306   2.731   5.611 -0.4395 -0.2155 -0.4149
  838MOL0     C15512   1.327   2.801   5.736 -0.5870  0.2209  0.9555
  838MOL0     C15513   1.267   2.761   5.857  0.3788  0.2213  0.7066
  838MOL0     O15514   1.285   2.833   5.975  0.8633  0.3628 -0.0701
  838MOL0     C15515   1.364   2.755   6.072  0.4830  0.1681  1.1485
  838MOL0     C15516   1.418   2.858   6.174 -0.3241  0.3492  0.4323
  838MOL0     C15517   1.550   2.918   6.126 -0.2664  0.1845 -0.3267
  838MOL0     C15518   1.533   2.989   5.980 -0.4223  0.2152  0.4647
  838MOL0     C15519   1.658   3.061   5.932 -0.9118  0.3160 -0.9522
  838MOL0     C15520   1.689   3.181   6.016  0.5333 -0.0223  0.6767
  838MOL0     C15521   1.829   3.234   5.988  0.2285  0.7828 -0.1266
  838MOL0     C15522   1.871   3.357   6.054  0.0738 -0.1577 -0.1852
  838MOL0     N15523   2.014   3.366   6.057 -1.3333 -0.6733  0.5449
  838MOL0     C15524   2.090   3.433   5.958  1.0277 -0.2432 -0.0786
  838MOL0     C15525   2.211   3.426   6.004 -0.4165  0.3152 -1.0803
  838MOL0     C15526   2.337   3.472   5.947 -0.4026  0.7625  0.3178
  838MOL0     C15527   2.458   3.381   5.960 -0.2429 -0.3786  0.7423
  838MOL0     C15528   2.538   3.397   6.090  0.3629  0.2380  0.0126
  838MOL0     C15529   2.627   3.521   6.089 -0.3775 -0.2557 -0.4158
  838MOL0     O15530   2.714   3.516   6.208  0.7700  0.0736  0.1153
  838MOL0     C15531   2.834   3.583   6.209  0.4141 -0.0034 -0.1848
  838MOL0     C15532   2.863   3.686   6.117  0.6033  0.0797 -0.1361
  838MOL0     C15533   2.981   3.756   6.122 -0.0764 -0.8032 -0.4644
  838MOL0     C15534   3.012   3.868   6.019 -0.9061  0.8130 -0.1460
  838MOL0     C15535   3.070   3.731   6.233 -0.7858  0.3854  0.9513
  838MOL0     C15536   3.192   3.811   6.256  0.5577  0.9156 -0.1002
  838MOL0     O15537   3.219   3.864   6.382  0.7815 -0.4368  0.0733
  838MOL0     C15538   3.309   3.963   6.406 -0.3784  0.5966 -0.4403
  838MOL0     C15539   3.342   3.989   6.541 -0.1765 -0.4404 -0.9439
  838MOL0     C15540   3.443   4.078   6.567  0.3876  1.1437 -0.4883
  838MOL0     C15541   3.503   4.158   6.471  1.1105  0.0009 -1.0610
  838MOL0     O15542   3.604   4.244   6.499  0.0520  0.0130  0.5592
  838MOL0     C15543   3.626   4.365   6.428 -0.1819 -0.1986  0.2845
  838MOL0     C15544   3.731   4.458   6.501 -0.6016  0.6357  0.0970
  838MOL0     C15545   3.879   4.410   6.501  0.3593  0.0665 -0.3842
  838MOL0     C15546   3.981   4.500   6.546 -1.2873  0.9171  0.5111
  838MOL0     C15547   3.963   4.581   6.678 -0.5760  0.8003  0.1799
  838MOL0     C15548   4.067   4.691   6.677  0.2737 -0.4352  0.6936
  838MOL0     C15549   4.066   4.793   6.790 -0.3982  0.5469  0.7883
  838MOL0     C15550   4.063   4.728   6.921  0.4580 -0.4554 -0.3729
  838MOL0    Cl15551   3.891   4.719   6.958 -0.0141  0.1753  0.0034
  838MOL0     C15552   3.449   4.141   6.344  1.2083  0.1695  0.4528
  838MOL0     C15553   3.358   4.045   6.310 -0.3955 -0.3530  0.8515
  838MOL0     O15554   3.264   3.819   6.159  0.6713  0.0592  0.2700
  838MOL0     C15555   3.037   3.633   6.320 -0.0120 -0.1737 -0.2347
  838MOL0     C15556   2.926   3.550   6.312 -0.1872 -0.2510 -0.5789
  838MOL0     N15557   2.218   3.382   6.138 -0.1658 -0.2926 -0.3994
  838MOL0     N15558   2.095   3.343   6.165 -0.1090  0.7625 -0.1241
  838MOL0     C15559   1.184   2.643   5.858  0.3244 -1.3701 -0.4334
  838MOL0     C15560   1.164   2.578   5.736  0.1448  0.2216 -0.2553
  838MOL0     C15561   1.273   2.395   5.327  0.1420  0.2893 -0.3168
  838MOL0     C15562   1.381   2.321   5.279  0.2331  0.3877  0.2858
  838MOL0     C15563   1.362   2.245   5.161 -0.1968 -0.2426  0.1376
  838MOL0     C15564   1.244   2.237   5.091  0.0574  0.4096  1.1676
  838MOL0     O15565   1.220   2.145   4.992  0.1508 -0.1698 -0.3626
  838MOL0     C15566   1.291   2.165   4.871 -0.3035  0.1160 -0.0667
  838MOL0     C15567   1.199   2.229   4.762  0.6928  0.0559 -0.6090
  838MOL0     C15568   1.075   2.138   4.723 -0.9594  0.2173 -0.2451
  838MOL0     C15569   0.968   2.219   4.651  0.5093  0.0783  0.4443
  838MOL0     C15570   1.020   2.260   4.521  0.7276  0.9349  0.8543
  838MOL0     C15571   1.084   2.301   4.416  0.5323 -0.3319  0.0737
  838MOL0     C15572   1.142   2.327   5.138  0.0528  1.1372 -0.0677
  838MOL0     C15573   1.158   2.401   5.242  0.5198 -0.6453 -0.3513
  838MOL0     C15574   1.051   2.509   5.257 -0.4090  0.2109  0.6378
  838MOL0     H15575   1.350   2.754   5.515 -0.2474 -1.5685 -0.6767
  838MOL0     H15576   1.393   2.887   5.727  0.3395 -0.5035  0.6452
  838MOL0     H15577   1.459   2.711   6.040  0.0843 -0.4115  0.7412
  838MOL0     H15578   1.297   2.679   6.114 -1.6690  0.7372 -1.0374
  838MOL0     H15579   1.343   2.933   6.200 -1.2278  0.0714 -1.2042
  838MOL0     H15580   1.431   2.805   6.269 -1.0396 -4.8744 -2.0202
  838MOL0     H15581   1.570   3.005   6.190  0.1209  2.1175 -2.8572
  838MOL0     H15582   1.623   2.837   6.135 -0.8206 -0.1420  1.5374
  838MOL0     H15583   1.497   2.921   5.902  0.1331 -1.0994  1.3055
  838MOL0     H15584   1.448   3.056   5.991  0.3995  1.0909  1.7117
  838MOL0     H15585   1.651   3.079   5.824 -0.1529  1.2290 -0.8560
  838MOL0     H15586   1.743   2.992   5.936 -0.4607  0.7098 -2.7221
  838MOL0     H15587   1.626   3.262   5.977 -1.7030 -2.6670 -1.6287
  838MOL0     H15588   1.671   3.168   6.123 -0.3722  1.0133  0.6611
  838MOL0     H15589   1.848   3.253   5.882  2.0076  1.9534  0.3477
  838MOL0     H15590   1.908   3.170   6.030  0.3214  1.6439  1.0764
  838MOL0     H15591   1.833   3.440   5.994  4.9981  0.6029 -2.7872
  838MOL0     H15592   1.825   3.368   6.152 -1.7977 -1.5910 -0.8269
  838MOL0     H15593   2.044   3.479   5.871 -1.5439 -0.4359  1.0908
  838MOL0     H15594   2.354   3.576   5.976 -0.7400  0.4761  1.5838
  838MOL0     H15595   2.332   3.485   5.838 -0.9913 -0.1626  0.2251
  838MOL0     H15596   2.421   3.280   5.941 -1.2752 -0.0069  0.7323
  838MOL0     H15597   2.519   3.412   5.875 -2.0182  1.0850 -0.0619
  838MOL0     H15598   2.475   3.402   6.180  1.9935  0.7791  1.1639
  838MOL0     H15599   2.606   3.313   6.109 -0.0476 -0.1611 -0.2418
  838MOL0     H15600   2.693   3.526   6.001 -4.2036 -0.3096 -3.5573
  838MOL0     H15601   2.569   3.614   6.087  1.3308  0.8643  0.0005
  838MOL0     H15602   2.799   3.721   6.036  0.2224 -0.8789 -0.2629
  838MOL0     H15603   2.960   3.958   6.054 -0.3079  1.7969 -1.6843
  838MOL0     H15604   2.986   3.837   5.918  0.9815  0.7483 -0.6453
  838MOL0     H15605   3.117   3.898   6.018 -0.5183 -0.4953  0.0667
  838MOL0     H15606   3.288   3.926   6.612  1.1407  0.8339  1.3094
  838MOL0     H15607   3.485   4.082   6.667 -0.7741 -0.4162  0.1050
  838MOL0     H15608   3.676   4.345   6.333  1.5504 -0.2158  1.1650
  838MOL0     H15609   3.537   4.428   6.418  0.0405  0.0760  0.0001
  838MOL0     H15610   3.721   4.555   6.452 -0.4149 -0.1057 -1.4876
  838MOL0     H15611   3.689   4.468   6.602 -3.0290  2.3616 -1.0013
  838MOL0     H15612   3.903   4.365   6.404 -0.3748 -3.9843  1.1016
  838MOL0     H15613   3.884   4.324   6.569  0.3146  0.9095  0.7034
  838MOL0     H15614   3.994   4.578   6.471  2.3383  0.9044  0.9686
  838MOL0     H15615   4.073   4.442   6.539 -0.3448  2.3072  0.8164
  838MOL0     H15616   3.863   4.624   6.670 -0.2902  1.3872 -0.4248
  838MOL0     H15617   3.967   4.511   6.762  1.7551 -0.6116 -0.9965
  838MOL0     H15618   4.059   4.755   6.589  1.4426  3.3457  3.0799
  838MOL0     H15619   4.169   4.653   6.664  1.9082  3.6355  0.0663
  838MOL0     H15620   3.978   4.853   6.765 -1.0963 -1.6344 -2.5685
  838MOL0     H15621   4.157   4.854   6.784  1.9207 -2.7546 -0.2800
  838MOL0     H15622   4.107   4.784   7.004 -0.7986  0.7758 -0.5038
  838MOL0     H15623   4.104   4.627   6.926  1.6367  0.0808  3.5805
  838MOL0     H15624   3.482   4.201   6.259 -2.1731  0.4580 -0.8058
  838MOL0     H15625   3.338   4.048   6.203 -0.2699 -0.0426  0.8346
  838MOL0     H15626   3.104   3.613   6.403  0.1574  0.4040 -0.2278
  838MOL0     H15627   2.911   3.470   6.384 -1.4493 -1.2470 -1.8887
  838MOL0     H15628   1.131   2.605   5.945  1.8437 -2.6524 -0.0228
  838MOL0     H15629   1.095   2.495   5.744  2.2354 -1.6089 -0.3288
  838MOL0     H15630   1.474   2.299   5.330  1.3082  1.1479 -1.2762
  838MOL0     H15631   1.441   2.184   5.117 -1.8855 -0.5520 -2.7381
  838MOL0     H15632   1.373   2.235   4.888 -0.8960  0.9299 -0.5001
  838MOL0     H15633   1.322   2.066   4.837 -3.6212 -1.7510  1.8538
  838MOL0     H15634   1.271   2.252   4.683  2.8226 -2.3782  0.4886
  838MOL0     H15635   1.157   2.320   4.807  0.4097 -0.1596 -0.4352
  838MOL0     H15636   1.110   2.052   4.664  1.6172  0.9490  0.0643
  838MOL0     H15637   1.038   2.093   4.816  0.4198  0.6990  0.5703
  838MOL0     H15638   0.929   2.300   4.712 -2.0871 -0.3496 -0.5319
  838MOL0     H15639   0.877   2.160   4.641 -1.0181  2.2664  0.8314
  838MOL0     H15640   1.131   2.342   4.329  0.7460 -0.2228  0.2380
  838MOL0     H15641   1.055   2.326   5.073 -1.1102  1.6541  1.4113
  838MOL0     H15642   0.989   2.473   5.340  0.2187  0.8275  1.3867
  838MOL0     H15643   1.107   2.601   5.278 -1.4767  0.8820  0.5950
  838MOL0     H15644   0.982   2.513   5.172  0.9319 -2.1101 -0.6689
  839MOL0     O15645   9.920   1.214   8.441  0.2586 -0.4430 -0.3477
  839MOL0     C15646   9.840   1.143   8.498  0.7819 -0.2656 -0.5069
  839MOL0     O15647   9.864   1.019   8.560  0.2906 -0.9064 -0.7192
  839MOL0     C15648   9.990   0.971   8.575  0.1063  0.1640 -0.2159
  839MOL0     C15649   9.994   0.856   8.648 -0.1083  0.1404  0.5446
  839MOL0     C15650  10.105   0.770   8.663 -0.2288 -0.0736  0.0081
  839MOL0     C15651  10.227   0.808   8.606 -0.6760 -0.6544  1.0381
  839MOL0     O15652  10.328   0.717   8.605  0.9977  0.2870 -0.3045
  839MOL0     C15653  10.457   0.738   8.547 -0.7636 -0.0415  0.7013
  839MOL0     C15654  10.547   0.622   8.566 -0.0725  0.1531 -1.1440
  839MOL0     C15655  10.695   0.643   8.532 -0.6292  0.8076  0.0562
  839MOL0     C15656  10.777   0.509   8.547  0.1187 -0.3802 -0.8289
  839MOL0     C15657  10.913   0.534   8.479  0.5223 -0.4624 -0.1879
  839MOL0     C15658  10.929   0.446   8.354  0.3891 -0.8013  0.6714
  839MOL0     C15659  11.052   0.482   8.271  0.9051  0.7487  0.4146
  839MOL0     C15660  11.182   0.480   8.349  0.4390 -0.0548  0.2384
  839MOL0     N15661  11.313   0.477   8.279  0.5579 -0.3254  0.0643
  839MOL0     C15662  11.425   0.443   8.351  1.1533  0.4111 -0.2647
  839MOL0     C15663  11.528   0.484   8.277  0.3970 -0.0331 -0.5094
  839MOL0     C15664  11.669   0.469   8.306 -0.3219 -0.6714  0.4903
  839MOL0     C15665  11.758   0.592   8.294  0.2257  0.6912  0.0563
  839MOL0     C15666  11.906   0.567   8.359  0.0304 -0.0429  0.5693
  839MOL0     C15667  11.980   0.694   8.356 -0.5715 -0.2448 -0.1176
  839MOL0     O15668  12.006   0.755   8.224 -0.0010  0.8993 -0.2672
  839MOL0     C15669  12.092   0.863   8.227 -0.4964  0.3728 -0.0814
  839MOL0     C15670  12.158   0.897   8.109  0.8204 -0.9008 -0.1851
  839MOL0     C15671  12.258   0.999   8.101 -0.2621 -0.2929 -1.3051
  839MOL0     C15672  12.310   1.019   7.968 -0.4319 -0.8957 -0.5292
  839MOL0     C15673  12.296   1.071   8.224 -0.6037  0.3823 -0.0116
  839MOL0     C15674  12.412   1.170   8.227 -0.7764 -1.0243  0.5273
  839MOL0     O15675  12.431   1.232   8.347  0.3039  0.8766  0.0143
  839MOL0     C15676  12.538   1.318   8.361 -0.7972 -0.3887  0.2115
  839MOL0     C15677  12.509   1.455   8.336 -0.1087  0.6987  0.1463
  839MOL0     C15678  12.606   1.544   8.346 -0.0224  0.1959  0.5179
  839MOL0     C15679  12.738   1.498   8.366  0.0804  0.3750 -0.1241
  839MOL0     O15680  12.823   1.596   8.380 -0.0852 -0.1905  0.3420
  839MOL0     C15681  12.875   1.613   8.515 -0.2579  0.4841 -0.3498
  839MOL0     C15682  12.984   1.709   8.524 -0.2417  0.0340  0.5105
  839MOL0     C15683  12.935   1.851   8.480  0.6469 -0.0670 -0.2474
  839MOL0     C15684  13.048   1.951   8.475 -0.4269 -0.1684  0.0419
  839MOL0     C15685  13.115   1.967   8.335  0.0986  0.5073 -0.2009
  839MOL0     C15686  13.209   2.085   8.327 -0.4854 -0.2185  0.5103
  839MOL0     C15687  13.140   2.220   8.303 -0.5050  0.1221 -0.0804
  839MOL0     C15688  13.241   2.338   8.293 -1.0217 -0.0684  0.7066
  839MOL0    Cl15689  13.340   2.347   8.132  0.5644  0.1142  0.1098
  839MOL0     C15690  12.770   1.365   8.384 -0.7673  0.2219  1.0005
  839MOL0     C15691  12.668   1.276   8.384 -0.2755  0.0533  0.2391
  839MOL0     O15692  12.482   1.192   8.124 -0.0050 -0.5974  0.2986
  839MOL0     C15693  12.226   1.042   8.340  0.2795  0.2844  0.3153
  839MOL0     C15694  12.127   0.944   8.341  0.0543  0.0176 -0.9509
  839MOL0     N15695  11.490   0.551   8.158 -0.0065  0.2459  0.1714
  839MOL0     N15696  11.359   0.556   8.174  0.2923 -0.8072  0.4594
  839MOL0     C15697  10.232   0.939   8.544  1.0309 -0.6219 -0.1317
  839MOL0     C15698  10.112   1.010   8.516  0.2754  0.1873 -0.4486
  839MOL0     C15699   9.698   1.183   8.496  0.1149  0.7830 -0.7898
  839MOL0     C15700   9.597   1.105   8.561  0.3334 -0.5932  1.0541
  839MOL0     C15701   9.462   1.140   8.580 -0.3339  0.5110  0.1934
  839MOL0     C15702   9.420   1.261   8.526  0.4576  0.3015 -0.4604
  839MOL0     O15703   9.284   1.290   8.557  0.6292  0.3409 -0.9132
  839MOL0     C15704   9.235   1.401   8.504 -0.1962 -0.6958  0.0004
  839MOL0     C15705   9.087   1.417   8.530 -0.5412 -0.8187 -0.0884
  839MOL0     C15706   9.050   1.422   8.678 -0.8922  0.5475 -0.1628
  839MOL0     C15707   8.902   1.463   8.693  0.4740 -0.4411 -0.1771
  839MOL0     C15708   8.822   1.337   8.673 -0.4796 -0.5424  0.1867
  839MOL0     C15709   8.758   1.238   8.656 -0.2537  0.2255  0.5548
  839MOL0     C15710   9.506   1.337   8.443  0.3850 -0.4570 -0.7626
  839MOL0     C15711   9.643   1.306   8.442  0.1380  0.2834 -1.3747
  839MOL0     C15712   9.721   1.409   8.359  0.4125 -0.7386  1.0818
  839MOL0     H15713   9.902   0.823   8.696  0.7184 -2.6579  0.4078
  839MOL0     H15714  10.087   0.676   8.715 -2.1480  0.4369  0.3128
  839MOL0     H15715  10.507   0.823   8.594  0.9350  0.0607 -1.1308
  839MOL0     H15716  10.443   0.759   8.440 -2.3341  1.1245  1.0974
  839MOL0     H15717  10.537   0.587   8.670  3.1377 -2.1615 -1.4859
  839MOL0     H15718  10.501   0.539   8.512 -0.0549 -0.1885 -0.6454
  839MOL0     H15719  10.710   0.662   8.425  0.5713 -2.1666 -0.3989
  839MOL0     H15720  10.746   0.719   8.593 -0.2047  1.2096 -0.7810
  839MOL0     H15721  10.788   0.511   8.656 -2.4709  1.8248 -0.5011
  839MOL0     H15722  10.724   0.420   8.515  2.2564 -1.5983 -1.1966
  839MOL0     H15723  10.991   0.507   8.550  2.0914  0.3841 -1.5403
  839MOL0     H15724  10.923   0.641   8.457  1.6543 -0.0985  1.8565
  839MOL0     H15725  10.937   0.345   8.395 -2.9021 -1.2137  0.6327
  839MOL0     H15726  10.837   0.455   8.295 -0.0025 -1.6237  1.1339
  839MOL0     H15727  11.038   0.577   8.219 -2.3552  0.9849  1.5162
  839MOL0     H15728  11.067   0.399   8.201 -2.8721 -1.4534  1.8848
  839MOL0     H15729  11.181   0.574   8.405 -1.0956  0.4942 -0.6510
  839MOL0     H15730  11.165   0.395   8.416 -5.3885 -0.0888 -0.7835
  839MOL0     H15731  11.425   0.411   8.455  0.5914 -3.2200 -1.2203
  839MOL0     H15732  11.709   0.383   8.251 -0.8665 -2.7610  3.1262
  839MOL0     H15733  11.677   0.422   8.405 -0.3742 -0.7378  0.4632
  839MOL0     H15734  11.771   0.624   8.190  0.3977  0.9107  0.1432
  839MOL0     H15735  11.703   0.675   8.340 -1.3342 -0.8287  1.0439
  839MOL0     H15736  11.895   0.547   8.466 -0.9498  0.5431  0.5955
  839MOL0     H15737  11.962   0.487   8.309 -1.1883 -1.3197  1.1663
  839MOL0     H15738  11.935   0.758   8.432 -0.2461 -0.0044 -0.1232
  839MOL0     H15739  12.079   0.670   8.395 -1.1031  0.6363  1.9208
  839MOL0     H15740  12.122   0.845   8.021 -3.3774 -1.4911  1.6525
  839MOL0     H15741  12.407   0.967   7.965  0.1657  0.2071 -0.6491
  839MOL0     H15742  12.331   1.125   7.951  0.2398 -1.4949 -4.6879
  839MOL0     H15743  12.251   0.986   7.882  3.4518 -1.2422 -3.3741
  839MOL0     H15744  12.403   1.476   8.334 -0.2093  0.7937  2.7831
  839MOL0     H15745  12.608   1.649   8.320 -1.2667  1.1413  3.7259
  839MOL0     H15746  12.791   1.634   8.581  0.4177 -0.9307  1.0141
  839MOL0     H15747  12.918   1.521   8.555  0.1832  0.6233 -0.4965
  839MOL0     H15748  13.018   1.702   8.628 -1.1356  0.0336  0.8136
  839MOL0     H15749  13.069   1.672   8.466 -1.5873 -3.4291  0.4995
  839MOL0     H15750  12.863   1.887   8.554  1.2269  0.9754 -0.1771
  839MOL0     H15751  12.872   1.845   8.390 -0.4076 -0.5919  0.5020
  839MOL0     H15752  13.127   1.934   8.548  0.8348  3.2459 -0.3419
  839MOL0     H15753  13.013   2.049   8.507  0.0856  0.7100 -1.8972
  839MOL0     H15754  13.172   1.875   8.319 -0.9972 -0.4434  1.0442
  839MOL0     H15755  13.042   1.966   8.253 -0.1650  1.4480  0.0098
  839MOL0     H15756  13.284   2.064   8.250 -1.4341 -1.1336 -0.1884
  839MOL0     H15757  13.266   2.080   8.420  1.0741  0.8338 -0.3432
  839MOL0     H15758  13.058   2.235   8.373 -0.1645 -0.0984  0.3680
  839MOL0     H15759  13.085   2.207   8.209  1.0057  2.2193 -1.3449
  839MOL0     H15760  13.300   2.331   8.385  1.0651 -2.8677 -0.7206
  839MOL0     H15761  13.179   2.428   8.293  2.3645  2.5008  0.3744
  839MOL0     H15762  12.872   1.335   8.406 -1.0865 -0.3642  1.7094
  839MOL0     H15763  12.686   1.171   8.404 -2.6486 -0.4004  0.2787
  839MOL0     H15764  12.235   1.103   8.429 -0.8584 -0.4685  0.9832
  839MOL0     H15765  12.079   0.932   8.438 -2.2253 -0.7474 -2.1089
  839MOL0     H15766  10.319   0.986   8.500  0.8118  3.3144  3.1003
  839MOL0     H15767  10.119   1.097   8.451 -0.8737  3.6566  3.6301
  839MOL0     H15768   9.609   1.004   8.599  1.5214 -0.4475  1.1145
  839MOL0     H15769   9.391   1.076   8.631 -2.2279  0.5604 -2.2299
  839MOL0     H15770   9.284   1.493   8.537 -0.2979 -0.4838 -0.4321
  839MOL0     H15771   9.253   1.391   8.397  0.7251 -4.2055  0.3660
  839MOL0     H15772   9.022   1.336   8.495 -3.1387  1.6482 -1.3717
  839MOL0     H15773   9.044   1.505   8.482 -0.4966 -0.8538 -0.1928
  839MOL0     H15774   9.068   1.320   8.713 -2.4636 -0.1531 -1.2699
  839MOL0     H15775   9.118   1.486   8.735 -0.3533  0.5650 -0.8195
  839MOL0     H15776   8.871   1.552   8.638  1.2547  2.0018  3.0127
  839MOL0     H15777   8.897   1.504   8.794  0.1256  2.3890 -1.2476
  839MOL0     H15778   8.704   1.148   8.633 -0.8900  0.2828  1.7652
  839MOL0     H15779   9.467   1.426   8.394 -1.0167  0.2573  1.5189
  839MOL0     H15780   9.828   1.411   8.380  0.7678  0.2949 -0.6187
  839MOL0     H15781   9.714   1.383   8.253  1.2394  0.9621  0.5854
  839MOL0     H15782   9.676   1.508   8.366 -1.8567 -1.5746 -0.3488
  840MOL0     O15783   1.981   0.330   6.452 -0.2280  0.3902 -0.2983
  840MOL0     C15784   1.929   0.429   6.398  0.2147  1.8599 -0.7144
  840MOL0     O15785   1.801   0.432   6.350  0.3600 -0.3246 -0.2508
  840MOL0     C15786   1.713   0.334   6.314 -1.0935 -0.1849  0.0864
  840MOL0     C15787   1.739   0.199   6.295 -0.4832  0.0135 -0.1880
  840MOL0     C15788   1.639   0.108   6.263 -0.0235 -0.3235 -0.3813
  840MOL0     C15789   1.512   0.146   6.249  1.0024 -0.2707  0.3697
  840MOL0     O15790   1.437   0.036   6.225  0.0125  0.0466  0.3266
  840MOL0     C15791   1.323   0.049   6.131  0.2653 -0.5508 -0.2771
  840MOL0     C15792   1.281  -0.094   6.098 -0.0403 -0.8227 -1.2115
  840MOL0     C15793   1.152  -0.092   6.016 -0.1719 -0.1328 -0.0760
  840MOL0     C15794   1.102  -0.234   6.003  0.5535  0.6159  0.6242
  840MOL0     C15795   0.950  -0.252   5.967 -0.6827 -0.0614 -0.1790
  840MOL0     C15796   0.921  -0.402   5.943 -0.6088 -1.0509  0.8397
  840MOL0     C15797   0.795  -0.408   5.852  0.0228 -1.0324  0.0262
  840MOL0     C15798   0.777  -0.557   5.819  0.2639 -0.6876 -0.9647
  840MOL0     N15799   0.651  -0.552   5.744  0.1291  0.0674 -0.3768
  840MOL0     C15800   0.526  -0.587   5.800 -0.5069  0.5436 -0.5573
  840MOL0     C15801   0.435  -0.542   5.711 -0.2686 -0.2794  0.5620
  840MOL0     C15802   0.289  -0.561   5.720  0.7524  1.3206 -0.2956
  840MOL0     C15803   0.224  -0.599   5.589 -0.6455  0.5738  0.6892
  840MOL0     C15804   0.077  -0.608   5.602  0.6715  0.3142 -0.4527
  840MOL0     C15805   0.014  -0.642   5.466  0.9844  0.5143  0.1687
  840MOL0     O15806  -0.127  -0.659   5.500 -0.7130  0.0593 -0.3070
  840MOL0     C15807  -0.175  -0.776   5.459  0.3074  0.4759 -0.4180
  840MOL0     C15808  -0.248  -0.772   5.341  0.7469 -0.4499  0.1204
  840MOL0     C15809  -0.265  -0.889   5.263  0.4451  0.9348 -0.6589
  840MOL0     C15810  -0.356  -0.872   5.137 -0.5343  0.5060  0.5394
  840MOL0     C15811  -0.224  -1.020   5.328 -0.0381 -0.7064 -0.5639
  840MOL0     C15812  -0.223  -1.152   5.271 -0.0287  0.6468  0.4238
  840MOL0     O15813  -0.151  -1.253   5.325  0.2692 -0.0930 -0.2365
  840MOL0     C15814  -0.160  -1.379   5.262  0.7004  0.3725 -0.6008
  840MOL0     C15815  -0.106  -1.396   5.131  0.8008  0.9077  0.3287
  840MOL0     C15816  -0.090  -1.523   5.079 -0.1200 -0.1796 -0.1087
  840MOL0     C15817  -0.131  -1.631   5.163 -0.3614 -0.4441 -0.8210
  840MOL0     O15818  -0.115  -1.755   5.116 -0.3487 -0.0853 -0.2023
  840MOL0     C15819  -0.076  -1.856   5.206 -1.2123  0.3696  1.4269
  840MOL0     C15820   0.077  -1.844   5.215  0.5197  1.7587 -0.3943
  840MOL0     C15821   0.152  -1.923   5.320  0.2011  0.2527 -0.2726
  840MOL0     C15822   0.075  -2.049   5.358 -0.6169  0.4929 -0.6686
  840MOL0     C15823   0.166  -2.149   5.428 -0.7261 -0.2922 -0.6821
  840MOL0     C15824   0.088  -2.278   5.465 -0.0518  0.4103  0.4446
  840MOL0     C15825   0.171  -2.371   5.555  0.3318  0.3399 -0.2056
  840MOL0     C15826   0.275  -2.450   5.472  0.6007  0.3335 -0.5630
  840MOL0    Cl15827   0.202  -2.536   5.343 -0.0230 -0.1411 -0.0289
  840MOL0     C15828  -0.179  -1.611   5.295 -0.9833  0.5975 -0.3271
  840MOL0     C15829  -0.197  -1.483   5.342 -0.9646  0.9676  0.1503
  840MOL0     O15830  -0.291  -1.163   5.168  0.9251 -0.1867 -0.9353
  840MOL0     C15831  -0.162  -1.018   5.453  0.2682 -1.3216 -0.9365
  840MOL0     C15832  -0.128  -0.901   5.515 -0.8053 -0.3112  0.0172
  840MOL0     N15833   0.500  -0.486   5.611  0.2109  0.1079 -0.1480
  840MOL0     N15834   0.631  -0.484   5.624  0.1814 -1.2663 -0.2977
  840MOL0     C15835   1.488   0.283   6.241  0.8407  0.4412 -0.2621
  840MOL0     C15836   1.585   0.375   6.284 -0.2300 -0.7416 -0.7107
  840MOL0     C15837   2.013   0.551   6.397  0.8027  0.4701  0.2949
  840MOL0     C15838   2.021   0.612   6.269  0.7378  0.2376 -0.0417
  840MOL0     C15839   2.096   0.734   6.253 -0.4277 -0.5483  0.1991
  840MOL0     C15840   2.163   0.783   6.361  0.0154 -1.1489  0.1052
  840MOL0     O15841   2.239   0.893   6.353 -0.1136 -0.4227 -0.0121
  840MOL0     C15842   2.350   0.888   6.436 -0.2743 -0.2015 -0.1280
  840MOL0     C15843   2.453   0.974   6.365  0.6370  0.9029 -0.3591
  840MOL0     C15844   2.437   1.126   6.355  0.4638 -1.5773  0.0674
  840MOL0     C15845   2.578   1.183   6.340  0.4049 -0.3830 -1.1701
  840MOL0     C15846   2.650   1.133   6.230 -0.5382  0.0568 -0.0400
  840MOL0     C15847   2.724   1.083   6.144  0.0141  0.2289 -0.7433
  840MOL0     C15848   2.139   0.724   6.486  0.1856 -0.1119 -0.9720
  840MOL0     C15849   2.071   0.606   6.504  0.4409 -0.5504  0.0798
  840MOL0     C15850   2.065   0.541   6.637  0.0971  0.7914 -1.5750
  840MOL0     H15851   1.834   0.151   6.320 -0.9351 -1.3477 -0.9444
  840MOL0     H15852   1.674   0.005   6.257  1.8948  0.3911 -2.4673
  840MOL0     H15853   1.343   0.107   6.040 -3.3931  0.8168 -0.3870
  840MOL0     H15854   1.246   0.100   6.190  0.6236 -1.8701  1.3986
  840MOL0     H15855   1.369  -0.139   6.051  0.5077 -3.6519  2.1234
  840MOL0     H15856   1.262  -0.143   6.194 -1.1262  0.2087 -0.8703
  840MOL0     H15857   1.084  -0.025   6.069 -0.3944  0.6210 -1.2717
  840MOL0     H15858   1.175  -0.054   5.916 -0.7638  2.0278  0.5729
  840MOL0     H15859   1.162  -0.283   5.925 -0.5921 -2.3239  1.4710
  840MOL0     H15860   1.111  -0.278   6.102 -1.2662 -2.3611 -0.4013
  840MOL0     H15861   0.945  -0.200   5.871 -0.0905  0.6879  0.1836
  840MOL0     H15862   0.895  -0.204   6.049 -1.0189  0.3052 -0.6137
  840MOL0     H15863   1.006  -0.443   5.887 -0.4602 -0.6839  0.7932
  840MOL0     H15864   0.904  -0.452   6.040 -0.5859  1.1865  2.0560
  840MOL0     H15865   0.829  -0.358   5.761  1.5808  0.8529  1.5501
  840MOL0     H15866   0.710  -0.357   5.898 -0.7711 -0.3897 -2.0334
  840MOL0     H15867   0.847  -0.600   5.747  0.0558 -1.8237 -0.4913
  840MOL0     H15868   0.760  -0.629   5.899 -2.2019  0.1792 -0.6102
  840MOL0     H15869   0.500  -0.625   5.898  0.8142 -0.4131 -0.5380
  840MOL0     H15870   0.229  -0.476   5.754 -0.3364  1.0897 -1.5719
  840MOL0     H15871   0.281  -0.647   5.788  1.7003  0.2516 -1.5020
  840MOL0     H15872   0.267  -0.535   5.512 -0.3674 -2.3367 -1.7649
  840MOL0     H15873   0.248  -0.703   5.564 -1.7869  0.5055 -0.1783
  840MOL0     H15874   0.051  -0.687   5.673  0.7967 -1.7828 -2.6173
  840MOL0     H15875   0.032  -0.513   5.634  2.9296  1.2868  0.0331
  840MOL0     H15876   0.013  -0.552   5.404 -2.6361  0.9698  0.6753
  840MOL0     H15877   0.063  -0.725   5.414 -0.0846 -0.2039  0.2697
  840MOL0     H15878  -0.290  -0.679   5.304 -0.5468 -0.2417  1.9566
  840MOL0     H15879  -0.434  -0.799   5.158 -1.9235 -0.9527  0.7140
  840MOL0     H15880  -0.405  -0.966   5.109  1.1359 -0.5025  0.8131
  840MOL0     H15881  -0.298  -0.834   5.052  0.2259 -0.8934  0.3896
  840MOL0     H15882  -0.082  -1.306   5.075 -0.4718  1.1365  0.1346
  840MOL0     H15883  -0.042  -1.528   4.981  3.1481  0.2905  1.3332
  840MOL0     H15884  -0.123  -1.846   5.305  0.0421 -0.4456  2.1361
  840MOL0     H15885  -0.101  -1.958   5.176  0.1737  0.1976  0.8081
  840MOL0     H15886   0.125  -1.871   5.120  0.0482  0.1362 -0.1892
  840MOL0     H15887   0.101  -1.737   5.212  0.4101  1.7951  0.0300
  840MOL0     H15888   0.164  -1.854   5.404 -1.1531 -1.3082  1.2892
  840MOL0     H15889   0.256  -1.949   5.299  0.2938 -2.8309  3.0291
  840MOL0     H15890   0.048  -2.108   5.270  0.3671  0.9444 -1.2980
  840MOL0     H15891  -0.007  -2.017   5.423  0.9504 -0.4342  1.8926
  840MOL0     H15892   0.252  -2.178   5.367  0.8952  1.1893  0.7812
  840MOL0     H15893   0.205  -2.104   5.519 -0.1031 -4.6869  1.4849
  840MOL0     H15894   0.055  -2.334   5.377  0.0071  2.4850 -0.9575
  840MOL0     H15895   0.000  -2.250   5.524 -2.0331  1.3682 -2.7608
  840MOL0     H15896   0.093  -2.429   5.605  0.5040  1.2741  1.2399
  840MOL0     H15897   0.233  -2.313   5.625  1.7380 -2.8884  1.4512
  840MOL0     H15898   0.324  -2.528   5.531 -1.1482 -1.4194 -1.3285
  840MOL0     H15899   0.340  -2.375   5.426 -1.6242  1.9720 -1.1449
  840MOL0     H15900  -0.207  -1.685   5.369  3.1887  1.7307  2.7662
  840MOL0     H15901  -0.238  -1.468   5.442 -0.4595  0.9066  0.3713
  840MOL0     H15902  -0.112  -1.109   5.486 -0.0175 -1.4453 -0.8397
  840MOL0     H15903  -0.068  -0.917   5.603  0.8789 -3.5614 -1.5277
  840MOL0     H15904   1.389   0.324   6.225  0.2970 -0.1307  1.4794
  840MOL0     H15905   1.567   0.480   6.302 -2.7282 -0.8987 -1.8852
  840MOL0     H15906   1.966   0.574   6.183  1.4826  1.4406 -1.0765
  840MOL0     H15907   2.107   0.780   6.156  1.9239  0.1257  0.7234
  840MOL0     H15908   2.333   0.932   6.535 -0.3368  0.8577 -0.5917
  840MOL0     H15909   2.399   0.790   6.441  2.6466  1.0706 -1.3499
  840MOL0     H15910   2.468   0.930   6.266  0.4248 -2.6372  1.0370
  840MOL0     H15911   2.550   0.947   6.406  0.3617 -2.6599 -1.6886
  840MOL0     H15912   2.382   1.131   6.261  2.3166 -1.5850 -1.0776
  840MOL0     H15913   2.386   1.169   6.442 -0.0471 -0.7109 -0.6380
  840MOL0     H15914   2.628   1.147   6.431  1.9876  0.3939 -1.6967
  840MOL0     H15915   2.573   1.292   6.333  1.7220 -0.1131  1.1137
  840MOL0     H15916   2.770   1.037   6.060  2.2727  2.1498 -0.6728
  840MOL0     H15917   2.177   0.770   6.576 -1.1666 -2.8860  1.1563
  840MOL0     H15918   2.136   0.463   6.664 -1.3988 -0.2334 -0.4921
  840MOL0     H15919   2.076   0.623   6.709  1.3674 -0.8262  0.1522
  840MOL0     H15920   1.968   0.495   6.654  1.3183 -0.7730  2.1616
  841MOL0     O15921   4.274   1.333   3.912 -0.0088 -0.4245 -0.6756
  841MOL0     C15922   4.184   1.380   3.984 -0.1565 -1.2225 -0.1383
  841MOL0     O15923   4.058   1.384   3.948  0.8491  0.3442 -0.0851
  841MOL0     C15924   4.002   1.318   3.830  0.0089  0.4093  1.0734
  841MOL0     C15925   4.073   1.249   3.730  0.0466 -1.1595  0.2053
  841MOL0     C15926   4.003   1.197   3.629 -0.1970  0.6673  0.1227
  841MOL0     C15927   3.858   1.208   3.616 -0.4250  0.4559 -0.7201
  841MOL0     O15928   3.785   1.149   3.514 -0.1507 -0.0476 -0.1692
  841MOL0     C15929   3.861   1.126   3.388  0.5692  0.2179 -0.0050
  841MOL0     C15930   3.787   1.115   3.250  0.5357 -1.1855  0.2194
  841MOL0     C15931   3.887   1.129   3.136 -0.3607  0.2869  0.6478
  841MOL0     C15932   3.831   1.224   3.026 -0.0340 -0.0717  0.0836
  841MOL0     C15933   3.926   1.240   2.914  0.0854  0.1202 -0.3883
  841MOL0     C15934   3.886   1.338   2.799 -0.2351 -0.3732 -0.4128
  841MOL0     C15935   3.997   1.359   2.689  0.2948 -0.1503  0.2978
  841MOL0     C15936   3.964   1.455   2.574  0.3830 -0.9588 -0.4493
  841MOL0     N15937   4.066   1.449   2.471  0.3122 -0.2401  0.1911
  841MOL0     C15938   4.052   1.384   2.358 -0.3396 -0.4424 -0.4609
  841MOL0     C15939   4.157   1.427   2.281  0.3511 -0.1799  0.8579
  841MOL0     C15940   4.204   1.356   2.158 -0.1029  0.0720 -0.4675
  841MOL0     C15941   4.157   1.445   2.035 -0.2550  0.6248  0.0739
  841MOL0     C15942   4.250   1.557   1.996  0.0810 -1.0041  0.6577
  841MOL0     C15943   4.381   1.516   1.929 -0.3429 -0.7064 -0.7101
  841MOL0     O15944   4.479   1.622   1.953 -0.7334 -0.0448  0.5412
  841MOL0     C15945   4.601   1.608   1.891  0.0980 -0.8353  0.3816
  841MOL0     C15946   4.645   1.490   1.830  0.3516 -0.2280 -0.6972
  841MOL0     C15947   4.779   1.485   1.777 -0.1031  0.0122 -0.1268
  841MOL0     C15948   4.842   1.344   1.753 -0.2264 -0.0486 -0.2451
  841MOL0     C15949   4.864   1.597   1.782  0.0352 -0.4443  0.1383
  841MOL0     C15950   5.005   1.597   1.733 -0.0714 -1.0215 -0.3280
  841MOL0     O15951   5.050   1.708   1.658 -0.2921 -0.3667  0.2083
  841MOL0     C15952   5.185   1.692   1.615 -0.5315 -0.9316 -0.9868
  841MOL0     C15953   5.279   1.750   1.702  0.1545 -0.9959  0.5863
  841MOL0     C15954   5.425   1.735   1.678 -0.2744  0.1793 -0.1068
  841MOL0     C15955   5.465   1.676   1.554  0.0126  0.2249 -0.3163
  841MOL0     O15956   5.590   1.674   1.505  0.3547 -0.0259 -0.7004
  841MOL0     C15957   5.683   1.608   1.602 -0.4992 -0.2183 -0.0047
  841MOL0     C15958   5.788   1.529   1.521  0.4183 -0.4455  0.1419
  841MOL0     C15959   5.925   1.517   1.587 -0.1284  0.1075 -0.0335
  841MOL0     C15960   5.993   1.658   1.600  0.3003 -0.2342  0.0099
  841MOL0     C15961   6.121   1.660   1.526 -0.0798  0.9286  0.0035
  841MOL0     C15962   6.226   1.574   1.605 -0.7235  0.3184  0.6173
  841MOL0     C15963   6.373   1.607   1.561 -0.5794  0.6425  0.6384
  841MOL0     C15964   6.476   1.508   1.622 -0.9344  0.7675  0.3314
  841MOL0    Cl15965   6.448   1.336   1.593  0.1540 -0.4941  0.0970
  841MOL0     C15966   5.365   1.609   1.476  0.4055  0.2234 -0.9377
  841MOL0     C15967   5.233   1.612   1.516 -0.3659  0.7538  0.4006
  841MOL0     O15968   5.074   1.502   1.773 -0.3546  0.1491 -0.7924
  841MOL0     C15969   4.821   1.715   1.847  0.4783 -0.2615  0.2003
  841MOL0     C15970   4.683   1.712   1.895 -0.0177 -0.0362  0.5578
  841MOL0     N15971   4.225   1.528   2.344 -0.2500  0.5878  0.5663
  841MOL0     N15972   4.167   1.541   2.456 -0.4028 -0.1049 -0.1224
  841MOL0     C15973   3.796   1.280   3.710  0.4716  0.6475 -0.4308
  841MOL0     C15974   3.866   1.336   3.818  0.3224  0.3758  0.0680
  841MOL0     C15975   4.225   1.446   4.115  0.1506  0.5118 -0.2736
  841MOL0     C15976   4.354   1.474   4.140 -0.2569 -0.1309 -1.5245
  841MOL0     C15977   4.392   1.538   4.265  0.3327  0.0619  0.7085
  841MOL0     C15978   4.295   1.597   4.346  0.2969  0.1696 -0.9090
  841MOL0     O15979   4.305   1.676   4.456 -0.4093  0.2674  0.1275
  841MOL0     C15980   4.431   1.701   4.509 -0.1141 -0.8102  0.1989
  841MOL0     C15981   4.510   1.825   4.454  0.5106 -0.0828  0.7680
  841MOL0     C15982   4.430   1.957   4.447 -1.1440  0.3231  0.1259
  841MOL0     C15983   4.408   2.037   4.583  0.1367  1.0401 -0.1768
  841MOL0     C15984   4.535   2.054   4.660  0.1730 -0.1323 -0.3221
  841MOL0     C15985   4.649   2.061   4.711 -0.0808 -0.2540  0.7844
  841MOL0     C15986   4.162   1.575   4.308 -1.1616  0.2425 -0.3344
  841MOL0     C15987   4.119   1.496   4.204 -0.2613 -0.3008 -0.0060
  841MOL0     C15988   3.971   1.458   4.207  0.1289  0.4060 -0.5973
  841MOL0     H15989   4.180   1.245   3.720  0.1005 -0.6451  0.5500
  841MOL0     H15990   4.057   1.135   3.558 -1.6849 -0.8825  0.2776
  841MOL0     H15991   3.909   1.028   3.391  1.7675  0.7951  0.7110
  841MOL0     H15992   3.942   1.199   3.370  1.0489 -0.9640 -3.5072
  841MOL0     H15993   3.736   1.020   3.234 -1.2482 -0.3190  0.4963
  841MOL0     H15994   3.705   1.188   3.249  0.9916 -0.6766 -0.7412
  841MOL0     H15995   3.987   1.160   3.166  1.0705 -1.8175 -1.5884
  841MOL0     H15996   3.886   1.032   3.086  0.5654  0.8425 -0.5028
  841MOL0     H15997   3.745   1.192   2.967  0.5257  1.3656 -1.5758
  841MOL0     H15998   3.807   1.322   3.067  0.1291 -0.1923  0.4744
  841MOL0     H15999   3.959   1.145   2.871 -0.7476 -0.0670 -0.6192
  841MOL0     H16000   4.015   1.293   2.951 -0.1117  0.3194 -0.1980
  841MOL0     H16001   3.792   1.310   2.749 -0.0239  1.3293 -1.8768
  841MOL0     H16002   3.859   1.435   2.843  3.0967  0.0356  0.9954
  841MOL0     H16003   4.025   1.259   2.653 -2.8302 -1.3296  0.7883
  841MOL0     H16004   4.087   1.387   2.743  0.0527  0.1103  0.5702
  841MOL0     H16005   3.865   1.433   2.533  1.4061 -2.0988 -2.4760
  841MOL0     H16006   3.956   1.557   2.611 -2.3082 -1.3141  0.1538
  841MOL0     H16007   3.984   1.301   2.341 -1.6994  0.4005  0.5464
  841MOL0     H16008   4.156   1.258   2.162 -0.6490  0.3438 -0.3481
  841MOL0     H16009   4.312   1.341   2.145 -0.2462  0.2230 -2.0246
  841MOL0     H16010   4.142   1.377   1.950 -2.5467 -0.6196  1.3553
  841MOL0     H16011   4.057   1.487   2.053 -0.7313 -1.0474  1.7206
  841MOL0     H16012   4.191   1.623   1.933 -1.6471 -1.1115  2.0697
  841MOL0     H16013   4.269   1.617   2.086  1.7641  0.0797 -0.3583
  841MOL0     H16014   4.424   1.427   1.976  3.0032  1.5014  0.8033
  841MOL0     H16015   4.360   1.500   1.823  0.3664 -1.1545 -0.7872
  841MOL0     H16016   4.584   1.401   1.832 -0.5182  0.3572  0.8835
  841MOL0     H16017   4.783   1.258   1.718  2.4229 -1.2016 -2.2700
  841MOL0     H16018   4.881   1.322   1.853  0.9260 -0.6057 -0.7928
  841MOL0     H16019   4.928   1.340   1.685 -1.0939 -2.4363 -1.3275
  841MOL0     H16020   5.236   1.810   1.782 -0.4249 -0.4642 -0.0957
  841MOL0     H16021   5.498   1.783   1.743  0.2736  1.1297 -1.3871
  841MOL0     H16022   5.727   1.691   1.657  1.1049 -0.4658 -0.8467
  841MOL0     H16023   5.624   1.548   1.672  1.6951 -2.2219  0.2740
  841MOL0     H16024   5.738   1.436   1.490 -0.5725  0.7458 -2.0958
  841MOL0     H16025   5.803   1.583   1.427 -0.2953  1.1734  0.9092
  841MOL0     H16026   5.983   1.445   1.528 -3.1706  0.1358 -3.3762
  841MOL0     H16027   5.905   1.476   1.686  2.4685 -1.3214  0.0112
  841MOL0     H16028   6.001   1.687   1.705  1.5374  0.8626 -0.3620
  841MOL0     H16029   5.934   1.739   1.557 -1.8380 -1.0315  1.2993
  841MOL0     H16030   6.112   1.625   1.423  0.8891 -0.0376  0.2272
  841MOL0     H16031   6.153   1.764   1.531 -1.7671  1.4202  3.2037
  841MOL0     H16032   6.201   1.467   1.595  0.7586 -0.0107  0.3180
  841MOL0     H16033   6.229   1.606   1.710 -1.2087 -0.0957  0.7683
  841MOL0     H16034   6.387   1.713   1.581 -1.6679  0.9843 -0.3202
  841MOL0     H16035   6.372   1.597   1.452 -1.1613  2.3162  0.4725
  841MOL0     H16036   6.475   1.527   1.730 -0.5713 -0.4175  0.5576
  841MOL0     H16037   6.576   1.525   1.582 -0.5920 -2.1211 -0.2954
  841MOL0     H16038   5.400   1.554   1.390  1.7709  1.0931 -0.9721
  841MOL0     H16039   5.175   1.557   1.442  4.2977 -0.5551 -2.7824
  841MOL0     H16040   4.885   1.801   1.864  0.2495  0.9571 -3.9441
  841MOL0     H16041   4.653   1.798   1.954  1.1414 -0.4687  1.8376
  841MOL0     H16042   3.690   1.303   3.706  0.0483 -0.5118  1.9033
  841MOL0     H16043   3.806   1.388   3.892  0.2557  0.5299 -0.0930
  841MOL0     H16044   4.429   1.438   4.070 -0.6904 -0.9241 -1.5913
  841MOL0     H16045   4.496   1.549   4.292 -0.1658  3.3491  1.8340
  841MOL0     H16046   4.418   1.716   4.617  0.8891 -0.9080  0.3484
  841MOL0     H16047   4.486   1.610   4.486 -2.6519 -1.7578 -2.8144
  841MOL0     H16048   4.549   1.802   4.354  1.6574  3.8491  0.1202
  841MOL0     H16049   4.607   1.835   4.504 -0.7592  1.5737  3.1265
  841MOL0     H16050   4.472   2.032   4.378 -0.1102  1.9827  2.4346
  841MOL0     H16051   4.327   1.940   4.412 -1.3479  2.3974 -0.4703
  841MOL0     H16052   4.344   1.978   4.649 -0.7756  3.1458  0.8885
  841MOL0     H16053   4.364   2.136   4.571  0.9356  1.4488  0.2054
  841MOL0     H16054   4.741   2.100   4.750  0.3918 -1.8453  1.3516
  841MOL0     H16055   4.086   1.621   4.370 -1.7281  1.0472 -1.5935
  841MOL0     H16056   3.901   1.540   4.186 -1.5528 -0.4614  1.2196
  841MOL0     H16057   3.959   1.368   4.147  3.3434 -0.1791 -0.5054
  841MOL0     H16058   3.924   1.441   4.305 -0.5977  3.0685 -0.3926
  842MOL0     O16059   5.774   3.058   8.731 -0.3949  0.0523  0.4628
  842MOL0     C16060   5.792   3.176   8.743 -0.5930 -0.6009 -0.3992
  842MOL0     O16061   5.736   3.277   8.668  0.0035 -0.4850 -0.1664
  842MOL0     C16062   5.724   3.253   8.532  0.2898  1.0830  0.7140
  842MOL0     C16063   5.835   3.191   8.462 -0.4694 -0.1924 -0.3260
  842MOL0     C16064   5.814   3.140   8.335 -0.4395  0.1278  0.2819
  842MOL0     C16065   5.694   3.152   8.267  0.2504 -0.3094  0.9454
  842MOL0     O16066   5.689   3.087   8.149 -0.3275 -0.1120  0.4098
  842MOL0     C16067   5.573   3.109   8.074  0.0096  0.3924  0.1511
  842MOL0     C16068   5.583   3.083   7.925 -0.4647 -0.2238  0.7903
  842MOL0     C16069   5.690   3.175   7.854  0.4985  0.0155  0.9274
  842MOL0     C16070   5.697   3.143   7.691 -0.2437 -0.1375 -1.0882
  842MOL0     C16071   5.796   3.226   7.620 -0.6419 -0.1738 -0.1055
  842MOL0     C16072   5.801   3.196   7.474 -0.1920  0.7477  0.1096
  842MOL0     C16073   5.859   3.060   7.449  0.3355 -0.6002  0.2873
  842MOL0     C16074   5.903   3.052   7.292 -0.0033 -1.2459 -0.7565
  842MOL0     N16075   6.019   3.133   7.256 -0.1976  0.6332 -0.3850
  842MOL0     C16076   6.148   3.137   7.320  0.6949  0.2058 -0.2245
  842MOL0     C16077   6.225   3.197   7.230 -1.0133 -0.0153 -0.0624
  842MOL0     C16078   6.374   3.225   7.250  0.5781  0.2377 -0.4738
  842MOL0     C16079   6.466   3.112   7.212  0.9245  0.2276 -0.1838
  842MOL0     C16080   6.484   3.101   7.065  0.3339 -0.1282 -0.2130
  842MOL0     C16081   6.581   2.987   7.046  0.9319 -0.3160  0.3549
  842MOL0     O16082   6.719   3.034   7.068 -0.1539 -0.2454 -0.2485
  842MOL0     C16083   6.819   2.938   7.063 -0.8352  0.1993  0.2526
  842MOL0     C16084   6.801   2.808   7.012 -0.7962  0.1250  0.3652
  842MOL0     C16085   6.910   2.724   6.999 -0.8210 -0.2471 -0.0607
  842MOL0     C16086   6.875   2.582   6.942  0.3808 -0.3804 -0.4106
  842MOL0     C16087   7.043   2.762   7.042 -0.4292  0.2253  0.1970
  842MOL0     C16088   7.169   2.685   7.029 -0.3183 -0.4183  0.1352
  842MOL0     O16089   7.283   2.717   7.097 -0.1333  0.6718 -0.1600
  842MOL0     C16090   7.414   2.685   7.046 -0.2494  0.0499  0.2782
  842MOL0     C16091   7.521   2.675   7.133  0.4336 -0.0296  0.0688
  842MOL0     C16092   7.643   2.650   7.081 -0.3481  0.8858  0.1579
  842MOL0     C16093   7.667   2.627   6.945 -0.1948 -0.0112 -0.0073
  842MOL0     O16094   7.786   2.578   6.892 -0.7981  0.2081 -0.4667
  842MOL0     C16095   7.885   2.520   6.980  0.1543  0.4057 -0.6190
  842MOL0     C16096   7.986   2.634   6.998 -0.1606  0.0730 -0.2210
  842MOL0     C16097   8.086   2.598   7.103 -0.1857 -1.3684 -0.7499
  842MOL0     C16098   8.163   2.464   7.095  0.0469  0.0130 -0.5106
  842MOL0     C16099   8.280   2.456   7.195 -0.6331  0.4941  1.0858
  842MOL0     C16100   8.379   2.340   7.166 -0.1159 -0.3681 -0.4144
  842MOL0     C16101   8.459   2.346   7.037 -0.3191  0.6077 -0.1394
  842MOL0     C16102   8.560   2.234   7.046  0.9243 -0.7130  0.8234
  842MOL0    Cl16103   8.699   2.286   7.155  0.0449 -0.2067  0.5649
  842MOL0     C16104   7.563   2.656   6.858 -0.4209  0.2492 -0.1865
  842MOL0     C16105   7.446   2.686   6.909  0.3969 -0.0511 -0.4117
  842MOL0     O16106   7.167   2.587   6.954 -0.4316  0.3115  0.4219
  842MOL0     C16107   7.051   2.883   7.108  0.4595  0.1515 -0.7762
  842MOL0     C16108   6.946   2.975   7.121  0.0054  0.0352  0.1564
  842MOL0     N16109   6.152   3.231   7.113  0.0153 -1.1837 -0.1443
  842MOL0     N16110   6.029   3.188   7.133  0.0676  0.5953 -0.7094
  842MOL0     C16111   5.584   3.215   8.329  0.3451 -0.5232  0.3235
  842MOL0     C16112   5.605   3.264   8.457 -0.3806 -0.2330 -0.7528
  842MOL0     C16113   5.863   3.209   8.865  0.5955 -0.5891  0.4444
  842MOL0     C16114   5.820   3.318   8.943 -0.4898 -0.4135 -1.0087
  842MOL0     C16115   5.892   3.346   9.057 -0.1886 -1.2482  0.1220
  842MOL0     C16116   6.018   3.286   9.095  1.1099 -0.3252 -0.1593
  842MOL0     O16117   6.075   3.334   9.207  0.1630 -0.3664 -0.0009
  842MOL0     C16118   6.180   3.256   9.276  0.7528  0.4182 -0.8097
  842MOL0     C16119   6.211   3.325   9.412 -0.7387  0.4612  0.3415
  842MOL0     C16120   6.350   3.291   9.469  0.6198  0.4296 -0.2468
  842MOL0     C16121   6.389   3.401   9.573  0.4790 -0.3887  0.0636
  842MOL0     C16122   6.502   3.375   9.648 -1.0224 -1.3377  0.8541
  842MOL0     C16123   6.589   3.337   9.730 -0.0034 -0.1806 -0.4025
  842MOL0     C16124   6.054   3.172   9.015 -0.4984  0.0697  0.5543
  842MOL0     C16125   5.979   3.138   8.893 -0.2902  0.7407 -1.3152
  842MOL0     C16126   6.039   3.032   8.807  1.0664 -0.6938  0.5066
  842MOL0     H16127   5.923   3.185   8.525  0.2726  1.8295 -1.1003
  842MOL0     H16128   5.898   3.086   8.294 -0.0244  1.6130 -0.9149
  842MOL0     H16129   5.539   3.212   8.086 -1.1392  0.1448 -0.8127
  842MOL0     H16130   5.503   3.030   8.103  2.9317 -4.0307 -3.4426
  842MOL0     H16131   5.602   2.977   7.906  2.2870  0.4274 -0.5671
  842MOL0     H16132   5.482   3.097   7.884 -1.6797 -1.5267  3.1518
  842MOL0     H16133   5.681   3.284   7.863  0.6038 -0.0026  1.2423
  842MOL0     H16134   5.787   3.149   7.895  1.4347  0.9646 -0.5694
  842MOL0     H16135   5.712   3.036   7.674 -0.0405 -0.0576 -1.4113
  842MOL0     H16136   5.593   3.154   7.656 -0.3217  1.9729 -0.3719
  842MOL0     H16137   5.894   3.216   7.668 -1.5145  1.6618  2.2513
  842MOL0     H16138   5.767   3.331   7.625  0.5087  0.0869  2.3325
  842MOL0     H16139   5.705   3.211   7.425  0.4089  2.3181 -0.6445
  842MOL0     H16140   5.868   3.275   7.438 -1.6961  3.2621  2.4042
  842MOL0     H16141   5.782   2.990   7.482 -0.7921 -0.1691 -1.2851
  842MOL0     H16142   5.951   3.049   7.507  2.4122  2.4756 -2.0516
  842MOL0     H16143   5.927   2.946   7.277 -2.7527 -1.8320 -1.5611
  842MOL0     H16144   5.824   3.079   7.221  0.9552  0.1924 -1.3061
  842MOL0     H16145   6.173   3.112   7.423 -2.7061  0.9575  0.9345
  842MOL0     H16146   6.393   3.262   7.351  3.3403  0.3232 -0.9243
  842MOL0     H16147   6.399   3.313   7.189 -1.6283  2.9507  2.2056
  842MOL0     H16148   6.566   3.125   7.253  0.2306  0.2375  1.5993
  842MOL0     H16149   6.419   3.018   7.243 -0.8696 -0.4950 -4.3984
  842MOL0     H16150   6.385   3.091   7.020 -0.4316  2.3524  0.7680
  842MOL0     H16151   6.531   3.189   7.021  1.5592 -1.6016 -2.0130
  842MOL0     H16152   6.548   2.904   7.109 -2.1780  2.8194  3.3561
  842MOL0     H16153   6.576   2.936   6.950  2.5681 -2.7882  1.4799
  842MOL0     H16154   6.709   2.766   6.972  0.6722 -0.7163 -2.4170
  842MOL0     H16155   6.932   2.556   6.852  0.8208 -0.7643 -0.0255
  842MOL0     H16156   6.767   2.565   6.931  0.3588 -0.4942 -0.0437
  842MOL0     H16157   6.914   2.504   7.008 -0.6904 -2.7381 -2.3888
  842MOL0     H16158   7.499   2.673   7.239 -3.0729 -1.1083 -0.5296
  842MOL0     H16159   7.730   2.636   7.145 -0.5992 -2.0078  0.0067
  842MOL0     H16160   7.843   2.484   7.074 -2.8675  1.1726 -1.5729
  842MOL0     H16161   7.932   2.435   6.929 -1.3203  0.3249 -1.9340
  842MOL0     H16162   8.040   2.644   6.903 -0.8162  0.3074 -0.5761
  842MOL0     H16163   7.935   2.727   7.024  1.3461  1.0449 -0.6176
  842MOL0     H16164   8.027   2.608   7.195 -0.5914  1.5555 -1.2338
  842MOL0     H16165   8.160   2.677   7.116 -3.3672  1.5330  1.3051
  842MOL0     H16166   8.200   2.444   6.994  0.8742 -0.4595 -0.1233
  842MOL0     H16167   8.088   2.387   7.110 -0.9000  0.8976 -0.5885
  842MOL0     H16168   8.339   2.549   7.198  1.9183 -1.0097  0.3590
  842MOL0     H16169   8.232   2.443   7.292 -3.2272  3.2402  0.3126
  842MOL0     H16170   8.332   2.243   7.184  0.4874 -0.9805 -1.9805
  842MOL0     H16171   8.444   2.340   7.254 -1.2596  1.1543  0.4844
  842MOL0     H16172   8.508   2.442   7.025  1.7367 -0.0943  2.0424
  842MOL0     H16173   8.395   2.326   6.950 -0.0663 -0.3313 -0.1239
  842MOL0     H16174   8.592   2.198   6.948 -1.0498 -1.1884  0.3141
  842MOL0     H16175   8.499   2.150   7.080 -0.0861  0.7484  2.8598
  842MOL0     H16176   7.599   2.645   6.756  1.2660  2.5814  0.0563
  842MOL0     H16177   7.371   2.699   6.831  2.9712 -0.9136 -3.2482
  842MOL0     H16178   7.139   2.925   7.155  1.0886 -0.4205 -1.4230
  842MOL0     H16179   6.969   3.075   7.155  3.0463 -0.4716 -0.1611
  842MOL0     H16180   5.486   3.225   8.283  1.1794 -0.8892 -1.6547
  842MOL0     H16181   5.520   3.295   8.518 -0.7947 -1.6545 -0.5715
  842MOL0     H16182   5.730   3.374   8.920 -2.2144 -2.8154 -0.4799
  842MOL0     H16183   5.870   3.426   9.127  2.5107 -0.5952  0.3314
  842MOL0     H16184   6.153   3.150   9.288  0.4165  0.6631  0.9095
  842MOL0     H16185   6.272   3.255   9.217  0.6520  0.0875 -0.9682
  842MOL0     H16186   6.136   3.287   9.482  1.0364 -1.6642  1.2231
  842MOL0     H16187   6.188   3.432   9.412 -1.1261  0.4621  2.9436
  842MOL0     H16188   6.345   3.194   9.521  1.8462 -0.2245 -1.2695
  842MOL0     H16189   6.432   3.289   9.396  0.8798  1.9584 -0.0316
  842MOL0     H16190   6.304   3.411   9.642  0.8983  2.4343  0.2950
  842MOL0     H16191   6.397   3.499   9.524 -1.4389  0.1450  0.7179
  842MOL0     H16192   6.665   3.318   9.802  1.1171  1.4873 -1.0862
  842MOL0     H16193   6.145   3.119   9.042 -0.4564 -0.0141  0.2477
  842MOL0     H16194   5.982   2.940   8.797  0.2505 -0.0645 -1.0702
  842MOL0     H16195   6.062   3.074   8.708  0.4987  0.9527  1.0442
  842MOL0     H16196   6.136   3.004   8.849  0.7984 -3.2644 -0.4345
  843MOL0     O16197   5.811   6.058  11.119  0.1137  0.3034 -0.3097
  843MOL0     C16198   5.789   6.128  11.216  0.2617 -0.2045  0.7029
  843MOL0     O16199   5.862   6.234  11.271  0.2548 -0.5096  0.3693
  843MOL0     C16200   5.984   6.288  11.215  0.6048  0.0743  0.4464
  843MOL0     C16201   6.059   6.230  11.109 -0.2305  0.6639  0.2212
  843MOL0     C16202   6.183   6.286  11.074  0.5960  0.2965  0.0678
  843MOL0     C16203   6.237   6.391  11.152 -0.7636  0.1096 -0.3605
  843MOL0     O16204   6.366   6.439  11.130  0.0727  0.0728  0.7264
  843MOL0     C16205   6.436   6.404  11.007 -0.5105  0.1767  0.5047
  843MOL0     C16206   6.590   6.438  11.002 -0.0384  0.2409  0.8708
  843MOL0     C16207   6.658   6.399  10.869 -0.1124  0.2201 -0.2403
  843MOL0     C16208   6.767   6.300  10.898 -0.4672  0.0347  0.5570
  843MOL0     C16209   6.823   6.240  10.767  0.6497 -1.0377 -0.5322
  843MOL0     C16210   6.921   6.135  10.811  0.4064 -0.5737  0.4973
  843MOL0     C16211   6.959   6.062  10.685 -0.1541 -1.1102 -0.1889
  843MOL0     C16212   7.045   5.942  10.705 -0.2364 -0.1809 -0.1524
  843MOL0     N16213   7.185   5.984  10.707 -0.0417  0.0652 -0.0471
  843MOL0     C16214   7.250   6.054  10.614  0.3069  0.4101  0.1366
  843MOL0     C16215   7.374   6.068  10.655 -0.0756 -0.6603  0.1223
  843MOL0     C16216   7.475   6.126  10.549 -0.2370  0.0658  0.3962
  843MOL0     C16217   7.615   6.144  10.608  0.4683  0.4324 -0.0978
  843MOL0     C16218   7.685   6.011  10.647 -0.5245 -0.1789 -0.4059
  843MOL0     C16219   7.704   5.913  10.528 -0.3606  0.1444  0.0895
  843MOL0     O16220   7.768   5.972  10.409  0.7793 -0.7304 -0.9607
  843MOL0     C16221   7.899   5.968  10.387 -0.1186  0.5239 -0.2005
  843MOL0     C16222   7.998   5.919  10.476 -0.1666  0.1590 -0.1432
  843MOL0     C16223   8.134   5.914  10.440  0.2290 -0.1287  0.5622
  843MOL0     C16224   8.229   5.854  10.545 -0.6144 -0.5502 -0.8857
  843MOL0     C16225   8.181   5.961  10.319  0.2363 -0.4244  1.4650
  843MOL0     C16226   8.323   5.960  10.281  0.1528 -0.8327 -0.0157
  843MOL0     O16227   8.349   6.061  10.188 -0.0001 -0.1996 -0.2883
  843MOL0     C16228   8.469   6.075  10.122 -0.9217  0.1718 -0.2297
  843MOL0     C16229   8.465   6.176  10.031  0.0674  0.0534  0.0185
  843MOL0     C16230   8.573   6.203   9.951 -0.6810 -0.4635 -0.1997
  843MOL0     C16231   8.694   6.137   9.969  0.6037  0.1706  0.1805
  843MOL0     O16232   8.804   6.175   9.889 -0.1084 -0.2832 -0.3371
  843MOL0     C16233   8.909   6.082   9.875 -0.6156  0.1358  0.8797
  843MOL0     C16234   9.006   6.138   9.768 -0.4493  0.2362  1.2249
  843MOL0     C16235   9.071   6.275   9.801 -0.6355  1.1080  0.0484
  843MOL0     C16236   9.217   6.256   9.842 -0.0624 -0.0640 -0.0657
  843MOL0     C16237   9.228   6.284   9.997  0.1829 -0.0047 -0.6971
  843MOL0     C16238   9.364   6.241  10.048  0.1948  0.3629  0.0616
  843MOL0     C16239   9.386   6.227  10.195  0.0656  0.5474  0.8918
  843MOL0     C16240   9.289   6.124  10.263  0.1100  0.2761  1.0864
  843MOL0    Cl16241   9.322   6.103  10.442  0.0555  0.1332  0.3714
  843MOL0     C16242   8.707   6.039  10.067 -0.3908  0.6941 -0.5211
  843MOL0     C16243   8.592   6.004  10.138  0.0825 -0.2485  0.9087
  843MOL0     O16244   8.403   5.872  10.315  0.5783 -0.0264  0.8170
  843MOL0     C16245   8.084   6.012  10.232 -0.3417 -0.2589  0.0763
  843MOL0     C16246   7.946   6.014  10.264 -0.2128 -0.3139  0.5347
  843MOL0     N16247   7.386   6.019  10.782  0.2312 -0.0609 -0.3188
  843MOL0     N16248   7.272   5.954  10.802  0.0363 -0.2083 -0.0890
  843MOL0     C16249   6.161   6.444  11.251  0.0608  0.0887 -1.0548
  843MOL0     C16250   6.035   6.396  11.277 -0.1818 -0.4742  0.5803
  843MOL0     C16251   5.653   6.105  11.258  0.2985  0.1010 -0.6753
  843MOL0     C16252   5.624   6.016  11.362 -0.5034 -0.4077 -0.1905
  843MOL0     C16253   5.498   6.000  11.402 -0.7469  0.9336 -0.8035
  843MOL0     C16254   5.392   6.063  11.340 -0.1309 -0.4708 -0.0536
  843MOL0     O16255   5.263   6.018  11.364 -0.1701 -0.1060  0.1445
  843MOL0     C16256   5.145   6.088  11.341  0.3271  0.1822  0.1272
  843MOL0     C16257   5.030   6.029  11.422  0.3053  1.0710  0.2776
  843MOL0     C16258   5.004   5.877  11.396  1.6639 -0.0645  0.2780
  843MOL0     C16259   4.887   5.810  11.464 -0.4877 -1.0276  0.9500
  843MOL0     C16260   4.762   5.891  11.446 -0.4832  0.2737 -0.6712
  843MOL0     C16261   4.662   5.956  11.423 -0.0056  0.3877 -0.1537
  843MOL0     C16262   5.413   6.155  11.238 -0.7915  0.6042 -0.2677
  843MOL0     C16263   5.547   6.174  11.197 -0.3003 -0.7959  0.4189
  843MOL0     C16264   5.562   6.267  11.077 -0.4984 -0.0436  0.1698
  843MOL0     H16265   6.028   6.151  11.041 -1.4552 -0.3874  1.9140
  843MOL0     H16266   6.225   6.238  10.986 -0.9975 -2.1705  0.5446
  843MOL0     H16267   6.382   6.460  10.931 -0.6385  1.5600  1.5764
  843MOL0     H16268   6.415   6.297  10.999  1.0735 -0.0723 -0.7848
  843MOL0     H16269   6.603   6.547  11.007 -0.7468  0.7074 -3.5299
  843MOL0     H16270   6.631   6.401  11.097  0.5577 -0.0971  0.4840
  843MOL0     H16271   6.575   6.358  10.810 -0.5078  3.2971 -2.0597
  843MOL0     H16272   6.708   6.477  10.811  0.6899 -1.1795 -1.5096
  843MOL0     H16273   6.841   6.339  10.968  0.1482  0.2918 -0.2239
  843MOL0     H16274   6.717   6.217  10.949 -3.1697  0.2013 -1.5689
  843MOL0     H16275   6.884   6.308  10.706  4.5544 -0.7724  3.1704
  843MOL0     H16276   6.735   6.197  10.719  0.2342 -1.3644  0.4884
  843MOL0     H16277   7.005   6.183  10.861  0.6303 -2.0712  1.6282
  843MOL0     H16278   6.866   6.064  10.873 -1.7203  1.2051  0.7908
  843MOL0     H16279   7.002   6.133  10.614  2.6216 -2.0851  0.4108
  843MOL0     H16280   6.862   6.034  10.642 -0.0049  0.6654 -1.7928
  843MOL0     H16281   7.011   5.877  10.786 -1.6014 -0.1991 -0.7118
  843MOL0     H16282   7.032   5.878  10.617 -2.2079  0.0822 -0.1064
  843MOL0     H16283   7.215   6.088  10.517 -1.7049 -4.6812 -1.2682
  843MOL0     H16284   7.450   6.225  10.509 -0.9095 -0.1347  0.3127
  843MOL0     H16285   7.479   6.065  10.459 -0.6355  0.7792 -0.1233
  843MOL0     H16286   7.678   6.194  10.534 -0.5835  2.1475  0.1003
  843MOL0     H16287   7.599   6.205  10.697 -0.2205 -0.5498  0.4703
  843MOL0     H16288   7.787   6.031  10.678 -1.0983  1.0743  0.7808
  843MOL0     H16289   7.636   5.955  10.727 -4.0838 -0.7401 -2.7422
  843MOL0     H16290   7.754   5.821  10.561 -0.3012  0.6724  1.5630
  843MOL0     H16291   7.603   5.888  10.496 -1.1378  2.0350  0.8826
  843MOL0     H16292   7.966   5.877  10.571 -1.2871  0.6713 -0.2845
  843MOL0     H16293   8.313   5.917  10.574 -2.4223  1.3236  0.5696
  843MOL0     H16294   8.269   5.756  10.515  2.4468  0.3269 -0.1079
  843MOL0     H16295   8.180   5.843  10.642  2.2784  2.0386  1.0633
  843MOL0     H16296   8.377   6.239  10.029  0.5159  0.9469  3.0674
  843MOL0     H16297   8.553   6.282   9.879 -0.7472 -3.3927 -3.6591
  843MOL0     H16298   8.964   6.082   9.970 -0.2291 -0.1112  0.6571
  843MOL0     H16299   8.879   5.985   9.835  2.2791 -0.3835 -0.2768
  843MOL0     H16300   9.089   6.073   9.739  0.3013  2.6858 -3.0079
  843MOL0     H16301   8.939   6.155   9.682 -0.5203 -1.7800  0.8487
  843MOL0     H16302   9.013   6.307   9.888  0.2629 -2.2036  2.0573
  843MOL0     H16303   9.066   6.348   9.721  2.9360 -0.2597 -1.6297
  843MOL0     H16304   9.281   6.329   9.794 -1.6795 -1.0218 -4.0844
  843MOL0     H16305   9.247   6.153   9.820  0.5524 -0.1794  1.2006
  843MOL0     H16306   9.205   6.390  10.012  2.3897  0.3011  1.0345
  843MOL0     H16307   9.155   6.228  10.057  0.3786  0.6642  0.1838
  843MOL0     H16308   9.446   6.304  10.013  0.7201 -0.6003 -0.5110
  843MOL0     H16309   9.385   6.144  10.000 -0.1308  1.0581 -1.5621
  843MOL0     H16310   9.367   6.324  10.241 -0.9338  0.0744  1.5163
  843MOL0     H16311   9.491   6.207  10.218  0.1942 -1.6237 -1.1658
  843MOL0     H16312   9.284   6.025  10.217  0.1624  1.1537 -0.8998
  843MOL0     H16313   9.190   6.167  10.244 -1.0858 -3.0055 -0.9597
  843MOL0     H16314   8.797   5.981  10.083 -0.3566  0.3547 -1.8185
  843MOL0     H16315   8.610   5.928  10.212 -1.2508 -0.6986  0.7949
  843MOL0     H16316   8.116   6.048  10.135  1.0420  0.9647  0.9572
  843MOL0     H16317   7.879   6.054  10.189 -0.0284 -0.2972  0.3791
  843MOL0     H16318   6.194   6.531  11.307  0.4459 -0.5384 -0.2921
  843MOL0     H16319   5.980   6.457  11.347 -1.9221 -1.4852  0.1366
  843MOL0     H16320   5.705   5.958  11.405 -1.0993 -1.1193 -0.0002
  843MOL0     H16321   5.476   5.931  11.482  4.0493 -1.1143 -0.8769
  843MOL0     H16322   5.155   6.196  11.359 -2.4469  0.5572 -0.0760
  843MOL0     H16323   5.122   6.086  11.234 -0.3484  2.7909  0.1404
  843MOL0     H16324   4.935   6.076  11.392 -0.3605 -1.4101 -1.8520
  843MOL0     H16325   5.047   6.043  11.529 -0.5983  2.7023  0.2510
  843MOL0     H16326   4.992   5.867  11.287 -0.4484  0.4127  0.4296
  843MOL0     H16327   5.097   5.823  11.418  2.5063 -1.1511 -4.6031
  843MOL0     H16328   4.900   5.787  11.571 -1.8462 -1.1977  1.0853
  843MOL0     H16329   4.863   5.714  11.419  0.2589 -0.9985  0.4594
  843MOL0     H16330   4.577   6.019  11.405  0.5275  0.4360 -2.8967
  843MOL0     H16331   5.330   6.207  11.190  0.2048  1.3580 -1.2170
  843MOL0     H16332   5.470   6.299  11.028 -1.1519  1.3986  2.2206
  843MOL0     H16333   5.620   6.357  11.099  1.7120 -1.2367 -0.4559
  843MOL0     H16334   5.606   6.214  10.992  0.8642  1.2868 -0.0045
  844MOL0     O16335   4.098   6.156   9.693  0.2494 -0.0738  0.7334
  844MOL0     C16336   4.171   6.195   9.782  0.3545 -0.0474  0.5168
  844MOL0     O16337   4.307   6.220   9.774  0.1756  0.4056 -0.1775
  844MOL0     C16338   4.383   6.199   9.665  0.4292  0.6130 -0.3088
  844MOL0     C16339   4.500   6.283   9.656  0.1212  0.4329  0.0642
  844MOL0     C16340   4.587   6.283   9.547  0.2179 -0.0465 -0.3041
  844MOL0     C16341   4.565   6.196   9.437  0.4130  0.2176  0.5076
  844MOL0     O16342   4.646   6.187   9.328 -0.6509  0.0878  0.1974
  844MOL0     C16343   4.788   6.236   9.329  0.7175  0.7180  0.5797
  844MOL0     C16344   4.862   6.170   9.206  0.0064  0.1798 -0.2112
  844MOL0     C16345   5.002   6.229   9.187 -0.5707  1.3974 -0.1241
  844MOL0     C16346   5.079   6.223   9.321 -0.7008 -0.3754 -0.1571
  844MOL0     C16347   5.225   6.235   9.286 -0.7379 -0.0623  1.3311
  844MOL0     C16348   5.317   6.259   9.406  0.8601  1.5349 -0.1230
  844MOL0     C16349   5.463   6.300   9.361  0.2158 -0.3238  0.1434
  844MOL0     C16350   5.522   6.192   9.274  0.0763  0.8149  0.2384
  844MOL0     N16351   5.663   6.220   9.251  0.0138 -0.1359  0.2957
  844MOL0     C16352   5.707   6.321   9.173  0.3623 -0.0264 -0.3592
  844MOL0     C16353   5.844   6.327   9.203  1.0077 -0.2592  0.0762
  844MOL0     C16354   5.936   6.412   9.134 -0.2178  0.2171  1.0413
  844MOL0     C16355   6.023   6.500   9.218  0.0928 -0.0314 -0.3898
  844MOL0     C16356   6.091   6.606   9.135 -0.5544  0.2515  0.4230
  844MOL0     C16357   6.190   6.687   9.220 -0.3818  0.6649  0.5272
  844MOL0     O16358   6.299   6.737   9.142  0.4861  0.3973  0.6758
  844MOL0     C16359   6.402   6.793   9.210  0.0107  0.1616 -0.7934
  844MOL0     C16360   6.406   6.862   9.337  0.9194 -0.1727 -0.1280
  844MOL0     C16361   6.518   6.925   9.390  0.8328  0.9329  0.4692
  844MOL0     C16362   6.510   6.971   9.530  0.1572  0.2920 -0.4256
  844MOL0     C16363   6.635   6.926   9.308 -0.6698 -0.8574 -0.1410
  844MOL0     C16364   6.753   7.017   9.343  0.4571  0.0236 -0.2671
  844MOL0     O16365   6.878   6.967   9.303 -0.4881  0.7584 -0.0889
  844MOL0     C16366   6.996   7.029   9.309 -0.5739 -0.0765 -1.4197
  844MOL0     C16367   7.016   7.168   9.325 -0.6218  0.4370 -0.5191
  844MOL0     C16368   7.147   7.218   9.333  0.2692  0.5425 -0.0142
  844MOL0     C16369   7.254   7.140   9.332 -0.0726 -0.5970 -0.3475
  844MOL0     O16370   7.383   7.180   9.342 -0.3388 -0.0742  0.3098
  844MOL0     C16371   7.411   7.323   9.364  0.2070  0.3269 -0.7340
  844MOL0     C16372   7.552   7.327   9.396  0.0221 -0.1446 -1.1681
  844MOL0     C16373   7.637   7.325   9.268 -0.7443  0.9414  0.2659
  844MOL0     C16374   7.780   7.372   9.303 -0.5930 -0.1987  0.6310
  844MOL0     C16375   7.851   7.431   9.176 -0.4841 -0.4436  0.1744
  844MOL0     C16376   7.994   7.481   9.196  1.0371 -0.2779  0.6252
  844MOL0     C16377   8.084   7.364   9.227  0.2130 -0.2914 -0.8278
  844MOL0     C16378   8.174   7.393   9.348 -0.4099 -0.0777 -0.3343
  844MOL0    Cl16379   8.295   7.262   9.383  0.2185 -0.1848  0.0264
  844MOL0     C16380   7.233   7.001   9.327  0.4850  0.7002  0.7165
  844MOL0     C16381   7.103   6.946   9.301 -0.2589 -0.2355  0.2129
  844MOL0     O16382   6.731   7.115   9.413 -0.2799 -0.1830 -0.7601
  844MOL0     C16383   6.641   6.856   9.187 -0.4400 -0.0633 -0.7880
  844MOL0     C16384   6.525   6.802   9.132 -0.1421  0.2756 -0.4786
  844MOL0     N16385   5.877   6.220   9.284 -0.2351 -0.1022 -0.5141
  844MOL0     N16386   5.769   6.157   9.305 -0.3910 -0.4797  0.0014
  844MOL0     C16387   4.456   6.116   9.443  0.0350  0.7320 -1.3181
  844MOL0     C16388   4.365   6.118   9.555  0.3048 -0.4579  0.3633
  844MOL0     C16389   4.109   6.225   9.913  0.3988 -0.8766  0.3051
  844MOL0     C16390   4.186   6.314   9.989  0.3816 -0.4817 -0.0568
  844MOL0     C16391   4.138   6.365  10.105 -0.9154 -0.5797  0.3796
  844MOL0     C16392   4.020   6.326  10.153 -0.8107 -0.5148 -1.0222
  844MOL0     O16393   3.972   6.390  10.258  0.3137  0.4114 -0.2823
  844MOL0     C16394   4.065   6.423  10.362  1.7558  0.6243  0.2970
  844MOL0     C16395   3.984   6.394  10.489 -0.0523 -0.1002 -0.8472
  844MOL0     C16396   3.846   6.465  10.480 -0.3114  0.7937  0.4682
  844MOL0     C16397   3.776   6.437  10.619 -0.9832  0.2513  0.1494
  844MOL0     C16398   3.635   6.480  10.638 -0.0139 -0.9253 -0.9867
  844MOL0     C16399   3.527   6.523  10.669  0.8361  0.6687 -0.2827
  844MOL0     C16400   3.941   6.234  10.092 -0.0457  0.4487  0.0910
  844MOL0     C16401   3.986   6.179   9.961  0.6328  0.1762 -0.9310
  844MOL0     C16402   3.897   6.074   9.901  0.1067 -0.9058 -0.1021
  844MOL0     H16403   4.494   6.364   9.729 -2.9173  1.9544 -1.6863
  844MOL0     H16404   4.673   6.347   9.537 -1.0101  1.5904 -0.7231
  844MOL0     H16405   4.838   6.207   9.422 -0.1958  0.1758  0.9134
  844MOL0     H16406   4.794   6.342   9.302  1.4068 -0.2747 -4.2480
  844MOL0     H16407   4.865   6.061   9.207  0.5421  0.1724 -1.1801
  844MOL0     H16408   4.808   6.203   9.117  0.6381  3.2711  0.4184
  844MOL0     H16409   5.051   6.159   9.119 -0.6633 -0.5277  1.7133
  844MOL0     H16410   4.985   6.329   9.144 -0.5670  0.8246 -1.5182
  844MOL0     H16411   5.054   6.305   9.388  0.7286 -0.1471  0.1221
  844MOL0     H16412   5.072   6.133   9.383 -1.6938  1.8287  3.1563
  844MOL0     H16413   5.238   6.312   9.210 -4.2045 -0.2962  0.3338
  844MOL0     H16414   5.259   6.143   9.239  1.7905  1.5180 -0.1657
  844MOL0     H16415   5.274   6.345   9.458  0.5791  0.7830  0.9108
  844MOL0     H16416   5.331   6.173   9.473  1.9339  1.5786 -0.2619
  844MOL0     H16417   5.525   6.316   9.449  1.4304 -0.4536 -0.6694
  844MOL0     H16418   5.451   6.391   9.300 -3.7845 -1.9156 -1.8108
  844MOL0     H16419   5.523   6.090   9.313  4.0644  0.5791 -0.0935
  844MOL0     H16420   5.461   6.204   9.184 -0.2636 -1.5006  0.1058
  844MOL0     H16421   5.639   6.390   9.122 -0.1930 -0.4675 -0.2291
  844MOL0     H16422   5.870   6.479   9.077  0.7380 -1.2137 -1.9401
  844MOL0     H16423   5.995   6.356   9.061 -0.7399 -0.1427  0.8938
  844MOL0     H16424   5.950   6.559   9.274  0.5509  1.7142 -1.5522
  844MOL0     H16425   6.085   6.438   9.284 -1.5594 -1.2022  0.1138
  844MOL0     H16426   6.145   6.562   9.051 -0.4702 -1.4693  1.3429
  844MOL0     H16427   6.021   6.678   9.091  0.5749  1.6568  0.8133
  844MOL0     H16428   6.140   6.772   9.265 -1.2251  1.9270 -2.5202
  844MOL0     H16429   6.222   6.624   9.303 -3.2700  0.6579  1.7524
  844MOL0     H16430   6.308   6.856   9.383 -0.7966 -0.9374 -3.5473
  844MOL0     H16431   6.531   7.078   9.536  0.1641  0.2949 -0.5079
  844MOL0     H16432   6.593   6.919   9.579 -0.6625 -0.2122  0.4600
  844MOL0     H16433   6.418   6.944   9.583  0.6392 -0.3504  0.0952
  844MOL0     H16434   6.933   7.235   9.343 -0.2380  0.4415  1.4190
  844MOL0     H16435   7.154   7.326   9.331 -0.3537  0.5831 -0.7702
  844MOL0     H16436   7.375   7.388   9.284 -1.1362  2.2813  1.3270
  844MOL0     H16437   7.356   7.355   9.453  2.4548 -1.7860  1.5699
  844MOL0     H16438   7.566   7.428   9.434  3.0733 -0.3970 -1.3773
  844MOL0     H16439   7.581   7.258   9.476 -0.4596 -1.8846 -2.4285
  844MOL0     H16440   7.587   7.387   9.193 -0.7889 -1.2665 -1.6451
  844MOL0     H16441   7.640   7.227   9.219  0.4021  0.8345  0.5242
  844MOL0     H16442   7.832   7.291   9.354 -0.3250 -0.4359 -0.0150
  844MOL0     H16443   7.766   7.460   9.366  0.5457  2.0216 -2.0138
  844MOL0     H16444   7.840   7.358   9.096 -0.0793  0.5442 -0.8126
  844MOL0     H16445   7.788   7.510   9.135 -0.3047 -0.3337  0.1079
  844MOL0     H16446   7.993   7.558   9.274 -0.4484 -0.7590  1.1144
  844MOL0     H16447   8.027   7.530   9.104 -0.6329 -0.5706 -0.1630
  844MOL0     H16448   8.141   7.344   9.135  0.2078 -0.5369 -0.7777
  844MOL0     H16449   8.020   7.279   9.251  0.7797 -0.8121 -1.1311
  844MOL0     H16450   8.115   7.405   9.439 -2.1785 -1.6578 -1.1833
  844MOL0     H16451   8.230   7.486   9.339 -3.2378  1.8350  0.4685
  844MOL0     H16452   7.319   6.937   9.340  0.0999  0.3258  1.5091
  844MOL0     H16453   7.097   6.842   9.271 -2.6269 -1.0477  2.9521
  844MOL0     H16454   6.733   6.859   9.131 -0.0045  1.4490 -0.0626
  844MOL0     H16455   6.531   6.740   9.043 -0.2838  1.3521 -1.2630
  844MOL0     H16456   4.423   6.041   9.371 -0.6039 -1.0869  0.7486
  844MOL0     H16457   4.292   6.038   9.554  0.3086 -0.5148 -2.4229
  844MOL0     H16458   4.267   6.376   9.950 -0.0322 -0.9360 -1.7460
  844MOL0     H16459   4.192   6.453  10.138 -0.3424 -0.6361 -0.3785
  844MOL0     H16460   4.158   6.366  10.355  1.6850  0.1565  2.3483
  844MOL0     H16461   4.093   6.529  10.363  0.5072  1.0053  2.1834
  844MOL0     H16462   4.034   6.432  10.579 -1.2112  1.4045 -0.7856
  844MOL0     H16463   3.960   6.288  10.481  0.7586 -0.2239 -1.9891
  844MOL0     H16464   3.837   6.574  10.471 -3.8785  0.5264 -0.7130
  844MOL0     H16465   3.778   6.410  10.414  0.9132 -0.4261  0.1886
  844MOL0     H16466   3.841   6.480  10.695 -0.8142 -1.2959  0.9234
  844MOL0     H16467   3.779   6.329  10.632  0.2679  0.3975  1.3011
  844MOL0     H16468   3.428   6.554  10.695  0.4654 -1.7180  1.3965
  844MOL0     H16469   3.849   6.202  10.139 -1.2940  4.2034  0.4973
  844MOL0     H16470   3.883   6.094   9.795  1.1476  0.1712 -0.0645
  844MOL0     H16471   3.946   5.977   9.911 -0.3654 -1.0506  0.9435
  844MOL0     H16472   3.796   6.092   9.940 -0.2934  3.2825 -2.4736
  845MOL0     O16473   1.994   7.737   9.071 -0.7148 -0.7041 -0.4420
  845MOL0     C16474   1.988   7.863   9.058 -0.4506  0.6696 -0.0195
  845MOL0     O16475   1.927   7.921   8.951  0.7639  0.1055 -0.3205
  845MOL0     C16476   1.832   7.838   8.889 -0.0779  0.2521  1.0843
  845MOL0     C16477   1.702   7.842   8.943  0.2841  1.1510  0.6164
  845MOL0     C16478   1.597   7.779   8.880 -0.2848  0.1777  0.2065
  845MOL0     C16479   1.615   7.714   8.762  0.0189  0.3828  0.4184
  845MOL0     O16480   1.526   7.629   8.702 -0.7648  0.8510 -0.9434
  845MOL0     C16481   1.451   7.525   8.774  0.0214 -0.3010 -0.6991
  845MOL0     C16482   1.413   7.415   8.668  0.6507  0.3145 -0.5552
  845MOL0     C16483   1.347   7.294   8.724 -0.5872 -0.0541  0.2367
  845MOL0     C16484   1.203   7.300   8.766  0.3561 -0.0663 -0.2170
  845MOL0     C16485   1.152   7.152   8.775 -0.0413  0.1128 -0.8799
  845MOL0     C16486   0.996   7.138   8.781  0.5378 -0.3149  0.1044
  845MOL0     C16487   0.956   7.003   8.824 -0.0464 -0.4273 -0.6681
  845MOL0     C16488   0.801   6.974   8.818  0.2164  1.0180 -0.4451
  845MOL0     N16489   0.776   6.830   8.817 -0.3834 -0.3498 -0.3069
  845MOL0     C16490   0.789   6.739   8.920 -0.5365  0.6900 -0.4196
  845MOL0     C16491   0.767   6.617   8.863 -0.3356 -0.1018 -0.7804
  845MOL0     C16492   0.775   6.484   8.933  0.0015 -0.1674 -0.0690
  845MOL0     C16493   0.910   6.454   8.993 -0.4881  0.1146 -0.2579
  845MOL0     C16494   0.939   6.305   9.005  0.1365  0.8843  0.3110
  845MOL0     C16495   0.824   6.233   9.074  0.7724 -0.0259  0.1057
  845MOL0     O16496   0.876   6.098   9.110  0.1175 -0.1057  0.3144
  845MOL0     C16497   0.910   6.080   9.241  0.4097  0.0927  0.8056
  845MOL0     C16498   0.913   5.945   9.264  0.2819  0.3271 -0.4359
  845MOL0     C16499   0.963   5.898   9.386 -0.5228  0.2397 -0.1720
  845MOL0     C16500   0.964   5.744   9.397  1.3257 -0.0801  0.4525
  845MOL0     C16501   1.001   5.992   9.485  0.1906  1.1826 -1.3610
  845MOL0     C16502   1.066   5.946   9.607  0.4045  0.6689 -0.2069
  845MOL0     O16503   1.155   6.043   9.653  0.3163  0.3388  0.7219
  845MOL0     C16504   1.230   5.997   9.763  0.1800  0.5972 -0.4848
  845MOL0     C16505   1.180   6.016   9.888 -0.4681  0.4977 -0.5944
  845MOL0     C16506   1.240   5.971  10.003  0.0954 -0.0249  0.3547
  845MOL0     C16507   1.358   5.899   9.999 -0.1386  1.0928  0.4182
  845MOL0     O16508   1.417   5.854  10.114  0.7068 -0.2184 -0.2678
  845MOL0     C16509   1.439   5.708  10.128  0.0155 -0.3016  0.8745
  845MOL0     C16510   1.503   5.683  10.268  0.2582  0.1966  0.1324
  845MOL0     C16511   1.405   5.706  10.386  0.4552 -0.1676 -0.1648
  845MOL0     C16512   1.460   5.648  10.524  0.4117  0.3951  0.3669
  845MOL0     C16513   1.608   5.689  10.547  0.2613  0.1500  0.0761
  845MOL0     C16514   1.637   5.842  10.552 -0.5663  0.1864 -0.9702
  845MOL0     C16515   1.539   5.944  10.627  0.2655 -0.0084  0.1144
  845MOL0     C16516   1.578   5.975  10.778  0.4914 -0.0304  0.3848
  845MOL0    Cl16517   1.728   6.058  10.758  0.0190 -0.2218 -0.5483
  845MOL0     C16518   1.421   5.886   9.871  0.6608 -0.2861 -0.0501
  845MOL0     C16519   1.347   5.917   9.760 -0.3837 -0.6876  0.5812
  845MOL0     O16520   1.053   5.832   9.653  0.0039 -0.2815  0.3048
  845MOL0     C16521   0.999   6.125   9.464  0.1025  0.4973  0.5227
  845MOL0     C16522   0.956   6.170   9.333  0.1714 -0.9445 -0.8309
  845MOL0     N16523   0.756   6.629   8.727 -0.9772 -0.1774 -0.2232
  845MOL0     N16524   0.770   6.757   8.702  0.1216 -0.1992 -0.8269
  845MOL0     C16525   1.752   7.714   8.701  0.2021  1.0586 -0.5141
  845MOL0     C16526   1.850   7.781   8.770  0.8551  0.2927 -0.5907
  845MOL0     C16527   2.061   7.941   9.163 -0.3008  0.3754  0.4330
  845MOL0     C16528   2.182   7.998   9.123  0.1685  1.0351 -0.0396
  845MOL0     C16529   2.252   8.065   9.218 -0.2301  0.2148 -1.0868
  845MOL0     C16530   2.210   8.094   9.344 -0.2607  0.2859 -0.0048
  845MOL0     O16531   2.299   8.163   9.419  0.2124 -0.1056 -0.2882
  845MOL0     C16532   2.253   8.190   9.550 -0.1016  0.2874  0.1926
  845MOL0     C16533   2.362   8.277   9.620 -1.0091  0.0508 -0.1402
  845MOL0     C16534   2.346   8.266   9.769 -0.2802  0.3695  0.1954
  845MOL0     C16535   2.473   8.315   9.846  0.2685  0.2818  0.1406
  845MOL0     C16536   2.465   8.270   9.991  0.9412 -0.2432  0.9006
  845MOL0     C16537   2.456   8.237  10.102  0.3464 -0.2882 -0.2844
  845MOL0     C16538   2.086   8.046   9.383  0.5116  0.7921  0.2447
  845MOL0     C16539   2.023   7.957   9.295  0.8745  0.0790 -0.3716
  845MOL0     C16540   1.897   7.890   9.342 -1.1560 -0.4779 -0.3556
  845MOL0     H16541   1.686   7.899   9.034 -0.0735  0.2279  1.1496
  845MOL0     H16542   1.503   7.786   8.934  1.5458  0.6332  3.6141
  845MOL0     H16543   1.356   7.562   8.812 -0.8447 -1.6961 -1.4284
  845MOL0     H16544   1.516   7.488   8.854  1.5991  3.1865 -0.1979
  845MOL0     H16545   1.348   7.469   8.598 -1.4948  0.5007  1.4742
  845MOL0     H16546   1.499   7.368   8.620 -1.3850 -0.0550 -4.1883
  845MOL0     H16547   1.361   7.203   8.664 -1.6366  0.0932 -0.2620
  845MOL0     H16548   1.405   7.275   8.814  0.1125 -1.9914 -0.5690
  845MOL0     H16549   1.197   7.350   8.863  2.5754 -1.7545  0.8644
  845MOL0     H16550   1.154   7.364   8.692  2.0223 -0.1029 -1.4130
  845MOL0     H16551   1.203   7.100   8.857 -0.4693 -1.4292 -1.5408
  845MOL0     H16552   1.193   7.099   8.688  1.1243  3.3411 -2.4476
  845MOL0     H16553   0.954   7.208   8.854  0.4359  0.2681 -0.4988
  845MOL0     H16554   0.958   7.158   8.680  0.4720  3.3812  0.7106
  845MOL0     H16555   0.994   6.985   8.925 -1.3240  3.5458  0.7305
  845MOL0     H16556   1.014   6.937   8.759  1.2813 -0.3156  0.3540
  845MOL0     H16557   0.761   7.009   8.913  2.1222 -0.3604  0.9395
  845MOL0     H16558   0.746   7.031   8.742 -0.0473  1.4233  0.0487
  845MOL0     H16559   0.802   6.767   9.024  2.5675 -0.6870 -0.3321
  845MOL0     H16560   0.749   6.411   8.855  0.9143 -0.1800 -0.3741
  845MOL0     H16561   0.698   6.468   9.009 -1.1588 -1.4065 -1.4226
  845MOL0     H16562   0.989   6.498   8.932  1.1566 -0.3118  1.4493
  845MOL0     H16563   0.925   6.494   9.094  0.0468 -1.2833  0.2418
  845MOL0     H16564   0.964   6.254   8.911  0.3421  0.5744  0.5348
  845MOL0     H16565   1.025   6.291   9.070  0.1707 -0.2067  0.0489
  845MOL0     H16566   0.791   6.287   9.164 -0.1504 -0.7981  0.2451
  845MOL0     H16567   0.744   6.215   9.002  1.0265 -0.6262 -0.0340
  845MOL0     H16568   0.878   5.877   9.188 -0.1975  0.6038 -0.4668
  845MOL0     H16569   0.910   5.715   9.488  0.7732  1.0398  0.4930
  845MOL0     H16570   1.064   5.704   9.413  1.7170  1.4005  1.8863
  845MOL0     H16571   0.905   5.696   9.318 -2.7282 -1.2367  3.7689
  845MOL0     H16572   1.080   6.055   9.900 -0.1619  0.9927  0.4488
  845MOL0     H16573   1.188   5.976  10.098  1.3885 -0.9488  1.1458
  845MOL0     H16574   1.345   5.654  10.119 -1.8281  2.8644 -0.8377
  845MOL0     H16575   1.506   5.680  10.046 -1.1005  3.1630 -1.4639
  845MOL0     H16576   1.538   5.580  10.259 -2.0037 -0.7771  1.6373
  845MOL0     H16577   1.589   5.748  10.289  2.6698 -2.6407 -0.2944
  845MOL0     H16578   1.318   5.643  10.365  2.2887 -3.0222  0.2739
  845MOL0     H16579   1.363   5.807  10.386  0.0668 -0.3305 -0.0661
  845MOL0     H16580   1.451   5.539  10.520 -3.1433  0.5863  0.2183
  845MOL0     H16581   1.406   5.678  10.615 -1.2466 -0.2652 -0.3606
  845MOL0     H16582   1.634   5.656  10.648  2.4285 -0.6780 -0.6847
  845MOL0     H16583   1.676   5.632  10.482  0.6499 -0.6426  1.1527
  845MOL0     H16584   1.633   5.868  10.446 -2.2429 -0.5146 -1.1004
  845MOL0     H16585   1.743   5.855  10.578 -0.5830  1.6294 -1.5644
  845MOL0     H16586   1.434   5.915  10.615  0.3164  0.5101 -1.7748
  845MOL0     H16587   1.546   6.041  10.578  1.3458 -0.3103 -0.3526
  845MOL0     H16588   1.586   5.877  10.827 -0.3748 -0.5611 -0.4989
  845MOL0     H16589   1.499   6.024  10.835  0.5105 -1.3871  1.6540
  845MOL0     H16590   1.517   5.836   9.867  1.5454  1.0013  2.5545
  845MOL0     H16591   1.394   5.899   9.663 -2.9779  1.1860 -1.1619
  845MOL0     H16592   1.042   6.189   9.540  0.5533 -1.3111  1.8364
  845MOL0     H16593   0.955   6.276   9.309 -0.8329 -0.9949 -1.0448
  845MOL0     H16594   1.763   7.655   8.611  1.4137  2.8418 -1.6162
  845MOL0     H16595   1.951   7.790   8.731  1.2583 -0.9527  0.1121
  845MOL0     H16596   2.206   7.995   9.017  0.1762 -3.0744 -0.0885
  845MOL0     H16597   2.351   8.105   9.199  0.4500 -0.7438  0.2886
  845MOL0     H16598   2.156   8.240   9.544 -0.1172  0.2398  0.0529
  845MOL0     H16599   2.242   8.091   9.596  3.7508 -0.0194  0.7485
  845MOL0     H16600   2.343   8.379   9.583  0.0412  1.7877  3.5972
  845MOL0     H16601   2.465   8.249   9.598 -0.0680  0.4549  3.1831
  845MOL0     H16602   2.253   8.310   9.808  0.7515  0.1747  3.1304
  845MOL0     H16603   2.333   8.160   9.790 -1.1723  0.2973 -0.6693
  845MOL0     H16604   2.493   8.422   9.835  2.8485 -0.2343 -1.0821
  845MOL0     H16605   2.563   8.267   9.807 -0.2977 -0.3500 -0.4154
  845MOL0     H16606   2.434   8.209  10.203  1.2771  2.0011  0.6258
  845MOL0     H16607   2.036   8.068   9.477  0.9454  1.6238  0.2923
  845MOL0     H16608   1.884   7.886   9.450 -0.9752  4.6970  0.0898
  845MOL0     H16609   1.813   7.943   9.296 -1.0666  3.1743  3.1796
  845MOL0     H16610   1.890   7.788   9.304 -3.2554 -1.5964  2.6423
  846MOL0     O16611   0.479   9.479   7.183 -0.2037 -1.0703  0.1005
  846MOL0     C16612   0.582   9.540   7.142  0.2508  0.2487  0.0197
  846MOL0     O16613   0.629   9.527   7.007  0.2676 -0.9229  0.2086
  846MOL0     C16614   0.550   9.463   6.918 -0.3257  1.0850 -1.2319
  846MOL0     C16615   0.571   9.325   6.886  0.1042 -0.0063  0.9195
  846MOL0     C16616   0.479   9.268   6.798 -0.1957  0.0274  0.8083
  846MOL0     C16617   0.365   9.336   6.753 -0.4252 -1.1402  1.1914
  846MOL0     O16618   0.283   9.271   6.664  0.7155  0.3627  0.1027
  846MOL0     C16619   0.148   9.310   6.643  0.8621  0.6464 -0.4490
  846MOL0     C16620   0.067   9.191   6.591  0.3149 -0.0962  0.7738
  846MOL0     C16621  -0.084   9.223   6.563 -0.1754 -0.5901 -0.1938
  846MOL0     C16622  -0.139   9.114   6.462 -0.1102  0.7868  0.5118
  846MOL0     C16623  -0.287   9.130   6.428  0.0657  0.0317 -0.2645
  846MOL0     C16624  -0.341   9.015   6.341 -0.2696 -0.1532 -0.2762
  846MOL0     C16625  -0.489   9.031   6.303  0.1459  1.1774 -0.0247
  846MOL0     C16626  -0.548   8.909   6.227  0.5754  0.1746 -0.5142
  846MOL0     N16627  -0.536   8.939   6.079 -0.9269  0.3097  0.1922
  846MOL0     C16628  -0.425   8.933   6.004  0.2208  0.0119 -0.5545
  846MOL0     C16629  -0.466   8.975   5.885  0.0707  0.1273 -1.0384
  846MOL0     C16630  -0.375   8.988   5.771  0.3957 -0.3516 -0.0500
  846MOL0     C16631  -0.226   8.997   5.806  1.0261  0.1894  0.9326
  846MOL0     C16632  -0.203   9.146   5.859 -0.6626 -0.2808 -1.4976
  846MOL0     C16633  -0.059   9.181   5.874  0.6782 -0.5396  0.4532
  846MOL0     O16634   0.008   9.079   5.939 -0.3354  0.4150  0.6592
  846MOL0     C16635   0.148   9.083   5.926 -0.0952 -0.0776 -0.1668
  846MOL0     C16636   0.214   8.970   5.879  0.7197  0.1618  0.4343
  846MOL0     C16637   0.349   8.967   5.842 -0.0710 -1.6068 -0.5619
  846MOL0     C16638   0.390   8.838   5.792  0.8386  0.8380  0.4191
  846MOL0     C16639   0.426   9.085   5.881  0.1272 -0.0955 -0.3076
  846MOL0     C16640   0.580   9.086   5.886 -0.5710  0.0088  0.6270
  846MOL0     O16641   0.621   9.208   5.845  0.2251 -1.1715  0.4580
  846MOL0     C16642   0.751   9.243   5.844 -0.7123 -1.1368  0.1861
  846MOL0     C16643   0.782   9.362   5.773  0.2167  0.8655  0.6892
  846MOL0     C16644   0.909   9.407   5.758  0.0005 -0.6282 -1.1769
  846MOL0     C16645   1.015   9.338   5.819  0.3555  0.3808 -0.0597
  846MOL0     O16646   1.134   9.381   5.783  0.4244 -0.2387 -0.2754
  846MOL0     C16647   1.244   9.365   5.869 -0.3301  0.7119  0.1252
  846MOL0     C16648   1.368   9.428   5.800 -0.8951 -0.8403 -0.3061
  846MOL0     C16649   1.481   9.446   5.902 -0.5239  0.4639  0.7041
  846MOL0     C16650   1.600   9.492   5.836  0.1694 -0.3830 -0.4379
  846MOL0     C16651   1.714   9.520   5.940  0.7193 -1.2048 -0.1018
  846MOL0     C16652   1.832   9.590   5.870  0.1635  0.8122  0.4973
  846MOL0     C16653   1.812   9.722   5.790 -0.0845 -0.8397 -0.3922
  846MOL0     C16654   1.935   9.783   5.727 -0.3119  0.3544 -0.6915
  846MOL0    Cl16655   1.991   9.717   5.568 -0.2309 -0.1801  0.1692
  846MOL0     C16656   0.989   9.230   5.909  0.0840 -0.0568  0.7916
  846MOL0     C16657   0.859   9.188   5.916 -0.0263  0.4220 -0.7126
  846MOL0     O16658   0.653   9.004   5.948  0.6990 -0.6023  0.2650
  846MOL0     C16659   0.361   9.197   5.934  0.3007  0.1763  1.0256
  846MOL0     C16660   0.223   9.199   5.950  0.4027  0.1642 -0.3411
  846MOL0     N16661  -0.601   9.014   5.890  0.1484 -0.6962 -0.1146
  846MOL0     N16662  -0.635   8.994   6.012  0.0711 -1.2155 -0.4171
  846MOL0     C16663   0.336   9.465   6.797  0.3338  0.1073 -1.0718
  846MOL0     C16664   0.433   9.526   6.878 -0.2294 -0.3272 -0.0027
  846MOL0     C16665   0.673   9.613   7.241 -0.1012  0.6667  0.4292
  846MOL0     C16666   0.630   9.611   7.375  0.0949  0.3203  0.2005
  846MOL0     C16667   0.705   9.664   7.482 -0.0795  0.7257 -0.4827
  846MOL0     C16668   0.832   9.722   7.454  1.4247  0.3654  0.3954
  846MOL0     O16669   0.916   9.779   7.540  0.5106 -0.0443 -0.2646
  846MOL0     C16670   0.939   9.714   7.663  0.1080  0.2749  0.9937
  846MOL0     C16671   1.050   9.788   7.742 -0.3374 -0.0929  0.2342
  846MOL0     C16672   1.168   9.813   7.652 -0.3579 -0.1099 -0.5696
  846MOL0     C16673   1.280   9.873   7.735 -0.1115 -0.6665  0.5065
  846MOL0     C16674   1.412   9.866   7.660  0.5142  0.1501 -0.7884
  846MOL0     C16675   1.517   9.874   7.593  0.6167  0.1760 -0.1146
  846MOL0     C16676   0.883   9.704   7.329  0.8553  0.6837  0.0192
  846MOL0     C16677   0.809   9.649   7.224  1.0431 -0.3632  0.0519
  846MOL0     C16678   0.881   9.641   7.084  0.2465 -0.8850  0.4945
  846MOL0     H16679   0.660   9.279   6.929  0.8424 -1.6763 -2.0932
  846MOL0     H16680   0.486   9.164   6.767 -1.7744  0.0053  0.4882
  846MOL0     H16681   0.130   9.406   6.592 -1.2348 -0.6929 -2.4248
  846MOL0     H16682   0.106   9.336   6.741 -1.3113  2.7278 -1.7974
  846MOL0     H16683   0.115   9.157   6.499 -1.6825 -3.1420  0.7337
  846MOL0     H16684   0.068   9.112   6.666  0.4062  1.9778  3.0892
  846MOL0     H16685  -0.137   9.214   6.659  0.6705  1.2924  0.5052
  846MOL0     H16686  -0.096   9.325   6.525 -3.2904 -0.3044  1.2142
  846MOL0     H16687  -0.076   9.117   6.372  2.5489 -0.9611  2.1722
  846MOL0     H16688  -0.130   9.015   6.508 -2.1196  0.1146 -0.4442
  846MOL0     H16689  -0.295   9.229   6.383  2.0075  1.1091  1.5539
  846MOL0     H16690  -0.350   9.139   6.517  1.8907  0.9448  1.0169
  846MOL0     H16691  -0.289   9.008   6.245  0.5052 -0.8651  0.1807
  846MOL0     H16692  -0.332   8.921   6.395 -0.6715 -0.3271 -0.5138
  846MOL0     H16693  -0.501   9.126   6.249  0.3109  0.7144 -0.8959
  846MOL0     H16694  -0.544   9.041   6.397 -0.9253 -0.2069 -0.4653
  846MOL0     H16695  -0.501   8.812   6.244  0.8729  0.2088 -1.1133
  846MOL0     H16696  -0.654   8.911   6.255  1.1958  1.8595  2.0834
  846MOL0     H16697  -0.328   8.903   6.043  0.1822 -1.0059 -1.2328
  846MOL0     H16698  -0.414   9.061   5.699  0.5539 -1.9225 -1.8058
  846MOL0     H16699  -0.378   8.897   5.710  1.2951 -0.9793  0.8008
  846MOL0     H16700  -0.203   8.925   5.885 -1.1910 -1.4985  0.1452
  846MOL0     H16701  -0.181   8.983   5.707 -1.4124 -1.0176 -0.0908
  846MOL0     H16702  -0.250   9.225   5.800 -0.0117  1.2356 -0.0735
  846MOL0     H16703  -0.230   9.153   5.964 -2.0272  1.6105 -1.9069
  846MOL0     H16704  -0.018   9.192   5.773 -2.3695  3.3472 -0.6118
  846MOL0     H16705  -0.031   9.272   5.928  3.9896  1.0061 -3.3384
  846MOL0     H16706   0.153   8.892   5.836  0.4549 -0.2337  1.4814
  846MOL0     H16707   0.304   8.781   5.757 -0.5061  2.0733  1.6099
  846MOL0     H16708   0.435   8.786   5.877 -0.3965 -1.4412 -0.2600
  846MOL0     H16709   0.470   8.846   5.716  2.2316 -2.9531  1.2835
  846MOL0     H16710   0.700   9.412   5.723  1.6824  1.6986 -1.0028
  846MOL0     H16711   0.942   9.490   5.697  2.0776 -1.0788 -0.7689
  846MOL0     H16712   1.227   9.417   5.964  1.8941 -0.8474  1.4957
  846MOL0     H16713   1.263   9.262   5.899 -1.6272  0.5053  0.2652
  846MOL0     H16714   1.407   9.361   5.722  1.5369 -1.2748  1.1711
  846MOL0     H16715   1.342   9.522   5.749 -2.2276 -1.7478 -1.3817
  846MOL0     H16716   1.505   9.353   5.955  0.8954  0.3891 -0.0199
  846MOL0     H16717   1.457   9.512   5.986 -1.0055  1.8106 -0.4687
  846MOL0     H16718   1.571   9.584   5.785  0.4337 -0.0354  0.0255
  846MOL0     H16719   1.635   9.416   5.766  1.4300  0.2807 -0.5540
  846MOL0     H16720   1.686   9.595   6.015  1.3918  1.3632 -2.2346
  846MOL0     H16721   1.737   9.422   5.982  2.9700 -1.7546 -2.3270
  846MOL0     H16722   1.876   9.509   5.812 -3.6418 -1.7329  0.8822
  846MOL0     H16723   1.897   9.616   5.955 -0.0483  1.1233  0.5674
  846MOL0     H16724   1.760   9.805   5.838 -1.1330 -1.3445 -0.6227
  846MOL0     H16725   1.740   9.704   5.710 -0.7517  1.7325 -0.4519
  846MOL0     H16726   2.013   9.778   5.804 -0.9370  3.4730  0.3102
  846MOL0     H16727   1.908   9.886   5.703 -1.0442 -0.1144 -1.9758
  846MOL0     H16728   1.070   9.183   5.964  1.0881  2.0355  1.2102
  846MOL0     H16729   0.853   9.112   5.994 -0.0172  1.7774  0.6591
  846MOL0     H16730   0.409   9.285   5.975  2.3334 -0.4293  0.1178
  846MOL0     H16731   0.174   9.293   5.972  0.5015  0.6382 -1.9978
  846MOL0     H16732   0.241   9.511   6.774  0.0996 -0.7231 -1.8288
  846MOL0     H16733   0.412   9.629   6.908  1.8174 -0.2683  1.4373
  846MOL0     H16734   0.527   9.583   7.395 -0.7095  2.5088 -0.5894
  846MOL0     H16735   0.670   9.663   7.585  1.9410 -0.7640  0.2556
  846MOL0     H16736   0.843   9.716   7.716  1.2357 -0.5944  3.2131
  846MOL0     H16737   0.956   9.607   7.655 -1.3076  0.2141 -3.1051
  846MOL0     H16738   1.081   9.746   7.838 -1.3643  1.5753  1.3658
  846MOL0     H16739   0.997   9.880   7.770 -1.3294 -0.1514 -1.2934
  846MOL0     H16740   1.193   9.712   7.619 -0.6367 -2.2943  4.8935
  846MOL0     H16741   1.140   9.885   7.574 -0.1749  2.5108  1.6253
  846MOL0     H16742   1.279   9.834   7.837 -1.7297 -0.1620  0.7252
  846MOL0     H16743   1.265   9.982   7.740 -2.3740 -0.7236 -2.6207
  846MOL0     H16744   1.600   9.880   7.526  0.8310 -0.8660  0.0414
  846MOL0     H16745   0.988   9.729   7.314  1.7661 -1.0803  2.6674
  846MOL0     H16746   0.977   9.694   7.088 -1.1435  1.9791 -0.7693
  846MOL0     H16747   0.896   9.535   7.061  2.7512 -0.2692 -1.1910
  846MOL0     H16748   0.836   9.685   6.994  0.8374 -1.5995 -0.1624
  847MOL0     O16749   3.998   8.281   2.742  0.2061 -0.0791  0.7156
  847MOL0     C16750   3.999   8.343   2.846 -0.4774 -0.1807 -0.0037
  847MOL0     O16751   4.110   8.373   2.926 -0.0788 -0.1105 -0.2336
  847MOL0     C16752   4.243   8.358   2.884  0.5154 -0.7635  0.1075
  847MOL0     C16753   4.292   8.248   2.810 -0.0328  0.1273  0.0541
  847MOL0     C16754   4.417   8.261   2.757  0.4997  1.1749 -0.1485
  847MOL0     C16755   4.495   8.378   2.776 -0.2519 -0.8304 -0.8055
  847MOL0     O16756   4.626   8.395   2.753 -0.8125 -0.1706  0.5054
  847MOL0     C16757   4.693   8.276   2.698  0.3438  0.0440  1.5692
  847MOL0     C16758   4.845   8.316   2.694  0.6223 -0.8079  0.1757
  847MOL0     C16759   4.934   8.204   2.653  0.5451 -1.0128  0.0911
  847MOL0     C16760   5.080   8.252   2.633  0.2575 -0.4021  0.4503
  847MOL0     C16761   5.160   8.143   2.553 -0.7570 -0.1520  0.3818
  847MOL0     C16762   5.290   8.196   2.494  0.4533 -0.3061  0.1438
  847MOL0     C16763   5.375   8.088   2.435  0.6454 -0.4988 -0.5330
  847MOL0     C16764   5.453   8.005   2.540 -0.1730 -1.0621 -0.6064
  847MOL0     N16765   5.587   8.070   2.555  0.7537  0.4405  0.0432
  847MOL0     C16766   5.708   8.009   2.520  0.3663  0.2316 -0.2899
  847MOL0     C16767   5.804   8.096   2.563 -0.0391  0.2686 -0.2467
  847MOL0     C16768   5.947   8.076   2.551 -0.5872  0.0256 -0.4811
  847MOL0     C16769   6.040   8.150   2.653  0.2567  0.0720  0.6315
  847MOL0     C16770   6.090   8.055   2.764 -0.0775 -0.0695 -0.2012
  847MOL0     C16771   6.192   8.108   2.856 -0.4040 -0.1409  0.5400
  847MOL0     O16772   6.311   8.148   2.798 -0.4470 -0.0082 -0.0028
  847MOL0     C16773   6.412   8.186   2.893  0.4957 -0.8158  0.7494
  847MOL0     C16774   6.386   8.252   3.009  0.0594 -0.0695 -0.1972
  847MOL0     C16775   6.489   8.299   3.095 -0.5430 -0.2867  0.1915
  847MOL0     C16776   6.447   8.372   3.214 -0.2057 -0.2701  0.9370
  847MOL0     C16777   6.623   8.263   3.067  0.6792 -0.0533 -0.1624
  847MOL0     C16778   6.741   8.284   3.164  0.6251  0.2289  0.7582
  847MOL0     O16779   6.867   8.228   3.131  0.9503 -0.0439  0.4245
  847MOL0     C16780   6.971   8.260   3.203  0.0406  0.8730 -0.5074
  847MOL0     C16781   7.033   8.158   3.291 -0.1095  1.6737 -0.4046
  847MOL0     C16782   7.126   8.197   3.390 -0.2956  0.0117 -0.6366
  847MOL0     C16783   7.165   8.333   3.406  0.3544  0.7734 -0.4288
  847MOL0     O16784   7.241   8.384   3.503  0.1354  0.2851  0.0675
  847MOL0     C16785   7.349   8.309   3.562  0.1414  0.0671  0.0457
  847MOL0     C16786   7.413   8.413   3.656  1.1679  0.2447 -0.1744
  847MOL0     C16787   7.323   8.449   3.772  0.3098 -0.1496 -1.0198
  847MOL0     C16788   7.388   8.575   3.843 -0.1175 -0.7267  0.5071
  847MOL0     C16789   7.536   8.557   3.904  0.5816 -0.2854  0.5318
  847MOL0     C16790   7.568   8.413   3.955 -0.3327 -0.3549 -0.5068
  847MOL0     C16791   7.654   8.409   4.086  0.5585 -0.2237 -0.4798
  847MOL0     C16792   7.657   8.267   4.137  0.2061 -0.5702 -0.3097
  847MOL0    Cl16793   7.724   8.263   4.302  0.0862 -0.0939 -0.2082
  847MOL0     C16794   7.108   8.420   3.321  0.1850 -0.9876 -0.0755
  847MOL0     C16795   7.015   8.390   3.225 -0.1158 -0.4915 -0.4160
  847MOL0     O16796   6.722   8.367   3.248  0.2995  0.5302  1.0701
  847MOL0     C16797   6.645   8.194   2.951 -0.2780 -0.4399  1.2638
  847MOL0     C16798   6.541   8.167   2.857  0.7667 -0.2375 -0.3059
  847MOL0     N16799   5.749   8.208   2.611  0.6912 -0.3899 -0.6394
  847MOL0     N16800   5.617   8.192   2.610  0.2897 -0.2020  0.1602
  847MOL0     C16801   4.440   8.486   2.847  0.2088 -0.7947 -0.2653
  847MOL0     C16802   4.311   8.483   2.902 -0.5999  0.0646 -0.8574
  847MOL0     C16803   3.869   8.398   2.883  0.4166  0.4465  0.6867
  847MOL0     C16804   3.758   8.314   2.866 -0.0562 -0.3199  0.6722
  847MOL0     C16805   3.629   8.348   2.910 -0.3269  0.5185 -0.1964
  847MOL0     C16806   3.607   8.475   2.958  0.5721  0.2374 -0.0265
  847MOL0     O16807   3.478   8.516   2.986 -0.0520 -0.2585 -0.4556
  847MOL0     C16808   3.391   8.524   2.868 -0.3916 -1.1031  0.1121
  847MOL0     C16809   3.404   8.666   2.809  0.2911  0.6112 -0.2302
  847MOL0     C16810   3.409   8.789   2.910  0.2363  0.3535  0.7867
  847MOL0     C16811   3.275   8.838   2.926  0.6646 -0.6358  0.6775
  847MOL0     C16812   3.274   8.962   2.999 -0.6792  0.4663 -0.2904
  847MOL0     C16813   3.278   9.060   3.072  0.4209  0.0468  1.1244
  847MOL0     C16814   3.714   8.562   2.983 -0.1194  1.0586  0.4053
  847MOL0     C16815   3.844   8.526   2.941 -0.6850  0.6527 -0.4417
  847MOL0     C16816   3.964   8.608   2.969  0.2103 -1.0812 -0.0966
  847MOL0     H16817   4.234   8.157   2.808  0.4888 -0.3376  2.6684
  847MOL0     H16818   4.453   8.170   2.709 -3.2542 -1.4298  1.4612
  847MOL0     H16819   4.649   8.266   2.599  0.5773  0.2681  1.4410
  847MOL0     H16820   4.679   8.187   2.760  0.9406 -0.1169  1.4856
  847MOL0     H16821   4.863   8.404   2.630  0.7237 -0.0973  1.1537
  847MOL0     H16822   4.879   8.352   2.791 -0.8467 -1.8604  1.1246
  847MOL0     H16823   4.932   8.122   2.724 -1.9979  0.0293  1.3566
  847MOL0     H16824   4.892   8.161   2.561  0.8724 -3.2828  0.9475
  847MOL0     H16825   5.093   8.353   2.591  1.1901 -0.4358  0.6575
  847MOL0     H16826   5.119   8.248   2.735 -2.5244 -1.7216  1.5623
  847MOL0     H16827   5.099   8.103   2.472  0.2254  1.0262 -0.9914
  847MOL0     H16828   5.187   8.063   2.622  1.5893  0.6545  0.5043
  847MOL0     H16829   5.252   8.258   2.412 -2.6079 -0.4169  1.3376
  847MOL0     H16830   5.351   8.258   2.561 -1.6675  2.7623 -0.5957
  847MOL0     H16831   5.433   8.136   2.355 -2.4731  0.4707 -2.3636
  847MOL0     H16832   5.317   8.014   2.380 -2.4277 -0.0147  1.7750
  847MOL0     H16833   5.401   7.995   2.636 -1.4871  0.3709 -1.1280
  847MOL0     H16834   5.468   7.906   2.496 -1.9418 -2.1835  1.1154
  847MOL0     H16835   5.727   7.904   2.503  1.5801  0.3459  0.2862
  847MOL0     H16836   5.970   8.118   2.453  0.3470 -1.5155 -0.9433
  847MOL0     H16837   5.968   7.970   2.564  2.6773  0.5451 -0.6692
  847MOL0     H16838   6.124   8.199   2.601  0.7949 -1.4126  0.0503
  847MOL0     H16839   5.987   8.230   2.705 -0.6625 -0.9729  1.3391
  847MOL0     H16840   6.003   8.007   2.811 -0.6401 -1.2532 -2.3402
  847MOL0     H16841   6.151   7.973   2.724 -0.3685 -1.6738  2.4007
  847MOL0     H16842   6.149   8.197   2.903 -0.0974 -0.0442  0.6389
  847MOL0     H16843   6.209   8.040   2.940 -2.5137  0.4741  1.5414
  847MOL0     H16844   6.286   8.263   3.050  0.5854  0.4102  0.9743
  847MOL0     H16845   6.492   8.337   3.307 -0.7501 -1.9685  0.6106
  847MOL0     H16846   6.338   8.382   3.223 -0.4607 -0.9636 -0.8813
  847MOL0     H16847   6.483   8.472   3.189  2.3868 -1.6884 -1.5734
  847MOL0     H16848   7.011   8.052   3.286  0.1857  1.6159 -0.4490
  847MOL0     H16849   7.164   8.120   3.456 -1.3997  1.8404  2.3333
  847MOL0     H16850   7.309   8.221   3.613  0.6884 -0.3824 -0.2939
  847MOL0     H16851   7.429   8.279   3.494 -0.2383 -1.4737  0.2422
  847MOL0     H16852   7.508   8.372   3.693  1.1730  0.6005  0.2054
  847MOL0     H16853   7.431   8.502   3.595 -4.4773  0.3324 -2.3383
  847MOL0     H16854   7.308   8.367   3.843 -0.0549  1.0055  0.2889
  847MOL0     H16855   7.225   8.488   3.741  0.6135 -0.6793 -2.7221
  847MOL0     H16856   7.323   8.602   3.926  2.0163 -0.0097  2.0278
  847MOL0     H16857   7.393   8.651   3.764 -1.1577 -0.3839  0.7501
  847MOL0     H16858   7.613   8.574   3.827  0.3397 -1.9152 -0.1075
  847MOL0     H16859   7.550   8.631   3.984  1.9610 -2.3922  2.3520
  847MOL0     H16860   7.618   8.344   3.886 -1.9803 -1.1931 -0.9195
  847MOL0     H16861   7.480   8.354   3.980  0.8141 -1.7535  0.3862
  847MOL0     H16862   7.595   8.473   4.153 -2.6425  1.1086 -4.1810
  847MOL0     H16863   7.757   8.445   4.076  0.9823 -1.2387  0.1220
  847MOL0     H16864   7.702   8.203   4.061  0.0773 -1.2527  0.1775
  847MOL0     H16865   7.553   8.237   4.153 -0.5140  2.0147  0.3484
  847MOL0     H16866   7.139   8.523   3.334  0.9564 -1.2211 -0.0068
  847MOL0     H16867   6.967   8.469   3.168 -0.1091 -0.2909 -0.1454
  847MOL0     H16868   6.743   8.166   2.913 -0.9208 -1.9409  0.6607
  847MOL0     H16869   6.566   8.112   2.766  3.1647 -1.1456  0.8121
  847MOL0     H16870   4.502   8.574   2.847 -1.1237  0.1780 -0.6860
  847MOL0     H16871   4.263   8.556   2.966 -2.4478 -1.7798 -0.0127
  847MOL0     H16872   3.774   8.219   2.816 -2.2223 -0.7763  0.7212
  847MOL0     H16873   3.552   8.271   2.905  1.3839 -1.3489  0.8161
  847MOL0     H16874   3.411   8.447   2.793 -0.4676 -1.1265  0.1166
  847MOL0     H16875   3.288   8.518   2.904  0.1891 -1.7831  1.7790
  847MOL0     H16876   3.331   8.684   2.730 -0.3381  0.2621  0.2629
  847MOL0     H16877   3.500   8.654   2.758 -0.8994 -0.3412 -2.3988
  847MOL0     H16878   3.475   8.770   2.995  0.4640  1.5373  0.8978
  847MOL0     H16879   3.470   8.864   2.858  1.4586  1.1575  3.2167
  847MOL0     H16880   3.222   8.765   2.987 -1.1255  2.2619  2.8421
  847MOL0     H16881   3.204   8.849   2.843 -1.8243 -3.4143  2.2663
  847MOL0     H16882   3.273   9.151   3.129  2.3540 -1.4867  4.0240
  847MOL0     H16883   3.694   8.652   3.041 -3.4073  1.2086 -0.7644
  847MOL0     H16884   4.009   8.633   2.872 -2.3507  3.0609 -0.4970
  847MOL0     H16885   3.931   8.704   3.011  1.3848 -0.1803 -1.1373
  847MOL0     H16886   4.028   8.553   3.038 -0.8683 -0.3507  1.5496
  848MOL0     O16887   9.886  10.915   8.667  0.4361 -0.4798  0.0461
  848MOL0     C16888   9.924  10.917   8.780 -0.2444 -0.0695 -0.6583
  848MOL0     O16889  10.057  10.886   8.809  0.8264 -0.3531  0.1138
  848MOL0     C16890  10.144  10.849   8.713  1.4394  0.1900  0.0538
  848MOL0     C16891  10.138  10.722   8.658 -0.3110  0.0455  0.2662
  848MOL0     C16892  10.221  10.688   8.549 -0.7794  0.1889 -0.3999
  848MOL0     C16893  10.330  10.770   8.520 -0.9782 -0.7627  0.3098
  848MOL0     O16894  10.429  10.752   8.435 -0.8907 -0.2232 -0.0287
  848MOL0     C16895  10.478  10.622   8.401  0.4238  0.6367 -0.2390
  848MOL0     C16896  10.584  10.643   8.288 -0.5195  0.0772  0.5170
  848MOL0     C16897  10.692  10.534   8.255  0.3170  0.2499 -0.9934
  848MOL0     C16898  10.720  10.534   8.103  0.4509  0.4648 -1.2255
  848MOL0     C16899  10.856  10.470   8.067  0.7452 -0.4982  0.3955
  848MOL0     C16900  10.838  10.320   8.069 -0.1557  0.5990  0.5598
  848MOL0     C16901  10.974  10.251   8.030  0.1189 -0.1400 -0.1012
  848MOL0     C16902  10.965  10.094   8.032 -0.2674 -0.4718  0.5621
  848MOL0     N16903  10.936  10.024   8.154 -0.7106  0.3091  1.1769
  848MOL0     C16904  11.031   9.974   8.233  0.8541  0.5526 -0.8987
  848MOL0     C16905  10.963   9.959   8.355 -0.5352 -0.2498  0.1507
  848MOL0     C16906  11.025   9.901   8.487  0.2843 -0.0888 -0.4749
  848MOL0     C16907  11.052   9.753   8.495  0.5352  1.1477  0.0545
  848MOL0     C16908  11.117   9.719   8.629  1.1094 -0.4234 -0.3586
  848MOL0     C16909  11.188   9.592   8.632 -0.1293  0.3069 -0.2107
  848MOL0     O16910  11.259   9.583   8.753  0.0215 -0.6269 -0.6059
  848MOL0     C16911  11.371   9.513   8.762  0.0108  0.3616 -0.4727
  848MOL0     C16912  11.438   9.441   8.660  0.5252 -0.4614  0.5262
  848MOL0     C16913  11.564   9.381   8.679 -0.5004 -0.3449 -0.4708
  848MOL0     C16914  11.626   9.315   8.561  0.0191 -1.1315  0.5211
  848MOL0     C16915  11.615   9.357   8.812 -0.3735 -0.6386  0.6803
  848MOL0     C16916  11.734   9.276   8.849  0.1768  0.7425  0.9467
  848MOL0     O16917  11.748   9.243   8.983 -0.8659 -0.1073 -0.2002
  848MOL0     C16918  11.827   9.133   9.018  0.4622  0.0698 -0.1651
  848MOL0     C16919  11.959   9.114   9.003 -0.4423 -0.2925  0.4177
  848MOL0     C16920  12.016   8.986   9.043 -0.7349 -0.4714 -0.9763
  848MOL0     C16921  11.936   8.877   9.094  0.4067 -0.1166 -0.4032
  848MOL0     O16922  12.007   8.759   9.142 -0.0639 -0.0595 -0.1399
  848MOL0     C16923  11.963   8.709   9.265  0.0909 -0.4719 -0.2615
  848MOL0     C16924  12.081   8.651   9.341  0.1859 -0.4689 -0.2456
  848MOL0     C16925  12.208   8.740   9.351  0.2709  1.0642  0.6557
  848MOL0     C16926  12.319   8.674   9.443 -0.1869  0.2062  0.8092
  848MOL0     C16927  12.455   8.735   9.460 -0.1731  0.1237 -0.9596
  848MOL0     C16928  12.541   8.662   9.577 -0.2038  0.8048  0.2374
  848MOL0     C16929  12.557   8.506   9.550 -0.4619  0.6606  0.1116
  848MOL0     C16930  12.570   8.428   9.679  0.3126 -0.1192 -0.8082
  848MOL0    Cl16931  12.704   8.476   9.786  0.2443 -0.1341 -0.4831
  848MOL0     C16932  11.800   8.905   9.111 -0.2592 -0.3039 -0.3156
  848MOL0     C16933  11.755   9.029   9.075  0.1152 -0.9284  0.5390
  848MOL0     O16934  11.812   9.245   8.762 -0.5821  0.5914  0.7113
  848MOL0     C16935  11.534   9.416   8.916  0.9471 -0.1753  0.3016
  848MOL0     C16936  11.416   9.495   8.893 -0.8516 -0.6581 -0.5056
  848MOL0     N16937  10.826   9.981   8.342 -1.3747  0.3174  0.6838
  848MOL0     N16938  10.820  10.023   8.222  0.3120 -0.4201  0.5772
  848MOL0     C16939  10.341  10.898   8.586  0.2697  0.0036 -0.6991
  848MOL0     C16940  10.245  10.936   8.682 -0.2462  0.3804 -0.6370
  848MOL0     C16941   9.813  10.941   8.880  0.3248  0.4445  0.3320
  848MOL0     C16942   9.677  10.939   8.836 -0.1280  0.7820 -0.9094
  848MOL0     C16943   9.578  10.958   8.925  0.1322  1.4471  0.3979
  848MOL0     C16944   9.596  10.976   9.064  0.4201 -0.0453 -1.0332
  848MOL0     O16945   9.495  10.997   9.153 -0.0275  0.0670 -0.0136
  848MOL0     C16946   9.521  10.984   9.291  1.2414  0.2610  0.4053
  848MOL0     C16947   9.384  11.015   9.356 -0.4510 -0.1451 -0.2318
  848MOL0     C16948   9.398  10.998   9.506 -0.2592 -0.0563  0.2519
  848MOL0     C16949   9.276  10.938   9.577 -0.5770  0.1723  0.4215
  848MOL0     C16950   9.296  10.923   9.727 -0.5283  0.9017 -0.3801
  848MOL0     C16951   9.318  10.929   9.849  0.3334  0.0575  0.1238
  848MOL0     C16952   9.735  10.972   9.112 -0.5927  0.9965  0.4907
  848MOL0     C16953   9.842  10.957   9.015  1.1726 -0.3227  1.1317
  848MOL0     C16954   9.971  10.947   9.071 -1.1328 -0.2076 -0.0694
  848MOL0     H16955  10.058  10.652   8.681 -1.6672  0.9969 -1.3322
  848MOL0     H16956  10.211  10.595   8.494  2.2283  0.9341 -2.4612
  848MOL0     H16957  10.402  10.561   8.350  0.4309  2.2446 -2.3190
  848MOL0     H16958  10.526  10.572   8.485  2.1557  0.4659 -1.2833
  848MOL0     H16959  10.529  10.669   8.197  0.1565  1.3092  0.4366
  848MOL0     H16960  10.643  10.731   8.315 -1.0806  0.6120  0.0552
  848MOL0     H16961  10.788  10.557   8.302  1.3333 -2.4972 -1.5540
  848MOL0     H16962  10.655  10.434   8.280 -0.7182  1.1911  1.5753
  848MOL0     H16963  10.637  10.497   8.042  0.8540 -0.9417 -0.9499
  848MOL0     H16964  10.732  10.642   8.085  0.7443  0.6902  0.1831
  848MOL0     H16965  10.936  10.504   8.133  1.0018  0.0944 -0.2043
  848MOL0     H16966  10.879  10.503   7.965  0.2074  1.8996  0.9807
  848MOL0     H16967  10.815  10.287   8.171 -1.1556  1.8499  0.7657
  848MOL0     H16968  10.769  10.280   7.995  1.3467 -1.3997  0.1658
  848MOL0     H16969  11.058  10.281   8.093  0.8274 -1.5138 -0.3554
  848MOL0     H16970  10.978  10.281   7.925  1.6824 -0.9099 -0.2791
  848MOL0     H16971  10.895  10.060   7.956 -0.3945  0.1251  0.4049
  848MOL0     H16972  11.060  10.059   7.991  1.5406  2.4808  1.8592
  848MOL0     H16973  11.138   9.973   8.211  0.8911 -0.5876 -0.7321
  848MOL0     H16974  10.959   9.918   8.572 -0.8197 -1.2136 -1.0833
  848MOL0     H16975  11.118   9.958   8.502  0.6883 -0.5846 -1.0588
  848MOL0     H16976  10.963   9.690   8.487  1.8001 -0.6910 -0.0435
  848MOL0     H16977  11.105   9.723   8.404 -4.8014  2.3643 -3.9567
  848MOL0     H16978  11.185   9.801   8.655  0.4986  0.0907 -0.3488
  848MOL0     H16979  11.036   9.712   8.702 -0.8870 -1.3629 -2.5372
  848MOL0     H16980  11.125   9.505   8.615  3.1255 -1.8321 -2.4175
  848MOL0     H16981  11.254   9.597   8.545 -1.5338  4.2331 -1.2989
  848MOL0     H16982  11.396   9.451   8.560 -3.4477 -1.0800  1.9614
  848MOL0     H16983  11.566   9.324   8.470  0.6254 -4.2727 -0.3149
  848MOL0     H16984  11.646   9.208   8.575  5.0261 -1.0021 -3.1835
  848MOL0     H16985  11.723   9.362   8.547  0.1060 -1.5650 -0.3806
  848MOL0     H16986  12.020   9.183   8.945 -1.7177  0.2281 -0.3448
  848MOL0     H16987  12.124   8.982   9.035 -0.7228 -0.9226 -0.5781
  848MOL0     H16988  11.930   8.791   9.329 -0.0603 -1.0877  0.4593
  848MOL0     H16989  11.879   8.639   9.256  1.0211 -1.5641 -0.6174
  848MOL0     H16990  12.039   8.643   9.441 -0.8475 -0.8136 -0.6944
  848MOL0     H16991  12.107   8.553   9.298 -1.7575 -1.0642 -0.1635
  848MOL0     H16992  12.178   8.837   9.392 -0.8681  2.3410 -2.8371
  848MOL0     H16993  12.240   8.758   9.248 -0.3490  2.3181  0.6715
  848MOL0     H16994  12.333   8.579   9.389  0.0745 -0.4918  2.0623
  848MOL0     H16995  12.286   8.650   9.544  2.5046 -1.7283  1.3354
  848MOL0     H16996  12.510   8.734   9.365  0.8611  2.9776 -0.4850
  848MOL0     H16997  12.453   8.838   9.497  6.2523  0.3660 -0.2420
  848MOL0     H16998  12.499   8.683   9.676 -2.4139 -1.2945 -0.1466
  848MOL0     H16999  12.641   8.705   9.580  1.2949 -2.2236 -1.3783
  848MOL0     H17000  12.650   8.479   9.500 -0.9798 -2.9290  0.8657
  848MOL0     H17001  12.474   8.469   9.488 -0.9558  2.5319 -0.4147
  848MOL0     H17002  12.584   8.323   9.653 -1.5944 -1.2090  2.1228
  848MOL0     H17003  12.476   8.445   9.732  0.4998 -0.5763 -0.3324
  848MOL0     H17004  11.734   8.820   9.127 -1.6313  0.5187 -1.3442
  848MOL0     H17005  11.651   9.058   9.085  0.0161 -0.7700 -0.8441
  848MOL0     H17006  11.565   9.403   9.019  2.4620 -1.0886 -0.2508
  848MOL0     H17007  11.373   9.543   8.979 -0.9734 -0.6526 -0.5696
  848MOL0     H17008  10.423  10.962   8.556  2.5317 -1.6728  1.5245
  848MOL0     H17009  10.261  11.033   8.729  4.4416 -0.5079  0.0946
  848MOL0     H17010   9.658  10.901   8.736  0.0805 -0.6858 -0.4279
  848MOL0     H17011   9.477  10.929   8.897 -0.0598  2.1453  0.3452
  848MOL0     H17012   9.560  10.882   9.304  0.9092 -0.2685 -2.2477
  848MOL0     H17013   9.589  11.062   9.329  1.1405  0.9779 -0.8515
  848MOL0     H17014   9.309  10.946   9.318  1.5481 -2.0520 -0.9277
  848MOL0     H17015   9.348  11.114   9.328  0.8809  0.0755 -1.2474
  848MOL0     H17016   9.475  10.936   9.553 -0.7483  2.1510  4.4923
  848MOL0     H17017   9.420  11.100   9.538  0.8663  0.0959 -0.9402
  848MOL0     H17018   9.240  10.842   9.538  1.5134 -1.1462  1.5130
  848MOL0     H17019   9.190  11.002   9.555 -2.2335 -2.1951 -0.3587
  848MOL0     H17020   9.318  10.931   9.956  0.0081  0.1330  0.1264
  848MOL0     H17021   9.770  10.979   9.214  0.2570 -1.4091  0.4414
  848MOL0     H17022   9.970  10.990   9.171 -0.7413  1.1587 -0.6266
  848MOL0     H17023   9.987  10.839   9.070  0.5557 -0.0066  1.3926
  848MOL0     H17024  10.055  10.990   9.015  0.4608 -2.0254  0.7961
  849MOL0     O17025   1.645   3.651   1.440  0.1965  0.8718  0.0288
  849MOL0     C17026   1.628   3.533   1.463 -0.5634 -0.5980 -0.6552
  849MOL0     O17027   1.508   3.460   1.468 -0.3492  0.1282  0.1945
  849MOL0     C17028   1.399   3.501   1.532  1.1972  0.0098  0.2200
  849MOL0     C17029   1.281   3.427   1.518 -0.3893  0.4508  0.1583
  849MOL0     C17030   1.160   3.460   1.580 -0.3851  0.0199  0.2839
  849MOL0     C17031   1.152   3.567   1.673  0.7108  0.8015  1.1432
  849MOL0     O17032   1.041   3.596   1.751 -0.4200  0.2725 -0.9836
  849MOL0     C17033   0.913   3.524   1.744 -1.6859 -0.5318 -0.2460
  849MOL0     C17034   0.830   3.564   1.618  0.8627 -0.9678 -0.6572
  849MOL0     C17035   0.704   3.476   1.623  0.4716 -0.0317  0.1805
  849MOL0     C17036   0.581   3.548   1.571 -0.0052  0.2100 -1.2385
  849MOL0     C17037   0.453   3.458   1.576 -1.2281 -0.3529  0.9004
  849MOL0     C17038   0.412   3.401   1.708 -0.3332 -0.4491  0.5387
  849MOL0     C17039   0.278   3.326   1.699  0.1424 -0.1691  0.0743
  849MOL0     C17040   0.239   3.286   1.836  0.3039  0.0415  0.2644
  849MOL0     N17041   0.118   3.196   1.833  0.7112  0.7445 -0.4570
  849MOL0     C17042   0.119   3.056   1.885  0.9859 -0.7301 -0.0287
  849MOL0     C17043   0.000   3.006   1.847  0.4490  0.1458  0.1246
  849MOL0     C17044  -0.051   2.866   1.874  0.2412 -0.0873  0.4287
  849MOL0     C17045  -0.174   2.872   1.969 -0.1683  0.2437  0.6365
  849MOL0     C17046  -0.246   2.734   1.979 -0.0847 -0.0053 -0.2066
  849MOL0     C17047  -0.392   2.749   2.014  0.2633 -0.5910  0.2229
  849MOL0     O17048  -0.466   2.835   1.936  0.4471 -0.7640  0.5618
  849MOL0     C17049  -0.610   2.837   1.952  0.4966  0.1924  0.5427
  849MOL0     C17050  -0.677   2.750   2.041  0.1835  0.2052 -1.1073
  849MOL0     C17051  -0.821   2.732   2.051  0.2955 -0.5461  0.0828
  849MOL0     C17052  -0.884   2.631   2.152 -0.2050 -0.1263  0.9505
  849MOL0     C17053  -0.899   2.808   1.962  0.0926  0.3158  0.1286
  849MOL0     C17054  -1.048   2.785   1.950  0.5260  1.1437  0.5774
  849MOL0     O17055  -1.118   2.885   1.880 -0.1307  0.1908 -0.2709
  849MOL0     C17056  -1.255   2.890   1.872 -0.0945 -0.0918 -0.0487
  849MOL0     C17057  -1.347   2.906   1.978 -0.5446 -0.1079 -0.0121
  849MOL0     C17058  -1.477   2.885   1.960  0.4361  0.2556  0.4016
  849MOL0     C17059  -1.531   2.895   1.830 -0.6787  0.2250 -0.6975
  849MOL0     O17060  -1.668   2.886   1.820 -0.5859  0.7313 -0.1519
  849MOL0     C17061  -1.714   2.826   1.705  0.0125  0.2523  0.5925
  849MOL0     C17062  -1.864   2.835   1.718  0.2119  0.3684  0.3461
  849MOL0     C17063  -1.946   2.829   1.597 -0.5799  0.5714 -0.2525
  849MOL0     C17064  -2.094   2.811   1.618 -0.1476  0.2305  0.4022
  849MOL0     C17065  -2.184   2.828   1.500  0.5587  0.8316  0.6041
  849MOL0     C17066  -2.180   2.689   1.414 -0.5748 -0.6351  0.7884
  849MOL0     C17067  -2.305   2.665   1.324 -0.1653 -0.4078 -0.0926
  849MOL0     C17068  -2.426   2.602   1.405  0.6207  0.1869  0.0431
  849MOL0    Cl17069  -2.378   2.447   1.486  0.0987  0.0784 -0.0629
  849MOL0     C17070  -1.442   2.904   1.717 -1.2137  0.2064 -0.0990
  849MOL0     C17071  -1.304   2.894   1.746 -0.1768 -0.8236  0.3682
  849MOL0     O17072  -1.096   2.676   1.989  0.1308 -0.4147  0.3777
  849MOL0     C17073  -0.838   2.898   1.874 -1.2844  0.6534  0.1691
  849MOL0     C17074  -0.691   2.897   1.852  0.2479 -1.1744 -0.7021
  849MOL0     N17075  -0.066   3.099   1.767 -0.9183  0.4190  0.3041
  849MOL0     N17076  -0.001   3.208   1.762 -0.3534 -0.1233 -0.9250
  849MOL0     C17077   1.271   3.647   1.679  0.7814  0.0230  0.5032
  849MOL0     C17078   1.389   3.620   1.612 -0.3135  0.8589 -0.3079
  849MOL0     C17079   1.757   3.456   1.483 -0.7413  0.0356 -0.5043
  849MOL0     C17080   1.766   3.338   1.560 -0.1588 -0.6825 -0.4426
  849MOL0     C17081   1.881   3.258   1.570  0.1118 -0.5740 -0.8108
  849MOL0     C17082   1.999   3.300   1.512 -0.2797 -0.1144  0.0150
  849MOL0     O17083   2.112   3.228   1.543 -0.9094  0.5009  0.1504
  849MOL0     C17084   2.242   3.261   1.496  0.0837 -0.6452  1.3505
  849MOL0     C17085   2.345   3.166   1.531 -0.3263 -0.2432 -0.1482
  849MOL0     C17086   2.305   3.023   1.513 -0.7703 -0.0678  0.6716
  849MOL0     C17087   2.434   2.938   1.528 -0.2319  0.0981 -0.4885
  849MOL0     C17088   2.399   2.794   1.527  0.6556 -0.5774 -1.0100
  849MOL0     C17089   2.395   2.677   1.513 -0.1351  0.7491  0.6250
  849MOL0     C17090   1.999   3.422   1.446  1.0959  0.6698  0.0248
  849MOL0     C17091   1.884   3.500   1.429 -1.0100 -0.0740 -0.0201
  849MOL0     C17092   1.908   3.645   1.381 -0.0934  0.1043 -0.5714
  849MOL0     H17093   1.282   3.329   1.471  1.9829  0.3925  0.2109
  849MOL0     H17094   1.070   3.402   1.561 -1.9401  1.4667  2.7036
  849MOL0     H17095   0.867   3.561   1.836  2.2598  2.5577  0.7997
  849MOL0     H17096   0.936   3.418   1.730  2.3890  0.0797  0.5238
  849MOL0     H17097   0.805   3.670   1.623  2.8384 -0.4048 -1.8158
  849MOL0     H17098   0.881   3.538   1.525 -1.8808 -0.5852 -2.3805
  849MOL0     H17099   0.714   3.379   1.572 -0.9895 -0.8828  1.4417
  849MOL0     H17100   0.693   3.451   1.729  1.2406  2.8047  0.9968
  849MOL0     H17101   0.548   3.626   1.641  2.8972 -0.3054  0.8983
  849MOL0     H17102   0.598   3.599   1.476 -1.1530  0.7511 -1.1764
  849MOL0     H17103   0.475   3.370   1.516 -2.2272 -1.2049  1.7272
  849MOL0     H17104   0.385   3.519   1.515 -1.5587  1.1154  2.6536
  849MOL0     H17105   0.481   3.323   1.740  0.5474  1.8240  5.0156
  849MOL0     H17106   0.398   3.481   1.781  0.6373 -0.2624  0.5344
  849MOL0     H17107   0.275   3.237   1.637 -0.9368 -0.4907  0.5664
  849MOL0     H17108   0.198   3.395   1.669 -1.0290 -0.9367  1.3096
  849MOL0     H17109   0.326   3.236   1.881  0.3792  0.2701  0.3731
  849MOL0     H17110   0.212   3.374   1.895  0.8314  1.0483 -0.9615
  849MOL0     H17111   0.184   3.012   1.960 -4.5101 -3.8664  3.6901
  849MOL0     H17112   0.025   2.806   1.925  0.9336  2.6253  2.8185
  849MOL0     H17113  -0.072   2.827   1.774  1.6159  2.8848 -1.1717
  849MOL0     H17114  -0.130   2.902   2.065 -1.2313  1.2236  0.8358
  849MOL0     H17115  -0.249   2.945   1.936 -1.8173 -2.1497 -1.2140
  849MOL0     H17116  -0.238   2.675   1.887 -0.4370 -0.3377 -0.0239
  849MOL0     H17117  -0.193   2.674   2.054  1.5248  1.9956  0.3534
  849MOL0     H17118  -0.444   2.653   2.019  1.2657 -1.1959 -0.5021
  849MOL0     H17119  -0.385   2.790   2.115 -2.1334 -0.7154  0.4951
  849MOL0     H17120  -0.617   2.687   2.107 -0.3195  0.3159 -0.5318
  849MOL0     H17121  -0.826   2.623   2.244  0.2931  2.8348  1.0156
  849MOL0     H17122  -0.908   2.538   2.100  0.3434  0.7085 -0.8793
  849MOL0     H17123  -0.974   2.668   2.202 -0.5832  0.1820  0.0669
  849MOL0     H17124  -1.308   2.930   2.076  0.0085  2.1001 -0.7066
  849MOL0     H17125  -1.542   2.881   2.048  0.5490  1.6300  0.5693
  849MOL0     H17126  -1.675   2.856   1.607  1.2591  0.8135  1.2362
  849MOL0     H17127  -1.679   2.722   1.701 -2.9310 -0.8072 -2.7085
  849MOL0     H17128  -1.911   2.759   1.782  1.8831 -0.1639  0.9873
  849MOL0     H17129  -1.898   2.933   1.753 -0.3818 -0.5154  2.4841
  849MOL0     H17130  -1.919   2.747   1.530  1.0688 -1.5028  2.7195
  849MOL0     H17131  -1.924   2.926   1.552 -0.2930 -0.0085 -1.4090
  849MOL0     H17132  -2.125   2.869   1.706  2.5318 -0.7487  2.1124
  849MOL0     H17133  -2.113   2.709   1.653 -0.9910  0.0919 -0.4018
  849MOL0     H17134  -2.286   2.842   1.539  1.3576  0.1121  3.1603
  849MOL0     H17135  -2.156   2.918   1.445  1.6161  0.8693  1.1789
  849MOL0     H17136  -2.181   2.606   1.486 -2.1371 -0.5642  0.8908
  849MOL0     H17137  -2.088   2.694   1.354 -0.5200  1.9841  0.9750
  849MOL0     H17138  -2.284   2.608   1.233 -0.8201  2.0769 -1.9099
  849MOL0     H17139  -2.335   2.757   1.272  2.0076 -0.1339 -0.9665
  849MOL0     H17140  -2.508   2.582   1.336 -1.3652  2.4224  1.5888
  849MOL0     H17141  -2.464   2.668   1.483 -3.3550  0.1248 -1.5817
  849MOL0     H17142  -1.479   2.908   1.615 -0.2530  2.1193 -0.4302
  849MOL0     H17143  -1.245   2.874   1.657  2.5298 -0.2413  1.9089
  849MOL0     H17144  -0.906   2.955   1.811  0.3115  0.4827 -1.7994
  849MOL0     H17145  -0.636   2.954   1.778  1.4116  1.3184  1.8991
  849MOL0     H17146   1.286   3.739   1.734 -1.6578  0.5020  0.4779
  849MOL0     H17147   1.480   3.678   1.627 -0.0538  0.1476  0.9883
  849MOL0     H17148   1.673   3.290   1.588  0.9438 -3.0329 -0.5573
  849MOL0     H17149   1.876   3.162   1.620 -1.5609  0.1702  0.5553
  849MOL0     H17150   2.231   3.261   1.387  0.7245  1.2101  1.2468
  849MOL0     H17151   2.268   3.360   1.536  1.9317 -1.4172  2.2009
  849MOL0     H17152   2.372   3.178   1.637  3.1157  4.2114 -1.2110
  849MOL0     H17153   2.434   3.203   1.479 -0.2447  2.5370  1.7475
  849MOL0     H17154   2.235   2.990   1.591 -0.6955 -1.2693  0.2520
  849MOL0     H17155   2.255   2.998   1.419 -0.4899 -1.0485  0.7781
  849MOL0     H17156   2.483   2.956   1.624 -2.9624 -0.3962  1.1068
  849MOL0     H17157   2.505   2.961   1.448  0.9610 -2.6486 -0.3232
  849MOL0     H17158   2.389   2.574   1.484  0.8010  0.6759  0.6668
  849MOL0     H17159   2.085   3.479   1.412 -0.5897  2.1269 -2.0460
  849MOL0     H17160   1.841   3.666   1.296 -0.0214  0.8232 -0.4521
  849MOL0     H17161   1.884   3.704   1.470  1.6287 -0.3314  0.2082
  849MOL0     H17162   2.013   3.660   1.355  1.1796  0.3877  3.9026
  850MOL0     O17163   9.878   2.744   1.347  0.1923 -0.5259  0.0775
  850MOL0     C17164   9.877   2.617   1.357  0.1781  0.1373 -0.0048
  850MOL0     O17165   9.969   2.549   1.437 -0.1570  0.1163 -0.0976
  850MOL0     C17166  10.089   2.606   1.478  0.5327 -0.8945 -0.9231
  850MOL0     C17167  10.175   2.683   1.398 -0.1298 -1.0265  0.0849
  850MOL0     C17168  10.316   2.694   1.419 -0.0347 -0.6972 -0.0763
  850MOL0     C17169  10.373   2.639   1.534  0.4391 -0.7544 -0.0696
  850MOL0     O17170  10.494   2.654   1.585 -0.0167 -0.8688 -0.1674
  850MOL0     C17171  10.591   2.737   1.506 -1.1166 -0.4278 -0.5050
  850MOL0     C17172  10.735   2.686   1.551 -0.1013 -0.9076 -0.5432
  850MOL0     C17173  10.830   2.788   1.481 -0.2511 -0.7287  0.2363
  850MOL0     C17174  10.969   2.761   1.520 -0.1611  0.5019 -0.2145
  850MOL0     C17175  11.070   2.868   1.477  0.0718 -0.0318  0.2239
  850MOL0     C17176  11.216   2.815   1.505 -0.6088 -0.4852  0.5565
  850MOL0     C17177  11.309   2.938   1.465  0.8938  0.6095 -0.3013
  850MOL0     C17178  11.463   2.907   1.464  0.7721 -0.4982 -0.2007
  850MOL0     N17179  11.525   3.005   1.388  0.0811 -0.7140 -0.0531
  850MOL0     C17180  11.529   3.135   1.418  0.4222 -0.1453 -1.2457
  850MOL0     C17181  11.610   3.194   1.325  0.5337 -0.4134 -0.7182
  850MOL0     C17182  11.654   3.334   1.349 -0.4929  0.3273  0.3123
  850MOL0     C17183  11.629   3.415   1.226  0.1825 -0.2699  1.2127
  850MOL0     C17184  11.664   3.563   1.246  0.1985 -0.0893  0.5872
  850MOL0     C17185  11.640   3.642   1.116 -0.0339 -0.6219  0.0957
  850MOL0     O17186  11.504   3.662   1.082 -0.5803 -0.1203  0.1578
  850MOL0     C17187  11.491   3.760   0.983  0.5844  0.5354 -0.3169
  850MOL0     C17188  11.576   3.789   0.865  0.2692 -0.0840  0.2918
  850MOL0     C17189  11.551   3.898   0.785 -0.5061 -1.0590  0.4479
  850MOL0     C17190  11.673   3.946   0.701  0.7832  0.0987  0.5284
  850MOL0     C17191  11.423   3.950   0.782 -0.2529 -0.4641  0.2858
  850MOL0     C17192  11.376   4.054   0.687 -0.9115 -0.2136  0.9031
  850MOL0     O17193  11.239   4.079   0.698  0.5473  0.5216  0.1194
  850MOL0     C17194  11.171   4.171   0.625 -0.2807 -0.3270  0.6541
  850MOL0     C17195  11.137   4.141   0.496 -0.2372  0.6915  0.3377
  850MOL0     C17196  11.073   4.236   0.412 -0.9755 -0.3788  0.4421
  850MOL0     C17197  11.044   4.365   0.458 -0.8385  0.1195  0.0006
  850MOL0     O17198  11.004   4.460   0.370  0.4790  0.9321  0.9675
  850MOL0     C17199  10.946   4.584   0.409  0.2801 -0.0062  0.2312
  850MOL0     C17200  11.038   4.707   0.434  0.5803  0.2679  0.6269
  850MOL0     C17201  10.964   4.835   0.475  0.2857 -0.1091  0.0442
  850MOL0     C17202  11.070   4.940   0.526 -0.8633  0.3463 -0.1431
  850MOL0     C17203  11.007   5.073   0.583 -0.7986 -0.8500 -0.2510
  850MOL0     C17204  11.127   5.158   0.636  1.1427  0.0113  0.1265
  850MOL0     C17205  11.081   5.285   0.704 -0.5268  0.1369  0.3373
  850MOL0     C17206  11.199   5.334   0.787  0.4402  0.0836 -0.2935
  850MOL0    Cl17207  11.157   5.484   0.869  0.4947 -0.2609  0.3184
  850MOL0     C17208  11.080   4.394   0.596  0.2771 -0.7438 -0.2061
  850MOL0     C17209  11.147   4.297   0.676  0.8403 -0.6701  0.1008
  850MOL0     O17210  11.451   4.110   0.602 -0.0441 -0.4441  0.0302
  850MOL0     C17211  11.336   3.910   0.895  0.1268 -0.6157 -0.3602
  850MOL0     C17212  11.371   3.824   0.992 -0.0720  0.2937  0.8680
  850MOL0     N17213  11.649   3.106   1.232  0.6261 -0.4308  0.8971
  850MOL0     N17214  11.594   2.994   1.272 -0.3102  0.7185 -0.3347
  850MOL0     C17215  10.290   2.565   1.619 -0.3173 -0.3747  0.3782
  850MOL0     C17216  10.150   2.549   1.590  0.6642  0.4451  0.1340
  850MOL0     C17217   9.771   2.551   1.278 -0.1853 -0.4150  0.1551
  850MOL0     C17218   9.649   2.614   1.242 -0.3956 -0.7862  0.0310
  850MOL0     C17219   9.547   2.554   1.167  0.7935 -0.4781  0.3783
  850MOL0     C17220   9.556   2.423   1.132 -0.2375  0.4395  0.0606
  850MOL0     O17221   9.442   2.383   1.071  0.2366  0.5394  0.5054
  850MOL0     C17222   9.434   2.246   1.025  0.2679 -0.6556 -0.3135
  850MOL0     C17223   9.290   2.205   0.974 -1.4431 -0.2602  0.3018
  850MOL0     C17224   9.194   2.229   1.085 -0.2669 -0.3363  0.1664
  850MOL0     C17225   9.042   2.175   1.055  0.0661  0.4936  0.3720
  850MOL0     C17226   9.042   2.034   1.083 -0.4416 -0.3487  0.6997
  850MOL0     C17227   9.031   1.914   1.109 -0.1053  0.0766 -0.0485
  850MOL0     C17228   9.674   2.352   1.163 -0.6468 -0.1856 -0.3195
  850MOL0     C17229   9.782   2.423   1.226 -0.1418 -0.2336  0.9511
  850MOL0     C17230   9.910   2.342   1.233  0.4655 -1.3813  0.1434
  850MOL0     H17231  10.141   2.756   1.326  4.6451  1.5689  0.0484
  850MOL0     H17232  10.363   2.764   1.350 -1.3035 -0.8276 -1.1158
  850MOL0     H17233  10.589   2.835   1.555  0.2946 -0.8351  0.4372
  850MOL0     H17234  10.577   2.737   1.398 -0.9292 -1.6544 -0.5459
  850MOL0     H17235  10.744   2.678   1.660  0.5171  1.1784 -0.3790
  850MOL0     H17236  10.754   2.585   1.515  0.1251 -1.9355  2.2096
  850MOL0     H17237  10.821   2.788   1.371 -0.3689 -4.2856  0.1233
  850MOL0     H17238  10.799   2.888   1.513 -1.9601 -1.6012  1.4641
  850MOL0     H17239  10.981   2.751   1.628 -1.2076 -0.0427 -0.1273
  850MOL0     H17240  10.982   2.661   1.476 -0.1140  0.1901  0.5037
  850MOL0     H17241  11.059   2.964   1.528  0.0876  0.2608 -0.3138
  850MOL0     H17242  11.057   2.874   1.369 -1.9475  1.0120  0.4797
  850MOL0     H17243  11.221   2.780   1.609 -1.6094 -0.3798  0.6531
  850MOL0     H17244  11.253   2.731   1.446  2.2234  0.7639  0.4029
  850MOL0     H17245  11.295   3.021   1.534  2.9885  1.8208 -1.2330
  850MOL0     H17246  11.271   2.961   1.365 -1.8154 -3.4745 -0.4594
  850MOL0     H17247  11.505   2.897   1.565  0.9036 -0.3576 -0.2407
  850MOL0     H17248  11.468   2.811   1.412 -3.7785 -1.0761  0.0283
  850MOL0     H17249  11.478   3.175   1.506  0.5541  0.4356 -1.4301
  850MOL0     H17250  11.760   3.331   1.375 -0.8578  1.5105  2.1157
  850MOL0     H17251  11.612   3.385   1.436  2.1348  0.0638  1.8556
  850MOL0     H17252  11.678   3.381   1.134 -0.2088 -0.0332  0.9116
  850MOL0     H17253  11.520   3.412   1.213  0.4720 -1.0123 -1.7515
  850MOL0     H17254  11.616   3.606   1.334 -1.1223 -1.0852  0.3909
  850MOL0     H17255  11.772   3.577   1.255  0.5979 -0.3345 -2.5589
  850MOL0     H17256  11.693   3.736   1.138 -0.5919 -0.2786 -0.0166
  850MOL0     H17257  11.698   3.597   1.035  0.8297  1.7729 -0.7120
  850MOL0     H17258  11.673   3.740   0.869 -0.5032 -1.6014  3.6677
  850MOL0     H17259  11.757   3.888   0.739  1.7835  0.9105 -0.3550
  850MOL0     H17260  11.685   4.054   0.716  2.1486 -0.0290  0.4939
  850MOL0     H17261  11.663   3.921   0.595  2.2391  3.0384 -0.4229
  850MOL0     H17262  11.158   4.044   0.452  0.2421  1.9874 -2.5373
  850MOL0     H17263  11.045   4.214   0.309 -1.3588 -2.2984  0.9139
  850MOL0     H17264  10.887   4.617   0.324  0.0030 -0.2542  0.3274
  850MOL0     H17265  10.880   4.562   0.493 -0.0847 -4.0166 -0.8929
  850MOL0     H17266  11.111   4.685   0.513 -0.1281 -1.4658  0.8538
  850MOL0     H17267  11.090   4.736   0.343 -0.0472 -1.4639 -0.3273
  850MOL0     H17268  10.894   4.816   0.557 -2.1619  1.1878 -1.6056
  850MOL0     H17269  10.901   4.871   0.393  0.8110  4.1410  1.2598
  850MOL0     H17270  11.148   4.972   0.456 -1.6464  0.7566 -0.8478
  850MOL0     H17271  11.120   4.894   0.611 -2.0199 -0.7707 -0.0380
  850MOL0     H17272  10.951   5.127   0.505  0.2310  0.6462 -0.0081
  850MOL0     H17273  10.940   5.043   0.664 -2.7872 -1.5044 -2.0300
  850MOL0     H17274  11.193   5.187   0.555  1.7653 -0.0145  0.6191
  850MOL0     H17275  11.173   5.091   0.709 -1.7006 -0.6881  1.4485
  850MOL0     H17276  10.991   5.277   0.765  0.2575  3.3097  2.1503
  850MOL0     H17277  11.056   5.357   0.627  1.5152  0.7887  0.2266
  850MOL0     H17278  11.272   5.359   0.709 -0.5548 -2.4751 -2.1970
  850MOL0     H17279  11.242   5.253   0.845  1.5543  0.3283 -0.7486
  850MOL0     H17280  11.068   4.495   0.632  1.2165 -1.5184  2.5414
  850MOL0     H17281  11.177   4.325   0.777  2.1093  2.1400 -0.9730
  850MOL0     H17282  11.233   3.943   0.891  0.0029 -1.1221 -2.5410
  850MOL0     H17283  11.308   3.804   1.078 -0.2808 -1.7424  0.2900
  850MOL0     H17284  10.307   2.531   1.721 -1.0391  0.3496  0.7572
  850MOL0     H17285  10.090   2.489   1.657  1.3094 -1.1201 -0.6333
  850MOL0     H17286   9.627   2.718   1.264  0.3381 -0.8099  0.9153
  850MOL0     H17287   9.461   2.618   1.148  1.6731  2.2436  4.2276
  850MOL0     H17288   9.499   2.230   0.939 -0.8306 -0.6247 -1.1741
  850MOL0     H17289   9.474   2.181   1.103  0.5548  0.0560  0.1434
  850MOL0     H17290   9.287   2.100   0.942  0.3852 -0.5522  0.9548
  850MOL0     H17291   9.259   2.247   0.879  0.2915  0.0674 -0.1620
  850MOL0     H17292   9.224   2.174   1.174 -1.9547 -2.4924 -0.5030
  850MOL0     H17293   9.186   2.337   1.102 -2.4256 -0.6754  1.7835
  850MOL0     H17294   9.008   2.194   0.953  5.8029  0.9038 -1.8323
  850MOL0     H17295   8.974   2.221   1.127  1.3047  4.1654 -0.5272
  850MOL0     H17296   9.027   1.810   1.134  0.2239  0.0412 -0.1388
  850MOL0     H17297   9.686   2.246   1.144  0.2451 -0.4997  1.7894
  850MOL0     H17298   9.937   2.280   1.319  1.0003 -3.5665 -1.4839
  850MOL0     H17299   9.916   2.283   1.140  0.2056 -1.2992  0.0732
  850MOL0     H17300   9.996   2.407   1.216 -2.2069  1.9677 -1.7786
  851MOL0     O17301   2.252  10.095   0.238 -0.4459 -0.2477 -0.0188
  851MOL0     C17302   2.351  10.163   0.237  0.1750 -0.3163 -0.3731
  851MOL0     O17303   2.463  10.131   0.166 -0.1966 -0.7587  0.0453
  851MOL0     C17304   2.494   9.997   0.146  0.1034 -0.5421 -0.9014
  851MOL0     C17305   2.504   9.901   0.254  0.2384 -0.5232  1.0069
  851MOL0     C17306   2.524   9.766   0.237 -0.7146 -0.4766 -0.9546
  851MOL0     C17307   2.543   9.716   0.106  0.4352  0.6063  0.1133
  851MOL0     O17308   2.557   9.585   0.064  0.1176 -0.4851  0.2935
  851MOL0     C17309   2.645   9.498   0.144  0.2824 -0.2672 -0.1769
  851MOL0     C17310   2.743   9.432   0.039 -0.8253 -0.3490 -1.4463
  851MOL0     C17311   2.879   9.405   0.098  0.0635 -0.5828  0.0807
  851MOL0     C17312   2.990   9.512   0.066  0.1530  0.3511 -0.9215
  851MOL0     C17313   3.133   9.471   0.105 -0.4085 -0.1478  0.3600
  851MOL0     C17314   3.236   9.568   0.041 -0.2106 -0.6995 -0.4238
  851MOL0     C17315   3.382   9.511   0.064  0.0760 -0.9498 -0.4901
  851MOL0     C17316   3.497   9.615   0.068  0.1397 -0.6282 -0.0508
  851MOL0     N17317   3.618   9.550   0.115  0.1764  0.4443 -0.0089
  851MOL0     C17318   3.650   9.524   0.246  0.5010 -1.6482 -0.7445
  851MOL0     C17319   3.753   9.441   0.252  0.6516  0.5579 -0.3066
  851MOL0     C17320   3.829   9.386   0.366  0.1710  0.3744  0.3891
  851MOL0     C17321   3.977   9.396   0.342  0.1510  0.3983 -0.4299
  851MOL0     C17322   4.041   9.319   0.456  1.1505 -0.3651  0.8105
  851MOL0     C17323   4.190   9.332   0.450 -0.2038 -0.5699  0.6633
  851MOL0     O17324   4.215   9.476   0.470  0.4703 -0.2533  0.1292
  851MOL0     C17325   4.342   9.525   0.452 -0.1651 -0.4307  0.4666
  851MOL0     C17326   4.390   9.546   0.324 -0.3643  0.8187  0.9372
  851MOL0     C17327   4.517   9.611   0.303 -0.4168  0.7176  0.4982
  851MOL0     C17328   4.545   9.651   0.157 -0.2555  0.0931  1.1312
  851MOL0     C17329   4.601   9.642   0.412 -0.3103  0.0940 -0.1815
  851MOL0     C17330   4.742   9.694   0.396 -0.9721 -0.4729  0.2531
  851MOL0     O17331   4.797   9.740   0.516  0.6616  0.0683  0.0177
  851MOL0     C17332   4.927   9.774   0.532 -0.7882  0.1919 -1.3797
  851MOL0     C17333   5.021   9.678   0.546 -0.3803 -0.6043 -0.5223
  851MOL0     C17334   5.158   9.709   0.555  0.5673  0.7683 -0.1684
  851MOL0     C17335   5.202   9.845   0.563 -0.1934  0.5719  0.4005
  851MOL0     O17336   5.336   9.872   0.568 -0.7680  0.0476 -0.1211
  851MOL0     C17337   5.392  10.012   0.570  0.1159  0.0556 -0.5057
  851MOL0     C17338   5.546  10.010   0.544  0.5668  0.6130  0.2814
  851MOL0     C17339   5.622   9.920   0.643 -0.3268 -0.6418  0.3433
  851MOL0     C17340   5.766   9.873   0.586  0.7661 -0.4749  0.3394
  851MOL0     C17341   5.837   9.771   0.675  0.7561 -0.5128  0.3428
  851MOL0     C17342   5.897   9.836   0.792 -0.8884 -0.6121  0.7075
  851MOL0     C17343   5.922   9.733   0.895  0.0222  0.1203 -0.7828
  851MOL0     C17344   5.967   9.808   1.023 -0.4555 -0.4275  0.7488
  851MOL0    Cl17345   5.944   9.721   1.168 -0.3938  0.4236  0.3669
  851MOL0     C17346   5.097   9.947   0.542  0.9087 -0.0411 -0.4901
  851MOL0     C17347   4.960   9.911   0.541  0.1722  0.1740  0.8745
  851MOL0     O17348   4.812   9.678   0.298  0.7265  0.3706 -0.5282
  851MOL0     C17349   4.548   9.620   0.543 -0.1794  0.9397  0.6528
  851MOL0     C17350   4.414   9.577   0.561 -0.1969  0.6820 -0.5604
  851MOL0     N17351   3.769   9.410   0.116  0.3566  0.1991  0.9782
  851MOL0     N17352   3.706   9.485   0.036  0.3290 -0.5076 -0.1644
  851MOL0     C17353   2.547   9.808  -0.003 -1.0049 -0.1786 -0.3349
  851MOL0     C17354   2.528   9.949   0.020 -0.2471 -0.3581  1.6309
  851MOL0     C17355   2.357  10.292   0.304  0.1224 -0.7302 -0.3743
  851MOL0     C17356   2.493  10.347   0.322 -0.5720 -0.3017 -0.6372
  851MOL0     C17357   2.514  10.474   0.374  0.3751 -0.0468 -1.0895
  851MOL0     C17358   2.416  10.547   0.430 -0.4614  0.6128  0.6086
  851MOL0     O17359   2.435  10.671   0.495 -1.1572 -0.2373  0.4440
  851MOL0     C17360   2.576  10.713   0.508  0.2220 -0.2186  0.4570
  851MOL0     C17361   2.623  10.777   0.381 -0.1265 -0.4152 -0.1482
  851MOL0     C17362   2.761  10.830   0.403  0.7823 -0.4272  0.1197
  851MOL0     C17363   2.769  10.963   0.478  0.0497 -0.1225 -0.0446
  851MOL0     C17364   2.909  10.995   0.506 -0.4614 -0.3032  0.0539
  851MOL0     C17365   3.023  11.032   0.526 -0.6157 -0.7895 -0.0712
  851MOL0     C17366   2.281  10.505   0.412 -0.3520  0.4199  0.6935
  851MOL0     C17367   2.253  10.378   0.352 -0.5563 -0.2450  0.5473
  851MOL0     C17368   2.109  10.351   0.340 -0.4278  0.9098  0.1530
  851MOL0     H17369   2.497   9.927   0.359  1.1098 -3.0171  1.7430
  851MOL0     H17370   2.522   9.688   0.312 -2.7046 -1.3454 -1.8575
  851MOL0     H17371   2.578   9.427   0.193  1.1266 -0.5801  0.5625
  851MOL0     H17372   2.690   9.548   0.231 -2.2600 -2.2826  2.4871
  851MOL0     H17373   2.710   9.338  -0.005  0.6768 -1.8073  0.3663
  851MOL0     H17374   2.769   9.495  -0.046  2.4368  2.0579  1.0351
  851MOL0     H17375   2.870   9.382   0.204 -3.2480 -0.6118 -0.0930
  851MOL0     H17376   2.913   9.312   0.051 -1.3762 -0.9612 -0.2639
  851MOL0     H17377   2.981   9.528  -0.042 -0.1670 -0.2375 -0.9850
  851MOL0     H17378   2.971   9.608   0.113 -0.0718 -0.0531 -0.1831
  851MOL0     H17379   3.151   9.368   0.075  2.1814  0.4578 -0.3818
  851MOL0     H17380   3.150   9.478   0.213 -0.2386 -1.4013  0.4241
  851MOL0     H17381   3.215   9.604  -0.060  1.8632  2.8643  0.2232
  851MOL0     H17382   3.228   9.659   0.102  1.9980  0.9084 -2.3572
  851MOL0     H17383   3.399   9.437  -0.014  0.2613  0.3865 -1.7668
  851MOL0     H17384   3.377   9.449   0.154 -3.8033  0.1799  0.2856
  851MOL0     H17385   3.511   9.663  -0.030  0.2638  1.1256  0.7788
  851MOL0     H17386   3.473   9.702   0.130  1.2491 -1.6709  1.9266
  851MOL0     H17387   3.615   9.580   0.332  1.1731 -1.3663 -0.6455
  851MOL0     H17388   3.797   9.282   0.374  1.5411 -0.0569  0.4463
  851MOL0     H17389   3.794   9.429   0.460 -1.4273  1.5548 -0.6833
  851MOL0     H17390   3.988   9.339   0.250 -1.6945  1.6340 -1.4984
  851MOL0     H17391   4.014   9.497   0.322  2.0330 -0.2965 -0.5963
  851MOL0     H17392   4.007   9.355   0.554 -1.4208 -0.8186  0.1711
  851MOL0     H17393   4.027   9.212   0.435 -0.4721 -0.0423  0.1381
  851MOL0     H17394   4.240   9.277   0.530 -0.8743 -0.2863  1.2910
  851MOL0     H17395   4.242   9.299   0.360  2.6630  0.3441  1.8786
  851MOL0     H17396   4.319   9.531   0.243 -0.4375  1.7036  0.8249
  851MOL0     H17397   4.611   9.737   0.148 -1.2725  0.7503 -0.4962
  851MOL0     H17398   4.454   9.684   0.107  0.3031  0.4282  0.3164
  851MOL0     H17399   4.590   9.565   0.106  0.1737 -0.5899  2.5982
  851MOL0     H17400   4.974   9.584   0.575 -1.9701  0.8703  2.0558
  851MOL0     H17401   5.238   9.640   0.577  1.3700  1.4348 -0.9147
  851MOL0     H17402   5.352  10.075   0.490 -2.3087  0.6749  1.1157
  851MOL0     H17403   5.380  10.052   0.671 -0.7001 -3.3953  0.9324
  851MOL0     H17404   5.580   9.987   0.443 -0.6276  0.3473 -0.0750
  851MOL0     H17405   5.581  10.112   0.564  0.3423  0.3880  1.9624
  851MOL0     H17406   5.565   9.829   0.660 -0.6299 -0.0399  2.9745
  851MOL0     H17407   5.631   9.971   0.739  0.8052 -1.6361  0.7771
  851MOL0     H17408   5.838   9.955   0.574  0.1019  0.3101  1.4364
  851MOL0     H17409   5.750   9.839   0.484 -3.2638  3.7094 -0.7813
  851MOL0     H17410   5.771   9.696   0.718 -0.4278  1.3508  1.9899
  851MOL0     H17411   5.898   9.714   0.606 -1.1153  1.9955 -3.8036
  851MOL0     H17412   5.839   9.921   0.830  0.7013  0.0588  1.7439
  851MOL0     H17413   5.988   9.881   0.750 -2.2630 -1.3036 -3.4821
  851MOL0     H17414   5.988   9.656   0.854  2.1524  1.5246 -0.1199
  851MOL0     H17415   5.828   9.686   0.926 -0.0787  0.0734 -1.1529
  851MOL0     H17416   5.916   9.905   1.038 -1.7470 -1.1812  1.4651
  851MOL0     H17417   6.074   9.824   1.009 -0.5574 -0.0373  0.3892
  851MOL0     H17418   5.128  10.051   0.544 -0.4968  0.4335  2.7752
  851MOL0     H17419   4.878   9.982   0.544 -0.5854 -0.6385 -0.2488
  851MOL0     H17420   4.610   9.636   0.631  0.9482  0.4188 -0.0252
  851MOL0     H17421   4.378   9.574   0.663  0.5494  3.2352 -0.1573
  851MOL0     H17422   2.553   9.757  -0.099 -2.1172 -2.8329  0.9096
  851MOL0     H17423   2.528  10.017  -0.064  0.2324  0.2247  2.0911
  851MOL0     H17424   2.585  10.301   0.288 -0.2300 -1.2165  1.4087
  851MOL0     H17425   2.618  10.505   0.369  0.4012 -0.3157 -3.8162
  851MOL0     H17426   2.578  10.782   0.593  1.9592 -0.9007  1.0124
  851MOL0     H17427   2.641  10.628   0.533 -0.1720 -0.1903  1.6273
  851MOL0     H17428   2.552  10.859   0.371 -1.0895 -0.9473  1.7829
  851MOL0     H17429   2.622  10.705   0.299  0.5519 -1.2869  0.5757
  851MOL0     H17430   2.834  10.766   0.455  1.1476  0.3334  0.5673
  851MOL0     H17431   2.805  10.848   0.305  2.8219 -1.5148  0.7773
  851MOL0     H17432   2.719  10.961   0.576  2.5606 -0.4658  1.3108
  851MOL0     H17433   2.709  11.033   0.420 -1.7762 -1.3143  0.3424
  851MOL0     H17434   3.118  11.076   0.547 -1.4224  0.4028  1.2306
  851MOL0     H17435   2.209  10.578   0.450 -0.1818  1.2999 -0.6262
  851MOL0     H17436   2.089  10.298   0.246  0.1878  2.8242 -1.1226
  851MOL0     H17437   2.086  10.291   0.429  2.3852 -1.3004 -0.4552
  851MOL0     H17438   2.057  10.447   0.341 -1.5077  0.3564 -0.1471
  852MOL0     O17439   6.998   4.176   6.003 -0.2813 -0.1079  0.0134
  852MOL0     C17440   6.905   4.247   6.030  0.0261 -0.1399 -0.6352
  852MOL0     O17441   6.922   4.374   6.077  0.3867  0.6266  0.6053
  852MOL0     C17442   7.048   4.428   6.085  0.2587 -0.1972 -0.0792
  852MOL0     C17443   7.094   4.535   6.004  0.8103  0.1458  0.4337
  852MOL0     C17444   7.222   4.588   6.008 -0.6450 -1.2897 -0.0189
  852MOL0     C17445   7.307   4.528   6.096 -0.5697  0.3843  0.0136
  852MOL0     O17446   7.433   4.588   6.089 -0.9423  0.7635 -0.4994
  852MOL0     C17447   7.486   4.611   6.227 -0.4239 -0.0668  0.1628
  852MOL0     C17448   7.583   4.738   6.210 -0.5758 -0.0483 -0.2065
  852MOL0     C17449   7.519   4.862   6.148  0.1449  0.0837 -0.2356
  852MOL0     C17450   7.625   4.972   6.141 -0.0878 -0.5608  0.7474
  852MOL0     C17451   7.570   5.097   6.062  0.1906 -0.4699 -0.7622
  852MOL0     C17452   7.647   5.224   6.099  0.1356  0.5887 -0.0350
  852MOL0     C17453   7.799   5.223   6.074  0.6133 -0.9604 -0.0130
  852MOL0     C17454   7.849   5.372   6.093 -0.1169 -0.2426 -0.1719
  852MOL0     N17455   7.998   5.369   6.073 -0.2097 -0.1021 -0.6098
  852MOL0     C17456   8.057   5.332   5.952  0.7910 -0.3143 -0.5563
  852MOL0     C17457   8.186   5.319   5.978 -0.6789  0.6996 -0.5627
  852MOL0     C17458   8.294   5.294   5.881 -0.6602  0.2197  0.6998
  852MOL0     C17459   8.412   5.216   5.932 -0.0019 -0.0199  0.3320
  852MOL0     C17460   8.473   5.134   5.817  0.9402  0.2690 -0.4708
  852MOL0     C17461   8.609   5.076   5.864 -0.0344 -0.4402 -0.0841
  852MOL0     O17462   8.718   5.165   5.871  0.1377 -0.2944  0.2878
  852MOL0     C17463   8.837   5.105   5.839 -0.0225  0.6528  1.0992
  852MOL0     C17464   8.889   5.114   5.708  0.4728  0.6050  0.2265
  852MOL0     C17465   9.005   5.040   5.676 -0.2548 -0.9524  0.2320
  852MOL0     C17466   9.041   5.054   5.530  0.1440  0.2202  0.6247
  852MOL0     C17467   9.083   4.976   5.772 -0.4695 -0.2373 -0.6377
  852MOL0     C17468   9.222   4.921   5.757  0.5932  0.1063  0.6149
  852MOL0     O17469   9.259   4.825   5.851 -0.3589 -0.1066 -0.2962
  852MOL0     C17470   9.394   4.826   5.889  0.8092  0.6398  0.4420
  852MOL0     C17471   9.446   4.903   5.992  0.4022 -0.0914 -0.2238
  852MOL0     C17472   9.580   4.918   6.022  0.3237  0.0386  0.7641
  852MOL0     C17473   9.675   4.857   5.943 -0.5932 -1.0862 -0.1815
  852MOL0     O17474   9.809   4.880   5.936  0.0454  0.4565  0.3153
  852MOL0     C17475   9.858   4.950   6.050 -0.0716  1.1362  0.4177
  852MOL0     C17476  10.012   4.946   6.056 -0.9252  0.7146  0.0497
  852MOL0     C17477  10.071   5.025   5.939  0.7020  0.3649  0.3985
  852MOL0     C17478  10.220   5.031   5.947  0.9258 -0.0266  0.1803
  852MOL0     C17479  10.280   5.080   5.814  0.4351  0.3864 -0.9213
  852MOL0     C17480  10.432   5.088   5.826  0.8737  0.2013  0.5162
  852MOL0     C17481  10.490   5.177   5.715 -0.6317 -0.1933  0.3452
  852MOL0     C17482  10.429   5.152   5.580 -0.7163 -0.2850  0.3798
  852MOL0    Cl17483  10.444   4.973   5.529 -0.3535  0.1150  0.2604
  852MOL0     C17484   9.620   4.773   5.837 -0.0857  0.4945  0.3434
  852MOL0     C17485   9.488   4.752   5.816  0.0585  0.0068 -0.0616
  852MOL0     O17486   9.299   4.976   5.678  0.1421 -0.5159  0.3996
  852MOL0     C17487   9.025   4.960   5.897  0.1240 -0.6973  0.7238
  852MOL0     C17488   8.904   5.032   5.926  0.4551  0.3382 -0.1724
  852MOL0     N17489   8.204   5.357   6.104 -0.4027  0.8853 -0.1315
  852MOL0     N17490   8.096   5.383   6.162 -0.6938  0.4410  0.3940
  852MOL0     C17491   7.271   4.426   6.187 -0.2515 -0.9018  0.4587
  852MOL0     C17492   7.139   4.380   6.179 -0.1054  0.3102 -0.1520
  852MOL0     C17493   6.769   4.211   5.997  0.0305 -0.2033 -0.2017
  852MOL0     C17494   6.670   4.309   5.976  0.6345  0.0248 -0.4690
  852MOL0     C17495   6.539   4.271   5.959 -0.3138 -0.2346 -0.0308
  852MOL0     C17496   6.490   4.140   5.946  0.5455 -0.3782  0.1534
  852MOL0     O17497   6.362   4.112   5.930  0.6490  0.1487  0.2908
  852MOL0     C17498   6.294   4.188   5.825 -0.9244 -0.5012 -1.0057
  852MOL0     C17499   6.245   4.102   5.707 -0.3237  0.2224  0.3016
  852MOL0     C17500   6.144   3.995   5.741 -0.0175 -0.4039 -0.7209
  852MOL0     C17501   6.086   3.928   5.617 -0.3818  0.3888  0.7072
  852MOL0     C17502   5.975   3.845   5.634  1.4229 -0.6663  0.3228
  852MOL0     C17503   5.875   3.777   5.653 -0.1677  0.3743 -0.4629
  852MOL0     C17504   6.591   4.036   5.950 -0.9136 -0.4928  0.0303
  852MOL0     C17505   6.730   4.077   5.984 -0.5560 -0.4410 -0.8517
  852MOL0     C17506   6.823   3.962   6.021 -0.9072  1.4190 -0.1497
  852MOL0     H17507   7.028   4.563   5.922  1.2678 -3.2196 -1.3056
  852MOL0     H17508   7.262   4.665   5.942  2.7865 -1.0338  2.1184
  852MOL0     H17509   7.548   4.531   6.269 -0.6437  0.6907  2.0542
  852MOL0     H17510   7.409   4.637   6.300  1.3220  1.6687  1.5080
  852MOL0     H17511   7.626   4.763   6.308 -0.3329  2.0662 -0.8044
  852MOL0     H17512   7.668   4.701   6.153  2.6978  1.9470  2.9628
  852MOL0     H17513   7.486   4.840   6.046 -0.2324 -0.3389 -0.0240
  852MOL0     H17514   7.440   4.887   6.220  1.7353  2.4576  0.7970
  852MOL0     H17515   7.659   5.020   6.233 -2.6224 -0.2869  1.6434
  852MOL0     H17516   7.719   4.925   6.111 -0.8024 -0.6674 -1.5226
  852MOL0     H17517   7.464   5.114   6.081 -0.5068 -1.8140 -3.0964
  852MOL0     H17518   7.582   5.078   5.955 -0.5314  0.2087 -0.9723
  852MOL0     H17519   7.594   5.306   6.049 -1.5296  2.1379  3.8752
  852MOL0     H17520   7.633   5.251   6.204  1.7371 -0.9513  0.6204
  852MOL0     H17521   7.815   5.196   5.970 -3.2105  1.9718 -1.5915
  852MOL0     H17522   7.847   5.150   6.140 -1.4465 -0.4250  2.2161
  852MOL0     H17523   7.799   5.445   6.029 -0.5645  1.0224  1.5360
  852MOL0     H17524   7.822   5.411   6.192 -0.4428 -1.0449  0.0698
  852MOL0     H17525   8.012   5.314   5.856 -1.5289  0.2965  0.3441
  852MOL0     H17526   8.330   5.387   5.835 -0.4214 -0.4434 -0.4991
  852MOL0     H17527   8.238   5.248   5.799 -2.0331  1.5682  0.8461
  852MOL0     H17528   8.493   5.287   5.951 -2.2010  2.7576 -0.0696
  852MOL0     H17529   8.380   5.151   6.015  1.4575 -1.2424 -0.0204
  852MOL0     H17530   8.407   5.055   5.780  0.4477  0.0808  0.7639
  852MOL0     H17531   8.494   5.203   5.734  0.5345 -0.7407 -1.4367
  852MOL0     H17532   8.591   5.028   5.961 -0.5658  0.5794  0.3361
  852MOL0     H17533   8.626   4.997   5.790  0.4059 -2.0592  1.6746
  852MOL0     H17534   8.831   5.165   5.632 -2.5440 -1.5555  0.8905
  852MOL0     H17535   8.953   5.063   5.465  1.2623 -1.9715 -1.3485
  852MOL0     H17536   9.093   4.966   5.492  2.9090  1.0970  2.1033
  852MOL0     H17537   9.101   5.143   5.509  1.6536 -0.8908  0.1475
  852MOL0     H17538   9.374   4.963   6.046 -0.6327 -3.0027  1.9169
  852MOL0     H17539   9.611   4.982   6.104  1.7523 -1.2204  1.2590
  852MOL0     H17540   9.816   5.051   6.058 -4.0097 -0.4048  2.0409
  852MOL0     H17541   9.813   4.897   6.135  2.1920  1.2814  1.7771
  852MOL0     H17542  10.038   4.994   6.150  1.8970 -0.1022 -0.2256
  852MOL0     H17543  10.049   4.843   6.049 -3.4298 -0.1686 -1.8785
  852MOL0     H17544  10.021   5.121   5.929 -1.0952 -0.5301  0.3242
  852MOL0     H17545  10.032   4.975   5.849  0.5786  3.0499 -1.1281
  852MOL0     H17546  10.249   4.928   5.970 -1.0033 -0.6191  0.1221
  852MOL0     H17547  10.245   5.103   6.026  0.7940  1.0952 -0.7707
  852MOL0     H17548  10.240   5.021   5.731  0.7268 -1.1751  0.0117
  852MOL0     H17549  10.244   5.183   5.816  0.6725  0.4883  1.1002
  852MOL0     H17550  10.481   4.990   5.831 -0.2346 -0.3216  2.1344
  852MOL0     H17551  10.457   5.138   5.920  2.3960  0.1324  0.1794
  852MOL0     H17552  10.597   5.159   5.723 -0.4492  0.0222 -1.2953
  852MOL0     H17553  10.478   5.282   5.745 -2.2757 -0.1739 -0.2869
  852MOL0     H17554  10.481   5.218   5.509 -1.7910 -0.5446 -0.6767
  852MOL0     H17555  10.325   5.183   5.589 -0.5172  0.3787  0.5265
  852MOL0     H17556   9.699   4.723   5.781 -0.6725 -0.4201  0.3077
  852MOL0     H17557   9.458   4.700   5.726 -0.0290 -0.0750  0.0146
  852MOL0     H17558   9.072   4.908   5.980  2.9004  2.6124  1.4650
  852MOL0     H17559   8.852   5.024   6.021 -3.6405  3.6007 -1.7844
  852MOL0     H17560   7.351   4.385   6.248  1.9181  2.2583 -0.0287
  852MOL0     H17561   7.104   4.297   6.240 -2.1689  2.0100  1.1200
  852MOL0     H17562   6.688   4.414   5.997  0.7350 -0.1840  0.5415
  852MOL0     H17563   6.477   4.360   5.953  3.0548  2.4185  1.0186
  852MOL0     H17564   6.202   4.227   5.871 -0.2813  0.4726 -0.4953
  852MOL0     H17565   6.357   4.270   5.788 -3.5990  0.3956 -3.9888
  852MOL0     H17566   6.333   4.057   5.660 -0.4513 -1.3019  1.4255
  852MOL0     H17567   6.199   4.167   5.633 -0.7194 -0.6607 -0.2407
  852MOL0     H17568   6.200   3.922   5.800 -0.4027  1.6552  2.4666
  852MOL0     H17569   6.067   4.035   5.808 -2.5034 -1.0349 -3.0282
  852MOL0     H17570   6.167   3.880   5.562  2.1975  3.1132  1.8550
  852MOL0     H17571   6.067   4.013   5.551  0.6431 -2.4297 -3.5865
  852MOL0     H17572   5.800   3.717   5.700  2.0768 -1.1707  1.3611
  852MOL0     H17573   6.569   3.931   5.940 -0.2158 -0.9693  2.8413
  852MOL0     H17574   6.798   3.858   6.000  2.7543  0.8612 -2.6930
  852MOL0     H17575   6.917   3.967   5.965 -0.8610 -0.6254 -0.3169
  852MOL0     H17576   6.857   3.973   6.125 -2.0869  1.4054  0.2560
  853MOL0     O17577   3.502   1.291   9.300  1.0081 -0.1032  0.1392
  853MOL0     C17578   3.454   1.342   9.199 -0.8881  0.0204  0.0084
  853MOL0     O17579   3.529   1.344   9.080  0.0023  0.8591 -0.5581
  853MOL0     C17580   3.664   1.302   9.077  0.2944 -0.3029  0.4666
  853MOL0     C17581   3.699   1.166   9.065 -0.1027  0.5937 -0.0628
  853MOL0     C17582   3.836   1.146   9.047  0.1970  0.7289  0.5353
  853MOL0     C17583   3.926   1.244   9.017  0.2686  0.2619 -1.0546
  853MOL0     O17584   4.060   1.200   8.994 -0.4014  0.0286 -0.2148
  853MOL0     C17585   4.172   1.292   9.009  0.2443  0.4109 -0.1942
  853MOL0     C17586   4.292   1.192   9.039  0.3518  0.8134 -0.1857
  853MOL0     C17587   4.300   1.159   9.186 -0.1608 -0.1205  0.7474
  853MOL0     C17588   4.432   1.096   9.208  0.7240  0.3042 -0.9930
  853MOL0     C17589   4.438   1.040   9.355  0.1629  0.5244 -0.7620
  853MOL0     C17590   4.577   0.972   9.383  0.1668 -0.4839 -0.3865
  853MOL0     C17591   4.598   0.844   9.302 -0.4349 -0.3395 -0.1492
  853MOL0     C17592   4.708   0.747   9.340 -0.2925  0.4884 -0.9949
  853MOL0     N17593   4.837   0.814   9.358 -0.2778 -0.5176  0.0101
  853MOL0     C17594   4.905   0.876   9.251  1.1126  0.3567 -0.7481
  853MOL0     C17595   5.032   0.896   9.308  0.5495  0.2465  0.3868
  853MOL0     C17596   5.148   0.956   9.233  0.3269  0.3837 -0.6315
  853MOL0     C17597   5.264   0.986   9.329  0.3369 -0.0694 -0.4780
  853MOL0     C17598   5.258   1.119   9.411  0.8267 -0.1603 -1.1081
  853MOL0     C17599   5.388   1.167   9.454 -0.3623  0.3163  0.3094
  853MOL0     O17600   5.429   1.096   9.572 -0.4400  0.4161  0.0016
  853MOL0     C17601   5.557   1.096   9.623 -0.3176  0.3232 -0.2863
  853MOL0     C17602   5.578   1.060   9.750  0.3672 -0.4415 -0.7750
  853MOL0     C17603   5.707   1.041   9.808  0.0181 -0.1121 -0.1550
  853MOL0     C17604   5.711   1.004   9.956 -0.7304 -0.5018 -0.5948
  853MOL0     C17605   5.827   1.059   9.722 -0.0571 -0.6323 -0.5896
  853MOL0     C17606   5.974   1.072   9.779 -0.0557 -0.1880  0.2599
  853MOL0     O17607   6.059   1.123   9.682  0.4885  0.6768 -0.4897
  853MOL0     C17608   6.182   1.156   9.727 -0.8863 -0.4051 -0.0447
  853MOL0     C17609   6.287   1.060   9.744 -0.2472 -0.4445  1.0458
  853MOL0     C17610   6.414   1.103   9.781 -0.5199 -0.0225  1.3552
  853MOL0     C17611   6.446   1.238   9.808  1.0607  1.0749  0.1300
  853MOL0     O17612   6.575   1.275   9.835  0.3122  0.7102  0.4167
  853MOL0     C17613   6.630   1.394   9.782  0.0421 -0.4192 -0.2583
  853MOL0     C17614   6.625   1.384   9.631 -0.1924 -1.2277 -0.2766
  853MOL0     C17615   6.703   1.268   9.579  0.1055  0.9818  0.2863
  853MOL0     C17616   6.736   1.294   9.438 -0.0179 -0.3144 -1.0734
  853MOL0     C17617   6.812   1.182   9.369  1.0239  0.5398  0.3222
  853MOL0     C17618   6.962   1.205   9.374 -1.0980  0.4208 -0.4692
  853MOL0     C17619   7.053   1.094   9.308  0.0805 -1.0485 -0.6838
  853MOL0     C17620   7.171   1.062   9.387  0.5870  0.4540  0.5612
  853MOL0    Cl17621   7.300   1.178   9.378  0.6157 -0.3751  0.2366
  853MOL0     C17622   6.335   1.323   9.806 -0.8706 -0.8026 -0.0085
  853MOL0     C17623   6.215   1.284   9.763  0.5932  0.2671  0.3606
  853MOL0     O17624   6.006   1.032   9.892 -0.1875 -0.0482 -0.2737
  853MOL0     C17625   5.804   1.104   9.587  0.1121 -0.1307  0.2598
  853MOL0     C17626   5.672   1.123   9.546  0.3005 -0.1864  0.3835
  853MOL0     N17627   5.023   0.847   9.437 -0.0164 -0.3168 -0.0241
  853MOL0     N17628   4.905   0.799   9.473 -0.2747  0.3466  0.5936
  853MOL0     C17629   3.888   1.377   9.031  0.0935 -0.3002 -0.1307
  853MOL0     C17630   3.752   1.408   9.052 -0.0234  0.2723 -0.7670
  853MOL0     C17631   3.318   1.405   9.195  0.5606  0.3538  0.1768
  853MOL0     C17632   3.300   1.509   9.104  0.0795  0.4509  0.0430
  853MOL0     C17633   3.174   1.571   9.097  0.4804 -0.5310 -0.2212
  853MOL0     C17634   3.070   1.541   9.186  0.5254  0.9749 -0.1290
  853MOL0     O17635   2.936   1.585   9.165  0.1049 -0.3326 -0.3467
  853MOL0     C17636   2.916   1.692   9.068  0.2709  1.3132 -0.1550
  853MOL0     C17637   2.779   1.768   9.094 -0.6986 -0.4388  0.1921
  853MOL0     C17638   2.774   1.884   8.992  0.7676 -0.1293  1.1429
  853MOL0     C17639   2.664   1.983   9.011  0.7598  0.5229 -0.2922
  853MOL0     C17640   2.520   1.926   8.987 -0.2149 -0.5005  0.4155
  853MOL0     C17641   2.402   1.908   8.988  0.1550 -0.3894 -0.4872
  853MOL0     C17642   3.100   1.448   9.288  0.0260  0.2314 -0.9062
  853MOL0     C17643   3.217   1.378   9.290  0.2622  0.6490  0.2709
  853MOL0     C17644   3.234   1.262   9.380 -0.3794  0.7571  0.1126
  853MOL0     H17645   3.627   1.087   9.087 -0.5618  0.6162 -1.3433
  853MOL0     H17646   3.893   1.054   9.046  0.2358  0.5502 -4.2186
  853MOL0     H17647   4.164   1.355   9.098  2.6037  2.4449 -1.2963
  853MOL0     H17648   4.203   1.350   8.921 -0.0002 -0.1001 -0.6201
  853MOL0     H17649   4.281   1.096   8.987  2.0317  0.2228  0.4767
  853MOL0     H17650   4.389   1.227   9.004  1.2171  0.5491  1.8242
  853MOL0     H17651   4.296   1.257   9.235  1.2885  0.2952  0.1045
  853MOL0     H17652   4.216   1.097   9.216  0.2242 -0.7957  0.4474
  853MOL0     H17653   4.446   1.015   9.136  1.3724 -1.0263  0.5696
  853MOL0     H17654   4.517   1.163   9.193  2.0144 -1.3954 -1.4443
  853MOL0     H17655   4.362   0.964   9.373 -0.3304  0.6618 -2.1753
  853MOL0     H17656   4.431   1.117   9.433  3.6622  0.9593 -0.7294
  853MOL0     H17657   4.656   1.042   9.355  1.4691 -2.8329 -3.0029
  853MOL0     H17658   4.574   0.953   9.491  0.1201  3.1642  0.4121
  853MOL0     H17659   4.607   0.872   9.197  2.0641 -0.3233  0.0086
  853MOL0     H17660   4.502   0.792   9.311 -0.5679 -0.0609  0.0404
  853MOL0     H17661   4.687   0.696   9.435  3.5101 -2.0326 -1.2813
  853MOL0     H17662   4.713   0.675   9.258 -1.2472  1.7103 -2.1778
  853MOL0     H17663   4.865   0.881   9.151 -1.4533 -1.0414  0.1019
  853MOL0     H17664   5.123   1.048   9.178 -1.3933  0.1428 -0.3004
  853MOL0     H17665   5.182   0.873   9.171 -0.0783 -0.5563  0.3800
  853MOL0     H17666   5.287   0.899   9.393 -2.4493  0.0136  0.7886
  853MOL0     H17667   5.352   0.999   9.264  0.6796  0.4075  0.0699
  853MOL0     H17668   5.210   1.202   9.357  1.0529 -1.5662 -3.6238
  853MOL0     H17669   5.193   1.108   9.498  0.9936 -0.5325 -1.0287
  853MOL0     H17670   5.460   1.161   9.372  0.8394  1.9609  1.1643
  853MOL0     H17671   5.382   1.275   9.473  1.3772  0.3153  1.0338
  853MOL0     H17672   5.496   1.047   9.819  1.2163 -2.2047 -0.0201
  853MOL0     H17673   5.611   0.979   9.993  0.1244 -0.7850  1.7441
  853MOL0     H17674   5.743   1.094  10.009 -3.3853 -1.1036  2.3652
  853MOL0     H17675   5.777   0.921   9.982  0.0252  0.9874  2.8971
  853MOL0     H17676   6.257   0.955   9.738 -1.0558 -0.2091  0.8679
  853MOL0     H17677   6.497   1.034   9.793  0.5558  1.1876  1.0451
  853MOL0     H17678   6.589   1.485   9.826 -0.0588 -0.7029  0.2489
  853MOL0     H17679   6.733   1.398   9.818 -0.0472 -2.3449  0.3105
  853MOL0     H17680   6.520   1.393   9.601 -0.3518 -0.8138  0.3915
  853MOL0     H17681   6.666   1.481   9.601 -2.2149  1.5905  4.8269
  853MOL0     H17682   6.653   1.171   9.578 -0.9239  1.5044 -0.5244
  853MOL0     H17683   6.797   1.260   9.635 -0.2737 -1.4464  0.6951
  853MOL0     H17684   6.802   1.381   9.440  0.1277 -0.3949  2.2126
  853MOL0     H17685   6.643   1.307   9.382 -2.0388 -1.1155  1.8608
  853MOL0     H17686   6.784   1.089   9.419 -1.9845  0.6080 -1.0075
  853MOL0     H17687   6.795   1.184   9.261  0.2664  1.2944  0.4443
  853MOL0     H17688   6.984   1.210   9.481 -1.4167 -0.3522 -0.3593
  853MOL0     H17689   6.994   1.299   9.329 -0.2075  0.4482  0.1898
  853MOL0     H17690   7.082   1.114   9.204  0.9557  0.1045 -0.2468
  853MOL0     H17691   6.992   1.004   9.304 -0.4503 -0.7487  0.3832
  853MOL0     H17692   7.201   0.963   9.350  1.2791  1.3079 -1.2642
  853MOL0     H17693   7.138   1.048   9.491 -4.0881  0.5618 -0.6751
  853MOL0     H17694   6.361   1.424   9.836  0.0563 -1.0185 -0.0355
  853MOL0     H17695   6.130   1.350   9.750 -0.8730 -1.3948  1.0551
  853MOL0     H17696   5.885   1.131   9.520  0.6923  1.2629  1.4506
  853MOL0     H17697   5.652   1.153   9.443  1.3089 -0.7785 -0.0014
  853MOL0     H17698   3.955   1.461   9.017 -0.2555  1.1500  4.9484
  853MOL0     H17699   3.714   1.510   9.053  1.9170  1.0315 -0.6213
  853MOL0     H17700   3.380   1.530   9.035  2.3035 -2.1682  1.6022
  853MOL0     H17701   3.159   1.636   9.012 -1.8114 -1.8209 -0.9002
  853MOL0     H17702   3.000   1.760   9.053 -2.1389  4.6090  0.2509
  853MOL0     H17703   2.905   1.643   8.970  1.0260  2.1507 -0.6644
  853MOL0     H17704   2.770   1.803   9.197  1.6146 -1.4481  0.8026
  853MOL0     H17705   2.700   1.697   9.071  0.8594 -1.5516 -2.2215
  853MOL0     H17706   2.863   1.948   8.988 -0.0388  1.2773  3.4517
  853MOL0     H17707   2.752   1.836   8.897  0.3463  0.9500  0.6776
  853MOL0     H17708   2.670   2.063   8.937 -2.0470  0.5108 -0.6580
  853MOL0     H17709   2.657   2.011   9.117 -2.9350 -3.4215  0.8043
  853MOL0     H17710   2.295   1.914   8.974  0.3035 -0.1524 -1.6218
  853MOL0     H17711   3.020   1.415   9.353  0.5139 -1.9526 -1.3267
  853MOL0     H17712   3.140   1.234   9.429  0.7358  1.6204  2.9569
  853MOL0     H17713   3.261   1.172   9.324  0.8754  1.8787 -1.1340
  853MOL0     H17714   3.313   1.293   9.449  1.2839 -0.5303 -1.1330
  854MOL0     O17715   4.841   1.611  10.423 -1.0790 -0.3742 -0.8493
  854MOL0     C17716   4.823   1.552  10.530 -0.0712  0.9359  0.0793
  854MOL0     O17717   4.876   1.587  10.651  0.0119  0.0720  0.6267
  854MOL0     C17718   4.976   1.684  10.653  0.1833  0.0091 -0.7394
  854MOL0     C17719   5.088   1.681  10.576  0.3805 -0.9821 -0.0827
  854MOL0     C17720   5.190   1.768  10.602 -0.0804 -0.3224 -0.4037
  854MOL0     C17721   5.174   1.870  10.705  0.6589  0.8795 -0.1617
  854MOL0     O17722   5.272   1.958  10.713 -0.4308 -0.0190  0.0364
  854MOL0     C17723   5.291   2.049  10.829  0.2244  0.3959 -0.4276
  854MOL0     C17724   5.345   1.977  10.953  0.0195  1.3113 -0.4348
  854MOL0     C17725   5.381   2.061  11.083  1.0033  0.4289  0.6153
  854MOL0     C17726   5.256   2.120  11.141 -0.0959  0.2692 -1.3258
  854MOL0     C17727   5.285   2.169  11.289 -0.0997  0.3766  0.7711
  854MOL0     C17728   5.154   2.197  11.360 -0.1524 -0.2466 -0.5931
  854MOL0     C17729   5.073   2.077  11.407 -0.2644  1.4205  0.3304
  854MOL0     C17730   4.952   2.116  11.493 -0.9267 -0.1426  0.2173
  854MOL0     N17731   4.867   2.239  11.451  0.2484 -0.6668  0.2765
  854MOL0     C17732   4.766   2.232  11.358  0.1823  0.1538 -1.0976
  854MOL0     C17733   4.717   2.362  11.358 -0.6204  0.7503 -0.1908
  854MOL0     C17734   4.599   2.403  11.271  0.0602  0.0707 -0.6321
  854MOL0     C17735   4.478   2.431  11.355  0.7516  0.6565  0.6894
  854MOL0     C17736   4.366   2.487  11.268 -0.0190 -0.4442  0.1123
  854MOL0     C17737   4.240   2.514  11.350  0.0643  0.3766  0.1961
  854MOL0     O17738   4.139   2.582  11.271  0.0099 -0.7503  0.9083
  854MOL0     C17739   4.011   2.565  11.318 -0.9155 -0.2931 -0.1038
  854MOL0     C17740   3.983   2.564  11.453  0.8834  0.0529 -1.0234
  854MOL0     C17741   3.850   2.552  11.498  0.5820  0.0687  0.4892
  854MOL0     C17742   3.824   2.579  11.641 -0.2709 -0.3107  0.4257
  854MOL0     C17743   3.740   2.537  11.406 -0.4225  0.1219  0.2662
  854MOL0     C17744   3.591   2.536  11.443  0.4522  0.2054  0.2387
  854MOL0     O17745   3.500   2.539  11.340  0.9140  0.8738  0.4976
  854MOL0     C17746   3.368   2.576  11.366  0.6234  0.2261 -0.6154
  854MOL0     C17747   3.274   2.473  11.336  0.2254 -0.0535  0.1689
  854MOL0     C17748   3.139   2.502  11.356  0.1120 -0.3863 -0.5940
  854MOL0     C17749   3.098   2.622  11.416  0.2076 -0.4919  0.5067
  854MOL0     O17750   2.963   2.622  11.430 -0.3770 -0.5286  0.3403
  854MOL0     C17751   2.900   2.753  11.445 -0.6167  0.2954  0.4919
  854MOL0     C17752   2.743   2.747  11.469 -0.3965  0.4444  0.0537
  854MOL0     C17753   2.680   2.639  11.377 -0.8862 -0.2004 -0.5042
  854MOL0     C17754   2.528   2.627  11.406 -1.2667  0.2248  0.1182
  854MOL0     C17755   2.455   2.521  11.317  0.2391  0.7749 -0.8609
  854MOL0     C17756   2.464   2.540  11.166  0.3564 -0.2993  0.3724
  854MOL0     C17757   2.345   2.460  11.101  0.3517 -0.4799  1.0715
  854MOL0     C17758   2.336   2.497  10.949  0.1969 -0.3295 -0.0613
  854MOL0    Cl17759   2.217   2.393  10.873  0.5432  0.2109 -0.5505
  854MOL0     C17760   3.189   2.718  11.443 -0.7949  0.5646 -0.3640
  854MOL0     C17761   3.329   2.695  11.419 -0.0408 -0.0046 -0.5922
  854MOL0     O17762   3.557   2.524  11.561 -0.2829 -0.7487  0.4182
  854MOL0     C17763   3.780   2.529  11.276  0.4343 -0.2531 -0.0150
  854MOL0     C17764   3.910   2.551  11.228  0.4129  0.1267  0.3907
  854MOL0     N17765   4.778   2.440  11.459 -0.2761 -0.2959  0.2279
  854MOL0     N17766   4.865   2.366  11.518  0.0165  0.0694 -0.2701
  854MOL0     C17767   5.054   1.875  10.775  0.7186 -0.1761  0.1789
  854MOL0     C17768   4.955   1.784  10.748  0.8859  0.0669  0.4134
  854MOL0     C17769   4.732   1.437  10.532 -0.0560  0.1979  0.5309
  854MOL0     C17770   4.645   1.421  10.649 -0.4135 -0.4924  1.0639
  854MOL0     C17771   4.556   1.312  10.649 -0.2223 -0.2360  0.1530
  854MOL0     C17772   4.555   1.212  10.544  0.5075 -0.6380 -1.0261
  854MOL0     O17773   4.475   1.107  10.586  0.1939  0.0145 -0.8090
  854MOL0     C17774   4.462   0.987  10.499  0.2472  0.6450  0.0159
  854MOL0     C17775   4.305   0.970  10.496 -0.5782 -0.0163  0.2282
  854MOL0     C17776   4.247   0.911  10.631  0.5635 -0.3227 -0.6730
  854MOL0     C17777   4.104   0.864  10.609  0.8855  1.2098 -0.2256
  854MOL0     C17778   4.026   0.840  10.732  0.8892  0.6439  0.1176
  854MOL0     C17779   3.951   0.823  10.825 -0.0231 -1.0412  0.8052
  854MOL0     C17780   4.631   1.242  10.433  0.0316 -0.3708  0.3205
  854MOL0     C17781   4.722   1.353  10.414  0.4321 -0.4811 -0.3409
  854MOL0     C17782   4.784   1.375  10.279  0.6305  0.0776  0.0061
  854MOL0     H17783   5.091   1.595  10.510 -1.5655  0.6804 -2.5184
  854MOL0     H17784   5.276   1.765  10.536  1.1880 -2.8360  1.2287
  854MOL0     H17785   5.192   2.091  10.844  0.1538 -0.3702  1.6548
  854MOL0     H17786   5.372   2.122  10.819  1.4222 -0.5000  1.8217
  854MOL0     H17787   5.274   1.895  10.964  0.7467  0.3622 -2.3904
  854MOL0     H17788   5.440   1.929  10.927 -0.9103 -0.7550 -0.1775
  854MOL0     H17789   5.420   1.987  11.154 -0.7256 -1.4093 -0.2208
  854MOL0     H17790   5.454   2.139  11.063  0.4542  0.5514 -1.0736
  854MOL0     H17791   5.230   2.208  11.081  0.9783  0.1916 -1.9411
  854MOL0     H17792   5.170   2.055  11.127 -1.0350  0.8446  1.1579
  854MOL0     H17793   5.341   2.262  11.273  3.2207 -1.7566 -1.5240
  854MOL0     H17794   5.343   2.095  11.346 -0.4347  0.2894  1.0005
  854MOL0     H17795   5.183   2.238  11.457  1.7498 -2.0653 -0.3179
  854MOL0     H17796   5.089   2.259  11.297  1.5278  1.4686 -0.7353
  854MOL0     H17797   5.138   2.012  11.466 -2.0451 -0.5070  0.2812
  854MOL0     H17798   5.053   2.014  11.320 -1.2352  1.6910  0.3445
  854MOL0     H17799   4.885   2.029  11.500  0.0821 -1.0904 -1.5075
  854MOL0     H17800   4.996   2.144  11.589 -1.9645  0.8452  0.4267
  854MOL0     H17801   4.728   2.155  11.290  0.9305 -0.6728 -0.6007
  854MOL0     H17802   4.574   2.320  11.205  2.3216 -1.6322  0.4998
  854MOL0     H17803   4.620   2.495  11.215 -0.8640 -0.5713 -2.0594
  854MOL0     H17804   4.441   2.343  11.409  0.1000 -0.9628 -2.2047
  854MOL0     H17805   4.506   2.507  11.428  2.6549  0.9415 -0.2901
  854MOL0     H17806   4.393   2.575  11.209  1.6495 -0.8691  0.2048
  854MOL0     H17807   4.352   2.410  11.192  1.2082  0.0018 -0.5805
  854MOL0     H17808   4.197   2.415  11.367  0.0989  0.3832  0.3163
  854MOL0     H17809   4.269   2.570  11.439  2.4651  1.7659 -1.3254
  854MOL0     H17810   4.060   2.587  11.527 -0.8424 -1.4550  1.3809
  854MOL0     H17811   3.743   2.648  11.665  0.9869  1.9350 -1.3161
  854MOL0     H17812   3.910   2.621  11.694  0.4913 -1.7664  0.3699
  854MOL0     H17813   3.801   2.480  11.680 -0.0281 -0.5434 -0.0199
  854MOL0     H17814   3.313   2.374  11.313  1.6725 -0.0604  2.3433
  854MOL0     H17815   3.061   2.428  11.346 -2.7638  2.4009 -0.4666
  854MOL0     H17816   2.942   2.821  11.520 -0.7468  0.3535  0.5133
  854MOL0     H17817   2.919   2.801  11.349  1.8436  2.2547  1.8397
  854MOL0     H17818   2.714   2.732  11.573 -2.7620 -2.2715 -0.8468
  854MOL0     H17819   2.693   2.843  11.451 -1.7639 -0.4878 -1.3608
  854MOL0     H17820   2.729   2.542  11.391  1.2121  0.7932 -0.5067
  854MOL0     H17821   2.709   2.667  11.275  2.9361  1.7890  0.9257
  854MOL0     H17822   2.482   2.724  11.387  0.7550  1.1172 -0.5767
  854MOL0     H17823   2.518   2.595  11.510  2.6875 -0.8010  0.3285
  854MOL0     H17824   2.494   2.422  11.341  0.7758  0.9207 -1.1059
  854MOL0     H17825   2.352   2.516  11.352 -0.0717 -1.8128 -1.9633
  854MOL0     H17826   2.560   2.504  11.127  0.2135 -0.5399  0.2418
  854MOL0     H17827   2.453   2.645  11.137  0.4539 -0.2964  0.3446
  854MOL0     H17828   2.254   2.490  11.153 -0.3633 -0.0428 -0.3855
  854MOL0     H17829   2.368   2.355  11.121  2.3319  0.0422  1.8047
  854MOL0     H17830   2.427   2.503  10.890  0.9308 -1.1010  0.9499
  854MOL0     H17831   2.285   2.594  10.951  0.2525 -0.3069  0.7537
  854MOL0     H17832   3.177   2.818  11.485  2.2369  0.9279 -0.1214
  854MOL0     H17833   3.400   2.775  11.435 -1.3502  0.7107  2.5443
  854MOL0     H17834   3.708   2.511  11.196  1.4406  0.3006 -1.0752
  854MOL0     H17835   3.935   2.572  11.125 -0.2515  0.1082  0.2226
  854MOL0     H17836   5.032   1.943  10.857 -1.3024  1.1967 -1.3868
  854MOL0     H17837   4.862   1.782  10.804  0.4347 -1.6293 -0.3350
  854MOL0     H17838   4.653   1.486  10.735 -0.0896 -1.9946  2.2213
  854MOL0     H17839   4.495   1.298  10.737  1.2509  2.5823  1.7721
  854MOL0     H17840   4.508   1.015  10.404  0.5856  0.1395  0.0308
  854MOL0     H17841   4.511   0.900  10.544 -2.1746 -0.2170  1.1619
  854MOL0     H17842   4.305   0.896  10.415  2.6746  2.8320 -2.7414
  854MOL0     H17843   4.256   1.063  10.466  1.6303  1.5634  1.2097
  854MOL0     H17844   4.291   0.816  10.662  1.5122  0.2510 -0.2227
  854MOL0     H17845   4.258   0.984  10.711  0.8284 -2.0751  0.9476
  854MOL0     H17846   4.121   0.772  10.554  1.8856  0.2816  1.5615
  854MOL0     H17847   4.057   0.943  10.549 -0.4926  0.4927 -0.1228
  854MOL0     H17848   3.884   0.814  10.908 -0.0065  4.1065  1.7496
  854MOL0     H17849   4.636   1.168  10.353 -1.8204 -2.5800  2.1352
  854MOL0     H17850   4.732   1.453  10.222 -1.0046 -2.0454 -1.6210
  854MOL0     H17851   4.889   1.406  10.278  1.4445 -2.4038  1.1009
  854MOL0     H17852   4.783   1.277  10.230 -0.4856 -1.9426  3.6555
  855MOL0     O17853   2.690  10.158   7.287  0.1794 -0.9941 -0.6416
  855MOL0     C17854   2.659  10.101   7.394  0.1387  0.4992 -0.5219
  855MOL0     O17855   2.749  10.018   7.466  0.1818  0.0069 -0.0492
  855MOL0     C17856   2.882  10.022   7.432  0.1114 -0.2418 -0.5149
  855MOL0     C17857   2.942   9.906   7.383  0.1661 -0.1354  0.4552
  855MOL0     C17858   3.076   9.903   7.342  0.2600  0.0619 -0.7138
  855MOL0     C17859   3.148  10.024   7.342 -0.0713  0.1606  0.1691
  855MOL0     O17860   3.274  10.042   7.285  0.0299 -0.5176  0.1692
  855MOL0     C17861   3.356   9.927   7.259  0.9378  0.5881  0.6421
  855MOL0     C17862   3.491   9.973   7.229  0.4335 -0.2505  0.1326
  855MOL0     C17863   3.504   9.976   7.075 -0.2742  0.3707 -1.3278
  855MOL0     C17864   3.517  10.127   7.028  0.3089 -0.3378  0.1443
  855MOL0     C17865   3.396  10.222   7.045  0.0557 -0.2874 -0.9680
  855MOL0     C17866   3.262  10.161   6.998 -0.0816  0.0805  0.1083
  855MOL0     C17867   3.149  10.269   7.017  0.3649 -0.8109 -0.5480
  855MOL0     C17868   3.024  10.221   6.953 -0.2516  0.2146  0.3081
  855MOL0     N17869   2.928  10.326   6.951 -0.2884 -0.1595  0.0591
  855MOL0     C17870   2.859  10.356   7.061 -0.3899 -0.1078 -0.5079
  855MOL0     C17871   2.773  10.456   7.012  0.1327  0.2651  0.2650
  855MOL0     C17872   2.653  10.520   7.095  0.9467 -0.0233  0.1668
  855MOL0     C17873   2.522  10.461   7.055 -0.3259 -0.5683  0.1008
  855MOL0     C17874   2.522  10.312   7.070  0.5624  0.9032 -0.6740
  855MOL0     C17875   2.392  10.259   7.017 -0.4536  0.1824  0.7184
  855MOL0     O17876   2.281  10.309   7.094 -0.1951 -0.0418 -0.2336
  855MOL0     C17877   2.197  10.232   7.164  0.3995  0.5872 -0.9358
  855MOL0     C17878   2.061  10.266   7.187  0.2323 -0.4099 -0.2720
  855MOL0     C17879   1.980  10.179   7.267 -0.1081 -0.1067  0.3149
  855MOL0     C17880   1.844  10.233   7.298  0.7170  0.0530 -0.5408
  855MOL0     C17881   2.026  10.050   7.313  0.2685 -0.3746  0.0486
  855MOL0     C17882   1.942   9.949   7.382  0.3153  0.2134  0.8755
  855MOL0     O17883   1.998   9.825   7.399  0.3261 -0.0564  0.3974
  855MOL0     C17884   1.938   9.705   7.439 -0.8049  0.8560 -0.0727
  855MOL0     C17885   1.803   9.669   7.419 -0.2094  0.1327  0.8089
  855MOL0     C17886   1.744   9.548   7.461 -0.8513 -0.0608  1.2443
  855MOL0     C17887   1.823   9.451   7.519 -0.8495  0.2425 -0.4566
  855MOL0     O17888   1.783   9.334   7.561  0.6284  0.0628 -0.0377
  855MOL0     C17889   1.652   9.333   7.623 -0.8451  0.2941 -0.0741
  855MOL0     C17890   1.641   9.231   7.735 -1.1664 -0.5193  0.5624
  855MOL0     C17891   1.636   9.094   7.668 -0.2501  1.2189 -1.0799
  855MOL0     C17892   1.641   8.983   7.778  0.1292 -0.9675 -0.0131
  855MOL0     C17893   1.584   8.851   7.725 -0.4369  0.1932 -0.5518
  855MOL0     C17894   1.608   8.731   7.827 -0.7289 -0.0702  0.2107
  855MOL0     C17895   1.567   8.755   7.977  0.5673 -0.0591 -0.1264
  855MOL0     C17896   1.418   8.757   7.985 -0.2502  0.5203 -0.2644
  855MOL0    Cl17897   1.389   8.727   8.164  0.1157 -0.0935  0.0245
  855MOL0     C17898   1.965   9.475   7.525  0.5210 -0.7243 -0.5421
  855MOL0     C17899   2.017   9.604   7.503  0.4944 -0.5084  0.5996
  855MOL0     O17900   1.833   9.980   7.424 -0.3343 -0.3637 -0.4081
  855MOL0     C17901   2.163  10.014   7.280 -0.9200 -0.2235 -0.3454
  855MOL0     C17902   2.242  10.110   7.214  0.4607 -0.3887 -0.7461
  855MOL0     N17903   2.793  10.486   6.882  0.4638 -0.0148 -0.0447
  855MOL0     N17904   2.880  10.394   6.844 -0.5385 -0.7752  0.3784
  855MOL0     C17905   3.089  10.138   7.390 -0.4880  0.2457  0.5001
  855MOL0     C17906   2.960  10.136   7.438  0.0686 -0.1067 -0.4328
  855MOL0     C17907   2.532  10.130   7.464  0.6406  0.2004  0.9339
  855MOL0     C17908   2.487  10.262   7.468 -0.1936 -0.5453  0.0881
  855MOL0     C17909   2.374  10.293   7.552  0.2538  0.4300  0.4539
  855MOL0     C17910   2.285  10.195   7.607  0.5243 -0.1722  0.6543
  855MOL0     O17911   2.170  10.239   7.677  0.0357 -0.1254  0.2116
  855MOL0     C17912   2.059  10.143   7.703 -1.0294 -0.9226  0.7327
  855MOL0     C17913   1.934  10.212   7.742  0.1974  0.3929 -0.0468
  855MOL0     C17914   1.949  10.280   7.886 -0.1419 -0.9015 -0.4014
  855MOL0     C17915   1.804  10.339   7.928  0.0379  0.0630 -0.6729
  855MOL0     C17916   1.751  10.446   7.843 -0.5806 -0.3096 -0.2478
  855MOL0     C17917   1.709  10.536   7.768 -0.1120  0.6065 -0.3609
  855MOL0     C17918   2.317  10.058   7.576  0.3252  0.2825 -0.8192
  855MOL0     C17919   2.444  10.031   7.510  0.8170  0.0375  0.3850
  855MOL0     C17920   2.464   9.884   7.475 -0.1681 -0.5811 -0.5473
  855MOL0     H17921   2.888   9.812   7.387 -0.6522  0.2896 -0.3032
  855MOL0     H17922   3.112   9.812   7.296 -3.2720 -0.4576 -2.8347
  855MOL0     H17923   3.307   9.861   7.186  2.4140  2.1473 -1.8923
  855MOL0     H17924   3.361   9.878   7.357 -5.0349  0.9947  1.5317
  855MOL0     H17925   3.517  10.072   7.269 -0.5145 -0.5127  1.4483
  855MOL0     H17926   3.558   9.897   7.269  0.1054 -0.6229 -0.0262
  855MOL0     H17927   3.598   9.927   7.050 -0.9540 -1.5221 -0.3631
  855MOL0     H17928   3.421   9.930   7.020  0.1563 -3.4738  0.9015
  855MOL0     H17929   3.605  10.174   7.073 -0.3147  1.4415 -0.4347
  855MOL0     H17930   3.541  10.113   6.922 -2.0663  1.1369 -0.6571
  855MOL0     H17931   3.430  10.308   6.985  0.7908 -1.7490 -2.7603
  855MOL0     H17932   3.381  10.244   7.151 -0.3848 -0.0103 -1.0856
  855MOL0     H17933   3.261  10.120   6.896 -0.9200 -2.8420  1.2053
  855MOL0     H17934   3.239  10.076   7.062  0.1578 -0.9302 -1.1021
  855MOL0     H17935   3.170  10.360   6.959 -1.7127 -0.2419 -0.4553
  855MOL0     H17936   3.137  10.288   7.123  1.3008  0.2241 -0.6045
  855MOL0     H17937   3.043  10.184   6.851  2.4493 -1.4643  1.3101
  855MOL0     H17938   3.001  10.130   7.009  3.0569 -0.9356  0.0761
  855MOL0     H17939   2.852  10.307   7.158  0.8253  1.5378  0.4637
  855MOL0     H17940   2.645  10.625   7.066  2.0750 -0.7455 -3.2648
  855MOL0     H17941   2.682  10.510   7.200  2.2060  1.3828 -0.0151
  855MOL0     H17942   2.441  10.506   7.114  0.0494 -0.1545  0.3001
  855MOL0     H17943   2.504  10.485   6.950  1.1436 -1.7742 -0.4569
  855MOL0     H17944   2.603  10.261   7.017 -1.5215  0.2251 -3.4622
  855MOL0     H17945   2.525  10.291   7.177  1.7571 -0.1855 -0.8950
  855MOL0     H17946   2.379  10.291   6.913  0.2556 -0.8376  0.2998
  855MOL0     H17947   2.387  10.150   7.008  0.7870  0.2925 -3.5621
  855MOL0     H17948   1.999  10.350   7.159 -2.7136 -1.4870  2.4449
  855MOL0     H17949   1.783  10.150   7.262  2.8390 -0.3454 -3.5829
  855MOL0     H17950   1.815  10.322   7.241  3.3306  1.0438 -0.4720
  855MOL0     H17951   1.825  10.255   7.403  1.3877 -1.8474  0.0198
  855MOL0     H17952   1.736   9.747   7.385 -0.2476  0.8950  2.5829
  855MOL0     H17953   1.637   9.534   7.450 -1.1663  1.5138  2.1005
  855MOL0     H17954   1.635   9.429   7.673  0.9325  1.4856 -1.6109
  855MOL0     H17955   1.577   9.317   7.545 -3.0179  2.4850  1.4343
  855MOL0     H17956   1.725   9.234   7.805  0.4829  1.5275 -1.3138
  855MOL0     H17957   1.553   9.248   7.798 -2.8497  2.4222 -2.2448
  855MOL0     H17958   1.715   9.076   7.595  0.7669  2.1564 -0.2471
  855MOL0     H17959   1.537   9.088   7.623 -0.2914  0.6159 -0.9053
  855MOL0     H17960   1.576   9.008   7.862 -0.8128 -0.2632 -0.9262
  855MOL0     H17961   1.744   8.968   7.813 -0.0260  2.4260  2.3530
  855MOL0     H17962   1.479   8.875   7.707 -0.7546  2.2886  3.1071
  855MOL0     H17963   1.621   8.804   7.633 -0.7905 -2.0513  0.3934
  855MOL0     H17964   1.715   8.709   7.826 -0.3040  1.8461 -1.0235
  855MOL0     H17965   1.567   8.636   7.790 -0.5250  0.6346 -1.9489
  855MOL0     H17966   1.600   8.850   8.021 -2.2122  2.0059 -2.1121
  855MOL0     H17967   1.608   8.667   8.027 -0.3002  1.4484  3.5401
  855MOL0     H17968   1.365   8.679   7.928 -2.2458  0.1453  1.9183
  855MOL0     H17969   1.377   8.853   7.954  0.4850  0.1715 -2.4748
  855MOL0     H17970   2.024   9.398   7.573 -2.1662 -0.1977  4.2359
  855MOL0     H17971   2.124   9.606   7.525  0.4782 -1.4506  0.8422
  855MOL0     H17972   2.216   9.926   7.315  1.8876  1.1309 -0.8693
  855MOL0     H17973   2.346  10.081   7.210  0.4188 -0.8438  0.7438
  855MOL0     H17974   3.140  10.233   7.399  1.5617 -0.8102  0.5736
  855MOL0     H17975   2.909  10.221   7.481  1.4863 -0.1534  1.5193
  855MOL0     H17976   2.556  10.334   7.427 -1.7464 -0.7850 -3.2473
  855MOL0     H17977   2.352  10.393   7.588 -3.1578  0.3069 -0.9234
  855MOL0     H17978   2.044  10.084   7.612 -3.3219  2.2512 -1.1577
  855MOL0     H17979   2.075  10.066   7.779  1.2465 -0.8642  0.3781
  855MOL0     H17980   1.848  10.145   7.732  0.8673 -0.2665 -1.9635
  855MOL0     H17981   1.919  10.300   7.678  3.7066  1.7057  0.6761
  855MOL0     H17982   2.003  10.220   7.959  0.2061 -1.5016 -1.1382
  855MOL0     H17983   2.015  10.367   7.895  0.8300 -1.7649  1.2287
  855MOL0     H17984   1.817  10.389   8.024  1.4876 -1.9986  0.2966
  855MOL0     H17985   1.730  10.261   7.947  0.0890  0.0720 -0.4445
  855MOL0     H17986   1.669  10.606   7.697  1.3221  3.7212  1.6773
  855MOL0     H17987   2.254   9.974   7.606  0.7154  0.4065  0.4063
  855MOL0     H17988   2.385   9.827   7.525 -0.5817  0.7383  0.3459
  855MOL0     H17989   2.465   9.880   7.366  1.8133  1.9402 -0.7021
  855MOL0     H17990   2.566   9.855   7.501 -0.6250 -1.8988 -0.1341
  856MOL0     O17991   5.025   6.024  11.034  0.0684 -0.8234  0.2783
  856MOL0     C17992   4.986   5.914  11.002  0.1533 -0.7280  1.3897
  856MOL0     O17993   5.060   5.813  10.961  0.0543 -0.2980  0.1793
  856MOL0     C17994   5.190   5.838  10.919  0.9470 -0.7832 -0.2467
  856MOL0     C17995   5.220   5.801  10.791 -0.0419  0.0603 -0.1207
  856MOL0     C17996   5.351   5.795  10.748  0.8047 -0.1026  0.1952
  856MOL0     C17997   5.462   5.837  10.824 -0.1593 -0.1334 -0.5959
  856MOL0     O17998   5.587   5.836  10.771 -0.4795 -0.1637  0.0085
  856MOL0     C17999   5.700   5.893  10.839  0.3098  0.0313  0.3074
  856MOL0     C18000   5.817   5.888  10.738  0.2328 -0.2732  0.3116
  856MOL0     C18001   5.950   5.940  10.785  0.3724 -0.0736 -0.1381
  856MOL0     C18002   6.053   5.932  10.682 -0.5533  0.5496  1.2521
  856MOL0     C18003   6.200   5.969  10.734 -1.2733  0.2104 -0.3080
  856MOL0     C18004   6.297   5.857  10.699  0.2217  0.4707  0.5698
  856MOL0     C18005   6.442   5.898  10.742  0.6271  0.3798  0.9262
  856MOL0     C18006   6.536   5.792  10.695 -0.1290 -0.4704  0.6489
  856MOL0     N18007   6.529   5.668  10.775 -0.9663 -0.5400 -0.2244
  856MOL0     C18008   6.603   5.643  10.885 -1.3396 -0.6848  0.5055
  856MOL0     C18009   6.555   5.527  10.934  0.8620 -0.0236 -0.8078
  856MOL0     C18010   6.618   5.437  11.046  1.0309  0.2173 -0.3211
  856MOL0     C18011   6.767   5.392  11.024  0.4296 -0.1079 -0.2974
  856MOL0     C18012   6.791   5.321  10.884  1.0110  0.6374 -0.4440
  856MOL0     C18013   6.940   5.301  10.862 -0.5941 -0.0396 -1.0625
  856MOL0     O18014   6.988   5.435  10.830 -0.0764  0.7274 -0.3226
  856MOL0     C18015   7.124   5.455  10.798  0.5327  0.8236 -1.4268
  856MOL0     C18016   7.225   5.371  10.841  0.0603 -1.6175  0.3829
  856MOL0     C18017   7.358   5.403  10.810 -0.6843 -0.0264  0.5755
  856MOL0     C18018   7.484   5.345  10.880  0.0974 -0.2931 -0.0487
  856MOL0     C18019   7.390   5.516  10.717 -0.5467  0.6126  0.3831
  856MOL0     C18020   7.524   5.556  10.665 -0.0122  1.2254  0.9307
  856MOL0     O18021   7.618   5.451  10.661 -0.4064 -0.6193 -1.0341
  856MOL0     C18022   7.744   5.469  10.616 -0.3908 -1.0940  0.7326
  856MOL0     C18023   7.860   5.429  10.685  1.3210 -0.0033 -0.2523
  856MOL0     C18024   7.985   5.443  10.622 -0.3651 -0.6104 -0.3012
  856MOL0     C18025   8.007   5.499  10.505 -0.9593 -0.5428  0.3200
  856MOL0     O18026   8.130   5.491  10.456  0.4869 -0.7248 -0.1090
  856MOL0     C18027   8.149   5.521  10.310  0.6785  0.6909 -0.8099
  856MOL0     C18028   8.279   5.457  10.266 -0.6571 -0.1925  0.1729
  856MOL0     C18029   8.409   5.529  10.306 -0.2354  0.8294  0.1095
  856MOL0     C18030   8.531   5.515  10.202  0.1817  0.3677 -0.2483
  856MOL0     C18031   8.658   5.533  10.278  0.1456 -0.2950 -0.1815
  856MOL0     C18032   8.778   5.564  10.190 -0.5017  0.0491  0.1446
  856MOL0     C18033   8.819   5.459  10.088  1.0847 -0.7244  0.1462
  856MOL0     C18034   8.822   5.318  10.140 -0.2200  0.5495 -0.0306
  856MOL0    Cl18035   8.921   5.205  10.045  0.2910 -0.0505  0.1993
  856MOL0     C18036   7.895   5.548  10.438  0.1530 -0.4205  0.1127
  856MOL0     C18037   7.760   5.529  10.489  1.2359 -1.5288  0.4156
  856MOL0     O18038   7.552   5.668  10.637  0.4724 -0.0460 -0.0230
  856MOL0     C18039   7.279   5.594  10.673  0.1265 -0.2136 -0.4722
  856MOL0     C18040   7.151   5.564  10.719  0.2796 -0.5273 -0.7717
  856MOL0     N18041   6.452   5.484  10.855  1.2394 -0.2511  0.0773
  856MOL0     N18042   6.448   5.555  10.753  0.3654  0.3163 -0.4444
  856MOL0     C18043   5.432   5.876  10.957 -0.3754  0.6944  0.0910
  856MOL0     C18044   5.302   5.863  11.007 -0.1964  0.2161  0.0692
  856MOL0     C18045   4.838   5.892  11.006  0.4766 -0.3813  0.1885
  856MOL0     C18046   4.778   5.762  10.990 -0.2486  0.1466  0.0507
  856MOL0     C18047   4.646   5.742  11.003 -1.3527 -0.2798  0.4579
  856MOL0     C18048   4.548   5.842  11.025 -0.0175  0.4098 -0.3843
  856MOL0     O18049   4.415   5.810  11.006  0.3391  0.5391 -0.0866
  856MOL0     C18050   4.316   5.916  10.990 -0.5920  0.5475  0.1150
  856MOL0     C18051   4.179   5.857  10.984 -0.0640 -0.0388  0.5390
  856MOL0     C18052   4.152   5.758  10.872  1.0590 -0.0327 -0.0823
  856MOL0     C18053   4.002   5.784  10.836 -0.3428 -0.3554 -0.1787
  856MOL0     C18054   3.907   5.755  10.945  1.2144 -0.1003  0.3621
  856MOL0     C18055   3.827   5.737  11.036 -0.0542  1.1594 -0.4344
  856MOL0     C18056   4.600   5.968  11.040 -0.3506  0.3574  0.1995
  856MOL0     C18057   4.738   5.998  11.024 -1.2162 -0.0190 -0.7503
  856MOL0     C18058   4.763   6.140  11.053 -0.1817 -0.3282  0.0824
  856MOL0     H18059   5.147   5.764  10.719 -1.3021 -0.5062  1.3830
  856MOL0     H18060   5.375   5.746  10.654 -3.0262 -2.6801  0.3595
  856MOL0     H18061   5.720   5.823  10.921  0.4388 -1.6186 -1.0685
  856MOL0     H18062   5.677   5.993  10.877  0.3898  0.4769 -0.7706
  856MOL0     H18063   5.839   5.786  10.703 -0.1545 -0.5022  0.7151
  856MOL0     H18064   5.784   5.951  10.655 -0.4470 -0.8414  0.1305
  856MOL0     H18065   5.946   6.037  10.834  2.6011 -0.1973  0.3969
  856MOL0     H18066   5.978   5.872  10.866 -2.1244 -1.1739 -0.1066
  856MOL0     H18067   6.034   5.841  10.624  0.5351  0.1782  1.4552
  856MOL0     H18068   6.045   6.006  10.602  0.3126  0.8295  1.4181
  856MOL0     H18069   6.199   5.980  10.843 -0.3110  0.2078 -0.2962
  856MOL0     H18070   6.234   6.062  10.689 -3.1364  1.9148  1.5859
  856MOL0     H18071   6.272   5.764  10.751 -0.0892 -0.9372 -1.9616
  856MOL0     H18072   6.291   5.843  10.591  0.4346  0.1143  0.6049
  856MOL0     H18073   6.432   5.897  10.851 -1.1821 -0.3404  0.7898
  856MOL0     H18074   6.476   5.998  10.714 -1.4696  0.9853  0.3323
  856MOL0     H18075   6.527   5.779  10.587 -1.2726  2.1684  0.3494
  856MOL0     H18076   6.635   5.837  10.701 -1.6289  3.1197  0.5312
  856MOL0     H18077   6.694   5.694  10.914 -0.1551 -1.9440 -0.8261
  856MOL0     H18078   6.558   5.346  11.053  2.5563 -0.9691 -2.0100
  856MOL0     H18079   6.608   5.478  11.148 -1.0684  1.7622 -1.0626
  856MOL0     H18080   6.828   5.483  11.030 -0.2411  0.5185 -2.1081
  856MOL0     H18081   6.801   5.317  11.096  0.1943  3.1301  3.5438
  856MOL0     H18082   6.738   5.227  10.902 -0.2022  1.6722  1.8030
  856MOL0     H18083   6.732   5.365  10.803 -1.8407 -1.3079  0.4176
  856MOL0     H18084   6.999   5.267  10.948 -0.4145 -0.0211 -1.1770
  856MOL0     H18085   6.947   5.224  10.785 -2.1424 -0.8245 -0.4518
  856MOL0     H18086   7.216   5.287  10.909  2.0158 -2.3064 -0.1571
  856MOL0     H18087   7.443   5.295  10.968 -0.0757  1.8043  1.0999
  856MOL0     H18088   7.551   5.421  10.922  0.2320 -1.1823  1.3921
  856MOL0     H18089   7.543   5.280  10.814 -1.3807  1.3235 -3.1673
  856MOL0     H18090   7.835   5.371  10.773 -2.8446  0.9408 -0.6346
  856MOL0     H18091   8.064   5.389  10.674  0.3467 -0.4305 -1.1720
  856MOL0     H18092   8.063   5.482  10.255 -0.4055 -1.5114  2.1768
  856MOL0     H18093   8.143   5.629  10.295  0.2196  0.6176 -1.1547
  856MOL0     H18094   8.279   5.355  10.304  0.4107 -1.7263 -3.5214
  856MOL0     H18095   8.284   5.463  10.157  1.8494  3.4156  0.2836
  856MOL0     H18096   8.430   5.486  10.405 -1.6423 -0.8920 -0.3062
  856MOL0     H18097   8.388   5.635  10.322 -1.4096  0.4722  1.1585
  856MOL0     H18098   8.525   5.593  10.126 -0.2281  0.9646  0.3802
  856MOL0     H18099   8.531   5.419  10.151  0.3335  0.6807 -0.8488
  856MOL0     H18100   8.641   5.620  10.343  0.3390  0.1104 -0.6669
  856MOL0     H18101   8.674   5.443  10.338  0.9424 -1.2467 -1.7581
  856MOL0     H18102   8.866   5.572  10.255  0.8782 -0.6075 -1.5735
  856MOL0     H18103   8.758   5.657  10.137  0.6209  0.7451  0.9156
  856MOL0     H18104   8.912   5.492  10.041 -0.4221  3.1607 -0.4177
  856MOL0     H18105   8.746   5.455  10.007  2.3006 -0.0165 -1.0251
  856MOL0     H18106   8.726   5.276  10.171  1.1229 -1.3380  1.8704
  856MOL0     H18107   8.869   5.313  10.239  0.1813 -0.3765 -0.2611
  856MOL0     H18108   7.914   5.600  10.345 -0.3018  1.7208  1.1706
  856MOL0     H18109   7.673   5.555  10.431  0.8015  1.8898  2.3763
  856MOL0     H18110   7.276   5.670  10.595  0.7861 -0.2607 -0.5464
  856MOL0     H18111   7.073   5.623  10.671  0.9181 -1.1628 -2.6732
  856MOL0     H18112   5.511   5.899  11.029  1.1676  1.8946 -1.8452
  856MOL0     H18113   5.275   5.872  11.112 -1.7942  0.0847 -0.3063
  856MOL0     H18114   4.845   5.677  10.980 -0.9938 -0.4980  0.3920
  856MOL0     H18115   4.609   5.640  10.999 -1.2422 -0.2918 -0.5399
  856MOL0     H18116   4.325   5.982  11.078 -1.2193  0.5071  0.2115
  856MOL0     H18117   4.351   5.967  10.900  0.1916  0.2668  0.2488
  856MOL0     H18118   4.117   5.948  10.985  0.6855  0.4800  1.6024
  856MOL0     H18119   4.163   5.803  11.077  0.7687 -1.9887 -0.4067
  856MOL0     H18120   4.216   5.774  10.785  2.0127 -0.9944  0.4182
  856MOL0     H18121   4.159   5.653  10.903 -0.8364 -0.1585  0.0133
  856MOL0     H18122   3.983   5.718  10.751 -1.7957  0.7031 -0.7195
  856MOL0     H18123   3.987   5.887  10.803  1.8549  0.8229  2.1560
  856MOL0     H18124   3.751   5.726  11.110 -0.5003  1.5463 -0.8254
  856MOL0     H18125   4.532   6.052  11.052 -1.7697 -0.8342  0.8395
  856MOL0     H18126   4.838   6.134  11.132 -1.0851 -1.5401  0.8857
  856MOL0     H18127   4.801   6.186  10.961 -1.5091  1.2555  0.2816
  856MOL0     H18128   4.681   6.203  11.087  1.5603  2.8065 -1.1005
  857MOL0     O18129   9.296   3.432   9.650 -0.0199 -0.6109  0.2468
  857MOL0     C18130   9.217   3.528   9.642 -0.8352  0.2783 -0.3703
  857MOL0     O18131   9.247   3.662   9.639  0.6967  0.1496  0.0153
  857MOL0     C18132   9.377   3.686   9.610  0.2812  0.3489 -0.4110
  857MOL0     C18133   9.429   3.794   9.689  1.5386 -0.2210  0.2953
  857MOL0     C18134   9.554   3.837   9.680 -0.0468 -0.2783  0.3132
  857MOL0     C18135   9.632   3.784   9.569  0.3251 -0.3705 -0.8614
  857MOL0     O18136   9.758   3.834   9.552 -0.8702  0.2032 -0.1329
  857MOL0     C18137   9.816   3.929   9.637  0.1582  0.1217  0.0400
  857MOL0     C18138   9.959   3.944   9.578 -0.5148  0.4445  0.8851
  857MOL0     C18139   9.951   4.026   9.452  0.1665 -0.3776  0.1416
  857MOL0     C18140  10.093   4.077   9.403  0.1350  0.8644 -0.2264
  857MOL0     C18141  10.082   4.157   9.274 -0.0418 -0.1871 -0.0410
  857MOL0     C18142  10.214   4.224   9.245 -0.9022 -0.2316  0.1195
  857MOL0     C18143  10.198   4.336   9.141  0.6758  0.0729  0.3296
  857MOL0     C18144  10.336   4.388   9.077  0.5312  0.6144 -0.0192
  857MOL0     N18145  10.424   4.442   9.180  0.6389  0.3264 -0.3859
  857MOL0     C18146  10.381   4.527   9.281 -1.1718  0.2278  0.0913
  857MOL0     C18147  10.498   4.597   9.310  0.0392 -0.1358 -0.5600
  857MOL0     C18148  10.508   4.706   9.417  0.3072 -0.2482  0.6212
  857MOL0     C18149  10.526   4.855   9.362  0.1850  1.0193 -0.0068
  857MOL0     C18150  10.397   4.897   9.293 -1.2610 -0.2838 -0.3579
  857MOL0     C18151  10.402   5.042   9.265 -0.5510 -0.4581  0.5166
  857MOL0     O18152  10.509   5.062   9.175  0.4158 -0.5830 -0.8912
  857MOL0     C18153  10.528   5.184   9.117 -0.8408 -0.2005 -0.5846
  857MOL0     C18154  10.625   5.180   9.015 -0.1909 -0.7581 -1.1333
  857MOL0     C18155  10.652   5.293   8.940  0.1205 -0.3718  0.4189
  857MOL0     C18156  10.771   5.284   8.851 -0.2221  0.4681  0.8374
  857MOL0     C18157  10.597   5.420   8.986  0.4154 -0.1981  0.8656
  857MOL0     C18158  10.630   5.557   8.933 -0.3704 -0.3921  0.1820
  857MOL0     O18159  10.587   5.668   9.005 -0.4444 -0.2019 -0.0130
  857MOL0     C18160  10.612   5.803   8.985  1.0261  0.6205  0.2243
  857MOL0     C18161  10.719   5.847   8.904 -0.0084 -0.3722 -1.0428
  857MOL0     C18162  10.732   5.989   8.886 -0.1043  0.0990  0.4463
  857MOL0     C18163  10.642   6.080   8.944  0.1193  0.5121 -0.4649
  857MOL0     O18164  10.671   6.207   8.920 -0.6141  0.0199  0.0801
  857MOL0     C18165  10.694   6.279   9.035  0.0559 -0.0407  0.4416
  857MOL0     C18166  10.785   6.397   9.008  0.0034 -0.3812 -0.1591
  857MOL0     C18167  10.911   6.363   8.909 -0.0421 -0.3407  0.0125
  857MOL0     C18168  10.995   6.486   8.907  0.2527  0.5017  0.7064
  857MOL0     C18169  11.108   6.491   8.809 -0.7441  0.4443 -0.2643
  857MOL0     C18170  11.155   6.362   8.755  0.0882 -0.6292  0.4965
  857MOL0     C18171  11.264   6.379   8.655  0.0944 -0.1066 -0.3081
  857MOL0     C18172  11.317   6.254   8.600 -0.4041  0.4073  0.5630
  857MOL0    Cl18173  11.392   6.144   8.728  0.3904  0.0982 -0.1662
  857MOL0     C18174  10.542   6.041   9.028  0.4586  0.5625  0.1080
  857MOL0     C18175  10.529   5.898   9.052  1.0317  0.4983 -0.0344
  857MOL0     O18176  10.685   5.578   8.823  0.9055  1.0308 -0.4183
  857MOL0     C18177  10.504   5.424   9.089  0.1065  0.8187  0.7338
  857MOL0     C18178  10.465   5.305   9.153 -0.3067 -0.9575 -0.3928
  857MOL0     N18179  10.606   4.543   9.251  0.9517 -0.5502  0.0785
  857MOL0     N18180  10.564   4.446   9.178  0.1603 -0.4068  0.8123
  857MOL0     C18181   9.583   3.680   9.487  0.3726 -0.0462  0.6024
  857MOL0     C18182   9.454   3.632   9.501  0.8306  0.2102 -0.3704
  857MOL0     C18183   9.071   3.504   9.642  1.0305  0.4397  0.4008
  857MOL0     C18184   8.993   3.609   9.687 -0.5557 -0.5397  0.1479
  857MOL0     C18185   8.854   3.603   9.691  0.0128 -0.8787 -0.3107
  857MOL0     C18186   8.787   3.490   9.655 -0.0438 -0.6493 -0.9733
  857MOL0     O18187   8.650   3.468   9.647 -0.1382  0.8536  0.1017
  857MOL0     C18188   8.556   3.570   9.693 -0.0975  0.2904  0.3542
  857MOL0     C18189   8.570   3.574   9.847 -0.6191 -0.5964  0.0611
  857MOL0     C18190   8.462   3.657   9.917  0.8520 -0.2891 -0.4756
  857MOL0     C18191   8.479   3.670  10.069  0.6918  0.9731  0.1134
  857MOL0     C18192   8.437   3.541  10.128  0.1936  0.6657  0.4004
  857MOL0     C18193   8.381   3.447  10.186 -0.4921  0.3427 -0.5812
  857MOL0     C18194   8.864   3.378   9.610  0.1098 -0.1979 -0.0532
  857MOL0     C18195   9.008   3.385   9.607  1.1560 -0.7199 -0.0228
  857MOL0     C18196   9.082   3.268   9.548 -0.4510  0.5200  0.3794
  857MOL0     H18197   9.357   3.849   9.748  1.3939  0.0780 -0.1526
  857MOL0     H18198   9.591   3.918   9.742 -1.6908  0.3320  0.5359
  857MOL0     H18199   9.808   3.894   9.740  0.4518 -0.1789 -0.0399
  857MOL0     H18200   9.748   4.015   9.633  0.8299  0.7990  2.1094
  857MOL0     H18201  10.019   4.017   9.632  0.1302 -0.0797  0.8889
  857MOL0     H18202  10.008   3.847   9.563 -1.0374  0.4029 -0.8076
  857MOL0     H18203   9.919   3.959   9.371 -1.1206  0.7196 -0.2952
  857MOL0     H18204   9.874   4.103   9.465 -2.5101 -3.0296  1.1795
  857MOL0     H18205  10.141   4.132   9.485  2.5474 -1.4692  0.0547
  857MOL0     H18206  10.157   3.989   9.392  0.7079  0.8526  2.4390
  857MOL0     H18207  10.010   4.239   9.286  1.4521  1.0546  0.8514
  857MOL0     H18208  10.053   4.091   9.192  1.4794 -3.3470  1.7704
  857MOL0     H18209  10.255   4.272   9.334 -0.7786  1.9940 -1.0526
  857MOL0     H18210  10.294   4.165   9.199  0.2748  2.8057 -2.0506
  857MOL0     H18211  10.148   4.417   9.195  0.1888  0.1741 -0.2586
  857MOL0     H18212  10.150   4.302   9.049  2.2546  0.0508 -0.5263
  857MOL0     H18213  10.394   4.306   9.032 -1.0104 -0.3671 -0.2886
  857MOL0     H18214  10.310   4.461   9.000 -2.5051  0.9030  1.1606
  857MOL0     H18215  10.281   4.549   9.316 -0.9745 -0.4609  1.1281
  857MOL0     H18216  10.592   4.684   9.484  0.1552  2.0156  1.6419
  857MOL0     H18217  10.422   4.689   9.481 -0.8440 -2.6812 -1.3848
  857MOL0     H18218  10.549   4.914   9.451  3.8381  0.8451 -0.6544
  857MOL0     H18219  10.615   4.856   9.297  0.8643  0.9035  0.9013
  857MOL0     H18220  10.378   4.844   9.199  0.5107 -2.8948  0.6427
  857MOL0     H18221  10.313   4.893   9.363 -0.4484  1.2096  0.7504
  857MOL0     H18222  10.302   5.068   9.232 -1.8741 -2.8752  2.2734
  857MOL0     H18223  10.436   5.088   9.359  2.4458 -2.1458  0.3921
  857MOL0     H18224  10.689   5.096   8.995 -2.0787 -1.8252 -3.1272
  857MOL0     H18225  10.727   5.260   8.754  1.4392  1.1642 -0.1158
  857MOL0     H18226  10.860   5.227   8.877  1.0435  2.4480  1.0879
  857MOL0     H18227  10.820   5.381   8.842 -0.0868  0.1814 -2.9357
  857MOL0     H18228  10.799   5.787   8.862 -1.2285 -2.3648 -0.5975
  857MOL0     H18229  10.797   6.039   8.816 -4.1580 -1.5580 -5.1836
  857MOL0     H18230  10.595   6.307   9.074 -1.1204 -0.9198 -1.6980
  857MOL0     H18231  10.753   6.222   9.107 -0.3531  0.7795  1.4531
  857MOL0     H18232  10.737   6.484   8.963  1.9010  0.8371  0.0521
  857MOL0     H18233  10.819   6.435   9.105  3.7544  0.6821 -1.6940
  857MOL0     H18234  10.860   6.345   8.814 -0.9945  1.5936  0.1080
  857MOL0     H18235  10.958   6.278   8.958 -1.5318 -1.0711  0.2257
  857MOL0     H18236  11.035   6.497   9.008  1.4309 -1.5257  0.4901
  857MOL0     H18237  10.938   6.579   8.894  1.7951  1.5708  1.2337
  857MOL0     H18238  11.068   6.548   8.725 -2.0294 -2.0414 -1.4416
  857MOL0     H18239  11.193   6.535   8.861  0.1857 -0.1296 -1.2778
  857MOL0     H18240  11.072   6.312   8.703  1.2230  0.6262 -2.7130
  857MOL0     H18241  11.177   6.291   8.836 -2.7209 -1.7643  0.4057
  857MOL0     H18242  11.351   6.429   8.698  1.3059 -1.5911 -0.9301
  857MOL0     H18243  11.214   6.426   8.570  0.1020  2.2960  0.9376
  857MOL0     H18244  11.385   6.293   8.524  0.2293 -0.1511  0.8378
  857MOL0     H18245  11.239   6.191   8.556  0.0490  0.5900 -0.5430
  857MOL0     H18246  10.459   6.101   9.063 -1.0744 -1.6157  0.3845
  857MOL0     H18247  10.452   5.864   9.120 -1.0580  1.2385 -1.9115
  857MOL0     H18248  10.456   5.517   9.117 -1.1191  1.1014 -1.9939
  857MOL0     H18249  10.383   5.311   9.224 -0.5902 -2.1023 -0.6049
  857MOL0     H18250   9.648   3.645   9.409 -1.6829 -0.7339 -0.9005
  857MOL0     H18251   9.404   3.565   9.432  0.4488 -0.5992  0.6751
  857MOL0     H18252   9.031   3.699   9.733 -1.1554  0.1004 -0.5828
  857MOL0     H18253   8.788   3.686   9.715 -2.7653 -3.7210  3.0327
  857MOL0     H18254   8.572   3.667   9.645  0.5164 -1.4732 -3.4326
  857MOL0     H18255   8.453   3.540   9.668  0.0726 -0.6377  0.7245
  857MOL0     H18256   8.667   3.611   9.880  0.7047 -2.2573 -1.7411
  857MOL0     H18257   8.574   3.472   9.886  2.6799 -0.2868  0.8257
  857MOL0     H18258   8.464   3.756   9.869 -1.0514  0.3061  0.5717
  857MOL0     H18259   8.365   3.617   9.886  0.7126 -1.9718  1.8841
  857MOL0     H18260   8.404   3.740  10.106 -4.8699 -2.5727 -2.9806
  857MOL0     H18261   8.581   3.699  10.097  0.1768  2.7440  0.2790
  857MOL0     H18262   8.355   3.355  10.234  1.0732  1.2974  2.3466
  857MOL0     H18263   8.811   3.288   9.578 -2.1380  0.0871  2.5364
  857MOL0     H18264   9.019   3.186   9.512  1.2515 -1.3134  1.2964
  857MOL0     H18265   9.144   3.301   9.464  1.2510  1.6767  2.0015
  857MOL0     H18266   9.147   3.229   9.627 -0.9208 -0.1220  0.4595
  858MOL0     O18267   8.128   2.622   5.420 -0.5598 -0.0950 -0.4911
  858MOL0     C18268   8.055   2.660   5.513 -0.5093  1.1309 -0.1578
  858MOL0     O18269   8.063   2.610   5.639 -0.8041 -0.3730 -1.1098
  858MOL0     C18270   8.179   2.539   5.663  0.5044 -1.0966  0.4965
  858MOL0     C18271   8.195   2.405   5.666 -0.3805  0.9099  0.6304
  858MOL0     C18272   8.324   2.348   5.676 -0.5372 -0.0414  0.0827
  858MOL0     C18273   8.441   2.426   5.663  0.3959 -0.0188  0.0795
  858MOL0     O18274   8.559   2.373   5.664 -0.5239  0.3458  0.2754
  858MOL0     C18275   8.662   2.453   5.599 -1.2348  0.4774  0.3193
  858MOL0     C18276   8.768   2.359   5.542 -0.5055 -0.7189 -0.1785
  858MOL0     C18277   8.833   2.433   5.427  0.9851  0.3320  0.3252
  858MOL0     C18278   8.959   2.351   5.391 -0.4625 -0.8477  0.6164
  858MOL0     C18279   9.030   2.393   5.262  0.3698  0.6224 -0.4536
  858MOL0     C18280   9.127   2.514   5.284 -0.1595 -0.8590  0.0295
  858MOL0     C18281   9.169   2.574   5.151  0.9639 -0.6023 -0.8556
  858MOL0     C18282   9.233   2.482   5.049  0.1225 -1.2172  0.7272
  858MOL0     N18283   9.258   2.550   4.920  0.7986 -0.3272  0.2660
  858MOL0     C18284   9.355   2.646   4.898  0.1615 -0.1750  1.0019
  858MOL0     C18285   9.363   2.665   4.764  1.0667  0.2758 -0.5829
  858MOL0     C18286   9.479   2.733   4.698  0.2293  0.5877 -0.7348
  858MOL0     C18287   9.602   2.642   4.674 -0.3656 -0.0100 -0.0106
  858MOL0     C18288   9.715   2.723   4.608  0.0561  0.7635  0.0379
  858MOL0     C18289   9.863   2.687   4.645  0.0099  0.2986  0.8543
  858MOL0     O18290   9.895   2.551   4.602  0.2106 -0.2064  0.2572
  858MOL0     C18291  10.022   2.522   4.570  0.1203 -0.8775  0.1155
  858MOL0     C18292  10.036   2.399   4.496  0.2386 -0.1359  0.3201
  858MOL0     C18293  10.155   2.356   4.453 -0.4243  0.3907  0.4587
  858MOL0     C18294  10.147   2.221   4.386 -0.7772  0.2180 -0.5963
  858MOL0     C18295  10.277   2.426   4.485 -0.2082 -0.2883  0.2556
  858MOL0     C18296  10.412   2.371   4.454 -0.4744 -0.3903  0.1263
  858MOL0     O18297  10.435   2.292   4.345  0.5857 -0.8146 -0.1572
  858MOL0     C18298  10.569   2.266   4.324 -0.0686  0.4587  0.3370
  858MOL0     C18299  10.621   2.164   4.402 -0.2488  0.5294 -0.2301
  858MOL0     C18300  10.743   2.111   4.369  0.9523  0.5088  0.5722
  858MOL0     C18301  10.820   2.156   4.263  0.0023  0.2272  0.5400
  858MOL0     O18302  10.936   2.095   4.217 -0.1210 -0.4888 -0.4898
  858MOL0     C18303  10.950   1.960   4.207  1.0601  0.0957 -0.4322
  858MOL0     C18304  10.879   1.919   4.067 -0.7554  0.0012 -0.0895
  858MOL0     C18305  10.921   1.779   4.040 -0.4074  0.5870 -0.0340
  858MOL0     C18306  11.063   1.768   3.985 -0.2340  1.5351  0.3025
  858MOL0     C18307  11.082   1.655   3.882  0.1276 -0.1790  0.2432
  858MOL0     C18308  11.213   1.692   3.810  0.2958 -0.2463  0.1099
  858MOL0     C18309  11.240   1.607   3.692 -0.3113 -0.0088 -0.2661
  858MOL0     C18310  11.365   1.650   3.626 -0.4611 -0.2520 -0.5427
  858MOL0    Cl18311  11.507   1.603   3.725 -0.0594  0.5098 -0.2195
  858MOL0     C18312  10.769   2.267   4.193 -0.4575  0.0253 -0.1691
  858MOL0     C18313  10.645   2.322   4.217  0.4716 -0.3036 -0.6220
  858MOL0     O18314  10.506   2.405   4.534 -0.0068 -0.8988  0.0083
  858MOL0     C18315  10.270   2.547   4.555  0.5305 -0.0844 -0.1449
  858MOL0     C18316  10.140   2.600   4.592 -0.8218 -0.2966  0.1161
  858MOL0     N18317   9.267   2.588   4.692 -0.0511  0.3033  0.0979
  858MOL0     N18318   9.204   2.510   4.789 -1.2635  0.1486 -0.4513
  858MOL0     C18319   8.426   2.569   5.680  0.5515  0.4026  0.5100
  858MOL0     C18320   8.289   2.617   5.687  0.5996 -0.0360  0.5462
  858MOL0     C18321   7.941   2.741   5.475  0.0452  0.5370  0.3370
  858MOL0     C18322   7.829   2.749   5.559  0.5393 -0.3435 -0.2859
  858MOL0     C18323   7.717   2.822   5.537 -0.0504 -0.3305 -0.3716
  858MOL0     C18324   7.714   2.901   5.425  1.1012  0.1484 -0.3346
  858MOL0     O18325   7.595   2.979   5.419 -0.4777 -0.4424 -0.1684
  858MOL0     C18326   7.543   3.025   5.288  0.9739  0.5400  0.0698
  858MOL0     C18327   7.566   3.179   5.274  0.2568 -0.0422 -0.6626
  858MOL0     C18328   7.512   3.236   5.142 -0.4586 -0.4278 -0.5479
  858MOL0     C18329   7.365   3.282   5.154 -0.2727  0.3447  0.6468
  858MOL0     C18330   7.312   3.356   5.037 -0.8282 -0.3023  0.6142
  858MOL0     C18331   7.275   3.414   4.936  0.0478  0.5974  0.4546
  858MOL0     C18332   7.821   2.908   5.335 -0.4204  0.2007 -0.3324
  858MOL0     C18333   7.932   2.822   5.357 -0.0572  0.7425 -0.5302
  858MOL0     C18334   8.042   2.829   5.258 -0.2087  0.2338  0.4911
  858MOL0     H18335   8.109   2.339   5.674 -1.9688  2.9491  1.3020
  858MOL0     H18336   8.341   2.241   5.683 -0.9278 -0.0285  1.5153
  858MOL0     H18337   8.705   2.523   5.670  0.3363 -0.6962  0.5793
  858MOL0     H18338   8.623   2.504   5.510 -2.3420 -0.5155  0.2023
  858MOL0     H18339   8.839   2.334   5.621 -1.9323 -3.4177  0.3938
  858MOL0     H18340   8.729   2.262   5.509  1.9293 -2.3771  1.4114
  858MOL0     H18341   8.770   2.423   5.339  0.5025  0.0462  0.6987
  858MOL0     H18342   8.858   2.536   5.452 -3.5045  1.1333  2.4106
  858MOL0     H18343   9.032   2.363   5.472 -1.8537 -1.4034  1.9983
  858MOL0     H18344   8.932   2.245   5.381  1.2195 -1.3522  0.9721
  858MOL0     H18345   8.963   2.424   5.181  0.6579  1.4307 -0.3953
  858MOL0     H18346   9.083   2.303   5.230 -0.1675 -0.1282  0.6822
  858MOL0     H18347   9.087   2.604   5.331  3.8476  1.0262  0.2277
  858MOL0     H18348   9.208   2.483   5.351 -0.2300  1.5809  1.3496
  858MOL0     H18349   9.243   2.651   5.173 -0.6345  1.0574 -1.1067
  858MOL0     H18350   9.080   2.619   5.108 -0.7210 -2.9240  0.0250
  858MOL0     H18351   9.333   2.455   5.083  0.6521 -0.1590  0.0434
  858MOL0     H18352   9.172   2.392   5.035  0.0085 -1.2046  1.1262
  858MOL0     H18353   9.427   2.693   4.965  2.3812 -1.0750 -0.6300
  858MOL0     H18354   9.499   2.818   4.763 -3.4736  0.6295  0.5693
  858MOL0     H18355   9.442   2.778   4.605  2.9781  1.2395 -1.6166
  858MOL0     H18356   9.624   2.594   4.770  0.6531  0.5768  0.0660
  858MOL0     H18357   9.575   2.560   4.607  0.8972 -2.1554  1.9746
  858MOL0     H18358   9.700   2.714   4.500  0.8183  0.7057 -0.0685
  858MOL0     H18359   9.712   2.824   4.650  2.3217  0.1701  1.8329
  858MOL0     H18360   9.926   2.751   4.583  1.5254 -2.1203 -0.2931
  858MOL0     H18361   9.885   2.707   4.750 -0.1273  0.9253  0.7667
  858MOL0     H18362   9.944   2.344   4.480  0.3342 -0.6881  1.5389
  858MOL0     H18363  10.202   2.143   4.439 -1.3142  0.5822  0.5300
  858MOL0     H18364  10.171   2.222   4.279 -1.3701  0.3455 -0.7279
  858MOL0     H18365  10.043   2.188   4.390 -1.2367  1.6627  1.6639
  858MOL0     H18366  10.560   2.121   4.481  0.4222 -1.7124 -0.8699
  858MOL0     H18367  10.786   2.029   4.426  2.9860  2.1420  1.5197
  858MOL0     H18368  11.055   1.931   4.199  0.0148 -3.9647 -2.7143
  858MOL0     H18369  10.901   1.908   4.290  0.2635 -0.4735 -1.2352
  858MOL0     H18370  10.770   1.924   4.072 -0.9859 -2.5726 -1.0752
  858MOL0     H18371  10.916   1.985   3.987  2.0952 -2.2495 -0.8192
  858MOL0     H18372  10.855   1.747   3.959 -0.8926 -0.2416  0.6707
  858MOL0     H18373  10.916   1.712   4.127  2.0036  0.1387 -0.1607
  858MOL0     H18374  11.139   1.757   4.063 -0.7119  4.4581  1.3117
  858MOL0     H18375  11.082   1.867   3.941 -0.3317  1.0480 -0.8698
  858MOL0     H18376  11.099   1.564   3.939  1.4508 -0.5039 -0.6193
  858MOL0     H18377  11.000   1.649   3.809  2.5380  1.5773 -2.8585
  858MOL0     H18378  11.297   1.689   3.880 -1.3697 -0.6691  2.1910
  858MOL0     H18379  11.192   1.795   3.779 -1.5603  0.3062  2.8622
  858MOL0     H18380  11.165   1.596   3.613  1.5894 -2.5997 -1.8409
  858MOL0     H18381  11.257   1.504   3.724  0.9986 -1.3001 -4.5179
  858MOL0     H18382  11.373   1.759   3.628 -1.4759 -0.1696  1.4590
  858MOL0     H18383  11.367   1.618   3.521  0.3776 -1.0749 -0.2830
  858MOL0     H18384  10.832   2.312   4.117 -0.3045  1.9008  1.0108
  858MOL0     H18385  10.614   2.404   4.152 -2.2657 -0.0164  0.8749
  858MOL0     H18386  10.354   2.615   4.566  1.9893 -1.7641 -0.4314
  858MOL0     H18387  10.142   2.695   4.645 -1.3214 -0.5246  0.5522
  858MOL0     H18388   8.511   2.636   5.686  1.0672 -0.2567  0.6509
  858MOL0     H18389   8.270   2.720   5.716 -1.6275 -0.8914  2.4979
  858MOL0     H18390   7.818   2.693   5.652 -1.1366 -1.6093 -1.2005
  858MOL0     H18391   7.629   2.810   5.599 -0.0985 -0.7788 -0.5257
  858MOL0     H18392   7.599   2.986   5.202  0.2421  3.3984 -1.8654
  858MOL0     H18393   7.440   2.990   5.278  1.3274 -0.4653 -0.1988
  858MOL0     H18394   7.673   3.198   5.283  0.7117 -1.9556 -1.5898
  858MOL0     H18395   7.519   3.236   5.355  0.8881 -0.8005  0.2683
  858MOL0     H18396   7.571   3.322   5.111 -0.0490 -0.6639 -0.4254
  858MOL0     H18397   7.527   3.162   5.063 -1.8245  1.0462 -2.3112
  858MOL0     H18398   7.361   3.338   5.249 -0.8513 -3.9065  3.4199
  858MOL0     H18399   7.309   3.189   5.162  1.0275 -0.4505  0.6214
  858MOL0     H18400   7.236   3.473   4.856 -0.9431 -2.3761 -1.4158
  858MOL0     H18401   7.819   2.967   5.244  0.9947  0.5153 -0.1730
  858MOL0     H18402   8.044   2.931   5.218 -3.2586 -0.2793 -1.2829
  858MOL0     H18403   8.142   2.818   5.300  0.1518  3.2250  0.5979
  858MOL0     H18404   8.019   2.758   5.178  2.5598 -0.4026  0.1448
  859MOL0     O18405   9.345   0.320   9.725  0.0053 -0.2967  0.0937
  859MOL0     C18406   9.362   0.428   9.767 -0.2366 -0.0217  0.5178
  859MOL0     O18407   9.485   0.477   9.792 -0.2943 -0.2841 -0.5545
  859MOL0     C18408   9.598   0.404   9.817 -0.5909  0.4223  1.3526
  859MOL0     C18409   9.615   0.262   9.820 -0.4919 -0.0065  1.0538
  859MOL0     C18410   9.743   0.213   9.839  0.0125 -0.4890 -0.4808
  859MOL0     C18411   9.858   0.297   9.866  0.3671  0.6211 -0.0228
  859MOL0     O18412   9.982   0.258   9.903 -0.3311  0.3719 -0.1357
  859MOL0     C18413  10.050   0.164   9.807  0.8636  0.9628 -0.2435
  859MOL0     C18414  10.093   0.224   9.671  0.2396 -0.4099 -0.9181
  859MOL0     C18415  10.193   0.344   9.681  0.5942  0.9923 -0.2288
  859MOL0     C18416  10.237   0.383   9.543 -0.9004  0.0241  0.7006
  859MOL0     C18417  10.359   0.306   9.492  0.7587 -0.3412  0.0086
  859MOL0     C18418  10.372   0.316   9.343 -0.9569  0.2755 -1.0960
  859MOL0     C18419  10.440   0.204   9.278  0.1809 -0.3391 -0.2871
  859MOL0     C18420  10.587   0.209   9.326 -0.1284 -0.0009 -0.0590
  859MOL0     N18421  10.653   0.093   9.256 -0.7161 -0.1294  0.2978
  859MOL0     C18422  10.673  -0.034   9.310  0.4369 -0.7918  1.7528
  859MOL0     C18423  10.732  -0.108   9.213  0.5252 -0.1439  0.6677
  859MOL0     C18424  10.779  -0.240   9.217  0.1793 -0.1659 -0.3090
  859MOL0     C18425  10.878  -0.272   9.327 -1.1254  0.2881  0.4561
  859MOL0     C18426  11.018  -0.327   9.279  0.2535  0.5112  0.1449
  859MOL0     C18427  11.131  -0.319   9.383  0.1163  0.0522  0.7603
  859MOL0     O18428  11.245  -0.399   9.349 -0.2175 -0.1977  0.7429
  859MOL0     C18429  11.367  -0.353   9.399 -0.2305  0.4788 -0.4087
  859MOL0     C18430  11.384  -0.282   9.517  0.0409 -0.2956 -0.6924
  859MOL0     C18431  11.510  -0.260   9.577 -0.1498 -0.0960 -0.7214
  859MOL0     C18432  11.521  -0.156   9.682 -0.1726  0.2388 -0.3576
  859MOL0     C18433  11.623  -0.315   9.516 -0.2584  0.5325  0.3097
  859MOL0     C18434  11.762  -0.303   9.564 -0.8606 -0.3185 -0.1105
  859MOL0     O18435  11.859  -0.363   9.489 -0.7812 -0.8932 -0.8752
  859MOL0     C18436  11.987  -0.391   9.538  0.8060 -0.4066 -0.7429
  859MOL0     C18437  12.027  -0.521   9.528  0.6244 -0.0175  0.5171
  859MOL0     C18438  12.140  -0.565   9.598 -0.3786  0.1418 -0.3468
  859MOL0     C18439  12.232  -0.479   9.663  0.4274 -0.3562 -0.0127
  859MOL0     O18440  12.354  -0.533   9.699 -0.6611  0.3421 -0.5268
  859MOL0     C18441  12.400  -0.525   9.831 -0.5721 -0.8472  0.5936
  859MOL0     C18442  12.506  -0.410   9.835 -0.4420  0.0846 -0.1579
  859MOL0     C18443  12.624  -0.430   9.733 -0.6584  0.3932  0.4391
  859MOL0     C18444  12.618  -0.317   9.631  0.4791 -0.5768 -0.2040
  859MOL0     C18445  12.734  -0.320   9.530 -0.2597 -0.5629  0.4820
  859MOL0     C18446  12.730  -0.205   9.430  0.0463 -0.1504 -0.5566
  859MOL0     C18447  12.636  -0.245   9.318 -0.1654  0.5056  0.1615
  859MOL0     C18448  12.572  -0.125   9.248 -0.9185 -0.4470 -0.0232
  859MOL0    Cl18449  12.437  -0.044   9.352  0.2451  0.2587 -0.0058
  859MOL0     C18450  12.192  -0.344   9.671  0.7060 -0.7772 -0.3578
  859MOL0     C18451  12.063  -0.303   9.614 -0.1702 -0.3438  0.5803
  859MOL0     O18452  11.782  -0.245   9.676 -0.1011  0.7574  0.1929
  859MOL0     C18453  11.607  -0.393   9.398  0.6859  0.1616  0.3800
  859MOL0     C18454  11.483  -0.413   9.345 -0.2070  0.2488  0.0342
  859MOL0     N18455  10.780  -0.017   9.120  1.1620 -0.7868  0.5844
  859MOL0     N18456  10.723   0.100   9.139 -0.7086  0.0372  0.4528
  859MOL0     C18457   9.839   0.435   9.867  0.1394  1.0100  0.2180
  859MOL0     C18458   9.712   0.485   9.831  0.4820 -0.1920  0.3697
  859MOL0     C18459   9.241   0.517   9.783  0.1636 -0.5139 -0.5311
  859MOL0     C18460   9.117   0.456   9.768 -0.5265  0.5693 -0.8935
  859MOL0     C18461   9.000   0.519   9.796 -1.1199 -0.4889 -0.1294
  859MOL0     C18462   9.002   0.652   9.824 -1.0317  0.5222  1.0958
  859MOL0     O18463   8.884   0.715   9.853 -0.6270 -0.7348 -0.1168
  859MOL0     C18464   8.892   0.857   9.888  0.2547  0.0145  0.8057
  859MOL0     C18465   8.747   0.895   9.910 -0.2336  0.6207  0.3670
  859MOL0     C18466   8.690   0.816  10.034 -0.3326 -0.1092 -0.9608
  859MOL0     C18467   8.606   0.902  10.129 -0.3458 -0.2520 -0.3670
  859MOL0     C18468   8.558   0.835  10.253  0.1362 -0.0806  0.4146
  859MOL0     C18469   8.516   0.794  10.361 -0.9617 -0.1447 -0.1286
  859MOL0     C18470   9.123   0.722   9.829 -0.1286  0.0139 -0.1720
  859MOL0     C18471   9.245   0.654   9.808  0.5076  0.0992 -0.1171
  859MOL0     C18472   9.374   0.735   9.819 -0.2153 -0.2556  0.6479
  859MOL0     H18473   9.532   0.193   9.823  1.5081 -2.8323 -2.2502
  859MOL0     H18474   9.758   0.106   9.850  3.6191 -0.2166 -1.2775
  859MOL0     H18475   9.991   0.074   9.788  1.7955  1.0147 -4.1076
  859MOL0     H18476  10.143   0.134   9.857  1.0675  1.3276 -0.4056
  859MOL0     H18477  10.114   0.147   9.597  1.8893  0.2137 -1.1281
  859MOL0     H18478  10.001   0.271   9.635  0.2959  0.6769  0.2748
  859MOL0     H18479  10.140   0.421   9.738 -1.1672 -0.4175  0.1553
  859MOL0     H18480  10.280   0.312   9.738  0.0785 -1.1116 -0.5412
  859MOL0     H18481  10.149   0.369   9.481  1.1130 -1.1140 -2.1028
  859MOL0     H18482  10.264   0.488   9.534  0.8480 -0.4226  0.3370
  859MOL0     H18483  10.344   0.198   9.502  0.1830 -0.4277 -1.4082
  859MOL0     H18484  10.449   0.341   9.544  0.9068  0.9296 -1.0470
  859MOL0     H18485  10.271   0.329   9.301 -0.4205 -0.5179 -2.6925
  859MOL0     H18486  10.428   0.406   9.319  2.7651 -1.6898 -0.5747
  859MOL0     H18487  10.444   0.214   9.169  1.3252  5.4845  0.0131
  859MOL0     H18488  10.402   0.103   9.296  2.3215 -1.3383 -1.0137
  859MOL0     H18489  10.640   0.296   9.285  0.2679  0.1251  0.6884
  859MOL0     H18490  10.595   0.212   9.435 -1.5698 -1.7092  0.1390
  859MOL0     H18491  10.654  -0.055   9.414  0.7662 -1.1345  1.7498
  859MOL0     H18492  10.826  -0.254   9.119 -0.8716  0.4672 -0.9226
  859MOL0     H18493  10.702  -0.317   9.216 -0.4645  0.4271  0.9974
  859MOL0     H18494  10.899  -0.181   9.385 -0.9465 -1.0763  2.6321
  859MOL0     H18495  10.826  -0.338   9.396 -1.7126  1.1639  0.8673
  859MOL0     H18496  11.000  -0.430   9.247 -2.8904  1.2033 -0.6984
  859MOL0     H18497  11.062  -0.261   9.203  2.5035  0.1780  1.1035
  859MOL0     H18498  11.163  -0.214   9.384  2.2918 -0.5064 -1.1406
  859MOL0     H18499  11.091  -0.345   9.481  0.3803 -1.4685  0.4862
  859MOL0     H18500  11.305  -0.229   9.568  0.8956 -0.2032  0.5622
  859MOL0     H18501  11.550  -0.195   9.780 -0.7184 -0.5048 -0.4826
  859MOL0     H18502  11.423  -0.112   9.706 -1.0133 -1.0452 -1.3098
  859MOL0     H18503  11.586  -0.076   9.645 -0.3012  0.2738 -0.5057
  859MOL0     H18504  11.961  -0.588   9.474  1.9299 -1.8652  1.1259
  859MOL0     H18505  12.158  -0.671   9.590 -1.5636 -0.4633  3.0451
  859MOL0     H18506  12.321  -0.513   9.904 -1.2223  0.0123 -0.2317
  859MOL0     H18507  12.457  -0.618   9.842  0.8755 -0.3931 -2.0217
  859MOL0     H18508  12.457  -0.312   9.836 -1.1283 -0.2332  2.0669
  859MOL0     H18509  12.543  -0.430   9.936  0.7440 -3.1508 -1.0963
  859MOL0     H18510  12.618  -0.530   9.689  0.6455  0.6896 -0.4836
  859MOL0     H18511  12.712  -0.422   9.799 -0.1805  0.7207 -0.2243
  859MOL0     H18512  12.622  -0.220   9.680  0.0746 -1.4986  1.7408
  859MOL0     H18513  12.523  -0.322   9.577  2.1067  1.7035 -3.7063
  859MOL0     H18514  12.826  -0.307   9.588 -1.8264  0.6556  2.8714
  859MOL0     H18515  12.732  -0.417   9.479 -1.5851 -0.7083  0.7730
  859MOL0     H18516  12.835  -0.192   9.402 -0.1077  1.1458 -0.6347
  859MOL0     H18517  12.699  -0.115   9.485  0.0203 -1.1268  1.0993
  859MOL0     H18518  12.552  -0.299   9.364 -2.9488  5.6814  2.0442
  859MOL0     H18519  12.690  -0.304   9.244 -1.9729  0.7108 -1.3828
  859MOL0     H18520  12.523  -0.167   9.160  0.3276 -2.0846  0.0256
  859MOL0     H18521  12.636  -0.050   9.201 -2.4489  0.4110 -0.8356
  859MOL0     H18522  12.258  -0.266   9.711 -1.9770  0.5656  1.8205
  859MOL0     H18523  12.046  -0.195   9.618 -2.0532 -0.4640 -1.8660
  859MOL0     H18524  11.679  -0.452   9.342 -1.0851 -1.9857  0.2138
  859MOL0     H18525  11.495  -0.479   9.260  5.5371  0.2203  0.4258
  859MOL0     H18526   9.924   0.501   9.882  2.2763 -1.4815 -0.1285
  859MOL0     H18527   9.697   0.592   9.835 -4.6111 -0.6628  1.3890
  859MOL0     H18528   9.114   0.356   9.728 -2.7115 -1.9858  4.5431
  859MOL0     H18529   8.906   0.466   9.793 -1.3865  0.0117 -2.3639
  859MOL0     H18530   8.959   0.877   9.973  0.4347  1.9653  0.2530
  859MOL0     H18531   8.934   0.913   9.804 -0.1594  1.3007  1.4437
  859MOL0     H18532   8.677   0.871   9.829 -2.4989  0.0137  2.3750
  859MOL0     H18533   8.761   0.999   9.939 -1.5560  1.4090 -1.5853
  859MOL0     H18534   8.626   0.731  10.007 -0.3130 -0.3370 -0.3122
  859MOL0     H18535   8.776   0.781  10.092 -1.6418 -1.6313  0.1533
  859MOL0     H18536   8.522   0.942  10.072  0.1657  0.6499 -0.5100
  859MOL0     H18537   8.664   0.993  10.146 -1.3212  0.1475  0.9175
  859MOL0     H18538   8.479   0.759  10.455  1.7913 -1.9579  0.4154
  859MOL0     H18539   9.123   0.827   9.856 -0.1823 -0.7853  3.4488
  859MOL0     H18540   9.434   0.724   9.728 -0.3322  1.9213  0.2598
  859MOL0     H18541   9.349   0.838   9.845 -0.7569 -0.8301  2.6267
  859MOL0     H18542   9.434   0.699   9.903  0.4272  0.7851  0.6527
  860MOL0     O18543   1.240   8.761   5.216 -0.2528  0.2167  0.4956
  860MOL0     C18544   1.146   8.702   5.264  0.5840  0.3146 -0.0096
  860MOL0     O18545   1.144   8.637   5.396  0.6023 -0.5246  0.5646
  860MOL0     C18546   1.267   8.629   5.454  0.4374  1.0806  0.3636
  860MOL0     C18547   1.340   8.743   5.485 -0.1289  0.1746 -0.0568
  860MOL0     C18548   1.471   8.727   5.531 -0.6919  0.1922 -0.3847
  860MOL0     C18549   1.525   8.600   5.567 -0.2503  0.0519 -0.0929
  860MOL0     O18550   1.645   8.583   5.637 -0.4961  0.7496  0.5277
  860MOL0     C18551   1.753   8.675   5.594  0.0741  0.4813  1.6457
  860MOL0     C18552   1.887   8.644   5.661  1.5186 -0.1927 -0.1736
  860MOL0     C18553   1.995   8.754   5.633  0.9339  0.2099 -0.0811
  860MOL0     C18554   2.078   8.721   5.514 -1.0586 -0.9650  0.7013
  860MOL0     C18555   2.139   8.855   5.459  0.0094 -0.1632 -0.1367
  860MOL0     C18556   2.242   8.816   5.358  0.1439 -0.2429 -0.1257
  860MOL0     C18557   2.299   8.931   5.273  0.3705  0.6449 -0.4565
  860MOL0     C18558   2.383   8.882   5.155 -1.3222  0.2547  1.4673
  860MOL0     N18559   2.402   8.980   5.054 -1.1978 -0.7021 -0.4750
  860MOL0     C18560   2.298   9.045   4.993 -0.0756  0.0016 -0.0566
  860MOL0     C18561   2.352   9.101   4.882 -0.9425  0.4825 -0.0313
  860MOL0     C18562   2.272   9.186   4.795  0.7115  0.1263 -0.4761
  860MOL0     C18563   2.358   9.294   4.744  0.2625  0.1718 -0.1970
  860MOL0     C18564   2.267   9.409   4.691 -0.2610 -0.6171 -0.2520
  860MOL0     C18565   2.360   9.536   4.667  0.3311 -0.1927 -0.4247
  860MOL0     O18566   2.467   9.513   4.573 -0.1295  0.4362  0.3118
  860MOL0     C18567   2.463   9.587   4.461 -0.3659 -0.7760 -0.8886
  860MOL0     C18568   2.354   9.627   4.388  1.0912 -1.0227 -0.2618
  860MOL0     C18569   2.363   9.691   4.264 -0.3937 -0.1659 -0.4040
  860MOL0     C18570   2.232   9.711   4.190  0.3220 -0.0019 -0.1947
  860MOL0     C18571   2.493   9.731   4.211  0.3117 -0.1241 -0.2479
  860MOL0     C18572   2.515   9.801   4.091  1.2022  0.4052  0.4478
  860MOL0     O18573   2.648   9.833   4.061  0.7707 -0.0663  0.1045
  860MOL0     C18574   2.679   9.922   3.952  0.1271 -0.1852 -0.8091
  860MOL0     C18575   2.797   9.899   3.876 -0.3926  0.6793  0.1795
  860MOL0     C18576   2.842  10.003   3.791 -0.0456  0.9210  0.1573
  860MOL0     C18577   2.782  10.129   3.789  0.2940  0.3930  0.2315
  860MOL0     O18578   2.819  10.231   3.710 -0.4949 -0.2236 -0.3826
  860MOL0     C18579   2.941  10.213   3.640 -0.9230 -0.1668  0.3105
  860MOL0     C18580   2.970  10.354   3.582 -0.2348  0.1191  0.0764
  860MOL0     C18581   3.115  10.360   3.529  1.2811  0.1723  0.7133
  860MOL0     C18582   3.155  10.242   3.437 -0.7339 -0.2060  0.3481
  860MOL0     C18583   3.247  10.290   3.317  1.4422  1.3657  0.5039
  860MOL0     C18584   3.171  10.336   3.188 -1.0301  0.2040  0.9841
  860MOL0     C18585   3.050  10.256   3.134 -0.3687  0.6968  0.5423
  860MOL0     C18586   2.979  10.320   3.019 -0.0170  0.0095  0.3492
  860MOL0    Cl18587   3.092  10.351   2.886 -0.3331 -0.0036 -0.7541
  860MOL0     C18588   2.667  10.144   3.868  0.0265 -0.1987  1.2298
  860MOL0     C18589   2.609  10.039   3.941  0.5890 -1.0201 -0.1201
  860MOL0     O18590   2.419   9.828   4.015  0.1797  0.5506 -0.5425
  860MOL0     C18591   2.600   9.701   4.293  0.3858 -0.0144  1.4314
  860MOL0     C18592   2.592   9.631   4.412  0.2951 -0.7047 -0.3214
  860MOL0     N18593   2.486   9.062   4.871  0.1379 -0.6576  0.1746
  860MOL0     N18594   2.514   8.989   4.976  0.9030  0.6617  0.4232
  860MOL0     C18595   1.451   8.488   5.532 -0.4646 -0.0349  0.2613
  860MOL0     C18596   1.317   8.499   5.487  0.0018 -0.8555 -0.5045
  860MOL0     C18597   1.021   8.684   5.178  0.5557 -0.0766  0.0427
  860MOL0     C18598   0.913   8.628   5.239  0.0352 -0.0061  0.6574
  860MOL0     C18599   0.788   8.601   5.180  0.1982 -0.3802 -0.3355
  860MOL0     C18600   0.767   8.649   5.052 -0.0657 -0.1008 -0.0646
  860MOL0     O18601   0.641   8.629   4.995  0.4807  0.2503  0.1520
  860MOL0     C18602   0.607   8.680   4.860  0.2755  1.0244 -0.3830
  860MOL0     C18603   0.583   8.835   4.861 -0.2313  0.4185  0.0039
  860MOL0     C18604   0.491   8.877   4.983 -0.2936 -0.4420  0.2512
  860MOL0     C18605   0.427   9.015   4.976  0.2561  0.6641  0.0810
  860MOL0     C18606   0.344   9.024   4.863  0.1993 -0.7851  0.2262
  860MOL0     C18607   0.273   9.035   4.771  0.0644  0.8299  0.5253
  860MOL0     C18608   0.867   8.716   4.983  0.5175  1.3475 -0.6250
  860MOL0     C18609   0.989   8.731   5.046  0.3317 -0.4632  0.0628
  860MOL0     C18610   1.095   8.801   4.963 -1.0813  0.3840 -0.3901
  860MOL0     H18611   1.303   8.844   5.473  0.0880 -0.0002 -3.2226
  860MOL0     H18612   1.527   8.815   5.561  1.0457 -0.9732 -0.0775
  860MOL0     H18613   1.730   8.777   5.626  0.8032  1.1075  0.2833
  860MOL0     H18614   1.761   8.691   5.486  0.8910  0.3521  1.6820
  860MOL0     H18615   1.870   8.624   5.767 -0.5159 -0.5861 -0.5352
  860MOL0     H18616   1.920   8.543   5.632  0.3901 -0.4443 -0.6314
  860MOL0     H18617   1.951   8.851   5.610  0.7358  0.6908  2.0889
  860MOL0     H18618   2.064   8.770   5.716  1.6039  1.2416 -0.8169
  860MOL0     H18619   2.152   8.646   5.544  1.9989  0.9333 -1.4848
  860MOL0     H18620   2.019   8.677   5.433 -0.0584  0.5506 -0.9163
  860MOL0     H18621   2.183   8.916   5.539  1.5669 -1.0269 -0.2971
  860MOL0     H18622   2.054   8.910   5.419 -2.1068 -1.2889  2.5457
  860MOL0     H18623   2.323   8.769   5.414  0.0423 -1.5751 -1.0582
  860MOL0     H18624   2.201   8.743   5.288  1.9143 -0.2177 -1.2413
  860MOL0     H18625   2.352   9.006   5.333  2.2015 -0.4204 -0.6688
  860MOL0     H18626   2.219   8.977   5.216  0.2271 -0.1849 -0.9474
  860MOL0     H18627   2.480   8.858   5.199 -1.1306 -0.9776  0.4420
  860MOL0     H18628   2.343   8.789   5.112 -2.2171  0.7332  1.2331
  860MOL0     H18629   2.196   9.055   5.029  0.5619  0.6855  1.6542
  860MOL0     H18630   2.183   9.222   4.848  1.1610 -1.2834  1.3418
  860MOL0     H18631   2.229   9.141   4.705  0.2515  2.6007 -1.5930
  860MOL0     H18632   2.435   9.326   4.815 -0.2012  0.8558  0.0031
  860MOL0     H18633   2.420   9.255   4.663  2.1816  0.9479  0.8242
  860MOL0     H18634   2.221   9.373   4.598 -0.6757 -3.0308  0.7935
  860MOL0     H18635   2.192   9.426   4.769  0.9363 -2.7567  1.4793
  860MOL0     H18636   2.296   9.620   4.639  0.1787 -0.9258 -2.4796
  860MOL0     H18637   2.404   9.563   4.763  2.3044 -0.7029 -1.1368
  860MOL0     H18638   2.261   9.586   4.428 -0.1047  2.5770  1.0833
  860MOL0     H18639   2.231   9.671   4.088  4.0659 -2.1559  0.4256
  860MOL0     H18640   2.224   9.820   4.191  0.0156 -0.0166  0.9149
  860MOL0     H18641   2.144   9.668   4.240  1.1525 -1.6427 -0.0758
  860MOL0     H18642   2.845   9.802   3.885 -0.4819  0.7489  1.5802
  860MOL0     H18643   2.906   9.972   3.709 -3.1965 -4.2574 -0.7476
  860MOL0     H18644   3.018  10.190   3.715 -1.5895  0.8044  1.3251
  860MOL0     H18645   2.923  10.132   3.570  1.4388 -0.0413 -0.5212
  860MOL0     H18646   2.897  10.378   3.504  0.8582 -0.0423 -1.0111
  860MOL0     H18647   2.965  10.429   3.662  0.7688  1.2059 -0.8462
  860MOL0     H18648   3.172  10.352   3.622  1.0716 -2.1633  0.6819
  860MOL0     H18649   3.118  10.453   3.471 -0.6500 -0.6420 -0.8048
  860MOL0     H18650   3.071  10.174   3.420  1.6775 -3.4373  0.3380
  860MOL0     H18651   3.222  10.192   3.507 -1.1752  0.5134  1.2986
  860MOL0     H18652   3.325  10.359   3.351  1.7674  0.1778  2.3168
  860MOL0     H18653   3.307  10.207   3.280  3.0647  1.7771  2.0659
  860MOL0     H18654   3.249  10.342   3.111 -0.7968  0.0016  1.2016
  860MOL0     H18655   3.129  10.435   3.209 -3.5263 -0.3768 -0.8332
  860MOL0     H18656   2.979  10.249   3.217 -1.4269 -2.4489 -0.4814
  860MOL0     H18657   3.084  10.156   3.104 -2.0351 -0.1407  1.3210
  860MOL0     H18658   2.921  10.411   3.038  0.8151  0.9474 -1.3437
  860MOL0     H18659   2.899  10.259   2.977 -3.0213  2.3252  2.2667
  860MOL0     H18660   2.611  10.237   3.871 -0.8768 -0.6285 -0.7773
  860MOL0     H18661   2.522  10.068   3.999  0.8405 -1.5009  0.5040
  860MOL0     H18662   2.702   9.720   4.264 -0.2719  2.4589  0.4783
  860MOL0     H18663   2.680   9.609   4.471 -0.6027  0.7908  1.6527
  860MOL0     H18664   1.478   8.383   5.543 -0.0212 -0.2843 -2.6114
  860MOL0     H18665   1.260   8.407   5.475 -0.3513 -1.0084  1.8919
  860MOL0     H18666   0.929   8.589   5.339  0.9415  0.9988  0.9197
  860MOL0     H18667   0.710   8.548   5.234 -1.2126 -0.4828 -2.3868
  860MOL0     H18668   0.686   8.657   4.788  1.0790  3.1106 -0.2275
  860MOL0     H18669   0.507   8.640   4.838  0.8346 -0.3054 -0.6507
  860MOL0     H18670   0.542   8.864   4.764  0.9871  0.2372 -0.5943
  860MOL0     H18671   0.677   8.887   4.881 -0.0689  0.1768 -0.1127
  860MOL0     H18672   0.405   8.811   4.996 -0.7849  0.5829  2.8334
  860MOL0     H18673   0.552   8.875   5.074 -4.8394  2.5741  3.7772
  860MOL0     H18674   0.512   9.083   4.965  0.5742 -0.0308 -2.1579
  860MOL0     H18675   0.362   9.026   5.064  0.7014 -2.5327  0.9263
  860MOL0     H18676   0.201   9.024   4.693 -0.9330 -0.1655  1.5490
  860MOL0     H18677   0.868   8.730   4.875  0.6003 -1.5795 -1.0691
  860MOL0     H18678   1.193   8.753   4.959 -1.8385 -1.7341  2.8844
  860MOL0     H18679   1.059   8.812   4.860 -4.3675  1.1730  0.7078
  860MOL0     H18680   1.116   8.902   4.998  3.3853 -0.1437 -1.0187
  861MOL0     O18681   3.228   6.024   2.304 -0.2339 -0.0695  0.5762
  861MOL0     C18682   3.291   5.932   2.263  0.6357  0.5079 -0.2615
  861MOL0     O18683   3.384   5.935   2.169 -0.7014  0.3266  0.6904
  861MOL0     C18684   3.464   6.042   2.140  0.5791 -0.8978 -0.0495
  861MOL0     C18685   3.603   6.021   2.155 -1.8550  0.3989  0.0726
  861MOL0     C18686   3.701   6.121   2.101  0.0871 -0.1738  0.2418
  861MOL0     C18687   3.646   6.238   2.041 -0.0237 -0.6524 -0.4767
  861MOL0     O18688   3.726   6.331   1.974  0.1461 -0.0776  0.2501
  861MOL0     C18689   3.837   6.281   1.896  0.7018 -0.4959  0.5020
  861MOL0     C18690   3.977   6.295   1.963  0.6580  0.6238  0.1039
  861MOL0     C18691   4.103   6.298   1.866  1.1160 -0.1635  0.3641
  861MOL0     C18692   4.113   6.163   1.797 -0.2675 -0.0825  1.1614
  861MOL0     C18693   4.223   6.153   1.689  0.4495  0.1250 -0.0657
  861MOL0     C18694   4.355   6.221   1.729 -0.8096  0.8139 -0.8217
  861MOL0     C18695   4.475   6.192   1.625 -0.1800 -0.0002 -0.5435
  861MOL0     C18696   4.581   6.300   1.638 -0.0971  0.2852  0.9584
  861MOL0     N18697   4.691   6.279   1.543  0.8171 -0.0199 -0.2939
  861MOL0     C18698   4.751   6.159   1.528 -0.2203 -0.3862 -0.1304
  861MOL0     C18699   4.840   6.174   1.428  0.2076 -1.1012 -0.6769
  861MOL0     C18700   4.942   6.073   1.372 -0.1651  0.3877 -0.8544
  861MOL0     C18701   5.079   6.137   1.334  0.3958 -0.0642 -0.4612
  861MOL0     C18702   5.158   6.042   1.248 -0.0815 -0.5295  0.8393
  861MOL0     C18703   5.280   6.116   1.191 -1.5013 -0.8551  0.2820
  861MOL0     O18704   5.345   6.031   1.097  0.3585 -1.0852 -0.7026
  861MOL0     C18705   5.455   5.952   1.138  1.0998  0.4332 -0.8492
  861MOL0     C18706   5.566   5.928   1.057  0.4848  0.2499  0.4036
  861MOL0     C18707   5.678   5.852   1.105  0.4651 -0.7764  0.9259
  861MOL0     C18708   5.771   5.810   0.996  0.2316 -0.0184 -0.3598
  861MOL0     C18709   5.690   5.811   1.236 -0.6474  0.0463 -0.1141
  861MOL0     C18710   5.814   5.733   1.294  0.3354 -0.4561  0.4904
  861MOL0     O18711   5.802   5.708   1.421 -0.0147  0.3076  0.3175
  861MOL0     C18712   5.899   5.627   1.486 -0.4658 -0.9075  0.1532
  861MOL0     C18713   5.876   5.490   1.528 -0.7864 -0.0145  1.0420
  861MOL0     C18714   5.983   5.404   1.587  0.1842  0.1921 -0.2451
  861MOL0     C18715   6.109   5.452   1.599  0.0358 -0.1855 -0.1553
  861MOL0     O18716   6.211   5.382   1.648 -0.2430 -0.2794 -0.2307
  861MOL0     C18717   6.288   5.424   1.763 -0.4336  0.4082 -0.0650
  861MOL0     C18718   6.280   5.324   1.875  0.1582  0.1631  1.0488
  861MOL0     C18719   6.362   5.359   2.004 -0.5364 -0.2511  0.1025
  861MOL0     C18720   6.316   5.502   2.069  0.5840  0.8307 -0.4689
  861MOL0     C18721   6.382   5.547   2.198 -0.3548 -0.5344 -0.1489
  861MOL0     C18722   6.337   5.693   2.232  1.1410 -0.1084 -0.1530
  861MOL0     C18723   6.372   5.733   2.372  0.5444 -0.1114  0.5043
  861MOL0     C18724   6.281   5.854   2.410  0.9907 -0.0955 -0.2123
  861MOL0    Cl18725   6.093   5.817   2.416 -0.6015  0.2965  0.3883
  861MOL0     C18726   6.131   5.587   1.558  0.6519  0.0363  0.3066
  861MOL0     C18727   6.024   5.673   1.506 -0.0360  0.1557  0.4102
  861MOL0     O18728   5.908   5.693   1.215  0.7116 -0.2424 -0.1251
  861MOL0     C18729   5.579   5.847   1.319 -0.2782  0.4980 -0.0460
  861MOL0     C18730   5.468   5.916   1.269  0.2629  0.3723  0.0477
  861MOL0     N18731   4.827   6.307   1.387  0.2713  0.2199 -0.5769
  861MOL0     N18732   4.745   6.372   1.459  0.2278 -0.1361  0.1167
  861MOL0     C18733   3.507   6.257   2.033  0.2313  1.1328  0.8797
  861MOL0     C18734   3.420   6.156   2.075 -0.5372  0.2314 -0.4809
  861MOL0     C18735   3.255   5.805   2.322 -0.6129  0.8265  0.3791
  861MOL0     C18736   3.127   5.767   2.301 -0.3161  0.2655  0.1896
  861MOL0     C18737   3.087   5.641   2.339  0.7033 -0.0693 -0.4605
  861MOL0     C18738   3.176   5.546   2.382  0.6691 -0.1355  0.2551
  861MOL0     O18739   3.130   5.419   2.391 -0.3852  0.1824 -0.3270
  861MOL0     C18740   3.228   5.316   2.377  0.4836 -0.1017 -0.3152
  861MOL0     C18741   3.160   5.193   2.316  0.6682 -0.5068  0.1278
  861MOL0     C18742   3.101   5.229   2.172 -0.4940 -0.0355  0.2843
  861MOL0     C18743   3.038   5.109   2.096  0.5184  0.0995 -0.0033
  861MOL0     C18744   2.950   5.132   1.974 -0.7523 -0.1823 -0.5440
  861MOL0     C18745   2.869   5.141   1.883 -0.5998 -0.2874  0.5903
  861MOL0     C18746   3.303   5.592   2.414 -0.5599  1.2691  0.1490
  861MOL0     C18747   3.347   5.720   2.391  0.7773 -0.4230  1.3338
  861MOL0     C18748   3.492   5.758   2.420 -0.2947 -0.1026 -0.0486
  861MOL0     H18749   3.656   5.936   2.196  0.6029  1.9152  0.2535
  861MOL0     H18750   3.808   6.109   2.120  0.6635 -1.5430 -3.0627
  861MOL0     H18751   3.849   6.339   1.804  0.2863  0.9303  1.3230
  861MOL0     H18752   3.821   6.174   1.877 -1.1819  0.1086 -1.8327
  861MOL0     H18753   3.977   6.402   1.989  0.1146  1.8513 -4.0821
  861MOL0     H18754   3.986   6.229   2.049 -2.5476  0.1564  0.2222
  861MOL0     H18755   4.084   6.374   1.790  0.5643  1.3702  1.9849
  861MOL0     H18756   4.197   6.319   1.917  1.9211 -0.3164 -1.0076
  861MOL0     H18757   4.126   6.086   1.874  1.4559  1.2779  2.2923
  861MOL0     H18758   4.013   6.143   1.755 -0.3954 -2.7839  2.4994
  861MOL0     H18759   4.198   6.204   1.595  3.7899  0.8566 -0.6636
  861MOL0     H18760   4.233   6.053   1.646  0.1056  0.7135 -1.5670
  861MOL0     H18761   4.334   6.328   1.736 -0.6677  0.7515  1.6544
  861MOL0     H18762   4.379   6.201   1.834 -3.1906  1.5947 -0.0666
  861MOL0     H18763   4.437   6.184   1.523 -1.3250  3.4118 -0.5010
  861MOL0     H18764   4.517   6.096   1.657 -2.1393 -2.0307 -3.5461
  861MOL0     H18765   4.534   6.398   1.623 -0.6420 -0.1784 -0.6292
  861MOL0     H18766   4.621   6.295   1.739  1.6851  2.9256  0.4728
  861MOL0     H18767   4.740   6.065   1.581  1.2844  0.3100  1.5340
  861MOL0     H18768   4.907   6.019   1.283  1.2918  0.9573 -1.8109
  861MOL0     H18769   4.959   5.996   1.448  0.2205 -0.8905 -2.1783
  861MOL0     H18770   5.055   6.220   1.266 -1.2009 -1.1538 -1.3097
  861MOL0     H18771   5.146   6.181   1.408  0.5638 -2.4153  0.8769
  861MOL0     H18772   5.181   5.962   1.319 -1.2115 -2.5231 -0.9260
  861MOL0     H18773   5.099   6.002   1.165  1.1996  0.4168 -0.5916
  861MOL0     H18774   5.251   6.209   1.140 -1.6080 -0.5818  0.8299
  861MOL0     H18775   5.354   6.153   1.262 -0.0412 -0.4301 -1.3767
  861MOL0     H18776   5.573   5.978   0.961  0.1288  0.1629  0.3332
  861MOL0     H18777   5.873   5.847   1.013  0.0366  0.6940 -0.6779
  861MOL0     H18778   5.720   5.831   0.902 -1.0319 -4.8025 -0.9704
  861MOL0     H18779   5.789   5.702   0.993  2.7011  0.3323 -0.6887
  861MOL0     H18780   5.778   5.446   1.515  0.0341 -2.1099  1.5335
  861MOL0     H18781   5.953   5.302   1.608  0.5745 -0.0260 -0.7501
  861MOL0     H18782   6.393   5.431   1.734 -0.4608  1.0301 -0.0308
  861MOL0     H18783   6.261   5.526   1.792  1.8373  0.8872  0.5084
  861MOL0     H18784   6.175   5.301   1.894 -0.5052 -1.0555 -3.2618
  861MOL0     H18785   6.322   5.231   1.837  1.6675  0.8430  0.9760
  861MOL0     H18786   6.469   5.361   1.983  0.1541 -3.0745  2.5172
  861MOL0     H18787   6.359   5.277   2.077  2.9977 -0.0089  0.6895
  861MOL0     H18788   6.210   5.486   2.091  1.0250 -0.7977  0.6537
  861MOL0     H18789   6.324   5.576   1.988 -0.0792  0.1737 -1.1457
  861MOL0     H18790   6.349   5.483   2.280 -2.3246  1.7532  0.9609
  861MOL0     H18791   6.490   5.547   2.181 -0.7568 -0.4933 -3.1800
  861MOL0     H18792   6.228   5.697   2.222  1.0543  1.6926  1.0379
  861MOL0     H18793   6.381   5.765   2.162 -0.1499  1.3369  0.4442
  861MOL0     H18794   6.473   5.774   2.380  0.0865  0.8217  1.9050
  861MOL0     H18795   6.358   5.646   2.438 -0.5899 -0.2998  0.0204
  861MOL0     H18796   6.276   5.936   2.337 -1.6378  1.7028  1.8146
  861MOL0     H18797   6.308   5.889   2.510 -0.1394  1.5022 -0.4230
  861MOL0     H18798   6.224   5.634   1.588 -0.2193  0.2298  2.9807
  861MOL0     H18799   6.051   5.776   1.489  2.4945 -0.5692 -0.3787
  861MOL0     H18800   5.578   5.819   1.424 -0.4967 -0.4997 -0.2965
  861MOL0     H18801   5.386   5.922   1.341 -0.7292 -0.0847 -1.0173
  861MOL0     H18802   3.462   6.342   1.983  0.9231 -0.5806 -3.0806
  861MOL0     H18803   3.315   6.173   2.051 -0.4922  2.3179  0.5517
  861MOL0     H18804   3.054   5.838   2.263 -1.2990 -1.7568 -1.9627
  861MOL0     H18805   2.986   5.612   2.310  0.5380  0.2047 -0.1645
  861MOL0     H18806   3.296   5.352   2.299 -2.6663  1.4152 -2.5862
  861MOL0     H18807   3.278   5.299   2.473 -0.3087 -0.6289  0.0199
  861MOL0     H18808   3.081   5.169   2.387 -1.3543  1.1474 -1.4539
  861MOL0     H18809   3.231   5.110   2.315  0.5526 -0.8078  3.9134
  861MOL0     H18810   3.014   5.291   2.196 -1.1241 -0.1412 -1.5369
  861MOL0     H18811   3.169   5.291   2.112 -1.9476  0.4036 -0.9942
  861MOL0     H18812   2.992   5.045   2.171 -1.3401  1.5590  0.1583
  861MOL0     H18813   3.120   5.055   2.047  0.0745 -0.1616 -0.4591
  861MOL0     H18814   2.808   5.157   1.797 -0.8168 -1.5367  0.4816
  861MOL0     H18815   3.365   5.518   2.463 -2.6805 -1.1022 -0.5850
  861MOL0     H18816   3.498   5.798   2.522 -0.3713 -1.4207  0.4930
  861MOL0     H18817   3.545   5.663   2.415 -3.1698 -2.0055  2.0982
  861MOL0     H18818   3.534   5.824   2.344  0.8349  0.6282  1.1710
  862MOL0     O18819   5.824  11.257   4.119 -0.0714  0.8568  0.1994
  862MOL0     C18820   5.845  11.138   4.089 -0.7969 -0.2129  1.1002
  862MOL0     O18821   5.751  11.044   4.046 -0.5678 -0.1388  1.0318
  862MOL0     C18822   5.624  11.088   4.050  0.0502  0.5725 -0.3432
  862MOL0     C18823   5.526  11.010   4.116  0.2394  0.3935 -0.0116
  862MOL0     C18824   5.388  11.043   4.119 -0.1958  0.3618  0.1627
  862MOL0     C18825   5.344  11.161   4.066 -0.1674 -0.3286  0.1729
  862MOL0     O18826   5.216  11.204   4.087  0.6543 -0.0263 -0.2307
  862MOL0     C18827   5.108  11.121   4.047 -0.2237  0.4435 -0.1249
  862MOL0     C18828   4.979  11.199   4.078 -0.0749  1.2059  0.4877
  862MOL0     C18829   4.930  11.287   3.966 -0.2874 -0.5107  0.3788
  862MOL0     C18830   4.968  11.434   3.980 -0.2841  0.8798 -1.1827
  862MOL0     C18831   4.876  11.499   4.084  0.6109 -0.7061 -0.0362
  862MOL0     C18832   4.887  11.653   4.074 -0.9126  0.3344 -0.0413
  862MOL0     C18833   5.013  11.683   4.157  0.4345 -0.2205  0.3978
  862MOL0     C18834   5.024  11.838   4.190 -0.4551  0.2704  0.2766
  862MOL0     N18835   5.145  11.862   4.270  0.4937 -0.2037  1.0226
  862MOL0     C18836   5.212  11.777   4.362 -0.3345  0.6488 -0.1391
  862MOL0     C18837   5.301  11.857   4.423  0.8481  0.8815 -0.2717
  862MOL0     C18838   5.396  11.822   4.531 -1.0799 -0.2739 -0.3744
  862MOL0     C18839   5.539  11.815   4.492  0.1065 -0.2427 -0.1142
  862MOL0     C18840   5.613  11.949   4.490  0.0004 -0.1790  0.3476
  862MOL0     C18841   5.762  11.926   4.448  0.7876 -0.1911  0.2643
  862MOL0     O18842   5.842  11.881   4.562 -0.2293 -0.2970  0.3380
  862MOL0     C18843   5.970  11.939   4.575  0.4385 -0.0206 -0.2387
  862MOL0     C18844   6.007  11.967   4.711 -0.3354  0.0978  0.1770
  862MOL0     C18845   6.137  12.010   4.747  0.1640 -0.4273 -1.1018
  862MOL0     C18846   6.186  12.038   4.883  0.4822  0.9983  0.3880
  862MOL0     C18847   6.228  12.025   4.635  0.8538 -0.2918  0.1076
  862MOL0     C18848   6.363  12.092   4.639  0.3825 -0.0571  0.0502
  862MOL0     O18849   6.440  12.084   4.756 -0.6448 -0.1078  0.1542
  862MOL0     C18850   6.551  12.162   4.755  0.3159  0.9920  0.0938
  862MOL0     C18851   6.679  12.097   4.738  0.2499 -0.4026 -0.1626
  862MOL0     C18852   6.788  12.178   4.737  0.1490  0.1584  0.1469
  862MOL0     C18853   6.783  12.318   4.764  0.0052 -0.9262 -0.1930
  862MOL0     O18854   6.891  12.391   4.729 -0.4524 -1.1943  0.1778
  862MOL0     C18855   6.906  12.518   4.784 -0.5985 -0.2956 -0.2667
  862MOL0     C18856   7.026  12.586   4.725 -0.8007  0.9131  0.3550
  862MOL0     C18857   7.042  12.735   4.782  0.4903  0.6241  0.1844
  862MOL0     C18858   7.133  12.738   4.896  0.4573 -0.1895  0.4818
  862MOL0     C18859   7.267  12.773   4.840  1.1166  0.8432 -0.1938
  862MOL0     C18860   7.378  12.769   4.943  0.3011  0.8344 -0.9611
  862MOL0     C18861   7.508  12.799   4.875  0.4925 -0.6963  0.9073
  862MOL0     C18862   7.629  12.836   4.962  0.3736 -0.1998  0.3868
  862MOL0    Cl18863   7.782  12.895   4.883 -0.2908  0.2511 -0.0163
  862MOL0     C18864   6.652  12.373   4.794 -0.3744 -0.0564 -0.3715
  862MOL0     C18865   6.541  12.297   4.788 -0.1419  0.3725  0.4363
  862MOL0     O18866   6.393  12.152   4.536  0.1584 -0.1104 -0.3516
  862MOL0     C18867   6.191  11.976   4.510  0.5524  0.0748 -0.1329
  862MOL0     C18868   6.063  11.941   4.477 -0.0191 -0.0700  0.4236
  862MOL0     N18869   5.289  11.982   4.384  0.9136  0.4243  0.3836
  862MOL0     N18870   5.190  11.988   4.293  1.1197  0.3697 -1.0179
  862MOL0     C18871   5.439  11.241   4.000 -0.6008  0.1409  0.1863
  862MOL0     C18872   5.577  11.205   3.991  0.9045 -0.7223 -0.6435
  862MOL0     C18873   5.984  11.090   4.112  0.1878  0.0263 -0.5995
  862MOL0     C18874   5.997  10.962   4.171  0.2086  0.8736  0.4054
  862MOL0     C18875   6.123  10.902   4.185 -0.4372 -0.9026  0.9669
  862MOL0     C18876   6.242  10.973   4.156  0.2360  0.3524  0.3362
  862MOL0     O18877   6.365  10.920   4.190  0.1575 -0.4348  0.5089
  862MOL0     C18878   6.384  10.943   4.322  0.2889 -0.1291 -0.7176
  862MOL0     C18879   6.463  10.836   4.396 -1.1932  0.8339 -0.1662
  862MOL0     C18880   6.614  10.831   4.346  0.6591  0.4368 -0.0631
  862MOL0     C18881   6.693  10.954   4.377  0.6959 -0.3810  0.5965
  862MOL0     C18882   6.830  10.951   4.324 -0.1110 -0.3812  1.0890
  862MOL0     C18883   6.936  10.927   4.264  0.7978 -0.7008 -0.6278
  862MOL0     C18884   6.235  11.104   4.106  0.7071 -0.8271  0.7480
  862MOL0     C18885   6.101  11.161   4.075  0.3044  0.9489 -0.5229
  862MOL0     C18886   6.097  11.300   4.024 -0.0222 -0.1146 -0.6726
  862MOL0     H18887   5.567  10.921   4.162  2.2005 -0.4737 -3.1449
  862MOL0     H18888   5.310  10.980   4.160 -0.7790  0.0331 -1.3982
  862MOL0     H18889   5.106  11.027   4.103  1.5867  0.4145 -0.0305
  862MOL0     H18890   5.110  11.091   3.942 -4.6036 -0.9482  0.0045
  862MOL0     H18891   4.903  11.123   4.099 -0.3845  1.4896  0.4087
  862MOL0     H18892   4.982  11.260   4.169 -1.4537  1.8524  0.1297
  862MOL0     H18893   4.968  11.254   3.868  1.6924  3.0742 -0.2304
  862MOL0     H18894   4.822  11.271   3.960 -0.5065  1.2037 -1.4599
  862MOL0     H18895   5.073  11.438   4.012 -0.9238 -0.0141  1.1993
  862MOL0     H18896   4.966  11.482   3.882 -1.6836 -1.0427 -2.1592
  862MOL0     H18897   4.877  11.455   4.184 -1.4852  2.7488  1.6918
  862MOL0     H18898   4.777  11.473   4.046  0.7453 -2.1651  0.5299
  862MOL0     H18899   4.907  11.688   3.973  2.1807  2.0504  1.0450
  862MOL0     H18900   4.805  11.703   4.127  1.3443  1.1330  2.9703
  862MOL0     H18901   5.101  11.643   4.106  0.9859  3.6540 -2.1821
  862MOL0     H18902   5.009  11.627   4.250 -0.4633 -0.7931  0.0249
  862MOL0     H18903   5.023  11.895   4.096  0.4969  0.6318  0.4773
  862MOL0     H18904   4.938  11.880   4.242  0.2702  2.0404  0.1131
  862MOL0     H18905   5.198  11.671   4.379  0.2524  0.2835 -1.7826
  862MOL0     H18906   5.374  11.723   4.571  0.6671  0.0668  1.6081
  862MOL0     H18907   5.367  11.887   4.614 -2.1335  0.4568 -1.2754
  862MOL0     H18908   5.586  11.758   4.572 -0.4301  0.9274  1.0796
  862MOL0     H18909   5.554  11.751   4.404 -0.0948 -0.0667 -0.2793
  862MOL0     H18910   5.562  12.009   4.415 -1.6643 -0.4780  1.1957
  862MOL0     H18911   5.606  11.989   4.592 -0.7251 -3.1151  1.5469
  862MOL0     H18912   5.742  11.850   4.371 -1.0811 -0.6529  1.1483
  862MOL0     H18913   5.803  12.017   4.404 -1.8745  1.5713  1.2203
  862MOL0     H18914   5.923  11.956   4.780 -2.6097 -0.1101 -2.4419
  862MOL0     H18915   6.258  11.961   4.913 -0.7339 -0.7061 -0.8829
  862MOL0     H18916   6.101  12.044   4.951 -0.6663  0.4996 -0.9500
  862MOL0     H18917   6.243  12.131   4.886  2.4255 -0.1302  1.2880
  862MOL0     H18918   6.677  11.993   4.706  0.7108 -0.5690  0.3218
  862MOL0     H18919   6.887  12.141   4.711  0.1217  0.9119 -1.0952
  862MOL0     H18920   6.820  12.585   4.768  0.1351  1.1851  1.5877
  862MOL0     H18921   6.917  12.517   4.893 -0.8578  2.4239 -0.1405
  862MOL0     H18922   7.115  12.526   4.748 -1.4639 -0.6098 -0.8451
  862MOL0     H18923   7.014  12.583   4.616  0.6464 -5.0987 -0.0239
  862MOL0     H18924   6.943  12.763   4.819  1.2321 -0.5338  3.2701
  862MOL0     H18925   7.067  12.801   4.698 -1.3355  0.4211 -0.5677
  862MOL0     H18926   7.137  12.644   4.952  1.3270 -0.3649  0.1389
  862MOL0     H18927   7.107  12.816   4.968 -0.3931 -0.1638  0.1675
  862MOL0     H18928   7.304  12.708   4.760  0.3093  2.4243 -1.9148
  862MOL0     H18929   7.251  12.877   4.810 -1.6725  0.5576  0.1059
  862MOL0     H18930   7.378  12.673   4.996 -5.1934 -0.0117 -1.8337
  862MOL0     H18931   7.352  12.836   5.026  1.7619  0.6949 -0.3616
  862MOL0     H18932   7.488  12.888   4.815  0.2788 -0.5014  1.2651
  862MOL0     H18933   7.523  12.706   4.820 -3.2894 -0.9637  0.0802
  862MOL0     H18934   7.665  12.748   5.015  2.6416 -1.4488 -2.8910
  862MOL0     H18935   7.601  12.914   5.033  1.9146 -1.5737  2.6239
  862MOL0     H18936   6.651  12.481   4.809  1.4523  0.2084 -1.7808
  862MOL0     H18937   6.448  12.350   4.809  0.6813  3.1971 -2.1792
  862MOL0     H18938   6.269  11.969   4.435 -1.6117 -1.5240 -2.4120
  862MOL0     H18939   6.041  11.912   4.375 -3.1654 -0.3579  1.0907
  862MOL0     H18940   5.404  11.328   3.944 -1.9286  0.3693  1.3372
  862MOL0     H18941   5.650  11.266   3.939  0.0691  0.2036 -0.7394
  862MOL0     H18942   5.902  10.916   4.194  0.4298 -0.3610 -1.0220
  862MOL0     H18943   6.120  10.800   4.221  1.9211 -0.8631  1.3868
  862MOL0     H18944   6.441  11.035   4.338  3.5321 -2.3693  1.8949
  862MOL0     H18945   6.294  10.953   4.383 -0.3114 -0.3516 -1.5442
  862MOL0     H18946   6.413  10.740   4.383  0.6741 -0.4313  1.4690
  862MOL0     H18947   6.457  10.861   4.502  1.3817  0.7940  0.0451
  862MOL0     H18948   6.662  10.749   4.399  0.3523  0.6087  0.4822
  862MOL0     H18949   6.613  10.813   4.238  3.6590 -0.9270  0.0317
  862MOL0     H18950   6.699  10.972   4.485 -0.4090  0.0105  0.6119
  862MOL0     H18951   6.634  11.038   4.339 -1.8226 -2.0181  0.6322
  862MOL0     H18952   7.029  10.909   4.214  1.7940 -0.8384  1.1839
  862MOL0     H18953   6.318  11.172   4.088  0.3923 -0.7693 -0.5971
  862MOL0     H18954   6.031  11.369   4.077 -0.0625  1.2424 -2.4173
  862MOL0     H18955   6.192  11.351   4.045 -0.3478 -0.2437  1.3847
  862MOL0     H18956   6.081  11.296   3.916  0.0338 -0.8309 -0.6610
  863MOL0     O18957   9.239   3.739   1.751  0.3634 -0.0912  0.6255
  863MOL0     C18958   9.172   3.721   1.849 -0.1180 -0.3645 -0.0197
  863MOL0     O18959   9.157   3.808   1.953  0.0223  0.3030  0.6608
  863MOL0     C18960   9.237   3.915   1.950  0.9423  0.6201 -0.3007
  863MOL0     C18961   9.184   4.040   1.908  0.3025  0.3038  0.1756
  863MOL0     C18962   9.260   4.161   1.930  0.4534 -0.1053 -0.0787
  863MOL0     C18963   9.387   4.150   1.996  0.6679 -0.6728 -0.5522
  863MOL0     O18964   9.464   4.261   2.028  0.5372  0.2667  0.5361
  863MOL0     C18965   9.426   4.401   1.999  1.0097 -0.1316  1.1010
  863MOL0     C18966   9.531   4.490   2.078 -0.3310 -0.3011  0.4884
  863MOL0     C18967   9.504   4.643   2.060 -1.5084  0.0541 -0.3884
  863MOL0     C18968   9.610   4.718   2.144  0.1088  0.6062 -0.7749
  863MOL0     C18969   9.620   4.864   2.118  0.5289 -0.5227  0.2834
  863MOL0     C18970   9.717   4.941   2.210 -0.6064  0.0273 -0.1853
  863MOL0     C18971   9.704   5.095   2.173  0.0344 -0.0228 -0.1273
  863MOL0     C18972   9.807   5.170   2.270 -0.0730 -0.2286  0.3245
  863MOL0     N18973   9.820   5.311   2.242  0.3383  0.3420 -0.1256
  863MOL0     C18974   9.727   5.414   2.255 -0.3875  0.1871 -0.5985
  863MOL0     C18975   9.793   5.535   2.252 -0.4118 -0.0649 -0.5815
  863MOL0     C18976   9.733   5.666   2.280 -0.7122 -0.1263 -0.4790
  863MOL0     C18977   9.739   5.754   2.156 -0.4266 -0.4757 -0.5131
  863MOL0     C18978   9.874   5.820   2.155  0.8503 -0.2912  0.9140
  863MOL0     C18979   9.865   5.935   2.059  0.6740 -0.2700  0.8463
  863MOL0     O18980   9.983   6.021   2.088 -0.2508  0.2156  0.0285
  863MOL0     C18981  10.098   5.983   2.023 -0.4228  0.3228 -0.6716
  863MOL0     C18982  10.105   5.968   1.883 -0.4909  0.0137 -0.3988
  863MOL0     C18983  10.223   5.935   1.823  0.3321  0.9012 -0.3139
  863MOL0     C18984  10.235   5.957   1.677 -0.2323  0.2263  0.6681
  863MOL0     C18985  10.334   5.898   1.909 -0.2789  0.6539  0.8020
  863MOL0     C18986  10.471   5.877   1.851  0.5300 -0.0766  0.1206
  863MOL0     O18987  10.571   5.885   1.942 -0.4941 -0.1729 -0.1060
  863MOL0     C18988  10.697   5.848   1.912  0.2305 -0.0297  0.5809
  863MOL0     C18989  10.786   5.903   2.010 -0.2449  0.4603 -0.8586
  863MOL0     C18990  10.923   5.877   2.001 -0.5143 -0.3359  0.0129
  863MOL0     C18991  10.971   5.800   1.892 -0.3448  0.6516 -0.1645
  863MOL0     O18992  11.103   5.753   1.882  0.0386  0.1693 -0.0534
  863MOL0     C18993  11.209   5.819   1.950  1.2813 -0.9251 -0.3012
  863MOL0     C18994  11.335   5.753   1.914 -0.1550 -0.6246 -0.2123
  863MOL0     C18995  11.466   5.809   1.986  0.0888  0.4226  0.1182
  863MOL0     C18996  11.590   5.731   1.937  0.6654  0.0305 -0.1383
  863MOL0     C18997  11.712   5.755   2.022 -0.2382 -0.5954  0.2857
  863MOL0     C18998  11.821   5.653   1.969  0.4121 -0.6633  0.2076
  863MOL0     C18999  11.879   5.689   1.830 -1.2093 -0.2044  0.3683
  863MOL0     C19000  12.007   5.609   1.814 -0.1745 -0.0583 -0.0866
  863MOL0    Cl19001  12.155   5.680   1.889 -0.2320 -0.3736  0.0786
  863MOL0     C19002  10.885   5.734   1.811 -0.1736 -0.4722  0.9808
  863MOL0     C19003  10.748   5.766   1.817  0.5119 -0.3647 -0.6135
  863MOL0     O19004  10.487   5.861   1.729 -0.1548  0.6268  0.2809
  863MOL0     C19005  10.323   5.906   2.043 -0.3964 -1.3470 -0.6037
  863MOL0     C19006  10.211   5.965   2.102  0.9246 -0.2839  0.7925
  863MOL0     N19007   9.928   5.508   2.237  0.6761 -0.3041  0.0036
  863MOL0     N19008   9.936   5.375   2.221 -0.1677  0.1944 -0.0869
  863MOL0     C19009   9.445   4.020   2.020 -0.8228 -0.1945  0.3040
  863MOL0     C19010   9.366   3.909   2.006  0.2683  0.0880  0.0004
  863MOL0     C19011   9.076   3.610   1.852  0.2914 -0.1163  1.5760
  863MOL0     C19012   8.992   3.589   1.962  0.3881 -0.7677 -0.4741
  863MOL0     C19013   8.897   3.483   1.971  0.2593  0.7997  0.7616
  863MOL0     C19014   8.890   3.388   1.869 -0.3316 -0.1828  0.0848
  863MOL0     O19015   8.805   3.282   1.888  0.5967 -0.1676 -0.0534
  863MOL0     C19016   8.786   3.194   1.771 -0.1744  0.0413 -1.5311
  863MOL0     C19017   8.671   3.091   1.810  0.1830 -0.8034 -0.2006
  863MOL0     C19018   8.695   3.027   1.945 -0.1482  0.1366 -0.0658
  863MOL0     C19019   8.600   2.899   1.950  0.6325  0.1907 -0.5663
  863MOL0     C19020   8.650   2.811   2.064 -0.0195 -0.5656 -0.0215
  863MOL0     C19021   8.715   2.750   2.145 -0.0968 -0.7949  0.5450
  863MOL0     C19022   8.977   3.402   1.753  0.1316 -0.5408 -0.8524
  863MOL0     C19023   9.067   3.511   1.742  0.2729 -1.4113  0.6968
  863MOL0     C19024   9.142   3.514   1.610  0.6879 -0.2266  0.6623
  863MOL0     H19025   9.081   4.042   1.875  0.6631  2.9421 -1.0243
  863MOL0     H19026   9.220   4.259   1.905 -0.7763 -1.4883 -4.4359
  863MOL0     H19027   9.325   4.423   2.036 -0.2295 -1.0355 -1.4993
  863MOL0     H19028   9.433   4.426   1.893 -0.5000 -1.5162  0.6365
  863MOL0     H19029   9.528   4.458   2.183  3.8292 -1.2924  0.5031
  863MOL0     H19030   9.631   4.464   2.040 -0.1722 -1.4565  1.6109
  863MOL0     H19031   9.519   4.666   1.954  0.3693 -1.1019 -0.4228
  863MOL0     H19032   9.408   4.680   2.094 -0.5420  1.9425  0.4401
  863MOL0     H19033   9.574   4.705   2.246 -2.1138  0.3306 -1.5312
  863MOL0     H19034   9.710   4.678   2.129 -0.3352 -1.0821  0.5685
  863MOL0     H19035   9.517   4.898   2.136  0.9869  1.0695  0.0381
  863MOL0     H19036   9.642   4.887   2.014 -1.1207 -0.5715 -0.1016
  863MOL0     H19037   9.697   4.921   2.316  1.4954 -2.9546 -0.2187
  863MOL0     H19038   9.814   4.899   2.183 -0.6421 -0.0009 -0.2683
  863MOL0     H19039   9.608   5.147   2.182  0.5397  1.1430 -1.1635
  863MOL0     H19040   9.737   5.108   2.070  1.4046  1.9263  0.4915
  863MOL0     H19041   9.767   5.168   2.372 -0.7003 -1.2324  0.0759
  863MOL0     H19042   9.908   5.129   2.272 -1.0881 -2.9236  0.2168
  863MOL0     H19043   9.622   5.391   2.267 -0.5936  0.7976 -1.1553
  863MOL0     H19044   9.790   5.700   2.366  0.8364 -2.2951 -0.5502
  863MOL0     H19045   9.631   5.666   2.319  0.2964  3.5848  2.7305
  863MOL0     H19046   9.727   5.684   2.074  1.3073 -1.6444  0.1635
  863MOL0     H19047   9.661   5.830   2.170  2.1749  2.0022  2.0757
  863MOL0     H19048   9.903   5.856   2.254  0.8698 -0.5691  1.0105
  863MOL0     H19049   9.944   5.745   2.117 -0.1345  0.6609 -3.4056
  863MOL0     H19050   9.875   5.893   1.959  4.3111  4.2078 -1.0363
  863MOL0     H19051   9.770   5.987   2.072 -0.8498 -2.6066 -0.2808
  863MOL0     H19052  10.018   5.977   1.819  0.6337 -2.5633 -2.4454
  863MOL0     H19053  10.227   5.864   1.619  0.0269  0.7354 -0.2019
  863MOL0     H19054  10.328   6.008   1.651 -1.1787  1.7174  0.1170
  863MOL0     H19055  10.164   6.032   1.641 -0.0389 -1.1972 -3.1882
  863MOL0     H19056  10.755   5.963   2.095  0.2252  0.0020 -0.3543
  863MOL0     H19057  10.994   5.929   2.064 -0.6667 -1.6250  1.2814
  863MOL0     H19058  11.206   5.925   1.925  1.6328 -0.1106  2.7525
  863MOL0     H19059  11.197   5.806   2.058  3.0224  1.0169  0.1919
  863MOL0     H19060  11.333   5.645   1.932  1.2168 -0.6724 -0.2939
  863MOL0     H19061  11.352   5.771   1.808 -0.8845  1.1588 -0.0665
  863MOL0     H19062  11.458   5.775   2.090  3.6048  1.8900  0.9949
  863MOL0     H19063  11.481   5.916   1.975 -0.1654  0.3056 -1.6925
  863MOL0     H19064  11.614   5.750   1.832 -0.8664 -0.9228 -0.6904
  863MOL0     H19065  11.566   5.624   1.938  0.0543  0.1569 -0.8878
  863MOL0     H19066  11.744   5.859   2.025  0.1142 -0.6504 -1.1369
  863MOL0     H19067  11.679   5.736   2.125  0.9036 -0.8837  0.6116
  863MOL0     H19068  11.773   5.554   1.979  0.7036 -0.6062  3.0019
  863MOL0     H19069  11.906   5.654   2.037  0.6249  3.6508  0.1302
  863MOL0     H19070  11.908   5.793   1.811  0.5315 -0.6726  0.3042
  863MOL0     H19071  11.799   5.663   1.759  0.4205 -0.4286 -1.4618
  863MOL0     H19072  12.024   5.591   1.708 -1.1547 -1.5227 -0.0348
  863MOL0     H19073  11.987   5.511   1.859 -0.9767  0.0541 -0.1801
  863MOL0     H19074  10.921   5.664   1.736  3.7562  3.4670 -1.2335
  863MOL0     H19075  10.677   5.717   1.751  0.1480  0.7106 -1.0379
  863MOL0     H19076  10.410   5.900   2.108 -0.6080 -0.0166 -0.1758
  863MOL0     H19077  10.225   6.002   2.203 -1.0448  2.1271  0.2619
  863MOL0     H19078   9.545   4.007   2.060 -0.0774 -0.2824 -1.5116
  863MOL0     H19079   9.398   3.807   2.025  0.2886 -0.0143 -0.5679
  863MOL0     H19080   8.981   3.657   2.046 -0.8338  1.0810 -2.0433
  863MOL0     H19081   8.828   3.469   2.053  0.0300 -0.0154  0.4377
  863MOL0     H19082   8.762   3.257   1.685 -1.5414 -0.1133 -1.2785
  863MOL0     H19083   8.881   3.144   1.752 -1.5986 -3.0453 -1.0558
  863MOL0     H19084   8.668   3.012   1.734  2.0526 -1.0441 -0.0776
  863MOL0     H19085   8.576   3.144   1.817  0.2570 -0.8639  1.7129
  863MOL0     H19086   8.801   2.997   1.950 -0.1633 -0.3515 -1.9302
  863MOL0     H19087   8.671   3.087   2.034 -1.9266 -2.4356  1.3125
  863MOL0     H19088   8.602   2.847   1.853  2.6891 -1.2926  0.2084
  863MOL0     H19089   8.496   2.929   1.968  0.4421 -0.4376 -0.6000
  863MOL0     H19090   8.784   2.690   2.201  0.4994 -1.8407 -1.2241
  863MOL0     H19091   8.984   3.326   1.676 -0.7539 -0.4433 -1.0422
  863MOL0     H19092   9.099   3.446   1.536 -1.2296  2.4634 -0.8276
  863MOL0     H19093   9.138   3.616   1.571 -1.5404 -0.1897  0.8616
  863MOL0     H19094   9.246   3.485   1.625  1.5184  1.5920 -1.2388
  864MOL0     O19095   7.870   8.114   3.220 -0.5847 -0.0409  0.8363
  864MOL0     C19096   7.771   8.147   3.288  0.1862 -0.0464 -0.4180
  864MOL0     O19097   7.777   8.245   3.386  0.4092 -0.7077  0.6938
  864MOL0     C19098   7.878   8.335   3.380  0.3078  0.7071 -1.0524
  864MOL0     C19099   7.928   8.360   3.499 -0.3772  0.4899 -0.2359
  864MOL0     C19100   8.034   8.443   3.512  0.1259  0.4599 -0.0243
  864MOL0     C19101   8.089   8.515   3.405  0.4982  0.9649  0.6996
  864MOL0     O19102   8.196   8.597   3.416  0.3437  1.2870  0.9195
  864MOL0     C19103   8.268   8.613   3.538  0.7181  0.4295  0.1058
  864MOL0     C19104   8.380   8.718   3.524 -0.3646 -0.2940 -0.4726
  864MOL0     C19105   8.479   8.705   3.637  0.2855 -0.8752 -0.4938
  864MOL0     C19106   8.418   8.738   3.778 -0.6601  0.7089  0.7030
  864MOL0     C19107   8.532   8.710   3.875  0.3787 -0.3521 -0.3039
  864MOL0     C19108   8.491   8.722   4.016  0.4141 -0.7164 -0.1034
  864MOL0     C19109   8.609   8.721   4.106 -0.7854  0.5073  0.7230
  864MOL0     C19110   8.576   8.776   4.251  0.2627  0.4787 -0.0194
  864MOL0     N19111   8.587   8.925   4.264  0.1392  0.1177 -0.2918
  864MOL0     C19112   8.710   8.981   4.289  0.1349 -0.7817  1.4132
  864MOL0     C19113   8.691   9.115   4.286  0.2082  0.1130  0.1537
  864MOL0     C19114   8.796   9.216   4.302  0.2405  0.5811 -0.0074
  864MOL0     C19115   8.928   9.175   4.374 -1.6421  0.3576 -0.1630
  864MOL0     C19116   9.041   9.258   4.312  0.4777 -0.2011  0.3758
  864MOL0     C19117   9.181   9.234   4.380  0.1988  0.0201  0.5532
  864MOL0     O19118   9.264   9.346   4.341 -1.0914  0.5523 -0.5092
  864MOL0     C19119   9.290   9.443   4.436  0.3029  0.5105 -0.0144
  864MOL0     C19120   9.354   9.420   4.557 -0.7318 -0.5994 -0.6414
  864MOL0     C19121   9.413   9.526   4.630  0.8699 -0.4932 -0.2868
  864MOL0     C19122   9.526   9.498   4.730  0.9132  1.1949 -0.7270
  864MOL0     C19123   9.374   9.655   4.599 -0.2946  0.3295 -0.0473
  864MOL0     C19124   9.419   9.768   4.683 -0.6954  0.7449 -0.6021
  864MOL0     O19125   9.459   9.882   4.623 -0.4295  0.3504  0.6492
  864MOL0     C19126   9.533   9.969   4.695 -0.9481 -0.2328  0.1970
  864MOL0     C19127   9.681   9.967   4.709  0.6858 -0.9862 -0.5566
  864MOL0     C19128   9.751  10.074   4.771 -0.6211 -1.0450  0.5498
  864MOL0     C19129   9.674  10.183   4.815 -0.7295 -1.0411  0.7211
  864MOL0     O19130   9.752  10.276   4.875 -0.2607 -0.1702 -0.8261
  864MOL0     C19131   9.690  10.401   4.900  0.3963 -0.3334 -0.1793
  864MOL0     C19132   9.792  10.492   4.978  0.6546 -0.4349  0.1531
  864MOL0     C19133   9.880  10.574   4.873  0.4207 -0.6033  0.5100
  864MOL0     C19134  10.004  10.652   4.933  0.5692  0.0078  0.5856
  864MOL0     C19135  10.051  10.782   4.864  1.0062  0.3942 -0.3756
  864MOL0     C19136  10.192  10.835   4.891 -0.4746  0.4617 -0.6427
  864MOL0     C19137  10.219  10.953   4.813 -0.1001 -0.3639  0.7323
  864MOL0     C19138  10.365  11.001   4.845  0.4089 -0.7517  0.0234
  864MOL0    Cl19139  10.476  10.896   4.779  0.4489  0.2874  0.2485
  864MOL0     C19140   9.539  10.182   4.806 -0.3619  0.0269 -0.5179
  864MOL0     C19141   9.473  10.074   4.749  0.0724 -0.4802  0.3310
  864MOL0     O19142   9.408   9.753   4.809 -0.2276  0.0271  0.6487
  864MOL0     C19143   9.289   9.679   4.491 -0.2959  1.0013  0.0084
  864MOL0     C19144   9.261   9.571   4.406 -0.1355  0.1864 -0.3091
  864MOL0     N19145   8.559   9.135   4.271  0.2247  0.2676 -0.3643
  864MOL0     N19146   8.495   9.023   4.252  0.3771 -0.3683 -0.7359
  864MOL0     C19147   8.024   8.494   3.279 -0.0528  0.0634  0.0569
  864MOL0     C19148   7.923   8.398   3.269  0.1054  0.3823  0.6752
  864MOL0     C19149   7.644   8.074   3.267 -0.8680  0.3608  0.2769
  864MOL0     C19150   7.641   7.934   3.263 -0.4138 -0.0046 -0.2756
  864MOL0     C19151   7.516   7.871   3.249 -0.4967 -0.9084 -1.4691
  864MOL0     C19152   7.398   7.947   3.235  0.2661 -0.2361  0.1813
  864MOL0     O19153   7.278   7.897   3.215 -0.1756 -0.0660  0.2646
  864MOL0     C19154   7.269   7.759   3.170 -0.7086  1.2888  0.7082
  864MOL0     C19155   7.129   7.721   3.134 -0.4946 -0.6926 -0.4469
  864MOL0     C19156   7.080   7.805   3.016  0.4012 -0.4560  0.7461
  864MOL0     C19157   6.929   7.824   3.018  0.8425 -1.1958 -0.1981
  864MOL0     C19158   6.844   7.728   2.946  0.5585 -0.4234 -0.1363
  864MOL0     C19159   6.781   7.631   2.907 -0.1006 -1.2965  0.0428
  864MOL0     C19160   7.407   8.086   3.219 -0.2658  0.1473 -1.1171
  864MOL0     C19161   7.525   8.144   3.237 -0.4932  0.6457 -1.0617
  864MOL0     C19162   7.516   8.296   3.237  0.5614  0.2887 -0.0444
  864MOL0     H19163   7.895   8.310   3.589 -0.4185  0.0842 -0.4740
  864MOL0     H19164   8.064   8.459   3.616  1.5948 -3.7917  0.4296
  864MOL0     H19165   8.316   8.518   3.562 -2.1362 -0.5507  2.4547
  864MOL0     H19166   8.202   8.639   3.621 -0.6600 -0.9385 -0.5157
  864MOL0     H19167   8.432   8.721   3.428  0.8166 -0.6972  0.1410
  864MOL0     H19168   8.340   8.818   3.545  2.3846  0.6130  0.9277
  864MOL0     H19169   8.525   8.606   3.637  2.2402 -0.0108 -0.4920
  864MOL0     H19170   8.561   8.777   3.639 -0.2906 -0.1325  3.2037
  864MOL0     H19171   8.397   8.844   3.794 -3.6309  0.5450 -1.2900
  864MOL0     H19172   8.329   8.678   3.799 -0.7072  0.2949 -0.5862
  864MOL0     H19173   8.618   8.774   3.855  0.7050 -0.9578 -0.8764
  864MOL0     H19174   8.549   8.604   3.857 -3.9434 -1.8084  2.4952
  864MOL0     H19175   8.440   8.819   4.025  2.6715  0.4442  1.0263
  864MOL0     H19176   8.428   8.637   4.046  0.0426  0.2270  1.9626
  864MOL0     H19177   8.692   8.780   4.066 -0.4828 -1.1253 -1.2431
  864MOL0     H19178   8.658   8.623   4.106  1.5621  1.5745 -1.4635
  864MOL0     H19179   8.476   8.735   4.269  1.5032 -2.1863  1.4131
  864MOL0     H19180   8.654   8.733   4.315  0.5641  2.7280  1.2281
  864MOL0     H19181   8.809   8.937   4.298  0.1395 -0.5659  2.6533
  864MOL0     H19182   8.763   9.303   4.360  0.5067  1.7623 -1.5607
  864MOL0     H19183   8.828   9.240   4.200  3.3416  1.7701  1.1502
  864MOL0     H19184   8.925   9.183   4.483  1.2931 -0.9560  0.1181
  864MOL0     H19185   8.953   9.069   4.358 -1.5130  0.5172 -1.0567
  864MOL0     H19186   9.048   9.227   4.207 -2.7365 -0.8419  0.2591
  864MOL0     H19187   9.012   9.363   4.324 -0.3859 -0.3325 -0.4796
  864MOL0     H19188   9.179   9.223   4.489  0.5743 -0.5156  0.5098
  864MOL0     H19189   9.227   9.144   4.337 -0.2700 -0.5990  1.3330
  864MOL0     H19190   9.377   9.316   4.579  1.8081  0.6603  3.6766
  864MOL0     H19191   9.496   9.525   4.832  0.8711 -0.8155 -0.1573
  864MOL0     H19192   9.613   9.560   4.706  0.4057  1.8185 -0.9984
  864MOL0     H19193   9.550   9.392   4.716  0.5171  1.3794 -3.1641
  864MOL0     H19194   9.743   9.880   4.688  1.6650 -1.1652  2.6227
  864MOL0     H19195   9.859  10.065   4.783 -0.6713  0.5698  2.9713
  864MOL0     H19196   9.662  10.453   4.808  2.4130  0.1606 -0.5611
  864MOL0     H19197   9.610  10.369   4.968 -1.1182  0.4067 -1.5332
  864MOL0     H19198   9.744  10.567   5.040  3.8441  0.4892  1.7284
  864MOL0     H19199   9.860  10.435   5.042  0.9607 -0.9573 -0.6170
  864MOL0     H19200   9.822  10.646   4.815  2.8308  0.4085 -0.8061
  864MOL0     H19201   9.930  10.513   4.798  1.2635 -0.6877  1.1215
  864MOL0     H19202  10.082  10.575   4.939  1.3276  0.6874 -0.2523
  864MOL0     H19203   9.979  10.689   5.032 -2.2570 -0.7312  0.2464
  864MOL0     H19204  10.031  10.779   4.757  0.6532  2.4511 -0.4100
  864MOL0     H19205   9.979  10.858   4.895 -1.4032 -1.2715 -1.6361
  864MOL0     H19206  10.264  10.758   4.861 -0.0473  1.1387 -1.4253
  864MOL0     H19207  10.211  10.838   4.998  1.5024 -2.8849 -0.7398
  864MOL0     H19208  10.151  11.032   4.847  0.2590 -0.7868  2.5059
  864MOL0     H19209  10.223  10.936   4.705  3.2089 -2.1379  0.9981
  864MOL0     H19210  10.369  10.994   4.954 -3.0252 -2.1426  0.1674
  864MOL0     H19211  10.385  11.104   4.815 -2.5687 -0.0686  0.0664
  864MOL0     H19212   9.477  10.260   4.847 -1.7119 -1.0552 -0.4282
  864MOL0     H19213   9.365  10.059   4.744  0.0638 -0.7845  1.2086
  864MOL0     H19214   9.265   9.781   4.464 -1.9596 -0.0451 -2.9818
  864MOL0     H19215   9.212   9.599   4.313  1.0159  2.9356 -0.1760
  864MOL0     H19216   8.054   8.564   3.202  1.5916 -1.5476 -0.8486
  864MOL0     H19217   7.879   8.382   3.171  2.3002  2.4126 -0.7535
  864MOL0     H19218   7.733   7.879   3.279  0.2151  0.7117 -1.2841
  864MOL0     H19219   7.508   7.762   3.243  1.7757 -1.2019 -0.4171
  864MOL0     H19220   7.328   7.754   3.078  0.9667  0.4975  1.7774
  864MOL0     H19221   7.303   7.678   3.236  1.0354  0.1801 -1.4446
  864MOL0     H19222   7.075   7.740   3.227 -0.1232  3.9402 -0.9728
  864MOL0     H19223   7.121   7.613   3.114  0.4531 -1.2464  1.8585
  864MOL0     H19224   7.106   7.911   3.029 -2.1981  0.6111 -1.6126
  864MOL0     H19225   7.109   7.767   2.918  0.1037 -2.4623  1.3968
  864MOL0     H19226   6.915   7.926   2.982  1.2951 -0.7084  0.9889
  864MOL0     H19227   6.894   7.832   3.121  1.6024 -0.1035 -0.0056
  864MOL0     H19228   6.717   7.550   2.876 -1.2357 -0.2382 -0.4689
  864MOL0     H19229   7.309   8.132   3.211 -1.6062 -2.4814 -1.0318
  864MOL0     H19230   7.552   8.341   3.330 -0.2534 -1.0741  0.9634
  864MOL0     H19231   7.575   8.331   3.152  1.2290  1.2186  0.7736
  864MOL0     H19232   7.417   8.338   3.215 -0.5643 -2.2216 -0.1039
  865MOL0     O19233   5.867   2.498   7.382  0.2287 -0.2825  0.4399
  865MOL0     C19234   5.841   2.572   7.482  0.0431  1.1390  0.7625
  865MOL0     O19235   5.925   2.679   7.526  0.4955 -0.5928  0.7690
  865MOL0     C19236   6.056   2.709   7.482  0.2704  0.2445 -0.0650
  865MOL0     C19237   6.130   2.790   7.565  0.8191  0.7605  0.0374
  865MOL0     C19238   6.264   2.825   7.547 -0.1631 -0.3112 -1.8452
  865MOL0     C19239   6.332   2.774   7.439 -0.4129 -0.1775  0.2695
  865MOL0     O19240   6.462   2.817   7.444  0.2510 -0.1164  0.2512
  865MOL0     C19241   6.553   2.710   7.454  0.5257 -0.6876 -0.8012
  865MOL0     C19242   6.699   2.763   7.438 -0.1706 -0.3841  0.0159
  865MOL0     C19243   6.796   2.651   7.457  0.3439 -0.8517  0.2867
  865MOL0     C19244   6.935   2.694   7.387 -0.2267  0.4951 -1.0008
  865MOL0     C19245   7.054   2.605   7.425 -0.6440 -0.0310 -0.4780
  865MOL0     C19246   7.036   2.457   7.414  0.1417  0.0785  0.2879
  865MOL0     C19247   7.013   2.417   7.270  0.4668 -0.0457  0.2902
  865MOL0     C19248   7.000   2.261   7.268 -0.6008 -0.1021 -0.3407
  865MOL0     N19249   7.033   2.194   7.149  1.0215 -0.5802  0.3791
  865MOL0     C19250   7.079   2.248   7.028 -0.7043 -0.1280 -0.4794
  865MOL0     C19251   7.073   2.145   6.940 -0.4460  0.7810  0.2688
  865MOL0     C19252   7.074   2.166   6.785  0.2595 -1.0781 -1.2673
  865MOL0     C19253   6.942   2.227   6.732  0.2954 -0.0564  0.8903
  865MOL0     C19254   6.966   2.226   6.575  0.5238 -0.2388 -0.9375
  865MOL0     C19255   6.853   2.270   6.478  0.8312  0.1779 -0.6665
  865MOL0     O19256   6.821   2.409   6.505 -0.3203 -0.7675 -0.1805
  865MOL0     C19257   6.710   2.451   6.583 -0.4291  0.8291  0.2111
  865MOL0     C19258   6.681   2.589   6.594  1.2112 -0.0630 -0.2736
  865MOL0     C19259   6.581   2.639   6.671  0.5185  0.3643 -0.2382
  865MOL0     C19260   6.569   2.787   6.647 -0.8664 -0.7260 -0.0225
  865MOL0     C19261   6.508   2.546   6.755  0.0972  0.2337 -0.1264
  865MOL0     C19262   6.399   2.595   6.847 -0.5807  0.0953  0.5090
  865MOL0     O19263   6.335   2.711   6.807  0.3301  0.1552  0.1039
  865MOL0     C19264   6.214   2.724   6.870  0.2668 -1.0959 -0.4299
  865MOL0     C19265   6.200   2.821   6.971 -0.6406 -0.0254 -0.8308
  865MOL0     C19266   6.074   2.844   7.036  0.0345 -0.2377  0.1469
  865MOL0     C19267   5.963   2.770   7.002 -0.1577  0.2836  0.5600
  865MOL0     O19268   5.846   2.807   7.059 -1.1429 -0.5572 -0.3568
  865MOL0     C19269   5.721   2.749   7.028  0.5369  1.0346 -0.0527
  865MOL0     C19270   5.606   2.807   7.124 -0.7612  0.5007  0.0207
  865MOL0     C19271   5.471   2.746   7.087 -0.2884  0.0479 -0.3499
  865MOL0     C19272   5.349   2.834   7.129  0.9256 -0.0830 -0.3763
  865MOL0     C19273   5.330   2.836   7.284  0.4731  0.0209 -0.9675
  865MOL0     C19274   5.375   2.971   7.339 -0.4092  0.2232  0.4010
  865MOL0     C19275   5.373   2.988   7.490  0.8466 -0.3501 -0.7111
  865MOL0     C19276   5.221   2.969   7.551 -0.2860  0.0589  0.2548
  865MOL0    Cl19277   5.229   2.995   7.728 -0.1019  0.1434  0.0166
  865MOL0     C19278   5.980   2.673   6.900  0.1637  0.8904 -1.1266
  865MOL0     C19279   6.104   2.657   6.831 -0.4638 -0.6415 -0.2939
  865MOL0     O19280   6.378   2.528   6.944 -0.2508  0.3660 -0.7870
  865MOL0     C19281   6.530   2.409   6.743  0.3567 -0.0026 -0.7097
  865MOL0     C19282   6.625   2.366   6.652  0.1656  0.2186 -0.7511
  865MOL0     N19283   7.030   2.034   7.006 -0.1566  0.9563 -0.1114
  865MOL0     N19284   7.001   2.066   7.132  0.1171  0.0312  0.1027
  865MOL0     C19285   6.262   2.697   7.346  1.0655 -0.5220  0.0471
  865MOL0     C19286   6.126   2.659   7.372  0.3109 -0.6294  0.4237
  865MOL0     C19287   5.706   2.555   7.538  0.1802  0.8859  0.5454
  865MOL0     C19288   5.602   2.507   7.449 -0.5168 -0.9552  0.6640
  865MOL0     C19289   5.467   2.509   7.484  0.0027  0.4215  0.5083
  865MOL0     C19290   5.423   2.565   7.609  0.0143 -0.6954  0.4250
  865MOL0     O19291   5.293   2.593   7.644  0.8981  0.0204 -0.1052
  865MOL0     C19292   5.196   2.557   7.544  0.3943 -0.3430  0.0981
  865MOL0     C19293   5.066   2.599   7.605 -0.1519 -0.1770 -0.5568
  865MOL0     C19294   4.947   2.557   7.528  0.5047 -0.1873  0.7686
  865MOL0     C19295   4.826   2.627   7.584  0.5775 -1.1353 -1.4815
  865MOL0     C19296   4.709   2.611   7.501 -0.4807  0.1511 -0.2318
  865MOL0     C19297   4.613   2.603   7.428  0.5740 -0.4918 -0.5911
  865MOL0     C19298   5.519   2.609   7.696 -0.9460 -0.7143  0.5513
  865MOL0     C19299   5.662   2.593   7.660  0.0754  0.3563  0.3357
  865MOL0     C19300   5.759   2.637   7.767  0.4769  0.5252 -0.0696
  865MOL0     H19301   6.080   2.827   7.654 -0.3954  2.1711 -1.1684
  865MOL0     H19302   6.305   2.890   7.623 -0.2494 -1.8647 -0.4000
  865MOL0     H19303   6.548   2.628   7.381  3.1504 -3.2452  1.6148
  865MOL0     H19304   6.533   2.668   7.553 -1.1512 -0.9971 -1.2474
  865MOL0     H19305   6.707   2.809   7.340  1.4867  1.9149  1.1435
  865MOL0     H19306   6.710   2.845   7.509 -0.1012 -1.2258  1.0142
  865MOL0     H19307   6.817   2.646   7.564 -1.2174  2.2045  0.8503
  865MOL0     H19308   6.755   2.558   7.417 -2.6669  0.3185  0.3342
  865MOL0     H19309   6.907   2.692   7.282  0.3745 -0.7440 -1.1616
  865MOL0     H19310   6.970   2.794   7.413  2.5414  0.3989 -3.8841
  865MOL0     H19311   7.079   2.620   7.531 -1.4740 -1.1428 -0.1033
  865MOL0     H19312   7.143   2.631   7.368 -0.5221  0.7463  0.0511
  865MOL0     H19313   7.135   2.421   7.444  0.2647  0.6781  0.6081
  865MOL0     H19314   6.966   2.413   7.486  0.0466  0.2087  0.2743
  865MOL0     H19315   7.104   2.454   7.221  0.3084 -2.5779 -2.1996
  865MOL0     H19316   6.930   2.466   7.219  0.5577 -0.3015 -0.1181
  865MOL0     H19317   7.063   2.219   7.347  1.4315 -3.0249 -3.2471
  865MOL0     H19318   6.901   2.227   7.300 -0.1695  0.3047  1.5345
  865MOL0     H19319   7.088   2.351   6.995 -3.1548  0.6511  0.9845
  865MOL0     H19320   7.086   2.068   6.739  0.2031 -1.2048 -1.0132
  865MOL0     H19321   7.156   2.235   6.763  0.1214 -1.3809 -2.8591
  865MOL0     H19322   6.856   2.165   6.761 -0.5204 -0.2007 -1.6339
  865MOL0     H19323   6.928   2.332   6.757 -0.3357 -0.1524  0.9587
  865MOL0     H19324   7.052   2.291   6.555  0.0006  0.8479  0.1801
  865MOL0     H19325   6.982   2.121   6.549 -0.4634 -0.4399 -0.7713
  865MOL0     H19326   6.896   2.263   6.378 -0.0144 -3.2682 -0.9161
  865MOL0     H19327   6.768   2.207   6.506  0.5993  2.2012  4.1999
  865MOL0     H19328   6.742   2.657   6.535  1.9798  1.3825  2.0064
  865MOL0     H19329   6.480   2.811   6.587 -2.6026 -0.3761  2.5390
  865MOL0     H19330   6.657   2.832   6.600  0.5021  1.4637  4.1548
  865MOL0     H19331   6.559   2.837   6.743  0.5207  0.4465 -0.4638
  865MOL0     H19332   6.287   2.885   6.986 -0.5149 -0.0500 -1.4196
  865MOL0     H19333   6.067   2.916   7.117  4.2274 -0.1017  0.6486
  865MOL0     H19334   5.684   2.778   6.929 -1.0667  1.1680  0.5626
  865MOL0     H19335   5.732   2.640   7.034  3.3740  1.2701  0.5897
  865MOL0     H19336   5.633   2.792   7.229 -1.8288  0.8890  0.3655
  865MOL0     H19337   5.596   2.915   7.108 -0.3327  0.4147 -0.9077
  865MOL0     H19338   5.456   2.641   7.116 -2.0132 -0.2767 -2.2310
  865MOL0     H19339   5.464   2.739   6.978  0.2039 -2.5824 -0.2906
  865MOL0     H19340   5.270   2.771   7.087  0.2623  0.1744  0.4701
  865MOL0     H19341   5.341   2.934   7.087  0.4592 -1.0917 -2.8933
  865MOL0     H19342   5.225   2.828   7.314  0.4686 -0.7842 -1.1607
  865MOL0     H19343   5.391   2.760   7.334 -0.5590 -0.5716 -0.5758
  865MOL0     H19344   5.311   3.047   7.292 -0.5705 -1.6899 -2.7477
  865MOL0     H19345   5.475   2.990   7.298  0.0971 -0.7305  1.1509
  865MOL0     H19346   5.403   3.088   7.522 -3.7432  0.9009  0.4487
  865MOL0     H19347   5.443   2.913   7.528  0.6017 -0.9693 -1.4612
  865MOL0     H19348   5.179   2.873   7.521 -0.6053  0.2479  0.0904
  865MOL0     H19349   5.147   3.038   7.510  0.1343  0.4842  0.2063
  865MOL0     H19350   5.886   2.626   6.871 -0.5116 -0.8218  3.1112
  865MOL0     H19351   6.104   2.581   6.754 -1.9632  0.0810 -1.0518
  865MOL0     H19352   6.476   2.336   6.802  1.0168 -2.0882 -2.5273
  865MOL0     H19353   6.632   2.258   6.641 -0.8241 -0.2014  1.9054
  865MOL0     H19354   6.303   2.651   7.256  1.0452  1.1316 -0.8465
  865MOL0     H19355   6.076   2.601   7.296 -0.4027 -3.4241  2.8442
  865MOL0     H19356   5.643   2.485   7.351 -0.8622  3.2893 -0.6525
  865MOL0     H19357   5.390   2.464   7.422  0.6599  1.9014 -1.5147
  865MOL0     H19358   5.213   2.620   7.455  2.1558  1.7802  1.8277
  865MOL0     H19359   5.191   2.452   7.514 -0.2561 -0.3674  0.2664
  865MOL0     H19360   5.058   2.706   7.630  1.6100 -0.0214 -0.5503
  865MOL0     H19361   5.050   2.555   7.704  0.1320  0.2983 -0.2944
  865MOL0     H19362   4.957   2.586   7.423 -0.8610  0.8406  0.9004
  865MOL0     H19363   4.932   2.449   7.533  1.7797 -0.5705 -2.0288
  865MOL0     H19364   4.850   2.732   7.605  3.0022 -1.6834 -1.2796
  865MOL0     H19365   4.798   2.584   7.680  0.9861  0.7733 -0.4553
  865MOL0     H19366   4.519   2.598   7.377  1.0717  1.1719 -1.7870
  865MOL0     H19367   5.485   2.672   7.778  3.2836  2.8845 -0.0509
  865MOL0     H19368   5.862   2.603   7.757  0.5787  1.2700 -1.9842
  865MOL0     H19369   5.761   2.747   7.768 -0.7891  0.5729 -0.6944
  865MOL0     H19370   5.728   2.602   7.866 -0.3256  1.0355 -0.1312
  866MOL0     O19371   4.091   3.962   4.763 -0.2362 -0.2523 -0.0561
  866MOL0     C19372   4.142   3.853   4.772  1.0294 -0.2062  0.4565
  866MOL0     O19373   4.086   3.738   4.725  0.1949 -0.1262 -0.0015
  866MOL0     C19374   3.965   3.733   4.654 -0.4837 -0.2340  0.4395
  866MOL0     C19375   3.928   3.836   4.558 -0.2116  0.2242  1.2034
  866MOL0     C19376   3.815   3.818   4.478 -0.0121 -0.6959  1.8697
  866MOL0     C19377   3.740   3.700   4.486 -1.0687  0.3683 -0.7148
  866MOL0     O19378   3.628   3.678   4.411  1.0300  0.1084  0.5327
  866MOL0     C19379   3.619   3.734   4.283  0.6290 -0.3155  0.0273
  866MOL0     C19380   3.504   3.672   4.211 -0.1535 -1.3333  0.1243
  866MOL0     C19381   3.379   3.719   4.265  0.7742 -0.1842 -0.3943
  866MOL0     C19382   3.259   3.624   4.248 -0.0863 -0.4637  0.4456
  866MOL0     C19383   3.218   3.598   4.096 -0.1970 -0.2051  0.7271
  866MOL0     C19384   3.147   3.721   4.038  0.4670  0.2157 -0.1763
  866MOL0     C19385   3.070   3.690   3.900 -0.2137  0.0320 -0.0845
  866MOL0     C19386   2.943   3.609   3.908  0.0257  0.5892  0.5513
  866MOL0     N19387   2.855   3.645   3.805 -0.3696  0.1046  0.2698
  866MOL0     C19388   2.881   3.625   3.672 -0.0199  0.1429 -0.7981
  866MOL0     C19389   2.788   3.686   3.603  0.9870  0.0205  0.0973
  866MOL0     C19390   2.771   3.696   3.454  0.1734  0.8900 -0.6448
  866MOL0     C19391   2.652   3.619   3.386 -0.3894 -0.8779  0.0214
  866MOL0     C19392   2.528   3.704   3.377 -0.3175  0.5905  0.2235
  866MOL0     C19393   2.422   3.615   3.310  0.4947 -0.0717  0.7544
  866MOL0     O19394   2.451   3.575   3.178  0.3105 -0.0900 -0.6299
  866MOL0     C19395   2.372   3.485   3.115 -0.2171  0.5775  0.4984
  866MOL0     C19396   2.424   3.440   2.994  0.1815 -0.1789 -0.3292
  866MOL0     C19397   2.363   3.340   2.926  0.5446  0.4917  0.2166
  866MOL0     C19398   2.437   3.298   2.798  0.1377  0.2087  0.3221
  866MOL0     C19399   2.248   3.280   2.984  0.2833  0.3278  0.6829
  866MOL0     C19400   2.167   3.170   2.909 -0.4186 -0.2729 -0.5479
  866MOL0     O19401   2.054   3.116   2.971 -0.1261  0.4888 -0.4740
  866MOL0     C19402   2.018   2.996   2.911  0.7819 -0.3951 -0.7130
  866MOL0     C19403   2.089   2.881   2.938  0.0627 -0.6433  0.6435
  866MOL0     C19404   2.070   2.765   2.866 -0.2177 -0.1637 -0.2840
  866MOL0     C19405   1.956   2.750   2.788  0.1903  0.1879 -0.2449
  866MOL0     O19406   1.931   2.624   2.740  0.2038  0.0767  0.3485
  866MOL0     C19407   1.800   2.593   2.682 -0.3062 -0.0109 -0.2090
  866MOL0     C19408   1.697   2.560   2.797 -0.0688  0.4144 -0.1582
  866MOL0     C19409   1.647   2.418   2.810  0.1567 -0.8975  0.0691
  866MOL0     C19410   1.549   2.406   2.925 -0.4772  0.2707 -0.5135
  866MOL0     C19411   1.529   2.259   2.974 -0.5222 -0.6113  0.0102
  866MOL0     C19412   1.461   2.189   2.863 -0.7760  0.4365  0.6616
  866MOL0     C19413   1.404   2.054   2.910  0.3753  0.2251 -0.2331
  866MOL0     C19414   1.505   1.949   2.930  0.2224 -0.3206  0.3581
  866MOL0    Cl19415   1.432   1.778   2.938 -0.0528 -0.0808 -0.2305
  866MOL0     C19416   1.858   2.858   2.792 -0.0309  0.0661  0.0309
  866MOL0     C19417   1.899   2.981   2.845  0.8014 -0.3605  0.1295
  866MOL0     O19418   2.224   3.118   2.814  0.6857 -0.2544  0.7651
  866MOL0     C19419   2.191   3.324   3.102 -0.2183  0.4289  0.1160
  866MOL0     C19420   2.264   3.415   3.169  0.3483  0.1655  0.2459
  866MOL0     N19421   2.721   3.761   3.697  0.0144 -0.1256  0.1278
  866MOL0     N19422   2.750   3.735   3.815 -0.4188  0.2183  0.3564
  866MOL0     C19423   3.774   3.608   4.587  0.4392 -0.5943  0.5291
  866MOL0     C19424   3.882   3.624   4.677  0.0256 -0.6274 -0.1842
  866MOL0     C19425   4.266   3.847   4.848 -0.6559  1.0684 -0.3962
  866MOL0     C19426   4.279   3.746   4.935  0.5418  0.8571  0.3627
  866MOL0     C19427   4.392   3.730   5.019 -0.5699  0.6975  0.2553
  866MOL0     C19428   4.494   3.812   5.002 -0.2126  0.3524 -0.7715
  866MOL0     O19429   4.616   3.814   5.062 -0.2320 -0.5792 -0.2817
  866MOL0     C19430   4.645   3.729   5.173 -0.1091 -0.3540  0.4489
  866MOL0     C19431   4.800   3.719   5.177  0.2050  0.2335  0.0721
  866MOL0     C19432   4.848   3.693   5.314 -0.3998  0.2469  0.0774
  866MOL0     C19433   4.986   3.747   5.354 -0.3560  0.3183  0.9283
  866MOL0     C19434   5.024   3.679   5.478 -0.8959  1.2324  0.5644
  866MOL0     C19435   5.047   3.619   5.579 -0.6958  0.6948 -0.2238
  866MOL0     C19436   4.489   3.920   4.919 -0.8882 -0.8265 -0.2360
  866MOL0     C19437   4.370   3.943   4.848 -0.2872 -0.2090  0.5152
  866MOL0     C19438   4.374   4.061   4.753  0.2717  0.2523 -0.2893
  866MOL0     H19439   3.999   3.916   4.542 -0.7753  0.9412  2.2291
  866MOL0     H19440   3.795   3.896   4.406 -3.1614 -1.1793  2.1022
  866MOL0     H19441   3.706   3.709   4.223  0.2493  0.2448 -0.7626
  866MOL0     H19442   3.594   3.839   4.302 -1.4377 -0.7272 -0.1348
  866MOL0     H19443   3.505   3.701   4.105  1.4462 -0.8980  0.2429
  866MOL0     H19444   3.525   3.564   4.218 -0.1929 -1.2146  2.8285
  866MOL0     H19445   3.392   3.743   4.371  3.0104 -0.8320 -0.4695
  866MOL0     H19446   3.348   3.804   4.204 -1.2713 -0.9169 -0.4830
  866MOL0     H19447   3.286   3.533   4.303 -1.3901 -0.9515  0.3160
  866MOL0     H19448   3.173   3.673   4.296  0.8684 -1.0453  2.8809
  866MOL0     H19449   3.146   3.516   4.086 -0.7611  0.5462 -2.4010
  866MOL0     H19450   3.303   3.574   4.031 -0.1412 -2.2792  1.4865
  866MOL0     H19451   3.064   3.740   4.107  0.8702  0.7186  0.1755
  866MOL0     H19452   3.206   3.813   4.037 -0.6362  0.9383  0.0325
  866MOL0     H19453   3.133   3.634   3.831  0.8720 -0.0211  0.9215
  866MOL0     H19454   3.052   3.786   3.851 -0.0388 -0.2339 -0.6830
  866MOL0     H19455   2.958   3.501   3.898 -2.6114  0.3545 -2.2085
  866MOL0     H19456   2.893   3.628   4.003 -1.6018  2.0271 -0.5286
  866MOL0     H19457   2.963   3.579   3.619  1.4118  2.7532 -0.9857
  866MOL0     H19458   2.849   3.648   3.395 -0.4892 -0.8469 -0.1835
  866MOL0     H19459   2.768   3.802   3.429  0.5052  1.5296  1.8068
  866MOL0     H19460   2.680   3.584   3.287  0.8894 -1.2430  0.4942
  866MOL0     H19461   2.627   3.526   3.439  1.6834 -1.7153 -0.3693
  866MOL0     H19462   2.502   3.730   3.480  0.7721 -0.2425  0.7282
  866MOL0     H19463   2.539   3.792   3.312 -1.0926  1.5335  1.3161
  866MOL0     H19464   2.412   3.524   3.369  2.9273 -0.0469  1.3021
  866MOL0     H19465   2.332   3.674   3.328  1.0562  0.6362  1.3174
  866MOL0     H19466   2.518   3.479   2.956  0.6559 -3.0219 -2.4449
  866MOL0     H19467   2.474   3.198   2.822  0.1485 -0.2313 -1.3964
  866MOL0     H19468   2.525   3.360   2.779 -0.3043  1.1903  1.3214
  866MOL0     H19469   2.373   3.283   2.711 -0.8479 -0.6495  1.1596
  866MOL0     H19470   2.187   2.891   2.984  1.3836 -1.4038 -1.8358
  866MOL0     H19471   2.142   2.684   2.873 -0.8775 -1.1209 -3.0785
  866MOL0     H19472   1.761   2.676   2.624 -2.3428 -1.3205 -0.8303
  866MOL0     H19473   1.821   2.508   2.616  0.5417  0.3388 -0.3945
  866MOL0     H19474   1.728   2.586   2.899  0.1326 -3.3513  0.9128
  866MOL0     H19475   1.616   2.629   2.773  0.9568  2.8195  2.6488
  866MOL0     H19476   1.737   2.359   2.832  0.4541  0.5089  3.1838
  866MOL0     H19477   1.600   2.379   2.720  0.4867  0.2386 -0.6221
  866MOL0     H19478   1.456   2.461   2.910  0.2810  1.7837  0.0351
  866MOL0     H19479   1.588   2.454   3.015 -1.7383 -1.1671  0.8421
  866MOL0     H19480   1.626   2.212   2.992 -0.0238 -0.3434 -1.7965
  866MOL0     H19481   1.467   2.246   3.063  3.5645  0.2027  3.2608
  866MOL0     H19482   1.537   2.167   2.787  1.7243  1.1466  2.8099
  866MOL0     H19483   1.376   2.247   2.826 -1.2466 -1.0722 -0.7526
  866MOL0     H19484   1.335   2.021   2.833  0.6157 -0.2112 -0.2615
  866MOL0     H19485   1.345   2.061   3.002  2.6600  2.0993  1.2305
  866MOL0     H19486   1.580   1.965   3.009  0.2926  1.1106  0.0269
  866MOL0     H19487   1.563   1.935   2.838 -0.2171 -0.4200  0.0954
  866MOL0     H19488   1.768   2.860   2.732  0.3236  3.7218 -0.5718
  866MOL0     H19489   1.836   3.068   2.833  1.7728  0.5141  1.1474
  866MOL0     H19490   2.111   3.279   3.160  1.7652 -0.0765  2.6789
  866MOL0     H19491   2.226   3.446   3.266  0.1609  2.7028 -0.5427
  866MOL0     H19492   3.711   3.520   4.597 -1.3530  0.2696 -2.0908
  866MOL0     H19493   3.899   3.545   4.750  0.1886  0.8264  1.4236
  866MOL0     H19494   4.205   3.669   4.954  0.7020  0.2673 -1.2135
  866MOL0     H19495   4.393   3.647   5.089 -2.3520  0.9831  0.6517
  866MOL0     H19496   4.597   3.769   5.264  2.0373  2.2269  0.5710
  866MOL0     H19497   4.618   3.623   5.163 -1.6887  0.0838 -0.2469
  866MOL0     H19498   4.839   3.816   5.145  2.4639  0.0594  2.0787
  866MOL0     H19499   4.837   3.637   5.115  0.1016  2.6714 -3.6021
  866MOL0     H19500   4.768   3.735   5.377 -2.3505 -1.7885 -0.9344
  866MOL0     H19501   4.856   3.586   5.333 -0.3262  0.2275 -0.0683
  866MOL0     H19502   4.983   3.856   5.359  0.1307  0.6440 -2.6991
  866MOL0     H19503   5.054   3.732   5.270 -2.5234  0.8139 -1.0233
  866MOL0     H19504   5.072   3.578   5.675  2.3732 -2.6076 -2.1844
  866MOL0     H19505   4.571   3.992   4.921 -0.3079 -1.2292  4.8811
  866MOL0     H19506   4.451   4.134   4.779  0.0786  0.3902 -0.0951
  866MOL0     H19507   4.396   4.034   4.650 -0.7590 -0.1669 -0.4126
  866MOL0     H19508   4.281   4.119   4.752  1.1875  1.7822 -0.7604
  867MOL0     O19509   8.023   7.993   3.951  0.1532 -0.8237  0.1847
  867MOL0     C19510   7.939   8.067   3.898 -0.1606 -1.4307 -0.4316
  867MOL0     O19511   7.957   8.205   3.881  0.5030  0.0394  0.1937
  867MOL0     C19512   8.069   8.269   3.931 -0.5656 -0.0132  0.7676
  867MOL0     C19513   8.077   8.289   4.071  0.4328  0.2609  0.7521
  867MOL0     C19514   8.202   8.320   4.125  0.0736  0.1881  0.7444
  867MOL0     C19515   8.306   8.347   4.039 -0.2127  0.6916  1.0498
  867MOL0     O19516   8.427   8.381   4.092 -0.2209 -0.7496  0.0555
  867MOL0     C19517   8.526   8.270   4.091  0.5111 -0.2464  0.0130
  867MOL0     C19518   8.506   8.170   4.206 -0.7365  0.1057 -0.9228
  867MOL0     C19519   8.527   8.222   4.346  0.5602  0.1972 -0.1222
  867MOL0     C19520   8.473   8.128   4.460  0.7115 -0.4249  0.4018
  867MOL0     C19521   8.526   8.188   4.587  0.1466  0.2573  0.4334
  867MOL0     C19522   8.485   8.337   4.604 -0.5138 -0.3333 -0.4849
  867MOL0     C19523   8.525   8.380   4.748 -0.4481 -0.3122 -0.5351
  867MOL0     C19524   8.411   8.357   4.851 -0.2770  0.7112 -0.8995
  867MOL0     N19525   8.283   8.431   4.835  0.8454 -0.6438 -0.7284
  867MOL0     C19526   8.274   8.572   4.841 -0.1894  0.5764  0.7199
  867MOL0     C19527   8.138   8.602   4.832  0.2812  0.0297 -1.3087
  867MOL0     C19528   8.075   8.740   4.843  0.2651  0.1165 -0.2912
  867MOL0     C19529   8.077   8.780   4.988 -0.6751 -0.9036  0.2465
  867MOL0     C19530   8.007   8.688   5.087 -0.0823 -0.0089  0.1885
  867MOL0     C19531   7.868   8.646   5.041 -0.1031 -0.1360  0.2084
  867MOL0     O19532   7.823   8.532   5.123 -0.3383 -0.7678  0.2873
  867MOL0     C19533   7.695   8.541   5.171 -0.5685  0.0572  0.3067
  867MOL0     C19534   7.664   8.470   5.285 -0.8075  0.1422  0.9178
  867MOL0     C19535   7.538   8.478   5.342  0.2371 -0.0283 -0.3940
  867MOL0     C19536   7.501   8.393   5.457 -0.4193 -0.1401  0.1454
  867MOL0     C19537   7.439   8.567   5.294 -0.4857  0.1784 -0.7299
  867MOL0     C19538   7.303   8.581   5.336 -0.2452  0.5159  0.3930
  867MOL0     O19539   7.227   8.480   5.274  0.3022 -0.2893 -0.3602
  867MOL0     C19540   7.109   8.442   5.338  0.6209 -0.0473 -0.4436
  867MOL0     C19541   6.992   8.429   5.260  0.2683  1.2195 -1.0132
  867MOL0     C19542   6.867   8.406   5.310  0.2133  1.0369 -0.6079
  867MOL0     C19543   6.846   8.386   5.451 -0.8690 -0.9099  1.0343
  867MOL0     O19544   6.716   8.362   5.478  0.3420 -1.2948  0.1374
  867MOL0     C19545   6.688   8.286   5.600  0.8199 -0.3128  0.4119
  867MOL0     C19546   6.540   8.252   5.602  0.2028  0.6347 -0.5262
  867MOL0     C19547   6.494   8.146   5.502  0.0911 -0.0094 -0.3445
  867MOL0     C19548   6.345   8.176   5.499  0.4502  0.2037 -0.3362
  867MOL0     C19549   6.265   8.066   5.416 -0.4907 -0.4016 -0.1366
  867MOL0     C19550   6.120   8.095   5.435 -0.0726  0.0789 -0.0703
  867MOL0     C19551   6.029   8.006   5.347 -0.9261 -0.0133  0.6155
  867MOL0     C19552   5.905   7.977   5.420 -0.7946 -0.1561 -1.2355
  867MOL0    Cl19553   5.815   8.130   5.426 -0.1916 -0.2866  0.5911
  867MOL0     C19554   6.962   8.398   5.532 -0.5612 -0.3380 -0.3201
  867MOL0     C19555   7.093   8.425   5.480 -0.3262 -0.0699 -0.5948
  867MOL0     O19556   7.264   8.663   5.421 -0.1960 -0.0655  0.0939
  867MOL0     C19557   7.465   8.635   5.182  0.7718  0.7265 -0.3626
  867MOL0     C19558   7.591   8.622   5.113 -0.5116  0.3494 -0.6532
  867MOL0     N19559   8.075   8.480   4.818  0.5848  0.2454 -0.1792
  867MOL0     N19560   8.164   8.382   4.809 -0.5743  0.0881 -0.2770
  867MOL0     C19561   8.292   8.346   3.890  0.0196  0.3804 -1.1268
  867MOL0     C19562   8.176   8.298   3.839  0.3430 -0.3858 -0.8633
  867MOL0     C19563   7.825   8.007   3.827  0.5111  0.7388  0.2356
  867MOL0     C19564   7.744   8.072   3.726  0.0024 -0.4675  0.2576
  867MOL0     C19565   7.630   8.011   3.669 -0.0816 -0.3864 -0.0470
  867MOL0     C19566   7.587   7.879   3.704 -0.7958 -0.1911 -0.1662
  867MOL0     O19567   7.483   7.810   3.653 -0.0125 -0.4031  0.7863
  867MOL0     C19568   7.376   7.900   3.614  0.4359 -0.4124  0.3587
  867MOL0     C19569   7.248   7.817   3.608  0.3986 -0.2735  0.7821
  867MOL0     C19570   7.180   7.805   3.747  0.1371 -0.2831  0.2042
  867MOL0     C19571   7.083   7.693   3.767  0.1902  0.1003  0.5696
  867MOL0     C19572   6.958   7.714   3.692  0.9177 -0.2397  0.6338
  867MOL0     C19573   6.851   7.713   3.624  0.5329  0.1124 -0.5239
  867MOL0     C19574   7.676   7.806   3.785  0.7874  0.0721  1.2482
  867MOL0     C19575   7.781   7.872   3.851 -0.5637  0.9584 -0.7240
  867MOL0     C19576   7.847   7.785   3.949 -0.2402  1.3854  0.5333
  867MOL0     H19577   7.985   8.268   4.124 -0.7613 -2.1019 -1.9712
  867MOL0     H19578   8.210   8.324   4.233 -1.1348 -0.6217  0.8809
  867MOL0     H19579   8.629   8.308   4.099  1.0124 -1.0990 -1.7944
  867MOL0     H19580   8.512   8.220   3.995 -1.8282 -0.7143  0.5470
  867MOL0     H19581   8.404   8.134   4.187 -0.2252 -1.4034 -1.0007
  867MOL0     H19582   8.582   8.091   4.203  1.2935  1.3433  5.2239
  867MOL0     H19583   8.632   8.248   4.361  1.2053 -2.6827  1.2380
  867MOL0     H19584   8.462   8.309   4.355 -0.4274 -0.5454  0.1756
  867MOL0     H19585   8.364   8.129   4.445  0.7263  0.6468  0.2456
  867MOL0     H19586   8.505   8.024   4.453  2.4841  0.0346  1.0966
  867MOL0     H19587   8.635   8.191   4.580  0.1479 -0.5915  0.0289
  867MOL0     H19588   8.518   8.121   4.672 -0.9842  0.7515  0.7396
  867MOL0     H19589   8.556   8.389   4.539  0.5016 -0.4678  0.4732
  867MOL0     H19590   8.389   8.357   4.556  0.4190 -1.8845 -3.2369
  867MOL0     H19591   8.547   8.488   4.750  0.0936 -0.3823 -1.7421
  867MOL0     H19592   8.612   8.323   4.782  0.0908  0.9810  0.3363
  867MOL0     H19593   8.394   8.250   4.836 -1.6318  0.5633  1.1948
  867MOL0     H19594   8.452   8.381   4.950  1.1772 -0.0187 -1.2962
  867MOL0     H19595   8.362   8.634   4.844  1.2950 -1.3433 -0.8282
  867MOL0     H19596   7.969   8.750   4.819  0.1439 -1.2252 -0.4125
  867MOL0     H19597   8.139   8.794   4.772  0.8557 -1.1295 -0.7378
  867MOL0     H19598   8.180   8.793   5.023 -1.6892 -0.9790  3.7108
  867MOL0     H19599   8.024   8.873   5.011 -1.4683 -1.0250 -1.0362
  867MOL0     H19600   8.068   8.598   5.097  1.1659  0.6073 -1.4635
  867MOL0     H19601   7.994   8.737   5.185  0.1318 -1.0453  0.7473
  867MOL0     H19602   7.809   8.737   5.059  0.7628  0.4901 -0.0772
  867MOL0     H19603   7.870   8.623   4.934  1.1096  2.8027 -0.4928
  867MOL0     H19604   7.740   8.409   5.333 -0.6623  0.4296  1.0552
  867MOL0     H19605   7.438   8.316   5.413  0.9404 -1.5033  0.4661
  867MOL0     H19606   7.452   8.440   5.543  3.2121  0.2104  2.2478
  867MOL0     H19607   7.591   8.359   5.510 -1.3879  1.6159  3.1116
  867MOL0     H19608   7.009   8.449   5.155 -1.4256  3.7763 -0.8816
  867MOL0     H19609   6.775   8.389   5.255 -1.5459 -0.6735  2.6162
  867MOL0     H19610   6.744   8.193   5.586 -1.2187 -1.8764  2.1065
  867MOL0     H19611   6.727   8.333   5.691  0.7308  0.9853 -0.1964
  867MOL0     H19612   6.520   8.207   5.700  2.4556 -0.2851 -0.4255
  867MOL0     H19613   6.486   8.346   5.586 -0.3938  0.2410 -0.8439
  867MOL0     H19614   6.513   8.048   5.548 -0.7317  0.3071  0.7189
  867MOL0     H19615   6.534   8.147   5.401  0.6816  0.3319 -0.1093
  867MOL0     H19616   6.333   8.274   5.450 -1.4673  0.9466  1.5002
  867MOL0     H19617   6.303   8.186   5.599  0.9715 -0.9985  0.0124
  867MOL0     H19618   6.292   8.076   5.310 -1.7936 -0.9112 -0.5385
  867MOL0     H19619   6.289   7.967   5.454 -1.2758 -0.8091 -0.6696
  867MOL0     H19620   6.106   8.200   5.407  2.7733  0.3928 -0.5905
  867MOL0     H19621   6.089   8.082   5.540 -4.2096  0.6060 -1.0535
  867MOL0     H19622   6.081   7.913   5.321 -2.8857 -0.9279 -0.1805
  867MOL0     H19623   6.007   8.056   5.253  0.2300 -2.8732 -1.3115
  867MOL0     H19624   5.924   7.951   5.524 -2.6405 -0.3436 -0.9005
  867MOL0     H19625   5.842   7.900   5.374 -0.6267  0.0240 -1.7729
  867MOL0     H19626   6.964   8.387   5.640  0.2500  3.8010  0.2813
  867MOL0     H19627   7.185   8.429   5.537 -0.7193  0.0008  0.0516
  867MOL0     H19628   7.395   8.697   5.127  0.4403 -0.9836 -1.9961
  867MOL0     H19629   7.609   8.679   5.022  0.2400  1.3667  0.1095
  867MOL0     H19630   8.373   8.372   3.822  2.9562 -0.7959  1.6440
  867MOL0     H19631   8.163   8.271   3.734  3.0864 -1.2534 -1.0816
  867MOL0     H19632   7.770   8.174   3.700  2.2759 -1.1907 -0.5374
  867MOL0     H19633   7.580   8.062   3.587 -1.9830 -0.5951  0.9432
  867MOL0     H19634   7.364   7.983   3.683 -2.7092  1.4417 -2.1381
  867MOL0     H19635   7.400   7.928   3.511  1.5425  2.1127  1.2359
  867MOL0     H19636   7.255   7.718   3.562  0.4556  0.1731 -0.2041
  867MOL0     H19637   7.182   7.866   3.537 -0.7642  0.3251  2.2323
  867MOL0     H19638   7.256   7.786   3.823 -0.6408  0.0119  1.0647
  867MOL0     H19639   7.129   7.894   3.784  0.1306 -0.0310 -0.3937
  867MOL0     H19640   7.068   7.693   3.876  1.9205 -0.4224  0.8344
  867MOL0     H19641   7.129   7.598   3.740  3.0020  1.5183  0.0244
  867MOL0     H19642   6.763   7.702   3.563  1.3249  0.1978 -1.7339
  867MOL0     H19643   7.655   7.700   3.796 -0.4370  0.1747  0.1470
  867MOL0     H19644   7.847   7.842   4.042  2.0780  0.9069  0.8937
  867MOL0     H19645   7.811   7.682   3.953  0.8295  0.8739 -1.3763
  867MOL0     H19646   7.949   7.774   3.911 -0.0282 -0.8994  1.5964
  868MOL0     O19647   6.833   2.667   2.383  2.1675  0.7792  0.6144
  868MOL0     C19648   6.882   2.558   2.349 -0.1201  0.3809 -0.8449
  868MOL0     O19649   7.018   2.534   2.353  0.3030 -0.5047 -0.2049
  868MOL0     C19650   7.106   2.634   2.361  0.7598  0.5440  0.0207
  868MOL0     C19651   7.105   2.746   2.267  0.1572  0.3993 -0.1368
  868MOL0     C19652   7.209   2.845   2.273  0.5504  0.7455  0.1193
  868MOL0     C19653   7.313   2.833   2.361  0.4114  0.2246 -0.1067
  868MOL0     O19654   7.420   2.908   2.365 -0.9182  0.5147  0.0569
  868MOL0     C19655   7.397   3.049   2.355 -0.3334 -0.3553  0.1685
  868MOL0     C19656   7.506   3.129   2.422 -0.5578  0.1732 -0.3596
  868MOL0     C19657   7.651   3.098   2.384  0.7674 -0.1113  0.8811
  868MOL0     C19658   7.734   3.168   2.493 -0.0365 -0.2664 -0.0543
  868MOL0     C19659   7.883   3.139   2.469  0.8815 -0.1996 -0.1238
  868MOL0     C19660   7.925   2.994   2.442  0.3432 -0.5343  0.3851
  868MOL0     C19661   7.893   2.904   2.561 -0.3088 -0.1977 -0.2811
  868MOL0     C19662   7.943   2.763   2.536 -0.3538 -1.1134  0.2915
  868MOL0     N19663   7.882   2.702   2.420 -0.5686 -0.6097 -0.6214
  868MOL0     C19664   7.748   2.711   2.383 -0.1310  0.1858 -0.3145
  868MOL0     C19665   7.743   2.675   2.253  0.2488 -0.5079 -0.2586
  868MOL0     C19666   7.619   2.672   2.168  0.0689 -0.5629 -0.0489
  868MOL0     C19667   7.535   2.542   2.196 -0.1164 -0.3837  0.4432
  868MOL0     C19668   7.410   2.547   2.106 -0.2259 -0.7000 -0.2071
  868MOL0     C19669   7.331   2.412   2.108 -0.1690 -0.1784  0.5617
  868MOL0     O19670   7.244   2.410   1.996  0.2396 -0.0028  0.0703
  868MOL0     C19671   7.164   2.298   1.992  0.8805 -0.7244 -0.0670
  868MOL0     C19672   7.187   2.202   1.898  0.7823 -0.6696  0.2476
  868MOL0     C19673   7.111   2.088   1.892  0.6276 -0.4953  0.0348
  868MOL0     C19674   7.141   2.007   1.770 -0.0336  0.0651  0.1797
  868MOL0     C19675   7.018   2.052   1.994  0.6116  0.5861 -0.5578
  868MOL0     C19676   6.948   1.925   1.990  0.3524  0.4006  0.0134
  868MOL0     O19677   6.820   1.911   2.037  0.3580  0.0508  0.7505
  868MOL0     C19678   6.725   1.809   2.011  0.9755 -0.4891 -0.0160
  868MOL0     C19679   6.594   1.839   2.064 -0.3288 -1.0282  0.4858
  868MOL0     C19680   6.489   1.748   2.040 -0.0199 -0.0713  0.2447
  868MOL0     C19681   6.523   1.622   1.993 -0.1654 -0.0702  0.3614
  868MOL0     O19682   6.428   1.527   1.964  0.1720  0.4458  0.8430
  868MOL0     C19683   6.299   1.521   2.039 -0.3718  0.3048  1.1036
  868MOL0     C19684   6.229   1.403   1.969  0.5250 -0.2087 -0.3338
  868MOL0     C19685   6.090   1.389   2.027  0.0490  0.5125  0.0455
  868MOL0     C19686   6.031   1.252   1.983 -0.2180  0.3360 -0.4360
  868MOL0     C19687   5.891   1.233   2.031 -0.3121 -0.8941 -0.3613
  868MOL0     C19688   5.843   1.091   2.018  0.2695 -0.4337 -0.5161
  868MOL0     C19689   5.694   1.081   2.063  0.7144  0.9254 -0.8813
  868MOL0     C19690   5.637   0.937   2.043  1.5013 -0.4772  0.3426
  868MOL0    Cl19691   5.456   0.924   2.072 -0.5024 -0.0218 -0.0676
  868MOL0     C19692   6.646   1.595   1.949 -0.2598 -0.3647 -0.6386
  868MOL0     C19693   6.749   1.693   1.945 -0.7411  0.8807 -0.1646
  868MOL0     O19694   7.021   1.831   1.965  0.0195 -0.1173 -1.2182
  868MOL0     C19695   6.982   2.160   2.087 -0.4541  0.1997 -0.0621
  868MOL0     C19696   7.057   2.283   2.084 -0.1505  1.1228 -0.4861
  868MOL0     N19697   7.871   2.654   2.205 -0.1478 -0.2720 -0.0945
  868MOL0     N19698   7.949   2.674   2.304  0.6188  0.5171  0.1364
  868MOL0     C19699   7.331   2.714   2.427 -0.0893 -0.4183 -0.5296
  868MOL0     C19700   7.223   2.621   2.429 -0.6413 -0.1720  0.2080
  868MOL0     C19701   6.794   2.436   2.337 -0.1989  0.0712  0.0516
  868MOL0     C19702   6.826   2.324   2.414  0.2721 -0.4485 -0.4610
  868MOL0     C19703   6.740   2.216   2.403 -0.8267 -0.3464 -0.0771
  868MOL0     C19704   6.626   2.223   2.329  0.4433  0.1857 -0.2852
  868MOL0     O19705   6.541   2.116   2.315 -0.4026 -0.0692 -0.4290
  868MOL0     C19706   6.419   2.132   2.389 -0.0859 -0.6272 -0.6828
  868MOL0     C19707   6.423   2.078   2.540 -0.8926 -0.0398 -0.4660
  868MOL0     C19708   6.411   1.930   2.565 -0.4200  0.3253  0.6582
  868MOL0     C19709   6.424   1.900   2.713  0.8263 -0.4635 -0.3821
  868MOL0     C19710   6.446   1.760   2.739  0.0260  0.2978  0.8420
  868MOL0     C19711   6.456   1.642   2.757 -0.4616 -0.9410 -0.2545
  868MOL0     C19712   6.601   2.326   2.241  0.0223  0.3381 -0.3677
  868MOL0     C19713   6.690   2.427   2.236 -0.0522 -0.3407 -0.1277
  868MOL0     C19714   6.681   2.529   2.128 -0.2853  0.6134 -0.0630
  868MOL0     H19715   7.023   2.756   2.197  1.7550  3.2057 -1.8144
  868MOL0     H19716   7.211   2.927   2.202  0.7070  0.3747 -0.3076
  868MOL0     H19717   7.303   3.083   2.399 -1.6229 -1.8708 -1.2305
  868MOL0     H19718   7.385   3.075   2.249  0.9011  1.6733  0.4840
  868MOL0     H19719   7.475   3.233   2.403 -0.0878  0.6532  1.2932
  868MOL0     H19720   7.489   3.114   2.529 -2.3164 -0.3431 -0.6660
  868MOL0     H19721   7.672   2.991   2.382  0.3440 -0.2100  1.4757
  868MOL0     H19722   7.667   3.144   2.286  4.1883 -1.8901  0.4811
  868MOL0     H19723   7.704   3.272   2.504  3.4551  1.1512 -2.4089
  868MOL0     H19724   7.707   3.121   2.588  0.6714 -0.4747  0.0527
  868MOL0     H19725   7.943   3.185   2.547 -0.0181  0.1560  0.3767
  868MOL0     H19726   7.906   3.198   2.380  3.5391  1.3223  1.4595
  868MOL0     H19727   7.883   2.968   2.344  0.4502  4.4280 -1.2160
  868MOL0     H19728   8.034   2.992   2.434  0.5220  0.5138  2.1421
  868MOL0     H19729   7.785   2.909   2.576 -0.9115 -0.5474 -3.7359
  868MOL0     H19730   7.951   2.942   2.646 -0.2918  1.2751 -0.9116
  868MOL0     H19731   8.050   2.765   2.514 -0.4501  3.2826 -0.9072
  868MOL0     H19732   7.936   2.691   2.617  1.3381 -4.4921 -2.3248
  868MOL0     H19733   7.667   2.732   2.452  0.5750  0.5015  0.4404
  868MOL0     H19734   7.644   2.676   2.062 -0.8549 -3.9439 -0.5099
  868MOL0     H19735   7.545   2.750   2.189  0.2657 -1.1668  3.5862
  868MOL0     H19736   7.589   2.448   2.180  0.5594 -0.1448  1.2789
  868MOL0     H19737   7.511   2.546   2.302  2.8135  0.6489  1.1598
  868MOL0     H19738   7.339   2.625   2.137 -0.8811 -0.8079 -1.3760
  868MOL0     H19739   7.447   2.570   2.006  1.7336 -0.6747  0.4882
  868MOL0     H19740   7.385   2.318   2.094 -0.7683 -0.2189 -1.8845
  868MOL0     H19741   7.280   2.395   2.204  0.0609 -2.3074  0.3492
  868MOL0     H19742   7.253   2.225   1.815 -0.0672  0.2010 -0.2074
  868MOL0     H19743   7.047   1.978   1.721 -0.3710 -0.9872  1.4079
  868MOL0     H19744   7.201   1.920   1.795 -1.0009 -0.8998 -0.7797
  868MOL0     H19745   7.205   2.055   1.696  0.4083 -1.7378 -0.6474
  868MOL0     H19746   6.585   1.930   2.123  2.8987 -0.9933  1.1124
  868MOL0     H19747   6.390   1.781   2.071  0.9389  2.2422  1.1403
  868MOL0     H19748   6.295   1.501   2.147 -1.3830 -0.8634  0.8657
  868MOL0     H19749   6.247   1.614   2.013  3.4297  2.2561 -0.2241
  868MOL0     H19750   6.234   1.403   1.860  3.0621 -4.4014 -0.4178
  868MOL0     H19751   6.288   1.316   1.998 -0.3803  0.2295  3.2830
  868MOL0     H19752   6.023   1.467   1.989 -1.0574 -0.3767  0.1019
  868MOL0     H19753   6.095   1.394   2.136 -0.7345  0.9291  0.0692
  868MOL0     H19754   6.092   1.165   2.008 -0.9495 -0.0110  0.1617
  868MOL0     H19755   6.022   1.242   1.874  0.8902 -3.3456 -0.2990
  868MOL0     H19756   5.881   1.277   2.131  1.8941  1.1316 -0.9315
  868MOL0     H19757   5.819   1.299   1.982 -0.5198 -1.5642 -0.9691
  868MOL0     H19758   5.903   1.033   2.089  2.0073 -0.2312 -1.7589
  868MOL0     H19759   5.862   1.051   1.918 -1.2021 -1.0462 -0.5769
  868MOL0     H19760   5.641   1.157   2.005  4.2587  3.1521 -1.4620
  868MOL0     H19761   5.680   1.116   2.165  1.0023  3.8732 -1.7829
  868MOL0     H19762   5.684   0.872   2.118 -0.4226 -1.3605  0.8432
  868MOL0     H19763   5.648   0.898   1.942  0.1264 -0.4019  0.1432
  868MOL0     H19764   6.658   1.497   1.904 -2.4565 -2.7409  3.3051
  868MOL0     H19765   6.845   1.667   1.904 -0.4283 -0.3710  1.2829
  868MOL0     H19766   6.905   2.147   2.163  1.4519 -0.5806  1.8218
  868MOL0     H19767   7.036   2.362   2.156  1.2490  2.3913 -1.4125
  868MOL0     H19768   7.429   2.699   2.470 -0.2219 -0.9290 -0.3986
  868MOL0     H19769   7.248   2.534   2.490  2.1328  0.8996  0.7350
  868MOL0     H19770   6.913   2.310   2.478  0.1761 -1.5650 -0.5456
  868MOL0     H19771   6.764   2.120   2.448  1.1691 -1.7071 -3.6185
  868MOL0     H19772   6.393   2.237   2.403  0.7168 -0.6965  1.8221
  868MOL0     H19773   6.343   2.077   2.333  0.6692 -0.1010 -2.2734
  868MOL0     H19774   6.346   2.135   2.593 -0.1966 -0.2211  0.7792
  868MOL0     H19775   6.515   2.115   2.585 -1.4856  0.1188  0.6756
  868MOL0     H19776   6.313   1.898   2.528  1.1835 -1.4924 -2.3955
  868MOL0     H19777   6.495   1.878   2.519  0.6792  1.6749  1.0623
  868MOL0     H19778   6.325   1.922   2.755 -0.5786 -3.6291 -1.6894
  868MOL0     H19779   6.501   1.966   2.752  1.0443 -0.9083 -0.0537
  868MOL0     H19780   6.481   1.538   2.770  0.7613 -0.8814 -1.8037
  868MOL0     H19781   6.513   2.297   2.184 -0.4720 -2.4987  1.6108
  868MOL0     H19782   6.654   2.628   2.166 -0.5040  0.9036 -0.9367
  868MOL0     H19783   6.776   2.540   2.074  0.2905  1.4668  1.0788
  868MOL0     H19784   6.611   2.480   2.060 -1.5870  1.8389  0.3521
  869MOL0     O19785   5.089   9.619   9.262  0.3866 -0.4567 -0.4267
  869MOL0     C19786   5.085   9.505   9.318  0.2195 -0.5286 -0.2860
  869MOL0     O19787   5.192   9.443   9.381  0.4754 -0.6514 -1.0624
  869MOL0     C19788   5.308   9.515   9.398  0.3924 -0.2628 -0.1919
  869MOL0     C19789   5.435   9.492   9.347  0.2094  0.0092  0.3489
  869MOL0     C19790   5.531   9.594   9.366 -0.4020 -0.9315  0.0569
  869MOL0     C19791   5.513   9.706   9.451 -0.2516 -0.2888  0.0293
  869MOL0     O19792   5.617   9.796   9.478  0.4944  0.0312 -0.6287
  869MOL0     C19793   5.739   9.792   9.398 -0.1708 -0.7015  0.1109
  869MOL0     C19794   5.844   9.907   9.431  0.2166  0.1860  0.6727
  869MOL0     C19795   5.782  10.043   9.389  0.3910  0.9045  0.3699
  869MOL0     C19796   5.845  10.159   9.452 -0.7552 -0.1382 -0.4994
  869MOL0     C19797   5.802  10.303   9.390 -0.0383 -0.2203  0.5393
  869MOL0     C19798   5.658  10.367   9.396 -0.2353 -0.9307 -0.0326
  869MOL0     C19799   5.600  10.394   9.540 -0.8572  0.9264 -0.1160
  869MOL0     C19800   5.518  10.276   9.599  0.3703 -0.4141 -0.5538
  869MOL0     N19801   5.386  10.276   9.536 -0.0349  0.5190 -0.1714
  869MOL0     C19802   5.339  10.182   9.455 -0.0207  0.5829 -0.3755
  869MOL0     C19803   5.211  10.212   9.443 -0.7314 -0.2876  0.4411
  869MOL0     C19804   5.113  10.138   9.354 -0.3265  0.2593 -0.4553
  869MOL0     C19805   5.073   9.998   9.404 -0.4970  0.1504  0.3126
  869MOL0     C19806   4.984   9.937   9.297 -1.0108  0.8976  0.4971
  869MOL0     C19807   4.877  10.025   9.245  0.0923 -0.0690  0.1552
  869MOL0     O19808   4.781   9.939   9.185  0.4374 -0.6642  0.9749
  869MOL0     C19809   4.657   9.911   9.241  0.0778 -0.3493  0.1258
  869MOL0     C19810   4.641   9.903   9.378 -0.0070 -0.2564  0.0956
  869MOL0     C19811   4.522   9.875   9.448 -0.3883 -0.6887  0.3884
  869MOL0     C19812   4.520   9.889   9.602 -0.2170  0.4894  0.3448
  869MOL0     C19813   4.408   9.838   9.367 -0.4983  0.3495 -0.6503
  869MOL0     C19814   4.267   9.802   9.419  0.1911 -0.1710 -0.2038
  869MOL0     O19815   4.168   9.789   9.330 -0.1181  1.0268  0.0545
  869MOL0     C19816   4.060   9.709   9.364  1.0968 -0.7059  0.0537
  869MOL0     C19817   3.952   9.743   9.446  0.0900 -0.6947 -0.4097
  869MOL0     C19818   3.850   9.652   9.467 -1.0476  0.6243 -0.3074
  869MOL0     C19819   3.863   9.519   9.414  0.1635 -0.1453 -0.3130
  869MOL0     O19820   3.750   9.446   9.447  0.2952 -0.2418 -0.3026
  869MOL0     C19821   3.740   9.313   9.397 -0.7326  0.4782  0.3608
  869MOL0     C19822   3.688   9.331   9.254 -0.7818  0.2905  0.8804
  869MOL0     C19823   3.730   9.212   9.176 -0.0694  0.0403  0.6457
  869MOL0     C19824   3.659   9.222   9.044  0.2759  0.2953  0.5558
  869MOL0     C19825   3.719   9.137   8.928  0.1774  0.0358  0.0234
  869MOL0     C19826   3.679   9.192   8.789 -0.1951  0.2876 -0.5515
  869MOL0     C19827   3.757   9.118   8.677  1.1954 -1.2125 -0.3326
  869MOL0     C19828   3.748   9.196   8.540 -0.4325  0.4489  0.0999
  869MOL0    Cl19829   3.601   9.156   8.444  0.0332 -0.5656  0.5022
  869MOL0     C19830   3.970   9.481   9.338  0.1666  0.0231 -0.2300
  869MOL0     C19831   4.071   9.578   9.315 -0.2473 -0.8875 -0.0809
  869MOL0     O19832   4.255   9.780   9.536 -0.2451  0.3484 -0.3151
  869MOL0     C19833   4.431   9.818   9.233  0.2547 -0.3934  0.2725
  869MOL0     C19834   4.549   9.853   9.168 -0.1272 -0.2783 -0.1104
  869MOL0     N19835   5.182  10.329   9.501  0.0901 -0.2065 -0.0274
  869MOL0     N19836   5.292  10.371   9.557  0.2804  0.5036 -0.2419
  869MOL0     C19837   5.388   9.715   9.516 -0.0366  0.0009 -0.3875
  869MOL0     C19838   5.290   9.628   9.481  0.2105 -0.1574 -0.6858
  869MOL0     C19839   4.941   9.451   9.307 -1.2186  0.4087  0.1086
  869MOL0     C19840   4.836   9.543   9.302 -0.3912  0.3723  0.2457
  869MOL0     C19841   4.702   9.502   9.284 -0.1752 -0.0673  0.8721
  869MOL0     C19842   4.669   9.367   9.263  0.1850 -0.5751 -0.4023
  869MOL0     O19843   4.533   9.347   9.262 -0.8919 -0.1976  0.9292
  869MOL0     C19844   4.486   9.237   9.333 -0.8160  0.0438 -0.6154
  869MOL0     C19845   4.334   9.234   9.331 -0.0017 -0.8562  0.4146
  869MOL0     C19846   4.283   9.113   9.408  0.6935  0.2071  0.3820
  869MOL0     C19847   4.133   9.116   9.403  0.9490 -0.1975 -0.2208
  869MOL0     C19848   4.062   9.011   9.479 -0.6676  0.1530 -0.4395
  869MOL0     C19849   4.012   8.926   9.551  0.0737 -0.3296  0.1397
  869MOL0     C19850   4.776   9.274   9.275  0.4565 -0.3945 -0.3741
  869MOL0     C19851   4.906   9.312   9.301 -0.6358 -0.5980  1.0741
  869MOL0     C19852   5.018   9.203   9.307 -0.4877 -0.2028  1.2811
  869MOL0     H19853   5.448   9.401   9.290 -1.3656 -1.8737  2.7978
  869MOL0     H19854   5.631   9.580   9.327  0.9097 -1.7385  3.3753
  869MOL0     H19855   5.711   9.806   9.294  0.5664  1.3378  0.1319
  869MOL0     H19856   5.790   9.696   9.412 -0.2492 -0.4388  2.6209
  869MOL0     H19857   5.876   9.907   9.536  0.6283 -2.1666  0.6189
  869MOL0     H19858   5.931   9.887   9.368 -1.4974  1.3010 -2.2220
  869MOL0     H19859   5.783  10.049   9.279 -0.2371  1.0814  0.3738
  869MOL0     H19860   5.679  10.037   9.425 -0.6708 -1.0556 -2.5887
  869MOL0     H19861   5.815  10.162   9.557 -1.0597 -0.6682 -0.5700
  869MOL0     H19862   5.953  10.141   9.447 -0.8157 -0.7756  0.3072
  869MOL0     H19863   5.822  10.296   9.283 -2.8752  0.9889 -0.1672
  869MOL0     H19864   5.874  10.367   9.442  1.3767 -1.2147 -0.1341
  869MOL0     H19865   5.662  10.463   9.343 -0.0886 -2.0832 -2.1962
  869MOL0     H19866   5.591  10.303   9.337 -2.0107  0.3931  0.4432
  869MOL0     H19867   5.530  10.478   9.547 -4.6953 -2.1518  2.4610
  869MOL0     H19868   5.683  10.410   9.609 -2.0177  2.1068  1.0489
  869MOL0     H19869   5.574  10.184   9.584  1.0643  0.1862 -1.8201
  869MOL0     H19870   5.500  10.285   9.706  2.8965  0.1495 -0.1155
  869MOL0     H19871   5.381  10.093   9.410 -1.7730  0.1430 -1.2608
  869MOL0     H19872   5.142  10.130   9.249  1.2945 -2.1476  0.1020
  869MOL0     H19873   5.024  10.201   9.367  0.3826  0.9831  1.1559
  869MOL0     H19874   5.162   9.937   9.422  1.1531  2.9368  2.2989
  869MOL0     H19875   5.022  10.002   9.500  0.7039 -1.3658  1.0535
  869MOL0     H19876   5.046   9.922   9.208 -1.9270  0.5198 -0.0931
  869MOL0     H19877   4.939   9.847   9.340 -2.7688 -0.3002 -3.4494
  869MOL0     H19878   4.840  10.094   9.322 -0.7338  1.4907 -1.5383
  869MOL0     H19879   4.925  10.080   9.163  3.6720 -1.7609  0.9524
  869MOL0     H19880   4.729   9.937   9.432 -2.0671  2.1311  2.2197
  869MOL0     H19881   4.447   9.968   9.624  0.9211  2.2600 -1.7889
  869MOL0     H19882   4.614   9.935   9.634 -0.5308  0.6944  0.9907
  869MOL0     H19883   4.518   9.788   9.644  1.3029  0.5503  0.6268
  869MOL0     H19884   3.937   9.847   9.473 -1.0716 -0.8718 -0.3186
  869MOL0     H19885   3.769   9.679   9.533 -0.7126  0.4291  0.1915
  869MOL0     H19886   3.833   9.255   9.396 -1.1550 -0.2129 -0.8101
  869MOL0     H19887   3.663   9.256   9.449 -3.0742  1.6317 -1.6573
  869MOL0     H19888   3.579   9.326   9.252 -0.7334 -0.7827 -0.9182
  869MOL0     H19889   3.738   9.416   9.207 -0.9693  0.0554  0.2445
  869MOL0     H19890   3.705   9.121   9.231 -2.4314  0.9705  1.2174
  869MOL0     H19891   3.838   9.209   9.155 -0.1804  2.5940 -0.6635
  869MOL0     H19892   3.669   9.326   9.009 -1.1544  0.9995  2.0938
  869MOL0     H19893   3.558   9.197   9.075  0.4648  0.2672  1.1624
  869MOL0     H19894   3.828   9.144   8.932  0.2228 -0.0389 -0.8624
  869MOL0     H19895   3.695   9.030   8.935  1.5252 -0.2008  1.3236
  869MOL0     H19896   3.715   9.294   8.797 -1.9083  0.8031  1.7341
  869MOL0     H19897   3.572   9.196   8.766 -0.2066  0.6439 -0.4378
  869MOL0     H19898   3.726   9.013   8.668  0.7163 -1.0086 -1.2579
  869MOL0     H19899   3.862   9.119   8.708  1.0939  0.3842  0.0193
  869MOL0     H19900   3.841   9.168   8.490 -0.8554  0.4831 -0.7213
  869MOL0     H19901   3.751   9.306   8.543 -0.4091  0.4381  2.4001
  869MOL0     H19902   3.977   9.387   9.285  0.4084  0.5717 -1.1972
  869MOL0     H19903   4.164   9.565   9.260  1.1286  1.4987  1.4905
  869MOL0     H19904   4.345   9.780   9.178 -1.0316  0.0930  1.8391
  869MOL0     H19905   4.546   9.855   9.059 -3.6096  0.6938 -0.1133
  869MOL0     H19906   5.355   9.797   9.579 -1.0532  0.6153 -1.6482
  869MOL0     H19907   5.191   9.637   9.524 -0.7497  1.1904 -2.9671
  869MOL0     H19908   4.852   9.648   9.324  2.7569  0.4613 -1.7938
  869MOL0     H19909   4.621   9.574   9.292 -0.4759 -0.3799  0.6868
  869MOL0     H19910   4.524   9.143   9.290 -1.8022 -1.4380  1.5685
  869MOL0     H19911   4.524   9.243   9.436 -0.6018 -0.9651 -0.6178
  869MOL0     H19912   4.301   9.226   9.227 -0.8821 -1.7153  0.7491
  869MOL0     H19913   4.301   9.327   9.378  1.7102  0.8232 -1.5268
  869MOL0     H19914   4.327   9.020   9.373  1.3463  1.0386 -1.0888
  869MOL0     H19915   4.317   9.135   9.510 -0.1471  3.9843 -0.0074
  869MOL0     H19916   4.104   9.092   9.300  0.7896 -1.9022  0.1900
  869MOL0     H19917   4.092   9.211   9.440  3.1719  0.5043  0.6091
  869MOL0     H19918   3.970   8.859   9.623 -0.5254 -0.6600 -0.5072
  869MOL0     H19919   4.736   9.175   9.256 -0.2132 -0.6248  1.9155
  869MOL0     H19920   4.982   9.106   9.271  0.5616 -0.2893  0.3939
  869MOL0     H19921   5.088   9.226   9.226 -0.5489 -1.1231  0.9515
  869MOL0     H19922   5.085   9.202   9.394  1.6995  0.0756 -0.2990
  870MOL0     O19923   6.000   1.172   6.971 -0.4840 -0.1315 -0.6149
  870MOL0     C19924   5.896   1.198   7.033  0.5815 -0.0227  0.8553
  870MOL0     O19925   5.818   1.103   7.087  0.4728  0.4910  0.6681
  870MOL0     C19926   5.850   0.971   7.072  0.2784 -1.0625 -0.1741
  870MOL0     C19927   5.896   0.903   7.183  0.2351  0.3855  0.4596
  870MOL0     C19928   5.929   0.765   7.178  1.0962  0.0417  0.5450
  870MOL0     C19929   5.909   0.702   7.058  0.4794 -0.4221 -0.6330
  870MOL0     O19930   5.924   0.566   7.045 -0.3626 -0.9598  0.1905
  870MOL0     C19931   6.056   0.517   7.081 -0.3599 -0.1991 -0.2520
  870MOL0     C19932   6.178   0.594   7.027 -0.0356  1.0533 -0.3147
  870MOL0     C19933   6.163   0.643   6.879  0.1325  0.0720 -0.2164
  870MOL0     C19934   6.237   0.776   6.861 -0.2228  0.4418  0.5043
  870MOL0     C19935   6.211   0.829   6.720  0.0613  0.3787 -0.0867
  870MOL0     C19936   6.178   0.978   6.732 -0.0613 -1.1051  0.6049
  870MOL0     C19937   6.106   1.025   6.608  0.4982 -0.2893 -0.1960
  870MOL0     C19938   6.072   1.174   6.613 -0.3763 -1.0295  0.0194
  870MOL0     N19939   6.189   1.256   6.622 -0.0855  0.6315  0.6318
  870MOL0     C19940   6.241   1.296   6.734 -0.7981 -0.3882 -0.2485
  870MOL0     C19941   6.365   1.344   6.705  0.6001 -0.2776  0.0826
  870MOL0     C19942   6.464   1.384   6.811  0.0026  0.3695 -0.1488
  870MOL0     C19943   6.476   1.534   6.820 -0.4206  0.7020  0.3031
  870MOL0     C19944   6.349   1.595   6.872  0.8323 -0.4138 -0.0943
  870MOL0     C19945   6.351   1.753   6.859 -0.2934 -0.7186  0.3915
  870MOL0     O19946   6.206   1.805   6.848 -0.2323 -0.2295  0.8587
  870MOL0     C19947   6.179   1.940   6.819 -0.4212 -0.1797 -1.1129
  870MOL0     C19948   6.042   1.964   6.811  0.3116  1.0324 -0.2524
  870MOL0     C19949   5.999   2.094   6.761 -0.4582  1.0622 -0.5017
  870MOL0     C19950   5.842   2.108   6.734 -1.5787  0.3353  0.3164
  870MOL0     C19951   6.097   2.189   6.720 -0.9156 -0.1714 -0.6261
  870MOL0     C19952   6.069   2.315   6.657  0.3934 -0.3910  0.1645
  870MOL0     O19953   6.169   2.389   6.593 -0.1968  0.9380 -0.2039
  870MOL0     C19954   6.145   2.505   6.519  0.3884  0.7997 -0.1007
  870MOL0     C19955   6.023   2.536   6.452 -0.4471 -0.2023 -0.7150
  870MOL0     C19956   6.014   2.655   6.385  0.4267  0.8154  0.8342
  870MOL0     C19957   6.114   2.748   6.374 -0.1592 -0.1963 -0.3800
  870MOL0     O19958   6.087   2.858   6.295  0.0903  0.3280  0.4073
  870MOL0     C19959   6.175   2.969   6.294 -0.2603 -0.3851  0.4570
  870MOL0     C19960   6.116   3.047   6.179 -0.2214  0.1660  0.7280
  870MOL0     C19961   6.135   3.202   6.186  1.0023  0.4478 -0.0690
  870MOL0     C19962   6.102   3.280   6.063  0.1645 -0.0174  0.1832
  870MOL0     C19963   5.957   3.269   6.008 -0.0347 -0.1479  0.2380
  870MOL0     C19964   5.837   3.309   6.105 -0.1065  0.0773 -0.1770
  870MOL0     C19965   5.845   3.457   6.130  0.0956 -0.2049 -0.1494
  870MOL0     C19966   5.735   3.535   6.062  0.2220  1.5458  0.6801
  870MOL0    Cl19967   5.759   3.498   5.883  0.1026  0.0194 -0.0243
  870MOL0     C19968   6.240   2.713   6.426 -0.1148  0.0244 -0.7410
  870MOL0     C19969   6.251   2.597   6.503  0.5526 -0.0289  0.2108
  870MOL0     O19970   5.947   2.345   6.667  0.5791  0.1784  0.3596
  870MOL0     C19971   6.235   2.160   6.740  0.4602 -0.7157 -0.0548
  870MOL0     C19972   6.273   2.035   6.782 -0.0481 -0.1670 -0.1016
  870MOL0     N19973   6.379   1.332   6.567  0.0663 -0.4377 -0.1832
  870MOL0     N19974   6.283   1.270   6.518 -0.5755  0.3919 -0.0265
  870MOL0     C19975   5.853   0.769   6.951 -0.3955  0.1091  0.0304
  870MOL0     C19976   5.829   0.902   6.955 -1.0931 -0.1977  0.1899
  870MOL0     C19977   5.869   1.342   7.033  0.0900 -0.6797  0.5951
  870MOL0     C19978   5.967   1.427   6.984  0.0260 -0.3066 -0.6363
  870MOL0     C19979   5.961   1.567   6.996  0.4327  0.3317  0.3529
  870MOL0     C19980   5.845   1.629   7.048 -0.5012 -0.1378  0.3758
  870MOL0     O19981   5.860   1.762   7.052  0.5200 -0.5599 -0.5395
  870MOL0     C19982   5.762   1.852   7.113 -0.6896 -0.0245  0.4977
  870MOL0     C19983   5.823   1.995   7.124  0.7005 -0.3389  0.9326
  870MOL0     C19984   5.954   2.016   7.184 -0.1025  0.5111 -0.4757
  870MOL0     C19985   5.973   2.157   7.227  0.1186  0.0835  0.4178
  870MOL0     C19986   5.967   2.251   7.117 -0.2701  0.0575 -0.6251
  870MOL0     C19987   5.976   2.332   7.029 -0.5415  0.4008  0.1768
  870MOL0     C19988   5.748   1.547   7.093 -0.3535  0.5997 -0.0529
  870MOL0     C19989   5.749   1.405   7.084 -0.5465  0.0992 -0.5925
  870MOL0     C19990   5.628   1.317   7.124  0.7089  0.8437 -0.0765
  870MOL0     H19991   5.900   0.963   7.273 -0.1020  0.5327  0.3811
  870MOL0     H19992   5.970   0.709   7.262  1.1759  0.4043  0.7497
  870MOL0     H19993   6.064   0.421   7.028  0.5007  0.2562 -0.9534
  870MOL0     H19994   6.066   0.502   7.189 -2.5480  3.4220  0.5996
  870MOL0     H19995   6.186   0.666   7.109  0.1169  0.0403  0.5762
  870MOL0     H19996   6.264   0.527   7.029  0.3288  1.5229  0.9382
  870MOL0     H19997   6.198   0.573   6.801  3.3066  2.8629 -1.5488
  870MOL0     H19998   6.055   0.662   6.874 -0.1772 -0.7823  2.0837
  870MOL0     H19999   6.191   0.836   6.940 -1.5729 -2.7955  2.3844
  870MOL0     H20000   6.344   0.761   6.880 -0.3072 -2.8776 -0.9394
  870MOL0     H20001   6.122   0.787   6.673  0.1372  0.5477 -0.3879
  870MOL0     H20002   6.297   0.804   6.657 -0.1851 -2.5605  0.6200
  870MOL0     H20003   6.122   1.009   6.821  0.2594  0.1887  0.3767
  870MOL0     H20004   6.273   1.029   6.750 -0.8541  0.9487 -0.6666
  870MOL0     H20005   6.007   0.982   6.592 -0.3171  2.5602 -4.5960
  870MOL0     H20006   6.161   1.009   6.514 -2.1738  0.5137 -1.9899
  870MOL0     H20007   6.014   1.205   6.526 -2.7837 -0.9247  1.5603
  870MOL0     H20008   6.010   1.196   6.700 -0.6588 -1.1248 -0.1577
  870MOL0     H20009   6.191   1.278   6.829 -2.5431  0.2235 -1.0105
  870MOL0     H20010   6.564   1.362   6.772  0.0552  1.9414 -1.0098
  870MOL0     H20011   6.449   1.335   6.907  2.1732  0.6538  0.3990
  870MOL0     H20012   6.568   1.557   6.874  1.1494 -0.4143 -1.7385
  870MOL0     H20013   6.489   1.573   6.719  1.6485  1.6983  0.8910
  870MOL0     H20014   6.256   1.560   6.826  0.3187  0.8618 -0.0684
  870MOL0     H20015   6.351   1.584   6.981  3.1271  2.0238  0.2091
  870MOL0     H20016   6.392   1.806   6.945 -3.3804 -1.5867  2.5866
  870MOL0     H20017   6.408   1.782   6.770 -2.7955  3.0367 -0.2417
  870MOL0     H20018   5.968   1.887   6.829 -0.3019  1.8661  0.9587
  870MOL0     H20019   5.802   2.189   6.795 -2.3478  0.4619 -0.3238
  870MOL0     H20020   5.782   2.019   6.758 -2.1460  1.2476  2.4699
  870MOL0     H20021   5.825   2.149   6.634 -0.6908 -0.2393 -0.0846
  870MOL0     H20022   5.939   2.468   6.455 -2.1289  1.8111  0.2306
  870MOL0     H20023   5.914   2.679   6.349  0.9938  1.9726 -0.0329
  870MOL0     H20024   6.165   3.029   6.385  0.0514 -0.5471  0.6000
  870MOL0     H20025   6.279   2.965   6.261 -0.7106  1.0270 -1.3108
  870MOL0     H20026   6.162   3.005   6.089 -1.1575  0.4125  0.1087
  870MOL0     H20027   6.013   3.014   6.162  1.6041 -6.4622 -0.3152
  870MOL0     H20028   6.236   3.228   6.217  0.8702 -0.9604  1.7017
  870MOL0     H20029   6.061   3.237   6.258  1.3966  1.3095 -0.0754
  870MOL0     H20030   6.170   3.274   5.977 -4.4156 -0.1168 -3.8406
  870MOL0     H20031   6.125   3.385   6.080  2.2698 -0.3238 -0.4702
  870MOL0     H20032   5.951   3.326   5.915 -0.0825  0.1501  0.4235
  870MOL0     H20033   5.941   3.164   5.982 -2.2170 -0.3780  2.1940
  870MOL0     H20034   5.851   3.257   6.200 -0.2012 -1.0674 -0.7660
  870MOL0     H20035   5.741   3.280   6.061  0.9005  0.3069 -2.6953
  870MOL0     H20036   5.940   3.505   6.104 -0.4429  1.4452  0.7540
  870MOL0     H20037   5.829   3.479   6.235 -1.8045 -1.9982 -0.0018
  870MOL0     H20038   5.736   3.644   6.066  0.9606  1.6077 -0.6146
  870MOL0     H20039   5.635   3.503   6.094  0.7377  0.1890  1.0021
  870MOL0     H20040   6.330   2.772   6.416 -0.2790  0.9001  2.0540
  870MOL0     H20041   6.352   2.573   6.535 -0.6385 -4.0439  1.5190
  870MOL0     H20042   6.310   2.238   6.731 -1.6187  1.3471 -0.3774
  870MOL0     H20043   6.378   2.021   6.806  0.1887 -1.3653 -1.6811
  870MOL0     H20044   5.832   0.720   6.856  0.1408 -0.3363  0.1315
  870MOL0     H20045   5.794   0.952   6.865 -0.0482  1.0295  0.4280
  870MOL0     H20046   6.061   1.387   6.946  0.1267 -0.0975 -0.6122
  870MOL0     H20047   6.046   1.620   6.953  3.0893 -4.4854 -1.2142
  870MOL0     H20048   5.673   1.850   7.051  0.0554  0.9248 -0.6375
  870MOL0     H20049   5.737   1.817   7.214  1.5052 -1.2132  0.6919
  870MOL0     H20050   5.755   2.046   7.193  1.8762  2.6980 -0.0280
  870MOL0     H20051   5.825   2.053   7.032  0.3668  0.8514  1.6607
  870MOL0     H20052   5.969   1.957   7.275  3.6467  0.4545 -0.9581
  870MOL0     H20053   6.035   1.985   7.117 -1.3592  0.8362 -2.2244
  870MOL0     H20054   6.073   2.158   7.273 -0.2539 -0.7815  1.2854
  870MOL0     H20055   5.899   2.187   7.301  0.0396  1.8132 -0.3122
  870MOL0     H20056   5.990   2.400   6.947  0.4655 -0.9224 -0.7923
  870MOL0     H20057   5.657   1.596   7.126 -0.9936 -0.5660 -0.0222
  870MOL0     H20058   5.550   1.386   7.158  0.6882  0.4149  0.7816
  870MOL0     H20059   5.602   1.246   7.044 -0.9089  0.4269  0.7590
  870MOL0     H20060   5.664   1.267   7.214  2.4549 -0.6124 -1.5039
  871MOL0     O20061   6.138   4.432   5.667  0.0029  0.7131  0.6029
  871MOL0     C20062   6.097   4.531   5.615 -0.0832 -0.1866  0.5182
  871MOL0     O20063   6.175   4.647   5.600  0.4832 -0.3797  0.5224
  871MOL0     C20064   6.277   4.653   5.681 -0.0529 -0.4211 -0.5455
  871MOL0     C20065   6.257   4.688   5.819 -0.3766 -0.7027 -0.3725
  871MOL0     C20066   6.367   4.677   5.901 -0.2944  0.3936  0.3361
  871MOL0     C20067   6.498   4.645   5.851 -0.6273  0.0011  0.1353
  871MOL0     O20068   6.605   4.637   5.935 -0.0904 -1.0311 -0.8187
  871MOL0     C20069   6.588   4.665   6.078  0.4575  0.4640  0.5742
  871MOL0     C20070   6.727   4.660   6.132  0.3197  0.2817 -0.3289
  871MOL0     C20071   6.712   4.671   6.288 -0.3460 -0.1973 -0.1603
  871MOL0     C20072   6.625   4.789   6.339 -0.1842  0.1567 -0.2853
  871MOL0     C20073   6.605   4.795   6.488 -0.1296  0.1788  0.0022
  871MOL0     C20074   6.637   4.938   6.522 -0.4451  0.2981 -0.3396
  871MOL0     C20075   6.569   4.967   6.655 -0.8681 -0.6253 -0.0083
  871MOL0     C20076   6.634   4.899   6.770  0.4799 -1.0264  0.3284
  871MOL0     N20077   6.616   4.973   6.899 -0.7024 -0.2011  0.8650
  871MOL0     C20078   6.506   5.007   6.963  0.6040 -0.0833  0.4158
  871MOL0     C20079   6.540   5.077   7.068 -0.1988 -0.0748  0.2199
  871MOL0     C20080   6.442   5.140   7.157  0.3745 -0.8681 -0.5722
  871MOL0     C20081   6.440   5.081   7.294  0.6190  0.2932 -0.3632
  871MOL0     C20082   6.342   5.165   7.383  0.2838 -0.2826 -0.2334
  871MOL0     C20083   6.202   5.174   7.327  0.3841  0.5339  0.2211
  871MOL0     O20084   6.140   5.041   7.299 -0.4898 -0.2139  0.1775
  871MOL0     C20085   6.007   5.037   7.274 -0.7461  1.3940 -0.2281
  871MOL0     C20086   5.921   5.149   7.268 -0.4234 -0.1327 -0.4813
  871MOL0     C20087   5.782   5.116   7.252 -0.6177 -0.2333  0.3540
  871MOL0     C20088   5.690   5.229   7.225  0.7154 -0.3730 -0.1889
  871MOL0     C20089   5.728   4.993   7.223 -0.4587  0.4944  0.0849
  871MOL0     C20090   5.591   4.944   7.176 -0.7604 -0.3393  0.6626
  871MOL0     O20091   5.483   5.023   7.194 -0.3293 -0.7842  0.0799
  871MOL0     C20092   5.369   4.987   7.132  0.0627 -0.3059 -0.9132
  871MOL0     C20093   5.279   5.095   7.100 -0.8765  0.4627  0.1119
  871MOL0     C20094   5.149   5.067   7.085  1.3542 -0.1106 -0.2356
  871MOL0     C20095   5.098   4.940   7.079  0.9602  0.5994  0.5031
  871MOL0     O20096   4.961   4.921   7.053 -0.4117 -0.2377 -0.8944
  871MOL0     C20097   4.909   4.801   7.002  0.4160  0.0175 -0.1076
  871MOL0     C20098   4.758   4.800   6.970 -1.1228 -0.1285 -0.3493
  871MOL0     C20099   4.708   4.671   6.915  0.6487  0.6621  0.4704
  871MOL0     C20100   4.550   4.653   6.932 -0.7794  0.0011  0.4236
  871MOL0     C20101   4.511   4.506   6.925 -0.3716  0.5504  0.6822
  871MOL0     C20102   4.361   4.480   6.953 -0.5264  0.0459 -0.2982
  871MOL0     C20103   4.325   4.337   6.911 -0.2769  0.0277 -0.4153
  871MOL0     C20104   4.180   4.312   6.946 -0.1555  0.5997 -0.4945
  871MOL0    Cl20105   4.171   4.271   7.131  0.2837 -0.2220  0.2611
  871MOL0     C20106   5.185   4.831   7.084  0.1889  0.0269 -2.0486
  871MOL0     C20107   5.320   4.853   7.125  1.1400 -0.3303  0.2801
  871MOL0     O20108   5.592   4.843   7.104  0.7975 -0.3672 -0.1839
  871MOL0     C20109   5.826   4.892   7.239 -0.9363 -0.1542 -0.2561
  871MOL0     C20110   5.962   4.906   7.259 -0.2168  0.1397  1.4745
  871MOL0     N20111   6.679   5.094   7.056  0.5201  0.0467  0.3736
  871MOL0     N20112   6.723   5.030   6.958 -0.5239  0.1786  0.0386
  871MOL0     C20113   6.515   4.633   5.716  0.6725  0.8741  0.2606
  871MOL0     C20114   6.407   4.631   5.632 -0.6183  0.0173  0.1987
  871MOL0     C20115   5.965   4.530   5.547  0.2721 -0.3246 -0.0330
  871MOL0     C20116   5.916   4.651   5.487 -0.7354 -0.0888 -0.6785
  871MOL0     C20117   5.790   4.647   5.416  0.4611  0.3919  0.1416
  871MOL0     C20118   5.720   4.523   5.402 -0.5431  0.2586 -0.0350
  871MOL0     O20119   5.610   4.535   5.323  0.9871  0.2111  0.1740
  871MOL0     C20120   5.531   4.412   5.299 -0.3315  0.6779 -0.8333
  871MOL0     C20121   5.405   4.452   5.212 -0.0711  0.3891 -0.1438
  871MOL0     C20122   5.302   4.342   5.216  0.0583 -0.1765  0.5909
  871MOL0     C20123   5.363   4.202   5.229  0.4694  0.5289 -0.2114
  871MOL0     C20124   5.253   4.101   5.200 -0.3260 -0.2319 -0.2142
  871MOL0     C20125   5.177   4.008   5.183  0.3502 -0.7450  0.4334
  871MOL0     C20126   5.770   4.408   5.464  0.2387 -0.7223  0.2174
  871MOL0     C20127   5.884   4.407   5.544 -0.6292  0.7587 -0.2949
  871MOL0     C20128   5.915   4.275   5.611 -0.3331 -0.2716 -0.8238
  871MOL0     H20129   6.153   4.701   5.848  0.4836 -0.2642  2.9721
  871MOL0     H20130   6.352   4.680   6.008 -1.2186  1.3114  0.1982
  871MOL0     H20131   6.515   4.598   6.125 -1.9913  1.8062 -1.0653
  871MOL0     H20132   6.550   4.768   6.078 -0.9880 -0.0071 -1.6675
  871MOL0     H20133   6.778   4.570   6.099 -0.2595 -0.7373  1.4170
  871MOL0     H20134   6.788   4.740   6.088  2.3930 -1.6618 -1.1576
  871MOL0     H20135   6.662   4.584   6.333  1.0812 -0.7655  0.3742
  871MOL0     H20136   6.808   4.693   6.334 -0.2866  1.7939 -1.1469
  871MOL0     H20137   6.657   4.883   6.295 -0.7212  0.9529  0.9731
  871MOL0     H20138   6.523   4.769   6.305  0.1034  0.9021 -1.6393
  871MOL0     H20139   6.657   4.727   6.556 -1.1913 -0.9147 -0.2416
  871MOL0     H20140   6.498   4.781   6.507 -0.5139  0.7412 -1.5375
  871MOL0     H20141   6.743   4.954   6.540 -0.2689 -0.7367 -0.4017
  871MOL0     H20142   6.602   5.017   6.454 -1.0831 -0.4142 -0.8603
  871MOL0     H20143   6.462   4.949   6.650 -0.6740 -1.5047 -1.9041
  871MOL0     H20144   6.583   5.075   6.671  0.2053 -0.7993  0.2826
  871MOL0     H20145   6.585   4.801   6.774 -0.4852 -0.6171 -0.7423
  871MOL0     H20146   6.738   4.890   6.741  1.0245  2.8593  0.5559
  871MOL0     H20147   6.405   4.974   6.938  0.1011  2.0612 -0.6832
  871MOL0     H20148   6.346   5.120   7.108 -0.0814 -1.1595  0.4226
  871MOL0     H20149   6.455   5.248   7.168 -4.8067 -0.1543  1.3812
  871MOL0     H20150   6.410   4.977   7.285  2.5343 -0.2048 -1.6818
  871MOL0     H20151   6.540   5.076   7.338  0.5103 -0.7599 -0.2323
  871MOL0     H20152   6.336   5.126   7.485 -1.1241 -1.2879 -0.6648
  871MOL0     H20153   6.383   5.267   7.384  0.5195 -0.3677 -0.9742
  871MOL0     H20154   6.140   5.223   7.403 -0.0032 -0.1406  0.3458
  871MOL0     H20155   6.201   5.240   7.239 -0.4119  0.3369  0.0738
  871MOL0     H20156   5.951   5.251   7.286  1.4433 -1.0251  2.0725
  871MOL0     H20157   5.604   5.208   7.290  0.1799  1.6951 -0.1598
  871MOL0     H20158   5.645   5.238   7.126 -1.1782  0.4569  0.6814
  871MOL0     H20159   5.731   5.325   7.256 -0.9079  0.5098 -0.6588
  871MOL0     H20160   5.317   5.197   7.097 -1.1628  0.5849 -3.6134
  871MOL0     H20161   5.075   5.147   7.087  0.4267 -0.9439  1.1269
  871MOL0     H20162   4.965   4.792   6.908 -0.9782 -3.6031 -0.7436
  871MOL0     H20163   4.933   4.714   7.064 -0.5647 -1.8603 -2.2357
  871MOL0     H20164   4.705   4.845   7.054 -2.1302  0.5102 -1.3094
  871MOL0     H20165   4.744   4.872   6.889 -2.4084 -0.0919 -0.1076
  871MOL0     H20166   4.754   4.593   6.976 -0.7249  0.4816  1.3130
  871MOL0     H20167   4.734   4.645   6.812 -3.4181 -1.9873 -0.1058
  871MOL0     H20168   4.501   4.706   6.850  0.9268  0.6350 -0.2197
  871MOL0     H20169   4.527   4.704   7.026  1.8179  1.5115  0.3152
  871MOL0     H20170   4.531   4.471   6.823  1.0288  1.2617  0.6927
  871MOL0     H20171   4.564   4.442   6.997 -2.1182  0.2686  1.7696
  871MOL0     H20172   4.298   4.551   6.899  0.7965  0.4682 -1.3485
  871MOL0     H20173   4.344   4.488   7.060 -3.3602  3.5469 -0.7972
  871MOL0     H20174   4.375   4.257   6.967 -1.4491 -0.2364  0.2956
  871MOL0     H20175   4.332   4.311   6.805 -1.6797 -1.9550 -0.0867
  871MOL0     H20176   4.141   4.222   6.898  1.9382 -0.6103 -0.0231
  871MOL0     H20177   4.112   4.389   6.909  1.0871  0.7588 -2.5591
  871MOL0     H20178   5.146   4.734   7.059 -0.4314 -1.0632  2.2957
  871MOL0     H20179   5.382   4.775   7.168  0.3694  0.3565  2.8135
  871MOL0     H20180   5.801   4.787   7.228  1.2724 -1.0400  2.1330
  871MOL0     H20181   6.023   4.816   7.265 -0.1391 -0.2046 -2.1361
  871MOL0     H20182   6.612   4.602   5.678 -0.4230 -1.3049 -0.9394
  871MOL0     H20183   6.423   4.610   5.527 -0.5595  2.7952 -0.4139
  871MOL0     H20184   5.965   4.747   5.502 -1.4678  0.4580 -1.6620
  871MOL0     H20185   5.737   4.734   5.378  0.2633  0.8924  1.4988
  871MOL0     H20186   5.595   4.345   5.241 -3.8011 -0.8379 -3.2725
  871MOL0     H20187   5.496   4.373   5.395  0.2921  0.8524 -0.5275
  871MOL0     H20188   5.439   4.457   5.108 -1.2763  0.3459 -0.5519
  871MOL0     H20189   5.365   4.546   5.250 -1.5358 -0.3366  0.1522
  871MOL0     H20190   5.218   4.357   5.284 -0.6423  1.9979 -0.6718
  871MOL0     H20191   5.243   4.342   5.124 -0.8146  1.2065  1.1235
  871MOL0     H20192   5.407   4.181   5.327  0.0560 -0.9122 -0.3091
  871MOL0     H20193   5.435   4.202   5.147 -0.1164  2.2018 -0.7672
  871MOL0     H20194   5.099   3.936   5.168 -1.3071  1.2764 -1.3534
  871MOL0     H20195   5.718   4.314   5.447 -0.5393 -0.0405 -1.3841
  871MOL0     H20196   5.836   4.199   5.607 -1.1185  0.5824 -2.3330
  871MOL0     H20197   5.999   4.227   5.559 -0.7210 -1.5069 -0.3314
  871MOL0     H20198   5.944   4.303   5.713  3.4003 -0.7701 -1.6042
  872MOL0     O20199   0.044   7.988   5.418  0.5694 -0.1130  0.4048
  872MOL0     C20200  -0.015   7.947   5.518  0.1198  0.5207 -0.3899
  872MOL0     O20201   0.035   7.837   5.584  0.5876 -0.6416  0.0393
  872MOL0     C20202   0.160   7.783   5.540  1.1942 -0.0505 -0.3876
  872MOL0     C20203   0.285   7.817   5.593  0.1590 -0.5348  0.5363
  872MOL0     C20204   0.401   7.781   5.530  0.0221  0.3073  0.4093
  872MOL0     C20205   0.404   7.683   5.434 -0.9388  0.6160 -0.8438
  872MOL0     O20206   0.511   7.631   5.371 -0.2004 -0.0918  0.0148
  872MOL0     C20207   0.596   7.732   5.310 -0.4718  0.5704 -0.0304
  872MOL0     C20208   0.744   7.677   5.314  0.8005 -0.1292 -0.8955
  872MOL0     C20209   0.826   7.737   5.196  0.3479 -0.6523  0.6395
  872MOL0     C20210   0.971   7.732   5.216 -0.0541 -0.4519 -0.4512
  872MOL0     C20211   1.013   7.583   5.241  0.1061 -0.4525  0.0113
  872MOL0     C20212   1.162   7.574   5.279 -0.8452 -0.1077  0.4144
  872MOL0     C20213   1.216   7.434   5.286  0.6938 -0.5886  1.0322
  872MOL0     C20214   1.254   7.390   5.147  0.3669 -0.4271 -0.1454
  872MOL0     N20215   1.341   7.277   5.137  0.6377  0.4033 -0.4289
  872MOL0     C20216   1.308   7.149   5.182 -0.2728  0.1804  0.1291
  872MOL0     C20217   1.420   7.080   5.161 -0.5190  0.1054 -0.4346
  872MOL0     C20218   1.436   6.925   5.189  0.4379 -1.2124 -0.3990
  872MOL0     C20219   1.556   6.850   5.119 -0.2279 -0.5116  0.0424
  872MOL0     C20220   1.575   6.894   4.971  0.1452 -0.1390  0.9500
  872MOL0     C20221   1.623   6.780   4.880 -0.7526 -0.0087 -0.9266
  872MOL0     O20222   1.569   6.648   4.893 -0.2045  0.1064 -0.0900
  872MOL0     C20223   1.589   6.570   4.781 -0.4117 -0.6359 -0.2053
  872MOL0     C20224   1.710   6.523   4.744  0.3070 -0.1734 -0.3179
  872MOL0     C20225   1.738   6.431   4.645  0.5522 -0.6718 -0.1727
  872MOL0     C20226   1.874   6.375   4.618 -0.5426  0.2636 -0.7126
  872MOL0     C20227   1.626   6.402   4.562 -0.3493  0.3105 -0.0642
  872MOL0     C20228   1.632   6.292   4.464 -0.6145 -0.1132  0.9639
  872MOL0     O20229   1.635   6.176   4.524 -0.4267 -0.4578 -0.3039
  872MOL0     C20230   1.588   6.077   4.433 -0.0256 -0.1588 -0.3882
  872MOL0     C20231   1.454   6.051   4.425 -0.3082  0.2768 -0.9161
  872MOL0     C20232   1.400   5.971   4.325 -0.1282  0.4978  0.5494
  872MOL0     C20233   1.490   5.897   4.246  0.0830 -0.2661  0.5424
  872MOL0     O20234   1.434   5.806   4.157 -0.6750  0.4754  0.6900
  872MOL0     C20235   1.536   5.708   4.109  0.3109 -0.4707  0.2421
  872MOL0     C20236   1.475   5.608   4.009 -0.7723 -0.6800 -0.4761
  872MOL0     C20237   1.574   5.521   3.940  0.0039  0.1082  0.0938
  872MOL0     C20238   1.688   5.469   4.029  0.2608 -0.3133 -0.1594
  872MOL0     C20239   1.742   5.332   3.978 -0.5399  0.1204  0.0695
  872MOL0     C20240   1.846   5.363   3.869  0.4290 -0.3949 -0.2632
  872MOL0     C20241   1.983   5.403   3.940  0.0622 -0.2773 -0.0386
  872MOL0     C20242   2.090   5.468   3.846  0.1137  0.2241  0.3565
  872MOL0    Cl20243   2.048   5.633   3.817 -0.0309 -0.4284  0.1451
  872MOL0     C20244   1.632   5.919   4.261  0.2141 -0.6677 -0.1090
  872MOL0     C20245   1.669   6.015   4.343 -1.0339  0.1767  0.2338
  872MOL0     O20246   1.647   6.312   4.346  0.1060 -0.3182  0.5045
  872MOL0     C20247   1.502   6.462   4.586 -0.2032  0.6772 -0.1904
  872MOL0     C20248   1.481   6.548   4.692  0.0042  1.3197 -0.0298
  872MOL0     N20249   1.523   7.163   5.114  0.4138 -0.5605  0.2146
  872MOL0     N20250   1.470   7.283   5.095 -0.3446 -0.7487 -0.5612
  872MOL0     C20251   0.278   7.643   5.386 -0.5328 -0.4651 -0.0552
  872MOL0     C20252   0.155   7.691   5.435  0.2860  0.2301  0.2580
  872MOL0     C20253  -0.159   7.997   5.547 -0.5037 -0.2461 -0.0967
  872MOL0     C20254  -0.243   7.923   5.627  0.3184  1.0031  0.1291
  872MOL0     C20255  -0.375   7.951   5.661  0.3289  0.2327  0.0961
  872MOL0     C20256  -0.422   8.071   5.613  1.3101  0.7059 -0.5153
  872MOL0     O20257  -0.551   8.117   5.642  0.5677  0.5181 -0.2543
  872MOL0     C20258  -0.555   8.213   5.750 -0.3125  0.2491  0.0366
  872MOL0     C20259  -0.685   8.183   5.837 -0.2453 -1.2687 -0.2641
  872MOL0     C20260  -0.675   8.286   5.953  0.2781  0.1304 -0.3172
  872MOL0     C20261  -0.789   8.280   6.057 -0.3165  0.4951 -1.5807
  872MOL0     C20262  -0.764   8.171   6.152 -0.1064  0.4745 -0.3780
  872MOL0     C20263  -0.745   8.080   6.227  0.2352 -0.3290 -0.3932
  872MOL0     C20264  -0.334   8.162   5.554  0.9270  0.7018  1.2056
  872MOL0     C20265  -0.209   8.126   5.516  0.8149  0.3695  0.1102
  872MOL0     C20266  -0.136   8.224   5.446 -0.1224 -0.6753 -0.0281
  872MOL0     H20267   0.285   7.891   5.673 -0.5031  0.5487 -0.4171
  872MOL0     H20268   0.492   7.831   5.563 -1.0507  2.3920  0.3385
  872MOL0     H20269   0.601   7.819   5.376  2.0294  0.5302 -0.0576
  872MOL0     H20270   0.564   7.759   5.208 -3.4337 -3.1133 -0.2744
  872MOL0     H20271   0.792   7.714   5.405 -1.1507  0.3108 -0.0012
  872MOL0     H20272   0.734   7.569   5.307 -5.5589  0.1615 -1.4653
  872MOL0     H20273   0.805   7.680   5.105  1.7052 -0.2952  0.0823
  872MOL0     H20274   0.811   7.844   5.184  0.8333 -0.8089 -1.9347
  872MOL0     H20275   1.018   7.773   5.126 -0.3302  1.0979  0.0808
  872MOL0     H20276   1.003   7.792   5.302  2.5776  0.3431 -1.8843
  872MOL0     H20277   0.995   7.533   5.145  0.9260  1.3490 -1.1507
  872MOL0     H20278   0.948   7.539   5.316 -1.2518  2.1601  0.4686
  872MOL0     H20279   1.233   7.634   5.223  1.1477 -1.5555  1.2683
  872MOL0     H20280   1.168   7.618   5.379 -0.4148  1.4300 -0.2718
  872MOL0     H20281   1.143   7.358   5.317 -2.4582  0.2280 -3.3937
  872MOL0     H20282   1.307   7.432   5.346 -0.8665  0.9342  3.5943
  872MOL0     H20283   1.167   7.369   5.083  0.5816 -3.2708  0.3694
  872MOL0     H20284   1.301   7.478   5.100 -2.0551  0.8489 -0.3408
  872MOL0     H20285   1.213   7.113   5.220 -0.1030 -1.2065 -0.7023
  872MOL0     H20286   1.343   6.884   5.150 -0.4243  2.0631 -2.1059
  872MOL0     H20287   1.444   6.910   5.297 -2.7165  1.6941  0.4155
  872MOL0     H20288   1.649   6.879   5.168 -1.2884  1.3713  1.0699
  872MOL0     H20289   1.551   6.743   5.140 -2.2167 -0.7209 -1.1805
  872MOL0     H20290   1.476   6.913   4.927 -0.0294 -3.6208 -0.4468
  872MOL0     H20291   1.644   6.979   4.969  0.3539 -0.3232 -0.5203
  872MOL0     H20292   1.609   6.810   4.776 -1.7992  0.0200 -0.7898
  872MOL0     H20293   1.728   6.760   4.907 -1.2018 -0.5347  0.5317
  872MOL0     H20294   1.795   6.561   4.800  0.2261 -0.6147  0.1074
  872MOL0     H20295   1.944   6.458   4.604 -4.2314  3.4781 -1.9147
  872MOL0     H20296   1.870   6.319   4.525 -1.7798 -0.5829 -0.1757
  872MOL0     H20297   1.910   6.314   4.702  3.3840  1.7001 -1.1091
  872MOL0     H20298   1.386   6.099   4.496 -0.7820 -1.9458  0.2277
  872MOL0     H20299   1.294   5.960   4.306  0.3151 -2.3085 -0.8033
  872MOL0     H20300   1.614   5.764   4.057 -1.2669 -0.9563 -2.9286
  872MOL0     H20301   1.567   5.654   4.198 -2.5423  0.0354  1.6763
  872MOL0     H20302   1.409   5.541   4.066 -1.0241 -0.0571 -0.0229
  872MOL0     H20303   1.407   5.657   3.940 -2.4557 -2.3540 -0.0782
  872MOL0     H20304   1.613   5.564   3.846 -0.8441 -1.2557 -0.9150
  872MOL0     H20305   1.523   5.433   3.900  1.4592  1.0174 -4.3300
  872MOL0     H20306   1.639   5.440   4.123  0.0728 -0.2377 -0.2325
  872MOL0     H20307   1.767   5.538   4.058  0.8536 -1.0311 -0.0401
  872MOL0     H20308   1.787   5.283   4.064  0.4203  1.5690  0.4367
  872MOL0     H20309   1.657   5.274   3.942 -1.4795  1.6395 -0.2492
  872MOL0     H20310   1.811   5.452   3.816 -0.5751 -0.4662  0.2632
  872MOL0     H20311   1.867   5.285   3.795  1.6100 -0.4535  0.1092
  872MOL0     H20312   2.027   5.309   3.975 -0.9704 -1.1522 -1.0172
  872MOL0     H20313   1.963   5.465   4.028  1.5065  1.5873 -0.9502
  872MOL0     H20314   2.093   5.420   3.749 -2.7599  0.6837 -0.0599
  872MOL0     H20315   2.186   5.458   3.899 -0.1223 -1.4392  0.5233
  872MOL0     H20316   1.711   5.872   4.203 -0.3943 -2.7952  0.6822
  872MOL0     H20317   1.769   6.057   4.339 -0.0389 -2.1291 -2.0048
  872MOL0     H20318   1.418   6.444   4.520  0.4037  2.9105 -1.6689
  872MOL0     H20319   1.394   6.613   4.707 -0.6392  0.3807  0.3874
  872MOL0     H20320   0.283   7.574   5.303  0.5803  0.0402 -0.4334
  872MOL0     H20321   0.065   7.657   5.384 -0.6329  0.2754  1.8020
  872MOL0     H20322  -0.201   7.833   5.672  0.7512  2.4082  2.7676
  872MOL0     H20323  -0.434   7.869   5.701  0.8581  0.0067  0.4213
  872MOL0     H20324  -0.473   8.204   5.823 -3.0187  0.7962  3.3844
  872MOL0     H20325  -0.542   8.314   5.711  2.7772 -1.1463 -3.1392
  872MOL0     H20326  -0.680   8.080   5.875 -3.7609 -2.3092 -2.1457
  872MOL0     H20327  -0.780   8.180   5.782 -1.4301  0.2846  1.5743
  872MOL0     H20328  -0.583   8.259   6.005 -1.2736 -0.9006  2.0153
  872MOL0     H20329  -0.672   8.390   5.921  0.0160  0.7502  1.5687
  872MOL0     H20330  -0.890   8.270   6.015 -1.1698 -1.3018  0.6650
  872MOL0     H20331  -0.782   8.369   6.119  1.0692 -0.3404 -0.4656
  872MOL0     H20332  -0.731   8.000   6.297  1.2640 -0.4402 -0.7133
  872MOL0     H20333  -0.380   8.256   5.523 -3.8383 -1.7958 -0.2901
  872MOL0     H20334  -0.036   8.225   5.490 -0.6464 -0.7610  1.1831
  872MOL0     H20335  -0.117   8.212   5.339  3.0778  1.8706  0.1288
  872MOL0     H20336  -0.194   8.316   5.454 -2.3562 -2.1832  2.5595
  873MOL0     O20337   5.062   7.853   7.039  0.0755 -0.1440  0.1243
  873MOL0     C20338   4.957   7.810   6.986  0.0615 -0.1612 -0.1563
  873MOL0     O20339   4.923   7.835   6.855 -0.5007  0.1994  0.1129
  873MOL0     C20340   4.986   7.941   6.796  0.3929 -0.5195 -0.4950
  873MOL0     C20341   4.954   8.070   6.822  0.8033 -0.0453  0.8697
  873MOL0     C20342   5.009   8.177   6.741  0.0424 -0.1594  0.4332
  873MOL0     C20343   5.100   8.143   6.633 -0.0455  0.0909  2.2062
  873MOL0     O20344   5.173   8.240   6.576  0.2660 -0.5960 -0.1323
  873MOL0     C20345   5.301   8.203   6.518  0.7992  0.2929 -0.1981
  873MOL0     C20346   5.405   8.313   6.528 -1.0399 -0.2858  0.5637
  873MOL0     C20347   5.458   8.314   6.675  0.3279  0.0765 -0.4024
  873MOL0     C20348   5.590   8.389   6.670 -0.1352 -0.0747  0.5018
  873MOL0     C20349   5.595   8.510   6.764  0.2037 -0.3366 -0.5267
  873MOL0     C20350   5.723   8.591   6.719 -0.4891 -0.5762 -0.0666
  873MOL0     C20351   5.758   8.714   6.804  0.0749 -0.2737 -0.9855
  873MOL0     C20352   5.808   8.668   6.940 -0.6676 -0.6090  0.3053
  873MOL0     N20353   5.839   8.792   7.022  0.0326  0.3413 -1.5042
  873MOL0     C20354   5.759   8.837   7.120 -0.5977 -0.5410  0.3906
  873MOL0     C20355   5.798   8.966   7.130 -0.3909 -0.3449  0.1766
  873MOL0     C20356   5.752   9.082   7.220  0.1841 -0.6562  0.1065
  873MOL0     C20357   5.641   9.067   7.314  0.1738  0.1172 -0.2650
  873MOL0     C20358   5.564   9.198   7.358  0.1044 -0.3825  0.2837
  873MOL0     C20359   5.643   9.323   7.363 -0.7283  0.2341 -0.2548
  873MOL0     O20360   5.716   9.327   7.482 -1.0061  0.2404 -0.0865
  873MOL0     C20361   5.823   9.407   7.491 -0.3701 -0.7791  0.4955
  873MOL0     C20362   5.932   9.359   7.552  0.0064 -0.9367 -0.0096
  873MOL0     C20363   6.054   9.433   7.563  0.5604 -0.0543 -0.5882
  873MOL0     C20364   6.166   9.360   7.617 -0.4510 -0.7352 -0.4365
  873MOL0     C20365   6.049   9.574   7.527  0.1086  0.1173 -1.2363
  873MOL0     C20366   6.158   9.668   7.513 -0.2855 -0.3248  1.0069
  873MOL0     O20367   6.127   9.774   7.432 -0.3794 -0.6061 -0.7734
  873MOL0     C20368   6.222   9.862   7.393  0.3847  1.4305  0.0978
  873MOL0     C20369   6.256   9.868   7.257 -0.4982 -0.4258 -0.1770
  873MOL0     C20370   6.358   9.946   7.200 -1.0491 -0.7400  0.1767
  873MOL0     C20371   6.433  10.018   7.284  0.1664 -0.5167 -0.1559
  873MOL0     O20372   6.535  10.089   7.230 -0.8022 -0.3153 -0.5095
  873MOL0     C20373   6.665  10.075   7.293  0.1807  0.5263 -0.1947
  873MOL0     C20374   6.772  10.168   7.244 -0.1691  0.3816  0.0999
  873MOL0     C20375   6.761  10.193   7.094  0.1185 -0.5168  0.4697
  873MOL0     C20376   6.861  10.289   7.042 -0.1495 -0.1472  0.3350
  873MOL0     C20377   6.874  10.310   6.899 -0.1735  0.0730  0.0691
  873MOL0     C20378   6.739  10.362   6.843 -0.9013 -0.3674 -1.1182
  873MOL0     C20379   6.737  10.364   6.694 -0.9550  0.0315  0.1550
  873MOL0     C20380   6.608  10.422   6.646  0.6469 -0.5976 -0.0505
  873MOL0    Cl20381   6.584  10.404   6.473  0.0464 -0.2078  0.0446
  873MOL0     C20382   6.401  10.027   7.424  0.5556  0.6150 -0.2673
  873MOL0     C20383   6.301   9.942   7.470  0.3019  0.2541 -0.6901
  873MOL0     O20384   6.258   9.654   7.582  0.7702  0.1196 -0.4839
  873MOL0     C20385   5.926   9.623   7.479  0.3096 -0.8041 -0.0137
  873MOL0     C20386   5.815   9.541   7.447 -0.1687  0.0079 -0.0437
  873MOL0     N20387   5.906   8.988   7.050  0.4274  0.4110 -0.2445
  873MOL0     N20388   5.932   8.880   6.988 -0.3511 -0.4663 -0.0958
  873MOL0     C20389   5.114   8.004   6.608  0.8137 -0.2516 -0.3816
  873MOL0     C20390   5.074   7.905   6.695  0.4317 -0.7838 -0.5628
  873MOL0     C20391   4.848   7.747   7.065  0.3633 -0.1876  0.6789
  873MOL0     C20392   4.722   7.750   7.008 -0.2182 -0.1880 -0.3851
  873MOL0     C20393   4.616   7.670   7.050  1.1533  0.1100  0.6540
  873MOL0     C20394   4.622   7.612   7.178  0.5142 -0.1997  0.4584
  873MOL0     O20395   4.529   7.529   7.235 -0.5411 -0.0628  0.3319
  873MOL0     C20396   4.386   7.560   7.222 -0.2555  0.4985 -0.7268
  873MOL0     C20397   4.349   7.671   7.315 -0.3955 -1.2373  0.0042
  873MOL0     C20398   4.206   7.679   7.375  0.2150  0.9004  0.4251
  873MOL0     C20399   4.157   7.556   7.452  0.7949  0.1720  0.0270
  873MOL0     C20400   4.021   7.573   7.514 -0.6761  0.0901  0.7582
  873MOL0     C20401   3.916   7.604   7.564 -0.4919 -0.4862  0.8456
  873MOL0     C20402   4.737   7.634   7.256 -0.0625  0.1505  0.4765
  873MOL0     C20403   4.854   7.688   7.192  0.0552 -0.1832 -0.3761
  873MOL0     C20404   4.971   7.696   7.284  0.1568 -0.3849 -0.1489
  873MOL0     H20405   4.885   8.088   6.905 -2.8770 -1.0279 -1.6962
  873MOL0     H20406   4.986   8.278   6.772  0.9019 -0.3729  1.8457
  873MOL0     H20407   5.287   8.174   6.413  1.4272 -0.3729 -0.1031
  873MOL0     H20408   5.346   8.115   6.565  1.9999  1.1806  0.3475
  873MOL0     H20409   5.486   8.278   6.463 -0.7235  0.1132  0.7388
  873MOL0     H20410   5.367   8.407   6.489 -1.3799 -1.3076 -1.7526
  873MOL0     H20411   5.396   8.366   6.748  2.0613  0.7828  0.6294
  873MOL0     H20412   5.482   8.219   6.724  0.0650  1.0382  1.7381
  873MOL0     H20413   5.662   8.320   6.714  0.4467  0.1762 -0.0344
  873MOL0     H20414   5.612   8.425   6.569 -0.1718 -3.2412 -0.7515
  873MOL0     H20415   5.591   8.472   6.867  0.8043 -0.6569 -0.6166
  873MOL0     H20416   5.498   8.560   6.764 -0.3595 -1.3895 -0.1623
  873MOL0     H20417   5.805   8.519   6.724 -1.8048 -2.1697 -0.4216
  873MOL0     H20418   5.715   8.624   6.615 -0.3682  2.3764  0.7729
  873MOL0     H20419   5.667   8.769   6.831  0.5171 -1.2008  2.8973
  873MOL0     H20420   5.836   8.775   6.757  1.6517  0.7251  2.6014
  873MOL0     H20421   5.736   8.601   6.989 -1.0291  0.7336  1.7124
  873MOL0     H20422   5.900   8.607   6.935  1.7204  2.8274 -1.0930
  873MOL0     H20423   5.682   8.771   7.157 -2.1232  0.6167 -0.6156
  873MOL0     H20424   5.724   9.156   7.144 -0.9739 -2.2047 -1.0164
  873MOL0     H20425   5.842   9.121   7.269 -0.3660  0.9803 -0.1056
  873MOL0     H20426   5.569   8.998   7.271 -1.7400  0.6349  1.9187
  873MOL0     H20427   5.680   9.025   7.408  0.6949 -0.7263 -0.8498
  873MOL0     H20428   5.482   9.192   7.286  0.2745 -3.7590  0.2470
  873MOL0     H20429   5.512   9.185   7.453  3.6291  0.1675  2.4825
  873MOL0     H20430   5.709   9.332   7.276 -1.1465  0.5759 -0.5408
  873MOL0     H20431   5.582   9.414   7.374  1.5209  2.0025 -1.4701
  873MOL0     H20432   5.939   9.252   7.570  2.6719 -0.7066  0.7544
  873MOL0     H20433   6.225   9.428   7.680 -1.0987 -1.5165  1.0748
  873MOL0     H20434   6.222   9.304   7.542 -1.2190 -0.3186 -1.3402
  873MOL0     H20435   6.132   9.272   7.673  1.0137 -0.9742  0.1084
  873MOL0     H20436   6.184   9.825   7.187 -0.8338  0.3361 -0.3086
  873MOL0     H20437   6.371   9.944   7.092 -0.5213 -0.0345  0.2277
  873MOL0     H20438   6.654  10.070   7.402 -3.5130 -5.6110 -0.3943
  873MOL0     H20439   6.697   9.973   7.272 -0.3333  0.4578 -0.6709
  873MOL0     H20440   6.749  10.262   7.296  2.9464  0.2702  1.9177
  873MOL0     H20441   6.871  10.135   7.277  0.3895  3.1118  1.4280
  873MOL0     H20442   6.660  10.229   7.077  1.6680  3.7821 -0.8664
  873MOL0     H20443   6.775  10.105   7.030 -0.4743 -0.9006  0.8656
  873MOL0     H20444   6.958  10.244   7.064 -0.6069 -3.5412 -3.3587
  873MOL0     H20445   6.831  10.383   7.088  1.3382  0.3225  0.3921
  873MOL0     H20446   6.948  10.387   6.878 -2.0547  1.5561 -1.5003
  873MOL0     H20447   6.901  10.214   6.854 -2.4246 -1.2449  1.3178
  873MOL0     H20448   6.700  10.455   6.884 -1.3043 -1.6162  1.5809
  873MOL0     H20449   6.664  10.289   6.876 -1.3146  0.9228  0.9659
  873MOL0     H20450   6.747  10.257   6.672  0.6147  0.3883 -1.0380
  873MOL0     H20451   6.819  10.422   6.651  0.0270 -2.6174 -1.8325
  873MOL0     H20452   6.592  10.524   6.682 -0.3250 -0.8353  0.2360
  873MOL0     H20453   6.518  10.376   6.687  0.1616  0.1791 -0.2111
  873MOL0     H20454   6.472  10.077   7.489  0.7475  1.1877 -0.9140
  873MOL0     H20455   6.298   9.932   7.578 -2.5596  0.1666 -0.7086
  873MOL0     H20456   5.908   9.728   7.458  1.0467 -0.7573 -0.4565
  873MOL0     H20457   5.725   9.582   7.402  0.0340  1.0703  0.4826
  873MOL0     H20458   5.180   7.972   6.528 -0.0648  0.5435 -1.4511
  873MOL0     H20459   5.078   7.805   6.653  0.8936 -0.3996 -1.4574
  873MOL0     H20460   4.704   7.801   6.914  0.7185 -1.8654 -1.5393
  873MOL0     H20461   4.533   7.653   6.983  1.8277 -2.4370  0.3675
  873MOL0     H20462   4.364   7.592   7.120  0.1827  1.6201 -0.4850
  873MOL0     H20463   4.333   7.466   7.238  0.4416  0.1956 -0.1638
  873MOL0     H20464   4.381   7.763   7.265  0.3527 -1.3919  0.1824
  873MOL0     H20465   4.413   7.672   7.403 -1.3773 -2.0664  0.7554
  873MOL0     H20466   4.202   7.761   7.446  2.2885  1.3537  0.0824
  873MOL0     H20467   4.134   7.690   7.294  0.3165 -0.1712  0.1764
  873MOL0     H20468   4.238   7.526   7.519  1.1357 -2.0932 -1.2746
  873MOL0     H20469   4.148   7.469   7.386  0.4286 -0.3847  0.8028
  873MOL0     H20470   3.816   7.610   7.602 -1.0909  3.5893 -0.8742
  873MOL0     H20471   4.749   7.586   7.353 -0.8393  3.6466  2.4652
  873MOL0     H20472   5.023   7.600   7.291  0.3534 -0.2089  1.1360
  873MOL0     H20473   5.043   7.777   7.268 -0.0038 -0.1540  0.2730
  873MOL0     H20474   4.932   7.710   7.386  1.3743 -1.0720  0.4384
  874MOL0     O20475   2.025   7.373   7.172 -0.7073  0.0145 -0.7395
  874MOL0     C20476   2.144   7.363   7.221  0.0835 -0.6544 -0.1369
  874MOL0     O20477   2.262   7.373   7.158 -0.8230  0.0487  0.0962
  874MOL0     C20478   2.268   7.413   7.024  0.1669 -0.8495  0.5299
  874MOL0     C20479   2.380   7.490   6.982  0.9817 -0.7425  0.6414
  874MOL0     C20480   2.394   7.539   6.851 -0.5232 -0.6216 -0.4586
  874MOL0     C20481   2.301   7.501   6.754  0.6043 -0.5837 -0.2741
  874MOL0     O20482   2.302   7.538   6.625  0.4539  0.1334  0.1488
  874MOL0     C20483   2.422   7.577   6.567  0.1594 -0.4437  0.1449
  874MOL0     C20484   2.522   7.467   6.552  0.0781  0.6804 -0.2381
  874MOL0     C20485   2.671   7.487   6.505 -0.4043 -0.7052  0.4941
  874MOL0     C20486   2.752   7.551   6.617 -0.2415 -0.1857  0.0355
  874MOL0     C20487   2.904   7.523   6.616  0.3191  0.5555  0.0134
  874MOL0     C20488   2.984   7.639   6.677  0.5709 -0.7595  0.3017
  874MOL0     C20489   3.131   7.603   6.683  0.2857  0.2750 -0.0977
  874MOL0     C20490   3.214   7.726   6.691 -0.5790  0.2317  0.3022
  874MOL0     N20491   3.223   7.796   6.558  0.3995 -0.3396  0.1190
  874MOL0     C20492   3.294   7.742   6.452  0.3179  0.2657  0.3006
  874MOL0     C20493   3.296   7.839   6.350 -0.2096  0.2785 -0.2632
  874MOL0     C20494   3.360   7.802   6.226 -0.8670  0.6251  0.3122
  874MOL0     C20495   3.258   7.711   6.144  0.1257 -0.8287 -0.9749
  874MOL0     C20496   3.321   7.636   6.030  0.1444 -0.1738 -0.4330
  874MOL0     C20497   3.229   7.642   5.910  0.2038  0.3115  0.5734
  874MOL0     O20498   3.270   7.545   5.822 -0.3748 -0.1868  0.2428
  874MOL0     C20499   3.194   7.471   5.732 -0.8610 -0.0829  0.6004
  874MOL0     C20500   3.073   7.518   5.682  0.3754  1.1001 -0.1023
  874MOL0     C20501   2.993   7.443   5.583 -0.0253 -0.2288 -0.3655
  874MOL0     C20502   2.850   7.493   5.557 -0.2691 -0.0208  0.0687
  874MOL0     C20503   3.059   7.347   5.516 -1.0913 -0.3156  0.9218
  874MOL0     C20504   3.004   7.290   5.390  0.0859 -0.2487  0.0310
  874MOL0     O20505   2.943   7.384   5.307 -0.3745 -0.7240  0.3592
  874MOL0     C20506   2.841   7.353   5.218 -0.6204 -0.1105 -0.0421
  874MOL0     C20507   2.813   7.448   5.120 -0.2358 -0.3645  0.9092
  874MOL0     C20508   2.708   7.421   5.027 -0.1116  0.0756  0.5923
  874MOL0     C20509   2.621   7.313   5.044  1.4471 -0.9063  0.5751
  874MOL0     O20510   2.506   7.304   4.970 -0.2910  0.2283 -0.4517
  874MOL0     C20511   2.496   7.186   4.886  0.3261  0.3647 -1.0794
  874MOL0     C20512   2.351   7.168   4.839  0.2889 -0.1145  0.1823
  874MOL0     C20513   2.313   7.029   4.774 -0.2527  0.2652  0.2459
  874MOL0     C20514   2.279   6.917   4.871 -0.1259 -0.9946 -0.6533
  874MOL0     C20515   2.157   6.836   4.826 -0.3163  0.4155 -0.3922
  874MOL0     C20516   2.143   6.793   4.675  1.2380 -0.4663 -0.5292
  874MOL0     C20517   1.995   6.741   4.651 -1.4144 -0.7377  0.0827
  874MOL0     C20518   1.972   6.717   4.507  0.6477  0.6394 -0.0839
  874MOL0    Cl20519   2.088   6.581   4.448 -0.2795  0.4225  0.2489
  874MOL0     C20520   2.659   7.210   5.136  0.6283 -1.1026 -0.3255
  874MOL0     C20521   2.757   7.238   5.225 -0.5472 -0.2661  0.2663
  874MOL0     O20522   3.009   7.166   5.364  0.2655 -0.4536  0.5512
  874MOL0     C20523   3.177   7.298   5.561 -1.6205  0.1078  0.3106
  874MOL0     C20524   3.241   7.347   5.675  0.5292 -0.6586 -1.0721
  874MOL0     N20525   3.232   7.952   6.396  0.0032  0.6649 -0.0956
  874MOL0     N20526   3.203   7.928   6.527  0.0331  0.6333 -0.4948
  874MOL0     C20527   2.191   7.422   6.795  0.0597 -0.3787 -0.1248
  874MOL0     C20528   2.174   7.379   6.924 -0.0468 -0.9190 -0.1334
  874MOL0     C20529   2.150   7.325   7.367  0.2746 -0.3922  0.3423
  874MOL0     C20530   2.262   7.257   7.407  0.0437  0.0537  0.1533
  874MOL0     C20531   2.279   7.204   7.536  0.7960 -0.8293  0.6201
  874MOL0     C20532   2.181   7.209   7.633  0.2026  0.1075  0.3179
  874MOL0     O20533   2.194   7.147   7.747  0.4755  0.8697 -0.0275
  874MOL0     C20534   2.306   7.174   7.829 -0.0058 -0.4210 -0.3050
  874MOL0     C20535   2.294   7.313   7.889 -0.6973 -0.3386  0.1246
  874MOL0     C20536   2.390   7.327   8.010 -0.4532  0.2148 -0.0285
  874MOL0     C20537   2.381   7.463   8.072 -0.1426 -0.3924 -0.3693
  874MOL0     C20538   2.451   7.461   8.206  0.6838  0.1464 -0.2537
  874MOL0     C20539   2.493   7.461   8.321  0.0504 -0.0987  0.4681
  874MOL0     C20540   2.069   7.272   7.593  0.0666  0.7753  0.9286
  874MOL0     C20541   2.045   7.339   7.468 -0.4052  1.0032  0.0440
  874MOL0     C20542   1.928   7.421   7.449  0.1314 -0.2624  0.1333
  874MOL0     H20543   2.465   7.522   7.041  1.5445  3.2566 -1.9455
  874MOL0     H20544   2.481   7.597   6.823 -0.2824 -0.5013  0.5030
  874MOL0     H20545   2.470   7.660   6.620 -1.7691 -0.0348  1.3762
  874MOL0     H20546   2.409   7.619   6.467 -1.0905  2.4363  1.3888
  874MOL0     H20547   2.527   7.412   6.647 -1.0124  2.2925  0.8002
  874MOL0     H20548   2.473   7.400   6.481  0.4016  1.0507 -0.8180
  874MOL0     H20549   2.710   7.390   6.471  0.4285 -0.5746  1.0441
  874MOL0     H20550   2.694   7.549   6.418  0.5244 -3.2157 -1.2041
  874MOL0     H20551   2.726   7.657   6.619 -3.0206 -0.7971  1.6939
  874MOL0     H20552   2.718   7.517   6.715 -1.3016  1.8965  0.4506
  874MOL0     H20553   2.936   7.510   6.512  0.7101  0.8380  0.0942
  874MOL0     H20554   2.914   7.440   6.686  3.0443  1.6029  1.0055
  874MOL0     H20555   2.966   7.736   6.630 -1.3701 -0.7085  1.0430
  874MOL0     H20556   2.937   7.668   6.772 -2.5426  2.8875 -2.0193
  874MOL0     H20557   3.163   7.538   6.601 -2.1666 -0.4751 -0.5343
  874MOL0     H20558   3.155   7.555   6.778 -3.7306  2.3769  2.2489
  874MOL0     H20559   3.166   7.789   6.767 -2.3152 -1.0829  0.3514
  874MOL0     H20560   3.319   7.706   6.713 -0.8011  0.4419  1.6637
  874MOL0     H20561   3.318   7.639   6.429 -1.9382  0.1567 -1.9824
  874MOL0     H20562   3.456   7.752   6.239  0.6532  2.4703 -2.7602
  874MOL0     H20563   3.378   7.890   6.165 -0.4928  0.5092  0.2559
  874MOL0     H20564   3.215   7.634   6.208  1.7089 -1.5523 -0.7310
  874MOL0     H20565   3.176   7.774   6.110  3.0128  2.1002 -3.1584
  874MOL0     H20566   3.423   7.672   6.011  0.6470 -0.4831  1.4740
  874MOL0     H20567   3.324   7.530   6.056 -0.8688 -0.2125 -0.4284
  874MOL0     H20568   3.124   7.622   5.935  0.3031 -0.5070  0.3744
  874MOL0     H20569   3.238   7.740   5.862  1.8914 -0.3372 -0.5433
  874MOL0     H20570   3.017   7.607   5.712 -0.1707  0.8079 -0.2370
  874MOL0     H20571   2.787   7.408   5.583  0.5070 -1.0003 -1.1593
  874MOL0     H20572   2.826   7.530   5.457  0.5533 -2.7464 -1.2372
  874MOL0     H20573   2.826   7.576   5.624 -1.8306  1.6837 -2.4092
  874MOL0     H20574   2.875   7.537   5.116 -1.1860  0.2973  0.4845
  874MOL0     H20575   2.698   7.496   4.950 -1.0865 -0.2752  0.3734
  874MOL0     H20576   2.565   7.192   4.801  1.2045 -0.7551 -0.4664
  874MOL0     H20577   2.519   7.091   4.935 -0.5505  1.8901  2.5797
  874MOL0     H20578   2.300   7.178   4.935 -0.0585  2.3720 -0.1995
  874MOL0     H20579   2.314   7.255   4.785 -4.3275 -1.8771  0.0899
  874MOL0     H20580   2.390   6.994   4.704 -0.4490  1.4632 -0.6157
  874MOL0     H20581   2.224   7.058   4.717  1.6221 -0.9965 -3.6595
  874MOL0     H20582   2.245   6.962   4.965 -2.8314 -2.4803 -0.8199
  874MOL0     H20583   2.370   6.858   4.885  0.2843 -0.3771 -0.6646
  874MOL0     H20584   2.146   6.750   4.893 -2.5910  1.8530  1.2022
  874MOL0     H20585   2.073   6.903   4.843 -0.7510  0.4136 -2.3356
  874MOL0     H20586   2.222   6.724   4.644  1.8064  0.7407 -1.9215
  874MOL0     H20587   2.161   6.874   4.603 -0.2558 -0.6654 -1.1569
  874MOL0     H20588   1.929   6.827   4.666 -1.5820 -0.1946 -3.1752
  874MOL0     H20589   1.970   6.667   4.728 -1.3848 -0.6020  0.2237
  874MOL0     H20590   1.998   6.807   4.451  2.1075  2.7190  3.6053
  874MOL0     H20591   1.866   6.691   4.496  1.0824 -2.0749  1.1966
  874MOL0     H20592   2.605   7.119   5.156 -0.0689 -1.1154 -2.0774
  874MOL0     H20593   2.783   7.174   5.309  1.0958  1.1905  0.9332
  874MOL0     H20594   3.225   7.215   5.510 -0.0152  0.9486  0.3905
  874MOL0     H20595   3.332   7.300   5.708  1.2615  0.1903 -1.8183
  874MOL0     H20596   2.119   7.376   6.728 -0.7107  0.3478  0.1729
  874MOL0     H20597   2.087   7.318   6.946  2.0522 -3.6016  1.2312
  874MOL0     H20598   2.344   7.245   7.337 -0.0225 -1.3628  0.2892
  874MOL0     H20599   2.377   7.159   7.536  1.2038  0.0308 -0.2449
  874MOL0     H20600   2.309   7.105   7.913 -0.0800  0.4065  0.3959
  874MOL0     H20601   2.404   7.168   7.781  0.4100  1.6377  0.1661
  874MOL0     H20602   2.193   7.327   7.929 -0.6825 -0.8288  0.3362
  874MOL0     H20603   2.312   7.386   7.810  2.1096 -1.8314 -0.7592
  874MOL0     H20604   2.361   7.250   8.082 -0.3944 -1.7787 -2.0205
  874MOL0     H20605   2.490   7.291   7.982 -0.1275  0.1927  1.1267
  874MOL0     H20606   2.278   7.489   8.095  0.5074 -1.1841  4.5477
  874MOL0     H20607   2.430   7.537   8.008 -1.2919 -0.2727 -1.1341
  874MOL0     H20608   2.533   7.465   8.420 -1.3410 -2.1831  1.1928
  874MOL0     H20609   1.993   7.277   7.671  1.6662 -3.5428  3.1614
  874MOL0     H20610   1.961   7.520   7.416  1.0947 -0.7181 -0.3047
  874MOL0     H20611   1.860   7.380   7.373  0.6990  0.7383 -0.9437
  874MOL0     H20612   1.859   7.427   7.534  0.8425 -0.3137  0.7248
  875MOL0     O20613   4.085   9.334   5.092 -0.1982 -0.0765  0.3469
  875MOL0     C20614   4.161   9.372   5.003  0.1032  0.1921  0.3872
  875MOL0     O20615   4.140   9.477   4.919 -0.1556  0.2425  0.2039
  875MOL0     C20616   4.037   9.570   4.939 -2.0122  1.0517 -0.1730
  875MOL0     C20617   3.971   9.619   4.830  0.4339  0.7509  0.2687
  875MOL0     C20618   3.867   9.715   4.847  0.9550  0.0020  0.0586
  875MOL0     C20619   3.845   9.776   4.973 -0.8484 -0.2509 -0.2689
  875MOL0     O20620   3.740   9.868   4.989  0.5321  0.0931 -0.1113
  875MOL0     C20621   3.708   9.902   5.128  0.5344  0.2610 -0.6968
  875MOL0     C20622   3.594   9.998   5.146  0.0760 -0.3882 -0.7115
  875MOL0     C20623   3.517   9.989   5.283 -0.0741 -0.4421 -0.2465
  875MOL0     C20624   3.418  10.106   5.305  0.8480 -0.1380 -0.1334
  875MOL0     C20625   3.295  10.087   5.211 -0.2571  0.3058  0.1993
  875MOL0     C20626   3.219  10.220   5.214  0.2688 -0.0447 -0.4242
  875MOL0     C20627   3.081  10.215   5.148 -0.7588  0.7326  0.2111
  875MOL0     C20628   3.026  10.354   5.134  0.0124  0.1600  0.1242
  875MOL0     N20629   2.880  10.362   5.094 -0.2306  0.5126 -1.2868
  875MOL0     C20630   2.778  10.382   5.182 -0.0651  0.2529  0.3086
  875MOL0     C20631   2.663  10.360   5.122 -0.6380  0.6452  0.0102
  875MOL0     C20632   2.524  10.399   5.169  1.1337 -0.1851 -0.0147
  875MOL0     C20633   2.528  10.440   5.314 -0.1153 -0.0638  0.2153
  875MOL0     C20634   2.553  10.331   5.403 -0.4387  1.3252 -0.2495
  875MOL0     C20635   2.447  10.229   5.407  0.7030 -0.3843 -0.2026
  875MOL0     O20636   2.316  10.275   5.456 -0.3044  0.7234  0.5724
  875MOL0     C20637   2.198  10.204   5.424  0.1668  0.2144 -0.3667
  875MOL0     C20638   2.076  10.244   5.493 -0.1793  0.3076 -0.4979
  875MOL0     C20639   1.954  10.177   5.481 -0.2644 -0.4141  0.6490
  875MOL0     C20640   1.821  10.245   5.532 -0.6947  0.4863  0.5408
  875MOL0     C20641   1.947  10.062   5.402  0.0939 -0.5182  0.0849
  875MOL0     C20642   1.828   9.982   5.391 -0.6117  1.0123  1.5193
  875MOL0     O20643   1.750   9.946   5.503  0.2675 -0.1313 -0.2176
  875MOL0     C20644   1.645   9.862   5.482 -0.0463 -0.3385  1.1742
  875MOL0     C20645   1.648   9.746   5.404 -0.2117  0.4037 -0.2353
  875MOL0     C20646   1.544   9.654   5.399 -0.4530 -0.1895  0.9799
  875MOL0     C20647   1.418   9.668   5.469 -0.8174 -0.3194  0.1787
  875MOL0     O20648   1.312   9.584   5.482 -0.0740 -0.7224 -0.6780
  875MOL0     C20649   1.280   9.513   5.365 -0.0855 -0.5862 -0.5202
  875MOL0     C20650   1.126   9.511   5.346  0.4661  1.3350 -0.4475
  875MOL0     C20651   1.057   9.644   5.364 -0.4099 -1.1909  1.2859
  875MOL0     C20652   1.131   9.769   5.293  0.2368 -0.6302 -1.0824
  875MOL0     C20653   1.085   9.793   5.151 -0.1219 -0.4187  1.0110
  875MOL0     C20654   1.149   9.706   5.040  0.0594 -0.1761  0.1561
  875MOL0     C20655   1.071   9.702   4.915  0.6025 -0.2798  0.0627
  875MOL0     C20656   1.057   9.560   4.872 -0.0215 -0.2771  0.5078
  875MOL0    Cl20657   1.201   9.502   4.801 -0.6086 -0.2067 -0.1743
  875MOL0     C20658   1.408   9.775   5.548  0.5703  0.1246 -0.1943
  875MOL0     C20659   1.520   9.870   5.552  0.1372  0.6734 -0.0268
  875MOL0     O20660   1.793   9.957   5.276  0.0031 -0.1919 -0.8648
  875MOL0     C20661   2.066  10.024   5.337  0.0033  0.3331  0.8103
  875MOL0     C20662   2.188  10.097   5.342  0.5240 -0.4095 -0.1043
  875MOL0     N20663   2.690  10.329   4.987 -0.1437 -0.0400  0.3348
  875MOL0     N20664   2.819  10.329   4.974  0.7525  0.2627  0.3999
  875MOL0     C20665   3.920   9.730   5.076 -0.6894 -0.2950  0.3791
  875MOL0     C20666   4.011   9.628   5.063 -0.3254 -0.3114  0.0858
  875MOL0     C20667   4.280   9.279   4.989  0.5869 -0.2184 -1.2247
  875MOL0     C20668   4.316   9.203   5.103  0.1733  0.3813 -0.0575
  875MOL0     C20669   4.427   9.119   5.092 -0.1328 -0.2872  0.7552
  875MOL0     C20670   4.514   9.114   4.979 -0.7482  0.9305  0.9485
  875MOL0     O20671   4.627   9.033   4.970  0.0827 -0.6014 -0.0411
  875MOL0     C20672   4.594   8.898   4.945  0.2581  0.2469 -0.2060
  875MOL0     C20673   4.686   8.859   4.827 -0.2196 -0.8018  0.1369
  875MOL0     C20674   4.823   8.831   4.882 -0.0386  0.4157  0.1294
  875MOL0     C20675   4.838   8.686   4.920  0.8613 -0.1512 -0.2701
  875MOL0     C20676   4.979   8.646   4.917  0.8815  0.5241  0.7661
  875MOL0     C20677   5.092   8.613   4.896 -0.3450  0.4579 -0.7134
  875MOL0     C20678   4.470   9.187   4.869 -0.4076 -0.0640 -0.7332
  875MOL0     C20679   4.353   9.266   4.871 -0.3043  0.8475 -0.0322
  875MOL0     C20680   4.306   9.324   4.734 -0.1581 -0.7378 -0.4579
  875MOL0     H20681   4.003   9.591   4.730  1.4029  1.0073  0.4936
  875MOL0     H20682   3.819   9.756   4.759  3.1227  1.4505 -0.5325
  875MOL0     H20683   3.797   9.945   5.175 -0.4653  0.6451  0.9345
  875MOL0     H20684   3.673   9.812   5.179 -2.3356  2.0634  0.7773
  875MOL0     H20685   3.625  10.100   5.121 -1.4614 -0.2889 -2.4473
  875MOL0     H20686   3.525   9.973   5.065  0.9038 -0.5750 -1.3715
  875MOL0     H20687   3.450   9.904   5.295  0.1174 -0.4504  0.8752
  875MOL0     H20688   3.581   9.987   5.372  0.1031 -2.0691 -0.3884
  875MOL0     H20689   3.397  10.117   5.412 -0.7021 -0.2287 -0.4042
  875MOL0     H20690   3.469  10.202   5.289  2.6297 -1.2683 -1.6752
  875MOL0     H20691   3.242  10.006   5.263  0.7206 -0.6998 -0.3464
  875MOL0     H20692   3.320  10.057   5.108 -0.2240  1.7622 -0.2301
  875MOL0     H20693   3.210  10.248   5.319  1.4595 -0.1273 -0.2802
  875MOL0     H20694   3.277  10.302   5.169  0.3458  0.0137 -0.2192
  875MOL0     H20695   3.008  10.146   5.191 -2.7356 -0.2323 -4.1630
  875MOL0     H20696   3.088  10.167   5.050 -2.3069 -0.5337  0.6773
  875MOL0     H20697   3.034  10.407   5.230 -1.2948  1.0501 -0.2318
  875MOL0     H20698   3.086  10.410   5.062 -0.5437 -0.7373 -1.0827
  875MOL0     H20699   2.782  10.413   5.286  2.6924 -0.7726  0.5801
  875MOL0     H20700   2.458  10.315   5.143  0.3134  0.9406 -1.7687
  875MOL0     H20701   2.496  10.484   5.107  0.5405  0.1459  0.6866
  875MOL0     H20702   2.598  10.523   5.330 -0.9796  0.5679  0.8023
  875MOL0     H20703   2.431  10.485   5.336 -0.4364 -1.5768  2.1252
  875MOL0     H20704   2.647  10.278   5.384 -0.3239 -0.2659  3.6263
  875MOL0     H20705   2.555  10.367   5.506 -0.1736 -0.5834  0.4692
  875MOL0     H20706   2.435  10.190   5.306 -0.2002  0.4744 -0.4381
  875MOL0     H20707   2.472  10.146   5.474 -2.2658 -1.7853 -0.6608
  875MOL0     H20708   2.081  10.335   5.552 -0.2009 -0.8303  1.3446
  875MOL0     H20709   1.783  10.189   5.618  1.7056 -3.5638 -0.7568
  875MOL0     H20710   1.745  10.232   5.455  2.9757 -1.0257 -3.2075
  875MOL0     H20711   1.838  10.351   5.552  1.2202 -0.1410  2.6657
  875MOL0     H20712   1.745   9.720   5.362  0.8134  0.5903  1.9245
  875MOL0     H20713   1.554   9.559   5.347 -0.4004  0.1215  0.4206
  875MOL0     H20714   1.327   9.556   5.276  0.6491  0.3101  0.2759
  875MOL0     H20715   1.319   9.411   5.365 -0.7639 -0.8534 -0.6949
  875MOL0     H20716   1.106   9.464   5.249  3.9161 -4.3398  1.1064
  875MOL0     H20717   1.083   9.439   5.416 -1.9841 -2.0569 -4.9001
  875MOL0     H20718   1.051   9.677   5.468  0.7566 -0.0126  1.0001
  875MOL0     H20719   0.956   9.638   5.323  1.2415  0.0585 -3.7080
  875MOL0     H20720   1.238   9.764   5.316  0.6081  0.5542 -2.4272
  875MOL0     H20721   1.089   9.851   5.353  1.7173 -1.8950  1.9250
  875MOL0     H20722   0.976   9.786   5.143 -0.1834  1.4276 -0.7853
  875MOL0     H20723   1.110   9.900   5.141 -0.5260 -0.4101 -0.0233
  875MOL0     H20724   1.160   9.604   5.079 -1.9856 -0.6746 -0.4138
  875MOL0     H20725   1.248   9.746   5.016  1.6358 -1.8968  3.2460
  875MOL0     H20726   1.115   9.761   4.834 -0.5794 -0.4859 -0.7597
  875MOL0     H20727   0.976   9.755   4.925 -0.0510 -1.0198 -1.7494
  875MOL0     H20728   0.975   9.536   4.803  0.0920 -3.5394  1.3425
  875MOL0     H20729   1.037   9.495   4.958  0.0374 -2.9533 -1.3721
  875MOL0     H20730   1.319   9.790   5.608  1.2718  0.0605  0.9048
  875MOL0     H20731   1.506   9.959   5.613 -0.8916 -0.8121  2.0190
  875MOL0     H20732   2.076   9.940   5.269 -3.2237  1.8931 -1.8581
  875MOL0     H20733   2.269  10.062   5.279 -0.1902 -0.3053 -1.1037
  875MOL0     H20734   3.919   9.774   5.175  0.4796 -2.2770  1.3253
  875MOL0     H20735   4.068   9.606   5.153 -1.8334  1.9420  1.6767
  875MOL0     H20736   4.259   9.196   5.195  0.7016 -0.3119  0.2253
  875MOL0     H20737   4.458   9.066   5.181 -0.2413 -1.2518  0.2258
  875MOL0     H20738   4.618   8.836   5.032 -2.2904 -2.2087 -1.0788
  875MOL0     H20739   4.487   8.892   4.922 -0.5223  0.2924  2.9975
  875MOL0     H20740   4.686   8.944   4.758  0.4046 -2.2103 -1.6925
  875MOL0     H20741   4.652   8.776   4.764  0.0042  0.6262 -1.9549
  875MOL0     H20742   4.885   8.853   4.795 -0.3300 -0.4384 -0.3061
  875MOL0     H20743   4.856   8.896   4.963  0.6052  0.4979 -0.1929
  875MOL0     H20744   4.785   8.626   4.846  3.9037 -0.8973 -2.0132
  875MOL0     H20745   4.798   8.658   5.018 -0.7634  1.3907 -0.4325
  875MOL0     H20746   5.179   8.572   4.850 -0.5682 -0.7333 -0.1006
  875MOL0     H20747   4.527   9.174   4.778  0.0442 -0.3439 -0.4162
  875MOL0     H20748   4.347   9.426   4.732  2.1358 -1.5442 -4.1710
  875MOL0     H20749   4.344   9.255   4.658 -0.4266 -1.9014  0.4320
  875MOL0     H20750   4.197   9.332   4.737 -0.3744 -2.6716 -1.7339
  876MOL0     O20751   4.234   8.400   6.753  0.2306 -0.4439 -0.3218
  876MOL0     C20752   4.212   8.297   6.816 -0.3937  1.2812 -0.5391
  876MOL0     O20753   4.108   8.214   6.805  0.5027 -0.4866  0.7173
  876MOL0     C20754   3.994   8.253   6.733  0.2327  0.2300  0.3556
  876MOL0     C20755   3.985   8.353   6.643 -0.9015  0.0968  0.0777
  876MOL0     C20756   3.874   8.378   6.562  0.0499 -0.2311 -0.6164
  876MOL0     C20757   3.764   8.290   6.577 -0.0373  0.1823  0.0743
  876MOL0     O20758   3.650   8.314   6.505  0.1595  0.6358 -0.0056
  876MOL0     C20759   3.639   8.213   6.403  0.1690  0.0194 -0.8335
  876MOL0     C20760   3.527   8.258   6.305  0.4932  0.1566  1.5696
  876MOL0     C20761   3.516   8.190   6.169 -0.2219  1.2794 -0.7033
  876MOL0     C20762   3.408   8.238   6.068  0.1332  0.0287 -0.5577
  876MOL0     C20763   3.431   8.184   5.926 -0.4620 -0.0424 -0.2515
  876MOL0     C20764   3.342   8.251   5.819  0.0130  0.3369 -1.1160
  876MOL0     C20765   3.381   8.202   5.682  0.7289 -0.3247 -0.1330
  876MOL0     C20766   3.272   8.229   5.573  0.7316  0.0815  0.5352
  876MOL0     N20767   3.326   8.206   5.433 -0.1771  0.6916 -0.6249
  876MOL0     C20768   3.344   8.080   5.368 -0.2827 -0.1947 -1.1158
  876MOL0     C20769   3.403   8.118   5.256 -0.3737  0.3886 -0.1213
  876MOL0     C20770   3.454   8.022   5.150  0.3833 -0.9429  1.2071
  876MOL0     C20771   3.362   7.997   5.025  0.6832  1.0659  0.8993
  876MOL0     C20772   3.324   8.130   4.950 -0.2869  0.1421 -0.2166
  876MOL0     C20773   3.449   8.207   4.894  0.2405 -0.1470 -0.6330
  876MOL0     O20774   3.547   8.115   4.826  0.4481  0.3523 -0.3931
  876MOL0     C20775   3.674   8.153   4.799 -0.3782  0.9372 -0.4082
  876MOL0     C20776   3.752   8.055   4.743 -1.0798 -0.0090  0.6370
  876MOL0     C20777   3.886   8.084   4.717 -0.0405 -0.1663 -1.2956
  876MOL0     C20778   3.956   7.971   4.652  0.6783 -0.3863  0.2037
  876MOL0     C20779   3.942   8.209   4.749 -0.0882 -0.0376  0.2791
  876MOL0     C20780   4.076   8.245   4.711  0.8133  1.2363 -0.7530
  876MOL0     O20781   4.120   8.349   4.774 -0.0622 -0.2478 -0.6730
  876MOL0     C20782   4.241   8.405   4.730 -0.8685  0.7730 -0.2874
  876MOL0     C20783   4.362   8.381   4.800 -0.3106  0.8995 -0.3738
  876MOL0     C20784   4.490   8.421   4.755  0.7490  0.1128  0.8069
  876MOL0     C20785   4.500   8.491   4.640  0.4171  0.1895  0.4361
  876MOL0     O20786   4.630   8.526   4.609  0.2543 -0.4078 -0.6455
  876MOL0     C20787   4.661   8.626   4.507 -0.6736  0.6270  0.8775
  876MOL0     C20788   4.797   8.692   4.512  0.3342  1.0463 -0.7229
  876MOL0     C20789   4.904   8.576   4.533  0.6585  0.9374  0.1064
  876MOL0     C20790   5.044   8.624   4.506  0.5003 -0.2317  0.0462
  876MOL0     C20791   5.138   8.503   4.471 -0.3082 -0.2646  1.0697
  876MOL0     C20792   5.288   8.542   4.476  0.0720 -0.2212 -0.4237
  876MOL0     C20793   5.374   8.414   4.470 -0.3310 -0.2183  0.1692
  876MOL0     C20794   5.390   8.358   4.332 -0.8768  0.9521 -0.1373
  876MOL0    Cl20795   5.473   8.467   4.222  0.2791 -0.2604  0.1732
  876MOL0     C20796   4.380   8.524   4.564 -0.8962  0.0068 -0.2820
  876MOL0     C20797   4.256   8.479   4.613  0.3794 -0.2801  0.8637
  876MOL0     O20798   4.126   8.191   4.617 -0.8593  0.5598 -0.9337
  876MOL0     C20799   3.858   8.309   4.798  0.6271  0.0058  0.0312
  876MOL0     C20800   3.724   8.284   4.824 -0.2808 -0.4639  0.2006
  876MOL0     N20801   3.426   8.254   5.249 -0.2733 -0.1610 -0.3063
  876MOL0     N20802   3.392   8.298   5.365  0.2646 -0.6599 -0.3177
  876MOL0     C20803   3.760   8.196   6.684  0.5581  0.4235 -0.0947
  876MOL0     C20804   3.879   8.173   6.758  0.3828  0.7109  1.1011
  876MOL0     C20805   4.320   8.255   6.906 -0.3573 -0.0169 -1.3266
  876MOL0     C20806   4.278   8.177   7.012  0.3306  0.4923 -0.3488
  876MOL0     C20807   4.360   8.132   7.121 -0.5375 -0.3131  0.5909
  876MOL0     C20808   4.493   8.172   7.121 -0.1196  0.5089  0.2402
  876MOL0     O20809   4.569   8.117   7.224 -0.4534  0.2178 -0.4296
  876MOL0     C20810   4.716   8.117   7.229 -0.2813 -0.5558 -0.3463
  876MOL0     C20811   4.770   8.005   7.313  0.3385 -0.8760 -0.1259
  876MOL0     C20812   4.741   8.034   7.466 -0.8501  0.0959 -0.0704
  876MOL0     C20813   4.770   7.914   7.547  0.0526  0.3241  0.3948
  876MOL0     C20814   4.746   7.950   7.688 -0.0077 -0.1706  0.1985
  876MOL0     C20815   4.718   8.000   7.798 -0.5402  0.1633  0.2806
  876MOL0     C20816   4.536   8.262   7.023 -0.4796  0.1575 -0.1890
  876MOL0     C20817   4.456   8.311   6.916 -0.2940  0.1082 -0.3123
  876MOL0     C20818   4.514   8.417   6.827  0.3593 -0.6123  1.1102
  876MOL0     H20819   4.060   8.427   6.616 -1.6113  1.1931  1.0454
  876MOL0     H20820   3.873   8.455   6.485 -0.6563  0.9145  0.4879
  876MOL0     H20821   3.607   8.120   6.450  2.5891 -0.2739  0.3830
  876MOL0     H20822   3.732   8.187   6.352  0.0894  1.9390 -2.0750
  876MOL0     H20823   3.434   8.246   6.360 -1.7227 -4.0992 -2.4190
  876MOL0     H20824   3.541   8.363   6.276 -0.4600 -0.3117 -0.8642
  876MOL0     H20825   3.606   8.212   6.111  0.3016  1.6270  0.2161
  876MOL0     H20826   3.498   8.083   6.183 -0.5595  1.3467 -0.6132
  876MOL0     H20827   3.312   8.194   6.099 -0.8704  2.3471 -0.2012
  876MOL0     H20828   3.411   8.347   6.070 -2.2000  0.1354  0.5817
  876MOL0     H20829   3.399   8.080   5.929  0.3333 -0.3073 -0.7928
  876MOL0     H20830   3.534   8.172   5.892  0.6309 -1.4355  3.0958
  876MOL0     H20831   3.235   8.234   5.834  0.1942  0.9943  1.3447
  876MOL0     H20832   3.356   8.359   5.828 -1.0439  0.2887  3.2255
  876MOL0     H20833   3.397   8.094   5.690 -2.5652 -0.8289  2.1895
  876MOL0     H20834   3.474   8.256   5.666 -0.0006  1.2205  0.5482
  876MOL0     H20835   3.182   8.173   5.597  0.5590 -0.5277 -1.3219
  876MOL0     H20836   3.247   8.336   5.575 -0.4747 -0.1664 -0.1380
  876MOL0     H20837   3.310   7.983   5.402 -0.3077 -1.7503 -5.0421
  876MOL0     H20838   3.473   7.924   5.193  0.9685 -2.2317 -1.7833
  876MOL0     H20839   3.545   8.069   5.111 -1.4261  1.2033 -0.7664
  876MOL0     H20840   3.407   7.927   4.953  1.3734  3.1358 -0.7758
  876MOL0     H20841   3.265   7.957   5.057  0.6651  0.3824  0.0552
  876MOL0     H20842   3.249   8.104   4.874 -0.9626  1.0814  0.0981
  876MOL0     H20843   3.280   8.209   5.012  0.7073  1.4766 -1.1506
  876MOL0     H20844   3.408   8.281   4.824  0.3323  0.7234  0.2145
  876MOL0     H20845   3.501   8.252   4.979  0.2372  0.4327 -0.9296
  876MOL0     H20846   3.710   7.962   4.706  0.5349 -0.4716 -0.1195
  876MOL0     H20847   4.055   7.944   4.689  1.2417  0.6619 -0.4817
  876MOL0     H20848   3.969   8.000   4.547 -0.4567  2.2524  0.7141
  876MOL0     H20849   3.895   7.881   4.646  0.7249 -0.5492  1.8057
  876MOL0     H20850   4.354   8.336   4.899  1.6036  1.6287  0.1461
  876MOL0     H20851   4.580   8.400   4.811  1.6702  2.3251  0.2797
  876MOL0     H20852   4.665   8.564   4.417 -1.9557 -0.1690  1.3456
  876MOL0     H20853   4.582   8.700   4.493  0.7889  1.6239 -3.9309
  876MOL0     H20854   4.809   8.730   4.411 -1.6181  0.3368 -1.2585
  876MOL0     H20855   4.810   8.761   4.596  2.2166  0.5836 -0.5847
  876MOL0     H20856   4.888   8.495   4.462  0.8716 -0.5153  1.6513
  876MOL0     H20857   4.892   8.530   4.632  1.4669 -3.2556 -1.5499
  876MOL0     H20858   5.082   8.680   4.592 -4.4604  1.3473  1.5311
  876MOL0     H20859   5.035   8.699   4.427  1.4678  0.2926  0.4104
  876MOL0     H20860   5.115   8.421   4.540  0.1694 -0.3055  1.1820
  876MOL0     H20861   5.116   8.472   4.368  3.4793 -2.3963  0.7153
  876MOL0     H20862   5.306   8.588   4.574 -0.2436 -2.0141  0.5190
  876MOL0     H20863   5.309   8.616   4.398  1.7252  1.1510  1.2419
  876MOL0     H20864   5.353   8.330   4.536  3.6142 -1.7535 -0.2316
  876MOL0     H20865   5.472   8.453   4.501 -0.8962  2.5890 -1.2260
  876MOL0     H20866   5.289   8.341   4.293 -0.1396  1.8637 -2.6592
  876MOL0     H20867   5.442   8.262   4.331 -2.3573  0.1010  1.0060
  876MOL0     H20868   4.392   8.568   4.465 -0.7467 -2.2005 -1.3213
  876MOL0     H20869   4.161   8.497   4.564 -1.0202 -0.0858  3.4453
  876MOL0     H20870   3.896   8.410   4.810 -2.7071  1.3962 -0.1887
  876MOL0     H20871   3.659   8.365   4.856 -0.4241 -0.5391  0.1033
  876MOL0     H20872   3.666   8.145   6.704  1.2598 -0.5812  0.7325
  876MOL0     H20873   3.875   8.096   6.835 -1.9854 -0.2261  0.1592
  876MOL0     H20874   4.172   8.153   7.012  0.4554 -0.1827  1.3886
  876MOL0     H20875   4.327   8.064   7.199 -3.1207  0.1484 -0.0163
  876MOL0     H20876   4.759   8.098   7.131  4.2856  0.7925  1.1440
  876MOL0     H20877   4.744   8.218   7.262 -1.4950 -0.5899  0.8751
  876MOL0     H20878   4.878   7.992   7.298  0.4552  0.4467 -0.5748
  876MOL0     H20879   4.713   7.918   7.279  0.4289 -1.2892  0.7401
  876MOL0     H20880   4.802   8.121   7.495 -1.3788  0.3423  0.3025
  876MOL0     H20881   4.636   8.062   7.477 -0.1075  2.0282  3.5478
  876MOL0     H20882   4.878   7.898   7.536  0.6211  4.6026 -3.0434
  876MOL0     H20883   4.707   7.829   7.518  1.5468 -0.6845 -0.0126
  876MOL0     H20884   4.693   8.036   7.895  1.4887 -0.4935  1.1139
  876MOL0     H20885   4.634   8.308   7.024 -0.1002 -0.5573  2.3022
  876MOL0     H20886   4.474   8.512   6.863  0.6955  0.1279 -0.4012
  876MOL0     H20887   4.622   8.420   6.840  0.2876 -0.2880  1.6541
  876MOL0     H20888   4.502   8.405   6.719  0.4032 -1.0642  1.1540
  877MOL0     O20889   1.862   5.052   7.313  0.3718  0.7707  0.5312
  877MOL0     C20890   1.761   5.028   7.380  0.1898  0.3046 -0.1632
  877MOL0     O20891   1.726   5.087   7.496 -0.0793  0.0355 -0.5032
  877MOL0     C20892   1.803   5.172   7.571 -0.5815  0.4431  0.2365
  877MOL0     C20893   1.750   5.220   7.684 -1.0187 -0.4195 -0.2007
  877MOL0     C20894   1.803   5.323   7.766  0.5746  0.0818 -0.3805
  877MOL0     C20895   1.922   5.377   7.730  0.2479 -0.7184 -0.3690
  877MOL0     O20896   1.997   5.475   7.805  0.6768 -0.2621 -0.1415
  877MOL0     C20897   1.932   5.516   7.926 -0.0832 -0.3155 -1.0593
  877MOL0     C20898   2.027   5.591   8.014 -0.1967  0.6099 -0.0263
  877MOL0     C20899   2.118   5.703   7.947  0.1586  0.1258  0.3913
  877MOL0     C20900   2.197   5.792   8.034 -1.0244 -0.2396  0.9229
  877MOL0     C20901   2.308   5.855   7.944  1.1752 -0.8455  0.7126
  877MOL0     C20902   2.403   5.942   8.023  0.4808 -0.2960  0.7505
  877MOL0     C20903   2.502   5.871   8.117 -0.0487  0.7815 -1.2390
  877MOL0     C20904   2.594   5.774   8.049 -0.2382  0.1524  0.0076
  877MOL0     N20905   2.670   5.830   7.931 -0.7489  0.1976  0.1502
  877MOL0     C20906   2.618   5.865   7.805  0.2746  0.5983 -0.0663
  877MOL0     C20907   2.729   5.866   7.731  0.3014 -0.9082  0.3171
  877MOL0     C20908   2.762   5.889   7.585  1.4493  0.5184  0.1290
  877MOL0     C20909   2.700   6.021   7.532  0.0023  0.4795  1.0150
  877MOL0     C20910   2.777   6.130   7.595  0.5625  0.0994 -0.2479
  877MOL0     C20911   2.705   6.256   7.549 -0.0604 -0.1116 -0.9526
  877MOL0     O20912   2.780   6.373   7.592 -0.0281  0.0870 -0.6133
  877MOL0     C20913   2.730   6.498   7.587  0.4053  0.7395  0.5971
  877MOL0     C20914   2.835   6.591   7.625  0.7959  0.6793 -0.0907
  877MOL0     C20915   2.813   6.722   7.633 -0.5463  0.2863  0.0655
  877MOL0     C20916   2.925   6.804   7.683  0.1505  0.0913  0.1838
  877MOL0     C20917   2.689   6.779   7.593 -0.1191  0.4585 -0.2701
  877MOL0     C20918   2.652   6.918   7.620 -0.4832  0.0344 -0.3720
  877MOL0     O20919   2.749   7.017   7.608  0.6464  0.6057  0.3470
  877MOL0     C20920   2.718   7.145   7.633 -0.7057 -0.2272  0.3634
  877MOL0     C20921   2.627   7.216   7.544  0.4824 -0.1588 -1.3775
  877MOL0     C20922   2.589   7.348   7.573 -0.7161 -1.1545  0.1479
  877MOL0     C20923   2.640   7.411   7.690 -1.4780 -0.3058 -0.2213
  877MOL0     O20924   2.610   7.538   7.742 -0.5913  0.5177 -0.1763
  877MOL0     C20925   2.506   7.600   7.666 -0.0683  0.0086  0.3911
  877MOL0     C20926   2.445   7.727   7.731 -0.2501  0.3379  0.4648
  877MOL0     C20927   2.342   7.806   7.655 -0.4635  0.3102  0.0174
  877MOL0     C20928   2.214   7.724   7.636  0.0212 -0.2629 -0.5283
  877MOL0     C20929   2.095   7.797   7.552  0.0966 -0.0926 -0.9730
  877MOL0     C20930   2.144   7.846   7.415 -0.1418 -0.0184  0.2591
  877MOL0     C20931   2.160   7.728   7.315 -0.3721 -0.4390 -0.2133
  877MOL0     C20932   2.220   7.763   7.175  0.6707  0.4657  0.3908
  877MOL0    Cl20933   2.085   7.844   7.087 -0.0715  0.3826  0.0744
  877MOL0     C20934   2.735   7.346   7.769  0.9112 -0.2187 -0.6290
  877MOL0     C20935   2.779   7.214   7.744  0.3706  0.4015 -0.2410
  877MOL0     O20936   2.531   6.933   7.653 -0.4757 -0.4362  0.6515
  877MOL0     C20937   2.583   6.688   7.557  0.8423  0.6937  0.2055
  877MOL0     C20938   2.607   6.548   7.542  0.2709  0.7079 -0.6563
  877MOL0     N20939   2.838   5.834   7.812 -0.0699  0.2740  0.2048
  877MOL0     N20940   2.802   5.803   7.924 -0.2093 -0.5895 -0.2839
  877MOL0     C20941   1.986   5.332   7.614 -0.8110  0.3304  0.0518
  877MOL0     C20942   1.931   5.225   7.546  0.1136 -0.0143 -0.3954
  877MOL0     C20943   1.672   4.921   7.329 -1.1808 -0.3376  0.0817
  877MOL0     C20944   1.557   4.912   7.404 -0.6846 -0.5192 -0.4074
  877MOL0     C20945   1.464   4.828   7.352  0.1966  0.8178  0.1087
  877MOL0     C20946   1.463   4.751   7.238 -1.0219  0.8809 -0.5425
  877MOL0     O20947   1.371   4.659   7.199  0.2218  0.2700  0.6539
  877MOL0     C20948   1.299   4.715   7.089 -0.3629  0.4530  0.5485
  877MOL0     C20949   1.181   4.622   7.061 -1.0594  0.8677  0.1093
  877MOL0     C20950   1.046   4.676   7.100  0.8632  0.6389  0.1640
  877MOL0     C20951   1.040   4.724   7.242 -0.0437 -0.5370  0.1712
  877MOL0     C20952   0.903   4.734   7.288  0.1641  0.2129 -0.3870
  877MOL0     C20953   0.792   4.749   7.334 -1.0205 -0.1554  0.3563
  877MOL0     C20954   1.588   4.754   7.173 -0.4742  0.7122 -0.1376
  877MOL0     C20955   1.691   4.840   7.209  0.5464 -0.1838  0.1476
  877MOL0     C20956   1.808   4.845   7.112 -0.7586 -0.9632 -0.4812
  877MOL0     H20957   1.650   5.193   7.719 -1.4088  0.0854 -0.8932
  877MOL0     H20958   1.756   5.352   7.859  0.0229  0.2032 -0.6913
  877MOL0     H20959   1.898   5.428   7.982 -2.9026 -0.5903 -2.9984
  877MOL0     H20960   1.847   5.581   7.902  0.0380  0.3638  0.2321
  877MOL0     H20961   1.971   5.637   8.095  0.3720 -1.7727  1.8438
  877MOL0     H20962   2.079   5.515   8.073 -1.7291  0.8145  1.6844
  877MOL0     H20963   2.190   5.648   7.885 -0.0111  0.2938  0.0396
  877MOL0     H20964   2.057   5.763   7.878 -1.0348 -3.7334 -2.3123
  877MOL0     H20965   2.130   5.871   8.070 -0.5282 -1.1599  4.1721
  877MOL0     H20966   2.246   5.744   8.119  0.1841 -1.5591 -0.4739
  877MOL0     H20967   2.256   5.915   7.868 -0.7812 -2.2157  0.8928
  877MOL0     H20968   2.364   5.777   7.892  0.1744 -2.0314  1.3717
  877MOL0     H20969   2.477   5.991   7.959  1.6800 -0.2302  2.1340
  877MOL0     H20970   2.345   6.022   8.071  0.9061 -0.4126  1.4703
  877MOL0     H20971   2.448   5.824   8.199  3.3373 -1.7324 -0.1980
  877MOL0     H20972   2.570   5.944   8.162  1.3321 -0.5570 -1.0625
  877MOL0     H20973   2.664   5.720   8.114  1.9361 -0.6021 -2.7679
  877MOL0     H20974   2.527   5.699   8.006  2.3056 -2.1676 -0.1796
  877MOL0     H20975   2.515   5.877   7.774 -0.5381  3.2382  3.1551
  877MOL0     H20976   2.719   5.800   7.539  0.7841 -0.6697  2.8678
  877MOL0     H20977   2.870   5.884   7.565  1.2298  0.4943 -1.0927
  877MOL0     H20978   2.719   6.030   7.425 -0.5434 -1.3269  0.7290
  877MOL0     H20979   2.592   6.030   7.550  0.0190  0.4378  1.1376
  877MOL0     H20980   2.790   6.126   7.704  1.3270 -0.5858 -0.3559
  877MOL0     H20981   2.883   6.129   7.565  0.5075 -1.0134 -0.4428
  877MOL0     H20982   2.687   6.262   7.441  2.7699 -0.4833 -1.5135
  877MOL0     H20983   2.612   6.249   7.606  2.9596 -1.0534  4.6662
  877MOL0     H20984   2.929   6.550   7.659  1.0077  1.9620  0.9421
  877MOL0     H20985   2.947   6.889   7.619 -3.2404  1.2871  0.4182
  877MOL0     H20986   3.013   6.741   7.702  0.4414 -0.3738 -2.3199
  877MOL0     H20987   2.889   6.840   7.779  0.5101  2.2404 -0.4460
  877MOL0     H20988   2.585   7.160   7.462 -0.0002 -3.0471  0.6890
  877MOL0     H20989   2.529   7.387   7.492  2.0949  2.4532 -0.4956
  877MOL0     H20990   2.545   7.622   7.566 -0.4589 -0.0058  0.2348
  877MOL0     H20991   2.429   7.524   7.650  0.6895 -0.2788 -2.3096
  877MOL0     H20992   2.412   7.699   7.831  0.4111 -1.6215  0.1808
  877MOL0     H20993   2.539   7.783   7.733  0.1909 -0.3562 -0.1000
  877MOL0     H20994   2.383   7.837   7.559 -2.1063 -0.9809 -1.1582
  877MOL0     H20995   2.314   7.898   7.708 -3.6888 -1.7179  2.2324
  877MOL0     H20996   2.169   7.710   7.735 -0.3478  2.9682 -0.1438
  877MOL0     H20997   2.226   7.633   7.576  0.2902 -1.0385  0.6673
  877MOL0     H20998   2.008   7.733   7.537  0.9842 -1.3870 -0.7143
  877MOL0     H20999   2.057   7.883   7.609 -3.2799 -0.9621 -1.6996
  877MOL0     H21000   2.233   7.908   7.428 -1.0677  1.9070 -1.8640
  877MOL0     H21001   2.069   7.912   7.371  0.9890  0.0091 -1.7084
  877MOL0     H21002   2.064   7.677   7.300 -0.2852 -0.9051  0.8108
  877MOL0     H21003   2.225   7.652   7.358 -1.4455 -1.3980 -0.2357
  877MOL0     H21004   2.238   7.670   7.122 -0.9223  0.3123  0.0811
  877MOL0     H21005   2.313   7.821   7.174  0.8698  0.3052  3.0736
  877MOL0     H21006   2.766   7.414   7.847 -3.1007  1.0525  0.1088
  877MOL0     H21007   2.848   7.162   7.809  0.0019 -0.3960 -0.4739
  877MOL0     H21008   2.483   6.725   7.535  0.8926 -0.0024 -1.3866
  877MOL0     H21009   2.537   6.471   7.511  1.7578 -1.4143  1.0117
  877MOL0     H21010   2.088   5.367   7.598 -0.3404 -0.8883  0.2690
  877MOL0     H21011   1.989   5.197   7.459  0.5127 -0.8497  0.1279
  877MOL0     H21012   1.523   4.960   7.496 -2.8658  0.0931 -1.4717
  877MOL0     H21013   1.375   4.814   7.412 -0.5433 -0.4359 -1.2427
  877MOL0     H21014   1.263   4.817   7.099 -1.2495  0.3388 -1.2454
  877MOL0     H21015   1.366   4.697   7.004  1.8789 -0.3486  2.3543
  877MOL0     H21016   1.198   4.527   7.114  1.4612  1.2274  0.0456
  877MOL0     H21017   1.180   4.589   6.957  2.3769  2.0470 -0.4221
  877MOL0     H21018   1.034   4.767   7.040  2.2563  0.4583 -0.4356
  877MOL0     H21019   0.974   4.595   7.093 -0.3389  1.7216 -0.4195
  877MOL0     H21020   1.089   4.820   7.259 -2.0800  0.7589 -0.8858
  877MOL0     H21021   1.095   4.656   7.307  0.1451  1.6674  2.4769
  877MOL0     H21022   0.700   4.767   7.386 -0.3328 -0.2904  1.6602
  877MOL0     H21023   1.606   4.676   7.099 -1.6002 -1.0524  1.3812
  877MOL0     H21024   1.797   4.779   7.026  3.4611 -0.9778 -1.2096
  877MOL0     H21025   1.821   4.945   7.070 -2.1878 -0.7349 -0.4395
  877MOL0     H21026   1.901   4.810   7.157  0.2322 -0.6968 -2.2678
  878MOL0     O21027   4.909   1.873   0.254 -0.0406  0.4674 -0.3490
  878MOL0     C21028   5.017   1.816   0.268  0.0753  0.3370 -0.1859
  878MOL0     O21029   5.076   1.785   0.390  0.6411 -0.6320  0.3561
  878MOL0     C21030   5.017   1.803   0.511  1.0261  0.3546 -1.0094
  878MOL0     C21031   5.108   1.781   0.616 -0.1190  0.6073  0.1953
  878MOL0     C21032   5.075   1.789   0.749 -0.1693  0.3258  0.1748
  878MOL0     C21033   4.936   1.816   0.785 -0.0019  1.0246 -0.2348
  878MOL0     O21034   4.899   1.836   0.920 -0.1252 -0.8779  1.1649
  878MOL0     C21035   4.776   1.789   0.969  0.2756 -0.4841 -0.5062
  878MOL0     C21036   4.770   1.835   1.119  0.9298 -0.2244  0.8014
  878MOL0     C21037   4.634   1.798   1.185 -0.2795  0.3628 -0.6072
  878MOL0     C21038   4.621   1.805   1.335 -0.1812  0.6659 -0.0182
  878MOL0     C21039   4.485   1.784   1.397 -0.4883  0.6048  0.4303
  878MOL0     C21040   4.499   1.764   1.546  0.1880  0.3536 -0.0484
  878MOL0     C21041   4.377   1.711   1.623 -1.0314 -0.2076  0.5953
  878MOL0     C21042   4.243   1.738   1.568 -0.2701  0.1088 -0.0204
  878MOL0     N21043   4.142   1.654   1.636 -0.0515  0.2532 -0.5937
  878MOL0     C21044   4.137   1.518   1.615 -0.1824 -0.3799 -0.2485
  878MOL0     C21045   4.007   1.491   1.668  0.4195  0.5635  0.1996
  878MOL0     C21046   3.947   1.355   1.687  0.4283  0.7075 -0.2616
  878MOL0     C21047   3.884   1.296   1.566 -0.3589  0.0204 -0.4165
  878MOL0     C21048   3.920   1.357   1.429 -0.7150 -0.3796  0.1405
  878MOL0     C21049   3.867   1.283   1.310 -0.1889  0.5111 -0.0207
  878MOL0     O21050   3.945   1.167   1.289 -0.0965  0.1424  0.5288
  878MOL0     C21051   4.062   1.170   1.208 -0.2919  0.9066 -0.2665
  878MOL0     C21052   4.113   1.046   1.193  0.5613  0.2925 -0.5437
  878MOL0     C21053   4.232   1.020   1.120  0.3382 -0.3589  0.4668
  878MOL0     C21054   4.302   0.886   1.121 -0.4627 -0.7000  0.2601
  878MOL0     C21055   4.302   1.133   1.071 -0.6082 -0.2315  0.5374
  878MOL0     C21056   4.434   1.110   0.993  0.4226  0.1651 -0.0980
  878MOL0     O21057   4.504   1.217   0.992 -0.1102 -0.1840  0.1261
  878MOL0     C21058   4.646   1.214   0.961  1.1268 -0.7955 -0.3426
  878MOL0     C21059   4.695   1.342   0.905 -0.0649 -1.1342  0.3548
  878MOL0     C21060   4.834   1.355   0.868  1.0513  0.4770  0.1750
  878MOL0     C21061   4.921   1.246   0.891 -0.1760 -0.2565  0.1356
  878MOL0     O21062   5.053   1.261   0.858  0.0136 -0.0404 -0.3021
  878MOL0     C21063   5.120   1.143   0.804  0.8839  0.2836 -0.2642
  878MOL0     C21064   5.148   1.180   0.651 -0.8271  0.0284  0.4282
  878MOL0     C21065   5.277   1.264   0.651  0.0532  0.0808 -0.0168
  878MOL0     C21066   5.286   1.355   0.528  0.5587  0.2857  0.0219
  878MOL0     C21067   5.416   1.435   0.525 -0.4243 -0.4204  0.3493
  878MOL0     C21068   5.426   1.503   0.380  0.4834 -0.0438  0.0218
  878MOL0     C21069   5.568   1.560   0.366 -1.0695 -0.6188 -0.7134
  878MOL0     C21070   5.621   1.651   0.483 -0.4828 -0.5267  0.3303
  878MOL0    Cl21071   5.774   1.732   0.437  0.2905  0.1620  0.0812
  878MOL0     C21072   4.881   1.133   0.960  0.0890  0.1991  0.5344
  878MOL0     C21073   4.746   1.114   0.990 -0.2308 -0.3144 -0.8531
  878MOL0     O21074   4.460   1.004   0.927 -0.0173  0.7614 -0.8016
  878MOL0     C21075   4.243   1.259   1.091  0.1333  0.3560  0.6565
  878MOL0     C21076   4.120   1.280   1.145 -0.6468  0.4330  0.4808
  878MOL0     N21077   3.951   1.605   1.714  0.9555  0.4982  0.2517
  878MOL0     N21078   4.035   1.701   1.705 -0.0409  0.2672  1.2566
  878MOL0     C21079   4.843   1.836   0.680  0.6620  0.5334  0.1152
  878MOL0     C21080   4.878   1.823   0.541 -0.1721  0.3671  0.1416
  878MOL0     C21081   5.094   1.774   0.152 -0.0075 -0.3127 -0.3863
  878MOL0     C21082   5.232   1.786   0.160  1.1159 -0.5656 -0.6497
  878MOL0     C21083   5.308   1.774   0.048  0.0099 -0.5666  0.2215
  878MOL0     C21084   5.251   1.744  -0.082 -0.1279 -0.2364  0.5087
  878MOL0     O21085   5.326   1.741  -0.198 -0.0196  0.1340  0.6798
  878MOL0     C21086   5.469   1.765  -0.192 -0.0636 -0.8302 -0.0044
  878MOL0     C21087   5.547   1.745  -0.321  0.7986 -0.7856 -0.8495
  878MOL0     C21088   5.615   1.606  -0.332 -0.3126 -0.3109  0.4348
  878MOL0     C21089   5.722   1.608  -0.443 -0.8394  0.1635  0.5587
  878MOL0     C21090   5.852   1.667  -0.404 -0.2695  0.4617 -1.3954
  878MOL0     C21091   5.959   1.721  -0.387 -0.3562  0.9324 -0.3020
  878MOL0     C21092   5.113   1.722  -0.086  0.0847 -0.4480 -0.6773
  878MOL0     C21093   5.026   1.742   0.029  0.0950  0.3677 -0.1074
  878MOL0     C21094   4.879   1.723  -0.000  0.1229  0.1718  0.0767
  878MOL0     H21095   5.208   1.748   0.586 -0.7263  1.7146 -3.6955
  878MOL0     H21096   5.156   1.793   0.820  2.7712  5.1436 -2.9184
  878MOL0     H21097   4.765   1.680   0.979  1.5208 -0.5907 -0.2441
  878MOL0     H21098   4.688   1.834   0.922 -0.1717 -0.1897  0.5718
  878MOL0     H21099   4.840   1.775   1.176 -1.0722 -3.4287  0.1471
  878MOL0     H21100   4.773   1.944   1.128  0.0049 -0.0185 -0.9256
  878MOL0     H21101   4.568   1.866   1.131  0.5190 -0.1093 -2.2454
  878MOL0     H21102   4.598   1.698   1.159  0.9822 -0.1435 -0.4970
  878MOL0     H21103   4.690   1.728   1.370  1.2258  0.9680 -1.9428
  878MOL0     H21104   4.672   1.897   1.365  1.3629 -0.5117  1.1725
  878MOL0     H21105   4.445   1.689   1.359  2.9453 -1.1588  0.8620
  878MOL0     H21106   4.411   1.860   1.370 -1.7018 -0.7807 -0.3376
  878MOL0     H21107   4.582   1.695   1.568 -0.2802 -0.6073 -1.2054
  878MOL0     H21108   4.522   1.862   1.588 -0.9332  0.7236 -0.2699
  878MOL0     H21109   4.367   1.750   1.725  1.4164  0.2756  0.6960
  878MOL0     H21110   4.385   1.602   1.627  0.6685 -0.0773  1.7868
  878MOL0     H21111   4.222   1.844   1.582  2.3906  0.6608  0.2515
  878MOL0     H21112   4.241   1.716   1.461 -1.2544 -0.4076  0.0927
  878MOL0     H21113   4.204   1.445   1.572  0.2341  0.7944 -1.6858
  878MOL0     H21114   3.874   1.358   1.768  1.0947 -0.2432  0.3875
  878MOL0     H21115   4.025   1.286   1.719 -0.0173 -1.0279 -2.5897
  878MOL0     H21116   3.911   1.190   1.569 -0.4321 -0.0314 -1.3511
  878MOL0     H21117   3.781   1.311   1.597  0.9880  3.8920  3.2784
  878MOL0     H21118   3.881   1.458   1.423  0.0679 -0.0366  0.6742
  878MOL0     H21119   4.027   1.381   1.426 -0.8967  0.5423  0.6656
  878MOL0     H21120   3.762   1.256   1.323 -0.5929  1.9953 -0.0737
  878MOL0     H21121   3.874   1.353   1.227  0.9452 -1.2722 -1.4915
  878MOL0     H21122   4.056   0.960   1.227  1.9128 -0.5739 -0.3677
  878MOL0     H21123   4.309   0.832   1.026  0.8568 -3.4357  1.7797
  878MOL0     H21124   4.261   0.822   1.200 -1.3949 -0.2410  0.1632
  878MOL0     H21125   4.406   0.907   1.147 -0.7845 -0.2128  1.1784
  878MOL0     H21126   4.620   1.418   0.886 -0.8625 -1.1370  3.0599
  878MOL0     H21127   4.868   1.449   0.826 -1.8974  1.3897 -0.4251
  878MOL0     H21128   5.212   1.128   0.861  1.5674  4.8295  0.1812
  878MOL0     H21129   5.054   1.056   0.815 -1.5820  1.9144 -1.2916
  878MOL0     H21130   5.166   1.086   0.597 -0.7440  0.9492 -1.1957
  878MOL0     H21131   5.070   1.226   0.590 -4.9355 -2.5363  3.2130
  878MOL0     H21132   5.368   1.204   0.659  0.6048  0.6531 -1.6169
  878MOL0     H21133   5.279   1.329   0.739 -0.3407  2.7705 -1.8831
  878MOL0     H21134   5.200   1.416   0.501  0.4260 -0.5166 -1.4344
  878MOL0     H21135   5.294   1.284   0.445  0.8306  0.0642  0.2340
  878MOL0     H21136   5.418   1.511   0.604  1.0844  1.0047 -0.9837
  878MOL0     H21137   5.498   1.362   0.532 -0.3745 -0.2611  1.5576
  878MOL0     H21138   5.354   1.584   0.365 -0.9149 -1.2267  0.2423
  878MOL0     H21139   5.398   1.435   0.300 -3.2370  0.8765  0.3853
  878MOL0     H21140   5.569   1.625   0.278  0.6969  1.8981  1.0245
  878MOL0     H21141   5.630   1.470   0.368 -1.0843 -0.6262 -0.5032
  878MOL0     H21142   5.643   1.595   0.574  2.1151  0.7417  0.5708
  878MOL0     H21143   5.544   1.724   0.509 -0.1575 -0.7366  2.0268
  878MOL0     H21144   4.950   1.055   0.988  0.2827  0.3771  0.5550
  878MOL0     H21145   4.710   1.024   1.038 -5.6799 -0.2822 -3.9511
  878MOL0     H21146   4.297   1.335   1.035 -0.2714  2.0721  2.4741
  878MOL0     H21147   4.076   1.379   1.146  0.0267  0.7406  1.2567
  878MOL0     H21148   4.737   1.851   0.702  0.7753 -0.9531  1.8499
  878MOL0     H21149   4.805   1.819   0.461  1.0894 -0.5667 -0.9978
  878MOL0     H21150   5.289   1.827   0.243  0.2243  1.1840 -0.8371
  878MOL0     H21151   5.415   1.787   0.059  0.1343 -3.0649  3.4553
  878MOL0     H21152   5.480   1.865  -0.150 -0.8682 -1.2675  1.3075
  878MOL0     H21153   5.503   1.701  -0.110 -2.0723 -1.5761  0.2949
  878MOL0     H21154   5.633   1.814  -0.323  0.4033 -0.1405  1.5676
  878MOL0     H21155   5.477   1.762  -0.403 -1.9632 -1.9909  1.1111
  878MOL0     H21156   5.663   1.572  -0.240  1.4251  2.2954  0.5845
  878MOL0     H21157   5.547   1.529  -0.369 -0.1480  0.3002 -1.2373
  878MOL0     H21158   5.696   1.672  -0.527  2.1583  0.5810 -0.1739
  878MOL0     H21159   5.737   1.505  -0.477 -2.3684 -0.8404  2.7149
  878MOL0     H21160   6.044   1.785  -0.375 -1.1045  1.5820  2.0962
  878MOL0     H21161   5.078   1.716  -0.189  1.9071  4.2266 -1.8186
  878MOL0     H21162   4.825   1.670   0.078  1.0509 -1.5723 -0.3996
  878MOL0     H21163   4.837   1.823  -0.014 -1.8011 -0.3593  1.6563
  878MOL0     H21164   4.859   1.657  -0.085 -3.5591  0.1692  0.7861
  879MOL0     O21165   2.660  10.520   0.876  0.5073  0.4191  0.4363
  879MOL0     C21166   2.752  10.577   0.815 -0.2797 -0.2402  0.8687
  879MOL0     O21167   2.832  10.523   0.711  0.5725  0.2056  0.0500
  879MOL0     C21168   2.801  10.399   0.659 -1.0101  0.5872  0.6439
  879MOL0     C21169   2.672  10.350   0.625  0.2734 -0.1160  0.4675
  879MOL0     C21170   2.661  10.217   0.577 -0.8050 -0.5451 -0.4404
  879MOL0     C21171   2.771  10.135   0.559  0.8135 -1.2762 -0.1740
  879MOL0     O21172   2.738  10.007   0.516 -0.0406 -0.7784  0.5357
  879MOL0     C21173   2.840   9.906   0.529 -0.2479 -0.1654 -1.4041
  879MOL0     C21174   2.783   9.763   0.510  1.0518  0.3603  0.0873
  879MOL0     C21175   2.872   9.654   0.564 -0.0043 -0.6800  0.4407
  879MOL0     C21176   3.012   9.651   0.502 -0.4110  0.1284 -0.7738
  879MOL0     C21177   3.110   9.549   0.567  0.3535 -0.1662 -0.9945
  879MOL0     C21178   3.244   9.544   0.496 -0.0742 -0.5219 -1.3193
  879MOL0     C21179   3.338   9.439   0.553  0.4952 -0.4145  0.3596
  879MOL0     C21180   3.288   9.297   0.594 -0.6161  0.3392 -0.2476
  879MOL0     N21181   3.269   9.211   0.471  0.6145 -0.0767  0.0676
  879MOL0     C21182   3.375   9.164   0.397  0.5025 -0.0605 -0.5672
  879MOL0     C21183   3.316   9.110   0.289  0.2628 -0.2456 -0.4392
  879MOL0     C21184   3.381   9.094   0.159 -0.0742  0.4210  0.1234
  879MOL0     C21185   3.534   9.128   0.166  0.6267  0.7469  0.1649
  879MOL0     C21186   3.601   9.106   0.033  0.1295  0.5806 -0.0126
  879MOL0     C21187   3.748   9.095   0.052  0.4415 -0.5771  0.3539
  879MOL0     O21188   3.776   8.985   0.139  0.4546 -0.2952  0.8526
  879MOL0     C21189   3.895   8.991   0.203  0.1473 -0.6492  0.8323
  879MOL0     C21190   3.918   8.907   0.305 -0.7076  1.2641 -0.0831
  879MOL0     C21191   4.045   8.893   0.374  0.2258  0.0386  0.2928
  879MOL0     C21192   4.049   8.789   0.472 -0.0241  1.0197 -0.4268
  879MOL0     C21193   4.153   8.963   0.325 -0.0639  0.0825 -0.0424
  879MOL0     C21194   4.287   8.941   0.395  0.4758  0.3585 -0.5684
  879MOL0     O21195   4.377   8.870   0.330 -0.3338  0.1895  0.0269
  879MOL0     C21196   4.492   8.827   0.390 -0.7699 -0.1086 -0.1369
  879MOL0     C21197   4.592   8.914   0.426 -0.1988  0.8292  0.8616
  879MOL0     C21198   4.713   8.871   0.488  0.2232  0.7226  0.2495
  879MOL0     C21199   4.748   8.736   0.526  0.1394  0.4011  0.1498
  879MOL0     O21200   4.844   8.696   0.610  0.6216 -0.3079 -0.2036
  879MOL0     C21201   4.953   8.774   0.638  0.2847  0.5553 -0.4996
  879MOL0     C21202   5.058   8.794   0.532  0.1092 -0.7948 -0.3076
  879MOL0     C21203   5.126   8.669   0.488 -0.3258  0.7231 -0.1331
  879MOL0     C21204   5.247   8.687   0.395 -0.2794  0.2938 -0.4069
  879MOL0     C21205   5.301   8.541   0.363 -0.3487 -0.0050  0.1229
  879MOL0     C21206   5.442   8.558   0.305  0.2461  0.4110 -0.2511
  879MOL0     C21207   5.527   8.424   0.299 -0.6403  1.0249  0.6595
  879MOL0     C21208   5.518   8.377   0.152  0.0602  0.1368  0.1985
  879MOL0    Cl21209   5.616   8.221   0.133  0.5515  0.2431  0.1301
  879MOL0     C21210   4.647   8.649   0.478  0.9373 -0.1145 -0.3372
  879MOL0     C21211   4.522   8.693   0.424  0.2508  0.3631  0.1889
  879MOL0     O21212   4.300   8.997   0.506  0.4846  0.1304  0.6286
  879MOL0     C21213   4.136   9.058   0.224 -0.1077 -0.0608  1.0440
  879MOL0     C21214   4.009   9.070   0.160  1.0195 -0.1990 -0.2008
  879MOL0     N21215   3.179   9.108   0.318 -0.1039  0.1505  0.6802
  879MOL0     N21216   3.148   9.160   0.432  0.1563 -0.1332 -1.4968
  879MOL0     C21217   2.892  10.184   0.608  0.9066  0.5722  0.2606
  879MOL0     C21218   2.908  10.309   0.655  0.1819  0.9503 -0.7021
  879MOL0     C21219   2.766  10.722   0.854  0.2046  0.5825  0.1598
  879MOL0     C21220   2.884  10.789   0.845  0.2020 -0.3679  0.0955
  879MOL0     C21221   2.887  10.931   0.845  0.5059  0.9133 -0.0601
  879MOL0     C21222   2.775  11.004   0.881 -1.0001 -0.0555 -0.2151
  879MOL0     O21223   2.790  11.141   0.872 -0.2510  0.2991 -0.7146
  879MOL0     C21224   2.693  11.236   0.870 -0.5502  0.8792 -0.1668
  879MOL0     C21225   2.639  11.236   0.733  0.4146  0.0734 -0.2130
  879MOL0     C21226   2.539  11.338   0.702 -0.2337 -0.1229 -0.6710
  879MOL0     C21227   2.475  11.307   0.572  0.2016  0.3055 -0.0713
  879MOL0     C21228   2.378  11.412   0.553 -0.1217 -0.7190  0.0338
  879MOL0     C21229   2.284  11.497   0.552 -0.0202 -0.5112  0.7175
  879MOL0     C21230   2.662  10.937   0.903 -0.0284  0.1663  1.0024
  879MOL0     C21231   2.651  10.803   0.884 -0.4297  1.3582 -0.1041
  879MOL0     C21232   2.508  10.759   0.879  0.9395 -0.2597  0.3416
  879MOL0     H21233   2.585  10.415   0.626  0.4172  0.0783  1.4726
  879MOL0     H21234   2.563  10.175   0.559 -0.3211 -1.5922 -0.7170
  879MOL0     H21235   2.858   9.903   0.637 -0.7583 -0.4267 -1.3243
  879MOL0     H21236   2.927   9.930   0.466  0.2786  0.2398 -0.5423
  879MOL0     H21237   2.696   9.766   0.576  1.0214  1.1408  0.0252
  879MOL0     H21238   2.743   9.756   0.408 -1.4995  2.4106  0.8344
  879MOL0     H21239   2.865   9.668   0.672 -4.4707 -1.2163  0.4280
  879MOL0     H21240   2.824   9.558   0.541  0.9219 -0.8835 -0.7424
  879MOL0     H21241   3.002   9.627   0.396  2.1281  0.8909 -1.2734
  879MOL0     H21242   3.055   9.752   0.506 -0.3838  0.0771  0.9300
  879MOL0     H21243   3.054   9.455   0.573  2.9091 -1.7068  0.9669
  879MOL0     H21244   3.123   9.572   0.673 -1.7635  2.6357 -1.1989
  879MOL0     H21245   3.235   9.538   0.387  1.4002  1.1685 -1.5751
  879MOL0     H21246   3.295   9.638   0.521  0.1578 -1.1398  0.7513
  879MOL0     H21247   3.385   9.479   0.644  0.7619  0.3801 -0.1144
  879MOL0     H21248   3.419   9.438   0.479  0.6524  0.0609  0.5194
  879MOL0     H21249   3.358   9.247   0.661  1.5327  3.0513 -0.3095
  879MOL0     H21250   3.191   9.303   0.645 -0.4220 -1.0075  0.3109
  879MOL0     H21251   3.479   9.182   0.422  0.7261  0.6791 -1.9396
  879MOL0     H21252   3.319   9.165   0.103  1.9348  3.1950  1.2093
  879MOL0     H21253   3.375   8.994   0.115  2.8163  1.0334 -1.9597
  879MOL0     H21254   3.540   9.235   0.188 -3.0870  1.2472 -0.7220
  879MOL0     H21255   3.593   9.075   0.241 -0.0090 -0.3492 -0.0918
  879MOL0     H21256   3.556   9.022  -0.019  1.5449  0.7209 -1.5725
  879MOL0     H21257   3.588   9.191  -0.035 -1.8432  0.5469  0.2782
  879MOL0     H21258   3.800   9.079  -0.042  4.6572  1.1557  2.1535
  879MOL0     H21259   3.793   9.186   0.092 -2.2458  0.4253  1.3349
  879MOL0     H21260   3.838   8.838   0.334  1.6630 -1.6132  0.0714
  879MOL0     H21261   4.007   8.824   0.567 -1.7254  0.0321 -0.7816
  879MOL0     H21262   4.145   8.742   0.498 -0.5677 -1.7112 -2.8144
  879MOL0     H21263   3.979   8.712   0.439  0.4198  0.4238  0.0024
  879MOL0     H21264   4.574   9.019   0.406 -0.2730  0.7589  0.5610
  879MOL0     H21265   4.778   8.951   0.522 -1.6284  1.6414  1.8406
  879MOL0     H21266   4.916   8.866   0.685  0.2330 -0.8315  2.3576
  879MOL0     H21267   4.998   8.720   0.721  0.2147 -0.2452 -0.9745
  879MOL0     H21268   5.030   8.856   0.446  1.4211  1.8970  1.0888
  879MOL0     H21269   5.136   8.850   0.585  0.0848 -0.7724 -0.2960
  879MOL0     H21270   5.051   8.610   0.434  3.7189 -6.3435  0.6626
  879MOL0     H21271   5.155   8.613   0.577 -0.0736  2.0081  0.6182
  879MOL0     H21272   5.324   8.744   0.447 -1.5371  1.7348 -0.0536
  879MOL0     H21273   5.226   8.745   0.305 -1.7695 -1.6478 -1.3954
  879MOL0     H21274   5.318   8.490   0.458 -0.6512  1.3572  0.9383
  879MOL0     H21275   5.237   8.489   0.291  1.0443 -1.5344 -0.0823
  879MOL0     H21276   5.494   8.620   0.378  1.2009  0.4538 -0.9587
  879MOL0     H21277   5.445   8.615   0.212  0.0745  1.3603  0.3122
  879MOL0     H21278   5.495   8.351   0.374 -1.8210 -1.2297 -1.8411
  879MOL0     H21279   5.624   8.463   0.329 -0.6989  0.3277  1.7869
  879MOL0     H21280   5.568   8.449   0.086 -0.8199 -0.6092 -1.3505
  879MOL0     H21281   5.410   8.368   0.141 -0.1463  0.3725  1.7891
  879MOL0     H21282   4.667   8.544   0.493 -0.3217 -0.2970  0.2205
  879MOL0     H21283   4.443   8.620   0.414 -0.6442  1.2501  0.5433
  879MOL0     H21284   4.217   9.124   0.194 -0.0273 -0.8598 -0.6166
  879MOL0     H21285   3.997   9.148   0.086 -0.6156  0.5466  0.8043
  879MOL0     H21286   2.981  10.121   0.609  0.6914  0.1277 -2.1719
  879MOL0     H21287   3.004  10.343   0.691  0.1430  1.4154 -1.0253
  879MOL0     H21288   2.977  10.739   0.818  2.1312  2.3882  1.1385
  879MOL0     H21289   2.980  10.984   0.827 -0.2893  1.2289 -4.3408
  879MOL0     H21290   2.621  11.202   0.945 -2.9977  0.5598 -2.4904
  879MOL0     H21291   2.733  11.331   0.905 -0.2318  1.2225 -1.4034
  879MOL0     H21292   2.609  11.135   0.704  1.0623  0.1412 -1.1895
  879MOL0     H21293   2.724  11.260   0.668  1.6763 -2.9932  0.1359
  879MOL0     H21294   2.458  11.341   0.776  2.0943  1.4079  2.0159
  879MOL0     H21295   2.592  11.434   0.699  0.6622 -0.6005 -0.6152
  879MOL0     H21296   2.424  11.210   0.576  1.6520 -0.4497  3.1681
  879MOL0     H21297   2.541  11.313   0.484 -1.0447  2.0749 -0.9646
  879MOL0     H21298   2.201  11.564   0.541  0.0725  0.0427  2.8956
  879MOL0     H21299   2.574  11.000   0.913 -0.3146  0.0490 -0.4247
  879MOL0     H21300   2.482  10.692   0.796 -2.6637  0.4636  0.7119
  879MOL0     H21301   2.476  10.706   0.970 -0.9798  1.4345  0.7317
  879MOL0     H21302   2.436  10.839   0.859 -0.8851 -2.0227 -0.5200
  880MOL0     O21303   4.017   9.992   6.266  0.1210  0.1505 -0.4426
  880MOL0     C21304   3.906  10.002   6.322 -0.2145  0.1100 -0.0799
  880MOL0     O21305   3.785  10.003   6.256 -0.2869  0.0532  0.5900
  880MOL0     C21306   3.782   9.944   6.136 -0.4788  0.4193  0.6036
  880MOL0     C21307   3.858   9.831   6.093 -0.9479 -0.0999  0.3897
  880MOL0     C21308   3.844   9.776   5.963  0.1814 -0.2668  0.5487
  880MOL0     C21309   3.744   9.828   5.877 -0.4020  0.1055 -0.0464
  880MOL0     O21310   3.716   9.765   5.759  0.3674 -0.5788 -0.8058
  880MOL0     C21311   3.680   9.852   5.647 -0.8410  1.8416  0.2673
  880MOL0     C21312   3.809   9.931   5.599  0.7006 -0.9000 -0.2386
  880MOL0     C21313   3.920   9.827   5.559  0.7005  0.2422 -0.8043
  880MOL0     C21314   4.026   9.896   5.469 -0.1957  0.0484  0.2894
  880MOL0     C21315   4.140   9.811   5.412 -0.6516  0.5265 -0.0748
  880MOL0     C21316   4.195   9.712   5.519 -0.0625 -0.3095  0.4850
  880MOL0     C21317   4.333   9.655   5.473  0.9347 -0.6375  0.6569
  880MOL0     C21318   4.324   9.573   5.343  0.1741  0.0813  0.0751
  880MOL0     N21319   4.438   9.501   5.295 -0.3465 -0.3027  0.4347
  880MOL0     C21320   4.492   9.388   5.347 -0.1724 -0.2440  0.1000
  880MOL0     C21321   4.609   9.360   5.285  0.1741  0.2145  0.1116
  880MOL0     C21322   4.707   9.248   5.312  0.0807 -0.4165 -0.2512
  880MOL0     C21323   4.754   9.239   5.467  0.2864 -0.3803 -0.1139
  880MOL0     C21324   4.837   9.116   5.508  1.0783  0.1049  0.0858
  880MOL0     C21325   4.973   9.107   5.445  0.1278 -0.3918  0.0710
  880MOL0     O21326   4.982   9.101   5.302  0.0640 -0.4082  0.5007
  880MOL0     C21327   5.108   9.080   5.260 -0.7526 -0.1592  0.3139
  880MOL0     C21328   5.232   9.084   5.335 -0.4277  0.4188 -0.0657
  880MOL0     C21329   5.357   9.066   5.271 -0.3727  0.7267  0.0371
  880MOL0     C21330   5.487   9.092   5.351 -0.5850  0.8633  0.5072
  880MOL0     C21331   5.361   9.032   5.136  0.6992 -0.4151  0.0650
  880MOL0     C21332   5.487   9.013   5.046 -0.1970 -0.0149 -0.1565
  880MOL0     O21333   5.465   9.004   4.906 -0.0629 -0.1423  0.0418
  880MOL0     C21334   5.573   9.003   4.827  0.8069  0.4973 -0.3222
  880MOL0     C21335   5.613   9.120   4.772  0.5295  0.2701  0.0015
  880MOL0     C21336   5.737   9.117   4.711  1.1914  0.6384  0.5175
  880MOL0     C21337   5.816   9.000   4.699  0.8440 -0.5656 -0.0417
  880MOL0     O21338   5.941   9.011   4.640 -1.1205 -0.1337  0.0038
  880MOL0     C21339   6.021   8.887   4.632  1.0460 -0.1089  0.6637
  880MOL0     C21340   6.146   8.921   4.564 -0.5718  0.6647  0.3470
  880MOL0     C21341   6.139   8.966   4.418  0.6252  0.0300 -0.1299
  880MOL0     C21342   6.279   8.988   4.360  0.7415 -0.9798  0.2026
  880MOL0     C21343   6.286   9.013   4.213  0.1592  0.5635 -0.3600
  880MOL0     C21344   6.432   9.031   4.163 -0.1431 -0.0363 -0.7116
  880MOL0     C21345   6.442   9.060   4.004 -0.0602 -0.2028  0.5456
  880MOL0     C21346   6.375   8.951   3.924 -0.2439  1.1407  0.6384
  880MOL0    Cl21347   6.364   8.979   3.743 -0.1891 -0.0956  0.1788
  880MOL0     C21348   5.764   8.878   4.751  0.0514  0.3487 -0.1788
  880MOL0     C21349   5.637   8.878   4.817  0.3526 -0.1026  0.9142
  880MOL0     O21350   5.599   9.008   5.094  0.0289  0.0924 -0.3470
  880MOL0     C21351   5.239   9.016   5.069 -0.4395  0.0173  0.0387
  880MOL0     C21352   5.120   9.040   5.125 -0.5489  0.3364 -0.2252
  880MOL0     N21353   4.627   9.457   5.193  0.1263  0.0678  0.2524
  880MOL0     N21354   4.523   9.536   5.190  0.2558  0.0920  0.2227
  880MOL0     C21355   3.671   9.939   5.920  0.2799  0.6146 -0.1380
  880MOL0     C21356   3.689  10.002   6.043 -0.5684 -0.3545 -0.5636
  880MOL0     C21357   3.900   9.999   6.468  0.7172 -0.5187 -0.0792
  880MOL0     C21358   3.785  10.038   6.548 -0.2060 -0.6913  0.4828
  880MOL0     C21359   3.782  10.046   6.686  0.7282 -0.5954  0.8347
  880MOL0     C21360   3.898  10.017   6.759 -0.3174 -0.4822 -0.2390
  880MOL0     O21361   3.902  10.024   6.897 -1.0365  0.0561  0.0642
  880MOL0     C21362   3.872   9.893   6.954  0.4571  0.1826  0.2759
  880MOL0     C21363   3.864   9.907   7.104 -0.9522  0.9123 -0.8315
  880MOL0     C21364   3.997   9.937   7.175 -1.4515 -0.3274 -0.0978
  880MOL0     C21365   4.119   9.839   7.147  0.0824  0.7324  0.7467
  880MOL0     C21366   4.073   9.713   7.198  0.1046 -0.4200  0.8511
  880MOL0     C21367   4.028   9.606   7.237  0.4989  0.4577  0.1320
  880MOL0     C21368   4.015   9.991   6.685  0.2257  1.2550 -0.3005
  880MOL0     C21369   4.019   9.982   6.544  0.2043 -0.3595 -0.6013
  880MOL0     C21370   4.151   9.939   6.497  0.0607  0.0512 -0.2271
  880MOL0     H21371   3.934   9.790   6.159 -0.4322  0.3532  0.0771
  880MOL0     H21372   3.907   9.695   5.928 -1.0227 -0.8442 -0.3925
  880MOL0     H21373   3.590   9.912   5.666  0.6466  3.4057  2.9766
  880MOL0     H21374   3.655   9.783   5.566 -0.6538  0.6602  1.1935
  880MOL0     H21375   3.776   9.985   5.510 -1.8177 -0.2480  0.9681
  880MOL0     H21376   3.845   9.993   5.682 -0.4650  0.3332 -0.6216
  880MOL0     H21377   3.962   9.775   5.646  1.8611 -0.4989 -1.7797
  880MOL0     H21378   3.874   9.750   5.498  2.5039 -1.8974  0.3918
  880MOL0     H21379   3.978   9.944   5.383 -0.2759 -2.8013 -1.3564
  880MOL0     H21380   4.064   9.965   5.545 -2.0563 -1.5274  2.8272
  880MOL0     H21381   4.211   9.882   5.369 -0.7255 -0.3588 -1.7604
  880MOL0     H21382   4.113   9.748   5.327  3.3542 -2.0353  0.2667
  880MOL0     H21383   4.213   9.767   5.611 -2.7477 -0.0091  0.9361
  880MOL0     H21384   4.124   9.633   5.548  1.9439 -0.8687  4.4421
  880MOL0     H21385   4.379   9.590   5.548  2.2012 -1.5702 -0.8718
  880MOL0     H21386   4.391   9.747   5.466 -3.5960  2.4612 -1.7230
  880MOL0     H21387   4.250   9.493   5.352  1.3354 -1.3159 -2.1324
  880MOL0     H21388   4.291   9.638   5.262  1.8382 -1.3641 -1.8401
  880MOL0     H21389   4.443   9.326   5.422 -0.4722  0.2629  0.3314
  880MOL0     H21390   4.795   9.258   5.248  0.7193 -1.1969  0.4729
  880MOL0     H21391   4.654   9.155   5.287 -0.0831 -0.4102  0.0719
  880MOL0     H21392   4.810   9.328   5.496 -0.7975  0.1455  0.4412
  880MOL0     H21393   4.664   9.234   5.529  0.3841 -1.1705 -0.0201
  880MOL0     H21394   4.866   9.123   5.613 -1.5675 -2.1729  1.0941
  880MOL0     H21395   4.790   9.017   5.495  2.4719 -0.3657 -1.7446
  880MOL0     H21396   5.028   9.197   5.476  0.0284 -1.0812  2.4071
  880MOL0     H21397   5.004   9.012   5.489 -1.1528 -1.2073 -0.7203
  880MOL0     H21398   5.234   9.110   5.440  0.1612  0.2550 -0.0312
  880MOL0     H21399   5.527   8.993   5.374 -2.2515 -0.5165 -2.0264
  880MOL0     H21400   5.468   9.156   5.437 -5.4748 -0.6826  0.8920
  880MOL0     H21401   5.554   9.137   5.278  1.8251 -3.1169 -0.0569
  880MOL0     H21402   5.548   9.204   4.798  1.0331  0.8480 -0.5811
  880MOL0     H21403   5.787   9.207   4.678 -0.2989  1.3061  0.0109
  880MOL0     H21404   6.036   8.849   4.734 -2.5477  0.2701  1.4631
  880MOL0     H21405   5.982   8.797   4.583 -1.4451  0.2994  1.7750
  880MOL0     H21406   6.193   8.995   4.629 -1.8556 -0.5230  2.7842
  880MOL0     H21407   6.212   8.835   4.577 -1.1884  0.0372 -0.4625
  880MOL0     H21408   6.075   9.055   4.407  0.9470  0.1195 -1.5092
  880MOL0     H21409   6.094   8.894   4.349  1.4520  1.0036 -1.7464
  880MOL0     H21410   6.346   8.904   4.385  2.5334  1.0216  2.7562
  880MOL0     H21411   6.308   9.078   4.416  1.0790  0.2336 -1.8231
  880MOL0     H21412   6.233   8.929   4.167 -0.6200  0.1730  1.1854
  880MOL0     H21413   6.234   9.109   4.201  4.2821  2.7584 -2.9670
  880MOL0     H21414   6.480   8.937   4.188 -0.2273  0.6647  2.4958
  880MOL0     H21415   6.475   9.107   4.229  0.7988 -4.8098  5.0302
  880MOL0     H21416   6.550   9.065   3.983  0.5340 -1.4321  2.9400
  880MOL0     H21417   6.400   9.159   3.983  1.7922  1.3135  3.2974
  880MOL0     H21418   6.275   8.934   3.965 -0.1080  1.2181  1.0042
  880MOL0     H21419   6.437   8.860   3.928  2.9976  3.2237  1.5411
  880MOL0     H21420   5.825   8.788   4.751  1.4039  1.1705  2.2137
  880MOL0     H21421   5.600   8.783   4.854  3.2331 -1.3550  0.8679
  880MOL0     H21422   5.240   8.979   4.967  0.7364 -4.4458  1.4666
  880MOL0     H21423   5.026   9.030   5.072 -0.2640 -0.4974 -0.5970
  880MOL0     H21424   3.582   9.967   5.865  0.4382 -0.0544 -0.7386
  880MOL0     H21425   3.626  10.077   6.089  2.3933  0.4828  2.5786
  880MOL0     H21426   3.698  10.055   6.486  0.8786 -0.1127 -0.9350
  880MOL0     H21427   3.689  10.062   6.739  0.1147 -1.5543  0.0941
  880MOL0     H21428   3.781   9.856   6.906  1.5041 -1.2273 -0.7004
  880MOL0     H21429   3.949   9.820   6.929 -1.1968 -1.1050 -1.3530
  880MOL0     H21430   3.824   9.812   7.143 -1.5637  1.9418  1.1779
  880MOL0     H21431   3.798   9.989   7.133 -0.7829 -0.0956  3.0135
  880MOL0     H21432   4.032  10.036   7.143 -0.0420 -0.8276 -0.1511
  880MOL0     H21433   3.977   9.945   7.282  2.6098 -0.3425  0.8314
  880MOL0     H21434   4.205   9.873   7.205 -0.1106  0.4117  1.2293
  880MOL0     H21435   4.152   9.831   7.042  0.5669  0.2905  0.9263
  880MOL0     H21436   3.991   9.510   7.266  2.8738 -0.6048 -0.1166
  880MOL0     H21437   4.098   9.981   6.755 -1.3544  0.5076  1.5823
  880MOL0     H21438   4.197  10.012   6.430  0.4305  0.1933  0.1735
  880MOL0     H21439   4.220   9.924   6.582 -0.1485 -1.0084 -0.2221
  880MOL0     H21440   4.140   9.840   6.452  3.6501 -0.7848  0.3951
  881MOL0     O21441   1.087   3.364   6.259 -0.0767  0.2426 -0.5943
  881MOL0     C21442   1.086   3.243   6.248 -0.5734  0.1002  0.8846
  881MOL0     O21443   1.184   3.156   6.280  0.6547 -1.0947 -0.5364
  881MOL0     C21444   1.311   3.196   6.292 -0.6547  0.2022  0.3766
  881MOL0     C21445   1.386   3.133   6.385  0.2349  0.3166 -0.5294
  881MOL0     C21446   1.515   3.172   6.411 -1.1786 -0.1399 -0.4832
  881MOL0     C21447   1.565   3.290   6.349 -0.0034 -0.2180 -0.2405
  881MOL0     O21448   1.684   3.345   6.396 -0.5822  0.3739 -0.3089
  881MOL0     C21449   1.788   3.268   6.448  0.0064 -0.3231 -0.9075
  881MOL0     C21450   1.910   3.354   6.482  1.3989  0.3777  1.2069
  881MOL0     C21451   2.025   3.274   6.549 -0.0465  1.0581  0.0359
  881MOL0     C21452   2.001   3.226   6.690  0.1862  0.2827 -0.5126
  881MOL0     C21453   2.104   3.134   6.747  0.5110  0.1067 -0.0140
  881MOL0     C21454   2.054   3.055   6.867 -0.6971 -0.8434  0.4810
  881MOL0     C21455   2.150   2.940   6.897  0.0473  0.5356  0.2223
  881MOL0     C21456   2.259   2.985   6.983 -0.6366  0.4736 -0.5336
  881MOL0     N21457   2.339   2.870   7.035 -1.3594  0.4920 -0.1053
  881MOL0     C21458   2.465   2.833   6.998  0.1270 -0.1448  0.4222
  881MOL0     C21459   2.485   2.720   7.069  1.0501  0.2142  0.2174
  881MOL0     C21460   2.620   2.649   7.071 -0.1037 -0.6567 -0.0373
  881MOL0     C21461   2.725   2.737   7.160  0.0272  0.6694  0.5323
  881MOL0     C21462   2.854   2.660   7.184 -0.4393 -0.8093  0.1156
  881MOL0     C21463   2.948   2.742   7.260  0.3543 -0.0709 -0.2203
  881MOL0     O21464   2.908   2.754   7.399  0.2580  0.7860 -0.4302
  881MOL0     C21465   2.998   2.820   7.477  0.1047  0.0576  0.4079
  881MOL0     C21466   3.086   2.926   7.445  0.2056  0.2706 -1.0231
  881MOL0     C21467   3.170   2.983   7.543  0.2272  0.0314 -0.1865
  881MOL0     C21468   3.246   3.118   7.506  1.0867  0.1672 -0.1552
  881MOL0     C21469   3.174   2.936   7.679  0.1171 -0.8860  0.7783
  881MOL0     C21470   3.277   2.992   7.780  0.0836  0.3849  0.2273
  881MOL0     O21471   3.273   2.924   7.898 -0.8012  0.4705  0.5732
  881MOL0     C21472   3.364   2.967   7.992  0.3130  0.0637  0.9517
  881MOL0     C21473   3.502   2.927   7.988 -0.1320  1.2307  0.3248
  881MOL0     C21474   3.594   2.974   8.083  0.2004  0.5263 -0.3031
  881MOL0     C21475   3.551   3.047   8.187 -0.0448  0.7144 -0.4070
  881MOL0     O21476   3.639   3.088   8.284 -0.1517 -0.5003 -0.5772
  881MOL0     C21477   3.734   2.988   8.341  0.2755  0.0251  0.4835
  881MOL0     C21478   3.758   3.025   8.485  0.2660  0.5824 -0.7529
  881MOL0     C21479   3.861   3.139   8.495  0.9254  0.2760  0.4637
  881MOL0     C21480   3.922   3.171   8.627 -0.4465  0.8780  0.0363
  881MOL0     C21481   4.054   3.252   8.608 -0.1643  0.0389 -0.4154
  881MOL0     C21482   4.030   3.390   8.555 -0.2087  0.3476 -0.1656
  881MOL0     C21483   4.159   3.455   8.510  0.0208  0.5906 -0.4709
  881MOL0     C21484   4.154   3.606   8.469 -0.4751  0.5612  0.5682
  881MOL0    Cl21485   4.297   3.649   8.377 -0.2106  0.1772 -0.3252
  881MOL0     C21486   3.418   3.088   8.194  0.4329 -0.2625  0.1896
  881MOL0     C21487   3.331   3.054   8.087 -0.4557  0.4302 -0.1250
  881MOL0     O21488   3.349   3.087   7.754  1.5716 -0.8974 -0.2175
  881MOL0     C21489   3.094   2.835   7.705  1.1629 -0.7036  0.2992
  881MOL0     C21490   3.014   2.770   7.607  0.3803 -0.3854 -0.2461
  881MOL0     N21491   2.376   2.686   7.135  0.2992 -0.2329 -0.6931
  881MOL0     N21492   2.289   2.781   7.120 -0.4969  0.2170  0.2556
  881MOL0     C21493   1.498   3.350   6.249 -0.2570 -0.2147 -1.8200
  881MOL0     C21494   1.372   3.303   6.221 -0.4274 -0.1042 -0.0655
  881MOL0     C21495   0.973   3.187   6.187 -0.4220  0.1937  0.1250
  881MOL0     C21496   0.989   3.071   6.103 -0.5069 -0.2818  0.2560
  881MOL0     C21497   0.884   3.015   6.030  0.2618  0.0240  0.2371
  881MOL0     C21498   0.750   3.064   6.052  0.3748  0.0323  0.3622
  881MOL0     O21499   0.645   2.998   5.987  0.6754  0.7941 -1.1608
  881MOL0     C21500   0.515   3.040   6.018  0.0471  0.3320  0.5701
  881MOL0     C21501   0.421   2.971   5.917 -0.2194  0.2186 -0.4185
  881MOL0     C21502   0.270   2.978   5.961 -0.0873 -0.9693 -0.3145
  881MOL0     C21503   0.163   2.910   5.867  0.7473  0.4466 -0.0158
  881MOL0     C21504   0.144   2.996   5.750 -0.3380  0.5518  0.8903
  881MOL0     C21505   0.129   3.083   5.667  1.0511  1.6174  0.5882
  881MOL0     C21506   0.737   3.174   6.136  0.1994  0.8295 -0.3667
  881MOL0     C21507   0.845   3.237   6.201 -0.1320  0.3033 -0.6227
  881MOL0     C21508   0.817   3.345   6.300  0.1319  0.1993 -0.2000
  881MOL0     H21509   1.351   3.044   6.436 -2.0334 -0.1034 -2.6351
  881MOL0     H21510   1.560   3.119   6.494 -2.3458  0.9030  0.8709
  881MOL0     H21511   1.825   3.196   6.373  3.3095 -1.2293  1.3751
  881MOL0     H21512   1.753   3.206   6.531  2.5880 -5.3840 -3.1365
  881MOL0     H21513   1.938   3.393   6.383  1.2998 -0.3514  0.8817
  881MOL0     H21514   1.879   3.439   6.543  1.2230  2.5719 -1.7345
  881MOL0     H21515   2.045   3.195   6.477 -2.8082  0.7488 -0.4944
  881MOL0     H21516   2.120   3.328   6.554  1.2541 -0.9174 -1.7183
  881MOL0     H21517   1.980   3.310   6.757 -0.6396 -0.2523 -0.0835
  881MOL0     H21518   1.909   3.168   6.682  1.0556 -0.9300 -2.4163
  881MOL0     H21519   2.197   3.184   6.776  0.6865 -0.4168  0.3282
  881MOL0     H21520   2.129   3.066   6.665 -3.0428  0.1669 -1.2925
  881MOL0     H21521   2.029   3.109   6.959 -2.1208  0.0704 -0.4159
  881MOL0     H21522   1.960   3.002   6.848 -0.6598 -1.6960  2.4123
  881MOL0     H21523   2.187   2.880   6.813 -1.6711  0.9448 -0.8722
  881MOL0     H21524   2.094   2.867   6.956 -0.9820  0.4797 -0.7964
  881MOL0     H21525   2.329   3.061   6.946 -1.3811  1.1916 -0.5079
  881MOL0     H21526   2.217   3.031   7.073 -0.9935 -0.3404 -0.2798
  881MOL0     H21527   2.531   2.883   6.928  0.0560  0.4063  0.7435
  881MOL0     H21528   2.663   2.634   6.972  0.8954 -1.8766  0.5463
  881MOL0     H21529   2.612   2.548   7.112  2.0293 -1.5027 -1.5520
  881MOL0     H21530   2.744   2.827   7.102 -1.1857  1.2520  1.0053
  881MOL0     H21531   2.685   2.752   7.261 -0.5570 -0.4270  0.4800
  881MOL0     H21532   2.832   2.569   7.242 -0.4218 -2.0976 -1.7978
  881MOL0     H21533   2.888   2.640   7.082 -3.0907 -1.4184 -0.7278
  881MOL0     H21534   3.051   2.707   7.252 -0.2373 -1.7544 -1.0263
  881MOL0     H21535   2.945   2.843   7.218  2.2003  0.2068  0.2563
  881MOL0     H21536   3.077   2.982   7.352  2.7494  0.0098 -1.5028
  881MOL0     H21537   3.355   3.115   7.498  1.0424 -1.7474 -0.5357
  881MOL0     H21538   3.212   3.195   7.576  2.1007  0.0845  0.4478
  881MOL0     H21539   3.204   3.155   7.412  0.3700 -0.7680 -0.2137
  881MOL0     H21540   3.533   2.865   7.904  0.3951 -0.6613  1.8716
  881MOL0     H21541   3.699   2.945   8.083 -0.2608 -1.2343 -0.4141
  881MOL0     H21542   3.699   2.885   8.333  2.0116 -0.5111 -1.1721
  881MOL0     H21543   3.824   2.984   8.278  0.1082 -0.8310  0.2912
  881MOL0     H21544   3.666   3.059   8.532  0.2970  0.6304 -0.7261
  881MOL0     H21545   3.800   2.937   8.533 -1.8354 -0.4081 -0.6424
  881MOL0     H21546   3.808   3.230   8.467 -1.9542 -0.7305  2.2560
  881MOL0     H21547   3.938   3.109   8.423  0.3345 -2.1277  0.7554
  881MOL0     H21548   3.956   3.078   8.673 -2.3073  0.2718  0.2754
  881MOL0     H21549   3.839   3.210   8.687 -0.5447 -4.9657  4.5273
  881MOL0     H21550   4.093   3.266   8.709 -2.7964 -0.1054  0.7191
  881MOL0     H21551   4.135   3.200   8.556 -0.6242  0.8442 -2.0135
  881MOL0     H21552   3.987   3.447   8.638 -0.4122 -0.1278  0.0573
  881MOL0     H21553   3.968   3.385   8.465 -1.0860  1.2432  0.3703
  881MOL0     H21554   4.192   3.393   8.426 -1.9601 -2.6398  0.9526
  881MOL0     H21555   4.230   3.445   8.593 -2.5014 -0.4099  1.6807
  881MOL0     H21556   4.153   3.663   8.563  1.8909 -0.3814  1.2457
  881MOL0     H21557   4.062   3.606   8.410 -0.5452 -1.3504  0.6314
  881MOL0     H21558   3.382   3.156   8.271 -0.4560  0.5412 -0.9048
  881MOL0     H21559   3.227   3.084   8.091 -0.5713  0.0091  0.0826
  881MOL0     H21560   3.092   2.796   7.807  0.2460 -0.5023  0.3654
  881MOL0     H21561   2.945   2.694   7.641 -1.1793  0.7596 -0.7144
  881MOL0     H21562   1.537   3.439   6.200 -1.8516  1.1669 -0.6752
  881MOL0     H21563   1.316   3.351   6.141  0.2341 -0.6485 -0.8873
  881MOL0     H21564   1.088   3.029   6.088 -0.3164  0.8239 -1.8981
  881MOL0     H21565   0.896   2.922   5.975  1.6921  0.2995  0.0529
  881MOL0     H21566   0.487   3.015   6.121 -1.3106 -0.2398  0.0848
  881MOL0     H21567   0.504   3.149   6.012  0.3332  0.4645  2.1079
  881MOL0     H21568   0.447   2.865   5.912 -1.0670 -0.1497  1.8127
  881MOL0     H21569   0.441   2.999   5.813 -2.3359 -3.6780 -2.1087
  881MOL0     H21570   0.255   2.924   6.055 -0.5008  1.0593  0.8535
  881MOL0     H21571   0.243   3.081   5.988  0.0474 -1.3438  1.3535
  881MOL0     H21572   0.067   2.907   5.919 -0.0578  0.7960 -1.4217
  881MOL0     H21573   0.203   2.814   5.835 -0.5397  0.0810 -0.6167
  881MOL0     H21574   0.117   3.151   5.586 -0.1424 -0.5028 -1.1371
  881MOL0     H21575   0.637   3.200   6.170  0.8992  0.6823  2.0371
  881MOL0     H21576   0.872   3.435   6.272 -3.7439  2.5519 -0.8484
  881MOL0     H21577   0.713   3.373   6.315  0.0358 -0.5369  0.5942
  881MOL0     H21578   0.857   3.306   6.394  0.7362 -1.4846 -1.1096
  882MOL0     O21579   7.968   1.677   9.860  0.3970  0.3301  0.6090
  882MOL0     C21580   7.948   1.772   9.786  0.2268  0.1112  0.4817
  882MOL0     O21581   8.044   1.828   9.706  0.3432 -0.4507 -1.3356
  882MOL0     C21582   8.177   1.794   9.722 -0.0566 -0.4648 -0.0552
  882MOL0     C21583   8.249   1.831   9.836  0.1248  0.7778  0.1340
  882MOL0     C21584   8.380   1.790   9.854  0.3943  0.5236  1.1680
  882MOL0     C21585   8.442   1.732   9.745 -0.9324 -0.8350  0.9668
  882MOL0     O21586   8.578   1.709   9.760 -0.0166 -0.3266 -0.4802
  882MOL0     C21587   8.674   1.739   9.651  0.2016  0.1349  0.5716
  882MOL0     C21588   8.819   1.699   9.695  1.0150 -0.4325  0.7662
  882MOL0     C21589   8.909   1.681   9.573  0.9106 -0.2664 -0.3231
  882MOL0     C21590   9.031   1.605   9.625 -0.5888  0.0954 -1.0748
  882MOL0     C21591   9.161   1.669   9.586 -0.8376 -0.1085 -0.3714
  882MOL0     C21592   9.293   1.616   9.663 -0.2582  0.3939  0.9240
  882MOL0     C21593   9.413   1.635   9.579 -1.4320 -0.3823  0.8021
  882MOL0     C21594   9.471   1.781   9.594  0.2049  0.5740 -0.3814
  882MOL0     N21595   9.613   1.785   9.603 -0.2071 -0.3868  0.9631
  882MOL0     C21596   9.687   1.792   9.722 -0.2485  0.7147  0.0673
  882MOL0     C21597   9.820   1.768   9.691  0.0808 -0.1852  0.3345
  882MOL0     C21598   9.936   1.742   9.768  0.3413  0.1292  0.6669
  882MOL0     C21599  10.024   1.862   9.780  0.1102 -0.2111  0.0817
  882MOL0     C21600  10.147   1.819   9.858  0.0271  0.2211  0.7401
  882MOL0     C21601  10.265   1.914   9.843  0.3830  0.9695 -0.3856
  882MOL0     O21602  10.384   1.868   9.910  0.1545  0.0753 -0.1083
  882MOL0     C21603  10.489   1.950   9.878  0.3137  0.2573  0.0774
  882MOL0     C21604  10.603   1.894   9.823 -1.0418  0.7976  0.0784
  882MOL0     C21605  10.712   1.974   9.775  0.6843  1.0468  0.2787
  882MOL0     C21606  10.824   1.901   9.703  0.1790 -1.2000  0.1540
  882MOL0     C21607  10.695   2.117   9.790  0.6987  0.3365 -0.0156
  882MOL0     C21608  10.794   2.213   9.741 -0.2650 -0.1267 -0.0464
  882MOL0     O21609  10.747   2.337   9.713  0.1247  0.1290  0.2704
  882MOL0     C21610  10.829   2.442   9.691 -0.8235 -0.1900  0.3022
  882MOL0     C21611  10.897   2.504   9.797  0.1369 -0.1460  0.1878
  882MOL0     C21612  10.971   2.626   9.778  0.2898  0.5558  1.0138
  882MOL0     C21613  10.975   2.697   9.657 -0.0664  0.2152  1.0874
  882MOL0     O21614  11.048   2.812   9.617 -0.0858  0.2430 -1.0210
  882MOL0     C21615  11.133   2.870   9.708 -0.4491  0.0400  0.2321
  882MOL0     C21616  11.172   3.000   9.642  0.3383 -0.1688 -0.2118
  882MOL0     C21617  11.252   3.103   9.729 -0.3564 -1.5507  0.4933
  882MOL0     C21618  11.347   3.028   9.809 -0.3280 -0.6579  0.0329
  882MOL0     C21619  11.459   3.108   9.842 -0.2237  0.1466 -1.2227
  882MOL0     C21620  11.560   3.137   9.725  0.4893 -0.3917  1.0503
  882MOL0     C21621  11.614   3.007   9.670  0.3540 -0.2730  1.2046
  882MOL0     C21622  11.703   3.036   9.541  0.0803  0.2492 -0.4740
  882MOL0    Cl21623  11.831   3.156   9.570 -0.1029 -0.3185  0.1272
  882MOL0     C21624  10.911   2.631   9.552  0.6249  0.1734  0.5463
  882MOL0     C21625  10.848   2.508   9.564  0.0111 -0.5565 -0.4182
  882MOL0     O21626  10.917   2.189   9.759  0.3125  0.3241  0.6288
  882MOL0     C21627  10.581   2.171   9.847 -0.4822 -0.5463  0.7687
  882MOL0     C21628  10.472   2.094   9.884  0.6289 -0.0732  0.1480
  882MOL0     N21629   9.820   1.767   9.553  0.5173 -0.7830 -0.6982
  882MOL0     N21630   9.700   1.769   9.501 -0.4380  0.9675  0.1466
  882MOL0     C21631   8.372   1.704   9.623  0.0827  0.0505  0.6339
  882MOL0     C21632   8.232   1.713   9.617 -0.0514  0.2151 -0.2293
  882MOL0     C21633   7.809   1.833   9.773  0.2279  0.1367  0.0861
  882MOL0     C21634   7.710   1.804   9.874 -0.5934 -0.1061  0.5828
  882MOL0     C21635   7.586   1.872   9.879  0.0629  0.2193  0.4300
  882MOL0     C21636   7.547   1.961   9.772  0.1403  0.2498  0.6146
  882MOL0     O21637   7.419   2.015   9.791  0.6791  0.9439 -0.3110
  882MOL0     C21638   7.339   2.077   9.690  0.2186  0.3468  0.4136
  882MOL0     C21639   7.198   2.016   9.698  0.4858  0.7498 -0.0605
  882MOL0     C21640   7.148   2.041   9.843  0.1821 -1.1670 -0.5600
  882MOL0     C21641   6.997   2.020   9.853  0.1280  0.0786  0.3705
  882MOL0     C21642   6.968   1.972   9.988  0.6655 -0.0085  0.1979
  882MOL0     C21643   6.952   1.940  10.108 -0.5971  0.3613 -0.6191
  882MOL0     C21644   7.635   1.971   9.666 -0.8028 -0.4369 -0.7738
  882MOL0     C21645   7.766   1.916   9.668  0.8101  0.0006  0.6923
  882MOL0     C21646   7.841   1.941   9.538 -0.0035  0.7991 -0.6451
  882MOL0     H21647   8.206   1.891   9.915  1.1276  0.9414  0.5698
  882MOL0     H21648   8.430   1.810   9.948  1.4791 -1.9031  1.1668
  882MOL0     H21649   8.668   1.842   9.615  0.7732 -0.6133 -1.8653
  882MOL0     H21650   8.652   1.681   9.561  0.3135  0.5285  0.2912
  882MOL0     H21651   8.861   1.770   9.768  1.6389 -0.5309  0.5113
  882MOL0     H21652   8.809   1.602   9.744 -2.2069 -1.2990 -1.3220
  882MOL0     H21653   8.859   1.620   9.497  1.4631 -1.3542  0.1488
  882MOL0     H21654   8.943   1.777   9.536  2.8793 -0.2845  1.2720
  882MOL0     H21655   9.034   1.613   9.734 -1.9939  1.6948 -1.1005
  882MOL0     H21656   9.042   1.500   9.597  1.7123 -0.3804  1.2186
  882MOL0     H21657   9.147   1.778   9.580 -3.7412 -0.1221  2.8599
  882MOL0     H21658   9.167   1.638   9.482 -2.5302  0.3094 -0.6226
  882MOL0     H21659   9.305   1.667   9.758 -0.1080 -1.1935  1.7879
  882MOL0     H21660   9.280   1.512   9.694  1.3065 -0.4930 -1.1536
  882MOL0     H21661   9.403   1.617   9.471 -0.7735  2.8969  0.0925
  882MOL0     H21662   9.487   1.565   9.619  0.2604  0.5274 -0.5922
  882MOL0     H21663   9.446   1.826   9.497  0.4660  1.4231 -0.0638
  882MOL0     H21664   9.418   1.840   9.670 -1.8183 -1.8004  0.1848
  882MOL0     H21665   9.644   1.810   9.820 -0.4298 -1.3325  0.4000
  882MOL0     H21666   9.991   1.657   9.727  0.3060 -0.2693  1.4251
  882MOL0     H21667   9.903   1.714   9.869 -1.2940 -0.3456  0.0307
  882MOL0     H21668  10.054   1.889   9.679 -0.4545 -0.2887 -0.1109
  882MOL0     H21669   9.980   1.938   9.846  0.5294 -0.3929  0.5768
  882MOL0     H21670  10.123   1.803   9.964  0.4955  0.5490  0.9023
  882MOL0     H21671  10.186   1.722   9.824  0.8158  0.1560  1.7656
  882MOL0     H21672  10.287   1.910   9.736 -1.3828 -1.7713 -0.7415
  882MOL0     H21673  10.236   2.016   9.871  3.5102  1.8952 -0.2112
  882MOL0     H21674  10.620   1.787   9.833 -0.3381  1.0553  2.2217
  882MOL0     H21675  10.826   1.796   9.733  1.6252 -1.1654  0.2454
  882MOL0     H21676  10.920   1.934   9.743  0.3769 -0.3759 -0.9507
  882MOL0     H21677  10.806   1.916   9.596  1.5842 -2.3286 -0.2811
  882MOL0     H21678  10.881   2.451   9.890 -1.9692  0.4243  0.2047
  882MOL0     H21679  11.020   2.667   9.865  1.6743 -0.5733  0.8012
  882MOL0     H21680  11.076   2.902   9.795  0.1611  0.1855  0.5893
  882MOL0     H21681  11.216   2.808   9.744  0.8184  2.8915  2.6936
  882MOL0     H21682  11.229   2.977   9.552  0.1934 -1.7494  0.0729
  882MOL0     H21683  11.080   3.053   9.617  0.5358 -0.9556 -2.8148
  882MOL0     H21684  11.183   3.156   9.794  0.9306  1.4623 -0.4139
  882MOL0     H21685  11.299   3.171   9.658 -3.3692 -0.5840 -0.7247
  882MOL0     H21686  11.385   2.936   9.765  2.0640  0.3267 -0.1075
  882MOL0     H21687  11.294   2.998   9.899 -1.0495  1.4510  0.3643
  882MOL0     H21688  11.425   3.201   9.889  0.2605  0.4160 -1.3939
  882MOL0     H21689  11.513   3.056   9.921 -0.5401  1.9875  0.2604
  882MOL0     H21690  11.649   3.189   9.763  1.3396 -0.0691 -1.2357
  882MOL0     H21691  11.525   3.193   9.638  4.4990  1.4089  0.3629
  882MOL0     H21692  11.538   2.939   9.630  2.3884 -1.5906 -0.7531
  882MOL0     H21693  11.673   2.950   9.743 -0.9080 -4.3273 -0.6497
  882MOL0     H21694  11.645   3.077   9.458  1.0154 -0.5289 -1.5482
  882MOL0     H21695  11.750   2.946   9.500 -2.1897  0.0281 -2.8643
  882MOL0     H21696  10.905   2.655   9.446  0.7552 -1.1927  0.2067
  882MOL0     H21697  10.799   2.473   9.474  3.1777  2.0680 -3.3796
  882MOL0     H21698  10.562   2.278   9.854 -3.1404 -1.0100  2.3781
  882MOL0     H21699  10.382   2.138   9.924 -1.7190 -1.1514 -3.4918
  882MOL0     H21700   8.428   1.654   9.545  1.2569  1.2992  0.6272
  882MOL0     H21701   8.171   1.665   9.541  2.6841 -2.0797 -1.1044
  882MOL0     H21702   7.744   1.732   9.947 -0.1032  1.6242  2.1280
  882MOL0     H21703   7.534   1.864   9.974 -1.0443  0.8029 -0.1118
  882MOL0     H21704   7.347   2.182   9.719 -0.6820  0.1687  1.3257
  882MOL0     H21705   7.373   2.055   9.588 -1.3184 -3.1528  0.4997
  882MOL0     H21706   7.203   1.908   9.682  0.0147  0.9959 -2.0755
  882MOL0     H21707   7.132   2.044   9.616 -1.4365 -1.3017  0.7017
  882MOL0     H21708   7.212   1.988   9.914  4.0918  2.5527 -0.9166
  882MOL0     H21709   7.160   2.147   9.864 -1.3123 -1.0870  0.0090
  882MOL0     H21710   6.967   1.939   9.786  0.5923 -0.2621  0.5635
  882MOL0     H21711   6.954   2.113   9.816 -0.1266 -1.1283 -2.6748
  882MOL0     H21712   6.918   1.927  10.209  2.7650  1.2931  0.7749
  882MOL0     H21713   7.596   2.046   9.597 -1.8104 -0.2383 -0.0243
  882MOL0     H21714   7.774   1.968   9.456  1.0698  1.4943 -1.3182
  882MOL0     H21715   7.914   2.021   9.558  0.0305  0.8017 -0.7796
  882MOL0     H21716   7.881   1.846   9.502 -1.2294  1.1774 -3.2038
  883MOL0     O21717   0.930   0.950   4.465 -1.2569 -0.0077  0.1449
  883MOL0     C21718   0.922   0.896   4.355 -0.9021 -0.3493 -0.8698
  883MOL0     O21719   0.924   0.961   4.232 -0.3744 -0.2474 -0.0483
  883MOL0     C21720   0.963   1.092   4.210  0.4043  0.2241  0.3629
  883MOL0     C21721   0.935   1.208   4.292  0.5238  0.1152 -0.3044
  883MOL0     C21722   0.975   1.335   4.250  0.0606 -0.1083  0.5004
  883MOL0     C21723   1.049   1.352   4.134 -0.0348  0.3830 -0.2153
  883MOL0     O21724   1.087   1.485   4.108 -0.2737  0.2731  0.7471
  883MOL0     C21725   1.230   1.499   4.080 -0.1371 -1.1971  0.4472
  883MOL0     C21726   1.309   1.453   4.208  1.0579  0.0996  0.4592
  883MOL0     C21727   1.435   1.536   4.233  0.2855  0.9218 -0.1573
  883MOL0     C21728   1.544   1.550   4.127  0.6286 -0.8959  0.0754
  883MOL0     C21729   1.668   1.620   4.185  0.1815  0.8114 -0.3349
  883MOL0     C21730   1.777   1.625   4.068  0.4443  0.5907  0.3853
  883MOL0     C21731   1.908   1.667   4.125  0.0729  0.0423  0.4976
  883MOL0     C21732   2.006   1.671   4.007  0.5951 -0.8730 -0.2048
  883MOL0     N21733   2.150   1.645   4.042  0.0929 -0.6670 -0.2543
  883MOL0     C21734   2.225   1.523   4.053 -0.6115 -0.4964 -0.4362
  883MOL0     C21735   2.353   1.559   4.088  1.5188  0.4807  0.2669
  883MOL0     C21736   2.461   1.459   4.121 -1.0920 -0.2062 -0.3374
  883MOL0     C21737   2.430   1.364   4.235 -0.2804 -0.7638 -0.5677
  883MOL0     C21738   2.398   1.434   4.370 -0.9033 -0.2959  0.0226
  883MOL0     C21739   2.404   1.347   4.500  0.8332  0.2476 -0.2079
  883MOL0     O21740   2.538   1.295   4.514 -0.0796 -0.2140 -0.6543
  883MOL0     C21741   2.636   1.360   4.585  0.1214 -0.1998  0.4585
  883MOL0     C21742   2.758   1.298   4.609 -0.0888 -0.8072 -0.5956
  883MOL0     C21743   2.855   1.345   4.697 -0.0772 -0.5388 -0.9812
  883MOL0     C21744   2.963   1.244   4.721  0.7427  0.8635  0.1511
  883MOL0     C21745   2.834   1.476   4.759 -0.3764  0.6122 -0.2310
  883MOL0     C21746   2.932   1.534   4.845  0.2823  0.4782 -0.1264
  883MOL0     O21747   2.935   1.672   4.844 -0.0719  0.3905  0.2598
  883MOL0     C21748   3.036   1.731   4.919  0.7707 -0.0433  0.3203
  883MOL0     C21749   3.171   1.736   4.873 -0.0546  0.1339  0.7313
  883MOL0     C21750   3.270   1.795   4.947  0.1026 -0.4974 -0.4535
  883MOL0     C21751   3.239   1.864   5.072 -0.4461 -0.4966 -0.5622
  883MOL0     O21752   3.327   1.947   5.146  0.3547 -0.1577  0.2265
  883MOL0     C21753   3.411   2.019   5.059  0.0370  0.6937 -0.0742
  883MOL0     C21754   3.552   1.993   5.094 -0.0714  0.7977 -0.5499
  883MOL0     C21755   3.578   2.018   5.242  0.1220 -0.2214 -0.2333
  883MOL0     C21756   3.723   2.014   5.270  1.1920 -0.3055  0.6569
  883MOL0     C21757   3.744   2.035   5.424 -0.0895 -1.1868 -0.1633
  883MOL0     C21758   3.898   2.044   5.447  0.6456  0.1166 -0.4955
  883MOL0     C21759   3.922   2.046   5.597  1.1258 -0.5331 -0.3583
  883MOL0     C21760   4.065   2.079   5.655  0.5888  0.7641 -0.8112
  883MOL0    Cl21761   4.126   2.234   5.602  0.2791 -0.1613  0.0024
  883MOL0     C21762   3.107   1.859   5.120  0.4961 -0.3037  0.8566
  883MOL0     C21763   3.007   1.791   5.046 -0.4807  0.0050 -0.1036
  883MOL0     O21764   3.003   1.462   4.915 -0.2784 -0.0755  1.0057
  883MOL0     C21765   2.722   1.546   4.718 -0.2666  0.0484 -0.5496
  883MOL0     C21766   2.624   1.487   4.633 -0.2781 -0.3091  0.6290
  883MOL0     N21767   2.350   1.697   4.111 -0.0730  0.4219  0.6843
  883MOL0     N21768   2.232   1.740   4.102  0.9720 -0.0624  0.1715
  883MOL0     C21769   1.081   1.241   4.053 -1.1586 -0.1367 -0.6490
  883MOL0     C21770   1.041   1.113   4.091 -0.1596 -0.5566  0.1705
  883MOL0     C21771   0.902   0.745   4.356 -0.5769 -0.5003  0.9465
  883MOL0     C21772   0.884   0.682   4.231  0.5778  0.7315 -0.1362
  883MOL0     C21773   0.851   0.548   4.231  0.7956  0.2101 -0.6685
  883MOL0     C21774   0.843   0.465   4.343  0.3542  0.1343  0.2565
  883MOL0     O21775   0.817   0.330   4.323 -0.5859 -0.2480 -0.2251
  883MOL0     C21776   0.866   0.238   4.429 -0.6475 -0.2319  0.6406
  883MOL0     C21777   1.018   0.241   4.449 -0.1810 -0.7333 -0.2618
  883MOL0     C21778   1.065   0.154   4.571  0.4319  0.8817 -0.1035
  883MOL0     C21779   1.063   0.006   4.527  0.2743 -0.4833  0.4349
  883MOL0     C21780   1.095  -0.070   4.642 -0.3418  0.2407  0.0515
  883MOL0     C21781   1.117  -0.153   4.728 -0.3068 -0.8285  0.1060
  883MOL0     C21782   0.848   0.528   4.465  0.1957 -1.7619  0.2768
  883MOL0     C21783   0.884   0.668   4.477  0.7441  0.6657  1.0160
  883MOL0     C21784   0.900   0.719   4.613  0.6762 -0.2648 -0.7996
  883MOL0     H21785   0.876   1.201   4.382  0.1593  1.5027 -0.4122
  883MOL0     H21786   0.958   1.413   4.323  1.8763  1.3067 -0.4932
  883MOL0     H21787   1.243   1.607   4.067 -1.8589 -0.9371  0.7042
  883MOL0     H21788   1.266   1.449   3.989  1.9707 -0.0582  0.5822
  883MOL0     H21789   1.245   1.461   4.296 -1.7018 -2.3800 -1.1344
  883MOL0     H21790   1.338   1.349   4.189 -0.1797 -0.5725  1.9784
  883MOL0     H21791   1.394   1.634   4.259 -2.6703  0.0084 -0.9491
  883MOL0     H21792   1.478   1.492   4.323 -0.5839  2.6411  1.1422
  883MOL0     H21793   1.563   1.448   4.094 -1.0695 -1.0372 -0.5586
  883MOL0     H21794   1.507   1.615   4.047 -2.0661  1.3144  2.8482
  883MOL0     H21795   1.716   1.557   4.260 -0.4491  1.7870  0.9173
  883MOL0     H21796   1.653   1.718   4.230 -1.5610  0.7935 -0.8006
  883MOL0     H21797   1.776   1.522   4.032 -2.0153  0.9401 -0.7845
  883MOL0     H21798   1.749   1.693   3.988  2.4754  1.1077  0.0590
  883MOL0     H21799   1.940   1.594   4.200 -0.3384  1.7318  2.3898
  883MOL0     H21800   1.906   1.760   4.181 -0.4193  0.4801 -0.2316
  883MOL0     H21801   1.973   1.586   3.947  1.2966 -1.6133  0.4213
  883MOL0     H21802   1.993   1.770   3.962  1.4283  0.2526  1.8687
  883MOL0     H21803   2.188   1.424   4.029  1.5653 -0.9763 -2.1547
  883MOL0     H21804   2.553   1.517   4.136 -2.5799  2.7489 -1.7682
  883MOL0     H21805   2.479   1.400   4.030 -1.6205 -1.0407  0.0984
  883MOL0     H21806   2.334   1.315   4.218 -2.0520  2.4295 -0.4465
  883MOL0     H21807   2.516   1.297   4.247  0.3482  0.3815  2.2555
  883MOL0     H21808   2.483   1.503   4.382  0.4612 -1.3442 -2.6520
  883MOL0     H21809   2.308   1.495   4.359  1.7064  3.5534 -2.7341
  883MOL0     H21810   2.373   1.408   4.585 -0.0504  2.2060 -1.8467
  883MOL0     H21811   2.330   1.268   4.484  0.0278  0.5053  1.8997
  883MOL0     H21812   2.760   1.198   4.568 -1.7960 -1.8428  1.5983
  883MOL0     H21813   2.928   1.152   4.768  1.3157  0.2059 -0.6753
  883MOL0     H21814   3.049   1.279   4.779 -1.2742  0.8617  3.3823
  883MOL0     H21815   2.996   1.214   4.621  0.4371 -0.4647  0.4346
  883MOL0     H21816   3.195   1.694   4.776  1.5864  0.1486  1.0996
  883MOL0     H21817   3.376   1.790   4.924  1.4433 -0.5368  4.6330
  883MOL0     H21818   3.392   1.990   4.956 -4.9624 -1.2869  1.1365
  883MOL0     H21819   3.397   2.128   5.068  1.9634  0.9980 -0.2171
  883MOL0     H21820   3.577   1.893   5.056 -0.4894  0.4785  0.0033
  883MOL0     H21821   3.598   2.073   5.035 -0.4104  0.6999 -0.9469
  883MOL0     H21822   3.530   1.939   5.301 -2.4992  0.2641 -1.5560
  883MOL0     H21823   3.540   2.113   5.280 -1.9218  0.1008 -2.8019
  883MOL0     H21824   3.769   2.098   5.217 -0.7590 -0.4999 -1.4806
  883MOL0     H21825   3.767   1.924   5.226 -2.1780 -1.8562  0.1308
  883MOL0     H21826   3.695   2.127   5.457  1.6585  0.1209 -1.0099
  883MOL0     H21827   3.700   1.951   5.478 -0.8640  1.0679  3.0143
  883MOL0     H21828   3.922   2.133   5.388  1.9377  0.4712  0.5361
  883MOL0     H21829   3.945   1.953   5.409  0.5031  0.2784 -1.0775
  883MOL0     H21830   3.903   1.944   5.633 -0.4726  0.2587  1.2104
  883MOL0     H21831   3.856   2.120   5.645  1.1416 -0.4312 -0.4942
  883MOL0     H21832   4.128   1.994   5.624  0.0203 -0.4019  1.0538
  883MOL0     H21833   4.076   2.069   5.763 -0.9133 -1.0134 -0.7694
  883MOL0     H21834   3.084   1.908   5.214  1.1105  2.4077 -0.3130
  883MOL0     H21835   2.905   1.780   5.081 -1.3988 -0.8000 -2.7886
  883MOL0     H21836   2.721   1.644   4.764  1.5022  1.0016 -2.3689
  883MOL0     H21837   2.540   1.547   4.603 -0.7931 -1.2269  0.2017
  883MOL0     H21838   1.137   1.260   3.962 -1.0859  0.0522 -0.5644
  883MOL0     H21839   1.055   1.031   4.023 -1.0646 -0.1066 -0.5768
  883MOL0     H21840   0.866   0.735   4.138 -3.5685  0.3311  0.2323
  883MOL0     H21841   0.831   0.496   4.138  0.8447  0.4434 -0.8106
  883MOL0     H21842   0.819   0.257   4.526 -0.4566 -0.5054  0.7836
  883MOL0     H21843   0.826   0.142   4.395 -1.8146  0.4830 -0.0949
  883MOL0     H21844   1.053   0.343   4.469 -0.3364 -0.5421 -0.9390
  883MOL0     H21845   1.071   0.212   4.359  0.6257 -1.8141  0.5355
  883MOL0     H21846   1.170   0.172   4.597  0.5360 -0.8782  0.8309
  883MOL0     H21847   1.004   0.171   4.659  1.1914  0.7474  0.4597
  883MOL0     H21848   1.127  -0.018   4.442 -0.1066 -2.6899  0.7269
  883MOL0     H21849   0.963  -0.022   4.491  0.1579 -2.3232  2.0359
  883MOL0     H21850   1.120  -0.230   4.801 -3.2132 -1.9450 -0.8032
  883MOL0     H21851   0.835   0.478   4.560  0.0988  1.5515  2.1861
  883MOL0     H21852   1.001   0.760   4.618  2.5000 -3.9901 -3.0102
  883MOL0     H21853   0.832   0.802   4.634  0.4393 -1.2164  2.8260
  883MOL0     H21854   0.889   0.651   4.698 -0.4181  1.3568  0.4249
  884MOL0     O21855   5.114   2.407  10.429 -0.2212  0.2367 -0.5609
  884MOL0     C21856   5.196   2.314  10.416 -0.5834  0.3833  0.3923
  884MOL0     O21857   5.155   2.180  10.402 -0.0050  0.5515  0.5218
  884MOL0     C21858   5.014   2.148  10.387  0.8635 -0.8486 -0.4839
  884MOL0     C21859   4.970   2.024  10.440  0.0071 -0.3904  0.3141
  884MOL0     C21860   4.843   1.976  10.413  0.6565  0.0947 -0.0224
  884MOL0     C21861   4.751   2.044  10.335 -0.0366 -0.5612 -0.1086
  884MOL0     O21862   4.627   1.982  10.314 -0.6596 -1.2309  0.6648
  884MOL0     C21863   4.519   2.067  10.253  0.9821  0.6184 -0.7469
  884MOL0     C21864   4.527   2.046  10.101 -0.8297 -0.0056  1.2936
  884MOL0     C21865   4.442   2.146  10.022 -0.1225  0.3574  0.5490
  884MOL0     C21866   4.463   2.300  10.060 -0.3478  0.0132  0.4975
  884MOL0     C21867   4.382   2.384   9.951  0.5572  0.0485 -0.7326
  884MOL0     C21868   4.400   2.541   9.976 -0.4101  0.4430  1.0572
  884MOL0     C21869   4.285   2.629   9.914 -0.3076  0.2103 -0.0180
  884MOL0     C21870   4.273   2.613   9.769  0.4716  0.3612  0.4625
  884MOL0     N21871   4.179   2.707   9.708  0.8029 -0.5982  1.1473
  884MOL0     C21872   4.195   2.843   9.713  0.0393  0.0991  0.0426
  884MOL0     C21873   4.107   2.892   9.631  0.3523 -0.4077 -0.3068
  884MOL0     C21874   4.078   3.047   9.609  0.1312 -0.3922 -0.6359
  884MOL0     C21875   3.981   3.107   9.710 -0.3319  0.0426  0.2176
  884MOL0     C21876   4.027   3.116   9.862 -0.5468 -0.5676 -0.0008
  884MOL0     C21877   4.140   3.213   9.899  0.1215  0.9207 -0.7639
  884MOL0     O21878   4.262   3.151   9.858 -0.6621  0.3188  0.2110
  884MOL0     C21879   4.364   3.239   9.859  0.2340 -1.1727 -0.3868
  884MOL0     C21880   4.456   3.210   9.757  0.2091  0.0645 -0.5236
  884MOL0     C21881   4.571   3.279   9.739  0.3221 -0.2954  0.9688
  884MOL0     C21882   4.659   3.235   9.625  0.1270 -0.6567  0.7323
  884MOL0     C21883   4.598   3.386   9.827  0.6523 -0.0329 -0.4011
  884MOL0     C21884   4.722   3.463   9.812  0.2510  0.0762 -0.1757
  884MOL0     O21885   4.776   3.499   9.687  0.1649  0.9377 -0.2439
  884MOL0     C21886   4.877   3.593   9.681 -0.2997 -0.6162 -0.5684
  884MOL0     C21887   4.988   3.577   9.602 -0.2528 -0.2333  0.1562
  884MOL0     C21888   5.086   3.671   9.573 -0.3006 -0.1153 -0.3789
  884MOL0     C21889   5.079   3.784   9.651  0.1261 -0.1952  0.2611
  884MOL0     O21890   5.171   3.878   9.619 -0.3003 -0.4438  0.1867
  884MOL0     C21891   5.169   4.006   9.685  0.0236 -0.6925  0.1654
  884MOL0     C21892   5.268   4.107   9.621 -0.1677  0.2026  0.2834
  884MOL0     C21893   5.236   4.255   9.658 -0.2539 -0.3211  0.5407
  884MOL0     C21894   5.370   4.334   9.610 -0.7195  0.9921 -0.8909
  884MOL0     C21895   5.358   4.486   9.631 -0.0039 -0.6788 -0.1946
  884MOL0     C21896   5.360   4.530   9.772  0.1982  0.5747  0.9579
  884MOL0     C21897   5.335   4.677   9.779  0.2932 -0.9833 -0.1731
  884MOL0     C21898   5.408   4.737   9.895 -0.5611  0.4125  0.1294
  884MOL0    Cl21899   5.338   4.667  10.044  0.1129 -0.1162  0.1499
  884MOL0     C21900   4.971   3.813   9.739  0.1771  0.4137  0.3685
  884MOL0     C21901   4.873   3.717   9.749 -0.0627  0.3706 -0.9047
  884MOL0     O21902   4.779   3.486   9.914  0.1106  1.0508  0.4620
  884MOL0     C21903   4.499   3.416   9.930 -0.3984  0.9865 -0.3325
  884MOL0     C21904   4.384   3.342   9.949 -0.7289 -0.5966 -0.2230
  884MOL0     N21905   4.028   2.792   9.571  0.0210  0.1855  0.1866
  884MOL0     N21906   4.072   2.675   9.625 -1.4284 -0.5013  0.1227
  884MOL0     C21907   4.793   2.169  10.285 -0.2334  0.1330  0.0928
  884MOL0     C21908   4.918   2.222  10.315 -0.0467  0.0368 -0.2749
  884MOL0     C21909   5.341   2.358  10.443 -0.3068  0.3881  0.2593
  884MOL0     C21910   5.426   2.249  10.470  0.5439 -0.2083 -0.3375
  884MOL0     C21911   5.555   2.257  10.496 -0.5303 -0.9626 -0.3877
  884MOL0     C21912   5.612   2.380  10.492  0.1681  0.2674  0.0926
  884MOL0     O21913   5.750   2.378  10.512 -0.7966  0.0017 -1.3685
  884MOL0     C21914   5.808   2.453  10.628 -1.2836 -0.4309 -0.1554
  884MOL0     C21915   5.753   2.407  10.763  0.1982  0.8011  0.0569
  884MOL0     C21916   5.750   2.250  10.763  0.8604 -0.5699  0.6134
  884MOL0     C21917   5.768   2.201  10.906  0.2186 -0.1224  0.0363
  884MOL0     C21918   5.758   2.060  10.905  0.0188  0.6148 -0.5223
  884MOL0     C21919   5.765   1.940  10.887 -0.1884  1.0923  0.5062
  884MOL0     C21920   5.535   2.493  10.454  0.0996  0.7036 -0.6491
  884MOL0     C21921   5.396   2.484  10.420 -0.6991 -0.6653  0.7009
  884MOL0     C21922   5.323   2.607  10.375  0.6462  0.2571 -0.1249
  884MOL0     H21923   5.036   1.950  10.483 -0.7719  0.6726  3.6586
  884MOL0     H21924   4.832   1.870  10.434  1.8175  0.0609  0.4674
  884MOL0     H21925   4.533   2.171  10.283  1.9871 -0.0505  1.3166
  884MOL0     H21926   4.425   2.025  10.288 -1.1727  2.0571 -4.2338
  884MOL0     H21927   4.633   2.062  10.080 -1.5317  3.7917 -0.1858
  884MOL0     H21928   4.501   1.944  10.071  0.6462 -0.1273  0.3146
  884MOL0     H21929   4.464   2.117   9.918 -0.3234 -0.8999  0.8393
  884MOL0     H21930   4.336   2.126  10.038 -0.1196  0.1665  0.3447
  884MOL0     H21931   4.422   2.314  10.161  0.0163  3.0947  0.3190
  884MOL0     H21932   4.568   2.332  10.064 -0.4556  0.3683  0.5949
  884MOL0     H21933   4.278   2.352   9.959  0.7289 -0.8421 -1.8397
  884MOL0     H21934   4.416   2.344   9.855  0.3118 -2.2920  0.0789
  884MOL0     H21935   4.412   2.562  10.082  0.8081  0.2391  0.9705
  884MOL0     H21936   4.498   2.581   9.948  0.5961 -0.8961  2.5464
  884MOL0     H21937   4.298   2.733   9.947  1.1945 -0.0186  0.2082
  884MOL0     H21938   4.195   2.586   9.957  1.2070 -1.7579  1.3705
  884MOL0     H21939   4.374   2.632   9.734  0.7650  0.7554  1.4823
  884MOL0     H21940   4.255   2.507   9.747  0.8784  0.2085  0.8472
  884MOL0     H21941   4.277   2.902   9.752 -1.9894  0.6707  3.8764
  884MOL0     H21942   4.054   3.062   9.503  3.7474 -3.2080 -2.0954
  884MOL0     H21943   4.167   3.109   9.622 -0.1902 -0.2032  0.7657
  884MOL0     H21944   3.948   3.199   9.660  0.2036  0.5357  0.7680
  884MOL0     H21945   3.897   3.037   9.711 -0.7465  0.4820 -1.2978
  884MOL0     H21946   3.936   3.154   9.908 -0.0385  1.1388 -0.3449
  884MOL0     H21947   4.046   3.014   9.895  1.3868  0.1004  1.1035
  884MOL0     H21948   4.110   3.297   9.836 -1.9380  0.6147 -0.2771
  884MOL0     H21949   4.136   3.239  10.006 -0.0732 -1.9690  0.0179
  884MOL0     H21950   4.439   3.113   9.713  1.9478 -1.0525  1.1028
  884MOL0     H21951   4.767   3.232   9.642  0.5884 -0.0883 -1.7174
  884MOL0     H21952   4.647   3.291   9.531  3.7197 -1.0695 -0.1354
  884MOL0     H21953   4.622   3.133   9.616 -3.7600  0.7708 -2.8705
  884MOL0     H21954   4.994   3.495   9.532  1.6010 -0.0870  0.1069
  884MOL0     H21955   5.175   3.658   9.513  0.9271  0.9620  1.1354
  884MOL0     H21956   5.077   4.062   9.666  0.5629 -0.0263 -0.5814
  884MOL0     H21957   5.181   4.005   9.794 -1.3902 -2.8979  0.3485
  884MOL0     H21958   5.372   4.078   9.636 -0.3552  0.5456  2.7848
  884MOL0     H21959   5.253   4.106   9.513 -1.8030 -2.3620  0.4333
  884MOL0     H21960   5.226   4.257   9.767  1.2663 -4.4997  0.9607
  884MOL0     H21961   5.153   4.288   9.596  1.1745  0.2015 -1.1680
  884MOL0     H21962   5.391   4.312   9.506  3.2269  2.2683 -0.5334
  884MOL0     H21963   5.456   4.309   9.673 -0.2284 -2.2698 -2.6562
  884MOL0     H21964   5.438   4.534   9.573  0.7268 -1.7584 -0.1089
  884MOL0     H21965   5.261   4.517   9.592 -0.7538  0.8482  2.6534
  884MOL0     H21966   5.455   4.498   9.816 -0.8959 -1.2526  2.1402
  884MOL0     H21967   5.281   4.485   9.832  0.8465 -2.3946 -0.1987
  884MOL0     H21968   5.228   4.703   9.776  0.6058  0.5269  0.6781
  884MOL0     H21969   5.373   4.731   9.692 -1.4352  1.6923  0.5961
  884MOL0     H21970   5.403   4.846   9.888 -2.3563  0.3169 -0.5287
  884MOL0     H21971   5.512   4.704   9.889 -0.7917 -0.8486  2.0083
  884MOL0     H21972   4.978   3.906   9.796  0.4859  0.2098  0.6612
  884MOL0     H21973   4.785   3.735   9.811 -1.4024 -1.9892 -1.9928
  884MOL0     H21974   4.536   3.480  10.010 -0.3800  0.7974 -0.1898
  884MOL0     H21975   4.320   3.347  10.037  2.4480 -1.9938  2.4028
  884MOL0     H21976   4.735   2.228  10.213  1.6687  1.3517 -0.5176
  884MOL0     H21977   4.937   2.312  10.259 -0.4247  0.0789 -0.3375
  884MOL0     H21978   5.381   2.152  10.486 -1.7917  0.9475  0.6130
  884MOL0     H21979   5.620   2.176  10.527  1.4524  1.4275  2.3115
  884MOL0     H21980   5.914   2.434  10.612 -0.5199  2.9861  0.0543
  884MOL0     H21981   5.798   2.562  10.618  1.5099  0.2809  3.1016
  884MOL0     H21982   5.655   2.445  10.793 -0.6679 -2.3645  1.6685
  884MOL0     H21983   5.815   2.441  10.846 -1.8179  0.3019  1.8570
  884MOL0     H21984   5.652   2.224  10.721  0.6174  1.1938 -0.0212
  884MOL0     H21985   5.833   2.223  10.698  0.2683  1.8546 -1.3166
  884MOL0     H21986   5.694   2.251  10.969  1.0402 -1.0853  1.8463
  884MOL0     H21987   5.868   2.233  10.938  1.7973  0.5839 -4.8108
  884MOL0     H21988   5.784   1.837  10.865  0.9740  0.9402  2.0287
  884MOL0     H21989   5.578   2.592  10.443 -0.3259  1.0415  0.5155
  884MOL0     H21990   5.389   2.669  10.314  0.5019  0.3538 -0.1834
  884MOL0     H21991   5.231   2.579  10.321 -0.4603 -1.7955  2.6137
  884MOL0     H21992   5.278   2.669  10.453 -1.1980 -0.2714 -0.7115
  885MOL0     O21993   7.112   7.143   3.385 -0.0695  0.4848  0.7019
  885MOL0     C21994   7.142   7.259   3.401  0.3536  0.1154 -0.6871
  885MOL0     O21995   7.089   7.367   3.333  0.3337  0.5776 -0.4602
  885MOL0     C21996   6.966   7.353   3.275  1.2073 -0.1317 -0.0929
  885MOL0     C21997   6.875   7.459   3.299 -0.8558  0.6135  0.2442
  885MOL0     C21998   6.742   7.459   3.244 -0.9631 -0.2521  0.2196
  885MOL0     C21999   6.701   7.368   3.163  0.2777 -0.3229 -0.0496
  885MOL0     O22000   6.577   7.382   3.115 -0.3174  0.1296  0.3897
  885MOL0     C22001   6.466   7.288   3.161 -0.4942  0.3101  0.6577
  885MOL0     C22002   6.330   7.317   3.091 -0.2148  1.0615 -0.1341
  885MOL0     C22003   6.341   7.345   2.935 -0.5133  0.3169 -0.3656
  885MOL0     C22004   6.412   7.228   2.867 -0.2523 -1.2661  0.2684
  885MOL0     C22005   6.358   7.073   2.884  0.2938 -0.3255  0.0616
  885MOL0     C22006   6.385   6.989   2.767 -0.2654 -0.1061  0.4564
  885MOL0     C22007   6.291   6.873   2.759 -0.1345  0.0532 -0.5134
  885MOL0     C22008   6.356   6.767   2.666 -1.1310  0.2566 -0.5284
  885MOL0     N22009   6.457   6.698   2.745 -0.3860 -0.2708 -0.0945
  885MOL0     C22010   6.432   6.619   2.850 -1.3563 -0.4254 -0.8478
  885MOL0     C22011   6.554   6.566   2.879 -0.4576  0.1903 -0.0593
  885MOL0     C22012   6.577   6.448   2.966  0.2380  0.3821 -0.8119
  885MOL0     C22013   6.607   6.488   3.105 -0.7331 -0.9922 -0.0021
  885MOL0     C22014   6.620   6.370   3.200 -0.2106 -0.4193  1.2446
  885MOL0     C22015   6.731   6.389   3.307 -0.4713 -1.1174  0.0384
  885MOL0     O22016   6.863   6.407   3.248  0.1648 -0.6053  0.1492
  885MOL0     C22017   6.966   6.436   3.337 -0.5577 -0.0756  0.1655
  885MOL0     C22018   7.072   6.349   3.344  0.7845 -0.1938  0.1971
  885MOL0     C22019   7.190   6.382   3.416  0.4381  1.5410  0.2125
  885MOL0     C22020   7.306   6.278   3.398  0.3626  0.2803 -0.0544
  885MOL0     C22021   7.193   6.508   3.491 -0.2416  0.2446 -0.1667
  885MOL0     C22022   7.317   6.556   3.563  0.4282  0.3002  0.1969
  885MOL0     O22023   7.429   6.475   3.575  0.4127  0.1673  0.6041
  885MOL0     C22024   7.532   6.528   3.652 -1.5808  0.4820  0.1889
  885MOL0     C22025   7.629   6.620   3.598  0.3775  0.3451  0.7688
  885MOL0     C22026   7.730   6.681   3.675  0.8460 -0.2048 -0.6566
  885MOL0     C22027   7.744   6.654   3.807 -0.2650 -0.0599  0.2690
  885MOL0     O22028   7.844   6.691   3.880 -0.5270  0.3268 -0.0503
  885MOL0     C22029   7.953   6.598   3.853  0.5911 -0.2102 -0.4959
  885MOL0     C22030   8.066   6.632   3.945 -0.5330  0.5222  0.8151
  885MOL0     C22031   8.015   6.652   4.096 -0.8168 -1.0182  0.0192
  885MOL0     C22032   8.131   6.648   4.202 -0.6443 -0.4326 -0.1642
  885MOL0     C22033   8.169   6.507   4.237  0.1017  0.1740 -0.5165
  885MOL0     C22034   8.238   6.493   4.370 -1.0388  0.6653  0.9395
  885MOL0     C22035   8.387   6.550   4.371 -0.0877  0.0883 -0.3102
  885MOL0     C22036   8.453   6.494   4.496  0.0399  0.6978 -0.4433
  885MOL0    Cl22037   8.470   6.621   4.622 -0.0343 -0.3385  0.1832
  885MOL0     C22038   7.657   6.561   3.864  0.5775 -0.5365 -0.0649
  885MOL0     C22039   7.549   6.506   3.786  0.1559  0.0397 -0.2143
  885MOL0     O22040   7.303   6.665   3.610  0.4938  0.3932  0.7691
  885MOL0     C22041   7.073   6.588   3.479 -0.5444  0.0264  0.0804
  885MOL0     C22042   6.963   6.555   3.399  0.3470  0.3742  0.3010
  885MOL0     N22043   6.644   6.602   2.782  0.2099 -1.3182 -0.7538
  885MOL0     N22044   6.583   6.678   2.698 -0.1956 -1.0553  0.1305
  885MOL0     C22045   6.788   7.264   3.140  0.1835  0.6023 -0.9650
  885MOL0     C22046   6.917   7.253   3.189  0.2824  0.2738 -1.0435
  885MOL0     C22047   7.228   7.295   3.522  0.5764 -0.3904 -1.5303
  885MOL0     C22048   7.301   7.414   3.522  0.6794 -0.3658 -0.5402
  885MOL0     C22049   7.390   7.446   3.624  0.1046  0.1123  0.1329
  885MOL0     C22050   7.402   7.365   3.734 -0.0236  0.1436  0.1138
  885MOL0     O22051   7.499   7.404   3.818  0.4496 -0.1613 -0.4126
  885MOL0     C22052   7.488   7.374   3.956  0.0850  1.2196  0.9306
  885MOL0     C22053   7.391   7.472   4.034 -0.0566 -0.0607 -1.1498
  885MOL0     C22054   7.460   7.609   4.030  0.1693 -0.6043 -0.3477
  885MOL0     C22055   7.361   7.716   4.090 -0.3397  0.4199 -0.1294
  885MOL0     C22056   7.427   7.845   4.119  0.3449  0.3112  0.6533
  885MOL0     C22057   7.486   7.949   4.138 -0.3931  0.6291  1.1072
  885MOL0     C22058   7.314   7.256   3.749 -0.1483  0.4205 -0.0432
  885MOL0     C22059   7.223   7.221   3.645  0.0999  0.2205 -0.0368
  885MOL0     C22060   7.138   7.094   3.668  0.4728  0.2048 -0.3703
  885MOL0     H22061   6.896   7.546   3.360  1.2512  0.8004 -0.6629
  885MOL0     H22062   6.677   7.541   3.271  0.7998  0.4291  2.7560
  885MOL0     H22063   6.449   7.275   3.268 -0.8988  0.4407  0.6143
  885MOL0     H22064   6.503   7.188   3.139  1.6893  0.8405  1.6384
  885MOL0     H22065   6.253   7.241   3.106 -1.3523  2.5311  1.9114
  885MOL0     H22066   6.291   7.408   3.138 -1.1582  1.8320 -2.3020
  885MOL0     H22067   6.238   7.356   2.900 -0.9523 -0.3384  0.6833
  885MOL0     H22068   6.402   7.435   2.925  0.8983 -0.2623  2.2621
  885MOL0     H22069   6.416   7.247   2.759 -1.5003 -1.3570  0.1891
  885MOL0     H22070   6.508   7.219   2.917 -0.4164 -0.8839  0.6581
  885MOL0     H22071   6.250   7.071   2.904  0.2151 -0.8886 -0.4228
  885MOL0     H22072   6.413   7.028   2.967  0.2198 -3.1710 -1.3119
  885MOL0     H22073   6.386   7.049   2.675  1.7394  1.0634  1.1800
  885MOL0     H22074   6.491   6.962   2.768  0.0673  1.1016 -0.4588
  885MOL0     H22075   6.194   6.909   2.724 -1.1881 -2.6223 -0.6529
  885MOL0     H22076   6.270   6.841   2.862  0.0021  1.5671  0.0052
  885MOL0     H22077   6.280   6.693   2.636 -0.1384 -1.3146  0.6694
  885MOL0     H22078   6.397   6.816   2.578  0.8500  2.7565  1.6283
  885MOL0     H22079   6.333   6.595   2.889 -0.9000 -0.2953  0.4677
  885MOL0     H22080   6.659   6.385   2.930 -0.8123 -1.1824 -0.5435
  885MOL0     H22081   6.485   6.389   2.968 -1.3033  2.5876  2.3633
  885MOL0     H22082   6.689   6.560   3.103  0.0512 -1.8827 -1.3282
  885MOL0     H22083   6.518   6.545   3.133  0.0804  0.7562 -0.8366
  885MOL0     H22084   6.521   6.344   3.240 -1.3727 -1.1549 -1.7648
  885MOL0     H22085   6.662   6.282   3.150  3.6114 -0.2399  3.7695
  885MOL0     H22086   6.703   6.472   3.372  0.1634 -1.7972  1.2319
  885MOL0     H22087   6.722   6.302   3.374 -3.1615 -0.1911  0.9790
  885MOL0     H22088   7.067   6.260   3.282  0.4205  0.4099 -0.6550
  885MOL0     H22089   7.280   6.205   3.321  1.6733 -0.0500 -0.2064
  885MOL0     H22090   7.323   6.221   3.490  0.5177  0.0395 -0.2323
  885MOL0     H22091   7.394   6.335   3.367  1.1755  0.8700  2.9699
  885MOL0     H22092   7.611   6.650   3.495 -0.1084 -0.6199  0.5595
  885MOL0     H22093   7.807   6.737   3.624 -0.7706  1.5833 -1.2795
  885MOL0     H22094   7.930   6.492   3.867  0.7982 -0.2448 -0.4135
  885MOL0     H22095   7.999   6.598   3.753  2.2695  2.8737  0.1448
  885MOL0     H22096   8.144   6.557   3.928 -1.4251 -0.2581  0.0604
  885MOL0     H22097   8.120   6.719   3.907 -1.4533  0.7579  0.0349
  885MOL0     H22098   7.924   6.596   4.120 -2.5641  2.6002  2.9284
  885MOL0     H22099   7.982   6.756   4.106  0.5676 -0.5796  0.2396
  885MOL0     H22100   8.096   6.690   4.296  1.9406  1.5159  0.0258
  885MOL0     H22101   8.214   6.713   4.171 -1.5250  0.4540 -0.7238
  885MOL0     H22102   8.085   6.438   4.249  1.3982 -1.2261  0.8318
  885MOL0     H22103   8.221   6.461   4.152 -2.6233 -0.0328 -2.2230
  885MOL0     H22104   8.237   6.388   4.398  0.8608  0.9497  2.2116
  885MOL0     H22105   8.180   6.552   4.443 -0.8172  1.6916  0.3138
  885MOL0     H22106   8.378   6.658   4.383 -2.5981 -0.2657  1.6966
  885MOL0     H22107   8.441   6.515   4.282  1.9868 -3.9191  2.1811
  885MOL0     H22108   8.556   6.465   4.470 -0.3546 -0.5052 -0.7408
  885MOL0     H22109   8.412   6.404   4.543 -2.5800  1.9263 -0.2132
  885MOL0     H22110   7.667   6.539   3.970 -3.0242  1.8000  0.9491
  885MOL0     H22111   7.479   6.439   3.835  1.6725 -0.3170  1.5682
  885MOL0     H22112   7.066   6.685   3.527  1.0515 -0.1905  0.8017
  885MOL0     H22113   6.885   6.629   3.383  1.0430  1.6429  2.3238
  885MOL0     H22114   6.751   7.181   3.080 -0.7139  0.8348 -0.7518
  885MOL0     H22115   6.989   7.172   3.178  0.7487 -0.1955  3.5196
  885MOL0     H22116   7.302   7.474   3.431  2.8018 -3.5335 -2.8408
  885MOL0     H22117   7.465   7.522   3.607 -0.0511 -0.0155 -1.2364
  885MOL0     H22118   7.462   7.269   3.975  0.5803  0.5698 -1.6733
  885MOL0     H22119   7.591   7.391   3.989  0.4187 -0.2539  0.7533
  885MOL0     H22120   7.372   7.452   4.140 -3.4141 -0.2373 -1.6632
  885MOL0     H22121   7.292   7.474   3.986 -0.5311  1.6058 -0.1662
  885MOL0     H22122   7.553   7.608   4.088  1.5959 -1.4614 -2.5619
  885MOL0     H22123   7.485   7.638   3.928 -3.2344  0.4243 -1.0212
  885MOL0     H22124   7.333   7.692   4.193  0.4796 -0.3312 -0.0758
  885MOL0     H22125   7.279   7.724   4.019 -0.9389  0.2800  0.5281
  885MOL0     H22126   7.558   8.028   4.135 -1.8280  1.9716  0.5287
  885MOL0     H22127   7.309   7.204   3.844 -1.3011  0.3366 -0.1344
  885MOL0     H22128   7.134   7.083   3.777 -0.4073  0.3696 -0.3747
  885MOL0     H22129   7.037   7.121   3.635  0.5096  4.2912  2.1033
  885MOL0     H22130   7.187   7.012   3.615 -2.1571 -1.4787 -0.4068
  886MOL0     O22131  11.059  10.453   4.461  0.0095  0.0407  0.2850
  886MOL0     C22132  11.178  10.443   4.449 -0.2263 -0.2294  0.0313
  886MOL0     O22133  11.253  10.494   4.345 -0.0611  0.3947  0.1587
  886MOL0     C22134  11.185  10.560   4.246 -0.1736  0.5674 -0.3561
  886MOL0     C22135  11.144  10.691   4.259 -0.1767  0.5041 -0.7272
  886MOL0     C22136  11.065  10.758   4.173 -0.5637  0.0480  0.1419
  886MOL0     C22137  11.004  10.688   4.069 -0.0345 -0.3469  0.8265
  886MOL0     O22138  10.918  10.759   3.984 -0.1635  0.8039 -0.5897
  886MOL0     C22139  10.887  10.716   3.853 -0.1425 -0.7624 -0.2605
  886MOL0     C22140  10.760  10.802   3.824 -0.0547 -0.5942 -0.7816
  886MOL0     C22141  10.698  10.785   3.682 -0.3249 -0.0897  0.3523
  886MOL0     C22142  10.552  10.833   3.685  0.3191 -0.1555 -0.0884
  886MOL0     C22143  10.477  10.769   3.569  0.9969 -0.4390  0.4776
  886MOL0     C22144  10.339  10.832   3.554  0.9730  0.1966 -0.3099
  886MOL0     C22145  10.325  10.983   3.542 -0.4427 -0.5276  0.1416
  886MOL0     C22146  10.394  11.043   3.405  0.2332 -0.4937 -1.4519
  886MOL0     N22147  10.322  10.992   3.289 -0.8792  0.2399 -0.4229
  886MOL0     C22148  10.206  11.050   3.237 -1.2283 -0.0633 -0.0458
  886MOL0     C22149  10.188  10.994   3.120 -0.3559  0.3623 -0.4049
  886MOL0     C22150  10.053  11.005   3.052 -0.2916  0.2534  0.7897
  886MOL0     C22151   9.980  10.869   3.045  0.5532 -0.2616 -0.6949
  886MOL0     C22152   9.892  10.859   2.928  0.1307 -0.6379  0.5199
  886MOL0     C22153   9.777  10.963   2.949 -0.2888  0.9637  0.2297
  886MOL0     O22154   9.816  11.087   2.876  0.1739  0.3131  0.1121
  886MOL0     C22155   9.719  11.176   2.842 -0.7543  0.0620  0.1337
  886MOL0     C22156   9.756  11.277   2.747  0.7439  0.3042  0.1397
  886MOL0     C22157   9.656  11.372   2.700 -0.0913  0.9223 -0.5595
  886MOL0     C22158   9.704  11.470   2.594 -0.1118 -0.7368 -0.1147
  886MOL0     C22159   9.520  11.376   2.756  0.0005 -0.5511 -0.6442
  886MOL0     C22160   9.416  11.473   2.726  0.1054  0.8086 -0.2876
  886MOL0     O22161   9.289  11.418   2.714 -0.1020 -0.3837 -1.0492
  886MOL0     C22162   9.182  11.507   2.692 -0.3837  0.0958 -0.1922
  886MOL0     C22163   9.112  11.496   2.573  0.7001 -0.5663 -0.8461
  886MOL0     C22164   8.993  11.564   2.547  0.5359 -0.4779  0.1546
  886MOL0     C22165   8.939  11.635   2.655 -0.0478  0.1782 -0.3959
  886MOL0     O22166   8.817  11.699   2.652 -0.3818  1.1969 -0.0060
  886MOL0     C22167   8.746  11.692   2.536 -0.1818  0.3867  0.0470
  886MOL0     C22168   8.786  11.808   2.443  0.4072  0.0975 -0.0821
  886MOL0     C22169   8.677  11.820   2.340  0.0357 -0.4362  0.4293
  886MOL0     C22170   8.701  11.938   2.248  0.5629  0.3941  0.2013
  886MOL0     C22171   8.655  12.072   2.315 -0.0898  0.0038 -0.1197
  886MOL0     C22172   8.612  12.182   2.218  0.4423  0.2099  0.4732
  886MOL0     C22173   8.730  12.238   2.147 -0.5598 -0.0832  0.1898
  886MOL0     C22174   8.804  12.339   2.238  0.5647 -0.5897 -0.4789
  886MOL0    Cl22175   8.903  12.448   2.143 -0.2286 -0.1849  0.1338
  886MOL0     C22176   9.004  11.649   2.774  0.1952 -0.0799  0.4106
  886MOL0     C22177   9.126  11.584   2.792 -0.7380  0.3727  0.2362
  886MOL0     O22178   9.449  11.590   2.711  0.6821  0.2650 -0.1441
  886MOL0     C22179   9.490  11.272   2.851 -1.0672  0.3921 -0.2256
  886MOL0     C22180   9.592  11.179   2.894  0.5742  0.0051  0.1692
  886MOL0     N22181  10.297  10.900   3.092  0.4192 -0.2923 -0.4250
  886MOL0     N22182  10.372  10.904   3.198  0.4912 -0.2911 -0.6760
  886MOL0     C22183  11.049  10.558   4.049  0.0308 -0.9973  0.5260
  886MOL0     C22184  11.135  10.495   4.134  0.9765  0.5617 -0.0619
  886MOL0     C22185  11.258  10.355   4.541  0.0354  0.2406 -0.1473
  886MOL0     C22186  11.355  10.277   4.473  0.3291 -0.5039 -0.4210
  886MOL0     C22187  11.448  10.204   4.549  1.1088  0.4090  0.9898
  886MOL0     C22188  11.454  10.204   4.693 -0.2507  0.0102 -0.7387
  886MOL0     O22189  11.533  10.144   4.785  0.5972 -0.0134  0.3778
  886MOL0     C22190  11.655  10.080   4.732  0.7951  0.0770  0.5741
  886MOL0     C22191  11.729  10.018   4.852 -0.5739  0.0294 -0.5873
  886MOL0     C22192  11.871   9.979   4.803  0.0904 -0.1652 -0.3269
  886MOL0     C22193  11.895   9.844   4.886  0.7083 -0.2563  0.1185
  886MOL0     C22194  12.022   9.806   4.832 -0.2180  0.9717  0.9730
  886MOL0     C22195  12.135   9.785   4.789  0.0545 -0.7603  0.9456
  886MOL0     C22196  11.351  10.278   4.754  0.6270 -0.6011 -0.5869
  886MOL0     C22197  11.258  10.352   4.680  1.2096  0.5497 -0.5986
  886MOL0     C22198  11.146  10.428   4.755 -0.2164 -0.9096  0.4773
  886MOL0     H22199  11.188  10.741   4.345  1.6824 -0.5532 -1.0239
  886MOL0     H22200  11.050  10.862   4.199 -0.4805 -0.5365  2.8711
  886MOL0     H22201  10.858  10.611   3.859  2.5636 -1.6966 -1.7985
  886MOL0     H22202  10.964  10.718   3.775  0.2251 -2.0332  0.0427
  886MOL0     H22203  10.688  10.782   3.904 -0.0010 -1.1834 -0.8742
  886MOL0     H22204  10.789  10.907   3.821 -1.6139 -0.1625 -2.5984
  886MOL0     H22205  10.751  10.826   3.597 -1.0312 -0.2991 -0.2006
  886MOL0     H22206  10.699  10.678   3.662 -0.2121  0.2125 -1.3524
  886MOL0     H22207  10.497  10.804   3.775  0.0816  0.9418  0.1476
  886MOL0     H22208  10.548  10.943   3.683 -1.5124 -0.1998 -1.6538
  886MOL0     H22209  10.469  10.660   3.580  3.5877 -0.6714  0.6660
  886MOL0     H22210  10.534  10.787   3.477 -1.2917  1.3421 -0.7032
  886MOL0     H22211  10.288  10.791   3.466  4.7151  1.4243 -3.3603
  886MOL0     H22212  10.277  10.816   3.642  1.0962  3.9241  0.6317
  886MOL0     H22213  10.371  11.035   3.627 -1.6120  1.7875 -0.5587
  886MOL0     H22214  10.219  11.009   3.546 -0.6098 -0.8712 -1.3596
  886MOL0     H22215  10.381  11.151   3.408  1.6688 -0.2993 -1.7417
  886MOL0     H22216  10.497  11.005   3.400  0.4261 -0.4568  1.0739
  886MOL0     H22217  10.134  11.111   3.291  0.0717  0.0023  1.7097
  886MOL0     H22218  10.064  11.037   2.948  1.7881 -1.2746  0.4954
  886MOL0     H22219   9.995  11.082   3.104 -0.3491  0.4912  0.3778
  886MOL0     H22220  10.051  10.785   3.041 -0.4663 -1.0936 -2.7789
  886MOL0     H22221   9.915  10.859   3.132 -0.4847 -2.4769 -1.6597
  886MOL0     H22222   9.939  10.863   2.829 -1.2004 -0.5390 -0.1301
  886MOL0     H22223   9.831  10.769   2.915 -3.2246  1.3884  0.9998
  886MOL0     H22224   9.683  10.923   2.909 -0.3860 -0.8632  2.1256
  886MOL0     H22225   9.752  10.988   3.052 -1.0908  3.9862 -0.5990
  886MOL0     H22226   9.855  11.285   2.702 -0.1661 -0.3431 -2.1073
  886MOL0     H22227   9.726  11.410   2.505  0.6939  1.4434 -1.4495
  886MOL0     H22228   9.798  11.518   2.621  0.7459 -2.1033 -0.5265
  886MOL0     H22229   9.633  11.545   2.559  1.6410 -0.1301 -2.6482
  886MOL0     H22230   9.153  11.441   2.489  1.8832 -0.3518 -0.4310
  886MOL0     H22231   8.936  11.535   2.459 -0.7987 -1.8185  1.4099
  886MOL0     H22232   8.747  11.599   2.478 -0.3534  0.7670 -0.5718
  886MOL0     H22233   8.642  11.709   2.567 -1.4591 -2.9226 -1.8918
  886MOL0     H22234   8.787  11.904   2.495 -0.3599 -0.7741  1.6295
  886MOL0     H22235   8.878  11.779   2.392  0.1515 -0.3234 -0.3126
  886MOL0     H22236   8.584  11.837   2.395 -0.8816 -3.2005 -0.0902
  886MOL0     H22237   8.665  11.730   2.278  1.2889  0.5567 -1.3431
  886MOL0     H22238   8.648  11.925   2.153  0.0136 -1.2951  0.7062
  886MOL0     H22239   8.807  11.945   2.223  0.0102  1.2274 -2.2669
  886MOL0     H22240   8.564  12.057   2.375  0.6686 -1.2734  0.7653
  886MOL0     H22241   8.734  12.103   2.384  0.2806 -0.7593 -0.1841
  886MOL0     H22242   8.569  12.268   2.271  1.5824  1.6830 -0.8916
  886MOL0     H22243   8.548  12.144   2.138  2.4591  0.1004 -1.1823
  886MOL0     H22244   8.701  12.281   2.051  1.0671 -1.2971 -0.9069
  886MOL0     H22245   8.794  12.151   2.128 -2.4999 -1.9380  1.6430
  886MOL0     H22246   8.876  12.297   2.309  1.5878 -0.0645 -1.1885
  886MOL0     H22247   8.734  12.404   2.292  0.4080 -1.4322  0.3541
  886MOL0     H22248   8.942  11.704   2.844 -4.6495 -2.9840 -1.0599
  886MOL0     H22249   9.171  11.585   2.891  0.0237  2.3706 -0.0803
  886MOL0     H22250   9.390  11.260   2.890 -0.1514  1.0148  2.5455
  886MOL0     H22251   9.554  11.110   2.969 -1.0297  2.1518  1.4447
  886MOL0     H22252  11.011  10.503   3.963  0.7027 -0.4703 -0.1206
  886MOL0     H22253  11.165  10.393   4.114 -1.8465 -0.3780 -0.0406
  886MOL0     H22254  11.367  10.271   4.365  0.2366  0.3968 -0.4884
  886MOL0     H22255  11.520  10.149   4.488  0.8103  1.0681  0.0202
  886MOL0     H22256  11.637  10.003   4.657  1.2637  1.0988 -0.6297
  886MOL0     H22257  11.713  10.155   4.678  0.4971  2.7343  3.6240
  886MOL0     H22258  11.674   9.938   4.901 -0.6567  0.6531  0.3571
  886MOL0     H22259  11.744  10.103   4.919  1.4415  0.9549 -2.0910
  886MOL0     H22260  11.871   9.954   4.697 -3.1159  0.2583 -0.5206
  886MOL0     H22261  11.946  10.056   4.828  1.8141 -2.1632  1.0618
  886MOL0     H22262  11.822   9.765   4.866  1.5377 -0.5741 -1.8811
  886MOL0     H22263  11.923   9.857   4.991 -0.0018 -2.2801  0.6060
  886MOL0     H22264  12.230   9.769   4.743 -0.6105 -1.4017 -0.2350
  886MOL0     H22265  11.334  10.277   4.862  0.7971  0.2355 -0.5447
  886MOL0     H22266  11.154  10.401   4.861 -0.6908 -0.9895  0.4962
  886MOL0     H22267  11.160  10.535   4.737 -1.7536  0.0975  4.3269
  886MOL0     H22268  11.048  10.393   4.720  1.2273 -2.7027 -2.0924
  887MOL0     O22269   7.494  10.696   9.305 -0.0112 -0.2394  0.7633
  887MOL0     C22270   7.470  10.646   9.414 -0.0501 -0.2894 -0.1534
  887MOL0     O22271   7.561  10.645   9.526 -0.1978  0.4520  0.1556
  887MOL0     C22272   7.682  10.707   9.510 -0.8687 -0.0413  0.5218
  887MOL0     C22273   7.693  10.843   9.473 -0.3190  0.0408  0.4445
  887MOL0     C22274   7.822  10.899   9.476  0.0271  0.3326 -0.8523
  887MOL0     C22275   7.934  10.835   9.524 -0.3576 -0.0303  0.4917
  887MOL0     O22276   8.057  10.890   9.531 -0.6868 -0.2576  0.4341
  887MOL0     C22277   8.078  11.027   9.495 -0.5889 -0.1465 -0.1596
  887MOL0     C22278   8.054  11.125   9.607 -0.3289  0.3042  0.0349
  887MOL0     C22279   8.140  11.088   9.728  0.4012 -0.1587  0.1533
  887MOL0     C22280   8.121  11.204   9.825  0.2959 -0.1054 -0.8488
  887MOL0     C22281   8.205  11.214   9.958  0.1525 -0.7118  0.3750
  887MOL0     C22282   8.200  11.356  10.007 -1.7616  0.2633 -0.7675
  887MOL0     C22283   8.322  11.373  10.100 -0.3215  0.7403 -0.3161
  887MOL0     C22284   8.318  11.293  10.231 -0.3611 -1.0066  0.2446
  887MOL0     N22285   8.203  11.327  10.311  0.1612 -0.5948  0.1505
  887MOL0     C22286   8.192  11.441  10.384 -0.4610  0.0858  0.4254
  887MOL0     C22287   8.072  11.439  10.455 -0.9457 -0.7234 -0.2439
  887MOL0     C22288   8.031  11.532  10.575 -0.1207  0.5739  0.4336
  887MOL0     C22289   8.027  11.679  10.531 -0.0104 -0.5283  0.2436
  887MOL0     C22290   7.928  11.711  10.415  0.0347  0.9629 -0.5350
  887MOL0     C22291   7.797  11.631  10.431 -0.1991 -0.0138 -0.0664
  887MOL0     O22292   7.699  11.688  10.336 -0.3574  0.3232  0.8832
  887MOL0     C22293   7.714  11.664  10.200  0.7388  0.1916 -0.4733
  887MOL0     C22294   7.783  11.558  10.131  0.6444  0.1633 -0.1034
  887MOL0     C22295   7.771  11.539   9.990  0.4409 -0.6608 -0.6787
  887MOL0     C22296   7.832  11.404   9.943  1.0713  0.4354 -0.2525
  887MOL0     C22297   7.711  11.639   9.912 -0.4903  0.3994  0.2949
  887MOL0     C22298   7.695  11.622   9.770  0.3341  0.3930  0.5711
  887MOL0     O22299   7.741  11.505   9.699 -0.1232  0.2767  0.1615
  887MOL0     C22300   7.671  11.441   9.599  0.7550  0.6876 -0.3214
  887MOL0     C22301   7.735  11.341   9.523 -0.4668 -0.8463  0.3445
  887MOL0     C22302   7.671  11.276   9.419  0.0120  0.0883 -0.4529
  887MOL0     C22303   7.541  11.308   9.379 -0.4229 -0.4200  0.6975
  887MOL0     O22304   7.478  11.249   9.270  0.5035  0.5743 -0.3191
  887MOL0     C22305   7.545  11.143   9.198 -0.5177 -0.4287  0.0554
  887MOL0     C22306   7.469  11.089   9.079  0.5106  0.6072  0.1153
  887MOL0     C22307   7.347  11.005   9.137  0.6477  0.1263 -0.1853
  887MOL0     C22308   7.257  10.940   9.031 -0.5587  0.6501 -0.9055
  887MOL0     C22309   7.207  11.038   8.930 -0.1184 -0.3599 -0.2189
  887MOL0     C22310   7.073  11.003   8.868  0.1238 -0.8675 -0.2450
  887MOL0     C22311   6.961  10.989   8.964  0.5098  0.4278 -0.2986
  887MOL0     C22312   6.831  10.946   8.888  1.4379 -0.4883  0.8371
  887MOL0    Cl22313   6.772  11.068   8.761  0.2100  0.1801 -0.3600
  887MOL0     C22314   7.482  11.403   9.454  0.1746 -0.3543  0.0445
  887MOL0     C22315   7.538  11.471   9.559 -0.4227  0.2500 -0.2979
  887MOL0     O22316   7.640  11.711   9.708 -0.0326 -0.3434  0.3100
  887MOL0     C22317   7.665  11.750   9.977  0.5442 -1.3337 -0.4192
  887MOL0     C22318   7.660  11.767  10.124 -0.7330 -0.0971  0.1655
  887MOL0     N22319   8.013  11.323  10.419  0.7874 -1.0292 -0.1885
  887MOL0     N22320   8.086  11.259  10.340 -0.4448 -0.3498  0.3691
  887MOL0     C22321   7.922  10.702   9.572 -0.0353  0.4675 -0.5631
  887MOL0     C22322   7.794  10.636   9.563  0.0999 -0.3913  0.7745
  887MOL0     C22323   7.347  10.568   9.437 -0.1908  0.0763  0.1514
  887MOL0     C22324   7.345  10.485   9.545 -0.3911  0.8769 -0.2294
  887MOL0     C22325   7.236  10.402   9.579  0.5625  0.0691 -0.3144
  887MOL0     C22326   7.116  10.411   9.496 -0.1248  0.2031 -0.0836
  887MOL0     O22327   7.012  10.329   9.532  0.6061  0.4166  1.0492
  887MOL0     C22328   6.898  10.313   9.439 -0.0571  1.9860 -0.2910
  887MOL0     C22329   6.796  10.218   9.505 -0.1350 -0.1712 -0.2014
  887MOL0     C22330   6.664  10.196   9.420 -0.4533 -0.0325  0.1075
  887MOL0     C22331   6.556  10.154   9.521  1.1183  0.4489 -0.3293
  887MOL0     C22332   6.432  10.134   9.452 -0.0808  0.4813  0.2334
  887MOL0     C22333   6.330  10.127   9.390  0.7314  1.0351 -0.3345
  887MOL0     C22334   7.121  10.493   9.387  0.0390  0.3089  0.4469
  887MOL0     C22335   7.231  10.574   9.362  0.1759  0.0939 -0.0395
  887MOL0     C22336   7.225  10.644   9.229 -0.3492 -0.2278  0.4708
  887MOL0     H22337   7.609  10.903   9.440  0.2774  0.3466 -0.5454
  887MOL0     H22338   7.831  11.006   9.460  0.8880  0.3864 -0.0875
  887MOL0     H22339   8.026  11.063   9.406  0.3751 -0.6617 -0.9526
  887MOL0     H22340   8.184  11.038   9.471  0.1873  0.3123  2.9376
  887MOL0     H22341   8.085  11.222   9.567 -0.6119  0.5022  0.2909
  887MOL0     H22342   7.945  11.131   9.620 -0.4559  0.1585 -0.9264
  887MOL0     H22343   8.107  10.994   9.773  1.3317 -0.1882  0.8111
  887MOL0     H22344   8.242  11.087   9.689  0.2909  1.3328 -0.2435
  887MOL0     H22345   8.138  11.295   9.767  0.5055  1.1796  1.1733
  887MOL0     H22346   8.018  11.198   9.859  0.0034 -0.5872 -1.7619
  887MOL0     H22347   8.309  11.184   9.944  0.4744  0.7944 -0.7292
  887MOL0     H22348   8.160  11.150  10.034 -2.5764 -0.4568 -0.8831
  887MOL0     H22349   8.218  11.430   9.929 -0.6852 -0.9529 -1.7090
  887MOL0     H22350   8.099  11.378  10.045 -1.7464  0.2087 -0.6944
  887MOL0     H22351   8.329  11.478  10.131 -1.1148  0.7772 -0.2423
  887MOL0     H22352   8.412  11.350  10.043  0.4583 -1.6820  1.6959
  887MOL0     H22353   8.321  11.184  10.219 -1.4617 -0.8739 -1.5651
  887MOL0     H22354   8.409  11.320  10.286 -0.9299 -1.1772  1.2934
  887MOL0     H22355   8.264  11.522  10.375 -0.0775 -0.1690  1.1412
  887MOL0     H22356   8.100  11.517  10.658  2.6692  2.9336 -1.2534
  887MOL0     H22357   7.931  11.493  10.598  0.6325 -3.1431 -1.8832
  887MOL0     H22358   7.986  11.724  10.622 -4.6046  0.8301 -2.1962
  887MOL0     H22359   8.120  11.732  10.509 -1.4366  1.7577 -0.6351
  887MOL0     H22360   7.892  11.814  10.404 -2.3802  0.1005 -1.2419
  887MOL0     H22361   7.969  11.677  10.320 -1.1153 -0.9794 -0.3930
  887MOL0     H22362   7.811  11.528  10.395  1.5981  0.0757  0.2518
  887MOL0     H22363   7.763  11.627  10.534 -1.5152 -1.2524 -0.5112
  887MOL0     H22364   7.830  11.476  10.185 -1.9417 -0.5413  1.2603
  887MOL0     H22365   7.863  11.342  10.028 -0.1496 -0.1483 -0.2269
  887MOL0     H22366   7.920  11.429   9.882  1.8417 -1.0001  0.2310
  887MOL0     H22367   7.763  11.335   9.896  1.9346 -1.8395  1.5971
  887MOL0     H22368   7.837  11.316   9.551  0.1522  1.0084 -0.0763
  887MOL0     H22369   7.738  11.202   9.377 -1.1233 -3.1300  2.8715
  887MOL0     H22370   7.644  11.180   9.171 -0.2205  0.5486  2.2640
  887MOL0     H22371   7.571  11.055   9.257 -2.6495 -0.3059  1.2911
  887MOL0     H22372   7.422  11.170   9.021 -2.7354 -1.6702 -0.7600
  887MOL0     H22373   7.535  11.024   9.021  2.4791  2.3540  0.2998
  887MOL0     H22374   7.288  11.077   9.195  1.7523  0.7684  0.1893
  887MOL0     H22375   7.383  10.933   9.211  2.2095  1.7747  0.7449
  887MOL0     H22376   7.183  10.890   9.095  2.6328 -0.7983  1.9625
  887MOL0     H22377   7.319  10.864   8.983  1.3837  2.2510 -1.0356
  887MOL0     H22378   7.195  11.133   8.983 -0.8499 -0.1405 -0.7680
  887MOL0     H22379   7.279  11.056   8.849 -0.1286  0.6099 -0.0262
  887MOL0     H22380   7.088  10.913   8.808 -1.0294 -0.1974 -1.5979
  887MOL0     H22381   7.037  11.089   8.810 -1.8305 -0.6752  1.1244
  887MOL0     H22382   6.934  11.085   9.010  0.6878  0.2029  0.2766
  887MOL0     H22383   6.982  10.920   9.046 -0.1553  1.6778  0.9755
  887MOL0     H22384   6.749  10.944   8.961  2.2272 -1.4242  1.7290
  887MOL0     H22385   6.832  10.844   8.847 -1.0187 -0.9940  1.8464
  887MOL0     H22386   7.378  11.430   9.439  1.0037  2.9926 -0.2958
  887MOL0     H22387   7.480  11.550   9.606 -0.5289 -1.7616  3.3864
  887MOL0     H22388   7.630  11.825   9.907  5.5086 -2.1709 -4.3904
  887MOL0     H22389   7.629  11.860  10.171  4.9816  1.8132  0.9767
  887MOL0     H22390   8.004  10.652   9.622 -0.5067  0.7276  0.4881
  887MOL0     H22391   7.783  10.530   9.578 -0.3546 -0.3846  0.5229
  887MOL0     H22392   7.428  10.465   9.613  1.2710  1.2873 -2.0371
  887MOL0     H22393   7.241  10.339   9.667  2.8142 -2.1278 -1.8829
  887MOL0     H22394   6.851  10.406   9.408 -2.0868  2.0397  2.5329
  887MOL0     H22395   6.940  10.258   9.355  3.3494  1.4765  1.5794
  887MOL0     H22396   6.768  10.254   9.604 -3.9161 -1.1560 -0.7418
  887MOL0     H22397   6.845  10.120   9.512  1.1269  0.5111  1.0318
  887MOL0     H22398   6.640  10.295   9.380  0.7398  1.9044  3.7033
  887MOL0     H22399   6.684  10.118   9.346 -4.0946 -1.6993  0.6521
  887MOL0     H22400   6.530  10.234   9.592 -1.5998 -0.6946  0.0797
  887MOL0     H22401   6.576  10.067   9.584 -3.8157 -0.1643  0.8579
  887MOL0     H22402   6.251  10.104   9.322 -0.5801  0.4718  1.3017
  887MOL0     H22403   7.040  10.498   9.315 -0.2044  3.3420  0.8096
  887MOL0     H22404   7.128  10.660   9.181  0.7899 -0.4731 -2.0619
  887MOL0     H22405   7.258  10.746   9.251  0.8874 -1.1175  3.1705
  887MOL0     H22406   7.290  10.590   9.159 -0.6761  1.4514 -1.2057
  888MOL0     O22407   2.705   5.801   3.493  0.3739  0.4040 -0.5274
  888MOL0     C22408   2.788   5.725   3.541 -2.0344  0.5724 -0.6813
  888MOL0     O22409   2.927   5.739   3.526 -0.3083 -0.3440  0.1643
  888MOL0     C22410   2.994   5.861   3.512  0.2101  0.0242  0.4786
  888MOL0     C22411   2.926   5.983   3.514  0.4106  0.1676 -0.0056
  888MOL0     C22412   3.009   6.097   3.508 -0.1099 -0.3473  0.6930
  888MOL0     C22413   3.145   6.099   3.482  0.2367 -0.0310 -0.6629
  888MOL0     O22414   3.190   6.225   3.460  0.0921  0.1339 -0.7374
  888MOL0     C22415   3.326   6.252   3.440 -0.1448 -0.0881  0.0462
  888MOL0     C22416   3.338   6.410   3.416  0.0339  0.2925  0.0514
  888MOL0     C22417   3.471   6.456   3.381 -0.2200  0.1220  0.0990
  888MOL0     C22418   3.510   6.412   3.241 -0.3025  0.1042  0.3493
  888MOL0     C22419   3.636   6.466   3.181  0.9342 -0.3704  0.2600
  888MOL0     C22420   3.621   6.482   3.026 -1.6818 -0.2915 -0.3313
  888MOL0     C22421   3.766   6.512   2.961  0.8957 -0.2163 -0.1661
  888MOL0     C22422   3.776   6.669   2.934  0.9599  0.6700  0.1470
  888MOL0     N22423   3.708   6.720   2.819  0.9233 -0.5951  0.0298
  888MOL0     C22424   3.767   6.716   2.692  0.6795  0.3395  0.8906
  888MOL0     C22425   3.674   6.778   2.605  0.3648  0.7483  0.3142
  888MOL0     C22426   3.682   6.777   2.458 -0.0216 -0.2653  0.0828
  888MOL0     C22427   3.651   6.907   2.384 -0.1199  0.0523  0.0963
  888MOL0     C22428   3.752   7.019   2.417 -0.0192  0.0119  0.4885
  888MOL0     C22429   3.904   7.005   2.390  1.0002  0.3874 -0.5225
  888MOL0     O22430   3.927   6.946   2.261  0.5846  0.2844  0.6127
  888MOL0     C22431   4.056   6.957   2.211 -0.1639 -0.4853 -0.0510
  888MOL0     C22432   4.172   6.974   2.293  0.6953  1.0748  0.1564
  888MOL0     C22433   4.303   6.999   2.240  0.8834 -0.6559 -0.1284
  888MOL0     C22434   4.417   6.986   2.333 -0.3883 -0.5004  0.0514
  888MOL0     C22435   4.308   7.012   2.089  0.0922 -0.1196  0.3573
  888MOL0     C22436   4.438   7.022   2.024 -0.3716  0.7478  0.9161
  888MOL0     O22437   4.544   7.066   2.098 -0.4744  0.0392  0.4002
  888MOL0     C22438   4.670   7.087   2.043  0.5250  0.7304 -0.1675
  888MOL0     C22439   4.780   7.044   2.121  0.0190  0.0699 -0.1640
  888MOL0     C22440   4.912   7.055   2.073 -0.8066  0.1812  0.3228
  888MOL0     C22441   4.930   7.108   1.944 -1.0322 -0.8501  0.0561
  888MOL0     O22442   5.057   7.117   1.890  0.3432 -0.8841 -0.4194
  888MOL0     C22443   5.087   7.068   1.762 -0.4605 -0.1115  0.6567
  888MOL0     C22444   5.205   6.970   1.771  0.4302 -0.2713 -0.3542
  888MOL0     C22445   5.227   6.931   1.628 -0.3857  0.6156  0.5710
  888MOL0     C22446   5.345   6.838   1.610 -0.5061 -0.1544  1.2306
  888MOL0     C22447   5.342   6.737   1.490  0.5186  0.6866 -0.9125
  888MOL0     C22448   5.461   6.648   1.514  0.5894  0.7019 -1.0038
  888MOL0     C22449   5.488   6.552   1.394 -0.1646 -0.5169 -0.2892
  888MOL0     C22450   5.389   6.448   1.388  0.4778 -0.2525  0.6538
  888MOL0    Cl22451   5.403   6.333   1.523  0.3773  0.0617  0.3778
  888MOL0     C22452   4.819   7.147   1.866  0.7571 -0.1118  0.2690
  888MOL0     C22453   4.684   7.139   1.918 -0.4554  0.6051  0.3565
  888MOL0     O22454   4.443   7.001   1.897 -0.5113 -0.1030 -0.6788
  888MOL0     C22455   4.185   7.000   2.016 -0.4872  0.4551  0.5034
  888MOL0     C22456   4.067   6.974   2.073 -0.4418  0.1833 -0.8894
  888MOL0     N22457   3.564   6.813   2.686 -0.2726 -0.6805  0.4329
  888MOL0     N22458   3.585   6.782   2.812 -0.0380 -0.5320  1.0050
  888MOL0     C22459   3.208   5.978   3.474  0.3114 -0.7702 -0.2256
  888MOL0     C22460   3.130   5.858   3.494 -0.2987  1.0488 -0.2096
  888MOL0     C22461   2.756   5.634   3.655 -0.0414  0.7400 -0.2587
  888MOL0     C22462   2.843   5.628   3.769 -0.0576  0.2844 -1.5347
  888MOL0     C22463   2.814   5.550   3.881  1.2751  0.4702  0.5263
  888MOL0     C22464   2.705   5.460   3.873  0.5084  0.6749 -0.6026
  888MOL0     O22465   2.695   5.384   3.988  0.2461  0.7449 -0.0209
  888MOL0     C22466   2.575   5.302   4.002 -0.0449 -0.6399 -0.2956
  888MOL0     C22467   2.546   5.235   4.142 -0.3024 -0.8275  0.8675
  888MOL0     C22468   2.558   5.331   4.264  0.1539  1.2725 -0.0810
  888MOL0     C22469   2.447   5.443   4.260 -0.2949  0.2736  0.8016
  888MOL0     C22470   2.312   5.377   4.262  0.5561  1.0868 -0.0488
  888MOL0     C22471   2.218   5.298   4.257 -0.4730  0.0218  0.9991
  888MOL0     C22472   2.614   5.463   3.762 -0.2457  0.0543  0.4445
  888MOL0     C22473   2.641   5.547   3.649  0.2713  0.0883 -1.0264
  888MOL0     C22474   2.554   5.537   3.531 -1.4740  0.9580 -0.2098
  888MOL0     H22475   2.825   6.000   3.550  1.3416  4.3548  1.2028
  888MOL0     H22476   2.961   6.194   3.511  2.5058  1.0125  1.8141
  888MOL0     H22477   3.351   6.181   3.360 -2.8201 -0.5923 -0.4459
  888MOL0     H22478   3.395   6.234   3.522  0.9585  2.0131 -0.3556
  888MOL0     H22479   3.273   6.437   3.333  0.2486  1.4889  0.2488
  888MOL0     H22480   3.292   6.443   3.510 -3.8707 -3.7864 -0.0930
  888MOL0     H22481   3.468   6.565   3.377  0.8919  0.1711  0.3194
  888MOL0     H22482   3.547   6.423   3.453 -0.0247  1.2045  0.4121
  888MOL0     H22483   3.535   6.306   3.248 -0.6440  0.1304  2.4646
  888MOL0     H22484   3.423   6.419   3.175  1.2455 -0.4097 -1.8735
  888MOL0     H22485   3.725   6.415   3.221 -0.0947 -1.7778  0.8499
  888MOL0     H22486   3.658   6.568   3.212  0.2895 -0.6369  1.6666
  888MOL0     H22487   3.569   6.394   2.986 -0.4523 -0.9164 -0.6232
  888MOL0     H22488   3.562   6.572   3.008  0.5610  1.5675  1.0322
  888MOL0     H22489   3.764   6.461   2.864 -2.3248  0.2525 -0.4361
  888MOL0     H22490   3.845   6.469   3.024 -1.3505 -0.6534  2.5705
  888MOL0     H22491   3.743   6.727   3.020  1.0763  0.3674  0.3970
  888MOL0     H22492   3.883   6.689   2.924  0.7262  1.2140 -1.8120
  888MOL0     H22493   3.866   6.690   2.654  0.4932  1.7323 -0.6531
  888MOL0     H22494   3.615   6.695   2.432  0.1840  0.0110 -1.4172
  888MOL0     H22495   3.779   6.757   2.413 -0.1934 -0.1724 -0.3308
  888MOL0     H22496   3.654   6.888   2.276  1.1133  0.7165  0.0003
  888MOL0     H22497   3.554   6.943   2.419  1.2236  2.0696  2.0210
  888MOL0     H22498   3.721   7.098   2.348 -0.3033 -0.6644 -0.1727
  888MOL0     H22499   3.731   7.049   2.520 -2.5005 -4.1415  1.4479
  888MOL0     H22500   3.956   7.100   2.405 -1.4330  1.5073  1.8448
  888MOL0     H22501   3.949   6.932   2.458  0.2098 -1.6362 -2.0559
  888MOL0     H22502   4.162   6.957   2.400  2.2257 -3.8761 -0.2213
  888MOL0     H22503   4.379   6.996   2.435  0.9021  0.7300  0.4520
  888MOL0     H22504   4.500   7.057   2.327  1.7253 -2.6734  1.5766
  888MOL0     H22505   4.461   6.887   2.320  0.6692  0.1100 -1.2909
  888MOL0     H22506   4.769   7.007   2.222  1.8298  2.0014  0.8199
  888MOL0     H22507   5.002   7.025   2.126 -0.1536  4.1399  1.7550
  888MOL0     H22508   5.001   7.028   1.707 -1.3965  1.8264  0.6210
  888MOL0     H22509   5.113   7.152   1.696 -2.3840 -0.5709 -0.7705
  888MOL0     H22510   5.291   7.023   1.812 -0.0927  1.8587 -1.8108
  888MOL0     H22511   5.175   6.882   1.829  1.1736 -1.4074 -1.6284
  888MOL0     H22512   5.230   7.017   1.561 -1.8612 -0.6191 -1.1700
  888MOL0     H22513   5.140   6.875   1.593 -0.1718  0.7037 -0.0996
  888MOL0     H22514   5.348   6.775   1.700  3.5798 -0.5571  1.0127
  888MOL0     H22515   5.438   6.894   1.621 -0.7460  0.2834  1.0535
  888MOL0     H22516   5.244   6.689   1.496 -0.0508  1.9521  0.8249
  888MOL0     H22517   5.341   6.789   1.394 -1.0701 -3.7720 -3.6005
  888MOL0     H22518   5.456   6.592   1.608 -3.1906  2.1564 -0.1475
  888MOL0     H22519   5.555   6.705   1.517  0.4060  0.9988  1.4323
  888MOL0     H22520   5.579   6.494   1.413  1.7588  2.7686  1.3692
  888MOL0     H22521   5.487   6.609   1.301  3.8080  1.2242  0.5138
  888MOL0     H22522   5.396   6.400   1.290 -1.9122  1.5408 -0.5043
  888MOL0     H22523   5.285   6.484   1.385  0.0104 -1.5953 -1.6127
  888MOL0     H22524   4.828   7.192   1.767 -2.7769  1.6175  0.5611
  888MOL0     H22525   4.595   7.180   1.870 -0.5602 -2.7284 -2.7566
  888MOL0     H22526   4.204   7.021   1.911  1.7923 -1.8573  0.3679
  888MOL0     H22527   3.978   6.973   2.010 -1.5595 -0.0017  0.6514
  888MOL0     H22528   3.311   5.963   3.444 -0.3586 -3.3450 -1.5231
  888MOL0     H22529   3.185   5.765   3.492  1.4433  2.0392 -1.5629
  888MOL0     H22530   2.915   5.707   3.786 -1.0025  1.1398 -1.4112
  888MOL0     H22531   2.877   5.559   3.969 -0.2388 -0.9423  1.8415
  888MOL0     H22532   2.492   5.367   3.975  1.0153  0.8035 -0.1503
  888MOL0     H22533   2.575   5.224   3.925  0.9412 -1.3744  0.4124
  888MOL0     H22534   2.622   5.159   4.157 -0.2565 -0.5890  1.9569
  888MOL0     H22535   2.445   5.194   4.141 -0.8033  0.3296 -0.5988
  888MOL0     H22536   2.539   5.269   4.352  0.7884 -0.4412 -1.1150
  888MOL0     H22537   2.654   5.383   4.269  0.2260  1.2777 -1.2110
  888MOL0     H22538   2.469   5.512   4.179  1.3581 -0.2762  0.7547
  888MOL0     H22539   2.448   5.505   4.350  1.5431  0.8116  0.4544
  888MOL0     H22540   2.145   5.220   4.252  1.6545 -2.0667  0.6346
  888MOL0     H22541   2.517   5.415   3.764 -0.6053  0.7745  1.2151
  888MOL0     H22542   2.603   5.550   3.434 -3.5334  3.3649 -1.0649
  888MOL0     H22543   2.511   5.439   3.509  1.9999 -0.4097 -1.6312
  888MOL0     H22544   2.476   5.613   3.542 -1.3013  1.0466  0.3904
  889MOL0     O22545   9.104   2.498   7.606 -0.3737  0.0713  0.2796
  889MOL0     C22546   9.011   2.551   7.663 -0.4527 -0.6378 -0.7299
  889MOL0     O22547   8.883   2.501   7.655 -0.2943  0.1251  0.0151
  889MOL0     C22548   8.881   2.361   7.653  0.0424  1.7540  0.5145
  889MOL0     C22549   8.858   2.283   7.769  0.3704 -0.0697 -0.1732
  889MOL0     C22550   8.854   2.148   7.744 -0.0270  0.8564 -0.7693
  889MOL0     C22551   8.863   2.084   7.624 -0.7338  0.0921 -0.7524
  889MOL0     O22552   8.840   1.946   7.603 -0.2459 -0.0789 -0.2101
  889MOL0     C22553   8.795   1.868   7.717  0.3757  0.0364 -0.7003
  889MOL0     C22554   8.772   1.726   7.689  0.8836  0.0589  0.0427
  889MOL0     C22555   8.636   1.685   7.615  0.7195 -0.0999 -0.2550
  889MOL0     C22556   8.524   1.648   7.721 -0.9786  0.2627 -0.6880
  889MOL0     C22557   8.454   1.764   7.794 -0.7273  0.4822 -0.5742
  889MOL0     C22558   8.330   1.704   7.865  0.2525 -0.1380  0.4589
  889MOL0     C22559   8.359   1.580   7.961 -0.3544 -0.5908 -0.1632
  889MOL0     C22560   8.247   1.552   8.063  0.0349 -0.6719 -0.0579
  889MOL0     N22561   8.223   1.661   8.154  0.3977 -0.0961 -0.7578
  889MOL0     C22562   8.114   1.674   8.244 -0.3913  0.7544  0.2082
  889MOL0     C22563   8.159   1.736   8.345 -1.1111 -1.5355 -0.1214
  889MOL0     C22564   8.084   1.766   8.471  0.1935 -0.3381 -0.1187
  889MOL0     C22565   7.926   1.753   8.456 -0.1106 -0.6532  0.3381
  889MOL0     C22566   7.850   1.780   8.588  0.6035 -0.4108 -0.1574
  889MOL0     C22567   7.885   1.911   8.666 -0.8550 -0.4364  0.4792
  889MOL0     O22568   7.821   1.921   8.794  0.2031  0.3876 -0.0050
  889MOL0     C22569   7.678   1.935   8.800 -0.2481  1.1302 -0.1722
  889MOL0     C22570   7.601   1.970   8.690  0.3548 -0.9729  0.1468
  889MOL0     C22571   7.458   1.951   8.691 -0.3738 -0.3979 -0.8894
  889MOL0     C22572   7.380   2.001   8.579  0.5493 -0.3556  0.7943
  889MOL0     C22573   7.390   1.904   8.812 -0.0970 -0.2047 -0.6045
  889MOL0     C22574   7.246   1.889   8.815 -0.2572 -0.1210 -0.7334
  889MOL0     O22575   7.182   2.003   8.810 -0.1816 -0.3811 -0.6419
  889MOL0     C22576   7.055   2.009   8.864  0.2384  0.6072  0.0389
  889MOL0     C22577   7.011   1.942   8.983  0.8066  0.0021  0.4603
  889MOL0     C22578   6.890   1.965   9.038  1.1014 -1.6725 -0.3804
  889MOL0     C22579   6.796   2.057   8.969 -0.5267  0.0220  0.3742
  889MOL0     O22580   6.671   2.081   9.011  0.2742  0.2962  0.5285
  889MOL0     C22581   6.628   1.995   9.115  0.2579  0.0923  0.1620
  889MOL0     C22582   6.476   1.984   9.107  0.6102 -0.3066 -0.6317
  889MOL0     C22583   6.421   1.974   8.967  0.0282 -0.1920  0.0637
  889MOL0     C22584   6.279   1.926   8.971  0.5289  0.3622 -0.5131
  889MOL0     C22585   6.206   1.918   8.838  0.6356 -0.0260 -0.6387
  889MOL0     C22586   6.201   2.049   8.763  0.9545  0.3217  0.6897
  889MOL0     C22587   6.186   2.024   8.606  0.9414 -0.4622 -0.3737
  889MOL0     C22588   6.070   1.940   8.560 -0.5515 -0.0639  0.5738
  889MOL0    Cl22589   5.920   2.042   8.532  0.3009 -0.0292 -0.3136
  889MOL0     C22590   6.838   2.114   8.849  0.3128 -1.6623 -0.5048
  889MOL0     C22591   6.964   2.091   8.801  0.7530  0.1116  0.5122
  889MOL0     O22592   7.201   1.776   8.834  0.1067  0.7938  0.6334
  889MOL0     C22593   7.467   1.884   8.926  0.2867  0.3137 -0.4169
  889MOL0     C22594   7.604   1.888   8.914 -0.2686  1.1307 -0.2649
  889MOL0     N22595   8.293   1.777   8.322 -0.0485 -0.2287  0.2844
  889MOL0     N22596   8.322   1.733   8.205 -0.8986  0.2966 -0.2060
  889MOL0     C22597   8.887   2.157   7.516  0.1612 -0.8017 -0.2043
  889MOL0     C22598   8.897   2.297   7.521  0.0306 -0.5249 -0.3827
  889MOL0     C22599   9.038   2.681   7.736 -0.0484  0.3615 -0.3152
  889MOL0     C22600   8.926   2.730   7.794 -0.3275 -0.2443  0.1487
  889MOL0     C22601   8.933   2.845   7.868  0.2796  0.1572  0.5805
  889MOL0     C22602   9.056   2.905   7.878 -0.1602  0.5838  0.1607
  889MOL0     O22603   9.058   3.030   7.942  0.0131 -0.3575  0.1166
  889MOL0     C22604   9.058   3.127   7.839 -0.0200  0.1038 -0.9938
  889MOL0     C22605   9.042   3.269   7.904  0.4400 -0.1135 -0.3381
  889MOL0     C22606   9.007   3.372   7.803  0.1757  0.4390 -0.1316
  889MOL0     C22607   9.118   3.396   7.694  0.0632 -0.7435  0.5300
  889MOL0     C22608   9.249   3.432   7.755 -0.3599 -0.7025 -0.1021
  889MOL0     C22609   9.353   3.462   7.806  0.0226 -0.0510 -0.1140
  889MOL0     C22610   9.168   2.859   7.813  0.5662  0.0728 -0.3335
  889MOL0     C22611   9.160   2.747   7.745 -0.9469  0.3502  0.5154
  889MOL0     C22612   9.292   2.698   7.680  0.1100 -0.8120  0.1055
  889MOL0     H22613   8.843   2.328   7.867  3.7822  0.3529  0.2611
  889MOL0     H22614   8.831   2.087   7.831  2.1203 -1.0991 -1.4765
  889MOL0     H22615   8.715   1.922   7.768 -0.2629  1.4730 -3.0320
  889MOL0     H22616   8.886   1.879   7.776 -0.1888  0.1002  0.1753
  889MOL0     H22617   8.850   1.677   7.629  1.2559 -1.3924  1.6397
  889MOL0     H22618   8.774   1.671   7.784  0.6397 -1.3984 -0.7663
  889MOL0     H22619   8.586   1.764   7.558 -1.7440 -0.3640  1.3700
  889MOL0     H22620   8.650   1.599   7.549 -2.3306 -0.7691 -0.1605
  889MOL0     H22621   8.446   1.592   7.669 -0.5887  0.2529 -1.2705
  889MOL0     H22622   8.571   1.584   7.795 -0.9842 -2.6708 -3.0391
  889MOL0     H22623   8.432   1.825   7.706  1.6574 -0.4986 -1.9634
  889MOL0     H22624   8.514   1.813   7.871 -0.2880 -0.1053 -0.5276
  889MOL0     H22625   8.273   1.781   7.917  1.1454  0.1967  0.9555
  889MOL0     H22626   8.267   1.669   7.782 -1.3250 -2.0535  2.3598
  889MOL0     H22627   8.450   1.600   8.020  0.8054 -0.7306 -1.8454
  889MOL0     H22628   8.374   1.493   7.897 -0.4908  1.2372 -2.8690
  889MOL0     H22629   8.163   1.518   8.002 -0.8395 -0.2509  0.9010
  889MOL0     H22630   8.279   1.468   8.126 -1.4017 -0.8518  0.4595
  889MOL0     H22631   8.017   1.625   8.240 -0.8605  1.6377  0.4417
  889MOL0     H22632   8.117   1.866   8.500  0.9837 -0.9083  1.0118
  889MOL0     H22633   8.117   1.698   8.550  2.1792  0.3105 -0.3326
  889MOL0     H22634   7.893   1.826   8.381 -2.6008 -2.8632 -0.9201
  889MOL0     H22635   7.891   1.656   8.419  0.9000 -0.7409 -0.4357
  889MOL0     H22636   7.744   1.788   8.561  1.2182  1.9951 -2.2186
  889MOL0     H22637   7.863   1.695   8.656  0.5843  0.5308  1.0456
  889MOL0     H22638   7.994   1.910   8.677 -0.7363  1.3270 -0.2961
  889MOL0     H22639   7.854   1.991   8.598 -0.4512 -0.6872 -0.0135
  889MOL0     H22640   7.637   2.022   8.602 -1.2424 -1.6416 -0.9378
  889MOL0     H22641   7.374   2.110   8.587 -2.6182 -0.4716  1.0062
  889MOL0     H22642   7.282   1.953   8.575  1.1111 -1.4997  0.1816
  889MOL0     H22643   7.434   1.976   8.487  1.8250 -1.7445  1.8650
  889MOL0     H22644   7.079   1.878   9.038  0.0094  0.2706  1.8081
  889MOL0     H22645   6.865   1.933   9.139  0.5155 -0.5469 -0.1492
  889MOL0     H22646   6.660   1.891   9.107 -2.7513 -0.8204 -1.5024
  889MOL0     H22647   6.665   2.036   9.209 -0.5732  1.7558 -0.1900
  889MOL0     H22648   6.438   1.903   9.169  0.4953  0.9645  1.0219
  889MOL0     H22649   6.430   2.076   9.145 -2.0737 -1.3634 -1.1227
  889MOL0     H22650   6.478   1.910   8.900 -0.4013 -3.5949  2.6972
  889MOL0     H22651   6.434   2.076   8.928 -0.0060  0.0995  0.7972
  889MOL0     H22652   6.226   1.981   9.050  0.0686 -1.9893  0.9102
  889MOL0     H22653   6.275   1.827   9.017  0.1865  2.0820  3.7110
  889MOL0     H22654   6.266   1.843   8.786  0.1567  0.9680 -2.7520
  889MOL0     H22655   6.102   1.884   8.845  0.4676  0.2393 -1.6624
  889MOL0     H22656   6.286   2.110   8.795  0.1662  0.4450  2.6787
  889MOL0     H22657   6.107   2.096   8.794 -0.0401 -0.8389 -0.4306
  889MOL0     H22658   6.283   1.983   8.577  0.4009 -3.0204  1.1627
  889MOL0     H22659   6.185   2.123   8.561  1.5168  0.2880  1.1912
  889MOL0     H22660   6.054   1.861   8.635  0.5729 -1.0522 -0.1931
  889MOL0     H22661   6.100   1.902   8.462 -1.6943  1.2615 -0.3163
  889MOL0     H22662   6.756   2.162   8.796  0.7279 -1.2990 -0.8180
  889MOL0     H22663   6.982   2.145   8.709  2.3515 -1.0137  0.1276
  889MOL0     H22664   7.424   1.836   9.013  1.4545 -0.6990 -0.3757
  889MOL0     H22665   7.650   1.866   9.010 -0.9394  2.1547  0.3175
  889MOL0     H22666   8.909   2.103   7.425 -0.5330 -0.9309 -0.2977
  889MOL0     H22667   8.912   2.367   7.440  2.3080 -1.6421 -1.0126
  889MOL0     H22668   8.836   2.670   7.788  1.5124 -3.0927 -1.2622
  889MOL0     H22669   8.838   2.878   7.910  0.5136  1.8066 -0.1243
  889MOL0     H22670   9.151   3.127   7.781  0.3246 -1.1505 -0.4722
  889MOL0     H22671   8.973   3.106   7.774 -0.4427 -1.2352 -0.0447
  889MOL0     H22672   9.125   3.291   7.972 -0.5764  0.3191  0.7957
  889MOL0     H22673   8.961   3.277   7.977  1.8988 -0.9593  1.4458
  889MOL0     H22674   8.918   3.340   7.749  1.7462 -2.2748 -1.3383
  889MOL0     H22675   8.986   3.464   7.858  1.2347  0.8089 -0.3217
  889MOL0     H22676   9.091   3.475   7.623 -0.5475  0.6820  2.2771
  889MOL0     H22677   9.143   3.303   7.641  2.2524  0.0426  0.0638
  889MOL0     H22678   9.444   3.479   7.860  0.4581 -2.7411  0.1535
  889MOL0     H22679   9.251   2.930   7.813 -2.7900  4.4345  0.2357
  889MOL0     H22680   9.300   2.588   7.683 -1.3948 -0.9321  0.5634
  889MOL0     H22681   9.263   2.721   7.577 -3.6281  1.4581  1.4593
  889MOL0     H22682   9.374   2.758   7.718 -1.0857  2.5225 -2.1281
  890MOL0     O22683   5.077   0.071  10.824  0.2657  0.0700 -0.2455
  890MOL0     C22684   5.175   0.010  10.868  0.0424 -0.2162  0.6152
  890MOL0     O22685   5.173  -0.089  10.969 -0.3839  0.1994  0.0531
  890MOL0     C22686   5.064  -0.079  11.050 -0.2465 -0.1144  0.2371
  890MOL0     C22687   4.962  -0.170  11.041  0.1679  0.3655  0.5845
  890MOL0     C22688   4.856  -0.155  11.130  0.3675  0.0288 -0.2392
  890MOL0     C22689   4.857  -0.047  11.223  0.1429 -0.0556 -0.2809
  890MOL0     O22690   4.758  -0.048  11.317  0.7560 -0.5387 -0.6213
  890MOL0     C22691   4.773   0.032  11.442  0.2173 -0.2390  0.7358
  890MOL0     C22692   4.662   0.003  11.545 -0.3230  0.1636  0.6151
  890MOL0     C22693   4.517   0.004  11.491 -0.1526  1.0469 -0.7307
  890MOL0     C22694   4.417  -0.044  11.598 -0.8879 -0.5618 -0.0001
  890MOL0     C22695   4.276   0.004  11.550 -0.1443 -0.2566 -0.1836
  890MOL0     C22696   4.177  -0.030  11.655 -0.1791  0.5503  0.2090
  890MOL0     C22697   4.024  -0.013  11.608 -0.1510  0.4031 -0.0479
  890MOL0     C22698   3.924  -0.030  11.725 -0.6002 -0.4695  0.7942
  890MOL0     N22699   3.787  -0.027  11.673 -0.3559 -0.0968  0.0099
  890MOL0     C22700   3.739  -0.137  11.607 -0.4304  0.3837 -0.1005
  890MOL0     C22701   3.612  -0.111  11.571  0.9088 -0.2300 -0.8887
  890MOL0     C22702   3.522  -0.180  11.474 -0.0225  0.5912 -0.1229
  890MOL0     C22703   3.547  -0.131  11.327  0.3267  0.4517  0.4329
  890MOL0     C22704   3.460  -0.202  11.221  0.0607 -0.4346  0.3297
  890MOL0     C22705   3.517  -0.340  11.189 -0.7402 -0.5187  0.2766
  890MOL0     O22706   3.657  -0.330  11.135  0.0351 -0.5076 -0.6942
  890MOL0     C22707   3.761  -0.352  11.221  0.1791  0.3009  0.3065
  890MOL0     C22708   3.770  -0.460  11.314  0.8997  0.0184  0.2364
  890MOL0     C22709   3.876  -0.467  11.400  0.8317 -0.0706 -0.5200
  890MOL0     C22710   3.856  -0.570  11.519 -0.2637  0.3794  0.5129
  890MOL0     C22711   3.992  -0.393  11.381  0.3917 -0.0582  0.8394
  890MOL0     C22712   4.119  -0.428  11.448 -0.1438  0.2264  0.2403
  890MOL0     O22713   4.151  -0.565  11.455  0.3985 -0.3857  0.0022
  890MOL0     C22714   4.256  -0.613  11.524 -0.1632  0.4087  0.0817
  890MOL0     C22715   4.371  -0.544  11.568 -0.3469  0.1917  0.3783
  890MOL0     C22716   4.457  -0.599  11.666  0.5037 -0.2543  0.9518
  890MOL0     C22717   4.447  -0.731  11.709  0.6805  0.9026 -0.4487
  890MOL0     O22718   4.525  -0.795  11.801 -0.0738 -0.1813 -0.8718
  890MOL0     C22719   4.615  -0.729  11.888 -0.1831  0.2714  0.2059
  890MOL0     C22720   4.559  -0.735  12.036  0.7954 -0.9210  0.3955
  890MOL0     C22721   4.449  -0.631  12.061 -0.3246 -0.3027 -0.1001
  890MOL0     C22722   4.398  -0.668  12.204  0.1988 -0.3275 -0.1173
  890MOL0     C22723   4.298  -0.564  12.239  0.4812  0.4219 -0.5711
  890MOL0     C22724   4.279  -0.580  12.397 -0.0866 -0.1764  0.0523
  890MOL0     C22725   4.182  -0.458  12.424  0.6623 -0.4733 -0.3405
  890MOL0     C22726   4.142  -0.455  12.571 -0.4437 -0.3114 -0.8157
  890MOL0    Cl22727   4.299  -0.442  12.657 -0.5480 -0.1869  0.8269
  890MOL0     C22728   4.334  -0.802  11.658 -0.5983  0.3820 -0.0443
  890MOL0     C22729   4.247  -0.743  11.563 -0.1602 -0.0971 -0.0501
  890MOL0     O22730   4.183  -0.335  11.499  0.0752  0.1717  0.4131
  890MOL0     C22731   3.989  -0.294  11.276  0.0216  0.3553  0.6095
  890MOL0     C22732   3.871  -0.279  11.199  0.2318 -0.0688 -0.6738
  890MOL0     N22733   3.588   0.020  11.628 -0.4739 -0.4681  0.5245
  890MOL0     N22734   3.689   0.066  11.697 -0.5727 -0.5576  0.2650
  890MOL0     C22735   4.963   0.041  11.237  0.9125 -0.6195  0.5907
  890MOL0     C22736   5.059   0.033  11.144 -0.1840 -0.1590  0.5853
  890MOL0     C22737   5.298   0.026  10.788  0.8967 -0.5325 -0.4914
  890MOL0     C22738   5.411   0.055  10.861  0.2683 -0.6979  0.4300
  890MOL0     C22739   5.525   0.090  10.789 -0.8340  0.1613  0.2821
  890MOL0     C22740   5.530   0.087  10.649 -0.3248 -0.5429  0.7247
  890MOL0     O22741   5.650   0.126  10.592  0.4154 -0.5804  0.1412
  890MOL0     C22742   5.667   0.110  10.451  0.0893  1.1934  0.6735
  890MOL0     C22743   5.811   0.132  10.416  0.5705 -0.6434 -0.2566
  890MOL0     C22744   5.860   0.282  10.433  0.4610 -0.1697 -0.2990
  890MOL0     C22745   6.000   0.286  10.373 -0.0435 -0.4123  0.2071
  890MOL0     C22746   6.055   0.418  10.399 -0.1171  0.2425 -0.1348
  890MOL0     C22747   6.105   0.522  10.432 -0.4014 -0.2993  0.0433
  890MOL0     C22748   5.417   0.043  10.582  0.5537  0.0499  0.0131
  890MOL0     C22749   5.299   0.022  10.647 -0.6908  0.7381 -0.5545
  890MOL0     C22750   5.181  -0.009  10.568 -0.5437  0.7186  0.7780
  890MOL0     H22751   4.956  -0.250  10.968 -2.2277 -1.8177  2.9463
  890MOL0     H22752   4.780  -0.233  11.128  0.8960 -0.4895 -0.7471
  890MOL0     H22753   4.778   0.137  11.413 -0.2731 -0.5431 -0.5307
  890MOL0     H22754   4.872   0.011  11.484  0.2726  1.0037  1.2577
  890MOL0     H22755   4.690  -0.095  11.586  1.3329  1.2351  2.1787
  890MOL0     H22756   4.679   0.066  11.633 -0.6320  1.9281 -0.5355
  890MOL0     H22757   4.492   0.105  11.455 -1.3442  1.0639  0.0873
  890MOL0     H22758   4.517  -0.060  11.402  1.3497 -1.2782  0.8339
  890MOL0     H22759   4.417  -0.148  11.630 -2.0723 -0.2137  1.2276
  890MOL0     H22760   4.442   0.015  11.687  0.1491 -0.7957 -0.1163
  890MOL0     H22761   4.252  -0.059  11.464  0.6827  0.2131 -0.7744
  890MOL0     H22762   4.278   0.108  11.518 -2.6345 -0.1540 -0.1755
  890MOL0     H22763   4.189  -0.133  11.691  1.9901  1.1937  1.4829
  890MOL0     H22764   4.202   0.041  11.735  3.7035  1.2000 -1.3658
  890MOL0     H22765   3.997  -0.084  11.529 -0.6025 -1.9951  2.1719
  890MOL0     H22766   4.016   0.083  11.555  0.4381 -0.1236 -1.1211
  890MOL0     H22767   3.932  -0.124  11.781  0.6795  0.9773  3.2123
  890MOL0     H22768   3.931   0.049  11.801  0.5785  0.1893  0.0202
  890MOL0     H22769   3.789  -0.219  11.557 -1.7135 -0.8214  0.5291
  890MOL0     H22770   3.418  -0.168  11.505  0.0713  1.6748 -0.1801
  890MOL0     H22771   3.551  -0.284  11.457  0.8865  1.3605 -4.7097
  890MOL0     H22772   3.513  -0.027  11.328 -0.2991  0.2692  2.6967
  890MOL0     H22773   3.649  -0.132  11.289 -0.7296  0.4505 -2.7536
  890MOL0     H22774   3.359  -0.216  11.258 -0.6849  1.8381 -0.6639
  890MOL0     H22775   3.450  -0.136  11.134 -0.7043 -0.8808  0.0714
  890MOL0     H22776   3.490  -0.411  11.268 -2.2176 -0.2360  0.0472
  890MOL0     H22777   3.465  -0.394  11.110  1.4568 -0.8854 -1.0055
  890MOL0     H22778   3.679  -0.514  11.341  0.7595  0.3904  0.5150
  890MOL0     H22779   3.948  -0.576  11.579 -1.4271 -0.0643  2.3526
  890MOL0     H22780   3.837  -0.673  11.486  1.5358 -0.0879  0.8299
  890MOL0     H22781   3.768  -0.543  11.578  0.7800  0.1655  2.2474
  890MOL0     H22782   4.393  -0.440  11.547 -1.2071  0.4181  0.5608
  890MOL0     H22783   4.535  -0.528  11.693  0.6924 -1.3406  3.5475
  890MOL0     H22784   4.706  -0.789  11.883 -0.0663  0.4140  0.5914
  890MOL0     H22785   4.629  -0.631  11.842  2.2764 -0.6255 -1.1212
  890MOL0     H22786   4.525  -0.837  12.058  1.1619 -1.2523 -0.5254
  890MOL0     H22787   4.645  -0.717  12.101  1.6815  0.8673 -1.1503
  890MOL0     H22788   4.358  -0.650  12.003 -0.0474  0.4656 -0.7992
  890MOL0     H22789   4.481  -0.528  12.043 -2.1073  0.1366 -0.9580
  890MOL0     H22790   4.483  -0.662  12.272 -1.4218  0.1929  1.9608
  890MOL0     H22791   4.350  -0.766  12.202 -0.9664  0.2393 -1.0565
  890MOL0     H22792   4.334  -0.462  12.221 -3.6118  2.3897  1.0928
  890MOL0     H22793   4.208  -0.575  12.179 -1.1150  1.3874  1.5184
  890MOL0     H22794   4.378  -0.578  12.444  0.6241 -2.1438 -1.2570
  890MOL0     H22795   4.223  -0.669  12.426 -0.2426 -0.1277 -0.0967
  890MOL0     H22796   4.085  -0.467  12.374 -0.4621  0.7335  1.5241
  890MOL0     H22797   4.229  -0.365  12.390 -2.2134  0.7296 -1.4060
  890MOL0     H22798   4.092  -0.548  12.601 -0.4092  0.1991  0.9272
  890MOL0     H22799   4.075  -0.376  12.604 -1.6207 -2.3541  2.1316
  890MOL0     H22800   4.318  -0.908  11.676  1.4202 -0.6116 -3.2921
  890MOL0     H22801   4.165  -0.795  11.515  0.4801 -0.0364 -1.2336
  890MOL0     H22802   4.069  -0.223  11.257  0.0128  0.0312 -0.7660
  890MOL0     H22803   3.862  -0.198  11.128 -0.4634 -0.2076 -0.7541
  890MOL0     H22804   4.974   0.117  11.314 -1.5983  3.4205 -2.6030
  890MOL0     H22805   5.135   0.110  11.131 -1.8153  1.3577 -0.3668
  890MOL0     H22806   5.399   0.054  10.969 -3.3787 -0.6050  0.1448
  890MOL0     H22807   5.607   0.132  10.846 -0.8581  1.5001 -0.6166
  890MOL0     H22808   5.639   0.006  10.433 -1.1065  1.6134 -0.0731
  890MOL0     H22809   5.605   0.182  10.396  1.5933  3.7922  2.1596
  890MOL0     H22810   5.833   0.104  10.312 -0.1743  2.8214 -1.4604
  890MOL0     H22811   5.873   0.070  10.481 -0.0507 -0.2598  0.7299
  890MOL0     H22812   5.798   0.349  10.373 -0.5174 -2.9029 -2.5555
  890MOL0     H22813   5.876   0.312  10.537  0.4209 -0.8842 -0.0867
  890MOL0     H22814   5.997   0.271  10.265  0.8985 -0.5602  0.1877
  890MOL0     H22815   6.060   0.205  10.416  1.2680  1.7113  2.7394
  890MOL0     H22816   6.135   0.623  10.450 -1.3659 -0.3712  2.3081
  890MOL0     H22817   5.409   0.039  10.474 -1.1710 -0.0383  0.1237
  890MOL0     H22818   5.106  -0.069  10.620  1.9267 -1.1809  2.3779
  890MOL0     H22819   5.144   0.085  10.527 -0.6368  0.6423  0.6912
  890MOL0     H22820   5.208  -0.069  10.481  1.9679  0.9255  1.3388
  891MOL0     O22821  10.805   2.349   3.520 -0.2029  0.7474  0.2261
  891MOL0     C22822  10.731   2.251   3.519 -0.0133 -0.2285 -0.5443
  891MOL0     O22823  10.767   2.114   3.552  0.0828  0.4040 -0.0466
  891MOL0     C22824  10.899   2.103   3.602  1.0747 -0.8107 -0.7689
  891MOL0     C22825  10.925   2.154   3.733  0.6422  0.0743  0.1102
  891MOL0     C22826  11.052   2.155   3.783  0.1244 -0.3872 -1.1827
  891MOL0     C22827  11.162   2.097   3.718  0.0171  0.1234  0.2181
  891MOL0     O22828  11.291   2.083   3.766  0.0172  0.5078 -0.2224
  891MOL0     C22829  11.324   2.136   3.905 -0.0781  0.6731  0.1872
  891MOL0     C22830  11.470   2.096   3.917 -0.3727 -0.7342 -0.5945
  891MOL0     C22831  11.532   2.097   4.053  0.6828  0.2161  0.5658
  891MOL0     C22832  11.536   2.240   4.111  0.1853  0.3993  0.1139
  891MOL0     C22833  11.620   2.245   4.244  0.6377  0.5509  0.1673
  891MOL0     C22834  11.769   2.225   4.221  1.0391  0.5835  1.1886
  891MOL0     C22835  11.848   2.255   4.348  0.2397 -0.6408  0.1549
  891MOL0     C22836  12.001   2.237   4.362  0.3222  0.3738 -0.3087
  891MOL0     N22837  12.042   2.104   4.420  0.2566 -0.5336 -0.2946
  891MOL0     C22838  12.093   1.999   4.338  0.4549  0.2303 -0.4474
  891MOL0     C22839  12.159   1.925   4.429  0.0014  0.5810  0.0308
  891MOL0     C22840  12.238   1.792   4.389 -0.5679 -0.6177 -0.0627
  891MOL0     C22841  12.373   1.841   4.322 -0.2736  0.7704 -0.2561
  891MOL0     C22842  12.479   1.728   4.341 -0.2996  0.5986  0.4069
  891MOL0     C22843  12.596   1.775   4.262 -0.0540 -0.3561 -0.1997
  891MOL0     O22844  12.650   1.904   4.308 -0.3983 -0.4876 -0.1149
  891MOL0     C22845  12.774   1.950   4.258  0.3305 -0.9429  0.4382
  891MOL0     C22846  12.843   2.042   4.336 -0.0375  0.9788 -0.1428
  891MOL0     C22847  12.963   2.103   4.291  0.1857 -0.3055 -0.0332
  891MOL0     C22848  13.030   2.209   4.378 -0.1567  0.4932  0.1754
  891MOL0     C22849  13.016   2.079   4.161 -1.0375  0.7551  0.3204
  891MOL0     C22850  13.151   2.111   4.118 -0.2139  0.1997  0.4525
  891MOL0     O22851  13.239   2.089   4.211 -0.3740 -0.2191  0.0724
  891MOL0     C22852  13.370   2.120   4.194  0.1800  0.1749 -0.0272
  891MOL0     C22853  13.459   2.034   4.263  1.2170 -0.2958  0.8001
  891MOL0     C22854  13.591   2.055   4.264 -0.0926 -0.1987 -0.0175
  891MOL0     C22855  13.644   2.170   4.203  0.4928  0.1175  0.4400
  891MOL0     O22856  13.776   2.201   4.211  0.2783  0.2107  1.0457
  891MOL0     C22857  13.873   2.110   4.261  0.4706  0.0517 -0.2696
  891MOL0     C22858  13.882   2.108   4.420 -0.5948  0.4924 -0.6301
  891MOL0     C22859  13.980   2.006   4.482 -0.3097  0.8350  0.3553
  891MOL0     C22860  13.970   1.989   4.633 -0.2507  0.7448 -0.2085
  891MOL0     C22861  14.042   1.866   4.702 -0.5146 -0.3064  0.0212
  891MOL0     C22862  14.014   1.848   4.857 -0.0928 -0.9606  0.1836
  891MOL0     C22863  14.140   1.877   4.941 -1.3549 -0.1627 -0.3023
  891MOL0     C22864  14.184   2.025   4.916  0.3193 -0.4348  0.2002
  891MOL0    Cl22865  14.339   2.064   5.002 -0.0284 -0.3621  0.0510
  891MOL0     C22866  13.558   2.253   4.125 -0.2933  0.7998  0.2119
  891MOL0     C22867  13.425   2.225   4.116 -0.1849  0.1211  0.5277
  891MOL0     O22868  13.179   2.131   3.996  0.2603  0.0324 -0.3021
  891MOL0     C22869  12.935   1.992   4.082  0.4912  0.2233 -0.4685
  891MOL0     C22870  12.822   1.927   4.127 -0.1726 -0.0444  0.0681
  891MOL0     N22871  12.137   1.974   4.558  0.6323 -0.4598  0.0446
  891MOL0     N22872  12.069   2.079   4.550  0.0382 -0.8881 -0.6597
  891MOL0     C22873  11.129   2.037   3.592 -0.1322 -0.3072 -0.8618
  891MOL0     C22874  11.003   2.047   3.537 -0.1715  0.2274  0.4874
  891MOL0     C22875  10.599   2.284   3.466  0.4313  0.3594  0.0830
  891MOL0     C22876  10.521   2.175   3.426  0.4091  0.0433  0.0428
  891MOL0     C22877  10.402   2.192   3.376  0.9712 -0.2366 -0.3637
  891MOL0     C22878  10.332   2.309   3.383 -0.4123  0.0140  1.7012
  891MOL0     O22879  10.194   2.293   3.348  0.5644  0.0385  0.1295
  891MOL0     C22880  10.120   2.408   3.335  1.8556 -0.3148 -0.3557
  891MOL0     C22881  10.133   2.470   3.199  0.3300 -0.2692  0.3478
  891MOL0     C22882  10.059   2.602   3.159  0.9475  0.0388  0.2195
  891MOL0     C22883   9.906   2.597   3.163 -0.2572  0.4970 -0.0128
  891MOL0     C22884   9.849   2.724   3.129 -0.0073  0.0922 -0.1335
  891MOL0     C22885   9.830   2.846   3.109 -0.2020  0.7532  0.0895
  891MOL0     C22886  10.398   2.418   3.438 -1.0382  0.4265  0.2111
  891MOL0     C22887  10.536   2.411   3.477  0.9678 -0.6212 -0.5157
  891MOL0     C22888  10.601   2.529   3.536  0.2908 -0.6638  0.0572
  891MOL0     H22889  10.845   2.172   3.804  0.6493 -3.5447  1.1910
  891MOL0     H22890  11.068   2.201   3.880 -0.2752 -0.6475 -0.9920
  891MOL0     H22891  11.262   2.081   3.977 -2.9444 -1.2129 -3.3445
  891MOL0     H22892  11.307   2.244   3.907  0.8546  0.9204 -2.1463
  891MOL0     H22893  11.477   1.991   3.884 -2.2614 -1.1195  0.1344
  891MOL0     H22894  11.538   2.153   3.853  0.2574 -1.4717 -0.6053
  891MOL0     H22895  11.477   2.029   4.120  0.8280 -2.5243 -1.8496
  891MOL0     H22896  11.633   2.055   4.050 -0.0314 -1.6886  1.5043
  891MOL0     H22897  11.574   2.311   4.038 -0.4455  0.0479 -0.5659
  891MOL0     H22898  11.435   2.268   4.143  1.0094  2.6538  0.9446
  891MOL0     H22899  11.588   2.165   4.312  1.8476 -0.7369 -0.7354
  891MOL0     H22900  11.611   2.343   4.294 -1.2535  0.6488 -0.2781
  891MOL0     H22901  11.787   2.123   4.187 -0.5300  0.9516 -0.9424
  891MOL0     H22902  11.814   2.295   4.151  1.8324  1.4178  2.4931
  891MOL0     H22903  11.809   2.179   4.416 -0.6746 -0.5124 -0.1988
  891MOL0     H22904  11.822   2.357   4.381  2.7700  0.7515 -1.8494
  891MOL0     H22905  12.033   2.240   4.258 -2.7797 -1.2097 -1.4504
  891MOL0     H22906  12.052   2.306   4.429  1.3144 -2.4835  2.0948
  891MOL0     H22907  12.080   1.984   4.231  0.6493  2.8293 -0.8917
  891MOL0     H22908  12.188   1.725   4.318 -1.9976 -0.5506  0.8392
  891MOL0     H22909  12.263   1.739   4.481  0.1579 -3.2697 -1.6710
  891MOL0     H22910  12.356   1.869   4.217  2.3559 -2.6681 -1.7812
  891MOL0     H22911  12.409   1.936   4.364  0.4964  1.4522 -2.2889
  891MOL0     H22912  12.499   1.706   4.447  2.0242 -0.2187 -0.1504
  891MOL0     H22913  12.452   1.632   4.297  3.7950  0.2624 -1.8347
  891MOL0     H22914  12.676   1.701   4.262 -1.6061 -2.0966  0.3340
  891MOL0     H22915  12.563   1.786   4.158  0.2443  2.0753 -0.1090
  891MOL0     H22916  12.803   2.058   4.436 -3.4893  1.0786 -1.4214
  891MOL0     H22917  13.077   2.285   4.314  0.7159  1.1730  1.5661
  891MOL0     H22918  13.106   2.160   4.440 -1.4526  1.2420  2.4738
  891MOL0     H22919  12.956   2.261   4.440 -0.7961  0.4861 -0.5788
  891MOL0     H22920  13.422   1.955   4.328 -0.7845 -1.7125 -1.8619
  891MOL0     H22921  13.656   1.989   4.320  0.3113  1.3300  1.4303
  891MOL0     H22922  13.852   2.010   4.224 -1.1580 -0.5492  2.0494
  891MOL0     H22923  13.967   2.142   4.214 -1.3806  1.5175 -3.2570
  891MOL0     H22924  13.902   2.207   4.459  0.5357 -0.2909  0.8544
  891MOL0     H22925  13.782   2.083   4.457 -0.5575 -1.6681 -1.8259
  891MOL0     H22926  14.075   2.053   4.458  1.1915 -1.3906  1.6461
  891MOL0     H22927  13.978   1.905   4.439 -0.8917  0.3179  1.5350
  891MOL0     H22928  13.864   1.980   4.660  0.2409  1.6334  2.3038
  891MOL0     H22929  14.012   2.075   4.686 -2.2762 -0.4945  3.8110
  891MOL0     H22930  14.008   1.777   4.648 -1.6572 -2.2519  3.6053
  891MOL0     H22931  14.150   1.875   4.686 -0.2693  3.9112  2.5975
  891MOL0     H22932  13.994   1.742   4.876  2.4859 -1.4525  0.5812
  891MOL0     H22933  13.929   1.908   4.891 -0.6246 -0.2477 -2.2015
  891MOL0     H22934  14.225   1.812   4.920 -1.5377 -0.3786 -0.3772
  891MOL0     H22935  14.111   1.855   5.044 -0.0517  1.4956  0.4806
  891MOL0     H22936  14.109   2.094   4.954 -0.3116 -0.9813 -0.0470
  891MOL0     H22937  14.208   2.047   4.812 -1.3685  0.6291 -0.0001
  891MOL0     H22938  13.610   2.336   4.078  2.9688  0.0390  2.0929
  891MOL0     H22939  13.356   2.293   4.067 -2.1340 -2.5611 -0.7347
  891MOL0     H22940  12.960   1.964   3.980 -1.9193 -3.7754 -0.1823
  891MOL0     H22941  12.763   1.864   4.061 -1.4050 -1.0932  2.0502
  891MOL0     H22942  11.212   1.990   3.541  0.0852 -0.6826 -0.1761
  891MOL0     H22943  10.989   2.002   3.439 -0.5862  0.3702  0.4780
  891MOL0     H22944  10.565   2.076   3.428 -2.5893 -1.3782  1.7527
  891MOL0     H22945  10.343   2.105   3.348  2.1903 -1.6567  1.2743
  891MOL0     H22946  10.019   2.365   3.346  0.1637  2.6484 -2.7208
  891MOL0     H22947  10.137   2.473   3.420  0.7786 -1.1241  0.5161
  891MOL0     H22948  10.097   2.396   3.127 -1.3219 -0.6255  1.4695
  891MOL0     H22949  10.241   2.486   3.190  0.2323 -0.5031 -1.4698
  891MOL0     H22950  10.088   2.685   3.225 -2.3416  1.6549 -0.1628
  891MOL0     H22951  10.087   2.630   3.057  2.1191  0.1001  0.5379
  891MOL0     H22952   9.896   2.557   3.264  2.3255 -4.3611 -1.3926
  891MOL0     H22953   9.863   2.515   3.105 -1.0562  0.4579  0.6097
  891MOL0     H22954   9.833   2.951   3.089  0.2427  0.1589 -3.8940
  891MOL0     H22955  10.341   2.509   3.453 -3.3041 -0.7042 -1.0082
  891MOL0     H22956  10.539   2.620   3.538  1.1588 -0.0208 -0.9360
  891MOL0     H22957  10.635   2.525   3.640  2.2285 -1.6424 -0.5551
  891MOL0     H22958  10.688   2.556   3.474  0.7254 -0.9863  0.5178
  892MOL0     O22959   0.881   3.926   8.163 -0.2505  0.4355 -0.0048
  892MOL0     C22960   0.921   3.810   8.172 -0.0570 -0.9775  0.1837
  892MOL0     O22961   0.940   3.730   8.061 -0.7891  0.1058  1.1398
  892MOL0     C22962   0.935   3.796   7.946 -0.5009 -0.5283  0.3369
  892MOL0     C22963   0.816   3.845   7.897  0.0845  0.0154  0.4787
  892MOL0     C22964   0.811   3.927   7.782 -0.0373 -0.2227 -0.0957
  892MOL0     C22965   0.936   3.958   7.722 -0.3850  0.3797  0.5253
  892MOL0     O22966   0.917   4.047   7.621 -0.7188 -0.3399  0.1927
  892MOL0     C22967   1.013   4.036   7.513 -0.1816  0.3889 -0.3820
  892MOL0     C22968   1.119   4.153   7.533 -0.7239  0.9024  0.4039
  892MOL0     C22969   1.230   4.157   7.442  0.9615 -0.8837  0.0205
  892MOL0     C22970   1.258   4.299   7.398 -0.3194  0.0145  0.5726
  892MOL0     C22971   1.378   4.309   7.301  0.4415  0.2712 -0.4123
  892MOL0     C22972   1.517   4.281   7.364 -0.2722  0.5020 -0.0044
  892MOL0     C22973   1.626   4.356   7.299 -0.4518  0.4211  0.5576
  892MOL0     C22974   1.770   4.311   7.353  0.8847  0.2343  0.6079
  892MOL0     N22975   1.784   4.322   7.493  0.4866  0.3694 -0.5431
  892MOL0     C22976   1.838   4.423   7.566 -0.1861 -0.0723  0.2931
  892MOL0     C22977   1.880   4.365   7.687  0.1680 -0.3570  0.5973
  892MOL0     C22978   1.931   4.435   7.800 -0.3005  0.2775  0.6063
  892MOL0     C22979   2.088   4.411   7.823  0.1828 -0.4852  0.2935
  892MOL0     C22980   2.128   4.507   7.927  1.0852  1.0329 -0.0327
  892MOL0     C22981   2.270   4.485   7.969 -0.2878 -0.6631 -0.7021
  892MOL0     O22982   2.348   4.532   7.856 -1.2586  0.0745  0.0834
  892MOL0     C22983   2.487   4.549   7.874 -0.8923 -0.5612  0.5180
  892MOL0     C22984   2.573   4.527   7.765  0.1357  0.2783 -0.5096
  892MOL0     C22985   2.711   4.560   7.765 -1.9446  0.2877 -0.4766
  892MOL0     C22986   2.797   4.527   7.633 -0.4905  0.7116 -0.2708
  892MOL0     C22987   2.760   4.635   7.870 -0.1332 -1.0832  0.0114
  892MOL0     C22988   2.904   4.692   7.875  0.9334 -0.1693 -0.2697
  892MOL0     O22989   2.984   4.687   7.768 -0.4374  0.5113 -0.5318
  892MOL0     C22990   3.112   4.724   7.776 -0.1169  0.0928 -0.0153
  892MOL0     C22991   3.144   4.856   7.809 -1.1828  0.5473 -0.4157
  892MOL0     C22992   3.273   4.901   7.793  0.5344  0.1001  0.3061
  892MOL0     C22993   3.370   4.819   7.735 -0.0542  0.2026 -0.6094
  892MOL0     O22994   3.503   4.849   7.708  0.2122  0.3661  0.2730
  892MOL0     C22995   3.541   4.985   7.717 -0.5831 -0.3831 -0.0477
  892MOL0     C22996   3.682   5.008   7.653  0.0776 -0.5704 -0.4406
  892MOL0     C22997   3.704   5.162   7.658  0.3065 -0.1853 -0.2679
  892MOL0     C22998   3.844   5.197   7.601 -0.5065 -0.0608 -0.2005
  892MOL0     C22999   3.875   5.354   7.597 -0.1659  0.0539 -0.2606
  892MOL0     C23000   3.774   5.447   7.506 -0.5719 -0.0137  0.3577
  892MOL0     C23001   3.841   5.583   7.471 -1.0056 -0.8442 -0.2847
  892MOL0     C23002   3.795   5.702   7.561 -0.0501  0.0469  0.3635
  892MOL0    Cl23003   3.872   5.847   7.473 -0.3235  0.4714 -0.4461
  892MOL0     C23004   3.338   4.687   7.709 -0.0617  0.4653  0.4712
  892MOL0     C23005   3.210   4.630   7.727  0.8473 -1.3119  0.1279
  892MOL0     O23006   2.934   4.730   7.990 -0.0205  0.2655  0.2615
  892MOL0     C23007   2.671   4.657   7.986  0.1601 -0.0165 -0.8829
  892MOL0     C23008   2.540   4.613   7.988  0.1170  0.1762 -0.1596
  892MOL0     N23009   1.841   4.234   7.679 -0.1342 -0.0438  0.8318
  892MOL0     N23010   1.785   4.205   7.565  0.3294 -0.5133 -0.3143
  892MOL0     C23011   1.049   3.896   7.767 -0.1315 -0.3302 -0.0473
  892MOL0     C23012   1.057   3.818   7.873 -0.1470 -0.2629 -0.5248
  892MOL0     C23013   0.961   3.758   8.310  0.5315  0.9325 -0.5944
  892MOL0     C23014   1.005   3.842   8.414  0.4637 -0.4173 -0.3299
  892MOL0     C23015   1.057   3.794   8.531 -0.2760 -0.2222  0.0470
  892MOL0     C23016   1.078   3.659   8.554 -0.3089 -0.0807  1.0029
  892MOL0     O23017   1.139   3.617   8.671  0.3436  0.1936  0.4298
  892MOL0     C23018   1.043   3.567   8.760  0.1267 -0.6499  0.0466
  892MOL0     C23019   1.107   3.538   8.893 -0.1636 -0.7806  0.3853
  892MOL0     C23020   1.177   3.661   8.958 -0.7104  0.2812 -0.1033
  892MOL0     C23021   1.203   3.622   9.103  0.1878 -0.4196  0.5563
  892MOL0     C23022   1.293   3.723   9.160  0.1413 -0.5565 -0.2891
  892MOL0     C23023   1.362   3.812   9.213 -0.0966 -0.0069  0.4235
  892MOL0     C23024   1.024   3.574   8.454  0.3504  0.1797 -0.7536
  892MOL0     C23025   0.975   3.616   8.330  0.1221 -0.8372  0.5269
  892MOL0     C23026   0.931   3.511   8.227  0.2389  1.0836  0.2079
  892MOL0     H23027   0.729   3.845   7.963  0.2244  0.2582  0.6674
  892MOL0     H23028   0.717   3.961   7.738 -0.4018 -2.2703 -1.0317
  892MOL0     H23029   0.951   4.042   7.423 -2.1319  0.9966  0.9333
  892MOL0     H23030   1.062   3.939   7.508  1.9234  1.3595  0.3254
  892MOL0     H23031   1.064   4.248   7.527 -0.6037  0.9579  0.1596
  892MOL0     H23032   1.159   4.143   7.634  0.6247 -1.5090 -0.3001
  892MOL0     H23033   1.317   4.103   7.481  1.1090 -0.6543  0.0151
  892MOL0     H23034   1.191   4.103   7.355  0.2717 -0.4539  0.0576
  892MOL0     H23035   1.160   4.334   7.364 -1.3503 -1.9711  1.3348
  892MOL0     H23036   1.280   4.353   7.490  0.5807 -1.0898  1.0183
  892MOL0     H23037   1.384   4.401   7.242  0.6019  0.4251 -0.1554
  892MOL0     H23038   1.363   4.248   7.211  0.9841  2.3640 -2.0197
  892MOL0     H23039   1.523   4.306   7.471  0.3499  3.2384 -0.5937
  892MOL0     H23040   1.535   4.176   7.343  0.4254  0.5745  0.1982
  892MOL0     H23041   1.618   4.465   7.312  0.6556  0.5789  0.0734
  892MOL0     H23042   1.619   4.333   7.193 -3.0050 -2.1183  1.1610
  892MOL0     H23043   1.789   4.208   7.321 -1.4044 -1.3572  3.8064
  892MOL0     H23044   1.852   4.370   7.311  1.3333  0.4512  1.7568
  892MOL0     H23045   1.853   4.526   7.537  0.6146  0.0300  1.0515
  892MOL0     H23046   1.889   4.399   7.895  2.9178  0.8882  2.4284
  892MOL0     H23047   1.909   4.541   7.782 -0.1854 -0.2295 -3.2688
  892MOL0     H23048   2.100   4.306   7.852 -0.4633 -0.4796  0.5841
  892MOL0     H23049   2.151   4.433   7.736 -1.5578 -0.9544 -1.1688
  892MOL0     H23050   2.102   4.613   7.918  1.6648  1.4670  2.6730
  892MOL0     H23051   2.065   4.483   8.013 -0.6506  0.1541 -1.4848
  892MOL0     H23052   2.285   4.561   8.046  0.3045 -0.6583 -0.8185
  892MOL0     H23053   2.281   4.384   8.010 -1.0408 -0.1252  0.8812
  892MOL0     H23054   2.538   4.470   7.679  1.9575 -0.5404 -0.7472
  892MOL0     H23055   2.887   4.475   7.670 -1.5901 -0.4117  0.9378
  892MOL0     H23056   2.823   4.613   7.571  2.9413 -0.9706 -1.4401
  892MOL0     H23057   2.745   4.447   7.580 -0.5235  0.0202  0.7601
  892MOL0     H23058   3.072   4.914   7.866 -1.4955 -0.3317  0.1046
  892MOL0     H23059   3.302   5.001   7.825  1.5102 -0.5429  1.5037
  892MOL0     H23060   3.467   5.052   7.672 -0.2973  2.3921  3.2332
  892MOL0     H23061   3.551   5.024   7.819  1.7775  1.0207 -0.7165
  892MOL0     H23062   3.754   4.950   7.711 -0.4776  2.0588  3.2047
  892MOL0     H23063   3.686   4.972   7.550  0.4733 -0.8570 -0.3276
  892MOL0     H23064   3.704   5.198   7.761 -0.6899  0.4176 -0.4629
  892MOL0     H23065   3.627   5.219   7.604 -1.1865  0.3838  2.3030
  892MOL0     H23066   3.853   5.164   7.497  1.3241  0.7185 -0.3242
  892MOL0     H23067   3.922   5.142   7.654  3.4171  0.6568 -4.5973
  892MOL0     H23068   3.852   5.388   7.698 -2.6005 -1.0216 -0.3803
  892MOL0     H23069   3.978   5.371   7.565  0.1916 -3.0154 -1.0389
  892MOL0     H23070   3.679   5.453   7.559  0.0149 -2.1526  1.7607
  892MOL0     H23071   3.759   5.391   7.413 -0.1939  2.3991 -1.2525
  892MOL0     H23072   3.826   5.612   7.366 -0.0091 -1.3746 -0.5928
  892MOL0     H23073   3.950   5.569   7.467 -0.8840 -0.8008 -5.9288
  892MOL0     H23074   3.823   5.693   7.666  0.9586 -1.1151  0.0193
  892MOL0     H23075   3.686   5.709   7.558 -0.0385  0.0429 -0.4026
  892MOL0     H23076   3.417   4.627   7.665 -1.9819  0.3318 -3.1031
  892MOL0     H23077   3.185   4.530   7.695  2.5053 -0.8471 -3.0191
  892MOL0     H23078   2.712   4.703   8.075 -0.0108 -3.1680  0.9538
  892MOL0     H23079   2.482   4.650   8.072 -1.4636 -1.9590 -0.2356
  892MOL0     H23080   1.143   3.905   7.713 -0.1017 -3.4911 -0.7121
  892MOL0     H23081   1.153   3.782   7.907 -0.5030 -2.9369 -2.0875
  892MOL0     H23082   0.995   3.949   8.398 -0.3442 -0.7584 -2.3757
  892MOL0     H23083   1.098   3.847   8.617 -2.3633 -1.1017  1.6650
  892MOL0     H23084   0.975   3.649   8.783  1.5219  0.0890  1.7938
  892MOL0     H23085   1.000   3.473   8.724  1.0740 -1.7836  1.7508
  892MOL0     H23086   1.176   3.455   8.879  0.6028 -0.0421 -0.3023
  892MOL0     H23087   1.036   3.514   8.973  1.1952 -2.0088  1.2872
  892MOL0     H23088   1.270   3.672   8.902 -0.0226  0.8253  1.0931
  892MOL0     H23089   1.123   3.756   8.964 -0.4883  0.3349  2.8869
  892MOL0     H23090   1.241   3.520   9.113 -0.8085 -0.6945  1.6846
  892MOL0     H23091   1.114   3.619   9.165  1.5178 -0.3414  2.5497
  892MOL0     H23092   1.432   3.890   9.234 -0.3567  1.2612 -2.8850
  892MOL0     H23093   1.024   3.467   8.471 -1.2259  0.1853 -0.5531
  892MOL0     H23094   1.012   3.490   8.157  1.6189  0.0496  2.0361
  892MOL0     H23095   0.909   3.413   8.269  1.1711  0.5999 -0.3875
  892MOL0     H23096   0.843   3.538   8.167  1.0961  1.0814 -1.1069
  893MOL0     O23097   7.057   7.140  10.896 -0.0151 -1.0603  0.1879
  893MOL0     C23098   7.036   7.020  10.905 -0.0754 -0.4851  0.9633
  893MOL0     O23099   7.119   6.927  10.960 -0.4867  0.1640  1.1321
  893MOL0     C23100   7.250   6.970  10.959 -0.5029 -0.6954 -0.2786
  893MOL0     C23101   7.305   7.004  11.089  0.4232 -0.5299  0.3629
  893MOL0     C23102   7.434   7.050  11.102 -0.4085 -0.1069 -1.4173
  893MOL0     C23103   7.511   7.073  10.988 -0.1229  0.2609 -0.0824
  893MOL0     O23104   7.642   7.113  10.995  0.6639  0.1077  0.4772
  893MOL0     C23105   7.672   7.217  11.084  0.1648  0.4979  0.1136
  893MOL0     C23106   7.800   7.294  11.045 -0.2846 -0.4438  0.0092
  893MOL0     C23107   7.932   7.211  11.031  0.4207 -0.6401  0.3609
  893MOL0     C23108   7.981   7.156  11.161  0.0771 -0.6844 -0.1583
  893MOL0     C23109   8.111   7.071  11.141  0.6290 -0.7072  0.1405
  893MOL0     C23110   8.132   7.007  11.283  0.1250 -0.3583  0.5989
  893MOL0     C23111   8.262   6.924  11.275 -0.1172  0.4017 -0.3981
  893MOL0     C23112   8.294   6.842  11.407  0.6815 -0.9118  0.4062
  893MOL0     N23113   8.199   6.726  11.415 -0.1255  0.3939  0.8948
  893MOL0     C23114   8.231   6.597  11.390  0.2526  0.6843 -0.3242
  893MOL0     C23115   8.121   6.517  11.423  0.7709 -0.3317 -0.9213
  893MOL0     C23116   8.105   6.372  11.395  0.5766 -0.7366 -0.1722
  893MOL0     C23117   8.139   6.298  11.518  0.3668  0.0497 -0.1298
  893MOL0     C23118   8.140   6.148  11.490  0.2800  0.0869  0.8728
  893MOL0     C23119   8.154   6.063  11.609  0.3209 -0.1267  0.2146
  893MOL0     O23120   8.139   5.921  11.559  0.1268  0.0629  0.5145
  893MOL0     C23121   8.033   5.850  11.596 -0.7158 -0.1618 -0.5130
  893MOL0     C23122   7.998   5.838  11.734 -0.2000  0.3266  0.2432
  893MOL0     C23123   7.890   5.758  11.775 -0.3136  0.8024 -0.2341
  893MOL0     C23124   7.853   5.767  11.924  0.3169  0.4905  0.0368
  893MOL0     C23125   7.823   5.679  11.674  1.1650  0.1657  0.7228
  893MOL0     C23126   7.713   5.584  11.711  0.8664 -1.1737 -0.0684
  893MOL0     O23127   7.671   5.481  11.626  0.0141 -0.8954 -0.2199
  893MOL0     C23128   7.556   5.403  11.662 -0.4338 -0.1038  0.4336
  893MOL0     C23129   7.426   5.453  11.624  0.8553  0.0477 -0.0131
  893MOL0     C23130   7.309   5.378  11.643 -0.0537  1.0818  0.7111
  893MOL0     C23131   7.305   5.249  11.691 -0.0807  0.5365 -0.6612
  893MOL0     O23132   7.193   5.180  11.706 -0.1050 -0.3499 -0.7525
  893MOL0     C23133   7.074   5.241  11.751  1.2260  0.1605  0.5151
  893MOL0     C23134   7.061   5.283  11.891 -0.3483 -0.5332  0.3101
  893MOL0     C23135   7.125   5.168  11.977  0.6577 -0.4446  0.1198
  893MOL0     C23136   7.112   5.190  12.123  1.0065 -0.1963 -0.7980
  893MOL0     C23137   7.188   5.309  12.188  1.2190 -0.6048  0.3785
  893MOL0     C23138   7.146   5.320  12.331 -0.2896  0.1584  0.1766
  893MOL0     C23139   7.226   5.430  12.391 -0.1944 -0.3349 -1.3786
  893MOL0     C23140   7.245   5.407  12.547  0.7539 -0.2981  0.1364
  893MOL0    Cl23141   7.346   5.549  12.605  0.2432  0.3760 -0.2213
  893MOL0     C23142   7.438   5.202  11.724 -0.4547 -0.2518  0.6745
  893MOL0     C23143   7.566   5.274  11.710  0.7393  0.9107 -0.6056
  893MOL0     O23144   7.650   5.623  11.807  0.5172 -0.3149  0.5144
  893MOL0     C23145   7.855   5.700  11.545  0.3173 -0.1248  0.8818
  893MOL0     C23146   7.959   5.774  11.505 -0.2903  0.0512 -0.5053
  893MOL0     N23147   8.027   6.608  11.475  0.5231 -0.6046  0.0661
  893MOL0     N23148   8.077   6.728  11.473  0.8460 -0.0967  0.0353
  893MOL0     C23149   7.462   7.046  10.858 -0.5168  0.7522  0.7038
  893MOL0     C23150   7.334   7.002  10.846  0.8527  0.4403  0.6639
  893MOL0     C23151   6.902   6.965  10.857 -0.0454  0.1161 -0.6774
  893MOL0     C23152   6.831   7.034  10.764 -0.0736  0.0951  1.0343
  893MOL0     C23153   6.713   6.986  10.701 -1.1702  0.0821 -0.8895
  893MOL0     C23154   6.645   6.881  10.762  0.4576  0.7830 -0.4260
  893MOL0     O23155   6.530   6.841  10.701  0.4684  0.2715  0.5185
  893MOL0     C23156   6.436   6.759  10.776 -0.3032  0.0271 -0.2633
  893MOL0     C23157   6.292   6.756  10.718 -1.0749 -0.1917  0.4946
  893MOL0     C23158   6.208   6.667  10.808  1.5116  0.4481 -0.3891
  893MOL0     C23159   6.046   6.683  10.791 -0.2466 -1.7830  0.3953
  893MOL0     C23160   5.965   6.579  10.853 -0.4425  0.5840 -0.4501
  893MOL0     C23161   5.899   6.490  10.907 -0.5542 -0.1337  0.1783
  893MOL0     C23162   6.704   6.821  10.873  0.7457  0.5446  0.2987
  893MOL0     C23163   6.835   6.849  10.917  0.6386 -0.6296  0.7748
  893MOL0     C23164   6.891   6.766  11.028 -0.1594  0.5365  0.9779
  893MOL0     H23165   7.232   6.996  11.169  1.2622 -0.3764  1.1564
  893MOL0     H23166   7.483   7.051  11.198  0.7986 -1.7403 -1.9594
  893MOL0     H23167   7.683   7.182  11.187 -0.4531  3.2094  1.2080
  893MOL0     H23168   7.596   7.296  11.086 -1.2043 -0.7944  1.4643
  893MOL0     H23169   7.786   7.338  10.946  1.6019 -1.7234 -0.8866
  893MOL0     H23170   7.808   7.372  11.122 -0.0586 -0.4411 -0.0156
  893MOL0     H23171   7.899   7.133  10.962 -0.3781  0.6708 -0.8028
  893MOL0     H23172   8.007   7.276  10.985  1.2785 -0.0112  2.5401
  893MOL0     H23173   8.005   7.230  11.239  0.4554  0.5388 -1.3892
  893MOL0     H23174   7.898   7.095  11.198  1.9967 -1.2133  3.8067
  893MOL0     H23175   8.195   7.130  11.105  1.1069 -1.7123 -0.4251
  893MOL0     H23176   8.084   7.000  11.063 -4.1331  0.1484  0.6879
  893MOL0     H23177   8.127   7.093  11.350  1.9655  2.2190 -2.2570
  893MOL0     H23178   8.051   6.937  11.305  0.6578 -1.9987 -2.1860
  893MOL0     H23179   8.346   6.993  11.270  1.5940 -1.5163  0.3741
  893MOL0     H23180   8.267   6.855  11.190  2.0640 -0.3966  0.3034
  893MOL0     H23181   8.396   6.804  11.405  0.6479 -0.9689 -0.7152
  893MOL0     H23182   8.288   6.909  11.493 -1.1571  1.2583 -1.2612
  893MOL0     H23183   8.324   6.559  11.349  1.3124 -0.2186  2.6434
  893MOL0     H23184   8.173   6.336  11.317  0.7521 -0.1506 -0.2899
  893MOL0     H23185   8.010   6.346  11.347  0.2375  0.5754 -0.2413
  893MOL0     H23186   8.235   6.339  11.552  0.4717  0.0468 -0.4093
  893MOL0     H23187   8.058   6.319  11.588  0.3572  0.0597 -0.1439
  893MOL0     H23188   8.047   6.113  11.444 -1.7416  0.3444  4.3989
  893MOL0     H23189   8.219   6.133  11.416 -1.3056  1.8169 -1.3039
  893MOL0     H23190   8.251   6.090  11.652  0.6038  0.3672 -0.7094
  893MOL0     H23191   8.077   6.088  11.682  0.1931 -2.8528  1.1270
  893MOL0     H23192   8.048   5.869  11.825  1.5601 -3.7844  0.9110
  893MOL0     H23193   7.833   5.666  11.961  2.7000 -1.7925 -4.0788
  893MOL0     H23194   7.770   5.837  11.933  1.8246  2.1465  1.9318
  893MOL0     H23195   7.927   5.817  11.986 -1.0121  1.0993  1.1861
  893MOL0     H23196   7.398   5.552  11.589 -0.6233 -0.5577 -0.6049
  893MOL0     H23197   7.217   5.425  11.610  0.6561  3.3167  1.6991
  893MOL0     H23198   7.054   5.331  11.692 -2.6678  0.0332  1.3634
  893MOL0     H23199   7.006   5.161  11.722  3.3566 -1.2352 -0.9768
  893MOL0     H23200   7.128   5.370  11.901  0.5484 -1.0738 -0.7569
  893MOL0     H23201   6.961   5.319  11.915 -1.0297 -1.6022 -0.8117
  893MOL0     H23202   7.230   5.160  11.950  0.1654  1.0705 -2.5978
  893MOL0     H23203   7.069   5.076  11.959  2.7135 -1.5356 -0.9570
  893MOL0     H23204   7.138   5.095  12.172 -3.7193 -0.8892  0.8610
  893MOL0     H23205   7.006   5.202  12.145  1.1802  3.7584 -1.5180
  893MOL0     H23206   7.291   5.276  12.176  1.0656 -1.3722  1.0837
  893MOL0     H23207   7.167   5.406  12.142 -0.2722 -0.8675  0.4462
  893MOL0     H23208   7.157   5.223  12.380  1.4736 -1.6609 -3.4048
  893MOL0     H23209   7.038   5.335  12.332 -0.8245 -3.0901  1.7723
  893MOL0     H23210   7.179   5.527  12.374  3.1424  2.3537  2.5553
  893MOL0     H23211   7.331   5.436  12.360  1.5213 -2.4131  3.1734
  893MOL0     H23212   7.303   5.318  12.576 -0.9324 -0.9220  1.8668
  893MOL0     H23213   7.146   5.395  12.591  1.6494 -1.0698  2.0678
  893MOL0     H23214   7.443   5.102  11.766 -1.0392 -0.5913 -0.0371
  893MOL0     H23215   7.662   5.228  11.731  0.9969 -0.1574 -3.6249
  893MOL0     H23216   7.799   5.650  11.467  2.4083 -2.0009  0.4865
  893MOL0     H23217   7.983   5.771  11.399 -3.3303 -3.3064 -1.2821
  893MOL0     H23218   7.533   7.060  10.776  1.5551  1.0790  2.4509
  893MOL0     H23219   7.296   6.979  10.747  0.8033  0.4274  0.6848
  893MOL0     H23220   6.877   7.123  10.721  1.7333  0.2476  3.0873
  893MOL0     H23221   6.674   7.045  10.619 -0.1499  0.6127 -1.0215
  893MOL0     H23222   6.468   6.654  10.772 -1.0267 -0.3566  2.4043
  893MOL0     H23223   6.436   6.804  10.876 -1.9440  0.9192 -0.6318
  893MOL0     H23224   6.304   6.722  10.615  1.0055 -0.1405  0.6734
  893MOL0     H23225   6.258   6.860  10.713 -0.8923 -0.1279  0.5632
  893MOL0     H23226   6.236   6.564  10.785  0.5695  0.3264 -1.0364
  893MOL0     H23227   6.231   6.681  10.914 -1.5290 -0.3040  0.4680
  893MOL0     H23228   6.021   6.687  10.684 -0.3600  1.9163  0.4348
  893MOL0     H23229   6.025   6.780  10.836  0.7979 -1.6486  0.6205
  893MOL0     H23230   5.824   6.419  10.936 -0.9433  0.2647  0.1499
  893MOL0     H23231   6.663   6.732  10.920 -1.5923  1.2436 -0.2731
  893MOL0     H23232   6.889   6.820  11.123 -2.4072  1.9482  0.2237
  893MOL0     H23233   6.849   6.665  11.028 -0.8766  0.8022 -0.2964
  893MOL0     H23234   6.999   6.757  11.012 -0.6277  0.4039 -3.3068
  894MOL0     O23235   0.151   0.105   2.264  0.0329 -0.4521 -0.5724
  894MOL0     C23236   0.077   0.169   2.345  0.0774  0.1449 -0.0606
  894MOL0     O23237   0.126   0.246   2.450  0.0050  0.0763 -0.2353
  894MOL0     C23238   0.257   0.267   2.442 -0.7506  0.5465  0.3639
  894MOL0     C23239   0.344   0.171   2.503  0.8021  0.1272  0.1648
  894MOL0     C23240   0.476   0.187   2.499  0.1509 -0.5455  0.0078
  894MOL0     C23241   0.537   0.307   2.451  0.1463  0.0046 -0.0625
  894MOL0     O23242   0.667   0.332   2.452 -0.2093 -0.1675  0.9335
  894MOL0     C23243   0.755   0.223   2.436 -0.2232 -0.5102 -0.3115
  894MOL0     C23244   0.754   0.169   2.301 -0.6566 -0.1200 -0.1465
  894MOL0     C23245   0.806   0.258   2.192  0.1252  0.0907  0.0443
  894MOL0     C23246   0.788   0.185   2.057 -0.4595 -0.9972  0.2334
  894MOL0     C23247   0.818   0.277   1.944 -0.2680  0.6224 -0.4651
  894MOL0     C23248   0.964   0.290   1.906  0.5114  0.7392 -0.0774
  894MOL0     C23249   0.971   0.404   1.799  1.1271  0.2291  0.2163
  894MOL0     C23250   1.098   0.417   1.718 -1.3184 -0.3306  0.9029
  894MOL0     N23251   1.078   0.517   1.608 -0.3507 -0.3025 -0.2865
  894MOL0     C23252   1.039   0.501   1.480  0.3353  0.6152 -0.4116
  894MOL0     C23253   1.022   0.625   1.430 -0.5758 -0.8493  0.5123
  894MOL0     C23254   0.994   0.653   1.275  0.2229 -0.1863  0.2175
  894MOL0     C23255   1.104   0.609   1.183  0.0873  0.3305 -0.0471
  894MOL0     C23256   1.225   0.705   1.188 -0.3963 -0.4478 -0.3304
  894MOL0     C23257   1.302   0.676   1.320 -0.5182  0.2328 -0.7000
  894MOL0     O23258   1.323   0.537   1.330 -0.0455  0.1453  0.1663
  894MOL0     C23259   1.408   0.486   1.431 -0.3615  0.0361  0.0302
  894MOL0     C23260   1.431   0.351   1.428  0.3076  0.2335 -0.2938
  894MOL0     C23261   1.527   0.291   1.510 -0.0859 -0.3194 -0.3690
  894MOL0     C23262   1.536   0.138   1.508 -0.4452 -0.2781  0.1140
  894MOL0     C23263   1.611   0.369   1.594  0.2198 -0.4891  0.8218
  894MOL0     C23264   1.726   0.329   1.685  0.8676  0.1616  1.0046
  894MOL0     O23265   1.777   0.428   1.759  0.1124 -0.1260  0.3316
  894MOL0     C23266   1.899   0.437   1.822 -0.0361 -0.8017  0.3907
  894MOL0     C23267   2.014   0.366   1.797  0.4203  0.1219  0.8288
  894MOL0     C23268   2.129   0.376   1.866 -0.2741  0.0050 -0.6209
  894MOL0     C23269   2.133   0.460   1.976 -0.0969 -0.1467 -0.4236
  894MOL0     O23270   2.249   0.473   2.046 -0.6893 -0.3329 -0.3750
  894MOL0     C23271   2.241   0.383   2.154 -0.2573 -0.2303  0.9301
  894MOL0     C23272   2.339   0.425   2.270 -0.0377  0.7726  1.3648
  894MOL0     C23273   2.487   0.435   2.228  0.1760 -0.6590 -0.7750
  894MOL0     C23274   2.569   0.312   2.261 -0.5628  0.7413 -0.0784
  894MOL0     C23275   2.717   0.325   2.230 -0.7493 -0.2756  0.5068
  894MOL0     C23276   2.800   0.206   2.263  0.2349 -0.1025 -0.5646
  894MOL0     C23277   2.950   0.237   2.246 -0.1848 -0.4445  0.8020
  894MOL0     C23278   3.013   0.304   2.374 -1.0129  0.1460 -0.3023
  894MOL0    Cl23279   3.178   0.336   2.342  0.0999 -0.1791  0.0643
  894MOL0     C23280   2.025   0.546   2.002 -0.3439  0.2710 -0.0602
  894MOL0     C23281   1.907   0.529   1.919  0.4188 -0.0369 -0.9590
  894MOL0     O23282   1.771   0.216   1.674 -0.8491  0.1238 -0.3258
  894MOL0     C23283   1.587   0.508   1.594 -0.2360 -0.3150  0.5411
  894MOL0     C23284   1.488   0.565   1.513 -0.3410 -0.2968  0.0306
  894MOL0     N23285   1.044   0.716   1.533 -0.4364  0.3860  0.0383
  894MOL0     N23286   1.077   0.649   1.634  0.7169  1.0758 -0.6703
  894MOL0     C23287   0.461   0.400   2.388  0.0008 -0.6738 -0.1898
  894MOL0     C23288   0.320   0.385   2.390 -0.9099 -0.3696  0.4629
  894MOL0     C23289  -0.066   0.146   2.322  0.7582 -0.6375  0.1005
  894MOL0     C23290  -0.105   0.017   2.288 -1.2637 -0.4803 -0.6148
  894MOL0     C23291  -0.236  -0.014   2.282 -0.1529 -0.3612  0.1700
  894MOL0     C23292  -0.336   0.079   2.303  0.7126 -0.1190  0.3618
  894MOL0     O23293  -0.462   0.024   2.304 -0.6797 -0.5756 -0.8417
  894MOL0     C23294  -0.570   0.118   2.295  0.0856 -0.8918 -0.2671
  894MOL0     C23295  -0.624   0.167   2.431 -0.9507 -1.0052  0.0203
  894MOL0     C23296  -0.658   0.043   2.520  0.4443 -0.6451  0.0505
  894MOL0     C23297  -0.791  -0.030   2.484 -0.0290  0.4456 -0.5661
  894MOL0     C23298  -0.897   0.052   2.536  1.2409 -0.5219 -0.1643
  894MOL0     C23299  -0.991   0.107   2.591 -0.0067 -0.9698  0.8823
  894MOL0     C23300  -0.303   0.211   2.328  0.2585 -0.1352  0.2387
  894MOL0     C23301  -0.166   0.241   2.340  0.0074  0.9447 -1.1460
  894MOL0     C23302  -0.143   0.384   2.374 -0.4981 -0.0232 -0.3059
  894MOL0     H23303   0.298   0.077   2.531 -1.5637  0.2254 -2.7978
  894MOL0     H23304   0.537   0.109   2.544 -1.8173 -0.6027  2.8425
  894MOL0     H23305   0.733   0.143   2.506  2.3279 -2.0014 -1.0966
  894MOL0     H23306   0.857   0.263   2.445 -0.1691 -0.0889 -2.3111
  894MOL0     H23307   0.814   0.078   2.292 -2.9883 -1.5352 -2.7922
  894MOL0     H23308   0.651   0.138   2.279 -0.0418 -0.9897 -2.0434
  894MOL0     H23309   0.757   0.356   2.186  0.8568  0.4598 -0.0023
  894MOL0     H23310   0.903   0.301   2.221 -0.2048 -0.1094  1.5176
  894MOL0     H23311   0.850   0.095   2.054 -1.6947 -1.9206 -3.5221
  894MOL0     H23312   0.682   0.158   2.048 -0.9473  1.4539 -4.5508
  894MOL0     H23313   0.763   0.369   1.966 -1.2446 -0.6541  3.1253
  894MOL0     H23314   0.758   0.236   1.862 -3.3232 -0.7449  2.2031
  894MOL0     H23315   1.023   0.319   1.994  1.9869 -0.7772 -0.5251
  894MOL0     H23316   1.006   0.198   1.865  0.0789 -0.2062  1.4948
  894MOL0     H23317   0.956   0.496   1.856  2.8449  2.9538 -3.3236
  894MOL0     H23318   0.895   0.392   1.721  0.9486 -0.3988  0.4791
  894MOL0     H23319   1.173   0.450   1.790 -3.4994  2.2086  2.1545
  894MOL0     H23320   1.124   0.321   1.672 -1.5566  0.4099 -0.8960
  894MOL0     H23321   1.005   0.407   1.437  0.5657  1.0755 -1.6114
  894MOL0     H23322   0.986   0.761   1.261 -2.8870 -0.2502  0.8996
  894MOL0     H23323   0.897   0.605   1.262 -0.3275  0.8136  0.4961
  894MOL0     H23324   1.127   0.504   1.201 -0.7713 -0.0108 -0.8339
  894MOL0     H23325   1.076   0.605   1.077  3.2486  1.8609 -1.0486
  894MOL0     H23326   1.299   0.696   1.109  1.3949  1.5985  0.9978
  894MOL0     H23327   1.196   0.811   1.193  3.2830  0.6507  0.8503
  894MOL0     H23328   1.400   0.724   1.317  0.7427 -2.1007  0.4201
  894MOL0     H23329   1.247   0.725   1.402  0.8670  1.0471 -0.2218
  894MOL0     H23330   1.377   0.292   1.355  0.1062 -1.1767  0.9536
  894MOL0     H23331   1.601   0.110   1.424  2.1569  1.5960  1.3193
  894MOL0     H23332   1.441   0.086   1.499 -0.6209  0.1537 -0.5545
  894MOL0     H23333   1.573   0.096   1.602  1.7835  0.5796 -0.3130
  894MOL0     H23334   2.004   0.291   1.720  0.7057 -0.2262  1.1274
  894MOL0     H23335   2.210   0.305   1.857 -3.1743 -3.6431 -0.2123
  894MOL0     H23336   2.141   0.381   2.197 -0.3469 -1.6001  0.7154
  894MOL0     H23337   2.263   0.285   2.111 -1.6780 -0.4387  0.6460
  894MOL0     H23338   2.293   0.522   2.291 -2.4283  0.6019 -2.0746
  894MOL0     H23339   2.323   0.356   2.353  1.4290  0.9610  1.8357
  894MOL0     H23340   2.528   0.501   2.305  0.7575 -1.1093 -0.6901
  894MOL0     H23341   2.511   0.474   2.129  0.8225 -0.6647 -0.6257
  894MOL0     H23342   2.531   0.225   2.206 -0.7093  0.2282  0.8092
  894MOL0     H23343   2.565   0.295   2.369  1.6058  2.7946  0.4012
  894MOL0     H23344   2.731   0.345   2.123  3.5737  0.2441  0.9935
  894MOL0     H23345   2.745   0.417   2.282  1.2601 -1.0677  0.9509
  894MOL0     H23346   2.761   0.128   2.197  0.7712 -1.6612  0.8831
  894MOL0     H23347   2.786   0.171   2.366  0.5521  0.0763 -0.4597
  894MOL0     H23348   2.961   0.292   2.151 -1.5687  1.2569  1.5671
  894MOL0     H23349   2.995   0.138   2.239 -2.7058 -1.7494  2.1241
  894MOL0     H23350   3.005   0.227   2.451 -0.2894 -1.0219 -1.3444
  894MOL0     H23351   2.956   0.392   2.404 -0.7979 -0.1900  1.1641
  894MOL0     H23352   2.025   0.629   2.072 -0.4227 -1.0333  1.5461
  894MOL0     H23353   1.817   0.583   1.946 -0.1191  0.3303 -3.3208
  894MOL0     H23354   1.627   0.585   1.659 -2.6242  1.5944 -0.1029
  894MOL0     H23355   1.477   0.672   1.523 -0.1439 -0.5049  3.8885
  894MOL0     H23356   0.518   0.477   2.337  0.1245 -0.8886 -0.3748
  894MOL0     H23357   0.257   0.462   2.346  0.0812  0.5010  0.5312
  894MOL0     H23358  -0.027  -0.053   2.260  0.5055  0.9061  0.5410
  894MOL0     H23359  -0.253  -0.118   2.257  1.6606 -0.6011 -0.1987
  894MOL0     H23360  -0.549   0.193   2.218  0.6295  0.0120  0.7487
  894MOL0     H23361  -0.658   0.070   2.250 -0.2079 -1.4825  0.9072
  894MOL0     H23362  -0.714   0.228   2.420  0.2834  0.9007 -0.0871
  894MOL0     H23363  -0.551   0.228   2.487  0.1396 -3.4694  1.4660
  894MOL0     H23364  -0.579  -0.031   2.509 -1.3638 -2.3172 -2.7817
  894MOL0     H23365  -0.664   0.059   2.628 -1.2148 -2.5724  0.2972
  894MOL0     H23366  -0.785  -0.127   2.534 -0.6328  1.4163  1.4977
  894MOL0     H23367  -0.800  -0.033   2.375 -0.1398  0.8801 -0.5698
  894MOL0     H23368  -1.083   0.148   2.627 -0.5021 -0.2041 -1.1374
  894MOL0     H23369  -0.375   0.291   2.340  0.9166  0.4462  0.3575
  894MOL0     H23370  -0.039   0.407   2.401  0.5459 -2.0700 -2.2755
  894MOL0     H23371  -0.166   0.442   2.284  0.9131  1.2701  0.1132
  894MOL0     H23372  -0.216   0.408   2.452 -1.9159 -3.0095 -0.5709
  895MOL0     O23373   9.338   9.077  11.413 -0.3210 -0.0764 -0.9077
  895MOL0     C23374   9.258   9.117  11.327 -0.2054  0.4999  0.1757
  895MOL0     O23375   9.295   9.166  11.200 -0.0862 -0.6883  0.0899
  895MOL0     C23376   9.427   9.174  11.164  0.4947 -0.0970 -0.2884
  895MOL0     C23377   9.464   9.128  11.036 -0.2229  0.8790 -0.4375
  895MOL0     C23378   9.602   9.123  11.007  0.0386  0.8206 -0.7092
  895MOL0     C23379   9.706   9.178  11.087 -0.2490 -0.5120 -0.6570
  895MOL0     O23380   9.830   9.168  11.031 -0.3708  0.2565  0.2638
  895MOL0     C23381   9.946   9.195  11.114  0.8414 -0.8899  0.5349
  895MOL0     C23382  10.071   9.214  11.040 -0.2706 -0.6625  0.3143
  895MOL0     C23383  10.192   9.210  11.134 -0.4284  0.0602  0.3969
  895MOL0     C23384  10.313   9.226  11.045 -0.2490 -0.0855 -1.0403
  895MOL0     C23385  10.423   9.286  11.138  0.1366  0.3075  1.1802
  895MOL0     C23386  10.559   9.276  11.069 -0.0799  0.3569  0.3833
  895MOL0     C23387  10.564   9.328  10.926  0.5502 -0.5170  0.2604
  895MOL0     C23388  10.705   9.364  10.890 -0.6610  0.2591  0.2656
  895MOL0     N23389  10.723   9.417  10.752 -0.2448 -0.6901  0.7401
  895MOL0     C23390  10.704   9.553  10.734  0.0212  1.2008 -0.9872
  895MOL0     C23391  10.742   9.574  10.604 -0.2364  0.0879 -0.5471
  895MOL0     C23392  10.757   9.705  10.540 -0.4734 -0.5121  0.4315
  895MOL0     C23393  10.634   9.742  10.457  0.1499  0.5243 -0.5573
  895MOL0     C23394  10.609   9.652  10.329  0.3528  0.7115 -0.6054
  895MOL0     C23395  10.726   9.649  10.233  0.7406  0.9680 -0.2745
  895MOL0     O23396  10.743   9.785  10.201  1.0770  0.4179 -0.2359
  895MOL0     C23397  10.865   9.822  10.147 -0.3555  1.4666  0.3541
  895MOL0     C23398  10.959   9.731  10.104 -0.5889 -0.3485  0.3971
  895MOL0     C23399  11.078   9.778  10.047  0.4601  0.9268 -0.1331
  895MOL0     C23400  11.157   9.671   9.987 -0.4991 -0.3483 -1.0040
  895MOL0     C23401  11.105   9.912  10.038 -0.1907 -0.1868 -0.7461
  895MOL0     C23402  11.239   9.967   9.987  0.6823 -0.4932  0.1679
  895MOL0     O23403  11.239  10.108   9.962 -0.6170  0.6920 -0.3022
  895MOL0     C23404  11.361  10.169   9.931  0.4840  0.1867  0.5103
  895MOL0     C23405  11.473  10.146  10.013  0.2102  0.4232  0.6208
  895MOL0     C23406  11.590  10.213   9.981  0.1910 -0.4758  0.2879
  895MOL0     C23407  11.607  10.293   9.869  0.5871  0.1338  0.4409
  895MOL0     O23408  11.726  10.344   9.827 -0.2958 -0.2280 -0.3599
  895MOL0     C23409  11.809  10.401   9.933  0.2065  0.2776 -0.6160
  895MOL0     C23410  11.923  10.490   9.881  0.4384 -0.1438 -1.2174
  895MOL0     C23411  12.053  10.411   9.857 -0.0294 -0.4394  0.5636
  895MOL0     C23412  12.175  10.493   9.884 -0.0212 -0.4421  0.4141
  895MOL0     C23413  12.318  10.426   9.860 -0.0173  0.1528  0.0489
  895MOL0     C23414  12.434  10.525   9.913  0.4851  0.5618  0.8531
  895MOL0     C23415  12.576  10.472   9.870 -0.5362 -0.7359  1.4391
  895MOL0     C23416  12.600  10.430   9.721  0.2828  0.0201 -0.1782
  895MOL0    Cl23417  12.547  10.573   9.624 -0.0339  0.1325 -0.3467
  895MOL0     C23418  11.488  10.321   9.787 -0.5388  0.9628 -0.3475
  895MOL0     C23419  11.373  10.257   9.823 -0.1591  0.8335  0.1083
  895MOL0     O23420  11.333   9.898   9.964 -0.1125 -0.2300 -0.8086
  895MOL0     C23421  11.008  10.004  10.088  0.1977 -0.4217 -0.0016
  895MOL0     C23422  10.891   9.952  10.133 -0.3242 -0.1730  0.6690
  895MOL0     N23423  10.798   9.462  10.553 -0.5305  0.6577 -0.5202
  895MOL0     N23424  10.775   9.360  10.636  0.2884 -0.3192  0.3615
  895MOL0     C23425   9.659   9.242  11.210  0.5844 -0.0547 -0.1648
  895MOL0     C23426   9.522   9.229  11.246 -0.2501 -0.0988  0.1202
  895MOL0     C23427   9.108   9.100  11.344 -0.6978  0.1730 -0.4650
  895MOL0     C23428   9.026   9.075  11.233 -0.5587 -0.1153  0.2929
  895MOL0     C23429   8.886   9.069  11.241  1.1194  0.1188 -0.6885
  895MOL0     C23430   8.824   9.109  11.360  0.7295 -0.6868  0.3271
  895MOL0     O23431   8.688   9.125  11.358 -0.2194  0.7393 -0.4401
  895MOL0     C23432   8.621   9.126  11.482  0.9067  0.3877 -0.0302
  895MOL0     C23433   8.468   9.111  11.448 -0.2610 -0.1946 -0.1670
  895MOL0     C23434   8.408   9.245  11.397 -0.7871  0.3499  0.0248
  895MOL0     C23435   8.280   9.220  11.317  0.5319 -0.3388  0.0693
  895MOL0     C23436   8.226   9.336  11.241 -0.6693 -1.0771 -0.7273
  895MOL0     C23437   8.169   9.442  11.208 -0.6130 -0.0127  0.1024
  895MOL0     C23438   8.911   9.132  11.470  0.5650  0.2365  0.1779
  895MOL0     C23439   9.046   9.118  11.469 -0.0468  0.3934  0.3084
  895MOL0     C23440   9.108   9.116  11.610 -0.3188  0.3908 -0.0033
  895MOL0     H23441   9.394   9.091  10.961  2.5101 -1.4431 -2.0654
  895MOL0     H23442   9.617   9.087  10.906  1.4614  1.8844 -0.9023
  895MOL0     H23443   9.966   9.126  11.196  0.9863  0.8533  2.0431
  895MOL0     H23444   9.925   9.288  11.168  2.5273  0.8977 -1.6786
  895MOL0     H23445  10.089   9.125  10.979 -2.5129 -0.3818 -0.8592
  895MOL0     H23446  10.079   9.307  10.985 -0.1259 -0.5941  0.4493
  895MOL0     H23447  10.188   9.284  11.215  2.2041 -1.2667  1.8538
  895MOL0     H23448  10.181   9.109  11.174 -0.4206 -0.4869 -0.9153
  895MOL0     H23449  10.342   9.127  11.010 -1.9570 -0.9069 -0.3016
  895MOL0     H23450  10.301   9.284  10.953  0.8428  1.1558 -0.4258
  895MOL0     H23451  10.423   9.226  11.230 -0.0662 -4.2092 -1.4860
  895MOL0     H23452  10.388   9.390  11.147 -1.9849 -0.2068 -0.2136
  895MOL0     H23453  10.627   9.327  11.139 -1.9670 -0.5165  3.0219
  895MOL0     H23454  10.589   9.171  11.060  1.1446  0.7795 -0.7292
  895MOL0     H23455  10.504   9.420  10.934  2.0644  0.4012  1.5309
  895MOL0     H23456  10.518   9.267  10.848  0.1417  1.7407 -1.3945
  895MOL0     H23457  10.745   9.433  10.964 -2.5842 -0.0627  1.6573
  895MOL0     H23458  10.751   9.265  10.887  2.0008  1.4186 -2.1023
  895MOL0     H23459  10.660   9.627  10.800 -0.3272 -0.6996  1.0408
  895MOL0     H23460  10.846   9.707  10.477  0.4579 -1.1372  1.6657
  895MOL0     H23461  10.773   9.779  10.619  2.4075 -0.2747 -0.2556
  895MOL0     H23462  10.547   9.719  10.520  1.2992 -2.2710  0.1404
  895MOL0     H23463  10.631   9.850  10.438  4.9571  1.0110  0.1214
  895MOL0     H23464  10.582   9.546  10.341  0.6598  0.8334  1.5368
  895MOL0     H23465  10.526   9.688  10.268 -0.9468 -2.9940 -1.3169
  895MOL0     H23466  10.811   9.613  10.291  0.1579  1.0692  0.6661
  895MOL0     H23467  10.707   9.581  10.149  2.8103 -0.0570  0.0154
  895MOL0     H23468  10.936   9.625  10.108 -1.0374 -0.3462 -1.4461
  895MOL0     H23469  11.232   9.698   9.912  0.1836 -0.7561 -0.4710
  895MOL0     H23470  11.095   9.588   9.950 -1.7069  0.4296 -0.7721
  895MOL0     H23471  11.214   9.643  10.076  0.7815 -0.8804 -1.9606
  895MOL0     H23472  11.469  10.072  10.092 -0.9238 -0.8013 -0.5390
  895MOL0     H23473  11.659  10.213  10.065 -0.5587 -0.0776  0.9097
  895MOL0     H23474  11.740  10.461   9.993  2.3121  1.1547  1.0836
  895MOL0     H23475  11.848  10.311   9.980  1.8771 -0.0596 -2.5126
  895MOL0     H23476  11.888  10.547   9.795 -1.8323 -1.0202 -0.9583
  895MOL0     H23477  11.934  10.561   9.963 -0.0470 -1.3485 -0.0518
  895MOL0     H23478  12.061  10.385   9.751 -2.5569  0.4669  0.0711
  895MOL0     H23479  12.058  10.330   9.931 -0.4170  0.0583  1.1466
  895MOL0     H23480  12.160  10.535   9.984 -2.5247  1.9688 -0.8434
  895MOL0     H23481  12.181  10.585   9.825 -0.9937 -0.2112  0.6599
  895MOL0     H23482  12.332  10.331   9.913  0.5577  0.6786  0.8460
  895MOL0     H23483  12.334  10.401   9.754  0.1539 -0.1584  0.1462
  895MOL0     H23484  12.425  10.556  10.018 -2.8379  2.6345  0.1259
  895MOL0     H23485  12.419  10.613   9.850  0.5774 -0.8936 -1.2826
  895MOL0     H23486  12.606  10.387   9.932  0.8569 -0.2614  1.4626
  895MOL0     H23487  12.660  10.539   9.892 -0.8496  0.4392 -0.7052
  895MOL0     H23488  12.540  10.342   9.696  1.1903 -0.7137  0.1533
  895MOL0     H23489  12.704  10.402   9.703 -0.2208 -2.1217 -0.0147
  895MOL0     H23490  11.494  10.377   9.695  1.8949 -1.4748 -1.8322
  895MOL0     H23491  11.287  10.287   9.763  0.9287 -0.9036 -2.4793
  895MOL0     H23492  11.018  10.111  10.075  0.5756 -0.6116 -1.4472
  895MOL0     H23493  10.815  10.026  10.157 -0.0652  0.2845  0.0701
  895MOL0     H23494   9.722   9.288  11.285 -0.4630  1.1195  0.0251
  895MOL0     H23495   9.501   9.278  11.340  0.7548 -0.0936  0.3576
  895MOL0     H23496   9.059   9.046  11.134 -1.2596  1.4976 -0.4588
  895MOL0     H23497   8.815   9.039  11.165 -0.9965 -0.1044  1.2635
  895MOL0     H23498   8.654   9.039  11.540  0.4268  0.0045 -0.3254
  895MOL0     H23499   8.638   9.219  11.539  2.4489 -1.1498  2.2006
  895MOL0     H23500   8.410   9.089  11.538 -1.4553  1.4457 -0.4889
  895MOL0     H23501   8.458   9.028  11.378  1.2263 -0.3851 -0.1843
  895MOL0     H23502   8.383   9.314  11.478 -1.4624  1.3185 -0.9919
  895MOL0     H23503   8.480   9.295  11.332 -0.4867  1.3385  1.0969
  895MOL0     H23504   8.202   9.194  11.389  0.2687  0.7957  0.2076
  895MOL0     H23505   8.290   9.136  11.247  1.2929  0.6480 -1.0543
  895MOL0     H23506   8.121   9.531  11.172  0.9100  1.4967  1.6148
  895MOL0     H23507   8.866   9.148  11.567  0.8042 -2.4523  0.7923
  895MOL0     H23508   9.151   9.216  11.619  1.1950 -0.1062 -1.2800
  895MOL0     H23509   9.029   9.099  11.684 -0.1816  0.2557  0.1133
  895MOL0     H23510   9.189   9.043  11.613  0.5874  1.3541 -0.4991
  896MOL0     O23511   8.083   1.204   9.999 -0.3134 -0.3785  0.1176
  896MOL0     C23512   8.162   1.127   9.938  0.6297  0.3286 -1.2933
  896MOL0     O23513   8.145   0.995   9.913 -0.1480 -1.1957 -0.7040
  896MOL0     C23514   8.020   0.945   9.934 -0.0333 -0.2398  0.0412
  896MOL0     C23515   7.900   0.998   9.884  1.2549 -0.2262 -0.0379
  896MOL0     C23516   7.782   0.933   9.910 -0.0307 -0.0091 -0.6455
  896MOL0     C23517   7.780   0.805   9.967 -0.0769  0.4812  0.3209
  896MOL0     O23518   7.668   0.721   9.985  1.1206 -0.2339 -0.1747
  896MOL0     C23519   7.566   0.782  10.069 -0.2781  0.6693 -0.1443
  896MOL0     C23520   7.426   0.735  10.023 -0.4523  0.0854  0.1361
  896MOL0     C23521   7.422   0.576  10.021 -0.0450 -0.4322  0.1538
  896MOL0     C23522   7.280   0.544   9.982 -0.2810  1.0571  0.0339
  896MOL0     C23523   7.276   0.395   9.938 -0.3609  0.3918 -0.4190
  896MOL0     C23524   7.130   0.355   9.939  0.1906 -0.0157 -0.6884
  896MOL0     C23525   7.079   0.300  10.073  0.6818 -0.0347  0.0761
  896MOL0     C23526   6.927   0.307  10.092 -0.3927  0.1431 -0.6838
  896MOL0     N23527   6.852   0.222   9.995 -0.2221 -0.3613 -0.2200
  896MOL0     C23528   6.844   0.087  10.008 -0.5480 -0.6254 -0.6973
  896MOL0     C23529   6.757   0.034   9.908 -0.4292  0.7134 -0.2090
  896MOL0     C23530   6.709  -0.110   9.882 -0.1934 -0.0901  0.5057
  896MOL0     C23531   6.614  -0.150   9.992 -1.1538  1.0813 -0.3050
  896MOL0     C23532   6.557  -0.293   9.958 -0.3790 -0.0067  0.3507
  896MOL0     C23533   6.482  -0.372  10.077  0.0802  0.1283 -0.3442
  896MOL0     O23534   6.451  -0.508  10.056  0.8774 -0.6605 -0.3382
  896MOL0     C23535   6.323  -0.532  10.000 -0.3796 -0.4793  0.3216
  896MOL0     C23536   6.255  -0.646  10.043  0.9260 -0.7127  0.0250
  896MOL0     C23537   6.135  -0.687   9.983  0.1839  0.2675  0.1196
  896MOL0     C23538   6.092  -0.830  10.012 -0.0099  0.9208  1.1277
  896MOL0     C23539   6.062  -0.612   9.889 -0.3123  0.6081  0.2682
  896MOL0     C23540   5.936  -0.650   9.817  0.0974  0.1023  0.5811
  896MOL0     O23541   5.897  -0.558   9.717 -0.7538  0.3634 -0.3054
  896MOL0     C23542   5.773  -0.564   9.660 -0.1288 -0.0291 -0.1605
  896MOL0     C23543   5.708  -0.682   9.616  0.3420 -0.6183  1.6186
  896MOL0     C23544   5.586  -0.675   9.540 -0.2921  0.4896 -0.3048
  896MOL0     C23545   5.516  -0.556   9.529 -0.9117  0.6212  1.1240
  896MOL0     O23546   5.386  -0.544   9.481 -0.1473 -0.5413  0.6530
  896MOL0     C23547   5.321  -0.671   9.463  1.5674  0.1570 -0.6566
  896MOL0     C23548   5.170  -0.647   9.438 -0.2415  0.0552  0.1535
  896MOL0     C23549   5.100  -0.792   9.424  0.1356  0.5610  0.4931
  896MOL0     C23550   4.946  -0.772   9.406  0.3036 -1.0389 -0.0040
  896MOL0     C23551   4.894  -0.911   9.385 -0.4145 -0.3914 -0.6971
  896MOL0     C23552   4.927  -0.957   9.238  0.2264 -0.6340 -0.6831
  896MOL0     C23553   4.844  -1.083   9.212  0.5107 -0.2264 -0.2967
  896MOL0     C23554   4.712  -1.042   9.154 -0.2077  0.8496  0.0087
  896MOL0    Cl23555   4.732  -0.987   8.986 -0.1136 -0.2181 -0.2860
  896MOL0     C23556   5.584  -0.436   9.562 -0.1595  0.1113  0.0171
  896MOL0     C23557   5.705  -0.445   9.629 -0.1330  0.3460  0.0334
  896MOL0     O23558   5.871  -0.750   9.851 -0.1240 -0.3629  0.3676
  896MOL0     C23559   6.130  -0.489   9.854  0.5019  0.7413 -0.0228
  896MOL0     C23560   6.248  -0.450   9.908 -0.8334 -0.5981 -0.4632
  896MOL0     N23561   6.715   0.148   9.845 -0.6745  0.9251  0.1886
  896MOL0     N23562   6.763   0.254   9.895 -0.0647  0.0074  0.0986
  896MOL0     C23563   7.900   0.755  10.016 -0.2426  0.1181  0.0959
  896MOL0     C23564   8.019   0.824  10.001  0.6842  0.1340  0.6337
  896MOL0     C23565   8.284   1.183   9.882 -0.1773  0.5551  0.3598
  896MOL0     C23566   8.395   1.098   9.878  0.3879 -0.1840  0.4050
  896MOL0     C23567   8.510   1.142   9.818  0.2189 -0.3017 -0.6466
  896MOL0     C23568   8.529   1.273   9.785  0.7670  0.5185 -0.2419
  896MOL0     O23569   8.662   1.316   9.743 -0.3741  0.1976  0.1149
  896MOL0     C23570   8.662   1.378   9.611  0.4831  0.4590 -0.5089
  896MOL0     C23571   8.722   1.279   9.507  0.1580  0.0132  0.5747
  896MOL0     C23572   8.832   1.184   9.550 -1.4460  0.0048  0.2564
  896MOL0     C23573   8.887   1.097   9.432 -0.4819  0.4688  0.3103
  896MOL0     C23574   8.988   0.998   9.494 -0.0134  0.3238 -0.2557
  896MOL0     C23575   9.064   0.912   9.527 -0.1244  0.1183 -0.5506
  896MOL0     C23576   8.425   1.360   9.792  0.1737 -0.9452 -0.2172
  896MOL0     C23577   8.305   1.318   9.846  1.1186  0.1047 -0.4992
  896MOL0     C23578   8.206   1.430   9.874  0.0704  0.4707  0.6396
  896MOL0     H23579   7.891   1.093   9.831 -1.7328  0.1841  1.0008
  896MOL0     H23580   7.681   0.964   9.886 -0.8652 -0.7205  1.6495
  896MOL0     H23581   7.566   0.891  10.064  1.7913  0.8479  2.1427
  896MOL0     H23582   7.584   0.747  10.171  0.6269 -0.0343 -0.5309
  896MOL0     H23583   7.349   0.778  10.087 -1.1624  2.7427 -2.3075
  896MOL0     H23584   7.402   0.770   9.922 -0.5970  0.9790  0.4692
  896MOL0     H23585   7.495   0.535   9.950 -2.2288  1.0321 -3.1766
  896MOL0     H23586   7.434   0.541  10.125 -0.5392  3.2678  1.5947
  896MOL0     H23587   7.213   0.550  10.068  1.5239  1.5580  1.4606
  896MOL0     H23588   7.248   0.604   9.896 -3.0317 -0.2085  0.0517
  896MOL0     H23589   7.323   0.336  10.016 -4.8552  0.3769  2.6321
  896MOL0     H23590   7.320   0.374   9.840 -1.0854 -1.3909 -0.3937
  896MOL0     H23591   7.066   0.437   9.907  2.2235  1.2773 -1.6377
  896MOL0     H23592   7.115   0.282   9.859  1.5769 -1.5275  0.3591
  896MOL0     H23593   7.122   0.347  10.162  0.4925  0.3224 -0.0188
  896MOL0     H23594   7.101   0.193  10.080 -2.7631 -0.7895  1.0069
  896MOL0     H23595   6.914   0.276  10.196  2.5226 -0.4434 -0.4129
  896MOL0     H23596   6.916   0.416  10.091  0.1750  0.3013  2.0239
  896MOL0     H23597   6.890   0.021  10.081  1.7307  1.3320 -0.2336
  896MOL0     H23598   6.797  -0.172   9.868  0.4647  0.6857  1.0931
  896MOL0     H23599   6.654  -0.110   9.788  0.1035 -0.1579  0.3325
  896MOL0     H23600   6.674  -0.152  10.084  0.9175  0.2502 -1.6241
  896MOL0     H23601   6.526  -0.086  10.008  0.3294  3.0160  0.6189
  896MOL0     H23602   6.485  -0.277   9.878 -1.1014 -0.1568  0.9600
  896MOL0     H23603   6.642  -0.355   9.928  1.2048  2.7699 -1.3314
  896MOL0     H23604   6.552  -0.377  10.160  1.5340 -1.6824 -1.5847
  896MOL0     H23605   6.393  -0.317  10.108  1.0629  1.4896  0.2238
  896MOL0     H23606   6.308  -0.715  10.108  0.0641 -0.7475  0.7075
  896MOL0     H23607   6.087  -0.895   9.925 -0.0982  0.6896  1.3033
  896MOL0     H23608   5.994  -0.845  10.057 -1.6329 -2.2149 -2.8224
  896MOL0     H23609   6.156  -0.878  10.088  0.2108 -2.9313 -1.2154
  896MOL0     H23610   5.756  -0.779   9.628  1.3346 -0.8643 -2.5684
  896MOL0     H23611   5.551  -0.770   9.503  1.0851 -3.3978  6.6254
  896MOL0     H23612   5.355  -0.730   9.377 -3.2499 -0.5114 -2.4254
  896MOL0     H23613   5.330  -0.729   9.555  3.0976  0.9093 -0.3039
  896MOL0     H23614   5.132  -0.589   9.522  1.0905  0.3515  0.5677
  896MOL0     H23615   5.154  -0.587   9.348 -2.0954  1.0818  1.1268
  896MOL0     H23616   5.119  -0.857   9.510 -0.0060  0.1320  0.2013
  896MOL0     H23617   5.148  -0.832   9.334  2.2398  1.0188  1.3558
  896MOL0     H23618   4.921  -0.711   9.318 -1.3523  0.0858  1.1806
  896MOL0     H23619   4.893  -0.729   9.492  2.3846  2.3728 -0.2413
  896MOL0     H23620   4.930  -0.975   9.466  2.2298  0.8264 -0.8146
  896MOL0     H23621   4.785  -0.914   9.395 -0.4142  2.2971  1.2828
  896MOL0     H23622   5.033  -0.963   9.214  1.1408  4.4653  0.7801
  896MOL0     H23623   4.894  -0.877   9.170 -0.6214 -1.1376 -0.8766
  896MOL0     H23624   4.830  -1.135   9.307  0.0195  2.7292  1.3651
  896MOL0     H23625   4.901  -1.148   9.145  0.4439 -0.8200  0.2037
  896MOL0     H23626   4.664  -0.972   9.223 -1.0868 -1.2719  1.6417
  896MOL0     H23627   4.644  -1.127   9.145 -0.0599  0.5959  1.1888
  896MOL0     H23628   5.535  -0.344   9.535  0.6393  0.2793 -0.9004
  896MOL0     H23629   5.753  -0.350   9.651  1.2885  0.3253 -2.6663
  896MOL0     H23630   6.079  -0.428   9.780 -0.5983 -2.6702 -2.3546
  896MOL0     H23631   6.278  -0.353   9.870 -3.2202  1.0342  1.5266
  896MOL0     H23632   7.908   0.660  10.068  1.2527  1.1158  1.8063
  896MOL0     H23633   8.112   0.780  10.034  2.4922  1.1153 -2.7033
  896MOL0     H23634   8.392   0.993   9.905  1.8363 -0.5472 -0.6996
  896MOL0     H23635   8.597   1.079   9.808  0.0870 -1.5399  3.8476
  896MOL0     H23636   8.565   1.421   9.584  0.5477 -1.2213 -3.9677
  896MOL0     H23637   8.741   1.453   9.617  3.0973 -2.1954  1.0487
  896MOL0     H23638   8.760   1.334   9.420 -0.3873 -2.0609 -1.0335
  896MOL0     H23639   8.634   1.223   9.476  1.1298 -2.0777  1.3982
  896MOL0     H23640   8.910   1.239   9.605 -0.5095 -0.1090 -0.9196
  896MOL0     H23641   8.790   1.116   9.624  1.8620  0.1548  2.5161
  896MOL0     H23642   8.926   1.169   9.360  2.0789  0.1675  1.2754
  896MOL0     H23643   8.804   1.041   9.390  0.7612 -0.3064 -1.2259
  896MOL0     H23644   9.150   0.850   9.547 -0.1159  0.0654 -0.7416
  896MOL0     H23645   8.444   1.465   9.773 -2.7713  0.4827  3.3601
  896MOL0     H23646   8.185   1.426   9.981 -0.4614  0.5459  0.5393
  896MOL0     H23647   8.247   1.528   9.847 -0.6432  0.7621  0.5916
  896MOL0     H23648   8.114   1.407   9.820  0.9527 -0.3914 -0.5393
  897MOL0     O23649   2.073   0.839   1.341  0.1409  0.1239 -0.7696
  897MOL0     C23650   1.989   0.750   1.353  0.2376  0.3720 -0.2282
  897MOL0     O23651   1.856   0.770   1.341 -0.2778  0.3491 -0.1903
  897MOL0     C23652   1.787   0.874   1.290 -0.1253 -0.7353 -0.1760
  897MOL0     C23653   1.826   0.986   1.213 -0.1610 -0.5944 -0.1331
  897MOL0     C23654   1.729   1.081   1.170 -0.5100 -0.7065 -0.5219
  897MOL0     C23655   1.593   1.074   1.210 -0.5046  0.5343  0.2934
  897MOL0     O23656   1.516   1.183   1.176  0.5184  0.4816  0.3282
  897MOL0     C23657   1.373   1.179   1.219 -0.1335 -0.5836 -0.0994
  897MOL0     C23658   1.295   1.132   1.090 -0.4470 -0.0110 -1.1575
  897MOL0     C23659   1.151   1.191   1.095  0.0094 -0.2921  0.3210
  897MOL0     C23660   1.046   1.136   0.988  0.0870  0.1236  0.1605
  897MOL0     C23661   1.003   1.227   0.876 -0.7635  0.2569 -0.8566
  897MOL0     C23662   1.123   1.286   0.816  0.9988 -0.5984  0.8412
  897MOL0     C23663   1.086   1.371   0.694 -0.3054 -0.1787 -0.2123
  897MOL0     C23664   1.026   1.508   0.754  0.3595  1.5074  0.4778
  897MOL0     N23665   1.118   1.617   0.750 -0.6653  1.0714  0.7700
  897MOL0     C23666   1.175   1.695   0.859  0.7567  0.1722 -0.8129
  897MOL0     C23667   1.238   1.790   0.782 -0.5576  0.4991 -0.4909
  897MOL0     C23668   1.327   1.903   0.841  0.5135 -0.0958 -0.1255
  897MOL0     C23669   1.445   1.851   0.914 -0.8347  0.3414 -0.1400
  897MOL0     C23670   1.576   1.863   0.830  0.3367  0.8108 -0.4720
  897MOL0     C23671   1.585   1.785   0.698 -0.4015 -0.4148 -0.0049
  897MOL0     O23672   1.634   1.646   0.729  0.0355 -0.2477 -0.1970
  897MOL0     C23673   1.556   1.541   0.693  0.6246  0.4021 -0.0302
  897MOL0     C23674   1.488   1.542   0.569  0.5226  0.7241  0.2833
  897MOL0     C23675   1.423   1.417   0.529  0.0533  0.3331 -0.3991
  897MOL0     C23676   1.342   1.423   0.401  0.5565 -0.1690 -0.0343
  897MOL0     C23677   1.420   1.304   0.621 -0.0516 -0.2033  0.3282
  897MOL0     C23678   1.337   1.174   0.587 -0.3980  0.2494 -1.5603
  897MOL0     O23679   1.372   1.073   0.670  0.9883  0.2309  0.1234
  897MOL0     C23680   1.337   0.941   0.645  0.0004 -0.1336  0.5639
  897MOL0     C23681   1.348   0.860   0.758  0.6249 -0.3086  0.2013
  897MOL0     C23682   1.293   0.727   0.765 -0.3364 -0.7890  0.8002
  897MOL0     C23683   1.243   0.671   0.649 -0.1086 -0.2334  1.2844
  897MOL0     O23684   1.217   0.534   0.643 -0.1353  0.0048  0.2168
  897MOL0     C23685   1.314   0.458   0.560  0.2920 -0.0253 -0.0375
  897MOL0     C23686   1.450   0.472   0.619 -0.3723  0.4563  0.5744
  897MOL0     C23687   1.554   0.391   0.532 -0.3137  0.2487 -0.4965
  897MOL0     C23688   1.695   0.408   0.580  0.3085  1.0228  0.0239
  897MOL0     C23689   1.795   0.327   0.479 -0.0575  0.5072 -0.1014
  897MOL0     C23690   1.938   0.341   0.516 -0.4460  1.4570  0.1396
  897MOL0     C23691   1.992   0.480   0.518  0.5606  0.1919 -0.4430
  897MOL0     C23692   2.145   0.474   0.540 -0.3308 -0.1826 -0.8495
  897MOL0    Cl23693   2.193   0.392   0.690 -0.0211  0.5420 -0.4561
  897MOL0     C23694   1.241   0.739   0.534  0.2507  0.0434 -0.0062
  897MOL0     C23695   1.278   0.886   0.533  0.1332  0.5505  0.0913
  897MOL0     O23696   1.253   1.176   0.502  0.9922 -0.0862 -0.5110
  897MOL0     C23697   1.498   1.299   0.739 -0.5463 -0.2993  0.3373
  897MOL0     C23698   1.565   1.421   0.769  0.9156 -0.0220 -0.0642
  897MOL0     N23699   1.217   1.778   0.650 -0.1140 -0.5809 -0.0975
  897MOL0     N23700   1.155   1.672   0.633  0.3660  0.3894 -0.1581
  897MOL0     C23701   1.552   0.964   1.280  0.1082 -0.3369  0.1405
  897MOL0     C23702   1.652   0.866   1.319 -0.0697 -1.3800 -0.4476
  897MOL0     C23703   2.029   0.604   1.365 -0.7972  0.0635  0.4378
  897MOL0     C23704   1.926   0.511   1.360 -0.7059 -0.8414  0.5730
  897MOL0     C23705   1.952   0.379   1.387  0.3170  0.9171  0.8197
  897MOL0     C23706   2.081   0.321   1.390  0.4586 -0.4235  0.1750
  897MOL0     O23707   2.109   0.187   1.399  0.4152 -0.7948  1.1699
  897MOL0     C23708   2.006   0.093   1.448 -0.1549  0.0434  0.9297
  897MOL0     C23709   2.071  -0.036   1.498  0.7669  0.1359  0.3601
  897MOL0     C23710   2.002  -0.093   1.630  0.0126  0.5053  0.6007
  897MOL0     C23711   2.067  -0.218   1.687  0.3897 -0.5611 -0.0207
  897MOL0     C23712   1.997  -0.338   1.650  0.1914 -0.6100  0.2240
  897MOL0     C23713   1.950  -0.445   1.620  0.0107 -0.0760  0.0446
  897MOL0     C23714   2.185   0.414   1.383  0.0054 -0.8183 -0.1030
  897MOL0     C23715   2.161   0.557   1.389  0.2633  0.6729  1.1865
  897MOL0     C23716   2.281   0.641   1.417 -0.2164  0.6192 -0.0923
  897MOL0     H23717   1.929   0.993   1.178  0.0387 -0.8942  0.3786
  897MOL0     H23718   1.760   1.174   1.125  0.9808 -1.0868 -0.3382
  897MOL0     H23719   1.353   1.282   1.249  0.0079 -0.7212  0.4843
  897MOL0     H23720   1.350   1.114   1.304  1.1231 -1.8799 -0.7048
  897MOL0     H23721   1.347   1.155   0.997  2.5450 -2.3071 -0.2201
  897MOL0     H23722   1.278   1.024   1.103  1.2150  0.0496  4.8759
  897MOL0     H23723   1.108   1.170   1.193 -1.1349  0.2333 -0.0503
  897MOL0     H23724   1.171   1.298   1.090 -0.2329 -0.2970 -1.4213
  897MOL0     H23725   1.095   1.045   0.952  2.7913 -0.1793  3.9736
  897MOL0     H23726   0.959   1.109   1.048  2.1048 -2.7152  2.0929
  897MOL0     H23727   0.940   1.309   0.913 -0.3668 -0.3591  1.2639
  897MOL0     H23728   0.949   1.169   0.800  2.6492 -1.3774 -2.2388
  897MOL0     H23729   1.173   1.351   0.888 -0.4298  0.2998  1.0539
  897MOL0     H23730   1.196   1.205   0.803 -0.4972 -2.3301  2.4671
  897MOL0     H23731   1.011   1.317   0.636 -1.3923  2.1589 -1.1258
  897MOL0     H23732   1.174   1.390   0.632 -1.4612 -0.8478 -2.1707
  897MOL0     H23733   0.936   1.515   0.693  1.0931 -1.0890 -1.0708
  897MOL0     H23734   0.993   1.501   0.858  1.1038 -0.7214  0.6274
  897MOL0     H23735   1.176   1.679   0.966 -0.7003 -0.0091 -0.8145
  897MOL0     H23736   1.266   1.958   0.914  1.2621  1.8700 -0.9125
  897MOL0     H23737   1.361   1.978   0.769  0.4056  1.1079  1.0249
  897MOL0     H23738   1.449   1.904   1.010 -1.6577  2.1983 -1.0863
  897MOL0     H23739   1.443   1.748   0.952  1.1138 -0.0300 -0.9270
  897MOL0     H23740   1.583   1.972   0.821 -5.9322  1.5727 -0.8066
  897MOL0     H23741   1.664   1.837   0.890  0.4609  1.4951 -0.3540
  897MOL0     H23742   1.488   1.788   0.646  0.7598  0.2744 -2.2744
  897MOL0     H23743   1.659   1.829   0.630 -1.5541  2.4438  0.4309
  897MOL0     H23744   1.481   1.634   0.511  1.6148  2.2935  2.5003
  897MOL0     H23745   1.373   1.344   0.331  1.3732 -0.0282  0.1591
  897MOL0     H23746   1.355   1.525   0.364  0.2651  0.8723  2.5525
  897MOL0     H23747   1.234   1.422   0.416  0.3230  3.2201 -0.6967
  897MOL0     H23748   1.382   0.909   0.848 -2.6837  1.4706  0.6561
  897MOL0     H23749   1.298   0.662   0.853  1.8791  0.1534  1.4495
  897MOL0     H23750   1.292   0.351   0.566 -3.8582  0.7345  4.8673
  897MOL0     H23751   1.326   0.492   0.457  1.5078  2.3226  0.7939
  897MOL0     H23752   1.489   0.573   0.629  0.4824  0.3473 -1.2791
  897MOL0     H23753   1.452   0.428   0.719  1.3931  0.7529  0.6976
  897MOL0     H23754   1.542   0.436   0.433 -1.4765 -0.0946 -0.5158
  897MOL0     H23755   1.530   0.284   0.539  3.6127 -0.7550  0.3333
  897MOL0     H23756   1.710   0.366   0.680  0.3565  2.7847  0.7971
  897MOL0     H23757   1.720   0.514   0.584  1.2816  0.8389 -0.6890
  897MOL0     H23758   1.778   0.219   0.480  1.3343  0.2067  3.2089
  897MOL0     H23759   1.776   0.360   0.376 -0.4552  1.7304  0.3459
  897MOL0     H23760   1.995   0.282   0.444 -0.3478 -0.6799  1.8519
  897MOL0     H23761   1.939   0.294   0.615 -1.2212  0.7017 -0.2004
  897MOL0     H23762   1.951   0.549   0.592  0.3435  0.2344 -0.6004
  897MOL0     H23763   1.969   0.518   0.418 -1.6377  3.5968  1.1775
  897MOL0     H23764   2.190   0.574   0.541  1.5708 -0.9671  0.7594
  897MOL0     H23765   2.199   0.418   0.463  2.7957  0.7760  0.4762
  897MOL0     H23766   1.199   0.687   0.449  2.4900  0.0023 -1.1558
  897MOL0     H23767   1.266   0.930   0.434  1.5377  0.5210 -0.1052
  897MOL0     H23768   1.503   1.206   0.795  1.5075 -0.8797 -0.6921
  897MOL0     H23769   1.626   1.415   0.859  0.0690  3.3697  0.9045
  897MOL0     H23770   1.453   0.932   1.309  0.6317 -2.2983 -0.1040
  897MOL0     H23771   1.613   0.789   1.384 -0.7912 -1.1307 -0.5717
  897MOL0     H23772   1.821   0.537   1.348 -0.0923  1.6184  0.0631
  897MOL0     H23773   1.871   0.308   1.378  0.5798  0.8521 -1.6339
  897MOL0     H23774   1.942   0.147   1.519  1.5969  1.1078  1.7839
  897MOL0     H23775   1.943   0.074   1.361  1.7986  2.6487 -1.2405
  897MOL0     H23776   2.176  -0.015   1.521  0.7803  1.4295 -0.7252
  897MOL0     H23777   2.072  -0.104   1.413 -0.9292  3.0362 -2.2066
  897MOL0     H23778   2.008  -0.009   1.700 -6.0310  1.5820  0.3341
  897MOL0     H23779   1.896  -0.115   1.614  0.1426  0.5488 -0.3779
  897MOL0     H23780   2.066  -0.204   1.796  3.4355 -1.8698  0.2706
  897MOL0     H23781   2.174  -0.213   1.667  0.8940  1.6839  2.7245
  897MOL0     H23782   1.909  -0.540   1.593 -0.5722 -0.2497  1.4298
  897MOL0     H23783   2.286   0.376   1.393  0.9645  2.0386  2.6581
  897MOL0     H23784   2.259   0.711   1.497 -0.5163 -0.8931  1.1982
  897MOL0     H23785   2.362   0.569   1.435  2.5056  3.1113 -1.4664
  897MOL0     H23786   2.318   0.703   1.335  0.0474  2.3884  1.3153
  898MOL0     O23787   6.544  10.826   7.171 -0.6048 -0.2734  0.1604
  898MOL0     C23788   6.566  10.708   7.194  0.5657  0.2942  0.2138
  898MOL0     O23789   6.648  10.655   7.290  0.5272 -0.0656 -0.0391
  898MOL0     C23790   6.711  10.742   7.381 -0.3826  1.1643  0.1742
  898MOL0     C23791   6.835  10.693   7.427 -0.0161 -1.2259 -0.5335
  898MOL0     C23792   6.905  10.765   7.526 -0.2024  0.0825 -0.6390
  898MOL0     C23793   6.864  10.888   7.575  0.2477 -1.0185  0.5424
  898MOL0     O23794   6.956  10.954   7.652 -0.4290  0.1406  0.7556
  898MOL0     C23795   6.929  11.094   7.686 -0.6789  0.8903  0.0696
  898MOL0     C23796   7.015  11.130   7.805  0.9804  0.0210 -0.2825
  898MOL0     C23797   6.960  11.056   7.920 -0.4934 -0.2778 -0.0473
  898MOL0     C23798   7.084  10.995   7.999  1.0783 -0.2686 -0.2731
  898MOL0     C23799   7.147  11.114   8.077 -0.8693 -0.3433  0.5418
  898MOL0     C23800   7.250  11.099   8.184 -0.0714 -0.5105 -0.4633
  898MOL0     C23801   7.353  10.981   8.148 -0.1654 -0.4474  0.4153
  898MOL0     C23802   7.440  10.965   8.272 -0.3847 -0.0933 -0.0191
  898MOL0     N23803   7.561  10.889   8.257  0.0289  0.0621  0.1514
  898MOL0     C23804   7.699  10.928   8.274 -0.1460 -0.2097 -0.2098
  898MOL0     C23805   7.772  10.814   8.256 -0.2418  0.0628 -0.2197
  898MOL0     C23806   7.919  10.789   8.259  0.2875 -0.4990 -0.5359
  898MOL0     C23807   7.989  10.814   8.132  0.0223  0.3194  0.1529
  898MOL0     C23808   7.975  10.700   8.032  0.3227  0.5735  0.1907
  898MOL0     C23809   8.067  10.722   7.917 -0.2872  0.4535  0.5988
  898MOL0     O23810   8.203  10.710   7.964  0.8357  0.3695 -0.3169
  898MOL0     C23811   8.305  10.723   7.883 -0.2699  0.0287 -0.5482
  898MOL0     C23812   8.432  10.696   7.939 -0.1950 -0.3702  0.6321
  898MOL0     C23813   8.560  10.716   7.870  0.4776  0.3580 -0.1933
  898MOL0     C23814   8.686  10.690   7.952  1.0938 -0.1732  0.3679
  898MOL0     C23815   8.556  10.768   7.736  0.7403 -1.1075 -0.4830
  898MOL0     C23816   8.675  10.797   7.662 -0.9089  0.4893  1.1160
  898MOL0     O23817   8.806  10.787   7.716  0.3587 -0.6275 -0.3948
  898MOL0     C23818   8.918  10.796   7.648 -0.2402 -0.2246 -0.2183
  898MOL0     C23819   9.021  10.857   7.714 -0.0211 -0.6360 -0.6139
  898MOL0     C23820   9.142  10.870   7.651  0.4224 -0.3013  1.1860
  898MOL0     C23821   9.170  10.814   7.527 -0.6180 -0.3199 -0.5863
  898MOL0     O23822   9.293  10.836   7.469 -0.0883  0.5040 -0.0201
  898MOL0     C23823   9.353  10.702   7.434 -0.0959 -0.3016  0.2302
  898MOL0     C23824   9.489  10.741   7.378  0.0487  0.2050 -0.1685
  898MOL0     C23825   9.583  10.755   7.496 -0.1319 -1.0751 -0.7170
  898MOL0     C23826   9.695  10.838   7.449 -0.7765  1.2709  0.7548
  898MOL0     C23827   9.783  10.773   7.339 -0.9212 -0.3815  0.3426
  898MOL0     C23828   9.900  10.866   7.300  0.6359 -0.3024  0.2749
  898MOL0     C23829   9.986  10.927   7.422  0.3415  0.0989  0.1260
  898MOL0     C23830  10.056  10.832   7.521  0.3732 -0.2980  0.1337
  898MOL0    Cl23831  10.172  10.718   7.438  0.4639 -0.4246 -0.1456
  898MOL0     C23832   9.069  10.746   7.462  0.8370  1.0545  0.3112
  898MOL0     C23833   8.939  10.740   7.522 -2.2108 -0.1324  0.3232
  898MOL0     O23834   8.654  10.836   7.542  0.8918  0.9254 -0.4687
  898MOL0     C23835   8.431  10.778   7.674 -0.3682 -0.4312 -0.3188
  898MOL0     C23836   8.312  10.770   7.752 -0.3173  0.2816 -0.0494
  898MOL0     N23837   7.685  10.708   8.232 -0.7905 -0.4255 -0.2230
  898MOL0     N23838   7.566  10.753   8.241 -0.1252  0.4053  0.1596
  898MOL0     C23839   6.743  10.936   7.521  0.6018  0.2407  0.6315
  898MOL0     C23840   6.669  10.862   7.429 -1.1468  0.3593  0.0922
  898MOL0     C23841   6.498  10.616   7.115 -0.6376  0.0078  0.3708
  898MOL0     C23842   6.468  10.486   7.165 -0.4730 -1.1198  0.5147
  898MOL0     C23843   6.400  10.388   7.103  0.6292 -0.2408  0.5781
  898MOL0     C23844   6.353  10.414   6.978 -0.2773  0.6670 -0.5248
  898MOL0     O23845   6.278  10.328   6.904  0.1803  0.0234 -0.0079
  898MOL0     C23846   6.291  10.186   6.922 -0.0136 -0.7373  0.0820
  898MOL0     C23847   6.248  10.109   6.788  0.4284  0.5748  0.6173
  898MOL0     C23848   6.342  10.142   6.671  0.0520  0.0293 -0.2302
  898MOL0     C23849   6.285  10.095   6.534  1.1196  0.3616 -0.2436
  898MOL0     C23850   6.401  10.071   6.453 -0.1096 -0.3060  0.0956
  898MOL0     C23851   6.492  10.069   6.371 -0.5317 -0.0429  0.6474
  898MOL0     C23852   6.396  10.539   6.913  0.2420 -0.5894 -0.6587
  898MOL0     C23853   6.461  10.639   6.984 -0.1470 -0.6226  0.3061
  898MOL0     C23854   6.500  10.756   6.893 -0.3965  0.5293 -0.0730
  898MOL0     H23855   6.874  10.600   7.386 -0.7668 -0.9187 -2.0369
  898MOL0     H23856   6.995  10.724   7.572 -1.8759 -0.2869  2.6348
  898MOL0     H23857   6.824  11.108   7.712 -1.7611 -3.7036 -0.8717
  898MOL0     H23858   6.955  11.156   7.600  1.7794 -0.1031 -0.0077
  898MOL0     H23859   7.112  11.093   7.770  2.0377 -0.5773  2.9166
  898MOL0     H23860   7.026  11.237   7.823  0.0557 -0.2562  2.3361
  898MOL0     H23861   6.897  11.121   7.981 -0.5621  0.0684 -0.4844
  898MOL0     H23862   6.886  10.980   7.891 -0.3382  0.0613 -1.4275
  898MOL0     H23863   7.036  10.930   8.073 -1.3633 -1.3579 -2.6314
  898MOL0     H23864   7.156  10.937   7.941 -0.0477 -2.6852  0.5876
  898MOL0     H23865   7.070  11.175   8.124  1.0886  1.0434  2.0897
  898MOL0     H23866   7.187  11.179   7.998 -1.8122 -0.5768 -0.1535
  898MOL0     H23867   7.295  11.198   8.189 -0.2920 -0.4346  0.0797
  898MOL0     H23868   7.210  11.079   8.284  0.4854  0.2438 -0.0818
  898MOL0     H23869   7.420  11.005   8.065 -1.1248 -0.8368 -0.4978
  898MOL0     H23870   7.305  10.889   8.115  2.9332 -1.8222 -0.5151
  898MOL0     H23871   7.467  11.070   8.290 -0.8819  0.3197 -1.5174
  898MOL0     H23872   7.392  10.916   8.357 -1.2774  1.8397  0.6555
  898MOL0     H23873   7.734  11.030   8.285  0.0572 -0.2779 -0.2208
  898MOL0     H23874   7.921  10.687   8.297 -1.3911 -0.9055 -1.4078
  898MOL0     H23875   7.962  10.861   8.329  0.0069  0.3835 -1.2472
  898MOL0     H23876   7.957  10.911   8.093  4.3241  1.5034 -0.9615
  898MOL0     H23877   8.097  10.817   8.150  0.3101  1.2115 -1.5178
  898MOL0     H23878   8.018  10.610   8.077 -1.0117 -0.3903 -0.4003
  898MOL0     H23879   7.869  10.685   8.014  0.5500 -0.8325 -0.1223
  898MOL0     H23880   8.047  10.638   7.849  4.4868 -2.5945  2.4718
  898MOL0     H23881   8.054  10.821   7.871  1.8424  1.0502  1.1606
  898MOL0     H23882   8.444  10.674   8.044  0.5573  0.1761  0.6701
  898MOL0     H23883   8.668  10.613   8.027  1.5411 -2.1959 -1.5002
  898MOL0     H23884   8.717  10.776   8.012 -1.1089  0.6246  0.4771
  898MOL0     H23885   8.764  10.645   7.890  0.8188  0.6272 -0.5797
  898MOL0     H23886   9.006  10.894   7.815 -1.1222 -1.6332 -0.3944
  898MOL0     H23887   9.219  10.935   7.692 -0.5119  2.4566 -1.1272
  898MOL0     H23888   9.345  10.633   7.519  2.6956  0.0365  0.8418
  898MOL0     H23889   9.299  10.663   7.347  0.9718 -1.3098  0.0026
  898MOL0     H23890   9.526  10.660   7.315 -1.5343 -2.8736  2.5180
  898MOL0     H23891   9.478  10.832   7.319  0.2266 -0.1310 -0.7263
  898MOL0     H23892   9.617  10.659   7.535  0.8697  1.2406  5.1378
  898MOL0     H23893   9.544  10.812   7.580  0.0677 -2.1596  0.1262
  898MOL0     H23894   9.755  10.859   7.538  1.9301 -0.0606 -0.6272
  898MOL0     H23895   9.665  10.930   7.398  3.2981  0.6468 -3.3680
  898MOL0     H23896   9.832  10.684   7.381 -0.8616 -0.7507 -0.4947
  898MOL0     H23897   9.714  10.748   7.258 -1.1084  2.8436 -0.6159
  898MOL0     H23898   9.870  10.949   7.236  1.1439  1.2728  1.9870
  898MOL0     H23899   9.967  10.815   7.230  0.7391  0.7115 -0.3811
  898MOL0     H23900   9.923  10.998   7.476 -1.9651 -1.5585 -0.2443
  898MOL0     H23901  10.067  10.981   7.370  0.3861 -0.8026 -0.7650
  898MOL0     H23902   9.973  10.773   7.560 -1.2245  0.6756 -1.5977
  898MOL0     H23903  10.107  10.889   7.599  0.2451  0.5031 -0.3515
  898MOL0     H23904   9.078  10.710   7.360 -4.8520  4.2445 -1.7237
  898MOL0     H23905   8.869  10.686   7.458  1.3706 -0.4753 -3.7574
  898MOL0     H23906   8.420  10.792   7.567  1.6245 -1.4232 -0.7067
  898MOL0     H23907   8.217  10.777   7.701 -0.6748 -2.3055  0.1373
  898MOL0     H23908   6.698  11.032   7.547 -2.4397 -0.9158  0.1164
  898MOL0     H23909   6.579  10.912   7.394 -0.8876  0.4701 -0.4298
  898MOL0     H23910   6.514  10.458   7.260  1.1944  0.3508  0.2066
  898MOL0     H23911   6.368  10.295   7.150 -0.1898 -1.5088 -2.2585
  898MOL0     H23912   6.399  10.172   6.936  0.2429 -0.0127 -0.9679
  898MOL0     H23913   6.237  10.152   7.010 -1.3346  1.6169  0.2626
  898MOL0     H23914   6.146  10.122   6.751 -0.4855 -3.3972  1.2848
  898MOL0     H23915   6.255  10.001   6.802 -2.6082  0.1037 -0.7905
  898MOL0     H23916   6.367  10.248   6.664  2.2867 -0.3798  0.4892
  898MOL0     H23917   6.438  10.091   6.685 -0.8207 -2.1408 -1.5432
  898MOL0     H23918   6.215  10.170   6.497  0.4028  0.2095  0.7661
  898MOL0     H23919   6.239   9.998   6.557  2.2245  0.0841  0.9357
  898MOL0     H23920   6.573  10.056   6.303 -1.8547 -1.8475 -0.7047
  898MOL0     H23921   6.348  10.549   6.816 -4.7071 -1.1894  1.4054
  898MOL0     H23922   6.440  10.847   6.904 -0.1965  0.9314 -1.9364
  898MOL0     H23923   6.602  10.774   6.927  0.0330 -5.0782  2.8408
  898MOL0     H23924   6.493  10.741   6.785  0.5314 -2.0268  0.1494
  899MOL0     O23925   5.607   1.628   2.692  0.8524  0.0434  0.2387
  899MOL0     C23926   5.524   1.706   2.740 -1.0138 -0.4355  0.6539
  899MOL0     O23927   5.547   1.839   2.753 -0.5016  0.5174  0.4521
  899MOL0     C23928   5.649   1.896   2.672 -0.0189 -0.1767  0.0819
  899MOL0     C23929   5.735   1.998   2.718 -0.3289 -0.3461  1.1291
  899MOL0     C23930   5.824   2.069   2.629  0.6532 -0.7157  0.2965
  899MOL0     C23931   5.806   2.046   2.486  0.8583  0.0532 -0.7260
  899MOL0     O23932   5.860   2.140   2.405 -0.4212 -0.1163 -0.4834
  899MOL0     C23933   5.859   2.105   2.260  0.0962 -0.3605 -0.0858
  899MOL0     C23934   5.881   2.230   2.175  0.9431  0.4977 -0.1025
  899MOL0     C23935   6.007   2.303   2.206 -0.7315  0.1680 -0.3251
  899MOL0     C23936   6.028   2.431   2.114 -1.1878 -0.3357 -0.2513
  899MOL0     C23937   6.172   2.494   2.151 -0.2700  1.1072 -0.2877
  899MOL0     C23938   6.177   2.564   2.288 -0.4048  0.0573 -0.0878
  899MOL0     C23939   6.310   2.646   2.308  0.1266  0.4167 -1.0209
  899MOL0     C23940   6.340   2.705   2.442 -0.9017 -0.2012 -0.0492
  899MOL0     N23941   6.399   2.608   2.531  0.5504 -0.2011  0.5675
  899MOL0     C23942   6.534   2.588   2.548 -0.4129 -0.2148 -0.1324
  899MOL0     C23943   6.547   2.492   2.643  0.4605  0.5294 -1.1711
  899MOL0     C23944   6.679   2.435   2.702 -0.1908  0.6154 -0.0323
  899MOL0     C23945   6.777   2.551   2.716 -1.2077 -0.4002 -0.2222
  899MOL0     C23946   6.909   2.509   2.786  0.7181 -0.6640  0.4959
  899MOL0     C23947   7.016   2.608   2.767 -0.1166 -0.0507  0.3968
  899MOL0     O23948   7.134   2.574   2.835 -0.7956  0.6249  0.1619
  899MOL0     C23949   7.255   2.644   2.829  0.0872  1.2736 -0.7765
  899MOL0     C23950   7.275   2.771   2.787 -0.1284 -0.6512  0.1161
  899MOL0     C23951   7.396   2.836   2.789 -0.8678 -0.1291 -0.3741
  899MOL0     C23952   7.414   2.968   2.728  1.3472 -0.4403  0.0379
  899MOL0     C23953   7.509   2.760   2.836  0.7565 -0.2722  0.3206
  899MOL0     C23954   7.638   2.814   2.857 -0.6905  0.1030 -0.0047
  899MOL0     O23955   7.653   2.950   2.883 -0.4604 -0.5273 -0.3889
  899MOL0     C23956   7.776   3.013   2.889  0.3603 -0.0559  0.1412
  899MOL0     C23957   7.901   2.952   2.904 -0.6571 -0.2345 -0.2586
  899MOL0     C23958   8.019   3.034   2.904  0.1142 -0.0750 -1.0205
  899MOL0     C23959   8.019   3.173   2.901 -0.4347 -0.4978  0.9168
  899MOL0     O23960   8.144   3.236   2.905 -0.2902  0.2852  0.6526
  899MOL0     C23961   8.135   3.375   2.882 -0.4551  0.2110  0.5385
  899MOL0     C23962   8.285   3.410   2.860  0.2606 -0.9285 -0.7962
  899MOL0     C23963   8.350   3.407   2.997  0.0666 -0.5916  0.2913
  899MOL0     C23964   8.490   3.477   3.002 -0.2561  0.5730  0.4031
  899MOL0     C23965   8.539   3.496   3.138  0.2730  0.7177 -0.2290
  899MOL0     C23966   8.676   3.573   3.127 -0.1400 -0.0130  0.3194
  899MOL0     C23967   8.769   3.548   3.254  0.1477 -0.3148  0.8328
  899MOL0     C23968   8.913   3.591   3.222 -0.1117 -0.4648  0.0069
  899MOL0    Cl23969   9.019   3.564   3.358  0.2676  0.2159 -0.5610
  899MOL0     C23970   7.889   3.228   2.884  0.2054  0.1112  0.7411
  899MOL0     C23971   7.773   3.149   2.885  0.6262 -0.9227  0.2938
  899MOL0     O23972   7.731   2.744   2.832  0.6289  0.9794  0.7227
  899MOL0     C23973   7.486   2.630   2.881  0.4190  0.4197  0.9720
  899MOL0     C23974   7.363   2.568   2.875  0.5074 -0.2532 -0.1242
  899MOL0     N23975   6.417   2.450   2.671  0.0082  0.1863  0.1033
  899MOL0     N23976   6.335   2.516   2.601  0.2349 -0.3628 -0.1157
  899MOL0     C23977   5.713   1.946   2.444 -0.1139  0.4389 -0.5548
  899MOL0     C23978   5.645   1.868   2.535  0.7327 -0.4525 -0.3572
  899MOL0     C23979   5.414   1.637   2.818 -1.1087  0.7592  0.4392
  899MOL0     C23980   5.300   1.716   2.837 -0.9861 -0.5078  0.3513
  899MOL0     C23981   5.183   1.660   2.888 -0.2573  0.2357 -0.7609
  899MOL0     C23982   5.178   1.523   2.911 -0.2468 -0.1174  0.1613
  899MOL0     O23983   5.064   1.447   2.941 -0.7382 -0.3812 -0.1234
  899MOL0     C23984   4.937   1.484   2.877  0.9892 -0.0561 -0.7308
  899MOL0     C23985   4.843   1.370   2.888 -0.6754 -0.1932  0.1477
  899MOL0     C23986   4.839   1.307   3.020  0.1291 -0.3729 -0.7662
  899MOL0     C23987   4.739   1.194   3.036 -0.0977 -0.3527 -0.5213
  899MOL0     C23988   4.738   1.151   3.175  0.3673  0.6399  1.0393
  899MOL0     C23989   4.730   1.125   3.296 -0.4048 -0.8772 -0.5988
  899MOL0     C23990   5.285   1.438   2.901 -0.9321 -0.6453  1.2865
  899MOL0     C23991   5.409   1.495   2.863 -0.8843 -0.6770  0.2798
  899MOL0     C23992   5.538   1.422   2.872  0.5287 -0.3999 -0.3188
  899MOL0     H23993   5.728   2.024   2.823 -0.9590  0.5066  0.8879
  899MOL0     H23994   5.885   2.150   2.666  1.5749 -1.5317  0.5944
  899MOL0     H23995   5.764   2.065   2.225 -1.3930  1.4159  1.6458
  899MOL0     H23996   5.936   2.028   2.254  1.4859  1.0053 -0.3551
  899MOL0     H23997   5.888   2.196   2.071 -1.5923  1.6265 -0.7177
  899MOL0     H23998   5.798   2.297   2.195  1.9373  1.3844  1.2058
  899MOL0     H23999   6.007   2.325   2.313 -3.9754 -0.7192 -0.0378
  899MOL0     H24000   6.088   2.233   2.184 -0.2795  1.3569 -2.7808
  899MOL0     H24001   6.030   2.415   2.006  3.1237 -2.8504 -0.0367
  899MOL0     H24002   5.944   2.496   2.140 -0.4636 -0.1587  1.9046
  899MOL0     H24003   6.207   2.564   2.075  0.6087  2.0115  0.9113
  899MOL0     H24004   6.249   2.416   2.141 -0.5634  0.9872 -1.7311
  899MOL0     H24005   6.093   2.634   2.296  0.5952  1.4980 -1.5764
  899MOL0     H24006   6.165   2.491   2.369  1.5936 -0.2628 -0.0242
  899MOL0     H24007   6.302   2.732   2.242  0.2819  3.4985  2.6058
  899MOL0     H24008   6.390   2.579   2.274 -1.6214 -4.3150  2.8350
  899MOL0     H24009   6.391   2.801   2.430 -0.0983  0.1226  4.2094
  899MOL0     H24010   6.247   2.754   2.474 -0.5290  0.3851  0.1719
  899MOL0     H24011   6.618   2.631   2.494  1.0511 -1.3983  1.0666
  899MOL0     H24012   6.712   2.348   2.644 -0.8628 -1.3348  2.3518
  899MOL0     H24013   6.655   2.401   2.803 -0.3838 -0.5171 -0.4452
  899MOL0     H24014   6.794   2.582   2.613 -1.1376 -0.8773 -0.3576
  899MOL0     H24015   6.742   2.636   2.776 -2.4541 -1.0844  0.0597
  899MOL0     H24016   6.878   2.505   2.891 -1.6519  1.5216 -0.0236
  899MOL0     H24017   6.957   2.414   2.759  1.8754  0.1384 -0.3453
  899MOL0     H24018   7.034   2.608   2.659 -2.0257  1.4053  0.0320
  899MOL0     H24019   6.977   2.705   2.799 -0.7115 -0.2331  0.2500
  899MOL0     H24020   7.181   2.823   2.770  0.5839  0.4304 -0.6687
  899MOL0     H24021   7.506   2.984   2.672  1.7015  0.1379  0.7663
  899MOL0     H24022   7.431   3.043   2.806 -0.6502 -1.0403  1.1187
  899MOL0     H24023   7.327   2.998   2.670  0.1241 -2.0733  0.9286
  899MOL0     H24024   7.904   2.845   2.921  1.2404 -0.7199 -3.0550
  899MOL0     H24025   8.111   2.978   2.916 -0.1942 -0.1525  1.5231
  899MOL0     H24026   8.072   3.411   2.800  2.2277 -0.3005 -1.9676
  899MOL0     H24027   8.100   3.422   2.974 -1.2303  2.1707 -0.7043
  899MOL0     H24028   8.338   3.336   2.798  0.2798 -0.5253 -1.2715
  899MOL0     H24029   8.287   3.507   2.810 -1.7876 -0.7251 -0.5803
  899MOL0     H24030   8.356   3.303   3.030  2.5666 -1.2628 -1.9040
  899MOL0     H24031   8.286   3.470   3.059 -1.6623 -1.3591 -0.6510
  899MOL0     H24032   8.491   3.577   2.957  0.8601  0.3038 -0.1949
  899MOL0     H24033   8.569   3.423   2.950 -1.0006  1.5627 -1.8786
  899MOL0     H24034   8.467   3.550   3.199 -0.0717  1.7656 -1.5337
  899MOL0     H24035   8.568   3.404   3.191  2.1994 -0.4133 -3.0240
  899MOL0     H24036   8.657   3.680   3.117  0.5165 -0.0545 -1.6993
  899MOL0     H24037   8.728   3.544   3.035 -0.8531  1.6465 -0.6521
  899MOL0     H24038   8.767   3.439   3.265 -0.2280 -0.8288 -3.1813
  899MOL0     H24039   8.732   3.592   3.347 -0.5587 -2.1268  1.4514
  899MOL0     H24040   8.913   3.699   3.210  0.8263 -0.6990 -2.6744
  899MOL0     H24041   8.944   3.548   3.127 -1.3370 -0.0344 -0.6082
  899MOL0     H24042   7.872   3.335   2.874 -0.5985  0.1652  2.3670
  899MOL0     H24043   7.677   3.196   2.869 -0.3359 -2.1150  2.1276
  899MOL0     H24044   7.559   2.567   2.930  1.3159 -1.4561 -2.5219
  899MOL0     H24045   7.335   2.468   2.905 -2.3630 -0.4541 -2.8890
  899MOL0     H24046   5.701   1.923   2.339  0.2576  0.0306 -0.5125
  899MOL0     H24047   5.580   1.792   2.493  0.0340  0.2983 -0.6596
  899MOL0     H24048   5.290   1.819   2.802 -0.2943 -1.0035 -1.3996
  899MOL0     H24049   5.091   1.712   2.913 -0.5705 -0.6200 -0.0691
  899MOL0     H24050   4.892   1.568   2.931  0.4692  0.2436 -1.6133
  899MOL0     H24051   4.943   1.513   2.772 -2.1196 -0.9821 -1.2499
  899MOL0     H24052   4.883   1.289   2.825 -0.6040 -1.4324  1.7284
  899MOL0     H24053   4.744   1.396   2.851 -0.0554  1.4534 -0.4241
  899MOL0     H24054   4.934   1.257   3.041 -0.2784 -1.4977 -1.5237
  899MOL0     H24055   4.831   1.382   3.100 -0.4534 -2.3898  1.1838
  899MOL0     H24056   4.755   1.119   2.958 -0.7117 -0.1979 -0.8056
  899MOL0     H24057   4.640   1.228   3.003 -1.0774 -1.6259  0.9837
  899MOL0     H24058   4.725   1.122   3.403 -0.1082  0.5381 -0.5322
  899MOL0     H24059   5.272   1.334   2.928  1.6031 -0.7426  2.4622
  899MOL0     H24060   5.549   1.368   2.777  2.4181 -1.1007  0.2710
  899MOL0     H24061   5.623   1.485   2.899 -0.5885 -0.4590  4.0489
  899MOL0     H24062   5.532   1.348   2.952 -3.0267 -0.7484 -0.7218
  900MOL0     O24063   8.730   3.091   7.340 -0.6142 -0.5294 -0.0874
  900MOL0     C24064   8.659   3.190   7.325  0.7307  1.6055 -0.5687
  900MOL0     O24065   8.644   3.268   7.218  0.4724 -0.1474  0.3802
  900MOL0     C24066   8.739   3.250   7.122 -0.0150  0.3062  0.3584
  900MOL0     C24067   8.817   3.364   7.097  1.0183  0.2445 -0.1370
  900MOL0     C24068   8.924   3.360   7.011 -0.5374 -0.4492  0.6585
  900MOL0     C24069   8.963   3.227   6.958 -0.0316  0.1519  0.5683
  900MOL0     O24070   9.075   3.203   6.887  0.8438 -0.1007  0.5694
  900MOL0     C24071   9.144   3.304   6.815 -0.4200 -0.1841 -0.4301
  900MOL0     C24072   9.256   3.242   6.730  0.1655  0.4027 -1.5181
  900MOL0     C24073   9.196   3.143   6.648 -0.0010  0.0225  0.0146
  900MOL0     C24074   9.252   3.014   6.676 -0.8704 -0.6831  0.8653
  900MOL0     C24075   9.173   2.904   6.590 -0.1602 -0.2017 -0.7485
  900MOL0     C24076   9.179   2.760   6.644  0.4939 -0.0646  0.6084
  900MOL0     C24077   9.072   2.670   6.578  0.2523  0.1287  0.2633
  900MOL0     C24078   9.113   2.525   6.610 -0.5555  0.0888  0.2362
  900MOL0     N24079   9.022   2.412   6.562 -0.0061 -1.0734 -0.0199
  900MOL0     C24080   8.883   2.404   6.541 -0.0334  0.0626  0.1700
  900MOL0     C24081   8.860   2.278   6.501 -0.0685 -0.0104  0.2539
  900MOL0     C24082   8.722   2.214   6.475  0.1732 -0.3254  0.0360
  900MOL0     C24083   8.633   2.299   6.391 -0.1057  0.5675  0.6621
  900MOL0     C24084   8.493   2.234   6.345 -0.9667 -0.3115 -0.2067
  900MOL0     C24085   8.398   2.331   6.279 -0.0049  0.0915  0.5865
  900MOL0     O24086   8.459   2.421   6.195 -0.6025 -0.4411  0.1974
  900MOL0     C24087   8.384   2.531   6.151  0.4378  0.3299  0.4202
  900MOL0     C24088   8.450   2.631   6.074 -0.3571  0.6479 -0.3159
  900MOL0     C24089   8.383   2.744   6.029 -0.8546 -0.2845  0.4012
  900MOL0     C24090   8.462   2.864   5.977 -0.1755  0.7541 -1.0511
  900MOL0     C24091   8.246   2.752   6.041  0.7539 -0.0226  0.6324
  900MOL0     C24092   8.162   2.867   5.995 -0.3508 -0.0933 -0.1949
  900MOL0     O24093   8.199   2.924   5.884 -0.1302 -1.0420 -0.0156
  900MOL0     C24094   8.127   3.020   5.829  0.4368  0.0944  0.1852
  900MOL0     C24095   8.006   2.979   5.773 -0.7333  0.3177 -0.2548
  900MOL0     C24096   7.909   3.067   5.724 -0.5551  0.2789  0.7257
  900MOL0     C24097   7.941   3.198   5.718  0.4909  0.3830  0.5038
  900MOL0     O24098   7.853   3.300   5.692 -0.2504  0.3703  0.1411
  900MOL0     C24099   7.729   3.261   5.627  0.6374  0.6329 -0.0192
  900MOL0     C24100   7.652   3.388   5.586  0.6306 -0.4880 -0.1825
  900MOL0     C24101   7.606   3.480   5.705 -0.2247 -0.1363  0.1385
  900MOL0     C24102   7.622   3.629   5.670  0.2530  0.6684 -0.3899
  900MOL0     C24103   7.543   3.721   5.768 -0.2059  0.2952  0.0834
  900MOL0     C24104   7.605   3.702   5.912  0.6329  0.7164 -0.7962
  900MOL0     C24105   7.597   3.828   5.998 -0.5372  1.0857 -0.7189
  900MOL0     C24106   7.629   3.793   6.136  1.3882  0.0972  0.1254
  900MOL0    Cl24107   7.500   3.678   6.207 -0.2658 -0.0092  0.1575
  900MOL0     C24108   8.067   3.242   5.772 -0.0555 -0.3449  0.8606
  900MOL0     C24109   8.159   3.156   5.825  0.4925  0.9222 -0.4670
  900MOL0     O24110   8.064   2.896   6.058  0.1673  0.9276 -0.0194
  900MOL0     C24111   8.181   2.651   6.102 -0.7670 -0.0622  0.2517
  900MOL0     C24112   8.242   2.538   6.150 -0.2040 -1.0495  0.1181
  900MOL0     N24113   8.978   2.213   6.487 -0.1760  0.2129 -0.2017
  900MOL0     N24114   9.073   2.289   6.532  1.0790  0.3253  0.1660
  900MOL0     C24115   8.880   3.120   6.982  0.5789  0.7605  0.2584
  900MOL0     C24116   8.769   3.131   7.068  0.5841  0.8802  1.1726
  900MOL0     C24117   8.572   3.215   7.441 -0.2747 -0.5871  0.6248
  900MOL0     C24118   8.506   3.346   7.438  0.1544 -0.9132 -0.4109
  900MOL0     C24119   8.429   3.397   7.545  1.2562  0.8189  0.1075
  900MOL0     C24120   8.393   3.307   7.649 -1.0981  0.4015  1.1286
  900MOL0     O24121   8.318   3.341   7.760 -0.2871 -0.0023  0.0593
  900MOL0     C24122   8.239   3.465   7.750 -0.0227  0.5821 -0.2387
  900MOL0     C24123   8.122   3.447   7.851 -0.1821 -0.4738  0.7422
  900MOL0     C24124   8.176   3.429   7.999 -0.2688  0.0235 -0.2655
  900MOL0     C24125   8.221   3.560   8.073  0.2801  0.8964 -0.0506
  900MOL0     C24126   8.109   3.640   8.108  0.7177  0.0812  0.5089
  900MOL0     C24127   8.027   3.726   8.133  0.7562  0.1968  0.2881
  900MOL0     C24128   8.473   3.189   7.658  0.2299 -0.4226  0.1701
  900MOL0     C24129   8.546   3.136   7.549 -0.5021  0.4650  0.2667
  900MOL0     C24130   8.609   3.005   7.565  0.6621 -0.4960 -0.1356
  900MOL0     H24131   8.787   3.455   7.147  0.4687  0.2725 -0.5106
  900MOL0     H24132   8.978   3.454   6.997 -2.4560  0.7874  1.1594
  900MOL0     H24133   9.180   3.373   6.891 -1.1853  0.9277 -1.0413
  900MOL0     H24134   9.069   3.351   6.749 -0.5710  0.7008  0.3582
  900MOL0     H24135   9.296   3.321   6.666  1.9082 -1.3515 -2.6975
  900MOL0     H24136   9.339   3.202   6.790 -0.9274 -0.4951 -0.5528
  900MOL0     H24137   9.087   3.145   6.660  0.0037  1.7650  0.0055
  900MOL0     H24138   9.219   3.165   6.543  0.3255 -1.7619 -0.3240
  900MOL0     H24139   9.360   3.013   6.661 -0.4382  2.1631  3.0666
  900MOL0     H24140   9.235   2.995   6.783  0.8886 -1.7017  0.9994
  900MOL0     H24141   9.218   2.901   6.491 -0.7816  1.5184 -1.1169
  900MOL0     H24142   9.068   2.935   6.587  0.0881  0.6109 -1.7126
  900MOL0     H24143   9.280   2.726   6.620  0.1379  0.5800 -2.1308
  900MOL0     H24144   9.177   2.759   6.753 -0.6222  2.3551  0.6736
  900MOL0     H24145   9.068   2.694   6.471  1.0842  0.9114  0.3904
  900MOL0     H24146   8.970   2.690   6.610  0.1397  0.5801 -0.3580
  900MOL0     H24147   9.210   2.512   6.562  0.4178  3.1299  1.1569
  900MOL0     H24148   9.117   2.509   6.719 -0.6165 -0.1262  0.2078
  900MOL0     H24149   8.815   2.489   6.546  1.1145  1.1015 -1.2782
  900MOL0     H24150   8.680   2.186   6.572  1.3462 -0.1469  0.6141
  900MOL0     H24151   8.735   2.128   6.408  1.0247  1.7693 -2.7174
  900MOL0     H24152   8.620   2.391   6.450  1.1268 -0.0989  2.0234
  900MOL0     H24153   8.680   2.328   6.296 -1.9141  1.1893 -0.1006
  900MOL0     H24154   8.501   2.160   6.265 -2.5894  2.7675 -3.5138
  900MOL0     H24155   8.448   2.198   6.438  1.6316 -0.6373  1.0075
  900MOL0     H24156   8.324   2.273   6.222  0.7504 -0.5567  0.2500
  900MOL0     H24157   8.350   2.385   6.361  2.2300  0.8267  1.4992
  900MOL0     H24158   8.554   2.607   6.051 -0.1149  2.1929 -0.9418
  900MOL0     H24159   8.567   2.878   6.003 -0.5267  1.3654  0.0959
  900MOL0     H24160   8.411   2.951   6.020  2.1598  2.8246 -2.2543
  900MOL0     H24161   8.448   2.874   5.869 -0.1190 -1.4714 -1.3130
  900MOL0     H24162   7.983   2.874   5.757  1.4117 -0.4044  1.0213
  900MOL0     H24163   7.813   3.024   5.697 -0.5493  0.4503  0.4234
  900MOL0     H24164   7.754   3.191   5.547 -1.1758  0.3451 -0.3672
  900MOL0     H24165   7.676   3.209   5.707  0.0687  1.1282 -0.0737
  900MOL0     H24166   7.720   3.443   5.520  3.1283 -1.6890  1.2455
  900MOL0     H24167   7.565   3.361   5.525  0.4955 -2.9895  1.0103
  900MOL0     H24168   7.681   3.470   5.784 -0.4676  2.7813  0.8618
  900MOL0     H24169   7.505   3.457   5.741  1.1465 -1.1822  3.6527
  900MOL0     H24170   7.566   3.649   5.578 -2.9572  0.1776  1.2871
  900MOL0     H24171   7.728   3.648   5.654  0.5046 -1.5811 -1.7643
  900MOL0     H24172   7.535   3.824   5.733  4.2626  0.1133 -2.1688
  900MOL0     H24173   7.436   3.697   5.776 -0.0016 -0.2102  1.8885
  900MOL0     H24174   7.709   3.669   5.904  0.2619 -0.5153 -0.7807
  900MOL0     H24175   7.551   3.617   5.956 -0.5900  0.6290 -2.3772
  900MOL0     H24176   7.496   3.870   6.000 -0.9732  0.0936 -1.3836
  900MOL0     H24177   7.667   3.909   5.973  0.8905  0.4172  0.9008
  900MOL0     H24178   7.628   3.888   6.190 -1.8592  0.4685 -0.3972
  900MOL0     H24179   7.727   3.746   6.145  0.0131 -2.5308  3.1595
  900MOL0     H24180   8.094   3.347   5.765  4.3386 -1.3980 -1.6429
  900MOL0     H24181   8.249   3.197   5.870  0.7877 -2.0344  1.9043
  900MOL0     H24182   8.075   2.658   6.125 -0.5793  0.8465  0.9143
  900MOL0     H24183   8.174   2.480   6.211 -0.9461  0.3222  0.6427
  900MOL0     H24184   8.913   3.022   6.952  0.1774  0.4350  0.8638
  900MOL0     H24185   8.716   3.041   7.098  0.2999  0.1057 -1.4571
  900MOL0     H24186   8.531   3.418   7.361  0.0030  0.5994  0.8803
  900MOL0     H24187   8.385   3.496   7.544 -0.0225  0.3808 -3.5298
  900MOL0     H24188   8.296   3.555   7.776  1.5834  0.3893 -2.7056
  900MOL0     H24189   8.206   3.480   7.646 -1.4322 -2.5435 -0.3441
  900MOL0     H24190   8.062   3.364   7.814 -4.6808  2.6593  0.2578
  900MOL0     H24191   8.063   3.537   7.836 -0.8079 -1.3506 -2.9160
  900MOL0     H24192   8.104   3.378   8.064  0.0477 -0.5643 -0.3740
  900MOL0     H24193   8.261   3.361   7.991 -0.2614 -0.0061  0.0444
  900MOL0     H24194   8.297   3.608   8.011 -1.2613  2.4036 -0.8545
  900MOL0     H24195   8.262   3.525   8.168 -0.9433 -1.0154 -0.1687
  900MOL0     H24196   7.975   3.817   8.151 -0.5946  0.2938 -3.4209
  900MOL0     H24197   8.470   3.124   7.745  1.3453 -1.2851 -0.4096
  900MOL0     H24198   8.612   2.947   7.473  1.5270  1.9003 -1.7113
  900MOL0     H24199   8.713   3.017   7.594  0.4275 -1.3084  1.1240
  900MOL0     H24200   8.556   2.951   7.644 -0.6950  2.0845  0.8578
  901MOL0     O24201   3.653   8.326   2.333  0.0370  0.3203 -0.8000
  901MOL0     C24202   3.582   8.327   2.232 -0.1241  0.9693 -0.7498
  901MOL0     O24203   3.641   8.317   2.109  0.0103 -0.1133  0.0068
  901MOL0     C24204   3.777   8.302   2.099  1.3097 -0.2330 -0.3068
  901MOL0     C24205   3.862   8.392   2.159 -0.0613 -0.3236 -0.1954
  901MOL0     C24206   4.000   8.380   2.142 -0.6528  0.4583 -0.4135
  901MOL0     C24207   4.051   8.272   2.065 -0.5227  0.1767  0.2545
  901MOL0     O24208   4.185   8.252   2.059 -0.2342 -0.3919  0.7538
  901MOL0     C24209   4.251   8.203   1.937  0.1732  0.4143 -1.0582
  901MOL0     C24210   4.402   8.189   1.950  0.0240 -0.3183 -0.6976
  901MOL0     C24211   4.440   8.131   1.807  0.0623  0.0775 -0.7707
  901MOL0     C24212   4.591   8.112   1.800  0.4484 -0.0536 -0.1249
  901MOL0     C24213   4.640   7.971   1.850 -0.1754  0.1738  0.7259
  901MOL0     C24214   4.786   7.942   1.796 -0.4501  1.1282 -0.1433
  901MOL0     C24215   4.841   7.802   1.828 -0.4794 -0.0762 -0.0070
  901MOL0     C24216   4.980   7.786   1.759  0.2354 -0.1249 -0.0826
  901MOL0     N24217   5.101   7.861   1.811  0.2314  0.8370 -0.1139
  901MOL0     C24218   5.165   7.823   1.926 -0.2821 -0.1049 -0.1257
  901MOL0     C24219   5.254   7.921   1.940  0.0656 -0.2130 -0.2660
  901MOL0     C24220   5.346   7.941   2.056  0.0737 -0.6633 -0.3245
  901MOL0     C24221   5.490   7.952   2.002  0.8354  0.1834 -0.6013
  901MOL0     C24222   5.597   7.929   2.117 -0.0866  0.8620  0.7583
  901MOL0     C24223   5.740   7.922   2.072  0.4831  0.8518 -0.1193
  901MOL0     O24224   5.835   7.915   2.178 -0.3579  0.1734 -0.2653
  901MOL0     C24225   5.969   7.933   2.140 -0.5408  0.0983 -0.1973
  901MOL0     C24226   6.069   7.952   2.236 -0.7537 -0.1791 -0.0469
  901MOL0     C24227   6.201   8.002   2.198 -0.4007  0.1966 -0.7448
  901MOL0     C24228   6.315   8.027   2.294 -0.0106 -0.8630  0.2853
  901MOL0     C24229   6.228   8.009   2.062 -0.8800  1.2024  0.0038
  901MOL0     C24230   6.361   8.053   2.008  0.6075  1.6106  0.3770
  901MOL0     O24231   6.442   7.946   1.955 -0.4159 -0.9864  0.3906
  901MOL0     C24232   6.576   7.973   1.952 -0.1024  0.1476 -0.0944
  901MOL0     C24233   6.646   8.026   2.053 -0.6071 -0.9656 -0.2422
  901MOL0     C24234   6.786   8.028   2.061 -0.7007  0.1593 -0.4154
  901MOL0     C24235   6.866   7.978   1.959  1.2064  0.5089  0.3071
  901MOL0     O24236   6.999   7.989   1.947 -1.4281 -0.7593  1.8934
  901MOL0     C24237   7.075   8.014   2.068 -0.0376  0.1207 -0.3995
  901MOL0     C24238   7.217   8.020   2.018  0.2818 -0.5299  0.3655
  901MOL0     C24239   7.254   8.133   1.916  1.5779 -0.0744 -0.7488
  901MOL0     C24240   7.399   8.102   1.875 -0.2863  0.3291  0.0132
  901MOL0     C24241   7.436   8.226   1.789 -0.3915  0.4336  0.5250
  901MOL0     C24242   7.591   8.227   1.768  0.7974 -0.4102 -0.4909
  901MOL0     C24243   7.636   8.346   1.681  0.4390  1.1963 -0.1324
  901MOL0     C24244   7.782   8.368   1.724  0.3987 -0.8607 -0.1451
  901MOL0    Cl24245   7.840   8.536   1.672 -0.5004  0.2970  0.0210
  901MOL0     C24246   6.799   7.908   1.858 -0.6166 -0.1899  0.5525
  901MOL0     C24247   6.655   7.904   1.856 -0.5251  0.1145 -0.5830
  901MOL0     O24248   6.385   8.169   2.022 -0.1311 -0.5125 -0.3898
  901MOL0     C24249   6.135   7.958   1.969 -0.0221 -0.5553  0.3523
  901MOL0     C24250   6.007   7.928   2.005 -0.2815 -0.4744 -0.2813
  901MOL0     N24251   5.262   8.001   1.836  0.3965  0.6330  0.1752
  901MOL0     N24252   5.174   7.956   1.751 -0.0000 -0.4102  0.1246
  901MOL0     C24253   3.965   8.191   1.994 -0.0554 -0.0988 -0.7325
  901MOL0     C24254   3.826   8.207   2.014  0.1117 -0.7181  0.3312
  901MOL0     C24255   3.428   8.333   2.235  0.5454  0.4088  0.2618
  901MOL0     C24256   3.377   8.377   2.361 -0.0037 -0.2846 -0.1697
  901MOL0     C24257   3.237   8.391   2.376  0.4183  0.7091 -0.8934
  901MOL0     C24258   3.154   8.338   2.280  0.1980 -0.4830 -0.1136
  901MOL0     O24259   3.022   8.340   2.313  0.0678  0.7680  0.2254
  901MOL0     C24260   2.928   8.374   2.213  0.0030 -0.2373 -0.1340
  901MOL0     C24261   2.919   8.524   2.198 -0.0621  0.2884  0.0086
  901MOL0     C24262   2.864   8.582   2.325  0.4508  0.1689 -1.5707
  901MOL0     C24263   2.802   8.720   2.305  0.2912  0.2089  0.4893
  901MOL0     C24264   2.783   8.799   2.423 -0.2296 -0.2023 -0.5758
  901MOL0     C24265   2.766   8.875   2.523 -0.3857 -0.4527 -0.2197
  901MOL0     C24266   3.209   8.297   2.162 -0.1042 -0.9415 -0.1410
  901MOL0     C24267   3.349   8.291   2.129  0.0928 -0.0281 -0.7976
  901MOL0     C24268   3.391   8.240   1.993  0.1552  0.1138 -0.1667
  901MOL0     H24269   3.825   8.472   2.222  1.2910 -0.1203  0.3667
  901MOL0     H24270   4.072   8.445   2.191  1.2964 -0.9835 -1.2444
  901MOL0     H24271   4.218   8.275   1.862 -3.2636  0.2796  0.1012
  901MOL0     H24272   4.202   8.109   1.912 -1.2266  0.3737  1.4141
  901MOL0     H24273   4.450   8.285   1.969 -0.7716 -0.0634  0.1038
  901MOL0     H24274   4.417   8.116   2.030 -0.4577  1.3533  0.9792
  901MOL0     H24275   4.384   8.039   1.789  1.1356 -0.8882  0.5639
  901MOL0     H24276   4.414   8.199   1.725 -1.8524 -1.2314 -1.2973
  901MOL0     H24277   4.610   8.108   1.692 -3.3769 -2.4564 -0.9080
  901MOL0     H24278   4.646   8.198   1.840  1.1584  0.0367 -1.2584
  901MOL0     H24279   4.575   7.892   1.810 -0.1668  0.9080 -0.7772
  901MOL0     H24280   4.642   7.965   1.960  1.7481 -0.4729  0.6928
  901MOL0     H24281   4.767   7.943   1.688 -0.6521 -1.0234 -0.1833
  901MOL0     H24282   4.861   8.015   1.828  0.9467  0.1648 -1.0958
  901MOL0     H24283   4.772   7.724   1.795  0.0720 -0.4267 -0.3487
  901MOL0     H24284   4.850   7.797   1.937 -2.1754 -0.3930  0.1476
  901MOL0     H24285   5.002   7.678   1.758 -0.7480 -0.3627 -2.9353
  901MOL0     H24286   4.972   7.815   1.654  1.3466 -0.9536 -0.4203
  901MOL0     H24287   5.144   7.735   1.986 -0.2942 -0.3243 -0.4510
  901MOL0     H24288   5.364   7.862   2.130  3.3253  2.0063  2.0635
  901MOL0     H24289   5.323   8.030   2.115  1.9338 -0.5074  0.2419
  901MOL0     H24290   5.495   7.863   1.938 -0.4562 -0.3202 -0.0315
  901MOL0     H24291   5.516   8.043   1.947  2.2463  0.6054  0.7002
  901MOL0     H24292   5.599   8.015   2.184  0.6314  0.0307  1.8409
  901MOL0     H24293   5.572   7.840   2.175  1.9498  0.4829  1.1339
  901MOL0     H24294   5.760   7.839   2.003  1.9104  0.1102  1.1321
  901MOL0     H24295   5.763   8.020   2.028 -0.4294  2.0784  2.0119
  901MOL0     H24296   6.035   7.935   2.338  0.6692 -0.6208  0.3797
  901MOL0     H24297   6.351   8.129   2.278  3.1246 -1.7446  1.0281
  901MOL0     H24298   6.394   7.952   2.286 -0.2641 -0.8940 -3.1709
  901MOL0     H24299   6.276   8.034   2.396 -1.2269 -0.0018 -0.2145
  901MOL0     H24300   6.594   8.079   2.131  3.8798  0.9839  1.8031
  901MOL0     H24301   6.832   8.086   2.141 -0.2383 -2.1953  1.1361
  901MOL0     H24302   7.049   8.110   2.114 -2.4081 -0.5504 -0.2433
  901MOL0     H24303   7.057   7.939   2.145 -2.4243 -0.0834 -1.0929
  901MOL0     H24304   7.278   8.026   2.109 -0.4873  1.0960  0.8200
  901MOL0     H24305   7.228   7.921   1.972 -0.6499 -0.9093  0.9415
  901MOL0     H24306   7.257   8.228   1.971  4.8944  0.9130 -2.3831
  901MOL0     H24307   7.190   8.126   1.828 -0.7747 -1.8507  0.9755
  901MOL0     H24308   7.402   8.007   1.822  3.5490  0.0269  0.4891
  901MOL0     H24309   7.456   8.091   1.967 -1.8886 -2.1159  0.7996
  901MOL0     H24310   7.388   8.226   1.691  1.8369 -1.2597 -0.6743
  901MOL0     H24311   7.410   8.318   1.842 -1.0001  0.9063 -0.5661
  901MOL0     H24312   7.628   8.127   1.744 -0.8118 -0.8541 -1.2428
  901MOL0     H24313   7.634   8.242   1.868 -1.6228 -0.4356  0.6362
  901MOL0     H24314   7.585   8.441   1.695  0.9277  1.5117 -0.4440
  901MOL0     H24315   7.630   8.319   1.575 -1.3630  0.1272  0.1988
  901MOL0     H24316   7.843   8.299   1.666 -1.0047  1.4125 -4.8022
  901MOL0     H24317   7.805   8.381   1.830  1.8674  1.0576 -0.6341
  901MOL0     H24318   6.863   7.870   1.779  0.7459  1.7132  0.6611
  901MOL0     H24319   6.584   7.852   1.793 -1.8580  0.5459  0.5161
  901MOL0     H24320   6.164   7.941   1.866  0.0444 -0.4815  0.3586
  901MOL0     H24321   5.951   7.898   1.916 -0.6698 -0.3634 -0.0753
  901MOL0     H24322   3.987   8.115   1.920 -0.0837 -1.2176  0.3619
  901MOL0     H24323   3.758   8.139   1.963 -2.7721  0.9759  1.6438
  901MOL0     H24324   3.445   8.423   2.431 -0.3824  0.0949 -0.0434
  901MOL0     H24325   3.199   8.450   2.459  2.0617  0.6534 -0.0441
  901MOL0     H24326   2.954   8.343   2.111 -1.6950  2.5254 -1.5426
  901MOL0     H24327   2.830   8.336   2.242 -0.8548  0.6402 -1.7163
  901MOL0     H24328   2.855   8.553   2.114  1.9181  0.3488 -1.5745
  901MOL0     H24329   3.022   8.558   2.179 -0.3220  0.4205 -1.2532
  901MOL0     H24330   2.791   8.520   2.378  0.9154 -0.5749 -1.7903
  901MOL0     H24331   2.940   8.590   2.404 -2.1773  0.7034  1.0662
  901MOL0     H24332   2.716   8.724   2.239  0.5238 -0.9880  0.0770
  901MOL0     H24333   2.877   8.776   2.249  1.0771 -0.2116  1.0908
  901MOL0     H24334   2.730   8.952   2.587 -2.0939 -1.7100  0.4000
  901MOL0     H24335   3.133   8.259   2.094 -1.0341  1.5858 -0.6114
  901MOL0     H24336   3.455   8.317   1.950 -0.2128  0.6974  0.3161
  901MOL0     H24337   3.454   8.153   2.017  0.5090  0.0529 -1.3009
  901MOL0     H24338   3.304   8.224   1.929 -2.3863 -1.6741  3.3685
  902MOL0     O24339   8.580   5.505   2.798 -1.1318  0.2194 -0.5859
  902MOL0     C24340   8.513   5.556   2.885  0.8588 -0.4153 -0.5782
  902MOL0     O24341   8.455   5.491   2.988  0.0644  0.3071  0.5672
  902MOL0     C24342   8.470   5.353   2.998  0.4817  0.0421 -0.9014
  902MOL0     C24343   8.355   5.284   3.033  0.5764 -0.4624  0.2752
  902MOL0     C24344   8.354   5.151   3.065 -0.6866  0.4943 -0.4234
  902MOL0     C24345   8.480   5.081   3.065 -0.2494 -0.5485 -0.5492
  902MOL0     O24346   8.478   4.949   3.113  0.1046 -0.3065  0.1816
  902MOL0     C24347   8.568   4.859   3.043  0.4539  0.3711 -0.5197
  902MOL0     C24348   8.524   4.717   3.036  0.8506  0.3208 -0.1721
  902MOL0     C24349   8.376   4.696   2.990  0.1482  0.0030  0.9307
  902MOL0     C24350   8.332   4.542   2.975 -0.6113 -0.2756  0.3273
  902MOL0     C24351   8.199   4.535   2.910 -0.8073  0.1845  0.1047
  902MOL0     C24352   8.149   4.385   2.905 -0.5669 -0.5710  0.4273
  902MOL0     C24353   8.005   4.365   2.858  0.7745 -0.2265  0.2514
  902MOL0     C24354   7.897   4.437   2.949 -0.1216  0.4522  1.2475
  902MOL0     N24355   7.764   4.390   2.908 -0.3765 -0.4614 -0.3688
  902MOL0     C24356   7.690   4.305   2.982 -0.1594  0.6752  0.5239
  902MOL0     C24357   7.583   4.272   2.907  0.1261  0.3327  0.1891
  902MOL0     C24358   7.483   4.172   2.955  0.9019 -0.0833  0.4870
  902MOL0     C24359   7.346   4.172   2.880 -0.6208  1.1541 -0.7583
  902MOL0     C24360   7.253   4.297   2.892 -0.3606  0.9036 -0.6814
  902MOL0     C24361   7.246   4.348   3.040 -0.3416  1.0146 -0.3975
  902MOL0     O24362   7.226   4.245   3.141 -0.1653  0.3666 -0.3540
  902MOL0     C24363   7.099   4.179   3.154 -0.8530  0.6723 -0.0667
  902MOL0     C24364   7.099   4.083   3.249  0.2005  0.4876 -0.6957
  902MOL0     C24365   6.991   3.996   3.265 -0.3811  0.4001  0.7455
  902MOL0     C24366   7.019   3.892   3.371  0.9432 -0.3818 -0.7662
  902MOL0     C24367   6.871   4.008   3.183  0.1565  0.4964  0.2642
  902MOL0     C24368   6.753   3.918   3.201  0.1911 -0.0703  0.9763
  902MOL0     O24369   6.644   3.955   3.130 -0.0708  0.1621 -0.3202
  902MOL0     C24370   6.524   3.899   3.156 -0.2670 -0.5599  0.2035
  902MOL0     C24371   6.413   3.974   3.200  0.3312  0.6123 -0.0189
  902MOL0     C24372   6.288   3.906   3.217 -0.4389 -1.2972 -0.2910
  902MOL0     C24373   6.286   3.768   3.207 -0.8466  0.0711 -0.5935
  902MOL0     O24374   6.159   3.731   3.217  0.0303  1.0259 -0.3561
  902MOL0     C24375   6.104   3.636   3.124  0.2920  0.0391  0.1332
  902MOL0     C24376   5.950   3.643   3.137 -0.2718 -0.4859 -0.4515
  902MOL0     C24377   5.892   3.536   3.049 -0.2241 -0.3208 -0.3684
  902MOL0     C24378   5.741   3.554   3.024 -0.2236  0.1550  0.1982
  902MOL0     C24379   5.695   3.457   2.908 -0.0315  0.2472 -0.4597
  902MOL0     C24380   5.545   3.454   2.889  0.5973  0.0976  0.2746
  902MOL0     C24381   5.507   3.399   2.753 -0.0269 -0.0377  0.4073
  902MOL0     C24382   5.362   3.414   2.704 -0.6504 -1.0786 -0.1931
  902MOL0    Cl24383   5.279   3.303   2.790  0.1437  0.3455  0.0294
  902MOL0     C24384   6.399   3.698   3.173 -0.2572  0.4502 -0.4036
  902MOL0     C24385   6.509   3.763   3.143  0.2338 -0.1136  0.1224
  902MOL0     O24386   6.764   3.814   3.268 -0.2818 -0.1440 -0.2159
  902MOL0     C24387   6.874   4.108   3.089 -0.0433  0.7865  0.5563
  902MOL0     C24388   6.987   4.198   3.069  0.1665 -0.6120 -0.8422
  902MOL0     N24389   7.596   4.338   2.789 -0.5274 -0.2493 -0.6244
  902MOL0     N24390   7.711   4.403   2.786 -0.2242  0.2954 -0.3197
  902MOL0     C24391   8.593   5.147   3.025  0.3528 -0.3995  0.6074
  902MOL0     C24392   8.588   5.288   2.990 -0.1765  0.0952  1.0773
  902MOL0     C24393   8.480   5.703   2.889  1.1269 -0.1856  0.6221
  902MOL0     C24394   8.424   5.760   3.007 -0.5490  0.0847 -1.0023
  902MOL0     C24395   8.407   5.898   3.031  0.6824  0.7375 -0.0173
  902MOL0     C24396   8.446   5.986   2.924 -0.8796  0.1784 -0.0149
  902MOL0     O24397   8.431   6.126   2.951 -0.4826  0.8926 -0.0430
  902MOL0     C24398   8.316   6.186   2.897  0.0222  0.2140 -0.7410
  902MOL0     C24399   8.189   6.175   2.984  0.0936  0.9228 -1.0527
  902MOL0     C24400   8.194   6.219   3.131 -0.1469  0.5326  0.4168
  902MOL0     C24401   8.251   6.359   3.148  0.4762 -0.0955 -0.1271
  902MOL0     C24402   8.162   6.465   3.083 -0.9225 -0.5104  0.5983
  902MOL0     C24403   8.105   6.568   3.055  0.8576  0.0026 -0.2785
  902MOL0     C24404   8.498   5.940   2.808 -0.2119  0.7418 -0.2294
  902MOL0     C24405   8.515   5.802   2.791  0.6378  0.9999  0.5620
  902MOL0     C24406   8.558   5.752   2.652  0.2801 -0.3202  0.2920
  902MOL0     H24407   8.277   5.360   3.030  1.8731  0.9389  0.4873
  902MOL0     H24408   8.264   5.111   3.110  1.6311 -2.7851  1.6642
  902MOL0     H24409   8.670   4.863   3.082 -0.0703 -2.0161  1.2857
  902MOL0     H24410   8.552   4.909   2.947 -0.3455 -0.6447 -0.9306
  902MOL0     H24411   8.597   4.662   2.976 -0.0349  1.7355 -2.6756
  902MOL0     H24412   8.525   4.681   3.140 -0.5153 -0.0092 -0.2615
  902MOL0     H24413   8.314   4.744   3.066 -0.6146 -0.6388  0.7209
  902MOL0     H24414   8.359   4.741   2.892 -1.8597 -1.1442  0.6988
  902MOL0     H24415   8.413   4.498   2.917 -0.3080  0.7249 -0.0210
  902MOL0     H24416   8.325   4.491   3.072 -0.1657 -2.1458 -0.5665
  902MOL0     H24417   8.212   4.576   2.809 -3.7594 -0.4869 -0.6578
  902MOL0     H24418   8.127   4.604   2.957 -0.6795  0.2098  0.2655
  902MOL0     H24419   8.203   4.328   2.829 -3.7076 -1.4915 -1.2897
  902MOL0     H24420   8.164   4.345   3.005  0.7679  0.2102  0.5742
  902MOL0     H24421   7.984   4.258   2.860 -1.2301  0.1484  1.6099
  902MOL0     H24422   8.000   4.406   2.756  0.1194  0.5781  0.5964
  902MOL0     H24423   7.920   4.400   3.049  2.5930  1.8002  1.2076
  902MOL0     H24424   7.905   4.546   2.942 -0.6941  0.4332 -0.0596
  902MOL0     H24425   7.720   4.264   3.078  0.9079 -3.7979 -1.4450
  902MOL0     H24426   7.458   4.181   3.061  3.5999  1.5698  1.0779
  902MOL0     H24427   7.528   4.074   2.934  1.4483 -0.5872  3.5349
  902MOL0     H24428   7.372   4.147   2.777 -0.5010  0.1196 -0.4891
  902MOL0     H24429   7.277   4.095   2.917  1.4110 -0.3084  0.1647
  902MOL0     H24430   7.300   4.373   2.828  2.4791  2.1358  2.5586
  902MOL0     H24431   7.158   4.272   2.843 -0.7725 -1.5071  1.1663
  902MOL0     H24432   7.338   4.399   3.070  0.3986 -1.5163  2.1100
  902MOL0     H24433   7.157   4.411   3.052 -0.8854 -0.1517  2.7404
  902MOL0     H24434   7.190   4.081   3.308  0.2712  0.1494 -0.8116
  902MOL0     H24435   6.929   3.903   3.432  0.0838  2.2400 -2.3165
  902MOL0     H24436   7.103   3.901   3.439  0.8221 -2.5817 -0.2415
  902MOL0     H24437   7.035   3.793   3.326  3.5629 -0.4205  0.0725
  902MOL0     H24438   6.410   4.082   3.216 -3.3955  0.6880 -0.3795
  902MOL0     H24439   6.197   3.960   3.242  0.4376 -0.4985  1.3376
  902MOL0     H24440   6.138   3.666   3.024  0.4661  1.2114  0.5270
  902MOL0     H24441   6.128   3.530   3.136 -3.0393 -1.2097 -2.6963
  902MOL0     H24442   5.915   3.614   3.237  0.5005 -2.2226 -0.6439
  902MOL0     H24443   5.915   3.746   3.126 -4.0121 -1.3957  1.3822
  902MOL0     H24444   5.905   3.438   3.097  0.4461  1.2492  2.9174
  902MOL0     H24445   5.949   3.548   2.957 -0.1026  2.7792  0.0040
  902MOL0     H24446   5.706   3.656   3.007 -0.7348  0.3375  2.1036
  902MOL0     H24447   5.698   3.537   3.123 -1.8762  1.5904 -0.2326
  902MOL0     H24448   5.752   3.488   2.819 -0.4770  0.5640 -0.6398
  902MOL0     H24449   5.724   3.356   2.937 -0.6639  0.2533  0.2255
  902MOL0     H24450   5.510   3.556   2.908 -0.3589 -0.2658  0.5532
  902MOL0     H24451   5.506   3.381   2.961 -1.0820  1.4098  0.7698
  902MOL0     H24452   5.534   3.293   2.753  0.1184 -0.0024  0.0136
  902MOL0     H24453   5.574   3.452   2.686 -1.4990  1.9791  0.4566
  902MOL0     H24454   5.339   3.402   2.598 -3.1127  1.5564 -0.0688
  902MOL0     H24455   5.333   3.514   2.738  0.0353 -1.7099  2.4886
  902MOL0     H24456   6.383   3.590   3.167 -1.8059  0.6302 -0.0536
  902MOL0     H24457   6.593   3.707   3.104  2.0518  2.7636 -0.4696
  902MOL0     H24458   6.787   4.108   3.025  1.8321 -0.9827 -2.2386
  902MOL0     H24459   6.986   4.273   2.991  0.7169 -0.5400 -0.7846
  902MOL0     H24460   8.688   5.096   3.032 -1.1326 -3.7188 -1.2130
  902MOL0     H24461   8.686   5.335   2.981 -0.4788  0.7261  1.0056
  902MOL0     H24462   8.414   5.693   3.092 -1.2060  0.5109 -0.7374
  902MOL0     H24463   8.373   5.933   3.129 -2.1968 -1.6018 -0.0358
  902MOL0     H24464   8.327   6.289   2.860  1.1594 -0.3495 -2.0557
  902MOL0     H24465   8.304   6.140   2.799 -1.0498  2.1321 -1.5606
  902MOL0     H24466   8.154   6.072   2.968 -0.4308  1.2662 -2.2459
  902MOL0     H24467   8.113   6.242   2.943 -1.1798 -0.3434 -0.8646
  902MOL0     H24468   8.100   6.205   3.184  0.5212 -2.4457  1.0324
  902MOL0     H24469   8.258   6.147   3.184  0.1179 -0.9232 -1.7798
  902MOL0     H24470   8.351   6.367   3.103  2.0910  1.3396  3.3095
  902MOL0     H24471   8.257   6.391   3.253  0.5218  1.3656 -0.5422
  902MOL0     H24472   8.065   6.664   3.031  0.6722  0.0658  0.2553
  902MOL0     H24473   8.529   6.014   2.735  3.1241 -1.3964 -1.2137
  902MOL0     H24474   8.543   5.837   2.586  0.6245  0.1848  0.8548
  902MOL0     H24475   8.667   5.737   2.650  0.5318  1.3024 -2.5256
  902MOL0     H24476   8.498   5.667   2.618 -0.8761  0.8404 -0.6425
  903MOL0     O24477  10.326  10.903   2.283  1.3201  0.1657 -0.5651
  903MOL0     C24478  10.273  10.834   2.190  0.3455  0.6370  0.0725
  903MOL0     O24479  10.345  10.761   2.104 -0.7219  0.5248  0.4510
  903MOL0     C24480  10.482  10.771   2.109 -0.4330  0.4661  0.5248
  903MOL0     C24481  10.562  10.817   2.003  0.0379 -0.3918  0.3209
  903MOL0     C24482  10.697  10.798   2.012 -0.3642  0.0741  0.1927
  903MOL0     C24483  10.757  10.741   2.128 -0.3049  0.0843 -0.5923
  903MOL0     O24484  10.894  10.704   2.134  0.6653  0.1489  0.6968
  903MOL0     C24485  10.969  10.763   2.240 -0.6257  0.2171  0.4614
  903MOL0     C24486  11.086  10.848   2.182 -0.0350 -0.3992  0.4570
  903MOL0     C24487  11.171  10.895   2.297 -0.5680  0.4061 -0.3809
  903MOL0     C24488  11.282  10.993   2.250  0.1134  0.4766 -0.5756
  903MOL0     C24489  11.389  11.025   2.359  0.7874 -0.1473  0.0626
  903MOL0     C24490  11.506  11.104   2.307 -0.1688  0.8547 -0.3343
  903MOL0     C24491  11.613  11.020   2.241 -0.0929  0.1592  0.2776
  903MOL0     C24492  11.748  11.102   2.231 -0.2991  0.4181 -0.5802
  903MOL0     N24493  11.826  11.039   2.123  0.2179 -0.1901  0.2651
  903MOL0     C24494  11.855  11.093   2.003  0.0923  1.1136  0.5138
  903MOL0     C24495  11.942  11.009   1.938 -0.6633 -0.8815 -0.5498
  903MOL0     C24496  11.997  11.015   1.797  0.0944 -0.3669 -0.2994
  903MOL0     C24497  12.150  11.075   1.794 -0.0905 -0.4700  0.2087
  903MOL0     C24498  12.254  10.997   1.875 -0.4483  0.5618 -0.5732
  903MOL0     C24499  12.347  11.098   1.962  0.2024  0.9554  0.4245
  903MOL0     O24500  12.417  11.189   1.878  0.0928  0.8501 -0.5845
  903MOL0     C24501  12.491  11.292   1.923  0.7383  0.5533  0.0110
  903MOL0     C24502  12.569  11.346   1.826 -0.7113  0.5226  0.0292
  903MOL0     C24503  12.656  11.453   1.861  0.4147 -0.7834  0.4785
  903MOL0     C24504  12.732  11.517   1.739 -0.0395  0.2420  0.2164
  903MOL0     C24505  12.667  11.500   1.993  0.5173 -0.6248 -0.8287
  903MOL0     C24506  12.747  11.613   2.042 -0.7913  0.5392 -0.7334
  903MOL0     O24507  12.772  11.629   2.175  0.7670 -0.1334  1.0143
  903MOL0     C24508  12.862  11.725   2.220  0.5002 -0.0994  0.1251
  903MOL0     C24509  12.838  11.772   2.350  0.3234 -0.1502  0.3077
  903MOL0     C24510  12.929  11.862   2.405 -0.0105  0.1266 -0.7004
  903MOL0     C24511  13.043  11.904   2.333 -0.1439 -0.0747 -0.3045
  903MOL0     O24512  13.131  11.989   2.402  0.7759 -0.1833  0.2670
  903MOL0     C24513  13.228  12.060   2.321 -0.8629  0.1624 -0.0585
  903MOL0     C24514  13.299  12.165   2.413  0.3268 -0.6024  0.9210
  903MOL0     C24515  13.374  12.255   2.314 -0.4425  0.2888 -0.2020
  903MOL0     C24516  13.521  12.259   2.352  1.1275 -0.1005 -1.0355
  903MOL0     C24517  13.607  12.337   2.251  0.2398  0.2699 -0.4389
  903MOL0     C24518  13.763  12.336   2.284  0.3882 -0.2347 -0.4190
  903MOL0     C24519  13.842  12.414   2.183  0.0053  0.1108  0.5055
  903MOL0     C24520  13.988  12.385   2.193 -0.7166  0.3833 -0.4756
  903MOL0    Cl24521  14.053  12.214   2.176  0.0106 -0.0284  0.0540
  903MOL0     C24522  13.066  11.857   2.210  0.0166 -0.5614 -0.0007
  903MOL0     C24523  12.979  11.763   2.149 -0.1018 -1.0954  0.2244
  903MOL0     O24524  12.777  11.697   1.956  0.0809  0.6611 -0.0650
  903MOL0     C24525  12.587  11.436   2.088 -0.1908  0.1247 -0.0470
  903MOL0     C24526  12.502  11.331   2.055 -0.9468 -0.1526  0.3413
  903MOL0     N24527  11.954  10.905   2.025  0.5023 -0.3911 -0.6750
  903MOL0     N24528  11.882  10.920   2.132 -0.1588 -0.8599  0.4074
  903MOL0     C24529  10.684  10.712   2.241 -0.8501  0.8946 -0.4098
  903MOL0     C24530  10.543  10.717   2.223  0.4773  0.1070 -0.3934
  903MOL0     C24531  10.125  10.810   2.191 -0.5613 -0.8736 -0.4227
  903MOL0     C24532  10.063  10.764   2.072  0.2351 -0.4996 -0.1827
  903MOL0     C24533   9.924  10.761   2.060 -0.3384 -0.4079 -0.8056
  903MOL0     C24534   9.841  10.798   2.166  0.1025  0.9412 -0.0619
  903MOL0     O24535   9.701  10.806   2.146  0.7154 -0.9720 -0.3988
  903MOL0     C24536   9.646  10.847   2.015 -0.1004 -0.0795 -0.2219
  903MOL0     C24537   9.667  10.997   2.009  0.6137  0.2792 -1.1514
  903MOL0     C24538   9.581  11.059   1.902 -0.1605 -0.0872  0.0747
  903MOL0     C24539   9.629  11.193   1.839 -0.4607 -0.3620 -0.2958
  903MOL0     C24540   9.755  11.172   1.779 -0.1153  0.5587 -0.0824
  903MOL0     C24541   9.870  11.162   1.739 -0.2118  0.2614 -0.7177
  903MOL0     C24542   9.907  10.834   2.284  0.3506 -0.5647  0.5224
  903MOL0     C24543  10.044  10.845   2.300 -0.2564 -0.5781  0.2285
  903MOL0     C24544  10.088  10.877   2.446  0.0023  0.1146 -0.0274
  903MOL0     H24545  10.512  10.847   1.912 -2.8645 -1.2702  1.5206
  903MOL0     H24546  10.751  10.809   1.919 -0.7997 -0.2058 -0.0969
  903MOL0     H24547  11.013  10.693   2.311 -2.3338  1.3941  2.7908
  903MOL0     H24548  10.915  10.831   2.306 -1.5048  0.3691 -0.3943
  903MOL0     H24549  11.147  10.809   2.101 -1.4862  3.4540 -2.8875
  903MOL0     H24550  11.039  10.936   2.136  3.4327  0.1160 -2.5131
  903MOL0     H24551  11.112  10.944   2.375  0.1503 -0.1310  0.5165
  903MOL0     H24552  11.224  10.811   2.342 -0.5698  0.7154  0.2011
  903MOL0     H24553  11.324  10.937   2.167  0.6485 -4.9309  2.8436
  903MOL0     H24554  11.238  11.083   2.207  0.6127 -0.1350 -2.4533
  903MOL0     H24555  11.413  10.931   2.410  0.3722 -0.2129  0.1363
  903MOL0     H24556  11.325  11.083   2.425 -1.0519 -0.1995 -1.5901
  903MOL0     H24557  11.471  11.182   2.239  0.3234  0.3794 -1.1606
  903MOL0     H24558  11.552  11.145   2.397  0.3030 -2.4149  1.0660
  903MOL0     H24559  11.572  10.980   2.148  0.7879 -3.1491  1.1589
  903MOL0     H24560  11.637  10.931   2.300 -1.9496 -0.3970  0.2743
  903MOL0     H24561  11.723  11.203   2.195 -0.6793 -0.2115 -2.1425
  903MOL0     H24562  11.797  11.104   2.328  1.8089 -1.3752 -1.5260
  903MOL0     H24563  11.829  11.192   1.966  0.8409 -0.2055 -4.0784
  903MOL0     H24564  11.937  11.065   1.721  0.2645 -0.4924 -0.5169
  903MOL0     H24565  11.999  10.914   1.756  2.0970 -0.1625 -0.7830
  903MOL0     H24566  12.188  11.095   1.693  1.9939 -1.6081  0.7189
  903MOL0     H24567  12.135  11.173   1.839 -0.2543  0.6905 -2.2026
  903MOL0     H24568  12.212  10.919   1.940  1.1077  0.0543 -0.1381
  903MOL0     H24569  12.324  10.954   1.803 -1.9906  0.2137 -1.9198
  903MOL0     H24570  12.276  11.147   2.030 -0.1936  0.1322  0.6205
  903MOL0     H24571  12.416  11.041   2.025  0.4427  0.9872  0.1919
  903MOL0     H24572  12.567  11.306   1.725  1.7067  2.2669 -0.8081
  903MOL0     H24573  12.718  11.470   1.642 -0.5628  2.3833 -0.7981
  903MOL0     H24574  12.840  11.509   1.758  0.4024  0.0633 -2.1135
  903MOL0     H24575  12.699  11.620   1.723  0.4756  0.3307 -0.3265
  903MOL0     H24576  12.750  11.732   2.399  0.3913 -1.1281 -0.3296
  903MOL0     H24577  12.909  11.901   2.504  2.1883  0.5197 -0.3588
  903MOL0     H24578  13.314  12.006   2.280  1.9758  3.2540  1.3877
  903MOL0     H24579  13.178  12.109   2.237  1.4490  2.3071 -0.2874
  903MOL0     H24580  13.224  12.225   2.464  1.8858 -0.2367  2.9412
  903MOL0     H24581  13.367  12.128   2.491  1.2513  3.6037  2.3922
  903MOL0     H24582  13.330  12.355   2.310  0.0461  0.6771  2.2453
  903MOL0     H24583  13.377  12.220   2.210  2.9547 -0.1244 -0.0903
  903MOL0     H24584  13.562  12.157   2.353  0.2008 -0.5065 -2.1693
  903MOL0     H24585  13.530  12.302   2.452 -0.1635  0.4892 -1.1488
  903MOL0     H24586  13.592  12.280   2.158 -0.5083 -0.9787  0.4197
  903MOL0     H24587  13.567  12.438   2.240 -0.7519 -0.0265  0.3824
  903MOL0     H24588  13.790  12.230   2.286  0.2227 -0.3812  3.5978
  903MOL0     H24589  13.783  12.385   2.380  2.6857 -0.1379 -0.9038
  903MOL0     H24590  13.823  12.519   2.206 -0.6477 -0.1977  1.4221
  903MOL0     H24591  13.814  12.391   2.080  1.6791  0.7247 -0.1229
  903MOL0     H24592  14.005  12.421   2.295 -0.0561 -2.8520  0.6690
  903MOL0     H24593  14.044  12.444   2.120  0.6293 -1.1628 -0.7566
  903MOL0     H24594  13.152  11.886   2.150 -0.7329  0.6971 -0.5034
  903MOL0     H24595  13.013  11.728   2.053  2.5578 -0.7683  0.9774
  903MOL0     H24596  12.609  11.472   2.188  0.2960 -1.0152  0.2801
  903MOL0     H24597  12.450  11.283   2.138 -0.7017 -1.7711 -0.4028
  903MOL0     H24598  10.721  10.672   2.334 -0.2161 -0.4933 -1.2223
  903MOL0     H24599  10.474  10.682   2.298 -2.0508 -0.3265 -2.7502
  903MOL0     H24600  10.133  10.736   1.994 -2.3991 -1.1621 -2.5076
  903MOL0     H24601   9.883  10.727   1.966 -1.8034  2.3705 -1.2899
  903MOL0     H24602   9.683  10.798   1.925 -1.5930 -0.6068 -0.5655
  903MOL0     H24603   9.541  10.819   2.028 -0.5248  2.1594  2.3165
  903MOL0     H24604   9.766  11.023   1.971  0.4580  1.6187 -0.6906
  903MOL0     H24605   9.643  11.039   2.107  2.1501 -1.7632  0.1823
  903MOL0     H24606   9.572  10.976   1.831  0.9862 -1.1527  1.1297
  903MOL0     H24607   9.479  11.080   1.936 -0.4706  1.5263 -1.6763
  903MOL0     H24608   9.638  11.266   1.921  2.5707 -0.8429 -0.1015
  903MOL0     H24609   9.561  11.246   1.771 -1.4870  1.7462  2.2050
  903MOL0     H24610   9.972  11.146   1.711 -0.6502 -1.3269 -1.4886
  903MOL0     H24611   9.829  10.867   2.352 -1.3340  0.4382 -1.7513
  903MOL0     H24612  10.010  10.842   2.514 -0.4517 -0.5098 -0.8607
  903MOL0     H24613  10.182  10.825   2.467 -0.3662 -0.9163 -0.8385
  903MOL0     H24614  10.098  10.984   2.466  0.8615  0.0442 -0.0067
  904MOL0     O24615  10.897   5.738   1.421 -1.4337  0.1456 -0.1087
  904MOL0     C24616  10.921   5.616   1.414  0.0253  0.1229 -1.1354
  904MOL0     O24617  11.030   5.552   1.362 -0.3727  0.6142  0.3160
  904MOL0     C24618  11.154   5.608   1.369  0.0497  0.6618 -0.4307
  904MOL0     C24619  11.204   5.700   1.470 -0.0575 -0.2112  0.4139
  904MOL0     C24620  11.326   5.754   1.470 -0.1880 -0.5197 -0.4321
  904MOL0     C24621  11.422   5.705   1.380 -0.2670  0.0363 -1.1365
  904MOL0     O24622  11.556   5.756   1.376  0.2276 -0.0151 -0.8855
  904MOL0     C24623  11.655   5.728   1.274  0.6175  0.0732 -0.8240
  904MOL0     C24624  11.779   5.806   1.293 -0.4101 -0.2030 -0.6829
  904MOL0     C24625  11.880   5.746   1.380  0.1087 -0.3267  0.5135
  904MOL0     C24626  12.010   5.830   1.397 -0.5718 -0.0787 -0.8225
  904MOL0     C24627  12.116   5.742   1.472  0.5431 -0.4113 -0.2552
  904MOL0     C24628  12.251   5.756   1.420  0.2404  0.3589 -0.4295
  904MOL0     C24629  12.340   5.674   1.520  0.7278 -0.1586  0.4596
  904MOL0     C24630  12.473   5.627   1.459  0.0327 -0.2596 -0.1304
  904MOL0     N24631  12.572   5.734   1.460 -0.6265  1.1504 -0.3528
  904MOL0     C24632  12.656   5.772   1.352 -0.4581 -0.3240  0.3547
  904MOL0     C24633  12.760   5.849   1.411 -0.3093  0.0977 -0.4186
  904MOL0     C24634  12.872   5.911   1.331 -0.5900  1.3752  1.3466
  904MOL0     C24635  12.941   5.814   1.225  0.5794 -0.0048 -0.0899
  904MOL0     C24636  13.045   5.888   1.140  0.6381  0.7242 -0.1695
  904MOL0     C24637  13.176   5.896   1.211 -0.5622 -0.8513  0.4508
  904MOL0     O24638  13.249   5.763   1.202 -0.1643 -0.3368 -0.2698
  904MOL0     C24639  13.339   5.740   1.100 -0.9550 -0.2696  0.4947
  904MOL0     C24640  13.335   5.811   0.985 -0.2642  0.0771 -0.0657
  904MOL0     C24641  13.435   5.791   0.885 -0.3283  0.8272 -0.5858
  904MOL0     C24642  13.415   5.865   0.756  0.5954  0.7694  0.1661
  904MOL0     C24643  13.541   5.691   0.902  0.6121  0.6638 -0.4439
  904MOL0     C24644  13.662   5.677   0.823  0.5085 -0.1477  0.3096
  904MOL0     O24645  13.763   5.604   0.881 -0.3608 -0.2362 -0.1327
  904MOL0     C24646  13.890   5.598   0.826 -0.5941 -0.7450 -0.2357
  904MOL0     C24647  13.997   5.630   0.907 -0.0248 -1.1007 -0.4603
  904MOL0     C24648  14.126   5.631   0.844 -0.1454  0.4347  0.0331
  904MOL0     C24649  14.138   5.605   0.706  0.2752 -0.0245  0.2472
  904MOL0     O24650  14.257   5.598   0.630 -0.3384  0.0907 -0.7358
  904MOL0     C24651  14.383   5.607   0.697 -0.3572 -0.6300 -0.2441
  904MOL0     C24652  14.490   5.535   0.611 -0.4305 -0.3786  0.1550
  904MOL0     C24653  14.515   5.598   0.477 -0.2872  0.4442 -0.0173
  904MOL0     C24654  14.632   5.533   0.418  0.6956  0.4149 -0.1557
  904MOL0     C24655  14.658   5.587   0.269  0.6565  0.5429  0.3480
  904MOL0     C24656  14.758   5.496   0.194 -0.9679  0.2984 -0.0362
  904MOL0     C24657  14.901   5.484   0.262 -0.1272 -0.5025 -0.3493
  904MOL0     C24658  14.963   5.628   0.300  0.7858  0.1526 -0.5134
  904MOL0    Cl24659  15.006   5.727   0.160 -0.5778  0.4594  0.4296
  904MOL0     C24660  14.031   5.568   0.635  0.8360 -0.0072 -0.1209
  904MOL0     C24661  13.903   5.557   0.693 -0.2932  0.3431  0.4706
  904MOL0     O24662  13.669   5.721   0.706  0.5553  0.7205  0.4444
  904MOL0     C24663  13.527   5.617   1.018  0.3620 -0.3947 -0.0604
  904MOL0     C24664  13.432   5.639   1.121 -0.6044 -0.2797  0.6011
  904MOL0     N24665  12.725   5.874   1.544 -0.7540  0.0431  0.7319
  904MOL0     N24666  12.617   5.804   1.569  0.6045  0.4670  0.3032
  904MOL0     C24667  11.384   5.601   1.293 -0.8520 -0.0519  0.4977
  904MOL0     C24668  11.249   5.549   1.282 -0.8192  0.8297  0.0345
  904MOL0     C24669  10.832   5.520   1.482 -0.1343 -0.2147  0.1924
  904MOL0     C24670  10.879   5.390   1.520  0.7509  0.9987  0.3079
  904MOL0     C24671  10.792   5.284   1.571  0.1765 -0.0029 -0.3563
  904MOL0     C24672  10.657   5.307   1.580 -0.3684 -0.5715 -0.5851
  904MOL0     O24673  10.552   5.211   1.603 -0.0639 -0.0994 -0.0244
  904MOL0     C24674  10.601   5.081   1.654  0.3128  1.1298  0.5549
  904MOL0     C24675  10.491   4.980   1.672 -0.6715 -0.1945 -0.1727
  904MOL0     C24676  10.398   5.032   1.782  0.6215 -0.8554 -0.0655
  904MOL0     C24677  10.251   4.970   1.781  0.3758  0.3175 -0.0246
  904MOL0     C24678  10.156   5.042   1.871  0.2100 -0.2109  0.4089
  904MOL0     C24679  10.090   5.080   1.964 -0.0197  0.9294  0.6435
  904MOL0     C24680  10.612   5.438   1.557 -0.1725 -0.2317  0.2121
  904MOL0     C24681  10.695   5.537   1.507  1.0328 -0.0305 -1.2890
  904MOL0     C24682  10.618   5.662   1.465 -0.4275 -0.5811 -0.9944
  904MOL0     H24683  11.129   5.745   1.535 -0.0368 -2.7529  2.3206
  904MOL0     H24684  11.352   5.835   1.537  1.7408  0.1430 -1.8664
  904MOL0     H24685  11.597   5.758   1.186 -1.5267 -0.7765  0.2227
  904MOL0     H24686  11.683   5.623   1.269  0.5854 -0.3408  3.7272
  904MOL0     H24687  11.820   5.824   1.193  1.7298 -2.2120 -0.2701
  904MOL0     H24688  11.765   5.905   1.335  3.7499  0.3529 -0.1872
  904MOL0     H24689  11.832   5.714   1.473 -1.1460  0.7650  0.2645
  904MOL0     H24690  11.905   5.648   1.337 -1.2749 -0.2921 -0.4314
  904MOL0     H24691  12.046   5.843   1.295 -0.3682 -3.8684 -1.3854
  904MOL0     H24692  11.990   5.924   1.450  1.1656  0.1477 -0.5047
  904MOL0     H24693  12.100   5.634   1.461 -0.5966 -0.0452 -3.1796
  904MOL0     H24694  12.110   5.766   1.578  2.1342 -1.7693  0.1912
  904MOL0     H24695  12.262   5.700   1.327  1.3149  2.2520 -1.4886
  904MOL0     H24696  12.270   5.863   1.406  1.9175  0.3732  1.4639
  904MOL0     H24697  12.281   5.584   1.541  0.4418 -0.8354 -2.7631
  904MOL0     H24698  12.353   5.716   1.620  1.0050 -0.6637  0.6379
  904MOL0     H24699  12.514   5.536   1.504 -0.8163 -0.7879 -0.4099
  904MOL0     H24700  12.470   5.602   1.353 -1.1476  1.1447 -0.4553
  904MOL0     H24701  12.660   5.742   1.248 -3.0305 -0.8948  0.3626
  904MOL0     H24702  12.947   5.951   1.399  2.3101  1.6549 -1.7773
  904MOL0     H24703  12.837   5.996   1.272  1.2455  0.2324 -1.6371
  904MOL0     H24704  12.986   5.723   1.265 -1.8722  0.5301  4.7098
  904MOL0     H24705  12.859   5.781   1.161  0.2220  1.8198 -0.6376
  904MOL0     H24706  13.066   5.840   1.044  0.5625 -2.4448  1.2939
  904MOL0     H24707  13.004   5.985   1.112 -0.4651 -0.4703 -3.0484
  904MOL0     H24708  13.246   5.965   1.165  0.9075 -0.8109  2.5760
  904MOL0     H24709  13.163   5.930   1.314 -2.0762  2.4527 -0.7105
  904MOL0     H24710  13.258   5.877   0.948  1.7097  0.6978 -3.5649
  904MOL0     H24711  13.501   5.925   0.725 -1.5158  3.8298 -0.1972
  904MOL0     H24712  13.327   5.930   0.761 -2.1099 -2.5292 -0.7109
  904MOL0     H24713  13.391   5.793   0.677  0.3733 -0.7513  1.5835
  904MOL0     H24714  13.979   5.669   1.006  1.2212 -1.9953  0.1577
  904MOL0     H24715  14.214   5.667   0.896 -0.2313  1.8176 -0.7359
  904MOL0     H24716  14.398   5.711   0.729  0.6802 -0.1743 -2.0848
  904MOL0     H24717  14.386   5.554   0.793  1.1048  1.1742  0.7980
  904MOL0     H24718  14.579   5.533   0.674 -0.9468  0.5628  0.9358
  904MOL0     H24719  14.451   5.435   0.593 -3.5087  0.9142 -1.0193
  904MOL0     H24720  14.537   5.705   0.477 -0.2344  0.4347  0.6386
  904MOL0     H24721  14.424   5.579   0.420 -1.7964  0.0082  2.4201
  904MOL0     H24722  14.615   5.425   0.407 -1.6703  0.6819  0.5027
  904MOL0     H24723  14.721   5.567   0.471  0.9142  0.8624 -0.7961
  904MOL0     H24724  14.567   5.590   0.209  0.6528  1.1315  0.3783
  904MOL0     H24725  14.690   5.690   0.284  0.7067  0.1242  4.2234
  904MOL0     H24726  14.768   5.539   0.093 -2.1912  0.6145 -0.0307
  904MOL0     H24727  14.712   5.397   0.189 -1.2208  0.3926  0.4149
  904MOL0     H24728  14.973   5.435   0.196  1.1145  0.9615 -0.1365
  904MOL0     H24729  14.880   5.428   0.354  1.6504  1.2046  1.1879
  904MOL0     H24730  15.054   5.615   0.359 -0.5151  2.0777  2.1395
  904MOL0     H24731  14.900   5.691   0.364  0.9855 -1.3268  1.2000
  904MOL0     H24732  14.052   5.548   0.530  1.7761 -1.3184  0.2947
  904MOL0     H24733  13.819   5.527   0.632 -0.8891  1.0529  0.9262
  904MOL0     H24734  13.600   5.540   1.040  0.8066 -0.0670 -0.3918
  904MOL0     H24735  13.436   5.587   1.216  1.7751 -1.1812  0.0728
  904MOL0     H24736  11.461   5.560   1.229  0.7040  2.9666  0.2543
  904MOL0     H24737  11.239   5.462   1.218  1.0420 -0.7834  1.8131
  904MOL0     H24738  10.984   5.364   1.512  0.1972 -1.0495 -1.5042
  904MOL0     H24739  10.835   5.187   1.592 -0.3030 -0.5594 -1.8515
  904MOL0     H24740  10.672   5.037   1.583 -2.5715  0.3344 -2.1085
  904MOL0     H24741  10.660   5.098   1.744 -0.7562  2.0950  1.1148
  904MOL0     H24742  10.533   4.879   1.686 -0.9959 -0.4473 -0.9632
  904MOL0     H24743  10.438   4.957   1.580 -2.7947  0.4306  0.8272
  904MOL0     H24744  10.441   5.018   1.881 -0.1890  2.1480  0.8457
  904MOL0     H24745  10.376   5.139   1.772 -0.9532 -1.0075  1.3273
  904MOL0     H24746  10.262   4.866   1.813  1.6452 -0.3900 -2.4748
  904MOL0     H24747  10.208   4.971   1.680 -0.2877 -1.5962  0.2085
  904MOL0     H24748  10.026   5.124   2.038 -0.8768  0.9311 -0.0764
  904MOL0     H24749  10.508   5.463   1.575 -0.4652 -1.5355  0.3959
  904MOL0     H24750  10.512   5.641   1.453 -0.4550 -2.4299  1.6422
  904MOL0     H24751  10.636   5.751   1.527 -0.6555  1.6404 -3.8814
  904MOL0     H24752  10.655   5.682   1.364  0.9238  3.8804  0.1284
  905MOL0     O24753   4.946   9.373   2.415 -0.1747  0.3027  0.5987
  905MOL0     C24754   4.903   9.368   2.298 -0.7076  0.1034 -1.2080
  905MOL0     O24755   4.975   9.330   2.187  0.0046 -0.2647 -0.0450
  905MOL0     C24756   5.111   9.317   2.192  0.1149  0.1128 -1.0724
  905MOL0     C24757   5.190   9.433   2.171  0.4966  0.1245  0.3532
  905MOL0     C24758   5.326   9.419   2.177 -0.2351  0.2303  0.1016
  905MOL0     C24759   5.388   9.307   2.221  0.1122  0.1562  0.3609
  905MOL0     O24760   5.522   9.310   2.244 -0.3552  0.0400 -0.8368
  905MOL0     C24761   5.599   9.227   2.162  0.5396 -0.3065 -0.2306
  905MOL0     C24762   5.678   9.115   2.235  0.4653  1.1617 -0.1625
  905MOL0     C24763   5.808   9.167   2.291  0.3389 -0.7059 -0.0738
  905MOL0     C24764   5.915   9.065   2.273  0.5815 -0.8491 -0.2708
  905MOL0     C24765   6.044   9.121   2.316 -0.2390 -0.1691 -0.3425
  905MOL0     C24766   6.052   9.153   2.464  0.5285 -0.8366 -0.5910
  905MOL0     C24767   6.197   9.182   2.510  0.1961  0.0827  0.0842
  905MOL0     C24768   6.183   9.249   2.649  0.0642  0.0606 -0.6207
  905MOL0     N24769   6.308   9.288   2.707 -0.2276  0.1187  0.2181
  905MOL0     C24770   6.382   9.392   2.662 -0.0312 -0.4448 -0.0537
  905MOL0     C24771   6.491   9.380   2.737 -0.0117  0.3684  0.2123
  905MOL0     C24772   6.605   9.466   2.725 -0.7475  0.6060 -0.3376
  905MOL0     C24773   6.697   9.433   2.604  0.8839 -1.0170 -1.1333
  905MOL0     C24774   6.790   9.550   2.557  1.0443  0.0184 -0.1230
  905MOL0     C24775   6.914   9.550   2.648 -0.0465  0.3073  0.1383
  905MOL0     O24776   6.964   9.682   2.644 -0.5969 -0.0103  0.5998
  905MOL0     C24777   7.099   9.696   2.676 -0.3028 -0.8760  0.3147
  905MOL0     C24778   7.169   9.812   2.627  0.6724 -0.4279  0.0412
  905MOL0     C24779   7.307   9.826   2.647 -0.0233  1.0231 -0.2820
  905MOL0     C24780   7.370   9.956   2.597  0.6751  0.2012 -0.1047
  905MOL0     C24781   7.372   9.729   2.733  0.1006  0.0431 -0.0919
  905MOL0     C24782   7.517   9.745   2.758  1.1319 -1.3715  0.7465
  905MOL0     O24783   7.548   9.878   2.769 -0.2959  0.6178  0.5212
  905MOL0     C24784   7.685   9.917   2.783  0.6361  0.2019 -0.0546
  905MOL0     C24785   7.744  10.008   2.694 -0.1720 -0.4827  0.5185
  905MOL0     C24786   7.880  10.037   2.702 -0.7977 -0.1789  0.1028
  905MOL0     C24787   7.952   9.996   2.812 -0.7464  0.1242  0.2386
  905MOL0     O24788   8.088  10.022   2.805  0.2846 -0.4377  0.5981
  905MOL0     C24789   8.152  10.035   2.928  0.5870 -0.6055 -0.0252
  905MOL0     C24790   8.288  10.096   2.895 -0.2540 -0.3017 -0.4116
  905MOL0     C24791   8.383   9.986   2.840  0.1623  0.7267 -0.0095
  905MOL0     C24792   8.448   9.896   2.947  0.1619  0.1401  0.4743
  905MOL0     C24793   8.545   9.801   2.876 -0.4111 -0.2584 -0.7695
  905MOL0     C24794   8.611   9.703   2.970 -0.1433  0.2538 -0.3662
  905MOL0     C24795   8.664   9.591   2.876  0.1301  0.3852 -0.0597
  905MOL0     C24796   8.767   9.508   2.951 -0.1724 -0.2767  0.0984
  905MOL0    Cl24797   8.843   9.413   2.822  0.0902  0.1272 -0.3544
  905MOL0     C24798   7.891   9.910   2.908 -0.3045  0.8353 -0.0660
  905MOL0     C24799   7.756   9.864   2.887 -0.5173  0.3491 -0.2736
  905MOL0     O24800   7.593   9.656   2.763  0.3888  0.6507 -0.4079
  905MOL0     C24801   7.303   9.618   2.784 -0.6539 -0.0165  0.8087
  905MOL0     C24802   7.166   9.604   2.750  0.0889 -0.3792 -0.4714
  905MOL0     N24803   6.489   9.274   2.819 -0.7055  0.0225 -0.1026
  905MOL0     N24804   6.376   9.221   2.804  0.4563  0.3044  0.5173
  905MOL0     C24805   5.311   9.189   2.240  0.1581 -0.5763  0.3397
  905MOL0     C24806   5.167   9.191   2.225 -0.5153  0.5818 -0.5494
  905MOL0     C24807   4.769   9.399   2.277  0.8236  0.5393  0.3151
  905MOL0     C24808   4.738   9.453   2.152 -0.2812 -0.0055 -0.2532
  905MOL0     C24809   4.607   9.478   2.115 -0.2047 -0.1643  0.2958
  905MOL0     C24810   4.508   9.437   2.197 -0.5629 -0.9016 -0.5125
  905MOL0     O24811   4.384   9.459   2.161  0.6286  0.0884 -0.5259
  905MOL0     C24812   4.274   9.453   2.255  0.7988 -0.2150  0.0830
  905MOL0     C24813   4.145   9.446   2.176 -0.4290 -0.2718  0.0818
  905MOL0     C24814   4.113   9.583   2.133 -0.4656  0.2502 -0.0696
  905MOL0     C24815   3.961   9.603   2.099  0.5197 -0.2462  0.2361
  905MOL0     C24816   3.936   9.741   2.061 -0.5439  0.7998 -0.1855
  905MOL0     C24817   3.914   9.863   2.035  0.0549  0.1937 -0.0111
  905MOL0     C24818   4.539   9.381   2.323 -0.4977  0.3305  0.3243
  905MOL0     C24819   4.670   9.366   2.369 -1.1869  0.3879  0.3560
  905MOL0     C24820   4.695   9.287   2.499  0.7564  0.1914 -1.0843
  905MOL0     H24821   5.149   9.531   2.149 -0.4399 -0.7364 -2.0696
  905MOL0     H24822   5.394   9.502   2.158  1.9956 -1.2437  1.2609
  905MOL0     H24823   5.661   9.303   2.113 -0.3198  0.6046  0.0400
  905MOL0     H24824   5.533   9.174   2.092  0.9832 -0.5238 -0.4863
  905MOL0     H24825   5.615   9.077   2.316  0.9402 -1.3476 -0.8923
  905MOL0     H24826   5.703   9.036   2.164  1.4482  1.1815  0.1585
  905MOL0     H24827   5.838   9.258   2.238  0.4560 -0.5075  0.3280
  905MOL0     H24828   5.801   9.193   2.397  1.5199  2.5242 -0.6738
  905MOL0     H24829   5.902   8.974   2.333 -0.6506  0.0691  0.9114
  905MOL0     H24830   5.912   9.050   2.165 -1.8674  3.5898 -1.0735
  905MOL0     H24831   6.073   9.213   2.264  1.7713  0.3025  1.4775
  905MOL0     H24832   6.118   9.043   2.293  0.2181  0.1986 -0.1242
  905MOL0     H24833   5.996   9.244   2.487  0.5707 -0.9869  0.1092
  905MOL0     H24834   6.006   9.075   2.525 -2.3017  1.3835  0.3435
  905MOL0     H24835   6.242   9.254   2.441  2.2531 -0.7105  0.5214
  905MOL0     H24836   6.255   9.089   2.499  0.2239  0.1869 -0.6919
  905MOL0     H24837   6.132   9.344   2.633  0.9763  0.3585 -1.8344
  905MOL0     H24838   6.124   9.189   2.719  0.9888  0.5812  0.6496
  905MOL0     H24839   6.363   9.445   2.569  0.3319  1.1727  0.7535
  905MOL0     H24840   6.672   9.452   2.810 -1.3360  1.3760  0.2582
  905MOL0     H24841   6.586   9.573   2.731 -2.7323  0.2080  3.1334
  905MOL0     H24842   6.743   9.335   2.620  0.7279 -0.5355  3.6655
  905MOL0     H24843   6.622   9.431   2.524  0.2430  1.9622 -0.7447
  905MOL0     H24844   6.811   9.533   2.451 -0.3922  0.5306 -0.5248
  905MOL0     H24845   6.732   9.643   2.563  0.2298 -0.4785 -0.0386
  905MOL0     H24846   6.882   9.518   2.747 -0.5307  0.1082 -0.0807
  905MOL0     H24847   6.979   9.465   2.623 -2.3398 -0.8955 -2.3196
  905MOL0     H24848   7.104   9.888   2.586  0.5271 -1.2075 -1.2123
  905MOL0     H24849   7.305  10.003   2.522 -0.2475  1.8415  1.6472
  905MOL0     H24850   7.459   9.938   2.536  3.1821  1.3299  2.9497
  905MOL0     H24851   7.389  10.040   2.665 -0.4539  0.8463 -0.5459
  905MOL0     H24852   7.691  10.057   2.614  2.2726  1.3910 -0.0614
  905MOL0     H24853   7.939  10.086   2.625  0.4318 -3.3196 -1.1250
  905MOL0     H24854   8.110  10.111   2.994 -0.8970 -0.7307 -0.7973
  905MOL0     H24855   8.144   9.937   2.975 -0.8945  0.3542  1.8150
  905MOL0     H24856   8.273  10.175   2.821  2.0720 -0.7407 -1.4562
  905MOL0     H24857   8.332  10.142   2.984 -0.9065 -0.6816  0.1155
  905MOL0     H24858   8.465  10.028   2.781  1.1233 -1.2671 -0.1760
  905MOL0     H24859   8.321   9.930   2.770  0.0977  1.6245 -0.6986
  905MOL0     H24860   8.370   9.833   2.990  1.1480 -1.3433  0.1895
  905MOL0     H24861   8.504   9.958   3.018  0.3406  2.3338 -1.4904
  905MOL0     H24862   8.491   9.739   2.803  0.8197 -1.6046 -0.5923
  905MOL0     H24863   8.616   9.855   2.813  0.4953 -0.7342 -0.1805
  905MOL0     H24864   8.542   9.664   3.045 -0.2086  3.1925  1.2701
  905MOL0     H24865   8.699   9.752   3.014  1.1858  0.3406 -2.8986
  905MOL0     H24866   8.722   9.639   2.797 -2.6594  2.0616 -1.2369
  905MOL0     H24867   8.586   9.530   2.831 -1.8557  2.1682  0.7734
  905MOL0     H24868   8.716   9.437   3.017 -2.3603 -0.3247 -1.5314
  905MOL0     H24869   8.841   9.573   2.999 -2.5511 -0.2694  4.1293
  905MOL0     H24870   7.948   9.863   2.987 -0.2116  0.2505 -0.4692
  905MOL0     H24871   7.714   9.785   2.949 -1.9364  0.0688 -1.5305
  905MOL0     H24872   7.362   9.557   2.852  0.0529  1.6080  1.7052
  905MOL0     H24873   7.126   9.512   2.792  1.2381 -0.1296  1.3142
  905MOL0     H24874   5.362   9.094   2.246 -2.2077 -2.1318 -1.7875
  905MOL0     H24875   5.114   9.103   2.259  0.7025 -0.4738 -1.2906
  905MOL0     H24876   4.817   9.486   2.086 -0.7321 -2.1018 -1.9363
  905MOL0     H24877   4.573   9.530   2.026 -0.8482  0.2216  0.7558
  905MOL0     H24878   4.284   9.363   2.316  0.6689  0.8419  1.7501
  905MOL0     H24879   4.293   9.536   2.325 -0.5360  0.0694  0.1382
  905MOL0     H24880   4.070   9.413   2.248 -1.1907 -2.4752 -1.6171
  905MOL0     H24881   4.142   9.384   2.086  0.2849  0.4647 -0.4674
  905MOL0     H24882   4.146   9.652   2.211  4.4824 -0.9536 -0.7331
  905MOL0     H24883   4.169   9.606   2.042  0.8331 -0.5211  0.4990
  905MOL0     H24884   3.895   9.571   2.181  2.0276 -2.9558  0.5135
  905MOL0     H24885   3.936   9.536   2.016 -2.2610  1.3132 -0.3008
  905MOL0     H24886   3.904   9.965   2.004  1.4143  0.2092 -0.4315
  905MOL0     H24887   4.458   9.349   2.387 -1.3563 -0.5559 -1.1548
  905MOL0     H24888   4.752   9.339   2.576  0.4348  1.3293 -1.5804
  905MOL0     H24889   4.602   9.259   2.549  1.2131 -1.4287 -1.0936
  905MOL0     H24890   4.738   9.189   2.477  1.7079  0.2730  0.2955
  906MOL0     O24891   6.565   4.629   8.773  0.1124 -0.2355  0.4837
  906MOL0     C24892   6.476   4.576   8.706 -0.5002 -0.0480  0.5723
  906MOL0     O24893   6.432   4.624   8.584 -0.3362 -0.6108  0.0730
  906MOL0     C24894   6.496   4.742   8.545  0.8161  0.0437  0.0177
  906MOL0     C24895   6.581   4.726   8.439  0.2991 -0.1780  0.5562
  906MOL0     C24896   6.636   4.838   8.384 -0.1455  0.7898  0.3457
  906MOL0     C24897   6.601   4.967   8.431  0.2707 -1.1842  0.4060
  906MOL0     O24898   6.636   5.091   8.373  0.1234  0.3258 -0.4637
  906MOL0     C24899   6.769   5.119   8.390 -0.2890  0.8687 -0.3076
  906MOL0     C24900   6.791   5.272   8.426  0.1821 -1.0878  0.2170
  906MOL0     C24901   6.935   5.320   8.410 -0.1545  0.6399  0.1844
  906MOL0     C24902   6.951   5.391   8.280  0.4258  0.5427  0.4914
  906MOL0     C24903   7.093   5.466   8.265  0.1836  0.1261  0.0193
  906MOL0     C24904   7.077   5.600   8.340 -0.8910  0.5077  0.2569
  906MOL0     C24905   6.974   5.704   8.271 -0.2640  0.5068  0.4733
  906MOL0     C24906   6.960   5.831   8.361  0.2366  0.2438  0.5229
  906MOL0     N24907   7.079   5.871   8.438 -0.5587 -0.7467  0.3210
  906MOL0     C24908   7.200   5.910   8.383  0.1901 -0.1939 -0.4855
  906MOL0     C24909   7.285   5.944   8.477 -0.4532 -0.1158 -0.3276
  906MOL0     C24910   7.426   5.997   8.449 -0.3623  0.6584 -0.3389
  906MOL0     C24911   7.536   5.889   8.462  0.7356  0.7027 -0.5523
  906MOL0     C24912   7.557   5.861   8.610 -0.2456 -0.4552 -0.1543
  906MOL0     C24913   7.671   5.780   8.645 -1.6043  0.4751  0.2293
  906MOL0     O24914   7.797   5.828   8.596  0.3234  0.6604 -0.3475
  906MOL0     C24915   7.879   5.910   8.678  0.7443  0.1730  0.9664
  906MOL0     C24916   7.882   5.917   8.811  0.3241  0.6360 -0.8000
  906MOL0     C24917   7.950   6.026   8.881  0.4556  0.2862 -0.6758
  906MOL0     C24918   7.925   6.028   9.027 -0.3198  0.1910  0.6710
  906MOL0     C24919   8.018   6.124   8.804 -1.0533 -0.3516  0.4258
  906MOL0     C24920   8.087   6.235   8.859 -1.1859  0.6693 -0.1696
  906MOL0     O24921   8.174   6.297   8.770 -0.9961  0.4890  0.5349
  906MOL0     C24922   8.236   6.419   8.792 -0.6354  0.3500 -0.7444
  906MOL0     C24923   8.304   6.442   8.909  0.7614  0.3954 -0.0633
  906MOL0     C24924   8.379   6.557   8.924  0.0856  0.6591  0.5952
  906MOL0     C24925   8.393   6.652   8.823 -1.1945 -0.0574 -0.4297
  906MOL0     O24926   8.479   6.756   8.845 -0.5505 -0.1192 -0.0826
  906MOL0     C24927   8.531   6.837   8.738  0.2310 -0.2562  0.5027
  906MOL0     C24928   8.445   6.963   8.722  0.2370  0.2028 -0.7150
  906MOL0     C24929   8.523   7.096   8.690  0.5812  0.0224  0.5587
  906MOL0     C24930   8.452   7.151   8.567  0.0205  0.0786 -0.8330
  906MOL0     C24931   8.505   7.281   8.528 -0.5804 -0.0469  0.6453
  906MOL0     C24932   8.424   7.324   8.405 -0.1731  0.0230 -0.6049
  906MOL0     C24933   8.469   7.462   8.353  0.7003  0.2878  0.5232
  906MOL0     C24934   8.606   7.460   8.297 -0.0763  0.1602 -0.0350
  906MOL0    Cl24935   8.620   7.337   8.171 -0.0131  0.2855 -0.3611
  906MOL0     C24936   8.319   6.630   8.710  0.3047 -0.1015  0.3023
  906MOL0     C24937   8.240   6.518   8.697  0.3440  0.6180  1.2160
  906MOL0     O24938   8.075   6.271   8.974 -0.2624  0.3597  0.0752
  906MOL0     C24939   8.016   6.113   8.661 -0.0187 -0.5278 -0.1731
  906MOL0     C24940   7.946   6.009   8.608  0.2341  0.5826 -0.2252
  906MOL0     N24941   7.212   5.938   8.594  0.0011 -0.4557 -0.1542
  906MOL0     N24942   7.092   5.898   8.572 -0.3853  1.0848  0.3326
  906MOL0     C24943   6.516   4.976   8.543 -0.1776 -0.0472 -0.4894
  906MOL0     C24944   6.454   4.866   8.595  0.5012 -0.0474 -1.9479
  906MOL0     C24945   6.412   4.451   8.746 -0.3445  0.6509  0.4462
  906MOL0     C24946   6.353   4.442   8.876 -0.2441  0.8142  0.6947
  906MOL0     C24947   6.279   4.330   8.915  0.2729  1.1094  0.5513
  906MOL0     C24948   6.295   4.210   8.836  0.0280 -0.0950  0.4765
  906MOL0     O24949   6.245   4.084   8.861 -0.4466 -0.6439 -0.4747
  906MOL0     C24950   6.153   4.083   8.971  0.7148 -0.2135  0.3326
  906MOL0     C24951   6.105   3.945   8.981 -0.5691  0.1112 -0.2426
  906MOL0     C24952   5.985   3.911   8.888 -0.7037  0.0725  1.2874
  906MOL0     C24953   5.930   3.767   8.887 -0.6823  0.2434 -0.4928
  906MOL0     C24954   5.878   3.738   9.022  0.3162 -0.1244  0.2039
  906MOL0     C24955   5.823   3.695   9.125 -0.5895  0.4498 -0.3087
  906MOL0     C24956   6.365   4.222   8.711 -0.5736 -0.9082 -0.8096
  906MOL0     C24957   6.425   4.343   8.665 -0.1247  0.9075  0.4246
  906MOL0     C24958   6.517   4.325   8.538 -0.5208  0.3576 -0.9269
  906MOL0     H24959   6.583   4.624   8.401 -0.1858 -0.1441  0.4336
  906MOL0     H24960   6.704   4.824   8.300  0.0619 -1.6096  0.8327
  906MOL0     H24961   6.822   5.089   8.299 -1.9002  0.5050 -1.1686
  906MOL0     H24962   6.818   5.060   8.468  0.6846  1.0936 -0.7292
  906MOL0     H24963   6.731   5.342   8.368  2.2509 -0.8686 -1.7920
  906MOL0     H24964   6.769   5.286   8.532  1.9252  0.2228  0.4512
  906MOL0     H24965   6.957   5.381   8.498 -1.6233  1.5367 -0.0309
  906MOL0     H24966   7.006   5.238   8.418  0.1784  1.0707  1.9789
  906MOL0     H24967   6.935   5.330   8.190 -0.0650  1.5179 -0.0936
  906MOL0     H24968   6.873   5.462   8.253  1.0791  0.8379 -0.6836
  906MOL0     H24969   7.111   5.489   8.160 -2.2104 -0.4714 -0.5852
  906MOL0     H24970   7.174   5.411   8.314  0.2986  0.4289  0.1719
  906MOL0     H24971   7.045   5.582   8.443 -0.7055 -2.7511 -0.1577
  906MOL0     H24972   7.181   5.635   8.343 -0.1352 -1.6544  0.7311
  906MOL0     H24973   6.875   5.658   8.262 -0.6225  1.1705  0.9123
  906MOL0     H24974   7.017   5.723   8.172 -1.3124 -2.6188 -0.7076
  906MOL0     H24975   6.933   5.905   8.285  1.9907 -1.0828 -1.5217
  906MOL0     H24976   6.867   5.819   8.417  0.4641 -0.0352  0.8532
  906MOL0     H24977   7.216   5.926   8.277  0.7959  1.6363 -0.1681
  906MOL0     H24978   7.463   6.076   8.516 -0.3482 -0.5210  1.0847
  906MOL0     H24979   7.442   6.018   8.343 -4.0259  1.9824 -0.7888
  906MOL0     H24980   7.494   5.794   8.427 -1.6441  0.7486  1.8368
  906MOL0     H24981   7.627   5.925   8.412 -0.6574  0.1280 -3.7509
  906MOL0     H24982   7.580   5.954   8.662  2.5472 -2.2412  2.0458
  906MOL0     H24983   7.468   5.818   8.656  0.1893  1.2641  2.5237
  906MOL0     H24984   7.672   5.762   8.753  0.6502  2.0081  0.5291
  906MOL0     H24985   7.645   5.679   8.610 -1.8249 -1.2026  4.5644
  906MOL0     H24986   7.844   5.832   8.867 -0.2722  1.7915  0.5921
  906MOL0     H24987   7.853   6.107   9.046 -0.5445 -0.2775  1.8541
  906MOL0     H24988   8.019   6.051   9.079  0.4893  1.2581 -1.1632
  906MOL0     H24989   7.884   5.934   9.067  2.7297 -0.5344  2.4030
  906MOL0     H24990   8.307   6.367   8.987  1.1268  0.6909  0.2128
  906MOL0     H24991   8.458   6.566   8.999  1.9278  3.0216 -1.4171
  906MOL0     H24992   8.631   6.872   8.764 -1.2294  4.4262  0.8223
  906MOL0     H24993   8.523   6.778   8.646 -1.9842  1.9074 -0.8219
  906MOL0     H24994   8.366   6.931   8.653 -0.1062 -0.8911  0.1504
  906MOL0     H24995   8.408   6.973   8.824 -0.7655 -0.8610 -0.9451
  906MOL0     H24996   8.630   7.074   8.678  0.8614  2.1912 -1.6757
  906MOL0     H24997   8.521   7.159   8.780  1.0844 -2.0241  2.0765
  906MOL0     H24998   8.345   7.161   8.588  0.0114 -0.4288 -0.6067
  906MOL0     H24999   8.459   7.080   8.483 -0.2597 -1.6125  0.5150
  906MOL0     H25000   8.507   7.358   8.606  0.6223  1.5575 -0.8670
  906MOL0     H25001   8.610   7.277   8.498  0.3856 -1.0109  3.7436
  906MOL0     H25002   8.321   7.339   8.437  0.2876  0.6837  0.6554
  906MOL0     H25003   8.425   7.244   8.331  0.8706 -0.0232 -0.5640
  906MOL0     H25004   8.459   7.531   8.437  2.3926 -1.4313  2.2368
  906MOL0     H25005   8.407   7.505   8.275  0.4914 -0.0231  0.5136
  906MOL0     H25006   8.676   7.440   8.379 -0.1353 -1.1327 -0.2866
  906MOL0     H25007   8.632   7.553   8.246  0.6822 -0.8017 -1.4900
  906MOL0     H25008   8.327   6.709   8.636 -0.3970  0.6965  1.0622
  906MOL0     H25009   8.172   6.522   8.612 -0.1156 -0.3605  1.5256
  906MOL0     H25010   8.057   6.178   8.585  1.8048 -1.5598 -0.1340
  906MOL0     H25011   7.931   6.004   8.501 -1.9470  1.7115 -0.0328
  906MOL0     H25012   6.497   5.071   8.592  1.0680 -0.7648  1.5092
  906MOL0     H25013   6.385   4.881   8.678  2.2385  0.9696 -0.6329
  906MOL0     H25014   6.358   4.529   8.941  0.0792  0.5634  1.0093
  906MOL0     H25015   6.212   4.337   9.001 -3.3308  2.0897 -2.0873
  906MOL0     H25016   6.202   4.100   9.067  1.1753 -0.3376  0.1211
  906MOL0     H25017   6.064   4.146   8.960 -0.6940 -2.0778  0.6769
  906MOL0     H25018   6.073   3.911   9.080  0.6156  1.3254  0.5867
  906MOL0     H25019   6.187   3.879   8.953  0.2347  1.7282 -1.8839
  906MOL0     H25020   5.903   3.982   8.903 -2.1254 -1.7340  2.3867
  906MOL0     H25021   6.026   3.930   8.788 -0.4955  1.2320  1.5788
  906MOL0     H25022   6.001   3.690   8.854 -0.4666  0.3465 -0.2649
  906MOL0     H25023   5.843   3.768   8.821  0.0977 -1.3850 -1.6288
  906MOL0     H25024   5.791   3.653   9.218 -2.0917  2.0505 -0.0561
  906MOL0     H25025   6.377   4.138   8.644  1.5310  0.6350 -2.4970
  906MOL0     H25026   6.496   4.405   8.466 -2.0139 -0.2841 -1.2505
  906MOL0     H25027   6.619   4.321   8.575 -2.1239 -1.0487  4.2295
  906MOL0     H25028   6.494   4.228   8.493  0.6154  0.3404 -1.4886
  907MOL0     O25029   5.404   7.781   0.674  0.0510 -0.2298 -0.0670
  907MOL0     C25030   5.400   7.697   0.763 -0.4126  0.3839  0.0547
  907MOL0     O25031   5.509   7.649   0.834 -0.2189 -1.0200  0.0042
  907MOL0     C25032   5.635   7.645   0.783 -1.7319 -0.2028  0.6655
  907MOL0     C25033   5.673   7.645   0.646 -0.3064  1.6560  0.5120
  907MOL0     C25034   5.801   7.648   0.609 -0.9461 -0.1464 -0.3316
  907MOL0     C25035   5.904   7.656   0.705  0.3002  0.2152  0.7490
  907MOL0     O25036   6.035   7.658   0.662 -0.0028  0.1958  0.9298
  907MOL0     C25037   6.142   7.706   0.744 -0.0545  0.0524  0.4851
  907MOL0     C25038   6.272   7.699   0.667  0.6540 -0.0467  0.0102
  907MOL0     C25039   6.285   7.572   0.587  0.2647  0.1822  0.4842
  907MOL0     C25040   6.265   7.441   0.659  0.0248 -0.4722 -0.2205
  907MOL0     C25041   6.317   7.322   0.588 -0.1679  0.4017 -0.1614
  907MOL0     C25042   6.259   7.304   0.443  0.1794  0.1195  0.1497
  907MOL0     C25043   6.109   7.265   0.454  0.0020 -0.5535 -0.0622
  907MOL0     C25044   6.047   7.263   0.314 -0.2076 -0.5460  0.0494
  907MOL0     N25045   5.913   7.216   0.317 -0.3025  0.2715 -0.5436
  907MOL0     C25046   5.873   7.082   0.329  0.7233 -0.0554 -0.0953
  907MOL0     C25047   5.734   7.092   0.326 -0.7453  0.8666  0.4162
  907MOL0     C25048   5.653   6.971   0.308  0.2548  0.3752  0.4222
  907MOL0     C25049   5.504   7.011   0.323 -0.1960 -0.0625  0.1942
  907MOL0     C25050   5.418   6.880   0.301  0.1572  0.2038 -0.4411
  907MOL0     C25051   5.266   6.884   0.338  0.1291 -0.2136 -0.8609
  907MOL0     O25052   5.194   6.981   0.260  0.1037 -0.0129 -0.2813
  907MOL0     C25053   5.091   7.034   0.336  0.2891 -0.4750  0.1551
  907MOL0     C25054   5.116   7.114   0.456 -0.6283  0.1003  0.5049
  907MOL0     C25055   5.018   7.177   0.525 -0.6418  0.2121  0.2208
  907MOL0     C25056   5.063   7.245   0.650  0.5827  0.5747  0.8634
  907MOL0     C25057   4.880   7.163   0.487 -0.3320 -0.2585 -0.1614
  907MOL0     C25058   4.759   7.231   0.548  0.2534 -0.2737 -1.3363
  907MOL0     O25059   4.641   7.181   0.519  0.2602  0.8439 -0.0054
  907MOL0     C25060   4.535   7.220   0.591  0.8279 -0.4043  0.6214
  907MOL0     C25061   4.520   7.194   0.730  0.0846  0.4986  1.1813
  907MOL0     C25062   4.407   7.257   0.796  0.5425  0.0114  0.7432
  907MOL0     C25063   4.312   7.335   0.734 -0.3010 -1.2208 -0.2440
  907MOL0     O25064   4.202   7.408   0.783  0.5712  0.4568 -0.0289
  907MOL0     C25065   4.179   7.413   0.921  0.5546 -0.3774 -0.4849
  907MOL0     C25066   4.050   7.495   0.947 -0.2625  0.0997 -0.0163
  907MOL0     C25067   4.078   7.647   0.921 -0.9686  0.5485 -0.7979
  907MOL0     C25068   3.947   7.715   0.971  0.1807  0.7530  0.3737
  907MOL0     C25069   3.945   7.858   0.905  0.1537  0.8492 -0.0204
  907MOL0     C25070   4.071   7.939   0.924  0.2915 -0.9819 -0.4958
  907MOL0     C25071   4.077   8.083   0.860 -0.3792  0.2449 -0.5230
  907MOL0     C25072   4.025   8.190   0.962  1.1889  1.1646 -0.1575
  907MOL0    Cl25073   4.082   8.343   0.891 -0.3571 -0.2687 -0.8945
  907MOL0     C25074   4.322   7.357   0.596 -0.3792 -0.3314 -0.8654
  907MOL0     C25075   4.435   7.302   0.528  0.1776  0.2436 -0.5391
  907MOL0     O25076   4.768   7.336   0.611  0.5335  0.1790  1.0245
  907MOL0     C25077   4.858   7.079   0.371  1.2717 -0.4281  0.5445
  907MOL0     C25078   4.957   7.019   0.294  0.0156 -0.7545 -0.5115
  907MOL0     N25079   5.703   7.230   0.299  0.7573 -0.4978 -0.6679
  907MOL0     N25080   5.808   7.295   0.299  0.1249  0.1294 -0.0034
  907MOL0     C25081   5.871   7.662   0.836  0.1306  0.4556  0.0061
  907MOL0     C25082   5.737   7.658   0.880 -0.3501 -0.1004 -0.3087
  907MOL0     C25083   5.272   7.628   0.801 -0.6138  0.1753 -0.2688
  907MOL0     C25084   5.280   7.520   0.883 -0.1014  0.4023 -0.8179
  907MOL0     C25085   5.165   7.466   0.931  0.7641 -0.2517 -0.2402
  907MOL0     C25086   5.038   7.515   0.913  0.3448 -0.7820 -0.2036
  907MOL0     O25087   4.923   7.453   0.964  0.0039  0.4971  0.1300
  907MOL0     C25088   4.788   7.498   0.924  0.0116  0.0123 -0.5980
  907MOL0     C25089   4.757   7.627   0.994  0.1725  0.0270 -0.1859
  907MOL0     C25090   4.614   7.673   0.965 -0.3248 -0.0885 -0.5679
  907MOL0     C25091   4.578   7.711   0.821 -0.2220  0.2968 -0.1317
  907MOL0     C25092   4.656   7.831   0.785 -0.0466  0.2366 -0.1882
  907MOL0     C25093   4.712   7.934   0.754 -0.2957  1.2682 -0.1035
  907MOL0     C25094   5.031   7.618   0.824 -0.9240 -0.5441 -0.2129
  907MOL0     C25095   5.146   7.685   0.771 -0.0499  0.7037 -1.4312
  907MOL0     C25096   5.115   7.807   0.679 -0.5193  0.2669  0.1490
  907MOL0     H25097   5.604   7.647   0.562  0.3197  1.0397 -0.0358
  907MOL0     H25098   5.819   7.638   0.502  1.8511 -0.2078  0.0857
  907MOL0     H25099   6.139   7.645   0.835 -2.8492  0.9417  1.1002
  907MOL0     H25100   6.120   7.808   0.776 -1.8245 -0.6223  1.5847
  907MOL0     H25101   6.280   7.789   0.605  0.7932  2.6029  3.5674
  907MOL0     H25102   6.356   7.707   0.737  1.1158  1.0566 -0.6535
  907MOL0     H25103   6.220   7.576   0.499  1.1528 -1.6912 -0.3109
  907MOL0     H25104   6.377   7.568   0.529  0.3287  1.0251  0.5214
  907MOL0     H25105   6.324   7.442   0.751  2.4725 -1.8941 -1.6799
  907MOL0     H25106   6.159   7.421   0.680 -0.5291 -0.2248 -2.4784
  907MOL0     H25107   6.292   7.231   0.643  3.0473  0.8535  2.3514
  907MOL0     H25108   6.423   7.337   0.569  0.0244 -0.1088  0.4964
  907MOL0     H25109   6.273   7.397   0.387 -1.5170  1.0490  1.1579
  907MOL0     H25110   6.301   7.213   0.401 -1.4214 -0.1486 -0.9744
  907MOL0     H25111   6.045   7.335   0.508 -0.5894  1.2094 -2.8177
  907MOL0     H25112   6.092   7.166   0.497 -1.4147  0.4471  1.8307
  907MOL0     H25113   6.042   7.367   0.282 -1.4851 -0.8291 -0.7354
  907MOL0     H25114   6.100   7.202   0.241 -3.0818 -1.5845 -1.3294
  907MOL0     H25115   5.938   6.996   0.339 -0.0001 -0.4095  2.0993
  907MOL0     H25116   5.669   6.902   0.391  0.0783  1.9727  1.8351
  907MOL0     H25117   5.682   6.925   0.213 -0.6027 -0.2121  0.4269
  907MOL0     H25118   5.488   7.047   0.425 -0.0308 -3.2256  1.4638
  907MOL0     H25119   5.472   7.084   0.248  1.0731  0.6229  0.2898
  907MOL0     H25120   5.425   6.842   0.199  1.3960 -0.8547  0.0089
  907MOL0     H25121   5.468   6.823   0.380  0.6603 -1.5984 -1.9743
  907MOL0     H25122   5.214   6.789   0.325 -0.2145 -0.0144 -0.9756
  907MOL0     H25123   5.259   6.897   0.446  1.1092 -1.5640 -0.6180
  907MOL0     H25124   5.223   7.116   0.477  0.9170 -1.9978 -5.3108
  907MOL0     H25125   5.172   7.259   0.655  0.3894  2.8411  0.0181
  907MOL0     H25126   5.028   7.185   0.735 -1.2353 -1.7781 -1.4038
  907MOL0     H25127   5.008   7.338   0.666  0.4576  0.7280 -0.3481
  907MOL0     H25128   4.597   7.136   0.780 -1.5048 -3.2993 -0.4165
  907MOL0     H25129   4.393   7.239   0.902  1.4294  1.6835  1.1845
  907MOL0     H25130   4.182   7.310   0.957 -0.0496 -0.1964  0.0836
  907MOL0     H25131   4.257   7.483   0.953  0.5888  0.6722 -2.6805
  907MOL0     H25132   3.979   7.461   0.871  2.3487 -1.9234 -1.7560
  907MOL0     H25133   4.006   7.473   1.045 -0.9465  0.0730 -0.3214
  907MOL0     H25134   4.095   7.663   0.814 -0.3186 -0.1929 -0.8158
  907MOL0     H25135   4.161   7.680   0.983 -1.6148 -2.4912  1.9720
  907MOL0     H25136   3.948   7.730   1.079  1.1132  1.6517  0.2575
  907MOL0     H25137   3.861   7.657   0.936 -0.4801  1.4757  0.7691
  907MOL0     H25138   3.923   7.849   0.799  0.3771  3.9359 -0.4090
  907MOL0     H25139   3.859   7.909   0.951 -0.4564  0.0457 -0.2445
  907MOL0     H25140   4.158   7.884   0.886  1.2164 -0.9898  1.5124
  907MOL0     H25141   4.090   7.962   1.029 -3.1709 -2.8682  0.6759
  907MOL0     H25142   4.011   8.085   0.773  0.1241  1.7472 -0.8946
  907MOL0     H25143   4.179   8.098   0.822 -0.5795 -2.8532 -2.7465
  907MOL0     H25144   4.060   8.183   1.065  0.9507  0.4125 -0.1180
  907MOL0     H25145   3.916   8.178   0.968  1.2093  1.1358  0.1795
  907MOL0     H25146   4.248   7.410   0.538 -1.6011 -1.6869 -0.5904
  907MOL0     H25147   4.460   7.330   0.426  0.9572  0.4627 -0.2943
  907MOL0     H25148   4.754   7.059   0.348  1.0813 -0.3685  1.3311
  907MOL0     H25149   4.936   6.954   0.209  0.2088  0.4297 -1.5029
  907MOL0     H25150   5.949   7.681   0.908  0.3478  0.4181 -0.2177
  907MOL0     H25151   5.703   7.669   0.982 -0.6077  2.3877 -0.5873
  907MOL0     H25152   5.363   7.458   0.915 -0.7648 -0.4314 -0.6820
  907MOL0     H25153   5.171   7.383   1.000  1.9940 -0.0521 -0.0798
  907MOL0     H25154   4.779   7.504   0.815  2.2428 -3.5494 -1.1633
  907MOL0     H25155   4.726   7.415   0.960 -0.1600  0.0785 -0.7389
  907MOL0     H25156   4.822   7.707   0.957 -2.0139  1.1850 -1.7000
  907MOL0     H25157   4.769   7.611   1.102 -2.4474 -0.1749  0.1365
  907MOL0     H25158   4.541   7.594   0.987 -1.0650  0.3953 -1.2356
  907MOL0     H25159   4.592   7.756   1.033  0.5775  0.2276 -0.6530
  907MOL0     H25160   4.475   7.746   0.830 -0.6367 -0.8722 -0.2258
  907MOL0     H25161   4.595   7.630   0.749 -1.4167 -0.4745  0.4301
  907MOL0     H25162   4.768   8.024   0.742  0.9090  0.3257 -2.2308
  907MOL0     H25163   4.929   7.650   0.806 -0.9076  1.0654  2.1091
  907MOL0     H25164   5.169   7.896   0.714 -0.1607  1.3782 -2.8958
  907MOL0     H25165   5.129   7.794   0.571  0.4013  1.8515  0.0514
  907MOL0     H25166   5.007   7.823   0.690 -0.6261 -0.0591 -0.3998
  908MOL0     O25167   8.860   3.918   9.229 -0.5231 -0.0486 -0.3243
  908MOL0     C25168   8.934   3.957   9.319 -0.5379  0.2097 -1.1143
  908MOL0     O25169   9.067   3.999   9.302  0.0631 -0.5363 -0.1100
  908MOL0     C25170   9.118   4.011   9.170  0.7095 -0.2780 -0.7548
  908MOL0     C25171   9.088   4.126   9.094  0.5292  0.4055 -0.4269
  908MOL0     C25172   9.137   4.135   8.966  0.0490 -0.0401  1.1947
  908MOL0     C25173   9.203   4.026   8.905 -0.5561 -0.3651  0.6466
  908MOL0     O25174   9.214   4.029   8.767 -0.0448 -0.0418 -0.5021
  908MOL0     C25175   9.326   4.107   8.713 -0.0472  0.3199  0.3685
  908MOL0     C25176   9.269   4.209   8.608 -0.0975 -0.2116 -0.2392
  908MOL0     C25177   9.373   4.282   8.538 -0.5669 -0.4810 -0.0707
  908MOL0     C25178   9.488   4.194   8.462  0.0430 -0.2688 -0.6680
  908MOL0     C25179   9.568   4.285   8.371 -0.1955  0.7472 -0.6800
  908MOL0     C25180   9.689   4.212   8.309  0.6090  0.4758  0.0613
  908MOL0     C25181   9.746   4.303   8.200  0.4685 -0.0765 -0.6763
  908MOL0     C25182   9.836   4.217   8.103  0.2135 -0.0416 -0.1300
  908MOL0     N25183   9.892   4.299   7.992  0.0243 -0.4700 -0.8091
  908MOL0     C25184   9.834   4.342   7.877  0.8486 -0.4295 -0.4338
  908MOL0     C25185   9.939   4.386   7.806 -0.1421 -0.3927  0.5139
  908MOL0     C25186   9.943   4.466   7.676 -0.4574 -1.3224 -0.5730
  908MOL0     C25187   9.870   4.601   7.683  0.0568 -0.1680  0.4868
  908MOL0     C25188   9.838   4.646   7.540  0.2457 -0.0666  0.2935
  908MOL0     C25189   9.719   4.746   7.529  0.4497  0.3301  0.4175
  908MOL0     O25190   9.708   4.847   7.642  0.2833  0.4534  0.2924
  908MOL0     C25191   9.817   4.935   7.650  0.9015  0.1065 -0.2035
  908MOL0     C25192   9.823   5.005   7.770 -0.7430 -0.0967  0.2578
  908MOL0     C25193   9.937   5.089   7.797  0.1768  0.5939 -0.1711
  908MOL0     C25194   9.944   5.127   7.946  0.3428 -0.1967  0.2439
  908MOL0     C25195  10.035   5.122   7.699  0.7267 -0.2791  0.1897
  908MOL0     C25196  10.151   5.220   7.727  0.5575 -0.4321  0.9361
  908MOL0     O25197  10.245   5.227   7.632  0.1210 -0.0819  1.0447
  908MOL0     C25198  10.347   5.318   7.647 -0.2603  0.9741  0.0409
  908MOL0     C25199  10.318   5.453   7.624  0.0311  0.1295  0.2372
  908MOL0     C25200  10.426   5.544   7.605 -0.3936 -0.2319 -0.2762
  908MOL0     C25201  10.559   5.502   7.612  0.3356  0.0432  0.0534
  908MOL0     O25202  10.673   5.573   7.600  1.0820  0.3098 -0.0691
  908MOL0     C25203  10.674   5.684   7.506 -0.2426 -0.1707 -0.2624
  908MOL0     C25204  10.826   5.748   7.509  0.5637  0.6813  0.2461
  908MOL0     C25205  10.854   5.820   7.651  0.1246  0.7230  0.4494
  908MOL0     C25206  11.008   5.867   7.641 -0.8280  0.3833  0.2184
  908MOL0     C25207  11.033   5.925   7.784  0.2316  0.3457 -0.1497
  908MOL0     C25208  11.139   6.031   7.773  0.0850  0.4865  0.0593
  908MOL0     C25209  11.170   6.129   7.883 -0.1290  0.3341 -0.4221
  908MOL0     C25210  11.290   6.223   7.849 -0.1589 -0.0795  0.0177
  908MOL0    Cl25211  11.273   6.339   7.706  0.6028  0.7586 -0.0895
  908MOL0     C25212  10.582   5.367   7.655  0.6032  0.9114 -0.1832
  908MOL0     C25213  10.483   5.277   7.673 -0.7723 -0.2882 -0.6732
  908MOL0     O25214  10.135   5.294   7.820  0.2972  0.0519 -0.1786
  908MOL0     C25215  10.026   5.051   7.582  0.2618  0.0410 -0.1966
  908MOL0     C25216   9.918   4.964   7.562 -0.2287  0.3067 -0.2502
  908MOL0     N25217  10.058   4.357   7.869  0.4707 -0.5522 -0.4236
  908MOL0     N25218  10.024   4.298   7.974  0.5450  0.3205 -0.1149
  908MOL0     C25219   9.228   3.906   8.978 -0.3198 -0.0283  0.1403
  908MOL0     C25220   9.186   3.900   9.113 -0.3455 -0.2259  1.0841
  908MOL0     C25221   8.869   3.963   9.459 -0.3462  0.2986  0.2286
  908MOL0     C25222   8.734   3.910   9.478 -0.3989  0.1831  0.5072
  908MOL0     C25223   8.678   3.917   9.609 -0.8536  0.6867 -0.6827
  908MOL0     C25224   8.747   3.955   9.731 -0.1320 -0.0860  0.9786
  908MOL0     O25225   8.673   3.964   9.847 -0.1281  0.5457  0.9515
  908MOL0     C25226   8.737   4.005   9.966 -0.1481  0.2396  0.4973
  908MOL0     C25227   8.644   4.016  10.086 -0.5112  0.0693  0.7424
  908MOL0     C25228   8.547   4.128  10.086  1.0523 -0.4657 -0.3222
  908MOL0     C25229   8.463   4.116  10.220 -0.0659 -0.6181 -0.1696
  908MOL0     C25230   8.342   4.039  10.207 -0.1322 -0.3470  0.6048
  908MOL0     C25231   8.234   3.982  10.206 -0.5420  0.3386 -1.0154
  908MOL0     C25232   8.881   3.999   9.711  1.2327 -0.0686 -0.2614
  908MOL0     C25233   8.942   3.986   9.578 -0.2429 -0.0940 -2.1506
  908MOL0     C25234   9.094   4.003   9.583  0.0995  0.1989 -0.8427
  908MOL0     H25235   9.020   4.197   9.140 -1.4809 -0.3969 -2.0007
  908MOL0     H25236   9.110   4.230   8.921 -0.4803 -0.3690  0.8047
  908MOL0     H25237   9.393   4.030   8.676 -0.2205 -0.2904  1.2861
  908MOL0     H25238   9.378   4.164   8.790 -0.6602  4.7579 -2.1594
  908MOL0     H25239   9.211   4.153   8.534  0.1633 -1.3485  0.3820
  908MOL0     H25240   9.201   4.280   8.655  1.4935  1.3539 -0.1708
  908MOL0     H25241   9.325   4.348   8.466  0.8133  1.2145  0.4977
  908MOL0     H25242   9.427   4.341   8.613 -0.6460 -4.4947  3.5763
  908MOL0     H25243   9.545   4.140   8.538  0.9153  0.1033 -1.0441
  908MOL0     H25244   9.444   4.120   8.395  0.3996 -0.5791 -0.5580
  908MOL0     H25245   9.602   4.372   8.428 -2.3450  0.2766  1.5108
  908MOL0     H25246   9.495   4.321   8.299 -0.0607  0.8073 -0.7858
  908MOL0     H25247   9.754   4.193   8.395  0.7849 -1.5836 -0.4755
  908MOL0     H25248   9.655   4.116   8.269  0.8922  1.0423 -1.6493
  908MOL0     H25249   9.813   4.380   8.238  0.0967 -0.0253 -0.1013
  908MOL0     H25250   9.664   4.348   8.142 -0.9623  1.9417  2.6148
  908MOL0     H25251   9.921   4.174   8.156  1.3586  1.4689 -0.6864
  908MOL0     H25252   9.762   4.149   8.059 -0.4744  1.3431 -1.2058
  908MOL0     H25253   9.732   4.371   7.852  0.7159  1.2606  1.7769
  908MOL0     H25254   9.895   4.401   7.603 -2.0598 -1.4009  0.5194
  908MOL0     H25255  10.051   4.475   7.658  0.1498 -3.3063  1.5642
  908MOL0     H25256   9.778   4.597   7.743 -0.8903 -3.7058 -0.9263
  908MOL0     H25257   9.936   4.677   7.725 -0.1145 -0.2638  0.9347
  908MOL0     H25258   9.928   4.676   7.485 -0.5089  0.9702 -0.4089
  908MOL0     H25259   9.803   4.564   7.478  1.0813  0.7797 -1.3502
  908MOL0     H25260   9.737   4.796   7.433  5.4108  1.0619  1.4341
  908MOL0     H25261   9.625   4.691   7.518  2.4145 -2.8688 -3.0357
  908MOL0     H25262   9.745   4.988   7.844 -0.0502  0.7477  1.2105
  908MOL0     H25263  10.037   5.092   7.992  1.4502  0.8494 -1.1141
  908MOL0     H25264   9.871   5.085   8.016  1.1475 -0.3580  1.0043
  908MOL0     H25265   9.930   5.235   7.953  0.8306 -0.2224  1.8906
  908MOL0     H25266  10.215   5.484   7.608 -0.0372 -0.3529 -0.3005
  908MOL0     H25267  10.397   5.639   7.561 -0.0869  0.8733  1.7676
  908MOL0     H25268  10.652   5.645   7.407 -2.9591  2.2485 -0.7528
  908MOL0     H25269  10.600   5.758   7.538 -0.7898 -1.4747  1.6937
  908MOL0     H25270  10.894   5.664   7.493  2.5646  2.2985 -0.1007
  908MOL0     H25271  10.845   5.817   7.427 -0.9881 -0.8411 -1.5049
  908MOL0     H25272  10.822   5.749   7.727 -1.5590  0.0211 -0.8562
  908MOL0     H25273  10.795   5.912   7.655 -0.6385  0.3467 -1.0892
  908MOL0     H25274  11.032   5.927   7.553  3.1528  0.1383  0.9257
  908MOL0     H25275  11.071   5.778   7.628 -0.2767  0.7777  0.1412
  908MOL0     H25276  10.939   5.964   7.825  0.1116  1.4676 -1.4210
  908MOL0     H25277  11.071   5.856   7.859  1.2378  0.8007 -0.2277
  908MOL0     H25278  11.122   6.077   7.675 -0.0258 -0.0578 -0.1818
  908MOL0     H25279  11.232   5.973   7.765  0.1473  0.6459 -0.3946
  908MOL0     H25280  11.186   6.067   7.971  2.8455 -0.7715 -1.5942
  908MOL0     H25281  11.080   6.191   7.896 -1.8005 -1.5451 -2.2546
  908MOL0     H25282  11.379   6.165   7.823  0.4286  0.8032  0.0128
  908MOL0     H25283  11.295   6.282   7.940  0.6014  1.2526 -0.8550
  908MOL0     H25284  10.684   5.332   7.671 -0.9049 -4.2510 -0.1412
  908MOL0     H25285  10.494   5.170   7.689 -2.8478 -0.4362  0.1598
  908MOL0     H25286  10.104   5.053   7.506 -0.7576 -0.0855 -1.2803
  908MOL0     H25287   9.910   4.923   7.461  1.1477 -0.0100 -0.2568
  908MOL0     H25288   9.284   3.825   8.933 -1.6907  0.6870 -3.1840
  908MOL0     H25289   9.197   3.809   9.172  0.0990 -1.4942 -0.8751
  908MOL0     H25290   8.666   3.878   9.400 -0.5768 -0.1493  0.7972
  908MOL0     H25291   8.576   3.898   9.639 -0.2271  0.1575  1.2423
  908MOL0     H25292   8.821   3.940   9.991  0.2593 -0.3384 -2.0964
  908MOL0     H25293   8.765   4.109   9.947  2.9910 -0.0913  2.5098
  908MOL0     H25294   8.703   4.032  10.176 -0.2516 -1.5398  0.8937
  908MOL0     H25295   8.581   3.926  10.094  0.0158 -0.1963  2.0924
  908MOL0     H25296   8.593   4.228  10.081 -0.1841  0.0569 -2.6746
  908MOL0     H25297   8.477   4.136  10.002 -1.2106  0.3842  1.5517
  908MOL0     H25298   8.436   4.216  10.254  2.5806  0.5520 -1.2038
  908MOL0     H25299   8.531   4.073  10.295  0.8876  1.3132  0.1368
  908MOL0     H25300   8.140   3.937  10.178 -1.5993  0.4068  2.0769
  908MOL0     H25301   8.929   4.037   9.800  0.2361  0.6977 -0.0288
  908MOL0     H25302   9.151   3.913   9.557 -1.4701 -1.4900  1.1691
  908MOL0     H25303   9.114   4.081   9.509 -1.4025  0.4308 -1.0274
  908MOL0     H25304   9.132   4.036   9.681 -0.8373  0.3569 -0.5265
  909MOL0     O25305   7.990   0.332   6.747  0.1712  0.9393  0.2244
  909MOL0     C25306   7.926   0.251   6.814  0.2234  0.9176  0.3629
  909MOL0     O25307   7.788   0.226   6.811 -0.3759  1.1607  0.2856
  909MOL0     C25308   7.700   0.284   6.728  0.7577 -0.6137  0.4867
  909MOL0     C25309   7.724   0.363   6.614  0.4137 -0.5310  0.1653
  909MOL0     C25310   7.616   0.417   6.535  0.6125  0.1975  0.7299
  909MOL0     C25311   7.488   0.396   6.573  0.6722 -0.4795 -0.3685
  909MOL0     O25312   7.379   0.440   6.508 -0.8894  0.1264 -0.3566
  909MOL0     C25313   7.384   0.558   6.428  1.0356 -0.4298 -0.8725
  909MOL0     C25314   7.430   0.693   6.495  0.6472  0.5369  0.5158
  909MOL0     C25315   7.366   0.728   6.626 -0.2747 -0.6554  0.0750
  909MOL0     C25316   7.229   0.793   6.626 -0.8911  0.2080 -0.0633
  909MOL0     C25317   7.197   0.863   6.763 -0.9570  0.1651  0.0290
  909MOL0     C25318   7.220   1.018   6.744 -0.3913  0.5445 -0.4041
  909MOL0     C25319   7.191   1.092   6.880  0.1332 -0.9754  0.0262
  909MOL0     C25320   7.218   1.244   6.881 -0.8227  0.6047  0.3840
  909MOL0     N25321   7.363   1.282   6.841  0.4640 -0.4994  0.6322
  909MOL0     C25322   7.401   1.310   6.713 -0.0368 -0.2439  0.3115
  909MOL0     C25323   7.537   1.337   6.719  0.0022 -0.0608 -0.3483
  909MOL0     C25324   7.627   1.342   6.601 -0.3255 -0.0649 -0.3192
  909MOL0     C25325   7.602   1.454   6.510  0.6008 -0.5870 -0.7957
  909MOL0     C25326   7.699   1.450   6.388  0.1693 -0.3745 -0.3793
  909MOL0     C25327   7.830   1.514   6.402 -0.4244  0.0246  0.8525
  909MOL0     O25328   7.912   1.489   6.285  1.0215  0.8467 -0.2559
  909MOL0     C25329   8.041   1.544   6.279  0.6207 -0.4260  0.8766
  909MOL0     C25330   8.078   1.656   6.346 -0.1162 -0.5199  0.2435
  909MOL0     C25331   8.209   1.710   6.340 -0.0784  0.4935  0.4186
  909MOL0     C25332   8.231   1.843   6.402 -0.5591 -0.8396 -0.0445
  909MOL0     C25333   8.312   1.633   6.274  0.3714  0.6644  0.7185
  909MOL0     C25334   8.459   1.666   6.280  0.6379  0.6841 -0.0235
  909MOL0     O25335   8.504   1.747   6.382  0.4997  0.1274 -0.6961
  909MOL0     C25336   8.640   1.765   6.378 -0.1549  0.6441 -0.6397
  909MOL0     C25337   8.733   1.668   6.425 -0.6749 -0.5000  0.6089
  909MOL0     C25338   8.872   1.678   6.402  0.8638  0.1254 -0.6518
  909MOL0     C25339   8.914   1.790   6.321 -0.4623  0.1899  0.0948
  909MOL0     O25340   9.050   1.811   6.284  0.3759  0.9431 -0.0179
  909MOL0     C25341   9.155   1.725   6.323  0.5722 -0.4039 -0.8305
  909MOL0     C25342   9.286   1.777   6.258  0.9417 -0.6133 -0.0979
  909MOL0     C25343   9.391   1.669   6.270  0.0366 -0.6515  0.2805
  909MOL0     C25344   9.420   1.622   6.124 -0.2044 -0.2439  0.0247
  909MOL0     C25345   9.550   1.539   6.117 -0.5398  0.1414  0.3837
  909MOL0     C25346   9.568   1.462   5.972  0.2129 -0.5736 -0.3571
  909MOL0     C25347   9.575   1.555   5.859 -0.3707  0.2204  0.0410
  909MOL0     C25348   9.683   1.665   5.864  0.4711  0.7830  0.0777
  909MOL0    Cl25349   9.677   1.759   5.708 -0.0368 -0.4364 -0.4802
  909MOL0     C25350   8.825   1.899   6.281  0.4809  0.5611 -0.4838
  909MOL0     C25351   8.686   1.877   6.305  0.3613  0.1274 -0.4573
  909MOL0     O25352   8.528   1.639   6.180 -0.4739 -0.2498 -0.7592
  909MOL0     C25353   8.264   1.522   6.196 -0.0593 -0.0898  0.9211
  909MOL0     C25354   8.134   1.483   6.195 -0.3691  0.1172  0.0798
  909MOL0     N25355   7.570   1.328   6.860  0.3764 -0.5019 -0.6692
  909MOL0     N25356   7.461   1.286   6.929 -0.1710 -0.4340 -1.2001
  909MOL0     C25357   7.464   0.309   6.679  0.7545 -1.0866 -0.8664
  909MOL0     C25358   7.565   0.251   6.756 -0.4166 -0.5158  0.5597
  909MOL0     C25359   8.016   0.157   6.886 -0.4194 -0.7068  0.2626
  909MOL0     C25360   8.140   0.116   6.828 -0.5937  0.2468 -0.1079
  909MOL0     C25361   8.249   0.062   6.903  0.4759 -0.1227  0.5816
  909MOL0     C25362   8.216   0.018   7.032 -0.3472  0.2332 -0.0638
  909MOL0     O25363   8.300  -0.049   7.110 -0.3181  0.7735  0.0181
  909MOL0     C25364   8.440  -0.041   7.100 -0.4228  0.5488  0.2454
  909MOL0     C25365   8.507  -0.101   7.221  0.5593 -0.1197 -1.0234
  909MOL0     C25366   8.666  -0.074   7.206  0.7021 -0.3621 -0.1295
  909MOL0     C25367   8.740  -0.114   7.338  0.4558 -0.2127 -0.3680
  909MOL0     C25368   8.882  -0.079   7.334  0.2353  0.0990  0.5447
  909MOL0     C25369   8.995  -0.035   7.335  0.1948 -0.1947  0.7050
  909MOL0     C25370   8.089   0.028   7.081  0.0986  0.7024 -0.1302
  909MOL0     C25371   7.986   0.097   7.012 -0.5800 -0.5844 -0.5982
  909MOL0     C25372   7.865   0.123   7.098  0.3087  0.5730 -0.8505
  909MOL0     H25373   7.822   0.393   6.578  0.8511 -1.8978  0.1873
  909MOL0     H25374   7.642   0.458   6.438  0.8736 -2.3162 -0.3343
  909MOL0     H25375   7.279   0.571   6.399  0.7541 -0.0622  0.2558
  909MOL0     H25376   7.441   0.546   6.335 -0.8778 -0.8594 -2.0383
  909MOL0     H25377   7.537   0.684   6.513  1.3145  3.8913 -1.0173
  909MOL0     H25378   7.407   0.769   6.420  0.7804 -1.7372 -1.9826
  909MOL0     H25379   7.364   0.636   6.685  2.5873 -2.6720 -2.6148
  909MOL0     H25380   7.430   0.803   6.675 -2.4255  0.2672  1.5931
  909MOL0     H25381   7.241   0.856   6.537 -2.9193  2.9995  1.4875
  909MOL0     H25382   7.158   0.713   6.601  0.7342 -1.5872  0.8356
  909MOL0     H25383   7.271   0.825   6.835 -1.1660  0.2841  0.3096
  909MOL0     H25384   7.098   0.828   6.795 -0.5637  0.2103  1.3937
  909MOL0     H25385   7.327   1.021   6.719 -0.6731 -0.5900 -1.9226
  909MOL0     H25386   7.164   1.056   6.658  1.4315  1.1177 -1.4090
  909MOL0     H25387   7.248   1.045   6.960  1.9204 -1.6441 -1.5455
  909MOL0     H25388   7.087   1.086   6.914  0.0261  0.2737 -0.0185
  909MOL0     H25389   7.144   1.299   6.822  0.9932  1.2078 -1.4260
  909MOL0     H25390   7.200   1.270   6.986  0.3814  0.2588  0.6848
  909MOL0     H25391   7.332   1.308   6.629 -0.7528  2.0646  0.7768
  909MOL0     H25392   7.594   1.252   6.548 -3.1826 -1.4046  3.2934
  909MOL0     H25393   7.731   1.325   6.631  0.0220  3.1164  0.6519
  909MOL0     H25394   7.503   1.441   6.466  1.3101 -1.0059 -2.3283
  909MOL0     H25395   7.612   1.552   6.557 -1.9129 -1.0313  0.8069
  909MOL0     H25396   7.703   1.346   6.356 -2.5958  0.1511 -2.9342
  909MOL0     H25397   7.653   1.512   6.310  1.1791 -1.0081 -1.5080
  909MOL0     H25398   7.815   1.622   6.403  1.1319  0.3188 -1.1416
  909MOL0     H25399   7.879   1.491   6.498  2.6884 -1.7156 -0.9656
  909MOL0     H25400   8.004   1.705   6.408  2.6579  0.8177  2.7829
  909MOL0     H25401   8.146   1.912   6.395 -0.9099 -1.3492 -0.9445
  909MOL0     H25402   8.310   1.899   6.351 -1.3912  0.2753 -0.1488
  909MOL0     H25403   8.262   1.834   6.507 -0.4402 -2.0675 -0.1738
  909MOL0     H25404   8.699   1.577   6.474 -0.1224 -0.2202  1.5287
  909MOL0     H25405   8.935   1.595   6.432  1.1743  0.4101 -0.5146
  909MOL0     H25406   9.166   1.719   6.431 -0.1956  0.9431 -0.6606
  909MOL0     H25407   9.140   1.622   6.287  4.0364 -2.4397  2.7734
  909MOL0     H25408   9.267   1.800   6.152 -1.6843 -0.7886  0.2749
  909MOL0     H25409   9.322   1.866   6.309  1.4089 -1.6406  1.4242
  909MOL0     H25410   9.361   1.583   6.331 -1.6784  0.8298  1.6654
  909MOL0     H25411   9.477   1.718   6.317 -0.7800  0.3266  0.8200
  909MOL0     H25412   9.420   1.708   6.055 -1.1312 -0.3056 -0.0614
  909MOL0     H25413   9.328   1.568   6.104  0.7573 -1.0553 -2.7111
  909MOL0     H25414   9.629   1.610   6.141  0.9366 -0.6960 -1.6753
  909MOL0     H25415   9.537   1.464   6.195 -0.3979 -2.0522 -1.5716
  909MOL0     H25416   9.474   1.406   5.965  0.2683 -0.9553  1.4270
  909MOL0     H25417   9.646   1.384   5.978 -0.7277 -1.4459  1.4881
  909MOL0     H25418   9.480   1.605   5.840 -0.7256 -1.5174 -3.6561
  909MOL0     H25419   9.597   1.493   5.771  3.3727  0.7243  0.4387
  909MOL0     H25420   9.783   1.622   5.870  0.4079  0.5682 -0.3778
  909MOL0     H25421   9.667   1.735   5.947 -0.0926 -2.5947  3.0250
  909MOL0     H25422   8.867   1.978   6.219  0.5489 -2.2054 -4.2871
  909MOL0     H25423   8.615   1.947   6.262  1.9394  2.5229  0.6132
  909MOL0     H25424   8.337   1.460   6.145  0.1124  1.0784 -0.3067
  909MOL0     H25425   8.105   1.391   6.145 -0.6507  0.4606 -0.4088
  909MOL0     H25426   7.361   0.299   6.712  0.0002  0.3635 -2.5582
  909MOL0     H25427   7.532   0.186   6.837  3.5553 -0.9505  2.0313
  909MOL0     H25428   8.155   0.126   6.721  0.2229  0.2348 -0.0048
  909MOL0     H25429   8.344   0.057   6.852 -0.1370 -1.2473 -0.5075
  909MOL0     H25430   8.466  -0.094   7.008  0.1414 -0.0339  0.7299
  909MOL0     H25431   8.472   0.062   7.081  2.1796 -0.3104 -0.5367
  909MOL0     H25432   8.484  -0.205   7.243  3.0871 -0.7581 -1.0948
  909MOL0     H25433   8.478  -0.054   7.316  0.0616 -1.2241 -0.6107
  909MOL0     H25434   8.695  -0.135   7.120 -2.7395 -3.6718  0.7571
  909MOL0     H25435   8.680   0.031   7.182 -0.5886 -0.9657 -4.4253
  909MOL0     H25436   8.725  -0.221   7.353  3.2955 -0.3170  2.6626
  909MOL0     H25437   8.699  -0.066   7.427  2.0332  0.4193  0.0494
  909MOL0     H25438   9.101  -0.025   7.347  0.3087 -1.2800  0.6639
  909MOL0     H25439   8.063  -0.023   7.173 -1.4449 -2.1672 -2.0093
  909MOL0     H25440   7.782   0.121   7.027  0.6107  1.9546 -1.2928
  909MOL0     H25441   7.852   0.053   7.180 -0.5434  1.6563 -0.0363
  909MOL0     H25442   7.863   0.222   7.144  0.3624 -1.0326  2.8991
  910MOL0     O25443   4.851   2.323   4.879 -0.8088  0.0982  0.5523
  910MOL0     C25444   4.892   2.378   4.771  0.2582 -1.0295 -0.5377
  910MOL0     O25445   5.000   2.337   4.703 -0.7046 -0.3335  0.3356
  910MOL0     C25446   5.102   2.271   4.756 -0.5767 -0.7577 -0.0740
  910MOL0     C25447   5.139   2.266   4.893 -0.9709 -0.8161  1.1651
  910MOL0     C25448   5.261   2.203   4.932 -0.2406  0.3015  0.0092
  910MOL0     C25449   5.339   2.128   4.843 -0.4054 -0.3187 -0.6765
  910MOL0     O25450   5.458   2.076   4.892 -0.1393 -0.2566 -0.2613
  910MOL0     C25451   5.502   1.979   4.800  0.2539  0.5979  0.3109
  910MOL0     C25452   5.623   1.916   4.861 -0.3296  0.1370  0.4832
  910MOL0     C25453   5.714   1.861   4.759 -0.6830  0.3495  1.2538
  910MOL0     C25454   5.674   1.724   4.697 -0.1898 -0.5246 -0.3966
  910MOL0     C25455   5.790   1.668   4.613 -0.1293  0.1639 -0.1239
  910MOL0     C25456   5.901   1.591   4.685  0.4620  0.4407 -0.5974
  910MOL0     C25457   6.008   1.531   4.589  0.4275 -0.2203 -0.5083
  910MOL0     C25458   6.090   1.427   4.661  0.3669  0.1955 -0.3753
  910MOL0     N25459   6.039   1.289   4.636 -0.7102  0.0889  0.3511
  910MOL0     C25460   5.913   1.244   4.670 -0.0130  0.1584  0.4403
  910MOL0     C25461   5.913   1.119   4.623  0.6556 -0.0827  0.0061
  910MOL0     C25462   5.787   1.040   4.632  0.1760  1.3922  0.3719
  910MOL0     C25463   5.659   1.088   4.565 -0.5545 -0.4954 -0.2427
  910MOL0     C25464   5.532   1.022   4.607  0.3067 -0.3119  0.6664
  910MOL0     C25465   5.513   0.887   4.529 -0.6039 -1.0310  0.0383
  910MOL0     O25466   5.502   0.910   4.392 -0.1923 -0.4787 -0.2887
  910MOL0     C25467   5.370   0.937   4.363  0.3709  0.2367 -0.0421
  910MOL0     C25468   5.335   1.054   4.300 -0.2434  0.0444 -0.1968
  910MOL0     C25469   5.211   1.088   4.263  0.4594  0.3870 -0.2210
  910MOL0     C25470   5.178   1.230   4.204  0.1875 -0.1033 -0.2551
  910MOL0     C25471   5.103   0.999   4.304 -0.0515 -0.3991 -0.2833
  910MOL0     C25472   4.954   1.033   4.280  0.2263  0.1523  0.5105
  910MOL0     O25473   4.859   0.963   4.360  0.0937 -0.0522  0.4790
  910MOL0     C25474   4.725   0.988   4.339  0.0336  0.5984 -0.7594
  910MOL0     C25475   4.644   0.874   4.351  0.5319 -0.4509  0.5557
  910MOL0     C25476   4.508   0.873   4.319  0.1688 -0.4702 -0.1578
  910MOL0     C25477   4.446   0.996   4.297 -1.0005  0.2724  1.1146
  910MOL0     O25478   4.314   0.977   4.280  0.1720 -0.2524  0.4340
  910MOL0     C25479   4.259   1.085   4.202  0.4946 -0.1918  0.1634
  910MOL0     C25480   4.127   1.052   4.145  0.8967  0.2397  0.6075
  910MOL0     C25481   4.138   0.982   4.008 -0.5746 -0.3962 -0.1641
  910MOL0     C25482   4.004   0.963   3.936 -0.5162  1.2310  0.6792
  910MOL0     C25483   4.031   0.885   3.812 -0.7245  0.2414  0.7337
  910MOL0     C25484   3.907   0.852   3.731  0.7575 -0.6723 -0.5505
  910MOL0     C25485   3.940   0.752   3.625  0.6153  0.5261 -0.0187
  910MOL0     C25486   3.821   0.715   3.542 -0.8044  1.1228 -0.3590
  910MOL0    Cl25487   3.692   0.647   3.634  0.2060  0.1617 -0.0246
  910MOL0     C25488   4.523   1.113   4.299 -0.0902 -0.2767  0.0879
  910MOL0     C25489   4.661   1.107   4.314 -0.0948  0.1725  0.5779
  910MOL0     O25490   4.917   1.122   4.194 -0.8110  0.5611  0.9948
  910MOL0     C25491   5.133   0.875   4.365  0.2452  0.1829  1.0672
  910MOL0     C25492   5.269   0.840   4.386 -0.8771 -0.6511  0.6778
  910MOL0     N25493   6.040   1.089   4.574 -0.4758 -0.4625  0.3389
  910MOL0     N25494   6.116   1.194   4.584 -0.0406  0.2919  0.0643
  910MOL0     C25495   5.299   2.127   4.703 -0.2824 -0.4739  0.1334
  910MOL0     C25496   5.185   2.196   4.661  0.2020 -0.6678 -0.0188
  910MOL0     C25497   4.774   2.439   4.703 -0.3280 -0.5097  0.6636
  910MOL0     C25498   4.767   2.403   4.570  0.1256 -0.9577  1.2133
  910MOL0     C25499   4.660   2.447   4.491  0.5663 -0.0664  0.1322
  910MOL0     C25500   4.556   2.528   4.546 -0.4184 -0.3677  0.1292
  910MOL0     O25501   4.459   2.559   4.459  0.2065  0.8705 -0.1222
  910MOL0     C25502   4.353   2.643   4.491  0.2379 -0.6260 -0.3997
  910MOL0     C25503   4.384   2.784   4.456  0.1409 -0.2456  0.0138
  910MOL0     C25504   4.379   2.807   4.306  0.2318  0.2098 -0.6040
  910MOL0     C25505   4.382   2.952   4.256 -0.6131 -0.0033  1.1221
  910MOL0     C25506   4.248   3.004   4.228 -0.7528 -0.4517  0.3284
  910MOL0     C25507   4.138   3.055   4.198 -0.5834  0.8335  0.4781
  910MOL0     C25508   4.559   2.555   4.685 -0.4264 -0.1203  0.1109
  910MOL0     C25509   4.668   2.513   4.762 -0.5721  0.8413 -0.0260
  910MOL0     C25510   4.679   2.560   4.910  0.2403  0.7722  1.0217
  910MOL0     H25511   5.083   2.334   4.955  2.4492  3.8314 -0.3202
  910MOL0     H25512   5.282   2.206   5.039 -2.4228 -1.5475  0.5753
  910MOL0     H25513   5.524   2.018   4.700 -1.4191  0.1360 -0.2751
  910MOL0     H25514   5.429   1.903   4.771  1.5147  0.2635 -2.3361
  910MOL0     H25515   5.683   1.988   4.917 -0.4718  0.4558  0.2308
  910MOL0     H25516   5.586   1.841   4.932 -2.3325  0.8197  0.2030
  910MOL0     H25517   5.720   1.926   4.670  1.2141  0.5956  1.5217
  910MOL0     H25518   5.816   1.849   4.796 -1.6095 -1.1451  3.4716
  910MOL0     H25519   5.645   1.655   4.776  0.5838  1.4545  1.7487
  910MOL0     H25520   5.586   1.734   4.633 -0.1409 -1.4149 -0.6151
  910MOL0     H25521   5.830   1.755   4.560  1.2239  0.0964  0.7510
  910MOL0     H25522   5.743   1.603   4.538  0.8522  0.4554 -1.0126
  910MOL0     H25523   5.957   1.653   4.756  0.3413 -0.4445  0.3044
  910MOL0     H25524   5.862   1.512   4.750 -1.1743  1.2002 -0.6055
  910MOL0     H25525   6.066   1.614   4.549  2.1578 -1.3145 -0.4102
  910MOL0     H25526   5.954   1.482   4.507 -1.7384  1.3447 -0.0834
  910MOL0     H25527   6.192   1.428   4.624 -0.6818 -1.0507 -3.5696
  910MOL0     H25528   6.088   1.429   4.771 -0.6749 -2.6118 -0.2728
  910MOL0     H25529   5.826   1.296   4.709 -0.7196  0.7017 -1.7011
  910MOL0     H25530   5.753   1.007   4.731 -1.7614 -4.0319 -1.6825
  910MOL0     H25531   5.805   0.948   4.575 -4.0406  0.8191 -0.3909
  910MOL0     H25532   5.645   1.191   4.600 -2.3826 -1.2598  1.5442
  910MOL0     H25533   5.675   1.084   4.457 -0.7846  0.1960 -0.3074
  910MOL0     H25534   5.534   1.016   4.716  0.8818  0.7929  0.7323
  910MOL0     H25535   5.441   1.081   4.593 -0.3690 -1.5031 -0.1289
  910MOL0     H25536   5.594   0.817   4.550  2.1771  2.1446  0.7173
  910MOL0     H25537   5.427   0.853   4.587  0.1433  0.0899  1.9012
  910MOL0     H25538   5.418   1.122   4.287  1.5925 -2.1593 -0.6767
  910MOL0     H25539   5.123   1.209   4.111  1.8363  0.2571 -1.3656
  910MOL0     H25540   5.268   1.287   4.179  0.8094 -1.1497 -0.4660
  910MOL0     H25541   5.118   1.290   4.273  1.0429  3.1309 -2.1396
  910MOL0     H25542   4.697   0.786   4.384 -0.1756 -0.2096  2.4371
  910MOL0     H25543   4.453   0.780   4.314 -2.6950  1.0297  0.8921
  910MOL0     H25544   4.247   1.177   4.260 -2.8165  1.8690 -3.3012
  910MOL0     H25545   4.326   1.109   4.119  1.3148  0.0151  0.8683
  910MOL0     H25546   4.066   0.988   4.209  1.1231 -1.1291 -0.4894
  910MOL0     H25547   4.072   1.145   4.124  2.2245  0.7227 -0.9951
  910MOL0     H25548   4.198   0.891   4.017  3.4505  2.0026 -0.3007
  910MOL0     H25549   4.191   1.045   3.936 -1.9465  0.0921 -0.7853
  910MOL0     H25550   3.960   1.062   3.930 -4.1625 -0.3189 -1.0891
  910MOL0     H25551   3.933   0.906   3.997 -1.3998  1.2032 -0.3457
  910MOL0     H25552   4.097   0.939   3.744 -1.4445 -0.8942 -0.9079
  910MOL0     H25553   4.078   0.791   3.841 -1.7371 -0.1334  1.2246
  910MOL0     H25554   3.853   0.941   3.699  2.3536  0.7146  0.4348
  910MOL0     H25555   3.840   0.797   3.798  1.3016 -1.5248 -0.6876
  910MOL0     H25556   3.964   0.661   3.680 -0.2243 -0.3898 -1.1137
  910MOL0     H25557   4.023   0.788   3.564 -0.3873  1.2587 -1.0097
  910MOL0     H25558   3.847   0.647   3.460 -0.6064 -0.6462  1.1122
  910MOL0     H25559   3.785   0.803   3.487  1.8508  1.1503 -2.2653
  910MOL0     H25560   4.490   1.216   4.287 -1.0044 -0.7313 -1.7814
  910MOL0     H25561   4.711   1.202   4.302 -2.3712  1.2714 -1.0971
  910MOL0     H25562   5.042   0.820   4.387 -1.0595  1.0491 -1.7075
  910MOL0     H25563   5.289   0.747   4.438 -3.5798  0.9264  5.0973
  910MOL0     H25564   5.354   2.084   4.620 -2.1452 -0.1488 -1.3361
  910MOL0     H25565   5.145   2.204   4.561 -1.7686 -0.9846  0.6961
  910MOL0     H25566   4.843   2.342   4.522  1.5122  0.7045  1.1947
  910MOL0     H25567   4.648   2.415   4.388  0.6275  3.1755 -1.0002
  910MOL0     H25568   4.265   2.604   4.440 -0.8915 -0.3042  1.2179
  910MOL0     H25569   4.330   2.631   4.597  1.9635 -0.5974  0.0062
  910MOL0     H25570   4.469   2.809   4.520 -0.2641 -3.5251  2.0680
  910MOL0     H25571   4.298   2.841   4.492  0.2333  0.1647 -0.4044
  910MOL0     H25572   4.473   2.760   4.273  2.2376  1.1710  3.1361
  910MOL0     H25573   4.291   2.761   4.261  0.0924 -1.5941  1.3474
  910MOL0     H25574   4.446   2.957   4.167 -2.3960  1.3575 -0.1550
  910MOL0     H25575   4.424   3.024   4.327  1.7497  1.5596 -1.6632
  910MOL0     H25576   4.042   3.086   4.161  0.0092  0.4434 -1.5409
  910MOL0     H25577   4.488   2.627   4.725  2.9077  3.6180 -0.0818
  910MOL0     H25578   4.630   2.657   4.919 -0.2633  0.7663 -1.0275
  910MOL0     H25579   4.642   2.476   4.969  0.3489 -1.2323 -1.5560
  910MOL0     H25580   4.785   2.566   4.934  0.8978 -1.1475 -1.0099
  911MOL0     O25581   0.585  11.050   0.692  0.1773 -0.6340 -0.4397
  911MOL0     C25582   0.653  11.154   0.699 -0.2308  0.1141 -0.0358
  911MOL0     O25583   0.782  11.164   0.736  0.9082  0.4883 -0.5251
  911MOL0     C25584   0.845  11.049   0.783  0.2916  0.4499 -0.6967
  911MOL0     C25585   0.819  11.000   0.912 -0.3954 -1.1231 -0.3559
  911MOL0     C25586   0.883  10.887   0.956 -0.2398  0.0448 -0.2568
  911MOL0     C25587   0.964  10.816   0.867  0.4579  1.1306  0.3021
  911MOL0     O25588   1.021  10.703   0.911 -0.3529  0.4650  0.7994
  911MOL0     C25589   0.981  10.579   0.846 -0.0859  0.5441 -0.2848
  911MOL0     C25590   1.018  10.463   0.941 -0.2480  0.1036 -0.4609
  911MOL0     C25591   1.024  10.339   0.861 -0.3911  0.1698  0.6322
  911MOL0     C25592   1.073  10.218   0.937 -0.1358  1.7113  0.0063
  911MOL0     C25593   1.070  10.093   0.853  0.7648  0.6410  0.3206
  911MOL0     C25594   1.100   9.956   0.925 -0.1658  0.3430 -0.1514
  911MOL0     C25595   1.249   9.948   0.982  0.1713  0.3599 -0.9547
  911MOL0     C25596   1.283   9.795   1.003  0.1148  0.2077 -0.1669
  911MOL0     N25597   1.327   9.738   0.873 -0.3636 -0.5407 -0.7510
  911MOL0     C25598   1.252   9.687   0.770 -0.0414  0.1051 -0.4321
  911MOL0     C25599   1.337   9.623   0.696 -0.0124  0.0878  0.1792
  911MOL0     C25600   1.293   9.546   0.567 -0.0508 -0.7086 -0.2578
  911MOL0     C25601   1.372   9.415   0.546  0.6265  0.6344  0.3760
  911MOL0     C25602   1.354   9.375   0.399  0.5387  0.6689  0.3408
  911MOL0     C25603   1.381   9.229   0.384  0.9408  0.0252  0.7151
  911MOL0     O25604   1.494   9.192   0.463  0.6061 -0.1909  0.3184
  911MOL0     C25605   1.611   9.148   0.398  0.8579  0.1292 -0.1271
  911MOL0     C25606   1.608   9.066   0.284  0.4800  0.2562 -0.4184
  911MOL0     C25607   1.731   9.046   0.222 -0.0898 -0.6945  0.6329
  911MOL0     C25608   1.728   8.973   0.084  0.5030 -0.8030 -0.1791
  911MOL0     C25609   1.860   9.086   0.275 -0.1113  0.0556  0.2029
  911MOL0     C25610   1.989   9.046   0.210 -0.6238 -0.6929  0.9827
  911MOL0     O25611   2.090   9.039   0.296  0.2456  0.7124 -0.3041
  911MOL0     C25612   2.208   8.977   0.255  0.4674  0.5192  0.8636
  911MOL0     C25613   2.314   9.058   0.197 -0.0858  0.0632 -0.4064
  911MOL0     C25614   2.434   8.994   0.165  0.1338  0.3701 -0.9533
  911MOL0     C25615   2.455   8.859   0.194 -0.7999 -0.0845 -0.0296
  911MOL0     O25616   2.579   8.797   0.180  0.3973 -0.0085 -0.1166
  911MOL0     C25617   2.699   8.873   0.157 -0.4490  0.0562 -0.1269
  911MOL0     C25618   2.830   8.792   0.155  0.4296  0.1057 -0.8550
  911MOL0     C25619   2.907   8.787   0.289 -0.8018 -0.3739 -0.4733
  911MOL0     C25620   3.051   8.732   0.269  0.4282 -0.1115 -0.0593
  911MOL0     C25621   3.139   8.749   0.399  0.9368  0.0758  0.0163
  911MOL0     C25622   3.286   8.733   0.350 -0.6664  0.6413 -0.3454
  911MOL0     C25623   3.324   8.596   0.319 -0.5991  0.0045 -0.6150
  911MOL0     C25624   3.473   8.576   0.291 -0.7473 -0.4858  0.6221
  911MOL0    Cl25625   3.593   8.590   0.417 -0.1784 -0.2523 -0.5555
  911MOL0     C25626   2.352   8.781   0.238 -0.3195 -0.0154 -0.1243
  911MOL0     C25627   2.224   8.835   0.260 -0.3630  0.5539  0.3808
  911MOL0     O25628   1.998   9.049   0.088  0.7387  0.2997  0.2865
  911MOL0     C25629   1.849   9.165   0.390 -0.6124  0.6299 -0.6420
  911MOL0     C25630   1.727   9.201   0.446  0.2838  0.0998 -0.1625
  911MOL0     N25631   1.459   9.639   0.754 -0.5943  0.1806  0.4598
  911MOL0     N25632   1.459   9.709   0.858  1.0339  0.0130 -0.2885
  911MOL0     C25633   0.970  10.854   0.735 -0.5545  0.1947  0.0050
  911MOL0     C25634   0.912  10.974   0.687  1.2893 -0.0620  0.0629
  911MOL0     C25635   0.601  11.278   0.653  0.4600 -0.3235 -0.5463
  911MOL0     C25636   0.678  11.394   0.645  0.0458 -0.9142 -0.3239
  911MOL0     C25637   0.634  11.522   0.585  0.2691  0.0982  0.0117
  911MOL0     C25638   0.511  11.530   0.529  0.2662  0.0029 -0.2806
  911MOL0     O25639   0.450  11.636   0.470 -0.4158  0.2711  0.1628
  911MOL0     C25640   0.525  11.679   0.356  0.2293  0.1778 -0.0586
  911MOL0     C25641   0.485  11.817   0.311  0.0300  0.5021  0.4190
  911MOL0     C25642   0.510  11.916   0.429 -0.2494 -0.3486 -0.3411
  911MOL0     C25643   0.435  12.043   0.388  0.7611 -0.4239 -0.2259
  911MOL0     C25644   0.431  12.130   0.504  0.3649 -0.2282  0.0810
  911MOL0     C25645   0.414  12.191   0.600  0.5629 -1.2760 -0.0282
  911MOL0     C25646   0.428  11.414   0.547 -0.0005 -0.1999 -0.2573
  911MOL0     C25647   0.464  11.293   0.614 -0.7077 -0.4174  0.1676
  911MOL0     C25648   0.361  11.187   0.617  0.6767 -0.1634  0.0946
  911MOL0     H25649   0.752  11.068   0.963 -1.5218  1.6039 -4.8664
  911MOL0     H25650   0.865  10.853   1.058  0.7404  0.3745  0.0311
  911MOL0     H25651   1.044  10.576   0.757  0.8074  0.1191  0.3460
  911MOL0     H25652   0.875  10.567   0.823 -0.9736 -2.0422  4.1085
  911MOL0     H25653   1.114  10.486   0.988  1.9470 -4.3392 -2.2469
  911MOL0     H25654   0.946  10.453   1.023 -0.0694 -1.2290 -0.4527
  911MOL0     H25655   0.931  10.315   0.808  0.8394  1.9220 -2.6304
  911MOL0     H25656   1.097  10.353   0.781 -1.1135 -1.1435 -0.2956
  911MOL0     H25657   1.178  10.230   0.964  0.3840 -1.5717 -0.1640
  911MOL0     H25658   1.013  10.209   1.028 -0.6444  2.2824 -0.2652
  911MOL0     H25659   1.143  10.093   0.772  1.3596 -0.3456  0.8430
  911MOL0     H25660   0.971  10.073   0.812  0.1316 -2.8505  3.0905
  911MOL0     H25661   1.034   9.925   1.007 -1.1001  0.9692 -0.6546
  911MOL0     H25662   1.077   9.885   0.846 -0.1330 -1.3178  1.2717
  911MOL0     H25663   1.259  10.005   1.074 -2.7884  2.1104 -1.5605
  911MOL0     H25664   1.326   9.985   0.914  3.2177 -0.2662  1.9209
  911MOL0     H25665   1.350   9.772   1.087 -4.0660  1.0702  3.8327
  911MOL0     H25666   1.194   9.744   1.041  0.9665 -2.1423 -1.1268
  911MOL0     H25667   1.148   9.683   0.741 -0.4940 -2.5825  1.2722
  911MOL0     H25668   1.320   9.612   0.484  3.7018 -2.9348 -1.0498
  911MOL0     H25669   1.185   9.530   0.564 -0.1017 -0.8096  1.3072
  911MOL0     H25670   1.476   9.431   0.578  0.7630 -0.5846  0.6030
  911MOL0     H25671   1.342   9.328   0.605  1.6006  0.3464  0.4655
  911MOL0     H25672   1.252   9.395   0.365 -1.3570 -3.4233  2.8766
  911MOL0     H25673   1.425   9.432   0.338 -0.6191  2.8430  0.9104
  911MOL0     H25674   1.297   9.171   0.424  0.5935  0.6932  0.9689
  911MOL0     H25675   1.377   9.211   0.276 -2.9946  5.7941 -0.5865
  911MOL0     H25676   1.513   9.031   0.245 -0.3796 -2.9299  3.8266
  911MOL0     H25677   1.628   8.931   0.070 -0.6498  2.1000 -1.2321
  911MOL0     H25678   1.785   8.880   0.089  1.9131  0.0458  0.0276
  911MOL0     H25679   1.761   9.033  -0.001  0.8537  0.1341  0.5965
  911MOL0     H25680   2.298   9.166   0.194 -5.4557 -0.4544 -0.2625
  911MOL0     H25681   2.520   9.046   0.124  0.4555  0.1023 -0.6224
  911MOL0     H25682   2.681   8.914   0.057  0.4225  1.8199  0.3921
  911MOL0     H25683   2.707   8.948   0.236 -4.7438  2.1646 -1.4125
  911MOL0     H25684   2.804   8.686   0.141  3.0336 -0.7530  0.1572
  911MOL0     H25685   2.898   8.830   0.079  0.4326  0.4944 -0.6586
  911MOL0     H25686   2.845   8.740   0.365  1.7872 -1.7893  0.8923
  911MOL0     H25687   2.926   8.888   0.326  0.1957  0.0708 -2.0679
  911MOL0     H25688   3.097   8.781   0.183  0.5595 -0.6496 -0.2996
  911MOL0     H25689   3.037   8.628   0.240  2.1571 -0.5781  0.6803
  911MOL0     H25690   3.140   8.851   0.438  0.4120 -0.1543  0.6466
  911MOL0     H25691   3.095   8.683   0.474 -2.0610  2.0405  0.1816
  911MOL0     H25692   3.346   8.765   0.435  1.4286 -2.1124 -0.6348
  911MOL0     H25693   3.305   8.790   0.258 -2.5501 -0.8256 -1.7394
  911MOL0     H25694   3.268   8.560   0.232 -1.2503 -1.2832  0.2934
  911MOL0     H25695   3.293   8.538   0.407  0.5935  1.8823  1.1141
  911MOL0     H25696   3.487   8.647   0.209 -2.3630 -0.5272  0.2770
  911MOL0     H25697   3.483   8.477   0.248  2.6360 -0.5348  1.2884
  911MOL0     H25698   2.368   8.675   0.247 -0.6981 -0.4884 -3.7449
  911MOL0     H25699   2.137   8.777   0.289 -0.4259  0.5314  0.1513
  911MOL0     H25700   1.938   9.209   0.433 -0.4525 -1.5863  1.4576
  911MOL0     H25701   1.725   9.262   0.536 -1.4211 -2.0024  1.3423
  911MOL0     H25702   1.035  10.795   0.670  5.9393  5.4696  0.5770
  911MOL0     H25703   0.919  10.989   0.580  2.9193 -1.1835 -0.0171
  911MOL0     H25704   0.774  11.403   0.694 -0.9405  0.3278  1.5115
  911MOL0     H25705   0.699  11.608   0.582  0.2837  0.0698 -0.6686
  911MOL0     H25706   0.633  11.669   0.370  0.2116 -1.7446 -0.8772
  911MOL0     H25707   0.496  11.620   0.268  0.2805  0.7697 -0.4731
  911MOL0     H25708   0.379  11.832   0.287  0.6407  3.2546 -0.9256
  911MOL0     H25709   0.541  11.843   0.221 -0.8413 -1.6560 -0.8461
  911MOL0     H25710   0.469  11.863   0.515 -0.1510 -2.7170 -1.6723
  911MOL0     H25711   0.615  11.928   0.457 -0.8351 -0.9394  2.3613
  911MOL0     H25712   0.332  12.030   0.356 -0.2713 -0.9344  2.9354
  911MOL0     H25713   0.487  12.084   0.301 -1.1575  0.0873 -1.1786
  911MOL0     H25714   0.381  12.248   0.685 -0.6275 -3.1748  0.8481
  911MOL0     H25715   0.328  11.404   0.506 -0.5506 -0.9379  1.2106
  911MOL0     H25716   0.365  11.141   0.716  1.9423 -2.3458 -0.9049
  911MOL0     H25717   0.255  11.211   0.603 -0.4210 -2.8201  2.6473
  911MOL0     H25718   0.377  11.111   0.541  0.9736  1.7036 -1.7975
  912MOL0     O25719   4.554   2.061   3.795  0.1659 -0.2720  0.0600
  912MOL0     C25720   4.617   1.976   3.737  1.4619  0.8568 -0.5780
  912MOL0     O25721   4.666   1.994   3.603 -0.1056  0.1270  0.0422
  912MOL0     C25722   4.623   2.099   3.533  0.4864 -0.4838  0.3472
  912MOL0     C25723   4.539   2.076   3.429  0.1492 -0.6964 -1.1979
  912MOL0     C25724   4.488   2.182   3.352 -0.0625 -0.7262 -0.2680
  912MOL0     C25725   4.523   2.314   3.380 -0.1687  0.0106 -0.1801
  912MOL0     O25726   4.488   2.424   3.314  0.5510 -0.5406 -0.2377
  912MOL0     C25727   4.350   2.434   3.270 -0.1383  0.0792 -0.1888
  912MOL0     C25728   4.355   2.544   3.155  0.1125 -0.1107  0.2288
  912MOL0     C25729   4.217   2.589   3.108 -0.1167  0.1485  0.1821
  912MOL0     C25730   4.233   2.717   3.028  0.7664  0.1649  0.8705
  912MOL0     C25731   4.259   2.840   3.112 -0.7395  0.4713  0.7359
  912MOL0     C25732   4.255   2.962   3.019  0.0410 -0.5197 -0.2107
  912MOL0     C25733   4.299   3.101   3.099 -0.0134  1.3554  0.1005
  912MOL0     C25734   4.341   3.204   3.000  0.4560  0.7249 -1.0078
  912MOL0     N25735   4.306   3.342   3.045 -0.4958 -0.5877 -0.3577
  912MOL0     C25736   4.182   3.396   3.086  0.2477 -0.9727 -0.8142
  912MOL0     C25737   4.217   3.513   3.149  0.3394  1.2120 -0.7419
  912MOL0     C25738   4.117   3.610   3.224 -0.1859  0.9477 -0.0354
  912MOL0     C25739   4.031   3.541   3.330  0.6269  0.3047  0.6072
  912MOL0     C25740   4.087   3.556   3.479 -0.3492 -0.3607  1.8290
  912MOL0     C25741   4.232   3.510   3.502  0.7680  0.4861  0.0382
  912MOL0     O25742   4.258   3.372   3.452 -0.7152 -0.2445  0.0165
  912MOL0     C25743   4.204   3.265   3.516 -0.3308  0.1430 -0.3174
  912MOL0     C25744   4.135   3.266   3.639  0.4292 -0.2045  0.5041
  912MOL0     C25745   4.071   3.152   3.696  0.1063 -0.3402  0.2113
  912MOL0     C25746   4.014   3.164   3.831  0.0301 -0.0527 -0.6387
  912MOL0     C25747   4.065   3.034   3.607  0.6111  0.1440 -1.5060
  912MOL0     C25748   3.986   2.914   3.646 -0.2801 -0.0982  0.2785
  912MOL0     O25749   3.927   2.849   3.540  0.2011 -0.1776  0.2138
  912MOL0     C25750   3.858   2.731   3.574  0.1672  0.0046 -0.7335
  912MOL0     C25751   3.743   2.735   3.650  0.6752  0.1641  0.5635
  912MOL0     C25752   3.690   2.613   3.708 -0.0848  0.6857 -0.8628
  912MOL0     C25753   3.746   2.490   3.668 -0.0280  0.3176  0.3615
  912MOL0     O25754   3.716   2.371   3.741  0.3324  0.4404  0.1253
  912MOL0     C25755   3.584   2.338   3.758  1.2163 -0.2211 -0.4775
  912MOL0     C25756   3.569   2.192   3.800 -0.3755  0.1700 -0.8420
  912MOL0     C25757   3.425   2.156   3.811 -0.0968  0.2579  0.2663
  912MOL0     C25758   3.424   2.031   3.891  1.0240  0.3126 -1.4707
  912MOL0     C25759   3.282   1.988   3.926 -0.4251  0.1191  0.4465
  912MOL0     C25760   3.207   2.101   4.012 -0.1051  0.3502  0.1405
  912MOL0     C25761   3.063   2.057   4.044 -0.2949  0.1813  0.8705
  912MOL0     C25762   2.965   2.110   3.945 -0.4768  0.6228 -0.4052
  912MOL0    Cl25763   2.992   2.068   3.782 -0.0284 -0.1351 -0.1246
  912MOL0     C25764   3.849   2.491   3.570 -0.1174 -0.2657 -0.2282
  912MOL0     C25765   3.909   2.611   3.541  0.0129 -0.4969 -0.2744
  912MOL0     O25766   4.003   2.866   3.759 -0.1647 -0.0960  0.1920
  912MOL0     C25767   4.148   3.034   3.490  1.4962 -0.0160 -0.2267
  912MOL0     C25768   4.222   3.147   3.449 -0.6006 -0.9400  0.9868
  912MOL0     N25769   4.352   3.522   3.141  0.8606  1.1045 -0.6226
  912MOL0     N25770   4.403   3.426   3.079 -0.3787 -0.3100 -0.2505
  912MOL0     C25771   4.610   2.338   3.491 -0.2667 -0.2110 -0.0520
  912MOL0     C25772   4.671   2.231   3.561 -0.1166  0.6628  0.2881
  912MOL0     C25773   4.642   1.838   3.792  0.1973  0.0705  0.5597
  912MOL0     C25774   4.696   1.736   3.716  0.4114  0.5892 -0.2900
  912MOL0     C25775   4.715   1.607   3.758  0.2475  0.5195 -0.0154
  912MOL0     C25776   4.682   1.571   3.886  1.1293 -0.5625 -0.5838
  912MOL0     O25777   4.694   1.446   3.934  0.7575 -0.1745 -0.1087
  912MOL0     C25778   4.679   1.322   3.853 -0.7809 -0.7877 -0.0253
  912MOL0     C25779   4.619   1.203   3.934  0.1453 -0.5332  0.0009
  912MOL0     C25780   4.539   1.122   3.833  0.1389  0.4156  1.8211
  912MOL0     C25781   4.487   0.984   3.883  0.4651 -0.1702  0.3765
  912MOL0     C25782   4.416   0.900   3.782  0.2320  0.1673 -0.2142
  912MOL0     C25783   4.370   0.827   3.695  0.9054  0.0047  0.1792
  912MOL0     C25784   4.635   1.664   3.971 -0.4201 -0.7913  0.5506
  912MOL0     C25785   4.613   1.794   3.925 -0.0444 -0.6804 -0.9027
  912MOL0     C25786   4.554   1.882   4.029  0.4225 -0.4911 -1.1333
  912MOL0     H25787   4.505   1.973   3.425 -0.9858 -0.4511  0.9897
  912MOL0     H25788   4.409   2.157   3.282 -0.0560 -0.2427 -0.4494
  912MOL0     H25789   4.292   2.483   3.350  1.0261  1.6826 -0.2686
  912MOL0     H25790   4.301   2.343   3.236  0.4761 -0.5078  0.4527
  912MOL0     H25791   4.417   2.625   3.195 -0.8215  0.2850  0.9099
  912MOL0     H25792   4.415   2.496   3.077  0.6509  0.4355  0.3076
  912MOL0     H25793   4.187   2.511   3.038 -1.0703  0.8876 -0.2690
  912MOL0     H25794   4.142   2.612   3.184 -1.6084  3.5793 -2.0353
  912MOL0     H25795   4.317   2.704   2.959 -0.7436  1.0849 -1.2281
  912MOL0     H25796   4.141   2.734   2.972 -0.4591 -2.2622  1.9987
  912MOL0     H25797   4.349   2.833   3.173 -0.3517  3.6403  0.7072
  912MOL0     H25798   4.183   2.853   3.189 -0.3911 -0.4181  1.2379
  912MOL0     H25799   4.326   2.961   2.936  2.7957  1.2221  1.9188
  912MOL0     H25800   4.160   2.974   2.967 -0.2554 -1.3800  0.1276
  912MOL0     H25801   4.371   3.078   3.179 -0.3282 -4.6032 -0.8710
  912MOL0     H25802   4.210   3.120   3.159 -0.1380 -1.8663  1.1373
  912MOL0     H25803   4.449   3.189   2.989  0.2282 -1.2081 -0.9318
  912MOL0     H25804   4.286   3.186   2.907  0.0629  0.8695 -0.8038
  912MOL0     H25805   4.084   3.353   3.070  0.6896 -1.5393 -2.1868
  912MOL0     H25806   4.054   3.645   3.141 -1.2377  1.0397  0.7892
  912MOL0     H25807   4.159   3.703   3.264 -0.3772  1.2884 -0.6133
  912MOL0     H25808   3.936   3.595   3.330 -0.4373 -1.5099  0.5579
  912MOL0     H25809   4.020   3.438   3.296 -1.1201  1.1393 -1.5808
  912MOL0     H25810   4.081   3.660   3.510 -0.7076  0.0835  0.3174
  912MOL0     H25811   4.023   3.495   3.544  0.5169 -1.8708  1.3219
  912MOL0     H25812   4.287   3.591   3.453  0.3833  1.9504  1.9048
  912MOL0     H25813   4.254   3.506   3.609 -1.9464 -2.1449  0.6401
  912MOL0     H25814   4.135   3.353   3.703 -0.1798 -1.0153  1.6465
  912MOL0     H25815   4.045   3.259   3.875 -0.1628  0.6584 -2.0052
  912MOL0     H25816   4.055   3.083   3.893  2.7933  1.9129  0.3157
  912MOL0     H25817   3.906   3.169   3.822 -0.3622  0.1033  2.7745
  912MOL0     H25818   3.700   2.831   3.680 -0.3677 -0.2855  0.5507
  912MOL0     H25819   3.629   2.611   3.798  1.3754 -0.3565  0.1457
  912MOL0     H25820   3.532   2.397   3.833 -1.2059 -2.3382 -0.3467
  912MOL0     H25821   3.531   2.355   3.664  1.1021 -0.3266 -0.4335
  912MOL0     H25822   3.615   2.124   3.727 -1.3344  2.3900 -3.7336
  912MOL0     H25823   3.623   2.170   3.892  2.7517 -2.5155 -3.0866
  912MOL0     H25824   3.375   2.142   3.714  0.1319  1.0105  0.0357
  912MOL0     H25825   3.371   2.229   3.871 -1.5772 -1.6926  1.4048
  912MOL0     H25826   3.472   2.043   3.989 -0.0683 -1.6652 -0.6240
  912MOL0     H25827   3.471   1.949   3.837 -1.2157 -2.3124  0.2287
  912MOL0     H25828   3.222   1.969   3.837  0.2819  2.1372 -0.5434
  912MOL0     H25829   3.288   1.895   3.983 -0.1263 -0.6994 -0.8692
  912MOL0     H25830   3.200   2.199   3.964  2.6884  0.0740 -0.9988
  912MOL0     H25831   3.258   2.117   4.108 -2.8183  0.8880  1.5897
  912MOL0     H25832   3.025   2.088   4.142 -1.0299  0.1225  0.6099
  912MOL0     H25833   3.060   1.948   4.048  1.9851  0.0943  1.6479
  912MOL0     H25834   2.965   2.219   3.955  2.2109  0.6820 -0.3078
  912MOL0     H25835   2.869   2.071   3.979  0.0678 -0.0965  0.3354
  912MOL0     H25836   3.885   2.400   3.522 -2.7852 -1.7214  0.3130
  912MOL0     H25837   4.001   2.609   3.484 -1.6512 -0.2997 -3.1324
  912MOL0     H25838   4.166   2.946   3.428  1.7301 -1.6787  2.0832
  912MOL0     H25839   4.288   3.151   3.363 -0.9775  0.9805  0.7229
  912MOL0     H25840   4.628   2.438   3.527  1.0847 -0.4007 -0.1538
  912MOL0     H25841   4.741   2.238   3.644  0.1238  0.0558  0.1380
  912MOL0     H25842   4.730   1.753   3.615  0.9694 -1.7998 -0.5659
  912MOL0     H25843   4.737   1.532   3.683  0.2796 -2.6932  2.9446
  912MOL0     H25844   4.616   1.340   3.766 -0.7329 -2.5436 -0.4680
  912MOL0     H25845   4.776   1.291   3.815 -1.0256 -2.1156  0.3562
  912MOL0     H25846   4.537   1.240   3.997 -0.0450  0.2370 -0.6704
  912MOL0     H25847   4.688   1.147   3.997 -0.1969  1.0939  1.9241
  912MOL0     H25848   4.454   1.184   3.804  0.4235 -0.5688 -1.6166
  912MOL0     H25849   4.608   1.096   3.752 -2.0665 -0.9154  0.2524
  912MOL0     H25850   4.418   0.998   3.967 -1.5867  0.3966 -1.3201
  912MOL0     H25851   4.574   0.927   3.917  0.2767 -0.4554  0.3822
  912MOL0     H25852   4.343   0.748   3.629  0.0787  0.2705  0.1859
  912MOL0     H25853   4.616   1.626   4.071 -3.8817  3.0528  1.6656
  912MOL0     H25854   4.499   1.836   4.111  1.2760  0.5619  0.0702
  912MOL0     H25855   4.630   1.950   4.070  0.4442 -0.4391 -1.2605
  912MOL0     H25856   4.482   1.950   3.982  1.6040  2.8424  1.4221
  913MOL0     O25857   9.212   9.664   3.922 -0.0679 -0.0127 -0.6846
  913MOL0     C25858   9.142   9.568   3.893  0.4284  0.0336  0.4445
  913MOL0     O25859   9.181   9.456   3.823 -0.5700 -0.8197  0.1206
  913MOL0     C25860   9.312   9.429   3.800  0.7070  0.2130  0.3079
  913MOL0     C25861   9.350   9.367   3.678  0.4819 -0.0497 -0.0292
  913MOL0     C25862   9.483   9.331   3.668  0.2498  1.0970  0.2263
  913MOL0     C25863   9.583   9.355   3.761  0.3468  0.0018 -0.2040
  913MOL0     O25864   9.705   9.305   3.721  0.5608  0.1693  0.5275
  913MOL0     C25865   9.810   9.284   3.820  0.3088 -0.5460  0.3517
  913MOL0     C25866   9.950   9.269   3.770  0.2544  0.3514  0.3073
  913MOL0     C25867  10.037   9.196   3.869 -0.4891  0.5338  0.1188
  913MOL0     C25868  10.183   9.187   3.822  0.4768 -0.6888 -0.8632
  913MOL0     C25869  10.266   9.299   3.889 -0.5272 -0.0367  0.2293
  913MOL0     C25870  10.360   9.384   3.798 -0.6756  0.9272 -0.4204
  913MOL0     C25871  10.446   9.498   3.862 -0.9033  0.3852 -0.7508
  913MOL0     C25872  10.523   9.461   3.988 -0.8770  0.2501 -0.4689
  913MOL0     N25873  10.578   9.584   4.031  0.2318  0.2571  0.5749
  913MOL0     C25874  10.516   9.677   4.105  0.2729 -0.3041  0.7084
  913MOL0     C25875  10.607   9.768   4.144 -0.1698 -0.3258  0.1159
  913MOL0     C25876  10.577   9.898   4.213 -1.0516  0.9259 -0.8515
  913MOL0     C25877  10.483   9.998   4.147 -0.6672 -0.4348 -0.1732
  913MOL0     C25878  10.538  10.032   4.003  0.1108  0.1172 -0.9036
  913MOL0     C25879  10.446  10.119   3.915  0.5633  0.0230 -0.9965
  913MOL0     O25880  10.310  10.073   3.929 -0.2829 -0.1165 -0.0127
  913MOL0     C25881  10.207  10.150   3.856 -0.3615  0.2953 -0.0857
  913MOL0     C25882  10.091  10.078   3.831  0.3254 -0.4901  0.0646
  913MOL0     C25883   9.976  10.120   3.763 -0.8455 -0.1543 -0.1585
  913MOL0     C25884   9.858  10.030   3.750  0.0517  0.7744 -0.0004
  913MOL0     C25885   9.986  10.252   3.711 -1.1465  0.1035 -0.1390
  913MOL0     C25886   9.884  10.323   3.627 -0.5515  0.0615 -0.0533
  913MOL0     O25887   9.882  10.457   3.625  0.0754 -0.7010  0.8452
  913MOL0     C25888   9.783  10.508   3.549  0.1229  0.8029  0.7590
  913MOL0     C25889   9.648  10.492   3.582  0.5734 -0.4797  0.7698
  913MOL0     C25890   9.544  10.577   3.523 -0.1917  0.0998  0.6454
  913MOL0     C25891   9.573  10.678   3.435  0.3357  0.5783  0.3023
  913MOL0     O25892   9.476  10.743   3.366 -0.2265  0.4783 -0.1330
  913MOL0     C25893   9.506  10.840   3.263 -0.0775  0.8792  0.9283
  913MOL0     C25894   9.397  10.936   3.232 -0.4397  0.4537  0.1607
  913MOL0     C25895   9.323  10.981   3.362  0.8477 -0.1522 -0.1250
  913MOL0     C25896   9.394  11.069   3.457 -0.1941 -0.3295  0.4106
  913MOL0     C25897   9.311  11.107   3.581  0.7304 -0.0428 -0.1851
  913MOL0     C25898   9.384  11.115   3.718  1.0132 -1.1237  1.1216
  913MOL0     C25899   9.500  11.016   3.748  0.1036 -0.3219 -0.3049
  913MOL0     C25900   9.469  10.871   3.737 -0.3375 -0.5897  0.4157
  913MOL0    Cl25901   9.330  10.832   3.829  0.0313  0.1460 -0.3817
  913MOL0     C25902   9.712  10.691   3.396  1.2903 -0.3441  0.0609
  913MOL0     C25903   9.812  10.608   3.455 -0.4186  0.4784  0.0759
  913MOL0     O25904   9.827  10.248   3.549 -0.2779  0.0039  0.7670
  913MOL0     C25905  10.103  10.323   3.730  0.3478 -0.5527 -0.1799
  913MOL0     C25906  10.211  10.274   3.801 -0.1234 -0.4136 -0.4353
  913MOL0     N25907  10.727   9.718   4.105  0.8520 -0.2002 -0.5111
  913MOL0     N25908  10.710   9.612   4.035  0.2930 -0.3628 -0.1743
  913MOL0     C25909   9.544   9.415   3.886 -0.3178 -0.4473 -0.3062
  913MOL0     C25910   9.410   9.453   3.901  1.2828  0.0323 -0.8291
  913MOL0     C25911   9.004   9.573   3.938 -0.7213 -0.1564 -0.6377
  913MOL0     C25912   8.985   9.616   4.073  0.0349 -0.0872  1.2089
  913MOL0     C25913   8.857   9.628   4.129 -0.9863  0.2825 -0.7425
  913MOL0     C25914   8.744   9.578   4.066  0.8795  0.3062  0.2638
  913MOL0     O25915   8.632   9.576   4.138 -0.6080 -0.3022  0.2828
  913MOL0     C25916   8.551   9.455   4.138  0.4801 -1.2509  0.3941
  913MOL0     C25917   8.457   9.449   4.256  1.0657 -0.0508 -0.2668
  913MOL0     C25918   8.340   9.360   4.234 -0.3376  0.4933 -0.4056
  913MOL0     C25919   8.260   9.323   4.356  0.2264  0.3461 -0.8222
  913MOL0     C25920   8.164   9.419   4.396  0.1447 -0.7839 -0.4733
  913MOL0     C25921   8.105   9.516   4.449  0.1176  0.4951 -0.1959
  913MOL0     C25922   8.759   9.532   3.936 -0.2394 -0.0327  0.2011
  913MOL0     C25923   8.886   9.536   3.872 -0.4006  0.5483 -0.0985
  913MOL0     C25924   8.888   9.517   3.729  0.4568 -0.9366  0.0619
  913MOL0     H25925   9.277   9.346   3.601 -0.8875 -1.0407  1.4652
  913MOL0     H25926   9.517   9.295   3.571  1.5398  1.9944  0.3196
  913MOL0     H25927   9.773   9.199   3.878 -1.9920 -1.0236 -1.6893
  913MOL0     H25928   9.817   9.370   3.887  1.3922 -0.5707  0.2973
  913MOL0     H25929   9.951   9.220   3.672 -1.7581  0.9138 -0.0216
  913MOL0     H25930   9.976   9.373   3.754 -1.0459  0.6419 -0.0302
  913MOL0     H25931  10.019   9.224   3.973 -3.6872 -3.8611  0.9771
  913MOL0     H25932  10.001   9.094   3.877  2.7260 -0.6889  0.3311
  913MOL0     H25933  10.225   9.090   3.848  0.7895 -0.6190 -1.0975
  913MOL0     H25934  10.200   9.189   3.714  4.6809  0.8999 -0.3649
  913MOL0     H25935  10.328   9.258   3.969  0.1118 -0.0385 -0.2587
  913MOL0     H25936  10.205   9.377   3.935  0.2577  1.2633 -0.8464
  913MOL0     H25937  10.417   9.306   3.746 -0.0833  0.2899  1.1084
  913MOL0     H25938  10.315   9.437   3.714 -2.3259 -1.5568 -1.2106
  913MOL0     H25939  10.378   9.580   3.886 -2.0584  0.0770 -2.7258
  913MOL0     H25940  10.523   9.516   3.787  0.9086 -1.4585  0.5307
  913MOL0     H25941  10.468   9.409   4.067  0.3456 -0.7095 -0.2311
  913MOL0     H25942  10.611   9.400   3.969  2.0199  3.3367  1.7975
  913MOL0     H25943  10.409   9.672   4.124  0.7907 -0.6424  4.1768
  913MOL0     H25944  10.673   9.946   4.237  0.8441 -3.4145  1.2284
  913MOL0     H25945  10.524   9.877   4.306 -0.2143 -0.3224 -0.6367
  913MOL0     H25946  10.380   9.960   4.144 -0.7729 -0.1803  0.2233
  913MOL0     H25947  10.480  10.086   4.211  0.8205 -1.4603  1.3876
  913MOL0     H25948  10.636  10.081   4.001 -1.7897  4.3558 -0.1768
  913MOL0     H25949  10.548   9.932   3.957  0.8301 -1.4010  2.3003
  913MOL0     H25950  10.468  10.226   3.925 -0.3217 -0.0202  2.7497
  913MOL0     H25951  10.460  10.102   3.808 -0.0263  1.1664 -1.2743
  913MOL0     H25952  10.099   9.977   3.870  1.2060 -0.6411 -0.4822
  913MOL0     H25953   9.883   9.961   3.668  0.5885  0.4954  0.3926
  913MOL0     H25954   9.767  10.086   3.730 -0.0443  1.0714  1.1981
  913MOL0     H25955   9.847   9.959   3.832  4.3861 -0.6117 -0.3772
  913MOL0     H25956   9.624  10.421   3.661  0.3801  2.3028  3.4187
  913MOL0     H25957   9.445  10.558   3.562 -0.8098 -1.0526 -1.3248
  913MOL0     H25958   9.596  10.894   3.293  0.2201  1.2279 -0.5213
  913MOL0     H25959   9.529  10.784   3.173  2.3168  0.9028  1.4625
  913MOL0     H25960   9.445  11.017   3.176 -0.4968 -0.4500 -1.2479
  913MOL0     H25961   9.329  10.881   3.167 -0.0661 -0.3769  0.4568
  913MOL0     H25962   9.288  10.892   3.416  0.9323 -0.2439 -0.2221
  913MOL0     H25963   9.232  11.036   3.335  0.2841  0.1434  2.1732
  913MOL0     H25964   9.418  11.160   3.400  0.8372 -0.3215  0.8306
  913MOL0     H25965   9.486  11.013   3.478 -0.2009 -1.7017 -2.5708
  913MOL0     H25966   9.269  11.203   3.548  0.5789  0.7749  2.1625
  913MOL0     H25967   9.231  11.033   3.576 -0.3884  1.1663 -0.8786
  913MOL0     H25968   9.311  11.098   3.797 -1.9870 -1.7361 -1.5949
  913MOL0     H25969   9.419  11.218   3.729 -0.7389 -0.1524 -1.4856
  913MOL0     H25970   9.538  11.040   3.848 -0.9162  1.2205 -0.2568
  913MOL0     H25971   9.589  11.036   3.688  0.8831  4.0558  1.9010
  913MOL0     H25972   9.558  10.814   3.764  1.6814  2.0069 -0.3843
  913MOL0     H25973   9.451  10.845   3.632  0.5584 -0.9129  0.3319
  913MOL0     H25974   9.750  10.762   3.323  2.6691 -3.1416 -2.1430
  913MOL0     H25975   9.916  10.623   3.429 -0.4089  1.7908  0.8014
  913MOL0     H25976  10.117  10.414   3.673 -1.2878  0.8839  1.5622
  913MOL0     H25977  10.287  10.347   3.829  0.0823  0.7317 -3.5903
  913MOL0     H25978   9.621   9.443   3.958 -1.2555 -1.3216  1.0950
  913MOL0     H25979   9.382   9.485   4.000  0.7849 -1.2591 -0.5277
  913MOL0     H25980   9.072   9.654   4.127  1.2450 -0.5534 -0.3350
  913MOL0     H25981   8.842   9.667   4.229 -3.6213 -5.3194  1.5261
  913MOL0     H25982   8.497   9.447   4.044 -0.9019  2.5972  0.7060
  913MOL0     H25983   8.626   9.375   4.149  0.7494 -0.9958  0.4330
  913MOL0     H25984   8.423   9.553   4.262 -0.0193 -0.2421 -2.1503
  913MOL0     H25985   8.499   9.408   4.347 -0.0620  0.0130  0.2974
  913MOL0     H25986   8.268   9.390   4.158  0.8142 -1.5444 -2.4254
  913MOL0     H25987   8.381   9.262   4.208 -0.5548 -0.3105  2.0173
  913MOL0     H25988   8.334   9.306   4.436  1.3576  0.0565 -1.9014
  913MOL0     H25989   8.216   9.225   4.336  1.2650 -0.0789 -1.1103
  913MOL0     H25990   8.074   9.608   4.493 -0.4437 -0.4409  1.4690
  913MOL0     H25991   8.679   9.482   3.883  1.1664  0.1156 -2.2469
  913MOL0     H25992   8.796   9.470   3.692  0.8145 -0.8814 -0.9138
  913MOL0     H25993   8.910   9.611   3.677  0.6948 -1.4561 -0.7925
  913MOL0     H25994   8.974   9.452   3.715  0.1403 -1.1401 -1.0443
  914MOL0     O25995   2.020   0.646   4.731 -0.2927  0.3434 -0.2270
  914MOL0     C25996   2.070   0.689   4.627 -0.6963  1.1809 -0.0625
  914MOL0     O25997   2.210   0.699   4.599  0.6296 -0.0774 -0.4774
  914MOL0     C25998   2.313   0.670   4.680 -0.0679  0.7657 -1.0409
  914MOL0     C25999   2.441   0.667   4.634  0.2281  0.6464  0.5906
  914MOL0     C26000   2.551   0.640   4.710 -0.1064  0.4866  0.2652
  914MOL0     C26001   2.538   0.614   4.846 -0.1236  0.1608  0.0029
  914MOL0     O26002   2.641   0.572   4.929  0.1045  0.0149  0.2843
  914MOL0     C26003   2.769   0.627   4.904  0.8299  0.4618 -0.3588
  914MOL0     C26004   2.840   0.635   5.034 -0.5548  0.1065  0.2793
  914MOL0     C26005   2.896   0.495   5.057 -0.1578  0.0246  0.2926
  914MOL0     C26006   2.937   0.483   5.201 -0.5053 -0.7174  0.3504
  914MOL0     C26007   3.005   0.344   5.229  0.1938 -0.0187 -0.5939
  914MOL0     C26008   3.115   0.303   5.127 -0.3578  0.7659  0.1214
  914MOL0     C26009   3.183   0.171   5.163 -0.2436  0.8463 -1.0553
  914MOL0     C26010   3.097   0.044   5.192 -0.3554  0.1408 -0.1197
  914MOL0     N26011   3.185  -0.070   5.213 -0.7148 -0.6897  0.8884
  914MOL0     C26012   3.247  -0.138   5.111  0.1421  0.3794  0.2955
  914MOL0     C26013   3.276  -0.259   5.169 -0.3224  0.1549 -0.1378
  914MOL0     C26014   3.357  -0.368   5.100  0.0272 -0.2972 -0.3817
  914MOL0     C26015   3.498  -0.321   5.074 -0.4567  0.2520  0.7094
  914MOL0     C26016   3.563  -0.431   4.995  0.6708 -0.1886 -0.1151
  914MOL0     C26017   3.720  -0.418   5.006  0.3559 -0.1292 -0.9464
  914MOL0     O26018   3.757  -0.528   4.921  0.4708  0.9337 -0.6952
  914MOL0     C26019   3.884  -0.582   4.927  0.3703 -0.1886  0.6422
  914MOL0     C26020   3.900  -0.714   4.875  0.3989 -0.6298  0.8529
  914MOL0     C26021   4.032  -0.772   4.880  0.5838 -0.0035  0.7313
  914MOL0     C26022   4.038  -0.923   4.841  0.5640 -0.3312 -0.2015
  914MOL0     C26023   4.134  -0.688   4.915  0.7177  0.1879 -0.0097
  914MOL0     C26024   4.272  -0.727   4.902 -0.7893  0.8852 -0.1354
  914MOL0     O26025   4.304  -0.857   4.933 -0.3509  0.2438 -0.3053
  914MOL0     C26026   4.425  -0.907   4.932 -0.2868  0.5106 -0.1521
  914MOL0     C26027   4.455  -0.992   5.034  0.5795  0.5508 -0.3502
  914MOL0     C26028   4.578  -1.067   5.036 -1.1439  0.2840 -0.0017
  914MOL0     C26029   4.678  -1.037   4.936 -0.5686 -0.6717 -0.1573
  914MOL0     O26030   4.797  -1.105   4.946  0.4172 -0.0530  0.7352
  914MOL0     C26031   4.916  -1.052   4.875 -0.5188  0.0929 -0.2201
  914MOL0     C26032   5.035  -1.157   4.909 -0.0338  0.0540  0.1091
  914MOL0     C26033   5.064  -1.187   5.060 -0.3665 -0.2869  0.4208
  914MOL0     C26034   5.187  -1.271   5.078 -0.5251 -0.2737 -0.6434
  914MOL0     C26035   5.196  -1.320   5.234 -0.3404 -0.1285 -0.3938
  914MOL0     C26036   5.137  -1.219   5.337 -0.7515 -0.7950  0.4420
  914MOL0     C26037   5.189  -1.249   5.475  0.4619  0.1461  0.3209
  914MOL0     C26038   5.159  -1.138   5.568  0.2076 -0.3078 -0.6126
  914MOL0    Cl26039   4.993  -1.066   5.544  0.4266  0.2097  0.0587
  914MOL0     C26040   4.641  -0.953   4.833 -0.5696 -0.9034 -0.2850
  914MOL0     C26041   4.516  -0.883   4.829 -0.8389  0.4782 -0.8343
  914MOL0     O26042   4.352  -0.641   4.875  0.7206 -0.1701  0.8532
  914MOL0     C26043   4.112  -0.560   4.963  0.6968 -0.1120 -0.5565
  914MOL0     C26044   3.988  -0.500   4.953  0.7945  0.0091 -0.4104
  914MOL0     N26045   3.248  -0.260   5.307  0.3862 -0.4168 -0.6796
  914MOL0     N26046   3.192  -0.145   5.323  0.2076  0.0799 -0.3407
  914MOL0     C26047   2.414   0.620   4.903  0.0245  0.0536  0.5501
  914MOL0     C26048   2.301   0.644   4.820 -0.1689  0.7090 -0.2178
  914MOL0     C26049   1.982   0.746   4.516  0.7392  0.1686 -0.7974
  914MOL0     C26050   2.035   0.798   4.398  0.2118 -0.6170  0.4530
  914MOL0     C26051   1.950   0.870   4.307  0.0228  0.0406  0.1753
  914MOL0     C26052   1.817   0.893   4.333  0.0608  0.4194 -0.0700
  914MOL0     O26053   1.737   0.959   4.246 -0.0520  0.2672 -0.0953
  914MOL0     C26054   1.594   0.952   4.238  0.0503 -0.0336 -0.2227
  914MOL0     C26055   1.553   1.027   4.107  0.3105 -0.1116  0.1369
  914MOL0     C26056   1.632   0.977   3.982  0.1549 -0.4460 -0.1180
  914MOL0     C26057   1.568   1.031   3.841 -0.6908  0.1143 -0.3834
  914MOL0     C26058   1.563   1.180   3.853  0.2666 -0.0130 -0.0601
  914MOL0     C26059   1.563   1.297   3.867 -0.0378 -0.5360  0.2916
  914MOL0     C26060   1.764   0.826   4.443  0.3847  0.0157 -0.3679
  914MOL0     C26061   1.836   0.747   4.528  0.5739  0.6120 -0.4904
  914MOL0     C26062   1.749   0.661   4.622  0.2778  0.3070 -0.3795
  914MOL0     H26063   2.449   0.676   4.526 -0.9869  1.9639  0.5925
  914MOL0     H26064   2.642   0.607   4.660 -0.4267  2.3586 -1.7085
  914MOL0     H26065   2.764   0.728   4.864  2.4413  0.5519 -0.4125
  914MOL0     H26066   2.829   0.571   4.832 -1.0887 -1.3787 -0.6163
  914MOL0     H26067   2.920   0.709   5.022 -0.7585  0.0022 -2.2403
  914MOL0     H26068   2.776   0.668   5.117  1.5490  0.0375  2.0410
  914MOL0     H26069   2.827   0.415   5.030  1.8235 -0.9174 -2.3731
  914MOL0     H26070   2.980   0.482   4.988 -0.2916  0.4542  0.0466
  914MOL0     H26071   2.993   0.570   5.239 -2.4641  0.5121  0.6033
  914MOL0     H26072   2.843   0.488   5.258 -0.8315  0.5544 -0.2491
  914MOL0     H26073   2.930   0.264   5.227  0.4093 -0.3781  2.1981
  914MOL0     H26074   3.040   0.342   5.333 -1.7104 -0.9148  0.0840
  914MOL0     H26075   3.088   0.295   5.021 -0.3728  0.0558  0.1718
  914MOL0     H26076   3.197   0.376   5.126 -1.3689  1.9161 -0.3007
  914MOL0     H26077   3.260   0.172   5.241 -0.6116 -1.0881 -0.6197
  914MOL0     H26078   3.229   0.137   5.070 -0.8486 -0.5852 -0.8628
  914MOL0     H26079   3.054   0.060   5.291  1.5585 -1.6166  1.1072
  914MOL0     H26080   3.033   0.013   5.109 -1.2608  0.6505  0.3833
  914MOL0     H26081   3.260  -0.117   5.005  2.9955 -3.8363 -0.3891
  914MOL0     H26082   3.313  -0.385   5.001  1.9473 -0.2633 -1.2723
  914MOL0     H26083   3.354  -0.451   5.172  1.8813  0.1721  0.2827
  914MOL0     H26084   3.497  -0.225   5.022  2.5371 -1.9455 -4.0167
  914MOL0     H26085   3.541  -0.303   5.173  0.1133 -2.1059  0.9441
  914MOL0     H26086   3.545  -0.532   5.031 -0.0005  0.1665  0.5796
  914MOL0     H26087   3.543  -0.411   4.890 -0.0666  0.6934  0.1788
  914MOL0     H26088   3.757  -0.319   4.977  0.4531  0.1701  0.1156
  914MOL0     H26089   3.754  -0.436   5.108  0.5755 -0.5011 -1.0874
  914MOL0     H26090   3.817  -0.767   4.830  1.1571 -0.2877 -1.0273
  914MOL0     H26091   4.088  -0.931   4.744  0.0753  1.0469 -0.5965
  914MOL0     H26092   3.943  -0.977   4.842  1.5977 -2.3061 -1.5183
  914MOL0     H26093   4.093  -0.975   4.920  0.8287 -1.2105 -0.9572
  914MOL0     H26094   4.377  -0.997   5.109  0.9496 -0.1119 -0.0032
  914MOL0     H26095   4.603  -1.140   5.113  0.3780 -1.1391 -1.7383
  914MOL0     H26096   4.898  -1.049   4.767  1.7469  2.6205 -0.6263
  914MOL0     H26097   4.955  -0.957   4.911  2.0895 -0.6636 -0.8193
  914MOL0     H26098   5.016  -1.252   4.859  0.5081 -0.8541  1.5565
  914MOL0     H26099   5.124  -1.116   4.860 -0.3106  2.3221  1.3339
  914MOL0     H26100   4.982  -1.256   5.081  1.6609 -3.5966 -1.6033
  914MOL0     H26101   5.069  -1.091   5.112  1.3768 -0.7638  1.2302
  914MOL0     H26102   5.273  -1.208   5.053  0.8698 -0.6007  2.7368
  914MOL0     H26103   5.190  -1.355   5.008 -0.7899 -2.3276  1.6729
  914MOL0     H26104   5.149  -1.418   5.248  3.0594 -1.6474  1.6857
  914MOL0     H26105   5.303  -1.338   5.241  0.0337  1.7783 -0.8094
  914MOL0     H26106   5.027  -1.223   5.334 -0.8174 -0.8699  2.1993
  914MOL0     H26107   5.174  -1.120   5.310 -1.3291 -0.6739  0.0793
  914MOL0     H26108   5.297  -1.269   5.476  0.8280  1.9938  0.4583
  914MOL0     H26109   5.125  -1.330   5.509  2.6218 -2.3638 -1.1829
  914MOL0     H26110   5.229  -1.054   5.558 -1.7540  1.4640 -0.0744
  914MOL0     H26111   5.173  -1.173   5.671  1.1206  0.4133 -0.4709
  914MOL0     H26112   4.716  -0.926   4.759 -0.3364  1.6095  0.7624
  914MOL0     H26113   4.486  -0.837   4.736 -2.8913 -1.6569 -1.3492
  914MOL0     H26114   4.190  -0.496   5.003  1.1989 -0.1148 -1.5037
  914MOL0     H26115   3.965  -0.400   4.987 -0.1494 -0.4171  0.2543
  914MOL0     H26116   2.394   0.601   5.008 -4.0774  0.8369  0.1034
  914MOL0     H26117   2.202   0.636   4.862  0.6215 -3.0620  1.2722
  914MOL0     H26118   2.138   0.783   4.367 -0.0291 -1.1668 -0.0840
  914MOL0     H26119   1.991   0.900   4.211 -0.5356 -0.4674 -0.2345
  914MOL0     H26120   1.548   0.854   4.247 -0.7947  0.5504  3.2415
  914MOL0     H26121   1.539   1.005   4.317 -0.7809 -2.5810  1.0298
  914MOL0     H26122   1.561   1.134   4.127 -1.2262 -0.6460  4.7949
  914MOL0     H26123   1.448   1.016   4.079  0.0829  2.2264 -0.1001
  914MOL0     H26124   1.732   1.020   3.989  0.2611 -0.8812  1.5852
  914MOL0     H26125   1.650   0.869   3.976  1.7356 -0.1706 -1.1637
  914MOL0     H26126   1.466   0.995   3.825 -0.5200 -0.7007  0.3332
  914MOL0     H26127   1.644   1.000   3.770  1.4938  2.1405  0.9078
  914MOL0     H26128   1.583   1.399   3.890 -0.5262 -0.1746 -0.8292
  914MOL0     H26129   1.657   0.819   4.463  0.7496 -2.0336  1.1767
  914MOL0     H26130   1.776   0.669   4.728  0.1325  1.0265 -0.3937
  914MOL0     H26131   1.642   0.671   4.601 -0.0922 -1.2257  0.6201
  914MOL0     H26132   1.767   0.555   4.602 -0.3080 -0.3527  2.2184
  915MOL0     O26133   0.991  11.267  10.481  0.4008  0.6666  0.4808
  915MOL0     C26134   0.944  11.381  10.483 -1.4709  0.2195 -1.0622
  915MOL0     O26135   1.026  11.493  10.492  0.8709  0.8371  0.6043
  915MOL0     C26136   1.158  11.489  10.509 -0.1707  0.1439 -0.2339
  915MOL0     C26137   1.205  11.607  10.577 -0.4363  1.1052 -0.6001
  915MOL0     C26138   1.339  11.630  10.610  0.0221 -0.4386 -0.0839
  915MOL0     C26139   1.433  11.533  10.572  0.0169 -0.0392 -1.0221
  915MOL0     O26140   1.558  11.579  10.610  0.5189  0.0846 -0.0652
  915MOL0     C26141   1.659  11.472  10.604  0.6319  0.1091  0.1496
  915MOL0     C26142   1.779  11.552  10.643 -0.4042 -1.0655 -0.2869
  915MOL0     C26143   1.913  11.479  10.625  0.6902 -0.9379  0.0499
  915MOL0     C26144   1.931  11.350  10.712 -0.6049  1.0966 -0.3665
  915MOL0     C26145   2.085  11.310  10.708 -0.0800  0.2151  0.1568
  915MOL0     C26146   2.132  11.217  10.814 -0.1700  0.4910  1.0521
  915MOL0     C26147   2.276  11.195  10.788 -0.2549  0.6639  0.1956
  915MOL0     C26148   2.360  11.317  10.834  0.0874 -0.1572  1.2458
  915MOL0     N26149   2.498  11.278  10.812 -0.0369 -1.0880  0.1627
  915MOL0     C26150   2.595  11.296  10.910  0.1502  0.1535  0.1944
  915MOL0     C26151   2.711  11.291  10.838 -0.3085  0.0747  0.6934
  915MOL0     C26152   2.853  11.312  10.886  0.5682 -0.0918 -0.1399
  915MOL0     C26153   2.961  11.243  10.800 -0.3850  0.0078 -0.2651
  915MOL0     C26154   3.107  11.246  10.852  0.1959 -0.4272 -0.2154
  915MOL0     C26155   3.207  11.151  10.789  1.0952  0.6922  0.0064
  915MOL0     O26156   3.337  11.183  10.841 -0.4800 -0.3199 -0.2881
  915MOL0     C26157   3.441  11.106  10.792 -0.2273  0.3523  0.8718
  915MOL0     C26158   3.563  11.135  10.839  0.2775  0.7651  0.2399
  915MOL0     C26159   3.679  11.069  10.812  0.6755  1.0977 -0.1111
  915MOL0     C26160   3.801  11.136  10.860 -0.9069  0.9865 -0.4151
  915MOL0     C26161   3.676  10.959  10.721  0.3902  0.1031  0.8152
  915MOL0     C26162   3.785  10.876  10.692 -0.3673  0.7830 -0.4949
  915MOL0     O26163   3.747  10.771  10.614  0.4261  0.8678 -0.0596
  915MOL0     C26164   3.816  10.713  10.508 -0.5163  0.8004 -0.5399
  915MOL0     C26165   3.749  10.600  10.460 -0.2300 -0.4853 -0.2882
  915MOL0     C26166   3.810  10.522  10.354  0.5859  0.0450 -0.3388
  915MOL0     C26167   3.917  10.570  10.279 -0.1397 -1.2864 -0.1037
  915MOL0     O26168   3.956  10.507  10.166  0.5600 -0.4039  0.7695
  915MOL0     C26169   3.855  10.499  10.063  0.0297 -0.2032  0.0910
  915MOL0     C26170   3.869  10.388   9.956  0.7811  0.1906 -0.7990
  915MOL0     C26171   3.721  10.349   9.909 -0.3058  0.9508 -0.7482
  915MOL0     C26172   3.721  10.218   9.822  0.2939 -0.0305  0.1858
  915MOL0     C26173   3.591  10.197   9.752  0.1727 -0.0430  0.4778
  915MOL0     C26174   3.458  10.213   9.829  0.4427 -0.1955 -0.2310
  915MOL0     C26175   3.339  10.217   9.732 -0.3431 -0.0657  0.3845
  915MOL0     C26176   3.228  10.110   9.748  0.1863  0.1043  0.3262
  915MOL0    Cl26177   3.209  10.061   9.917  0.4971 -0.4689  0.0399
  915MOL0     C26178   3.981  10.685  10.329  0.5650  1.2697 -0.2791
  915MOL0     C26179   3.932  10.754  10.444  0.3591 -0.4230  0.0409
  915MOL0     O26180   3.899  10.917  10.717 -0.0881  0.7039  0.1687
  915MOL0     C26181   3.542  10.925  10.670  0.2033  0.8422 -0.3311
  915MOL0     C26182   3.428  10.984  10.715  0.3961 -0.4498  1.1230
  915MOL0     N26183   2.682  11.261  10.706 -0.0472  0.6655  0.3695
  915MOL0     N26184   2.554  11.248  10.693  0.6355  0.0268 -0.9635
  915MOL0     C26185   1.396  11.416  10.511  0.4607 -0.6957 -0.4660
  915MOL0     C26186   1.260  11.394  10.476 -0.7835  0.0717 -1.2594
  915MOL0     C26187   0.796  11.405  10.466 -0.3068  0.1969  0.3835
  915MOL0     C26188   0.759  11.540  10.442  0.5135  0.4393 -0.3518
  915MOL0     C26189   0.622  11.567  10.427  0.9254  0.0258  0.0733
  915MOL0     C26190   0.532  11.463  10.437  0.8790  0.1734 -1.1196
  915MOL0     O26191   0.397  11.484  10.444 -0.1903  0.0666 -0.0380
  915MOL0     C26192   0.349  11.614  10.413  0.0914 -0.3527  1.1041
  915MOL0     C26193   0.195  11.617  10.399  0.2457  0.9481  0.5311
  915MOL0     C26194   0.146  11.551  10.274  0.8621  0.2640  0.6186
  915MOL0     C26195  -0.011  11.521  10.284 -0.0284  0.4237  0.1543
  915MOL0     C26196  -0.070  11.499  10.152 -0.2737 -0.0901 -0.1618
  915MOL0     C26197  -0.131  11.474  10.048 -0.5063 -0.2620 -0.2348
  915MOL0     C26198   0.560  11.330  10.448 -0.6334  0.3532  0.1468
  915MOL0     C26199   0.697  11.298  10.464  0.5938 -0.1339  0.3831
  915MOL0     C26200   0.723  11.155  10.505  0.3291 -0.1734  0.2133
  915MOL0     H26201   1.131  11.683  10.600  0.2500  2.0921 -1.5739
  915MOL0     H26202   1.359  11.727  10.653 -0.8049 -0.7861  1.1488
  915MOL0     H26203   1.670  11.433  10.503  0.1314 -2.2055  0.9328
  915MOL0     H26204   1.636  11.396  10.680 -3.7952 -0.2570 -1.3001
  915MOL0     H26205   1.786  11.652  10.598 -1.1588 -0.2015  1.3980
  915MOL0     H26206   1.763  11.573  10.749  0.6386  1.6819 -0.5952
  915MOL0     H26207   1.937  11.467  10.519  0.7218  1.3384 -0.2351
  915MOL0     H26208   1.983  11.558  10.656 -3.3640  1.6144  3.9617
  915MOL0     H26209   1.905  11.375  10.815 -1.2323 -1.3753  0.1499
  915MOL0     H26210   1.869  11.266  10.679  1.2302  0.3650 -2.1705
  915MOL0     H26211   2.138  11.406  10.715  1.1224 -0.4230  0.0159
  915MOL0     H26212   2.107  11.265  10.611 -1.3713 -0.1400  0.0075
  915MOL0     H26213   2.112  11.268  10.909  2.3689  2.0484  0.8474
  915MOL0     H26214   2.081  11.121  10.818  2.6902 -1.1758  0.8330
  915MOL0     H26215   2.290  11.185  10.680  2.8660  3.5930  0.1614
  915MOL0     H26216   2.313  11.102  10.831  1.4119  1.5153  0.6711
  915MOL0     H26217   2.333  11.404  10.773 -3.8962 -1.2218  1.2617
  915MOL0     H26218   2.340  11.336  10.940  3.3763  1.0386  1.7872
  915MOL0     H26219   2.596  11.321  11.016  3.2065  0.2267  0.2357
  915MOL0     H26220   2.856  11.280  10.991 -0.3095 -2.5621 -0.7857
  915MOL0     H26221   2.874  11.419  10.881  2.0400 -0.3535  0.0771
  915MOL0     H26222   2.923  11.141  10.788 -1.9650  0.2070  2.3874
  915MOL0     H26223   2.961  11.294  10.703  1.5385 -2.9068 -1.9409
  915MOL0     H26224   3.138  11.346  10.821  0.2624 -0.3781  0.0108
  915MOL0     H26225   3.118  11.253  10.961  2.6689 -0.2359 -0.4373
  915MOL0     H26226   3.189  11.050  10.825 -0.0298  0.7792 -0.2815
  915MOL0     H26227   3.205  11.156  10.680  0.8756 -0.6918 -0.0708
  915MOL0     H26228   3.565  11.220  10.906 -0.2177  0.8174  0.1950
  915MOL0     H26229   3.866  11.169  10.778  1.0127 -0.1170  0.5781
  915MOL0     H26230   3.853  11.061  10.922 -2.8934 -3.2836 -3.3832
  915MOL0     H26231   3.779  11.228  10.914 -3.8223 -0.6769  1.4453
  915MOL0     H26232   3.665  10.569  10.520  1.0411 -0.2864  1.6763
  915MOL0     H26233   3.750  10.439  10.317 -0.0734  0.4255 -0.1403
  915MOL0     H26234   3.753  10.507  10.103  0.5487  0.0957  1.3849
  915MOL0     H26235   3.866  10.596  10.014 -1.2697  0.3765  0.8933
  915MOL0     H26236   3.929  10.414   9.868 -1.3703  0.8888 -2.1270
  915MOL0     H26237   3.916  10.302  10.004  1.6134  1.6268  1.0975
  915MOL0     H26238   3.687  10.433   9.848  0.5050  0.8472 -1.3760
  915MOL0     H26239   3.650  10.335   9.991  1.1983 -0.6983  0.3401
  915MOL0     H26240   3.739  10.126   9.879  1.0231  0.3513  0.5948
  915MOL0     H26241   3.807  10.222   9.755  4.7051 -2.4366  4.9428
  915MOL0     H26242   3.580  10.281   9.683 -1.6992 -0.9059 -0.3342
  915MOL0     H26243   3.590  10.116   9.679 -0.7679  1.5081 -1.3077
  915MOL0     H26244   3.442  10.300   9.894 -1.4515 -0.9771  0.4442
  915MOL0     H26245   3.453  10.125   9.893 -0.8883  1.1960  1.7058
  915MOL0     H26246   3.385  10.218   9.632 -0.4906 -1.1594  0.3015
  915MOL0     H26247   3.298  10.319   9.740  0.3317  0.2301  0.1815
  915MOL0     H26248   3.241  10.032   9.672 -1.4773  2.3545 -2.4909
  915MOL0     H26249   3.137  10.160   9.715 -0.4618 -1.6218 -0.6098
  915MOL0     H26250   4.072  10.714  10.279  2.3704 -2.7108  0.3151
  915MOL0     H26251   3.987  10.838  10.483 -2.5936  1.2389  0.9593
  915MOL0     H26252   3.526  10.850  10.594  0.8890  0.7954 -0.4442
  915MOL0     H26253   3.329  10.946  10.691  0.5085 -0.7431  1.1131
  915MOL0     H26254   1.480  11.353  10.485  2.3525  0.5159  2.2641
  915MOL0     H26255   1.239  11.298  10.428  0.6830 -1.5656  1.1343
  915MOL0     H26256   0.830  11.621  10.429  2.3763 -1.2075 -1.1217
  915MOL0     H26257   0.591  11.667  10.399  0.6058 -0.7310 -2.5051
  915MOL0     H26258   0.383  11.689  10.485  2.6233  0.6264 -0.9498
  915MOL0     H26259   0.396  11.645  10.319  1.0480 -1.6486  1.1116
  915MOL0     H26260   0.166  11.722  10.389  0.5559  0.8445 -2.1449
  915MOL0     H26261   0.147  11.581  10.491  0.8955 -0.7405  0.2469
  915MOL0     H26262   0.165  11.615  10.187 -3.1869 -1.0280 -1.5181
  915MOL0     H26263   0.216  11.467  10.263  1.4209  0.8755 -0.6496
  915MOL0     H26264  -0.060  11.612  10.321  2.9428  3.7411 -3.2418
  915MOL0     H26265  -0.039  11.452  10.364 -1.9501  1.0832  0.0958
  915MOL0     H26266  -0.195  11.473   9.962  0.0347  2.0279 -0.7347
  915MOL0     H26267   0.479  11.260  10.464 -0.6997  0.1236 -1.0647
  915MOL0     H26268   0.629  11.107  10.534  0.5400 -0.1708  0.9062
  915MOL0     H26269   0.760  11.097  10.420 -0.8683 -0.4159 -0.1609
  915MOL0     H26270   0.792  11.157  10.589  1.2145 -2.6687 -0.3491
  916MOL0     O26271   0.658   7.640   6.577  0.4663 -0.3834 -0.2483
  916MOL0     C26272   0.579   7.672   6.494  0.1170 -0.5516  0.3196
  916MOL0     O26273   0.610   7.725   6.373  0.2689 -0.4127 -0.0331
  916MOL0     C26274   0.737   7.773   6.343  0.1411  0.1886  0.2686
  916MOL0     C26275   0.765   7.767   6.210 -0.5538 -0.5546  0.4013
  916MOL0     C26276   0.886   7.824   6.163 -0.0316  0.3226 -0.1768
  916MOL0     C26277   0.982   7.882   6.246  0.4080 -0.0151  0.8064
  916MOL0     O26278   1.089   7.930   6.186  0.3842  0.0475  0.1586
  916MOL0     C26279   1.213   7.917   6.266  0.5291 -0.2832 -0.5030
  916MOL0     C26280   1.261   8.058   6.310  0.1377  0.3152  0.4832
  916MOL0     C26281   1.416   8.068   6.295  0.1516 -0.0754 -0.2837
  916MOL0     C26282   1.449   8.212   6.327  0.6021  0.1978  0.0141
  916MOL0     C26283   1.581   8.226   6.406  0.3633  0.3196 -0.2753
  916MOL0     C26284   1.572   8.206   6.563 -0.2852  0.3877  0.1890
  916MOL0     C26285   1.699   8.249   6.631  0.4538  0.0446  0.4775
  916MOL0     C26286   1.825   8.200   6.568 -0.0279 -0.1093  0.4464
  916MOL0     N26287   1.941   8.282   6.590 -0.4941  0.3685 -0.1188
  916MOL0     C26288   1.942   8.415   6.592  0.4284  0.5348  0.5617
  916MOL0     C26289   2.063   8.456   6.640 -0.4532  1.4623 -0.3213
  916MOL0     C26290   2.101   8.598   6.671 -0.0750  0.0761 -0.3168
  916MOL0     C26291   2.006   8.649   6.774 -0.2913 -0.3702  0.4472
  916MOL0     C26292   2.003   8.571   6.902 -0.1179  0.5363 -0.8981
  916MOL0     C26293   1.946   8.648   7.018  0.3451  0.0889  0.2062
  916MOL0     O26294   1.831   8.717   6.972 -0.0394 -0.3519  0.2271
  916MOL0     C26295   1.708   8.652   6.944 -0.2954  0.3602  0.7763
  916MOL0     C26296   1.596   8.720   6.887 -0.3542  0.1658 -0.2142
  916MOL0     C26297   1.475   8.654   6.867  0.2864 -0.3032 -0.1788
  916MOL0     C26298   1.361   8.746   6.834  0.7925  0.5944  0.3203
  916MOL0     C26299   1.465   8.516   6.893  0.2367  0.2056  0.1552
  916MOL0     C26300   1.351   8.433   6.857  0.2990 -0.2215 -0.7900
  916MOL0     O26301   1.367   8.289   6.869 -0.4560  0.4680 -0.1670
  916MOL0     C26302   1.248   8.226   6.862 -0.0062  0.0326  0.8067
  916MOL0     C26303   1.170   8.202   6.975  0.4248  0.7286  0.2381
  916MOL0     C26304   1.038   8.150   6.961  0.2983 -0.3390 -0.3980
  916MOL0     C26305   0.981   8.128   6.834  0.5399  0.6817 -0.5846
  916MOL0     O26306   0.852   8.073   6.841  0.3474  0.1127 -0.7210
  916MOL0     C26307   0.762   8.064   6.733 -0.0027 -0.2861 -0.6355
  916MOL0     C26308   0.628   8.018   6.786 -0.0221  0.3258 -0.0660
  916MOL0     C26309   0.610   8.040   6.940 -0.3073  0.2044  0.3875
  916MOL0     C26310   0.469   7.997   7.002 -0.4175 -0.1604  0.5276
  916MOL0     C26311   0.345   8.084   6.978 -0.8382 -0.2868 -1.0996
  916MOL0     C26312   0.283   8.088   6.835  0.4265 -0.6629  0.1540
  916MOL0     C26313   0.135   8.146   6.847  0.3564  0.0640  0.5194
  916MOL0     C26314   0.069   8.148   6.703 -0.5069  0.3800 -1.2494
  916MOL0    Cl26315   0.062   7.992   6.607 -0.3464 -0.5646  0.4003
  916MOL0     C26316   1.062   8.153   6.715  0.9179  0.4347 -0.3714
  916MOL0     C26317   1.190   8.208   6.729  0.5735 -0.6422  0.6241
  916MOL0     O26318   1.247   8.488   6.832 -0.8303  0.0831  0.2529
  916MOL0     C26319   1.577   8.448   6.950  0.5964 -0.0533 -0.4094
  916MOL0     C26320   1.694   8.517   6.973  0.4351  0.1085 -0.3971
  916MOL0     N26321   2.133   8.335   6.664 -0.0770  0.2521 -0.2913
  916MOL0     N26322   2.063   8.235   6.621 -0.0815 -0.3252 -0.3907
  916MOL0     C26323   0.952   7.893   6.380  0.8397  0.7677 -0.1634
  916MOL0     C26324   0.825   7.841   6.428 -0.0954  0.1702 -0.4505
  916MOL0     C26325   0.439   7.647   6.525  0.0809  0.1079  0.1624
  916MOL0     C26326   0.388   7.668   6.661 -0.5555 -0.3429  0.1657
  916MOL0     C26327   0.258   7.662   6.692 -0.2330 -0.4441 -0.1794
  916MOL0     C26328   0.163   7.652   6.581  0.2848  0.6943 -0.4130
  916MOL0     O26329   0.026   7.656   6.586 -0.0686 -0.0412 -0.7534
  916MOL0     C26330  -0.025   7.668   6.720 -0.0272 -0.7331  0.2050
  916MOL0     C26331  -0.177   7.690   6.711  0.0282 -0.0656  0.6395
  916MOL0     C26332  -0.218   7.818   6.640  0.1892  0.6162 -0.6847
  916MOL0     C26333  -0.246   7.941   6.725 -0.3195  0.2412  0.3934
  916MOL0     C26334  -0.356   7.919   6.812 -0.0066 -1.1258 -0.3557
  916MOL0     C26335  -0.420   7.908   6.912 -0.0609 -0.1389 -0.1419
  916MOL0     C26336   0.204   7.639   6.454  0.2607  0.4138  0.3494
  916MOL0     C26337   0.338   7.637   6.416 -0.4028 -0.0647  1.2953
  916MOL0     C26338   0.374   7.610   6.275  0.4374  0.5049 -0.0903
  916MOL0     H26339   0.690   7.709   6.157 -1.8129  1.1097  0.2652
  916MOL0     H26340   0.916   7.816   6.059  2.4496  4.3742  0.0303
  916MOL0     H26341   1.299   7.879   6.211  0.2032  0.1947 -1.3561
  916MOL0     H26342   1.203   7.872   6.366 -1.9511  0.9122 -0.1432
  916MOL0     H26343   1.215   8.126   6.239  0.7479 -2.0244 -2.3377
  916MOL0     H26344   1.227   8.073   6.413  0.7131  1.0512  0.5704
  916MOL0     H26345   1.453   8.003   6.375 -1.4958 -0.6130  0.0902
  916MOL0     H26346   1.451   8.039   6.196  3.3782  3.1171 -0.2729
  916MOL0     H26347   1.443   8.276   6.238 -0.2522  0.2536  0.1021
  916MOL0     H26348   1.368   8.242   6.393  2.3892 -2.0861  3.5726
  916MOL0     H26349   1.603   8.333   6.401 -1.0667  0.6284 -0.3214
  916MOL0     H26350   1.651   8.160   6.353  1.2287 -0.6164  1.9217
  916MOL0     H26351   1.485   8.251   6.611 -0.8584  0.0617 -0.5173
  916MOL0     H26352   1.563   8.098   6.576  2.0911 -0.1524 -1.8709
  916MOL0     H26353   1.689   8.218   6.735  1.3869  1.6974  1.1044
  916MOL0     H26354   1.696   8.359   6.636  2.7284  0.2474 -0.9533
  916MOL0     H26355   1.851   8.104   6.614  2.5027  0.4263  0.2939
  916MOL0     H26356   1.819   8.187   6.459  0.0413  0.3482  0.3878
  916MOL0     H26357   1.854   8.472   6.564 -0.3649 -1.6026 -1.7576
  916MOL0     H26358   2.099   8.647   6.573  0.6735  3.3993  1.1985
  916MOL0     H26359   2.203   8.611   6.708  0.5075  3.2289 -2.5933
  916MOL0     H26360   2.019   8.754   6.803 -0.8346  0.6463 -2.6393
  916MOL0     H26361   1.905   8.644   6.733 -0.0349 -1.2541 -0.0862
  916MOL0     H26362   1.948   8.478   6.885  0.3515  0.4643 -2.1141
  916MOL0     H26363   2.105   8.549   6.936  0.0357 -0.0216 -1.7010
  916MOL0     H26364   1.930   8.577   7.100 -1.6815 -0.1837 -0.3673
  916MOL0     H26365   2.007   8.729   7.058 -2.4293  2.2445  0.4262
  916MOL0     H26366   1.603   8.827   6.876 -1.2222  0.2576  0.0548
  916MOL0     H26367   1.274   8.726   6.898  0.7078  0.3218  0.1235
  916MOL0     H26368   1.340   8.745   6.727  0.1684  0.7417  0.4349
  916MOL0     H26369   1.386   8.849   6.862  0.5883  0.8141 -0.2793
  916MOL0     H26370   1.212   8.213   7.075 -0.0650 -1.7600  0.7791
  916MOL0     H26371   0.973   8.120   7.043  2.5170 -0.0504  1.5712
  916MOL0     H26372   0.742   8.163   6.693  0.5292  1.1781  2.4029
  916MOL0     H26373   0.804   8.006   6.650 -0.7314 -0.3543 -0.9606
  916MOL0     H26374   0.555   8.074   6.726  0.6486 -1.2350 -2.4560
  916MOL0     H26375   0.617   7.912   6.764 -0.1783  0.3939 -0.3146
  916MOL0     H26376   0.623   8.145   6.967 -0.9803  1.1777 -2.7255
  916MOL0     H26377   0.677   7.980   7.003  0.7259  0.5533 -0.3643
  916MOL0     H26378   0.490   8.002   7.109  3.4276 -1.3926 -0.0109
  916MOL0     H26379   0.439   7.902   6.956 -0.4925  0.3313 -0.4645
  916MOL0     H26380   0.263   8.043   7.037 -1.2056  0.8278 -0.8166
  916MOL0     H26381   0.371   8.187   7.003 -0.6138 -0.9039  1.5365
  916MOL0     H26382   0.292   7.989   6.790  1.3290 -0.0654 -1.0169
  916MOL0     H26383   0.342   8.152   6.768 -3.2694  1.4129 -1.4776
  916MOL0     H26384   0.147   8.248   6.883  1.8725  1.1205 -2.6169
  916MOL0     H26385   0.074   8.085   6.914 -1.5822  0.3691 -0.8959
  916MOL0     H26386   0.133   8.220   6.652 -0.7800  2.5831  1.2829
  916MOL0     H26387  -0.028   8.198   6.709  0.5268  2.3977 -0.3530
  916MOL0     H26388   1.028   8.134   6.614 -0.1325 -1.4385  0.2937
  916MOL0     H26389   1.253   8.232   6.644  1.2743  0.7267  1.4952
  916MOL0     H26390   1.578   8.342   6.971  0.1632 -0.0492 -0.3514
  916MOL0     H26391   1.777   8.474   7.028  0.2750  1.8698  1.3482
  916MOL0     H26392   1.019   7.944   6.449  1.2013 -2.2649  1.9462
  916MOL0     H26393   0.799   7.830   6.532  0.0729 -0.3857 -0.4669
  916MOL0     H26394   0.463   7.683   6.738 -0.1116 -0.0295 -0.3164
  916MOL0     H26395   0.207   7.678   6.787 -2.8963 -0.4929 -1.4866
  916MOL0     H26396  -0.007   7.577   6.778  0.4894 -1.2309 -0.7140
  916MOL0     H26397   0.031   7.749   6.768  2.6874 -1.3346 -1.7116
  916MOL0     H26398  -0.226   7.685   6.809 -2.3542  0.6037 -0.4314
  916MOL0     H26399  -0.219   7.607   6.654 -2.4281  1.6013 -0.1685
  916MOL0     H26400  -0.146   7.837   6.561  0.8582  0.3897 -0.1377
  916MOL0     H26401  -0.311   7.792   6.589  0.3029  1.4662 -1.3550
  916MOL0     H26402  -0.280   8.018   6.656 -2.6073 -1.5593 -0.6041
  916MOL0     H26403  -0.162   7.976   6.786  0.2299  1.1872 -0.8632
  916MOL0     H26404  -0.484   7.913   6.997  0.7410  0.2422  0.4505
  916MOL0     H26405   0.138   7.639   6.367  0.4024 -0.0978  0.2379
  916MOL0     H26406   0.444   7.526   6.272 -2.0753 -1.6857 -1.0821
  916MOL0     H26407   0.295   7.563   6.216  1.4614  0.2946 -1.3423
  916MOL0     H26408   0.407   7.696   6.217  2.5417 -0.3772 -0.2641
  917MOL0     O26409   7.726  10.863   3.385 -0.0272 -0.1072  0.3309
  917MOL0     C26410   7.656  10.908   3.292  0.1098 -0.2947 -0.1870
  917MOL0     O26411   7.696  10.918   3.157 -0.1356  0.2416  0.2609
  917MOL0     C26412   7.830  10.944   3.125 -0.2593  0.0076  0.2554
  917MOL0     C26413   7.870  10.894   2.996  0.2522 -0.3978 -1.0040
  917MOL0     C26414   8.007  10.900   2.971 -0.2824  0.2374 -0.2750
  917MOL0     C26415   8.097  10.978   3.050 -0.4734  0.2388  0.1394
  917MOL0     O26416   8.228  10.977   3.004  0.2997 -0.2759  0.4469
  917MOL0     C26417   8.335  11.043   3.077  0.3343  0.0592 -0.1018
  917MOL0     C26418   8.428  11.105   2.974 -0.2730 -0.2540 -0.5212
  917MOL0     C26419   8.536  11.178   3.053 -0.2312 -0.3069 -0.8458
  917MOL0     C26420   8.654  11.090   3.100 -0.5919 -0.7665  0.1949
  917MOL0     C26421   8.739  11.156   3.211 -0.5094 -0.3972  0.1719
  917MOL0     C26422   8.840  11.260   3.162 -0.8088  0.8411  0.5159
  917MOL0     C26423   8.973  11.215   3.099  0.4339  1.6424  0.7478
  917MOL0     C26424   9.056  11.314   3.007  0.2653  0.7586 -1.0930
  917MOL0     N26425   9.177  11.367   3.086 -0.7566  0.2704 -0.4830
  917MOL0     C26426   9.176  11.480   3.167 -0.4344  0.0603  0.1630
  917MOL0     C26427   9.288  11.469   3.245 -0.0570 -0.3594 -0.3485
  917MOL0     C26428   9.320  11.569   3.355 -1.3531  0.5671  0.5632
  917MOL0     C26429   9.458  11.636   3.327 -0.3437 -0.5037 -0.3464
  917MOL0     C26430   9.461  11.769   3.400  0.4665  0.7923  0.0393
  917MOL0     C26431   9.587  11.848   3.389  0.6591  0.0252 -0.0446
  917MOL0     O26432   9.683  11.788   3.481 -0.2608 -0.4409  0.3509
  917MOL0     C26433   9.813  11.809   3.453 -0.5024 -1.2556 -0.1168
  917MOL0     C26434   9.899  11.728   3.529 -0.2388  0.6992  0.0708
  917MOL0     C26435  10.039  11.722   3.512  0.9207 -0.8992 -0.5285
  917MOL0     C26436  10.122  11.632   3.603 -0.7494 -0.3094  1.0571
  917MOL0     C26437  10.088  11.807   3.411 -0.4151  0.4785  0.3825
  917MOL0     C26438  10.235  11.811   3.378  0.3612 -0.3989  0.3237
  917MOL0     O26439  10.328  11.763   3.473  0.3320  0.2238 -0.1947
  917MOL0     C26440  10.458  11.754   3.444 -0.8362  0.3704  0.0208
  917MOL0     C26441  10.526  11.668   3.537 -0.9715  0.3568 -0.7866
  917MOL0     C26442  10.665  11.645   3.524  0.2895 -0.6249  0.3426
  917MOL0     C26443  10.741  11.716   3.426  0.0641  0.6268 -0.4028
  917MOL0     O26444  10.880  11.712   3.434  0.3407  0.3697 -0.6013
  917MOL0     C26445  10.953  11.697   3.311 -0.6714 -0.0853  0.4937
  917MOL0     C26446  11.101  11.694   3.327 -0.2442 -0.5626  0.0545
  917MOL0     C26447  11.179  11.696   3.198 -0.4798 -0.1560  0.8399
  917MOL0     C26448  11.312  11.748   3.230 -0.3528  0.2326 -0.0627
  917MOL0     C26449  11.408  11.770   3.110  0.2469  0.7867  0.4473
  917MOL0     C26450  11.546  11.836   3.150 -0.0718  1.2171  0.2681
  917MOL0     C26451  11.631  11.754   3.249 -0.5467  0.3341  0.4406
  917MOL0     C26452  11.766  11.819   3.258  0.2521  0.0357 -0.7456
  917MOL0    Cl26453  11.877  11.714   3.356 -0.0256 -0.0651  0.0993
  917MOL0     C26454  10.672  11.810   3.345 -0.0202  0.2859  0.1971
  917MOL0     C26455  10.533  11.822   3.348  0.7617  0.5154  1.4470
  917MOL0     O26456  10.262  11.850   3.260  0.0177  0.4445 -0.6479
  917MOL0     C26457  10.001  11.883   3.329  0.5326  0.1513 -0.8114
  917MOL0     C26458   9.864  11.889   3.352  0.1461 -0.6620 -0.1905
  917MOL0     N26459   9.358  11.360   3.210  0.4297  0.5000  0.3752
  917MOL0     N26460   9.282  11.291   3.123 -0.0389  0.1517  0.2144
  917MOL0     C26461   8.050  11.029   3.169 -0.1273 -0.1447 -0.1205
  917MOL0     C26462   7.925  11.015   3.210 -0.5760 -0.3635  0.4172
  917MOL0     C26463   7.515  10.942   3.320 -0.1314  0.0669 -0.1978
  917MOL0     C26464   7.429  10.984   3.207 -0.0794  0.1335  0.3833
  917MOL0     C26465   7.296  11.004   3.224  0.0448  0.1454 -0.4318
  917MOL0     C26466   7.238  11.005   3.350  1.0010  0.1636  0.0098
  917MOL0     O26467   7.094  11.033   3.340  0.3123  0.8645 -0.0829
  917MOL0     C26468   7.019  11.005   3.457 -0.6193  0.5954 -0.1598
  917MOL0     C26469   6.881  11.040   3.417 -0.0614  0.5265 -0.1871
  917MOL0     C26470   6.810  10.938   3.327  1.2670  0.4662  0.0391
  917MOL0     C26471   6.655  10.960   3.319  0.9347 -0.5568 -0.5194
  917MOL0     C26472   6.633  11.086   3.241  0.3824  0.1989 -0.0478
  917MOL0     C26473   6.611  11.186   3.172  0.1019 -0.5307 -0.8018
  917MOL0     C26474   7.314  10.964   3.462 -0.1878 -0.5333 -0.0841
  917MOL0     C26475   7.451  10.925   3.447  0.0214 -0.4658 -0.0883
  917MOL0     C26476   7.522  10.893   3.571 -0.6767  0.0618  0.2638
  917MOL0     H26477   7.798  10.846   2.930 -0.6991  1.0717 -1.0757
  917MOL0     H26478   8.033  10.858   2.875 -0.3690 -2.2536  0.7341
  917MOL0     H26479   8.378  10.973   3.149  0.4300 -0.8480 -1.0101
  917MOL0     H26480   8.311  11.127   3.142  2.0460 -0.6306  1.4865
  917MOL0     H26481   8.469  11.030   2.906 -2.7790 -2.3156  0.0776
  917MOL0     H26482   8.378  11.174   2.906  1.0058 -2.0649 -3.4822
  917MOL0     H26483   8.565  11.266   2.994 -1.6294  0.7586  0.0323
  917MOL0     H26484   8.494  11.225   3.142  1.2327  1.0747 -0.8309
  917MOL0     H26485   8.621  10.993   3.139  2.1934 -2.2557 -0.8652
  917MOL0     H26486   8.711  11.079   3.007 -2.6806 -0.2697 -1.2095
  917MOL0     H26487   8.792  11.080   3.269 -0.9283 -0.9983 -0.2219
  917MOL0     H26488   8.668  11.211   3.273 -0.4139 -1.9362  1.7121
  917MOL0     H26489   8.790  11.322   3.087  0.5265  2.8899  1.2233
  917MOL0     H26490   8.872  11.332   3.238  1.2710 -0.0168  0.5235
  917MOL0     H26491   8.934  11.133   3.037  1.8343 -0.4631  2.5038
  917MOL0     H26492   9.045  11.177   3.172  0.0798 -0.3926  0.1161
  917MOL0     H26493   9.085  11.249   2.924 -2.0177 -0.4973 -0.9933
  917MOL0     H26494   8.988  11.391   2.969 -0.3749 -1.8810 -6.0931
  917MOL0     H26495   9.098  11.555   3.168 -3.2956 -2.7239 -0.4542
  917MOL0     H26496   9.325  11.503   3.443 -2.1287  0.0489  0.2383
  917MOL0     H26497   9.241  11.643   3.372 -1.1797  1.4151 -1.9845
  917MOL0     H26498   9.549  11.579   3.344  0.8732  1.0376 -1.4307
  917MOL0     H26499   9.455  11.653   3.219  2.5557  1.1630 -0.2491
  917MOL0     H26500   9.398  11.836   3.340  1.9886  1.1550 -1.2231
  917MOL0     H26501   9.430  11.751   3.503 -0.2989 -0.2068 -0.3468
  917MOL0     H26502   9.622  11.830   3.287  0.1119 -1.8968  0.0675
  917MOL0     H26503   9.564  11.953   3.408  1.0051  0.2579 -0.8813
  917MOL0     H26504   9.862  11.647   3.591  1.6306  0.0430  0.3869
  917MOL0     H26505  10.152  11.685   3.694 -2.0120  2.9594 -0.2391
  917MOL0     H26506  10.205  11.587   3.548 -0.8511 -1.5863  1.9254
  917MOL0     H26507  10.058  11.547   3.629 -2.0372 -0.9390 -3.3207
  917MOL0     H26508  10.471  11.600   3.601  0.4608 -0.2225 -0.1181
  917MOL0     H26509  10.716  11.575   3.589  0.5617 -0.0100  0.7956
  917MOL0     H26510  10.931  11.606   3.255  3.0245 -0.1226 -1.2036
  917MOL0     H26511  10.939  11.788   3.252  3.9890  0.7922  0.2906
  917MOL0     H26512  11.131  11.787   3.377 -0.9182 -0.7828  0.8908
  917MOL0     H26513  11.120  11.599   3.378  1.2486 -1.1245 -1.4771
  917MOL0     H26514  11.125  11.764   3.132 -1.2345  0.4405  2.0484
  917MOL0     H26515  11.177  11.596   3.153  0.3699  0.6606 -1.1552
  917MOL0     H26516  11.361  11.682   3.302  1.4832  0.1102 -1.3498
  917MOL0     H26517  11.291  11.844   3.278  1.1505  0.3964  0.3384
  917MOL0     H26518  11.431  11.677   3.056 -1.8535  0.8882 -0.7492
  917MOL0     H26519  11.355  11.830   3.036 -1.4211 -1.8392 -0.6641
  917MOL0     H26520  11.520  11.936   3.186 -2.8364  1.6165 -2.3881
  917MOL0     H26521  11.601  11.855   3.057 -1.5276  0.0457 -0.8898
  917MOL0     H26522  11.645  11.652   3.211  1.3207  0.7677 -0.1666
  917MOL0     H26523  11.574  11.749   3.343 -2.3420  1.3829 -0.5527
  917MOL0     H26524  11.752  11.914   3.310  1.5078 -2.1932  4.1766
  917MOL0     H26525  11.812  11.849   3.163  0.2983 -0.4640 -0.8852
  917MOL0     H26526  10.724  11.891   3.295 -2.7417  2.2826  0.3845
  917MOL0     H26527  10.502  11.901   3.281  1.5491 -1.5483 -1.5545
  917MOL0     H26528  10.046  11.945   3.251  0.3548  0.2586 -0.8287
  917MOL0     H26529   9.794  11.949   3.295  0.0441  1.4331  1.9933
  917MOL0     H26530   8.109  11.089   3.238  0.3443  1.0301 -1.4809
  917MOL0     H26531   7.904  11.055   3.308  0.4302  0.5088  0.2969
  917MOL0     H26532   7.454  10.978   3.102  1.5219  1.4592  0.6535
  917MOL0     H26533   7.243  11.033   3.134  0.8200 -0.6082 -1.1378
  917MOL0     H26534   7.029  10.903   3.494  1.5667  0.8403  0.0870
  917MOL0     H26535   7.043  11.080   3.533 -2.6539  0.4959  0.6374
  917MOL0     H26536   6.885  11.144   3.382  4.0884  1.3992  2.2561
  917MOL0     H26537   6.813  11.046   3.503  0.4615 -1.2601  0.3787
  917MOL0     H26538   6.854  10.935   3.227  0.4135 -1.5155 -0.3099
  917MOL0     H26539   6.822  10.835   3.361  0.1925  1.6233  4.7444
  917MOL0     H26540   6.629  10.975   3.424  1.0914 -0.1848 -0.5309
  917MOL0     H26541   6.616  10.868   3.276  1.0259 -1.1220  0.5810
  917MOL0     H26542   6.588  11.278   3.122  2.9042 -0.3366 -1.8743
  917MOL0     H26543   7.274  10.951   3.562 -1.7857  3.4925  0.0098
  917MOL0     H26544   7.551  10.788   3.562 -1.0595  0.0954 -1.8201
  917MOL0     H26545   7.617  10.945   3.583 -1.3065  1.4293 -0.5139
  917MOL0     H26546   7.464  10.906   3.664  1.7901 -1.9746  2.2544
  918MOL0     O26547   2.598   9.792   2.447 -0.7206  0.3012 -0.2985
  918MOL0     C26548   2.550   9.793   2.335 -0.2797  0.0668 -0.0770
  918MOL0     O26549   2.616   9.782   2.217  0.2314  0.4696  0.1509
  918MOL0     C26550   2.754   9.779   2.197 -0.2769  0.0681 -0.0607
  918MOL0     C26551   2.798   9.706   2.088  0.3499 -0.1927 -0.2277
  918MOL0     C26552   2.934   9.690   2.064  0.3289 -0.0619 -0.6346
  918MOL0     C26553   3.027   9.763   2.145 -0.4721 -0.4336  0.1801
  918MOL0     O26554   3.163   9.770   2.101 -0.0445  0.2902 -0.3451
  918MOL0     C26555   3.257   9.858   2.174 -0.5098  0.7338 -0.1750
  918MOL0     C26556   3.400   9.848   2.105  0.7001  0.1758  0.3717
  918MOL0     C26557   3.445   9.705   2.078 -0.0470 -0.0330  0.0516
  918MOL0     C26558   3.588   9.716   2.017  0.3634 -0.3308 -0.1552
  918MOL0     C26559   3.595   9.745   1.866  0.1795 -0.2581  0.5792
  918MOL0     C26560   3.495   9.672   1.773 -0.3703 -0.0941 -0.7265
  918MOL0     C26561   3.525   9.696   1.626  0.1224  0.6254  0.7619
  918MOL0     C26562   3.456   9.608   1.520  0.0128 -0.7849 -0.1113
  918MOL0     N26563   3.503   9.471   1.503  0.0186 -0.1169  0.0352
  918MOL0     C26564   3.603   9.422   1.416 -0.2207 -0.5290  0.2339
  918MOL0     C26565   3.596   9.290   1.427  0.1301  0.4402  0.5833
  918MOL0     C26566   3.689   9.204   1.343 -0.1390  1.2554 -0.4684
  918MOL0     C26567   3.686   9.052   1.367  0.2811  0.3695  0.4309
  918MOL0     C26568   3.656   9.003   1.508  0.7335 -0.0055 -0.4627
  918MOL0     C26569   3.731   8.863   1.538  0.1176  0.7028  0.9158
  918MOL0     O26570   3.874   8.880   1.530 -0.1522  0.8398 -0.0937
  918MOL0     C26571   3.946   8.767   1.522 -0.0124  0.7050  0.4638
  918MOL0     C26572   3.974   8.689   1.629  0.0445 -0.6060  0.0986
  918MOL0     C26573   4.065   8.577   1.621  0.6189  0.5170 -0.9313
  918MOL0     C26574   4.101   8.503   1.752 -0.2717  0.2978  0.3143
  918MOL0     C26575   4.118   8.542   1.498  0.1806 -0.2758  0.5446
  918MOL0     C26576   4.219   8.431   1.473  0.4574 -0.0555  0.0803
  918MOL0     O26577   4.280   8.428   1.353 -0.2485  0.7773 -0.5440
  918MOL0     C26578   4.361   8.321   1.331  0.7110 -1.3479 -0.2548
  918MOL0     C26579   4.336   8.232   1.226  0.4694 -0.3194  0.3633
  918MOL0     C26580   4.434   8.129   1.203  0.1612  0.3176  1.1395
  918MOL0     C26581   4.542   8.106   1.285  0.1672  0.8700 -0.5937
  918MOL0     O26582   4.625   8.004   1.260  0.0408  0.0134 -0.2598
  918MOL0     C26583   4.718   8.038   1.158 -0.5401  0.1316  0.4812
  918MOL0     C26584   4.811   7.920   1.153  0.4472  0.0748 -0.0234
  918MOL0     C26585   4.922   7.930   1.260  0.3798  0.3464  0.9194
  918MOL0     C26586   5.016   7.813   1.250  0.2374  0.1309 -0.1142
  918MOL0     C26587   5.164   7.844   1.298  0.3534  0.0443  0.1744
  918MOL0     C26588   5.274   7.751   1.268  0.4535  0.3385 -0.5633
  918MOL0     C26589   5.270   7.620   1.348  0.5247 -0.6556 -0.1777
  918MOL0     C26590   5.404   7.546   1.350 -0.5441 -0.3374  0.2810
  918MOL0    Cl26591   5.479   7.519   1.195  0.3386 -0.2068 -0.0854
  918MOL0     C26592   4.572   8.203   1.375  0.2333 -0.1334 -0.0287
  918MOL0     C26593   4.482   8.308   1.402  0.2527 -0.1965  0.2497
  918MOL0     O26594   4.243   8.354   1.567 -0.3517 -0.2870  0.2057
  918MOL0     C26595   4.077   8.612   1.383  0.1809  0.1356 -0.2000
  918MOL0     C26596   3.997   8.730   1.397 -0.5665 -0.7885  0.1899
  918MOL0     N26597   3.496   9.256   1.516 -0.7127 -0.5794  0.2937
  918MOL0     N26598   3.451   9.364   1.573 -0.1412  0.0702 -0.4174
  918MOL0     C26599   2.975   9.853   2.247 -0.7750 -0.4916  0.3892
  918MOL0     C26600   2.839   9.854   2.272  0.5987  0.0563 -0.0025
  918MOL0     C26601   2.403   9.813   2.328  0.3883  0.1265 -0.1353
  918MOL0     C26602   2.325   9.805   2.449  0.3863  0.7815  0.0021
  918MOL0     C26603   2.191   9.825   2.455  0.7468 -0.4775  0.4525
  918MOL0     C26604   2.117   9.839   2.338 -0.1060 -0.0657  0.1816
  918MOL0     O26605   1.976   9.854   2.345  0.1085 -0.7323  1.2030
  918MOL0     C26606   1.899   9.790   2.449 -0.6903  1.1447  0.7300
  918MOL0     C26607   1.871   9.642   2.421  0.1941  0.4482 -0.5884
  918MOL0     C26608   1.996   9.552   2.443  0.0297 -0.2045 -0.2518
  918MOL0     C26609   1.958   9.408   2.481  0.0818  1.0633 -0.2227
  918MOL0     C26610   2.066   9.320   2.521 -0.7270 -0.4483  0.3936
  918MOL0     C26611   2.160   9.252   2.562  0.2762 -0.4548  0.2606
  918MOL0     C26612   2.188   9.834   2.218 -0.3336 -0.2120  0.3815
  918MOL0     C26613   2.331   9.826   2.210  0.1961  0.0517 -0.3605
  918MOL0     C26614   2.393   9.844   2.065 -0.0213  0.7344  0.1453
  918MOL0     H26615   2.715   9.664   2.031  0.1124 -1.6381  1.1293
  918MOL0     H26616   2.971   9.637   1.976  0.2787 -1.7030  0.2782
  918MOL0     H26617   3.273   9.809   2.270  0.5684 -1.0171 -1.1928
  918MOL0     H26618   3.222   9.961   2.186 -0.5147  1.1113 -2.8034
  918MOL0     H26619   3.389   9.899   2.009 -1.6825  1.1419  1.0864
  918MOL0     H26620   3.467   9.908   2.169  0.8008  0.3870  0.0708
  918MOL0     H26621   3.467   9.646   2.167 -0.9998 -2.0919 -1.0271
  918MOL0     H26622   3.377   9.649   2.014 -1.6175 -0.7831  2.2868
  918MOL0     H26623   3.658   9.776   2.075  3.0701 -3.1113 -0.2334
  918MOL0     H26624   3.638   9.619   2.025 -0.6930 -0.8619  0.2526
  918MOL0     H26625   3.694   9.711   1.834 -1.3753 -2.0786 -2.8043
  918MOL0     H26626   3.581   9.854   1.858  1.0417 -0.1089  0.9498
  918MOL0     H26627   3.501   9.565   1.795  2.9170 -0.1081 -1.1679
  918MOL0     H26628   3.395   9.715   1.786 -0.6746 -1.0247  0.0743
  918MOL0     H26629   3.628   9.675   1.598 -0.8265 -0.3645 -2.3892
  918MOL0     H26630   3.508   9.803   1.610 -2.6337  0.2475  0.6353
  918MOL0     H26631   3.348   9.623   1.531  0.1723  1.0248 -0.6328
  918MOL0     H26632   3.475   9.654   1.422 -3.1153 -0.8191 -0.8574
  918MOL0     H26633   3.671   9.478   1.353 -0.0095  1.5855  2.2220
  918MOL0     H26634   3.794   9.232   1.353  0.1808 -0.3382  1.0567
  918MOL0     H26635   3.663   9.213   1.237 -2.1864  0.1643 -0.1002
  918MOL0     H26636   3.609   9.016   1.299 -0.9823  2.3168  0.7431
  918MOL0     H26637   3.785   9.017   1.337 -0.2695  0.4938 -1.6659
  918MOL0     H26638   3.702   9.080   1.571  0.0483 -0.3667  0.4968
  918MOL0     H26639   3.549   8.993   1.525  0.8913 -2.9982 -0.6471
  918MOL0     H26640   3.715   8.826   1.639 -1.0279  2.3985  1.3981
  918MOL0     H26641   3.704   8.789   1.463  2.5548  1.0466 -0.4142
  918MOL0     H26642   3.939   8.710   1.730 -1.0045 -2.6849  0.2175
  918MOL0     H26643   4.090   8.396   1.734  3.1185 -0.1776  0.2814
  918MOL0     H26644   4.030   8.523   1.833 -1.5627 -0.4490 -0.6082
  918MOL0     H26645   4.205   8.519   1.785 -0.4460  1.8109  0.2181
  918MOL0     H26646   4.240   8.244   1.177  0.6969  0.7559  0.1571
  918MOL0     H26647   4.412   8.065   1.118  2.5264  1.3865 -0.3697
  918MOL0     H26648   4.669   8.042   1.060  0.0596  0.1043  0.1791
  918MOL0     H26649   4.772   8.132   1.164  1.5935 -1.0450  0.8780
  918MOL0     H26650   4.756   7.826   1.168  1.2108 -0.4577 -0.4928
  918MOL0     H26651   4.852   7.910   1.052  0.5682  2.2308 -0.2397
  918MOL0     H26652   4.879   7.923   1.360 -1.8370 -0.1816 -0.0299
  918MOL0     H26653   4.981   8.023   1.260  0.5812  0.2222  1.3968
  918MOL0     H26654   5.018   7.787   1.143  1.0506 -0.6021  0.0670
  918MOL0     H26655   4.986   7.720   1.300 -0.3703  0.3577 -0.0508
  918MOL0     H26656   5.199   7.938   1.254 -0.1701  1.7224  3.1114
  918MOL0     H26657   5.158   7.861   1.406  0.4878 -0.9905  0.3585
  918MOL0     H26658   5.358   7.810   1.305 -1.7287  3.0151  0.4481
  918MOL0     H26659   5.276   7.738   1.159 -0.2846  3.1602 -0.9954
  918MOL0     H26660   5.188   7.558   1.310 -0.7878  0.0199  1.4599
  918MOL0     H26661   5.250   7.639   1.453  0.6640 -3.4916  0.4500
  918MOL0     H26662   5.384   7.445   1.387 -0.6444 -0.7653 -0.9005
  918MOL0     H26663   5.476   7.585   1.422  0.1137  2.3426 -1.6696
  918MOL0     H26664   4.657   8.198   1.442 -0.9358 -1.9600  1.4089
  918MOL0     H26665   4.502   8.372   1.488 -2.4045 -2.2480  2.5332
  918MOL0     H26666   4.126   8.592   1.287  1.3091  4.5565 -0.7464
  918MOL0     H26667   3.969   8.799   1.318 -0.6013  0.1658  0.9979
  918MOL0     H26668   3.038   9.914   2.311 -0.7875 -1.6812  1.5689
  918MOL0     H26669   2.795   9.921   2.345 -3.7324 -0.7559 -1.5629
  918MOL0     H26670   2.370   9.785   2.545  0.4638 -0.6778 -0.3123
  918MOL0     H26671   2.147   9.847   2.552 -1.4979 -1.8649 -0.1615
  918MOL0     H26672   1.936   9.815   2.548 -5.2402 -0.8263  3.2571
  918MOL0     H26673   1.799   9.835   2.447 -1.0852  0.3233  1.3299
  918MOL0     H26674   1.844   9.622   2.317  3.0035  0.6882 -1.4448
  918MOL0     H26675   1.793   9.600   2.487  0.8241 -1.4202 -0.9900
  918MOL0     H26676   2.051   9.541   2.348 -0.1690  0.9762 -0.5246
  918MOL0     H26677   2.062   9.587   2.522  2.6931 -1.5134 -1.7309
  918MOL0     H26678   1.907   9.355   2.400 -1.7466  1.3604  0.6843
  918MOL0     H26679   1.887   9.406   2.564  0.9748 -2.8051  0.6285
  918MOL0     H26680   2.247   9.209   2.609  0.3589  0.2043  0.7380
  918MOL0     H26681   2.124   9.846   2.132  1.3310  2.3361 -0.6107
  918MOL0     H26682   2.466   9.923   2.083  0.4873 -0.1770  2.3959
  918MOL0     H26683   2.442   9.757   2.021  1.0421  1.0101  0.7414
  918MOL0     H26684   2.307   9.879   2.006  0.5073  2.7273  0.4747
  919MOL0     O26685   6.092   7.108   7.469 -0.1382 -0.0709  0.7083
  919MOL0     C26686   5.998   7.175   7.420  0.2370 -0.0740  0.5994
  919MOL0     O26687   6.015   7.287   7.349  0.2795  0.5120 -0.1122
  919MOL0     C26688   6.136   7.351   7.339  1.1916 -0.0508  0.2140
  919MOL0     C26689   6.163   7.410   7.220  0.8251  0.6775  0.1896
  919MOL0     C26690   6.276   7.485   7.203 -0.1918  0.0525  0.0789
  919MOL0     C26691   6.367   7.493   7.309  0.2089  0.0445 -0.4077
  919MOL0     O26692   6.473   7.575   7.315  0.2122  0.3921  0.1133
  919MOL0     C26693   6.507   7.659   7.204 -0.5685 -0.4803  0.3819
  919MOL0     C26694   6.656   7.685   7.201 -0.4565 -0.6041 -0.1724
  919MOL0     C26695   6.710   7.733   7.338  0.4705 -0.1102 -0.1575
  919MOL0     C26696   6.865   7.771   7.333 -0.5719 -0.3003  0.8893
  919MOL0     C26697   6.921   7.809   7.472 -0.1584  0.1801  0.0268
  919MOL0     C26698   7.072   7.843   7.445 -1.2490  1.3088  0.2414
  919MOL0     C26699   7.158   7.871   7.557  0.0586  0.7977 -0.4016
  919MOL0     C26700   7.104   7.988   7.648  0.0670 -0.2245 -0.8655
  919MOL0     N26701   7.155   7.982   7.783 -1.0921  0.1834 -0.3009
  919MOL0     C26702   7.087   7.927   7.894  0.0356 -1.2072 -0.2765
  919MOL0     C26703   7.171   7.908   7.998 -0.5385 -0.2234  0.1743
  919MOL0     C26704   7.136   7.866   8.142  0.0259 -0.1984 -0.3537
  919MOL0     C26705   7.057   7.973   8.220  0.6895 -0.2070 -0.1582
  919MOL0     C26706   7.057   7.918   8.369 -0.3645 -0.1371 -0.2334
  919MOL0     C26707   7.017   8.029   8.475  0.1638 -0.3076 -0.2044
  919MOL0     O26708   7.099   8.147   8.463 -0.3361 -0.5272  0.0437
  919MOL0     C26709   7.075   8.250   8.553 -0.0228 -0.4940 -0.3292
  919MOL0     C26710   6.980   8.253   8.660  0.0085  0.6891 -0.3294
  919MOL0     C26711   6.965   8.359   8.747  0.8451 -1.1025  0.5114
  919MOL0     C26712   6.876   8.339   8.864 -0.6615  0.0667  0.0134
  919MOL0     C26713   7.030   8.482   8.717  0.8980 -0.2515  0.0156
  919MOL0     C26714   7.013   8.615   8.799 -0.7080  0.1233  0.0546
  919MOL0     O26715   7.108   8.715   8.788  0.2351  0.6333  0.5576
  919MOL0     C26716   7.116   8.831   8.846  0.0073  0.0290 -0.1582
  919MOL0     C26717   7.014   8.899   8.920 -0.8149 -0.7296  1.2384
  919MOL0     C26718   7.052   9.026   8.977  0.0594  0.0944 -0.2471
  919MOL0     C26719   7.179   9.086   8.960 -0.7966  0.3575  0.5093
  919MOL0     O26720   7.198   9.205   9.024 -0.0495  0.6147 -0.0787
  919MOL0     C26721   7.324   9.210   9.102 -0.1644 -0.2404 -0.0900
  919MOL0     C26722   7.290   9.228   9.250  0.1373 -0.2593  0.3470
  919MOL0     C26723   7.251   9.375   9.267 -0.5054 -1.5179  0.5072
  919MOL0     C26724   7.167   9.400   9.388  1.3364 -0.1556 -0.1081
  919MOL0     C26725   7.011   9.409   9.380 -0.1258 -0.4250  0.5761
  919MOL0     C26726   6.950   9.271   9.347  0.7127 -1.2283  0.2833
  919MOL0     C26727   6.788   9.284   9.330  0.5351 -1.3595 -0.9130
  919MOL0     C26728   6.709   9.203   9.429  0.4045 -0.3852 -0.5715
  919MOL0    Cl26729   6.542   9.256   9.415 -0.7042  0.3737  0.4285
  919MOL0     C26730   7.276   9.011   8.894 -0.2423 -0.3908  0.1982
  919MOL0     C26731   7.244   8.886   8.841  0.1238 -0.2823 -0.0230
  919MOL0     O26732   6.902   8.637   8.848  0.6477  0.0368  0.3133
  919MOL0     C26733   7.120   8.486   8.606 -0.5081  1.3787 -0.3532
  919MOL0     C26734   7.143   8.368   8.531 -0.7841  0.1765  0.1894
  919MOL0     N26735   7.302   7.931   7.945 -0.2174  0.2281 -0.3520
  919MOL0     N26736   7.283   7.972   7.822  0.7004 -0.0327 -0.0603
  919MOL0     C26737   6.341   7.426   7.422  0.2459  2.1641 -0.0735
  919MOL0     C26738   6.227   7.353   7.438 -0.1602 -0.2191 -0.3827
  919MOL0     C26739   5.855   7.127   7.451 -0.5386  0.0458  0.0754
  919MOL0     C26740   5.823   7.069   7.583 -0.1651  0.0251  0.1504
  919MOL0     C26741   5.688   7.054   7.628 -1.1021 -0.3296  0.1165
  919MOL0     C26742   5.595   7.061   7.529  0.0334 -0.5068 -0.4324
  919MOL0     O26743   5.467   7.041   7.565 -0.1590  0.2767 -0.3427
  919MOL0     C26744   5.394   6.947   7.491 -0.3453  0.5952 -0.8441
  919MOL0     C26745   5.455   6.810   7.468  0.5116  0.3210  0.3805
  919MOL0     C26746   5.483   6.730   7.596 -0.0780 -0.2381  0.4078
  919MOL0     C26747   5.524   6.585   7.571 -0.4550 -0.2437 -0.6957
  919MOL0     C26748   5.418   6.500   7.520  0.4103 -0.8500  0.1978
  919MOL0     C26749   5.339   6.426   7.470  0.7295  1.0227  1.4806
  919MOL0     C26750   5.627   7.090   7.396  0.0580 -0.7115  0.1284
  919MOL0     C26751   5.756   7.125   7.357 -0.2781  0.3719 -0.0407
  919MOL0     C26752   5.784   7.171   7.217  0.5968  0.3627 -0.5797
  919MOL0     H26753   6.092   7.394   7.139  2.1842  0.6203 -1.0263
  919MOL0     H26754   6.283   7.540   7.109  0.0260  0.2196  0.1937
  919MOL0     H26755   6.464   7.759   7.210  3.6831  1.7968 -2.1199
  919MOL0     H26756   6.487   7.617   7.105 -2.0353 -2.9778  1.6439
  919MOL0     H26757   6.710   7.595   7.171  2.4366  1.2644 -0.9842
  919MOL0     H26758   6.679   7.754   7.119 -1.8430 -2.7434 -2.4840
  919MOL0     H26759   6.657   7.819   7.380  0.3496  0.2765 -1.0526
  919MOL0     H26760   6.695   7.648   7.404 -1.5688 -0.9271 -1.5637
  919MOL0     H26761   6.924   7.691   7.287  0.9727  2.0303 -1.4489
  919MOL0     H26762   6.880   7.856   7.266  2.2449 -0.9686  0.5750
  919MOL0     H26763   6.915   7.725   7.541 -0.0158  0.8166  0.8240
  919MOL0     H26764   6.871   7.891   7.523  0.3353 -0.5953  1.8137
  919MOL0     H26765   7.105   7.761   7.381 -0.7003 -0.0117  2.1382
  919MOL0     H26766   7.073   7.933   7.383  0.5798  3.2343  2.8215
  919MOL0     H26767   7.258   7.898   7.524 -0.7536  0.9765 -2.9441
  919MOL0     H26768   7.178   7.778   7.612 -0.9658 -0.2148 -1.6855
  919MOL0     H26769   7.139   8.081   7.603  0.9991 -1.1686 -2.1634
  919MOL0     H26770   6.995   7.991   7.657  0.2449 -1.1214  3.3306
  919MOL0     H26771   6.979   7.920   7.899  0.0820 -1.3553  0.6184
  919MOL0     H26772   7.231   7.840   8.191 -0.8844 -1.1008  1.0022
  919MOL0     H26773   7.080   7.772   8.139  0.9719 -0.7731 -0.7474
  919MOL0     H26774   7.115   8.066   8.219  1.4807 -0.6506  1.3036
  919MOL0     H26775   6.959   7.999   8.179  1.7504  3.5207 -0.7486
  919MOL0     H26776   6.984   7.840   8.392 -2.0133  1.5191  0.4204
  919MOL0     H26777   7.157   7.887   8.401 -0.0711  1.0395  0.0418
  919MOL0     H26778   6.913   8.057   8.456  0.2008  0.2933  0.4388
  919MOL0     H26779   7.020   7.998   8.579 -0.0103  0.8176  0.1479
  919MOL0     H26780   6.922   8.163   8.678  1.0693  0.2433  1.0711
  919MOL0     H26781   6.773   8.352   8.828 -0.4093  2.6309  0.0300
  919MOL0     H26782   6.903   8.401   8.950 -3.7568  0.8096  0.5791
  919MOL0     H26783   6.882   8.236   8.902 -1.0076  0.8008  2.2191
  919MOL0     H26784   6.916   8.853   8.932 -0.6222 -1.5157 -0.0460
  919MOL0     H26785   6.978   9.081   9.035  2.1471  3.0955 -0.1746
  919MOL0     H26786   7.394   9.128   9.085 -2.8895 -2.8569  0.6180
  919MOL0     H26787   7.379   9.298   9.066 -0.7716  0.7259  1.2523
  919MOL0     H26788   7.212   9.157   9.279 -1.0352  1.0616  0.4907
  919MOL0     H26789   7.386   9.207   9.297  1.3175  0.5203 -1.5898
  919MOL0     H26790   7.203   9.419   9.179  2.1551 -1.0680 -0.8334
  919MOL0     H26791   7.342   9.434   9.281 -1.6563  0.2769  0.7372
  919MOL0     H26792   7.195   9.499   9.426 -1.8476  1.4207 -1.4005
  919MOL0     H26793   7.178   9.316   9.457 -0.6768 -2.4693 -2.3888
  919MOL0     H26794   6.970   9.445   9.474  1.5374  1.0767  0.8013
  919MOL0     H26795   6.982   9.479   9.300  1.2035  0.1831  0.5933
  919MOL0     H26796   6.970   9.206   9.432  2.8778  1.1060  1.6840
  919MOL0     H26797   6.993   9.242   9.251 -1.7136  0.1692 -1.3627
  919MOL0     H26798   6.763   9.250   9.229  0.0902 -0.3071 -1.1679
  919MOL0     H26799   6.764   9.388   9.350  3.3140 -0.5088 -1.4841
  919MOL0     H26800   6.747   9.223   9.529 -3.2777 -1.0956  1.1224
  919MOL0     H26801   6.722   9.097   9.408 -0.1859 -0.4812 -0.4594
  919MOL0     H26802   7.381   9.040   8.893 -0.3763  0.1167  0.6418
  919MOL0     H26803   7.313   8.825   8.784  0.8295  0.2899  0.1830
  919MOL0     H26804   7.174   8.572   8.567  0.8604 -0.3876 -2.5784
  919MOL0     H26805   7.218   8.382   8.454  1.4093 -0.9675  2.0108
  919MOL0     H26806   6.414   7.420   7.502 -1.7263 -0.5426  1.7050
  919MOL0     H26807   6.220   7.295   7.530  0.4292 -2.2754 -1.5606
  919MOL0     H26808   5.901   7.066   7.658  3.3067  0.0504 -3.1744
  919MOL0     H26809   5.664   7.043   7.733 -2.9864  2.7804  0.1437
  919MOL0     H26810   5.298   6.935   7.543 -0.4398  3.2987 -0.2318
  919MOL0     H26811   5.365   6.987   7.394  0.0515  0.4443 -1.0259
  919MOL0     H26812   5.549   6.818   7.413  0.2025 -2.3093 -0.6850
  919MOL0     H26813   5.386   6.754   7.404 -2.0660  1.3750  2.0992
  919MOL0     H26814   5.552   6.780   7.664 -0.1777  0.8705 -0.2926
  919MOL0     H26815   5.390   6.718   7.653  0.2380 -3.2377  0.4726
  919MOL0     H26816   5.551   6.545   7.669 -0.7584 -0.1610 -0.5778
  919MOL0     H26817   5.616   6.572   7.513 -0.6042  1.7920 -1.4726
  919MOL0     H26818   5.277   6.353   7.423 -1.6050  3.3028  0.7401
  919MOL0     H26819   5.544   7.091   7.326 -1.3816 -2.1249  1.7091
  919MOL0     H26820   5.696   7.156   7.153 -0.5136  1.2735  0.6973
  919MOL0     H26821   5.811   7.276   7.222  0.4503  0.3841 -0.2267
  919MOL0     H26822   5.863   7.110   7.173  0.6545  0.1550 -0.1925
  920MOL0     O26823   8.042   5.184   9.433 -0.3389 -0.7672  0.1661
  920MOL0     C26824   7.989   5.294   9.406  0.1403 -0.0632  0.1142
  920MOL0     O26825   7.929   5.383   9.496  0.5750  1.1224 -0.5879
  920MOL0     C26826   7.906   5.344   9.628  0.6868  0.1009 -0.0039
  920MOL0     C26827   7.777   5.323   9.676  0.8128  0.6486  0.0912
  920MOL0     C26828   7.761   5.303   9.809  0.3253  0.2903  0.0625
  920MOL0     C26829   7.859   5.292   9.904  0.5112 -0.5244 -0.1549
  920MOL0     O26830   7.823   5.264  10.036  0.1712 -0.2528  0.7887
  920MOL0     C26831   7.866   5.147  10.091 -0.0308 -0.1849  0.1280
  920MOL0     C26832   7.904   5.176  10.238 -0.1348  1.0165  0.9075
  920MOL0     C26833   7.767   5.187  10.319  0.1427 -0.9652  0.1608
  920MOL0     C26834   7.705   5.050  10.374 -0.4709  0.0047 -0.2244
  920MOL0     C26835   7.556   5.067  10.411  0.2423  0.1772  0.3091
  920MOL0     C26836   7.538   5.142  10.538 -0.3287 -0.5333 -1.4369
  920MOL0     C26837   7.385   5.170  10.568 -0.6678  0.4961  0.7303
  920MOL0     C26838   7.284   5.057  10.549 -0.0936 -0.2669  0.4058
  920MOL0     N26839   7.286   4.971  10.666 -0.3862 -0.1216 -0.4898
  920MOL0     C26840   7.391   4.892  10.710 -0.3160 -0.3191  0.4501
  920MOL0     C26841   7.342   4.832  10.821  0.5328  1.1441  0.1990
  920MOL0     C26842   7.416   4.727  10.907 -0.0927  0.8636  0.3289
  920MOL0     C26843   7.507   4.784  11.027 -0.5357  0.8252 -0.5636
  920MOL0     C26844   7.553   4.668  11.127 -0.0770 -0.2626  0.3088
  920MOL0     C26845   7.683   4.693  11.189  0.6533  0.3088 -1.3482
  920MOL0     O26846   7.703   4.577  11.266 -0.0854 -0.3804  0.1961
  920MOL0     C26847   7.805   4.581  11.357 -0.9816  0.3183 -0.4705
  920MOL0     C26848   7.929   4.644  11.324 -1.1886 -0.4897 -0.1034
  920MOL0     C26849   8.030   4.656  11.423 -0.2584 -0.0206 -0.1024
  920MOL0     C26850   8.166   4.719  11.395  0.8048  0.3947  0.3378
  920MOL0     C26851   8.002   4.598  11.556  0.5359  0.0570 -0.0029
  920MOL0     C26852   8.094   4.622  11.668 -0.1270  0.0925  0.6926
  920MOL0     O26853   8.145   4.746  11.684  0.2829 -0.3976 -0.0230
  920MOL0     C26854   8.224   4.774  11.788 -0.7903 -0.0197 -1.0694
  920MOL0     C26855   8.196   4.754  11.924 -1.0282 -0.1226 -0.0400
  920MOL0     C26856   8.278   4.805  12.021  0.0317 -0.0409  0.0581
  920MOL0     C26857   8.388   4.882  11.992 -0.7920 -0.3273 -0.2876
  920MOL0     O26858   8.459   4.922  12.102  0.4278  0.0854  0.0511
  920MOL0     C26859   8.553   5.019  12.078  0.2419 -0.9971 -0.1926
  920MOL0     C26860   8.625   5.070  12.203  0.5602 -0.1233  0.4892
  920MOL0     C26861   8.740   5.160  12.157  0.0500  0.4036  0.6070
  920MOL0     C26862   8.700   5.281  12.071 -0.2738  0.9389  1.0750
  920MOL0     C26863   8.813   5.372  12.021  0.0840  1.2420 -0.3780
  920MOL0     C26864   8.892   5.439  12.125 -0.2396  0.9635  0.5601
  920MOL0     C26865   8.807   5.538  12.197 -0.5508  0.5463  0.3753
  920MOL0     C26866   8.899   5.624  12.286 -0.7229 -0.6056  0.2029
  920MOL0    Cl26867   8.809   5.664  12.427 -0.3027 -0.4495 -0.3579
  920MOL0     C26868   8.425   4.905  11.856  0.3351  0.1355 -0.0010
  920MOL0     C26869   8.337   4.855  11.761  0.7796 -0.8896  0.0341
  920MOL0     O26870   8.114   4.526  11.741 -0.8626 -0.6067 -0.9743
  920MOL0     C26871   7.889   4.514  11.573  0.1026 -0.2815 -0.0048
  920MOL0     C26872   7.783   4.516  11.478 -0.9185  0.9695  0.5365
  920MOL0     N26873   7.211   4.880  10.845  0.2735  0.2334 -0.4440
  920MOL0     N26874   7.178   4.950  10.745 -0.1273 -0.2804  0.0024
  920MOL0     C26875   7.985   5.298   9.853 -0.8017 -0.5913 -0.1375
  920MOL0     C26876   8.007   5.330   9.710 -0.0935  0.9053 -0.5935
  920MOL0     C26877   7.991   5.327   9.257  0.2731  0.1200 -0.2780
  920MOL0     C26878   7.969   5.467   9.225 -0.1004  0.2659  0.0988
  920MOL0     C26879   7.972   5.513   9.092  0.3308 -0.8038  0.1882
  920MOL0     C26880   8.006   5.430   8.987 -0.2465  0.4246  0.4127
  920MOL0     O26881   7.994   5.456   8.857  0.1392  0.1129 -0.4387
  920MOL0     C26882   7.861   5.493   8.825 -0.0957 -0.0811 -0.7798
  920MOL0     C26883   7.841   5.429   8.693 -0.7587  0.4609 -0.0982
  920MOL0     C26884   7.916   5.299   8.655 -0.0538 -0.3900  0.1468
  920MOL0     C26885   7.854   5.178   8.731  0.7537 -0.1863 -0.8219
  920MOL0     C26886   7.948   5.066   8.746  0.1279 -0.4586  1.0779
  920MOL0     C26887   8.023   4.969   8.763  0.4626 -0.3238 -0.0960
  920MOL0     C26888   8.036   5.297   9.022  0.2116  0.1927  0.4213
  920MOL0     C26889   8.030   5.243   9.150  0.2612  0.1274  1.0797
  920MOL0     C26890   8.038   5.092   9.145 -0.4240 -0.8570 -0.5267
  920MOL0     H26891   7.689   5.347   9.618  0.4392  1.3261  0.9044
  920MOL0     H26892   7.659   5.287   9.841  0.1847 -1.0112 -0.9446
  920MOL0     H26893   7.960   5.117  10.044  0.3426  1.9055 -0.5849
  920MOL0     H26894   7.791   5.068  10.078 -1.4320  1.5525 -4.3723
  920MOL0     H26895   7.967   5.092  10.271 -0.5105  0.0750 -0.6763
  920MOL0     H26896   7.967   5.264  10.247  1.3238 -0.0268  1.3454
  920MOL0     H26897   7.793   5.251  10.404  2.2648 -3.4591  1.5756
  920MOL0     H26898   7.696   5.235  10.251 -0.1277  1.2984  1.9274
  920MOL0     H26899   7.721   4.975  10.295 -0.0054  1.6404 -1.7554
  920MOL0     H26900   7.758   5.013  10.461 -2.0376  1.7725  1.5822
  920MOL0     H26901   7.510   4.968  10.415 -1.1996  0.8262  1.0331
  920MOL0     H26902   7.507   5.122  10.329  0.1357 -2.0123 -1.1651
  920MOL0     H26903   7.585   5.108  10.631  0.5564  1.4793 -1.0861
  920MOL0     H26904   7.584   5.241  10.536  0.4417 -0.8276  0.1733
  920MOL0     H26905   7.359   5.246  10.494  4.1016 -1.1528 -3.2611
  920MOL0     H26906   7.362   5.216  10.664 -2.0229  0.4879  0.4219
  920MOL0     H26907   7.185   5.103  10.548 -1.1434 -2.4374 -0.0891
  920MOL0     H26908   7.302   4.993  10.463  3.4640  0.8579  0.1521
  920MOL0     H26909   7.487   4.876  10.663  0.0399 -0.1507  1.1120
  920MOL0     H26910   7.474   4.658  10.845 -1.8721  0.6260 -1.1738
  920MOL0     H26911   7.349   4.659  10.961  0.4315 -0.2743 -0.3952
  920MOL0     H26912   7.592   4.835  10.979  0.3451 -0.3995 -0.3595
  920MOL0     H26913   7.458   4.856  11.092 -2.2209  0.2018 -1.0942
  920MOL0     H26914   7.474   4.659  11.202  1.5068 -0.6456  1.9956
  920MOL0     H26915   7.558   4.573  11.074  0.0298 -1.1773  1.8988
  920MOL0     H26916   7.758   4.697  11.111  0.5273 -5.9449 -2.2985
  920MOL0     H26917   7.682   4.777  11.259  0.5039  2.1368 -3.4446
  920MOL0     H26918   7.938   4.677  11.221 -2.4238  0.2020 -0.0051
  920MOL0     H26919   8.248   4.656  11.431 -0.1062 -2.1295 -1.7044
  920MOL0     H26920   8.180   4.818  11.438  1.3816  0.2209  0.5749
  920MOL0     H26921   8.180   4.718  11.287  0.0385 -1.7859  0.1963
  920MOL0     H26922   8.100   4.712  11.952 -2.6964  3.1933 -0.1972
  920MOL0     H26923   8.271   4.783  12.127  0.7978  1.3978  0.4378
  920MOL0     H26924   8.628   4.966  12.018 -1.6909 -5.0175  0.5576
  920MOL0     H26925   8.513   5.101  12.018 -0.8269 -2.1641 -1.1631
  920MOL0     H26926   8.556   5.136  12.257  1.5313  1.7315 -0.4289
  920MOL0     H26927   8.662   4.994  12.272  1.6376 -0.0409  0.0266
  920MOL0     H26928   8.812   5.101  12.100  1.1087  1.3132  0.9828
  920MOL0     H26929   8.795   5.187  12.247  1.7679  1.3183 -0.6566
  920MOL0     H26930   8.632   5.346  12.127 -2.0483  0.8086 -0.8092
  920MOL0     H26931   8.652   5.238  11.983 -0.5157 -2.4711  2.6871
  920MOL0     H26932   8.881   5.297  11.980 -1.0252  0.7443 -1.3715
  920MOL0     H26933   8.769   5.438  11.946 -1.7397 -0.7962 -1.2375
  920MOL0     H26934   8.978   5.488  12.079  1.5889  0.2498  3.0592
  920MOL0     H26935   8.932   5.362  12.192 -1.9948  1.5586  2.3994
  920MOL0     H26936   8.731   5.486  12.255 -1.9267  1.3371 -0.6588
  920MOL0     H26937   8.753   5.603  12.128 -1.6755 -1.0126 -0.2557
  920MOL0     H26938   8.912   5.717  12.230 -1.9182  0.7654  2.0861
  920MOL0     H26939   8.994   5.579  12.316 -0.5944 -0.0614  0.6299
  920MOL0     H26940   8.506   4.975  11.836 -0.2405  0.7020 -0.4065
  920MOL0     H26941   8.342   4.867  11.654 -2.7950 -2.2724 -0.4546
  920MOL0     H26942   7.879   4.480  11.675  0.5246 -0.8415 -0.1456
  920MOL0     H26943   7.684   4.484  11.510 -0.9491  2.0786  1.6585
  920MOL0     H26944   8.071   5.295   9.920 -0.8828  1.9700  0.1889
  920MOL0     H26945   8.108   5.334   9.670  0.2133  1.4300  0.2088
  920MOL0     H26946   7.938   5.533   9.306 -2.3877  0.1412 -0.6074
  920MOL0     H26947   7.934   5.614   9.083  2.3986  0.0054  0.1137
  920MOL0     H26948   7.795   5.461   8.906  4.0205 -0.0636  2.9912
  920MOL0     H26949   7.865   5.602   8.825 -0.9281 -0.0177  0.7631
  920MOL0     H26950   7.870   5.504   8.618  0.4394 -2.0427 -2.2892
  920MOL0     H26951   7.736   5.399   8.680 -0.1917 -0.4946 -3.3664
  920MOL0     H26952   7.899   5.269   8.551  1.9235 -2.2539  0.2929
  920MOL0     H26953   8.024   5.297   8.669 -0.3504 -0.5103  3.0299
  920MOL0     H26954   7.754   5.154   8.693  1.4572  0.0631 -2.9449
  920MOL0     H26955   7.839   5.222   8.830  0.7393  2.5081 -1.9376
  920MOL0     H26956   8.094   4.889   8.765 -1.8100 -2.5265 -1.2138
  920MOL0     H26957   8.065   5.233   8.939  1.6148  0.8563  0.3611
  920MOL0     H26958   8.008   5.060   9.045 -2.3111 -0.4240 -0.1318
  920MOL0     H26959   8.136   5.047   9.166 -0.1092  0.2190  0.4225
  920MOL0     H26960   7.969   5.046   9.216  0.7894 -2.6331 -0.4519
  921MOL0     O26961  11.183   6.407   8.243 -0.3364 -0.1469 -0.0537
  921MOL0     C26962  11.103   6.503   8.253  0.8031  0.0506 -0.1890
  921MOL0     O26963  11.131   6.622   8.189  0.0827  0.4267  0.3454
  921MOL0     C26964  11.260   6.630   8.126  0.3720 -0.8776  0.5087
  921MOL0     C26965  11.373   6.644   8.201  0.3524 -1.0725 -0.3025
  921MOL0     C26966  11.496   6.655   8.139 -0.6337  0.0714 -0.8957
  921MOL0     C26967  11.513   6.641   8.001 -0.6629 -0.2056 -1.0776
  921MOL0     O26968  11.636   6.659   7.934 -0.1577 -0.3177 -0.0004
  921MOL0     C26969  11.756   6.617   7.998 -1.3611 -0.4345  0.0072
  921MOL0     C26970  11.801   6.478   7.950 -0.1143 -0.7988 -0.0801
  921MOL0     C26971  11.935   6.442   8.005 -0.9001 -0.0931  0.1960
  921MOL0     C26972  12.054   6.532   7.952  0.5926 -0.3937  0.4892
  921MOL0     C26973  12.189   6.464   7.973 -0.2167 -0.0255 -0.0852
  921MOL0     C26974  12.217   6.447   8.118 -0.3190  0.3514 -0.0722
  921MOL0     C26975  12.307   6.561   8.164  0.6623 -0.5005 -0.4128
  921MOL0     C26976  12.321   6.543   8.317 -0.5214  0.4651 -0.5036
  921MOL0     N26977  12.404   6.425   8.365  0.3442  0.0080  0.0985
  921MOL0     C26978  12.407   6.381   8.493  1.3659  0.4150 -0.4127
  921MOL0     C26979  12.504   6.294   8.489 -0.2753  0.4380  0.6217
  921MOL0     C26980  12.543   6.216   8.611 -0.6261  0.3347 -0.0763
  921MOL0     C26981  12.436   6.114   8.646 -0.1332  0.5467  0.4729
  921MOL0     C26982  12.416   6.000   8.535 -0.8462  1.2282 -0.5576
  921MOL0     C26983  12.502   5.866   8.559 -0.2420 -0.5274 -0.0995
  921MOL0     O26984  12.443   5.755   8.479  0.0305  0.5651  0.0990
  921MOL0     C26985  12.494   5.626   8.476  0.6179  0.4506  0.8242
  921MOL0     C26986  12.615   5.602   8.530  0.3744 -0.9057 -0.1200
  921MOL0     C26987  12.677   5.473   8.520  0.0987  0.0503  0.0224
  921MOL0     C26988  12.826   5.458   8.565  0.8329  0.3052  1.0190
  921MOL0     C26989  12.606   5.368   8.452 -0.3457 -0.1838 -0.2474
  921MOL0     C26990  12.663   5.238   8.416 -0.6415  1.3887  0.8908
  921MOL0     O26991  12.607   5.124   8.457 -0.1957  0.3357 -0.8255
  921MOL0     C26992  12.581   5.107   8.587 -0.1860 -0.0518 -0.2787
  921MOL0     C26993  12.663   5.142   8.691 -0.0487  0.6836  0.3808
  921MOL0     C26994  12.618   5.129   8.821  0.2537 -0.0871  0.2379
  921MOL0     C26995  12.488   5.090   8.851  0.5796 -0.0599  0.1279
  921MOL0     O26996  12.449   5.096   8.982 -0.0582  0.2274 -0.1658
  921MOL0     C26997  12.346   5.019   9.041 -0.2906  0.4361  0.2050
  921MOL0     C26998  12.282   5.120   9.129 -0.0476  0.5766 -0.4079
  921MOL0     C26999  12.359   5.187   9.238 -1.3032 -0.1206 -0.6606
  921MOL0     C27000  12.275   5.293   9.299 -0.0769  0.0202  0.1543
  921MOL0     C27001  12.350   5.343   9.427 -0.5383 -0.5867 -0.1049
  921MOL0     C27002  12.319   5.267   9.559 -0.1839 -0.4726 -0.3272
  921MOL0     C27003  12.396   5.326   9.675  0.1283 -0.1113 -0.0447
  921MOL0     C27004  12.395   5.237   9.804  0.5375 -0.0211 -0.5734
  921MOL0    Cl27005  12.239   5.153   9.828  0.2932 -0.6111 -0.1639
  921MOL0     C27006  12.415   5.044   8.749  0.2464  0.4211  0.5700
  921MOL0     C27007  12.458   5.038   8.616  0.3793  0.4397 -0.3226
  921MOL0     O27008  12.736   5.239   8.315 -0.3013 -0.1501  0.3364
  921MOL0     C27009  12.477   5.402   8.400  0.3477 -0.1257 -1.0019
  921MOL0     C27010  12.420   5.525   8.407 -0.1789 -0.4240  0.4348
  921MOL0     N27011  12.566   6.294   8.365 -0.2704 -0.7390 -0.1925
  921MOL0     N27012  12.496   6.363   8.286  0.7138  0.3663  0.4855
  921MOL0     C27013  11.396   6.617   7.922 -0.2481  0.5794  0.0483
  921MOL0     C27014  11.269   6.613   7.987 -0.1555 -0.3007 -0.1481
  921MOL0     C27015  10.978   6.486   8.333  0.5976 -0.0798  0.1980
  921MOL0     C27016  10.970   6.377   8.424  0.1816 -0.3755 -0.3190
  921MOL0     C27017  10.860   6.349   8.504 -0.9529  0.4231 -0.9911
  921MOL0     C27018  10.749   6.435   8.490 -0.5433  0.5423 -0.2833
  921MOL0     O27019  10.632   6.425   8.562 -0.2447 -0.4515 -0.1958
  921MOL0     C27020  10.602   6.303   8.629  0.8280  0.0823  0.1775
  921MOL0     C27021  10.471   6.328   8.712  0.3429 -0.2153 -0.1808
  921MOL0     C27022  10.479   6.465   8.797 -0.1416 -0.0810 -0.3758
  921MOL0     C27023  10.350   6.546   8.790  0.0679  0.1828 -0.4225
  921MOL0     C27024  10.240   6.479   8.859 -0.3831  0.1280  0.4122
  921MOL0     C27025  10.151   6.422   8.922 -0.0513 -0.5110  0.4275
  921MOL0     C27026  10.763   6.546   8.420 -0.3819 -0.6803 -0.3465
  921MOL0     C27027  10.871   6.579   8.333  0.0508 -1.2307 -0.6288
  921MOL0     C27028  10.869   6.720   8.271 -0.6156  0.3433  0.5943
  921MOL0     H27029  11.362   6.661   8.308  0.6577 -1.0505 -0.2736
  921MOL0     H27030  11.582   6.675   8.203  0.2511 -1.6035 -1.5156
  921MOL0     H27031  11.751   6.619   8.107 -1.7804 -1.1768  0.0086
  921MOL0     H27032  11.828   6.697   7.977 -0.1192 -1.3632  0.6774
  921MOL0     H27033  11.730   6.401   7.981 -0.7401 -1.5992 -3.1643
  921MOL0     H27034  11.815   6.466   7.842  0.6116 -1.5866  0.0859
  921MOL0     H27035  11.927   6.473   8.110 -0.8672  4.5283 -0.9241
  921MOL0     H27036  11.944   6.333   7.998 -1.7917 -0.0957 -1.4265
  921MOL0     H27037  12.041   6.538   7.844 -0.7549 -1.7512  0.5548
  921MOL0     H27038  12.034   6.627   8.002  0.1110 -1.4966  2.5227
  921MOL0     H27039  12.274   6.518   7.931 -0.9837  1.1917 -0.1156
  921MOL0     H27040  12.186   6.365   7.927 -0.2954 -1.7118  3.2247
  921MOL0     H27041  12.122   6.429   8.170  2.1649 -2.3560  4.1874
  921MOL0     H27042  12.267   6.349   8.119 -4.2832 -1.8777  0.7266
  921MOL0     H27043  12.271   6.663   8.147  3.1102  0.8312  1.6050
  921MOL0     H27044  12.403   6.568   8.112 -0.3513 -0.3956 -2.3604
  921MOL0     H27045  12.353   6.634   8.368 -0.6463  0.2479 -0.0291
  921MOL0     H27046  12.218   6.534   8.351 -0.3306 -1.0237 -0.2312
  921MOL0     H27047  12.353   6.402   8.584 -0.2695 -0.4697 -1.1212
  921MOL0     H27048  12.551   6.283   8.697 -0.9726  1.0349 -0.5825
  921MOL0     H27049  12.640   6.165   8.603 -1.3073 -1.2104  0.8350
  921MOL0     H27050  12.461   6.065   8.741  3.1851 -1.1992 -1.1132
  921MOL0     H27051  12.338   6.162   8.650  1.1427  3.2952  0.3181
  921MOL0     H27052  12.310   5.974   8.542 -0.8540  1.1128 -1.0429
  921MOL0     H27053  12.435   6.023   8.429 -0.7758  0.6707 -0.6693
  921MOL0     H27054  12.605   5.885   8.528  0.4080 -2.4275  0.7960
  921MOL0     H27055  12.507   5.836   8.664  2.1732 -0.1057 -0.0415
  921MOL0     H27056  12.668   5.679   8.585 -1.1693 -0.2312  0.4939
  921MOL0     H27057  12.878   5.377   8.514 -0.1871 -0.5193  1.2497
  921MOL0     H27058  12.834   5.454   8.674 -0.5220  4.4838  1.4754
  921MOL0     H27059  12.872   5.551   8.533 -1.3160  1.6857  1.7085
  921MOL0     H27060  12.764   5.172   8.665  1.3231 -2.3910  1.6354
  921MOL0     H27061  12.681   5.160   8.904  0.1923  1.0746 -0.1312
  921MOL0     H27062  12.277   4.975   8.969 -0.4619  0.2207  0.4968
  921MOL0     H27063  12.383   4.941   9.108  3.5043 -0.1080 -2.2203
  921MOL0     H27064  12.242   5.197   9.062  1.9419  1.8957 -0.1477
  921MOL0     H27065  12.202   5.056   9.167 -0.2221 -1.1895 -3.4141
  921MOL0     H27066  12.447   5.227   9.187 -0.9858  0.7168  0.5045
  921MOL0     H27067  12.392   5.113   9.311 -0.4987  1.4084  0.5659
  921MOL0     H27068  12.171   5.265   9.320 -0.6107  0.9445 -1.1794
  921MOL0     H27069  12.289   5.363   9.216  1.7904 -2.7985 -2.1275
  921MOL0     H27070  12.453   5.351   9.393 -1.1424  2.6322 -1.5226
  921MOL0     H27071  12.321   5.445   9.452  1.0608  0.0338 -0.6482
  921MOL0     H27072  12.348   5.163   9.538  2.3889 -0.2123  1.3743
  921MOL0     H27073  12.212   5.268   9.580 -0.2325 -0.3633 -0.5764
  921MOL0     H27074  12.337   5.414   9.703  1.8870  1.1222 -0.0665
  921MOL0     H27075  12.500   5.347   9.648  0.5703 -1.7043  0.3327
  921MOL0     H27076  12.420   5.283   9.900 -1.1058  0.1004 -0.1736
  921MOL0     H27077  12.475   5.167   9.778  0.5061 -0.0138 -0.6896
  921MOL0     H27078  12.317   5.005   8.775 -0.5003  2.2908  0.7694
  921MOL0     H27079  12.403   4.988   8.537  0.5425 -2.3033  1.1742
  921MOL0     H27080  12.422   5.312   8.373  0.5852 -0.9926  1.2185
  921MOL0     H27081  12.316   5.539   8.377 -0.3196  0.0787  1.1327
  921MOL0     H27082  11.412   6.599   7.817  3.6353  2.1559  0.1825
  921MOL0     H27083  11.178   6.588   7.934 -0.8120  0.3755  0.6514
  921MOL0     H27084  11.057   6.312   8.429  1.4821  1.1931 -1.2721
  921MOL0     H27085  10.871   6.266   8.574  0.0568  1.0824 -0.3432
  921MOL0     H27086  10.575   6.229   8.553 -0.6651  1.7961 -1.0688
  921MOL0     H27087  10.683   6.272   8.695  2.9343 -1.3535 -2.8257
  921MOL0     H27088  10.461   6.256   8.793  0.3651  1.1535  1.0704
  921MOL0     H27089  10.386   6.322   8.643 -0.7887  4.1513  0.5554
  921MOL0     H27090  10.502   6.470   8.904  1.0727  3.7798 -0.6714
  921MOL0     H27091  10.565   6.518   8.756  0.8161 -0.3040  1.2257
  921MOL0     H27092  10.321   6.557   8.685 -1.4965  1.4147  0.0986
  921MOL0     H27093  10.353   6.645   8.835 -1.8944 -0.3972  1.0847
  921MOL0     H27094  10.095   6.363   8.992  1.0805 -0.1927  1.6237
  921MOL0     H27095  10.681   6.618   8.418  1.3277  1.3975 -2.1219
  921MOL0     H27096  10.786   6.780   8.307 -1.4736 -1.2087  1.2904
  921MOL0     H27097  10.964   6.774   8.281  0.0432 -0.9522  1.7216
  921MOL0     H27098  10.863   6.708   8.162 -4.1068  2.7678  0.3519
  922MOL0     O27099   8.543  11.451   9.827  0.0281 -0.2657 -0.0512
  922MOL0     C27100   8.610  11.546   9.787  0.7619 -0.6318  0.3183
  922MOL0     O27101   8.691  11.629   9.868 -0.0146  0.3475 -0.7772
  922MOL0     C27102   8.670  11.625  10.003 -0.3597  0.6443 -0.1288
  922MOL0     C27103   8.683  11.507  10.080 -0.1942  0.0710 -0.0939
  922MOL0     C27104   8.646  11.506  10.223 -0.1653  0.6156  0.3554
  922MOL0     C27105   8.582  11.619  10.271  1.0177  0.3740 -0.2083
  922MOL0     O27106   8.537  11.623  10.405 -0.6676 -0.6178  0.4045
  922MOL0     C27107   8.648  11.627  10.496  0.4723  0.5265 -0.1567
  922MOL0     C27108   8.725  11.760  10.497  0.0188  0.1579 -0.5391
  922MOL0     C27109   8.661  11.891  10.531  0.4535  0.1408  1.6224
  922MOL0     C27110   8.763  11.996  10.578 -0.2966 -0.5386 -0.4110
  922MOL0     C27111   8.859  12.058  10.471  0.8992  0.8163 -0.6231
  922MOL0     C27112   8.890  12.204  10.504  0.0750 -0.8497  0.3005
  922MOL0     C27113   8.920  12.241  10.651  0.9285 -0.0431  0.0181
  922MOL0     C27114   9.002  12.371  10.661 -0.1678 -0.0843 -0.4085
  922MOL0     N27115   9.006  12.403  10.807  0.4698  0.4863  0.5833
  922MOL0     C27116   9.092  12.353  10.893 -1.4854 -0.1602 -1.0069
  922MOL0     C27117   9.052  12.385  11.022  0.0748  0.1894 -0.8469
  922MOL0     C27118   9.119  12.372  11.160  0.2875 -0.2250  0.1687
  922MOL0     C27119   9.130  12.229  11.214  0.2092  0.0723  0.0355
  922MOL0     C27120   9.195  12.195  11.350 -0.3462  0.4511  0.2339
  922MOL0     C27121   9.344  12.205  11.347 -0.8814 -0.7715  0.8897
  922MOL0     O27122   9.375  12.341  11.316 -0.3162 -0.1872 -0.0575
  922MOL0     C27123   9.507  12.369  11.317  0.1981  0.2800 -0.0544
  922MOL0     C27124   9.611  12.298  11.372 -0.1181  0.1535 -0.1951
  922MOL0     C27125   9.743  12.344  11.366  0.3605  1.3793  0.8738
  922MOL0     C27126   9.843  12.250  11.429  0.2122 -0.2144  0.3071
  922MOL0     C27127   9.774  12.464  11.304  0.5063 -0.6134  0.3045
  922MOL0     C27128   9.912  12.522  11.299  0.3147 -0.6254  0.4173
  922MOL0     O27129   9.937  12.621  11.203  0.7801  0.6539  0.8504
  922MOL0     C27130  10.045  12.695  11.223 -0.0437 -1.1998  0.5851
  922MOL0     C27131  10.070  12.765  11.342 -0.2075  0.5378 -0.0441
  922MOL0     C27132  10.193  12.822  11.363  0.1155  0.2895 -0.2411
  922MOL0     C27133  10.291  12.816  11.255 -0.0944  0.5125  0.3930
  922MOL0     O27134  10.415  12.873  11.246  0.4098  0.4343  0.2431
  922MOL0     C27135  10.461  12.931  11.365 -0.3314 -0.6464  0.9257
  922MOL0     C27136  10.599  13.000  11.350  0.6659  0.1268  0.4127
  922MOL0     C27137  10.718  12.904  11.389  0.3402 -0.1950 -0.3092
  922MOL0     C27138  10.860  12.963  11.402 -1.7116 -0.0482  0.5837
  922MOL0     C27139  10.960  12.892  11.494  0.1172 -0.5217 -0.4312
  922MOL0     C27140  11.109  12.948  11.471 -0.6615  0.0693 -0.2071
  922MOL0     C27141  11.210  12.887  11.570 -0.5770  0.2265  0.2046
  922MOL0     C27142  11.301  12.992  11.627  0.5903  0.1533 -0.3985
  922MOL0    Cl27143  11.424  12.933  11.737 -0.7258  0.1775 -0.0361
  922MOL0     C27144  10.265  12.752  11.132 -0.1446  0.5467 -0.2540
  922MOL0     C27145  10.143  12.691  11.126  0.4167 -1.6776  0.3486
  922MOL0     O27146   9.999  12.480  11.380  0.5289  0.4782  0.4211
  922MOL0     C27147   9.669  12.541  11.254  0.1100  0.1686  1.2886
  922MOL0     C27148   9.534  12.495  11.256 -0.3413  0.8116 -0.5081
  922MOL0     N27149   8.945  12.469  11.007  0.3483 -0.2343 -0.0148
  922MOL0     N27150   8.916  12.472  10.879  0.4315  0.1930 -0.4613
  922MOL0     C27151   8.571  11.736  10.194  0.6150 -0.3332 -0.4779
  922MOL0     C27152   8.617  11.736  10.062  0.9411 -0.0303 -0.5823
  922MOL0     C27153   8.612  11.580   9.646  0.2330  0.2797 -0.5452
  922MOL0     C27154   8.740  11.613   9.597 -0.1906 -0.3283  0.1634
  922MOL0     C27155   8.749  11.639   9.462  0.0906  0.2745  0.6313
  922MOL0     C27156   8.643  11.632   9.377  1.1218  0.1983 -0.6877
  922MOL0     O27157   8.671  11.653   9.242  0.7436 -0.7525 -0.0416
  922MOL0     C27158   8.561  11.637   9.151  0.0779 -0.2313 -0.3464
  922MOL0     C27159   8.597  11.665   9.005  0.2706  0.0861 -0.3846
  922MOL0     C27160   8.711  11.764   8.997  0.0136 -0.2649 -0.2224
  922MOL0     C27161   8.729  11.812   8.850  0.2821  1.2308 -0.6274
  922MOL0     C27162   8.848  11.906   8.842  0.7536 -0.2766  1.1163
  922MOL0     C27163   8.948  11.964   8.809 -0.2281  1.0707 -0.6996
  922MOL0     C27164   8.518  11.592   9.424 -0.0488 -0.9698 -0.7512
  922MOL0     C27165   8.500  11.569   9.559  0.4328  0.1876  0.1732
  922MOL0     C27166   8.357  11.545   9.609 -0.0505  0.8789  0.1781
  922MOL0     H27167   8.727  11.420  10.031 -0.7337  0.0165 -0.4938
  922MOL0     H27168   8.643  11.421  10.291 -0.5967  0.3968  0.0687
  922MOL0     H27169   8.718  11.545  10.478 -1.9350 -1.0812 -3.1592
  922MOL0     H27170   8.611  11.621  10.599  0.2700 -1.5497 -0.3125
  922MOL0     H27171   8.806  11.754  10.570 -2.5664  3.8433  3.0909
  922MOL0     H27172   8.759  11.765  10.393  1.0814 -0.5258 -0.2444
  922MOL0     H27173   8.606  11.930  10.445  3.0730  0.9852  0.2060
  922MOL0     H27174   8.577  11.880  10.599 -0.0898  2.5438  1.4232
  922MOL0     H27175   8.713  12.076  10.634 -2.2608 -0.4607 -2.1628
  922MOL0     H27176   8.823  11.947  10.655 -0.7364  2.7393  2.2098
  922MOL0     H27177   8.810  12.041  10.374 -0.1997 -1.2156  0.2323
  922MOL0     H27178   8.955  12.005  10.468 -0.6798 -2.6441  2.2965
  922MOL0     H27179   8.979  12.238  10.450 -1.6455  0.1368 -2.0910
  922MOL0     H27180   8.810  12.270  10.470  0.1558 -1.3706 -0.9628
  922MOL0     H27181   8.974  12.156  10.692  0.6853 -1.0921 -1.7137
  922MOL0     H27182   8.824  12.266  10.696  0.9994  3.1754 -1.3300
  922MOL0     H27183   9.100  12.347  10.620 -0.4846 -2.4427  0.0230
  922MOL0     H27184   8.960  12.457  10.607 -2.1972 -1.1928 -0.7276
  922MOL0     H27185   9.183  12.301  10.865  0.2146  1.9701  0.2351
  922MOL0     H27186   9.073  12.448  11.224  0.2323  1.2753 -1.5851
  922MOL0     H27187   9.220  12.399  11.128 -0.2412  0.8227 -0.6707
  922MOL0     H27188   9.033  12.179  11.219  0.8042 -0.9897  1.6792
  922MOL0     H27189   9.184  12.172  11.138 -0.5179  0.5156 -0.8369
  922MOL0     H27190   9.155  12.264  11.426 -0.9387 -0.3557  0.6649
  922MOL0     H27191   9.163  12.094  11.376  0.4169 -0.2047 -1.2532
  922MOL0     H27192   9.377  12.183  11.448 -0.1368  0.7320  1.0070
  922MOL0     H27193   9.388  12.136  11.275 -0.9644  1.2052 -1.2062
  922MOL0     H27194   9.591  12.217  11.441 -0.3030  0.4251  0.0765
  922MOL0     H27195   9.879  12.287  11.526  0.6763 -3.0630  1.3266
  922MOL0     H27196   9.936  12.239  11.373 -0.4255 -1.4715 -0.5456
  922MOL0     H27197   9.806  12.148  11.446  1.9209 -1.7765 -4.0826
  922MOL0     H27198   9.989  12.763  11.414 -0.4330 -1.6629 -0.2858
  922MOL0     H27199  10.213  12.872  11.456  3.6990  2.5053 -1.9871
  922MOL0     H27200  10.391  13.009  11.393  1.4185  2.0286 -1.5483
  922MOL0     H27201  10.471  12.847  11.434 -2.8776 -0.1039  2.0272
  922MOL0     H27202  10.601  13.020  11.242 -1.9914 -1.2903  0.0048
  922MOL0     H27203  10.612  13.089  11.411 -1.6523  0.0388  1.1538
  922MOL0     H27204  10.711  12.820  11.319 -0.6390  0.0226 -0.4905
  922MOL0     H27205  10.698  12.858  11.486  3.0530 -0.5880  0.1505
  922MOL0     H27206  10.856  13.068  11.430 -3.2000 -0.1216  0.7237
  922MOL0     H27207  10.899  12.958  11.299  0.4221 -1.5944  1.3923
  922MOL0     H27208  10.928  12.910  11.597  4.0577  3.0168  0.4610
  922MOL0     H27209  10.970  12.784  11.475  1.6973 -0.3310 -0.8474
  922MOL0     H27210  11.114  13.057  11.462 -2.5251  0.1177 -1.2695
  922MOL0     H27211  11.143  12.914  11.373 -0.9741  0.0663 -0.3183
  922MOL0     H27212  11.270  12.812  11.519  2.9043  1.6693  1.8740
  922MOL0     H27213  11.160  12.834  11.653 -0.6003 -1.7986 -1.0287
  922MOL0     H27214  11.238  13.056  11.689 -0.1913 -0.1480 -0.8629
  922MOL0     H27215  11.347  13.062  11.556 -0.4152  0.8107 -0.4190
  922MOL0     H27216  10.333  12.756  11.048  0.0405 -0.9929 -0.1968
  922MOL0     H27217  10.120  12.656  11.025  0.4792  2.2004 -1.1738
  922MOL0     H27218   9.681  12.640  11.209  1.5120 -0.9610 -1.0814
  922MOL0     H27219   9.454  12.559  11.221  0.3584  1.3932 -1.0672
  922MOL0     H27220   8.510  11.813  10.240  0.8246 -0.6894  0.4193
  922MOL0     H27221   8.616  11.813   9.985 -1.2696 -2.6296 -3.4001
  922MOL0     H27222   8.817  11.631   9.671  0.0782 -3.0115  0.6267
  922MOL0     H27223   8.839  11.684   9.420  0.4179 -0.0097  1.0236
  922MOL0     H27224   8.503  11.544   9.148  0.0483 -0.2088 -0.4716
  922MOL0     H27225   8.491  11.719   9.169  2.5873  1.6474  1.4574
  922MOL0     H27226   8.512  11.706   8.951 -0.8192 -1.0673  0.4064
  922MOL0     H27227   8.636  11.580   8.948 -0.0713 -0.5920  0.3749
  922MOL0     H27228   8.692  11.848   9.064  0.8778 -0.4578  0.2855
  922MOL0     H27229   8.799  11.704   9.023 -0.3341 -0.0945  1.4936
  922MOL0     H27230   8.648  11.864   8.798 -0.0558 -0.8308 -2.2889
  922MOL0     H27231   8.741  11.720   8.793 -2.1196 -0.2472  1.1202
  922MOL0     H27232   9.039  12.011   8.777  0.6924  0.4681  0.9325
  922MOL0     H27233   8.427  11.586   9.367 -1.1976 -4.6558  1.1801
  922MOL0     H27234   8.345  11.437   9.595  2.2983  0.2933  1.9218
  922MOL0     H27235   8.353  11.565   9.717  2.2699 -0.2775  0.5464
  922MOL0     H27236   8.289  11.610   9.554 -0.8985 -0.7997 -0.8429
  923MOL0     O27237   1.045   2.795   1.476  0.6538 -0.2567 -0.5555
  923MOL0     C27238   1.046   2.798   1.351 -0.2692 -0.8125 -0.1513
  923MOL0     O27239   1.152   2.800   1.275 -0.2070 -0.6221  0.1641
  923MOL0     C27240   1.273   2.843   1.337  0.3487 -0.6972 -0.3501
  923MOL0     C27241   1.280   2.958   1.417 -0.4285  0.1554 -0.9740
  923MOL0     C27242   1.404   3.007   1.465 -0.0840 -0.5142 -0.6023
  923MOL0     C27243   1.520   2.936   1.440  0.1274 -0.1785 -0.3288
  923MOL0     O27244   1.629   2.990   1.500 -0.0917  0.6617  0.3738
  923MOL0     C27245   1.766   2.937   1.473  0.0735 -0.0618  0.3079
  923MOL0     C27246   1.824   2.981   1.336  0.0926  0.8289 -0.5521
  923MOL0     C27247   1.971   2.941   1.320  0.1139 -0.3783 -0.3399
  923MOL0     C27248   1.999   2.789   1.348  0.6910  0.1522  0.2350
  923MOL0     C27249   1.927   2.697   1.257  0.2574 -0.8226 -0.2597
  923MOL0     C27250   1.956   2.546   1.270 -0.3488  0.4518 -0.1421
  923MOL0     C27251   1.882   2.473   1.161  0.3934  0.0966  0.2495
  923MOL0     C27252   1.916   2.328   1.169 -0.0163  0.1202 -0.5388
  923MOL0     N27253   2.053   2.292   1.118  0.7329 -0.2761 -1.2097
  923MOL0     C27254   2.100   2.311   0.991 -0.1838  0.0577  0.2854
  923MOL0     C27255   2.237   2.304   1.013 -0.4739 -0.6053  0.1008
  923MOL0     C27256   2.343   2.334   0.918 -0.4613  0.0320  0.4179
  923MOL0     C27257   2.355   2.225   0.809 -0.4606 -0.5358  1.2069
  923MOL0     C27258   2.376   2.073   0.857 -0.4682  0.9100 -0.4679
  923MOL0     C27259   2.466   2.054   0.983 -0.3196 -0.1218 -0.1459
  923MOL0     O27260   2.591   2.122   0.983  0.6357  0.4882 -0.8287
  923MOL0     C27261   2.694   2.079   0.912 -0.1385  0.4033 -0.6397
  923MOL0     C27262   2.825   2.145   0.915  0.1087 -0.5591 -1.0081
  923MOL0     C27263   2.928   2.115   0.825  0.7359 -0.1199 -0.3553
  923MOL0     C27264   3.057   2.196   0.837 -0.2873 -0.1218 -1.2213
  923MOL0     C27265   2.907   2.015   0.726 -0.1276 -0.5652  0.0769
  923MOL0     C27266   3.008   1.984   0.623  0.7833 -0.0284  0.2124
  923MOL0     O27267   3.000   1.850   0.576  0.3682  0.0402 -0.3063
  923MOL0     C27268   3.094   1.823   0.484 -0.7325 -0.5307 -0.0290
  923MOL0     C27269   3.226   1.793   0.532 -0.3873  0.2117  0.8597
  923MOL0     C27270   3.325   1.756   0.441  0.7275 -0.6061 -0.0029
  923MOL0     C27271   3.292   1.740   0.305 -0.5854 -0.7566 -0.0469
  923MOL0     O27272   3.376   1.708   0.196  0.3493  0.3220 -0.5458
  923MOL0     C27273   3.514   1.720   0.221 -0.2338 -0.1637 -0.1475
  923MOL0     C27274   3.589   1.637   0.119  0.2387 -0.3893 -0.6409
  923MOL0     C27275   3.672   1.717   0.015  0.6336 -0.0702 -0.7747
  923MOL0     C27276   3.735   1.620  -0.082 -0.2773  0.0032  0.2645
  923MOL0     C27277   3.833   1.685  -0.177 -0.4990 -0.0401  0.1319
  923MOL0     C27278   3.773   1.771  -0.292  0.9995 -0.4465 -0.2724
  923MOL0     C27279   3.870   1.854  -0.375  0.2388  0.1811 -0.5154
  923MOL0     C27280   3.973   1.760  -0.449  0.5954  0.3923  0.3201
  923MOL0    Cl27281   3.894   1.626  -0.548  0.2722  0.1759  0.0332
  923MOL0     C27282   3.156   1.767   0.269 -1.1365 -0.4594  0.0873
  923MOL0     C27283   3.059   1.801   0.358 -0.3157 -0.4889 -0.4858
  923MOL0     O27284   3.079   2.071   0.571  0.3703  0.3984 -0.2757
  923MOL0     C27285   2.788   1.930   0.739  0.1763 -0.7021 -0.4990
  923MOL0     C27286   2.683   1.971   0.827  0.4489 -0.1592 -0.0847
  923MOL0     N27287   2.267   2.290   1.152  0.6566 -0.6216 -0.1132
  923MOL0     N27288   2.153   2.279   1.212 -0.2284 -0.1099 -0.7032
  923MOL0     C27289   1.517   2.821   1.360  0.6594 -0.2088 -0.6416
  923MOL0     C27290   1.391   2.777   1.305 -0.3106  0.1286  0.4907
  923MOL0     C27291   0.907   2.783   1.282  0.5953  0.1913 -0.4738
  923MOL0     C27292   0.806   2.746   1.371  0.5349  0.4573 -0.3248
  923MOL0     C27293   0.676   2.745   1.336 -0.0617  0.3433  0.4344
  923MOL0     C27294   0.635   2.768   1.204  0.1228 -0.7694  0.1934
  923MOL0     O27295   0.514   2.774   1.146  0.2756  0.1161  0.0533
  923MOL0     C27296   0.393   2.764   1.225  0.6161  0.2121  0.6724
  923MOL0     C27297   0.356   2.623   1.244 -0.8159 -0.2950 -0.3043
  923MOL0     C27298   0.227   2.602   1.331 -0.5487 -0.3009  0.3044
  923MOL0     C27299   0.260   2.607   1.477  1.1002  0.4591 -0.5611
  923MOL0     C27300   0.142   2.608   1.566  0.8026  0.1353 -0.6325
  923MOL0     C27301   0.039   2.613   1.633 -0.3312  0.9971 -0.0517
  923MOL0     C27302   0.739   2.795   1.111  0.3224 -0.4273 -0.2090
  923MOL0     C27303   0.875   2.803   1.150  0.2273  0.7646  0.5951
  923MOL0     C27304   0.985   2.842   1.049 -0.1424 -0.4425  0.0769
  923MOL0     H27305   1.187   3.008   1.442 -0.7989 -1.1198  0.3363
  923MOL0     H27306   1.404   3.106   1.509 -0.3244  0.0218 -1.7727
  923MOL0     H27307   1.776   2.829   1.491 -3.2184 -0.6462 -0.7778
  923MOL0     H27308   1.843   2.992   1.528  0.6578  2.4099 -2.7347
  923MOL0     H27309   1.757   2.930   1.265 -1.3789  0.0667  1.2811
  923MOL0     H27310   1.817   3.089   1.324  0.0476  1.2969  2.6457
  923MOL0     H27311   1.991   2.964   1.215 -2.8280 -3.8757 -1.9038
  923MOL0     H27312   2.034   2.995   1.391 -1.0345 -3.1075  3.0004
  923MOL0     H27313   2.106   2.766   1.338  1.4463  0.8923  4.5414
  923MOL0     H27314   1.968   2.758   1.448 -0.8930 -2.1856 -0.9089
  923MOL0     H27315   1.961   2.732   1.158  2.2874  1.3904  1.1027
  923MOL0     H27316   1.818   2.707   1.259  0.2538 -0.8900 -0.1118
  923MOL0     H27317   2.063   2.530   1.254 -0.7454 -2.5904 -0.3453
  923MOL0     H27318   1.927   2.517   1.371  1.1134 -0.5103  0.0196
  923MOL0     H27319   1.910   2.522   1.067 -1.5305  1.3793  0.2927
  923MOL0     H27320   1.778   2.503   1.169  1.0512  2.3268  1.0717
  923MOL0     H27321   1.914   2.295   1.273  0.2394  1.5771 -0.0435
  923MOL0     H27322   1.841   2.264   1.122 -0.4718  0.2750 -0.0362
  923MOL0     H27323   2.035   2.338   0.908 -0.7287  2.2054  1.3399
  923MOL0     H27324   2.439   2.342   0.971  0.3086  1.4774 -1.1275
  923MOL0     H27325   2.329   2.433   0.876  2.6346  0.4974  0.2471
  923MOL0     H27326   2.272   2.224   0.738  0.8083 -1.7540 -0.3238
  923MOL0     H27327   2.440   2.244   0.742 -0.5530  0.6983  1.4117
  923MOL0     H27328   2.277   2.031   0.873 -0.2696  0.0553 -1.3721
  923MOL0     H27329   2.412   2.005   0.779 -1.2290  0.3345 -0.3222
  923MOL0     H27330   2.408   2.095   1.067 -0.2551  0.8629 -0.5766
  923MOL0     H27331   2.497   1.949   0.994 -0.7472 -0.2827 -0.4702
  923MOL0     H27332   2.843   2.223   0.989  3.2847  0.3801 -2.5660
  923MOL0     H27333   3.146   2.136   0.816  0.8236  1.3371 -0.8556
  923MOL0     H27334   3.058   2.234   0.940 -1.0554  0.7925 -1.5381
  923MOL0     H27335   3.037   2.279   0.768  0.3784 -0.1610 -1.4619
  923MOL0     H27336   3.253   1.797   0.637  0.6319 -2.8309  0.8331
  923MOL0     H27337   3.427   1.743   0.478  0.2773 -3.3172  0.4632
  923MOL0     H27338   3.548   1.824   0.224  1.9266 -0.8221 -0.4092
  923MOL0     H27339   3.520   1.675   0.321  2.9687  0.6375  0.1453
  923MOL0     H27340   3.667   1.585   0.177  1.4081  3.5087  1.6402
  923MOL0     H27341   3.524   1.573   0.058  2.2298 -1.1672 -2.0447
  923MOL0     H27342   3.739   1.786   0.068 -0.5975  1.8980 -1.6291
  923MOL0     H27343   3.611   1.793  -0.035  0.3952 -0.4121 -1.0063
  923MOL0     H27344   3.663   1.570  -0.147  0.2720  2.0930 -2.0855
  923MOL0     H27345   3.798   1.559  -0.016  0.7443  2.5564  1.7871
  923MOL0     H27346   3.898   1.757  -0.125 -1.0700  2.1777 -2.0283
  923MOL0     H27347   3.890   1.606  -0.226  1.1302  2.6828 -2.7887
  923MOL0     H27348   3.710   1.854  -0.259  1.7176  1.4759 -3.3443
  923MOL0     H27349   3.715   1.715  -0.366 -0.7727  1.3652 -0.3517
  923MOL0     H27350   3.925   1.928  -0.316  0.3401 -0.1775 -0.1539
  923MOL0     H27351   3.813   1.900  -0.456  0.6197 -1.4204 -1.7335
  923MOL0     H27352   4.051   1.731  -0.379 -1.6864 -3.9423  1.4516
  923MOL0     H27353   4.016   1.829  -0.523 -0.9492  0.2912 -0.7219
  923MOL0     H27354   3.135   1.761   0.163  1.5879 -3.1637 -0.4249
  923MOL0     H27355   2.959   1.818   0.320  0.1502  0.7624 -1.2189
  923MOL0     H27356   2.766   1.835   0.691 -1.2676 -1.1570  0.9726
  923MOL0     H27357   2.607   1.893   0.826  0.1856 -0.0154  2.2499
  923MOL0     H27358   1.614   2.776   1.343  0.9773  0.1960  0.0529
  923MOL0     H27359   1.396   2.689   1.242  0.2009 -0.3746  1.2202
  923MOL0     H27360   0.812   2.716   1.474 -1.8467 -0.4486 -0.3721
  923MOL0     H27361   0.607   2.727   1.418  2.5121  0.7231  2.8187
  923MOL0     H27362   0.417   2.804   1.324  3.1305  0.3852  0.0475
  923MOL0     H27363   0.322   2.821   1.164  0.6137  1.0827  1.4590
  923MOL0     H27364   0.445   2.581   1.292  1.0954  0.0525 -3.2541
  923MOL0     H27365   0.348   2.568   1.149  2.2699 -0.3003 -0.6593
  923MOL0     H27366   0.163   2.687   1.307  1.5205  0.9645 -1.0241
  923MOL0     H27367   0.184   2.504   1.306 -0.4563 -0.6349  1.3996
  923MOL0     H27368   0.318   2.696   1.500  2.2963 -0.8101  1.7073
  923MOL0     H27369   0.321   2.518   1.497  0.7990  0.5562  0.9356
  923MOL0     H27370  -0.058   2.610   1.677 -0.3092 -0.2198 -0.0702
  923MOL0     H27371   0.708   2.820   1.010  1.6222  2.6790  0.0411
  923MOL0     H27372   1.020   2.944   1.066 -1.0729  0.6276 -3.5075
  923MOL0     H27373   1.067   2.771   1.064 -1.6787 -1.8581  2.3949
  923MOL0     H27374   0.951   2.824   0.946 -0.9892 -0.4672  0.3577
  924MOL0     O27375   1.564  10.869   8.736 -0.2574  0.5828 -0.0192
  924MOL0     C27376   1.548  10.968   8.666 -0.4116 -0.9787 -0.1347
  924MOL0     O27377   1.622  10.998   8.550 -1.1080  0.0550  1.1109
  924MOL0     C27378   1.725  10.923   8.502  0.3691  0.6117 -0.0697
  924MOL0     C27379   1.743  10.908   8.365 -0.2309  0.2204  0.2562
  924MOL0     C27380   1.832  10.814   8.309 -0.1697  0.3011  0.2970
  924MOL0     C27381   1.929  10.753   8.399  0.2609 -0.2886 -0.0737
  924MOL0     O27382   2.021  10.657   8.353  0.4269 -0.3156  0.1580
  924MOL0     C27383   2.005  10.591   8.229  0.2622  0.5884  0.7553
  924MOL0     C27384   2.105  10.477   8.202 -0.6594 -0.0230 -0.1247
  924MOL0     C27385   2.246  10.532   8.238  0.2803  0.6321  0.0188
  924MOL0     C27386   2.344  10.412   8.224  0.4290  0.3644  0.1050
  924MOL0     C27387   2.475  10.461   8.287  0.2690  0.5812 -0.2469
  924MOL0     C27388   2.597  10.365   8.300 -0.8041 -0.3612 -0.2774
  924MOL0     C27389   2.710  10.430   8.390 -0.1260 -0.4257 -0.7152
  924MOL0     C27390   2.839  10.356   8.362 -0.2309  0.1674  0.3462
  924MOL0     N27391   2.955  10.408   8.443 -0.0703 -0.1979 -0.3923
  924MOL0     C27392   3.053  10.499   8.409 -0.5366  0.6425  0.0298
  924MOL0     C27393   3.143  10.502   8.508  0.5767  0.0307 -0.7816
  924MOL0     C27394   3.264  10.584   8.526  0.7203  0.2243  0.9794
  924MOL0     C27395   3.388  10.513   8.462  0.6828 -0.0572  0.9139
  924MOL0     C27396   3.523  10.574   8.482 -0.1846  0.0127  0.8601
  924MOL0     C27397   3.637  10.502   8.397 -0.0534  0.6381  0.5495
  924MOL0     O27398   3.659  10.577   8.278  0.1982 -0.0842  0.1126
  924MOL0     C27399   3.745  10.534   8.169  0.7837 -0.0535 -0.2337
  924MOL0     C27400   3.729  10.590   8.042  0.4850 -0.4589 -0.5349
  924MOL0     C27401   3.808  10.557   7.934 -0.0931 -0.0045  0.0896
  924MOL0     C27402   3.775  10.643   7.815  0.4057  0.0110 -0.4072
  924MOL0     C27403   3.908  10.460   7.956  0.2244 -1.0957  0.9927
  924MOL0     C27404   4.017  10.426   7.858 -0.5242 -0.2884 -0.0272
  924MOL0     O27405   4.080  10.311   7.874  0.0840 -0.0029 -0.0229
  924MOL0     C27406   4.142  10.246   7.770 -0.6159  0.5133  0.3316
  924MOL0     C27407   4.073  10.147   7.693 -0.4388 -1.0557 -0.0904
  924MOL0     C27408   4.117  10.089   7.578  0.8233 -0.4512 -0.3605
  924MOL0     C27409   4.261  10.109   7.538  0.3664 -0.1417 -0.3499
  924MOL0     O27410   4.306  10.058   7.416  0.0158 -0.2839  0.0151
  924MOL0     C27411   4.422  10.128   7.357 -1.2235 -0.3396  0.0643
  924MOL0     C27412   4.436  10.106   7.212  0.3484  0.5133 -0.0435
  924MOL0     C27413   4.565  10.164   7.156  0.6244 -0.5950  0.1215
  924MOL0     C27414   4.691  10.092   7.186 -0.0009 -0.0728 -0.5666
  924MOL0     C27415   4.831  10.147   7.139  0.4056 -0.5333  0.0450
  924MOL0     C27416   4.824  10.211   7.001 -0.3517 -1.3305  0.7940
  924MOL0     C27417   4.956  10.287   6.985  0.3161 -0.0168  0.3372
  924MOL0     C27418   4.986  10.323   6.845  0.0290  0.1351 -0.4772
  924MOL0    Cl27419   5.122  10.431   6.846  0.4833  0.0020  0.2136
  924MOL0     C27420   4.319  10.217   7.611  0.4893 -0.2185  0.6475
  924MOL0     C27421   4.272  10.276   7.731 -0.0194  1.3762 -0.4404
  924MOL0     O27422   4.040  10.507   7.764 -0.4882 -0.2304  0.2156
  924MOL0     C27423   3.922  10.397   8.081 -0.9406 -0.3843  0.8836
  924MOL0     C27424   3.838  10.429   8.189 -0.1924 -0.9450  0.1915
  924MOL0     N27425   3.099  10.406   8.596  0.4758 -0.7733 -1.0356
  924MOL0     N27426   2.990  10.347   8.554  0.3258 -0.4746  0.1992
  924MOL0     C27427   1.921  10.788   8.537 -0.2343  0.4656 -0.2150
  924MOL0     C27428   1.821  10.873   8.585 -0.4681 -0.2978 -0.0988
  924MOL0     C27429   1.477  11.086   8.711  0.2928  1.4295  0.0620
  924MOL0     C27430   1.537  11.163   8.803  0.1509 -0.1592 -0.0458
  924MOL0     C27431   1.475  11.282   8.849 -0.1700  0.1436  0.5195
  924MOL0     C27432   1.343  11.312   8.815  1.2680  0.1564  1.0043
  924MOL0     O27433   1.295  11.430   8.865 -0.0560  0.6232 -0.1278
  924MOL0     C27434   1.156  11.454   8.825 -0.3847 -0.6751 -0.0692
  924MOL0     C27435   1.165  11.510   8.682 -0.0857  0.3363 -0.5128
  924MOL0     C27436   1.288  11.593   8.641  0.7568  0.6873  0.1593
  924MOL0     C27437   1.248  11.684   8.527  0.9215 -0.2270 -0.3895
  924MOL0     C27438   1.368  11.764   8.508 -0.3910 -0.0158 -0.3655
  924MOL0     C27439   1.478  11.814   8.474 -0.8259  0.0300 -0.2505
  924MOL0     C27440   1.281  11.217   8.731  0.6157 -0.7674 -0.6126
  924MOL0     C27441   1.340  11.107   8.678  0.3115  0.4397 -0.6349
  924MOL0     C27442   1.272  11.031   8.570  0.2620  0.4333 -0.3649
  924MOL0     H27443   1.669  10.950   8.297 -0.2069 -4.7662 -3.3729
  924MOL0     H27444   1.831  10.797   8.202 -0.0594 -1.4179  0.5485
  924MOL0     H27445   2.016  10.661   8.145 -2.0602  0.5451  0.3326
  924MOL0     H27446   1.906  10.544   8.223 -1.1592  3.3365  0.7288
  924MOL0     H27447   2.074  10.395   8.268  0.7226  2.1089  3.4620
  924MOL0     H27448   2.100  10.431   8.103 -1.0107 -4.0187  1.5629
  924MOL0     H27449   2.272  10.618   8.175 -4.0338  0.6093 -2.1929
  924MOL0     H27450   2.240  10.571   8.340 -1.2382  1.4015 -0.3342
  924MOL0     H27451   2.305  10.330   8.285  1.4136  2.0646  3.2115
  924MOL0     H27452   2.361  10.386   8.119  0.3453  2.7260 -0.5567
  924MOL0     H27453   2.463  10.496   8.390  1.5065  1.8201 -0.5054
  924MOL0     H27454   2.504  10.550   8.230  0.2436  1.5634  1.2257
  924MOL0     H27455   2.553  10.276   8.347  0.6981 -1.0638 -0.1346
  924MOL0     H27456   2.625  10.343   8.197 -0.0936  0.5543 -0.2925
  924MOL0     H27457   2.678  10.440   8.494 -1.8241  0.6352 -1.3053
  924MOL0     H27458   2.722  10.534   8.358  0.0045 -1.5031 -4.6564
  924MOL0     H27459   2.829  10.247   8.368 -2.2701  0.3634  1.3299
  924MOL0     H27460   2.879  10.384   8.264  2.6173  2.6419  2.0632
  924MOL0     H27461   3.071  10.551   8.315  2.3783  3.0597  1.7344
  924MOL0     H27462   3.272  10.582   8.635 -3.7009  0.5546  1.4865
  924MOL0     H27463   3.266  10.689   8.497  1.3487  0.5194  2.0143
  924MOL0     H27464   3.377  10.411   8.498 -2.3666 -0.1609 -0.0403
  924MOL0     H27465   3.366  10.518   8.355 -0.0382 -1.9734  0.9302
  924MOL0     H27466   3.527  10.682   8.468 -2.0085 -0.0595 -0.5187
  924MOL0     H27467   3.543  10.564   8.589  0.7791 -4.7813  0.4713
  924MOL0     H27468   3.733  10.492   8.449 -0.0739  4.8068  1.7918
  924MOL0     H27469   3.604  10.401   8.373  1.3514  0.2506  0.1682
  924MOL0     H27470   3.651  10.664   8.027  3.1503  2.1464 -2.6443
  924MOL0     H27471   3.668  10.662   7.802 -0.3781 -0.7543  3.5213
  924MOL0     H27472   3.802  10.591   7.723 -0.5656  0.4658 -0.9691
  924MOL0     H27473   3.826  10.739   7.828  0.8352 -0.1125 -1.1219
  924MOL0     H27474   3.971  10.115   7.712 -0.9892  0.5331 -0.2322
  924MOL0     H27475   4.046  10.030   7.521 -1.9628 -0.4606  2.8017
  924MOL0     H27476   4.417  10.234   7.383 -1.4376 -0.8893  2.4956
  924MOL0     H27477   4.509  10.084   7.406 -0.6978  1.0159  0.3921
  924MOL0     H27478   4.432   9.999   7.194  1.6898 -0.0892  2.6807
  924MOL0     H27479   4.349  10.151   7.163 -0.3721  0.7341  1.3648
  924MOL0     H27480   4.589  10.266   7.185  3.2991 -0.6980 -1.3688
  924MOL0     H27481   4.562  10.169   7.046 -0.2224 -0.8472  0.1252
  924MOL0     H27482   4.687   9.988   7.154 -0.4179 -0.2819  0.1366
  924MOL0     H27483   4.708  10.093   7.294 -2.5609  1.7628 -0.0982
  924MOL0     H27484   4.859  10.226   7.210  0.0275 -3.0209  3.2153
  924MOL0     H27485   4.910  10.072   7.132 -3.4328 -4.9160 -1.5500
  924MOL0     H27486   4.750  10.291   7.001 -1.1588 -2.0121  2.5751
  924MOL0     H27487   4.811  10.137   6.922 -0.8854 -0.3301 -0.0741
  924MOL0     H27488   5.038  10.226   7.024  0.6144  2.6786  4.5762
  924MOL0     H27489   4.950  10.383   7.037 -0.8945  1.8524 -2.9085
  924MOL0     H27490   4.906  10.364   6.784  0.3983  1.3532 -0.1689
  924MOL0     H27491   5.021  10.227   6.807 -1.0348 -0.7026  0.5803
  924MOL0     H27492   4.410  10.267   7.579 -1.3279  1.0524 -3.1141
  924MOL0     H27493   4.332  10.355   7.775  1.4751  0.3046 -0.4605
  924MOL0     H27494   4.006  10.333   8.102 -1.7142 -1.6253  0.2763
  924MOL0     H27495   3.862  10.381   8.283 -0.6710  2.0997  1.9694
  924MOL0     H27496   2.007  10.752   8.593 -1.3411 -0.8580  0.7111
  924MOL0     H27497   1.820  10.900   8.690 -1.9989 -1.5123  0.2295
  924MOL0     H27498   1.639  11.140   8.830  1.4011  2.9008 -1.6695
  924MOL0     H27499   1.520  11.351   8.919 -2.1160  2.7366 -0.6503
  924MOL0     H27500   1.085  11.372   8.838  0.0735 -1.3964 -1.7998
  924MOL0     H27501   1.114  11.536   8.884  1.9292 -1.2899  2.6383
  924MOL0     H27502   1.072  11.566   8.670 -0.2975 -0.4491 -3.2796
  924MOL0     H27503   1.149  11.438   8.601  2.8163 -1.9207  0.7058
  924MOL0     H27504   1.319  11.659   8.724 -1.5764  1.8332  0.2017
  924MOL0     H27505   1.364  11.521   8.609  0.3444 -0.8451  2.3704
  924MOL0     H27506   1.165  11.753   8.545  1.4348  1.2067 -3.0748
  924MOL0     H27507   1.213  11.625   8.442 -0.6052 -1.1386  0.8196
  924MOL0     H27508   1.577  11.843   8.446  0.4098 -1.5780  2.1019
  924MOL0     H27509   1.184  11.246   8.692 -0.3523 -1.6384  1.0328
  924MOL0     H27510   1.329  10.945   8.533 -1.8423 -1.5916  0.8443
  924MOL0     H27511   1.185  10.981   8.612 -0.8701  2.6185  0.0553
  924MOL0     H27512   1.228  11.092   8.489  0.9463  1.2128 -0.1657
  925MOL0     O27513   6.846   3.765  10.244  0.8608 -0.3791  0.2673
  925MOL0     C27514   6.811   3.869  10.186 -0.9488 -0.3230  0.3414
  925MOL0     O27515   6.834   3.994  10.226  0.2749 -0.3120 -0.2068
  925MOL0     C27516   6.948   4.031  10.300  0.6133 -0.2550 -0.5080
  925MOL0     C27517   6.984   3.966  10.413 -0.3289  0.4549 -0.1463
  925MOL0     C27518   7.103   3.992  10.476 -0.3189 -0.3137 -0.6243
  925MOL0     C27519   7.187   4.095  10.430  0.4681  0.4092 -1.0335
  925MOL0     O27520   7.314   4.109  10.480  0.2661 -0.5010 -0.1797
  925MOL0     C27521   7.420   4.014  10.492 -0.2024 -0.4946 -0.0980
  925MOL0     C27522   7.545   4.084  10.555  0.0124 -0.6813  0.1233
  925MOL0     C27523   7.583   4.202  10.464 -0.2965 -0.4252 -0.1323
  925MOL0     C27524   7.722   4.258  10.498 -0.3780 -0.0084  0.1365
  925MOL0     C27525   7.742   4.396  10.436 -0.4859  0.3489 -0.1051
  925MOL0     C27526   7.627   4.503  10.468 -0.2448  0.3633 -0.0665
  925MOL0     C27527   7.668   4.640  10.410 -0.6374  0.2087 -0.5533
  925MOL0     C27528   7.818   4.693  10.449  0.8657  0.5623  0.5723
  925MOL0     N27529   7.838   4.682  10.592  0.1784  0.0848 -0.3508
  925MOL0     C27530   7.925   4.603  10.664 -0.5451  0.4964 -0.0922
  925MOL0     C27531   7.905   4.623  10.791 -0.0993  0.0475 -0.1192
  925MOL0     C27532   7.965   4.533  10.903 -0.2608  0.3002 -0.4749
  925MOL0     C27533   8.117   4.563  10.926  0.8144  0.3808 -0.8143
  925MOL0     C27534   8.183   4.472  11.035  0.2146  0.7074  0.4911
  925MOL0     C27535   8.322   4.484  11.048 -0.3030  0.0096 -0.3571
  925MOL0     O27536   8.373   4.616  11.065  0.2665  0.7464 -0.5583
  925MOL0     C27537   8.475   4.642  10.979 -0.1802 -1.0248  1.1636
  925MOL0     C27538   8.472   4.742  10.883 -0.2447  0.0895 -0.4079
  925MOL0     C27539   8.586   4.783  10.806  0.7329  0.3440  0.5279
  925MOL0     C27540   8.568   4.898  10.708  0.0728  0.1611 -0.4144
  925MOL0     C27541   8.709   4.715  10.816  0.5144 -0.6315  0.6114
  925MOL0     C27542   8.828   4.734  10.723 -0.1313 -0.1678  0.3357
  925MOL0     O27543   8.896   4.615  10.695  0.4317 -0.2646 -0.4044
  925MOL0     C27544   9.010   4.624  10.621 -0.0283 -0.2976 -0.7736
  925MOL0     C27545   9.127   4.673  10.675 -0.9526  0.8116  0.3385
  925MOL0     C27546   9.249   4.659  10.600  0.0220  0.2440 -0.5128
  925MOL0     C27547   9.237   4.613  10.473 -0.8229 -0.2819  0.6750
  925MOL0     O27548   9.362   4.590  10.408  0.9438  0.0948  0.7111
  925MOL0     C27549   9.370   4.560  10.265  0.0557 -0.9921 -0.0092
  925MOL0     C27550   9.517   4.573  10.225 -0.2084 -0.8477  0.4888
  925MOL0     C27551   9.587   4.442  10.251 -0.4738 -0.2409  0.7878
  925MOL0     C27552   9.738   4.460  10.228 -0.1530  0.0474  0.7574
  925MOL0     C27553   9.797   4.319  10.239  0.5810 -0.1628 -0.2528
  925MOL0     C27554   9.943   4.312  10.207  0.6961  0.1180  0.4575
  925MOL0     C27555  10.003   4.170  10.236 -0.3180  0.5621  0.0044
  925MOL0     C27556   9.973   4.063  10.129 -1.0445  0.6706 -0.3296
  925MOL0    Cl27557   9.962   4.122   9.951  0.3321  0.2326 -0.1497
  925MOL0     C27558   9.118   4.565  10.419 -0.5812  0.1187 -0.2038
  925MOL0     C27559   9.002   4.572  10.492 -1.2785  0.2671 -0.3349
  925MOL0     O27560   8.874   4.844  10.704 -0.3780 -0.5948  0.3357
  925MOL0     C27561   8.711   4.603  10.910  0.3382 -1.0723  0.2341
  925MOL0     C27562   8.597   4.574  10.986  0.1148  0.3751 -0.5995
  925MOL0     N27563   7.799   4.709  10.808 -0.4885 -0.7026 -0.0940
  925MOL0     N27564   7.761   4.740  10.693  0.3287  0.4870 -0.2556
  925MOL0     C27565   7.138   4.172  10.322  0.0311 -0.7444 -0.7256
  925MOL0     C27566   7.018   4.142  10.262  0.7983 -0.1998  0.5574
  925MOL0     C27567   6.729   3.857  10.053  0.2874 -0.1521  0.2278
  925MOL0     C27568   6.675   3.976   9.998  0.3388  0.0790 -0.3090
  925MOL0     C27569   6.592   3.977   9.890 -0.4272  1.3737  0.0141
  925MOL0     C27570   6.567   3.856   9.818  0.4729  0.3456  0.5047
  925MOL0     O27571   6.479   3.841   9.711 -0.2038  0.4183 -0.1437
  925MOL0     C27572   6.376   3.940   9.707 -0.2550  0.5399 -0.3513
  925MOL0     C27573   6.265   3.921   9.602  0.2355  0.8605 -0.7208
  925MOL0     C27574   6.181   3.791   9.626  0.8364  0.1887 -0.3934
  925MOL0     C27575   6.066   3.790   9.520  0.9438 -1.0498  0.4347
  925MOL0     C27576   6.103   3.739   9.378  0.8030  0.0804 -0.0462
  925MOL0     C27577   6.157   3.684   9.284 -0.7586  0.2557 -0.2981
  925MOL0     C27578   6.623   3.738   9.867 -0.0548 -0.4660  0.9831
  925MOL0     C27579   6.703   3.743   9.982  0.4308  1.2464 -0.1876
  925MOL0     C27580   6.752   3.613  10.028  1.0088 -0.5716  0.0561
  925MOL0     H27581   6.922   3.887  10.455  2.7972 -0.5109  3.1542
  925MOL0     H27582   7.139   3.933  10.559 -2.7383 -1.0800 -0.0540
  925MOL0     H27583   7.442   3.973  10.393 -1.1488 -2.2269  0.3618
  925MOL0     H27584   7.386   3.933  10.558 -3.1677  0.6046 -0.1216
  925MOL0     H27585   7.523   4.106  10.660 -1.9537 -1.0543 -0.1596
  925MOL0     H27586   7.631   4.017  10.561  0.8767  0.2667 -1.2803
  925MOL0     H27587   7.583   4.178  10.357  1.0133  1.3379 -0.5881
  925MOL0     H27588   7.509   4.283  10.475  0.8797  0.5534  0.9191
  925MOL0     H27589   7.732   4.266  10.607  1.4038  1.0614 -0.0660
  925MOL0     H27590   7.789   4.182  10.457 -0.4236 -0.0333  0.1091
  925MOL0     H27591   7.749   4.392  10.327  0.6629  1.0510 -0.0770
  925MOL0     H27592   7.842   4.429  10.465 -0.1414  1.2444 -2.1508
  925MOL0     H27593   7.535   4.471  10.418  0.4537  0.4482 -1.4718
  925MOL0     H27594   7.612   4.517  10.575  0.9562  0.9801  0.0436
  925MOL0     H27595   7.597   4.712  10.450 -0.8898 -1.1307  1.5768
  925MOL0     H27596   7.661   4.644  10.301  1.2624 -0.6754 -0.7561
  925MOL0     H27597   7.881   4.624  10.393 -0.3572  2.1041 -3.0220
  925MOL0     H27598   7.836   4.791  10.403 -0.2200 -0.4832 -2.3225
  925MOL0     H27599   7.990   4.528  10.619 -1.7490 -0.2940 -0.5771
  925MOL0     H27600   7.944   4.428  10.879  1.4030 -0.0242 -0.6321
  925MOL0     H27601   7.913   4.560  10.995 -2.6098 -4.5284 -0.0829
  925MOL0     H27602   8.168   4.546  10.831 -0.7472 -1.3721 -1.4005
  925MOL0     H27603   8.129   4.670  10.945 -0.4513  0.1316  1.8842
  925MOL0     H27604   8.133   4.497  11.129 -0.1255 -0.6325  0.6831
  925MOL0     H27605   8.160   4.367  11.016 -1.0985  0.9052  0.9342
  925MOL0     H27606   8.357   4.422  11.131  0.6711  1.0869  0.0597
  925MOL0     H27607   8.362   4.432  10.960  1.9855  1.1974 -0.0902
  925MOL0     H27608   8.380   4.799  10.870 -0.2781  0.1280 -0.0199
  925MOL0     H27609   8.537   4.844  10.618 -2.0440  2.4747 -1.1953
  925MOL0     H27610   8.657   4.957  10.683 -0.5657  1.1260 -0.4448
  925MOL0     H27611   8.495   4.976  10.730 -1.1811 -1.0366 -0.2557
  925MOL0     H27612   9.122   4.723  10.771 -1.7119  2.5938 -0.5857
  925MOL0     H27613   9.346   4.694  10.634  0.0456  1.3233 -1.6166
  925MOL0     H27614   9.325   4.464  10.236  1.1833 -1.1992 -1.1629
  925MOL0     H27615   9.308   4.636  10.216  1.0389  0.5061  0.9973
  925MOL0     H27616   9.524   4.587  10.116  3.1739  0.3662  0.7516
  925MOL0     H27617   9.563   4.659  10.274  4.5825 -1.6807 -1.9868
  925MOL0     H27618   9.544   4.374  10.176 -4.3589  1.3430  1.3432
  925MOL0     H27619   9.568   4.404  10.352 -0.5591 -2.3620  0.0388
  925MOL0     H27620   9.778   4.523  10.308 -1.1357  0.0578  1.2632
  925MOL0     H27621   9.762   4.501  10.130 -1.4610 -1.7026 -0.3537
  925MOL0     H27622   9.799   4.300  10.347  2.9187  1.7155  0.1174
  925MOL0     H27623   9.745   4.242  10.181  1.8437 -1.9098  0.8354
  925MOL0     H27624   9.994   4.395  10.256 -1.7515  1.6614  0.5698
  925MOL0     H27625   9.944   4.329  10.099 -3.2477  1.3610  0.4283
  925MOL0     H27626   9.974   4.137  10.336  0.9159 -1.1214 -0.1451
  925MOL0     H27627  10.112   4.164  10.243 -0.3204 -2.8875 -0.9639
  925MOL0     H27628   9.871   4.031  10.149 -0.8488  1.0271  1.4063
  925MOL0     H27629  10.045   3.981  10.143 -0.8467  0.9953  0.6033
  925MOL0     H27630   9.117   4.518  10.321  0.2349  0.5830 -0.4503
  925MOL0     H27631   8.910   4.532  10.451 -3.1740  1.1966  2.6782
  925MOL0     H27632   8.797   4.537  10.914  2.1030  1.0494 -0.5133
  925MOL0     H27633   8.593   4.481  11.043 -2.7974  0.0107 -1.2347
  925MOL0     H27634   7.188   4.263  10.292  1.3491 -1.3762 -0.5354
  925MOL0     H27635   6.980   4.207  10.185 -0.9183 -2.5755 -0.7439
  925MOL0     H27636   6.680   4.069  10.054  2.4932  0.9380 -1.7654
  925MOL0     H27637   6.545   4.071   9.864 -1.6686  0.4306 -1.3046
  925MOL0     H27638   6.328   3.938   9.805 -3.8420 -5.5021 -1.6973
  925MOL0     H27639   6.428   4.034   9.687 -1.0611  1.7092  2.5568
  925MOL0     H27640   6.307   3.922   9.501  0.7612 -1.7124 -0.6008
  925MOL0     H27641   6.193   4.002   9.616 -1.9590 -1.2760  1.3500
  925MOL0     H27642   6.245   3.702   9.619 -2.8159 -2.8646  1.7464
  925MOL0     H27643   6.150   3.795   9.730  1.4372  0.8106 -0.2294
  925MOL0     H27644   6.042   3.895   9.504  4.0039 -0.3764 -0.3839
  925MOL0     H27645   5.982   3.730   9.554  0.5067  0.1106  1.4580
  925MOL0     H27646   6.195   3.622   9.205 -2.2635  0.9236 -1.5934
  925MOL0     H27647   6.597   3.644   9.819  2.1401 -1.0685  0.8443
  925MOL0     H27648   6.861   3.621  10.023  1.0120 -1.2746 -1.8878
  925MOL0     H27649   6.708   3.579  10.123  3.1536 -1.8100  0.6761
  925MOL0     H27650   6.736   3.529   9.959 -1.6385  0.9306 -1.3291
  926MOL0     O27651   1.413   6.959   8.981 -0.0822  0.5106 -0.3903
  926MOL0     C27652   1.496   7.034   9.045  0.6461 -0.3213 -0.1183
  926MOL0     O27653   1.478   7.086   9.177 -0.1819 -0.3620 -0.2112
  926MOL0     C27654   1.367   7.041   9.251 -0.8788  0.1767 -0.2297
  926MOL0     C27655   1.238   7.020   9.200 -0.5304 -0.8690  0.6114
  926MOL0     C27656   1.129   6.989   9.270  0.2599 -0.6539 -0.7504
  926MOL0     C27657   1.148   6.985   9.412 -0.0770  0.2779  0.5453
  926MOL0     O27658   1.036   6.949   9.474 -0.8100 -0.6277  0.1784
  926MOL0     C27659   1.040   6.930   9.616 -0.1473  0.8241 -0.5122
  926MOL0     C27660   0.917   6.866   9.672 -0.1561 -0.3000 -0.0796
  926MOL0     C27661   0.802   6.962   9.654  0.7205  0.1399  0.1200
  926MOL0     C27662   0.669   6.889   9.635  0.7021  0.2819  0.0875
  926MOL0     C27663   0.558   6.996   9.634  0.4425  0.0046 -0.0810
  926MOL0     C27664   0.553   7.082   9.506  0.2216 -0.7065 -0.0112
  926MOL0     C27665   0.446   7.195   9.526  0.0980  0.8876 -0.0500
  926MOL0     C27666   0.427   7.277   9.393 -1.2486  0.4689  0.2535
  926MOL0     N27667   0.365   7.200   9.280 -0.3737 -0.7418 -0.9408
  926MOL0     C27668   0.427   7.147   9.165  0.2026 -0.0084 -0.7419
  926MOL0     C27669   0.323   7.120   9.083  0.2152  0.6796  0.0060
  926MOL0     C27670   0.325   7.085   8.932 -0.1574  0.7053 -0.8342
  926MOL0     C27671   0.392   7.203   8.857  0.0428  0.0317 -0.0702
  926MOL0     C27672   0.333   7.198   8.712  0.3664 -1.3828  1.5248
  926MOL0     C27673   0.405   7.295   8.618  0.1029 -0.7484  0.5423
  926MOL0     O27674   0.543   7.257   8.590 -0.7200  0.1151 -0.1597
  926MOL0     C27675   0.633   7.352   8.589 -0.5978 -0.2276  0.0117
  926MOL0     C27676   0.610   7.451   8.502  0.5082  0.2539 -0.1031
  926MOL0     C27677   0.694   7.563   8.489 -0.1083 -0.4716 -0.2287
  926MOL0     C27678   0.669   7.654   8.377  0.7446  0.0909 -0.3475
  926MOL0     C27679   0.800   7.584   8.579 -0.6899 -0.1169  0.3719
  926MOL0     C27680   0.899   7.693   8.585 -0.1941 -0.1506  0.2655
  926MOL0     O27681   0.972   7.709   8.706  0.1077 -0.1345  0.4062
  926MOL0     C27682   1.075   7.805   8.707  0.2244 -0.1172 -0.5134
  926MOL0     C27683   1.053   7.906   8.803 -0.1091  0.1905  0.5713
  926MOL0     C27684   1.147   8.006   8.815 -0.3795 -0.1543 -1.1622
  926MOL0     C27685   1.261   7.999   8.740 -0.4265 -0.5617 -0.5749
  926MOL0     O27686   1.353   8.098   8.767 -0.3428 -0.5969  0.3771
  926MOL0     C27687   1.475   8.105   8.690  1.0471 -0.1658  0.3698
  926MOL0     C27688   1.559   8.217   8.751  0.3610  0.1797  0.8452
  926MOL0     C27689   1.622   8.188   8.889 -0.2604 -0.4367  0.5177
  926MOL0     C27690   1.683   8.317   8.942  0.4122  0.5966  0.1108
  926MOL0     C27691   1.753   8.298   9.077 -0.1554 -0.0738 -0.2769
  926MOL0     C27692   1.801   8.425   9.151  0.0774  0.8738 -0.2646
  926MOL0     C27693   1.884   8.382   9.282  0.2801  0.0785 -0.1048
  926MOL0     C27694   1.927   8.507   9.358 -0.0142  0.0523  0.2830
  926MOL0    Cl27695   1.988   8.452   9.519  0.1927 -0.5049  0.2340
  926MOL0     C27696   1.299   7.883   8.671 -0.2170 -0.8301  0.0142
  926MOL0     C27697   1.201   7.783   8.648 -0.7135 -0.1738 -0.3341
  926MOL0     O27698   0.908   7.761   8.483  1.1268  0.6340  0.3284
  926MOL0     C27699   0.819   7.481   8.681 -0.6011  0.7244 -0.1542
  926MOL0     C27700   0.743   7.364   8.680 -0.3470 -0.1203 -0.2188
  926MOL0     N27701   0.214   7.153   9.148  0.5121 -0.7372  0.2055
  926MOL0     N27702   0.233   7.202   9.265 -0.7311 -0.7444  0.6358
  926MOL0     C27703   1.276   6.998   9.474  0.3692 -0.4342 -0.2184
  926MOL0     C27704   1.386   7.022   9.389  0.0596  0.1008  0.5528
  926MOL0     C27705   1.625   7.046   8.984  0.4282  0.0394  0.8386
  926MOL0     C27706   1.638   7.080   8.849 -0.9626 -0.1158 -0.8051
  926MOL0     C27707   1.762   7.084   8.781 -0.5791 -1.1147 -0.5577
  926MOL0     C27708   1.882   7.074   8.856  0.1274  0.5058 -0.2124
  926MOL0     O27709   1.998   7.093   8.784 -0.1351  0.0899 -0.0040
  926MOL0     C27710   2.122   7.083   8.851 -0.8831  0.5159 -0.6648
  926MOL0     C27711   2.138   7.200   8.958  0.3088 -0.4532  0.5324
  926MOL0     C27712   2.290   7.216   8.997  0.4301  1.1112  0.1472
  926MOL0     C27713   2.341   7.135   9.119 -0.3561 -0.5329  0.2614
  926MOL0     C27714   2.322   6.985   9.118 -1.0521 -0.3966 -0.2275
  926MOL0     C27715   2.306   6.862   9.115 -0.1404 -0.5458 -0.3322
  926MOL0     C27716   1.874   7.028   8.991  0.3250 -0.9212  0.2168
  926MOL0     C27717   1.745   7.020   9.053  0.7704  0.3007 -0.1696
  926MOL0     C27718   1.746   6.975   9.196  0.2840 -0.2877  0.8079
  926MOL0     H27719   1.224   7.054   9.098 -1.6427  1.5902  1.4915
  926MOL0     H27720   1.034   6.974   9.219  0.0417  1.3488 -1.0087
  926MOL0     H27721   1.056   7.026   9.665 -0.8405 -0.0976  1.6568
  926MOL0     H27722   1.126   6.869   9.647 -1.0243 -0.6946 -0.9871
  926MOL0     H27723   0.893   6.777   9.613  0.1441 -0.4762  0.0615
  926MOL0     H27724   0.951   6.836   9.772 -2.0024 -0.8021  0.4401
  926MOL0     H27725   0.810   7.016   9.748  0.1433  0.0996  0.1978
  926MOL0     H27726   0.811   7.040   9.578 -3.2869  1.9322  1.2330
  926MOL0     H27727   0.674   6.832   9.541 -0.0664 -0.8101  0.6849
  926MOL0     H27728   0.638   6.819   9.713 -0.7890  1.4884  0.6189
  926MOL0     H27729   0.575   7.063   9.719  1.5158 -0.4828  0.0995
  926MOL0     H27730   0.460   6.949   9.648  0.6945 -0.5593 -0.1868
  926MOL0     H27731   0.654   7.117   9.484  0.2330 -0.6968  0.0541
  926MOL0     H27732   0.530   7.018   9.421  1.4317 -0.9310 -0.1756
  926MOL0     H27733   0.486   7.269   9.595 -1.6631  0.5747  1.3876
  926MOL0     H27734   0.346   7.161   9.553 -1.5866  5.6316  0.6797
  926MOL0     H27735   0.358   7.347   9.441 -0.5933 -0.5060  2.8289
  926MOL0     H27736   0.519   7.327   9.359 -0.2921 -2.0874 -1.1873
  926MOL0     H27737   0.533   7.128   9.151 -0.0890 -3.2871  0.6543
  926MOL0     H27738   0.223   7.063   8.899  0.7402 -2.4933 -1.8595
  926MOL0     H27739   0.382   6.993   8.919 -0.7519 -0.3635  2.8966
  926MOL0     H27740   0.372   7.303   8.897  1.0238 -0.1746  0.9779
  926MOL0     H27741   0.500   7.189   8.849 -0.1494 -2.3849  0.7317
  926MOL0     H27742   0.336   7.099   8.666 -0.0460  0.1370 -2.0943
  926MOL0     H27743   0.226   7.220   8.711  0.6484  0.1491  0.8267
  926MOL0     H27744   0.355   7.315   8.523  1.8474  0.6595 -0.1368
  926MOL0     H27745   0.407   7.391   8.671 -3.2259 -1.1308  1.5780
  926MOL0     H27746   0.519   7.445   8.442  0.2894  3.0652 -0.2090
  926MOL0     H27747   0.759   7.663   8.315  0.8384 -1.0670 -0.4048
  926MOL0     H27748   0.634   7.747   8.422 -0.1790 -2.1997  4.3128
  926MOL0     H27749   0.596   7.602   8.315  2.4765 -2.2253 -0.6080
  926MOL0     H27750   0.955   7.909   8.851 -1.5279  1.3735 -2.1668
  926MOL0     H27751   1.145   8.091   8.883 -2.9081 -1.2159  0.2641
  926MOL0     H27752   1.525   8.008   8.682 -3.2787 -2.7413  1.6142
  926MOL0     H27753   1.449   8.140   8.590 -1.7633 -0.7505  0.8123
  926MOL0     H27754   1.641   8.242   8.684 -0.4762 -0.9950 -0.6788
  926MOL0     H27755   1.490   8.301   8.767  0.5975  0.3865  0.7899
  926MOL0     H27756   1.704   8.120   8.864 -1.4206 -1.0647 -1.8660
  926MOL0     H27757   1.560   8.137   8.963  2.6056 -2.3475  1.7538
  926MOL0     H27758   1.597   8.383   8.957 -0.5089 -0.0110 -2.0512
  926MOL0     H27759   1.767   8.352   8.882 -0.2325 -3.1888 -3.4520
  926MOL0     H27760   1.697   8.232   9.143 -1.7310 -1.0527 -2.4858
  926MOL0     H27761   1.843   8.240   9.052  2.0299  1.2220  3.7027
  926MOL0     H27762   1.715   8.488   9.177  0.1510  1.4601 -1.3827
  926MOL0     H27763   1.867   8.479   9.082  2.0001 -2.5420 -1.3228
  926MOL0     H27764   1.966   8.323   9.243 -1.3015 -0.6620 -2.5303
  926MOL0     H27765   1.814   8.326   9.345 -0.3559  1.9428  0.9274
  926MOL0     H27766   1.838   8.570   9.358 -0.5770 -0.6421 -1.8307
  926MOL0     H27767   2.002   8.551   9.291  0.1091 -0.7983 -0.1523
  926MOL0     H27768   1.398   7.864   8.629  1.0293  1.7675  1.5386
  926MOL0     H27769   1.210   7.695   8.586 -0.7638 -0.0222 -0.5597
  926MOL0     H27770   0.899   7.483   8.755 -0.5971  4.1712 -0.0878
  926MOL0     H27771   0.741   7.293   8.762 -0.3528  2.4882  2.2162
  926MOL0     H27772   1.286   7.011   9.581  0.3931  1.0448 -0.3852
  926MOL0     H27773   1.489   7.047   9.413  0.6887 -1.2981 -0.5667
  926MOL0     H27774   1.549   7.108   8.793 -1.3674  4.1522  1.5703
  926MOL0     H27775   1.771   7.120   8.679 -1.4817 -1.8247 -0.9089
  926MOL0     H27776   2.130   6.992   8.909 -0.0501  0.6616 -0.5287
  926MOL0     H27777   2.206   7.090   8.781  3.6878 -0.7242  4.0764
  926MOL0     H27778   2.077   7.190   9.048 -0.1764 -2.4005  0.0270
  926MOL0     H27779   2.098   7.289   8.908 -1.0682 -1.9184 -1.0690
  926MOL0     H27780   2.360   7.194   8.916 -0.1776 -2.9400  0.4847
  926MOL0     H27781   2.314   7.317   9.032  4.6779  0.0335  0.9091
  926MOL0     H27782   2.292   7.171   9.210 -1.9251  2.0902 -1.4945
  926MOL0     H27783   2.449   7.149   9.124  0.0159 -3.2756  2.3942
  926MOL0     H27784   2.289   6.757   9.118 -2.0683 -0.2552  0.7015
  926MOL0     H27785   1.957   6.999   9.055 -1.1385  2.6262  4.1776
  926MOL0     H27786   1.827   6.902   9.207  0.2032 -0.6196 -0.6907
  926MOL0     H27787   1.756   7.054   9.271 -1.9765 -1.1568  2.1297
  926MOL0     H27788   1.659   6.912   9.218 -0.5925  0.0139 -1.5137
  927MOL0     O27789   4.069   0.431   3.453 -0.1083  0.3275 -0.4122
  927MOL0     C27790   4.074   0.376   3.341 -1.0485  1.6193 -0.0801
  927MOL0     O27791   4.174   0.396   3.248  0.0438  0.1389 -0.3690
  927MOL0     C27792   4.281   0.461   3.288 -0.5888 -0.2744 -0.0109
  927MOL0     C27793   4.340   0.558   3.203  0.5917 -0.3758 -0.1689
  927MOL0     C27794   4.449   0.644   3.247  0.3841 -0.3282 -0.4047
  927MOL0     C27795   4.511   0.617   3.371 -0.1600 -0.5792 -0.0246
  927MOL0     O27796   4.625   0.673   3.428 -0.7449 -0.1255  0.0908
  927MOL0     C27797   4.689   0.791   3.363 -0.1426  0.8116 -0.7681
  927MOL0     C27798   4.793   0.770   3.245 -0.4081 -0.2036 -0.5776
  927MOL0     C27799   4.863   0.632   3.261  0.5733  0.2089 -0.1930
  927MOL0     C27800   4.954   0.602   3.156  1.1975 -0.0580  0.0857
  927MOL0     C27801   5.037   0.477   3.187 -0.3711  0.0360 -0.2186
  927MOL0     C27802   5.118   0.426   3.068 -0.3925  1.1431 -0.6693
  927MOL0     C27803   5.186   0.296   3.108 -0.1890  0.0032 -0.1132
  927MOL0     C27804   5.298   0.295   3.212  0.2939  0.8478 -0.3889
  927MOL0     N27805   5.403   0.183   3.206  0.6055 -0.8708  0.3439
  927MOL0     C27806   5.483   0.161   3.318 -0.2436 -0.3470  0.1126
  927MOL0     C27807   5.544   0.039   3.290 -0.6335  1.1318  0.3442
  927MOL0     C27808   5.647  -0.035   3.382 -1.1363 -1.3667  0.0091
  927MOL0     C27809   5.787   0.024   3.345 -0.1013 -0.5145  0.6889
  927MOL0     C27810   5.903  -0.028   3.421  0.5838  0.0964 -0.3555
  927MOL0     C27811   6.038   0.036   3.386  0.3638 -0.2007  0.4258
  927MOL0     O27812   6.061   0.016   3.241 -0.6969  0.1911  0.3438
  927MOL0     C27813   6.184   0.047   3.185 -0.2996  0.3298 -0.0516
  927MOL0     C27814   6.189   0.041   3.042  1.5371 -0.8095 -0.7530
  927MOL0     C27815   6.310   0.055   2.974 -0.0478 -0.0747  0.9073
  927MOL0     C27816   6.306   0.044   2.821  0.6882 -0.5402  0.9448
  927MOL0     C27817   6.428   0.075   3.041 -0.0206 -1.3824 -0.8974
  927MOL0     C27818   6.559   0.112   2.973 -0.0056  0.2077 -0.1527
  927MOL0     O27819   6.671   0.076   3.031 -0.8181  0.6390 -0.0464
  927MOL0     C27820   6.787   0.077   2.956  0.1649 -0.8601 -0.3156
  927MOL0     C27821   6.878   0.182   2.966 -0.2342 -0.1675  0.6198
  927MOL0     C27822   6.994   0.182   2.888 -0.0667  0.7003  0.5612
  927MOL0     C27823   7.013   0.086   2.797 -0.5307  0.3986  0.3633
  927MOL0     O27824   7.122   0.114   2.713  0.0936 -0.2800 -1.6498
  927MOL0     C27825   7.139   0.048   2.584  0.0559  0.2482 -1.0296
  927MOL0     C27826   7.278   0.059   2.527 -0.5844 -0.4820  0.1777
  927MOL0     C27827   7.308  -0.058   2.432 -0.9694  0.4749 -0.2566
  927MOL0     C27828   7.230  -0.045   2.299  0.5615  0.4258  0.1932
  927MOL0     C27829   7.216  -0.181   2.218  0.5961 -0.6600 -0.3681
  927MOL0     C27830   7.333  -0.277   2.211 -0.0930 -0.3005  0.9486
  927MOL0     C27831   7.461  -0.218   2.151 -0.7787  0.7699  0.2358
  927MOL0     C27832   7.502  -0.264   2.011 -0.3390  0.4653  0.1570
  927MOL0    Cl27833   7.675  -0.231   1.978  0.3358  0.0791 -0.4542
  927MOL0     C27834   6.923  -0.021   2.787 -0.3376 -0.1615  0.6197
  927MOL0     C27835   6.810  -0.023   2.863 -0.0148 -0.1167 -0.3908
  927MOL0     O27836   6.555   0.163   2.858 -0.5563 -0.1874 -0.0541
  927MOL0     C27837   6.425   0.078   3.180 -0.6121  0.1046  0.6212
  927MOL0     C27838   6.301   0.070   3.252  0.4361 -0.1750 -0.1930
  927MOL0     N27839   5.485  -0.015   3.178  0.6544  0.0271  0.0198
  927MOL0     N27840   5.410   0.075   3.127 -0.3963  0.5173  0.3989
  927MOL0     C27841   4.446   0.517   3.455  0.1787  0.2817  0.1267
  927MOL0     C27842   4.339   0.435   3.414  0.0824  0.3704  0.1803
  927MOL0     C27843   3.949   0.304   3.302 -0.6239  0.4195  0.5756
  927MOL0     C27844   3.829   0.310   3.384  0.6910 -0.1107  0.4006
  927MOL0     C27845   3.710   0.248   3.344  0.3329 -0.7441  0.1638
  927MOL0     C27846   3.701   0.169   3.229 -0.1500  0.1447 -0.0410
  927MOL0     O27847   3.595   0.093   3.190  0.7516  0.1707  0.4655
  927MOL0     C27848   3.478   0.084   3.268  0.0723  0.3731 -0.3807
  927MOL0     C27849   3.369  -0.009   3.217 -0.5239  0.3632 -0.0064
  927MOL0     C27850   3.259  -0.022   3.324  0.6794  0.9177  0.2222
  927MOL0     C27851   3.165   0.104   3.331 -0.3936  0.3300 -0.2103
  927MOL0     C27852   3.101   0.119   3.463  0.1248  0.9146  0.6405
  927MOL0     C27853   3.053   0.131   3.574  0.3969  0.2250 -0.5011
  927MOL0     C27854   3.816   0.160   3.155  0.4354  0.1778  0.6610
  927MOL0     C27855   3.939   0.226   3.186 -0.5221 -0.4425 -0.1242
  927MOL0     C27856   4.056   0.210   3.097  0.2380  0.4906 -0.3607
  927MOL0     H27857   4.281   0.582   3.116  1.9322  3.6942 -0.1938
  927MOL0     H27858   4.485   0.728   3.189 -1.1766  0.5094 -0.2282
  927MOL0     H27859   4.743   0.841   3.444 -0.0114 -1.5509  0.6797
  927MOL0     H27860   4.607   0.855   3.328 -2.5551 -2.2847 -1.1410
  927MOL0     H27861   4.744   0.778   3.148 -2.5000  0.7572  0.4891
  927MOL0     H27862   4.870   0.848   3.250 -2.2544  1.6689  0.5938
  927MOL0     H27863   4.926   0.637   3.350 -0.0061 -2.5128  0.4672
  927MOL0     H27864   4.788   0.554   3.280  0.6404  0.4269  1.0723
  927MOL0     H27865   4.895   0.597   3.064  1.8290  0.2881 -0.3441
  927MOL0     H27866   5.027   0.683   3.145  2.5280 -1.2318 -0.0160
  927MOL0     H27867   4.974   0.395   3.223  0.7425 -0.8347 -0.1611
  927MOL0     H27868   5.109   0.500   3.266 -0.2456  0.8934 -0.5682
  927MOL0     H27869   5.056   0.422   2.978  0.9399  0.3881 -1.5832
  927MOL0     H27870   5.197   0.497   3.040  0.9555  0.0377  0.1502
  927MOL0     H27871   5.226   0.245   3.019 -0.9643 -0.5956 -0.1312
  927MOL0     H27872   5.104   0.229   3.136  0.7104 -1.6594 -1.2808
  927MOL0     H27873   5.351   0.391   3.208  0.6312  0.6362 -1.1649
  927MOL0     H27874   5.248   0.308   3.308 -1.3626 -0.4410 -1.0411
  927MOL0     H27875   5.503   0.229   3.400  1.6074 -1.5127  0.6853
  927MOL0     H27876   5.643  -0.142   3.363 -0.9517 -1.0095 -2.4575
  927MOL0     H27877   5.646  -0.006   3.487  2.8997 -0.3324 -0.0794
  927MOL0     H27878   5.809  -0.008   3.243  3.4710 -0.6977  1.3905
  927MOL0     H27879   5.786   0.134   3.349  2.8238 -0.3948  0.5121
  927MOL0     H27880   5.882  -0.024   3.528 -0.8175 -4.1397 -0.2886
  927MOL0     H27881   5.908  -0.137   3.411 -0.6919 -0.1165  0.9220
  927MOL0     H27882   6.042   0.143   3.410  0.0341 -0.2433  0.6769
  927MOL0     H27883   6.116  -0.019   3.439  0.9518 -0.4977 -0.7262
  927MOL0     H27884   6.092   0.043   2.993  2.2127  1.0255 -2.1293
  927MOL0     H27885   6.207   0.009   2.792  1.8880 -3.4403  0.0053
  927MOL0     H27886   6.372  -0.032   2.777  2.5886  2.0671 -1.0730
  927MOL0     H27887   6.337   0.134   2.766  0.6797 -1.4946 -0.6877
  927MOL0     H27888   6.868   0.271   3.027 -1.9050 -0.0291  0.2009
  927MOL0     H27889   7.070   0.259   2.875 -1.4599  1.8389 -1.1820
  927MOL0     H27890   7.112  -0.058   2.592 -1.6868  0.4561 -3.0043
  927MOL0     H27891   7.073   0.100   2.514  0.2565  2.4782  0.3572
  927MOL0     H27892   7.291   0.155   2.476  0.7507 -0.6590  0.1522
  927MOL0     H27893   7.347   0.062   2.612 -1.9893  0.4728  1.3448
  927MOL0     H27894   7.297  -0.158   2.477  1.3033 -0.5190 -1.7307
  927MOL0     H27895   7.413  -0.058   2.401 -0.6233  1.0502  0.8594
  927MOL0     H27896   7.281   0.029   2.237 -0.0386  1.5063  0.9713
  927MOL0     H27897   7.127  -0.011   2.312  0.8660  2.0065 -1.1907
  927MOL0     H27898   7.130  -0.235   2.260  1.9545  0.4465  4.5495
  927MOL0     H27899   7.194  -0.153   2.115  0.6387 -0.6014 -0.3612
  927MOL0     H27900   7.291  -0.361   2.155 -3.4699  0.0895  2.6495
  927MOL0     H27901   7.355  -0.318   2.310  0.1354 -4.6565 -0.6912
  927MOL0     H27902   7.540  -0.237   2.224 -0.3318 -1.9353 -0.8514
  927MOL0     H27903   7.444  -0.110   2.142  2.7653  1.3426 -1.2037
  927MOL0     H27904   7.437  -0.208   1.943  2.1291 -0.3669 -3.1559
  927MOL0     H27905   7.481  -0.370   1.993 -1.6567  0.7541 -0.1094
  927MOL0     H27906   6.917  -0.091   2.705  2.1038  1.9659 -1.5678
  927MOL0     H27907   6.724  -0.088   2.852 -1.5245  1.2600  2.3053
  927MOL0     H27908   6.517   0.100   3.232  0.4037  1.1877 -1.4850
  927MOL0     H27909   6.310   0.059   3.360 -0.8134  0.0373 -0.0606
  927MOL0     H27910   4.484   0.499   3.555  1.6948  0.8272 -0.3208
  927MOL0     H27911   4.301   0.358   3.480  2.0269 -1.5418 -0.7899
  927MOL0     H27912   3.827   0.366   3.477  1.2647  0.0899  0.2941
  927MOL0     H27913   3.635   0.260   3.421  1.2876 -1.3700  1.2381
  927MOL0     H27914   3.507   0.045   3.366 -0.2839  0.9947 -0.0289
  927MOL0     H27915   3.431   0.178   3.295 -5.4355 -2.8195  3.2081
  927MOL0     H27916   3.413  -0.107   3.197  2.2901  1.4691  0.3210
  927MOL0     H27917   3.317   0.028   3.128 -0.8084 -0.9630 -0.4136
  927MOL0     H27918   3.211  -0.113   3.287  2.7475  0.4121 -1.4517
  927MOL0     H27919   3.298  -0.052   3.422  2.1766 -0.7731 -0.8251
  927MOL0     H27920   3.080   0.079   3.267  0.2811 -0.1913 -0.9218
  927MOL0     H27921   3.216   0.196   3.301  2.6128 -1.3320 -0.6363
  927MOL0     H27922   3.005   0.137   3.670  0.4254  1.1454 -0.5279
  927MOL0     H27923   3.814   0.095   3.068  0.3216  1.0552  0.0010
  927MOL0     H27924   4.084   0.303   3.048  1.1314  0.4094 -0.0169
  927MOL0     H27925   4.140   0.165   3.150  2.0623  1.0664 -2.6120
  927MOL0     H27926   4.035   0.144   3.012  1.4945  1.7995 -1.7460
  928MOL0     O27927   6.589   1.993   5.489  0.0205  0.6044 -0.1732
  928MOL0     C27928   6.680   1.943   5.547  0.1096 -0.0347  0.5341
  928MOL0     O27929   6.665   1.881   5.665 -0.0546  0.3822  0.2824
  928MOL0     C27930   6.547   1.881   5.733 -0.5680 -0.1239  0.2676
  928MOL0     C27931   6.422   1.841   5.679  1.0079  0.7092 -0.4789
  928MOL0     C27932   6.308   1.858   5.765  0.5151 -0.3198 -0.2503
  928MOL0     C27933   6.321   1.897   5.897 -0.7531  0.3794  1.0359
  928MOL0     O27934   6.210   1.919   5.973 -0.5671  0.1887 -0.1694
  928MOL0     C27935   6.198   1.814   6.070  0.3840 -0.3374  0.0814
  928MOL0     C27936   6.048   1.809   6.109 -0.5129  0.1496 -0.2269
  928MOL0     C27937   5.959   1.756   5.995 -0.2296 -0.0544  0.0048
  928MOL0     C27938   5.811   1.765   6.029  0.4583 -0.3756  0.1180
  928MOL0     C27939   5.747   1.690   5.910  0.0519  0.5348 -0.1019
  928MOL0     C27940   5.595   1.684   5.912  0.8077  0.8553 -0.3567
  928MOL0     C27941   5.546   1.605   6.036 -0.0434 -0.4668 -0.5991
  928MOL0     C27942   5.537   1.453   6.014 -0.2981  0.4983 -0.5028
  928MOL0     N27943   5.664   1.384   6.059  0.4970  0.1307 -0.3830
  928MOL0     C27944   5.727   1.402   6.180  0.5819 -1.0756 -0.7587
  928MOL0     C27945   5.832   1.322   6.174 -0.1809 -0.3706 -0.2862
  928MOL0     C27946   5.939   1.308   6.272  0.3796  0.4212 -1.3325
  928MOL0     C27947   6.079   1.273   6.223  0.2201  0.5726  1.1299
  928MOL0     C27948   6.148   1.398   6.165 -0.2447  0.9250  0.5190
  928MOL0     C27949   6.293   1.368   6.143  0.3648 -0.8351 -0.1129
  928MOL0     O27950   6.355   1.488   6.095  0.2912 -1.0112  0.0702
  928MOL0     C27951   6.488   1.491   6.066 -0.1771  0.2470  0.8604
  928MOL0     C27952   6.581   1.400   6.116 -0.3989  0.1114 -0.1134
  928MOL0     C27953   6.718   1.416   6.089 -0.1063  0.1043  1.2957
  928MOL0     C27954   6.800   1.317   6.157 -0.5995  0.7086 -0.2035
  928MOL0     C27955   6.754   1.516   5.993  0.0115 -0.6801 -0.7082
  928MOL0     C27956   6.894   1.534   5.953  0.5491 -0.6552  0.3136
  928MOL0     O27957   6.918   1.568   5.822  0.2481 -0.3049 -0.1632
  928MOL0     C27958   7.031   1.631   5.791 -0.7205  0.1775  0.7015
  928MOL0     C27959   7.150   1.562   5.749  0.3343 -0.3231  0.1243
  928MOL0     C27960   7.269   1.626   5.716 -0.3646 -0.2450 -0.8255
  928MOL0     C27961   7.270   1.768   5.722  0.1577  0.0565  0.1352
  928MOL0     O27962   7.373   1.857   5.708  0.6724  0.0126 -0.0943
  928MOL0     C27963   7.496   1.814   5.652 -0.0957 -0.7598 -1.0812
  928MOL0     C27964   7.594   1.917   5.693  0.1709 -0.0616  0.5041
  928MOL0     C27965   7.652   1.890   5.834 -0.7288  0.7896 -0.6084
  928MOL0     C27966   7.780   1.966   5.853 -0.3036 -0.3349 -0.4762
  928MOL0     C27967   7.846   1.947   5.983  0.0423  0.1694  0.1911
  928MOL0     C27968   7.764   1.960   6.111  1.1628 -0.4438 -0.2510
  928MOL0     C27969   7.851   1.955   6.229  0.4222 -0.3295 -1.3479
  928MOL0     C27970   7.773   1.995   6.361  1.5893 -0.0079 -0.3567
  928MOL0    Cl27971   7.668   1.878   6.418  0.1684  0.2766 -0.2058
  928MOL0     C27972   7.153   1.836   5.765  0.5246  0.1104 -0.8220
  928MOL0     C27973   7.037   1.766   5.802  0.0188  0.2458  0.3699
  928MOL0     O27974   6.984   1.513   6.031  0.3422  0.9205 -0.0897
  928MOL0     C27975   6.661   1.606   5.946  0.9617  0.6451  0.4162
  928MOL0     C27976   6.530   1.597   5.979  0.4346  0.5672  0.9500
  928MOL0     N27977   5.835   1.263   6.049  0.1355  0.5548 -0.2708
  928MOL0     N27978   5.734   1.298   5.982 -0.1885  0.4145  0.8909
  928MOL0     C27979   6.449   1.930   5.948 -0.1191 -0.6480 -0.3460
  928MOL0     C27980   6.558   1.926   5.866 -0.0742  1.1174 -0.2963
  928MOL0     C27981   6.812   1.939   5.470 -0.5106  0.0031 -1.0091
  928MOL0     C27982   6.909   1.831   5.493  1.0987 -0.3371 -0.1117
  928MOL0     C27983   7.037   1.834   5.447  0.5332  0.1997 -0.3814
  928MOL0     C27984   7.073   1.938   5.356 -0.0889 -0.2333 -0.4641
  928MOL0     O27985   7.207   1.937   5.312 -0.2028 -0.2630 -0.3192
  928MOL0     C27986   7.245   2.067   5.259 -0.3495  0.2228  0.5779
  928MOL0     C27987   7.394   2.056   5.208  0.7605 -0.2520 -0.5380
  928MOL0     C27988   7.417   1.957   5.087  0.3504 -0.1990  0.1716
  928MOL0     C27989   7.560   1.896   5.072 -0.6184  0.3337 -0.4213
  928MOL0     C27990   7.646   1.996   5.013  0.3717 -0.1918  0.3368
  928MOL0     C27991   7.707   2.083   4.950  0.1548 -0.5336  0.3191
  928MOL0     C27992   6.978   2.033   5.329  0.7229  0.5234 -0.6711
  928MOL0     C27993   6.845   2.036   5.371 -0.0962  0.7078  0.4599
  928MOL0     C27994   6.752   2.142   5.324  0.8822  1.0144 -0.0752
  928MOL0     H27995   6.408   1.795   5.582  0.0423  0.7557 -0.3712
  928MOL0     H27996   6.205   1.830   5.742  0.5543 -0.1556 -0.6411
  928MOL0     H27997   6.267   1.841   6.151  1.6279 -0.4966 -0.9007
  928MOL0     H27998   6.226   1.712   6.041  1.1419 -0.1156  0.0022
  928MOL0     H27999   6.033   1.740   6.193  2.2593 -1.8409 -1.2042
  928MOL0     H28000   6.019   1.911   6.135 -0.3420 -0.3678  2.2500
  928MOL0     H28001   5.973   1.804   5.898 -1.1832  1.1271  0.4217
  928MOL0     H28002   5.989   1.652   5.981 -2.3529 -0.7071 -0.0429
  928MOL0     H28003   5.792   1.710   6.122  0.4177 -0.4575  0.0604
  928MOL0     H28004   5.786   1.872   6.033  0.1388 -0.4125 -0.7579
  928MOL0     H28005   5.777   1.585   5.904  0.5421  0.7009 -0.6731
  928MOL0     H28006   5.782   1.747   5.823 -1.7249 -1.4241 -2.2397
  928MOL0     H28007   5.547   1.782   5.924 -1.7042 -0.3830  0.2607
  928MOL0     H28008   5.553   1.646   5.818 -2.6989  1.8773  0.6513
  928MOL0     H28009   5.444   1.640   6.056 -0.5078 -0.6314 -2.5209
  928MOL0     H28010   5.598   1.620   6.131 -0.7863 -1.2594 -0.0485
  928MOL0     H28011   5.453   1.419   6.075  0.4734  2.0047  1.5166
  928MOL0     H28012   5.524   1.432   5.907 -0.6254 -2.9726  0.1187
  928MOL0     H28013   5.709   1.474   6.258  2.1988 -0.4437 -0.9366
  928MOL0     H28014   5.898   1.235   6.343  0.6881  1.9183  0.4753
  928MOL0     H28015   5.945   1.396   6.337  2.5829 -1.4225  1.1510
  928MOL0     H28016   6.142   1.222   6.296 -0.5579 -1.2197  0.6089
  928MOL0     H28017   6.069   1.195   6.147  3.3653 -1.0817  2.2412
  928MOL0     H28018   6.103   1.431   6.071 -2.5744 -1.3834  0.6830
  928MOL0     H28019   6.135   1.478   6.238 -3.2825  3.1079 -2.1697
  928MOL0     H28020   6.343   1.347   6.239  3.6360  1.8573 -1.0274
  928MOL0     H28021   6.306   1.287   6.072  0.3447 -3.0245  2.2185
  928MOL0     H28022   6.542   1.325   6.185 -1.4739 -0.1512 -0.9694
  928MOL0     H28023   6.883   1.284   6.092 -0.6783 -1.2192  0.6107
  928MOL0     H28024   6.732   1.234   6.177  1.6790 -1.7958 -1.9665
  928MOL0     H28025   6.856   1.363   6.239 -0.1502  1.7164 -1.0362
  928MOL0     H28026   7.174   1.456   5.746 -0.7050 -0.5451 -0.7983
  928MOL0     H28027   7.356   1.565   5.695 -1.0795 -2.3881  1.9362
  928MOL0     H28028   7.525   1.713   5.682 -0.2269 -0.6025 -0.3998
  928MOL0     H28029   7.495   1.808   5.543  0.7312 -0.9907 -1.0804
  928MOL0     H28030   7.679   1.907   5.624  1.0297 -1.3569  1.7182
  928MOL0     H28031   7.542   2.013   5.685 -0.6020 -0.2184  3.0425
  928MOL0     H28032   7.682   1.785   5.848 -0.1670  1.2551  2.1838
  928MOL0     H28033   7.578   1.920   5.908  0.5864  0.9693  0.6809
  928MOL0     H28034   7.764   2.069   5.821  1.0642 -0.1491 -0.6386
  928MOL0     H28035   7.846   1.925   5.776 -1.2067  0.1699 -1.5375
  928MOL0     H28036   7.880   1.844   5.974  0.2362  0.2932 -0.5888
  928MOL0     H28037   7.936   2.010   5.994  0.1972  0.0975 -0.6167
  928MOL0     H28038   7.696   1.875   6.125 -0.8004  1.0897  0.1005
  928MOL0     H28039   7.706   2.053   6.113  2.1152  0.1682 -0.6581
  928MOL0     H28040   7.933   2.024   6.210 -1.6670  2.7412  0.0013
  928MOL0     H28041   7.887   1.854   6.250 -0.6529 -0.5866 -0.6665
  928MOL0     H28042   7.707   2.080   6.343  1.4427  0.1647  0.9201
  928MOL0     H28043   7.838   2.024   6.443 -0.4596  1.6689  0.7575
  928MOL0     H28044   7.147   1.943   5.782  0.8063  0.1110 -0.7151
  928MOL0     H28045   6.956   1.823   5.848  1.6532  2.6968  0.3756
  928MOL0     H28046   6.688   1.687   5.879 -3.2387  1.2000 -0.8784
  928MOL0     H28047   6.458   1.668   5.941  1.3015  1.3645  0.7522
  928MOL0     H28048   6.457   1.962   6.051 -3.5751 -2.3113  0.5875
  928MOL0     H28049   6.655   1.949   5.908  0.5265 -0.8579 -0.5076
  928MOL0     H28050   6.866   1.759   5.562 -2.1978  2.6145  1.2560
  928MOL0     H28051   7.107   1.751   5.458  2.5309  1.9034  0.4472
  928MOL0     H28052   7.183   2.099   5.175  1.3025  0.6949 -0.5069
  928MOL0     H28053   7.245   2.139   5.342 -0.8103 -2.4700  3.0567
  928MOL0     H28054   7.468   2.040   5.287  3.8613 -0.5423 -3.2887
  928MOL0     H28055   7.412   2.158   5.172 -3.0659  0.5573 -0.6155
  928MOL0     H28056   7.341   1.879   5.074  0.0281 -0.0132  0.9108
  928MOL0     H28057   7.412   2.021   4.999  2.4455  0.3778  0.4115
  928MOL0     H28058   7.560   1.802   5.016 -1.6765  1.3785 -2.2298
  928MOL0     H28059   7.587   1.877   5.177  3.4848 -2.1545 -1.6813
  928MOL0     H28060   7.767   2.157   4.900 -1.3544 -0.8764 -2.1661
  928MOL0     H28061   6.997   2.108   5.253  4.1457 -0.0886 -0.5939
  928MOL0     H28062   6.793   2.203   5.243  0.9964  0.8457 -0.1460
  928MOL0     H28063   6.659   2.097   5.287  2.0255 -1.2777 -0.3863
  928MOL0     H28064   6.720   2.206   5.406 -2.8501 -0.2691 -0.3387
  929MOL0     O28065   8.190   3.186   0.331 -0.5570  0.2032  0.3060
  929MOL0     C28066   8.134   3.198   0.219 -0.0390 -0.7871  0.1789
  929MOL0     O28067   8.096   3.317   0.168 -0.3201  0.0629 -0.4485
  929MOL0     C28068   8.175   3.426   0.196  0.3623 -0.0309 -0.4079
  929MOL0     C28069   8.121   3.555   0.203 -0.0353 -1.0309 -0.1958
  929MOL0     C28070   8.204   3.666   0.210  0.2777  0.5327  0.5743
  929MOL0     C28071   8.341   3.663   0.221 -0.1103 -0.1145  0.1384
  929MOL0     O28072   8.422   3.773   0.218  0.3213  0.0676 -0.1099
  929MOL0     C28073   8.475   3.799   0.097 -0.6098 -0.0359 -0.4942
  929MOL0     C28074   8.603   3.889   0.104 -0.1754  0.2801  0.0873
  929MOL0     C28075   8.662   3.921  -0.036  0.2213 -0.0249 -0.2150
  929MOL0     C28076   8.608   4.050  -0.106  0.3888  0.1121  0.5860
  929MOL0     C28077   8.683   4.072  -0.233  0.0035 -0.1425 -0.0159
  929MOL0     C28078   8.630   4.195  -0.307  0.4893  0.3450  0.7769
  929MOL0     C28079   8.684   4.199  -0.452 -0.1965  0.6845 -0.2774
  929MOL0     C28080   8.831   4.235  -0.469 -0.5583  0.0966  0.1424
  929MOL0     N28081   8.893   4.190  -0.595 -0.1874 -0.3730  0.1747
  929MOL0     C28082   8.947   4.273  -0.691 -0.5028  0.6150 -0.3285
  929MOL0     C28083   9.043   4.199  -0.755 -0.1593  0.8399 -0.0195
  929MOL0     C28084   9.126   4.240  -0.871 -0.2866  0.2762  0.9744
  929MOL0     C28085   9.265   4.287  -0.833  0.1584  0.4988  0.4417
  929MOL0     C28086   9.337   4.176  -0.748  0.0134  0.5160  0.1648
  929MOL0     C28087   9.481   4.220  -0.718  0.5753 -0.4980  0.5310
  929MOL0     O28088   9.558   4.238  -0.837 -0.3431 -0.3345 -0.5650
  929MOL0     C28089   9.653   4.142  -0.851 -0.8768  0.4900 -0.0765
  929MOL0     C28090   9.623   4.022  -0.915  0.1119 -0.1687  0.1651
  929MOL0     C28091   9.720   3.933  -0.944 -0.6790  0.2817  0.1435
  929MOL0     C28092   9.678   3.807  -1.016 -0.3368  0.4767  0.1087
  929MOL0     C28093   9.859   3.966  -0.938 -0.3173 -0.0379 -1.2161
  929MOL0     C28094   9.978   3.888  -0.975  0.1206 -0.8968  0.2353
  929MOL0     O28095   9.957   3.760  -1.014 -0.6808  0.4544 -0.1259
  929MOL0     C28096  10.053   3.663  -1.049 -0.3027 -0.1417  0.5319
  929MOL0     C28097  10.186   3.688  -1.083  0.1393  0.2832  0.3772
  929MOL0     C28098  10.257   3.574  -1.121  0.0155 -0.1343  0.1307
  929MOL0     C28099  10.205   3.443  -1.131 -0.0505 -0.0412  0.1111
  929MOL0     O28100  10.293   3.346  -1.153 -0.6542 -0.2710  0.6545
  929MOL0     C28101  10.300   3.325  -1.296 -0.2360  0.5667  0.2572
  929MOL0     C28102  10.419   3.241  -1.341  0.2372 -0.4323  0.1545
  929MOL0     C28103  10.401   3.095  -1.310 -0.1015  0.0603 -0.1354
  929MOL0     C28104  10.509   3.012  -1.372 -0.0541  0.2296  1.0115
  929MOL0     C28105  10.647   3.045  -1.318 -0.0902 -0.2780  0.7885
  929MOL0     C28106  10.754   2.954  -1.374 -1.0301  0.5161 -0.2119
  929MOL0     C28107  10.787   2.959  -1.520  0.5185 -0.9837 -0.6118
  929MOL0     C28108  10.813   3.099  -1.575 -0.4007  0.9947 -0.7630
  929MOL0    Cl28109  10.954   3.176  -1.489  0.0912  0.2020  0.1940
  929MOL0     C28110  10.070   3.432  -1.112 -0.1540  0.1927  0.1107
  929MOL0     C28111   9.999   3.536  -1.065 -0.6304  0.0721  0.4310
  929MOL0     O28112  10.091   3.941  -0.965 -0.6627 -0.9748  0.5345
  929MOL0     C28113   9.887   4.086  -0.861 -0.1855  0.0623 -0.1407
  929MOL0     C28114   9.782   4.171  -0.825 -0.7139  0.0301  0.4064
  929MOL0     N28115   9.035   4.076  -0.695 -0.5321  0.1034 -0.6161
  929MOL0     N28116   8.938   4.063  -0.616  1.0720 -0.7748 -0.1454
  929MOL0     C28117   8.400   3.536   0.215 -1.0494  0.1373  0.5951
  929MOL0     C28118   8.315   3.422   0.206 -0.3271 -0.0594  0.5483
  929MOL0     C28119   8.114   3.078   0.138 -0.6906 -1.2757 -0.0237
  929MOL0     C28120   7.992   3.062   0.071 -0.2857 -0.1999  0.1110
  929MOL0     C28121   7.978   2.960  -0.022  0.2078  0.1251  0.1456
  929MOL0     C28122   8.069   2.855  -0.034  0.2068  0.1209 -0.1500
  929MOL0     O28123   8.043   2.745  -0.107  0.7309  1.1454  0.1064
  929MOL0     C28124   7.930   2.729  -0.194  0.2024  0.6739 -0.0605
  929MOL0     C28125   7.932   2.819  -0.317 -0.0872  0.5622 -0.1815
  929MOL0     C28126   8.035   2.778  -0.420  0.2245  0.5759 -0.3691
  929MOL0     C28127   8.038   2.871  -0.533 -0.4072 -1.0457  0.4119
  929MOL0     C28128   8.149   2.831  -0.615 -0.5132 -0.4734  0.5453
  929MOL0     C28129   8.241   2.817  -0.690  0.2368  0.3190 -0.1366
  929MOL0     C28130   8.197   2.871   0.036  0.1730  0.1767 -0.4024
  929MOL0     C28131   8.219   2.982   0.122  0.6236  0.4571  1.1474
  929MOL0     C28132   8.358   2.992   0.175 -0.6023  0.4084  0.0439
  929MOL0     H28133   8.013   3.563   0.203  0.0238 -0.1819 -0.4976
  929MOL0     H28134   8.160   3.765   0.220 -0.0019  0.3661  1.0382
  929MOL0     H28135   8.404   3.858   0.038  1.3532  0.8560 -2.1048
  929MOL0     H28136   8.495   3.708   0.040 -0.7326  0.0399 -0.6585
  929MOL0     H28137   8.586   3.985   0.154  1.4949  2.1283 -2.6000
  929MOL0     H28138   8.682   3.844   0.165  0.1023  1.8563  0.9414
  929MOL0     H28139   8.769   3.941  -0.026  0.6160 -2.1941  0.2260
  929MOL0     H28140   8.663   3.827  -0.091  1.9889  0.0301 -0.3329
  929MOL0     H28141   8.500   4.052  -0.122  0.8596  1.2088 -3.6859
  929MOL0     H28142   8.619   4.140  -0.045  1.4925  0.5269 -0.1841
  929MOL0     H28143   8.667   3.981  -0.291 -1.6938  0.4260 -0.4979
  929MOL0     H28144   8.788   4.089  -0.207 -0.9392  1.1592  3.6220
  929MOL0     H28145   8.521   4.197  -0.308  0.4179  0.0302  2.8989
  929MOL0     H28146   8.658   4.287  -0.255  4.0765  0.1366 -0.4585
  929MOL0     H28147   8.621   4.259  -0.518 -1.9057 -0.8029 -0.0810
  929MOL0     H28148   8.675   4.098  -0.494 -3.9691  0.2719  1.0651
  929MOL0     H28149   8.836   4.344  -0.464 -3.0832  0.3049 -0.5860
  929MOL0     H28150   8.904   4.192  -0.400  1.0563 -1.5416 -2.4081
  929MOL0     H28151   8.917   4.372  -0.723 -0.4717 -0.0600 -2.6238
  929MOL0     H28152   9.091   4.333  -0.918  0.3292  0.2087  0.3633
  929MOL0     H28153   9.137   4.161  -0.945  0.2690  1.1843  0.0485
  929MOL0     H28154   9.317   4.292  -0.929 -2.3892 -1.7556 -1.1827
  929MOL0     H28155   9.269   4.384  -0.784 -0.8309  1.3169 -1.0258
  929MOL0     H28156   9.286   4.151  -0.655  0.8570 -2.1432  0.0064
  929MOL0     H28157   9.341   4.086  -0.811 -1.0310  0.7228 -0.2204
  929MOL0     H28158   9.484   4.317  -0.667 -0.1010  0.8623 -1.8678
  929MOL0     H28159   9.522   4.149  -0.645 -1.3811 -1.4581  0.7551
  929MOL0     H28160   9.521   3.998  -0.945  0.7010  2.0077 -4.5024
  929MOL0     H28161   9.702   3.822  -1.122 -0.9704 -0.3882 -0.1728
  929MOL0     H28162   9.570   3.793  -1.009 -0.4232 -0.9126 -2.5124
  929MOL0     H28163   9.729   3.715  -0.986  1.9661  1.7026  0.1618
  929MOL0     H28164  10.228   3.788  -1.071  3.0409 -1.0742  2.8129
  929MOL0     H28165  10.365   3.580  -1.128 -0.0902  0.1153 -2.7323
  929MOL0     H28166  10.206   3.275  -1.321 -1.0190  0.9855  2.1940
  929MOL0     H28167  10.306   3.421  -1.348 -0.9772  2.2506  3.0777
  929MOL0     H28168  10.429   3.255  -1.449 -1.2789  1.3244  0.1898
  929MOL0     H28169  10.504   3.290  -1.292 -1.1996  1.9680  0.3880
  929MOL0     H28170  10.302   3.064  -1.343 -2.2867  3.7210  2.3238
  929MOL0     H28171  10.409   3.077  -1.202  2.0625 -1.3240 -0.4717
  929MOL0     H28172  10.500   3.025  -1.480  0.8961 -2.5206  0.5116
  929MOL0     H28173  10.481   2.907  -1.365  1.3247 -0.1472  1.1848
  929MOL0     H28174  10.673   3.149  -1.338 -0.2084 -0.6656 -1.7636
  929MOL0     H28175  10.636   3.030  -1.210 -0.6966 -0.4011  0.7113
  929MOL0     H28176  10.730   2.850  -1.350  4.4998 -1.1158 -0.4312
  929MOL0     H28177  10.849   2.961  -1.320 -0.9287 -0.5302 -0.2356
  929MOL0     H28178  10.712   2.908  -1.581 -0.8274  0.6466 -0.3940
  929MOL0     H28179  10.881   2.907  -1.540  1.0380  0.8923 -3.6956
  929MOL0     H28180  10.725   3.161  -1.553  1.1073  2.9007  0.2381
  929MOL0     H28181  10.849   3.107  -1.678  1.6174 -0.2767 -0.1983
  929MOL0     H28182  10.028   3.332  -1.110  0.0825  0.1014  0.5659
  929MOL0     H28183   9.894   3.519  -1.044  0.1858 -3.8339  2.3529
  929MOL0     H28184   9.985   4.114  -0.826  0.7597 -2.0042 -0.9944
  929MOL0     H28185   9.813   4.259  -0.769  1.5794 -0.7360  0.4465
  929MOL0     H28186   8.509   3.535   0.209 -1.0628 -2.6579 -0.4738
  929MOL0     H28187   8.367   3.327   0.209  3.3255  1.7238 -0.4753
  929MOL0     H28188   7.932   3.153   0.072  1.5326  1.1006 -1.5784
  929MOL0     H28189   7.883   2.968  -0.073 -0.7352 -0.1957  1.7851
  929MOL0     H28190   7.927   2.628  -0.236 -1.0619 -0.0281  1.6067
  929MOL0     H28191   7.833   2.744  -0.145 -2.1124 -0.7184 -3.7414
  929MOL0     H28192   7.954   2.922  -0.285 -0.3222  0.5729 -0.0454
  929MOL0     H28193   7.831   2.828  -0.359 -0.2957  2.3742  0.5847
  929MOL0     H28194   8.132   2.770  -0.370  0.1712 -0.5691 -0.4200
  929MOL0     H28195   8.015   2.678  -0.459  2.6158  0.2663 -0.9686
  929MOL0     H28196   8.058   2.975  -0.505  0.6297 -2.1735  4.4342
  929MOL0     H28197   7.948   2.865  -0.596  0.6239 -0.9878 -1.1326
  929MOL0     H28198   8.320   2.801  -0.761 -1.4649 -0.8606 -1.8544
  929MOL0     H28199   8.270   2.790   0.029  0.1399  0.0306  0.7622
  929MOL0     H28200   8.379   2.893   0.215 -0.3932  0.0127 -1.0050
  929MOL0     H28201   8.429   3.018   0.095 -0.7569 -0.5225 -0.4036
  929MOL0     H28202   8.373   3.059   0.260  1.1398 -0.7738  0.7149
  930MOL0     O28203   0.354   1.999   5.893 -0.3224 -0.3478 -0.6501
  930MOL0     C28204   0.359   1.946   5.783  0.4518 -0.1893 -0.0692
  930MOL0     O28205   0.455   1.967   5.697 -0.4413 -0.4813 -0.1784
  930MOL0     C28206   0.566   2.026   5.735  0.3067  0.6274 -0.1131
  930MOL0     C28207   0.697   1.972   5.716  1.0514 -0.1680 -0.1752
  930MOL0     C28208   0.813   2.049   5.759  0.0778  0.4026  1.1048
  930MOL0     C28209   0.803   2.178   5.801  0.7003  0.5746 -0.9827
  930MOL0     O28210   0.908   2.249   5.856 -0.1182  0.2769 -0.2633
  930MOL0     C28211   0.942   2.208   5.980 -0.0426 -1.2218 -0.3910
  930MOL0     C28212   1.058   2.313   6.021  1.0393  0.6441  0.1400
  930MOL0     C28213   1.130   2.272   6.144 -0.2790 -0.6220  1.0408
  930MOL0     C28214   1.252   2.370   6.142  0.0322 -0.3647 -0.9316
  930MOL0     C28215   1.338   2.337   6.264 -0.6645 -0.1754 -0.2121
  930MOL0     C28216   1.435   2.447   6.310  0.5798 -0.1086 -0.3656
  930MOL0     C28217   1.514   2.410   6.431 -0.3194 -0.6608 -0.4789
  930MOL0     C28218   1.627   2.307   6.402  1.0183 -0.2102  0.4344
  930MOL0     N28219   1.696   2.270   6.520 -1.3656  0.6281 -0.2603
  930MOL0     C28220   1.808   2.327   6.592  0.6626  0.2265  0.0029
  930MOL0     C28221   1.832   2.239   6.690 -1.3163 -0.8073 -0.0737
  930MOL0     C28222   1.927   2.272   6.803 -0.4995 -0.4878  0.1800
  930MOL0     C28223   2.071   2.241   6.781 -0.4549  0.5456 -0.5065
  930MOL0     C28224   2.083   2.095   6.795 -0.0923  1.0893  0.5939
  930MOL0     C28225   2.138   2.018   6.669 -0.4312  0.8193  0.0072
  930MOL0     O28226   2.281   2.017   6.632 -1.1281 -0.1289 -0.0361
  930MOL0     C28227   2.364   1.936   6.703  0.0355 -0.0229  0.3324
  930MOL0     C28228   2.483   1.918   6.632  0.3650 -0.9018 -0.4839
  930MOL0     C28229   2.591   1.843   6.685 -0.4144 -0.5284 -1.0068
  930MOL0     C28230   2.714   1.833   6.595  0.1600  0.0070  0.4506
  930MOL0     C28231   2.586   1.794   6.813 -0.5301 -1.3852 -0.1651
  930MOL0     C28232   2.696   1.736   6.886  0.3356 -0.2562 -0.2163
  930MOL0     O28233   2.668   1.647   6.993  0.0309 -0.0051 -0.2120
  930MOL0     C28234   2.777   1.613   7.070 -0.4867 -0.2447  0.0324
  930MOL0     C28235   2.876   1.540   7.005 -0.2793  0.4790  0.4621
  930MOL0     C28236   2.994   1.500   7.069 -0.1725 -0.8419  0.5388
  930MOL0     C28237   3.017   1.533   7.199  0.0067 -0.8455 -0.0238
  930MOL0     O28238   3.132   1.484   7.257  0.2569 -0.2046 -0.2263
  930MOL0     C28239   3.155   1.505   7.396 -0.2885 -0.6232  0.5418
  930MOL0     C28240   3.279   1.420   7.438  0.3341  0.2853 -0.1311
  930MOL0     C28241   3.326   1.414   7.587  0.3362 -0.1993  0.3572
  930MOL0     C28242   3.393   1.541   7.646 -0.7046 -0.3323 -1.0546
  930MOL0     C28243   3.398   1.536   7.794 -0.4772 -0.1481 -0.5266
  930MOL0     C28244   3.441   1.675   7.846 -0.0864 -0.5832  0.0884
  930MOL0     C28245   3.489   1.651   7.995 -0.9214 -0.0857  0.6436
  930MOL0     C28246   3.514   1.779   8.065  0.0667  0.7273 -0.6758
  930MOL0    Cl28247   3.365   1.889   8.093  0.4003 -0.0323 -0.0162
  930MOL0     C28248   2.922   1.615   7.261  0.4450  0.7681  0.0648
  930MOL0     C28249   2.802   1.658   7.199 -0.2293 -0.2041 -0.0221
  930MOL0     O28250   2.807   1.776   6.853 -0.2428  0.3949  0.3536
  930MOL0     C28251   2.459   1.799   6.879 -0.3358 -0.7127  0.8561
  930MOL0     C28252   2.352   1.880   6.827  0.0814  0.6286  0.7687
  930MOL0     N28253   1.743   2.138   6.687 -0.2867  0.2719 -0.1310
  930MOL0     N28254   1.664   2.157   6.590 -1.1016  0.1841 -0.3746
  930MOL0     C28255   0.673   2.228   5.820 -0.0985 -0.5881  0.9205
  930MOL0     C28256   0.562   2.158   5.783  0.0593 -0.1254 -0.7994
  930MOL0     C28257   0.251   1.852   5.747 -0.2963 -0.1359  0.1289
  930MOL0     C28258   0.126   1.874   5.810  0.4466 -0.6706  0.0264
  930MOL0     C28259   0.019   1.781   5.779  0.5343  0.5324 -0.8374
  930MOL0     C28260   0.039   1.680   5.688 -0.5070  0.5009  0.3037
  930MOL0     O28261  -0.065   1.607   5.635 -0.1331  0.3856  0.1382
  930MOL0     C28262  -0.183   1.601   5.722  1.0226 -0.2296 -0.3612
  930MOL0     C28263  -0.265   1.483   5.675 -0.4758  0.8021  0.3185
  930MOL0     C28264  -0.191   1.348   5.681 -0.1170  0.2100 -0.4664
  930MOL0     C28265  -0.280   1.226   5.644 -0.5432 -0.1839  0.5862
  930MOL0     C28266  -0.206   1.114   5.699  1.0274  0.5642 -0.0172
  930MOL0     C28267  -0.139   1.018   5.727 -0.5456 -0.2165 -1.1140
  930MOL0     C28268   0.171   1.662   5.631 -0.1055 -0.7425  0.0580
  930MOL0     C28269   0.280   1.747   5.659 -0.0474 -0.0860  0.9874
  930MOL0     C28270   0.420   1.699   5.616  0.1875 -0.2634  0.4737
  930MOL0     H28271   0.704   1.872   5.674 -3.8244 -2.0644  2.6190
  930MOL0     H28272   0.914   2.009   5.753 -0.1882 -0.1074 -0.4791
  930MOL0     H28273   0.983   2.107   5.985 -0.2685 -1.2496  1.3214
  930MOL0     H28274   0.856   2.216   6.047  1.3433  0.3659  1.3242
  930MOL0     H28275   1.126   2.325   5.936  0.1578 -3.7927 -1.5065
  930MOL0     H28276   1.013   2.412   6.034 -1.8841 -0.7251  1.3231
  930MOL0     H28277   1.067   2.279   6.233  1.3769  0.3616  2.1909
  930MOL0     H28278   1.173   2.174   6.121  0.6994  0.1467 -0.4945
  930MOL0     H28279   1.305   2.342   6.051  1.2861 -1.0521 -0.0315
  930MOL0     H28280   1.221   2.475   6.145  1.4554  0.1482 -2.6431
  930MOL0     H28281   1.397   2.251   6.231 -1.9000 -1.8972  1.7880
  930MOL0     H28282   1.282   2.294   6.348  1.2168 -2.6052 -0.0946
  930MOL0     H28283   1.512   2.463   6.233  0.1032 -3.4417 -1.7044
  930MOL0     H28284   1.376   2.538   6.325 -2.3174 -1.8952 -0.3498
  930MOL0     H28285   1.448   2.377   6.511 -0.8022 -0.4319 -0.7755
  930MOL0     H28286   1.558   2.506   6.458  1.7377 -1.4501 -0.7617
  930MOL0     H28287   1.572   2.220   6.368 -1.5520  0.6953  1.9609
  930MOL0     H28288   1.706   2.342   6.334  3.7385 -3.2564  1.7917
  930MOL0     H28289   1.846   2.427   6.574 -0.4686  0.2349 -2.9287
  930MOL0     H28290   1.887   2.231   6.896 -1.1465  0.9114  0.5520
  930MOL0     H28291   1.932   2.381   6.810 -2.5364 -0.3984  0.9626
  930MOL0     H28292   2.112   2.284   6.689  1.3490  1.4797  0.6640
  930MOL0     H28293   2.126   2.280   6.867  1.1094 -0.0207 -1.2096
  930MOL0     H28294   2.148   2.075   6.880 -0.0649  1.5398  0.6812
  930MOL0     H28295   1.997   2.034   6.823  2.5900 -3.0992  0.5812
  930MOL0     H28296   2.112   1.913   6.684  1.5001  0.1014 -1.2362
  930MOL0     H28297   2.093   2.059   6.579 -0.3201  1.4003  0.2127
  930MOL0     H28298   2.493   1.961   6.533 -2.5306 -1.7934 -1.2665
  930MOL0     H28299   2.764   1.737   6.609  0.8592  0.1412 -0.9306
  930MOL0     H28300   2.786   1.912   6.616 -0.9785  0.7524  1.6948
  930MOL0     H28301   2.677   1.840   6.492  0.3160  0.8217  0.4422
  930MOL0     H28302   2.871   1.513   6.900  1.5487 -2.5401  1.0432
  930MOL0     H28303   3.074   1.451   7.014  0.6988 -0.0843  1.0987
  930MOL0     H28304   3.187   1.609   7.401  2.1567 -1.1149 -2.1722
  930MOL0     H28305   3.068   1.482   7.457 -0.7971  1.7358  0.8053
  930MOL0     H28306   3.270   1.317   7.402  1.0667 -0.3440  1.3960
  930MOL0     H28307   3.356   1.450   7.366 -1.1887  0.7243 -1.6352
  930MOL0     H28308   3.402   1.335   7.583  0.3121 -0.3607  2.2022
  930MOL0     H28309   3.242   1.382   7.649  1.4900  0.0024  2.0909
  930MOL0     H28310   3.346   1.635   7.617  1.2109  0.8121 -0.6300
  930MOL0     H28311   3.499   1.544   7.619 -0.6299  0.2063 -0.7100
  930MOL0     H28312   3.297   1.515   7.829 -1.4091  0.3213 -2.7802
  930MOL0     H28313   3.469   1.455   7.813 -3.4820 -3.0352 -0.8467
  930MOL0     H28314   3.349   1.734   7.848  0.4377  0.2559  0.1685
  930MOL0     H28315   3.517   1.731   7.790  0.5009 -0.4717  0.9792
  930MOL0     H28316   3.583   1.595   8.006 -0.3194  1.3415  4.3164
  930MOL0     H28317   3.407   1.592   8.038 -1.3303 -0.5699 -0.7502
  930MOL0     H28318   3.596   1.834   8.017  1.4386  0.4842  1.2751
  930MOL0     H28319   3.555   1.759   8.164  1.7264  0.3952 -1.4049
  930MOL0     H28320   2.932   1.647   7.364 -0.1886 -1.1251  0.7498
  930MOL0     H28321   2.737   1.725   7.254  0.1768  1.1719 -1.1512
  930MOL0     H28322   2.440   1.753   6.976  2.2352 -0.7534  1.4035
  930MOL0     H28323   2.266   1.903   6.889 -0.5848  0.1003  0.0447
  930MOL0     H28324   0.660   2.323   5.871  0.4720 -0.7813  1.4359
  930MOL0     H28325   0.471   2.216   5.794  1.3692  1.8784  0.2251
  930MOL0     H28326   0.111   1.953   5.883 -1.0111 -2.3911  1.7027
  930MOL0     H28327  -0.079   1.818   5.808  1.0288  0.5021  0.9571
  930MOL0     H28328  -0.162   1.600   5.829 -1.9521  0.3656  0.3077
  930MOL0     H28329  -0.256   1.678   5.698  0.4311 -0.6939 -0.0700
  930MOL0     H28330  -0.287   1.501   5.569  2.4148 -0.2866 -0.5686
  930MOL0     H28331  -0.355   1.475   5.736 -0.2786  1.1747  0.6640
  930MOL0     H28332  -0.098   1.351   5.624  0.0649  3.7617 -0.2183
  930MOL0     H28333  -0.162   1.333   5.785 -0.1312  1.5979 -0.2429
  930MOL0     H28334  -0.299   1.222   5.536 -1.2139 -0.2641  0.7086
  930MOL0     H28335  -0.381   1.238   5.684 -0.2621  1.3148  0.9065
  930MOL0     H28336  -0.079   0.943   5.774 -0.1401  0.7395 -0.0882
  930MOL0     H28337   0.176   1.576   5.564 -1.4499 -1.7506  1.1801
  930MOL0     H28338   0.483   1.696   5.706 -1.6013  0.2657  1.8077
  930MOL0     H28339   0.409   1.597   5.578  1.0233 -0.8432  1.7127
  930MOL0     H28340   0.444   1.767   5.534  0.5728  1.2170  1.7829
  931MOL0     O28341   8.334  10.142   7.901 -0.4553  0.1099  0.2681
  931MOL0     C28342   8.331  10.220   7.995  0.3426  0.6206  0.2439
  931MOL0     O28343   8.421  10.331   8.007  0.2142  0.0589  0.1546
  931MOL0     C28344   8.538  10.331   7.935  0.0477  0.6033 -1.0565
  931MOL0     C28345   8.547  10.389   7.804 -0.4057 -0.4954  0.1066
  931MOL0     C28346   8.666  10.382   7.734  0.1253 -0.4749 -0.0113
  931MOL0     C28347   8.766  10.295   7.779  0.1229  0.2737  0.0617
  931MOL0     O28348   8.889  10.308   7.714  0.1255 -0.6520  0.3500
  931MOL0     C28349   9.010  10.235   7.754 -0.2293 -0.3544 -0.5237
  931MOL0     C28350   9.097  10.228   7.622  0.6810 -0.3971 -0.6611
  931MOL0     C28351   9.231  10.164   7.650  0.4758 -0.6078  0.3951
  931MOL0     C28352   9.288  10.125   7.513  0.1056  0.1527 -0.5380
  931MOL0     C28353   9.425  10.069   7.508  0.2005  0.0812 -0.0777
  931MOL0     C28354   9.523  10.182   7.539  0.2558 -0.0194  0.4045
  931MOL0     C28355   9.655  10.143   7.473 -0.6203  0.4506  0.1020
  931MOL0     C28356   9.762  10.259   7.473 -0.4602 -0.0577 -0.0776
  931MOL0     N28357   9.891  10.228   7.408 -0.2148 -0.1290 -0.2196
  931MOL0     C28358   9.999  10.300   7.442 -0.0450 -1.1952  0.6013
  931MOL0     C28359  10.099  10.231   7.384  0.4046  0.6575  0.6621
  931MOL0     C28360  10.239  10.279   7.397 -0.6355 -1.0119  0.3479
  931MOL0     C28361  10.297  10.320   7.257 -0.5489 -0.2611  0.9516
  931MOL0     C28362  10.201  10.412   7.177 -0.1265 -0.2519  0.4568
  931MOL0     C28363  10.254  10.453   7.046  0.3807  0.0625  0.4992
  931MOL0     O28364  10.386  10.500   7.041 -0.2001 -0.1488 -0.1150
  931MOL0     C28365  10.420  10.624   7.078 -0.0397 -1.1131  0.3547
  931MOL0     C28366  10.554  10.659   7.089 -0.3946  0.2622 -0.5868
  931MOL0     C28367  10.592  10.784   7.123  0.0085  0.8611 -0.9089
  931MOL0     C28368  10.741  10.817   7.120  0.5077  0.0189 -0.3404
  931MOL0     C28369  10.500  10.882   7.170  0.2402  0.6610  0.0460
  931MOL0     C28370  10.530  11.018   7.223 -0.3485 -0.8474 -0.2862
  931MOL0     O28371  10.493  11.123   7.142 -0.2812  0.9030  0.1234
  931MOL0     C28372  10.532  11.245   7.188 -0.5465 -0.4358 -0.5687
  931MOL0     C28373  10.668  11.286   7.196 -0.7777  0.8204  0.5772
  931MOL0     C28374  10.707  11.415   7.243 -0.1934  0.2615 -0.4720
  931MOL0     C28375  10.602  11.510   7.286  0.0403 -0.2461 -0.3731
  931MOL0     O28376  10.625  11.637   7.334  0.0286 -0.4847 -0.3767
  931MOL0     C28377  10.744  11.708   7.278  0.1509  0.1187  0.2848
  931MOL0     C28378  10.699  11.800   7.161 -0.0723  0.8922  0.3181
  931MOL0     C28379  10.734  11.945   7.173  0.6578  0.0253  0.0304
  931MOL0     C28380  10.713  12.030   7.043  0.2957  1.0000 -0.9357
  931MOL0     C28381  10.771  12.165   7.063 -0.2411  0.1065  0.0676
  931MOL0     C28382  10.735  12.265   6.947 -0.6074  0.0025 -0.1146
  931MOL0     C28383  10.791  12.408   6.957 -0.2808 -0.2454 -0.5218
  931MOL0     C28384  10.746  12.500   6.842  0.2804  0.7213 -0.0907
  931MOL0    Cl28385  10.574  12.491   6.808 -0.5423  0.1881 -0.2421
  931MOL0     C28386  10.469  11.459   7.284  0.1139 -0.1099 -0.0752
  931MOL0     C28387  10.434  11.327   7.237  0.2497 -0.0831 -0.2597
  931MOL0     O28388  10.602  11.023   7.323  0.4013 -0.5808 -0.4252
  931MOL0     C28389  10.364  10.840   7.163  0.1330  0.1550 -0.1402
  931MOL0     C28390  10.320  10.710   7.112  0.2682  0.0390  0.1654
  931MOL0     N28391  10.047  10.116   7.318 -0.2299 -0.7302 -0.5744
  931MOL0     N28392   9.915  10.116   7.335 -0.9851  0.6311 -0.5590
  931MOL0     C28393   8.755  10.224   7.903  0.7386  0.3173  0.3558
  931MOL0     C28394   8.643  10.248   7.980  0.9629  0.1641  0.0097
  931MOL0     C28395   8.226  10.207   8.094 -0.5582  0.5121 -0.6486
  931MOL0     C28396   8.170  10.323   8.150 -0.1513 -0.7831 -0.7408
  931MOL0     C28397   8.070  10.327   8.256 -0.6474 -0.5569  1.5698
  931MOL0     C28398   8.025  10.212   8.300 -0.0258  0.5560  0.8503
  931MOL0     O28399   7.915  10.213   8.378 -0.0238 -0.7887  0.6549
  931MOL0     C28400   7.786  10.156   8.320 -0.1246 -0.4198 -0.2944
  931MOL0     C28401   7.683  10.266   8.306  0.6196 -0.4170  0.2702
  931MOL0     C28402   7.597  10.286   8.174  0.5058  0.3332 -0.0509
  931MOL0     C28403   7.677  10.338   8.053 -0.5798 -0.4179 -1.2298
  931MOL0     C28404   7.783  10.251   8.009  0.5892 -1.2956  0.3063
  931MOL0     C28405   7.867  10.177   7.966 -0.1074  0.0819 -0.5619
  931MOL0     C28406   8.079  10.092   8.241  1.0769 -0.5148 -0.3221
  931MOL0     C28407   8.172  10.083   8.144 -0.2534  0.5608  0.3846
  931MOL0     C28408   8.228   9.946   8.107 -0.9363  0.0314  0.8280
  931MOL0     H28409   8.473  10.461   7.771  3.7717  5.1626  1.4517
  931MOL0     H28410   8.678  10.436   7.641  0.9940 -0.4735  0.0917
  931MOL0     H28411   8.989  10.137   7.798  2.1268 -1.1146 -0.9587
  931MOL0     H28412   9.067  10.287   7.832 -1.5799  1.5046 -0.7133
  931MOL0     H28413   9.051  10.169   7.542 -0.8939 -0.1784  0.0437
  931MOL0     H28414   9.126  10.326   7.583 -0.0463  0.3321  0.5641
  931MOL0     H28415   9.305  10.229   7.698  2.4643 -2.5926  0.1864
  931MOL0     H28416   9.221  10.074   7.711  0.0130 -0.6094  0.3200
  931MOL0     H28417   9.226  10.047   7.468 -0.0243 -2.2020  3.2552
  931MOL0     H28418   9.294  10.215   7.451 -0.2924  1.3789  1.1348
  931MOL0     H28419   9.435  10.050   7.401  1.3262 -0.0117  0.0260
  931MOL0     H28420   9.448   9.987   7.577  0.1726 -0.9130 -1.2175
  931MOL0     H28421   9.490  10.276   7.494  0.8296  1.0191  2.0371
  931MOL0     H28422   9.533  10.199   7.647 -1.5696 -2.3779  1.0118
  931MOL0     H28423   9.639  10.110   7.370 -1.8774  0.0101  0.4186
  931MOL0     H28424   9.685  10.054   7.529 -0.1040 -1.0058 -2.3462
  931MOL0     H28425   9.717  10.338   7.413  1.1508  0.1284 -1.1008
  931MOL0     H28426   9.781  10.281   7.579 -1.7297 -3.1015  0.9117
  931MOL0     H28427   9.999  10.385   7.509 -3.6268 -2.0146  1.8752
  931MOL0     H28428  10.309  10.208   7.442 -0.5930  0.0619  2.0762
  931MOL0     H28429  10.241  10.376   7.449  0.6245 -0.4634 -0.6797
  931MOL0     H28430  10.392  10.369   7.276 -0.5100 -0.8492  2.4772
  931MOL0     H28431  10.321  10.230   7.200 -1.3224 -1.0861  1.8876
  931MOL0     H28432  10.102  10.365   7.179 -0.6745  0.8664  2.5930
  931MOL0     H28433  10.187  10.504   7.234  1.2953 -0.0963  0.5846
  931MOL0     H28434  10.270  10.367   6.980  2.1766 -1.0918  2.3372
  931MOL0     H28435  10.185  10.521   6.993  1.8973 -0.8392 -2.9391
  931MOL0     H28436  10.631  10.592   7.053 -0.4647 -0.5515  0.7256
  931MOL0     H28437  10.762  10.918   7.084  3.1838 -1.1470 -2.4776
  931MOL0     H28438  10.789  10.752   7.046 -0.5217  0.0004 -1.0111
  931MOL0     H28439  10.792  10.800   7.215 -1.3665 -2.6635  0.2908
  931MOL0     H28440  10.743  11.215   7.161 -0.7197 -0.2935  2.7860
  931MOL0     H28441  10.812  11.440   7.253  0.5102 -2.5030 -0.2129
  931MOL0     H28442  10.800  11.763   7.354 -0.1808  0.1930  0.4749
  931MOL0     H28443  10.821  11.646   7.231  0.6121  0.8331  0.0891
  931MOL0     H28444  10.748  11.761   7.071 -0.1998 -0.2112  0.7051
  931MOL0     H28445  10.594  11.782   7.135  0.4943 -0.1058 -1.4884
  931MOL0     H28446  10.839  11.927   7.200  0.0221 -2.1357  1.2795
  931MOL0     H28447  10.675  11.980   7.258  0.6339  1.3107 -0.4870
  931MOL0     H28448  10.609  12.033   7.010  0.6014  0.6646 -1.9935
  931MOL0     H28449  10.766  11.973   6.966  0.5011 -2.6253  1.6234
  931MOL0     H28450  10.731  12.206   7.157 -0.3827  1.8411 -0.7121
  931MOL0     H28451  10.880  12.166   7.075  0.0776 -1.9601 -2.0704
  931MOL0     H28452  10.628  12.267   6.925 -0.7412 -1.6019  0.2322
  931MOL0     H28453  10.780  12.207   6.866  2.0149  2.1480 -0.3497
  931MOL0     H28454  10.898  12.410   6.977 -1.0808 -0.1110  5.3788
  931MOL0     H28455  10.740  12.441   7.048 -1.4655 -0.9408 -0.9085
  931MOL0     H28456  10.805  12.479   6.752 -1.1530  1.2447 -1.2013
  931MOL0     H28457  10.759  12.604   6.872 -0.7025  0.7053  0.4388
  931MOL0     H28458  10.395  11.538   7.294  0.1649 -0.0616 -0.0778
  931MOL0     H28459  10.330  11.297   7.228 -0.2525  1.9623 -2.2995
  931MOL0     H28460  10.284  10.904   7.200 -2.5343 -1.0041 -3.3578
  931MOL0     H28461  10.214  10.688   7.126 -0.2228  2.5060  0.8366
  931MOL0     H28462   8.829  10.150   7.930 -2.3040 -1.9668  3.2660
  931MOL0     H28463   8.639  10.195   8.075  1.5150 -0.3798 -0.2605
  931MOL0     H28464   8.200  10.422   8.116  1.5973 -1.7660 -2.2677
  931MOL0     H28465   8.033  10.425   8.282 -0.5762 -0.8870  2.9780
  931MOL0     H28466   7.807  10.099   8.229  3.5885 -0.1937  0.2976
  931MOL0     H28467   7.740  10.086   8.391 -1.1557 -0.6676 -1.1761
  931MOL0     H28468   7.735  10.360   8.326  2.8533 -1.7017  0.9468
  931MOL0     H28469   7.607  10.243   8.382  1.4451 -0.8194  0.9971
  931MOL0     H28470   7.556  10.189   8.146 -0.8081 -0.2658  3.3745
  931MOL0     H28471   7.515  10.353   8.201  2.2609  1.7246  2.2901
  931MOL0     H28472   7.725  10.431   8.085 -0.0702 -0.8143 -0.8268
  931MOL0     H28473   7.607  10.350   7.970  1.4092 -1.9234 -3.2464
  931MOL0     H28474   7.940  10.103   7.938  0.1870  0.1966 -0.1053
  931MOL0     H28475   8.042  10.002   8.288  2.0665 -1.0052 -0.4682
  931MOL0     H28476   8.187   9.879   8.184  0.4113 -2.4547 -0.4672
  931MOL0     H28477   8.186   9.915   8.010 -2.2346 -4.5908  2.5734
  931MOL0     H28478   8.337   9.947   8.101 -0.9005 -2.6960 -0.8991
  932MOL0     O28479   3.577   6.910  10.272  0.3309  0.4871 -0.0117
  932MOL0     C28480   3.565   6.880  10.388 -0.4553  0.5771 -0.3194
  932MOL0     O28481   3.651   6.922  10.489  0.0024  0.4494 -0.0429
  932MOL0     C28482   3.773   6.975  10.452 -0.4382  0.0162 -0.1890
  932MOL0     C28483   3.884   6.885  10.452 -0.7174  0.7237  0.0714
  932MOL0     C28484   4.006   6.945  10.417 -0.7739  0.2708  0.1636
  932MOL0     C28485   4.024   7.080  10.379  0.9339 -0.4374  0.1031
  932MOL0     O28486   4.150   7.107  10.348 -0.0128 -0.7440  0.4273
  932MOL0     C28487   4.168   7.227  10.277 -0.6617  0.3042 -0.5698
  932MOL0     C28488   4.301   7.222  10.205 -0.2555  0.2951  0.9402
  932MOL0     C28489   4.316   7.115  10.098 -0.0947 -0.3910 -0.7021
  932MOL0     C28490   4.442   7.144  10.009  1.0283  0.3105  0.6690
  932MOL0     C28491   4.574   7.122  10.080 -0.0647  0.2103 -0.1331
  932MOL0     C28492   4.685   7.103   9.975 -0.1540 -1.2824  0.5048
  932MOL0     C28493   4.815   7.123  10.043 -0.2044 -0.4699  0.2659
  932MOL0     C28494   4.929   7.084   9.942 -0.3502  0.1259 -0.7270
  932MOL0     N28495   4.913   6.960   9.872  0.1480  0.0431  0.8845
  932MOL0     C28496   4.880   6.962   9.738  1.0021  0.8830 -0.6698
  932MOL0     C28497   4.878   6.826   9.706  0.1251 -0.9437 -0.9237
  932MOL0     C28498   4.863   6.756   9.560  1.2546 -0.6101 -0.0323
  932MOL0     C28499   4.984   6.785   9.472 -0.0087 -0.0243  0.4590
  932MOL0     C28500   5.119   6.708   9.491 -0.5448  0.5094  1.4734
  932MOL0     C28501   5.207   6.746   9.377 -0.2480 -0.2853  0.4985
  932MOL0     O28502   5.338   6.692   9.387  0.4534 -0.0502  0.0748
  932MOL0     C28503   5.409   6.698   9.267  0.1436 -0.6343 -0.5963
  932MOL0     C28504   5.530   6.762   9.273 -0.3295 -0.7540  0.0351
  932MOL0     C28505   5.611   6.776   9.156  0.1679  0.0415 -0.0062
  932MOL0     C28506   5.728   6.868   9.166 -0.0933  0.1886  0.3170
  932MOL0     C28507   5.571   6.709   9.037 -0.3923  0.5624  0.6872
  932MOL0     C28508   5.658   6.689   8.919 -0.0442 -0.8266 -1.0122
  932MOL0     O28509   5.796   6.696   8.939  0.1059  0.0232  0.7332
  932MOL0     C28510   5.877   6.663   8.834 -0.6025  1.0489 -0.2553
  932MOL0     C28511   5.987   6.740   8.813 -0.2042  0.2575 -0.8301
  932MOL0     C28512   6.093   6.695   8.743 -0.9606  0.1120  0.9441
  932MOL0     C28513   6.091   6.558   8.693 -0.8426 -0.3016 -0.3211
  932MOL0     O28514   6.211   6.517   8.641  0.4891 -0.0734  0.2756
  932MOL0     C28515   6.322   6.486   8.723 -0.4764  0.5030 -1.1382
  932MOL0     C28516   6.415   6.430   8.625 -0.7423 -0.3916  0.0060
  932MOL0     C28517   6.462   6.525   8.506 -0.8733 -0.7869 -0.8756
  932MOL0     C28518   6.537   6.441   8.405 -0.0370 -0.6623  1.0556
  932MOL0     C28519   6.609   6.538   8.307 -0.2068 -0.6554  0.0839
  932MOL0     C28520   6.601   6.500   8.165  0.5544 -0.6002 -0.5735
  932MOL0     C28521   6.662   6.362   8.132 -0.0396  0.0935  0.0782
  932MOL0     C28522   6.625   6.310   7.988 -0.7278 -0.1770 -0.8147
  932MOL0    Cl28523   6.738   6.409   7.874 -0.0319 -0.1522  0.0456
  932MOL0     C28524   5.982   6.476   8.701 -0.8599  0.4341 -0.3169
  932MOL0     C28525   5.881   6.529   8.781  0.4931 -0.3681 -1.0855
  932MOL0     O28526   5.605   6.663   8.812  0.4179 -0.3893 -0.2584
  932MOL0     C28527   5.446   6.650   9.037  0.2749 -0.2599 -0.1999
  932MOL0     C28528   5.370   6.635   9.149 -0.3939 -0.8638 -0.0711
  932MOL0     N28529   4.900   6.749   9.827  0.4216 -0.4129  0.2227
  932MOL0     N28530   4.911   6.828   9.919 -0.3594  0.9841 -0.0432
  932MOL0     C28531   3.909   7.161  10.393 -0.0924  0.0487 -0.5022
  932MOL0     C28532   3.790   7.106  10.431 -0.1363  0.6621  0.0717
  932MOL0     C28533   3.437   6.822  10.439 -0.4522  0.0047 -0.4928
  932MOL0     C28534   3.404   6.835  10.580  0.4805  0.3080 -0.2164
  932MOL0     C28535   3.289   6.780  10.630 -0.2202  0.4594  0.7731
  932MOL0     C28536   3.196   6.719  10.549 -0.2654 -0.4487 -0.0751
  932MOL0     O28537   3.088   6.669  10.614 -0.2117  0.2575  0.1782
  932MOL0     C28538   2.978   6.608  10.546 -0.4187 -0.0437 -0.1188
  932MOL0     C28539   2.890   6.532  10.644  0.6690  0.3304 -0.3391
  932MOL0     C28540   2.951   6.463  10.770 -0.7551 -0.4241 -0.2154
  932MOL0     C28541   2.839   6.385  10.837  0.6383  0.6578  1.4828
  932MOL0     C28542   2.890   6.312  10.950  0.4371  0.6890 -1.0181
  932MOL0     C28543   2.942   6.278  11.054 -1.1418  0.0114 -0.4276
  932MOL0     C28544   3.214   6.723  10.407  0.2829  0.3824 -0.1957
  932MOL0     C28545   3.341   6.764  10.349  0.3562  0.0625  0.3886
  932MOL0     C28546   3.349   6.764  10.199 -0.0790 -0.0474 -0.6943
  932MOL0     H28547   3.867   6.786  10.492  3.3385 -0.6786 -1.2014
  932MOL0     H28548   4.095   6.883  10.419 -0.1462  1.1389  2.3578
  932MOL0     H28549   4.175   7.311  10.346  1.6028 -0.7236  0.5550
  932MOL0     H28550   4.088   7.239  10.203 -0.5184 -2.4940 -1.2672
  932MOL0     H28551   4.302   7.322  10.160  2.2814 -0.3063 -0.5240
  932MOL0     H28552   4.388   7.212  10.270  0.7597  0.1371 -0.4132
  932MOL0     H28553   4.332   7.019  10.148 -1.2051 -0.1784  0.1285
  932MOL0     H28554   4.229   7.102  10.032  0.7298 -1.8627 -1.5349
  932MOL0     H28555   4.440   7.072   9.927  0.9459 -0.4918  1.3652
  932MOL0     H28556   4.435   7.244   9.964  3.2266  0.1107 -0.2778
  932MOL0     H28557   4.568   7.034  10.145  0.4571  1.2794  1.4050
  932MOL0     H28558   4.593   7.209  10.144  1.5105 -1.5336  1.9160
  932MOL0     H28559   4.681   6.999   9.941 -0.0894 -0.9671 -0.4855
  932MOL0     H28560   4.677   7.165   9.886 -0.8402 -4.2629 -1.6354
  932MOL0     H28561   4.813   7.064  10.134  0.5744 -2.7602 -1.1211
  932MOL0     H28562   4.831   7.226  10.077  0.2112 -0.7667  0.9870
  932MOL0     H28563   4.957   7.163   9.872 -0.1286  1.0794  0.4191
  932MOL0     H28564   5.021   7.078  10.001  0.5188  2.8607 -1.6560
  932MOL0     H28565   4.872   7.044   9.666  0.9154  0.4712 -1.1365
  932MOL0     H28566   4.774   6.791   9.508  1.7916  0.7387 -0.0881
  932MOL0     H28567   4.849   6.649   9.576 -2.4091  0.1638  3.7147
  932MOL0     H28568   4.945   6.747   9.377 -3.0688  0.1126  1.5410
  932MOL0     H28569   4.995   6.893   9.465 -0.6054  0.0618  0.8131
  932MOL0     H28570   5.147   6.736   9.593 -0.5986  1.2578  1.2884
  932MOL0     H28571   5.108   6.600   9.483  3.6034  0.0287  0.2770
  932MOL0     H28572   5.153   6.720   9.285  0.7923  0.4256 -0.3424
  932MOL0     H28573   5.213   6.855   9.367 -1.0674 -0.2568  0.2433
  932MOL0     H28574   5.574   6.809   9.361 -1.5732  2.9088 -1.1248
  932MOL0     H28575   5.713   6.935   9.081  0.1555 -1.0122 -0.6984
  932MOL0     H28576   5.820   6.810   9.160 -0.5398 -0.5109  0.0455
  932MOL0     H28577   5.731   6.917   9.264  0.4741 -1.5257  1.1941
  932MOL0     H28578   5.994   6.846   8.839 -0.7723 -0.4257  2.5405
  932MOL0     H28579   6.165   6.761   8.696  2.1683 -3.5108  0.1275
  932MOL0     H28580   6.350   6.580   8.771 -0.2850  0.1029 -0.4522
  932MOL0     H28581   6.297   6.422   8.809  1.6309  0.6141 -0.3731
  932MOL0     H28582   6.494   6.384   8.685  0.1693  0.4245 -0.5349
  932MOL0     H28583   6.365   6.348   8.572 -3.0946  1.8053 -1.4140
  932MOL0     H28584   6.528   6.609   8.530 -0.3795 -1.7823  1.5293
  932MOL0     H28585   6.376   6.573   8.458  0.4253  1.9566 -0.6714
  932MOL0     H28586   6.468   6.373   8.356  0.3157  0.3602 -0.9729
  932MOL0     H28587   6.617   6.387   8.457  1.5262 -1.5900 -2.0964
  932MOL0     H28588   6.577   6.642   8.319  0.8915 -0.4005  0.9413
  932MOL0     H28589   6.715   6.539   8.335 -0.6393 -2.3364  1.9593
  932MOL0     H28590   6.655   6.578   8.111  2.5391 -2.1274 -0.8889
  932MOL0     H28591   6.502   6.508   8.121  0.6803  0.6067 -0.6696
  932MOL0     H28592   6.618   6.281   8.191  1.4229 -1.6341 -1.1419
  932MOL0     H28593   6.769   6.366   8.149  0.3867 -1.1074 -1.9892
  932MOL0     H28594   6.521   6.325   7.960 -0.6340  2.0998 -0.1570
  932MOL0     H28595   6.648   6.203   7.982 -0.8679 -0.2299 -0.4148
  932MOL0     H28596   5.997   6.377   8.659 -0.0030  0.4560 -0.0920
  932MOL0     H28597   5.808   6.466   8.830 -1.7457  3.4840  0.9617
  932MOL0     H28598   5.425   6.584   8.953  1.4963 -4.0871  2.1983
  932MOL0     H28599   5.276   6.583   9.149 -0.4335 -0.9031 -2.4884
  932MOL0     H28600   3.907   7.267  10.367 -4.0704  1.0123  2.6766
  932MOL0     H28601   3.696   7.158  10.448  0.1667  0.9608  0.8759
  932MOL0     H28602   3.468   6.887  10.651  0.5215 -0.4924  0.3403
  932MOL0     H28603   3.255   6.783  10.733 -1.8827 -0.5483  0.2858
  932MOL0     H28604   2.912   6.687  10.509  0.1547  2.0182  2.8942
  932MOL0     H28605   3.008   6.554  10.456 -4.5524  0.5774 -2.1141
  932MOL0     H28606   2.851   6.451  10.582  3.4845  0.3468 -2.3613
  932MOL0     H28607   2.807   6.600  10.668 -1.2756 -1.4288 -1.7132
  932MOL0     H28608   3.036   6.403  10.738 -1.8327 -2.2813  0.3001
  932MOL0     H28609   2.991   6.534  10.843 -0.3687 -1.9419  1.1101
  932MOL0     H28610   2.797   6.319  10.761  0.1818  2.4436  0.1201
  932MOL0     H28611   2.759   6.452  10.870 -0.2933 -0.8904  2.5197
  932MOL0     H28612   2.979   6.252  11.151 -1.3969  2.2636  0.3263
  932MOL0     H28613   3.141   6.690  10.333 -0.3327 -2.7719  1.6269
  932MOL0     H28614   3.442   6.714  10.170 -0.3454  0.0221 -1.6719
  932MOL0     H28615   3.258   6.718  10.161 -0.3039 -0.5983  0.4632
  932MOL0     H28616   3.354   6.866  10.159  2.1089  0.7029  1.2321
  933MOL0     O28617   7.553   6.570   5.558 -0.0461  0.5547 -0.0946
  933MOL0     C28618   7.561   6.651   5.650 -0.2478  0.8559 -0.3540
  933MOL0     O28619   7.456   6.728   5.687  0.2683 -0.1545 -0.0882
  933MOL0     C28620   7.330   6.679   5.647 -0.6035  0.3516 -0.1863
  933MOL0     C28621   7.289   6.545   5.630  0.2797  0.2947 -0.6136
  933MOL0     C28622   7.166   6.508   5.579  0.0575 -0.7539  0.3831
  933MOL0     C28623   7.068   6.606   5.563 -0.0273 -0.4131 -0.2851
  933MOL0     O28624   6.950   6.561   5.505  0.6655 -0.2909 -0.2057
  933MOL0     C28625   6.833   6.651   5.520  0.1880  0.2552 -0.0287
  933MOL0     C28626   6.703   6.595   5.470 -0.0039  1.4040 -0.2111
  933MOL0     C28627   6.582   6.670   5.513  0.3533  0.0701 -0.4004
  933MOL0     C28628   6.464   6.617   5.429  0.1721  0.0045 -0.5651
  933MOL0     C28629   6.439   6.701   5.309 -0.3196 -0.4445  0.4198
  933MOL0     C28630   6.313   6.666   5.241  0.3830  0.5041 -0.2324
  933MOL0     C28631   6.307   6.733   5.101 -0.5014 -0.3972 -0.1835
  933MOL0     C28632   6.175   6.728   5.028 -0.0608  0.7836 -0.3972
  933MOL0     N28633   6.150   6.597   4.964  0.4040 -0.0894 -0.1154
  933MOL0     C28634   6.095   6.493   5.035 -0.7527  0.6650 -0.3627
  933MOL0     C28635   6.038   6.421   4.939  0.8906  0.5504 -0.1650
  933MOL0     C28636   5.955   6.296   4.975 -0.4234  0.5427  0.0766
  933MOL0     C28637   5.811   6.335   4.946  0.1843 -0.0327 -0.0137
  933MOL0     C28638   5.752   6.438   5.031 -0.1954 -0.1773  0.3008
  933MOL0     C28639   5.598   6.444   4.994  0.3566 -0.0915  0.2422
  933MOL0     O28640   5.564   6.514   4.867  0.0389 -0.0082  0.2585
  933MOL0     C28641   5.431   6.538   4.832 -0.7568  0.6593  0.4072
  933MOL0     C28642   5.321   6.445   4.865 -0.6479  0.0205 -0.5469
  933MOL0     C28643   5.191   6.466   4.819  0.2865 -1.3911  0.0111
  933MOL0     C28644   5.087   6.371   4.873  0.0966 -0.0478  0.4716
  933MOL0     C28645   5.180   6.570   4.728 -0.2599 -0.4096  0.6590
  933MOL0     C28646   5.053   6.607   4.656 -0.1351  1.2139 -0.1792
  933MOL0     O28647   4.972   6.502   4.618 -0.1948  0.6950  0.5020
  933MOL0     C28648   4.846   6.513   4.552  0.2722  0.4266 -1.1546
  933MOL0     C28649   4.766   6.404   4.565  0.0476 -0.4116 -0.3500
  933MOL0     C28650   4.629   6.399   4.518 -0.1757  0.0002  0.7735
  933MOL0     C28651   4.578   6.504   4.441  0.1847  0.1653  0.9863
  933MOL0     O28652   4.453   6.517   4.395 -0.3159 -0.1246  0.0890
  933MOL0     C28653   4.355   6.417   4.418 -0.3264  0.9269  0.9802
  933MOL0     C28654   4.237   6.451   4.332 -0.2922  0.1682  0.0088
  933MOL0     C28655   4.101   6.420   4.400 -0.3870  0.2461  0.6642
  933MOL0     C28656   3.994   6.467   4.298 -0.6210  0.6185  0.3955
  933MOL0     C28657   3.853   6.416   4.341  0.4012 -0.0487 -0.3331
  933MOL0     C28658   3.736   6.521   4.326  0.1367  0.4643  0.4033
  933MOL0     C28659   3.587   6.462   4.353  0.3057 -0.3895  0.9077
  933MOL0     C28660   3.481   6.542   4.282  0.9596  0.4057 -0.9084
  933MOL0    Cl28661   3.327   6.451   4.308  0.0489 -0.3117  0.2688
  933MOL0     C28662   4.669   6.610   4.420  0.6482 -0.2378 -0.0064
  933MOL0     C28663   4.798   6.613   4.469  0.0155  1.2351 -0.1233
  933MOL0     O28664   5.028   6.722   4.636 -0.2764  0.7984  0.6501
  933MOL0     C28665   5.290   6.649   4.686 -0.2874  0.3557 -0.7746
  933MOL0     C28666   5.413   6.638   4.747 -0.7630  0.6060 -0.2481
  933MOL0     N28667   6.062   6.469   4.817  0.1750 -0.3784 -0.2422
  933MOL0     N28668   6.136   6.572   4.833  0.1998 -0.3721  0.0737
  933MOL0     C28669   7.103   6.743   5.583 -0.2672 -0.4422 -0.3322
  933MOL0     C28670   7.233   6.774   5.614  0.0952  0.1149 -0.4939
  933MOL0     C28671   7.698   6.669   5.693  0.9248 -0.1890  0.3770
  933MOL0     C28672   7.722   6.786   5.756 -0.0893  0.6230 -0.3240
  933MOL0     C28673   7.851   6.817   5.806  0.3361 -0.1851  0.5028
  933MOL0     C28674   7.954   6.716   5.792  0.3668  0.0637 -0.5976
  933MOL0     O28675   8.076   6.743   5.840 -0.3366 -0.7992 -0.0710
  933MOL0     C28676   8.082   6.732   5.983 -0.3984 -0.7459 -0.0884
  933MOL0     C28677   8.172   6.616   6.038  0.7981 -0.8832  0.0366
  933MOL0     C28678   8.315   6.620   5.972  0.1327 -0.5049 -0.4345
  933MOL0     C28679   8.403   6.521   6.030  0.2533 -0.4187 -0.3594
  933MOL0     C28680   8.538   6.537   5.979  0.4998 -0.1368 -0.5091
  933MOL0     C28681   8.659   6.547   5.965 -0.6812 -0.4936  0.8132
  933MOL0     C28682   7.930   6.605   5.725  0.9205  0.3251  0.8411
  933MOL0     C28683   7.797   6.570   5.684 -0.7004  1.0498  0.7692
  933MOL0     C28684   7.785   6.431   5.622  0.5790  0.1614 -0.2829
  933MOL0     H28685   7.358   6.470   5.667  1.0209  0.7918 -0.9589
  933MOL0     H28686   7.134   6.408   5.550 -0.2178 -0.6167  0.2175
  933MOL0     H28687   6.850   6.748   5.474 -2.1594  1.2605  1.0763
  933MOL0     H28688   6.819   6.655   5.628 -1.2706 -2.3391 -0.0204
  933MOL0     H28689   6.715   6.569   5.364 -0.4627 -6.3885  1.0684
  933MOL0     H28690   6.696   6.495   5.513 -1.3079  1.8958  0.7623
  933MOL0     H28691   6.556   6.662   5.619  2.0934 -1.1540 -0.0160
  933MOL0     H28692   6.593   6.778   5.498 -2.0331  0.6236  1.2508
  933MOL0     H28693   6.470   6.514   5.392 -1.6303 -0.3600  0.0638
  933MOL0     H28694   6.374   6.618   5.490 -0.9386 -1.6480 -2.0678
  933MOL0     H28695   6.510   6.672   5.231 -2.6318 -2.4362 -1.0859
  933MOL0     H28696   6.431   6.809   5.324  0.9722 -0.1728 -0.6047
  933MOL0     H28697   6.314   6.559   5.216 -0.3319  0.5851 -0.6620
  933MOL0     H28698   6.227   6.695   5.302 -0.7999 -0.5940 -1.3041
  933MOL0     H28699   6.385   6.688   5.039  3.1847  1.3999  2.7773
  933MOL0     H28700   6.330   6.840   5.104  2.7345 -0.9380 -1.7549
  933MOL0     H28701   6.092   6.760   5.091  1.1212  1.0460  1.1019
  933MOL0     H28702   6.189   6.799   4.946  0.2693  1.4665  0.2326
  933MOL0     H28703   6.073   6.480   5.140 -0.9077 -0.5762 -0.5407
  933MOL0     H28704   5.970   6.265   5.079 -1.7721  3.1060  1.1277
  933MOL0     H28705   5.983   6.212   4.911  0.3275 -1.0008  2.3009
  933MOL0     H28706   5.805   6.358   4.839 -0.2367 -3.5115 -0.8458
  933MOL0     H28707   5.747   6.246   4.951  1.0507 -0.7086 -0.6098
  933MOL0     H28708   5.769   6.419   5.137 -2.3503  0.6122  0.8244
  933MOL0     H28709   5.788   6.538   5.006  0.7138 -0.5623  0.0250
  933MOL0     H28710   5.570   6.339   4.990 -0.1909  0.0793 -0.9233
  933MOL0     H28711   5.539   6.481   5.078 -0.6726 -1.3181  0.0878
  933MOL0     H28712   5.340   6.351   4.915  1.2480 -0.0831 -1.3952
  933MOL0     H28713   5.085   6.372   4.982  2.0950 -2.4369  0.6324
  933MOL0     H28714   5.124   6.270   4.853  0.3876 -0.3937  2.5513
  933MOL0     H28715   4.984   6.380   4.838 -0.3113 -4.8040 -0.1514
  933MOL0     H28716   4.797   6.330   4.638  0.0824  0.0725  0.1359
  933MOL0     H28717   4.569   6.311   4.536  1.3933 -0.6301  3.4295
  933MOL0     H28718   4.391   6.315   4.400  0.6829  0.4669  4.6804
  933MOL0     H28719   4.336   6.417   4.526 -2.4017 -4.2218  0.9168
  933MOL0     H28720   4.244   6.559   4.316  2.4880  0.1886  0.8574
  933MOL0     H28721   4.246   6.407   4.232  1.7470  0.3016  0.0926
  933MOL0     H28722   4.088   6.464   4.499 -0.6153 -0.0950  0.7873
  933MOL0     H28723   4.088   6.313   4.415 -1.2231 -0.0117 -1.4891
  933MOL0     H28724   4.016   6.442   4.194 -0.5386 -2.3499  1.0309
  933MOL0     H28725   3.992   6.576   4.306 -0.7881  0.6574 -0.1235
  933MOL0     H28726   3.837   6.325   4.283  0.4156  0.1543 -0.6591
  933MOL0     H28727   3.846   6.398   4.448  0.3068  0.3045 -0.2771
  933MOL0     H28728   3.739   6.548   4.220 -2.3837  0.1858  0.1899
  933MOL0     H28729   3.761   6.612   4.382  1.3331  2.1740 -2.6412
  933MOL0     H28730   3.573   6.466   4.462  2.2909 -1.2490  1.2318
  933MOL0     H28731   3.578   6.360   4.314  0.2525 -0.8180  1.9932
  933MOL0     H28732   3.509   6.546   4.177  0.8134  1.1079 -0.9249
  933MOL0     H28733   3.472   6.646   4.315  1.8876  1.5766 -4.0181
  933MOL0     H28734   4.632   6.692   4.359  0.2297 -0.2926  0.1668
  933MOL0     H28735   4.858   6.699   4.443  1.1061  0.9282  1.2573
  933MOL0     H28736   5.291   6.715   4.600  0.9650  1.0508 -0.2672
  933MOL0     H28737   5.495   6.704   4.721  0.5111 -0.5789  0.6330
  933MOL0     H28738   7.029   6.822   5.577  1.5372  1.2025 -2.5114
  933MOL0     H28739   7.260   6.874   5.645 -0.9026  0.3249 -0.2599
  933MOL0     H28740   7.636   6.842   5.791  1.0852  2.0181  0.4244
  933MOL0     H28741   7.871   6.909   5.859  1.0900 -0.4587  0.7074
  933MOL0     H28742   8.129   6.826   6.012  1.1503 -0.1215 -4.0329
  933MOL0     H28743   7.981   6.717   6.023 -0.0318 -2.0167  0.4176
  933MOL0     H28744   8.112   6.525   6.025 -0.7595  0.2279 -0.8177
  933MOL0     H28745   8.188   6.624   6.146 -0.2797 -0.4134  0.1679
  933MOL0     H28746   8.299   6.615   5.864  1.5357  1.5793 -0.7948
  933MOL0     H28747   8.367   6.716   5.986 -0.6429  0.0131 -0.9924
  933MOL0     H28748   8.370   6.420   6.005 -1.5906  0.2455 -0.7389
  933MOL0     H28749   8.409   6.537   6.138  1.3362  0.2240 -0.4937
  933MOL0     H28750   8.762   6.552   5.937 -0.6425 -1.8451  0.6596
  933MOL0     H28751   8.008   6.530   5.709  1.1819  0.8872 -0.6306
  933MOL0     H28752   7.690   6.385   5.651 -1.1680  2.1418 -2.4722
  933MOL0     H28753   7.788   6.442   5.513 -2.3853 -0.1600 -0.4714
  933MOL0     H28754   7.869   6.371   5.658 -0.2438  0.4660  2.3147
  934MOL0     O28755   8.397   6.709   6.349 -0.4272  0.5901  0.2097
  934MOL0     C28756   8.471   6.716   6.448  0.0004  0.4563 -0.0689
  934MOL0     O28757   8.574   6.805   6.466  0.1024  0.5648 -0.1092
  934MOL0     C28758   8.631   6.857   6.356  0.3700 -0.7510 -0.3616
  934MOL0     C28759   8.645   6.789   6.234 -0.6296 -0.2724 -0.5026
  934MOL0     C28760   8.695   6.861   6.134 -0.0270 -0.3800 -0.0278
  934MOL0     C28761   8.724   6.997   6.142 -1.1909 -0.3244 -0.0409
  934MOL0     O28762   8.753   7.056   6.026 -0.4892 -0.0975  0.7785
  934MOL0     C28763   8.735   7.198   6.029  0.1750 -0.0797  1.3270
  934MOL0     C28764   8.770   7.260   5.893  0.3102  0.4670 -0.1516
  934MOL0     C28765   8.692   7.196   5.780  0.9711 -0.7671  0.5128
  934MOL0     C28766   8.733   7.242   5.642  0.2083 -0.2042 -0.4036
  934MOL0     C28767   8.625   7.212   5.533  0.1868  0.0799  0.1740
  934MOL0     C28768   8.672   7.264   5.391  0.1209  0.1201  0.2599
  934MOL0     C28769   8.601   7.182   5.272  0.2303  0.2088 -0.1470
  934MOL0     C28770   8.616   7.246   5.143 -0.5428  0.6837 -0.7827
  934MOL0     N28771   8.566   7.379   5.150 -0.1379  0.0588 -1.2035
  934MOL0     C28772   8.437   7.420   5.150  0.5921 -0.6029 -0.0839
  934MOL0     C28773   8.449   7.554   5.177  0.8821  0.1977  0.1289
  934MOL0     C28774   8.335   7.655   5.161  0.4105 -0.2471  0.0008
  934MOL0     C28775   8.290   7.716   5.292  1.0591  0.3304  0.6912
  934MOL0     C28776   8.220   7.608   5.383  0.6481 -0.5181  0.2150
  934MOL0     C28777   8.141   7.656   5.501 -0.1303  0.3480 -0.3361
  934MOL0     O28778   8.224   7.738   5.587 -0.4175 -0.7727 -0.8241
  934MOL0     C28779   8.281   7.682   5.702 -0.3375  0.2432 -0.1586
  934MOL0     C28780   8.351   7.773   5.771  0.0049 -1.1622  0.4532
  934MOL0     C28781   8.427   7.748   5.883  0.5873 -0.5869  0.7266
  934MOL0     C28782   8.496   7.860   5.960 -0.1511 -0.4369  0.1209
  934MOL0     C28783   8.437   7.616   5.922  0.3048  0.3828 -0.2218
  934MOL0     C28784   8.523   7.560   6.033  0.3419  0.4687  0.0767
  934MOL0     O28785   8.490   7.433   6.083 -0.6917  0.0571  0.0983
  934MOL0     C28786   8.519   7.389   6.212  0.0920 -1.6186  0.2162
  934MOL0     C28787   8.643   7.400   6.273  0.1324  0.4504 -0.0858
  934MOL0     C28788   8.663   7.349   6.405 -0.1203  0.5685 -0.8876
  934MOL0     C28789   8.555   7.289   6.476 -0.8843 -0.8055 -0.2001
  934MOL0     O28790   8.578   7.262   6.610  0.2212 -0.1397 -0.9642
  934MOL0     C28791   8.476   7.212   6.697  0.6048 -0.6214  0.3422
  934MOL0     C28792   8.530   7.170   6.830  0.3176 -0.1713  0.4351
  934MOL0     C28793   8.611   7.043   6.829 -1.3592  0.5690 -0.2940
  934MOL0     C28794   8.537   6.915   6.804 -0.2573 -0.7410 -0.8846
  934MOL0     C28795   8.464   6.883   6.941 -1.0009 -1.3020 -0.3831
  934MOL0     C28796   8.377   6.759   6.934 -0.1625 -0.1805 -0.3617
  934MOL0     C28797   8.260   6.767   6.834  0.0731  0.3637 -0.1456
  934MOL0     C28798   8.163   6.657   6.882 -0.3853  0.1409 -0.1859
  934MOL0    Cl28799   8.023   6.658   6.772 -0.3736  0.1404  0.2940
  934MOL0     C28800   8.440   7.267   6.402 -0.4091  0.3069  0.0401
  934MOL0     C28801   8.418   7.312   6.267 -0.4645  0.2343 -0.8730
  934MOL0     O28802   8.612   7.627   6.078  0.4055 -1.0569  0.2727
  934MOL0     C28803   8.353   7.523   5.862 -0.2294 -0.0157  0.4761
  934MOL0     C28804   8.285   7.554   5.748  0.5692 -0.4160  0.6391
  934MOL0     N28805   8.581   7.588   5.185 -0.9967  0.5065 -0.1623
  934MOL0     N28806   8.645   7.481   5.160 -0.1317  0.2701 -0.0745
  934MOL0     C28807   8.726   7.054   6.267  0.6439 -0.9559  0.1385
  934MOL0     C28808   8.676   6.983   6.375 -0.5418 -0.1844 -0.3937
  934MOL0     C28809   8.467   6.607   6.542 -0.4616  0.2963 -0.5993
  934MOL0     C28810   8.577   6.569   6.624  0.6268 -0.3664 -0.3922
  934MOL0     C28811   8.570   6.462   6.708  0.1517  0.4315 -0.3629
  934MOL0     C28812   8.459   6.380   6.719 -0.1321 -1.0319  0.3756
  934MOL0     O28813   8.446   6.274   6.804  0.7151  0.0882  0.0321
  934MOL0     C28814   8.561   6.212   6.863  0.7051  0.0052  0.2812
  934MOL0     C28815   8.626   6.111   6.772 -0.0522  0.8386  0.1843
  934MOL0     C28816   8.554   5.995   6.697  0.3805 -0.2483 -0.3622
  934MOL0     C28817   8.640   5.878   6.647  0.5722 -0.4254 -0.1780
  934MOL0     C28818   8.560   5.748   6.649  0.5944  0.8715  0.6244
  934MOL0     C28819   8.491   5.653   6.630  0.4788  0.9181  0.1808
  934MOL0     C28820   8.342   6.433   6.655  0.0784  0.0322  0.3712
  934MOL0     C28821   8.350   6.534   6.561 -0.0286  0.9762  0.0108
  934MOL0     C28822   8.217   6.572   6.498  0.1553  1.1709  0.1338
  934MOL0     H28823   8.612   6.686   6.224 -0.8863 -0.4383  1.6280
  934MOL0     H28824   8.708   6.815   6.037 -0.4502  2.2228 -1.4280
  934MOL0     H28825   8.809   7.242   6.096  0.0757  0.5056  1.0591
  934MOL0     H28826   8.630   7.216   6.053 -0.3770  1.8712 -1.8732
  934MOL0     H28827   8.748   7.367   5.900 -0.3219  0.2266  2.2816
  934MOL0     H28828   8.875   7.247   5.867  1.2216  5.1809  0.1469
  934MOL0     H28829   8.700   7.087   5.787  0.6661 -0.7562  1.1570
  934MOL0     H28830   8.586   7.220   5.793  0.3016 -2.6891 -1.0273
  934MOL0     H28831   8.756   7.349   5.643  1.3852 -0.4248  1.9615
  934MOL0     H28832   8.821   7.188   5.606  0.7823  0.2593  0.2762
  934MOL0     H28833   8.531   7.262   5.559  0.4039 -0.9450  3.3633
  934MOL0     H28834   8.602   7.106   5.535 -1.0881  0.3395  0.1528
  934MOL0     H28835   8.635   7.366   5.389 -0.1222  0.3350 -6.2542
  934MOL0     H28836   8.781   7.263   5.382  0.2207 -0.9842  1.3381
  934MOL0     H28837   8.493   7.171   5.286  0.1701  1.3301  0.4600
  934MOL0     H28838   8.659   7.090   5.271 -1.3925 -0.8740 -2.1820
  934MOL0     H28839   8.723   7.243   5.120 -0.0165  0.0708  1.4721
  934MOL0     H28840   8.561   7.196   5.062  1.3759  0.0916 -1.7658
  934MOL0     H28841   8.353   7.359   5.118 -0.0615 -0.4285  1.2249
  934MOL0     H28842   8.251   7.598   5.122 -0.7293  1.7659 -0.6163
  934MOL0     H28843   8.362   7.723   5.080  0.9287 -1.5008 -0.9202
  934MOL0     H28844   8.380   7.759   5.336  1.7763 -0.7194  0.2953
  934MOL0     H28845   8.216   7.794   5.271  0.6166 -0.3710 -0.4591
  934MOL0     H28846   8.156   7.535   5.332 -1.2062  0.2935  1.2809
  934MOL0     H28847   8.307   7.550   5.416  1.2041  0.6750  0.8970
  934MOL0     H28848   8.056   7.716   5.469 -1.4237  0.9091  3.5731
  934MOL0     H28849   8.097   7.574   5.559  0.2544  0.7856  0.5997
  934MOL0     H28850   8.351   7.876   5.739 -1.8641 -0.8039  1.4907
  934MOL0     H28851   8.481   7.851   6.068 -0.3586 -2.1449 -0.0191
  934MOL0     H28852   8.460   7.958   5.928  2.2767  0.2804 -0.6995
  934MOL0     H28853   8.604   7.853   5.944  0.2574  0.7527  2.0206
  934MOL0     H28854   8.717   7.449   6.211 -0.7247  0.8277 -0.8324
  934MOL0     H28855   8.756   7.359   6.459 -1.3037 -1.6874  1.8303
  934MOL0     H28856   8.412   7.296   6.726  1.4882 -0.1283  0.8995
  934MOL0     H28857   8.418   7.131   6.651 -0.4918 -0.0126  0.6191
  934MOL0     H28858   8.616   7.233   6.856  0.8757 -0.2788 -1.0836
  934MOL0     H28859   8.455   7.178   6.909 -0.0248  0.9315  0.0216
  934MOL0     H28860   8.671   7.054   6.919  0.4656  2.3792 -1.6347
  934MOL0     H28861   8.682   7.053   6.746 -0.6432 -1.7802 -0.0367
  934MOL0     H28862   8.599   6.834   6.766  0.7641 -0.1360 -0.5587
  934MOL0     H28863   8.478   6.936   6.714 -1.3748  2.2616  0.4204
  934MOL0     H28864   8.544   6.872   7.014  0.3881 -0.8082 -1.7612
  934MOL0     H28865   8.401   6.968   6.970 -0.9231 -1.0242 -0.9874
  934MOL0     H28866   8.341   6.755   7.037  0.8713  3.4013  0.3161
  934MOL0     H28867   8.441   6.674   6.910  0.0715  0.0835 -0.6995
  934MOL0     H28868   8.294   6.742   6.734 -0.1175 -0.3274 -0.0401
  934MOL0     H28869   8.215   6.867   6.834  0.4971  0.5854 -2.2761
  934MOL0     H28870   8.135   6.682   6.985  1.2840 -0.7493  0.5191
  934MOL0     H28871   8.210   6.558   6.879  0.2621  0.4728 -1.4482
  934MOL0     H28872   8.352   7.232   6.456 -0.7619  1.2818  0.1152
  934MOL0     H28873   8.325   7.304   6.211 -0.9493  2.1696 -0.4260
  934MOL0     H28874   8.362   7.416   5.872  1.3544  0.0142 -0.3392
  934MOL0     H28875   8.227   7.482   5.692 -2.0141  2.9203 -1.3187
  934MOL0     H28876   8.782   7.144   6.288  1.3693 -1.1991 -0.6748
  934MOL0     H28877   8.672   7.024   6.475 -1.8727 -0.6302 -0.2418
  934MOL0     H28878   8.671   6.622   6.641  1.0306 -1.6551  1.7201
  934MOL0     H28879   8.662   6.444   6.762 -0.2096  1.7730  0.7501
  934MOL0     H28880   8.636   6.285   6.895 -0.8254  2.0598 -0.6254
  934MOL0     H28881   8.525   6.165   6.955  1.9228  0.0481  0.8072
  934MOL0     H28882   8.708   6.070   6.833  0.0487  0.4973 -0.1753
  934MOL0     H28883   8.685   6.168   6.700  2.5476 -2.1462 -0.3323
  934MOL0     H28884   8.474   5.963   6.765 -1.2341  1.6326 -1.2547
  934MOL0     H28885   8.493   6.038   6.617 -2.4085 -1.9620  0.6942
  934MOL0     H28886   8.721   5.863   6.719  0.5076 -1.9694 -0.3991
  934MOL0     H28887   8.685   5.903   6.551 -2.1834 -1.4917 -1.8616
  934MOL0     H28888   8.448   5.555   6.619  1.6682  0.7102 -4.3808
  934MOL0     H28889   8.250   6.384   6.686  0.8291 -0.4649  1.9044
  934MOL0     H28890   8.194   6.677   6.518 -1.5128  0.7549  0.5562
  934MOL0     H28891   8.210   6.551   6.391  0.3010 -2.2183  0.6714
  934MOL0     H28892   8.136   6.510   6.537  1.1040  0.0812  0.4102
  935MOL0     O28893   7.261   1.065  10.943  0.4036  0.6446  0.1966
  935MOL0     C28894   7.229   1.051  11.061  0.4620 -0.3490 -0.2202
  935MOL0     O28895   7.319   1.062  11.164  0.6739 -0.2389 -0.3932
  935MOL0     C28896   7.449   1.070  11.138 -0.1033  0.3234 -0.2897
  935MOL0     C28897   7.542   0.976  11.171 -0.1471 -0.8570  0.2785
  935MOL0     C28898   7.678   1.000  11.153 -0.9817 -0.4345 -0.4541
  935MOL0     C28899   7.726   1.119  11.107 -0.6234  0.0027  0.0595
  935MOL0     O28900   7.855   1.160  11.093  0.1717  0.4301  0.1884
  935MOL0     C28901   7.949   1.048  11.090 -1.0607 -0.2674 -0.0888
  935MOL0     C28902   8.093   1.106  11.093  0.5739 -0.2697 -0.2426
  935MOL0     C28903   8.117   1.213  10.984 -0.9416 -0.0863  0.1862
  935MOL0     C28904   8.251   1.301  10.993 -0.6718  1.0503  0.5453
  935MOL0     C28905   8.380   1.234  10.964 -0.2445 -0.4117 -0.3808
  935MOL0     C28906   8.493   1.334  10.972 -0.7106  0.7526 -0.9487
  935MOL0     C28907   8.622   1.266  10.929 -0.5661 -0.5551 -1.1829
  935MOL0     C28908   8.742   1.350  10.974  0.1690 -0.5467 -0.5196
  935MOL0     N28909   8.759   1.484  10.918  0.6852 -1.2066 -0.1849
  935MOL0     C28910   8.730   1.505  10.785 -0.2280  0.1352 -0.4428
  935MOL0     C28911   8.668   1.627  10.783 -0.9584 -0.3064  0.0832
  935MOL0     C28912   8.611   1.689  10.670  0.5487 -0.1884  0.1212
  935MOL0     C28913   8.460   1.654  10.645 -0.1041  0.4447 -0.0962
  935MOL0     C28914   8.424   1.704  10.513  0.0377  0.8422  0.6971
  935MOL0     C28915   8.459   1.595  10.415 -0.3379  0.2620  1.2035
  935MOL0     O28916   8.463   1.665  10.287  0.3346 -0.3066  0.2564
  935MOL0     C28917   8.550   1.605  10.196 -0.1485  0.6631 -0.5417
  935MOL0     C28918   8.680   1.662  10.182  0.1975  0.5171 -0.1370
  935MOL0     C28919   8.782   1.592  10.127 -0.7683  1.1025 -0.0336
  935MOL0     C28920   8.923   1.633  10.148  0.1827  0.4445  0.0490
  935MOL0     C28921   8.742   1.473  10.060 -0.5588  0.1800 -0.0126
  935MOL0     C28922   8.836   1.372  10.009  0.4723  0.5274  0.0070
  935MOL0     O28923   8.941   1.417   9.933 -0.1710 -0.7685  0.0153
  935MOL0     C28924   9.053   1.337   9.900  1.0435  0.5404 -1.1722
  935MOL0     C28925   9.180   1.390   9.916  0.3089  0.3127 -0.0290
  935MOL0     C28926   9.296   1.310   9.898 -0.0511 -0.0627 -0.1600
  935MOL0     C28927   9.277   1.180   9.845 -0.8749  0.0748 -0.3735
  935MOL0     O28928   9.386   1.104   9.831 -0.9974  0.1964 -0.4251
  935MOL0     C28929   9.466   1.123   9.717 -0.4281 -1.1223 -0.1396
  935MOL0     C28930   9.560   1.252   9.690  0.3460  0.9167  0.8147
  935MOL0     C28931   9.699   1.239   9.755  0.1392 -0.0531 -0.1554
  935MOL0     C28932   9.802   1.330   9.701  0.0670  0.4937  0.0956
  935MOL0     C28933   9.930   1.330   9.788  0.6365  0.0989  0.1383
  935MOL0     C28934   9.986   1.200   9.840  0.6313  0.2898 -0.6967
  935MOL0     C28935  10.131   1.215   9.887 -0.5841  0.0326  0.4083
  935MOL0     C28936  10.171   1.080   9.951  0.6745 -0.8934 -0.4258
  935MOL0    Cl28937  10.122   1.082  10.120 -0.0017 -0.0655 -0.4132
  935MOL0     C28938   9.153   1.127   9.814 -0.3799 -0.3647 -0.4125
  935MOL0     C28939   9.041   1.207   9.851 -0.0392  0.0560 -0.1526
  935MOL0     O28940   8.817   1.255  10.044  0.3625 -0.7256  0.8856
  935MOL0     C28941   8.608   1.426  10.054  0.7072  0.2842  0.0717
  935MOL0     C28942   8.510   1.497  10.125 -0.1156  0.3806  0.3979
  935MOL0     N28943   8.648   1.663  10.916 -0.7135  0.3082 -0.2675
  935MOL0     N28944   8.705   1.586  10.996 -1.1212  0.3386  0.0014
  935MOL0     C28945   7.634   1.209  11.064 -0.2782 -1.1037 -0.1069
  935MOL0     C28946   7.498   1.193  11.083 -0.5250  1.3418  0.3729
  935MOL0     C28947   7.095   1.014  11.096  0.3864  0.0583  0.7796
  935MOL0     C28948   6.990   1.037  11.005  0.5393  0.3838  0.3830
  935MOL0     C28949   6.857   1.014  11.047 -0.0652 -0.2596 -0.5895
  935MOL0     C28950   6.823   0.979  11.178  0.6449  0.5672  0.0773
  935MOL0     O28951   6.686   0.956  11.200  0.0095  0.3526  0.4595
  935MOL0     C28952   6.634   0.921  11.331  0.5885  0.0200  0.7346
  935MOL0     C28953   6.512   0.824  11.325 -0.7181  0.1562  0.0608
  935MOL0     C28954   6.368   0.884  11.314  0.3866  0.2307  0.0816
  935MOL0     C28955   6.261   0.799  11.244  0.2684  0.8678  0.0712
  935MOL0     C28956   6.145   0.887  11.229 -0.4035 -0.0774  0.3717
  935MOL0     C28957   6.035   0.941  11.201 -1.1092 -0.3131  0.0163
  935MOL0     C28958   6.930   0.966  11.273 -0.3474  0.1216  0.9698
  935MOL0     C28959   7.061   0.983  11.232 -0.0292  0.1417  0.5671
  935MOL0     C28960   7.160   0.942  11.335  0.2010  0.4756  1.0304
  935MOL0     H28961   7.501   0.887  11.220 -1.5504 -0.6672 -0.4894
  935MOL0     H28962   7.745   0.924  11.192  1.1653 -0.1402 -3.2530
  935MOL0     H28963   7.930   0.977  11.008  1.2822 -1.6203  0.4275
  935MOL0     H28964   7.945   0.990  11.183 -1.8434  2.5324  1.7435
  935MOL0     H28965   8.103   1.156  11.190 -2.0051 -1.3623  0.6863
  935MOL0     H28966   8.164   1.024  11.088  1.2810  0.3612 -0.7946
  935MOL0     H28967   8.123   1.153  10.893 -4.6346 -0.8404  0.2857
  935MOL0     H28968   8.035   1.285  10.972 -1.7337 -1.3818 -3.1565
  935MOL0     H28969   8.232   1.391  10.935 -0.4305  1.8021  1.5965
  935MOL0     H28970   8.257   1.336  11.097 -0.6051 -0.4146  1.0540
  935MOL0     H28971   8.373   1.194  10.863 -2.1274 -0.1758 -0.3773
  935MOL0     H28972   8.400   1.155  11.037  0.7587  0.2602  0.0951
  935MOL0     H28973   8.476   1.425  10.914 -0.2476  1.6602  0.3164
  935MOL0     H28974   8.500   1.364  11.077 -0.8409  4.4719 -1.8690
  935MOL0     H28975   8.627   1.253  10.820 -0.9608 -1.2869 -1.1212
  935MOL0     H28976   8.621   1.166  10.973  0.6056  0.8266  2.3498
  935MOL0     H28977   8.729   1.349  11.082 -4.0729 -2.5490 -0.8586
  935MOL0     H28978   8.827   1.284  10.951 -0.3942 -0.5903 -2.7785
  935MOL0     H28979   8.735   1.437  10.700 -0.9690 -0.0824 -0.3251
  935MOL0     H28980   8.667   1.655  10.582  2.0003 -1.3472  1.4516
  935MOL0     H28981   8.620   1.796  10.690  3.2977  0.0132 -1.7075
  935MOL0     H28982   8.446   1.546  10.656  2.5829  0.0466  0.0078
  935MOL0     H28983   8.397   1.704  10.720  0.5801 -3.0653  3.1260
  935MOL0     H28984   8.316   1.722  10.511  0.3605  3.4370 -2.8634
  935MOL0     H28985   8.473   1.799  10.494 -1.3233  1.0842 -2.1746
  935MOL0     H28986   8.552   1.544  10.442  0.0713 -1.2457 -2.4990
  935MOL0     H28987   8.371   1.530  10.414  0.1290 -0.3746  0.8121
  935MOL0     H28988   8.711   1.744  10.246  0.4261 -0.1103  0.5715
  935MOL0     H28989   8.976   1.668  10.059 -1.9726  0.9077 -1.1213
  935MOL0     H28990   8.983   1.552  10.190 -0.7558  1.3217  3.4115
  935MOL0     H28991   8.930   1.704  10.231  0.5557 -0.8432  1.1495
  935MOL0     H28992   9.194   1.489   9.958  0.3000 -1.0920  3.6110
  935MOL0     H28993   9.393   1.352   9.922 -0.8538  2.0122 -0.2984
  935MOL0     H28994   9.543   1.046   9.704  0.1056 -1.5880  4.3344
  935MOL0     H28995   9.412   1.124   9.622  1.2103 -0.4572 -1.0986
  935MOL0     H28996   9.587   1.264   9.585  1.7181  2.5746  1.3198
  935MOL0     H28997   9.503   1.334   9.736 -2.0283 -0.7460  1.0505
  935MOL0     H28998   9.733   1.138   9.731  0.9730  0.4113 -0.9436
  935MOL0     H28999   9.695   1.249   9.864  0.3941  2.6794 -0.3342
  935MOL0     H29000   9.764   1.432   9.687  1.3229  1.0924  0.9147
  935MOL0     H29001   9.836   1.290   9.605  0.7052 -2.0906  1.3132
  935MOL0     H29002  10.008   1.376   9.727  2.3192  1.9325  3.4252
  935MOL0     H29003   9.909   1.399   9.869  0.1277  2.6689 -2.0477
  935MOL0     H29004   9.993   1.124   9.762  0.0675  0.8049 -1.2602
  935MOL0     H29005   9.926   1.166   9.925  0.1937 -0.0294 -1.1249
  935MOL0     H29006  10.130   1.294   9.963 -0.8002  0.1924  0.2396
  935MOL0     H29007  10.205   1.228   9.808  2.1645 -1.0394  2.6551
  935MOL0     H29008  10.280   1.068   9.943  1.2596  3.5970 -2.1736
  935MOL0     H29009  10.108   1.002   9.907 -1.1917  0.6408 -0.5516
  935MOL0     H29010   9.145   1.026   9.774  0.3259 -0.3121 -0.7025
  935MOL0     H29011   8.940   1.170   9.835  0.2852 -1.2296  0.6377
  935MOL0     H29012   8.580   1.334  10.004 -1.8220 -0.5362  2.6982
  935MOL0     H29013   8.409   1.456  10.121 -0.1491  0.5231 -0.2658
  935MOL0     H29014   7.654   1.303  11.015 -0.0981 -1.1492 -0.1223
  935MOL0     H29015   7.421   1.268  11.068  0.5496  2.1169 -1.7423
  935MOL0     H29016   6.996   1.071  10.902 -1.0826 -0.1913  0.0726
  935MOL0     H29017   6.767   1.033  10.990  0.3382  1.4363 -0.7408
  935MOL0     H29018   6.712   0.862  11.379 -1.3368 -1.7620  1.8718
  935MOL0     H29019   6.612   1.011  11.389  1.0304  0.1676  0.6722
  935MOL0     H29020   6.522   0.753  11.408  2.2597 -1.6511 -1.6455
  935MOL0     H29021   6.528   0.752  11.244  1.3344  1.9741 -1.2637
  935MOL0     H29022   6.340   0.912  11.416  1.8606  0.9465  0.3200
  935MOL0     H29023   6.371   0.977  11.257  0.9141 -0.4587 -1.0540
  935MOL0     H29024   6.233   0.705  11.292 -0.7120  1.9858  1.8241
  935MOL0     H29025   6.301   0.790  11.143  0.5382 -1.8131  0.3501
  935MOL0     H29026   5.949   0.989  11.158  0.2076  0.3563 -2.0257
  935MOL0     H29027   6.911   0.940  11.377  1.0708 -2.0988  0.7524
  935MOL0     H29028   7.214   0.854  11.300 -0.6000  0.0061  0.9423
  935MOL0     H29029   7.228   1.022  11.367  0.9810  0.3315 -0.2239
  935MOL0     H29030   7.106   0.905  11.424 -0.5790 -4.5283 -1.1761
  936MOL0     O29031   2.284   8.088   4.484 -0.4916 -0.0048 -0.1868
  936MOL0     C29032   2.227   8.142   4.576  0.2041 -0.5196  0.8249
  936MOL0     O29033   2.274   8.156   4.699 -0.2221 -0.1151  0.3176
  936MOL0     C29034   2.411   8.154   4.708 -0.4172 -0.1184  0.9288
  936MOL0     C29035   2.504   8.224   4.618  0.4814  0.2454  1.0020
  936MOL0     C29036   2.643   8.222   4.640  0.4014 -0.3027 -0.1309
  936MOL0     C29037   2.703   8.158   4.751  0.3064  0.1657 -0.8962
  936MOL0     O29038   2.836   8.177   4.781  0.2276 -0.6367 -0.0147
  936MOL0     C29039   2.904   8.069   4.863 -0.5564  0.0295 -0.0908
  936MOL0     C29040   2.952   8.133   4.994 -0.5328  0.2922 -0.0906
  936MOL0     C29041   2.841   8.171   5.086 -1.2874 -0.6812 -0.1396
  936MOL0     C29042   2.889   8.220   5.225  0.4726 -0.8821  0.1206
  936MOL0     C29043   2.782   8.307   5.281  0.5270 -0.0662  0.8431
  936MOL0     C29044   2.824   8.363   5.415 -1.0602 -0.6144 -0.3612
  936MOL0     C29045   2.932   8.478   5.395  0.9768  0.3832 -0.3275
  936MOL0     C29046   2.997   8.499   5.527 -0.7636 -0.5327  0.1781
  936MOL0     N29047   3.099   8.604   5.520  0.0482 -0.1029  0.7842
  936MOL0     C29048   3.210   8.609   5.435  0.2284 -1.0393  0.7368
  936MOL0     C29049   3.265   8.731   5.467  0.4765  0.2475 -0.2463
  936MOL0     C29050   3.394   8.784   5.427  0.1253  0.5972  0.8272
  936MOL0     C29051   3.381   8.892   5.326  0.1636 -0.4159  0.1711
  936MOL0     C29052   3.511   8.966   5.294 -0.6264  0.2586  0.3497
  936MOL0     C29053   3.639   8.876   5.290  0.7088  0.2363 -0.5315
  936MOL0     O29054   3.751   8.939   5.227  0.4695  0.5564  0.5102
  936MOL0     C29055   3.883   8.919   5.266 -0.4345 -0.5499  0.4242
  936MOL0     C29056   3.975   8.886   5.169 -0.7272  0.1437  0.0152
  936MOL0     C29057   4.118   8.881   5.196  0.3445  0.7612  0.0791
  936MOL0     C29058   4.210   8.845   5.074  0.2048 -0.3961  0.3269
  936MOL0     C29059   4.164   8.906   5.328  1.1522 -0.6662  0.3194
  936MOL0     C29060   4.306   8.897   5.366 -0.2125  0.8568  0.1273
  936MOL0     O29061   4.362   8.770   5.350 -0.4362  0.1922  0.4998
  936MOL0     C29062   4.502   8.746   5.363  0.4287 -0.3552 -0.3297
  936MOL0     C29063   4.611   8.820   5.320 -0.7230  0.4235  0.4441
  936MOL0     C29064   4.737   8.775   5.338 -0.8828  0.1273  0.4121
  936MOL0     C29065   4.767   8.643   5.397  0.4013 -0.8680 -0.7167
  936MOL0     O29066   4.893   8.594   5.416 -0.2006  0.7387  0.1819
  936MOL0     C29067   4.998   8.652   5.350 -0.9390 -0.4970  0.6335
  936MOL0     C29068   5.136   8.591   5.379 -0.2228  1.2453 -0.1733
  936MOL0     C29069   5.249   8.665   5.310 -0.7826  0.5513  0.0416
  936MOL0     C29070   5.380   8.597   5.326 -0.6620  0.0123  0.8263
  936MOL0     C29071   5.501   8.689   5.282  0.1252  0.3110  0.0409
  936MOL0     C29072   5.623   8.601   5.302  0.2903  0.5526 -0.1822
  936MOL0     C29073   5.752   8.652   5.247 -0.6103 -0.1196 -0.2175
  936MOL0     C29074   5.870   8.563   5.287  0.1774 -0.1655 -0.6288
  936MOL0    Cl29075   5.853   8.400   5.252 -0.1553 -0.1554 -0.3132
  936MOL0     C29076   4.652   8.567   5.438 -0.1275  0.4140  0.2905
  936MOL0     C29077   4.526   8.623   5.426 -0.4464 -0.3419 -0.5806
  936MOL0     O29078   4.359   9.000   5.405 -0.5315 -0.9735  0.0774
  936MOL0     C29079   4.069   8.949   5.427  0.6917  0.3621 -0.0324
  936MOL0     C29080   3.934   8.946   5.401  0.2912 -0.2200  0.1426
  936MOL0     N29081   3.194   8.789   5.573 -0.2455 -0.1589  0.5748
  936MOL0     N29082   3.100   8.707   5.601 -0.1451  0.4267  0.3180
  936MOL0     C29083   2.608   8.110   4.850 -1.4257 -0.6485 -1.0008
  936MOL0     C29084   2.471   8.104   4.825 -0.4565 -0.2341  0.4764
  936MOL0     C29085   2.080   8.180   4.560  0.6508  0.2622 -0.0430
  936MOL0     C29086   2.026   8.197   4.429 -0.2685 -0.2225 -0.4699
  936MOL0     C29087   1.891   8.229   4.404  1.0275  0.3571 -0.7893
  936MOL0     C29088   1.804   8.261   4.516  0.5959  0.3006  0.5044
  936MOL0     O29089   1.665   8.269   4.507 -0.5024  0.1389  0.3406
  936MOL0     C29090   1.625   8.379   4.423 -0.2446  0.5318 -0.0036
  936MOL0     C29091   1.604   8.508   4.495 -0.0034  0.4063  0.0248
  936MOL0     C29092   1.524   8.609   4.410  0.1460  0.0625  0.2441
  936MOL0     C29093   1.498   8.740   4.481 -0.3396 -0.5059 -0.2922
  936MOL0     C29094   1.401   8.817   4.411 -0.4085  0.8694  0.2240
  936MOL0     C29095   1.309   8.859   4.346  0.2867  0.2766 -0.3826
  936MOL0     C29096   1.848   8.237   4.639  0.8192  0.8467 -0.5903
  936MOL0     C29097   1.981   8.195   4.669 -0.5163 -0.7776 -0.8106
  936MOL0     C29098   2.011   8.169   4.818  0.1368 -0.0637  0.1139
  936MOL0     H29099   2.474   8.282   4.531  0.5416 -1.1677  0.0098
  936MOL0     H29100   2.713   8.271   4.572  2.1367  0.1599  1.8615
  936MOL0     H29101   2.990   8.029   4.808 -1.3380 -1.7679 -0.0595
  936MOL0     H29102   2.846   7.982   4.894  0.8149 -0.4868  1.1298
  936MOL0     H29103   3.021   8.065   5.045 -0.5586  0.5047  0.2331
  936MOL0     H29104   3.015   8.220   4.976  1.7950 -0.8497  1.9901
  936MOL0     H29105   2.768   8.238   5.041 -2.0290 -2.2897 -1.4592
  936MOL0     H29106   2.785   8.078   5.103 -0.0664 -1.7202 -1.5847
  936MOL0     H29107   2.920   8.145   5.298  0.0866  0.2624  1.5247
  936MOL0     H29108   2.977   8.284   5.214 -0.8447  1.1470  0.6695
  936MOL0     H29109   2.693   8.243   5.286 -1.5434  2.6989  1.3115
  936MOL0     H29110   2.771   8.396   5.218  0.7327 -0.7667 -0.2066
  936MOL0     H29111   2.744   8.414   5.470 -1.9842 -0.4061 -1.8540
  936MOL0     H29112   2.874   8.289   5.479 -1.3306 -0.0027  0.5919
  936MOL0     H29113   2.876   8.561   5.352  0.2759  1.3329  2.2315
  936MOL0     H29114   3.004   8.446   5.320  0.8658  1.4728 -0.9132
  936MOL0     H29115   2.919   8.536   5.594 -1.0733  1.0687 -0.9868
  936MOL0     H29116   3.046   8.417   5.580  0.5346  0.1567  0.0791
  936MOL0     H29117   3.246   8.528   5.372  0.8743 -2.5811  2.9584
  936MOL0     H29118   3.451   8.700   5.384 -1.7137 -1.1501  1.6406
  936MOL0     H29119   3.440   8.809   5.523 -1.7116 -0.8583  2.1684
  936MOL0     H29120   3.332   8.854   5.235 -0.3172 -1.8849  1.0084
  936MOL0     H29121   3.316   8.968   5.369 -0.0734 -0.8494  0.5875
  936MOL0     H29122   3.508   9.010   5.193 -2.0874  1.0793  0.7264
  936MOL0     H29123   3.518   9.057   5.353 -0.5812  2.0063 -2.1857
  936MOL0     H29124   3.664   8.852   5.394  0.7776  1.3917 -0.2664
  936MOL0     H29125   3.602   8.789   5.235 -0.8520  0.3875  0.2173
  936MOL0     H29126   3.934   8.874   5.069 -2.0950 -1.2343  0.6979
  936MOL0     H29127   4.311   8.886   5.086 -0.4931  2.3660 -1.9980
  936MOL0     H29128   4.161   8.883   4.983 -0.2285  1.9675  1.4752
  936MOL0     H29129   4.224   8.737   5.066 -0.9688 -0.7992  2.8117
  936MOL0     H29130   4.593   8.916   5.273 -3.1348 -1.5552 -3.2005
  936MOL0     H29131   4.818   8.841   5.309  0.2438 -1.8388 -1.1882
  936MOL0     H29132   4.973   8.640   5.244  0.7895  0.9824 -0.0136
  936MOL0     H29133   5.009   8.760   5.366  0.1603  0.2067 -3.5140
  936MOL0     H29134   5.150   8.582   5.487 -0.2425 -2.3185 -0.3580
  936MOL0     H29135   5.158   8.491   5.342 -0.5405  0.9203  0.5002
  936MOL0     H29136   5.246   8.773   5.329 -0.2865  0.0663  3.4802
  936MOL0     H29137   5.220   8.662   5.205  0.3642 -0.1157 -0.2698
  936MOL0     H29138   5.378   8.502   5.272  0.1504  1.1532 -1.3790
  936MOL0     H29139   5.387   8.572   5.432 -0.6339 -3.3316  0.1220
  936MOL0     H29140   5.494   8.716   5.177  0.1302  2.0988  0.4699
  936MOL0     H29141   5.508   8.785   5.334  1.6753  0.8977 -1.1923
  936MOL0     H29142   5.595   8.504   5.259 -1.7908  0.5778  0.9465
  936MOL0     H29143   5.637   8.586   5.409 -0.4853  1.2943  0.0387
  936MOL0     H29144   5.774   8.758   5.265  1.2169 -0.5376  0.1040
  936MOL0     H29145   5.748   8.645   5.138  0.4364 -0.4117 -0.2421
  936MOL0     H29146   5.886   8.576   5.394  1.2006 -1.1270 -0.6493
  936MOL0     H29147   5.959   8.598   5.234 -1.0176 -1.3284 -3.6304
  936MOL0     H29148   4.670   8.465   5.471  3.1796  0.0631 -2.0817
  936MOL0     H29149   4.441   8.570   5.468 -0.3590  0.8085  1.1195
  936MOL0     H29150   4.101   8.954   5.531  1.2799 -1.6548 -0.0653
  936MOL0     H29151   3.857   8.960   5.477 -1.4840 -2.9318 -0.9789
  936MOL0     H29152   2.643   8.073   4.946 -0.2669 -0.4001 -1.3119
  936MOL0     H29153   2.409   8.073   4.909  2.4886  1.0087  3.3318
  936MOL0     H29154   2.093   8.203   4.344 -1.1739  1.8885 -1.1050
  936MOL0     H29155   1.848   8.221   4.305 -1.4769 -0.2158  0.2606
  936MOL0     H29156   1.710   8.405   4.359 -0.0696  1.2326  0.4998
  936MOL0     H29157   1.537   8.361   4.360  0.1000  3.7043 -1.6040
  936MOL0     H29158   1.703   8.547   4.521  0.7964 -1.0103 -0.7567
  936MOL0     H29159   1.545   8.490   4.586  1.6997  0.1894  1.1321
  936MOL0     H29160   1.570   8.623   4.312  0.9269  0.0615  0.6018
  936MOL0     H29161   1.425   8.568   4.386 -0.5215  1.4530  0.5694
  936MOL0     H29162   1.594   8.791   4.495 -1.4951  1.2282  1.9480
  936MOL0     H29163   1.454   8.722   4.579  0.2833  3.6333  0.9305
  936MOL0     H29164   1.232   8.896   4.282 -0.7217 -1.9960 -0.5774
  936MOL0     H29165   1.771   8.245   4.715 -0.4177 -0.7093 -1.6349
  936MOL0     H29166   2.054   8.070   4.835  0.2509  0.5192  4.2219
  936MOL0     H29167   2.089   8.240   4.847  0.8836 -0.3895 -1.0601
  936MOL0     H29168   1.926   8.182   4.885 -0.4487 -1.8921 -0.2336
  937MOL0     O29169   1.456   3.498   9.985 -0.3336  0.3514  0.4817
  937MOL0     C29170   1.501   3.603  10.032 -0.7070 -0.0206  0.4684
  937MOL0     O29171   1.428   3.693  10.113 -0.1101 -0.5969  0.0680
  937MOL0     C29172   1.287   3.697  10.091  0.8152  0.3360  0.4187
  937MOL0     C29173   1.204   3.670  10.207  0.0791  0.5198 -0.2827
  937MOL0     C29174   1.056   3.663  10.181 -0.6308  0.7799  0.1090
  937MOL0     C29175   0.999   3.689  10.057 -0.4940 -0.3996  0.0897
  937MOL0     O29176   0.867   3.705  10.059  0.2285  0.3013 -0.8422
  937MOL0     C29177   0.805   3.764   9.951 -0.6033  0.3824  0.6776
  937MOL0     C29178   0.653   3.792   9.982  0.0135  0.0191 -0.3704
  937MOL0     C29179   0.564   3.661   9.990  0.3599  0.3233  0.3553
  937MOL0     C29180   0.417   3.699  10.043 -0.3608  0.3913  0.5344
  937MOL0     C29181   0.325   3.577  10.030 -0.5049  0.1424  0.6713
  937MOL0     C29182   0.349   3.456  10.126  0.0219  0.0802  1.4189
  937MOL0     C29183   0.233   3.359  10.104 -0.6178  0.2873  1.7225
  937MOL0     C29184   0.222   3.246  10.204  0.1843  0.3232  0.9914
  937MOL0     N29185   0.331   3.148  10.193  0.8442 -0.2354  1.1376
  937MOL0     C29186   0.372   3.068  10.084  0.1693 -0.4726 -0.0962
  937MOL0     C29187   0.476   2.992  10.126 -0.1286  0.7782 -1.2181
  937MOL0     C29188   0.550   2.877  10.053 -0.3504 -0.1935 -0.3408
  937MOL0     C29189   0.589   2.906   9.912 -0.2667  0.6202  0.1579
  937MOL0     C29190   0.719   2.969   9.895 -0.1240 -0.4597  1.2999
  937MOL0     C29191   0.729   3.108   9.934 -0.0839  0.1286 -0.4659
  937MOL0     O29192   0.850   3.172   9.883 -0.7433 -1.0559 -0.8928
  937MOL0     C29193   0.839   3.225   9.758  0.1733  1.0690  0.2224
  937MOL0     C29194   0.925   3.323   9.730 -0.2830  0.1869 -0.9446
  937MOL0     C29195   0.936   3.391   9.602 -0.1844  0.2153 -1.0726
  937MOL0     C29196   1.016   3.511   9.594 -0.1381 -0.9206 -0.5143
  937MOL0     C29197   0.852   3.343   9.498  0.0645 -0.3837 -1.1407
  937MOL0     C29198   0.846   3.402   9.363 -0.1235  0.1544 -0.2954
  937MOL0     O29199   0.726   3.398   9.296  0.2477 -0.0372  0.3019
  937MOL0     C29200   0.718   3.453   9.169 -0.7476  0.3886  0.3159
  937MOL0     C29201   0.740   3.589   9.151 -0.2030 -0.5465  0.4421
  937MOL0     C29202   0.731   3.654   9.022  0.3611  0.1441 -0.5171
  937MOL0     C29203   0.696   3.583   8.908  0.1919  0.7522  0.6428
  937MOL0     O29204   0.697   3.654   8.786 -0.4587  0.2946 -0.1833
  937MOL0     C29205   0.644   3.598   8.666 -0.6470  0.0792  1.5690
  937MOL0     C29206   0.673   3.712   8.563 -0.0416 -0.7458 -0.0948
  937MOL0     C29207   0.540   3.794   8.533  0.0943  0.4129  0.5753
  937MOL0     C29208   0.547   3.895   8.417  0.0249  0.9146  0.0431
  937MOL0     C29209   0.499   3.827   8.293 -0.3471 -0.3593  1.6501
  937MOL0     C29210   0.497   3.923   8.176  0.3341  0.5061  0.3270
  937MOL0     C29211   0.412   3.851   8.063 -0.1236  0.0758 -1.7688
  937MOL0     C29212   0.356   3.949   7.960 -0.5576 -0.0315 -0.6008
  937MOL0    Cl29213   0.217   4.033   8.039 -0.3883 -0.2473 -0.1267
  937MOL0     C29214   0.677   3.439   8.928  0.2587  0.0213 -0.6147
  937MOL0     C29215   0.679   3.375   9.060  0.6393 -0.8809  0.9393
  937MOL0     O29216   0.949   3.450   9.314  0.3987 -0.0011 -0.4328
  937MOL0     C29217   0.761   3.244   9.532  1.2870  0.3850  0.8100
  937MOL0     C29218   0.751   3.182   9.654 -0.1146  0.9536 -0.6523
  937MOL0     N29219   0.502   3.030  10.253  0.1707 -0.5184  0.0263
  937MOL0     N29220   0.411   3.118  10.293  0.4444  0.4989  0.0009
  937MOL0     C29221   1.087   3.698   9.946 -0.3959 -0.3491  0.7297
  937MOL0     C29222   1.229   3.706   9.966  0.7036  1.0254  0.4045
  937MOL0     C29223   1.641   3.642  10.002 -0.1429 -0.7718 -0.0758
  937MOL0     C29224   1.675   3.779  10.024 -0.7856  0.4379 -0.1456
  937MOL0     C29225   1.806   3.820  10.015 -0.3148 -0.8051  0.5440
  937MOL0     C29226   1.907   3.729   9.989  0.0496  0.4680 -0.3941
  937MOL0     O29227   2.041   3.762   9.978 -0.8233  0.2090  0.1885
  937MOL0     C29228   2.096   3.892  10.015  0.4450  0.0748 -0.3765
  937MOL0     C29229   2.125   3.898  10.170  0.7138  0.7258 -0.4895
  937MOL0     C29230   2.205   3.785  10.233  0.3069  0.1470 -0.2534
  937MOL0     C29231   2.352   3.801  10.207 -0.4121  0.3783 -0.3406
  937MOL0     C29232   2.430   3.725  10.308  0.3166 -0.4951  0.4438
  937MOL0     C29233   2.477   3.636  10.376 -0.8190 -0.2785  0.1326
  937MOL0     C29234   1.872   3.601   9.953  0.0826  0.6907  0.7269
  937MOL0     C29235   1.744   3.559   9.952  0.2733 -0.2463  0.9465
  937MOL0     C29236   1.725   3.404   9.935  0.4140 -0.3141 -0.3041
  937MOL0     H29237   1.248   3.662  10.306  1.7217  1.1865 -0.9171
  937MOL0     H29238   0.973   3.647  10.249 -4.1526  1.6173 -3.5858
  937MOL0     H29239   0.812   3.696   9.865  3.7485  0.8181  0.4631
  937MOL0     H29240   0.861   3.852   9.920 -0.1448  0.3124  1.2985
  937MOL0     H29241   0.649   3.828  10.085 -1.9187  0.6951 -0.6515
  937MOL0     H29242   0.624   3.866   9.908  0.8878 -1.3422 -2.1696
  937MOL0     H29243   0.541   3.619   9.891 -2.3329  1.6073  0.3681
  937MOL0     H29244   0.612   3.577  10.042  4.4471  0.9328 -2.0037
  937MOL0     H29245   0.428   3.741  10.144  1.2132  0.1198  0.4985
  937MOL0     H29246   0.369   3.777   9.983  0.6554  2.5324  2.3428
  937MOL0     H29247   0.335   3.550   9.924  1.2473 -2.0642  1.3287
  937MOL0     H29248   0.220   3.605  10.038 -0.4969  0.6568 -0.7070
  937MOL0     H29249   0.443   3.405  10.104  1.4068  2.1206  2.2564
  937MOL0     H29250   0.351   3.500  10.227 -1.8590  0.1312  1.4730
  937MOL0     H29251   0.247   3.317  10.005 -0.5292  5.0237 -0.5637
  937MOL0     H29252   0.143   3.420  10.091  1.4794  3.4758  0.8656
  937MOL0     H29253   0.217   3.290  10.305 -2.0604  0.6647  0.8011
  937MOL0     H29254   0.127   3.194  10.193  0.1748  0.0796  2.0754
  937MOL0     H29255   0.335   3.069   9.983 -1.8445 -1.4184  0.5839
  937MOL0     H29256   0.491   2.785  10.056 -0.5410 -0.0660 -0.1574
  937MOL0     H29257   0.637   2.854  10.114 -1.7613 -3.4319  0.7194
  937MOL0     H29258   0.596   2.806   9.868 -1.1982 -0.6650  2.6995
  937MOL0     H29259   0.520   2.972   9.858  2.7790  0.2405 -4.8188
  937MOL0     H29260   0.792   2.920   9.960  2.7469  1.4084 -0.2761
  937MOL0     H29261   0.753   2.946   9.793 -4.0424  2.7507 -1.0546
  937MOL0     H29262   0.644   3.174   9.913 -0.2738 -0.6300 -2.2113
  937MOL0     H29263   0.741   3.110  10.043  0.5785 -3.3318 -0.3755
  937MOL0     H29264   0.982   3.359   9.815 -0.7111 -1.4480  0.0772
  937MOL0     H29265   1.087   3.505   9.511 -0.6643 -0.2474 -1.0182
  937MOL0     H29266   1.063   3.543   9.688 -2.3297 -0.9281  0.6518
  937MOL0     H29267   0.937   3.585   9.580  2.1511  2.5083  2.8838
  937MOL0     H29268   0.769   3.659   9.228 -0.8208  1.7028 -1.2647
  937MOL0     H29269   0.742   3.761   9.010 -0.9574  0.4995  1.1280
  937MOL0     H29270   0.686   3.500   8.640 -1.0197  0.3740 -0.3081
  937MOL0     H29271   0.538   3.576   8.678 -0.6981 -0.0888  0.8415
  937MOL0     H29272   0.755   3.781   8.586 -1.1078  0.4833  0.1019
  937MOL0     H29273   0.703   3.661   8.471 -2.2406 -1.5584 -0.4109
  937MOL0     H29274   0.511   3.843   8.627  1.7503  3.1146 -0.2077
  937MOL0     H29275   0.462   3.720   8.512  0.3252  0.4494 -0.4413
  937MOL0     H29276   0.636   3.952   8.390  0.1016 -0.0221 -1.9401
  937MOL0     H29277   0.465   3.964   8.442 -1.3331 -0.5943 -0.0349
  937MOL0     H29278   0.559   3.741   8.264 -3.0850 -1.1104 -2.6861
  937MOL0     H29279   0.397   3.789   8.310 -0.1620 -0.4198  2.7387
  937MOL0     H29280   0.594   3.956   8.138 -2.2421  6.3631 -2.5034
  937MOL0     H29281   0.449   4.018   8.202  0.6263  1.3145 -1.9017
  937MOL0     H29282   0.329   3.789   8.099  1.1261 -1.3223 -1.2235
  937MOL0     H29283   0.476   3.777   8.015 -1.7434 -2.2214 -0.6369
  937MOL0     H29284   0.328   3.884   7.877  3.8277 -3.9825  0.6054
  937MOL0     H29285   0.427   4.028   7.933 -2.0621  2.3513  1.8614
  937MOL0     H29286   0.663   3.378   8.839  1.0007 -0.9604 -0.0779
  937MOL0     H29287   0.644   3.273   9.075  0.2819 -0.8229  0.5413
  937MOL0     H29288   0.686   3.205   9.464 -0.4162 -0.0006  2.8016
  937MOL0     H29289   0.683   3.098   9.663  1.7381 -0.8188 -2.2209
  937MOL0     H29290   1.041   3.700   9.848 -2.3033  1.1802  1.5908
  937MOL0     H29291   1.295   3.733   9.884 -0.8716  2.2008 -0.5430
  937MOL0     H29292   1.599   3.850  10.053 -0.2706  0.7146  0.5611
  937MOL0     H29293   1.816   3.928  10.008 -3.4171 -0.4998 -1.2958
  937MOL0     H29294   2.185   3.918   9.958 -1.3216  1.5249 -2.6339
  937MOL0     H29295   2.034   3.977   9.985  0.3864  0.3023  0.3524
  937MOL0     H29296   2.033   3.911  10.227  2.2072  3.6902  1.5058
  937MOL0     H29297   2.173   3.995  10.188  2.5194  0.1468 -1.8028
  937MOL0     H29298   2.186   3.784  10.341  2.9695  0.6910  0.2916
  937MOL0     H29299   2.166   3.693  10.188 -1.1710  1.5897 -2.1248
  937MOL0     H29300   2.378   3.907  10.220  0.2713  0.0432  1.2152
  937MOL0     H29301   2.384   3.774  10.106  0.1949 -1.1922  0.2448
  937MOL0     H29302   2.517   3.549  10.424  1.6914  1.1513  0.7978
  937MOL0     H29303   1.942   3.523   9.925 -1.8749 -0.3577 -1.5950
  937MOL0     H29304   1.650   3.382   9.858 -1.5558 -0.7047  1.6529
  937MOL0     H29305   1.817   3.356   9.899 -1.1149 -2.1103 -2.1122
  937MOL0     H29306   1.700   3.364  10.033 -1.0005  2.4952  0.5853
  938MOL0     O29307   5.819   2.755   1.816  0.3613  0.3335 -0.0972
  938MOL0     C29308   5.729   2.832   1.791 -0.1836  0.7915  1.0624
  938MOL0     O29309   5.602   2.833   1.845 -0.0584  0.0030  0.3168
  938MOL0     C29310   5.583   2.763   1.961 -0.8090  0.2260 -0.8752
  938MOL0     C29311   5.458   2.702   1.990  0.2199 -0.3175 -1.0404
  938MOL0     C29312   5.431   2.649   2.118 -0.3290 -0.7534  0.3376
  938MOL0     C29313   5.531   2.655   2.218  0.4309  0.2700 -0.4609
  938MOL0     O29314   5.489   2.604   2.343 -0.1205  0.2197 -0.1348
  938MOL0     C29315   5.596   2.582   2.440  0.5658 -0.0671  0.2426
  938MOL0     C29316   5.673   2.450   2.423  0.8292  0.4328  0.0870
  938MOL0     C29317   5.583   2.329   2.411 -0.8516 -0.3562 -0.4877
  938MOL0     C29318   5.521   2.275   2.548  0.2689  0.8388  0.6593
  938MOL0     C29319   5.422   2.168   2.508 -0.2754 -0.4338 -0.3975
  938MOL0     C29320   5.339   2.128   2.626 -0.5426  0.8021  0.6994
  938MOL0     C29321   5.238   2.233   2.685  0.1769 -0.2925 -0.4348
  938MOL0     C29322   5.148   2.176   2.802 -0.6903 -0.3085 -0.3285
  938MOL0     N29323   5.236   2.178   2.921 -0.2282 -0.3857  0.3526
  938MOL0     C29324   5.324   2.079   2.953  0.5431 -0.3759 -0.6334
  938MOL0     C29325   5.384   2.122   3.075 -0.1206 -0.3302 -0.0165
  938MOL0     C29326   5.474   2.056   3.175  0.1310 -0.3248  0.2639
  938MOL0     C29327   5.452   1.901   3.160  1.0210 -0.4132 -0.4838
  938MOL0     C29328   5.317   1.855   3.206 -0.3721  0.1794  0.5227
  938MOL0     C29329   5.279   1.930   3.340 -0.0190  0.5360  0.8710
  938MOL0     O29330   5.152   1.882   3.394  0.1849 -0.6570  0.3306
  938MOL0     C29331   5.141   1.801   3.506 -0.4514 -0.1300  0.7433
  938MOL0     C29332   5.236   1.687   3.538 -1.0758  0.1910 -0.0631
  938MOL0     C29333   5.234   1.627   3.668  0.0072  0.0990  0.7598
  938MOL0     C29334   5.302   1.487   3.689  0.1182  0.3671 -0.0505
  938MOL0     C29335   5.152   1.686   3.764 -1.0022 -0.0018 -0.0616
  938MOL0     C29336   5.156   1.654   3.911 -0.3613 -0.2499  0.8222
  938MOL0     O29337   5.073   1.724   3.989  0.1360 -0.4296 -0.2876
  938MOL0     C29338   4.993   1.672   4.089 -0.5157  1.1895  0.6615
  938MOL0     C29339   4.962   1.534   4.105  0.0456 -1.0687  1.0313
  938MOL0     C29340   4.881   1.489   4.213  0.2474 -0.1001  0.0940
  938MOL0     C29341   4.846   1.576   4.318 -0.5828  0.2193 -0.0864
  938MOL0     O29342   4.763   1.520   4.406  0.0717 -1.0114  0.2518
  938MOL0     C29343   4.829   1.475   4.523 -0.2856 -0.0175  0.1300
  938MOL0     C29344   4.712   1.442   4.617 -0.5843  0.8166  0.1528
  938MOL0     C29345   4.616   1.343   4.561 -0.2752  0.2699 -0.0842
  938MOL0     C29346   4.477   1.359   4.626 -0.4587  0.1424  0.3997
  938MOL0     C29347   4.394   1.243   4.580  0.1080  1.0961  1.5813
  938MOL0     C29348   4.267   1.230   4.662  0.2485  0.5787 -0.6154
  938MOL0     C29349   4.183   1.118   4.626 -0.3372  0.2107 -0.0533
  938MOL0     C29350   4.073   1.153   4.525  0.3863  0.3267  0.1581
  938MOL0    Cl29351   3.940   1.225   4.624  0.0232  0.0233  0.4887
  938MOL0     C29352   4.872   1.716   4.297  0.9894  0.1637  0.2389
  938MOL0     C29353   4.937   1.755   4.183 -0.2467 -0.3921  0.0545
  938MOL0     O29354   5.248   1.586   3.954 -0.3556 -0.3690 -0.2528
  938MOL0     C29355   5.057   1.780   3.729  0.7861 -0.8334 -0.6442
  938MOL0     C29356   5.048   1.838   3.603  0.2242 -0.1054  0.5140
  938MOL0     N29357   5.326   2.245   3.099 -0.9061 -0.2438 -0.5579
  938MOL0     N29358   5.244   2.281   3.007 -0.1510 -0.4092 -0.7106
  938MOL0     C29359   5.653   2.695   2.182  0.0409  0.0021 -0.3281
  938MOL0     C29360   5.681   2.752   2.054  0.7418 -0.7914 -1.1701
  938MOL0     C29361   5.762   2.928   1.690 -0.1106  0.5943 -0.1457
  938MOL0     C29362   5.860   2.901   1.595 -0.7854 -0.6189  0.0347
  938MOL0     C29363   5.908   2.992   1.508 -0.0781  0.5168  0.2881
  938MOL0     C29364   5.848   3.115   1.498  0.9588 -0.6058  0.2268
  938MOL0     O29365   5.905   3.204   1.410  0.2442 -0.2374  0.7667
  938MOL0     C29366   5.849   3.338   1.407 -0.5287  0.4561 -0.1697
  938MOL0     C29367   5.918   3.415   1.297 -0.1002  0.9363 -1.0571
  938MOL0     C29368   6.070   3.434   1.316 -0.0156 -0.1741  0.1225
  938MOL0     C29369   6.117   3.572   1.361  0.4140  0.7812 -0.2262
  938MOL0     C29370   6.262   3.569   1.386  0.3046  0.2022 -0.4256
  938MOL0     C29371   6.384   3.562   1.402  0.2439  0.0260  0.1823
  938MOL0     C29372   5.749   3.137   1.584  0.2407 -0.1342  0.5165
  938MOL0     C29373   5.703   3.047   1.677  0.6140  0.8323 -0.5842
  938MOL0     C29374   5.587   3.098   1.755  0.0120 -0.3626  0.3407
  938MOL0     H29375   5.369   2.709   1.927 -0.7607  0.5909  0.3685
  938MOL0     H29376   5.331   2.609   2.127 -0.9959  0.5025 -1.0444
  938MOL0     H29377   5.549   2.584   2.539 -0.2202 -0.7320 -0.1006
  938MOL0     H29378   5.660   2.670   2.441 -0.8467  1.0302 -1.1953
  938MOL0     H29379   5.722   2.441   2.326 -0.1738 -2.4756 -0.2643
  938MOL0     H29380   5.751   2.435   2.499  0.5521  0.1284  0.3195
  938MOL0     H29381   5.499   2.349   2.344  0.5556 -0.6593 -2.4327
  938MOL0     H29382   5.644   2.245   2.375  1.9285  0.6396  1.5238
  938MOL0     H29383   5.580   2.236   2.631  0.5136 -2.3049 -0.8237
  938MOL0     H29384   5.465   2.359   2.590 -0.5933  0.8441 -0.4623
  938MOL0     H29385   5.474   2.081   2.468 -1.2739 -1.3655  0.2699
  938MOL0     H29386   5.346   2.197   2.434  0.1222  0.1181 -0.5909
  938MOL0     H29387   5.279   2.041   2.597  0.3210 -0.4054  2.3900
  938MOL0     H29388   5.410   2.109   2.707 -0.7976  1.3854  1.0581
  938MOL0     H29389   5.166   2.265   2.609  1.9642 -0.1357 -2.1302
  938MOL0     H29390   5.283   2.323   2.729 -1.6207 -0.4626  1.9831
  938MOL0     H29391   5.064   2.245   2.812  0.5040  1.6953 -2.8746
  938MOL0     H29392   5.123   2.075   2.769  3.0762 -1.7330  0.5751
  938MOL0     H29393   5.331   1.990   2.891 -1.3659 -1.6473  0.8345
  938MOL0     H29394   5.451   2.088   3.277  0.5029 -0.4517  0.3893
  938MOL0     H29395   5.577   2.086   3.153 -1.3148  2.4611 -3.5868
  938MOL0     H29396   5.464   1.867   3.057  0.2428 -0.0429 -0.7032
  938MOL0     H29397   5.532   1.854   3.219  1.7422 -0.1315 -1.2133
  938MOL0     H29398   5.246   1.885   3.129 -0.1659  0.7158  0.5353
  938MOL0     H29399   5.303   1.747   3.208 -3.4470  0.4340 -0.9041
  938MOL0     H29400   5.356   1.923   3.417 -1.6105 -0.4967  2.4573
  938MOL0     H29401   5.266   2.037   3.324  0.1242  0.6907  1.7706
  938MOL0     H29402   5.293   1.639   3.460 -1.2813  0.5927 -0.4626
  938MOL0     H29403   5.340   1.454   3.592 -0.3473  2.0274 -0.8388
  938MOL0     H29404   5.233   1.410   3.723  1.0984 -0.0664  1.0087
  938MOL0     H29405   5.378   1.495   3.767 -0.0924  0.4482  0.1482
  938MOL0     H29406   5.001   1.462   4.033  1.5039 -0.5001  1.2240
  938MOL0     H29407   4.847   1.386   4.215  0.0785 -0.1550  4.5825
  938MOL0     H29408   4.896   1.391   4.501  0.4217  0.2294  1.2603
  938MOL0     H29409   4.882   1.562   4.562  1.3464 -0.3958 -1.1268
  938MOL0     H29410   4.748   1.399   4.711 -1.4942 -2.0910 -0.7109
  938MOL0     H29411   4.671   1.538   4.650 -0.0531  1.2832 -0.5095
  938MOL0     H29412   4.658   1.242   4.566  2.7219  1.3720 -0.6881
  938MOL0     H29413   4.600   1.364   4.455  0.4362  0.3242 -0.1875
  938MOL0     H29414   4.410   1.445   4.614 -2.1862 -0.6916  3.2021
  938MOL0     H29415   4.494   1.357   4.734 -0.4867  1.3958  0.4474
  938MOL0     H29416   4.365   1.257   4.475 -0.5954 -1.6509  1.3282
  938MOL0     H29417   4.461   1.157   4.593  0.6260  0.7287 -2.2906
  938MOL0     H29418   4.205   1.320   4.651 -0.3683  0.1042 -1.0573
  938MOL0     H29419   4.296   1.220   4.767 -0.4181  0.0341 -0.4813
  938MOL0     H29420   4.151   1.064   4.715 -1.8768  1.6958  0.3546
  938MOL0     H29421   4.241   1.051   4.562 -0.5668  1.7458 -1.9807
  938MOL0     H29422   4.042   1.066   4.466  0.9137 -1.4763  2.3905
  938MOL0     H29423   4.108   1.230   4.455 -0.6576  0.9444  0.2965
  938MOL0     H29424   4.829   1.785   4.369 -1.2793  0.2560 -1.1341
  938MOL0     H29425   4.958   1.859   4.161 -0.8883 -0.5134 -1.2036
  938MOL0     H29426   4.976   1.810   3.795  0.8295 -1.3794 -0.3407
  938MOL0     H29427   4.977   1.919   3.589 -0.6711 -0.4604  2.7111
  938MOL0     H29428   5.742   2.697   2.244  0.1908 -0.7308 -0.5070
  938MOL0     H29429   5.780   2.794   2.039 -0.2595  3.1146  1.5703
  938MOL0     H29430   5.920   2.812   1.611  1.8271  0.9975 -0.2201
  938MOL0     H29431   5.997   2.961   1.453 -0.4344  0.0627 -0.0358
  938MOL0     H29432   5.744   3.324   1.378  0.3852 -1.0693 -3.1530
  938MOL0     H29433   5.853   3.400   1.497 -0.8311  0.0878  0.0993
  938MOL0     H29434   5.875   3.515   1.286 -1.2313  0.7096  0.8544
  938MOL0     H29435   5.912   3.368   1.198  2.8228  1.6479 -1.6511
  938MOL0     H29436   6.107   3.370   1.397  2.3743  0.7737 -0.1405
  938MOL0     H29437   6.127   3.407   1.227  0.7625  0.7880  0.3102
  938MOL0     H29438   6.066   3.601   1.453 -1.9002  1.7450 -1.7318
  938MOL0     H29439   6.087   3.647   1.287  0.4902 -0.0063 -1.0723
  938MOL0     H29440   6.490   3.552   1.414  0.3137 -1.1483 -1.1273
  938MOL0     H29441   5.708   3.237   1.577  0.1794 -0.2630 -3.5382
  938MOL0     H29442   5.601   3.089   1.864 -1.3191  1.0282  0.6572
  938MOL0     H29443   5.577   3.205   1.736  0.3181 -0.4162 -0.1362
  938MOL0     H29444   5.493   3.048   1.731 -0.5467  1.2481 -0.9431
  939MOL0     O29445   6.956   8.570   4.927 -0.5966  0.4736  0.0551
  939MOL0     C29446   6.963   8.681   4.869 -0.2850  0.5000  0.2318
  939MOL0     O29447   7.076   8.733   4.823  0.5684 -0.3634 -0.3233
  939MOL0     C29448   7.187   8.659   4.817 -0.0572  0.4918 -0.2124
  939MOL0     C29449   7.285   8.693   4.722 -0.4549  0.3455  0.0817
  939MOL0     C29450   7.407   8.623   4.711 -0.4168  0.0577  0.2266
  939MOL0     C29451   7.437   8.518   4.797  0.3089 -0.4240 -0.8306
  939MOL0     O29452   7.544   8.433   4.811  0.3957  0.4327 -0.2742
  939MOL0     C29453   7.637   8.419   4.704 -0.2315  0.4427  0.1843
  939MOL0     C29454   7.742   8.312   4.745  1.1430  0.5761 -0.6500
  939MOL0     C29455   7.682   8.175   4.720  0.0408  0.2056  0.0022
  939MOL0     C29456   7.775   8.059   4.768 -0.5752  0.2890 -0.2078
  939MOL0     C29457   7.914   8.062   4.705  0.4139 -0.0036 -0.0076
  939MOL0     C29458   8.001   7.947   4.755 -0.6510  0.0440  0.4424
  939MOL0     C29459   8.157   7.952   4.717  0.3909 -0.6501  0.3397
  939MOL0     C29460   8.244   8.048   4.801  0.2625  0.2101  0.6165
  939MOL0     N29461   8.204   8.063   4.940  0.8345  0.5066  0.2741
  939MOL0     C29462   8.121   8.155   4.999  0.4826 -0.3109 -0.2993
  939MOL0     C29463   8.147   8.162   5.131 -0.0313  0.1885 -0.0871
  939MOL0     C29464   8.063   8.239   5.232 -0.3022  0.7043 -0.0735
  939MOL0     C29465   7.935   8.167   5.285  0.3179  0.1612 -0.0930
  939MOL0     C29466   7.959   8.022   5.331  0.1141 -0.6806 -0.4211
  939MOL0     C29467   7.841   7.973   5.411  0.1528 -0.6933  0.4061
  939MOL0     O29468   7.814   8.039   5.536  0.3219 -0.4229 -0.4500
  939MOL0     C29469   7.843   7.987   5.661 -1.2506 -0.3972  0.6262
  939MOL0     C29470   7.744   7.986   5.758  0.4494  0.0833 -0.4054
  939MOL0     C29471   7.764   7.938   5.888  0.3872 -0.5832 -0.2273
  939MOL0     C29472   7.654   7.932   5.987  0.5456 -0.2522 -0.1775
  939MOL0     C29473   7.896   7.892   5.913 -0.8192 -0.3307 -0.1840
  939MOL0     C29474   7.955   7.845   6.044  1.4252 -0.1410  0.1540
  939MOL0     O29475   8.089   7.851   6.058 -0.3303 -0.1852  0.6814
  939MOL0     C29476   8.148   7.809   6.174  0.3182 -0.2199 -0.2846
  939MOL0     C29477   8.135   7.896   6.285 -0.3532 -0.1858 -0.8256
  939MOL0     C29478   8.195   7.861   6.400  0.0601 -0.3943 -0.1633
  939MOL0     C29479   8.268   7.746   6.418  1.0008 -0.0489  0.1411
  939MOL0     O29480   8.332   7.722   6.537  0.1150  0.4672  0.1541
  939MOL0     C29481   8.443   7.625   6.539 -0.1437  0.4988  0.0495
  939MOL0     C29482   8.527   7.632   6.664  0.6037 -0.1237  0.7623
  939MOL0     C29483   8.434   7.648   6.790 -0.1214  0.4970  0.0420
  939MOL0     C29484   8.528   7.671   6.909 -0.2638 -0.0895  0.2981
  939MOL0     C29485   8.454   7.704   7.042 -0.5641  0.0329  0.2732
  939MOL0     C29486   8.531   7.792   7.130 -0.2131 -1.0411 -0.0454
  939MOL0     C29487   8.615   7.727   7.241 -0.7232  0.1925  0.2836
  939MOL0     C29488   8.694   7.835   7.313  0.3949  0.0477  0.4518
  939MOL0    Cl29489   8.810   7.920   7.215 -0.2571  0.1324  0.3461
  939MOL0     C29490   8.274   7.659   6.307 -0.1516  0.7999  0.0867
  939MOL0     C29491   8.219   7.688   6.183  0.0684 -0.6341 -0.3933
  939MOL0     O29492   7.880   7.803   6.134 -0.4346  0.2794 -0.4406
  939MOL0     C29493   7.992   7.894   5.811  0.5828  1.0804  0.1860
  939MOL0     C29494   7.966   7.947   5.692 -0.4793 -0.2990  0.0287
  939MOL0     N29495   8.259   8.083   5.146  0.2883  0.3964  0.4188
  939MOL0     N29496   8.288   8.024   5.033  0.2045  0.6642  0.0624
  939MOL0     C29497   7.344   8.494   4.902  0.0520  0.1888 -0.2015
  939MOL0     C29498   7.224   8.556   4.910  0.3634  1.1560 -0.5952
  939MOL0     C29499   6.843   8.780   4.863 -0.4801 -0.1100  0.8374
  939MOL0     C29500   6.865   8.897   4.786  0.4915  0.9660 -0.2862
  939MOL0     C29501   6.764   8.985   4.760 -0.5174  0.6266 -0.2619
  939MOL0     C29502   6.637   8.953   4.806 -0.5898  0.2593 -1.7744
  939MOL0     O29503   6.530   9.029   4.762 -0.5715  0.3057  0.0451
  939MOL0     C29504   6.549   9.148   4.675 -0.5035  0.1092  0.0922
  939MOL0     C29505   6.420   9.227   4.678  0.1885 -0.2359 -1.4797
  939MOL0     C29506   6.399   9.331   4.564 -0.5863  0.3559 -0.4584
  939MOL0     C29507   6.279   9.422   4.595 -0.2612 -0.1891 -0.5160
  939MOL0     C29508   6.162   9.336   4.570 -0.1201  0.0765 -0.3299
  939MOL0     C29509   6.059   9.287   4.535 -0.4491  0.4599 -0.8677
  939MOL0     C29510   6.619   8.851   4.898 -0.6496 -0.1723 -0.4846
  939MOL0     C29511   6.718   8.764   4.933  0.5826  0.1709  0.6016
  939MOL0     C29512   6.671   8.653   5.021  0.2296  0.9251  0.0938
  939MOL0     H29513   7.271   8.779   4.657  3.0356  1.0239  0.0645
  939MOL0     H29514   7.482   8.629   4.633  2.2808 -1.5890  2.5240
  939MOL0     H29515   7.685   8.517   4.708  0.0649  0.2829  0.7276
  939MOL0     H29516   7.591   8.412   4.605 -0.8299  0.4735  0.4529
  939MOL0     H29517   7.835   8.327   4.690  0.0167 -1.4060 -3.3507
  939MOL0     H29518   7.776   8.306   4.849 -2.6049 -3.4487  0.6690
  939MOL0     H29519   7.585   8.162   4.770 -0.0999 -1.0651 -0.5361
  939MOL0     H29520   7.648   8.172   4.616  0.1365  4.1861 -0.2936
  939MOL0     H29521   7.788   8.074   4.875  1.2160  2.2249 -0.6441
  939MOL0     H29522   7.735   7.959   4.750  0.2790  0.1270 -1.3065
  939MOL0     H29523   7.955   8.160   4.731 -0.1367  0.0596  0.6438
  939MOL0     H29524   7.900   8.057   4.596  2.6332  0.9354 -0.3954
  939MOL0     H29525   7.998   7.932   4.863  0.1947  2.2812  0.8182
  939MOL0     H29526   7.969   7.850   4.713  1.8010 -1.3992  1.6661
  939MOL0     H29527   8.166   7.971   4.610 -0.6630 -2.4687 -0.1168
  939MOL0     H29528   8.208   7.856   4.729 -0.7627 -1.4858 -1.0547
  939MOL0     H29529   8.347   8.013   4.790 -0.3880 -2.5239  2.2833
  939MOL0     H29530   8.229   8.146   4.754 -1.3793  0.8834  2.4007
  939MOL0     H29531   8.038   8.205   4.950  0.1061 -0.0904  0.5418
  939MOL0     H29532   8.032   8.333   5.186  0.8435  0.9063 -0.4584
  939MOL0     H29533   8.131   8.271   5.312 -1.1915  0.4176  0.8278
  939MOL0     H29534   7.902   8.234   5.364  1.8658  4.2748 -2.5919
  939MOL0     H29535   7.860   8.177   5.205  1.3206 -0.3433 -1.1173
  939MOL0     H29536   7.956   7.960   5.241  0.6180  1.1243 -1.7366
  939MOL0     H29537   8.046   7.998   5.394 -1.6550 -2.7902  1.3681
  939MOL0     H29538   7.749   7.955   5.354  0.0070 -3.7791  1.4510
  939MOL0     H29539   7.863   7.866   5.420 -2.4866 -1.2893  0.7639
  939MOL0     H29540   7.654   8.036   5.726  0.1967 -1.1608 -1.7472
  939MOL0     H29541   7.657   7.827   6.019  2.6800 -0.1504  0.1425
  939MOL0     H29542   7.556   7.947   5.942 -2.0090 -1.0840  4.3977
  939MOL0     H29543   7.653   8.005   6.068 -3.8501 -0.9159  0.6166
  939MOL0     H29544   8.093   7.997   6.281 -0.2233  0.0441  1.8103
  939MOL0     H29545   8.180   7.934   6.480  1.6461 -0.5248  0.2866
  939MOL0     H29546   8.403   7.524   6.539 -0.0157  0.4358 -1.3319
  939MOL0     H29547   8.508   7.642   6.453  0.8706  0.2385  0.7397
  939MOL0     H29548   8.587   7.541   6.673  1.2119 -0.0566 -1.9251
  939MOL0     H29549   8.593   7.719   6.662  0.1716  0.2240 -2.6050
  939MOL0     H29550   8.380   7.555   6.806 -0.7239  0.3897 -2.2440
  939MOL0     H29551   8.371   7.738   6.784 -1.6108 -0.4877  0.4430
  939MOL0     H29552   8.593   7.754   6.881  0.1021 -0.2030  0.7970
  939MOL0     H29553   8.584   7.578   6.923 -1.0663 -0.9685 -1.9045
  939MOL0     H29554   8.367   7.765   7.018  1.2344  1.8982 -1.8919
  939MOL0     H29555   8.423   7.613   7.094  0.7888 -1.1786 -0.9259
  939MOL0     H29556   8.458   7.837   7.198  3.0885 -0.2999  3.3145
  939MOL0     H29557   8.596   7.859   7.073  0.4534 -0.3617  1.4603
  939MOL0     H29558   8.684   7.661   7.189 -1.9552 -0.1575 -0.9751
  939MOL0     H29559   8.554   7.667   7.310 -1.3507  1.3925  0.7982
  939MOL0     H29560   8.744   7.795   7.401  1.0334 -0.4514 -0.1295
  939MOL0     H29561   8.625   7.908   7.356 -0.4310 -0.6548  0.3488
  939MOL0     H29562   8.331   7.567   6.315  1.7958  1.8936 -0.4944
  939MOL0     H29563   8.228   7.621   6.099 -2.1552 -1.4548 -0.0477
  939MOL0     H29564   8.093   7.856   5.823  0.3201 -0.4220 -1.7842
  939MOL0     H29565   8.043   7.951   5.616 -0.6954  2.7125 -0.1300
  939MOL0     H29566   7.372   8.413   4.969  0.1316  3.1469  3.6752
  939MOL0     H29567   7.171   8.527   5.000  0.9292 -1.1248 -0.9287
  939MOL0     H29568   6.965   8.914   4.748  0.0368  1.5846 -1.2426
  939MOL0     H29569   6.783   9.074   4.701  1.7319  0.5674  0.2763
  939MOL0     H29570   6.624   9.215   4.718 -0.9077  1.1353 -0.7532
  939MOL0     H29571   6.569   9.106   4.576  1.0535 -0.1940  0.4931
  939MOL0     H29572   6.406   9.271   4.777 -0.1977 -1.0447 -1.1646
  939MOL0     H29573   6.345   9.147   4.673  2.3712 -2.3756 -1.9284
  939MOL0     H29574   6.478   9.405   4.553 -0.3317  0.1245 -0.2218
  939MOL0     H29575   6.388   9.278   4.469 -2.3541 -2.3141  1.0974
  939MOL0     H29576   6.269   9.507   4.528  1.2533 -0.5569 -1.2535
  939MOL0     H29577   6.282   9.463   4.696 -0.6920  1.2676 -1.0811
  939MOL0     H29578   5.963   9.244   4.515 -0.2867 -0.0282 -0.6092
  939MOL0     H29579   6.520   8.834   4.939 -0.8016  1.3076 -0.2004
  939MOL0     H29580   6.591   8.598   4.972  2.2564 -0.5557 -1.7084
  939MOL0     H29581   6.746   8.574   5.028 -2.2292 -1.5930 -0.4858
  939MOL0     H29582   6.644   8.689   5.121 -0.2274  1.7194 -0.3061
  940MOL0     O29583   1.547   7.817   4.009 -0.3858  0.1059 -0.1938
  940MOL0     C29584   1.633   7.848   4.092 -0.0702  0.1096  0.1672
  940MOL0     O29585   1.639   7.966   4.162  0.3100 -0.4088  0.1803
  940MOL0     C29586   1.537   8.057   4.147  0.4796  0.6841 -0.1402
  940MOL0     C29587   1.570   8.189   4.129  0.1521 -0.0434  1.1218
  940MOL0     C29588   1.473   8.289   4.122 -0.7097  0.1063 -0.6754
  940MOL0     C29589   1.338   8.256   4.131 -0.0060 -0.6767  0.2793
  940MOL0     O29590   1.243   8.354   4.115 -0.1141  0.2251 -0.2083
  940MOL0     C29591   1.177   8.393   4.237  0.4590  1.2732  0.6698
  940MOL0     C29592   1.085   8.510   4.202 -0.5834  0.2143  0.1692
  940MOL0     C29593   0.963   8.468   4.124  0.4677 -0.5447  0.4075
  940MOL0     C29594   0.884   8.597   4.115  0.3461  0.7584 -0.2890
  940MOL0     C29595   0.754   8.581   4.035 -0.7620  0.1099  0.5190
  940MOL0     C29596   0.789   8.545   3.889  0.2972  0.2067  0.0087
  940MOL0     C29597   0.687   8.600   3.793 -1.0768  0.4107 -0.0727
  940MOL0     C29598   0.580   8.503   3.757  0.1292 -0.0348  0.2272
  940MOL0     N29599   0.480   8.496   3.865 -0.2826 -0.0673 -0.1055
  940MOL0     C29600   0.430   8.606   3.937  0.9308  0.1552  0.5312
  940MOL0     C29601   0.373   8.548   4.047 -0.0789 -0.0160 -0.6253
  940MOL0     C29602   0.321   8.632   4.165 -0.0743  0.7831  1.0676
  940MOL0     C29603   0.404   8.606   4.299  0.1281  0.1889  0.2700
  940MOL0     C29604   0.512   8.708   4.320 -0.2363 -0.2959  0.2516
  940MOL0     C29605   0.598   8.658   4.430  0.0092 -1.4157 -1.1217
  940MOL0     O29606   0.717   8.738   4.446 -0.3550  0.1070  0.1159
  940MOL0     C29607   0.810   8.687   4.518 -0.8937  1.3804 -1.2039
  940MOL0     C29608   0.807   8.562   4.585 -0.6536 -0.1890  0.6236
  940MOL0     C29609   0.908   8.523   4.664 -0.8139  0.1128 -0.4760
  940MOL0     C29610   0.878   8.386   4.741  0.3817  0.4604  0.1549
  940MOL0     C29611   1.028   8.605   4.671 -0.3006  0.6905 -1.0415
  940MOL0     C29612   1.153   8.571   4.750 -0.0559  0.3738  1.0302
  940MOL0     O29613   1.158   8.460   4.828  0.1291  0.7082 -0.3031
  940MOL0     C29614   1.284   8.435   4.880  0.7847 -1.1182 -0.2395
  940MOL0     C29615   1.404   8.385   4.822 -0.1310 -0.1365 -0.2595
  940MOL0     C29616   1.519   8.357   4.894  0.5469 -0.1284  0.3359
  940MOL0     C29617   1.518   8.374   5.030  0.0981  0.1072 -0.6926
  940MOL0     O29618   1.639   8.354   5.097  0.5155  0.6675  0.0758
  940MOL0     C29619   1.628   8.309   5.239  0.0748 -0.9600  0.6039
  940MOL0     C29620   1.738   8.212   5.270  0.9464 -0.7884  0.2603
  940MOL0     C29621   1.881   8.284   5.259  0.2771  0.6221 -0.4955
  940MOL0     C29622   1.971   8.285   5.384 -0.1528 -0.1631  0.6885
  940MOL0     C29623   2.011   8.140   5.395 -0.0903  0.3430 -1.0527
  940MOL0     C29624   2.077   8.097   5.531 -0.4683 -0.0155  0.0227
  940MOL0     C29625   2.009   8.143   5.665  0.2204  2.0068  0.5213
  940MOL0     C29626   2.082   8.105   5.790  0.1902  1.3847  0.3461
  940MOL0    Cl29627   2.052   7.929   5.810  0.6600 -0.3310 -0.5481
  940MOL0     C29628   1.401   8.425   5.096 -0.2033  0.6269  0.3322
  940MOL0     C29629   1.284   8.457   5.018  0.3226 -0.0869 -0.1294
  940MOL0     O29630   1.250   8.638   4.713 -0.0977 -0.4107  0.6763
  940MOL0     C29631   1.030   8.721   4.605 -0.9894 -0.2449  0.0512
  940MOL0     C29632   0.923   8.759   4.528 -0.7139 -0.9866  0.1328
  940MOL0     N29633   0.391   8.413   4.041 -0.3290  0.1110  0.3492
  940MOL0     N29634   0.451   8.383   3.931  0.1292  0.0617 -0.5107
  940MOL0     C29635   1.301   8.126   4.151 -0.7368  0.2073 -0.0831
  940MOL0     C29636   1.396   8.017   4.156 -0.3738 -0.0133  0.8099
  940MOL0     C29637   1.725   7.740   4.134  0.5853  0.0262  0.4523
  940MOL0     C29638   1.683   7.606   4.119 -0.2679  0.1290 -0.5960
  940MOL0     C29639   1.763   7.506   4.163  0.6675  0.0309  0.1652
  940MOL0     C29640   1.894   7.529   4.202 -0.8952 -0.3148  1.1608
  940MOL0     O29641   1.974   7.423   4.237 -0.2725  0.5217 -0.7631
  940MOL0     C29642   1.991   7.412   4.382 -0.3767 -0.5881  0.4940
  940MOL0     C29643   2.003   7.272   4.427 -0.6033  1.1417 -0.0000
  940MOL0     C29644   2.097   7.175   4.348  0.3212  0.8683  0.2914
  940MOL0     C29645   2.247   7.186   4.361  0.4912  0.3363 -0.3484
  940MOL0     C29646   2.302   7.085   4.273  0.0818  0.5640  0.4057
  940MOL0     C29647   2.367   6.994   4.214  0.2625  0.0689 -0.3409
  940MOL0     C29648   1.944   7.656   4.189  0.2139  0.1445 -0.0846
  940MOL0     C29649   1.862   7.767   4.172 -0.1733  0.4105  0.6093
  940MOL0     C29650   1.924   7.901   4.186  0.3423  0.3348 -0.0137
  940MOL0     H29651   1.673   8.212   4.104  0.2779 -0.6950  1.0278
  940MOL0     H29652   1.506   8.391   4.108  0.8482 -0.4888 -1.6679
  940MOL0     H29653   1.246   8.428   4.314  1.2183 -0.3840  0.7728
  940MOL0     H29654   1.122   8.316   4.291  1.6528  0.6289  0.9719
  940MOL0     H29655   1.057   8.546   4.301 -1.9211 -0.6650  0.1357
  940MOL0     H29656   1.132   8.594   4.150 -0.0067 -0.1398  0.1081
  940MOL0     H29657   1.001   8.444   4.024 -0.8165 -3.4653  0.5159
  940MOL0     H29658   0.900   8.389   4.164 -0.8748 -0.9198 -2.2297
  940MOL0     H29659   0.850   8.620   4.217  1.1290 -0.3873  0.2508
  940MOL0     H29660   0.940   8.687   4.086 -1.0252  1.4411 -0.9277
  940MOL0     H29661   0.691   8.669   4.046 -1.1939 -0.3362  1.8326
  940MOL0     H29662   0.694   8.496   4.069  0.3900 -1.4228 -1.1087
  940MOL0     H29663   0.881   8.596   3.857  0.2731 -0.7265 -1.6400
  940MOL0     H29664   0.810   8.438   3.878  1.4431  0.1631  2.1972
  940MOL0     H29665   0.733   8.617   3.695 -1.7932 -0.6958 -0.6133
  940MOL0     H29666   0.656   8.702   3.819 -2.6362 -0.0950  0.1298
  940MOL0     H29667   0.538   8.527   3.659  0.5476 -0.3850 -0.0416
  940MOL0     H29668   0.628   8.405   3.756  1.6363  0.5493  3.1761
  940MOL0     H29669   0.445   8.712   3.922  1.7909  0.3156  2.2950
  940MOL0     H29670   0.221   8.594   4.186 -1.0905  2.6161 -0.2092
  940MOL0     H29671   0.308   8.738   4.144 -0.0682  1.1627  2.8611
  940MOL0     H29672   0.333   8.607   4.382 -2.1498  2.0378 -1.5577
  940MOL0     H29673   0.449   8.506   4.295 -1.8983 -0.7812  0.4697
  940MOL0     H29674   0.574   8.718   4.230 -0.0968  3.2841  0.6080
  940MOL0     H29675   0.467   8.805   4.345 -2.1150 -1.0053 -0.2513
  940MOL0     H29676   0.542   8.664   4.524 -0.2314 -1.4518 -1.2633
  940MOL0     H29677   0.613   8.551   4.416  3.8987 -1.3499  1.0296
  940MOL0     H29678   0.727   8.490   4.570  1.8116 -2.5782 -2.2823
  940MOL0     H29679   0.957   8.315   4.714  0.4357  0.8827 -0.8399
  940MOL0     H29680   0.783   8.338   4.715  0.3914  0.4509  0.1363
  940MOL0     H29681   0.876   8.390   4.851 -0.0354  0.1257  0.1601
  940MOL0     H29682   1.411   8.358   4.717 -0.9897 -3.5751  0.4513
  940MOL0     H29683   1.614   8.342   4.843 -0.1356 -0.1274 -0.9705
  940MOL0     H29684   1.639   8.395   5.306  1.1838 -1.3408  0.9377
  940MOL0     H29685   1.535   8.254   5.257 -0.0504 -0.8633  0.2495
  940MOL0     H29686   1.727   8.173   5.372 -0.2655 -0.5516  0.2298
  940MOL0     H29687   1.728   8.130   5.198  0.5822  0.7919 -1.5510
  940MOL0     H29688   1.871   8.390   5.232  1.9996  1.7015  2.6588
  940MOL0     H29689   1.931   8.225   5.181  0.9661 -0.6479  0.8484
  940MOL0     H29690   1.920   8.321   5.473 -3.2253  1.7824 -1.6307
  940MOL0     H29691   2.062   8.345   5.373 -0.3598 -0.0577 -0.6127
  940MOL0     H29692   1.925   8.074   5.378 -0.3512  0.5021 -0.3545
  940MOL0     H29693   2.079   8.115   5.313 -2.8568  0.9053 -3.7008
  940MOL0     H29694   2.168   8.158   5.522 -2.4271  3.0413 -0.2120
  940MOL0     H29695   2.098   7.989   5.539  3.2739  0.5570  0.0541
  940MOL0     H29696   1.909   8.101   5.653  0.4463  1.0114  1.9026
  940MOL0     H29697   1.995   8.251   5.665 -1.4021  1.8084  1.1554
  940MOL0     H29698   2.039   8.160   5.874 -1.7906 -1.2694  1.1932
  940MOL0     H29699   2.187   8.134   5.780  0.3869  0.0918 -1.9719
  940MOL0     H29700   1.419   8.461   5.196  0.2812  1.0489  0.0968
  940MOL0     H29701   1.188   8.483   5.060 -0.7453 -1.1565 -1.8112
  940MOL0     H29702   1.117   8.785   4.615  0.3840 -2.1784  1.0597
  940MOL0     H29703   0.923   8.848   4.467 -2.4788  1.7267  3.6914
  940MOL0     H29704   1.193   8.124   4.162 -0.7896  1.9948  0.0806
  940MOL0     H29705   1.372   7.915   4.182  2.5558 -1.1883 -0.5833
  940MOL0     H29706   1.582   7.577   4.092 -0.6601 -0.0306  0.9486
  940MOL0     H29707   1.726   7.404   4.158  1.4947 -0.2989  0.5373
  940MOL0     H29708   2.076   7.476   4.409 -0.2753 -0.1225 -0.8563
  940MOL0     H29709   1.901   7.459   4.422 -1.3281  0.2263 -2.3850
  940MOL0     H29710   1.900   7.237   4.420 -0.3661  0.8010 -2.7239
  940MOL0     H29711   2.043   7.266   4.529  2.6623 -2.3087 -1.2235
  940MOL0     H29712   2.071   7.070   4.366  1.2892  0.4844 -0.4446
  940MOL0     H29713   2.071   7.188   4.243 -3.2981 -1.6144  0.7056
  940MOL0     H29714   2.277   7.173   4.465  1.4710  1.5396 -0.4632
  940MOL0     H29715   2.278   7.283   4.323  2.2142 -0.4932 -1.1970
  940MOL0     H29716   2.431   6.919   4.173  1.2644  1.4439 -1.4064
  940MOL0     H29717   2.050   7.680   4.197  0.5077  1.2892 -4.6041
  940MOL0     H29718   2.028   7.886   4.214  0.3497  1.0691  0.3964
  940MOL0     H29719   1.925   7.957   4.092 -1.0572  1.3432  0.5203
  940MOL0     H29720   1.873   7.955   4.266  2.0569  1.2409  0.5132
  941MOL0     O29721   5.236   6.672   3.386 -0.2443 -0.6564  0.0009
  941MOL0     C29722   5.336   6.739   3.414  0.4403 -0.0787  0.2791
  941MOL0     O29723   5.392   6.819   3.320  0.2355 -0.0464  0.6615
  941MOL0     C29724   5.369   6.799   3.186  0.0638 -0.9623  0.2945
  941MOL0     C29725   5.343   6.907   3.103  0.7098 -0.2472  0.7344
  941MOL0     C29726   5.324   6.891   2.968  0.1573 -0.3929  0.5118
  941MOL0     C29727   5.326   6.766   2.902 -0.3160 -0.4745 -0.0242
  941MOL0     O29728   5.319   6.775   2.772  0.1972  0.2210  0.6659
  941MOL0     C29729   5.320   6.658   2.701  0.2525 -0.3956 -1.0321
  941MOL0     C29730   5.333   6.700   2.553  0.0481  0.3817  0.0685
  941MOL0     C29731   5.474   6.731   2.507 -1.1196  0.2716  0.3475
  941MOL0     C29732   5.492   6.697   2.352  0.2911  0.2014 -0.2403
  941MOL0     C29733   5.626   6.754   2.308 -0.5752 -0.1354 -0.5186
  941MOL0     C29734   5.747   6.660   2.347  0.8354  0.7394 -0.3124
  941MOL0     C29735   5.871   6.699   2.267 -1.0227 -0.2251 -0.4844
  941MOL0     C29736   5.995   6.648   2.343  0.5182  0.3627 -0.1940
  941MOL0     N29737   6.114   6.696   2.287  0.6409 -0.1855  1.5770
  941MOL0     C29738   6.151   6.660   2.158 -0.2951 -0.6960  0.2098
  941MOL0     C29739   6.273   6.722   2.143 -0.0945 -0.2712 -0.1714
  941MOL0     C29740   6.351   6.709   2.024  0.1723  0.4229 -0.3612
  941MOL0     C29741   6.268   6.759   1.896  0.0212  0.9971  0.2767
  941MOL0     C29742   6.207   6.903   1.910 -0.1750  0.0520  0.1043
  941MOL0     C29743   6.153   6.944   1.775  0.4822  0.5720  0.0512
  941MOL0     O29744   6.091   7.069   1.781  0.1769 -0.6198  0.3077
  941MOL0     C29745   6.156   7.189   1.760  0.1260  0.0893 -0.0979
  941MOL0     C29746   6.073   7.302   1.768 -0.0102 -0.4928  0.3961
  941MOL0     C29747   6.127   7.429   1.752 -0.0975  0.1221  0.0576
  941MOL0     C29748   6.036   7.551   1.766  0.6972 -0.4750  0.1327
  941MOL0     C29749   6.274   7.445   1.732  0.0301  0.3540  0.0971
  941MOL0     C29750   6.335   7.572   1.699  0.6124 -0.8600 -0.2618
  941MOL0     O29751   6.305   7.619   1.571  0.2521  0.0167  0.1046
  941MOL0     C29752   6.324   7.750   1.538 -0.8079  0.7077 -0.1849
  941MOL0     C29753   6.356   7.781   1.406  0.9663  0.5326  0.0805
  941MOL0     C29754   6.406   7.902   1.361 -0.0103 -0.8944  0.0692
  941MOL0     C29755   6.438   8.000   1.453  0.0407  0.4174  0.1750
  941MOL0     O29756   6.506   8.111   1.404 -0.0284 -0.4786  0.2630
  941MOL0     C29757   6.632   8.132   1.466  0.1129 -0.7663  0.2304
  941MOL0     C29758   6.749   8.081   1.388 -1.1729 -0.2733 -0.7915
  941MOL0     C29759   6.806   8.173   1.277  0.1690 -0.3999 -0.2744
  941MOL0     C29760   6.862   8.097   1.159  0.0891  0.7873 -0.7519
  941MOL0     C29761   7.002   8.048   1.188  1.0401 -0.0615 -0.0225
  941MOL0     C29762   7.062   7.950   1.088 -0.2425  0.1346 -0.4864
  941MOL0     C29763   7.191   7.901   1.134 -0.0507 -0.5080 -0.2225
  941MOL0     C29764   7.243   7.767   1.077  0.3898 -0.4994 -0.5804
  941MOL0    Cl29765   7.204   7.751   0.902 -0.0279 -0.0094  0.1527
  941MOL0     C29766   6.402   7.976   1.584  0.0080 -0.5131 -0.1082
  941MOL0     C29767   6.340   7.854   1.625 -0.6745  0.7223  0.2109
  941MOL0     O29768   6.423   7.623   1.768 -0.1043  0.2752 -0.2184
  941MOL0     C29769   6.347   7.333   1.720 -0.1172 -0.3625  0.9720
  941MOL0     C29770   6.295   7.203   1.733 -0.6759 -0.6416 -0.3383
  941MOL0     N29771   6.312   6.768   2.264 -0.1138 -0.4089  0.3956
  941MOL0     N29772   6.208   6.775   2.346 -0.0715 -0.8609  1.6168
  941MOL0     C29773   5.364   6.649   2.983  0.5784 -0.2668 -0.2600
  941MOL0     C29774   5.392   6.678   3.122 -0.4963 -1.2378 -0.1429
  941MOL0     C29775   5.373   6.755   3.554  0.9030  0.3018  0.4807
  941MOL0     C29776   5.427   6.880   3.602  0.3298  0.9643  0.5214
  941MOL0     C29777   5.461   6.888   3.735 -1.1334  0.2049  0.0498
  941MOL0     C29778   5.433   6.791   3.819 -0.5674 -0.1980 -0.4173
  941MOL0     O29779   5.469   6.824   3.949 -0.3523  0.2619  1.0327
  941MOL0     C29780   5.375   6.787   4.053  0.4764 -0.3697  0.2698
  941MOL0     C29781   5.384   6.878   4.180  0.1809 -0.2660 -0.9574
  941MOL0     C29782   5.284   6.832   4.283  0.0292  0.4312 -0.9117
  941MOL0     C29783   5.260   6.930   4.397 -0.1798  0.2494 -0.9811
  941MOL0     C29784   5.196   7.056   4.351 -0.1497  1.1366  0.6008
  941MOL0     C29785   5.146   7.164   4.317  0.0335  0.6539 -0.6197
  941MOL0     C29786   5.390   6.664   3.774  0.0906 -0.6656 -0.3759
  941MOL0     C29787   5.361   6.644   3.643 -0.8310  0.0113 -0.1730
  941MOL0     C29788   5.328   6.508   3.600  0.2588 -0.4148 -0.1418
  941MOL0     H29789   5.326   6.998   3.160 -1.4797  0.5532 -1.0640
  941MOL0     H29790   5.299   6.976   2.906  1.4229  1.4231  2.3453
  941MOL0     H29791   5.234   6.599   2.732 -0.3511  1.4461  1.0492
  941MOL0     H29792   5.408   6.600   2.730 -0.2910 -0.4704  0.5812
  941MOL0     H29793   5.291   6.612   2.505 -0.5498 -0.1123  1.4344
  941MOL0     H29794   5.273   6.790   2.542  0.0877  0.5122  0.8560
  941MOL0     H29795   5.503   6.834   2.530 -0.6004  0.3630 -0.6617
  941MOL0     H29796   5.547   6.661   2.549 -0.8147  0.8979  0.8731
  941MOL0     H29797   5.489   6.589   2.338  1.0546  0.4408 -2.9823
  941MOL0     H29798   5.418   6.750   2.291 -1.8084 -2.7814 -0.4948
  941MOL0     H29799   5.643   6.853   2.349 -1.3455  0.4841 -1.6228
  941MOL0     H29800   5.619   6.767   2.200 -1.5426  3.1536 -0.1534
  941MOL0     H29801   5.766   6.670   2.454  0.0264 -1.0402  0.0387
  941MOL0     H29802   5.735   6.555   2.319  0.2011  0.1434  2.0050
  941MOL0     H29803   5.875   6.808   2.262  0.3779 -0.3017 -1.5237
  941MOL0     H29804   5.858   6.655   2.168 -2.9428  0.6296 -0.6510
  941MOL0     H29805   5.998   6.688   2.445 -1.3990 -0.0015  0.0571
  941MOL0     H29806   5.991   6.539   2.356 -1.0243  0.4211  0.0121
  941MOL0     H29807   6.088   6.619   2.080 -0.4079  1.3381 -0.8329
  941MOL0     H29808   6.377   6.603   2.018 -1.9481 -0.1265 -0.5909
  941MOL0     H29809   6.442   6.769   2.037  0.3732 -0.0801  0.6823
  941MOL0     H29810   6.327   6.758   1.804 -1.5608  1.8359 -0.7818
  941MOL0     H29811   6.188   6.685   1.886  1.7344 -1.1523  1.4975
  941MOL0     H29812   6.134   6.902   1.991 -1.3031 -4.5734 -0.6364
  941MOL0     H29813   6.285   6.972   1.942 -0.9542  1.0460 -0.1034
  941MOL0     H29814   6.220   6.925   1.690 -1.7376 -1.4385 -1.3966
  941MOL0     H29815   6.066   6.885   1.743 -0.5683  1.4784  1.1188
  941MOL0     H29816   5.966   7.314   1.777 -0.2026  1.4165 -2.8132
  941MOL0     H29817   6.074   7.637   1.823 -2.7726  0.1064  1.8502
  941MOL0     H29818   5.944   7.518   1.817  0.5360 -0.0416  0.1261
  941MOL0     H29819   6.003   7.590   1.669  1.6720 -1.4475 -0.6151
  941MOL0     H29820   6.343   7.698   1.337 -2.9885 -1.2468  2.5748
  941MOL0     H29821   6.438   7.925   1.260 -1.0718 -0.4356 -0.1755
  941MOL0     H29822   6.650   8.239   1.485 -2.0985 -0.6360  2.0253
  941MOL0     H29823   6.630   8.088   1.566 -0.9804  1.9303  1.5142
  941MOL0     H29824   6.829   8.067   1.462 -1.3934 -1.0018 -0.6868
  941MOL0     H29825   6.723   7.982   1.348  2.6156 -1.8590  0.2074
  941MOL0     H29826   6.886   8.233   1.320  0.8518 -0.6114 -1.2136
  941MOL0     H29827   6.730   8.239   1.233 -0.3288  0.3472  1.5957
  941MOL0     H29828   6.882   8.160   1.072 -0.5414  1.8825 -0.1186
  941MOL0     H29829   6.796   8.013   1.132  1.0706 -0.9613  1.9066
  941MOL0     H29830   7.080   8.122   1.209 -1.0942  2.0532  0.9310
  941MOL0     H29831   6.986   7.996   1.283 -0.6413  1.7517  0.7732
  941MOL0     H29832   7.072   7.997   0.989 -0.4464  1.5316  0.1353
  941MOL0     H29833   6.992   7.867   1.077  1.1134 -1.0806 -0.2262
  941MOL0     H29834   7.195   7.893   1.243 -2.4456  4.5773  0.5208
  941MOL0     H29835   7.271   7.969   1.105  0.1108 -1.2327 -1.5270
  941MOL0     H29836   7.206   7.678   1.127 -3.6515  1.5569  0.4982
  941MOL0     H29837   7.352   7.762   1.091  0.2941 -2.7422 -0.4145
  941MOL0     H29838   6.413   8.050   1.662  1.8157 -1.5681  0.7003
  941MOL0     H29839   6.315   7.854   1.730 -3.6942  4.8098 -0.2450
  941MOL0     H29840   6.449   7.349   1.686 -1.5425  2.8236 -2.4847
  941MOL0     H29841   6.366   7.121   1.740  1.4919  1.1954  0.3064
  941MOL0     H29842   5.396   6.551   2.948 -1.6269 -0.3531 -2.2447
  941MOL0     H29843   5.437   6.598   3.179 -0.4415 -2.5891 -1.9688
  941MOL0     H29844   5.448   6.957   3.529 -1.8033  1.6939  0.6027
  941MOL0     H29845   5.508   6.978   3.773 -0.3795  1.2932 -3.1471
  941MOL0     H29846   5.275   6.802   4.014  0.4214  2.4379  1.2994
  941MOL0     H29847   5.400   6.685   4.085 -0.8049 -0.3771  1.3171
  941MOL0     H29848   5.349   6.975   4.144 -2.9414 -1.7658 -2.4012
  941MOL0     H29849   5.485   6.883   4.219 -0.6484  1.5603  1.1633
  941MOL0     H29850   5.201   6.800   4.219  0.6944  1.0995 -2.1364
  941MOL0     H29851   5.317   6.744   4.341 -3.8536 -1.1266 -0.7630
  941MOL0     H29852   5.360   6.947   4.437 -0.2900  1.0290 -1.0208
  941MOL0     H29853   5.198   6.890   4.478 -0.0401 -1.4942 -1.6880
  941MOL0     H29854   5.075   7.236   4.282  1.8878  1.5761 -2.7077
  941MOL0     H29855   5.364   6.591   3.850 -0.5412  2.4302  2.6236
  941MOL0     H29856   5.231   6.495   3.648  0.1411 -0.0020 -0.2688
  941MOL0     H29857   5.334   6.492   3.492  1.8481 -0.1205 -0.1270
  941MOL0     H29858   5.400   6.435   3.640 -1.2486 -0.8825  1.8700
  942MOL0     O29859   0.009   7.409   5.192 -1.2400  0.2631  0.1589
  942MOL0     C29860  -0.041   7.348   5.099  0.0209 -0.5888  0.8760
  942MOL0     O29861  -0.055   7.218   5.089  0.5798  0.1219  0.3420
  942MOL0     C29862  -0.015   7.142   5.198  0.2951 -0.1766 -0.2450
  942MOL0     C29863   0.115   7.087   5.194 -0.7774 -0.4439  0.4924
  942MOL0     C29864   0.161   6.996   5.291  0.3610 -0.0715 -0.0056
  942MOL0     C29865   0.070   6.952   5.388 -1.6677 -0.7232 -0.1627
  942MOL0     O29866   0.098   6.862   5.497  0.1705 -0.3757  0.2570
  942MOL0     C29867   0.046   6.725   5.463 -0.7494 -0.2581  1.0661
  942MOL0     C29868   0.126   6.657   5.360  0.1956 -0.0689 -0.2792
  942MOL0     C29869   0.279   6.658   5.390  0.8962 -0.2325 -0.0131
  942MOL0     C29870   0.350   6.551   5.289 -0.4631 -1.0319  0.1492
  942MOL0     C29871   0.508   6.567   5.307 -0.1145  0.3197  0.4312
  942MOL0     C29872   0.578   6.683   5.232 -0.2407 -0.0820 -0.4894
  942MOL0     C29873   0.722   6.693   5.277  0.5067 -0.3026  0.0315
  942MOL0     C29874   0.793   6.827   5.240  0.2907  0.5926 -0.2115
  942MOL0     N29875   0.939   6.818   5.268  0.7796 -0.4315 -0.0234
  942MOL0     C29876   0.979   6.769   5.385 -0.0061  0.1090  0.2336
  942MOL0     C29877   1.103   6.818   5.402  0.0537 -0.2213  0.0481
  942MOL0     C29878   1.196   6.768   5.512  0.3242  0.1644  0.6271
  942MOL0     C29879   1.247   6.623   5.474  0.7108 -1.2193 -0.2596
  942MOL0     C29880   1.367   6.585   5.566  0.3530 -0.3892 -0.1282
  942MOL0     C29881   1.514   6.621   5.520 -0.4972 -0.1663 -0.2295
  942MOL0     O29882   1.555   6.545   5.410 -0.0633  0.4411 -0.3147
  942MOL0     C29883   1.574   6.406   5.421  0.8982  0.2534 -0.2742
  942MOL0     C29884   1.617   6.336   5.539  0.1616  0.0620 -0.3724
  942MOL0     C29885   1.657   6.196   5.540 -0.1767 -0.3021 -0.2255
  942MOL0     C29886   1.727   6.139   5.663  0.7414 -0.3547  0.1645
  942MOL0     C29887   1.631   6.118   5.419  0.2883  0.4884 -0.7157
  942MOL0     C29888   1.661   5.964   5.397  0.8332 -0.0265 -0.0906
  942MOL0     O29889   1.607   5.914   5.280 -0.7483 -0.8928  0.5523
  942MOL0     C29890   1.650   5.797   5.222  0.6174  1.3033  0.5988
  942MOL0     C29891   1.565   5.758   5.115 -0.0196  0.3600 -0.0022
  942MOL0     C29892   1.578   5.632   5.057  0.7367 -0.2851 -0.4257
  942MOL0     C29893   1.688   5.550   5.083 -0.9566  0.1899  0.2431
  942MOL0     O29894   1.699   5.443   5.008 -0.2934  0.1929  0.3454
  942MOL0     C29895   1.817   5.438   4.925  0.3821 -0.0898 -0.4435
  942MOL0     C29896   1.823   5.297   4.852  0.2103  0.2427  1.0459
  942MOL0     C29897   1.964   5.299   4.773  0.0295 -0.1500 -0.2549
  942MOL0     C29898   1.971   5.181   4.671 -0.4928 -0.9890 -0.9800
  942MOL0     C29899   2.098   5.201   4.586 -0.3131 -0.2784  0.0970
  942MOL0     C29900   2.236   5.195   4.659 -0.3285 -0.4882 -0.3361
  942MOL0     C29901   2.352   5.249   4.574 -0.9127 -0.3902  0.1505
  942MOL0     C29902   2.464   5.265   4.674 -0.2808  0.0974 -0.1487
  942MOL0    Cl29903   2.475   5.440   4.714 -0.0553 -0.0979 -0.6106
  942MOL0     C29904   1.786   5.597   5.173 -0.1722 -0.0281 -0.2221
  942MOL0     C29905   1.763   5.714   5.245 -0.0486 -0.4775 -0.0096
  942MOL0     O29906   1.732   5.903   5.478  0.1565  0.0169 -0.6304
  942MOL0     C29907   1.573   6.187   5.308 -0.8031 -0.3616 -0.4231
  942MOL0     C29908   1.550   6.326   5.303  0.3410  0.3745  0.0758
  942MOL0     N29909   1.136   6.901   5.296  0.0793  0.0969  0.2727
  942MOL0     N29910   1.029   6.916   5.216 -1.1865  1.0026  0.4193
  942MOL0     C29911  -0.057   7.006   5.387  0.5234  0.5887  0.7509
  942MOL0     C29912  -0.103   7.104   5.292  0.4456 -0.3820 -0.8371
  942MOL0     C29913  -0.091   7.427   4.976  0.3611 -0.0492 -0.2008
  942MOL0     C29914  -0.138   7.561   5.005 -0.0708  0.3371 -0.1727
  942MOL0     C29915  -0.216   7.624   4.911 -0.4343  0.1840 -0.3971
  942MOL0     C29916  -0.240   7.561   4.784 -0.2086 -0.2443  0.4271
  942MOL0     O29917  -0.311   7.628   4.689  0.0668  0.4021  0.5119
  942MOL0     C29918  -0.452   7.650   4.710  0.1716 -0.2218 -0.1792
  942MOL0     C29919  -0.528   7.529   4.645 -0.9391 -0.3887  0.4096
  942MOL0     C29920  -0.512   7.550   4.494 -0.5037  0.1226  0.2164
  942MOL0     C29921  -0.647   7.542   4.433 -0.0972 -0.0953  0.2591
  942MOL0     C29922  -0.636   7.456   4.319 -0.2151  0.3645  0.4184
  942MOL0     C29923  -0.632   7.395   4.221  0.1626 -0.1793 -0.5458
  942MOL0     C29924  -0.178   7.442   4.747  0.1298 -0.6443 -1.4688
  942MOL0     C29925  -0.110   7.370   4.844  0.1681 -0.0193 -0.5761
  942MOL0     C29926  -0.071   7.233   4.801  0.4315 -0.1163 -0.2153
  942MOL0     H29927   0.193   7.117   5.124 -0.4643  0.2512  1.1185
  942MOL0     H29928   0.263   6.960   5.294  0.7112  0.3256 -3.2648
  942MOL0     H29929  -0.058   6.741   5.434 -0.0888  2.1240 -0.2576
  942MOL0     H29930   0.057   6.658   5.548  2.6502  0.5513  1.4071
  942MOL0     H29931   0.100   6.552   5.343  0.6161 -0.1223 -0.6337
  942MOL0     H29932   0.108   6.711   5.267  2.8851  2.4393  0.5047
  942MOL0     H29933   0.319   6.759   5.382  2.0557 -0.7192 -0.6016
  942MOL0     H29934   0.291   6.626   5.494 -1.2473  0.1765  0.4155
  942MOL0     H29935   0.333   6.444   5.309  0.3986 -1.2392 -0.2206
  942MOL0     H29936   0.318   6.585   5.190  2.6714 -0.0632 -0.6160
  942MOL0     H29937   0.544   6.478   5.254 -2.1171  0.2135 -0.8460
  942MOL0     H29938   0.521   6.560   5.416 -0.1066 -0.5179  0.3819
  942MOL0     H29939   0.566   6.651   5.128 -0.6301  0.0091 -0.4759
  942MOL0     H29940   0.523   6.776   5.250 -2.3144 -1.1967 -0.6333
  942MOL0     H29941   0.777   6.613   5.226  1.7874  1.7091 -1.9693
  942MOL0     H29942   0.734   6.672   5.384  3.6290 -0.5379 -0.2752
  942MOL0     H29943   0.776   6.852   5.135  0.6030  4.1593  0.4728
  942MOL0     H29944   0.763   6.914   5.298 -2.4695 -1.0015  0.9449
  942MOL0     H29945   0.937   6.694   5.452  2.5262 -2.3776 -0.7189
  942MOL0     H29946   1.130   6.759   5.599  1.3136 -1.2866  1.2784
  942MOL0     H29947   1.283   6.831   5.531  1.1732 -0.5448 -0.7757
  942MOL0     H29948   1.156   6.563   5.489 -1.1567  1.6445  0.8220
  942MOL0     H29949   1.273   6.614   5.369 -2.6372 -1.8812 -1.1711
  942MOL0     H29950   1.349   6.636   5.661 -3.3630 -0.3997 -0.6835
  942MOL0     H29951   1.363   6.480   5.597  1.8060 -0.2109  0.7963
  942MOL0     H29952   1.514   6.725   5.487  0.8807  0.3607  1.2953
  942MOL0     H29953   1.577   6.608   5.608  0.4547  1.6094 -0.6107
  942MOL0     H29954   1.630   6.391   5.632 -2.6020  0.7232 -0.2932
  942MOL0     H29955   1.735   6.215   5.741  0.0159 -2.2441  2.1672
  942MOL0     H29956   1.827   6.106   5.633  2.2287  2.3480  1.7265
  942MOL0     H29957   1.675   6.052   5.702  0.2867 -0.0163  0.3247
  942MOL0     H29958   1.482   5.818   5.079  0.0526 -0.4684 -1.6302
  942MOL0     H29959   1.502   5.611   4.982  0.6938 -1.4258 -0.0734
  942MOL0     H29960   1.823   5.520   4.853  0.5706 -0.9500 -1.4252
  942MOL0     H29961   1.909   5.443   4.984  0.8137  2.0894 -1.2319
  942MOL0     H29962   1.817   5.216   4.925 -2.4908  0.7382  1.4745
  942MOL0     H29963   1.744   5.296   4.776 -1.9485  3.9351  2.9428
  942MOL0     H29964   2.041   5.288   4.850 -0.5817 -0.0136  0.3826
  942MOL0     H29965   1.987   5.387   4.712  1.3879 -2.4773 -3.4084
  942MOL0     H29966   1.886   5.167   4.604 -1.9983 -2.5836  1.1210
  942MOL0     H29967   1.978   5.084   4.720  5.0815  0.0767  1.0833
  942MOL0     H29968   2.097   5.136   4.499 -1.7804 -1.5734  1.0341
  942MOL0     H29969   2.099   5.298   4.536  0.1158  0.8615  2.1605
  942MOL0     H29970   2.269   5.096   4.695  1.1233 -0.0768 -0.4549
  942MOL0     H29971   2.217   5.264   4.742 -3.6201 -1.3849 -0.2022
  942MOL0     H29972   2.337   5.346   4.528 -0.9679  0.9811  2.8320
  942MOL0     H29973   2.379   5.176   4.497 -1.3612 -2.0411  1.4968
  942MOL0     H29974   2.553   5.245   4.614 -0.1092  3.5107 -1.2467
  942MOL0     H29975   2.462   5.200   4.762  0.0080 -0.0424 -0.2452
  942MOL0     H29976   1.872   5.532   5.190  0.6285  1.1205  0.2924
  942MOL0     H29977   1.834   5.751   5.319 -0.2476  1.6910 -0.8335
  942MOL0     H29978   1.547   6.135   5.216 -0.7954 -0.6556 -0.2624
  942MOL0     H29979   1.517   6.358   5.205  1.6364 -3.0703 -1.6313
  942MOL0     H29980  -0.121   6.970   5.467 -0.5474 -0.8036 -0.6624
  942MOL0     H29981  -0.204   7.145   5.296  0.6670  0.1041 -0.1425
  942MOL0     H29982  -0.137   7.609   5.103 -1.5290 -2.6837  1.4572
  942MOL0     H29983  -0.265   7.719   4.927 -3.4001 -1.7028  3.0134
  942MOL0     H29984  -0.481   7.655   4.816  0.4104 -0.1209 -0.1176
  942MOL0     H29985  -0.485   7.745   4.668 -0.6147  0.3527  1.6464
  942MOL0     H29986  -0.635   7.536   4.665 -1.1379 -0.7406 -0.4519
  942MOL0     H29987  -0.487   7.431   4.671 -1.0578 -0.1038  1.7110
  942MOL0     H29988  -0.469   7.645   4.463  0.1214 -1.1034 -3.1224
  942MOL0     H29989  -0.447   7.471   4.454  0.8492  1.1075  0.3868
  942MOL0     H29990  -0.674   7.643   4.401  1.0049 -0.5303 -2.2976
  942MOL0     H29991  -0.719   7.494   4.500  0.3772  0.8533  1.4875
  942MOL0     H29992  -0.634   7.356   4.121  1.4397 -2.9547  0.3967
  942MOL0     H29993  -0.174   7.402   4.647  2.5939 -0.4710 -1.5143
  942MOL0     H29994  -0.051   7.222   4.694  0.5796  2.5964 -0.5261
  942MOL0     H29995   0.033   7.221   4.834 -0.3928 -0.8021  2.3897
  942MOL0     H29996  -0.137   7.157   4.844  2.4776 -3.6928 -2.8569
  943MOL0     O29997   5.075   8.261  10.124  0.0833  0.4344  0.3480
  943MOL0     C29998   5.132   8.184  10.046  0.0309 -0.4241 -0.4587
  943MOL0     O29999   5.270   8.140  10.061  0.4888  0.0873  0.8074
  943MOL0     C30000   5.354   8.169  10.170 -0.6417  0.1961  0.5582
  943MOL0     C30001   5.309   8.178  10.301  0.6002  0.3697 -0.5059
  943MOL0     C30002   5.401   8.200  10.404  0.3646 -0.5012 -0.2004
  943MOL0     C30003   5.540   8.202  10.377 -0.4239 -0.7380 -0.0778
  943MOL0     O30004   5.639   8.217  10.467  0.3680  0.0718  0.1501
  943MOL0     C30005   5.641   8.351  10.525  0.2571 -0.3034 -0.5807
  943MOL0     C30006   5.754   8.358  10.628  0.8766 -0.7578  0.4923
  943MOL0     C30007   5.773   8.507  10.653  0.7456  0.1063  0.4243
  943MOL0     C30008   5.800   8.536  10.804  0.4290  0.6390  0.1394
  943MOL0     C30009   5.837   8.679  10.836 -0.4410 -0.2292  0.5385
  943MOL0     C30010   5.873   8.693  10.988 -0.3891 -0.1393  1.1529
  943MOL0     C30011   5.888   8.849  11.019 -0.1844  0.4772 -0.5493
  943MOL0     C30012   6.013   8.899  10.951 -0.1008  0.0325 -0.2749
  943MOL0     N30013   6.034   9.036  11.000 -0.4528  0.7674  0.1738
  943MOL0     C30014   6.028   9.076  11.132 -0.0517 -0.3369  0.8551
  943MOL0     C30015   6.040   9.209  11.122 -0.2375  0.1744  0.0007
  943MOL0     C30016   6.022   9.304  11.238 -0.0129  0.4560  0.6479
  943MOL0     C30017   5.880   9.324  11.285  0.8417  0.1433  0.4199
  943MOL0     C30018   5.791   9.354  11.158 -0.0279 -0.2091  0.5557
  943MOL0     C30019   5.657   9.407  11.202  0.2738  0.5297  0.3096
  943MOL0     O30020   5.565   9.301  11.223  0.7506  0.2820 -0.1083
  943MOL0     C30021   5.433   9.335  11.239 -0.0331  0.6650 -1.1137
  943MOL0     C30022   5.388   9.457  11.295  0.3137  0.4221  0.3004
  943MOL0     C30023   5.255   9.488  11.304  0.2573 -0.0778  0.2834
  943MOL0     C30024   5.221   9.627  11.368 -0.4028  0.3220 -0.2802
  943MOL0     C30025   5.156   9.403  11.244 -0.0001 -0.3500  0.2256
  943MOL0     C30026   5.007   9.418  11.245 -0.7349  0.0926  0.8590
  943MOL0     O30027   4.927   9.336  11.171  0.1157 -0.1222 -0.4102
  943MOL0     C30028   4.797   9.336  11.200 -0.0654 -1.2492 -0.1383
  943MOL0     C30029   4.746   9.269  11.303 -0.4242  0.4381  0.6769
  943MOL0     C30030   4.611   9.261  11.325  0.4322  0.5623  1.5229
  943MOL0     C30031   4.511   9.331  11.252  0.2087  0.7300  0.2584
  943MOL0     O30032   4.377   9.348  11.288 -0.8454  0.0320  0.1037
  943MOL0     C30033   4.340   9.338  11.430 -0.0737 -0.1170 -0.3598
  943MOL0     C30034   4.186   9.396  11.443  0.7176  0.2280  0.3212
  943MOL0     C30035   4.186   9.557  11.445 -0.1532 -0.4667  0.3863
  943MOL0     C30036   4.044   9.623  11.439 -0.4772  0.2366 -1.0312
  943MOL0     C30037   4.054   9.741  11.528  0.4375 -0.0393  0.4583
  943MOL0     C30038   3.908   9.797  11.551 -0.3902  0.3382  0.6122
  943MOL0     C30039   3.900   9.901  11.665  0.8471  1.2911  0.1908
  943MOL0     C30040   3.747   9.930  11.684 -0.5279  0.6763 -0.0017
  943MOL0    Cl30041   3.730  10.057  11.813 -0.0154 -0.2777  0.4319
  943MOL0     C30042   4.571   9.408  11.153  0.6295  1.1760  0.2943
  943MOL0     C30043   4.711   9.405  11.125 -0.1753 -0.5518  0.1018
  943MOL0     O30044   4.968   9.510  11.318 -0.2052 -0.1806  0.8501
  943MOL0     C30045   5.205   9.284  11.189  0.7355 -0.2709  0.5790
  943MOL0     C30046   5.340   9.245  11.193  1.1406  0.3012  0.1021
  943MOL0     N30047   6.059   9.241  10.984 -0.0776  0.6019 -0.3367
  943MOL0     N30048   6.066   9.135  10.918 -0.0694 -0.4344 -0.5904
  943MOL0     C30049   5.577   8.188  10.248 -0.4300  0.1742 -0.2315
  943MOL0     C30050   5.489   8.182  10.143 -0.2278  0.6607  0.2947
  943MOL0     C30051   5.054   8.119   9.932  1.0420 -0.1335  0.6140
  943MOL0     C30052   5.112   8.011   9.851  1.1800 -0.9608 -0.3059
  943MOL0     C30053   5.043   7.954   9.748 -0.6621  0.0593  0.5094
  943MOL0     C30054   4.918   8.011   9.701  0.2917  0.4002 -0.1874
  943MOL0     O30055   4.856   7.961   9.584 -0.6083 -0.1131 -0.7138
  943MOL0     C30056   4.727   8.017   9.542  0.3728 -0.8485  0.8272
  943MOL0     C30057   4.657   7.911   9.448 -0.9315  0.0248 -0.0470
  943MOL0     C30058   4.529   7.962   9.376 -0.3535 -0.1631 -0.5233
  943MOL0     C30059   4.405   7.983   9.476  0.2934 -0.0277 -0.3037
  943MOL0     C30060   4.413   8.110   9.544 -0.4643 -0.1262 -0.2495
  943MOL0     C30061   4.436   8.213   9.615  0.1119 -0.2675  0.2663
  943MOL0     C30062   4.863   8.111   9.785 -0.3896  0.3412  0.3565
  943MOL0     C30063   4.928   8.161   9.891  0.2771 -0.2079  0.6801
  943MOL0     C30064   4.858   8.285   9.947  0.0264  0.0322  0.4073
  943MOL0     H30065   5.206   8.172  10.334  1.8287  1.6995  4.4761
  943MOL0     H30066   5.369   8.235  10.502  1.2149  1.7292 -0.6732
  943MOL0     H30067   5.542   8.377  10.563 -0.2888 -1.8125 -0.9245
  943MOL0     H30068   5.662   8.428  10.450 -0.1305 -0.2796 -0.6658
  943MOL0     H30069   5.733   8.320  10.729  0.8152  4.1761  2.6476
  943MOL0     H30070   5.845   8.311  10.591  0.9094  0.3097 -0.8798
  943MOL0     H30071   5.856   8.543  10.592  0.5586  1.7143  1.0528
  943MOL0     H30072   5.684   8.561  10.619 -1.2457 -1.5937  2.5666
  943MOL0     H30073   5.711   8.510  10.862  0.5851  1.8402  0.9551
  943MOL0     H30074   5.876   8.465  10.838  0.3554  0.5754  0.1744
  943MOL0     H30075   5.753   8.744  10.810 -0.8352 -1.2742 -0.9667
  943MOL0     H30076   5.920   8.714  10.774 -0.3768  1.7138  1.6553
  943MOL0     H30077   5.789   8.648  11.041 -1.7509  1.1316  0.1505
  943MOL0     H30078   5.969   8.643  11.005 -0.9019 -1.8534 -0.6552
  943MOL0     H30079   5.895   8.853  11.128  1.5657 -1.1518 -0.5511
  943MOL0     H30080   5.802   8.910  10.989 -1.4171  0.2729  2.2375
  943MOL0     H30081   6.099   8.839  10.982 -1.7137 -1.3150  1.8450
  943MOL0     H30082   6.004   8.894  10.842  1.5846 -1.3981 -0.3872
  943MOL0     H30083   6.016   9.014  11.220  0.3539  1.7873  2.5147
  943MOL0     H30084   6.069   9.398  11.207 -1.4411  1.0643  0.2446
  943MOL0     H30085   6.085   9.263  11.317 -0.5115  0.0430  0.8318
  943MOL0     H30086   5.852   9.235  11.343  0.7223  0.5535  1.0033
  943MOL0     H30087   5.871   9.402  11.361 -0.2141 -1.0740  1.5987
  943MOL0     H30088   5.847   9.420  11.091  1.0818 -0.9745  0.7024
  943MOL0     H30089   5.775   9.257  11.109  0.3068 -0.6575  1.3128
  943MOL0     H30090   5.663   9.470  11.292  0.2219 -0.7512  1.2356
  943MOL0     H30091   5.622   9.469  11.119 -0.0655  2.2026  1.6357
  943MOL0     H30092   5.453   9.535  11.335  0.6518 -0.0876  0.7497
  943MOL0     H30093   5.146   9.621  11.447  1.7391  1.2540  1.9944
  943MOL0     H30094   5.200   9.695  11.285  2.1754 -0.8562 -2.0562
  943MOL0     H30095   5.309   9.675  11.414  0.4207 -0.4496 -1.0011
  943MOL0     H30096   4.817   9.220  11.369  0.4624  1.1330  0.2593
  943MOL0     H30097   4.571   9.205  11.409  0.2092 -1.0496  0.3907
  943MOL0     H30098   4.365   9.239  11.468  1.1691 -0.5033 -2.0492
  943MOL0     H30099   4.403   9.407  11.485 -0.4030  0.5958 -0.8572
  943MOL0     H30100   4.111   9.369  11.368  1.3776  2.3305 -1.2023
  943MOL0     H30101   4.137   9.372  11.538 -1.6987 -0.6228 -1.0429
  943MOL0     H30102   4.241   9.598  11.360 -0.4126 -0.8022  0.0524
  943MOL0     H30103   4.244   9.594  11.530  0.4186 -1.4847  0.4565
  943MOL0     H30104   3.988   9.551  11.499  0.4057 -1.1337 -1.7958
  943MOL0     H30105   3.982   9.646  11.352 -1.4709 -0.1465 -0.4402
  943MOL0     H30106   4.095   9.710  11.625  1.0675  0.6610  0.4260
  943MOL0     H30107   4.115   9.816  11.476 -3.0080  2.3377 -0.5162
  943MOL0     H30108   3.845   9.712  11.578 -0.3643  0.1502  0.0798
  943MOL0     H30109   3.875   9.847  11.460 -2.6037  0.4220  1.4124
  943MOL0     H30110   3.957   9.987  11.628  3.6783  1.2217  3.7618
  943MOL0     H30111   3.941   9.860  11.758  1.2634 -1.2687 -1.0459
  943MOL0     H30112   3.693   9.842  11.720 -0.1164 -0.9895 -3.1327
  943MOL0     H30113   3.699   9.958  11.590  1.6483  2.2464 -0.7280
  943MOL0     H30114   4.512   9.476  11.093 -1.3277  0.1574  1.0026
  943MOL0     H30115   4.749   9.471  11.047  1.5064 -0.1628  1.2045
  943MOL0     H30116   5.146   9.212  11.133  2.3549 -0.1158 -1.4598
  943MOL0     H30117   5.368   9.151  11.146  2.0395  1.3149 -1.4685
  943MOL0     H30118   5.683   8.189  10.226 -0.2663 -1.7388  0.2975
  943MOL0     H30119   5.532   8.198  10.045  1.0522  0.1276  0.7562
  943MOL0     H30120   5.206   7.970   9.887  1.4481  0.8840  1.2404
  943MOL0     H30121   5.089   7.873   9.693 -2.6978  0.5117 -2.0523
  943MOL0     H30122   4.663   8.041   9.628 -2.6937  0.5008 -1.6240
  943MOL0     H30123   4.730   8.109   9.482 -0.4419 -0.0774  1.9093
  943MOL0     H30124   4.638   7.822   9.509  0.0124  0.1988  0.5177
  943MOL0     H30125   4.737   7.887   9.377 -0.6955  0.2360  0.1438
  943MOL0     H30126   4.561   8.056   9.329  0.4661 -0.4700 -0.5862
  943MOL0     H30127   4.506   7.887   9.300 -2.3906  0.8759 -1.0078
  943MOL0     H30128   4.417   7.907   9.555 -0.8080  1.0068  0.9069
  943MOL0     H30129   4.305   7.965   9.435 -0.3013 -2.5134  1.9054
  943MOL0     H30130   4.470   8.299   9.668  0.6811  0.1078 -0.6928
  943MOL0     H30131   4.771   8.162   9.756  0.9982  1.5984 -2.2294
  943MOL0     H30132   4.790   8.249  10.026  3.2451 -3.5338  1.8605
  943MOL0     H30133   4.923   8.367   9.979  1.2312  0.0858 -1.9767
  943MOL0     H30134   4.789   8.332   9.876  0.0214  2.0287  1.6479
  944MOL0     O30135  10.050   1.176   9.462  1.0553  0.0624 -0.1395
  944MOL0     C30136  10.010   1.284   9.420 -0.1982 -0.2337 -0.9922
  944MOL0     O30137  10.077   1.408   9.439  0.6569  0.4929 -0.1201
  944MOL0     C30138  10.208   1.409   9.478  0.6050  0.2434 -0.8551
  944MOL0     C30139  10.309   1.308   9.462  0.6686 -0.3739 -0.0740
  944MOL0     C30140  10.444   1.327   9.496  0.6937  0.9340 -0.7485
  944MOL0     C30141  10.483   1.442   9.557  0.2319  1.1387  0.1809
  944MOL0     O30142  10.612   1.477   9.568 -0.1890  0.2331 -0.2028
  944MOL0     C30143  10.707   1.373   9.568 -0.1010  0.1956 -0.6617
  944MOL0     C30144  10.831   1.431   9.641  0.0916 -0.1250  0.7530
  944MOL0     C30145  10.881   1.547   9.560  0.4160 -0.4210 -0.1998
  944MOL0     C30146  11.022   1.580   9.618 -0.5608  0.3329 -0.0399
  944MOL0     C30147  11.096   1.704   9.560  0.1411  0.3009 -0.2768
  944MOL0     C30148  11.232   1.723   9.636 -0.3288 -0.1524  1.0277
  944MOL0     C30149  11.216   1.757   9.783 -0.5771 -0.3577  0.2255
  944MOL0     C30150  11.298   1.665   9.875 -0.0012  0.2163  0.1011
  944MOL0     N30151  11.249   1.528   9.854  0.2333  0.3564 -0.6358
  944MOL0     C30152  11.138   1.466   9.907 -0.4797  0.2801  0.0499
  944MOL0     C30153  11.137   1.336   9.883 -0.4833 -0.6546  0.3503
  944MOL0     C30154  11.020   1.238   9.909 -0.3568  0.6338  1.1536
  944MOL0     C30155  10.982   1.228  10.058  0.0415  0.8410 -0.4347
  944MOL0     C30156  10.935   1.097  10.114 -0.1265 -0.0812  0.5380
  944MOL0     C30157  11.015   0.973  10.070  0.7985  0.5259 -0.2030
  944MOL0     O30158  11.109   0.951  10.176 -0.3117 -0.1818 -0.4021
  944MOL0     C30159  11.226   0.902  10.143 -0.7691 -0.0536 -0.4129
  944MOL0     C30160  11.319   0.979  10.069  0.6371  1.1095  0.9026
  944MOL0     C30161  11.441   0.925  10.022 -0.2600 -0.9701  0.0012
  944MOL0     C30162  11.537   1.021   9.950 -0.7834  0.1383  0.1792
  944MOL0     C30163  11.463   0.789  10.046 -0.2451  1.1230 -1.4260
  944MOL0     C30164  11.591   0.719  10.011 -0.5398 -0.9387  0.0363
  944MOL0     O30165  11.616   0.605  10.079  0.2822  0.4850  0.6513
  944MOL0     C30166  11.737   0.541  10.079 -0.0439  0.6928 -0.1668
  944MOL0     C30167  11.748   0.412  10.023  0.1186 -0.6185  0.4558
  944MOL0     C30168  11.866   0.343  10.048 -0.1994  0.3260 -0.4954
  944MOL0     C30169  11.975   0.397  10.109 -0.0602 -0.5797 -0.6706
  944MOL0     O30170  12.086   0.323  10.124 -0.1335  0.8250  0.2552
  944MOL0     C30171  12.216   0.371  10.172  0.8525 -0.0749 -0.2519
  944MOL0     C30172  12.290   0.444  10.059 -0.4812  1.2177 -0.5563
  944MOL0     C30173  12.435   0.471  10.099 -0.2574 -0.2644  0.2997
  944MOL0     C30174  12.515   0.346  10.078 -0.4838  0.3444  0.0438
  944MOL0     C30175  12.668   0.379  10.077 -0.4412 -0.5958  0.9863
  944MOL0     C30176  12.721   0.422   9.944  0.3051  0.4619 -0.3628
  944MOL0     C30177  12.876   0.437   9.940 -0.4212  0.5205  0.9188
  944MOL0     C30178  12.911   0.527   9.816  0.2588  0.7159 -0.1546
  944MOL0    Cl30179  13.082   0.562   9.820  0.0635 -0.0676  0.5282
  944MOL0     C30180  11.972   0.533  10.149  0.1788  0.2183  0.3749
  944MOL0     C30181  11.852   0.600  10.137  0.1831  1.0497 -0.2476
  944MOL0     O30182  11.663   0.772   9.928  0.1059 -0.0251 -0.4367
  944MOL0     C30183  11.368   0.716  10.119  0.6579  0.6296  0.0646
  944MOL0     C30184  11.247   0.773  10.166  0.3974 -0.6244  0.4698
  944MOL0     N30185  11.254   1.312   9.818 -0.2070  0.8098  0.0154
  944MOL0     N30186  11.326   1.418   9.806  0.4839  0.2900  0.1618
  944MOL0     C30187  10.390   1.546   9.571  0.0659 -0.5009 -0.2304
  944MOL0     C30188  10.256   1.525   9.529  0.3175 -0.1110  0.3525
  944MOL0     C30189   9.874   1.291   9.353  1.0476  1.3293 -0.7059
  944MOL0     C30190   9.811   1.417   9.350  0.1510  0.8082  0.7568
  944MOL0     C30191   9.684   1.436   9.295  0.0802  0.0235 -0.4923
  944MOL0     C30192   9.615   1.328   9.240 -0.0145  0.8700  0.1638
  944MOL0     O30193   9.499   1.323   9.177  0.3743  0.2387 -0.3417
  944MOL0     C30194   9.380   1.326   9.268  0.1655  0.3329 -0.0083
  944MOL0     C30195   9.245   1.329   9.188  0.2334 -0.0663 -0.1482
  944MOL0     C30196   9.226   1.471   9.119 -0.2254  0.1339 -0.2691
  944MOL0     C30197   9.124   1.465   9.003 -0.7008 -0.0183 -0.5528
  944MOL0     C30198   8.994   1.432   9.051 -0.2443 -0.2671 -0.3599
  944MOL0     C30199   8.889   1.389   9.091 -0.0965 -0.0744 -0.2543
  944MOL0     C30200   9.678   1.202   9.241  0.1848 -1.0867 -0.3379
  944MOL0     C30201   9.805   1.177   9.306  0.4322 -0.9085 -0.7957
  944MOL0     C30202   9.841   1.030   9.314 -0.0864  0.4449 -0.4680
  944MOL0     H30203  10.286   1.221   9.402 -0.7876  1.6667 -2.7146
  944MOL0     H30204  10.512   1.245   9.479  0.2440  0.1891  0.7904
  944MOL0     H30205  10.727   1.346   9.464 -0.0947  3.4450 -1.6288
  944MOL0     H30206  10.665   1.284   9.615 -0.4119  1.2386  1.1273
  944MOL0     H30207  10.803   1.457   9.744 -1.7235  2.6916 -0.3056
  944MOL0     H30208  10.911   1.356   9.644 -2.3942 -3.3739 -3.2285
  944MOL0     H30209  10.894   1.523   9.454  1.7774 -0.6220 -0.0073
  944MOL0     H30210  10.822   1.636   9.583  1.1692 -0.0692  0.4297
  944MOL0     H30211  11.003   1.594   9.725 -1.9734  2.8751 -0.5580
  944MOL0     H30212  11.084   1.490   9.608 -0.9402 -0.0510  0.9015
  944MOL0     H30213  11.032   1.793   9.556 -1.4215 -0.8451 -2.6026
  944MOL0     H30214  11.112   1.692   9.453  0.9137  0.5788 -0.2028
  944MOL0     H30215  11.284   1.627   9.632  1.5055  0.7620  1.7111
  944MOL0     H30216  11.302   1.794   9.591  0.9521 -1.7676  0.3624
  944MOL0     H30217  11.110   1.748   9.807 -0.3469 -1.1631  1.0138
  944MOL0     H30218  11.249   1.859   9.802  2.4398 -1.2873  0.5689
  944MOL0     H30219  11.405   1.656   9.858 -0.3320 -0.1740 -2.0314
  944MOL0     H30220  11.277   1.700   9.977 -0.7314  1.8805 -0.5793
  944MOL0     H30221  11.063   1.528   9.956 -0.8215 -0.3906  0.3941
  944MOL0     H30222  11.066   1.147   9.870  1.7951  2.1643 -0.0820
  944MOL0     H30223  10.931   1.267   9.853 -2.6915 -5.7311  0.8172
  944MOL0     H30224  11.070   1.248  10.120 -0.4357  2.4543 -0.2291
  944MOL0     H30225  10.911   1.302  10.096  1.3748  1.3499  1.2402
  944MOL0     H30226  10.947   1.113  10.221 -1.2438 -1.3255  0.8730
  944MOL0     H30227  10.835   1.072  10.078  1.0458 -0.6801 -2.6117
  944MOL0     H30228  10.942   0.892  10.064 -0.0347  1.1906  0.5571
  944MOL0     H30229  11.056   0.974   9.969  1.7574 -0.2103  0.1599
  944MOL0     H30230  11.289   1.082  10.049 -4.2507 -0.6069 -2.4093
  944MOL0     H30231  11.543   0.983   9.847  3.1541  0.3993  0.1737
  944MOL0     H30232  11.640   1.014   9.984 -0.2374 -4.1356 -1.6884
  944MOL0     H30233  11.487   1.118   9.955 -0.0510  0.4601  2.1079
  944MOL0     H30234  11.666   0.364   9.970 -0.9836 -1.3451  2.6868
  944MOL0     H30235  11.868   0.236  10.026 -2.5277  0.6410 -2.6002
  944MOL0     H30236  12.205   0.427  10.265 -0.7003  2.1501 -1.6948
  944MOL0     H30237  12.276   0.282  10.196  0.8727 -0.2902 -1.0779
  944MOL0     H30238  12.284   0.385   9.967 -2.8843  2.9059 -1.5992
  944MOL0     H30239  12.230   0.533  10.037 -2.8689 -0.5612 -1.7096
  944MOL0     H30240  12.435   0.516  10.199  1.5613  1.2584 -0.3190
  944MOL0     H30241  12.479   0.544  10.030 -0.5841 -0.3982 -0.0544
  944MOL0     H30242  12.488   0.293   9.987  5.3146 -1.3600 -1.1467
  944MOL0     H30243  12.488   0.284  10.164 -2.9236 -0.8419 -1.4865
  944MOL0     H30244  12.699   0.466  10.135 -0.8227  0.2329 -0.0358
  944MOL0     H30245  12.727   0.288  10.092 -0.3242 -0.9992 -1.4795
  944MOL0     H30246  12.673   0.519   9.927  0.8685  0.5902 -1.2460
  944MOL0     H30247  12.681   0.357   9.866 -1.8313  2.9981 -1.5616
  944MOL0     H30248  12.927   0.342   9.926 -2.1413 -0.4262  0.7495
  944MOL0     H30249  12.909   0.481  10.034 -0.5529 -0.3093  1.3655
  944MOL0     H30250  12.856   0.617   9.847 -0.5948 -0.7002  2.8025
  944MOL0     H30251  12.873   0.484   9.724 -0.9602 -1.9654  1.4850
  944MOL0     H30252  12.054   0.594  10.184  0.2288  0.6637 -0.4997
  944MOL0     H30253  11.841   0.704  10.165 -0.5998  0.5502  1.4334
  944MOL0     H30254  11.386   0.610  10.134  1.9046  0.6345 -1.1721
  944MOL0     H30255  11.172   0.723  10.226  2.7666 -1.8884  2.5162
  944MOL0     H30256  10.429   1.646   9.589  0.1288 -0.3467 -1.1630
  944MOL0     H30257  10.181   1.603   9.540  0.8230  1.2190 -3.9451
  944MOL0     H30258   9.852   1.515   9.372 -3.0567  2.4729 -0.0361
  944MOL0     H30259   9.644   1.537   9.288 -0.5068  0.0097  1.7659
  944MOL0     H30260   9.388   1.227   9.314 -0.1603  0.9567  1.4565
  944MOL0     H30261   9.393   1.402   9.345 -0.6434 -0.5800  1.0666
  944MOL0     H30262   9.160   1.314   9.256 -0.4804  1.3203 -0.6929
  944MOL0     H30263   9.249   1.251   9.111 -0.8748  0.4235 -0.7223
  944MOL0     H30264   9.192   1.546   9.190 -3.1210 -1.2138 -0.0654
  944MOL0     H30265   9.323   1.503   9.080 -0.5778 -0.3265 -1.5947
  944MOL0     H30266   9.160   1.387   8.935 -1.5961  1.9901 -3.5811
  944MOL0     H30267   9.130   1.559   8.946 -1.4811  0.6921  0.4911
  944MOL0     H30268   8.797   1.350   9.131 -0.2488  2.0853  1.7673
  944MOL0     H30269   9.621   1.126   9.190  0.7868 -0.6864 -1.6286
  944MOL0     H30270   9.937   1.030   9.261 -0.0583  2.7694 -0.5410
  944MOL0     H30271   9.855   0.993   9.415 -0.8698  0.2488 -0.4236
  944MOL0     H30272   9.770   0.967   9.260 -2.2270  0.3020  2.3281
  945MOL0     O30273   7.447   8.489   6.740  0.0484 -0.2194 -0.6271
  945MOL0     C30274   7.376   8.521   6.838 -0.5594 -0.1125  0.4311
  945MOL0     O30275   7.385   8.476   6.965 -0.1272 -0.5409  0.8546
  945MOL0     C30276   7.512   8.435   7.001  0.4295  0.1417  0.5337
  945MOL0     C30277   7.626   8.512   7.001 -0.2567 -0.0121  0.9910
  945MOL0     C30278   7.749   8.455   7.038  0.3624 -0.0642 -0.3990
  945MOL0     C30279   7.758   8.327   7.102  0.0115 -1.3552  0.9906
  945MOL0     O30280   7.874   8.284   7.154  0.4140  0.0881 -0.1903
  945MOL0     C30281   7.888   8.319   7.296 -0.2234  0.8262  1.0835
  945MOL0     C30282   7.952   8.459   7.298  0.6012 -0.3976  0.4419
  945MOL0     C30283   8.007   8.507   7.438  0.5106 -0.3690  0.1884
  945MOL0     C30284   7.916   8.498   7.570 -0.6589 -0.1291  0.6293
  945MOL0     C30285   7.777   8.556   7.553  0.4757  0.3281 -0.4162
  945MOL0     C30286   7.698   8.558   7.692  0.4225  0.3467  0.5571
  945MOL0     C30287   7.565   8.622   7.660 -0.2009  0.1454 -0.3901
  945MOL0     C30288   7.450   8.583   7.767  0.1354  0.4299  0.6727
  945MOL0     N30289   7.472   8.628   7.903  0.8803 -0.9929 -1.0339
  945MOL0     C30290   7.380   8.710   7.966  0.2097 -0.3148 -1.0288
  945MOL0     C30291   7.417   8.706   8.098 -0.5768 -0.5031 -0.2527
  945MOL0     C30292   7.350   8.780   8.221  0.0792 -0.0668  0.0911
  945MOL0     C30293   7.437   8.857   8.318  0.0619 -0.1483 -0.4231
  945MOL0     C30294   7.340   8.953   8.401 -0.4944 -0.5926  0.1234
  945MOL0     C30295   7.413   9.030   8.504  0.1051  0.0629 -0.0435
  945MOL0     O30296   7.479   8.935   8.591 -0.3896 -0.2276  1.1868
  945MOL0     C30297   7.568   8.977   8.679 -0.1010 -0.4980 -0.7428
  945MOL0     C30298   7.599   9.113   8.692 -0.9470 -0.2374  0.2361
  945MOL0     C30299   7.691   9.167   8.778  0.8256  0.5865 -0.3419
  945MOL0     C30300   7.716   9.316   8.771  0.0569  1.3587 -0.3121
  945MOL0     C30301   7.759   9.077   8.862 -0.4124 -0.9729 -0.6857
  945MOL0     C30302   7.864   9.123   8.965  0.0048  0.0200  1.0139
  945MOL0     O30303   7.980   9.048   8.958  0.4910  0.9677 -0.2580
  945MOL0     C30304   8.081   9.082   9.045 -0.6804  0.2926  0.0792
  945MOL0     C30305   8.147   8.983   9.127  0.7560 -0.3224  1.3895
  945MOL0     C30306   8.280   9.006   9.174  0.4065 -0.3252  0.4631
  945MOL0     C30307   8.344   9.134   9.173 -0.7348  1.1919 -0.1179
  945MOL0     O30308   8.460   9.143   9.245  0.0056  0.0109  1.1386
  945MOL0     C30309   8.520   9.274   9.260 -1.0589 -0.7554  0.1395
  945MOL0     C30310   8.616   9.271   9.369 -0.4103 -0.9983  0.4803
  945MOL0     C30311   8.728   9.174   9.346  0.1765  0.1406 -0.5638
  945MOL0     C30312   8.862   9.241   9.335  0.1857  0.0292 -0.2854
  945MOL0     C30313   8.975   9.133   9.329 -0.6856  0.0058  0.1958
  945MOL0     C30314   9.116   9.194   9.295 -0.1521  0.1505  0.3533
  945MOL0     C30315   9.131   9.239   9.154  0.0443  0.8787 -0.4809
  945MOL0     C30316   9.203   9.377   9.142  0.1656 -0.5953  0.1898
  945MOL0    Cl30317   9.131   9.499   9.239 -0.2848 -0.3456  0.1911
  945MOL0     C30318   8.275   9.227   9.101  0.0503 -0.9079  0.4859
  945MOL0     C30319   8.147   9.210   9.037 -0.7392  0.4778 -0.4050
  945MOL0     O30320   7.847   9.219   9.036 -0.5601  0.1370  0.1533
  945MOL0     C30321   7.737   8.935   8.847 -0.1899 -0.2928  0.3319
  945MOL0     C30322   7.636   8.891   8.762  0.0316  0.3300  0.0672
  945MOL0     N30323   7.537   8.635   8.114 -0.9806  0.7703 -0.2823
  945MOL0     N30324   7.564   8.588   7.991 -0.6302  0.5743  0.0194
  945MOL0     C30325   7.641   8.258   7.120  0.2232  0.1727  0.1216
  945MOL0     C30326   7.522   8.309   7.066 -0.0647  0.0320  0.4479
  945MOL0     C30327   7.247   8.604   6.805 -0.0797  0.2659 -0.5116
  945MOL0     C30328   7.263   8.700   6.699  0.8273 -0.5655  0.8634
  945MOL0     C30329   7.152   8.775   6.649 -0.7925  0.9416 -0.5251
  945MOL0     C30330   7.026   8.750   6.703 -0.0573  0.0513  0.6938
  945MOL0     O30331   6.906   8.814   6.681  0.1631 -0.1009  0.3522
  945MOL0     C30332   6.909   8.947   6.623  0.4883 -0.0737  0.0293
  945MOL0     C30333   6.758   8.990   6.614 -0.2613 -0.0715 -0.5127
  945MOL0     C30334   6.678   8.921   6.502 -0.2952 -0.5861 -0.2606
  945MOL0     C30335   6.536   8.881   6.534  0.7533  0.3726  0.1122
  945MOL0     C30336   6.531   8.779   6.628 -0.5213  0.7167 -0.3750
  945MOL0     C30337   6.556   8.688   6.710  0.0225  0.3132 -0.0980
  945MOL0     C30338   7.021   8.657   6.804 -0.3941  0.6998  0.5811
  945MOL0     C30339   7.124   8.589   6.858  0.5520  0.7857 -0.6967
  945MOL0     C30340   7.098   8.499   6.985 -0.8776 -0.0026  0.8195
  945MOL0     H30341   7.634   8.610   6.955  2.2167 -0.0103  1.2910
  945MOL0     H30342   7.847   8.501   7.025  0.7820  0.9475  4.3906
  945MOL0     H30343   7.960   8.249   7.339 -1.8554 -2.2521 -0.8304
  945MOL0     H30344   7.794   8.328   7.352 -0.9937  0.8477 -0.1652
  945MOL0     H30345   8.037   8.458   7.229 -1.4144 -1.7255 -2.2291
  945MOL0     H30346   7.881   8.530   7.254 -1.5249 -1.1385  2.4882
  945MOL0     H30347   8.089   8.438   7.459 -1.7751 -3.3361  0.1883
  945MOL0     H30348   8.046   8.609   7.430 -0.4569  0.0507  0.6698
  945MOL0     H30349   7.908   8.393   7.600 -0.1759  0.6697  3.9562
  945MOL0     H30350   7.966   8.544   7.655 -0.7468  1.4343 -0.1189
  945MOL0     H30351   7.719   8.503   7.477  1.1901  0.8659 -1.3617
  945MOL0     H30352   7.777   8.657   7.513 -1.1432  1.0476  1.2142
  945MOL0     H30353   7.679   8.456   7.728  0.1850 -0.1140 -0.8033
  945MOL0     H30354   7.752   8.614   7.769 -0.0710  0.6179  0.7177
  945MOL0     H30355   7.523   8.600   7.562 -2.5422 -0.1150  0.6114
  945MOL0     H30356   7.574   8.731   7.659 -1.4814  0.2613 -0.0768
  945MOL0     H30357   7.352   8.618   7.733  0.7116  0.7644 -0.7065
  945MOL0     H30358   7.444   8.474   7.763 -1.3578  0.2712  3.7664
  945MOL0     H30359   7.307   8.779   7.926  1.8345  1.0519 -1.7582
  945MOL0     H30360   7.290   8.706   8.276  0.3995 -2.4864 -2.6133
  945MOL0     H30361   7.273   8.843   8.175 -0.9902 -3.6104 -3.4651
  945MOL0     H30362   7.474   8.791   8.398  1.2072  2.9918  1.8616
  945MOL0     H30363   7.514   8.908   8.260 -0.8128  0.2630 -1.2372
  945MOL0     H30364   7.292   9.020   8.329 -1.8747  0.4345  1.8952
  945MOL0     H30365   7.252   8.902   8.443 -1.0693  1.9370  2.3022
  945MOL0     H30366   7.488   9.090   8.452  0.0596 -0.7351 -1.0413
  945MOL0     H30367   7.344   9.101   8.553 -1.4878  0.3367 -2.4973
  945MOL0     H30368   7.552   9.193   8.636  2.7934  2.5736  0.7098
  945MOL0     H30369   7.819   9.319   8.734 -0.7910 -1.2815 -3.3016
  945MOL0     H30370   7.696   9.375   8.861  1.5213  0.2402  0.8051
  945MOL0     H30371   7.656   9.367   8.696 -0.0042  2.8499  0.6995
  945MOL0     H30372   8.105   8.883   9.135 -1.2123 -0.1414 -3.4163
  945MOL0     H30373   8.341   8.923   9.209  0.8559 -0.3445 -0.3313
  945MOL0     H30374   8.560   9.302   9.163 -0.9548 -3.8762 -0.8431
  945MOL0     H30375   8.445   9.349   9.287 -1.0559 -0.2496 -1.2027
  945MOL0     H30376   8.654   9.373   9.384 -0.5057 -0.9126  0.1497
  945MOL0     H30377   8.562   9.252   9.462  0.4166  1.5851  1.5835
  945MOL0     H30378   8.710   9.108   9.260 -1.5741  0.9763 -0.8721
  945MOL0     H30379   8.727   9.110   9.434  3.1599  2.5080  1.3849
  945MOL0     H30380   8.889   9.308   9.417  1.5665 -1.7038  0.7428
  945MOL0     H30381   8.867   9.308   9.250 -0.2152  2.7758  1.7287
  945MOL0     H30382   8.978   9.080   9.425 -2.3734 -1.2367 -0.3903
  945MOL0     H30383   8.950   9.058   9.254 -0.9573 -0.8644  1.1316
  945MOL0     H30384   9.205   9.134   9.316 -1.2495 -2.0954 -0.9732
  945MOL0     H30385   9.127   9.283   9.358 -1.8429  1.0475 -0.5428
  945MOL0     H30386   9.034   9.254   9.105 -0.6463  0.1358  0.6207
  945MOL0     H30387   9.186   9.164   9.096  2.1230  0.3819  1.9728
  945MOL0     H30388   9.192   9.405   9.037 -1.6348 -0.8437  0.2895
  945MOL0     H30389   9.308   9.354   9.165 -0.2689 -2.0485  0.8416
  945MOL0     H30390   8.333   9.319   9.090  1.1333 -1.7413 -1.3750
  945MOL0     H30391   8.092   9.289   8.988 -0.2489  1.8515  1.1706
  945MOL0     H30392   7.796   8.860   8.899  2.5181  0.8442 -0.9030
  945MOL0     H30393   7.617   8.784   8.763 -2.9925  0.7751 -0.2863
  945MOL0     H30394   7.636   8.166   7.178  0.8834  0.0630  0.0118
  945MOL0     H30395   7.437   8.249   7.095  1.7118 -1.9282  1.8623
  945MOL0     H30396   7.359   8.734   6.661  0.1865 -0.8270 -1.0893
  945MOL0     H30397   7.176   8.852   6.576  0.1690  1.5869  0.4379
  945MOL0     H30398   6.952   9.003   6.707 -0.7214 -0.2223  0.7691
  945MOL0     H30399   6.964   8.963   6.530  0.8847 -0.2933  0.2239
  945MOL0     H30400   6.751   9.099   6.608  2.1805  0.0809 -1.5037
  945MOL0     H30401   6.714   8.966   6.711  0.9654  1.3029  0.4137
  945MOL0     H30402   6.670   8.995   6.422  0.9042  1.4593  1.4057
  945MOL0     H30403   6.724   8.828   6.468 -1.1307 -1.0105 -0.2564
  945MOL0     H30404   6.473   8.859   6.447 -0.1986 -2.0929  1.3248
  945MOL0     H30405   6.481   8.956   6.592  0.6591 -0.4711  1.1430
  945MOL0     H30406   6.582   8.611   6.780  1.0512  1.5694  0.9604
  945MOL0     H30407   6.924   8.640   6.850 -0.1952  1.8929  1.4915
  945MOL0     H30408   7.154   8.406   6.973  1.6740  1.5263 -0.0948
  945MOL0     H30409   7.139   8.551   7.072  0.0043  0.7034  0.0104
  945MOL0     H30410   6.993   8.484   7.011 -0.7301  0.3379  1.6642
  946MOL0     O30411   2.927   4.975   6.813  0.1291  0.5988  0.2953
  946MOL0     C30412   3.006   5.062   6.766  0.6256 -0.9443  0.2478
  946MOL0     O30413   3.001   5.120   6.639 -0.1626 -0.3968 -0.3112
  946MOL0     C30414   2.876   5.141   6.584 -0.0497 -0.5039  0.1914
  946MOL0     C30415   2.853   5.115   6.455 -0.9189  0.3627  0.3881
  946MOL0     C30416   2.725   5.132   6.395  0.6223 -0.3148  0.1820
  946MOL0     C30417   2.622   5.185   6.469  0.0493  0.3530 -0.2353
  946MOL0     O30418   2.497   5.184   6.406 -0.6324 -0.6530  0.1052
  946MOL0     C30419   2.373   5.196   6.480  0.1664  0.0003  0.0457
  946MOL0     C30420   2.249   5.180   6.395 -0.0388 -0.1411 -0.6173
  946MOL0     C30421   2.251   5.046   6.317 -0.1833 -0.1356  0.0562
  946MOL0     C30422   2.125   5.016   6.235  0.6333 -0.0855  0.3645
  946MOL0     C30423   2.124   4.869   6.205  0.0953 -0.3926  0.3142
  946MOL0     C30424   2.218   4.827   6.092  0.0368 -0.6590 -0.8735
  946MOL0     C30425   2.186   4.676   6.065  0.4042  0.0902 -0.4908
  946MOL0     C30426   2.269   4.627   5.946 -0.6820 -0.5805  0.0557
  946MOL0     N30427   2.246   4.481   5.925  1.1498  0.0421  0.0478
  946MOL0     C30428   2.285   4.383   6.007  0.8651  0.4712 -0.2102
  946MOL0     C30429   2.244   4.263   5.952  0.3707  0.6581 -0.5497
  946MOL0     C30430   2.239   4.121   6.007 -0.2342  0.4433 -0.9638
  946MOL0     C30431   2.355   4.103   6.111  0.6779 -0.7261 -0.2786
  946MOL0     C30432   2.395   3.959   6.138 -0.0779  0.8809 -0.3274
  946MOL0     C30433   2.482   3.943   6.271  0.2770 -0.5123  0.0719
  946MOL0     O30434   2.601   4.020   6.256  0.0204 -0.0068  0.1422
  946MOL0     C30435   2.692   4.048   6.356  0.5443 -0.1878  0.0805
  946MOL0     C30436   2.651   4.088   6.480  0.5941  0.7878 -0.2729
  946MOL0     C30437   2.739   4.129   6.580 -0.1534  0.8367 -0.1827
  946MOL0     C30438   2.676   4.166   6.721 -0.6359 -0.6182  0.3285
  946MOL0     C30439   2.885   4.112   6.559 -0.3860 -0.1654 -0.4580
  946MOL0     C30440   2.990   4.141   6.662 -0.5450  0.8971  0.1846
  946MOL0     O30441   2.974   4.241   6.748 -0.0372 -0.9496 -0.1150
  946MOL0     C30442   3.078   4.302   6.811 -1.0001  0.0476 -0.4119
  946MOL0     C30443   3.060   4.371   6.926 -0.3064  0.3592  0.0011
  946MOL0     C30444   3.166   4.441   6.981  0.9807  0.0970 -0.1457
  946MOL0     C30445   3.295   4.439   6.923  0.2947  0.2778  0.8188
  946MOL0     O30446   3.399   4.511   6.983  0.2529 -0.3065  0.3124
  946MOL0     C30447   3.538   4.499   6.950 -0.3278 -0.2208 -0.3388
  946MOL0     C30448   3.588   4.368   6.994 -0.3451 -0.7654 -0.5823
  946MOL0     C30449   3.742   4.360   6.973  0.0187 -0.2127 -0.1872
  946MOL0     C30450   3.796   4.213   6.991  0.5873  0.2788 -0.6008
  946MOL0     C30451   3.783   4.112   6.873  0.0527 -0.5127 -0.4571
  946MOL0     C30452   3.706   3.982   6.919  0.5030 -0.6542  0.6313
  946MOL0     C30453   3.569   4.011   6.981  0.3552 -0.3525 -0.6785
  946MOL0     C30454   3.486   3.877   7.003 -0.1053 -0.8912 -0.0689
  946MOL0    Cl30455   3.553   3.774   7.129  0.3703  0.2449 -0.1494
  946MOL0     C30456   3.309   4.375   6.792  0.4175 -0.4263 -0.0900
  946MOL0     C30457   3.204   4.307   6.737 -0.4878 -0.5679 -0.0823
  946MOL0     O30458   3.084   4.062   6.675 -0.0459 -0.6539  0.3656
  946MOL0     C30459   2.927   4.077   6.425  0.6886 -0.4186 -0.4341
  946MOL0     C30460   2.828   4.047   6.332 -0.1095  0.3347  0.6080
  946MOL0     N30461   2.164   4.307   5.843 -0.3995 -0.6294  0.7899
  946MOL0     N30462   2.175   4.432   5.822 -0.0423 -0.0597  0.3839
  946MOL0     C30463   2.637   5.203   6.606  0.2342 -0.2146  0.2685
  946MOL0     C30464   2.762   5.188   6.668  0.0260 -0.3752  0.0807
  946MOL0     C30465   3.140   5.094   6.830  0.1471 -0.2887 -0.4080
  946MOL0     C30466   3.225   5.192   6.779  0.5174 -0.4284  0.4257
  946MOL0     C30467   3.362   5.208   6.813  0.2409 -0.0054 -0.3247
  946MOL0     C30468   3.412   5.137   6.917 -0.7857  1.3953 -0.1360
  946MOL0     O30469   3.533   5.152   6.973 -0.0085 -0.2892 -0.2155
  946MOL0     C30470   3.631   5.242   6.925  0.2817 -0.3544  0.8274
  946MOL0     C30471   3.742   5.226   7.025  0.1611 -0.9256 -0.0502
  946MOL0     C30472   3.883   5.238   6.951  0.4796  0.4552 -0.6197
  946MOL0     C30473   3.922   5.389   6.940 -0.6020 -0.3330 -0.2625
  946MOL0     C30474   4.069   5.395   6.905  0.4723 -0.5563 -0.1073
  946MOL0     C30475   4.189   5.398   6.876  0.3859 -0.1124  0.9375
  946MOL0     C30476   3.327   5.041   6.972  0.1742  0.0377 -0.2426
  946MOL0     C30477   3.192   5.017   6.932  0.7584  0.5851  0.0635
  946MOL0     C30478   3.117   4.898   7.010 -0.1409  0.0748  0.5099
  946MOL0     H30479   2.930   5.059   6.402  0.7410  0.1112  2.8811
  946MOL0     H30480   2.710   5.109   6.290  2.4884 -1.4588  0.1066
  946MOL0     H30481   2.367   5.286   6.541 -0.1092 -1.0400  1.6077
  946MOL0     H30482   2.375   5.109   6.546  2.3848 -0.8304 -1.0025
  946MOL0     H30483   2.157   5.180   6.453 -1.7365 -3.0316 -2.9912
  946MOL0     H30484   2.239   5.262   6.323 -3.1681  0.0777 -0.0703
  946MOL0     H30485   2.337   5.056   6.251  2.2141  1.5195  3.1512
  946MOL0     H30486   2.274   4.967   6.389 -0.7985  0.1149  0.5423
  946MOL0     H30487   2.034   5.038   6.292  1.3416 -0.5309  1.7080
  946MOL0     H30488   2.126   5.082   6.148 -0.2229 -0.2065  0.2453
  946MOL0     H30489   2.023   4.835   6.179  0.5998 -2.3598  0.7237
  946MOL0     H30490   2.147   4.816   6.298  1.4088 -2.2550 -0.9835
  946MOL0     H30491   2.190   4.886   6.005  0.1523  0.0470 -0.4414
  946MOL0     H30492   2.323   4.842   6.120  0.1522  1.8682 -2.4052
  946MOL0     H30493   2.080   4.678   6.041  0.1032 -0.7162  0.6989
  946MOL0     H30494   2.196   4.609   6.151 -4.0389  1.5845  1.4505
  946MOL0     H30495   2.257   4.685   5.854  5.1541 -0.0887 -0.8189
  946MOL0     H30496   2.375   4.640   5.969 -0.2175  0.7566 -2.4755
  946MOL0     H30497   2.346   4.383   6.097 -0.6412  0.0455  0.8682
  946MOL0     H30498   2.252   4.048   5.927  3.3431  1.2584 -1.2800
  946MOL0     H30499   2.140   4.111   6.053  0.3272  0.9301  0.3989
  946MOL0     H30500   2.441   4.167   6.090 -0.5927  1.9094  2.0205
  946MOL0     H30501   2.318   4.159   6.197 -1.7075  1.4254 -2.5289
  946MOL0     H30502   2.304   3.904   6.164 -0.8547  1.7072 -1.1996
  946MOL0     H30503   2.453   3.918   6.055 -0.7241 -2.1477  0.5959
  946MOL0     H30504   2.422   3.977   6.356  0.3193  0.9088 -0.4481
  946MOL0     H30505   2.502   3.837   6.294  2.2380  0.1348  1.6342
  946MOL0     H30506   2.548   4.077   6.512  0.1994 -1.4388 -2.0653
  946MOL0     H30507   2.730   4.250   6.764  3.2467 -3.1739  0.9082
  946MOL0     H30508   2.695   4.082   6.789  0.0378 -3.1542 -2.7404
  946MOL0     H30509   2.568   4.181   6.707 -0.5286  0.5597  0.7001
  946MOL0     H30510   2.966   4.375   6.981 -1.4589  0.8987 -1.9060
  946MOL0     H30511   3.149   4.500   7.070 -0.0738  0.0263 -0.2779
  946MOL0     H30512   3.550   4.505   6.841 -2.6845  1.7173 -0.5828
  946MOL0     H30513   3.587   4.580   7.004  0.9014 -2.2220  1.7022
  946MOL0     H30514   3.543   4.358   7.093 -2.9073  0.1201 -1.5834
  946MOL0     H30515   3.545   4.292   6.929  0.3511 -1.0808 -0.6802
  946MOL0     H30516   3.790   4.433   7.038 -0.3199 -0.1517 -0.0007
  946MOL0     H30517   3.772   4.386   6.871  0.8471  1.1144  0.3870
  946MOL0     H30518   3.751   4.166   7.079  2.6448 -1.2932 -0.3164
  946MOL0     H30519   3.902   4.223   7.016  0.4272 -1.2040  0.8364
  946MOL0     H30520   3.727   4.152   6.789  1.1908  1.0354 -0.5269
  946MOL0     H30521   3.880   4.086   6.829 -0.5469  0.1550 -2.2443
  946MOL0     H30522   3.769   3.930   6.991  1.9973 -0.5509 -0.5465
  946MOL0     H30523   3.693   3.910   6.838  1.3591 -1.7063  1.3982
  946MOL0     H30524   3.513   4.074   6.912 -1.1932  0.1170  0.9369
  946MOL0     H30525   3.584   4.058   7.079 -0.1948 -5.0150  1.9665
  946MOL0     H30526   3.473   3.821   6.911 -1.0967  0.4547 -0.7895
  946MOL0     H30527   3.391   3.906   7.048  1.8650  2.3417  2.4877
  946MOL0     H30528   3.407   4.373   6.746 -0.0244  1.6427 -1.2584
  946MOL0     H30529   3.215   4.266   6.637  1.2809  1.3172 -0.7315
  946MOL0     H30530   3.031   4.076   6.394  1.2057 -0.8327  1.2456
  946MOL0     H30531   2.857   4.016   6.232 -1.2543 -2.6466  1.0897
  946MOL0     H30532   2.562   5.239   6.676  1.5280  3.7661 -0.1344
  946MOL0     H30533   2.774   5.198   6.775 -0.4815  1.0303  0.0225
  946MOL0     H30534   3.194   5.266   6.706  3.7876  0.8671  0.1841
  946MOL0     H30535   3.418   5.283   6.758 -0.1693  2.1217  1.9605
  946MOL0     H30536   3.665   5.219   6.823  0.4342 -1.0480  1.0281
  946MOL0     H30537   3.607   5.349   6.923  2.2157  0.1166 -0.7816
  946MOL0     H30538   3.753   5.127   7.071 -1.2100 -1.3268 -0.5486
  946MOL0     H30539   3.738   5.300   7.106  3.0292 -0.2951 -0.3562
  946MOL0     H30540   3.960   5.185   7.008  1.4901  0.8821 -1.5552
  946MOL0     H30541   3.885   5.192   6.852  1.6982  0.7583 -0.7549
  946MOL0     H30542   3.894   5.453   7.025  0.1032  0.6412 -0.7505
  946MOL0     H30543   3.859   5.432   6.862 -2.5837  2.1885  2.4770
  946MOL0     H30544   4.292   5.398   6.848  1.2283 -0.1578  3.6956
  946MOL0     H30545   3.368   4.984   7.055 -1.1291  0.2059  0.5363
  946MOL0     H30546   3.084   4.815   6.947  0.4031  0.6006 -0.4911
  946MOL0     H30547   3.178   4.852   7.089  1.3778  2.0375  0.5582
  946MOL0     H30548   3.030   4.946   7.057  0.8867  2.1423  0.4031
  947MOL0     O30549   8.237   4.173   9.711  0.4962 -0.0779  0.1066
  947MOL0     C30550   8.335   4.125   9.649  1.0205 -0.3801 -0.4485
  947MOL0     O30551   8.445   4.188   9.614  0.1814  0.0082 -0.5136
  947MOL0     C30552   8.488   4.302   9.677 -1.0899  0.4689  0.3147
  947MOL0     C30553   8.406   4.410   9.692 -0.3272 -0.4564 -0.5188
  947MOL0     C30554   8.460   4.534   9.737  1.0825  0.9451  0.9627
  947MOL0     C30555   8.590   4.549   9.769  0.0115  0.5427 -0.3724
  947MOL0     O30556   8.647   4.674   9.806 -0.3825 -1.1138  0.4559
  947MOL0     C30557   8.561   4.792   9.802 -0.1009 -0.5949 -0.0007
  947MOL0     C30558   8.658   4.913   9.824 -0.5102  0.0892  0.9819
  947MOL0     C30559   8.770   4.915   9.715 -0.0376 -0.7575 -1.3634
  947MOL0     C30560   8.894   4.995   9.781  0.2884 -0.0906  0.4777
  947MOL0     C30561   9.014   5.000   9.683 -0.5711 -0.6725  0.1657
  947MOL0     C30562   9.136   5.095   9.723  0.3854  0.5891 -0.4581
  947MOL0     C30563   9.263   5.002   9.742 -1.0551 -0.2018 -0.5820
  947MOL0     C30564   9.395   5.075   9.765 -0.5625 -0.3612 -0.1307
  947MOL0     N30565   9.394   5.173   9.869 -0.1365  0.5106 -0.4179
  947MOL0     C30566   9.341   5.143   9.997  0.6037 -0.6615  0.4975
  947MOL0     C30567   9.322   5.265  10.057  0.1663  0.2235  0.0686
  947MOL0     C30568   9.278   5.290  10.194 -0.4180 -0.2062  0.4660
  947MOL0     C30569   9.328   5.195  10.301 -0.5620  0.2935  0.2451
  947MOL0     C30570   9.483   5.180  10.310  0.8683  0.7583 -0.5071
  947MOL0     C30571   9.528   5.094  10.434  0.0722 -0.1194 -0.4954
  947MOL0     O30572   9.447   5.147  10.549 -0.3533 -0.0012  0.2909
  947MOL0     C30573   9.415   5.058  10.646  0.5837 -0.0442  0.3797
  947MOL0     C30574   9.503   4.959  10.686 -0.3389 -0.3583  0.2995
  947MOL0     C30575   9.487   4.880  10.797  0.0801  0.1237  0.1225
  947MOL0     C30576   9.604   4.788  10.841  0.0278 -0.3200  0.1798
  947MOL0     C30577   9.358   4.900  10.864 -0.0164  0.6949 -0.2949
  947MOL0     C30578   9.314   4.807  10.976  0.4218 -0.1268  0.8620
  947MOL0     O30579   9.177   4.793  10.995 -0.5142  1.2279  0.7246
  947MOL0     C30580   9.138   4.693  11.078 -0.0642 -0.0377 -0.3108
  947MOL0     C30581   9.095   4.729  11.206 -0.0036 -0.5454  0.8868
  947MOL0     C30582   9.051   4.633  11.302 -0.2472 -0.4896  0.7225
  947MOL0     C30583   9.057   4.495  11.263 -1.4546  0.1049  0.7595
  947MOL0     O30584   9.010   4.396  11.346  0.6654  0.2353 -0.5974
  947MOL0     C30585   8.943   4.414  11.477  0.4595  0.3151 -0.6639
  947MOL0     C30586   8.932   4.287  11.555 -0.1952 -0.1910 -0.3175
  947MOL0     C30587   8.859   4.317  11.687 -1.1368  0.4851  0.1241
  947MOL0     C30588   8.870   4.207  11.782 -0.0767  0.7720 -0.6407
  947MOL0     C30589   8.785   4.223  11.910 -0.4075 -1.5552 -0.6244
  947MOL0     C30590   8.836   4.120  12.016 -0.6215  0.0063 -0.1528
  947MOL0     C30591   8.738   4.142  12.135 -1.0537  0.4071  0.6168
  947MOL0     C30592   8.767   4.051  12.256  0.2010  0.5120  0.2132
  947MOL0    Cl30593   8.921   4.102  12.330  0.2336  0.1814  0.3489
  947MOL0     C30594   9.092   4.459  11.127  0.7653  0.8330 -0.3553
  947MOL0     C30595   9.136   4.560  11.037  0.3249  0.5117  0.0273
  947MOL0     O30596   9.393   4.742  11.034 -0.8924 -0.0568 -0.5003
  947MOL0     C30597   9.254   4.991  10.808 -0.0582 -0.1991  0.2078
  947MOL0     C30598   9.296   5.080  10.705  0.1508 -0.1533 -0.4584
  947MOL0     N30599   9.359   5.367   9.965  0.5222  0.4638 -0.0613
  947MOL0     N30600   9.411   5.313   9.863  0.3123 -0.0680  1.1043
  947MOL0     C30601   8.674   4.438   9.763 -0.1344  0.0678 -0.4772
  947MOL0     C30602   8.623   4.316   9.721  0.4206  0.5200 -0.4968
  947MOL0     C30603   8.326   3.987   9.598  0.0286 -1.0103  0.6129
  947MOL0     C30604   8.393   3.953   9.471 -0.2841 -0.6659 -0.5126
  947MOL0     C30605   8.386   3.815   9.418 -0.3496  0.2842 -0.6403
  947MOL0     C30606   8.300   3.726   9.475  0.8323  0.0474 -0.3467
  947MOL0     O30607   8.285   3.618   9.392  0.1007  0.6630 -0.7614
  947MOL0     C30608   8.184   3.521   9.434  0.1097 -0.4273  0.3427
  947MOL0     C30609   8.225   3.428   9.549  0.3356 -0.3817  0.1884
  947MOL0     C30610   8.125   3.316   9.571  0.1070 -0.6133 -0.3496
  947MOL0     C30611   8.193   3.192   9.630  0.9985  0.2951  0.6357
  947MOL0     C30612   8.244   3.208   9.763 -0.1017  0.2532 -0.2749
  947MOL0     C30613   8.281   3.207   9.879  0.8052  0.7964  0.3785
  947MOL0     C30614   8.224   3.762   9.594  0.4753 -0.0342  0.1054
  947MOL0     C30615   8.245   3.884   9.651  0.1637 -0.2334 -0.9557
  947MOL0     C30616   8.206   3.893   9.794 -0.1640 -0.7952  1.0508
  947MOL0     H30617   8.300   4.410   9.667 -0.1166 -0.0598 -1.4435
  947MOL0     H30618   8.388   4.615   9.749 -0.8766 -0.7803  1.3604
  947MOL0     H30619   8.485   4.787   9.881 -1.0503  2.5265 -0.5782
  947MOL0     H30620   8.513   4.810   9.706  0.7603  0.3529 -0.2658
  947MOL0     H30621   8.607   5.007   9.804  1.7898  0.8890 -1.7124
  947MOL0     H30622   8.712   4.890   9.916  2.2667 -1.6104 -0.9163
  947MOL0     H30623   8.806   4.818   9.680 -0.0854 -0.5037 -2.1186
  947MOL0     H30624   8.731   4.968   9.628 -2.3318 -0.6722 -0.3638
  947MOL0     H30625   8.860   5.097   9.804 -0.8840 -0.2259 -0.5318
  947MOL0     H30626   8.927   4.942   9.871  1.4364 -0.6566 -0.2552
  947MOL0     H30627   8.977   5.048   9.592  1.5064 -0.3368 -0.5514
  947MOL0     H30628   9.041   4.899   9.648  1.9772  0.0112 -0.0773
  947MOL0     H30629   9.157   5.173   9.649  2.4728 -0.0873 -0.6242
  947MOL0     H30630   9.108   5.139   9.819  2.0434 -0.2682  0.4533
  947MOL0     H30631   9.274   4.934   9.657  0.8987  0.1005 -0.6180
  947MOL0     H30632   9.251   4.942   9.833  0.7202  0.5637  0.1975
  947MOL0     H30633   9.483   5.011   9.774  1.1794  2.0257  0.7117
  947MOL0     H30634   9.424   5.125   9.672 -1.1641  1.4807  0.6381
  947MOL0     H30635   9.330   5.038  10.024  1.6979 -1.5127 -2.0760
  947MOL0     H30636   9.169   5.294  10.190 -0.5501 -1.2502  1.9564
  947MOL0     H30637   9.308   5.391  10.226 -1.9300 -0.3609  2.5709
  947MOL0     H30638   9.286   5.229  10.397  0.7361 -2.0908  1.7734
  947MOL0     H30639   9.282   5.099  10.276  1.8724 -0.1856 -2.9215
  947MOL0     H30640   9.515   5.124  10.222 -2.8116  0.3964 -1.7718
  947MOL0     H30641   9.538   5.275  10.306 -0.0430  1.3594  0.7801
  947MOL0     H30642   9.500   4.990  10.415  0.1938 -0.3193  0.3958
  947MOL0     H30643   9.637   5.098  10.443  0.2603 -4.3173  1.9826
  947MOL0     H30644   9.595   4.956  10.629 -3.1144 -1.3081 -4.8081
  947MOL0     H30645   9.562   4.688  10.855 -1.9823  0.4879  0.2753
  947MOL0     H30646   9.644   4.812  10.940  0.4028 -0.2780  0.0178
  947MOL0     H30647   9.686   4.793  10.769 -0.3697 -1.3820 -0.3772
  947MOL0     H30648   9.112   4.834  11.227 -0.7158  0.4132 -2.5993
  947MOL0     H30649   9.032   4.657  11.406  1.4213 -2.2011  1.4749
  947MOL0     H30650   9.012   4.468  11.544  1.6415  0.6232 -2.0764
  947MOL0     H30651   8.846   4.464  11.469  0.8365  1.1079 -0.4163
  947MOL0     H30652   8.882   4.211  11.494  0.3522 -0.0413 -0.9728
  947MOL0     H30653   9.038   4.269  11.575 -0.2753  0.3792  0.6908
  947MOL0     H30654   8.754   4.337  11.666 -1.2799  0.7454  1.0466
  947MOL0     H30655   8.909   4.400  11.738  0.6870  0.0981 -0.9258
  947MOL0     H30656   8.976   4.183  11.791  0.3422  2.3234 -1.0909
  947MOL0     H30657   8.845   4.113  11.731  0.9388  1.3900 -2.3481
  947MOL0     H30658   8.799   4.321  11.957  1.2443 -2.0580 -0.0126
  947MOL0     H30659   8.680   4.202  11.885 -1.0495  2.2141 -1.7984
  947MOL0     H30660   8.938   4.151  12.041 -0.2088  1.3727 -3.0668
  947MOL0     H30661   8.831   4.018  11.977  0.5629 -0.5922  1.2012
  947MOL0     H30662   8.636   4.127  12.099 -1.3253 -1.7172  2.0834
  947MOL0     H30663   8.740   4.245  12.170  2.6074  0.3140  1.0951
  947MOL0     H30664   8.772   3.948  12.220 -1.8055  0.6642 -0.5807
  947MOL0     H30665   8.696   4.060  12.339  2.0079  0.7463  1.8061
  947MOL0     H30666   9.076   4.355  11.099  4.0142  0.5170 -1.4949
  947MOL0     H30667   9.166   4.536  10.935 -3.6219  0.6715 -1.3695
  947MOL0     H30668   9.151   5.013  10.834 -1.0526 -2.1682 -1.7325
  947MOL0     H30669   9.232   5.156  10.662  0.2174  3.5240  4.8946
  947MOL0     H30670   8.779   4.439   9.790 -0.8988  0.6190  2.9061
  947MOL0     H30671   8.693   4.233   9.720  1.4018  1.3012  0.7122
  947MOL0     H30672   8.459   4.026   9.426 -1.7611 -0.3063 -2.1900
  947MOL0     H30673   8.437   3.787   9.326 -0.9854 -1.5287 -0.4803
  947MOL0     H30674   8.082   3.556   9.453 -0.3163  0.7756 -3.3825
  947MOL0     H30675   8.169   3.453   9.349  1.1181 -0.2122 -0.0151
  947MOL0     H30676   8.249   3.486   9.638  0.0741 -1.7550  1.1780
  947MOL0     H30677   8.321   3.385   9.521  0.3461 -0.2014 -0.0623
  947MOL0     H30678   8.059   3.357   9.648 -0.0754 -0.9873 -0.3070
  947MOL0     H30679   8.060   3.300   9.485 -1.5845 -0.8523  0.9223
  947MOL0     H30680   8.272   3.151   9.566 -0.6817 -2.2556  0.0503
  947MOL0     H30681   8.114   3.116   9.635 -0.0969  1.3415 -0.3865
  947MOL0     H30682   8.312   3.220   9.981  0.7786  0.1532  0.4717
  947MOL0     H30683   8.156   3.691   9.639 -4.4949  1.9609 -3.3319
  947MOL0     H30684   8.146   3.808   9.827 -1.0509 -0.9116 -0.7356
  947MOL0     H30685   8.303   3.905   9.844  0.6964 -0.4884 -0.6264
  947MOL0     H30686   8.146   3.984   9.809  2.9736  1.9717 -1.7616
  948MOL0     O30687   7.608  10.368   1.788 -0.1162 -0.4930  0.2630
  948MOL0     C30688   7.587  10.324   1.681  0.7909  0.0190  1.1322
  948MOL0     O30689   7.465  10.297   1.628  0.6955  0.0062  0.0079
  948MOL0     C30690   7.340  10.331   1.677 -0.4196 -0.5368  0.0495
  948MOL0     C30691   7.316  10.447   1.743 -0.8304 -0.5874  0.0467
  948MOL0     C30692   7.193  10.487   1.789 -1.3206  0.8070  0.5211
  948MOL0     C30693   7.084  10.394   1.765  0.5287 -0.6039  0.2748
  948MOL0     O30694   6.961  10.434   1.800  1.2419 -1.2214 -0.6645
  948MOL0     C30695   6.887  10.532   1.723 -0.3321 -0.2160 -0.2843
  948MOL0     C30696   6.751  10.559   1.784  0.7081  0.1257 -0.2200
  948MOL0     C30697   6.669  10.667   1.711 -0.3001  0.7857  0.3345
  948MOL0     C30698   6.745  10.795   1.675 -0.1102 -0.3206  0.0030
  948MOL0     C30699   6.664  10.922   1.655  0.1978 -0.0900  0.2342
  948MOL0     C30700   6.633  10.996   1.787  0.4136 -0.5566  0.4376
  948MOL0     C30701   6.568  11.129   1.765 -1.1126  0.0650  0.6989
  948MOL0     C30702   6.631  11.222   1.868 -0.1845  0.1169  0.6234
  948MOL0     N30703   6.584  11.357   1.821  0.1264  0.2513  0.4138
  948MOL0     C30704   6.659  11.460   1.777  0.3917 -0.5723  0.2133
  948MOL0     C30705   6.565  11.553   1.751  0.4916  0.1863 -0.3474
  948MOL0     C30706   6.591  11.678   1.671  0.5137 -1.1026 -0.9382
  948MOL0     C30707   6.653  11.795   1.761 -0.8981 -0.5867  0.3018
  948MOL0     C30708   6.808  11.786   1.759  0.9169  0.0086 -0.7041
  948MOL0     C30709   6.873  11.913   1.807  0.1660 -0.1849 -1.2915
  948MOL0     O30710   6.840  11.933   1.949  1.1995 -0.6580  0.1380
  948MOL0     C30711   6.878  12.054   2.003 -0.6296 -0.9508 -0.9695
  948MOL0     C30712   6.971  12.148   1.947 -0.7228 -0.0476 -0.6478
  948MOL0     C30713   7.007  12.266   2.014  0.4020 -0.6098 -1.1035
  948MOL0     C30714   7.114  12.344   1.959 -0.0313  0.9456  0.5658
  948MOL0     C30715   6.943  12.304   2.134 -0.0600 -0.4198  0.1297
  948MOL0     C30716   6.976  12.429   2.207 -0.0122  0.9188  0.4220
  948MOL0     O30717   7.075  12.512   2.167  0.3352  0.0502 -0.2304
  948MOL0     C30718   7.117  12.621   2.247  0.9195 -0.6252  0.3864
  948MOL0     C30719   7.118  12.747   2.190 -0.1111  0.0565  0.6343
  948MOL0     C30720   7.145  12.866   2.260  0.1639  0.2543  0.4962
  948MOL0     C30721   7.158  12.860   2.401  0.3496 -0.1794  0.4182
  948MOL0     O30722   7.177  12.962   2.489 -0.4038  0.2633 -0.2139
  948MOL0     C30723   7.258  13.076   2.451 -0.0545 -0.8771 -0.4146
  948MOL0     C30724   7.278  13.167   2.571 -0.4447  0.5367 -0.1984
  948MOL0     C30725   7.379  13.103   2.664 -0.8003  0.3472 -0.0364
  948MOL0     C30726   7.422  13.180   2.783 -0.0450 -0.2551 -0.9657
  948MOL0     C30727   7.320  13.192   2.895 -0.9613 -0.3079  0.5483
  948MOL0     C30728   7.371  13.264   3.012 -0.4581  0.2909 -0.2073
  948MOL0     C30729   7.262  13.342   3.089 -0.2386  0.4020  0.1311
  948MOL0     C30730   7.308  13.384   3.228 -0.0993 -0.2579  0.0501
  948MOL0    Cl30731   7.206  13.506   3.299 -0.3301  0.0471  0.4473
  948MOL0     C30732   7.154  12.735   2.462 -0.1384 -0.3709  0.0029
  948MOL0     C30733   7.128  12.621   2.389 -0.5860  0.3216 -0.7716
  948MOL0     O30734   6.904  12.440   2.315 -0.3322  0.0521  0.5243
  948MOL0     C30735   6.854  12.212   2.191 -0.7705 -0.7005 -0.1792
  948MOL0     C30736   6.823  12.094   2.133  0.1311 -0.1346  0.5732
  948MOL0     N30737   6.440  11.513   1.801 -0.7619  0.4660  0.2860
  948MOL0     N30738   6.449  11.393   1.839  0.2948  0.5980  0.6235
  948MOL0     C30739   7.104  10.286   1.672  0.2376  0.2279 -0.2350
  948MOL0     C30740   7.230  10.260   1.626  0.7655 -0.8349  0.0162
  948MOL0     C30741   7.706  10.276   1.604  0.0368 -0.3007  0.4659
  948MOL0     C30742   7.690  10.175   1.508 -0.2232  0.0719  0.1184
  948MOL0     C30743   7.800  10.098   1.458 -0.2145 -0.2963  0.0337
  948MOL0     C30744   7.929  10.128   1.491 -1.4429 -0.1425 -0.3790
  948MOL0     O30745   8.036  10.050   1.447 -0.3491 -0.4875 -0.3617
  948MOL0     C30746   8.022   9.925   1.381 -0.6543  0.0507  0.5840
  948MOL0     C30747   7.954   9.815   1.473  0.4604 -0.2078 -0.1299
  948MOL0     C30748   7.884   9.705   1.398  0.2756  0.0112 -0.1221
  948MOL0     C30749   7.978   9.608   1.332 -1.0293 -0.0937  0.3451
  948MOL0     C30750   8.061   9.538   1.429 -0.2323 -0.1063 -0.0561
  948MOL0     C30751   8.136   9.493   1.516 -0.2728 -0.7188 -0.0836
  948MOL0     C30752   7.946  10.241   1.576 -0.3149  0.6425  0.3744
  948MOL0     C30753   7.842  10.317   1.633  0.5691 -0.5337  0.5795
  948MOL0     C30754   7.880  10.418   1.732  0.1952 -0.1180  0.4131
  948MOL0     H30755   7.398  10.517   1.733  0.7341 -2.4599 -0.7632
  948MOL0     H30756   7.170  10.578   1.842 -1.9218  0.2515  1.2336
  948MOL0     H30757   6.876  10.496   1.620 -1.1815 -1.1775  0.1283
  948MOL0     H30758   6.933  10.631   1.720 -0.6944 -0.0745 -1.7755
  948MOL0     H30759   6.688  10.470   1.774  1.2952 -0.0887 -2.8800
  948MOL0     H30760   6.773  10.589   1.887 -2.8455  0.5722  0.5206
  948MOL0     H30761   6.640  10.626   1.614  1.0489 -1.1142  0.6975
  948MOL0     H30762   6.584  10.690   1.777 -0.5511  1.3350 -0.1700
  948MOL0     H30763   6.826  10.809   1.747  0.0450 -0.5110 -0.1282
  948MOL0     H30764   6.799  10.775   1.582  0.9231  0.6692  0.3676
  948MOL0     H30765   6.574  10.899   1.598  0.9250 -3.7452  0.3023
  948MOL0     H30766   6.719  10.996   1.596 -2.0127  1.3408 -0.1677
  948MOL0     H30767   6.564  10.937   1.848 -3.4731  2.8448 -0.2484
  948MOL0     H30768   6.727  11.010   1.841  0.5161 -2.8240  0.9590
  948MOL0     H30769   6.460  11.141   1.760 -1.3115 -1.4532 -3.7526
  948MOL0     H30770   6.598  11.158   1.664 -4.2193 -1.0103 -0.6618
  948MOL0     H30771   6.596  11.192   1.968 -0.4925 -1.1127  0.1630
  948MOL0     H30772   6.740  11.221   1.862 -0.2392 -2.6875 -2.8116
  948MOL0     H30773   6.764  11.455   1.752  0.8589  1.3855  1.5565
  948MOL0     H30774   6.497  11.716   1.631 -0.3035 -0.2996  1.5726
  948MOL0     H30775   6.658  11.656   1.587  3.1706 -0.4154  0.8737
  948MOL0     H30776   6.618  11.889   1.718 -0.3287 -0.4239  0.1796
  948MOL0     H30777   6.622  11.791   1.866 -0.8975  0.9171  0.3713
  948MOL0     H30778   6.835  11.706   1.830  0.4858 -0.0842 -0.6433
  948MOL0     H30779   6.853  11.762   1.662 -3.3774  0.4589 -3.0231
  948MOL0     H30780   6.982  11.909   1.798  0.5427 -3.7971  2.0975
  948MOL0     H30781   6.832  11.999   1.752 -2.3245  0.5946  1.5228
  948MOL0     H30782   7.018  12.127   1.851  0.8391  0.4430 -0.0234
  948MOL0     H30783   7.168  12.292   1.879  1.3871  1.1937  1.3313
  948MOL0     H30784   7.187  12.359   2.039  3.0160 -0.9549 -1.6157
  948MOL0     H30785   7.082  12.442   1.924  0.8196  0.6020 -1.3078
  948MOL0     H30786   7.105  12.751   2.082 -0.1107 -2.1384  0.5095
  948MOL0     H30787   7.140  12.955   2.198  0.1908  0.5636  0.9352
  948MOL0     H30788   7.356  13.033   2.428  1.8938  1.4489  2.6979
  948MOL0     H30789   7.215  13.128   2.365  0.8833  2.0923  0.7575
  948MOL0     H30790   7.305  13.270   2.547  0.7089  0.3113  0.0721
  948MOL0     H30791   7.184  13.171   2.626  0.2995  0.5328  1.1180
  948MOL0     H30792   7.469  13.065   2.616 -1.3084 -1.5530  0.4230
  948MOL0     H30793   7.333  13.011   2.702  0.5634 -1.1397 -1.7982
  948MOL0     H30794   7.444  13.280   2.745  0.5497  0.4709  1.1735
  948MOL0     H30795   7.512  13.137   2.828 -0.5837  2.0587  2.6423
  948MOL0     H30796   7.226  13.228   2.853  0.0870 -0.5155 -2.1397
  948MOL0     H30797   7.300  13.088   2.921  2.2166 -1.3952 -0.8308
  948MOL0     H30798   7.454  13.331   2.988  2.0191 -2.2378  0.7099
  948MOL0     H30799   7.412  13.189   3.079  2.6049  2.0000 -0.0030
  948MOL0     H30800   7.177  13.276   3.110  0.4073 -0.2697  0.7145
  948MOL0     H30801   7.226  13.429   3.033 -1.5246 -0.9362 -1.2437
  948MOL0     H30802   7.414  13.411   3.225 -0.1945  0.2367  0.8523
  948MOL0     H30803   7.306  13.297   3.293  2.5953 -1.5322 -1.4296
  948MOL0     H30804   7.172  12.725   2.569  1.9347 -0.5224 -0.3206
  948MOL0     H30805   7.121  12.529   2.446  1.8723 -0.5453 -1.7696
  948MOL0     H30806   6.812  12.238   2.288 -0.0206  0.3951 -0.1336
  948MOL0     H30807   6.754  12.019   2.172  1.7594 -0.6933  2.5286
  948MOL0     H30808   7.018  10.240   1.624 -0.8352  0.2705  1.5418
  948MOL0     H30809   7.245  10.175   1.561 -0.5007  0.7002 -2.4654
  948MOL0     H30810   7.587  10.145   1.489 -1.5333  0.9039  4.6972
  948MOL0     H30811   7.782  10.017   1.388  3.8115 -1.2676 -0.1142
  948MOL0     H30812   7.969   9.937   1.286  0.9115 -1.1303 -0.4935
  948MOL0     H30813   8.123   9.889   1.356 -0.4869  1.1466 -0.4437
  948MOL0     H30814   7.876   9.867   1.530  2.5481  2.7141  0.2669
  948MOL0     H30815   8.032   9.778   1.541  3.6484  1.2989 -2.7124
  948MOL0     H30816   7.810   9.656   1.462  1.0741  1.2136  1.8211
  948MOL0     H30817   7.822   9.755   1.324  2.5085  0.4374 -1.8061
  948MOL0     H30818   8.047   9.657   1.263 -0.8580  2.3054  2.1074
  948MOL0     H30819   7.910   9.539   1.282 -3.1064  2.0998 -0.0283
  948MOL0     H30820   8.192   9.467   1.604  0.1921 -1.1899 -0.5161
  948MOL0     H30821   8.048  10.273   1.594  0.7257 -2.5537  0.7956
  948MOL0     H30822   7.989  10.430   1.724  0.2931 -0.3304  1.3344
  948MOL0     H30823   7.836  10.517   1.716  0.9909  0.6426  2.5691
  948MOL0     H30824   7.856  10.388   1.834  0.5379 -1.6454  0.0646
  949MOL0     O30825   3.150  10.952   7.807 -0.0931  0.1567 -0.0146
  949MOL0     C30826   3.081  10.978   7.705 -0.1873 -0.1738 -0.7953
  949MOL0     O30827   3.119  10.945   7.584  0.3244  0.1651  0.5119
  949MOL0     C30828   3.248  10.888   7.566  0.5386 -0.2757 -1.2929
  949MOL0     C30829   3.290  10.770   7.619 -0.5247 -0.2617 -0.0049
  949MOL0     C30830   3.416  10.716   7.599 -0.2662  0.1513 -0.9433
  949MOL0     C30831   3.509  10.798   7.525  0.0394  0.2108  0.3606
  949MOL0     O30832   3.638  10.743   7.507 -0.3926 -0.1776  0.0215
  949MOL0     C30833   3.740  10.821   7.443  0.1119 -0.5605  0.5743
  949MOL0     C30834   3.866  10.735   7.433  0.4511  0.4999 -0.1018
  949MOL0     C30835   3.991  10.808   7.366  0.1149  0.1706  0.3660
  949MOL0     C30836   4.103  10.708   7.330 -0.4426 -0.5896  0.6053
  949MOL0     C30837   4.215  10.769   7.244 -0.1600  0.3433  1.4234
  949MOL0     C30838   4.328  10.667   7.217 -0.3529 -0.0395 -0.3018
  949MOL0     C30839   4.385  10.619   7.347  0.0843  0.1357 -1.0012
  949MOL0     C30840   4.537  10.630   7.340  0.4165 -0.3749  0.7071
  949MOL0     N30841   4.606  10.542   7.434  0.6716 -1.0156  0.4863
  949MOL0     C30842   4.634  10.574   7.567 -0.1807  0.1057  0.0541
  949MOL0     C30843   4.675  10.456   7.618  0.1091  0.0716 -0.3942
  949MOL0     C30844   4.695  10.428   7.762  0.1661 -0.6820 -0.1112
  949MOL0     C30845   4.684  10.549   7.857  0.4340  0.1877 -0.0288
  949MOL0     C30846   4.827  10.607   7.881  0.2282  0.9420  0.2035
  949MOL0     C30847   4.826  10.722   7.972  0.5235  0.5466 -0.2910
  949MOL0     O30848   4.759  10.829   7.901 -0.6554 -0.3975 -0.3745
  949MOL0     C30849   4.706  10.934   7.976 -0.3063 -0.5566 -0.1624
  949MOL0     C30850   4.755  10.972   8.104  0.9934  0.2675  0.0392
  949MOL0     C30851   4.672  11.054   8.186 -0.1372 -0.2896  0.0427
  949MOL0     C30852   4.715  11.072   8.328  0.7894  0.7251 -0.1029
  949MOL0     C30853   4.564  11.130   8.133 -1.0276  0.4874 -0.3276
  949MOL0     C30854   4.476  11.222   8.212  0.2889 -0.0906 -0.4296
  949MOL0     O30855   4.529  11.292   8.318 -0.3463  0.2841  0.2237
  949MOL0     C30856   4.452  11.365   8.394  0.1047 -0.0166 -0.1580
  949MOL0     C30857   4.465  11.504   8.396 -0.3275  0.7968 -0.4749
  949MOL0     C30858   4.398  11.574   8.499 -0.3042 -0.4909 -0.0270
  949MOL0     C30859   4.315  11.514   8.589 -1.6403 -0.2375 -0.6697
  949MOL0     O30860   4.269  11.599   8.686  0.5931  0.1531 -1.0701
  949MOL0     C30861   4.180  11.542   8.786 -0.2052 -0.1568  1.0660
  949MOL0     C30862   4.127  11.653   8.868 -0.7488 -0.6275 -0.3537
  949MOL0     C30863   4.039  11.598   8.991  0.1563 -0.8215 -0.1638
  949MOL0     C30864   4.014  11.715   9.086  0.0419  0.5544 -0.6960
  949MOL0     C30865   3.904  11.681   9.185 -0.0480 -0.4373 -0.3823
  949MOL0     C30866   3.873  11.799   9.284  0.2509  0.3415  0.3026
  949MOL0     C30867   3.790  11.911   9.214 -0.6398 -0.0971 -0.7347
  949MOL0     C30868   3.704  11.984   9.323 -0.8359  0.2193  0.1507
  949MOL0    Cl30869   3.557  11.900   9.386 -0.2820  0.2673 -0.0755
  949MOL0     C30870   4.295  11.375   8.585 -0.6363  0.6315  0.5193
  949MOL0     C30871   4.366  11.303   8.489 -0.0752 -0.2012  0.2023
  949MOL0     O30872   4.362  11.230   8.167 -0.1639  0.2495  0.3454
  949MOL0     C30873   4.528  11.106   7.999 -0.8688 -0.2600 -0.2122
  949MOL0     C30874   4.596  11.011   7.926  0.0991 -0.4147  0.3694
  949MOL0     N30875   4.672  10.362   7.530  0.5910 -0.1522  1.2624
  949MOL0     N30876   4.645  10.417   7.413  0.2674  0.0038  0.5436
  949MOL0     C30877   3.464  10.912   7.459 -0.0188 -0.5906  0.1252
  949MOL0     C30878   3.334  10.958   7.475  0.9720 -0.1801  0.1968
  949MOL0     C30879   2.941  11.021   7.725 -0.2853  0.2896  0.5612
  949MOL0     C30880   2.836  10.944   7.685  0.4276  0.1540  0.7231
  949MOL0     C30881   2.706  10.999   7.713  0.8623 -0.4805 -0.3398
  949MOL0     C30882   2.688  11.120   7.771 -0.4658 -0.2858  0.1828
  949MOL0     O30883   2.553  11.150   7.787 -0.5496  0.1164  0.5076
  949MOL0     C30884   2.518  11.275   7.845 -0.2001 -0.1871 -0.2706
  949MOL0     C30885   2.363  11.280   7.873  1.4829 -0.4304 -0.2557
  949MOL0     C30886   2.280  11.265   7.741 -0.0457 -0.8416 -0.1402
  949MOL0     C30887   2.326  11.358   7.633  0.6104  0.2626 -0.4915
  949MOL0     C30888   2.211  11.410   7.555 -0.5348 -0.6130  0.1279
  949MOL0     C30889   2.119  11.450   7.489 -0.1057  0.0498  0.0552
  949MOL0     C30890   2.797  11.194   7.810  0.6363  0.3690  0.0912
  949MOL0     C30891   2.928  11.148   7.788  0.0882 -0.1146 -0.0571
  949MOL0     C30892   3.038  11.232   7.843 -0.2240 -0.6378  0.9227
  949MOL0     H30893   3.223  10.722   7.689 -0.8080  2.3624  1.6601
  949MOL0     H30894   3.453  10.629   7.651 -0.1295  0.3832 -0.6526
  949MOL0     H30895   3.772  10.913   7.493  0.9199  0.1177 -1.1022
  949MOL0     H30896   3.698  10.849   7.346 -0.8580 -1.1110  0.8123
  949MOL0     H30897   3.901  10.710   7.534 -0.3115 -0.6976 -0.1168
  949MOL0     H30898   3.848  10.645   7.375 -0.5110  0.4136  0.3127
  949MOL0     H30899   3.962  10.841   7.265  0.6833 -0.5299 -0.0298
  949MOL0     H30900   4.022  10.901   7.415  0.3287 -0.0802  0.7052
  949MOL0     H30901   4.136  10.664   7.425 -2.1822 -1.6709  0.7521
  949MOL0     H30902   4.058  10.626   7.273  2.6756 -2.0517  0.0041
  949MOL0     H30903   4.273  10.846   7.296  2.8226  0.4057 -1.6234
  949MOL0     H30904   4.191  10.804   7.144 -1.8567 -0.7318  1.4246
  949MOL0     H30905   4.298  10.584   7.152 -2.2249  0.2204  0.1734
  949MOL0     H30906   4.412  10.719   7.169  0.9127 -0.7172  1.0949
  949MOL0     H30907   4.360  10.513   7.358  1.1642 -0.3784 -3.0347
  949MOL0     H30908   4.354  10.667   7.440 -0.1920 -2.1708  0.1444
  949MOL0     H30909   4.579  10.599   7.244  2.4131  1.7666  0.7981
  949MOL0     H30910   4.564  10.735   7.353 -1.1908 -0.0934  2.0747
  949MOL0     H30911   4.609  10.664   7.622  0.2027 -0.9543  2.0635
  949MOL0     H30912   4.794  10.386   7.778  1.1361  1.2949 -0.6001
  949MOL0     H30913   4.613  10.360   7.786 -0.7223  0.3980 -0.0190
  949MOL0     H30914   4.607  10.622   7.830 -2.9687 -2.4310  1.7599
  949MOL0     H30915   4.654  10.513   7.957  1.3898 -1.8537 -0.4134
  949MOL0     H30916   4.881  10.526   7.932 -1.1398  0.8537  1.5952
  949MOL0     H30917   4.868  10.632   7.783  1.9643  0.7574  0.8405
  949MOL0     H30918   4.782  10.697   8.069 -1.4241  1.0723 -0.9875
  949MOL0     H30919   4.926  10.750   8.004  0.3130 -1.3944  2.3880
  949MOL0     H30920   4.843  10.925   8.146  1.6836 -0.5727 -2.1830
  949MOL0     H30921   4.744  11.176   8.347 -1.6897  1.2622  1.1897
  949MOL0     H30922   4.796  11.006   8.360  0.2315  0.2713  0.3883
  949MOL0     H30923   4.630  11.044   8.391  1.7430 -0.8434  0.5405
  949MOL0     H30924   4.537  11.556   8.334  1.4074 -0.2519  0.5657
  949MOL0     H30925   4.427  11.679   8.502  1.4184 -0.9498  0.7549
  949MOL0     H30926   4.102  11.480   8.743 -0.0081  0.4727 -0.2572
  949MOL0     H30927   4.243  11.482   8.852  3.4566  1.8275 -0.3416
  949MOL0     H30928   4.210  11.716   8.903 -0.7429 -0.4483 -0.6868
  949MOL0     H30929   4.066  11.722   8.810 -1.5146 -0.0888  1.0309
  949MOL0     H30930   4.105  11.527   9.041 -2.0740 -1.9714  1.3421
  949MOL0     H30931   3.944  11.554   8.958  0.3673 -1.8619  0.5548
  949MOL0     H30932   3.979  11.797   9.023 -1.9779 -0.5315 -1.0773
  949MOL0     H30933   4.108  11.748   9.131  0.8645 -0.9585 -1.2087
  949MOL0     H30934   3.812  11.644   9.140  0.5496 -2.8220  0.2122
  949MOL0     H30935   3.952  11.608   9.251 -0.1614 -0.8416 -0.7458
  949MOL0     H30936   3.968  11.841   9.316  1.1279 -2.8404  2.3182
  949MOL0     H30937   3.825  11.760   9.374 -1.2757 -1.2129 -1.1056
  949MOL0     H30938   3.722  11.885   9.132  1.7855 -0.4548 -2.7425
  949MOL0     H30939   3.865  11.972   9.162  1.2211 -1.5618  0.1205
  949MOL0     H30940   3.651  12.070   9.280 -1.7034 -0.2696  0.2166
  949MOL0     H30941   3.777  12.012   9.399 -0.2473  0.6242 -0.5543
  949MOL0     H30942   4.232  11.319   8.653 -1.5051  3.7076  2.4826
  949MOL0     H30943   4.364  11.196   8.474  0.0839 -0.1457 -0.2400
  949MOL0     H30944   4.458  11.161   7.937 -0.9532 -2.5559 -2.3062
  949MOL0     H30945   4.554  10.987   7.829  0.2155  1.9272 -0.3291
  949MOL0     H30946   3.532  10.956   7.387 -0.0749  0.3417  0.6300
  949MOL0     H30947   3.294  11.048   7.431  1.2904  0.3351  0.9476
  949MOL0     H30948   2.861  10.847   7.643  1.4956  0.0633  1.5220
  949MOL0     H30949   2.620  10.943   7.677  0.4552  0.7729 -1.3700
  949MOL0     H30950   2.571  11.289   7.940 -1.1651 -1.6014  0.5241
  949MOL0     H30951   2.533  11.359   7.777 -4.4928 -0.8370 -2.3509
  949MOL0     H30952   2.345  11.373   7.928  2.0625 -0.4143 -0.0879
  949MOL0     H30953   2.332  11.196   7.936  0.3098 -0.9539 -1.4724
  949MOL0     H30954   2.281  11.161   7.707 -0.5697 -1.0098  0.3325
  949MOL0     H30955   2.180  11.298   7.770  0.7449  0.4596  1.2656
  949MOL0     H30956   2.397  11.312   7.563  0.3257 -0.6746 -0.1858
  949MOL0     H30957   2.368  11.447   7.679  2.8920  0.2914 -2.4288
  949MOL0     H30958   2.034  11.497   7.443 -1.1533 -2.6155 -0.8735
  949MOL0     H30959   2.790  11.283   7.872  1.1883  0.6791 -0.2912
  949MOL0     H30960   3.064  11.197   7.943 -0.3035  1.3261  1.6675
  949MOL0     H30961   3.125  11.211   7.781 -2.1310 -0.4628 -2.0241
  949MOL0     H30962   3.016  11.339   7.848  1.8676 -0.0680 -0.8945
  950MOL0     O30963   9.620  11.373   8.584  0.2781 -0.2015 -0.2191
  950MOL0     C30964   9.682  11.403   8.683 -0.8147 -0.4927  0.0341
  950MOL0     O30965   9.809  11.453   8.681 -0.0321 -0.4285  0.0269
  950MOL0     C30966   9.903  11.391   8.597 -0.0498 -1.0156 -0.0111
  950MOL0     C30967   9.981  11.471   8.518  0.3331  0.1476 -1.1700
  950MOL0     C30968  10.077  11.418   8.426 -0.1957 -0.0583  0.4580
  950MOL0     C30969  10.114  11.285   8.427  0.7447  0.4264 -0.0236
  950MOL0     O30970  10.207  11.216   8.348 -0.1381  0.0354 -0.8457
  950MOL0     C30971  10.299  11.295   8.271 -0.0415 -0.6216  0.4177
  950MOL0     C30972  10.413  11.190   8.236  0.0777 -0.7216 -1.0499
  950MOL0     C30973  10.510  11.183   8.347 -0.7636  0.4260 -0.4242
  950MOL0     C30974  10.635  11.091   8.320  0.6603  0.0329 -0.3238
  950MOL0     C30975  10.728  11.091   8.447 -0.1162 -0.4053 -0.3173
  950MOL0     C30976  10.845  10.983   8.438  0.3221  0.1677  0.6312
  950MOL0     C30977  10.911  10.975   8.305 -0.6296 -0.0552  0.1488
  950MOL0     C30978  11.017  11.080   8.301 -0.2289  0.1133 -0.1186
  950MOL0     N30979  10.970  11.207   8.233  0.2442  0.1937  0.5484
  950MOL0     C30980  10.954  11.331   8.297  0.8670 -0.4486 -1.2795
  950MOL0     C30981  10.899  11.418   8.203  0.1189 -0.1072  0.1021
  950MOL0     C30982  10.863  11.552   8.229 -0.6273 -0.8335 -0.3235
  950MOL0     C30983  10.708  11.578   8.232 -0.4683 -0.1494  0.2827
  950MOL0     C30984  10.650  11.565   8.097 -0.3303  0.3623 -0.6783
  950MOL0     C30985  10.501  11.579   8.103  0.5312  0.4971  0.2109
  950MOL0     O30986  10.472  11.696   8.187  0.3188  1.2095  0.3946
  950MOL0     C30987  10.346  11.715   8.222  0.5352 -0.2631 -0.3076
  950MOL0     C30988  10.327  11.779   8.338  0.6949 -1.2535 -0.4487
  950MOL0     C30989  10.196  11.810   8.390  0.5440  0.5626 -0.2701
  950MOL0     C30990  10.187  11.893   8.519  0.1224  0.1707 -0.3535
  950MOL0     C30991  10.077  11.775   8.318 -0.0877  0.3653  0.1622
  950MOL0     C30992   9.935  11.793   8.357  0.6669 -0.0481 -0.0942
  950MOL0     O30993   9.834  11.774   8.271 -0.2660 -0.2362 -0.3496
  950MOL0     C30994   9.707  11.779   8.329 -0.3449  0.5192  0.3172
  950MOL0     C30995   9.611  11.865   8.259  0.5741 -0.4969 -0.7113
  950MOL0     C30996   9.478  11.865   8.298  0.4814  1.1193 -0.9273
  950MOL0     C30997   9.429  11.773   8.398  0.6068  0.2888 -0.4178
  950MOL0     O30998   9.298  11.751   8.446  0.0974  0.7740  0.5030
  950MOL0     C30999   9.195  11.756   8.345 -0.2260 -0.5236 -0.4111
  950MOL0     C31000   9.061  11.745   8.418 -0.5032 -0.9742 -0.4800
  950MOL0     C31001   9.013  11.606   8.445 -0.4592 -0.2799  0.2599
  950MOL0     C31002   8.872  11.615   8.493 -0.2634 -0.8135 -0.1146
  950MOL0     C31003   8.820  11.466   8.511 -0.5148  0.0638 -0.3747
  950MOL0     C31004   8.667  11.458   8.529  0.1417  0.0530 -0.8994
  950MOL0     C31005   8.611  11.316   8.545  0.1962 -0.0989  0.6369
  950MOL0     C31006   8.670  11.240   8.662 -0.3106  0.3840  0.7585
  950MOL0    Cl31007   8.618  11.317   8.815  0.4162  0.3675  0.5693
  950MOL0     C31008   9.526  11.703   8.467 -0.5515  0.2839 -0.5242
  950MOL0     C31009   9.663  11.699   8.435  0.6423 -0.5904  0.2274
  950MOL0     O31010   9.923  11.831   8.477  0.1893  0.6191  0.3014
  950MOL0     C31011  10.104  11.696   8.204  0.0569  0.0676  0.0389
  950MOL0     C31012  10.229  11.661   8.157 -0.5268 -0.4866  0.8222
  950MOL0     N31013  10.879  11.341   8.088  0.6699 -0.1268  0.4549
  950MOL0     N31014  10.910  11.214   8.104 -0.1051  0.4340  0.0031
  950MOL0     C31015  10.036  11.203   8.512  1.4521  0.2025 -0.6255
  950MOL0     C31016   9.929  11.251   8.593 -0.7903 -0.6775  0.4560
  950MOL0     C31017   9.621  11.418   8.813  0.3695  0.0307 -0.9309
  950MOL0     C31018   9.662  11.521   8.902  0.2231 -0.4204  0.0862
  950MOL0     C31019   9.602  11.551   9.030  0.1287 -0.6312 -0.2888
  950MOL0     C31020   9.480  11.474   9.059 -0.0298  0.6764 -0.6242
  950MOL0     O31021   9.415  11.499   9.176  0.2000 -0.6362 -0.2543
  950MOL0     C31022   9.320  11.403   9.222  0.8824  0.0318  0.0210
  950MOL0     C31023   9.279  11.438   9.368 -0.7553 -0.6392  0.7816
  950MOL0     C31024   9.174  11.553   9.366  0.9116 -0.3955  0.9068
  950MOL0     C31025   9.154  11.602   9.513 -0.2423 -0.1489 -1.0475
  950MOL0     C31026   9.098  11.506   9.599  0.0085  0.0615  0.1978
  950MOL0     C31027   9.026  11.435   9.661  0.1517  0.5863  0.9108
  950MOL0     C31028   9.438  11.369   8.977 -0.2556 -0.0837  0.1290
  950MOL0     C31029   9.506  11.344   8.850  0.2383 -0.0432 -0.6257
  950MOL0     C31030   9.444  11.232   8.769 -0.2728 -0.9064  0.0954
  950MOL0     H31031   9.946  11.573   8.510 -1.2749 -0.1084  1.3650
  950MOL0     H31032  10.127  11.489   8.361 -2.1556  2.6420  1.6753
  950MOL0     H31033  10.335  11.382   8.327 -1.7559  0.4088 -0.0214
  950MOL0     H31034  10.259  11.334   8.177 -0.7431 -2.0806  0.0893
  950MOL0     H31035  10.368  11.094   8.207  0.9257 -2.3457  2.5225
  950MOL0     H31036  10.470  11.223   8.148  0.4208 -2.6458 -1.6194
  950MOL0     H31037  10.547  11.285   8.362 -0.1755 -0.1944  3.4267
  950MOL0     H31038  10.468  11.163   8.446  1.4907  1.8701  0.9185
  950MOL0     H31039  10.597  10.993   8.291 -0.8937 -0.1877  2.1885
  950MOL0     H31040  10.687  11.136   8.235  0.2459  3.1351  0.9306
  950MOL0     H31041  10.678  11.054   8.537  2.8196 -0.2789  1.4990
  950MOL0     H31042  10.767  11.190   8.472  2.0045 -1.6693  1.8076
  950MOL0     H31043  10.907  11.000   8.526  0.2579 -1.1930  0.9617
  950MOL0     H31044  10.807  10.883   8.458  1.3506 -0.0907  1.3500
  950MOL0     H31045  10.846  10.981   8.217 -0.0325  0.8731 -0.2463
  950MOL0     H31046  10.974  10.885   8.302  1.8234  1.5640 -1.2253
  950MOL0     H31047  11.055  11.106   8.400  0.3634 -2.2271  0.3156
  950MOL0     H31048  11.096  11.041   8.236  0.9395 -0.0656  1.3620
  950MOL0     H31049  10.970  11.358   8.401 -0.7405 -1.2315 -0.7897
  950MOL0     H31050  10.920  11.618   8.163  2.9265  0.5683  3.6990
  950MOL0     H31051  10.905  11.588   8.323  0.6648  1.5272 -1.7070
  950MOL0     H31052  10.658  11.524   8.313  0.7711  2.5010  3.0217
  950MOL0     H31053  10.705  11.682   8.266  0.2733  0.5543 -1.6507
  950MOL0     H31054  10.684  11.642   8.027 -0.7806 -0.0669 -1.3850
  950MOL0     H31055  10.679  11.469   8.053  1.2194  0.2348  0.5112
  950MOL0     H31056  10.475  11.596   7.998 -0.8981 -2.6745 -0.0652
  950MOL0     H31057  10.452  11.487   8.135 -1.3862  1.5756  0.4995
  950MOL0     H31058  10.410  11.821   8.393 -0.3708 -0.0495  0.2882
  950MOL0     H31059  10.283  11.926   8.558  0.5801 -4.0537  2.8579
  950MOL0     H31060  10.131  11.829   8.589 -1.1596 -0.3714 -1.7955
  950MOL0     H31061  10.125  11.981   8.499  0.7173  0.5912 -0.3660
  950MOL0     H31062   9.625  11.942   8.184 -0.9589  0.7316  0.2191
  950MOL0     H31063   9.401  11.931   8.259 -1.8190 -1.2446 -0.6609
  950MOL0     H31064   9.195  11.845   8.281 -0.1239 -0.9526 -1.0211
  950MOL0     H31065   9.208  11.666   8.284 -0.1660 -1.5176  1.0164
  950MOL0     H31066   9.053  11.800   8.512  1.7078 -1.3744 -0.0147
  950MOL0     H31067   8.981  11.786   8.354 -0.6942 -1.1173 -0.3338
  950MOL0     H31068   9.081  11.561   8.519  1.5051  0.2145 -1.1646
  950MOL0     H31069   9.020  11.554   8.349  1.2327  0.6352 -0.1558
  950MOL0     H31070   8.805  11.663   8.421 -0.9052 -0.7088  0.5393
  950MOL0     H31071   8.864  11.671   8.586  0.3492  0.3829 -0.7609
  950MOL0     H31072   8.851  11.407   8.424  1.1765  1.7740 -1.0165
  950MOL0     H31073   8.858  11.424   8.604 -3.0608  1.0194  1.2134
  950MOL0     H31074   8.609  11.508   8.452  1.9689  0.2872 -2.1734
  950MOL0     H31075   8.653  11.525   8.615 -1.5144  1.3841 -2.1376
  950MOL0     H31076   8.617  11.256   8.454  1.6911  1.2267 -0.1860
  950MOL0     H31077   8.508  11.341   8.574 -0.3731 -0.0124 -1.3098
  950MOL0     H31078   8.778  11.223   8.656 -0.4981 -0.4685 -0.7040
  950MOL0     H31079   8.626  11.141   8.655 -0.0085  0.2743  0.3159
  950MOL0     H31080   9.483  11.641   8.545  1.1117 -0.6462 -0.3206
  950MOL0     H31081   9.733  11.638   8.491  1.0285 -1.8349 -1.5234
  950MOL0     H31082  10.021  11.661   8.143 -1.0035  0.8214  1.0082
  950MOL0     H31083  10.240  11.598   8.069 -1.0514  0.2246  0.2322
  950MOL0     H31084  10.054  11.096   8.514  0.0694 -0.1026  2.9951
  950MOL0     H31085   9.879  11.195   8.671 -1.3910 -1.5738 -0.5370
  950MOL0     H31086   9.746  11.584   8.875 -0.2587  0.3804  0.4079
  950MOL0     H31087   9.648  11.625   9.095 -0.1593 -2.1566  1.7671
  950MOL0     H31088   9.230  11.397   9.160  1.6201 -0.0832 -1.0827
  950MOL0     H31089   9.356  11.300   9.220 -2.0617 -1.1119 -2.3956
  950MOL0     H31090   9.363  11.456   9.436  0.8184  0.2728 -1.2846
  950MOL0     H31091   9.223  11.349   9.397 -3.7708 -0.4658 -3.5412
  950MOL0     H31092   9.203  11.637   9.303 -1.1046 -0.3300 -0.0032
  950MOL0     H31093   9.084  11.522   9.312  1.2670  3.5128 -2.3490
  950MOL0     H31094   9.083  11.685   9.508 -3.7354 -2.8583 -0.2251
  950MOL0     H31095   9.250  11.637   9.552 -0.2633 -0.5136 -0.6698
  950MOL0     H31096   8.973  11.356   9.710 -1.2831 -1.4201 -3.3597
  950MOL0     H31097   9.351  11.311   9.006 -2.1104  1.1369 -2.5772
  950MOL0     H31098   9.373  11.268   8.694 -0.7084 -1.2287  0.3492
  950MOL0     H31099   9.523  11.177   8.718  0.9491  0.4975  0.4037
  950MOL0     H31100   9.390  11.161   8.832 -1.8596 -6.0145 -6.0496
  951MOL0     O31101   0.392   9.767   7.556  0.4790  0.4441  0.2016
  951MOL0     C31102   0.273   9.777   7.574 -0.6350  0.3356  0.8146
  951MOL0     O31103   0.206   9.831   7.680  0.2921 -0.7526 -0.4960
  951MOL0     C31104   0.294   9.859   7.778 -0.5896 -0.0328 -1.4666
  951MOL0     C31105   0.328   9.759   7.863  0.2873  0.3059  0.4557
  951MOL0     C31106   0.424   9.773   7.967 -1.0946  0.6730  0.2520
  951MOL0     C31107   0.482   9.894   7.989 -1.2167 -0.7279 -0.0999
  951MOL0     O31108   0.563   9.914   8.101  0.5663  0.2574  0.2958
  951MOL0     C31109   0.698   9.944   8.082  0.0894  1.3895 -0.9520
  951MOL0     C31110   0.774   9.947   8.224  0.7732  0.6532  0.1744
  951MOL0     C31111   0.905  10.026   8.226  0.1899 -1.0003  1.1165
  951MOL0     C31112   1.012   9.950   8.157  0.4819 -0.1957  0.1578
  951MOL0     C31113   1.143  10.031   8.164  0.1227  0.1953  0.6942
  951MOL0     C31114   1.233  10.004   8.042  0.2462  0.2320  0.1124
  951MOL0     C31115   1.383  10.036   8.061  0.6880 -0.7798 -0.2537
  951MOL0     C31116   1.434  10.023   8.204 -0.1314  0.6385 -0.3326
  951MOL0     N31117   1.579  10.046   8.200  0.8152 -0.3812 -0.6880
  951MOL0     C31118   1.669   9.944   8.194  0.7264 -0.1845 -1.4167
  951MOL0     C31119   1.790  10.002   8.175  0.3106  0.0997  0.1640
  951MOL0     C31120   1.916   9.930   8.172  0.5065  0.4224  0.0159
  951MOL0     C31121   1.943   9.825   8.292 -0.1554  0.0708  0.1919
  951MOL0     C31122   2.020   9.904   8.404 -0.2192 -0.2767  0.1859
  951MOL0     C31123   2.030   9.834   8.534  0.5799  0.6007  0.2374
  951MOL0     O31124   1.906   9.808   8.601  0.2565  0.5234 -0.3062
  951MOL0     C31125   1.915   9.740   8.714  0.5902  0.8585  0.4442
  951MOL0     C31126   1.806   9.750   8.804 -0.6929  0.3408 -0.1946
  951MOL0     C31127   1.796   9.669   8.922  0.9159  0.1903 -0.3561
  951MOL0     C31128   1.684   9.689   9.026 -0.6149  0.3237 -0.0551
  951MOL0     C31129   1.895   9.576   8.945 -0.3634 -0.1884 -0.1012
  951MOL0     C31130   1.891   9.482   9.063 -0.1649 -0.5951 -0.6979
  951MOL0     O31131   1.897   9.540   9.182 -0.0160 -0.0529 -0.2977
  951MOL0     C31132   1.918   9.462   9.298 -0.1307 -0.6443 -0.6575
  951MOL0     C31133   2.054   9.452   9.335 -0.3589 -0.7535 -0.3225
  951MOL0     C31134   2.096   9.364   9.435 -0.0195 -1.7070  0.4892
  951MOL0     C31135   2.001   9.279   9.492 -0.7168 -0.6380  0.6343
  951MOL0     O31136   2.038   9.176   9.572  1.0189  0.5284 -0.1672
  951MOL0     C31137   2.004   9.054   9.502  0.0972 -0.0227 -0.0569
  951MOL0     C31138   2.075   8.931   9.567  0.0794 -1.4027  0.4205
  951MOL0     C31139   2.228   8.940   9.557  0.5157 -0.2514  0.4957
  951MOL0     C31140   2.298   8.802   9.581 -0.6249  0.3935  0.4187
  951MOL0     C31141   2.448   8.818   9.593 -0.1630  0.4147 -0.4278
  951MOL0     C31142   2.516   8.677   9.592 -0.4838 -0.2442  0.7100
  951MOL0     C31143   2.664   8.688   9.586  0.1567 -0.5760 -0.2776
  951MOL0     C31144   2.730   8.719   9.723 -0.1412 -0.7801  0.2493
  951MOL0    Cl31145   2.755   8.582   9.833 -0.0732  0.1011 -0.1904
  951MOL0     C31146   1.868   9.292   9.458  0.1567 -0.8957 -0.1590
  951MOL0     C31147   1.823   9.378   9.356  0.3866  0.0451 -0.3113
  951MOL0     O31148   1.895   9.362   9.043  0.2084 -0.0787 -0.3713
  951MOL0     C31149   2.001   9.558   8.857 -0.3366  0.1118  0.6412
  951MOL0     C31150   2.011   9.637   8.746 -0.3500 -0.4457  0.8451
  951MOL0     N31151   1.782  10.138   8.174 -0.0969 -0.1511  0.0547
  951MOL0     N31152   1.654  10.163   8.188  0.1161  0.2971 -0.4296
  951MOL0     C31153   0.449  10.007   7.902 -1.3795  0.0650 -0.8846
  951MOL0     C31154   0.352   9.983   7.803 -0.3127 -0.3983 -0.5069
  951MOL0     C31155   0.203   9.755   7.446  0.1445  0.6431  0.2346
  951MOL0     C31156   0.215   9.637   7.376  0.3508  0.0748  0.7531
  951MOL0     C31157   0.140   9.615   7.264  0.1479  0.0470  0.3317
  951MOL0     C31158   0.050   9.705   7.210 -0.7160  0.1294 -0.9535
  951MOL0     O31159  -0.002   9.663   7.089 -0.5168 -1.3708 -0.0272
  951MOL0     C31160  -0.025   9.767   6.982  0.0374 -0.1049 -0.1116
  951MOL0     C31161   0.090   9.746   6.885  0.1037 -1.0642 -0.6554
  951MOL0     C31162   0.067   9.834   6.763 -0.5286  0.3598  0.2664
  951MOL0     C31163   0.043   9.743   6.638 -0.6772 -0.0145 -0.0294
  951MOL0     C31164  -0.077   9.654   6.644 -0.2690 -1.0415  0.3085
  951MOL0     C31165  -0.153   9.564   6.661  0.9961  1.0036  0.2126
  951MOL0     C31166   0.037   9.830   7.276 -0.7234  0.0640  0.0381
  951MOL0     C31167   0.114   9.858   7.389 -0.1345 -0.7177  0.0930
  951MOL0     C31168   0.086   9.999   7.451  0.9119 -0.3381 -0.6771
  951MOL0     H31169   0.281   9.662   7.849  0.2893  0.1781  1.3036
  951MOL0     H31170   0.446   9.692   8.036 -0.8343  1.3254  0.9439
  951MOL0     H31171   0.710  10.038   8.028 -0.1099  0.9716 -1.7307
  951MOL0     H31172   0.748   9.865   8.026 -0.2303 -0.7674  1.5776
  951MOL0     H31173   0.710  10.010   8.287 -0.3356  1.0760 -1.3373
  951MOL0     H31174   0.787   9.845   8.263 -0.5632 -0.2799 -1.6894
  951MOL0     H31175   0.889  10.125   8.183  1.6358 -1.2639 -0.1305
  951MOL0     H31176   0.929  10.045   8.331  0.7349  1.9541  0.5551
  951MOL0     H31177   1.015   9.852   8.205 -1.6837 -0.5549 -0.3421
  951MOL0     H31178   0.987   9.945   8.051  1.6649 -1.1055 -0.1053
  951MOL0     H31179   1.172  10.011   8.268  0.3535 -3.0844  0.0794
  951MOL0     H31180   1.134  10.140   8.157  2.0540  0.4558  1.4141
  951MOL0     H31181   1.225   9.898   8.014  0.5727  0.8526 -2.6150
  951MOL0     H31182   1.197  10.058   7.954 -1.1017  1.1877  1.2092
  951MOL0     H31183   1.414  10.136   8.029 -0.7195 -1.2316 -3.3810
  951MOL0     H31184   1.431   9.971   7.988 -1.8629 -0.4353 -2.3770
  951MOL0     H31185   1.382  10.092   8.271 -1.8430 -1.4914  0.6684
  951MOL0     H31186   1.412   9.920   8.235 -1.2772  0.8366 -0.4559
  951MOL0     H31187   1.644   9.838   8.199  4.6924 -1.2185  2.1911
  951MOL0     H31188   1.994  10.006   8.180  0.1650  0.7016  0.8151
  951MOL0     H31189   1.940   9.883   8.076  1.9369  2.1707 -0.5385
  951MOL0     H31190   1.849   9.787   8.333 -1.8586  0.4364 -3.0435
  951MOL0     H31191   1.987   9.737   8.243 -3.2002 -0.6368 -1.4726
  951MOL0     H31192   2.121   9.929   8.371 -0.9495  2.0325 -0.5085
  951MOL0     H31193   1.978  10.001   8.435 -2.2116 -0.6571 -1.1108
  951MOL0     H31194   2.073   9.738   8.503 -3.1994 -0.9041 -0.9546
  951MOL0     H31195   2.097   9.891   8.599  3.1910 -0.7146 -1.1267
  951MOL0     H31196   1.728   9.822   8.783 -2.8640 -1.7489  0.2274
  951MOL0     H31197   1.629   9.783   9.014  1.0139  1.1988 -1.1754
  951MOL0     H31198   1.719   9.690   9.130 -1.3189 -3.7273  0.3563
  951MOL0     H31199   1.623   9.599   9.024 -1.2107  0.7284 -1.0522
  951MOL0     H31200   2.128   9.500   9.272 -0.9341 -0.7654 -1.0207
  951MOL0     H31201   2.200   9.336   9.446 -0.1353 -1.2406  3.5497
  951MOL0     H31202   1.898   9.031   9.517  0.7105 -0.6920  4.7988
  951MOL0     H31203   2.035   9.056   9.397  1.3888 -1.5917  0.2455
  951MOL0     H31204   2.055   8.922   9.674  1.3178  0.2967  0.8245
  951MOL0     H31205   2.038   8.840   9.517  0.0202 -0.2996 -1.6630
  951MOL0     H31206   2.262   9.013   9.631  0.3960 -0.4198  0.7190
  951MOL0     H31207   2.261   8.990   9.465  0.2509  1.8475  1.4789
  951MOL0     H31208   2.281   8.745   9.489 -1.0490 -2.2403  2.0660
  951MOL0     H31209   2.247   8.757   9.666 -0.5278  0.3673  0.4647
  951MOL0     H31210   2.483   8.890   9.518 -0.9855  3.0326  1.5105
  951MOL0     H31211   2.458   8.858   9.695 -0.2169 -0.3002 -0.1395
  951MOL0     H31212   2.468   8.629   9.506  1.5530 -1.5379  0.2234
  951MOL0     H31213   2.486   8.604   9.668 -2.6312 -2.2508 -1.8272
  951MOL0     H31214   2.694   8.752   9.502  1.7212 -1.6160 -0.5690
  951MOL0     H31215   2.708   8.590   9.566  0.4217 -0.0583 -2.5798
  951MOL0     H31216   2.677   8.798   9.777  1.7509  0.1104  0.8898
  951MOL0     H31217   2.830   8.759   9.702 -0.5837  0.3135  0.1713
  951MOL0     H31218   1.799   9.216   9.494  1.4284 -1.7150  0.5911
  951MOL0     H31219   1.725   9.359   9.313  0.4304  1.2041 -0.9670
  951MOL0     H31220   2.065   9.473   8.880 -1.4640 -0.4951  1.6821
  951MOL0     H31221   2.094   9.613   8.681 -1.7642 -1.2235 -0.7524
  951MOL0     H31222   0.480  10.110   7.914  1.2810 -0.5018 -2.0942
  951MOL0     H31223   0.334  10.066   7.734 -0.6406 -0.1642 -0.1424
  951MOL0     H31224   0.265   9.548   7.412 -1.9277 -0.9150  1.6826
  951MOL0     H31225   0.160   9.525   7.206  1.4717  1.7037 -1.9419
  951MOL0     H31226  -0.115   9.732   6.929 -0.0564 -2.3716  1.4078
  951MOL0     H31227  -0.026   9.869   7.021 -0.1509 -0.4976  0.9210
  951MOL0     H31228   0.096   9.641   6.854  2.0995 -1.0625 -0.3972
  951MOL0     H31229   0.186   9.758   6.935  0.2559 -0.1399 -1.1679
  951MOL0     H31230  -0.014   9.907   6.768  0.9590  1.9858  1.5009
  951MOL0     H31231   0.156   9.890   6.734  0.4241 -0.7753  0.8870
  951MOL0     H31232   0.123   9.669   6.634 -1.4098 -0.8703 -4.2589
  951MOL0     H31233   0.045   9.796   6.542  2.0129 -2.3803 -1.4177
  951MOL0     H31234  -0.225   9.493   6.696  2.3315 -0.3734  0.2075
  951MOL0     H31235  -0.034   9.905   7.242 -0.5352  0.9395  1.5163
  951MOL0     H31236   0.003   9.980   7.521  1.6607  0.5908  0.5081
  951MOL0     H31237   0.171  10.035   7.509 -1.2252  1.4897  1.5479
  951MOL0     H31238   0.053  10.072   7.376 -0.8499  1.3832  1.5980
  952MOL0     O31239   6.897   3.308   0.624 -0.6998 -0.2382  0.5546
  952MOL0     C31240   6.974   3.328   0.533 -0.0740  0.1368 -0.7076
  952MOL0     O31241   7.100   3.282   0.530 -0.4590  0.3347  0.5258
  952MOL0     C31242   7.143   3.181   0.608 -0.4555  0.2154  0.4360
  952MOL0     C31243   7.075   3.060   0.607 -0.1868  0.9208 -0.0240
  952MOL0     C31244   7.153   2.944   0.654  0.4526  0.0718 -0.8171
  952MOL0     C31245   7.280   2.952   0.712  0.2396 -0.0565 -0.9276
  952MOL0     O31246   7.324   2.861   0.804 -0.0962  0.4984 -0.6533
  952MOL0     C31247   7.279   2.722   0.807 -0.0231 -0.3970 -0.2216
  952MOL0     C31248   7.312   2.644   0.677  0.2466  0.4821 -0.7373
  952MOL0     C31249   7.461   2.616   0.662  0.2520  0.6734  0.3453
  952MOL0     C31250   7.523   2.513   0.750 -0.0947  0.1432 -0.2581
  952MOL0     C31251   7.680   2.520   0.755  0.6863 -0.0069 -0.1728
  952MOL0     C31252   7.748   2.641   0.811 -0.4843 -0.3050 -0.9435
  952MOL0     C31253   7.908   2.624   0.819  0.2673 -0.5702 -0.4569
  952MOL0     C31254   7.973   2.754   0.881  0.0537  0.2181  0.1871
  952MOL0     N31255   8.120   2.733   0.868 -0.9551  0.8477  0.6705
  952MOL0     C31256   8.199   2.790   0.770  0.4680 -0.3628  0.4425
  952MOL0     C31257   8.315   2.726   0.773  0.8627 -0.3440  0.8435
  952MOL0     C31258   8.441   2.758   0.685 -0.0031 -0.5219 -0.4658
  952MOL0     C31259   8.573   2.774   0.771  1.0855  1.0386 -0.3404
  952MOL0     C31260   8.683   2.803   0.673 -0.8909  0.5732  0.0203
  952MOL0     C31261   8.825   2.800   0.730  0.9254 -0.0400  0.7416
  952MOL0     O31262   8.828   2.844   0.865 -0.0251  0.1042 -0.4121
  952MOL0     C31263   8.957   2.865   0.906  0.4079 -0.1935  0.0902
  952MOL0     C31264   9.074   2.802   0.859  0.3781 -0.5132 -0.0501
  952MOL0     C31265   9.199   2.821   0.908  0.6862 -0.4104  0.2682
  952MOL0     C31266   9.309   2.738   0.854  0.1793  0.1444  0.2264
  952MOL0     C31267   9.223   2.915   1.013  0.4013 -0.6897  0.0698
  952MOL0     C31268   9.348   2.941   1.076 -0.1022 -0.2743 -0.0694
  952MOL0     O31269   9.384   3.073   1.102 -0.3833  0.5302 -1.4137
  952MOL0     C31270   9.519   3.086   1.141  0.2412 -0.1948 -0.1760
  952MOL0     C31271   9.571   3.020   1.255  0.1911 -0.5396  0.7277
  952MOL0     C31272   9.690   3.052   1.312 -0.0026 -0.9380  0.2404
  952MOL0     C31273   9.758   3.166   1.259  0.0605  0.1659 -0.3907
  952MOL0     O31274   9.878   3.209   1.324 -0.0160 -0.0974 -0.3993
  952MOL0     C31275   9.884   3.214   1.461 -0.5114  0.1810 -0.6884
  952MOL0     C31276  10.016   3.280   1.513  0.5567 -0.3623 -0.3212
  952MOL0     C31277  10.015   3.436   1.511  0.3448  1.1186 -0.1304
  952MOL0     C31278  10.148   3.489   1.575 -0.4111  0.4805 -0.1518
  952MOL0     C31279  10.161   3.637   1.561 -0.3979 -0.1510 -0.2121
  952MOL0     C31280  10.204   3.698   1.698  0.9328  0.9198 -0.3145
  952MOL0     C31281  10.347   3.643   1.746  0.1188 -0.2800  0.0173
  952MOL0     C31282  10.446   3.741   1.679 -0.4639 -0.7034 -0.0668
  952MOL0    Cl31283  10.441   3.918   1.735  0.4133 -0.0910  0.1471
  952MOL0     C31284   9.713   3.237   1.144 -1.1024 -0.1462 -0.4034
  952MOL0     C31285   9.590   3.191   1.080 -0.1407 -1.0731  0.1243
  952MOL0     O31286   9.417   2.844   1.102 -0.3977  0.4560 -1.0998
  952MOL0     C31287   9.103   2.983   1.064  0.6996  0.8050 -0.3489
  952MOL0     C31288   8.975   2.955   1.007 -1.3014  0.5718 -0.8323
  952MOL0     N31289   8.311   2.644   0.885 -0.4844 -0.3758  0.3463
  952MOL0     N31290   8.198   2.648   0.939 -0.1783  0.2526  0.0061
  952MOL0     C31291   7.339   3.076   0.704 -0.3163 -0.5541 -0.1545
  952MOL0     C31292   7.277   3.191   0.648  0.1695  0.3625 -0.6127
  952MOL0     C31293   6.947   3.420   0.430  0.4545 -0.9318  0.1837
  952MOL0     C31294   7.044   3.523   0.421 -0.4947 -0.4086  0.3336
  952MOL0     C31295   7.018   3.633   0.342 -0.1877  0.2208 -0.2792
  952MOL0     C31296   6.901   3.638   0.263  0.0978  0.1994  0.0075
  952MOL0     O31297   6.870   3.745   0.182 -0.1536  0.2313  0.6428
  952MOL0     C31298   6.739   3.798   0.189 -0.2169  1.0464 -0.5552
  952MOL0     C31299   6.715   3.831   0.348  0.0730 -0.6262  0.2500
  952MOL0     C31300   6.598   3.927   0.361  0.8861 -0.2291 -0.2060
  952MOL0     C31301   6.599   3.987   0.503 -0.3159  0.9191  1.1887
  952MOL0     C31302   6.464   4.013   0.556  0.2727 -0.4844  0.6954
  952MOL0     C31303   6.359   4.044   0.611 -0.1744  0.0028  0.2438
  952MOL0     C31304   6.814   3.530   0.263  1.0546  0.5894  0.2562
  952MOL0     C31305   6.833   3.419   0.341 -1.2191 -0.3916  0.1336
  952MOL0     C31306   6.722   3.327   0.349  0.6406 -0.1927 -0.2171
  952MOL0     H31307   6.971   3.052   0.577  0.3458 -2.0041 -1.5019
  952MOL0     H31308   7.108   2.845   0.653 -0.4251  0.4406  0.5001
  952MOL0     H31309   7.170   2.729   0.814 -0.1618 -1.6216 -0.8403
  952MOL0     H31310   7.309   2.658   0.890 -1.7016 -0.0456  0.7013
  952MOL0     H31311   7.265   2.545   0.681  3.6070 -1.2467  0.8070
  952MOL0     H31312   7.274   2.704   0.594 -0.8349 -0.3696 -0.8893
  952MOL0     H31313   7.483   2.580   0.561  3.7817  0.5448  1.0410
  952MOL0     H31314   7.514   2.712   0.664  1.0597  0.2386  0.1029
  952MOL0     H31315   7.488   2.534   0.851 -0.7589 -0.6314 -0.3196
  952MOL0     H31316   7.491   2.412   0.720 -2.1989  0.7733 -0.2987
  952MOL0     H31317   7.723   2.497   0.657  0.8440 -3.5747  0.5764
  952MOL0     H31318   7.717   2.432   0.809  1.6223  0.1439 -0.5411
  952MOL0     H31319   7.724   2.734   0.759 -1.4355  0.3428  0.5665
  952MOL0     H31320   7.703   2.663   0.908  1.7480  0.8011 -0.0867
  952MOL0     H31321   7.942   2.618   0.715  1.4494 -1.1215 -0.0516
  952MOL0     H31322   7.939   2.537   0.878  2.0132 -1.4502 -2.5356
  952MOL0     H31323   7.941   2.841   0.823  0.0359 -1.3931 -2.3686
  952MOL0     H31324   7.952   2.765   0.988  0.9779  2.0066  0.2198
  952MOL0     H31325   8.170   2.867   0.699  2.3398  1.3738  1.4418
  952MOL0     H31326   8.423   2.843   0.619 -2.7121  0.1603  1.0129
  952MOL0     H31327   8.452   2.669   0.623 -1.1807  0.1736 -1.7305
  952MOL0     H31328   8.553   2.857   0.839 -0.2885 -0.3757  1.0563
  952MOL0     H31329   8.587   2.681   0.826  0.3299 -0.5294 -2.6415
  952MOL0     H31330   8.675   2.738   0.585 -1.3595  0.6376  0.0136
  952MOL0     H31331   8.661   2.906   0.646 -1.7385  0.1886 -0.8327
  952MOL0     H31332   8.844   2.692   0.728 -2.5600 -0.7835  0.6100
  952MOL0     H31333   8.898   2.860   0.675  0.3181  0.2318  0.2117
  952MOL0     H31334   9.075   2.734   0.774  1.7029  1.1647 -1.4702
  952MOL0     H31335   9.275   2.685   0.765 -0.8362 -0.5496  1.0001
  952MOL0     H31336   9.329   2.664   0.933  1.5219 -0.0091 -0.2366
  952MOL0     H31337   9.399   2.794   0.827 -0.6108  2.2353  1.7221
  952MOL0     H31338   9.512   2.947   1.309  1.4244  0.4370  3.5679
  952MOL0     H31339   9.721   2.984   1.391  1.3716 -0.6407 -0.0274
  952MOL0     H31340   9.795   3.257   1.507 -0.1756  1.2753 -1.0336
  952MOL0     H31341   9.882   3.108   1.487 -0.5258 -0.4248 -2.9178
  952MOL0     H31342  10.018   3.249   1.618 -2.0171  0.1943 -0.0501
  952MOL0     H31343  10.101   3.239   1.458  0.4048  0.7729 -1.4463
  952MOL0     H31344   9.928   3.479   1.561 -2.2041 -1.8180 -1.6499
  952MOL0     H31345  10.005   3.466   1.406  0.7244  0.3500 -0.3944
  952MOL0     H31346  10.230   3.433   1.528 -0.5032  1.5714 -1.7247
  952MOL0     H31347  10.142   3.466   1.681  1.0032 -0.2579 -0.2047
  952MOL0     H31348  10.229   3.669   1.481 -0.2624 -1.5238 -0.6889
  952MOL0     H31349  10.061   3.676   1.539  0.4674  0.2393 -4.1820
  952MOL0     H31350  10.127   3.666   1.769  0.5359  2.1368 -0.1760
  952MOL0     H31351  10.201   3.806   1.685 -2.0627  1.3209  2.4947
  952MOL0     H31352  10.372   3.543   1.709 -1.4882 -0.3044 -1.1111
  952MOL0     H31353  10.355   3.648   1.855  1.6653 -1.0768 -0.0216
  952MOL0     H31354  10.422   3.745   1.572 -2.1709 -0.1143  0.3153
  952MOL0     H31355  10.546   3.698   1.693 -0.7614 -0.9804  1.3740
  952MOL0     H31356   9.765   3.327   1.110  0.5765 -1.3394 -1.1053
  952MOL0     H31357   9.534   3.238   0.999 -1.6592 -2.4249  0.3470
  952MOL0     H31358   9.110   3.055   1.145  0.7792 -0.3970  0.7665
  952MOL0     H31359   8.890   3.003   1.055 -0.4105 -0.2604  1.7971
  952MOL0     H31360   7.441   3.082   0.738 -0.9871  0.1274  1.8784
  952MOL0     H31361   7.311   3.293   0.644 -0.6506  0.7656  1.6573
  952MOL0     H31362   7.136   3.512   0.478 -2.2302 -5.4146  2.8082
  952MOL0     H31363   7.092   3.712   0.345  1.5421 -1.3472  0.4236
  952MOL0     H31364   6.744   3.887   0.126 -0.0467  2.2051  1.0295
  952MOL0     H31365   6.650   3.751   0.147 -1.1737  2.3436 -0.0393
  952MOL0     H31366   6.806   3.881   0.383 -0.2410  0.5561 -0.5716
  952MOL0     H31367   6.698   3.739   0.404  1.0055 -2.1054 -1.7589
  952MOL0     H31368   6.588   4.011   0.292 -3.0964 -0.5146 -0.1824
  952MOL0     H31369   6.509   3.869   0.336  2.4668 -2.1633 -1.6209
  952MOL0     H31370   6.662   4.076   0.493  0.4394  0.1657 -1.9696
  952MOL0     H31371   6.650   3.931   0.582 -2.1544 -0.3782  1.5263
  952MOL0     H31372   6.272   4.068   0.668 -0.1870  0.2420  0.1241
  952MOL0     H31373   6.726   3.537   0.199 -0.0076  2.9660  1.8354
  952MOL0     H31374   6.724   3.251   0.270  0.6894  1.4947 -1.9266
  952MOL0     H31375   6.721   3.285   0.450 -0.1794  1.2389  0.3924
  952MOL0     H31376   6.627   3.379   0.337 -0.0127 -0.1138  3.8249
  953MOL0     O31377  10.718   8.891   1.079  0.1055 -0.4763 -0.6520
  953MOL0     C31378  10.712   8.810   1.170  0.0646 -0.2499  0.1210
  953MOL0     O31379  10.812   8.794   1.272 -0.0404  0.5469  0.2514
  953MOL0     C31380  10.939   8.842   1.259  0.4941  0.3017 -0.2850
  953MOL0     C31381  10.978   8.964   1.303  0.8199  0.5985 -0.3012
  953MOL0     C31382  11.106   9.004   1.303 -0.2270 -0.8445  0.3177
  953MOL0     C31383  11.209   8.923   1.252  0.0522 -0.2848  0.2498
  953MOL0     O31384  11.336   8.961   1.260  0.8090 -0.1908 -1.1564
  953MOL0     C31385  11.436   8.894   1.178  0.5486 -0.2494  0.0796
  953MOL0     C31386  11.565   8.977   1.190 -0.3751  1.2177  0.1751
  953MOL0     C31387  11.552   9.107   1.120  0.0866  0.2838  0.0162
  953MOL0     C31388  11.684   9.188   1.154  0.7151 -0.3690  1.2488
  953MOL0     C31389  11.667   9.335   1.112  0.1244  0.1114 -0.8508
  953MOL0     C31390  11.797   9.407   1.128 -0.4710 -0.1337 -0.2523
  953MOL0     C31391  11.785   9.556   1.085  0.0575  0.4124  0.0774
  953MOL0     C31392  11.716   9.639   1.192 -0.3857  0.3726  0.7831
  953MOL0     N31393  11.730   9.787   1.162  0.1292  0.4746  0.2988
  953MOL0     C31394  11.635   9.883   1.123  1.0259  0.8171 -0.3816
  953MOL0     C31395  11.702  10.003   1.114 -0.3581  0.6061  0.3917
  953MOL0     C31396  11.660  10.135   1.071 -0.0794 -0.2723 -0.7411
  953MOL0     C31397  11.595  10.144   0.933  0.3708 -0.4179  0.2745
  953MOL0     C31398  11.554  10.290   0.892  0.2196 -0.0722 -0.2233
  953MOL0     C31399  11.497  10.297   0.749  0.3176 -0.1287 -0.4682
  953MOL0     O31400  11.353  10.273   0.740 -1.0330  0.0638 -0.2507
  953MOL0     C31401  11.268  10.379   0.758  1.0424 -0.9649  0.1029
  953MOL0     C31402  11.293  10.498   0.834 -0.2347  0.1107  0.0815
  953MOL0     C31403  11.190  10.585   0.880 -0.0659 -0.9587  0.1890
  953MOL0     C31404  11.230  10.700   0.977 -0.5533  0.3324  0.4498
  953MOL0     C31405  11.063  10.569   0.831  0.3503 -0.2205 -0.5346
  953MOL0     C31406  10.955  10.666   0.856 -0.0116  0.3972 -0.1819
  953MOL0     O31407  10.821  10.608   0.864 -0.6393 -0.1520 -0.4373
  953MOL0     C31408  10.711  10.681   0.889  0.2381  0.2414  0.6031
  953MOL0     C31409  10.688  10.792   0.969 -0.0461  0.8798  0.1313
  953MOL0     C31410  10.565  10.863   0.973  0.0385 -0.9230  0.8564
  953MOL0     C31411  10.447  10.811   0.913 -1.1777  0.6959  0.3044
  953MOL0     O31412  10.331  10.882   0.919  0.4186 -0.3308 -0.5837
  953MOL0     C31413  10.206  10.845   0.858 -0.6014  0.0650  0.0388
  953MOL0     C31414  10.104  10.924   0.933 -0.2170  0.1525 -0.5720
  953MOL0     C31415   9.961  10.914   0.892  0.7583  0.6301 -0.3997
  953MOL0     C31416   9.861  11.007   0.972 -0.3010  0.5021  0.9602
  953MOL0     C31417   9.715  10.956   0.938  0.7601 -0.1990  0.4137
  953MOL0     C31418   9.613  11.036   1.027 -0.5527 -0.0831  0.7940
  953MOL0     C31419   9.468  11.008   1.005 -0.4548  0.3942  0.2696
  953MOL0     C31420   9.380  11.137   1.044  0.4233  0.2932  0.0056
  953MOL0    Cl31421   9.400  11.205   1.203 -0.1143  0.1111 -0.0783
  953MOL0     C31422  10.464  10.688   0.839  0.2283 -0.2447  0.5479
  953MOL0     C31423  10.593  10.631   0.827 -0.6146 -0.3023 -0.4959
  953MOL0     O31424  10.982  10.785   0.854  0.5073 -1.1035  0.2393
  953MOL0     C31425  11.034  10.457   0.747 -0.3932  0.8067 -0.9052
  953MOL0     C31426  11.132  10.362   0.726  0.0035  0.2458  0.2816
  953MOL0     N31427  11.830   9.974   1.151 -0.0648  0.2539 -0.4673
  953MOL0     N31428  11.846   9.849   1.169 -0.6510  0.6001  0.3585
  953MOL0     C31429  11.169   8.791   1.209 -0.4479 -0.1983  0.7371
  953MOL0     C31430  11.033   8.758   1.208 -0.1605 -1.8029 -0.4237
  953MOL0     C31431  10.589   8.714   1.169 -0.8478 -0.1022 -0.7730
  953MOL0     C31432  10.599   8.596   1.246 -0.3150  0.5914 -0.1231
  953MOL0     C31433  10.496   8.506   1.272 -0.0620  0.0438 -0.0750
  953MOL0     C31434  10.381   8.537   1.206 -0.2667  0.2730 -0.3935
  953MOL0     O31435  10.276   8.448   1.231 -0.5449 -0.1377  0.5712
  953MOL0     C31436  10.193   8.415   1.122 -0.0376 -0.0436  0.7430
  953MOL0     C31437  10.216   8.271   1.083  0.2175 -0.0273 -0.9170
  953MOL0     C31438  10.135   8.237   0.959 -0.6892 -0.0490 -0.2311
  953MOL0     C31439   9.985   8.224   0.960  0.4112 -0.4099 -0.2263
  953MOL0     C31440   9.929   8.134   1.063  0.0058 -0.2987  0.0841
  953MOL0     C31441   9.898   8.052   1.150 -0.3108 -0.4234 -0.7538
  953MOL0     C31442  10.367   8.649   1.121  0.4207  0.2609 -0.7878
  953MOL0     C31443  10.464   8.746   1.099 -1.0438  0.6294  0.7476
  953MOL0     C31444  10.442   8.865   1.017 -0.0681  0.1023  0.0245
  953MOL0     H31445  10.900   9.026   1.348 -0.8919 -2.4471  1.2157
  953MOL0     H31446  11.139   9.100   1.342 -2.5143  0.1569 -0.0194
  953MOL0     H31447  11.412   8.907   1.072  3.6737  0.4697 -0.6642
  953MOL0     H31448  11.452   8.787   1.191 -1.7287 -0.8855 -1.7406
  953MOL0     H31449  11.581   8.996   1.297 -0.1258  0.9116  0.1950
  953MOL0     H31450  11.652   8.920   1.155  0.2889 -0.1353  3.5907
  953MOL0     H31451  11.544   9.097   1.011 -2.2970 -0.9629  0.2470
  953MOL0     H31452  11.462   9.162   1.150  0.7505  0.8277  1.0938
  953MOL0     H31453  11.709   9.187   1.261 -0.4357  0.0472  1.5346
  953MOL0     H31454  11.767   9.158   1.090  1.1042  0.7308  1.2188
  953MOL0     H31455  11.594   9.385   1.176  1.3220  0.0320  0.6182
  953MOL0     H31456  11.639   9.325   1.006  1.5530 -2.1533 -1.0896
  953MOL0     H31457  11.834   9.395   1.231  0.3557  0.5894 -0.4559
  953MOL0     H31458  11.868   9.367   1.055 -2.1568 -1.0424 -1.4623
  953MOL0     H31459  11.724   9.549   0.995 -0.5948  0.8801  0.4707
  953MOL0     H31460  11.887   9.591   1.066  1.0501 -1.0798  2.2288
  953MOL0     H31461  11.608   9.621   1.189  0.1011 -3.1476 -0.1394
  953MOL0     H31462  11.742   9.611   1.295 -1.2481 -0.4436  0.7929
  953MOL0     H31463  11.527   9.879   1.109  0.6902  2.1904  1.4283
  953MOL0     H31464  11.736  10.212   1.091 -1.3240  0.1451  3.1505
  953MOL0     H31465  11.578  10.159   1.139  0.6280 -1.0148  0.4268
  953MOL0     H31466  11.675  10.121   0.863 -0.2402 -0.7904 -0.3156
  953MOL0     H31467  11.507  10.080   0.920 -0.2065  0.4623 -0.3076
  953MOL0     H31468  11.485  10.329   0.967 -0.5128  1.3492 -1.5648
  953MOL0     H31469  11.646  10.349   0.882  0.5302 -0.6620 -0.9098
  953MOL0     H31470  11.522  10.393   0.704 -1.6819  1.7088  1.9871
  953MOL0     H31471  11.545  10.215   0.696  2.3454  0.1732  0.8004
  953MOL0     H31472  11.398  10.511   0.856  0.3114 -3.6946  0.3924
  953MOL0     H31473  11.236  10.794   0.921 -1.3599 -0.4490 -1.0102
  953MOL0     H31474  11.335  10.684   1.003 -0.6183  0.6399  0.9211
  953MOL0     H31475  11.173  10.720   1.068  0.1024  3.2112  0.3449
  953MOL0     H31476  10.775  10.836   1.016  1.1104  0.4422 -1.4864
  953MOL0     H31477  10.552  10.958   1.025  2.4736 -0.9453  1.6547
  953MOL0     H31478  10.207  10.862   0.750  1.2909 -3.4404 -0.6599
  953MOL0     H31479  10.186  10.739   0.869 -1.5052  0.3037  0.8247
  953MOL0     H31480  10.115  10.888   1.036  0.0855  1.1964 -0.2289
  953MOL0     H31481  10.132  11.029   0.940  1.4727 -0.2701 -0.7149
  953MOL0     H31482   9.926  10.815   0.921  0.9139  0.0721 -2.0310
  953MOL0     H31483   9.962  10.941   0.786  2.2772  2.4098  0.0002
  953MOL0     H31484   9.872  11.110   0.937  0.2381 -0.2364 -1.2381
  953MOL0     H31485   9.872  10.997   1.080 -1.5441 -0.4569  1.0133
  953MOL0     H31486   9.702  10.989   0.834  1.1419 -0.4439  0.2852
  953MOL0     H31487   9.702  10.849   0.922 -2.6741  0.2716 -0.7330
  953MOL0     H31488   9.636  11.143   1.026  1.2026 -0.1307  6.0074
  953MOL0     H31489   9.638  11.007   1.130  0.3799  1.2483  0.9613
  953MOL0     H31490   9.439  10.921   1.064  2.1837 -1.6728 -1.2206
  953MOL0     H31491   9.447  10.980   0.901  0.8782  1.6198 -0.3617
  953MOL0     H31492   9.272  11.122   1.032  0.7477 -0.8755 -1.7958
  953MOL0     H31493   9.419  11.205   0.967  3.6873 -1.1727  0.2115
  953MOL0     H31494  10.386  10.636   0.785  0.4965 -0.5721  0.4681
  953MOL0     H31495  10.597  10.537   0.773  1.8960 -1.2952  1.2464
  953MOL0     H31496  10.934  10.431   0.714 -0.9003  0.2139  0.9904
  953MOL0     H31497  11.109  10.276   0.663  1.4174  1.1020 -1.5177
  953MOL0     H31498  11.237   8.720   1.163  0.5161  1.6970 -0.9158
  953MOL0     H31499  11.004   8.659   1.176 -1.4789 -1.2443 -1.0281
  953MOL0     H31500  10.692   8.587   1.301  0.5801  3.0611 -1.0742
  953MOL0     H31501  10.497   8.425   1.344  2.1807  1.0666  1.1374
  953MOL0     H31502  10.086   8.427   1.145 -0.1139  3.2459 -0.7131
  953MOL0     H31503  10.207   8.466   1.026  0.2292 -4.6196 -1.9193
  953MOL0     H31504  10.188   8.194   1.155 -0.4887  0.7335 -0.3460
  953MOL0     H31505  10.325   8.260   1.079  0.5270  0.2231  2.8781
  953MOL0     H31506  10.169   8.296   0.873  1.7927 -1.9815 -0.6892
  953MOL0     H31507  10.177   8.140   0.933  1.4333  0.2584  1.7133
  953MOL0     H31508   9.960   8.186   0.861  1.7315 -3.4012  0.4885
  953MOL0     H31509   9.943   8.321   0.991  1.6593 -0.3650  1.5297
  953MOL0     H31510   9.868   7.981   1.224 -1.9652 -1.2922 -2.1863
  953MOL0     H31511  10.270   8.666   1.075 -0.0427 -0.1311  0.0415
  953MOL0     H31512  10.443   8.954   1.080 -0.3976  0.5138 -0.5430
  953MOL0     H31513  10.526   8.876   0.947 -0.8110 -2.8404 -1.4817
  953MOL0     H31514  10.346   8.861   0.966 -0.4290 -2.0470  0.7799
  954MOL0     O31515   2.034   6.716   8.543  0.0005 -0.2914  0.2888
  954MOL0     C31516   2.081   6.702   8.428 -0.0020  0.0437  0.5665
  954MOL0     O31517   2.049   6.598   8.335  0.8585 -0.1261  0.1042
  954MOL0     C31518   1.949   6.511   8.370 -0.0567 -0.1602 -0.0739
  954MOL0     C31519   1.965   6.410   8.458 -0.1059 -0.0873  0.1294
  954MOL0     C31520   1.857   6.338   8.503  0.4367  1.1539 -0.6553
  954MOL0     C31521   1.730   6.371   8.461  0.1670 -0.0118 -0.4845
  954MOL0     O31522   1.623   6.315   8.512  0.2596 -0.1375  0.6785
  954MOL0     C31523   1.563   6.368   8.635  0.4338 -0.5590 -0.1174
  954MOL0     C31524   1.478   6.265   8.705  0.4855  0.2886 -0.2649
  954MOL0     C31525   1.425   6.296   8.847  0.5526  0.6340 -0.6779
  954MOL0     C31526   1.340   6.191   8.907  0.0146  0.1816  0.3285
  954MOL0     C31527   1.408   6.053   8.928 -0.5995 -0.2432 -0.8338
  954MOL0     C31528   1.308   5.958   8.987 -0.0637  0.9962 -0.3328
  954MOL0     C31529   1.234   5.983   9.120 -0.9508 -0.7048 -0.2978
  954MOL0     C31530   1.325   6.023   9.237  0.1463 -0.4335 -0.3123
  954MOL0     N31531   1.372   5.911   9.312 -0.4074 -0.8311  0.5899
  954MOL0     C31532   1.498   5.870   9.328 -0.0119  1.0158 -0.3234
  954MOL0     C31533   1.478   5.744   9.378 -1.1620 -0.2617  0.8462
  954MOL0     C31534   1.585   5.649   9.421  0.5316 -0.5088 -0.3560
  954MOL0     C31535   1.667   5.722   9.529 -0.6612 -0.1887  0.0157
  954MOL0     C31536   1.807   5.663   9.567 -1.3936 -0.2315 -0.3686
  954MOL0     C31537   1.908   5.778   9.611  0.2663  0.3857  0.4052
  954MOL0     O31538   2.034   5.722   9.639 -0.1600  0.8699  0.0034
  954MOL0     C31539   2.139   5.743   9.551  0.1194  1.0336  0.1922
  954MOL0     C31540   2.247   5.658   9.564  0.2868  0.6148  0.1479
  954MOL0     C31541   2.364   5.670   9.505  0.2740  1.0458  0.5465
  954MOL0     C31542   2.461   5.556   9.538  0.1467 -0.9297  1.0259
  954MOL0     C31543   2.381   5.775   9.408  0.3957 -0.4627 -0.0137
  954MOL0     C31544   2.498   5.788   9.327 -0.3391 -0.0899 -0.0584
  954MOL0     O31545   2.492   5.832   9.201  0.7098 -0.0831 -0.1608
  954MOL0     C31546   2.608   5.825   9.120  0.4042  0.0148  0.2108
  954MOL0     C31547   2.617   5.922   9.020 -0.6603 -0.4464  0.3505
  954MOL0     C31548   2.720   5.926   8.925 -0.0479 -1.0503  0.4911
  954MOL0     C31549   2.826   5.836   8.931 -0.0097 -0.5589 -0.0804
  954MOL0     O31550   2.931   5.842   8.840  0.3681 -0.1612 -0.7380
  954MOL0     C31551   2.946   5.959   8.761  0.5062  0.9454 -0.0915
  954MOL0     C31552   3.088   5.961   8.700 -0.7562  0.1448  0.6580
  954MOL0     C31553   3.102   6.102   8.629  0.0511 -0.3103 -0.2008
  954MOL0     C31554   3.090   6.096   8.477 -0.5214 -0.4803 -0.2064
  954MOL0     C31555   3.215   6.057   8.408  0.5743  0.0344 -0.0162
  954MOL0     C31556   3.207   6.051   8.252 -0.2366  0.4474 -0.3606
  954MOL0     C31557   3.343   6.014   8.188 -0.5572 -0.1274  0.2892
  954MOL0     C31558   3.339   5.994   8.035  0.1439  0.2316  1.1479
  954MOL0    Cl31559   3.495   5.929   7.976 -0.4409 -0.0401 -0.0678
  954MOL0     C31560   2.821   5.733   9.028 -0.5134 -0.5727  1.1800
  954MOL0     C31561   2.715   5.729   9.126  0.8685 -0.1852 -1.0836
  954MOL0     O31562   2.605   5.778   9.392  0.6157 -0.1108  0.9225
  954MOL0     C31563   2.269   5.860   9.388 -0.5184 -0.4706  0.1756
  954MOL0     C31564   2.156   5.847   9.459  0.0999  0.4754  0.1056
  954MOL0     N31565   1.349   5.719   9.400  0.1530 -0.2809  0.6363
  954MOL0     N31566   1.284   5.818   9.359  0.3924 -0.2159  0.1880
  954MOL0     C31567   1.705   6.478   8.380  0.2030 -0.3796 -0.4617
  954MOL0     C31568   1.819   6.554   8.341  0.6250  1.0168 -0.3536
  954MOL0     C31569   2.181   6.806   8.389 -0.3784  0.0496  1.2583
  954MOL0     C31570   2.185   6.921   8.466 -0.0430 -0.8944  0.4934
  954MOL0     C31571   2.271   7.025   8.422  0.2063  0.1860  0.6932
  954MOL0     C31572   2.351   7.011   8.311 -0.6540  0.7154  0.2774
  954MOL0     O31573   2.436   7.122   8.288  0.2808  0.3708  0.0423
  954MOL0     C31574   2.567   7.107   8.217 -0.2262  0.4726 -0.1767
  954MOL0     C31575   2.647   7.009   8.291 -0.2445  0.7188 -0.0835
  954MOL0     C31576   2.802   7.023   8.259  0.3211 -0.7343  0.2232
  954MOL0     C31577   2.883   6.914   8.333 -0.2864 -0.2011  0.0291
  954MOL0     C31578   2.890   6.929   8.482 -0.1003 -0.0971  0.6492
  954MOL0     C31579   2.899   6.958   8.599 -0.5005  0.1781 -0.4064
  954MOL0     C31580   2.342   6.897   8.235  0.3444 -0.5338  0.2634
  954MOL0     C31581   2.262   6.787   8.273 -0.3714  0.0543 -0.3424
  954MOL0     C31582   2.273   6.660   8.190  0.1399 -0.3142  0.3043
  954MOL0     H31583   2.062   6.396   8.503 -0.3609 -1.7954  0.2307
  954MOL0     H31584   1.866   6.285   8.597  1.3860 -0.1855 -1.4666
  954MOL0     H31585   1.490   6.445   8.609  1.3861  1.7752  3.2920
  954MOL0     H31586   1.641   6.409   8.700  0.3340  1.4576 -1.1950
  954MOL0     H31587   1.393   6.243   8.639 -0.7305  1.9895  0.6587
  954MOL0     H31588   1.535   6.171   8.711  1.0910  0.4400 -2.5863
  954MOL0     H31589   1.511   6.317   8.912  1.0947  0.1306 -1.2104
  954MOL0     H31590   1.362   6.385   8.845  0.0379  0.3997  2.0074
  954MOL0     H31591   1.306   6.227   9.005  0.8346  0.6570  0.4454
  954MOL0     H31592   1.256   6.182   8.837  0.5977 -0.7200 -0.2684
  954MOL0     H31593   1.489   6.065   9.001 -0.6755  0.9375 -0.9348
  954MOL0     H31594   1.451   6.012   8.836  1.6273 -2.2291  0.9697
  954MOL0     H31595   1.231   5.938   8.912 -1.9238  1.4013  1.3754
  954MOL0     H31596   1.368   5.868   9.004 -0.7495 -0.0957 -3.1602
  954MOL0     H31597   1.174   5.894   9.145 -3.3311  0.6321 -0.9721
  954MOL0     H31598   1.157   6.060   9.115 -1.1472 -0.7760  1.1053
  954MOL0     H31599   1.414   6.079   9.206  0.7686 -1.4791 -0.4253
  954MOL0     H31600   1.257   6.077   9.305 -0.7511 -1.1997 -0.5701
  954MOL0     H31601   1.596   5.916   9.320  0.4236  0.1610 -0.0339
  954MOL0     H31602   1.646   5.631   9.333  1.2030  0.8154 -0.1901
  954MOL0     H31603   1.541   5.557   9.460 -0.0628  0.9354  2.7394
  954MOL0     H31604   1.693   5.823   9.496  3.3449 -0.6562  1.2210
  954MOL0     H31605   1.604   5.712   9.618  0.4771 -0.3676  0.8205
  954MOL0     H31606   1.797   5.581   9.639 -1.0300 -0.5114 -0.6316
  954MOL0     H31607   1.846   5.616   9.477 -0.6360 -0.6608  0.1761
  954MOL0     H31608   1.906   5.855   9.534 -0.1173  0.0553  0.0785
  954MOL0     H31609   1.861   5.817   9.701  0.4428 -0.7333  1.0048
  954MOL0     H31610   2.221   5.582   9.638 -1.5036 -0.1586 -1.2149
  954MOL0     H31611   2.424   5.504   9.627 -3.2314  0.7575  0.7768
  954MOL0     H31612   2.563   5.593   9.546  2.1014 -3.9905 -4.3017
  954MOL0     H31613   2.457   5.479   9.460  1.9697  0.6136 -0.6848
  954MOL0     H31614   2.537   5.994   9.010 -0.4854 -0.4361 -1.2254
  954MOL0     H31615   2.726   6.007   8.853 -2.1297 -1.3602 -0.0699
  954MOL0     H31616   2.868   5.963   8.685  0.4742 -0.2078 -0.1315
  954MOL0     H31617   2.936   6.045   8.829 -1.1354  0.9123 -0.2430
  954MOL0     H31618   3.170   5.947   8.771 -0.0710 -0.3905 -0.2191
  954MOL0     H31619   3.097   5.879   8.628  2.6853 -0.0281  1.1234
  954MOL0     H31620   3.198   6.142   8.665  0.6099  0.6064 -2.5279
  954MOL0     H31621   3.023   6.171   8.662  1.4539  1.1373  0.2938
  954MOL0     H31622   3.068   6.202   8.458  1.4118  0.5291  2.5315
  954MOL0     H31623   3.006   6.035   8.445 -0.4384 -0.0914 -1.1931
  954MOL0     H31624   3.279   6.142   8.435 -0.3699  0.7987 -0.1457
  954MOL0     H31625   3.262   5.970   8.455  1.0397  2.0825  3.7374
  954MOL0     H31626   3.180   6.142   8.198  0.8442 -0.1785 -2.0257
  954MOL0     H31627   3.136   5.970   8.229  0.8072 -1.4896  2.6414
  954MOL0     H31628   3.384   5.924   8.236 -1.7845 -1.7565 -1.5347
  954MOL0     H31629   3.413   6.096   8.206 -1.7441  0.6779  1.4024
  954MOL0     H31630   3.313   6.082   7.975  2.1319 -0.0859 -0.2724
  954MOL0     H31631   3.265   5.917   8.013  1.8930 -0.7785 -1.7217
  954MOL0     H31632   2.902   5.660   9.024  0.2516  0.1760 -4.6637
  954MOL0     H31633   2.717   5.656   9.206  1.3821  0.7702 -0.2025
  954MOL0     H31634   2.281   5.941   9.317  1.7444  1.3223  2.4238
  954MOL0     H31635   2.086   5.929   9.454  0.2497  0.7602  2.0959
  954MOL0     H31636   1.606   6.494   8.337 -0.5860 -2.7847  0.2961
  954MOL0     H31637   1.792   6.644   8.285  0.2781  0.6258 -0.8250
  954MOL0     H31638   2.118   6.946   8.547  1.9720 -0.0453  1.9666
  954MOL0     H31639   2.277   7.113   8.485  0.7058 -0.3076  1.3457
  954MOL0     H31640   2.552   7.060   8.119 -0.9215  0.2152  0.0468
  954MOL0     H31641   2.615   7.204   8.200 -0.3763  0.2431 -2.1808
  954MOL0     H31642   2.607   6.909   8.274  3.3998 -1.6383  3.4619
  954MOL0     H31643   2.645   7.034   8.398  2.8957  0.0325  0.2347
  954MOL0     H31644   2.809   7.007   8.151 -1.4889 -0.4450  0.0312
  954MOL0     H31645   2.847   7.117   8.293 -2.9164  0.3090  1.9825
  954MOL0     H31646   2.986   6.901   8.298  0.1068 -2.6226  1.7434
  954MOL0     H31647   2.837   6.817   8.311 -2.6864  1.0291 -0.7180
  954MOL0     H31648   2.922   7.002   8.693  0.0924  0.3790 -0.6440
  954MOL0     H31649   2.406   6.891   8.148  0.9663  0.2433  0.6558
  954MOL0     H31650   2.314   6.691   8.094 -0.4307  1.4834  0.5991
  954MOL0     H31651   2.326   6.584   8.248  0.7338 -0.1182  0.0231
  954MOL0     H31652   2.181   6.615   8.152 -0.0789  0.3527  0.0282
  955MOL0     O31653   0.202   2.304   1.411  0.5486 -0.0844 -0.5261
  955MOL0     C31654   0.198   2.178   1.405  0.0389 -0.6929 -0.6013
  955MOL0     O31655   0.311   2.095   1.390 -0.6462  0.4436  0.1749
  955MOL0     C31656   0.432   2.146   1.353 -0.5412 -0.3615 -0.6017
  955MOL0     C31657   0.489   2.258   1.417 -0.0639  0.1867  0.2367
  955MOL0     C31658   0.606   2.310   1.358 -0.4835 -0.7968  0.4720
  955MOL0     C31659   0.678   2.256   1.249 -0.3846  0.4848  0.2048
  955MOL0     O31660   0.798   2.295   1.189  1.2276 -0.3145  0.8075
  955MOL0     C31661   0.860   2.429   1.222 -0.0451  0.2155 -0.2301
  955MOL0     C31662   0.999   2.409   1.268 -1.4277  0.2882  0.2682
  955MOL0     C31663   1.104   2.381   1.165 -1.0241 -0.3743  1.2398
  955MOL0     C31664   1.247   2.394   1.219 -0.5478  0.4653  0.3348
  955MOL0     C31665   1.350   2.301   1.151  0.3243 -1.1059  0.4465
  955MOL0     C31666   1.483   2.298   1.236  0.2309  0.6487 -0.3339
  955MOL0     C31667   1.463   2.191   1.336 -0.8926  0.0331 -0.6215
  955MOL0     C31668   1.485   2.051   1.283 -0.0824  0.2853  0.0601
  955MOL0     N31669   1.631   2.033   1.239 -0.1213 -0.4946  0.2206
  955MOL0     C31670   1.740   2.060   1.318  1.1942 -0.4501  0.2065
  955MOL0     C31671   1.845   1.996   1.249  0.1697 -0.4301 -1.5584
  955MOL0     C31672   1.995   1.994   1.284 -0.4248 -0.3770  0.5868
  955MOL0     C31673   2.022   1.861   1.362 -0.5533 -0.9429  0.5260
  955MOL0     C31674   2.044   1.753   1.258 -0.2605  0.2806  0.3194
  955MOL0     C31675   2.098   1.623   1.316 -0.8532 -0.3518 -0.6485
  955MOL0     O31676   2.231   1.645   1.350  0.4278 -0.0418 -0.0967
  955MOL0     C31677   2.336   1.648   1.259  0.3175  0.2011 -0.5768
  955MOL0     C31678   2.361   1.545   1.166  1.0936 -0.0621  0.4690
  955MOL0     C31679   2.468   1.548   1.077  1.0749  0.3274  0.4114
  955MOL0     C31680   2.505   1.434   0.986  0.1405  0.0206  0.5696
  955MOL0     C31681   2.563   1.651   1.095  0.3975 -0.5721  0.4421
  955MOL0     C31682   2.680   1.664   1.015  0.2737  1.1524  0.1947
  955MOL0     O31683   2.795   1.693   1.080  0.2388  0.1886  0.6578
  955MOL0     C31684   2.910   1.673   1.006 -0.0821 -0.3593 -0.0492
  955MOL0     C31685   2.975   1.770   0.935  0.8385 -0.0309 -0.3573
  955MOL0     C31686   3.103   1.746   0.884 -0.2148  0.3036 -0.9768
  955MOL0     C31687   3.158   1.620   0.883  1.0183 -0.5860  0.7623
  955MOL0     O31688   3.277   1.610   0.813  0.2271  0.6152 -0.3188
  955MOL0     C31689   3.373   1.543   0.885 -0.2846 -0.2231  1.0151
  955MOL0     C31690   3.498   1.628   0.845  0.1569 -1.1274  0.1381
  955MOL0     C31691   3.566   1.563   0.724  0.2611 -0.8850  0.7735
  955MOL0     C31692   3.690   1.658   0.690  0.2719  1.1764 -0.2407
  955MOL0     C31693   3.783   1.593   0.580 -0.1401  1.0453  0.1365
  955MOL0     C31694   3.873   1.686   0.509 -0.7266 -0.5530 -0.5749
  955MOL0     C31695   4.009   1.620   0.455  0.5336 -0.2148  0.0872
  955MOL0     C31696   3.995   1.538   0.340 -0.5106 -0.5319  0.2971
  955MOL0    Cl31697   3.950   1.631   0.190  0.2283 -0.0373 -0.0815
  955MOL0     C31698   3.087   1.515   0.937 -0.3205 -0.0947 -0.3105
  955MOL0     C31699   2.967   1.539   1.002  0.5010 -0.0243 -0.1231
  955MOL0     O31700   2.664   1.642   0.889 -0.8797  0.0218 -0.0370
  955MOL0     C31701   2.536   1.750   1.191 -0.5992  0.5228  0.6531
  955MOL0     C31702   2.419   1.753   1.263  0.1208  1.1724  0.6197
  955MOL0     N31703   1.799   1.943   1.135  0.5235 -0.6710  0.4298
  955MOL0     N31704   1.671   1.964   1.124  0.3809 -0.0368  0.1633
  955MOL0     C31705   0.616   2.147   1.189  0.2911 -0.2093  0.2982
  955MOL0     C31706   0.502   2.083   1.247 -0.4581 -0.1143 -1.0883
  955MOL0     C31707   0.065   2.115   1.427  0.2600 -0.1558  0.5957
  955MOL0     C31708   0.067   1.979   1.445 -0.9916  0.1412  0.1044
  955MOL0     C31709  -0.055   1.905   1.457 -0.6599 -0.4024 -0.7688
  955MOL0     C31710  -0.182   1.967   1.457  0.3001  0.2295 -0.6497
  955MOL0     O31711  -0.301   1.905   1.475  0.2669  0.4353 -1.0755
  955MOL0     C31712  -0.319   1.774   1.415  0.0120 -0.6661  0.8027
  955MOL0     C31713  -0.461   1.738   1.396 -0.0926  0.0679 -0.3921
  955MOL0     C31714  -0.490   1.586   1.361 -0.1305  0.6821 -0.3046
  955MOL0     C31715  -0.626   1.581   1.296  0.0827 -0.0721 -0.9085
  955MOL0     C31716  -0.658   1.654   1.170 -0.3365 -0.1047 -0.7171
  955MOL0     C31717  -0.677   1.720   1.074  0.4724 -0.6796 -0.2414
  955MOL0     C31718  -0.180   2.105   1.448 -0.1281  0.4446  0.0747
  955MOL0     C31719  -0.065   2.180   1.418 -0.4617  0.3976 -0.2459
  955MOL0     C31720  -0.081   2.328   1.411  0.1131 -0.3658 -0.6428
  955MOL0     H31721   0.442   2.309   1.500  1.3638  1.4900  0.2838
  955MOL0     H31722   0.650   2.399   1.400  2.3945 -2.0337  0.2950
  955MOL0     H31723   0.810   2.463   1.313  0.4726 -2.4448  1.1326
  955MOL0     H31724   0.856   2.500   1.139  4.0438  3.7934  2.2313
  955MOL0     H31725   1.029   2.495   1.329 -1.9108 -0.9165  2.3281
  955MOL0     H31726   0.993   2.318   1.330  0.4820 -0.5571 -0.7101
  955MOL0     H31727   1.089   2.283   1.118 -0.6888  0.4091 -0.5671
  955MOL0     H31728   1.094   2.461   1.092  1.0162  1.4853  2.8654
  955MOL0     H31729   1.279   2.499   1.215 -0.7377  0.5137 -3.1932
  955MOL0     H31730   1.240   2.363   1.323  0.3160 -4.6494 -0.8632
  955MOL0     H31731   1.370   2.357   1.059  0.3956  1.3259  1.8366
  955MOL0     H31732   1.315   2.202   1.121  0.6153 -1.0859  0.0322
  955MOL0     H31733   1.576   2.278   1.182 -0.8729 -1.0831 -1.7526
  955MOL0     H31734   1.491   2.389   1.295  0.0845 -1.5992  3.5384
  955MOL0     H31735   1.368   2.199   1.391 -1.4569  0.8879 -1.6796
  955MOL0     H31736   1.544   2.200   1.409 -1.3790 -0.5939  0.0096
  955MOL0     H31737   1.455   1.983   1.364  1.6265 -1.0080 -0.3329
  955MOL0     H31738   1.410   2.016   1.211 -0.2967 -1.5186  1.0941
  955MOL0     H31739   1.738   2.123   1.406 -0.9131  0.4213 -0.4045
  955MOL0     H31740   2.020   2.082   1.344  0.9253  1.8483 -2.9009
  955MOL0     H31741   2.054   2.014   1.194 -2.3482  0.6024 -0.5229
  955MOL0     H31742   2.108   1.870   1.428 -0.7415  4.9356  0.4507
  955MOL0     H31743   1.938   1.835   1.428  0.3735 -0.7842  1.8012
  955MOL0     H31744   1.946   1.737   1.211 -1.9039  0.0968  3.5447
  955MOL0     H31745   2.108   1.776   1.172 -3.1672  1.1325 -1.7979
  955MOL0     H31746   2.041   1.601   1.406 -0.0596  2.6509  0.7215
  955MOL0     H31747   2.082   1.540   1.246 -1.7844  0.1741 -1.0886
  955MOL0     H31748   2.300   1.456   1.151  2.8538 -1.2416 -0.0360
  955MOL0     H31749   2.606   1.398   1.004  0.9364  2.3426  1.1243
  955MOL0     H31750   2.495   1.465   0.881  2.0187  1.1658  0.6748
  955MOL0     H31751   2.440   1.346   0.997  0.9872 -0.4211  2.4612
  955MOL0     H31752   2.939   1.873   0.933 -0.2976 -0.3693  0.9811
  955MOL0     H31753   3.170   1.829   0.862 -0.1893  1.1785  1.9664
  955MOL0     H31754   3.359   1.529   0.993  1.6869 -1.4986  1.1724
  955MOL0     H31755   3.377   1.443   0.840  3.4867 -0.4863  1.5750
  955MOL0     H31756   3.457   1.728   0.826  1.0276  0.3414  4.6268
  955MOL0     H31757   3.566   1.627   0.930  0.9594 -3.1106 -0.4656
  955MOL0     H31758   3.493   1.574   0.644 -1.2163 -0.2862  2.1401
  955MOL0     H31759   3.602   1.462   0.746  3.5576  0.2040  0.9018
  955MOL0     H31760   3.755   1.672   0.777  0.8642 -1.3727 -0.1944
  955MOL0     H31761   3.664   1.754   0.646 -0.6630 -1.0398 -5.2062
  955MOL0     H31762   3.834   1.508   0.625  0.1998 -0.6737 -3.1437
  955MOL0     H31763   3.722   1.539   0.506  0.6176  0.4748 -0.0867
  955MOL0     H31764   3.901   1.769   0.574 -0.6609 -1.8852  1.1585
  955MOL0     H31765   3.835   1.731   0.416 -2.8440 -0.1375  0.4392
  955MOL0     H31766   4.052   1.552   0.529 -4.0887  0.2308  3.7027
  955MOL0     H31767   4.075   1.702   0.429  0.0589  0.7175  1.6835
  955MOL0     H31768   3.927   1.455   0.360  1.6946 -2.4504  0.1829
  955MOL0     H31769   4.096   1.500   0.320 -1.0800 -2.4198  0.7751
  955MOL0     H31770   3.136   1.419   0.942 -3.4612 -2.0123 -2.4640
  955MOL0     H31771   2.922   1.460   1.061  0.1044  1.3087  1.4448
  955MOL0     H31772   2.602   1.830   1.222 -2.3609  2.2621  0.1277
  955MOL0     H31773   2.401   1.837   1.329 -2.9033 -0.4086  1.9966
  955MOL0     H31774   0.659   2.101   1.101  1.7065 -0.2875  1.0015
  955MOL0     H31775   0.465   1.990   1.206 -2.0597 -0.4068  0.8286
  955MOL0     H31776   0.157   1.919   1.452  1.8548  3.7214 -2.2098
  955MOL0     H31777  -0.058   1.797   1.469 -0.3610 -0.4605 -1.2034
  955MOL0     H31778  -0.266   1.783   1.320  1.5412 -0.4818  1.6520
  955MOL0     H31779  -0.275   1.701   1.484 -2.4929 -1.0189  2.1562
  955MOL0     H31780  -0.500   1.807   1.320  0.7673  1.3731  0.3132
  955MOL0     H31781  -0.513   1.760   1.490 -0.3178 -0.4401 -0.3937
  955MOL0     H31782  -0.425   1.547   1.282 -2.4621 -1.0359 -1.5128
  955MOL0     H31783  -0.474   1.517   1.444  2.0486  4.0279  2.3045
  955MOL0     H31784  -0.699   1.609   1.374  2.2083 -0.1903  1.2381
  955MOL0     H31785  -0.657   1.479   1.274 -2.9220  0.7008 -0.7818
  955MOL0     H31786  -0.698   1.798   1.004 -0.6386 -2.0740 -1.5280
  955MOL0     H31787  -0.280   2.146   1.453  0.2605  1.9559 -2.6865
  955MOL0     H31788  -0.048   2.379   1.502  1.2516 -1.8782 -0.1651
  955MOL0     H31789  -0.025   2.366   1.324 -0.4032  0.7655 -0.5018
  955MOL0     H31790  -0.184   2.352   1.384  0.5992  0.1498 -2.1885
  956MOL0     O31791   5.361   1.697   6.292  0.1396 -0.0884  0.2851
  956MOL0     C31792   5.325   1.746   6.397  0.3933 -0.6071 -0.7219
  956MOL0     O31793   5.370   1.870   6.440 -0.5492  0.5758 -0.1241
  956MOL0     C31794   5.487   1.925   6.401  0.4904  0.0297 -0.4364
  956MOL0     C31795   5.610   1.860   6.394 -0.6077 -0.2983 -0.0146
  956MOL0     C31796   5.718   1.918   6.331  0.2547 -0.6876  0.0954
  956MOL0     C31797   5.712   2.048   6.288  0.5728  0.6513  0.0863
  956MOL0     O31798   5.824   2.106   6.230  0.1049  1.4334 -0.0586
  956MOL0     C31799   5.843   2.240   6.234 -0.0909 -0.7594  1.1752
  956MOL0     C31800   5.982   2.273   6.172 -0.2873  0.5912 -1.1840
  956MOL0     C31801   6.101   2.208   6.240 -0.6530 -0.5970  0.2514
  956MOL0     C31802   6.236   2.278   6.210  0.7839 -0.1637 -0.1796
  956MOL0     C31803   6.351   2.226   6.284 -0.3348 -0.5766  0.5350
  956MOL0     C31804   6.479   2.238   6.208  1.1311  0.2547  0.1996
  956MOL0     C31805   6.564   2.365   6.243  0.2384  0.4193  0.4724
  956MOL0     C31806   6.503   2.487   6.200  0.5220 -0.2660  0.4443
  956MOL0     N31807   6.604   2.602   6.202  0.2359  0.1649  0.7713
  956MOL0     C31808   6.714   2.614   6.112 -0.0179  0.3083  0.4877
  956MOL0     C31809   6.769   2.743   6.140 -0.5089 -0.2333  0.4574
  956MOL0     C31810   6.893   2.807   6.087 -0.6526 -0.2598 -0.8684
  956MOL0     C31811   6.880   2.826   5.942  0.4112 -1.2706 -0.1509
  956MOL0     C31812   7.018   2.860   5.881  0.0342  0.9048 -0.0309
  956MOL0     C31813   6.997   2.888   5.737  0.6804  1.0891  0.2746
  956MOL0     O31814   6.970   2.759   5.668 -0.4641  0.2607 -0.7483
  956MOL0     C31815   7.056   2.678   5.607  0.1078 -0.0026  0.7933
  956MOL0     C31816   7.006   2.580   5.528 -0.0459  1.0395  0.7301
  956MOL0     C31817   7.086   2.504   5.449  0.5183  0.3317 -0.3518
  956MOL0     C31818   7.023   2.384   5.370 -0.3042 -0.1360 -0.3802
  956MOL0     C31819   7.233   2.529   5.453 -0.2279 -0.6620 -0.4433
  956MOL0     C31820   7.322   2.473   5.348  0.0900 -0.3967 -0.6131
  956MOL0     O31821   7.457   2.492   5.362  0.3425  0.4385  0.1060
  956MOL0     C31822   7.545   2.519   5.264  0.4152 -0.3432 -0.1877
  956MOL0     C31823   7.515   2.533   5.131 -0.1949  0.4991  0.0279
  956MOL0     C31824   7.616   2.545   5.038  0.2895  0.1143  0.6181
  956MOL0     C31825   7.748   2.547   5.072 -0.0357  0.3721 -0.0626
  956MOL0     O31826   7.854   2.579   4.988 -0.2176  0.3998 -0.3986
  956MOL0     C31827   7.836   2.568   4.855 -0.2082 -0.1131  0.5142
  956MOL0     C31828   7.960   2.624   4.779 -0.3291 -0.4354 -0.2391
  956MOL0     C31829   7.988   2.772   4.811 -0.5659  0.8918 -0.7667
  956MOL0     C31830   8.109   2.829   4.727 -0.1023  0.4890 -1.0583
  956MOL0     C31831   8.164   2.963   4.779 -0.3127  0.2873 -1.2520
  956MOL0     C31832   8.262   2.960   4.892 -0.2054  0.0353 -0.1866
  956MOL0     C31833   8.325   3.101   4.922 -0.3738  1.0972 -0.6027
  956MOL0     C31834   8.471   3.112   4.907  0.6496  0.1298 -0.3145
  956MOL0    Cl31835   8.546   3.050   5.057  0.2052  0.1618 -0.1323
  956MOL0     C31836   7.774   2.541   5.213  0.3092  0.0763 -0.4260
  956MOL0     C31837   7.673   2.525   5.302  0.2852 -0.5608 -0.3016
  956MOL0     O31838   7.279   2.398   5.257  0.1570 -0.2351  0.4481
  956MOL0     C31839   7.278   2.629   5.546 -0.3320  0.6344 -0.0656
  956MOL0     C31840   7.195   2.698   5.625 -0.8840 -0.3621 -0.3586
  956MOL0     N31841   6.689   2.799   6.241  0.7023  0.1811  0.2142
  956MOL0     N31842   6.588   2.713   6.272  0.0880  0.2791  0.1851
  956MOL0     C31843   5.590   2.122   6.304 -1.0864  0.5458  0.4522
  956MOL0     C31844   5.474   2.064   6.363 -0.8382  0.0190  0.1842
  956MOL0     C31845   5.235   1.683   6.497  0.4596  0.2722  0.1787
  956MOL0     C31846   5.136   1.760   6.561 -1.1223  0.4971  0.7560
  956MOL0     C31847   5.023   1.703   6.628 -0.1842 -0.4295  0.1209
  956MOL0     C31848   5.012   1.563   6.648 -0.5140  0.6348  1.2841
  956MOL0     O31849   4.915   1.487   6.715  0.1970 -0.3457  0.4212
  956MOL0     C31850   4.824   1.558   6.800 -0.9714  0.0758  0.6106
  956MOL0     C31851   4.703   1.615   6.732 -0.0237 -0.9000  0.5987
  956MOL0     C31852   4.608   1.502   6.692 -0.4345 -0.7258 -1.1322
  956MOL0     C31853   4.647   1.402   6.598 -0.3181  0.4754 -0.2618
  956MOL0     C31854   4.533   1.318   6.575  0.2411  1.4819 -0.3534
  956MOL0     C31855   4.440   1.245   6.549  0.0301 -0.1354  0.3675
  956MOL0     C31856   5.110   1.484   6.581 -0.8531  0.6758  0.1483
  956MOL0     C31857   5.222   1.537   6.509  0.1411 -0.6741 -0.1058
  956MOL0     C31858   5.316   1.437   6.444 -0.6801  0.3978  0.2550
  956MOL0     H31859   5.612   1.761   6.438 -2.0379  0.7702  2.7486
  956MOL0     H31860   5.815   1.870   6.320 -0.3225 -1.8816  0.1370
  956MOL0     H31861   5.850   2.268   6.339  0.8538  1.9410  0.4804
  956MOL0     H31862   5.767   2.290   6.173 -0.0811 -1.0165  0.9501
  956MOL0     H31863   5.980   2.239   6.068  2.2512  2.6479 -2.0301
  956MOL0     H31864   6.009   2.379   6.164  1.7314  0.1887 -0.5244
  956MOL0     H31865   6.077   2.209   6.347 -2.8987 -1.4339 -0.1850
  956MOL0     H31866   6.099   2.107   6.199  2.5472  0.0520 -1.8383
  956MOL0     H31867   6.251   2.252   6.105  4.4491  0.7302 -0.0215
  956MOL0     H31868   6.234   2.387   6.219 -1.5330 -0.3132  2.9291
  956MOL0     H31869   6.324   2.121   6.296 -0.0597 -0.6156  0.8076
  956MOL0     H31870   6.357   2.274   6.382  3.4043 -2.2618  1.2764
  956MOL0     H31871   6.546   2.159   6.242 -1.7918 -0.7528  4.3561
  956MOL0     H31872   6.465   2.232   6.099 -3.2870 -2.1146  0.6526
  956MOL0     H31873   6.658   2.351   6.188  1.3674  2.9359  1.5938
  956MOL0     H31874   6.585   2.369   6.350  0.0468 -1.4544  0.6057
  956MOL0     H31875   6.473   2.486   6.095  1.9137 -0.6910  0.0296
  956MOL0     H31876   6.411   2.494   6.258 -1.7311 -3.3049 -2.4425
  956MOL0     H31877   6.746   2.543   6.037  1.1102  2.3838 -1.1154
  956MOL0     H31878   6.972   2.742   6.126 -0.0694  1.5448  1.1485
  956MOL0     H31879   6.924   2.898   6.139  3.0842 -2.7131  1.7187
  956MOL0     H31880   6.846   2.733   5.897 -1.2877 -0.8758  0.2356
  956MOL0     H31881   6.810   2.907   5.919 -0.4257 -1.4452  1.6208
  956MOL0     H31882   7.063   2.941   5.940  0.4414  0.0862  0.8194
  956MOL0     H31883   7.090   2.780   5.904  0.8706  1.3604 -1.0058
  956MOL0     H31884   6.909   2.950   5.717 -0.5369 -0.8893 -0.9131
  956MOL0     H31885   7.078   2.943   5.689  0.3401 -0.1745 -1.8735
  956MOL0     H31886   6.899   2.566   5.531 -0.1327  1.8776  2.2589
  956MOL0     H31887   7.046   2.397   5.264 -1.5190  2.0388 -0.4317
  956MOL0     H31888   6.914   2.384   5.365 -0.4519 -0.5598  1.9071
  956MOL0     H31889   7.059   2.290   5.413  0.6607  0.3338 -0.1228
  956MOL0     H31890   7.414   2.524   5.092 -0.1098  0.6212 -0.2259
  956MOL0     H31891   7.581   2.543   4.935 -0.9110 -0.1357  1.0099
  956MOL0     H31892   7.841   2.462   4.827 -2.0033 -0.2053  0.4695
  956MOL0     H31893   7.746   2.617   4.817  0.3180 -0.0359 -0.6849
  956MOL0     H31894   8.047   2.569   4.816 -2.5023 -3.7152  0.3767
  956MOL0     H31895   7.948   2.607   4.671  0.4448 -4.0164  0.1155
  956MOL0     H31896   8.020   2.778   4.915 -1.7794  3.3495 -0.4789
  956MOL0     H31897   7.896   2.830   4.805 -1.4987 -0.4484 -0.0316
  956MOL0     H31898   8.090   2.836   4.620 -4.0685 -1.1381 -0.6387
  956MOL0     H31899   8.189   2.754   4.737  1.4846  1.9002 -2.5818
  956MOL0     H31900   8.210   3.016   4.696 -0.5561 -0.4196 -1.8521
  956MOL0     H31901   8.079   3.025   4.806 -1.0832 -0.1510 -2.5836
  956MOL0     H31902   8.343   2.890   4.869  0.8001  1.0726  0.0864
  956MOL0     H31903   8.217   2.937   4.989  0.3585  1.5247  0.4602
  956MOL0     H31904   8.303   3.121   5.028 -0.6221  1.4072 -0.7100
  956MOL0     H31905   8.279   3.178   4.860  0.6928  0.9587 -1.5739
  956MOL0     H31906   8.495   3.219   4.897 -0.4880  0.3466 -0.9380
  956MOL0     H31907   8.488   3.052   4.817  1.2067 -3.3568  1.9389
  956MOL0     H31908   7.876   2.529   5.248 -0.4281 -0.8792  1.5875
  956MOL0     H31909   7.702   2.501   5.403 -3.2865  2.9924  1.8739
  956MOL0     H31910   7.382   2.656   5.555  0.2690 -0.8577 -2.0735
  956MOL0     H31911   7.245   2.777   5.680 -0.5010 -1.4952  0.9896
  956MOL0     H31912   5.592   2.228   6.279 -0.2955  0.7738  1.4172
  956MOL0     H31913   5.387   2.125   6.384 -0.3217  0.9168 -0.2546
  956MOL0     H31914   5.138   1.867   6.543 -3.4823  0.7902  1.8602
  956MOL0     H31915   4.952   1.773   6.672 -1.2571 -0.4550 -1.4887
  956MOL0     H31916   4.790   1.498   6.886  0.8408  0.7954  1.8736
  956MOL0     H31917   4.877   1.639   6.851 -0.9267 -2.1473  4.4875
  956MOL0     H31918   4.732   1.670   6.641  0.0188  0.4549  1.3974
  956MOL0     H31919   4.658   1.689   6.799  3.3882  3.0191 -0.9971
  956MOL0     H31920   4.580   1.451   6.785 -2.0850  1.5654 -0.2734
  956MOL0     H31921   4.516   1.541   6.648 -0.7583  1.1020  0.9922
  956MOL0     H31922   4.734   1.344   6.629 -0.2246  1.5562  1.6638
  956MOL0     H31923   4.660   1.443   6.497 -1.7808  0.2870 -0.5526
  956MOL0     H31924   4.356   1.185   6.522 -1.5246  2.3913 -0.8632
  956MOL0     H31925   5.098   1.377   6.599  0.4415  0.6125  0.8000
  956MOL0     H31926   5.264   1.384   6.364 -0.5509 -0.1074  0.4990
  956MOL0     H31927   5.407   1.489   6.413 -0.1628  0.5579  1.9226
  956MOL0     H31928   5.344   1.367   6.524  3.2347  0.9211 -0.4422
  957MOL0     O31929  10.240   5.106   8.777  0.1489  0.4735  0.5317
  957MOL0     C31930  10.328   5.054   8.717 -0.0212  0.5190 -0.2219
  957MOL0     O31931  10.339   4.915   8.707 -0.6021 -0.2553 -0.7746
  957MOL0     C31932  10.253   4.849   8.781  0.5687  0.4027 -0.5877
  957MOL0     C31933  10.297   4.801   8.903  0.6364  0.3560 -0.0588
  957MOL0     C31934  10.210   4.726   8.984 -0.8129 -0.5312  0.4498
  957MOL0     C31935  10.085   4.689   8.938 -1.0106  0.6899 -0.9486
  957MOL0     O31936  10.007   4.612   9.015 -0.2981 -0.0900  0.7229
  957MOL0     C31937   9.871   4.590   8.982 -0.0028  0.0058  0.4668
  957MOL0     C31938   9.804   4.529   9.107  0.3274  0.8115  0.6469
  957MOL0     C31939   9.794   4.638   9.219 -0.5717  0.4599 -0.5984
  957MOL0     C31940   9.710   4.582   9.331  1.0138  0.7705  0.2989
  957MOL0     C31941   9.684   4.673   9.451  0.3395 -0.9900  0.0790
  957MOL0     C31942   9.571   4.626   9.545  0.0747 -0.4533  1.2749
  957MOL0     C31943   9.555   4.713   9.672 -0.1349 -0.0213  0.0720
  957MOL0     C31944   9.676   4.707   9.770  0.1248  0.2541 -0.8598
  957MOL0     N31945   9.654   4.819   9.870 -0.4615  0.6712  0.8645
  957MOL0     C31946   9.733   4.930   9.873  0.2212 -1.1137  0.2952
  957MOL0     C31947   9.685   5.013   9.970  0.5997 -0.0465  0.3537
  957MOL0     C31948   9.738   5.149  10.012  1.0055  0.1764 -0.1469
  957MOL0     C31949   9.839   5.114  10.126  0.6335  1.1897  0.9568
  957MOL0     C31950   9.896   5.242  10.178  0.3503 -0.0921  0.1170
  957MOL0     C31951   9.989   5.214  10.297  0.2327  0.3136 -0.2759
  957MOL0     O31952  10.113   5.157  10.256 -0.1027 -0.0838 -0.9224
  957MOL0     C31953  10.219   5.242  10.233 -0.1923 -0.4288 -0.7724
  957MOL0     C31954  10.254   5.270  10.103  0.7338  0.7194 -0.2695
  957MOL0     C31955  10.366   5.350  10.064  0.1586 -1.3880 -0.2239
  957MOL0     C31956  10.382   5.402   9.921 -1.0893 -0.3860  0.1605
  957MOL0     C31957  10.449   5.402  10.170  0.3234  0.1183  0.1018
  957MOL0     C31958  10.583   5.475  10.145  0.1817  0.5317  0.3398
  957MOL0     O31959  10.640   5.451  10.034  0.1995  0.1091 -0.1396
  957MOL0     C31960  10.763   5.508  10.006 -0.5148 -0.1740  0.7535
  957MOL0     C31961  10.782   5.600   9.905 -0.7132  1.5352  0.7436
  957MOL0     C31962  10.912   5.662   9.879 -0.1064  0.1172  0.3700
  957MOL0     C31963  11.022   5.628   9.950  0.1591  0.3668  0.0616
  957MOL0     O31964  11.141   5.690   9.925 -0.8643 -0.2892 -0.4000
  957MOL0     C31965  11.258   5.617   9.966  0.3009  0.1153  0.2332
  957MOL0     C31966  11.387   5.652   9.876 -0.2534 -0.4712  0.8050
  957MOL0     C31967  11.458   5.530   9.828  0.5935  0.0486 -0.5588
  957MOL0     C31968  11.560   5.560   9.713  0.6070 -0.1563 -0.4755
  957MOL0     C31969  11.611   5.423   9.652  0.3875 -0.0958  0.0218
  957MOL0     C31970  11.719   5.370   9.749 -0.3270 -0.1765  0.6727
  957MOL0     C31971  11.770   5.232   9.704 -0.2946 -0.4737  0.1665
  957MOL0     C31972  11.900   5.226   9.618 -1.3437 -0.4610  0.4928
  957MOL0    Cl31973  11.859   5.245   9.442  0.0127  0.4960  0.4118
  957MOL0     C31974  11.001   5.539  10.061 -0.3805 -0.0336 -0.4369
  957MOL0     C31975  10.880   5.487  10.088 -0.3130 -0.7631  0.3239
  957MOL0     O31976  10.633   5.539  10.238  0.3255  0.2539  0.0683
  957MOL0     C31977  10.414   5.369  10.308 -0.2103  0.5385 -0.1541
  957MOL0     C31978  10.296   5.298  10.335 -0.0137 -0.1578  0.3036
  957MOL0     N31979   9.572   4.949  10.022  0.7866  0.2542  0.1671
  957MOL0     N31980   9.561   4.834   9.965 -0.0092  0.1258  0.1014
  957MOL0     C31981  10.046   4.723   8.806  0.4780  0.1214 -0.4652
  957MOL0     C31982  10.127   4.809   8.731  0.4269  0.6764 -0.1548
  957MOL0     C31983  10.419   5.146   8.643  0.3869 -0.4234  0.0717
  957MOL0     C31984  10.508   5.086   8.551 -0.8004  0.6712  0.0246
  957MOL0     C31985  10.611   5.158   8.488 -0.6526  0.4054 -0.4181
  957MOL0     C31986  10.628   5.291   8.520  0.3692 -0.3145 -0.1749
  957MOL0     O31987  10.717   5.362   8.450  0.6650 -1.4024 -0.1623
  957MOL0     C31988  10.789   5.468   8.508  0.2072  0.1241 -0.3739
  957MOL0     C31989  10.769   5.580   8.405  0.0968 -0.1234 -0.5580
  957MOL0     C31990  10.866   5.698   8.432  0.0494  0.4870  0.3338
  957MOL0     C31991  10.838   5.787   8.559 -0.7442 -0.0562  0.7909
  957MOL0     C31992  10.944   5.896   8.579  1.0841 -0.2572  0.2190
  957MOL0     C31993  11.032   5.967   8.622 -0.0359  0.0980 -0.0235
  957MOL0     C31994  10.535   5.363   8.602 -0.0305 -0.3713 -0.4900
  957MOL0     C31995  10.435   5.289   8.670  0.3095  0.7946  0.1398
  957MOL0     C31996  10.353   5.362   8.761  0.2460  0.9687  0.2505
  957MOL0     H31997  10.391   4.833   8.947  0.2267  1.5530  0.0023
  957MOL0     H31998  10.249   4.705   9.083  2.7232  0.8506 -0.4937
  957MOL0     H31999   9.855   4.515   8.904 -1.4031  0.3731  0.3735
  957MOL0     H32000   9.817   4.683   8.960 -2.2122 -1.3145 -0.0323
  957MOL0     H32001   9.706   4.488   9.084  0.0302  2.2955 -0.9575
  957MOL0     H32002   9.865   4.447   9.146  1.0913  0.1473 -1.8117
  957MOL0     H32003   9.886   4.686   9.256 -0.5480 -0.4734  0.6397
  957MOL0     H32004   9.723   4.710   9.177 -2.0633 -0.4155  0.3320
  957MOL0     H32005   9.616   4.548   9.286  0.8557  0.2470  1.0202
  957MOL0     H32006   9.751   4.493   9.378 -0.3231 -0.2961 -0.4981
  957MOL0     H32007   9.664   4.771   9.407 -0.2468 -1.0016  0.3161
  957MOL0     H32008   9.781   4.669   9.501  0.9127 -3.9412 -1.0341
  957MOL0     H32009   9.479   4.623   9.486  1.5076 -4.4476 -1.2119
  957MOL0     H32010   9.594   4.524   9.577 -2.2456 -1.3531  0.3375
  957MOL0     H32011   9.455   4.712   9.717 -0.0455  1.0459  0.3358
  957MOL0     H32012   9.555   4.813   9.626 -0.4997 -1.0567 -2.2994
  957MOL0     H32013   9.675   4.609   9.819 -2.4184 -0.0190 -1.2802
  957MOL0     H32014   9.769   4.722   9.716  0.5472 -2.4699 -1.0270
  957MOL0     H32015   9.822   4.950   9.814 -0.0373 -1.0052 -0.0565
  957MOL0     H32016   9.653   5.209  10.046 -0.3899 -0.5024 -2.2481
  957MOL0     H32017   9.771   5.210   9.928 -1.3739  0.4272 -0.9663
  957MOL0     H32018   9.780   5.055  10.197 -0.5977 -0.5885 -1.3803
  957MOL0     H32019   9.918   5.050  10.087 -0.9453 -1.2067  1.4776
  957MOL0     H32020   9.944   5.292  10.094 -1.5270  3.8336  1.1907
  957MOL0     H32021   9.810   5.300  10.210 -0.8562 -0.8454 -1.6100
  957MOL0     H32022  10.008   5.307  10.352 -1.9573  0.4408  0.3620
  957MOL0     H32023   9.944   5.145  10.369  3.4558 -1.8046 -0.0857
  957MOL0     H32024  10.192   5.217  10.032 -1.0415 -0.4649  2.0305
  957MOL0     H32025  10.283   5.401   9.875 -0.6273  0.9539 -0.9203
  957MOL0     H32026  10.456   5.343   9.866 -0.4179 -0.2948  0.9359
  957MOL0     H32027  10.427   5.502   9.921  1.4409 -1.4380 -0.3447
  957MOL0     H32028  10.695   5.610   9.840 -1.7540  0.1874  1.8753
  957MOL0     H32029  10.921   5.731   9.795 -1.0376  0.3877  0.4746
  957MOL0     H32030  11.278   5.632  10.072  1.6324  1.2237 -0.1426
  957MOL0     H32031  11.242   5.511   9.947 -1.5877  0.1978  1.0894
  957MOL0     H32032  11.364   5.721   9.794 -3.1680 -2.1463  0.0416
  957MOL0     H32033  11.454   5.712   9.939 -1.6563  2.9726 -0.7190
  957MOL0     H32034  11.381   5.459   9.796 -0.4118  1.3621 -1.2068
  957MOL0     H32035  11.492   5.475   9.916 -0.0318  4.0336  2.4587
  957MOL0     H32036  11.643   5.623   9.746  1.5830  0.6462 -4.0242
  957MOL0     H32037  11.509   5.617   9.634  0.4227  1.8039  0.9633
  957MOL0     H32038  11.527   5.355   9.640 -1.9524  2.8160 -1.4224
  957MOL0     H32039  11.663   5.436   9.557  1.7465 -2.8790  0.2922
  957MOL0     H32040  11.672   5.359   9.847  1.4570  1.9831  1.8745
  957MOL0     H32041  11.801   5.444   9.755 -0.3935 -0.0856  0.4662
  957MOL0     H32042  11.684   5.187   9.653 -0.8811 -0.0883  0.7842
  957MOL0     H32043  11.787   5.168   9.791  3.2757  0.3496  0.2190
  957MOL0     H32044  11.952   5.131   9.632  0.7245  0.7106  1.1551
  957MOL0     H32045  11.969   5.308   9.642 -0.5947 -0.6715 -0.8582
  957MOL0     H32046  11.084   5.498  10.118 -1.6620 -0.9227  0.8576
  957MOL0     H32047  10.861   5.415  10.166 -0.5385 -1.4934 -0.3904
  957MOL0     H32048  10.485   5.397  10.385  2.9117  2.6452 -3.4928
  957MOL0     H32049  10.275   5.275  10.439 -1.5521  1.6653  0.4556
  957MOL0     H32050   9.953   4.685   8.766  0.0919  0.0737  0.4547
  957MOL0     H32051  10.106   4.846   8.631  1.7294 -0.0890 -0.7396
  957MOL0     H32052  10.498   4.981   8.525  3.4361  0.2539 -0.6394
  957MOL0     H32053  10.678   5.107   8.420  1.1616  2.3539 -0.1843
  957MOL0     H32054  10.752   5.498   8.607  0.0218 -1.2354 -0.0086
  957MOL0     H32055  10.895   5.442   8.512 -0.5471 -3.2565  2.0550
  957MOL0     H32056  10.664   5.610   8.416  0.4641  0.4750  2.1401
  957MOL0     H32057  10.788   5.552   8.301 -1.7385  0.0515 -0.9834
  957MOL0     H32058  10.966   5.654   8.427 -0.5044 -0.8370  0.5379
  957MOL0     H32059  10.865   5.768   8.348  0.1800  2.0914  1.6082
  957MOL0     H32060  10.836   5.731   8.653  0.4769  1.1267  1.5620
  957MOL0     H32061  10.740   5.834   8.549 -1.2940 -1.3419 -0.2013
  957MOL0     H32062  11.106   6.040   8.649  0.4784  0.6286 -2.6336
  957MOL0     H32063  10.542   5.470   8.615  2.3513 -0.3331 -1.5948
  957MOL0     H32064  10.261   5.378   8.703  0.1639 -3.1550 -1.1621
  957MOL0     H32065  10.346   5.294   8.846  0.1397  0.1919 -0.3564
  957MOL0     H32066  10.393   5.456   8.797  0.3284  0.7734  0.6721
  958MOL0     O32067   7.144   0.780   8.990  0.9625  0.0067  0.7389
  958MOL0     C32068   7.151   0.656   9.009  1.4991 -0.2848  0.2553
  958MOL0     O32069   7.267   0.579   9.003  0.3337 -0.2537  0.2221
  958MOL0     C32070   7.375   0.629   8.941 -0.4911  0.5823 -0.8568
  958MOL0     C32071   7.436   0.743   8.993 -0.3370 -0.5355  0.9151
  958MOL0     C32072   7.566   0.786   8.952 -0.2679  0.2354 -0.6743
  958MOL0     C32073   7.628   0.731   8.846 -0.0999  0.4345  0.3209
  958MOL0     O32074   7.744   0.770   8.798  0.2991 -0.0351  0.8568
  958MOL0     C32075   7.841   0.674   8.837 -0.5890 -0.2873 -0.0585
  958MOL0     C32076   7.975   0.717   8.773 -0.3226 -0.8650  0.8963
  958MOL0     C32077   8.038   0.837   8.845  0.0107 -0.1729  0.2007
  958MOL0     C32078   8.142   0.902   8.758 -0.4018  0.7542 -0.0554
  958MOL0     C32079   8.267   0.810   8.757 -0.0848 -0.4677 -0.3472
  958MOL0     C32080   8.387   0.874   8.691  0.4971 -0.1467  0.8269
  958MOL0     C32081   8.356   0.930   8.551 -0.0662  0.6794 -0.5014
  958MOL0     C32082   8.480   0.983   8.478  0.0007  0.8798  0.6658
  958MOL0     N32083   8.594   0.893   8.476  0.5572 -0.4092  0.0801
  958MOL0     C32084   8.601   0.773   8.400  0.1044 -0.0913  0.2865
  958MOL0     C32085   8.730   0.738   8.429 -0.6059 -1.0604  0.4090
  958MOL0     C32086   8.813   0.621   8.385 -0.4029 -0.1314 -0.9839
  958MOL0     C32087   8.721   0.496   8.390 -0.3787 -0.0265  0.5012
  958MOL0     C32088   8.666   0.467   8.529 -0.6795  1.0501 -0.8847
  958MOL0     C32089   8.518   0.433   8.526 -0.1992 -0.0450  0.2343
  958MOL0     O32090   8.466   0.357   8.634  1.0208  0.1450 -0.5706
  958MOL0     C32091   8.330   0.338   8.643 -0.2789 -0.1031  1.7162
  958MOL0     C32092   8.243   0.391   8.552 -0.4692  0.7100 -0.0484
  958MOL0     C32093   8.106   0.365   8.555 -0.1746  0.4006  0.4446
  958MOL0     C32094   8.029   0.431   8.444 -0.1274  0.0216 -0.6736
  958MOL0     C32095   8.053   0.275   8.647  0.2330  0.2893 -0.1158
  958MOL0     C32096   7.912   0.238   8.643 -0.8190  0.2642  0.6973
  958MOL0     O32097   7.806   0.320   8.615  0.2892 -0.4119  0.7312
  958MOL0     C32098   7.695   0.273   8.545  0.0339  0.0594 -0.9794
  958MOL0     C32099   7.593   0.368   8.523  0.4805  0.2063  0.5776
  958MOL0     C32100   7.468   0.332   8.476  0.7198 -0.4080  0.1093
  958MOL0     C32101   7.445   0.202   8.432  0.0417  0.0602 -0.3782
  958MOL0     O32102   7.331   0.153   8.378  0.0807 -0.4759 -0.3625
  958MOL0     C32103   7.225   0.257   8.362 -0.1991  0.2947  0.1624
  958MOL0     C32104   7.091   0.196   8.299  0.0148 -0.0382 -0.3007
  958MOL0     C32105   7.125   0.149   8.155  0.4814  0.3848  0.1009
  958MOL0     C32106   7.012   0.068   8.087 -0.1064  1.1142 -0.3402
  958MOL0     C32107   6.996   0.084   7.938  0.1750  0.2078  0.4571
  958MOL0     C32108   6.879   0.006   7.867  0.5134 -0.2535  0.1443
  958MOL0     C32109   6.858   0.041   7.722  0.5158 -0.4171  0.1167
  958MOL0     C32110   6.736   0.134   7.700  0.7134 -0.1392 -0.3787
  958MOL0    Cl32111   6.744   0.230   7.556 -0.0219 -0.1749  0.4263
  958MOL0     C32112   7.551   0.110   8.445  0.2158  0.1439  0.5625
  958MOL0     C32113   7.669   0.140   8.515 -0.3878  1.0760 -0.2973
  958MOL0     O32114   7.900   0.124   8.691 -0.5299 -0.9498  0.2008
  958MOL0     C32115   8.143   0.215   8.737  0.0356  0.1166  0.8552
  958MOL0     C32116   8.280   0.248   8.729 -0.0812  0.0716  0.8427
  958MOL0     N32117   8.798   0.829   8.516 -0.4566 -0.0283  0.7904
  958MOL0     N32118   8.709   0.923   8.548  0.0677 -0.4256 -0.4776
  958MOL0     C32119   7.554   0.623   8.790 -0.2709  0.0977  0.0949
  958MOL0     C32120   7.431   0.570   8.836  0.2692  0.6748  0.0341
  958MOL0     C32121   7.030   0.582   9.043  0.6614  0.9852  0.6142
  958MOL0     C32122   7.043   0.450   9.091  0.1742 -1.1182  0.2871
  958MOL0     C32123   6.933   0.379   9.123  0.1950 -0.3931 -0.0218
  958MOL0     C32124   6.807   0.428   9.111 -0.2965  0.7961 -0.9751
  958MOL0     O32125   6.698   0.344   9.138  0.1504  0.5954  0.3020
  958MOL0     C32126   6.605   0.391   9.230 -0.2894 -1.0809 -0.1583
  958MOL0     C32127   6.667   0.409   9.365  0.9639  0.3223  0.0171
  958MOL0     C32128   6.736   0.284   9.415 -0.2904 -0.1989  0.4921
  958MOL0     C32129   6.775   0.287   9.566 -0.5749  0.6212 -0.8760
  958MOL0     C32130   6.862   0.403   9.602  0.5424  0.7687 -0.2453
  958MOL0     C32131   6.942   0.485   9.640 -0.8874 -0.0095  0.2007
  958MOL0     C32132   6.788   0.552   9.050  0.3612  0.1405  0.3243
  958MOL0     C32133   6.895   0.631   9.012  1.1154  0.1244  0.5212
  958MOL0     C32134   6.860   0.770   8.954 -0.0079  0.8409  1.3440
  958MOL0     H32135   7.390   0.802   9.072  0.5081  1.2813  0.1226
  958MOL0     H32136   7.613   0.871   9.001 -1.7638  0.2886  0.7707
  958MOL0     H32137   7.811   0.575   8.803  0.2589 -0.4909 -0.2374
  958MOL0     H32138   7.860   0.669   8.944  0.0199 -2.8637 -0.2367
  958MOL0     H32139   8.051   0.640   8.782  1.4380  0.4576 -1.5789
  958MOL0     H32140   7.969   0.737   8.666  0.8090 -2.2127  0.5521
  958MOL0     H32141   7.962   0.912   8.870 -1.1830 -1.6253  1.0659
  958MOL0     H32142   8.085   0.807   8.939 -1.0187  3.0371  1.9005
  958MOL0     H32143   8.119   0.910   8.651  0.2739  1.2285 -0.1733
  958MOL0     H32144   8.165   1.001   8.798  0.7434  0.8996 -0.9949
  958MOL0     H32145   8.248   0.708   8.723  1.7472 -1.3868  1.2092
  958MOL0     H32146   8.294   0.799   8.862  0.3191  0.4749 -0.3357
  958MOL0     H32147   8.429   0.950   8.757  2.7695 -2.2545  1.9618
  958MOL0     H32148   8.461   0.794   8.681 -0.7943 -1.4780  1.6016
  958MOL0     H32149   8.294   1.019   8.562  1.0628  1.1991  2.4220
  958MOL0     H32150   8.310   0.859   8.481  1.7961 -0.2446 -0.8718
  958MOL0     H32151   8.444   0.976   8.375 -1.5005 -2.3449  1.2732
  958MOL0     H32152   8.502   1.084   8.514 -0.4790  0.1222  3.2257
  958MOL0     H32153   8.528   0.715   8.345  1.5238 -1.9315  0.2470
  958MOL0     H32154   8.898   0.605   8.451  0.6746 -1.3548 -2.5718
  958MOL0     H32155   8.855   0.639   8.285  1.6951 -0.9533 -0.2838
  958MOL0     H32156   8.632   0.512   8.328  0.4628  2.7650 -0.1438
  958MOL0     H32157   8.768   0.413   8.337 -0.8736 -0.1033  0.1680
  958MOL0     H32158   8.725   0.390   8.580 -0.0293  1.9384 -0.2530
  958MOL0     H32159   8.687   0.550   8.598  3.7344 -0.4734 -0.0414
  958MOL0     H32160   8.469   0.530   8.538 -1.1404 -0.4794 -0.0242
  958MOL0     H32161   8.487   0.374   8.439  1.0762 -1.6745  0.8498
  958MOL0     H32162   8.270   0.466   8.478  0.2004 -0.5921 -1.1659
  958MOL0     H32163   7.971   0.353   8.396 -3.9064 -0.5429  4.0473
  958MOL0     H32164   8.099   0.484   8.378  0.5039  2.2299  1.5968
  958MOL0     H32165   7.949   0.489   8.491 -0.7021 -2.5475  1.7704
  958MOL0     H32166   7.620   0.471   8.544  1.2487 -0.5643  3.8841
  958MOL0     H32167   7.389   0.407   8.468  0.2343 -0.9995 -0.9247
  958MOL0     H32168   7.195   0.300   8.459 -0.5623 -0.3919  0.3600
  958MOL0     H32169   7.268   0.331   8.294  4.0595 -0.5219  1.6824
  958MOL0     H32170   7.053   0.107   8.349 -1.1425  0.3908 -0.3800
  958MOL0     H32171   7.016   0.276   8.292 -0.9657 -0.9015  0.1897
  958MOL0     H32172   7.209   0.079   8.161  0.9342  0.3394 -3.8757
  958MOL0     H32173   7.152   0.233   8.090  0.9419  0.2194  0.0727
  958MOL0     H32174   6.914   0.082   8.134 -0.6897 -1.6362 -0.5530
  958MOL0     H32175   7.032  -0.037   8.109 -1.6145  1.3842  2.8473
  958MOL0     H32176   6.992   0.192   7.918  3.2190  0.0767 -1.3321
  958MOL0     H32177   7.090   0.056   7.892  0.5803  1.0334  0.7534
  958MOL0     H32178   6.785   0.026   7.920 -0.0644 -2.3376 -0.0073
  958MOL0     H32179   6.888  -0.101   7.886  0.9162  0.3138  3.9832
  958MOL0     H32180   6.852  -0.048   7.657 -1.1681 -1.7427  1.9582
  958MOL0     H32181   6.946   0.097   7.690 -0.3581 -0.9554 -3.7259
  958MOL0     H32182   6.739   0.200   7.787  0.4589 -1.2343  0.4834
  958MOL0     H32183   6.644   0.075   7.701 -1.0865  2.5106  0.9725
  958MOL0     H32184   7.536   0.004   8.427 -1.3937  0.3756  0.4286
  958MOL0     H32185   7.733   0.053   8.527 -0.6272  0.8296 -0.7727
  958MOL0     H32186   8.120   0.150   8.820 -0.5591 -1.3842 -0.4394
  958MOL0     H32187   8.348   0.186   8.786  0.9344 -1.6520 -2.0508
  958MOL0     H32188   7.603   0.578   8.704 -2.2755  2.0415 -2.2368
  958MOL0     H32189   7.385   0.480   8.795  0.2525 -0.1736  1.8290
  958MOL0     H32190   7.142   0.408   9.103  0.3405 -0.6219  0.6778
  958MOL0     H32191   6.944   0.277   9.159 -0.6388 -1.9195 -3.6569
  958MOL0     H32192   6.565   0.488   9.197  0.4579 -1.1136 -1.2305
  958MOL0     H32193   6.523   0.321   9.246 -0.8609  0.0306  2.1108
  958MOL0     H32194   6.580   0.434   9.426  1.0426  0.1876  0.1848
  958MOL0     H32195   6.739   0.490   9.353 -0.2716  1.4671  0.0650
  958MOL0     H32196   6.671   0.204   9.379 -0.0181  0.3037 -1.2028
  958MOL0     H32197   6.827   0.274   9.356  1.0287 -0.8708  2.5209
  958MOL0     H32198   6.830   0.197   9.594  0.0028  0.2907 -2.9032
  958MOL0     H32199   6.685   0.294   9.628 -0.5036 -4.1651  0.1938
  958MOL0     H32200   7.017   0.559   9.656  1.6579 -2.7523  2.0741
  958MOL0     H32201   6.685   0.581   9.027  0.2166 -1.7457 -1.7897
  958MOL0     H32202   6.758   0.768   8.914  0.9486 -0.1542 -1.2281
  958MOL0     H32203   6.868   0.832   9.044  0.0286  1.7629  0.7202
  958MOL0     H32204   6.923   0.807   8.873  1.5392 -0.4407  1.9218
  959MOL0     O32205   1.717  10.651   5.958  0.6984 -0.2505  0.2485
  959MOL0     C32206   1.707  10.595   5.850 -1.2495  0.1643 -1.2102
  959MOL0     O32207   1.634  10.480   5.826 -0.3083 -0.5325 -0.2214
  959MOL0     C32208   1.520  10.459   5.898  0.1850 -0.5115  0.5764
  959MOL0     C32209   1.394  10.477   5.843  0.5430  0.0889 -0.3911
  959MOL0     C32210   1.278  10.438   5.917 -0.3236 -0.1141  0.4851
  959MOL0     C32211   1.298  10.399   6.049  0.0119 -1.5187  0.3051
  959MOL0     O32212   1.183  10.370   6.106 -0.5156  0.3612 -0.3308
  959MOL0     C32213   1.169  10.379   6.247 -0.3489 -0.4339 -0.3846
  959MOL0     C32214   1.186  10.521   6.301  0.3582  0.0253 -0.8131
  959MOL0     C32215   1.120  10.625   6.207 -0.2834 -0.3676  0.9886
  959MOL0     C32216   1.138  10.767   6.266 -0.1580  0.2682  0.1548
  959MOL0     C32217   1.272  10.810   6.242 -0.3963  0.5487  0.0922
  959MOL0     C32218   1.295  10.939   6.329  0.1916 -0.4613 -0.1352
  959MOL0     C32219   1.442  10.965   6.338 -1.1854  0.4495  0.8947
  959MOL0     C32220   1.471  11.102   6.398  0.3736  0.5994 -0.7965
  959MOL0     N32221   1.607  11.115   6.439 -0.3259 -0.5676 -0.2154
  959MOL0     C32222   1.665  11.018   6.520  1.2770 -0.3709 -0.5581
  959MOL0     C32223   1.779  11.081   6.563  0.3785 -0.1440 -1.0359
  959MOL0     C32224   1.871  11.014   6.653 -0.2244 -0.0466  0.2022
  959MOL0     C32225   1.997  10.964   6.580  0.2941  0.1519 -0.3096
  959MOL0     C32226   2.101  10.922   6.683 -0.8026 -0.2618  0.3260
  959MOL0     C32227   2.228  10.888   6.607 -0.3096 -0.4031 -0.2196
  959MOL0     O32228   2.231  10.789   6.500  0.0545  0.8932 -0.1420
  959MOL0     C32229   2.329  10.787   6.402  0.1872 -0.3132  0.6827
  959MOL0     C32230   2.371  10.656   6.357  0.0309  0.0236  0.0428
  959MOL0     C32231   2.471  10.653   6.261 -0.6655  0.1481  1.0392
  959MOL0     C32232   2.517  10.515   6.218 -0.9211  0.7831  0.5715
  959MOL0     C32233   2.533  10.777   6.208  1.6277 -0.2666  0.1765
  959MOL0     C32234   2.651  10.787   6.115  0.8522 -0.1346  0.5073
  959MOL0     O32235   2.684  10.913   6.063 -0.2591 -0.1469  0.5140
  959MOL0     C32236   2.791  10.923   5.979  0.1939 -0.3880 -0.0767
  959MOL0     C32237   2.899  11.010   6.003  0.0401  0.7053 -0.1873
  959MOL0     C32238   3.016  11.017   5.923  0.1984 -0.2506  0.7135
  959MOL0     C32239   3.023  10.935   5.812  1.0548 -0.1604  0.5983
  959MOL0     O32240   3.145  10.940   5.745  0.0166  0.4032 -0.1739
  959MOL0     C32241   3.138  10.894   5.603 -0.3281  0.1749 -0.5643
  959MOL0     C32242   3.273  10.896   5.531  0.9724  0.1412 -0.5061
  959MOL0     C32243   3.359  11.018   5.575 -0.0944 -0.4112  0.3019
  959MOL0     C32244   3.489  11.048   5.488 -0.3831  0.7629 -0.2098
  959MOL0     C32245   3.584  11.140   5.558 -0.4947 -0.0653  0.2661
  959MOL0     C32246   3.694  11.205   5.479  0.4311  0.8872 -0.0470
  959MOL0     C32247   3.785  11.105   5.416  0.3596  0.3084 -0.5831
  959MOL0     C32248   3.912  11.169   5.364 -0.3436  0.4821 -0.5092
  959MOL0    Cl32249   3.871  11.251   5.208  0.9396  0.3379 -0.3330
  959MOL0     C32250   2.919  10.860   5.781  0.1510  0.5933  0.0926
  959MOL0     C32251   2.804  10.840   5.863  0.4168  0.2625  0.0306
  959MOL0     O32252   2.708  10.683   6.079 -1.5789 -0.0952  0.4380
  959MOL0     C32253   2.478  10.904   6.256 -0.3516  0.0275 -0.1890
  959MOL0     C32254   2.384  10.903   6.358 -0.1607  0.1295  0.7698
  959MOL0     N32255   1.797  11.196   6.486 -0.2070 -0.0970  0.0689
  959MOL0     N32256   1.688  11.220   6.418 -0.5818 -0.9352 -0.2155
  959MOL0     C32257   1.421  10.397   6.105  0.2813  0.1683 -0.9104
  959MOL0     C32258   1.532  10.415   6.028 -0.6638  0.0766  0.4359
  959MOL0     C32259   1.793  10.647   5.746  0.1622 -0.4256  0.7869
  959MOL0     C32260   1.930  10.661   5.768  0.7012  0.4451  0.3900
  959MOL0     C32261   2.030  10.693   5.679 -0.5393  0.6449 -0.0483
  959MOL0     C32262   1.986  10.704   5.544  0.5518  0.5301  0.0361
  959MOL0     O32263   2.078  10.723   5.440  0.0877 -0.4476  0.5195
  959MOL0     C32264   2.132  10.608   5.385 -0.1475  0.4128 -1.6738
  959MOL0     C32265   2.138  10.600   5.233  0.2925  0.4157  0.6014
  959MOL0     C32266   1.993  10.571   5.171  0.6273  0.0238 -0.1545
  959MOL0     C32267   1.947  10.436   5.236 -0.5545 -0.5685 -0.3471
  959MOL0     C32268   1.843  10.365   5.157  0.2109 -0.5635  0.0844
  959MOL0     C32269   1.747  10.312   5.096 -0.4937  0.3284  0.4448
  959MOL0     C32270   1.857  10.686   5.512  0.5557 -0.1915  0.1960
  959MOL0     C32271   1.759  10.652   5.607  0.1064 -0.5643 -0.1131
  959MOL0     C32272   1.617  10.632   5.569 -0.6206  0.0884 -0.3051
  959MOL0     H32273   1.383  10.502   5.738 -1.5944 -1.8259 -0.7134
  959MOL0     H32274   1.181  10.431   5.869 -1.2145 -1.8347  2.3472
  959MOL0     H32275   1.244  10.322   6.303  0.4436 -0.1522 -1.1275
  959MOL0     H32276   1.073  10.333   6.271 -0.1986 -0.0772  0.9832
  959MOL0     H32277   1.147  10.522   6.403  1.3292  1.2844 -0.4304
  959MOL0     H32278   1.294  10.537   6.310  0.1501  1.1048 -0.0518
  959MOL0     H32279   1.168  10.612   6.110  0.9583 -2.0859  1.7764
  959MOL0     H32280   1.011  10.611   6.208 -0.3764 -0.8239 -2.8536
  959MOL0     H32281   1.072  10.841   6.219  2.7175  2.1456 -1.2086
  959MOL0     H32282   1.120  10.768   6.374 -2.5372  1.3694 -0.1948
  959MOL0     H32283   1.295  10.821   6.136 -0.7314 -0.8283 -0.1507
  959MOL0     H32284   1.341  10.734   6.280 -0.8749  0.3171  0.5196
  959MOL0     H32285   1.241  11.023   6.282  0.1571 -0.6453 -0.4311
  959MOL0     H32286   1.246  10.928   6.426 -0.4538  0.5050 -0.3317
  959MOL0     H32287   1.479  10.955   6.236 -0.1344 -1.2771  1.3919
  959MOL0     H32288   1.484  10.886   6.401 -0.6114 -1.7363 -2.0312
  959MOL0     H32289   1.430  11.167   6.320 -1.1955  0.3342 -0.2366
  959MOL0     H32290   1.406  11.104   6.486  1.3510 -0.8366 -0.0189
  959MOL0     H32291   1.638  10.918   6.551 -0.3823  0.2696  0.2079
  959MOL0     H32292   1.825  10.921   6.688 -2.5903  1.1097  0.3322
  959MOL0     H32293   1.901  11.067   6.744  1.8943 -1.3444  0.3313
  959MOL0     H32294   1.976  10.880   6.513  2.7420  0.0171 -1.0225
  959MOL0     H32295   2.040  11.049   6.525  1.2787 -0.1796 -0.0673
  959MOL0     H32296   2.129  10.991   6.763 -0.9806 -1.7506  1.7010
  959MOL0     H32297   2.068  10.828   6.728 -2.5616  0.2961  0.3072
  959MOL0     H32298   2.261  10.986   6.571  1.5924 -0.4724  1.2224
  959MOL0     H32299   2.299  10.866   6.687  2.3859  0.4815 -2.2085
  959MOL0     H32300   2.323  10.561   6.380  2.2928 -2.2029 -3.4910
  959MOL0     H32301   2.510  10.498   6.110 -0.8458  0.8876  0.5507
  959MOL0     H32302   2.461  10.433   6.264  0.4372 -1.3986 -1.4177
  959MOL0     H32303   2.620  10.502   6.251 -0.2045  0.6772 -1.5672
  959MOL0     H32304   2.910  11.063   6.097  0.1718 -1.0915  0.8630
  959MOL0     H32305   3.102  11.083   5.936  0.6917 -0.7993  0.2581
  959MOL0     H32306   3.106  10.789   5.595  0.2570  0.0443 -1.2969
  959MOL0     H32307   3.065  10.951   5.544 -1.3274 -1.8539 -1.3848
  959MOL0     H32308   3.325  10.804   5.560  2.5900  0.0466 -3.3894
  959MOL0     H32309   3.260  10.901   5.423 -2.5275  0.5426 -0.1715
  959MOL0     H32310   3.390  10.996   5.677 -0.2747 -1.0043  0.2332
  959MOL0     H32311   3.297  11.107   5.563  1.7420  0.7070 -1.4519
  959MOL0     H32312   3.448  11.080   5.392 -0.1916 -0.2496 -0.6455
  959MOL0     H32313   3.546  10.955   5.476 -2.1598 -0.2594 -1.1595
  959MOL0     H32314   3.532  11.227   5.599 -0.0598  2.1867 -3.5645
  959MOL0     H32315   3.625  11.082   5.641 -0.5741  0.0413  0.3823
  959MOL0     H32316   3.745  11.277   5.544  0.5911  2.5017 -1.8638
  959MOL0     H32317   3.642  11.256   5.397 -0.0973  0.3769 -0.0364
  959MOL0     H32318   3.730  11.056   5.336 -1.1359 -0.3773  0.7975
  959MOL0     H32319   3.802  11.038   5.501 -1.9325  0.3773 -0.0046
  959MOL0     H32320   3.985  11.089   5.349 -1.1143 -0.7265  1.6885
  959MOL0     H32321   3.951  11.239   5.439 -1.2971 -0.7878  1.2307
  959MOL0     H32322   2.915  10.793   5.695 -3.2679  2.2283 -1.2381
  959MOL0     H32323   2.737  10.760   5.831  0.6280  0.7905 -1.8241
  959MOL0     H32324   2.516  10.991   6.203 -2.5753 -0.9034 -3.6285
  959MOL0     H32325   2.364  11.003   6.396 -0.5334  0.9574 -1.4495
  959MOL0     H32326   1.430  10.364   6.208 -0.0110  1.1292 -0.5695
  959MOL0     H32327   1.629  10.394   6.072 -0.5700 -1.9192 -0.5857
  959MOL0     H32328   1.963  10.667   5.872 -2.0296  0.6764  1.3463
  959MOL0     H32329   2.132  10.706   5.713 -0.7391  2.1255  0.0360
  959MOL0     H32330   2.238  10.617   5.412 -0.0266 -0.2275 -1.9291
  959MOL0     H32331   2.083  10.519   5.426 -2.4599  2.1725 -0.3492
  959MOL0     H32332   2.204  10.519   5.202  0.6365  0.1374  2.0186
  959MOL0     H32333   2.180  10.692   5.190  1.7192 -1.2280 -1.7819
  959MOL0     H32334   1.920  10.649   5.193 -0.1157 -0.0042 -2.2939
  959MOL0     H32335   2.006  10.559   5.063  3.8334  1.3508 -0.0390
  959MOL0     H32336   1.902  10.459   5.333 -0.7269  0.9649 -0.7753
  959MOL0     H32337   2.034  10.370   5.250 -2.0017 -2.1104  2.2999
  959MOL0     H32338   1.667  10.263   5.044  1.2883 -0.3171 -1.8664
  959MOL0     H32339   1.838  10.693   5.406  1.3355 -0.6443  0.0189
  959MOL0     H32340   1.610  10.523   5.562  0.6336  0.0215 -0.7141
  959MOL0     H32341   1.537  10.669   5.634 -3.1347  0.0530 -3.1564
  959MOL0     H32342   1.605  10.687   5.475 -2.3146  0.5460  0.1352
  960MOL0     O32343   0.967   2.061   6.351 -0.3918  0.4031 -0.3514
  960MOL0     C32344   0.907   1.995   6.437 -0.6261  0.0096 -0.3930
  960MOL0     O32345   0.960   1.980   6.570 -0.1524 -0.4179 -0.1576
  960MOL0     C32346   1.054   2.072   6.611 -0.9787  0.1895  0.2189
  960MOL0     C32347   1.170   2.029   6.678  0.4810 -0.3019 -0.0686
  960MOL0     C32348   1.265   2.119   6.736 -0.2218  0.2428  0.1216
  960MOL0     C32349   1.242   2.259   6.733  0.0025  0.4665  0.4093
  960MOL0     O32350   1.324   2.360   6.783 -0.5305 -0.2860  0.0980
  960MOL0     C32351   1.449   2.328   6.835  0.3194  0.1755 -0.9469
  960MOL0     C32352   1.502   2.465   6.876 -0.3517  0.3933  0.2923
  960MOL0     C32353   1.649   2.455   6.927 -0.4559  0.0562  0.2617
  960MOL0     C32354   1.676   2.581   7.009  0.0984 -0.0290  0.0931
  960MOL0     C32355   1.823   2.593   7.037 -0.2285  0.0326  0.1284
  960MOL0     C32356   1.885   2.510   7.139  0.0006 -0.6640 -0.9866
  960MOL0     C32357   2.030   2.534   7.176  0.1348 -0.1173  0.9023
  960MOL0     C32358   2.075   2.454   7.304  0.9546 -0.6027 -0.2736
  960MOL0     N32359   2.023   2.517   7.431 -0.0835  0.3477  0.1010
  960MOL0     C32360   2.105   2.556   7.533  0.2810 -0.8047  0.0216
  960MOL0     C32361   2.017   2.582   7.640  0.0804 -0.1439 -0.8379
  960MOL0     C32362   2.064   2.648   7.768 -0.7061  0.0518 -0.3459
  960MOL0     C32363   2.077   2.562   7.895  0.7867 -0.0136 -0.9058
  960MOL0     C32364   2.208   2.483   7.884 -0.7403 -0.6641  0.2342
  960MOL0     C32365   2.197   2.349   7.808  0.3712  0.9754  0.9298
  960MOL0     O32366   2.293   2.339   7.705 -1.1962  0.7017 -0.2724
  960MOL0     C32367   2.431   2.353   7.721  0.7764  0.4104  0.1586
  960MOL0     C32368   2.508   2.392   7.614  0.1862 -0.7440 -0.6145
  960MOL0     C32369   2.650   2.392   7.620  0.5533  0.6781 -0.1988
  960MOL0     C32370   2.723   2.424   7.486  0.1863  1.7962  0.2323
  960MOL0     C32371   2.711   2.370   7.745 -0.0483 -0.3408  0.1068
  960MOL0     C32372   2.860   2.375   7.774  0.4442  0.4388  0.6376
  960MOL0     O32373   2.915   2.310   7.894 -0.4519 -0.6631  0.7401
  960MOL0     C32374   3.039   2.344   7.938 -0.5361  0.2356  1.7262
  960MOL0     C32375   3.092   2.475   7.933  0.1010 -0.5654  0.6933
  960MOL0     C32376   3.219   2.508   7.985 -0.9184  0.3964 -0.4309
  960MOL0     C32377   3.303   2.404   8.040 -0.2605 -0.5091  0.2710
  960MOL0     O32378   3.428   2.426   8.085 -0.1044  0.0856  0.8094
  960MOL0     C32379   3.456   2.546   8.160  0.0487 -0.0401 -1.2500
  960MOL0     C32380   3.577   2.533   8.251  0.3749  0.3695  0.9296
  960MOL0     C32381   3.703   2.512   8.159 -0.6825  0.2225 -0.4346
  960MOL0     C32382   3.829   2.563   8.229  0.1073  0.2585 -0.3131
  960MOL0     C32383   3.966   2.560   8.152  0.5126 -0.5332  0.0653
  960MOL0     C32384   4.094   2.603   8.230 -0.0879 -0.7968  0.4852
  960MOL0     C32385   4.211   2.601   8.127 -0.2755  0.2337  0.1173
  960MOL0     C32386   4.331   2.662   8.198 -0.0929 -0.2221 -0.3523
  960MOL0    Cl32387   4.356   2.585   8.356  0.5420  0.0555 -0.4181
  960MOL0     C32388   3.252   2.279   8.046  0.3432  0.5360  0.8128
  960MOL0     C32389   3.118   2.246   7.999 -0.2819  0.3981  0.2805
  960MOL0     O32390   2.929   2.432   7.686  0.0443 -0.0507 -0.3176
  960MOL0     C32391   2.632   2.334   7.851 -0.3441  0.3343 -0.9541
  960MOL0     C32392   2.491   2.324   7.845 -0.8522 -0.3585 -0.6878
  960MOL0     N32393   1.891   2.540   7.608  0.4110  0.1507  0.3983
  960MOL0     N32394   1.900   2.517   7.473 -0.0673 -0.3160 -0.1176
  960MOL0     C32395   1.129   2.296   6.660  0.1945 -0.8427  0.6400
  960MOL0     C32396   1.041   2.207   6.598  0.4192  0.3166  0.4212
  960MOL0     C32397   0.790   1.913   6.397 -0.6940  0.1677 -0.4046
  960MOL0     C32398   0.740   1.944   6.273  0.7058 -0.1520 -0.2074
  960MOL0     C32399   0.647   1.847   6.210 -0.1181 -0.0534 -0.7813
  960MOL0     C32400   0.595   1.741   6.284 -0.1090  0.0912  1.0360
  960MOL0     O32401   0.501   1.660   6.228 -0.4395 -0.8708 -0.0074
  960MOL0     C32402   0.360   1.671   6.287 -0.3237 -0.2582 -0.2446
  960MOL0     C32403   0.241   1.623   6.183 -0.5401  0.3045  0.0154
  960MOL0     C32404   0.280   1.507   6.094 -0.5312  0.2862  0.1138
  960MOL0     C32405   0.174   1.471   5.983 -0.0425  0.1199 -0.9132
  960MOL0     C32406   0.202   1.327   5.938  0.5037  0.4695 -0.1919
  960MOL0     C32407   0.227   1.215   5.902 -0.2233 -0.4293 -0.6149
  960MOL0     C32408   0.639   1.718   6.409 -0.2831  0.2909 -0.7526
  960MOL0     C32409   0.738   1.803   6.472 -0.3507 -0.1393  1.3948
  960MOL0     C32410   0.783   1.780   6.607 -0.1369  0.1812 -0.8197
  960MOL0     H32411   1.195   1.923   6.689 -0.4295 -0.4330  0.8913
  960MOL0     H32412   1.354   2.080   6.786 -0.3015 -0.4954 -0.3000
  960MOL0     H32413   1.514   2.279   6.763 -1.2044 -1.8246 -1.0409
  960MOL0     H32414   1.444   2.255   6.916 -0.7394 -0.6305 -1.7120
  960MOL0     H32415   1.496   2.540   6.797 -0.2830  0.2090  0.1122
  960MOL0     H32416   1.437   2.498   6.958 -2.5236 -0.0663 -1.1571
  960MOL0     H32417   1.670   2.362   6.980 -2.4985  1.4682  3.8633
  960MOL0     H32418   1.706   2.458   6.833  0.2804  1.2520  0.7234
  960MOL0     H32419   1.650   2.671   6.953  1.8231  1.0653  0.9493
  960MOL0     H32420   1.606   2.592   7.092  1.3729  5.0430  0.8183
  960MOL0     H32421   1.832   2.698   7.066  1.0768 -0.4124  1.4397
  960MOL0     H32422   1.884   2.574   6.949 -2.6212 -1.7577 -1.2686
  960MOL0     H32423   1.812   2.525   7.220  0.2599 -0.0144 -0.8633
  960MOL0     H32424   1.876   2.406   7.107 -1.5113 -0.4543 -1.3141
  960MOL0     H32425   2.062   2.634   7.208 -0.7602 -0.0582  1.6473
  960MOL0     H32426   2.098   2.514   7.093 -0.8034  4.9248 -1.4908
  960MOL0     H32427   2.037   2.352   7.295  0.1826 -0.2936 -0.5897
  960MOL0     H32428   2.184   2.449   7.310  1.0637 -2.0684 -2.2963
  960MOL0     H32429   2.210   2.582   7.531 -0.4652  2.7644 -0.6762
  960MOL0     H32430   1.992   2.728   7.785  0.4064  0.9106  0.3954
  960MOL0     H32431   2.158   2.694   7.738 -0.6570  0.6111  0.6331
  960MOL0     H32432   2.065   2.629   7.981  1.0628 -0.8383 -0.2148
  960MOL0     H32433   1.989   2.498   7.906  0.6117 -0.3112 -3.4015
  960MOL0     H32434   2.288   2.543   7.839 -2.3679 -0.9873 -3.4597
  960MOL0     H32435   2.235   2.461   7.988 -3.3339 -0.2323  1.0887
  960MOL0     H32436   2.199   2.269   7.883 -0.8569  0.9220  0.9133
  960MOL0     H32437   2.103   2.345   7.753  0.0701  0.3480  1.4717
  960MOL0     H32438   2.471   2.414   7.515  3.1540  1.7497 -1.3505
  960MOL0     H32439   2.805   2.355   7.462 -2.1512 -0.5210 -1.6602
  960MOL0     H32440   2.756   2.528   7.496  1.4735  1.5145 -0.8219
  960MOL0     H32441   2.646   2.421   7.409  0.7806  0.8423 -0.3509
  960MOL0     H32442   3.037   2.547   7.874 -2.1769 -2.3404  0.4811
  960MOL0     H32443   3.259   2.609   7.979 -0.2871  0.2799  1.1531
  960MOL0     H32444   3.464   2.633   8.094 -1.3961  1.9531  1.0393
  960MOL0     H32445   3.369   2.575   8.220 -0.1409  1.5548 -2.2210
  960MOL0     H32446   3.575   2.629   8.303  3.0503 -0.0282  1.9568
  960MOL0     H32447   3.574   2.462   8.334 -0.0045  0.4466  0.9835
  960MOL0     H32448   3.695   2.567   8.065 -1.8820 -1.5613 -1.4411
  960MOL0     H32449   3.716   2.408   8.129  1.7039  0.7664 -1.4860
  960MOL0     H32450   3.845   2.507   8.321 -1.1148 -0.7001 -0.6614
  960MOL0     H32451   3.824   2.669   8.254 -0.3595  0.6388 -1.8824
  960MOL0     H32452   3.974   2.461   8.107 -1.8413 -1.7285  2.0263
  960MOL0     H32453   3.955   2.628   8.066 -2.6115 -1.1672 -0.1746
  960MOL0     H32454   4.107   2.526   8.307  1.9067 -2.0622 -1.0082
  960MOL0     H32455   4.076   2.705   8.265  1.8302 -0.3726  0.3771
  960MOL0     H32456   4.182   2.650   8.034 -1.5629  1.0549  0.9257
  960MOL0     H32457   4.240   2.498   8.104  0.2913  0.3355  0.3677
  960MOL0     H32458   4.307   2.768   8.209 -2.6556 -0.6115 -1.4074
  960MOL0     H32459   4.413   2.645   8.128  0.3650 -2.7832  0.6768
  960MOL0     H32460   3.310   2.210   8.106  2.0642  1.6954  0.5615
  960MOL0     H32461   3.083   2.148   8.031 -0.0347  0.1432 -0.2159
  960MOL0     H32462   2.677   2.305   7.945  2.8226 -0.8893 -2.6712
  960MOL0     H32463   2.431   2.293   7.931 -0.5048  2.6000  0.7544
  960MOL0     H32464   1.126   2.404   6.664 -0.1505 -0.8402  0.3520
  960MOL0     H32465   0.950   2.245   6.553 -0.5393  0.5953  2.4382
  960MOL0     H32466   0.770   2.032   6.216 -1.6177  0.1445 -1.0692
  960MOL0     H32467   0.621   1.873   6.108  0.9212  1.6060 -0.6670
  960MOL0     H32468   0.355   1.618   6.383  1.6442  2.7237  1.6729
  960MOL0     H32469   0.339   1.775   6.312 -1.3612 -0.5790  0.3122
  960MOL0     H32470   0.209   1.705   6.119 -0.3948  1.9773  2.0045
  960MOL0     H32471   0.150   1.585   6.229 -0.4276 -1.5085 -1.1486
  960MOL0     H32472   0.364   1.552   6.041  1.0412 -1.3203  1.1311
  960MOL0     H32473   0.304   1.419   6.155 -1.6934  1.8145  2.9966
  960MOL0     H32474   0.195   1.539   5.899  2.1332 -0.4122 -0.8662
  960MOL0     H32475   0.071   1.469   6.019 -0.0949 -0.6001 -1.0833
  960MOL0     H32476   0.254   1.114   5.882  0.3187 -1.1886  3.1860
  960MOL0     H32477   0.601   1.636   6.469 -0.5089  0.0350 -1.2371
  960MOL0     H32478   0.737   1.688   6.645 -0.7500  0.6381 -0.4211
  960MOL0     H32479   0.890   1.761   6.619 -0.6958 -2.0891  1.4489
  960MOL0     H32480   0.745   1.866   6.663 -1.0654 -0.2471 -0.7721
  961MOL0     O32481   0.753   5.355   5.000  0.3205 -0.1086  0.0460
  961MOL0     C32482   0.735   5.236   5.005 -0.5789 -0.7570 -0.4880
  961MOL0     O32483   0.825   5.134   5.023 -0.1800  0.2862 -0.0016
  961MOL0     C32484   0.962   5.146   5.028  0.0267 -0.4062 -0.1753
  961MOL0     C32485   1.045   5.030   5.027  0.2921  0.0871  0.0542
  961MOL0     C32486   1.186   5.040   5.039 -0.8368 -0.1375 -0.3419
  961MOL0     C32487   1.248   5.164   5.033 -0.5233  0.0726 -0.4913
  961MOL0     O32488   1.388   5.188   5.043  0.1518 -0.5034  0.2599
  961MOL0     C32489   1.482   5.083   5.038 -0.3649 -0.5082 -0.7830
  961MOL0     C32490   1.493   5.052   4.890 -0.3305  0.0693 -1.6984
  961MOL0     C32491   1.567   4.916   4.876 -0.0858 -0.5594 -0.5218
  961MOL0     C32492   1.613   4.889   4.730  0.5949 -0.0578 -0.4968
  961MOL0     C32493   1.625   4.740   4.701  0.8251 -0.1862 -0.4833
  961MOL0     C32494   1.650   4.727   4.552 -0.3336  0.0006  0.0262
  961MOL0     C32495   1.646   4.579   4.523  0.5107  1.2466  0.0236
  961MOL0     C32496   1.504   4.511   4.516 -1.2672 -0.3157  0.2369
  961MOL0     N32497   1.407   4.580   4.438  0.0392 -0.5196  0.5298
  961MOL0     C32498   1.403   4.579   4.301 -0.3645 -0.4819  0.4028
  961MOL0     C32499   1.286   4.647   4.265  0.3545 -0.7568  0.1568
  961MOL0     C32500   1.223   4.651   4.122 -0.2357  0.6221 -0.0143
  961MOL0     C32501   1.330   4.689   4.026 -0.1627 -1.1486 -0.0901
  961MOL0     C32502   1.279   4.740   3.893 -0.0913  0.4023 -0.9223
  961MOL0     C32503   1.161   4.665   3.829 -0.2786  0.0851 -0.1261
  961MOL0     O32504   1.200   4.540   3.780 -0.4094 -0.0085  0.0122
  961MOL0     C32505   1.130   4.425   3.828  0.1735 -0.2793 -0.5040
  961MOL0     C32506   0.989   4.429   3.850  0.3351  0.0142 -0.5252
  961MOL0     C32507   0.922   4.310   3.882 -0.1354 -0.5613  0.2895
  961MOL0     C32508   0.770   4.342   3.897  0.3390  0.1544  0.0785
  961MOL0     C32509   0.984   4.188   3.900 -0.1948  1.3441  0.7296
  961MOL0     C32510   0.910   4.064   3.931 -1.0410 -0.6860 -0.3373
  961MOL0     O32511   0.781   4.046   3.891  0.3173  0.4240 -0.1880
  961MOL0     C32512   0.716   3.939   3.954 -0.1178  1.0732  0.4781
  961MOL0     C32513   0.713   3.804   3.908  0.9811  0.6868 -0.2421
  961MOL0     C32514   0.640   3.710   3.977  0.5709 -0.3450  0.1147
  961MOL0     C32515   0.592   3.740   4.109  0.2858  0.5394 -0.2052
  961MOL0     O32516   0.515   3.662   4.189  0.3463  0.9772 -0.6263
  961MOL0     C32517   0.475   3.529   4.153 -0.6194 -0.3892  0.2213
  961MOL0     C32518   0.392   3.472   4.270 -0.2527 -0.1822 -0.1770
  961MOL0     C32519   0.291   3.364   4.216  0.5261 -0.4300  0.1388
  961MOL0     C32520   0.155   3.408   4.265 -0.5260 -0.4655 -0.1852
  961MOL0     C32521   0.045   3.341   4.192 -0.5912  0.2043  0.3340
  961MOL0     C32522  -0.090   3.379   4.246 -0.2153  0.2881 -0.2005
  961MOL0     C32523  -0.212   3.305   4.169 -0.9445 -0.2033 -0.6379
  961MOL0     C32524  -0.185   3.169   4.107 -0.1126  0.1463  0.8415
  961MOL0    Cl32525  -0.336   3.074   4.088  0.0242  0.2616 -0.3285
  961MOL0     C32526   0.610   3.866   4.155  0.4788 -0.3481 -0.1835
  961MOL0     C32527   0.674   3.970   4.080  0.5707  0.9947 -0.1579
  961MOL0     O32528   0.968   3.988   4.011 -0.3051 -0.3214 -0.1855
  961MOL0     C32529   1.122   4.186   3.869  1.6369  0.1546 -0.5247
  961MOL0     C32530   1.188   4.304   3.846 -0.7814 -0.5865 -0.1551
  961MOL0     N32531   1.235   4.703   4.381  0.7047  0.3019  0.5346
  961MOL0     N32532   1.311   4.665   4.486  0.5968 -0.4085 -0.0848
  961MOL0     C32533   1.164   5.274   5.028 -0.4672 -0.1200 -0.2056
  961MOL0     C32534   1.023   5.272   5.035 -0.0192  0.7356  0.6890
  961MOL0     C32535   0.592   5.198   4.980 -0.4624 -0.2372 -0.3548
  961MOL0     C32536   0.520   5.268   4.880 -0.0305 -0.2322  0.1126
  961MOL0     C32537   0.380   5.242   4.866  0.5913  0.8902 -1.5904
  961MOL0     C32538   0.319   5.143   4.940 -0.3672 -0.7994 -1.0432
  961MOL0     O32539   0.186   5.107   4.916 -0.0071  0.2994  0.6420
  961MOL0     C32540   0.106   5.017   4.996  0.6060  0.4907  0.5588
  961MOL0     C32541  -0.036   5.020   4.927 -0.2136  0.8919  0.3511
  961MOL0     C32542  -0.102   5.159   4.939 -0.6809 -0.3348 -0.3750
  961MOL0     C32543  -0.233   5.161   4.858  0.6542  0.0416 -0.5484
  961MOL0     C32544  -0.298   5.296   4.870  0.6911 -0.6414  0.6197
  961MOL0     C32545  -0.368   5.393   4.893 -0.4302 -0.1715  0.0717
  961MOL0     C32546   0.399   5.074   5.038  0.6954 -0.0799  1.0162
  961MOL0     C32547   0.533   5.092   5.046 -0.0788  0.2128  0.1046
  961MOL0     C32548   0.607   4.996   5.145 -0.2795  0.3206  0.5414
  961MOL0     H32549   1.006   4.928   5.025  0.9592 -0.2815  2.3779
  961MOL0     H32550   1.243   4.949   5.023  1.8696  1.9545 -4.0861
  961MOL0     H32551   1.459   4.995   5.098  0.7785 -1.3516 -1.5279
  961MOL0     H32552   1.577   5.124   5.074 -1.7746  3.0209 -0.6881
  961MOL0     H32553   1.403   5.055   4.827 -0.1589 -0.5744 -1.9880
  961MOL0     H32554   1.560   5.122   4.839 -0.0606  0.4175 -0.8734
  961MOL0     H32555   1.651   4.908   4.945  0.6516 -3.4467 -1.5987
  961MOL0     H32556   1.502   4.836   4.913  0.1754  0.2764  1.9278
  961MOL0     H32557   1.548   4.943   4.660  2.0975  0.4739 -1.5276
  961MOL0     H32558   1.705   4.945   4.714 -0.6422  1.8443 -1.3202
  961MOL0     H32559   1.528   4.691   4.715 -1.1685  3.5909  0.4038
  961MOL0     H32560   1.690   4.707   4.782 -1.1670  1.9642  2.2091
  961MOL0     H32561   1.566   4.773   4.498 -1.8119 -1.0859  1.3044
  961MOL0     H32562   1.746   4.771   4.526 -1.2308  1.4818 -0.9181
  961MOL0     H32563   1.711   4.523   4.590 -0.1963 -0.3145 -0.5436
  961MOL0     H32564   1.679   4.564   4.420  0.5373 -1.3046  0.3441
  961MOL0     H32565   1.516   4.416   4.463 -1.8843  0.1145 -0.7058
  961MOL0     H32566   1.454   4.496   4.612  0.7513  2.5931  1.9070
  961MOL0     H32567   1.471   4.526   4.235 -0.6928  1.0508 -1.2232
  961MOL0     H32568   1.142   4.724   4.129 -0.5934  0.0698  2.6795
  961MOL0     H32569   1.172   4.554   4.107  0.6997 -1.1531  5.7860
  961MOL0     H32570   1.403   4.762   4.062 -1.5487 -0.1623  0.8448
  961MOL0     H32571   1.383   4.596   4.004  2.5153  0.3156 -0.2175
  961MOL0     H32572   1.251   4.844   3.914  1.9413  0.3804  2.7217
  961MOL0     H32573   1.360   4.753   3.821  0.5706 -0.7839 -0.4199
  961MOL0     H32574   1.076   4.662   3.897  1.4717  0.8171  2.2145
  961MOL0     H32575   1.129   4.722   3.741 -2.6752  1.4959  1.5593
  961MOL0     H32576   0.936   4.521   3.829 -2.5929 -1.2002  0.8422
  961MOL0     H32577   0.754   4.449   3.913 -0.4538  0.0708 -0.0999
  961MOL0     H32578   0.724   4.304   3.988 -2.1328  2.0439 -0.2606
  961MOL0     H32579   0.703   4.302   3.820  0.2759  2.7106 -1.3204
  961MOL0     H32580   0.749   3.785   3.808  2.0574  1.2507  0.0193
  961MOL0     H32581   0.610   3.614   3.937  0.8289 -0.2411 -0.3304
  961MOL0     H32582   0.418   3.533   4.060  0.2376  0.5158 -0.2748
  961MOL0     H32583   0.567   3.474   4.131 -0.6751  0.7518 -3.5586
  961MOL0     H32584   0.462   3.429   4.342 -0.7691 -0.4707  0.1608
  961MOL0     H32585   0.343   3.560   4.311  1.6925  1.6841 -1.6014
  961MOL0     H32586   0.320   3.270   4.263  3.9107  1.4977  2.2946
  961MOL0     H32587   0.292   3.354   4.107 -0.2977  2.7219 -0.2644
  961MOL0     H32588   0.141   3.514   4.240 -1.8839 -0.5875  0.0007
  961MOL0     H32589   0.157   3.402   4.374  0.4722  1.0923 -0.0883
  961MOL0     H32590   0.043   3.367   4.086 -1.8979 -1.8582 -0.2141
  961MOL0     H32591   0.049   3.232   4.205 -0.5273  0.4244  2.4616
  961MOL0     H32592  -0.106   3.487   4.246 -2.7058 -0.0260  0.6396
  961MOL0     H32593  -0.095   3.340   4.348  2.0459 -3.1976 -1.2477
  961MOL0     H32594  -0.243   3.380   4.096 -1.6354  2.8964  2.5368
  961MOL0     H32595  -0.294   3.300   4.241 -0.3803  0.1297  0.0457
  961MOL0     H32596  -0.126   3.109   4.178 -0.8899  1.2441  2.4650
  961MOL0     H32597  -0.137   3.172   4.009 -1.6424 -0.0199  0.0708
  961MOL0     H32598   0.577   3.892   4.255  1.9400 -1.2619  0.5803
  961MOL0     H32599   0.695   4.070   4.117  2.6258 -0.0181  1.6354
  961MOL0     H32600   1.180   4.094   3.870  2.3371  0.5083  2.7719
  961MOL0     H32601   1.293   4.285   3.826 -0.6243 -0.3537  0.4105
  961MOL0     H32602   1.216   5.370   5.029  1.7650 -1.1732  2.9486
  961MOL0     H32603   0.973   5.368   5.035 -2.0999 -0.2382  3.2863
  961MOL0     H32604   0.576   5.318   4.802 -0.4310  1.1527  0.6856
  961MOL0     H32605   0.317   5.293   4.793 -0.7060  4.1101  1.4946
  961MOL0     H32606   0.147   4.915   4.995 -1.2396 -0.2869 -0.7535
  961MOL0     H32607   0.087   5.050   5.099  0.4869  3.5812 -0.3476
  961MOL0     H32608  -0.111   4.944   4.954  0.0570  0.6130  0.3280
  961MOL0     H32609  -0.018   4.992   4.822 -2.4318 -0.9810  0.3818
  961MOL0     H32610  -0.122   5.192   5.041 -2.1377  2.9746 -1.5765
  961MOL0     H32611  -0.042   5.240   4.897 -1.9732  1.5642  1.2319
  961MOL0     H32612  -0.301   5.079   4.883 -0.1267  0.6742 -0.5846
  961MOL0     H32613  -0.200   5.150   4.754  1.0498 -0.9182 -0.3395
  961MOL0     H32614  -0.416   5.488   4.910 -1.9209 -1.2792  2.4858
  961MOL0     H32615   0.358   4.991   5.094  1.5842 -2.8373 -2.0718
  961MOL0     H32616   0.545   4.924   5.200  0.0037  0.1462  0.6358
  961MOL0     H32617   0.686   4.947   5.088 -1.7854  0.2202 -1.5951
  961MOL0     H32618   0.651   5.062   5.221  0.4234 -0.2985  0.6851
  962MOL0     O32619   7.095   6.805   2.369  0.2818 -0.8434 -0.4983
  962MOL0     C32620   7.009   6.796   2.284 -0.5884 -0.2370  0.6060
  962MOL0     O32621   7.004   6.875   2.170  0.3593 -0.1876  0.5310
  962MOL0     C32622   7.120   6.938   2.131 -0.2685  1.2235 -0.1715
  962MOL0     C32623   7.164   6.913   1.998  0.0557  0.1032  0.1682
  962MOL0     C32624   7.265   6.987   1.947  0.0316  0.5390  0.5449
  962MOL0     C32625   7.316   7.103   2.015 -0.3371  0.1406 -0.5410
  962MOL0     O32626   7.413   7.185   1.977 -0.1913 -0.0671 -0.6797
  962MOL0     C32627   7.493   7.144   1.869  0.4693 -0.4841 -0.5803
  962MOL0     C32628   7.592   7.251   1.830  0.4083 -0.1981 -0.1935
  962MOL0     C32629   7.703   7.194   1.749 -0.9571  0.2844 -0.2238
  962MOL0     C32630   7.851   7.210   1.815  0.1114 -0.2425  0.1117
  962MOL0     C32631   7.895   7.082   1.888  0.0011 -0.3885  0.0587
  962MOL0     C32632   8.049   7.078   1.920  1.1586 -0.8399  0.7025
  962MOL0     C32633   8.096   6.958   2.007  0.3506 -0.5297 -0.5214
  962MOL0     C32634   8.238   6.969   2.061  0.4875 -0.1533  0.3578
  962MOL0     N32635   8.344   6.957   1.969 -0.2694  0.6187  0.3922
  962MOL0     C32636   8.382   7.030   1.863  0.1284 -0.1491  0.4589
  962MOL0     C32637   8.507   6.991   1.826  0.5679 -0.1692 -0.4891
  962MOL0     C32638   8.593   7.033   1.713 -0.4930 -0.3089  0.1752
  962MOL0     C32639   8.503   7.035   1.587 -0.2830  0.1966  0.7004
  962MOL0     C32640   8.449   6.900   1.541 -0.2100 -0.4480 -0.9441
  962MOL0     C32641   8.533   6.837   1.436 -0.3408 -0.1853  0.5260
  962MOL0     O32642   8.509   6.886   1.303 -0.0995  0.6769 -0.5790
  962MOL0     C32643   8.560   6.844   1.186 -0.3247  0.2524  0.3640
  962MOL0     C32644   8.635   6.730   1.165 -0.4922  0.6327  0.1222
  962MOL0     C32645   8.710   6.696   1.051 -0.4467 -1.2937  0.4345
  962MOL0     C32646   8.795   6.573   1.053  0.3877 -0.1344 -0.4540
  962MOL0     C32647   8.695   6.787   0.945  0.3602 -0.5017  0.2680
  962MOL0     C32648   8.744   6.758   0.813  0.1778  0.0745  0.3098
  962MOL0     O32649   8.865   6.715   0.795 -0.5680 -0.2953 -0.5390
  962MOL0     C32650   8.967   6.798   0.757  0.3098 -0.2162  0.3458
  962MOL0     C32651   9.094   6.741   0.745  0.4300  0.2654 -0.7404
  962MOL0     C32652   9.200   6.814   0.686 -0.8194  0.3184 -0.5069
  962MOL0     C32653   9.188   6.946   0.651  0.6973  1.1259 -0.2035
  962MOL0     O32654   9.299   7.006   0.604 -0.5228  0.1006 -0.7072
  962MOL0     C32655   9.288   7.144   0.605 -1.1531 -0.3086  0.0119
  962MOL0     C32656   9.431   7.201   0.583  0.9701  0.5437 -0.6296
  962MOL0     C32657   9.440   7.356   0.579  0.2513 -0.1775  0.0647
  962MOL0     C32658   9.378   7.429   0.461  0.0719 -0.5098  0.4615
  962MOL0     C32659   9.464   7.411   0.328  0.5275 -0.1191 -0.0007
  962MOL0     C32660   9.610   7.407   0.342  0.2558  0.2140  0.0753
  962MOL0     C32661   9.691   7.403   0.206 -0.0651  0.5256  0.1114
  962MOL0     C32662   9.847   7.385   0.228  0.6420 -0.1530  0.2655
  962MOL0    Cl32663   9.912   7.520   0.318 -0.0934 -0.2084 -0.3589
  962MOL0     C32664   9.059   7.001   0.666 -0.3209  0.0602 -0.4881
  962MOL0     C32665   8.953   6.935   0.721  0.3992 -0.0278 -0.7108
  962MOL0     O32666   8.657   6.767   0.717 -0.3917  0.0978  0.0757
  962MOL0     C32667   8.601   6.893   0.955  0.1783  0.6928 -0.1054
  962MOL0     C32668   8.542   6.922   1.075  0.1146  0.4083  0.0425
  962MOL0     N32669   8.538   6.878   1.904 -0.3576 -0.0272  0.3167
  962MOL0     N32670   8.445   6.864   1.992 -0.3704  0.2060  1.1442
  962MOL0     C32671   7.263   7.128   2.143 -0.4968  0.5752 -0.7830
  962MOL0     C32672   7.170   7.044   2.204  0.6077 -0.1377  0.0246
  962MOL0     C32673   6.897   6.699   2.306 -0.0484  0.3781 -0.0185
  962MOL0     C32674   6.817   6.662   2.200  0.1846 -0.3073 -0.2106
  962MOL0     C32675   6.703   6.579   2.222 -0.6532  0.1659 -0.3028
  962MOL0     C32676   6.667   6.534   2.350 -0.7759 -0.2870 -0.3434
  962MOL0     O32677   6.561   6.450   2.352  0.0598  0.3724 -0.0718
  962MOL0     C32678   6.490   6.489   2.470 -0.0733  0.2456  0.1137
  962MOL0     C32679   6.345   6.431   2.475 -0.9401  1.0995  0.0024
  962MOL0     C32680   6.344   6.276   2.512 -0.3030 -0.0395 -0.1519
  962MOL0     C32681   6.352   6.259   2.665 -0.1622  0.5307  0.8762
  962MOL0     C32682   6.389   6.117   2.696  0.1875 -0.4105  0.1152
  962MOL0     C32683   6.406   6.011   2.745 -0.4751 -0.3260 -0.1941
  962MOL0     C32684   6.751   6.564   2.453  0.4689 -0.3056  0.0720
  962MOL0     C32685   6.866   6.640   2.435  0.0511  0.0856  0.9899
  962MOL0     C32686   6.955   6.659   2.551 -0.1229  0.2798  0.0457
  962MOL0     H32687   7.108   6.839   1.943 -3.4980 -0.1934  3.7261
  962MOL0     H32688   7.305   6.957   1.850 -3.4156 -1.8384 -0.3276
  962MOL0     H32689   7.423   7.126   1.787 -0.1950  0.0867 -0.1604
  962MOL0     H32690   7.531   7.045   1.894  0.8705 -0.0434  0.6174
  962MOL0     H32691   7.541   7.327   1.770  2.6803 -1.6337 -4.3328
  962MOL0     H32692   7.628   7.300   1.922 -0.7422 -0.1000  0.2223
  962MOL0     H32693   7.688   7.086   1.753  1.5567 -0.0985  1.6715
  962MOL0     H32694   7.707   7.240   1.649 -2.1391  2.1029  0.5289
  962MOL0     H32695   7.928   7.246   1.747 -3.7588  2.7985 -3.1626
  962MOL0     H32696   7.848   7.279   1.900  2.2846 -0.6186  0.5641
  962MOL0     H32697   7.858   6.987   1.849 -3.2178  0.4918  0.6864
  962MOL0     H32698   7.841   7.090   1.983 -1.5157 -0.7906 -0.7492
  962MOL0     H32699   8.112   7.093   1.832  0.1831 -0.2052  0.0855
  962MOL0     H32700   8.070   7.172   1.971  2.0239 -0.2167 -0.7193
  962MOL0     H32701   8.088   6.865   1.949  2.8083 -2.2861  1.7297
  962MOL0     H32702   8.033   6.954   2.097 -0.5417 -0.9027 -1.1406
  962MOL0     H32703   8.244   7.066   2.112 -0.4625 -0.1335  0.4672
  962MOL0     H32704   8.253   6.896   2.141 -1.2794 -0.3022  0.6122
  962MOL0     H32705   8.328   7.116   1.823 -0.1567 -1.5635 -2.4588
  962MOL0     H32706   8.678   6.967   1.692 -0.2580  0.5049 -1.6169
  962MOL0     H32707   8.625   7.137   1.725  0.6509 -0.8555  2.7113
  962MOL0     H32708   8.420   7.106   1.593  0.0898  0.7620 -0.4348
  962MOL0     H32709   8.556   7.073   1.499 -2.1283 -0.0897 -0.5883
  962MOL0     H32710   8.426   6.836   1.627 -0.0124  1.2388  0.4034
  962MOL0     H32711   8.350   6.931   1.506 -1.8117  0.2354  3.6053
  962MOL0     H32712   8.640   6.832   1.458  0.3385 -3.3478 -2.7192
  962MOL0     H32713   8.505   6.732   1.438 -1.2650  0.0347 -0.2578
  962MOL0     H32714   8.650   6.659   1.246  0.6219 -1.0965 -1.5027
  962MOL0     H32715   8.894   6.610   1.083 -0.6970  0.7486  2.3335
  962MOL0     H32716   8.799   6.531   0.952  1.0616 -1.4306  0.0846
  962MOL0     H32717   8.753   6.504   1.126  2.4562  0.4157  1.3685
  962MOL0     H32718   9.106   6.636   0.771 -1.6902  0.8333  3.1257
  962MOL0     H32719   9.300   6.775   0.671  0.8963  4.5273 -1.3029
  962MOL0     H32720   9.225   7.182   0.524 -2.9945 -2.0061  0.5715
  962MOL0     H32721   9.262   7.173   0.707 -2.3722 -1.8736  0.1902
  962MOL0     H32722   9.488   7.155   0.664  1.4888  0.3751 -1.0913
  962MOL0     H32723   9.473   7.155   0.493  0.9564 -2.2779  0.6857
  962MOL0     H32724   9.544   7.390   0.587  0.4356 -0.8111  0.4455
  962MOL0     H32725   9.390   7.380   0.673  1.3007 -0.1353  0.6343
  962MOL0     H32726   9.383   7.538   0.474  3.5537 -0.5141  0.1552
  962MOL0     H32727   9.275   7.396   0.446 -0.1865 -0.2200  1.5397
  962MOL0     H32728   9.445   7.316   0.277 -0.4726 -0.0385  0.2187
  962MOL0     H32729   9.435   7.488   0.256 -1.9045 -3.7421 -3.3371
  962MOL0     H32730   9.645   7.337   0.419  0.7761  2.7297  2.2681
  962MOL0     H32731   9.642   7.502   0.384  0.2649  0.1703  0.1678
  962MOL0     H32732   9.661   7.496   0.157  0.0452 -0.5125 -2.0365
  962MOL0     H32733   9.656   7.319   0.145 -2.7304  2.1349 -0.7304
  962MOL0     H32734   9.899   7.394   0.132 -0.7541 -0.3631 -0.5475
  962MOL0     H32735   9.865   7.283   0.263 -2.5215 -0.6778  0.6482
  962MOL0     H32736   9.045   7.106   0.643  3.6251  0.5086 -1.5948
  962MOL0     H32737   8.854   6.979   0.727 -0.2921 -1.7316  2.3468
  962MOL0     H32738   8.591   6.955   0.867  0.9998 -1.1604 -1.5759
  962MOL0     H32739   8.471   7.004   1.080  0.0319  0.3781 -0.6314
  962MOL0     H32740   7.276   7.225   2.190  0.6204  0.9596 -1.8251
  962MOL0     H32741   7.126   7.069   2.299 -2.3552  2.2122 -1.8022
  962MOL0     H32742   6.846   6.698   2.101  0.2647  3.2450  0.9776
  962MOL0     H32743   6.652   6.554   2.129 -1.3910  0.4642  0.0163
  962MOL0     H32744   6.547   6.447   2.554 -0.0062  0.4432  0.1669
  962MOL0     H32745   6.486   6.598   2.475 -1.6398  0.1407  1.8834
  962MOL0     H32746   6.299   6.447   2.377 -0.1525  2.3853 -0.1760
  962MOL0     H32747   6.281   6.477   2.550 -0.1269  0.3021  1.2228
  962MOL0     H32748   6.252   6.236   2.471  0.1358 -0.4628 -0.7353
  962MOL0     H32749   6.421   6.225   2.454 -1.5938 -4.0672  1.3287
  962MOL0     H32750   6.261   6.302   2.708 -0.8232 -1.8220  2.0474
  962MOL0     H32751   6.435   6.318   2.703 -0.1552  2.0548 -1.3407
  962MOL0     H32752   6.421   5.917   2.796 -2.1006 -0.0200  0.9361
  962MOL0     H32753   6.738   6.530   2.555  0.4551 -1.9385 -0.4503
  962MOL0     H32754   7.061   6.640   2.538  0.4571  1.6778  2.2016
  962MOL0     H32755   6.954   6.762   2.587  2.2318  0.7133 -0.9596
  962MOL0     H32756   6.924   6.594   2.634  0.3272  1.3060  1.0360
  963MOL0     O32757   4.280   3.514   5.439  0.2029  0.5981 -0.2180
  963MOL0     C32758   4.240   3.453   5.342 -0.6186 -0.6461  0.6509
  963MOL0     O32759   4.259   3.314   5.325 -0.4835 -0.2040 -0.5332
  963MOL0     C32760   4.312   3.247   5.436 -0.6161  0.7596  0.1165
  963MOL0     C32761   4.409   3.145   5.402 -0.4155 -1.2365 -0.4662
  963MOL0     C32762   4.466   3.060   5.500 -0.0541  1.0745  0.2110
  963MOL0     C32763   4.429   3.092   5.635 -0.3841  0.8995  0.0133
  963MOL0     O32764   4.501   3.041   5.740  0.0570  0.1232  0.2010
  963MOL0     C32765   4.622   2.969   5.725  0.6732  0.0504 -0.3124
  963MOL0     C32766   4.736   3.042   5.649 -0.5100  0.4583 -0.6807
  963MOL0     C32767   4.803   3.143   5.746  0.7020 -1.1770  0.0336
  963MOL0     C32768   4.873   3.268   5.693 -0.6299  0.6915  0.0518
  963MOL0     C32769   4.990   3.241   5.598 -0.8653 -0.3705 -0.0864
  963MOL0     C32770   5.117   3.214   5.682  0.4290  0.8906  0.6519
  963MOL0     C32771   5.221   3.142   5.596 -0.1447  0.0173  0.1271
  963MOL0     C32772   5.314   3.043   5.666 -0.4613  0.3884 -1.6841
  963MOL0     N32773   5.400   2.959   5.586 -0.6678  0.4831 -0.0642
  963MOL0     C32774   5.520   2.903   5.630  0.8217 -0.4509  0.0926
  963MOL0     C32775   5.570   2.856   5.508 -0.3370 -0.2951 -0.7349
  963MOL0     C32776   5.692   2.775   5.491 -0.4781  0.9105  0.5529
  963MOL0     C32777   5.670   2.651   5.412 -0.7775 -0.1185 -0.6961
  963MOL0     C32778   5.799   2.556   5.410 -0.9820  0.2454  0.4434
  963MOL0     C32779   5.925   2.641   5.374 -0.1707  0.1750  0.4012
  963MOL0     O32780   5.977   2.717   5.475 -0.0718  0.5023  0.0381
  963MOL0     C32781   6.038   2.836   5.457 -0.4381  0.6177  0.4724
  963MOL0     C32782   6.092   2.882   5.333 -0.1976 -0.1709 -0.1692
  963MOL0     C32783   6.163   2.999   5.318 -0.1154  0.1363 -0.2633
  963MOL0     C32784   6.199   3.041   5.179 -0.6891 -0.5820  0.9390
  963MOL0     C32785   6.175   3.081   5.430 -1.1705  1.0700 -0.6635
  963MOL0     C32786   6.252   3.203   5.428  0.4936 -1.2111  0.5225
  963MOL0     O32787   6.202   3.294   5.515  0.0859 -0.4856 -0.0587
  963MOL0     C32788   6.282   3.391   5.563 -1.0865  0.2260 -0.6617
  963MOL0     C32789   6.215   3.489   5.634 -1.9777 -0.5805  0.2903
  963MOL0     C32790   6.286   3.603   5.700  0.3076 -1.2574  0.5978
  963MOL0     C32791   6.427   3.615   5.696  0.7042  0.1144 -0.2476
  963MOL0     O32792   6.496   3.726   5.737 -0.1003 -0.5562 -0.0969
  963MOL0     C32793   6.498   3.834   5.644 -0.5714 -0.1370  0.0646
  963MOL0     C32794   6.630   3.838   5.566 -0.2639  0.1143 -1.2409
  963MOL0     C32795   6.753   3.862   5.665 -0.1015  0.3678 -0.8032
  963MOL0     C32796   6.874   3.840   5.566 -0.0871  0.6436 -0.4683
  963MOL0     C32797   7.011   3.868   5.634 -0.6718 -0.1514 -0.4244
  963MOL0     C32798   7.131   3.878   5.532 -0.4130 -0.3667  0.0943
  963MOL0     C32799   7.177   3.737   5.497 -1.0944  0.3685 -0.4291
  963MOL0     C32800   7.307   3.763   5.429  0.0655  0.3497 -0.4216
  963MOL0    Cl32801   7.381   3.615   5.391  0.2404 -0.3325  0.6536
  963MOL0     C32802   6.496   3.517   5.618 -0.7895 -0.6353 -0.1119
  963MOL0     C32803   6.428   3.409   5.552  0.3261 -0.0401 -0.5414
  963MOL0     O32804   6.360   3.207   5.363  0.3181  0.5988 -0.3605
  963MOL0     C32805   6.124   3.032   5.558  0.3606 -1.0788  0.4256
  963MOL0     C32806   6.053   2.916   5.566 -0.5339 -0.6123  0.2098
  963MOL0     N32807   5.491   2.884   5.400  0.4213 -0.1690  0.1569
  963MOL0     N32808   5.385   2.941   5.452  0.4005 -0.1861 -0.2392
  963MOL0     C32809   4.331   3.184   5.667  1.0251 -1.0581  0.2203
  963MOL0     C32810   4.276   3.264   5.569 -0.0854  0.1732 -0.4027
  963MOL0     C32811   4.140   3.525   5.248 -0.9164  0.1129 -0.5431
  963MOL0     C32812   4.093   3.457   5.141  1.2328 -0.2570  0.4209
  963MOL0     C32813   4.000   3.520   5.050 -0.7667  0.4030 -0.0458
  963MOL0     C32814   3.951   3.652   5.072  0.4645  0.2878 -0.9417
  963MOL0     O32815   3.838   3.677   4.992 -0.6924  0.2508  0.2389
  963MOL0     C32816   3.771   3.805   5.006  0.8798  0.0292  0.0298
  963MOL0     C32817   3.659   3.802   5.112  0.0566  0.1882  0.1831
  963MOL0     C32818   3.559   3.684   5.101  0.3223 -0.0154  0.2901
  963MOL0     C32819   3.437   3.700   5.189 -0.1030 -0.0901 -0.1223
  963MOL0     C32820   3.466   3.699   5.335  0.4017  0.2296  0.3515
  963MOL0     C32821   3.495   3.711   5.451  1.3617 -0.1939  0.7461
  963MOL0     C32822   4.014   3.719   5.174  0.2967  0.1031 -0.4605
  963MOL0     C32823   4.102   3.661   5.262 -0.3603  0.0752 -0.6884
  963MOL0     C32824   4.138   3.749   5.391 -0.5981  0.3201 -0.6279
  963MOL0     H32825   4.423   3.127   5.296  1.2934 -1.8381 -0.1691
  963MOL0     H32826   4.529   2.975   5.476  2.1689  2.6390  0.2432
  963MOL0     H32827   4.600   2.874   5.674 -0.4696  0.7906 -1.2553
  963MOL0     H32828   4.659   2.952   5.826  0.3577  3.6087  0.5421
  963MOL0     H32829   4.803   2.958   5.626 -1.1620 -0.3747  0.3422
  963MOL0     H32830   4.708   3.105   5.564 -0.2356  0.0739 -1.0626
  963MOL0     H32831   4.723   3.182   5.810  2.2923 -0.7273  1.8130
  963MOL0     H32832   4.871   3.084   5.807  1.7938  0.9765  1.0110
  963MOL0     H32833   4.802   3.340   5.649 -0.5915  0.9490  0.4026
  963MOL0     H32834   4.921   3.310   5.782  0.2377 -2.3620  1.1413
  963MOL0     H32835   5.017   3.326   5.534  1.9672  0.1283  1.6139
  963MOL0     H32836   4.969   3.160   5.527  1.2152 -1.4063  0.4125
  963MOL0     H32837   5.153   3.309   5.723  1.4103  0.2162  1.4188
  963MOL0     H32838   5.094   3.155   5.771  0.5773  2.4400  1.7448
  963MOL0     H32839   5.274   3.212   5.531 -0.7815  0.5958  0.2234
  963MOL0     H32840   5.165   3.081   5.524 -1.1036  0.9448  0.0676
  963MOL0     H32841   5.374   3.103   5.735  1.7703 -3.8868  0.5400
  963MOL0     H32842   5.246   2.973   5.716  0.0277  0.5904 -0.7218
  963MOL0     H32843   5.562   2.889   5.729 -0.4436 -0.2544  0.6700
  963MOL0     H32844   5.737   2.768   5.591  1.8188  0.8134 -0.4349
  963MOL0     H32845   5.765   2.830   5.431 -0.6515  0.2079 -0.3204
  963MOL0     H32846   5.585   2.603   5.461 -1.1108  2.4255  1.4648
  963MOL0     H32847   5.656   2.685   5.309  3.8419  0.6648 -1.2859
  963MOL0     H32848   5.814   2.500   5.502 -0.5068 -2.6902 -1.3090
  963MOL0     H32849   5.773   2.472   5.345 -2.1864  0.6074  0.4302
  963MOL0     H32850   6.011   2.586   5.335 -0.3219 -0.1023  0.4561
  963MOL0     H32851   5.886   2.702   5.292 -0.8235 -3.0936 -1.8930
  963MOL0     H32852   6.071   2.828   5.242 -0.1885  2.4514 -1.8397
  963MOL0     H32853   6.289   2.988   5.147 -0.0243 -0.9392  3.2338
  963MOL0     H32854   6.229   3.146   5.179 -2.4826 -0.0218 -0.2996
  963MOL0     H32855   6.112   3.039   5.113 -0.9161  2.5420  1.0001
  963MOL0     H32856   6.108   3.473   5.635 -2.4786  2.2768 -0.3986
  963MOL0     H32857   6.219   3.678   5.740 -0.7082 -0.4426 -2.3643
  963MOL0     H32858   6.417   3.827   5.571  1.2846  0.0960 -2.1334
  963MOL0     H32859   6.487   3.929   5.696  3.8402  0.9775 -0.5784
  963MOL0     H32860   6.635   3.738   5.523 -0.8918  0.1424 -1.3790
  963MOL0     H32861   6.633   3.911   5.485  2.0925 -0.3650 -1.6679
  963MOL0     H32862   6.743   3.787   5.744 -1.8023  2.0989  0.7028
  963MOL0     H32863   6.761   3.962   5.708  2.4115 -0.6910  1.5177
  963MOL0     H32864   6.862   3.918   5.491  1.1166  1.3215  0.0144
  963MOL0     H32865   6.866   3.740   5.523 -4.9964  0.4524  0.3082
  963MOL0     H32866   7.000   3.961   5.692 -2.6035 -1.5264  1.5840
  963MOL0     H32867   7.029   3.799   5.717 -1.1628 -0.3239 -0.4595
  963MOL0     H32868   7.210   3.924   5.591 -0.4945  0.8180 -0.6837
  963MOL0     H32869   7.121   3.942   5.444  0.0894  0.3827  0.5796
  963MOL0     H32870   7.108   3.686   5.429 -1.2996 -0.1001  0.1256
  963MOL0     H32871   7.189   3.681   5.590 -0.0082  1.4887  0.1356
  963MOL0     H32872   7.376   3.823   5.490  2.3996 -1.6666 -0.9025
  963MOL0     H32873   7.284   3.815   5.335  1.9105  1.4181 -0.3518
  963MOL0     H32874   6.604   3.513   5.615 -0.7924 -0.9451  0.1320
  963MOL0     H32875   6.498   3.338   5.509  1.5654  1.0885 -0.4462
  963MOL0     H32876   6.141   3.093   5.647  1.6096 -1.3932  0.4252
  963MOL0     H32877   6.016   2.881   5.662  0.7149 -0.1020  0.9087
  963MOL0     H32878   4.298   3.199   5.769 -2.2030 -3.0356 -0.3758
  963MOL0     H32879   4.210   3.342   5.606  2.0242  1.0291  1.8235
  963MOL0     H32880   4.132   3.360   5.112 -1.2731 -1.4066  0.6837
  963MOL0     H32881   3.967   3.465   4.963 -1.8251 -0.3783  0.8221
  963MOL0     H32882   3.845   3.884   5.020  0.8001  0.2857 -0.9159
  963MOL0     H32883   3.719   3.823   4.910  1.5918 -0.3577 -0.4339
  963MOL0     H32884   3.610   3.899   5.114  2.6259  1.5550  0.8842
  963MOL0     H32885   3.694   3.788   5.214 -0.4877 -2.9645  0.0359
  963MOL0     H32886   3.522   3.679   4.999 -1.3646 -0.6026  0.8871
  963MOL0     H32887   3.603   3.588   5.132  2.0596 -0.2754 -2.6591
  963MOL0     H32888   3.363   3.621   5.171  0.3681 -0.3537 -0.9467
  963MOL0     H32889   3.392   3.798   5.167 -0.6123 -0.2027  0.3963
  963MOL0     H32890   3.509   3.731   5.555 -0.0621  0.5986  0.8115
  963MOL0     H32891   3.969   3.816   5.193 -2.4639 -1.0439 -0.6138
  963MOL0     H32892   4.102   3.851   5.377 -1.5041  0.0787 -0.0929
  963MOL0     H32893   4.113   3.698   5.484  2.2412  2.2105  1.3382
  963MOL0     H32894   4.247   3.754   5.381 -0.6843  0.9045 -1.3509
  964MOL0     O32895   3.401   1.340  10.440  0.7054 -0.5879 -0.6091
  964MOL0     C32896   3.485   1.408  10.501  0.1344 -0.1755 -0.9001
  964MOL0     O32897   3.620   1.415  10.461 -0.1659  0.3620  0.1175
  964MOL0     C32898   3.654   1.349  10.347 -0.4128  0.2169 -0.6373
  964MOL0     C32899   3.757   1.263  10.357  0.0011  1.0868 -0.1622
  964MOL0     C32900   3.794   1.178  10.258  0.2946  0.4120  0.3079
  964MOL0     C32901   3.738   1.189  10.127 -0.1915  0.2386  0.2671
  964MOL0     O32902   3.768   1.120  10.009  0.0297 -0.4007  0.2374
  964MOL0     C32903   3.864   1.016  10.020  0.0925  0.3612  0.8037
  964MOL0     C32904   3.899   0.974   9.873 -0.0178 -0.3292 -0.1590
  964MOL0     C32905   3.776   0.930   9.792 -0.0245  0.2901 -0.3706
  964MOL0     C32906   3.828   0.898   9.646 -0.1619  0.2458  1.2929
  964MOL0     C32907   3.718   0.858   9.534  0.2160 -1.0559 -0.4532
  964MOL0     C32908   3.649   0.988   9.472  0.2132 -0.0624  0.5681
  964MOL0     C32909   3.522   0.937   9.401 -0.5989 -0.2781  0.5791
  964MOL0     C32910   3.397   0.961   9.484 -0.4292  0.4165  0.9635
  964MOL0     N32911   3.396   0.864   9.590  0.8890 -1.0949 -0.6286
  964MOL0     C32912   3.360   0.736   9.586  0.2007  0.3812 -0.1553
  964MOL0     C32913   3.363   0.695   9.711  0.6534 -0.1959  0.4578
  964MOL0     C32914   3.355   0.556   9.773 -0.7851 -0.5452  0.4814
  964MOL0     C32915   3.495   0.484   9.762 -0.0191  0.4114 -0.5668
  964MOL0     C32916   3.613   0.524   9.858  0.4780  0.1740  0.7305
  964MOL0     C32917   3.750   0.493   9.799  0.2562  1.0880  0.5461
  964MOL0     O32918   3.758   0.354   9.764 -0.2152 -0.1308 -0.1964
  964MOL0     C32919   3.867   0.296   9.697 -0.3939  0.4408 -0.1542
  964MOL0     C32920   3.854   0.164   9.650 -0.3386 -0.7988  0.0113
  964MOL0     C32921   3.950   0.110   9.565 -0.0208 -0.2649  0.1586
  964MOL0     C32922   3.907  -0.026   9.510 -0.2650  0.8265  0.2131
  964MOL0     C32923   4.078   0.172   9.549  1.5841 -0.8293  0.8019
  964MOL0     C32924   4.188   0.105   9.462  1.0481 -0.7576 -0.3942
  964MOL0     O32925   4.153  -0.003   9.391  0.3407  0.3348 -0.1229
  964MOL0     C32926   4.216  -0.057   9.283  0.0416 -0.7132 -0.5765
  964MOL0     C32927   4.191  -0.189   9.247 -0.9175 -0.5463 -0.4260
  964MOL0     C32928   4.252  -0.242   9.130 -0.1057 -0.0985  0.4800
  964MOL0     C32929   4.326  -0.155   9.043  0.4636  0.6663 -0.0893
  964MOL0     O32930   4.358  -0.219   8.922  0.0705 -0.2307 -0.3408
  964MOL0     C32931   4.496  -0.184   8.892  0.2403 -0.0358  0.3346
  964MOL0     C32932   4.551  -0.286   8.785  0.0750 -0.8957  0.2082
  964MOL0     C32933   4.548  -0.427   8.832 -0.3414  0.1601  0.2158
  964MOL0     C32934   4.629  -0.520   8.738 -0.4872  0.6375  0.7801
  964MOL0     C32935   4.636  -0.659   8.804  0.7715  0.7813 -0.2578
  964MOL0     C32936   4.715  -0.759   8.722 -0.5666 -0.0949 -0.6193
  964MOL0     C32937   4.688  -0.766   8.569  0.2773 -0.8975  0.4301
  964MOL0     C32938   4.740  -0.891   8.515 -0.4036 -0.2211 -0.0930
  964MOL0    Cl32939   4.737  -0.904   8.332  0.4157 -0.1462  0.0228
  964MOL0     C32940   4.349  -0.022   9.091  0.0655  1.1017  0.9914
  964MOL0     C32941   4.300   0.025   9.203  1.3145  0.2488 -0.2196
  964MOL0     O32942   4.299   0.153   9.464 -0.2647  0.1890 -0.5716
  964MOL0     C32943   4.092   0.296   9.609 -0.0485 -0.0091  1.0590
  964MOL0     C32944   3.986   0.361   9.668  0.0913  0.2180  0.0875
  964MOL0     N32945   3.394   0.803   9.792 -0.1297 -0.3494  0.1703
  964MOL0     N32946   3.414   0.903   9.723 -0.3129 -0.9356  0.0534
  964MOL0     C32947   3.627   1.277  10.111  0.5987 -0.3874  0.3938
  964MOL0     C32948   3.583   1.358  10.220 -0.0528 -0.5246  0.1099
  964MOL0     C32949   3.434   1.501  10.607 -0.6168  0.2366  0.5631
  964MOL0     C32950   3.295   1.513  10.621  0.8085 -0.0636  0.2028
  964MOL0     C32951   3.243   1.599  10.717  0.2650 -0.9440 -0.0547
  964MOL0     C32952   3.333   1.679  10.797  1.0394 -0.4756  0.1087
  964MOL0     O32953   3.274   1.751  10.897  0.2632 -0.0538  0.4102
  964MOL0     C32954   3.362   1.807  10.996  0.3076  0.3659  1.1363
  964MOL0     C32955   3.274   1.912  11.080 -0.8743  0.1616  0.5156
  964MOL0     C32956   3.167   1.845  11.143 -0.2938  0.0441 -0.3055
  964MOL0     C32957   3.071   1.950  11.207 -0.0548  0.4065 -0.5023
  964MOL0     C32958   2.969   1.903  11.295  0.3615  0.2927 -0.0682
  964MOL0     C32959   2.879   1.871  11.376 -0.2185  0.9239  0.3583
  964MOL0     C32960   3.469   1.669  10.778  0.1913 -0.1011  0.5037
  964MOL0     C32961   3.520   1.584  10.683  0.2996 -0.0754  0.3139
  964MOL0     C32962   3.679   1.586  10.673  0.4419 -0.1396 -0.1068
  964MOL0     H32963   3.794   1.245  10.458 -1.3255  1.0821  0.3409
  964MOL0     H32964   3.877   1.112  10.283 -0.8062 -1.0544  0.2442
  964MOL0     H32965   3.823   0.928  10.071 -1.8132  1.7966  1.8716
  964MOL0     H32966   3.950   1.057  10.072 -0.1464  0.4700  1.1148
  964MOL0     H32967   3.947   1.064   9.835  2.5304 -0.9691  1.3083
  964MOL0     H32968   3.976   0.897   9.875 -0.8461 -1.1669  1.3912
  964MOL0     H32969   3.743   0.843   9.850  1.4303  0.7379  1.2233
  964MOL0     H32970   3.700   1.009   9.787  2.3201  2.9779  2.4664
  964MOL0     H32971   3.872   0.988   9.601 -0.8499  0.8098  1.7197
  964MOL0     H32972   3.901   0.817   9.646 -0.6162 -0.4390 -3.3114
  964MOL0     H32973   3.638   0.798   9.579 -0.7453  2.2835  2.7590
  964MOL0     H32974   3.771   0.797   9.460 -1.0233 -1.7099 -0.8297
  964MOL0     H32975   3.632   1.064   9.549 -0.4227 -0.1419  0.5134
  964MOL0     H32976   3.719   1.029   9.399  0.3670  2.2293  1.9205
  964MOL0     H32977   3.534   0.831   9.380 -2.4632 -0.0524 -2.1878
  964MOL0     H32978   3.521   0.975   9.298  4.0474 -2.4635 -0.5265
  964MOL0     H32979   3.403   1.061   9.527  1.3936  1.7923 -2.1502
  964MOL0     H32980   3.310   0.958   9.419  1.0131 -0.8797 -1.0173
  964MOL0     H32981   3.324   0.681   9.500 -0.0428  1.2050 -0.5818
  964MOL0     H32982   3.282   0.483   9.738 -2.8298  1.0658  1.1226
  964MOL0     H32983   3.347   0.560   9.882  0.9809  1.0878  0.6074
  964MOL0     H32984   3.477   0.383   9.800 -1.4558  1.4536  1.7399
  964MOL0     H32985   3.525   0.479   9.657  4.9105  2.0296  0.5026
  964MOL0     H32986   3.598   0.631   9.877 -6.2404 -0.7491  3.3273
  964MOL0     H32987   3.605   0.463   9.948  0.3764 -2.8419 -1.1932
  964MOL0     H32988   3.769   0.556   9.712  2.9229 -2.1351 -1.4819
  964MOL0     H32989   3.825   0.517   9.875 -0.3681  1.6370  1.0026
  964MOL0     H32990   3.755   0.123   9.668 -1.2298  0.1487 -2.2501
  964MOL0     H32991   3.975  -0.104   9.544 -0.5349 -0.1332 -1.3598
  964MOL0     H32992   3.916  -0.020   9.401  0.5157  1.2754  0.2932
  964MOL0     H32993   3.803  -0.051   9.536 -0.4327 -1.2211 -2.0725
  964MOL0     H32994   4.139  -0.263   9.308  0.5859 -1.3407 -0.0606
  964MOL0     H32995   4.233  -0.344   9.097 -2.0221  0.8361 -1.5464
  964MOL0     H32996   4.518  -0.082   8.860  2.5155 -0.6616 -0.3044
  964MOL0     H32997   4.561  -0.187   8.980  0.4666 -2.7720  0.1614
  964MOL0     H32998   4.486  -0.283   8.697  2.6697 -1.0340 -1.8484
  964MOL0     H32999   4.649  -0.256   8.745 -0.0430  0.0846  0.6075
  964MOL0     H33000   4.451  -0.476   8.832 -0.8075  1.0670 -0.1653
  964MOL0     H33001   4.592  -0.439   8.932  1.0032 -0.9263 -0.4627
  964MOL0     H33002   4.731  -0.486   8.719  0.2510 -2.2802 -1.2899
  964MOL0     H33003   4.577  -0.524   8.642 -1.5039  1.8257  1.2672
  964MOL0     H33004   4.680  -0.646   8.904 -0.1041  2.3622 -0.0418
  964MOL0     H33005   4.531  -0.690   8.816  0.9107  0.6107  0.5988
  964MOL0     H33006   4.713  -0.859   8.766 -1.1696  1.0392  2.1473
  964MOL0     H33007   4.815  -0.719   8.743 -1.2677  0.7894  1.2924
  964MOL0     H33008   4.738  -0.679   8.525 -2.6908  0.2427 -0.9341
  964MOL0     H33009   4.581  -0.762   8.549  0.1045  0.5791  1.4387
  964MOL0     H33010   4.675  -0.970   8.554  0.4225 -0.2159  1.3519
  964MOL0     H33011   4.842  -0.903   8.550 -0.1355  1.3693 -0.2454
  964MOL0     H33012   4.414   0.049   9.041 -1.3436  0.2502 -2.2832
  964MOL0     H33013   4.329   0.127   9.228  0.1642  0.9533 -1.6025
  964MOL0     H33014   4.171   0.359   9.568  0.8546 -2.7689 -1.8867
  964MOL0     H33015   4.004   0.461   9.706 -3.9470  1.0262  0.2612
  964MOL0     H33016   3.581   1.293  10.014 -1.2558 -1.6883  0.9966
  964MOL0     H33017   3.502   1.429  10.206  0.3425  0.1147  0.9383
  964MOL0     H33018   3.230   1.470  10.545  1.3850  0.0352 -0.3563
  964MOL0     H33019   3.137   1.610  10.738  0.6359 -0.5561  1.8162
  964MOL0     H33020   3.408   1.725  11.053  0.4744 -1.8259 -1.9216
  964MOL0     H33021   3.437   1.873  10.952 -0.3726  0.0182 -0.5978
  964MOL0     H33022   3.216   1.970  11.007 -2.2827  0.6189  1.9219
  964MOL0     H33023   3.336   1.977  11.142 -0.7706 -0.6586  1.2892
  964MOL0     H33024   3.111   1.776  11.078 -2.6445 -0.0545  1.6546
  964MOL0     H33025   3.202   1.782  11.226  0.1708  2.5071  1.4783
  964MOL0     H33026   3.024   2.001  11.123  2.1039  1.8653 -0.9014
  964MOL0     H33027   3.132   2.020  11.266  1.6765 -1.5661  0.1449
  964MOL0     H33028   2.786   1.871  11.431  0.1019  0.7756  0.9058
  964MOL0     H33029   3.526   1.737  10.840 -1.6044  1.4829  0.5186
  964MOL0     H33030   3.719   1.651  10.752  0.5743 -2.4010  1.7780
  964MOL0     H33031   3.722   1.486  10.679 -1.2423 -0.9218 -0.5322
  964MOL0     H33032   3.709   1.633  10.579  2.4591 -0.3749  0.3751
  965MOL0     O33033   9.529   3.203   6.306 -0.5322  0.1273 -0.4605
  965MOL0     C33034   9.510   3.080   6.327 -0.3502 -0.6905  0.7430
  965MOL0     O33035   9.577   3.007   6.419 -0.0389  0.3019 -0.1843
  965MOL0     C33036   9.701   3.039   6.465 -1.2351 -1.5212 -0.1392
  965MOL0     C33037   9.732   3.002   6.595 -0.8416  0.9812 -0.5940
  965MOL0     C33038   9.858   3.025   6.649  0.1648  0.0324 -0.0311
  965MOL0     C33039   9.956   3.088   6.569 -1.1803 -0.1852  0.1320
  965MOL0     O33040  10.088   3.115   6.604  0.7442 -0.4766 -0.4028
  965MOL0     C33041  10.160   3.029   6.689 -0.2723  0.4487  0.3950
  965MOL0     C33042  10.294   3.097   6.689  0.4352  0.0067 -0.6342
  965MOL0     C33043  10.386   3.033   6.796 -0.8841  0.1009 -0.1133
  965MOL0     C33044  10.528   3.081   6.751  0.6826 -0.1679 -0.3651
  965MOL0     C33045  10.630   3.083   6.861 -0.4370  0.3253 -0.4424
  965MOL0     C33046  10.770   3.102   6.801  0.6790 -0.1565 -0.5053
  965MOL0     C33047  10.869   3.129   6.909 -0.4791 -0.4975 -0.7196
  965MOL0     C33048  10.992   3.211   6.862  0.0768 -0.7969 -0.2975
  965MOL0     N33049  11.088   3.123   6.794  0.5391  0.4683 -0.6963
  965MOL0     C33050  11.224   3.154   6.783  0.8802  0.2211 -0.4388
  965MOL0     C33051  11.272   3.052   6.714  0.0944  0.6407 -0.7930
  965MOL0     C33052  11.424   3.035   6.692 -0.2589 -0.2327  0.0535
  965MOL0     C33053  11.507   3.002   6.817  0.9283  0.2167 -0.3506
  965MOL0     C33054  11.648   3.057   6.790  0.0432  0.0141 -0.7405
  965MOL0     C33055  11.748   3.001   6.895  0.9778 -0.2233 -0.6798
  965MOL0     O33056  11.861   3.083   6.876 -0.5247  0.2458 -0.4383
  965MOL0     C33057  11.951   3.093   6.979  0.3147 -0.7117  0.2645
  965MOL0     C33058  11.997   2.986   7.048  0.0441 -0.3777 -0.1954
  965MOL0     C33059  12.082   3.000   7.167  0.5322  0.0335 -0.5206
  965MOL0     C33060  12.102   2.871   7.245 -0.0529 -0.3482 -0.1605
  965MOL0     C33061  12.129   3.125   7.216  0.0688  0.5619  0.1417
  965MOL0     C33062  12.196   3.149   7.347  0.2822 -0.3944  0.0308
  965MOL0     O33063  12.207   3.047   7.428 -0.1977 -0.2976 -0.2443
  965MOL0     C33064  12.264   3.061   7.555  0.4019 -0.8362 -0.7819
  965MOL0     C33065  12.359   3.153   7.585 -0.2074  0.4288  0.1552
  965MOL0     C33066  12.422   3.162   7.706 -0.4339  0.6518  0.1585
  965MOL0     C33067  12.379   3.087   7.816  0.5036  0.0564  0.3350
  965MOL0     O33068  12.426   3.111   7.945  0.3277  0.1202 -0.0097
  965MOL0     C33069  12.364   3.054   8.058  0.2646 -0.1722 -0.6176
  965MOL0     C33070  12.413   3.128   8.185 -0.3475 -0.9740  0.7391
  965MOL0     C33071  12.344   3.082   8.311  0.0277  0.0712  0.4988
  965MOL0     C33072  12.367   3.163   8.440 -0.0940  0.5157  0.7542
  965MOL0     C33073  12.323   3.084   8.565  0.3452 -0.1523  0.2232
  965MOL0     C33074  12.393   3.167   8.684  0.1045  0.2244 -0.8822
  965MOL0     C33075  12.347   3.104   8.820 -0.3787 -0.7932  0.8551
  965MOL0     C33076  12.423   3.166   8.935 -0.2996 -0.1812 -0.3603
  965MOL0    Cl33077  12.601   3.169   8.894  0.4441 -0.0788 -0.0750
  965MOL0     C33078  12.275   2.993   7.799  0.8537  0.1360 -0.7507
  965MOL0     C33079  12.215   2.982   7.666 -1.2023  0.7806 -0.3326
  965MOL0     O33080  12.210   3.267   7.376 -0.0468  0.0351 -0.0971
  965MOL0     C33081  12.088   3.230   7.136 -1.1228  0.5046  0.4314
  965MOL0     C33082  12.007   3.215   7.024 -0.0888  1.1410  0.2019
  965MOL0     N33083  11.174   2.955   6.686  0.1179 -0.2795 -0.4474
  965MOL0     N33084  11.058   3.003   6.730  0.1736 -0.1402 -0.2142
  965MOL0     C33085   9.920   3.138   6.442 -0.2794 -0.1684 -0.1817
  965MOL0     C33086   9.793   3.121   6.390 -0.1005  0.3370  0.0278
  965MOL0     C33087   9.392   3.024   6.251 -0.7421  0.1286  0.1631
  965MOL0     C33088   9.309   3.113   6.184  0.3598  0.2591 -0.4346
  965MOL0     C33089   9.198   3.068   6.116  0.2280  0.1196 -0.2864
  965MOL0     C33090   9.156   2.935   6.121 -0.0861  0.0547 -0.4762
  965MOL0     O33091   9.029   2.916   6.064 -0.9454 -0.0596  0.3011
  965MOL0     C33092   8.984   2.780   6.052 -0.1999  0.6837 -0.4594
  965MOL0     C33093   8.837   2.778   6.081  1.1498 -0.3980  0.1894
  965MOL0     C33094   8.801   2.755   6.225  0.0998 -0.7158  0.4156
  965MOL0     C33095   8.790   2.889   6.308  0.5744 -0.3792 -0.3721
  965MOL0     C33096   8.660   2.961   6.294  0.7855  1.0283  0.9227
  965MOL0     C33097   8.555   3.014   6.262  0.5070 -1.5498 -0.6695
  965MOL0     C33098   9.238   2.847   6.194 -1.1513 -0.6910 -0.0861
  965MOL0     C33099   9.358   2.884   6.261  0.6777  0.4050  0.3081
  965MOL0     C33100   9.437   2.780   6.322 -1.0804  0.3447 -0.0160
  965MOL0     H33101   9.650   2.965   6.656 -0.1514 -1.1606 -0.8976
  965MOL0     H33102   9.883   2.998   6.752 -2.4864  0.3681  0.7712
  965MOL0     H33103  10.166   2.930   6.642 -0.0474  0.2526  0.8325
  965MOL0     H33104  10.106   3.017   6.783  0.4329  3.2569  1.2450
  965MOL0     H33105  10.341   3.066   6.595 -1.4037 -0.3526 -1.4864
  965MOL0     H33106  10.287   3.206   6.694  0.2280  0.1440 -2.9197
  965MOL0     H33107  10.357   3.051   6.900  1.6159 -0.1767  0.6883
  965MOL0     H33108  10.393   2.924   6.795 -1.7318  0.0316  0.4692
  965MOL0     H33109  10.568   3.020   6.669 -1.2329  0.5054 -1.8667
  965MOL0     H33110  10.509   3.183   6.716  0.2584  0.0143  0.3574
  965MOL0     H33111  10.641   2.988   6.914 -1.3397 -0.7413 -2.0734
  965MOL0     H33112  10.606   3.163   6.931  0.3070  0.3640 -0.2179
  965MOL0     H33113  10.794   3.006   6.753 -1.9645 -0.5677 -1.1632
  965MOL0     H33114  10.764   3.169   6.715  1.0806  0.9053  0.2844
  965MOL0     H33115  10.916   3.039   6.949 -0.6639 -0.3213 -0.1034
  965MOL0     H33116  10.817   3.176   6.993 -0.0180  0.4043 -0.9251
  965MOL0     H33117  10.952   3.297   6.808 -4.9936 -1.1621  2.2994
  965MOL0     H33118  11.051   3.249   6.946  0.2207  0.1598 -0.8148
  965MOL0     H33119  11.275   3.234   6.836  1.8380  0.6897 -1.9951
  965MOL0     H33120  11.454   3.127   6.642 -1.6008 -1.5698 -3.5370
  965MOL0     H33121  11.448   2.959   6.616 -0.2760 -0.2046  0.0197
  965MOL0     H33122  11.457   3.045   6.904  2.1425  1.3734 -0.1874
  965MOL0     H33123  11.507   2.894   6.831 -1.1984  0.1924 -0.3310
  965MOL0     H33124  11.677   3.019   6.691  3.3277 -0.9115  0.4651
  965MOL0     H33125  11.640   3.165   6.798  1.9831  0.2627 -1.7016
  965MOL0     H33126  11.700   3.022   6.991  1.8820  0.1300 -0.2913
  965MOL0     H33127  11.768   2.895   6.882  0.5892 -0.8090  2.7634
  965MOL0     H33128  11.957   2.894   7.007  2.3949 -1.4515 -0.1957
  965MOL0     H33129  12.061   2.794   7.180 -1.3720 -0.1409  0.3865
  965MOL0     H33130  12.048   2.871   7.340 -0.2821 -1.2599 -0.2891
  965MOL0     H33131  12.207   2.848   7.264 -0.3203 -0.3182  1.4736
  965MOL0     H33132  12.401   3.211   7.503 -1.3182  1.3904  0.2548
  965MOL0     H33133  12.506   3.229   7.719 -0.9367  1.4346 -0.5487
  965MOL0     H33134  12.255   3.066   8.053  0.0369 -1.1004  1.1368
  965MOL0     H33135  12.385   2.948   8.074 -0.6254 -0.6099 -2.1530
  965MOL0     H33136  12.520   3.115   8.204 -0.4167  0.7152  2.5693
  965MOL0     H33137  12.386   3.233   8.177 -0.7120 -0.8824  2.6873
  965MOL0     H33138  12.371   2.977   8.325 -1.3359 -0.4988 -0.8364
  965MOL0     H33139  12.236   3.084   8.290 -0.1958  0.7781  1.6424
  965MOL0     H33140  12.322   3.262   8.428  0.3010  0.3947 -2.8943
  965MOL0     H33141  12.474   3.186   8.447  0.5567 -1.7976 -0.5937
  965MOL0     H33142  12.219   3.073   8.594  0.1793  0.2542 -0.2006
  965MOL0     H33143  12.357   2.981   8.554  0.5958  0.1289 -2.5613
  965MOL0     H33144  12.368   3.273   8.688  1.6329  0.6211 -1.2831
  965MOL0     H33145  12.501   3.164   8.671  0.2847 -1.1937  0.5717
  965MOL0     H33146  12.366   2.997   8.807  1.7856 -0.2908 -0.5713
  965MOL0     H33147  12.240   3.121   8.839 -0.8050  0.6539 -2.3018
  965MOL0     H33148  12.391   3.122   9.030 -2.1606  0.2093 -0.7781
  965MOL0     H33149  12.394   3.270   8.947  1.7549  0.6804 -2.1832
  965MOL0     H33150  12.233   2.931   7.878 -3.0094  1.7227 -1.2982
  965MOL0     H33151  12.132   2.915   7.647  0.2218 -1.2675  0.3068
  965MOL0     H33152  12.118   3.328   7.171 -0.4524  1.0550 -1.5221
  965MOL0     H33153  11.960   3.289   6.960 -0.4352 -1.8285 -3.3298
  965MOL0     H33154   9.995   3.187   6.380 -1.2672  1.6047 -0.0434
  965MOL0     H33155   9.763   3.157   6.292  0.7666 -3.9575 -2.0385
  965MOL0     H33156   9.330   3.218   6.195  4.9553 -0.4380 -0.7855
  965MOL0     H33157   9.137   3.137   6.058  2.5583  1.5970 -1.1309
  965MOL0     H33158   8.993   2.755   5.946  0.9561  2.8517 -0.9211
  965MOL0     H33159   9.034   2.700   6.108 -1.4493 -0.4423 -0.8870
  965MOL0     H33160   8.779   2.708   6.020  1.0023  0.6720 -0.9343
  965MOL0     H33161   8.803   2.876   6.048  0.7343 -0.7432 -0.4109
  965MOL0     H33162   8.703   2.708   6.236 -1.7287  3.0775  2.5008
  965MOL0     H33163   8.882   2.692   6.264  0.9864  1.4611  2.3821
  965MOL0     H33164   8.875   2.954   6.282  1.6968 -1.3608  0.7167
  965MOL0     H33165   8.805   2.865   6.414 -0.1031 -1.4003 -0.4915
  965MOL0     H33166   8.456   3.044   6.233 -0.0141 -2.5406  0.0123
  965MOL0     H33167   9.204   2.747   6.218  0.6734 -1.4576 -0.5545
  965MOL0     H33168   9.535   2.801   6.279 -1.1534  0.3767 -0.1660
  965MOL0     H33169   9.432   2.792   6.430  2.6896  2.7771  0.0377
  965MOL0     H33170   9.392   2.684   6.294 -2.1762  0.9836 -0.5390
  966MOL0     O33171   2.419  10.014   6.696 -0.0597  0.8355  0.2022
  966MOL0     C33172   2.379  10.011   6.577 -0.0830 -0.7673  0.6522
  966MOL0     O33173   2.453  10.025   6.466  0.2500 -0.8405  1.0251
  966MOL0     C33174   2.583  10.034   6.481 -1.5009 -0.5787  0.6984
  966MOL0     C33175   2.656  10.163   6.474 -0.1881 -0.2520  0.4732
  966MOL0     C33176   2.794  10.163   6.474 -0.2385  0.3412  0.0138
  966MOL0     C33177   2.871  10.046   6.483 -0.1153  0.1058  0.5591
  966MOL0     O33178   3.006  10.021   6.470  0.7307 -0.4539 -0.2952
  966MOL0     C33179   3.088  10.133   6.426  0.2765  0.8213  0.2293
  966MOL0     C33180   3.222  10.075   6.384 -0.7264  0.4959 -0.9026
  966MOL0     C33181   3.187   9.962   6.278 -0.8261  0.3575 -0.0117
  966MOL0     C33182   3.307   9.919   6.197 -0.2993  0.1850  0.4062
  966MOL0     C33183   3.285   9.790   6.121 -0.1153 -0.1078 -0.3627
  966MOL0     C33184   3.372   9.767   5.995 -0.4500  0.4254 -0.0382
  966MOL0     C33185   3.330   9.638   5.922 -0.8930  0.3539  0.2309
  966MOL0     C33186   3.422   9.609   5.802  0.4290 -0.5973  0.4711
  966MOL0     N33187   3.417   9.484   5.733  0.1061  0.1290  0.5916
  966MOL0     C33188   3.497   9.374   5.756  0.7560  0.6933 -0.3908
  966MOL0     C33189   3.438   9.268   5.689  0.4100 -0.1862 -0.1050
  966MOL0     C33190   3.469   9.122   5.697  0.1630  0.6922 -0.9234
  966MOL0     C33191   3.622   9.083   5.717  0.2023 -0.5298  1.0899
  966MOL0     C33192   3.654   8.931   5.693  0.5290 -0.5056 -0.4070
  966MOL0     C33193   3.800   8.907   5.744 -0.5629  0.0982 -0.3612
  966MOL0     O33194   3.847   8.780   5.694 -0.1197  0.1010 -0.5214
  966MOL0     C33195   3.976   8.739   5.711  0.0263 -0.5973 -0.6114
  966MOL0     C33196   4.052   8.790   5.817 -0.2947 -0.0538  0.6481
  966MOL0     C33197   4.186   8.754   5.828  0.2287 -0.1498 -1.0579
  966MOL0     C33198   4.255   8.804   5.951  0.5776  0.1596 -0.6626
  966MOL0     C33199   4.244   8.669   5.730  0.7942 -0.8693 -1.3743
  966MOL0     C33200   4.388   8.668   5.729 -0.1473  0.0405  0.5862
  966MOL0     O33201   4.460   8.783   5.734 -0.3241 -0.2063 -0.0099
  966MOL0     C33202   4.595   8.779   5.761  0.7182  0.3402 -0.3226
  966MOL0     C33203   4.629   8.751   5.899  0.2586  0.5203  1.5030
  966MOL0     C33204   4.765   8.734   5.934 -1.2111  0.5405  0.9006
  966MOL0     C33205   4.871   8.755   5.837  0.4459  0.8425 -0.4655
  966MOL0     O33206   5.011   8.745   5.855  0.3532  0.4670 -0.4778
  966MOL0     C33207   5.074   8.695   5.984  0.3716 -0.2902  0.2462
  966MOL0     C33208   5.218   8.742   5.985 -0.0828 -0.1375 -0.0170
  966MOL0     C33209   5.286   8.711   6.116  0.2636 -0.6823 -0.2168
  966MOL0     C33210   5.442   8.731   6.099  0.1706  0.0926 -0.5581
  966MOL0     C33211   5.529   8.663   6.210 -0.5444  0.2012 -0.3019
  966MOL0     C33212   5.531   8.735   6.345 -0.3697 -0.1926  0.1632
  966MOL0     C33213   5.631   8.856   6.356 -0.6281  0.9352 -0.4281
  966MOL0     C33214   5.637   8.910   6.492 -0.9412  0.0786 -0.6168
  966MOL0    Cl33215   5.471   8.958   6.549  0.1306 -0.2172  0.2359
  966MOL0     C33216   4.830   8.800   5.706 -0.6543  0.2948  0.9127
  966MOL0     C33217   4.693   8.811   5.680  0.0157  0.5102  0.1890
  966MOL0     O33218   4.432   8.558   5.738 -0.6922 -0.1132 -0.4893
  966MOL0     C33219   4.166   8.622   5.621  1.0337  0.7878 -0.5337
  966MOL0     C33220   4.034   8.655   5.616 -0.0667 -0.1424 -0.0245
  966MOL0     N33221   3.338   9.326   5.615  0.0991 -0.2030 -0.2895
  966MOL0     N33222   3.327   9.455   5.640 -0.5481 -0.0718  0.6650
  966MOL0     C33223   2.806   9.930   6.498 -0.0851  0.8851 -0.3942
  966MOL0     C33224   2.667   9.922   6.487  0.8270  0.0212  0.1545
  966MOL0     C33225   2.231  10.015   6.567  1.1223 -0.1686 -0.5991
  966MOL0     C33226   2.159   9.949   6.671 -0.0931 -0.3411  0.2341
  966MOL0     C33227   2.021   9.940   6.655 -0.4028  0.6149 -0.0713
  966MOL0     C33228   1.949  10.008   6.554 -0.5339 -0.0757  0.8516
  966MOL0     O33229   1.813  10.010   6.536 -0.1523  0.0334  0.5608
  966MOL0     C33230   1.729   9.948   6.636  0.7350 -0.2767 -0.8849
  966MOL0     C33231   1.694   9.809   6.593  0.1700  0.1096  0.1406
  966MOL0     C33232   1.549   9.771   6.556 -0.1782 -0.5340 -0.0323
  966MOL0     C33233   1.534   9.622   6.524 -0.1651 -0.3823  0.9164
  966MOL0     C33234   1.517   9.546   6.644 -0.3932  0.3184  0.4608
  966MOL0     C33235   1.493   9.498   6.755  0.6405  1.2097  0.1506
  966MOL0     C33236   2.020  10.081   6.458  0.5253 -0.2235 -0.1133
  966MOL0     C33237   2.158  10.076   6.454  0.2128 -0.7804 -0.3143
  966MOL0     C33238   2.235  10.161   6.346  0.1894  0.3982 -0.3407
  966MOL0     H33239   2.611  10.262   6.471 -1.2275 -0.6751  1.2290
  966MOL0     H33240   2.837  10.263   6.464  0.2185  0.0331 -1.2549
  966MOL0     H33241   3.110  10.202   6.509  0.9864 -0.6132  1.2809
  966MOL0     H33242   3.048  10.187   6.340  1.6474  0.2451 -0.8074
  966MOL0     H33243   3.268  10.162   6.335 -0.1618  0.6518 -0.1197
  966MOL0     H33244   3.281  10.039   6.468 -0.7208  1.1709 -0.6074
  966MOL0     H33245   3.151   9.883   6.345  1.4442  3.1190  5.0894
  966MOL0     H33246   3.104   9.999   6.218 -3.3481 -1.0800  2.3159
  966MOL0     H33247   3.327  10.005   6.133  0.7762 -0.5698 -0.3173
  966MOL0     H33248   3.396   9.897   6.257 -1.1475 -0.5440  1.4356
  966MOL0     H33249   3.180   9.795   6.092 -0.8352  1.3678  2.1909
  966MOL0     H33250   3.303   9.707   6.189 -1.8781  0.3570  0.7384
  966MOL0     H33251   3.362   9.857   5.933 -1.2854  0.8962  0.7448
  966MOL0     H33252   3.477   9.760   6.027  0.0165  1.5566 -1.2209
  966MOL0     H33253   3.226   9.659   5.896 -0.8233  1.6086  0.8484
  966MOL0     H33254   3.337   9.545   5.978  0.1800  0.7534  0.8008
  966MOL0     H33255   3.394   9.689   5.732 -0.2350 -0.1287  1.2446
  966MOL0     H33256   3.526   9.620   5.831  0.2428 -0.8054  1.2345
  966MOL0     H33257   3.569   9.365   5.837 -0.0229 -4.7449  0.0695
  966MOL0     H33258   3.432   9.083   5.601  0.0076  1.8703 -1.3596
  966MOL0     H33259   3.409   9.079   5.777 -0.2436  2.3902 -0.2683
  966MOL0     H33260   3.689   9.149   5.661 -0.1695  0.1732  1.4584
  966MOL0     H33261   3.648   9.089   5.823  0.7799 -0.9273  0.9713
  966MOL0     H33262   3.575   8.872   5.741  1.6086 -0.6906  1.1849
  966MOL0     H33263   3.643   8.910   5.586  0.1141 -0.4854 -0.3710
  966MOL0     H33264   3.866   8.986   5.706 -1.1781  1.3532  1.0989
  966MOL0     H33265   3.801   8.916   5.853 -1.7111  2.3744 -0.4797
  966MOL0     H33266   4.003   8.860   5.883  3.1870  4.5953 -1.1434
  966MOL0     H33267   4.193   8.829   6.037  0.5628  1.4030 -1.0101
  966MOL0     H33268   4.301   8.902   5.938  0.4640  0.7299  2.5168
  966MOL0     H33269   4.338   8.742   5.985 -1.2889 -1.8562  0.4894
  966MOL0     H33270   4.553   8.748   5.977 -1.7366  2.8023 -0.2152
  966MOL0     H33271   4.784   8.701   6.036  1.7243 -0.1845  0.2136
  966MOL0     H33272   5.022   8.741   6.069  0.8341  0.5439  0.0933
  966MOL0     H33273   5.084   8.587   5.991  1.1552 -0.5689 -3.3025
  966MOL0     H33274   5.265   8.684   5.906 -0.1889  2.1902 -1.9230
  966MOL0     H33275   5.216   8.848   5.957  0.3171 -0.3901 -1.0226
  966MOL0     H33276   5.264   8.606   6.138  0.5098 -1.7637 -4.3296
  966MOL0     H33277   5.246   8.777   6.193 -1.9379 -2.3353  0.1515
  966MOL0     H33278   5.474   8.835   6.086  0.4815  0.2465  1.2024
  966MOL0     H33279   5.480   8.659   6.026 -0.6986 -1.0401  0.0757
  966MOL0     H33280   5.484   8.565   6.224  1.0465 -0.5336 -0.0873
  966MOL0     H33281   5.631   8.634   6.182 -0.3103 -1.3731  1.9374
  966MOL0     H33282   5.557   8.668   6.427  0.0387  1.5807  1.5550
  966MOL0     H33283   5.428   8.764   6.367  0.0761  0.8188  1.0347
  966MOL0     H33284   5.599   8.938   6.290 -2.6393 -0.3606 -1.1520
  966MOL0     H33285   5.733   8.831   6.324 -0.5787  1.0944 -0.3966
  966MOL0     H33286   5.701   8.998   6.483  2.0866 -2.0514 -1.6769
  966MOL0     H33287   5.677   8.835   6.562 -1.6390 -0.5305 -0.8558
  966MOL0     H33288   4.901   8.820   5.626 -2.3122 -0.1169 -0.7344
  966MOL0     H33289   4.664   8.842   5.580 -0.8627  1.2724  0.6610
  966MOL0     H33290   4.217   8.553   5.554  2.5717  0.1258  1.2219
  966MOL0     H33291   3.974   8.620   5.532 -0.4478 -0.0787  0.2185
  966MOL0     H33292   2.866   9.842   6.516  0.9303  1.0332 -2.7289
  966MOL0     H33293   2.626   9.822   6.491  0.2940  0.2700  1.0548
  966MOL0     H33294   2.211   9.902   6.753 -0.6745 -2.2200 -0.4186
  966MOL0     H33295   1.974   9.880   6.733 -2.4218  1.0472 -0.8847
  966MOL0     H33296   1.769   9.944   6.738  1.3878 -1.7526 -1.1786
  966MOL0     H33297   1.639  10.009   6.640  2.3721  2.2477  1.2793
  966MOL0     H33298   1.724   9.737   6.670 -1.0234  0.0885  0.6008
  966MOL0     H33299   1.760   9.792   6.507 -0.9260 -0.0467 -0.7006
  966MOL0     H33300   1.477   9.797   6.634 -0.4693 -1.0349 -0.1326
  966MOL0     H33301   1.525   9.840   6.474 -0.1406 -0.8547 -0.3154
  966MOL0     H33302   1.626   9.587   6.477 -0.1800 -0.5885  1.0406
  966MOL0     H33303   1.447   9.612   6.457 -0.6187  1.1152  1.2445
  966MOL0     H33304   1.472   9.463   6.854 -0.7688  0.1595 -0.4872
  966MOL0     H33305   1.973  10.126   6.372  1.5452 -0.4010 -0.7810
  966MOL0     H33306   2.169  10.223   6.284  1.2810  2.0010  0.0582
  966MOL0     H33307   2.304  10.228   6.397 -1.2572  1.6052  0.1126
  966MOL0     H33308   2.280  10.088   6.278 -0.0855  0.1176 -0.2242
  967MOL0     O33309   1.637   4.680   6.861  0.3346  0.6282  0.4352
  967MOL0     C33310   1.592   4.704   6.751  0.6894  0.8247 -0.9862
  967MOL0     O33311   1.662   4.763   6.657  0.4561  0.1541 -0.2428
  967MOL0     C33312   1.799   4.787   6.671 -0.1155 -0.5248 -0.3550
  967MOL0     C33313   1.849   4.915   6.668 -0.3796 -0.5142 -0.0290
  967MOL0     C33314   1.986   4.945   6.688 -0.0762 -0.4600  0.8287
  967MOL0     C33315   2.083   4.846   6.674 -0.0683 -0.0857  0.3177
  967MOL0     O33316   2.212   4.887   6.682  0.2813 -0.6992 -0.1804
  967MOL0     C33317   2.322   4.803   6.696  0.5424 -0.2515 -0.6446
  967MOL0     C33318   2.322   4.712   6.814  0.3970 -0.1740  0.6625
  967MOL0     C33319   2.279   4.787   6.945  0.3044  0.5884 -0.7526
  967MOL0     C33320   2.278   4.695   7.073  0.1163 -0.1410  0.4944
  967MOL0     C33321   2.226   4.783   7.188 -0.1612  0.3389 -0.0392
  967MOL0     C33322   2.194   4.698   7.313  0.5829  0.6912  1.2401
  967MOL0     C33323   2.302   4.616   7.366 -0.5358 -0.4489 -0.2514
  967MOL0     C33324   2.303   4.464   7.315  0.2821  0.4515 -0.3447
  967MOL0     N33325   2.430   4.384   7.341  0.1435 -0.3267 -0.1825
  967MOL0     C33326   2.472   4.275   7.273 -0.5915 -0.1481  0.1733
  967MOL0     C33327   2.594   4.233   7.324 -0.9967 -0.1140  0.2221
  967MOL0     C33328   2.686   4.134   7.263  0.0829 -0.1606  0.2413
  967MOL0     C33329   2.825   4.194   7.237  0.1011 -0.9421  0.8119
  967MOL0     C33330   2.902   4.216   7.364  1.0384  0.4488  1.1064
  967MOL0     C33331   3.053   4.186   7.339  0.4647 -0.0809 -1.3472
  967MOL0     O33332   3.113   4.197   7.468 -0.6495 -0.3118 -0.2981
  967MOL0     C33333   3.244   4.242   7.483 -0.4574  0.8928 -0.3904
  967MOL0     C33334   3.287   4.293   7.603  0.0739 -0.0414  0.3755
  967MOL0     C33335   3.426   4.322   7.630 -0.7444  0.8947 -0.7440
  967MOL0     C33336   3.459   4.351   7.776  0.7620 -0.8569  0.9282
  967MOL0     C33337   3.519   4.326   7.524 -0.2245 -0.1369 -0.2009
  967MOL0     C33338   3.659   4.368   7.543  0.8347 -0.1457 -0.4334
  967MOL0     O33339   3.747   4.323   7.451  0.1046 -0.8186 -0.0718
  967MOL0     C33340   3.869   4.366   7.464 -0.7156  0.4231 -0.9210
  967MOL0     C33341   3.941   4.300   7.565  0.1829  0.0683  0.2279
  967MOL0     C33342   4.080   4.326   7.591 -0.1219  0.7330  0.4073
  967MOL0     C33343   4.139   4.423   7.511 -0.5708  0.9514  1.5810
  967MOL0     O33344   4.276   4.432   7.535 -0.2458 -0.6897 -0.1486
  967MOL0     C33345   4.345   4.552   7.496 -1.5578 -0.7110  0.3542
  967MOL0     C33346   4.477   4.559   7.568 -0.0156 -0.0065 -0.0600
  967MOL0     C33347   4.539   4.701   7.545  0.6949  0.3608 -0.2416
  967MOL0     C33348   4.673   4.714   7.614 -0.0900 -0.3371 -0.3555
  967MOL0     C33349   4.704   4.847   7.687  0.0695  0.6087 -0.3126
  967MOL0     C33350   4.731   4.955   7.578  0.5148 -0.2896  0.4048
  967MOL0     C33351   4.807   5.075   7.632 -0.8064 -0.3487  0.2903
  967MOL0     C33352   4.965   5.055   7.645 -0.5806  0.1046 -0.4285
  967MOL0    Cl33353   5.043   5.005   7.502  0.0018  0.1340  0.1595
  967MOL0     C33354   4.066   4.492   7.412 -0.3364  0.2118 -0.1099
  967MOL0     C33355   3.932   4.465   7.396  1.1002 -0.2956 -0.2701
  967MOL0     O33356   3.680   4.456   7.624 -0.6515  0.2305  0.1585
  967MOL0     C33357   3.476   4.278   7.394  0.2523 -0.5871 -0.2631
  967MOL0     C33358   3.344   4.229   7.375  0.5914 -0.1936 -0.0991
  967MOL0     N33359   2.620   4.331   7.414 -0.0401  0.3583 -0.1733
  967MOL0     N33360   2.525   4.423   7.423 -0.1611  0.2580  0.0178
  967MOL0     C33361   2.037   4.711   6.662 -0.3110 -0.1674 -0.3377
  967MOL0     C33362   1.897   4.684   6.662 -0.4616  0.2450  0.2778
  967MOL0     C33363   1.448   4.667   6.723 -0.0319  0.0050  0.0102
  967MOL0     C33364   1.382   4.754   6.645 -0.2722 -0.1007 -0.4781
  967MOL0     C33365   1.244   4.753   6.627  0.2677  0.8320 -1.3725
  967MOL0     C33366   1.173   4.630   6.647 -0.0047 -0.3070  0.1653
  967MOL0     O33367   1.033   4.606   6.615  0.1831  0.3461 -0.1340
  967MOL0     C33368   0.970   4.694   6.523  0.3046 -0.7808  0.4196
  967MOL0     C33369   0.868   4.800   6.578  0.2579  0.0290  0.6133
  967MOL0     C33370   0.761   4.863   6.486 -0.3883  0.1015 -0.0515
  967MOL0     C33371   0.673   4.757   6.412 -0.4523 -0.0655 -0.8991
  967MOL0     C33372   0.592   4.679   6.509 -0.6633 -0.5760  0.4277
  967MOL0     C33373   0.536   4.621   6.600 -0.0784 -0.3171 -0.8748
  967MOL0     C33374   1.241   4.538   6.727 -1.3661  1.3503  0.1847
  967MOL0     C33375   1.376   4.546   6.766  0.3911 -0.2281  0.6030
  967MOL0     C33376   1.432   4.429   6.849  0.0802  0.3732 -0.9114
  967MOL0     H33377   1.779   4.998   6.669  0.3953  0.2956  4.0999
  967MOL0     H33378   2.016   5.047   6.710 -1.4136 -0.1570  1.3362
  967MOL0     H33379   2.410   4.866   6.714  2.2716 -1.5976 -3.5293
  967MOL0     H33380   2.339   4.743   6.606 -0.4458 -1.6499  0.0619
  967MOL0     H33381   2.259   4.623   6.798  2.8032 -2.6652  3.7207
  967MOL0     H33382   2.422   4.674   6.834  1.4836  1.7142 -0.8396
  967MOL0     H33383   2.351   4.868   6.950  0.2630  0.5816  0.1040
  967MOL0     H33384   2.185   4.841   6.933 -0.5464  0.4817  3.6862
  967MOL0     H33385   2.198   4.624   7.051 -2.6879  3.1404 -0.7645
  967MOL0     H33386   2.372   4.648   7.104  1.2220  0.5488 -1.6444
  967MOL0     H33387   2.138   4.840   7.157  0.5912 -0.0577 -3.2238
  967MOL0     H33388   2.294   4.861   7.225 -0.6663  1.0273 -0.5472
  967MOL0     H33389   2.149   4.759   7.393 -2.9964 -1.6247  1.2428
  967MOL0     H33390   2.111   4.634   7.280 -0.1594  3.3478 -2.7587
  967MOL0     H33391   2.285   4.602   7.473 -0.8329  0.4047 -0.1832
  967MOL0     H33392   2.401   4.659   7.350 -1.9484  3.3576  0.1747
  967MOL0     H33393   2.214   4.412   7.352  1.6724 -0.7252  1.5309
  967MOL0     H33394   2.297   4.458   7.206 -1.8329 -0.7151 -0.2063
  967MOL0     H33395   2.421   4.222   7.193 -1.8594  0.6885  0.3911
  967MOL0     H33396   2.628   4.111   7.173 -0.6102  0.8283  0.4109
  967MOL0     H33397   2.682   4.043   7.323 -1.6939 -1.9505 -2.3913
  967MOL0     H33398   2.872   4.117   7.176  3.5548 -0.2763  2.3912
  967MOL0     H33399   2.810   4.284   7.177 -3.8503 -2.0969 -0.2199
  967MOL0     H33400   2.892   4.320   7.397  1.9402  1.8441 -2.5970
  967MOL0     H33401   2.867   4.148   7.443 -0.1563  0.3748  0.5365
  967MOL0     H33402   3.057   4.081   7.308 -0.0664 -1.3003  2.2543
  967MOL0     H33403   3.099   4.252   7.265 -2.1526  2.0721 -1.1948
  967MOL0     H33404   3.221   4.307   7.687  0.4556  2.1122  0.3877
  967MOL0     H33405   3.384   4.298   7.836 -1.2195 -2.3064 -2.5132
  967MOL0     H33406   3.439   4.459   7.787 -0.5058 -0.8199 -1.1719
  967MOL0     H33407   3.559   4.335   7.818  1.1869  2.9050  1.7248
  967MOL0     H33408   3.887   4.228   7.626 -0.2876  0.0934 -0.1576
  967MOL0     H33409   4.134   4.279   7.672 -0.2559 -1.4764 -0.7030
  967MOL0     H33410   4.382   4.538   7.394  1.6471 -0.0487  1.3136
  967MOL0     H33411   4.292   4.646   7.514  1.1727  0.4823  2.9463
  967MOL0     H33412   4.459   4.539   7.674 -1.3002  2.2695  0.2237
  967MOL0     H33413   4.540   4.482   7.522 -2.3922 -2.1853  0.0740
  967MOL0     H33414   4.467   4.775   7.582  0.1337  0.8002 -2.1177
  967MOL0     H33415   4.558   4.720   7.439  4.3147  0.3496  0.2802
  967MOL0     H33416   4.745   4.702   7.532 -2.0868 -0.4686 -2.1806
  967MOL0     H33417   4.682   4.630   7.683 -1.3663 -5.5735 -5.6944
  967MOL0     H33418   4.630   4.879   7.760 -1.1431  0.3776 -1.4041
  967MOL0     H33419   4.798   4.829   7.740  0.5406 -0.0527 -1.3430
  967MOL0     H33420   4.631   4.988   7.548  0.3579 -1.0667  0.0312
  967MOL0     H33421   4.773   4.913   7.486  1.0092 -2.3833  1.5336
  967MOL0     H33422   4.759   5.098   7.727 -2.2802 -0.3560 -0.4246
  967MOL0     H33423   4.791   5.158   7.563  0.4600  0.2467  0.6815
  967MOL0     H33424   4.991   4.988   7.728 -1.6123 -0.1489 -0.2939
  967MOL0     H33425   5.006   5.151   7.679 -2.1336 -0.1483  2.4642
  967MOL0     H33426   4.113   4.560   7.342  1.7042 -1.9093 -0.9496
  967MOL0     H33427   3.875   4.511   7.315  0.0970 -0.3935  0.3646
  967MOL0     H33428   3.539   4.268   7.306  1.1315 -0.8881  0.3897
  967MOL0     H33429   3.310   4.191   7.280 -0.4610 -0.4917  0.3888
  967MOL0     H33430   2.107   4.630   6.642  0.4144  0.6677 -1.3085
  967MOL0     H33431   1.854   4.584   6.654 -2.0519  0.8632  0.8130
  967MOL0     H33432   1.447   4.830   6.605  0.5123  1.1270  2.8046
  967MOL0     H33433   1.189   4.836   6.584  0.9157  2.0075 -0.0396
  967MOL0     H33434   1.051   4.741   6.466 -1.1468  1.0609 -0.2259
  967MOL0     H33435   0.920   4.623   6.455  0.0398  0.5577 -0.8444
  967MOL0     H33436   0.917   4.883   6.630 -0.8358  3.3166 -3.0705
  967MOL0     H33437   0.817   4.744   6.656  0.9052 -0.9018  0.3826
  967MOL0     H33438   0.693   4.929   6.541 -0.1693  0.8025 -0.6019
  967MOL0     H33439   0.825   4.924   6.420 -1.2230  4.0843  2.4313
  967MOL0     H33440   0.724   4.680   6.353 -1.8752 -0.9820 -0.9650
  967MOL0     H33441   0.600   4.804   6.345 -1.6387 -1.0283 -0.3096
  967MOL0     H33442   0.481   4.568   6.674 -0.0192  0.4736 -0.2418
  967MOL0     H33443   1.193   4.451   6.769  0.0690  1.2847  1.8189
  967MOL0     H33444   1.354   4.390   6.914  1.2928 -0.4924  0.0596
  967MOL0     H33445   1.468   4.345   6.790  2.1474  0.1109  0.6172
  967MOL0     H33446   1.517   4.455   6.913  1.8243 -1.2248 -2.4561
  968MOL0     O33447   9.131   7.885   3.716  0.7570 -0.7156 -0.5782
  968MOL0     C33448   9.025   7.845   3.764  0.7344 -1.0150  1.0286
  968MOL0     O33449   9.005   7.812   3.897 -0.1269 -0.2127 -0.2014
  968MOL0     C33450   9.120   7.808   3.976  1.4212 -0.1895 -0.4289
  968MOL0     C33451   9.193   7.921   3.998 -0.3178 -1.4373 -0.2069
  968MOL0     C33452   9.289   7.931   4.097  0.0300  0.0265 -1.0473
  968MOL0     C33453   9.320   7.811   4.163 -0.3934 -0.2964 -0.2137
  968MOL0     O33454   9.420   7.819   4.266 -0.0207 -0.5485 -0.1025
  968MOL0     C33455   9.393   7.762   4.394 -0.3003 -0.1028 -0.1652
  968MOL0     C33456   9.490   7.820   4.494 -0.1195  0.4464  0.0846
  968MOL0     C33457   9.427   7.806   4.629  0.1320 -0.1007  0.0957
  968MOL0     C33458   9.370   7.935   4.676 -0.6041 -0.1905  0.3224
  968MOL0     C33459   9.300   7.926   4.805 -1.4880  0.5836 -1.1957
  968MOL0     C33460   9.240   8.056   4.856 -0.0522  0.3552 -0.0824
  968MOL0     C33461   9.123   8.097   4.769  0.2389  0.1424 -0.0618
  968MOL0     C33462   9.016   8.185   4.829  0.2834 -0.4045 -0.3223
  968MOL0     N33463   9.052   8.322   4.842  0.0583 -0.8396 -0.2614
  968MOL0     C33464   9.166   8.374   4.902 -0.9306 -0.0814 -0.3700
  968MOL0     C33465   9.171   8.512   4.862 -0.4519  0.4338  0.0962
  968MOL0     C33466   9.294   8.600   4.883 -0.3008  0.7833  0.7186
  968MOL0     C33467   9.282   8.653   5.014 -0.1029 -0.3611 -0.1147
  968MOL0     C33468   9.385   8.768   5.013  0.0883  0.1065 -0.3943
  968MOL0     C33469   9.388   8.851   5.146  0.5842  0.5405  0.2420
  968MOL0     O33470   9.482   8.780   5.228 -0.0299  0.3097  0.6620
  968MOL0     C33471   9.536   8.856   5.331  0.4729  0.6330 -0.4275
  968MOL0     C33472   9.594   8.774   5.431  0.4040 -0.2506  0.3269
  968MOL0     C33473   9.661   8.832   5.538  0.1309 -0.6670 -0.2519
  968MOL0     C33474   9.724   8.730   5.636 -0.2598  0.3449  0.5693
  968MOL0     C33475   9.661   8.978   5.557 -0.6737  0.2113  0.8712
  968MOL0     C33476   9.707   9.038   5.685 -0.1718  0.2491 -0.3708
  968MOL0     O33477   9.669   9.171   5.702 -0.4330  0.8932 -0.3039
  968MOL0     C33478   9.681   9.222   5.828 -0.6802 -0.0861 -0.2751
  968MOL0     C33479   9.806   9.271   5.875  0.6049  0.0004 -0.5241
  968MOL0     C33480   9.818   9.343   6.000  0.3755 -0.3826  0.9803
  968MOL0     C33481   9.705   9.372   6.081  0.4430 -0.0043  0.2176
  968MOL0     O33482   9.710   9.430   6.203 -0.1968 -0.1339 -0.6544
  968MOL0     C33483   9.743   9.570   6.186 -0.9966  0.0383 -0.1607
  968MOL0     C33484   9.750   9.643   6.313  0.4404 -0.3354  0.2965
  968MOL0     C33485   9.804   9.781   6.298  0.0494 -0.2227  0.0844
  968MOL0     C33486   9.778   9.848   6.424  0.2040 -0.2557 -0.2386
  968MOL0     C33487   9.870   9.973   6.431  0.7016 -0.8902  0.8621
  968MOL0     C33488   9.822  10.061   6.547  0.6251  0.0272  0.1996
  968MOL0     C33489   9.913  10.178   6.580 -0.0025 -0.3170  1.0406
  968MOL0     C33490   9.890  10.291   6.475 -0.4011  0.1060  0.1027
  968MOL0    Cl33491   9.752  10.398   6.517  0.1320  0.2344 -0.2586
  968MOL0     C33492   9.583   9.330   6.027  0.5755  0.2462 -0.4193
  968MOL0     C33493   9.568   9.266   5.909 -0.6527 -0.3828 -1.0527
  968MOL0     O33494   9.777   8.977   5.764  0.0062 -0.7530 -0.0369
  968MOL0     C33495   9.590   9.056   5.459  0.2332  0.0205  0.3027
  968MOL0     C33496   9.542   8.994   5.344 -0.6729  0.1822  0.6276
  968MOL0     N33497   9.054   8.528   4.784 -0.3933 -0.6717 -0.1694
  968MOL0     N33498   8.983   8.414   4.772 -0.3256  1.1724  0.0293
  968MOL0     C33499   9.261   7.689   4.131 -0.0519  0.1298  0.6972
  968MOL0     C33500   9.150   7.690   4.052  1.2824 -0.2496 -1.1240
  968MOL0     C33501   8.900   7.858   3.678  0.3097 -0.8459  0.0558
  968MOL0     C33502   8.895   7.963   3.583  0.1032 -0.3062  0.4015
  968MOL0     C33503   8.790   7.969   3.492 -0.0806  0.1074  0.9579
  968MOL0     C33504   8.687   7.868   3.498  0.5844  0.1323 -0.6593
  968MOL0     O33505   8.573   7.859   3.428  0.7999  0.1968 -0.0969
  968MOL0     C33506   8.523   7.963   3.347 -0.2658 -0.7562  0.1833
  968MOL0     C33507   8.524   7.922   3.203  0.6952  0.3692  0.4710
  968MOL0     C33508   8.456   8.038   3.132 -0.4298  0.0230  0.0588
  968MOL0     C33509   8.439   8.021   2.987 -0.9117  0.0935 -0.8263
  968MOL0     C33510   8.307   7.958   2.954  0.5471 -0.5593 -0.3828
  968MOL0     C33511   8.204   7.913   2.907 -0.2927 -0.1012  0.4553
  968MOL0     C33512   8.690   7.776   3.603 -0.3780 -0.8835 -0.1983
  968MOL0     C33513   8.792   7.767   3.698  0.4456 -0.5568  1.5500
  968MOL0     C33514   8.775   7.658   3.796  0.5675 -0.2075  0.2607
  968MOL0     H33515   9.180   8.012   3.940 -0.8291 -1.7402 -0.5787
  968MOL0     H33516   9.332   8.022   4.137 -0.6942 -0.8920  2.0719
  968MOL0     H33517   9.392   7.653   4.391  0.7027 -0.1220  0.0231
  968MOL0     H33518   9.287   7.774   4.421 -0.7228 -4.9076  1.2441
  968MOL0     H33519   9.578   7.755   4.504 -1.2420 -0.7914  2.6729
  968MOL0     H33520   9.517   7.923   4.469 -0.8747  0.5211 -0.4370
  968MOL0     H33521   9.348   7.731   4.635 -0.6910  0.7681  0.2807
  968MOL0     H33522   9.501   7.769   4.700 -0.1063  0.2165  0.5102
  968MOL0     H33523   9.445   8.015   4.678 -2.8083  2.0583 -1.3881
  968MOL0     H33524   9.303   7.971   4.597 -3.0505 -2.0835  1.4158
  968MOL0     H33525   9.378   7.898   4.876 -1.8455  0.6509 -0.7669
  968MOL0     H33526   9.219   7.853   4.795  0.9706 -2.3978 -1.0130
  968MOL0     H33527   9.210   8.038   4.960 -2.6075  0.7671 -0.6860
  968MOL0     H33528   9.313   8.136   4.847  0.8217 -0.3166  0.7711
  968MOL0     H33529   9.077   8.003   4.735  0.8978 -0.4030  0.5119
  968MOL0     H33530   9.164   8.156   4.687  1.1898 -1.6371 -0.9370
  968MOL0     H33531   8.929   8.166   4.766 -0.3677  2.0289 -0.2510
  968MOL0     H33532   8.994   8.153   4.931 -1.1009 -0.4978 -0.6346
  968MOL0     H33533   9.249   8.332   4.959 -0.2689  1.0763 -0.4480
  968MOL0     H33534   9.282   8.667   4.797 -0.4587 -0.4143 -0.2241
  968MOL0     H33535   9.383   8.541   4.861 -0.1643  1.6286 -1.2623
  968MOL0     H33536   9.183   8.697   5.034 -0.2860 -0.2954 -1.1011
  968MOL0     H33537   9.303   8.582   5.095  3.5978 -0.4564 -0.9811
  968MOL0     H33538   9.488   8.742   4.989  1.0874  1.6407  1.8562
  968MOL0     H33539   9.347   8.846   4.947 -0.1290 -0.8878 -1.4772
  968MOL0     H33540   9.424   8.952   5.124 -3.2483  1.8153 -1.1549
  968MOL0     H33541   9.284   8.849   5.180 -0.0038  1.9201 -1.3327
  968MOL0     H33542   9.596   8.674   5.390  4.0392 -0.6268  1.0092
  968MOL0     H33543   9.668   8.717   5.729  0.2950 -1.8841  0.6464
  968MOL0     H33544   9.830   8.744   5.663  0.5887 -1.5966 -1.4527
  968MOL0     H33545   9.723   8.638   5.576 -0.8662  0.3996  0.4920
  968MOL0     H33546   9.895   9.247   5.817 -0.4759  3.3609 -4.0497
  968MOL0     H33547   9.915   9.369   6.042  0.9504 -2.7125  1.2347
  968MOL0     H33548   9.828   9.575   6.118 -1.0644 -2.1320 -0.4716
  968MOL0     H33549   9.660   9.625   6.141  3.5740  4.5643 -4.3692
  968MOL0     H33550   9.652   9.645   6.362  0.6312 -2.1247  0.8118
  968MOL0     H33551   9.831   9.601   6.372  1.2418 -1.8432 -1.7450
  968MOL0     H33552   9.754   9.844   6.225  3.0421  3.7473  1.1017
  968MOL0     H33553   9.910   9.785   6.270 -0.6043  4.4480 -2.8532
  968MOL0     H33554   9.787   9.788   6.515  1.7085  1.7080  1.0169
  968MOL0     H33555   9.672   9.872   6.432 -0.2372 -2.1646 -0.0572
  968MOL0     H33556   9.973   9.942   6.449  1.1378  1.0034  1.9376
  968MOL0     H33557   9.849  10.025   6.337 -1.7621 -0.5494  1.5143
  968MOL0     H33558   9.818  10.001   6.639  3.9465  1.5180  1.5153
  968MOL0     H33559   9.722  10.095   6.520  0.9480  1.2642  0.4891
  968MOL0     H33560  10.019  10.150   6.574 -0.2372 -1.1855  0.8092
  968MOL0     H33561   9.898  10.217   6.681  1.8686  1.0643  0.8348
  968MOL0     H33562   9.871  10.238   6.382 -0.1899 -0.8648  0.6028
  968MOL0     H33563   9.982  10.350   6.463 -0.6445  0.5408  0.3479
  968MOL0     H33564   9.488   9.357   6.073  0.0527  1.3986 -2.0724
  968MOL0     H33565   9.469   9.241   5.871 -1.1636 -0.1394  0.0622
  968MOL0     H33566   9.601   9.164   5.470  0.1376  0.1093 -0.3960
  968MOL0     H33567   9.484   9.060   5.279 -1.1287  3.3502  3.9233
  968MOL0     H33568   9.302   7.599   4.174  2.5147  0.4734 -0.8298
  968MOL0     H33569   9.096   7.596   4.041 -0.9967  0.8596 -0.1615
  968MOL0     H33570   8.974   8.038   3.586 -1.6079  1.5672  1.3618
  968MOL0     H33571   8.786   8.054   3.424 -2.8771  0.2747  1.2231
  968MOL0     H33572   8.426   7.993   3.388  0.2694  2.0232 -0.3557
  968MOL0     H33573   8.593   8.047   3.359 -2.0359  0.6730  0.9041
  968MOL0     H33574   8.464   7.831   3.196  1.5101 -0.2491  1.2319
  968MOL0     H33575   8.627   7.919   3.168  1.6153  3.0719  2.5535
  968MOL0     H33576   8.356   8.063   3.168 -0.5929  3.3585 -2.1964
  968MOL0     H33577   8.517   8.129   3.129  1.1912 -1.0187 -1.9512
  968MOL0     H33578   8.526   7.970   2.944 -2.9861 -2.0273 -2.7914
  968MOL0     H33579   8.436   8.120   2.939 -1.6657 -0.0184 -1.0212
  968MOL0     H33580   8.113   7.879   2.860 -0.6121  2.6892 -1.1411
  968MOL0     H33581   8.613   7.700   3.610  1.9837 -3.4541 -0.1886
  968MOL0     H33582   8.689   7.595   3.770  2.3345 -2.8336  0.3842
  968MOL0     H33583   8.866   7.599   3.804 -0.7216 -2.3030  0.3131
  968MOL0     H33584   8.751   7.705   3.892 -1.8062  1.9852 -1.2665
  969MOL0     O33585  11.030   3.052   2.749 -0.0867 -0.2009 -0.5686
  969MOL0     C33586  11.010   3.147   2.821  0.2791  0.1889 -1.1571
  969MOL0     O33587  11.105   3.245   2.836  0.7094  0.1945 -0.4189
  969MOL0     C33588  11.237   3.215   2.805 -0.0722  0.1822 -0.1013
  969MOL0     C33589  11.327   3.322   2.775  0.6133 -0.2136  0.5579
  969MOL0     C33590  11.466   3.309   2.743 -1.2534  0.7350  0.4393
  969MOL0     C33591  11.513   3.177   2.747  0.4221  0.3099  1.0335
  969MOL0     O33592  11.645   3.158   2.720  0.5528 -0.3354 -0.5457
  969MOL0     C33593  11.710   3.038   2.664  0.3986 -0.2945 -0.1130
  969MOL0     C33594  11.819   3.079   2.567  0.2986 -0.4179 -1.1239
  969MOL0     C33595  11.858   2.981   2.457 -0.7299 -0.4243  0.1831
  969MOL0     C33596  11.963   2.873   2.496  0.5648 -0.4174 -0.4924
  969MOL0     C33597  12.021   2.814   2.375  0.2012 -0.0163  0.1547
  969MOL0     C33598  12.161   2.753   2.399  0.4460  0.7517 -0.1594
  969MOL0     C33599  12.206   2.640   2.303 -0.4281 -0.6110 -0.1698
  969MOL0     C33600  12.219   2.499   2.373 -0.2020 -0.7290  0.2451
  969MOL0     N33601  12.205   2.383   2.278  0.3710 -0.8245  0.1158
  969MOL0     C33602  12.305   2.321   2.201  0.5093 -0.2091  0.0553
  969MOL0     C33603  12.228   2.263   2.099  0.7165  0.6419  0.5782
  969MOL0     C33604  12.262   2.159   1.995  0.1457  0.0644  0.5037
  969MOL0     C33605  12.353   2.221   1.886 -0.5037 -0.0611 -0.6005
  969MOL0     C33606  12.378   2.139   1.759  0.1413  1.0511 -0.8827
  969MOL0     C33607  12.448   2.219   1.648 -0.1406 -0.0186  0.1021
  969MOL0     O33608  12.572   2.277   1.700 -0.1629  0.1843 -0.0293
  969MOL0     C33609  12.690   2.203   1.721 -0.0785  0.2266  0.0218
  969MOL0     C33610  12.803   2.279   1.756 -0.1185  0.1959  0.3820
  969MOL0     C33611  12.927   2.222   1.777 -0.0787 -1.2826 -0.0418
  969MOL0     C33612  13.046   2.308   1.828 -0.4618  0.6539  0.2555
  969MOL0     C33613  12.951   2.081   1.738  0.5480 -0.0445 -0.7876
  969MOL0     C33614  13.081   2.016   1.731  0.3227  0.3606 -0.6895
  969MOL0     O33615  13.097   1.884   1.766  0.0557 -0.3305 -0.3861
  969MOL0     C33616  13.227   1.832   1.773 -0.0186 -0.0328 -0.8464
  969MOL0     C33617  13.263   1.761   1.883 -0.7457  0.3410 -0.4315
  969MOL0     C33618  13.390   1.707   1.896 -0.9517  0.7122 -0.5265
  969MOL0     C33619  13.495   1.738   1.812  0.7959  0.2394 -0.6629
  969MOL0     O33620  13.621   1.699   1.830 -0.5653  0.1346  0.2100
  969MOL0     C33621  13.646   1.562   1.869 -0.3269  0.5195 -0.7069
  969MOL0     C33622  13.795   1.514   1.850 -0.2203 -0.8482  0.9797
  969MOL0     C33623  13.845   1.567   1.718 -0.1908  0.2768  0.2984
  969MOL0     C33624  13.970   1.505   1.686  0.7373 -0.3105  0.4022
  969MOL0     C33625  14.037   1.566   1.564 -0.1078  0.0927 -0.0432
  969MOL0     C33626  14.151   1.469   1.533  0.6693  1.3149  0.2473
  969MOL0     C33627  14.229   1.518   1.414 -0.0194 -0.4116  0.1252
  969MOL0     C33628  14.354   1.434   1.388 -0.5958 -0.7915  0.4858
  969MOL0    Cl33629  14.474   1.464   1.506  0.3051 -0.3517  0.3054
  969MOL0     C33630  13.461   1.807   1.694  0.2587 -0.2544  0.0017
  969MOL0     C33631  13.327   1.854   1.678  0.2644 -0.9419  0.7057
  969MOL0     O33632  13.173   2.094   1.696  0.0423  0.0544 -0.2947
  969MOL0     C33633  12.837   2.011   1.700  0.1218  0.6547 -0.2797
  969MOL0     C33634  12.706   2.061   1.705 -1.0193 -0.2126 -0.0651
  969MOL0     N33635  12.096   2.290   2.125  0.6602  0.0300  0.9413
  969MOL0     N33636  12.081   2.360   2.227  0.5852  0.5878 -0.9375
  969MOL0     C33637  11.426   3.073   2.784 -0.1019  0.0454  0.4672
  969MOL0     C33638  11.291   3.085   2.814 -0.0727  0.1250 -0.0194
  969MOL0     C33639  10.863   3.165   2.871 -0.9676 -0.5163 -0.0707
  969MOL0     C33640  10.819   3.295   2.886  0.3881 -0.0602 -0.1285
  969MOL0     C33641  10.691   3.316   2.929  1.3046  0.3007  0.1274
  969MOL0     C33642  10.605   3.213   2.971 -0.3140 -0.7307 -0.8058
  969MOL0     O33643  10.478   3.226   3.024 -0.4069  0.1922  0.3684
  969MOL0     C33644  10.426   3.347   3.067 -0.8698 -0.1960  0.5484
  969MOL0     C33645  10.500   3.399   3.184  0.0896 -0.0723 -0.8338
  969MOL0     C33646  10.472   3.328   3.315  0.3410 -0.1287 -0.2438
  969MOL0     C33647  10.551   3.389   3.433 -0.1592 -1.6622  0.3578
  969MOL0     C33648  10.579   3.272   3.515 -0.8246  0.2555 -0.8402
  969MOL0     C33649  10.621   3.191   3.593  0.1303  0.9144 -0.7877
  969MOL0     C33650  10.653   3.085   2.960  0.1007 -0.2626  0.1672
  969MOL0     C33651  10.776   3.058   2.907 -0.6004  0.6724 -0.2621
  969MOL0     C33652  10.822   2.914   2.897  1.1771 -0.4697  0.2007
  969MOL0     H33653  11.287   3.422   2.784 -0.8189 -0.5196 -1.6772
  969MOL0     H33654  11.535   3.391   2.726 -1.2899  0.4391 -1.3140
  969MOL0     H33655  11.634   2.976   2.614 -0.5212  1.4433 -0.9510
  969MOL0     H33656  11.749   2.981   2.748  0.3469  1.6894  1.3228
  969MOL0     H33657  11.792   3.176   2.524  0.7412 -0.0937 -0.6810
  969MOL0     H33658  11.905   3.111   2.626 -1.0903 -0.3472  0.9744
  969MOL0     H33659  11.775   2.922   2.418  0.8889 -2.0230 -1.0372
  969MOL0     H33660  11.897   3.048   2.380 -2.5735  0.5850  0.0831
  969MOL0     H33661  12.042   2.917   2.556 -0.6608  1.4704 -0.1927
  969MOL0     H33662  11.912   2.804   2.565  1.1656  0.2330  0.6202
  969MOL0     H33663  12.030   2.891   2.298  1.4221  0.3681  0.6566
  969MOL0     H33664  11.955   2.737   2.334  1.9662 -0.8143 -1.3246
  969MOL0     H33665  12.234   2.834   2.394  2.0755 -0.5843  0.6661
  969MOL0     H33666  12.182   2.715   2.500 -0.4002 -1.3074 -0.6982
  969MOL0     H33667  12.306   2.671   2.273 -0.8399  2.3298  1.1640
  969MOL0     H33668  12.135   2.635   2.220 -0.8117 -3.3750  0.2306
  969MOL0     H33669  12.319   2.487   2.416 -0.8612  0.4878  2.2571
  969MOL0     H33670  12.144   2.486   2.452 -0.8906 -0.2817 -0.3204
  969MOL0     H33671  12.411   2.308   2.219  0.4992  0.3333  0.5260
  969MOL0     H33672  12.175   2.129   1.937  0.3910  0.4735 -0.0858
  969MOL0     H33673  12.312   2.083   2.057  1.0456  1.3194  1.3652
  969MOL0     H33674  12.310   2.316   1.851  1.0591  0.5195 -0.9940
  969MOL0     H33675  12.451   2.251   1.923 -1.2395  0.5995  0.9205
  969MOL0     H33676  12.445   2.055   1.780  1.1148  1.7171 -1.2520
  969MOL0     H33677  12.285   2.095   1.721 -0.7521  2.6667 -0.6477
  969MOL0     H33678  12.481   2.146   1.574  3.1094  1.9575 -0.6620
  969MOL0     H33679  12.392   2.302   1.604  3.2556  2.4599  0.0307
  969MOL0     H33680  12.780   2.385   1.755 -0.0488  0.2416 -1.9270
  969MOL0     H33681  13.109   2.247   1.893 -3.9215 -2.4769  0.9986
  969MOL0     H33682  13.013   2.401   1.874 -1.3911  1.1284 -1.3039
  969MOL0     H33683  13.112   2.344   1.748 -0.1183 -0.1838  0.1473
  969MOL0     H33684  13.195   1.743   1.966  2.4861  1.3167  2.6839
  969MOL0     H33685  13.420   1.659   1.988 -1.0081 -0.0554 -0.8986
  969MOL0     H33686  13.621   1.552   1.975  0.8645  0.1051 -0.4506
  969MOL0     H33687  13.589   1.491   1.808  0.7096 -1.0126  0.0230
  969MOL0     H33688  13.858   1.550   1.932 -1.1789 -1.4755  2.0181
  969MOL0     H33689  13.804   1.405   1.846 -0.7470 -0.8587 -2.4427
  969MOL0     H33690  13.871   1.669   1.745  0.3171 -0.0296  1.0108
  969MOL0     H33691  13.773   1.557   1.637 -1.9887  1.0709  1.7333
  969MOL0     H33692  13.955   1.397   1.671  1.4558 -0.1740 -1.5221
  969MOL0     H33693  14.047   1.512   1.764 -0.3596  0.7917  1.4334
  969MOL0     H33694  13.969   1.567   1.479  0.9837  1.6803 -0.9623
  969MOL0     H33695  14.074   1.668   1.579 -1.1989  1.0874 -3.1962
  969MOL0     H33696  14.108   1.371   1.507  0.8566  1.1913  0.4032
  969MOL0     H33697  14.204   1.459   1.628 -4.6290 -3.6550  3.3106
  969MOL0     H33698  14.264   1.621   1.424  1.6188 -1.1244  2.6856
  969MOL0     H33699  14.167   1.518   1.324  0.0933  2.5761 -0.0693
  969MOL0     H33700  14.386   1.456   1.285 -1.8244  0.5116  0.3506
  969MOL0     H33701  14.321   1.330   1.394 -1.9513 -0.5040 -1.0670
  969MOL0     H33702  13.531   1.821   1.613  2.8961  1.5010  2.3780
  969MOL0     H33703  13.306   1.912   1.589 -1.7145  1.2351  2.4750
  969MOL0     H33704  12.856   1.911   1.661 -2.0870  1.5473 -4.2069
  969MOL0     H33705  12.628   1.993   1.672 -0.2320 -0.2285 -2.0305
  969MOL0     H33706  11.459   2.970   2.786  1.5090  0.5388  1.5334
  969MOL0     H33707  11.229   3.004   2.850 -3.0739  1.2346 -2.3132
  969MOL0     H33708  10.894   3.371   2.866  1.4056 -0.2877  2.5110
  969MOL0     H33709  10.656   3.419   2.931 -0.6746 -0.3287 -0.3536
  969MOL0     H33710  10.436   3.416   2.983  1.2904 -2.0733 -0.8582
  969MOL0     H33711  10.320   3.342   3.095 -0.4726  1.7755  2.6990
  969MOL0     H33712  10.477   3.505   3.200  2.4399  0.5987 -1.5258
  969MOL0     H33713  10.607   3.401   3.161  0.3543  0.1291  0.3468
  969MOL0     H33714  10.365   3.329   3.339  0.1224 -1.7804 -0.9627
  969MOL0     H33715  10.495   3.222   3.298 -1.3332 -0.8339  1.4927
  969MOL0     H33716  10.497   3.462   3.493  1.5536 -1.7923  2.1488
  969MOL0     H33717  10.643   3.438   3.398 -2.2413  0.3190 -2.8436
  969MOL0     H33718  10.659   3.125   3.668 -3.6197  1.2119  1.6693
  969MOL0     H33719  10.583   3.012   2.998 -0.7374  1.4719  2.1822
  969MOL0     H33720  10.831   2.880   2.793  1.2715  0.8635 -0.2487
  969MOL0     H33721  10.916   2.918   2.953  0.2789 -2.0536  1.9235
  969MOL0     H33722  10.754   2.845   2.946 -2.0363  0.4879 -2.5479
  970MOL0     O33723   6.223   5.031   0.998  0.4045  0.4015 -0.1395
  970MOL0     C33724   6.342   5.072   0.984  0.5591 -0.0179 -0.1660
  970MOL0     O33725   6.418   5.056   0.875 -0.3195 -0.0575  0.3597
  970MOL0     C33726   6.372   4.996   0.759 -0.4135  0.0336  0.4729
  970MOL0     C33727   6.256   5.040   0.692  0.5270  0.2386 -0.2146
  970MOL0     C33728   6.220   4.999   0.563  0.8826  0.8866 -0.2385
  970MOL0     C33729   6.308   4.919   0.489  0.9638  0.5601 -0.5227
  970MOL0     O33730   6.278   4.875   0.355  0.4506 -1.0813 -0.3230
  970MOL0     C33731   6.152   4.917   0.303 -0.0879 -1.0802 -0.1712
  970MOL0     C33732   6.138   4.861   0.165  0.0801 -0.3492 -0.3690
  970MOL0     C33733   6.214   4.942   0.062  0.4831 -0.1436  0.3737
  970MOL0     C33734   6.229   4.858  -0.067  0.8803 -0.8173  0.1506
  970MOL0     C33735   6.093   4.861  -0.144 -1.4060 -0.3495  0.8107
  970MOL0     C33736   6.119   4.830  -0.289 -0.1751 -0.5896  0.5844
  970MOL0     C33737   5.991   4.810  -0.374  0.6951  0.0814  1.0736
  970MOL0     C33738   6.004   4.745  -0.518 -0.3632 -0.5206 -0.2960
  970MOL0     N33739   6.098   4.808  -0.615  0.4529  0.0322 -0.2656
  970MOL0     C33740   6.085   4.923  -0.690 -0.0592 -0.1102  0.4096
  970MOL0     C33741   6.199   4.939  -0.760 -0.2476 -0.0700 -0.5319
  970MOL0     C33742   6.228   5.049  -0.858  0.4648  0.1650  0.1746
  970MOL0     C33743   6.343   5.133  -0.818 -0.1790  0.6851  0.3207
  970MOL0     C33744   6.473   5.113  -0.898 -0.4584  0.1546  0.6370
  970MOL0     C33745   6.560   5.240  -0.901 -0.9367  0.1133  0.0127
  970MOL0     O33746   6.693   5.195  -0.936  1.2777  0.9990 -0.5994
  970MOL0     C33747   6.783   5.285  -0.980  0.0728  0.3233 -1.0882
  970MOL0     C33748   6.774   5.418  -0.968 -0.6976 -0.3548  1.1413
  970MOL0     C33749   6.866   5.508  -1.028  0.2596 -0.2474  0.4368
  970MOL0     C33750   6.817   5.648  -1.033 -0.3125 -0.2364 -0.0987
  970MOL0     C33751   6.989   5.464  -1.082  0.3578 -0.0848  0.3102
  970MOL0     C33752   7.100   5.538  -1.130 -0.4615  0.3652  0.3661
  970MOL0     O33753   7.217   5.479  -1.133 -1.5206 -0.1518  0.7286
  970MOL0     C33754   7.331   5.542  -1.182  0.5420 -0.3537 -0.1463
  970MOL0     C33755   7.429   5.454  -1.216  0.1477 -0.0199  0.7470
  970MOL0     C33756   7.544   5.496  -1.288 -0.2926 -0.5594 -0.8153
  970MOL0     C33757   7.573   5.639  -1.300  0.5716  0.4398  0.8046
  970MOL0     O33758   7.695   5.689  -1.335  0.0284  0.2010 -0.5922
  970MOL0     C33759   7.717   5.723  -1.472 -0.4564 -0.1439 -0.1931
  970MOL0     C33760   7.865   5.772  -1.475  1.1602 -0.7946  0.0319
  970MOL0     C33761   7.969   5.671  -1.512 -0.1995 -0.6772  0.3335
  970MOL0     C33762   8.100   5.743  -1.516 -0.0368 -0.6382 -0.7635
  970MOL0     C33763   8.205   5.674  -1.591  0.3623 -0.0538 -0.1101
  970MOL0     C33764   8.342   5.747  -1.600 -0.2858 -0.1342 -0.4587
  970MOL0     C33765   8.463   5.674  -1.647 -0.2370  0.9826 -0.3684
  970MOL0     C33766   8.596   5.745  -1.607  0.1985 -0.2312  0.7328
  970MOL0    Cl33767   8.744   5.665  -1.664 -0.3447  0.0522 -0.3429
  970MOL0     C33768   7.467   5.726  -1.265  0.4459  0.4200  0.0693
  970MOL0     C33769   7.357   5.681  -1.202 -0.6605  0.5028 -0.9569
  970MOL0     O33770   7.085   5.657  -1.133  1.2897  0.1694 -0.4202
  970MOL0     C33771   7.001   5.324  -1.070 -0.2974 -0.7439  0.0052
  970MOL0     C33772   6.902   5.234  -1.022 -0.5701 -0.2008 -1.1467
  970MOL0     N33773   6.279   4.829  -0.738  0.4793  0.0135 -0.3602
  970MOL0     N33774   6.224   4.761  -0.639  0.0435  0.2729 -0.1435
  970MOL0     C33775   6.434   4.883   0.542 -0.1699 -0.5454  0.2072
  970MOL0     C33776   6.460   4.926   0.672 -0.0635 -0.0656 -0.8409
  970MOL0     C33777   6.403   5.117   1.110 -0.2634 -0.1213 -0.1024
  970MOL0     C33778   6.547   5.111   1.120  0.1216  0.1692 -0.4283
  970MOL0     C33779   6.617   5.167   1.230 -0.0285 -0.4402 -0.1741
  970MOL0     C33780   6.550   5.225   1.339  0.4798  0.7618  0.8195
  970MOL0     O33781   6.611   5.301   1.432 -0.2965  0.0627 -0.1884
  970MOL0     C33782   6.751   5.303   1.454  1.6601  0.4356  0.2743
  970MOL0     C33783   6.764   5.353   1.597  0.9570 -0.0350 -0.7530
  970MOL0     C33784   6.742   5.247   1.707  0.3617  0.0453  0.1525
  970MOL0     C33785   6.761   5.312   1.847 -0.0188  0.0103  0.4107
  970MOL0     C33786   6.715   5.215   1.950  0.6430 -0.1622 -0.8150
  970MOL0     C33787   6.676   5.134   2.031 -0.2338  0.1252  1.1500
  970MOL0     C33788   6.407   5.226   1.331 -0.0061  0.0445 -0.4173
  970MOL0     C33789   6.337   5.182   1.222 -0.4712  0.9802  1.2058
  970MOL0     C33790   6.186   5.202   1.226 -0.0653  0.7473  0.2962
  970MOL0     H33791   6.202   5.122   0.737 -0.7762 -0.4525 -0.4649
  970MOL0     H33792   6.137   5.050   0.516  0.6063  0.4897 -0.1843
  970MOL0     H33793   6.144   5.026   0.302 -0.1672 -1.0736 -1.6104
  970MOL0     H33794   6.069   4.886   0.367  0.4500 -1.1329  0.5096
  970MOL0     H33795   6.173   4.757   0.169  3.2623  0.5791 -0.9596
  970MOL0     H33796   6.032   4.871   0.142 -0.3546 -1.5382  1.0149
  970MOL0     H33797   6.150   5.028   0.040  1.5883  0.2230 -1.6774
  970MOL0     H33798   6.310   4.979   0.099  1.6775  0.0028 -2.5290
  970MOL0     H33799   6.311   4.902  -0.125  0.9971  1.4482  1.9160
  970MOL0     H33800   6.257   4.755  -0.044 -5.8609 -3.0382  0.6195
  970MOL0     H33801   6.048   4.960  -0.136  0.6072  0.7300 -0.4112
  970MOL0     H33802   6.017   4.789  -0.112  0.6883 -1.6613  3.2857
  970MOL0     H33803   6.178   4.909  -0.336 -0.7630  0.0018  0.8292
  970MOL0     H33804   6.175   4.736  -0.296 -0.4802 -0.8452  1.4377
  970MOL0     H33805   5.948   4.906  -0.403 -1.5585 -1.3416 -0.6226
  970MOL0     H33806   5.918   4.758  -0.311  2.4794 -3.0800  0.7568
  970MOL0     H33807   6.046   4.646  -0.499 -1.1204 -0.9510 -0.7832
  970MOL0     H33808   5.910   4.735  -0.574 -0.8192 -0.5615  0.4659
  970MOL0     H33809   6.002   4.993  -0.692 -1.1123 -1.3530 -0.5776
  970MOL0     H33810   6.135   5.106  -0.865 -0.0882 -0.7516 -0.1165
  970MOL0     H33811   6.244   5.000  -0.954 -2.0319 -1.9840  0.7299
  970MOL0     H33812   6.305   5.235  -0.828  0.4812  0.8855 -0.1889
  970MOL0     H33813   6.368   5.141  -0.712 -0.8425 -3.0484  0.8946
  970MOL0     H33814   6.532   5.034  -0.851  0.7343  0.7536  0.1986
  970MOL0     H33815   6.460   5.088  -1.004  2.3650  0.4699  0.1360
  970MOL0     H33816   6.508   5.304  -0.973 -2.1179 -0.5616  0.2421
  970MOL0     H33817   6.559   5.295  -0.806  0.2755 -1.1221  0.7816
  970MOL0     H33818   6.693   5.460  -0.908 -0.3141 -2.0050  2.9019
  970MOL0     H33819   6.877   5.715  -0.971 -0.5352 -0.0000 -0.1356
  970MOL0     H33820   6.712   5.656  -1.006 -0.3166 -1.9902  0.5375
  970MOL0     H33821   6.822   5.685  -1.136  1.0035  1.2256  0.4380
  970MOL0     H33822   7.399   5.350  -1.226  1.8784 -0.3659 -1.8352
  970MOL0     H33823   7.616   5.424  -1.324 -0.0433 -0.5737 -0.3026
  970MOL0     H33824   7.700   5.633  -1.532 -1.5387 -1.2698  1.6784
  970MOL0     H33825   7.644   5.801  -1.499  0.4750  1.3546  1.4026
  970MOL0     H33826   7.872   5.858  -1.543  1.1303  0.6450  1.7537
  970MOL0     H33827   7.880   5.807  -1.372 -1.7810  2.7640 -0.5381
  970MOL0     H33828   7.931   5.628  -1.605 -0.3994  0.3672 -0.0868
  970MOL0     H33829   7.968   5.591  -1.438  2.0682  0.2426  1.4461
  970MOL0     H33830   8.133   5.763  -1.414 -0.7544 -0.4938 -0.5565
  970MOL0     H33831   8.084   5.833  -1.576  2.4778  0.3231 -0.1485
  970MOL0     H33832   8.205   5.572  -1.550 -2.8285  0.3140  1.1418
  970MOL0     H33833   8.166   5.656  -1.692  1.7115 -2.4070 -0.2864
  970MOL0     H33834   8.369   5.806  -1.511 -0.5534  0.0326 -0.4868
  970MOL0     H33835   8.322   5.827  -1.672  1.8209  0.4106 -0.5306
  970MOL0     H33836   8.449   5.661  -1.755  0.8182 -4.2939 -0.1613
  970MOL0     H33837   8.463   5.568  -1.619 -3.6763  0.8458 -0.3963
  970MOL0     H33838   8.615   5.762  -1.501  0.8523 -1.5668  0.8512
  970MOL0     H33839   8.592   5.844  -1.654 -3.3227  0.5655  2.3893
  970MOL0     H33840   7.475   5.833  -1.279  1.4905  0.0866 -2.4314
  970MOL0     H33841   7.290   5.757  -1.163  0.8417  0.8067  1.2161
  970MOL0     H33842   7.093   5.278  -1.104  1.6386  1.6489  1.7415
  970MOL0     H33843   6.923   5.127  -1.025  1.4062 -0.1262  2.9713
  970MOL0     H33844   6.502   4.821   0.484 -0.1556 -0.5560  0.2361
  970MOL0     H33845   6.556   4.905   0.719 -1.1809 -0.0612  1.6067
  970MOL0     H33846   6.608   5.058   1.047 -2.4097 -0.4715 -2.2497
  970MOL0     H33847   6.724   5.153   1.239 -0.3686 -2.0343  3.1381
  970MOL0     H33848   6.776   5.197   1.454 -2.1393 -0.6150  0.9969
  970MOL0     H33849   6.805   5.374   1.391  3.7361  0.7387  2.2767
  970MOL0     H33850   6.700   5.438   1.620  2.2244  0.4137  1.3998
  970MOL0     H33851   6.866   5.389   1.611  0.1193  1.4869  2.0933
  970MOL0     H33852   6.641   5.208   1.694  0.5968 -0.2116 -0.9467
  970MOL0     H33853   6.812   5.163   1.707  1.4041  0.8938  0.8679
  970MOL0     H33854   6.710   5.407   1.862  1.4129  0.5917  1.9515
  970MOL0     H33855   6.868   5.330   1.863  0.5133 -2.5528  0.1662
  970MOL0     H33856   6.627   5.059   2.091 -3.7549  0.7861 -0.6183
  970MOL0     H33857   6.357   5.259   1.421  1.3018 -1.0699  0.7578
  970MOL0     H33858   6.168   5.284   1.296  2.2109  0.9151  0.7366
  970MOL0     H33859   6.146   5.228   1.127 -2.9694 -0.7020  0.9652
  970MOL0     H33860   6.132   5.109   1.245  2.9250 -1.7933 -2.5643
  971MOL0     O33861   3.307   9.942   3.548  0.7133 -0.2645 -0.2773
  971MOL0     C33862   3.321   9.823   3.574 -0.1337  0.5321 -0.0091
  971MOL0     O33863   3.241   9.732   3.526  0.2259 -0.6843 -0.9166
  971MOL0     C33864   3.123   9.776   3.472  1.1745 -0.2447 -0.2461
  971MOL0     C33865   2.995   9.737   3.525 -0.2446 -0.7216  0.0140
  971MOL0     C33866   2.875   9.773   3.457 -0.7260 -0.0288  0.0186
  971MOL0     C33867   2.882   9.865   3.349  0.5491  0.7251 -0.4533
  971MOL0     O33868   2.755   9.902   3.295  0.1717 -0.2176 -0.5072
  971MOL0     C33869   2.752   9.977   3.180 -0.2818  0.8072 -0.2175
  971MOL0     C33870   2.606  10.023   3.171  0.1500 -0.3146  0.1691
  971MOL0     C33871   2.566  10.108   3.297  0.2316  0.0396 -0.4020
  971MOL0     C33872   2.654  10.240   3.334  0.2872  0.7261 -0.1900
  971MOL0     C33873   2.650  10.349   3.231 -0.2231 -0.1540  0.3437
  971MOL0     C33874   2.724  10.481   3.270  0.3662  0.7546  1.0547
  971MOL0     C33875   2.716  10.603   3.174 -0.2898  0.1032 -0.1426
  971MOL0     C33876   2.782  10.732   3.228 -0.1653  1.1351 -0.0403
  971MOL0     N33877   2.932  10.744   3.205  0.3258 -0.4269 -0.8842
  971MOL0     C33878   3.006  10.694   3.094 -0.2888  0.3305 -0.1953
  971MOL0     C33879   3.132  10.734   3.121 -0.4326  0.5213 -0.4779
  971MOL0     C33880   3.244  10.714   3.012 -0.6622  0.1834  0.0375
  971MOL0     C33881   3.387  10.697   3.079  0.0011 -0.3517 -0.3901
  971MOL0     C33882   3.486  10.651   2.979 -0.5103 -0.0037 -1.4495
  971MOL0     C33883   3.621  10.611   3.054 -0.0519  0.5465  0.9863
  971MOL0     O33884   3.603  10.477   3.110 -0.2068  0.9161 -0.7836
  971MOL0     C33885   3.700  10.427   3.191 -0.4085 -0.1686  0.3313
  971MOL0     C33886   3.835  10.475   3.203 -0.3789  0.7281 -0.2227
  971MOL0     C33887   3.920  10.410   3.293  0.5188  0.9139  1.1088
  971MOL0     C33888   4.067  10.449   3.294  0.4792 -0.2144  0.4050
  971MOL0     C33889   3.867  10.295   3.371  0.5221 -0.7137  0.1250
  971MOL0     C33890   3.949  10.214   3.466  0.3633  0.0327 -0.2148
  971MOL0     O33891   4.059  10.273   3.522 -0.4995 -0.3516  0.5009
  971MOL0     C33892   4.140  10.198   3.602  0.4386 -0.2616 -1.0041
  971MOL0     C33893   4.261  10.161   3.555 -0.2880  0.5701  0.1425
  971MOL0     C33894   4.342  10.076   3.625  0.4959  0.5102 -0.2435
  971MOL0     C33895   4.302  10.018   3.750  0.3927 -1.2669  0.0477
  971MOL0     O33896   4.370   9.935   3.825 -0.2443 -0.6208 -0.6036
  971MOL0     C33897   4.489   9.873   3.776  0.4389 -0.4504  0.3049
  971MOL0     C33898   4.544   9.763   3.887 -0.1893 -0.3146 -0.6085
  971MOL0     C33899   4.632   9.820   3.996 -0.1725  0.1867 -0.4933
  971MOL0     C33900   4.668   9.700   4.091 -0.1693  0.5372 -0.5922
  971MOL0     C33901   4.735   9.778   4.206 -0.1119  0.8285 -0.1876
  971MOL0     C33902   4.787   9.702   4.325 -0.2237  0.1386  0.1609
  971MOL0     C33903   4.891   9.604   4.261  0.6835 -0.6690 -0.3345
  971MOL0     C33904   4.968   9.521   4.368 -0.7339 -0.1126 -0.2397
  971MOL0    Cl33905   5.078   9.397   4.292 -0.0902 -0.0761  0.0945
  971MOL0     C33906   4.178  10.060   3.803 -0.1454 -0.6334 -0.0144
  971MOL0     C33907   4.095  10.151   3.726 -0.2672 -0.9072 -0.0137
  971MOL0     O33908   3.909  10.094   3.483 -0.4872  0.7054 -0.4146
  971MOL0     C33909   3.729  10.255   3.358  0.7868 -0.7007 -0.4917
  971MOL0     C33910   3.648  10.320   3.271 -0.0883 -0.9380  0.6349
  971MOL0     N33911   3.138  10.778   3.256  0.0473  0.2307  0.2259
  971MOL0     N33912   3.020  10.787   3.308 -0.6240  0.8530 -0.3033
  971MOL0     C33913   3.003   9.898   3.300 -0.1072 -0.4654  0.0792
  971MOL0     C33914   3.121   9.850   3.356  0.6613  0.1710 -0.0448
  971MOL0     C33915   3.459   9.777   3.619 -0.1278  1.8975 -0.3666
  971MOL0     C33916   3.459   9.692   3.730  0.3740  0.0713 -0.0161
  971MOL0     C33917   3.583   9.675   3.792 -0.0415  0.1111  0.4101
  971MOL0     C33918   3.705   9.692   3.715  0.4732 -0.0189  0.8192
  971MOL0     O33919   3.821   9.645   3.783 -0.1110  0.1449  0.7310
  971MOL0     C33920   3.946   9.652   3.717  0.3981  0.4675  0.6191
  971MOL0     C33921   4.046   9.581   3.818 -0.0924  0.3449  0.2915
  971MOL0     C33922   4.097   9.696   3.908  0.4949  0.0282  0.4016
  971MOL0     C33923   4.174   9.644   4.030  0.3253 -0.1587 -0.8114
  971MOL0     C33924   4.257   9.753   4.094  0.9004 -0.2535  0.7957
  971MOL0     C33925   4.321   9.839   4.145 -0.3530  0.5096  0.1715
  971MOL0     C33926   3.697   9.747   3.592 -0.0022 -0.4199 -0.3427
  971MOL0     C33927   3.574   9.800   3.544  0.0864  0.7531  0.1736
  971MOL0     C33928   3.577   9.901   3.436 -0.4419  0.8648 -0.2779
  971MOL0     H33929   2.995   9.653   3.594 -1.2816 -1.6932 -1.1293
  971MOL0     H33930   2.783   9.724   3.488 -0.4049 -0.6858 -0.0506
  971MOL0     H33931   2.783   9.924   3.090 -0.0026 -0.6555  0.7065
  971MOL0     H33932   2.814  10.067   3.192  0.8637 -0.0941  0.9493
  971MOL0     H33933   2.591  10.083   3.080  1.4205 -2.1918 -1.3558
  971MOL0     H33934   2.541   9.935   3.168 -1.1053  0.5876  0.1222
  971MOL0     H33935   2.463  10.142   3.285  0.9693  2.6474 -0.1649
  971MOL0     H33936   2.582  10.057   3.392 -3.0269  0.0123  0.2396
  971MOL0     H33937   2.617  10.273   3.431 -3.9907 -1.4878 -0.8439
  971MOL0     H33938   2.759  10.212   3.346 -0.3098 -0.5634  3.0622
  971MOL0     H33939   2.545  10.374   3.216  0.1754  0.3989 -1.9788
  971MOL0     H33940   2.684  10.307   3.136  0.5267  0.5605  0.2794
  971MOL0     H33941   2.699  10.502   3.375  1.3516  0.4010  1.3689
  971MOL0     H33942   2.830  10.455   3.272  0.9263  2.5978 -0.8769
  971MOL0     H33943   2.613  10.631   3.151  0.2286  2.9542  0.6565
  971MOL0     H33944   2.769  10.579   3.081  1.0208 -1.2276  0.8844
  971MOL0     H33945   2.745  10.813   3.164  5.4750  2.2038 -2.4958
  971MOL0     H33946   2.749  10.739   3.332  0.7875  1.3106  0.2600
  971MOL0     H33947   2.977  10.661   2.994 -0.2831 -0.1281 -0.0511
  971MOL0     H33948   3.241  10.806   2.954  4.0891  1.1798  0.9646
  971MOL0     H33949   3.231  10.623   2.953  0.9090  0.7349 -1.2024
  971MOL0     H33950   3.421  10.789   3.128 -0.8461 -1.7643  3.1124
  971MOL0     H33951   3.378  10.623   3.158  0.6860  0.5297  0.5511
  971MOL0     H33952   3.452  10.567   2.917  2.1138  0.4824 -3.7551
  971MOL0     H33953   3.514  10.733   2.912 -0.1499 -0.2702 -1.6280
  971MOL0     H33954   3.701  10.600   2.980 -0.9199 -0.8247  0.1969
  971MOL0     H33955   3.654  10.685   3.127  0.8475 -2.6849  4.1377
  971MOL0     H33956   3.867  10.557   3.139 -0.2199  0.0404 -1.0518
  971MOL0     H33957   4.079  10.496   3.392 -0.1975 -1.7214  1.2326
  971MOL0     H33958   4.088  10.511   3.206  0.0050 -1.2276 -0.4392
  971MOL0     H33959   4.123  10.356   3.281 -2.0759 -1.5740 -1.7034
  971MOL0     H33960   4.280  10.204   3.457 -0.8207  0.3771 -0.0482
  971MOL0     H33961   4.430  10.040   3.572 -1.6773 -3.6544 -1.5152
  971MOL0     H33962   4.463   9.829   3.680  0.7561 -0.7194  0.3415
  971MOL0     H33963   4.565   9.950   3.758 -0.3857 -0.2516 -2.7813
  971MOL0     H33964   4.466   9.712   3.944 -1.0199 -0.2858 -1.6847
  971MOL0     H33965   4.608   9.692   3.833  1.7038  0.2875  0.7576
  971MOL0     H33966   4.571   9.893   4.050 -0.2849 -0.6768  0.5819
  971MOL0     H33967   4.719   9.871   3.954  0.1237 -0.9459 -1.3166
  971MOL0     H33968   4.731   9.623   4.046 -2.4440 -1.8235  0.0067
  971MOL0     H33969   4.574   9.657   4.128 -0.5592  0.5938 -1.4784
  971MOL0     H33970   4.805   9.843   4.153 -2.9876  4.5246  0.1305
  971MOL0     H33971   4.660   9.834   4.262 -2.5215 -2.6238  0.3477
  971MOL0     H33972   4.716   9.644   4.385 -1.7054  1.9030  0.2027
  971MOL0     H33973   4.845   9.766   4.392 -0.1144 -0.5295  0.7117
  971MOL0     H33974   4.967   9.669   4.216 -0.3458  3.4748  3.2604
  971MOL0     H33975   4.840   9.536   4.192  2.6398 -1.9312 -0.6171
  971MOL0     H33976   4.900   9.466   4.434  1.0145  0.3486  2.0774
  971MOL0     H33977   5.026   9.594   4.425 -0.2200 -0.6923 -0.0038
  971MOL0     H33978   4.135  10.041   3.901 -1.5388 -0.7898 -0.6367
  971MOL0     H33979   3.991  10.169   3.750  0.1498  2.1261 -0.0003
  971MOL0     H33980   3.689  10.185   3.430 -1.8664 -1.2910 -2.4035
  971MOL0     H33981   3.547  10.281   3.266  1.0268 -4.5166  2.8298
  971MOL0     H33982   3.014   9.980   3.229  0.8371  0.4319  1.2149
  971MOL0     H33983   3.220   9.863   3.312  0.3288 -1.6421 -1.4550
  971MOL0     H33984   3.371   9.657   3.782  1.5633 -2.0510  0.7078
  971MOL0     H33985   3.586   9.627   3.889  0.4116  0.6853  0.6870
  971MOL0     H33986   3.946   9.601   3.620  1.2994  1.0082  0.3162
  971MOL0     H33987   3.988   9.752   3.705  2.7412 -0.1250  2.9318
  971MOL0     H33988   4.130   9.535   3.767 -1.0192  0.5895 -1.5677
  971MOL0     H33989   3.991   9.500   3.866  1.0337 -0.0664  0.8932
  971MOL0     H33990   4.175   9.756   3.860 -0.1348  1.9908  1.7097
  971MOL0     H33991   4.013   9.761   3.933  0.8396  1.1292 -1.1231
  971MOL0     H33992   4.237   9.555   4.016 -1.3548 -2.0066  2.3387
  971MOL0     H33993   4.099   9.596   4.093  0.2713  0.1731 -0.6192
  971MOL0     H33994   4.381   9.912   4.195 -1.0587  0.4842  1.0970
  971MOL0     H33995   3.784   9.779   3.536  0.1960  0.6389  0.5184
  971MOL0     H33996   3.675   9.896   3.389 -0.8166  0.5150 -1.0387
  971MOL0     H33997   3.505   9.879   3.356  1.7399  0.9849 -2.3854
  971MOL0     H33998   3.563  10.006   3.465  0.9146  0.1531  3.4659
  972MOL0     O33999   9.809  10.074   1.506 -0.2320  0.1620  0.4255
  972MOL0     C34000   9.778  10.080   1.384 -0.4917  0.4141  0.3229
  972MOL0     O34001   9.870  10.089   1.275  0.7450  0.4823 -0.3160
  972MOL0     C34002  10.000  10.098   1.313 -0.1265  0.1893 -0.1371
  972MOL0     C34003  10.085   9.981   1.293  1.0056  0.0968 -0.6467
  972MOL0     C34004  10.224   9.998   1.304 -0.4175 -0.3920  1.0728
  972MOL0     C34005  10.284  10.118   1.340 -0.6072 -0.2646  0.1906
  972MOL0     O34006  10.419  10.101   1.365  0.3282  0.0971  0.3370
  972MOL0     C34007  10.454  10.081   1.509 -0.5729 -0.1610 -0.1660
  972MOL0     C34008  10.610  10.076   1.515 -0.4032  0.5995  0.6669
  972MOL0     C34009  10.660  10.093   1.656 -0.6345  0.1630 -0.0330
  972MOL0     C34010  10.804  10.061   1.663  0.5260  0.0849  0.0365
  972MOL0     C34011  10.859  10.070   1.813  0.1986 -0.3606 -0.1496
  972MOL0     C34012  11.004  10.025   1.825  0.7369  0.0470  0.0566
  972MOL0     C34013  11.062  10.032   1.968  0.3109  0.6288  0.1391
  972MOL0     C34014  11.216  10.017   1.974  0.7075 -0.0501  0.3045
  972MOL0     N34015  11.271   9.980   2.105 -0.6547  0.4161  0.2818
  972MOL0     C34016  11.287  10.066   2.211  0.2573  0.0245  0.1474
  972MOL0     C34017  11.349   9.994   2.312  0.1488  0.0614  0.0683
  972MOL0     C34018  11.390  10.059   2.442  0.0521 -0.0168 -0.5883
  972MOL0     C34019  11.531  10.104   2.438  0.3864  0.0313  0.0999
  972MOL0     C34020  11.564  10.139   2.585 -0.5413 -0.1240 -0.3887
  972MOL0     C34021  11.693  10.223   2.592  0.4091 -0.0730 -0.3406
  972MOL0     O34022  11.801  10.145   2.542  0.0174 -0.8338  0.0148
  972MOL0     C34023  11.921  10.198   2.576 -0.3116  0.2339  0.1981
  972MOL0     C34024  11.967  10.329   2.600 -0.1270 -0.3569 -0.9489
  972MOL0     C34025  12.106  10.366   2.604 -0.1875  0.1864  0.3654
  972MOL0     C34026  12.132  10.512   2.629  1.4837  0.4877  0.2962
  972MOL0     C34027  12.209  10.274   2.602  0.4083  0.4372  0.0848
  972MOL0     C34028  12.360  10.302   2.603  0.0904  1.2742 -0.7058
  972MOL0     O34029  12.437  10.190   2.577  0.0470  0.5906 -0.1149
  972MOL0     C34030  12.566  10.198   2.527  0.3410  0.1329  0.3142
  972MOL0     C34031  12.662  10.291   2.565 -0.0194 -0.1713 -0.0281
  972MOL0     C34032  12.793  10.285   2.510  0.4971 -0.5931  0.4552
  972MOL0     C34033  12.828  10.182   2.419 -0.6135  0.0742 -1.1175
  972MOL0     O34034  12.961  10.164   2.371 -0.7423 -0.6203 -0.4349
  972MOL0     C34035  13.043  10.283   2.375  0.3900 -0.0492 -1.1466
  972MOL0     C34036  13.172  10.265   2.309  0.0245  0.0318 -0.7994
  972MOL0     C34037  13.247  10.396   2.305 -0.4679  0.0963 -0.2336
  972MOL0     C34038  13.388  10.376   2.236 -0.2146 -0.3195  0.8942
  972MOL0     C34039  13.380  10.386   2.081 -0.6625  0.6267  0.4790
  972MOL0     C34040  13.517  10.339   2.023  0.6070 -0.7521  0.0508
  972MOL0     C34041  13.514  10.360   1.876  0.6885  0.2414  0.1736
  972MOL0     C34042  13.583  10.246   1.807  0.3500 -0.3351  0.2292
  972MOL0    Cl34043  13.479  10.110   1.810  0.1290  0.4847  0.2891
  972MOL0     C34044  12.726  10.095   2.380 -0.3043  0.9985  0.2835
  972MOL0     C34045  12.591  10.103   2.429 -0.0064  0.0499  0.2302
  972MOL0     O34046  12.401  10.412   2.636  0.0311  0.0602 -0.5067
  972MOL0     C34047  12.160  10.141   2.594 -0.5726 -1.1587  0.3365
  972MOL0     C34048  12.024  10.104   2.581  0.4615 -0.2082  0.8558
  972MOL0     N34049  11.378   9.864   2.259  0.2937  0.2923 -0.9801
  972MOL0     N34050  11.329   9.856   2.135  0.0583  0.2482 -0.2028
  972MOL0     C34051  10.208  10.233   1.358  0.6065 -0.9237  0.3053
  972MOL0     C34052  10.061  10.223   1.351 -0.2692  0.2747 -1.3269
  972MOL0     C34053   9.638  10.074   1.365  0.3502 -0.1692  0.6223
  972MOL0     C34054   9.591  10.171   1.282  0.3955 -0.8036 -0.4546
  972MOL0     C34055   9.452  10.173   1.255  0.7943  0.3945  0.6396
  972MOL0     C34056   9.363  10.085   1.314 -0.4005 -0.3840 -0.2955
  972MOL0     O34057   9.228  10.078   1.280 -0.4054  0.6485 -0.7330
  972MOL0     C34058   9.170  10.171   1.188  0.1298 -0.0987  0.0066
  972MOL0     C34059   9.026  10.124   1.176  0.1390 -0.3503 -0.5924
  972MOL0     C34060   8.945  10.204   1.063  0.2912 -1.0117  0.6213
  972MOL0     C34061   8.799  10.165   1.083 -0.5940 -0.7822 -0.3618
  972MOL0     C34062   8.740  10.255   1.188 -0.5430 -0.1558 -0.2694
  972MOL0     C34063   8.699  10.324   1.276 -0.1632  0.1038 -0.2759
  972MOL0     C34064   9.409   9.993   1.403  0.3245 -0.4250 -0.3091
  972MOL0     C34065   9.545   9.987   1.431  0.5819  0.4388  0.2260
  972MOL0     C34066   9.590   9.875   1.526  0.9133 -0.5995  0.5709
  972MOL0     H34067  10.040   9.888   1.258  1.5597  0.0977 -1.4037
  972MOL0     H34068  10.286   9.909   1.293 -2.2997 -1.7899  1.2763
  972MOL0     H34069  10.404   9.995   1.555  0.7547  0.7562  3.3287
  972MOL0     H34070  10.422  10.168   1.567 -2.3179 -0.5754 -0.4335
  972MOL0     H34071  10.651   9.986   1.470  1.1829  1.5084  0.2216
  972MOL0     H34072  10.646  10.162   1.458  0.8335 -0.9811 -1.0480
  972MOL0     H34073  10.659  10.198   1.690  2.3940  0.4176 -0.4605
  972MOL0     H34074  10.600  10.034   1.726  2.1929  0.6588  3.0870
  972MOL0     H34075  10.837   9.962   1.630  0.2631 -0.2192  0.6504
  972MOL0     H34076  10.855  10.135   1.601 -1.6036  1.1088 -0.5757
  972MOL0     H34077  10.793  10.009   1.875  1.1730 -1.2371  0.0531
  972MOL0     H34078  10.863  10.169   1.859  0.5387 -0.2570 -0.3985
  972MOL0     H34079  11.009   9.921   1.793  1.7806 -0.1516  0.8123
  972MOL0     H34080  11.064  10.089   1.759  3.0224 -1.9530  0.0648
  972MOL0     H34081  11.041   9.935   2.015  2.0139 -0.5966 -1.5057
  972MOL0     H34082  11.026  10.123   2.018 -0.9450 -0.6609  1.7001
  972MOL0     H34083  11.248   9.944   1.899  0.0345 -0.6108  0.5533
  972MOL0     H34084  11.258  10.108   1.930  1.1718 -0.9330 -1.1213
  972MOL0     H34085  11.254  10.169   2.212  0.0215 -0.0404  1.7564
  972MOL0     H34086  11.392   9.981   2.519  3.6721 -0.2616 -0.7375
  972MOL0     H34087  11.318  10.140   2.450 -2.8612 -2.4310 -0.8616
  972MOL0     H34088  11.595  10.021   2.406  1.3951 -0.1909  2.5087
  972MOL0     H34089  11.533  10.187   2.365  1.4967 -0.8865 -0.9541
  972MOL0     H34090  11.493  10.210   2.630 -2.3827 -0.7030 -2.2338
  972MOL0     H34091  11.568  10.054   2.653 -0.6928 -2.6866 -3.3713
  972MOL0     H34092  11.686  10.322   2.547  0.5004  0.8640  1.6105
  972MOL0     H34093  11.703  10.242   2.699  1.8418  0.0530 -0.4792
  972MOL0     H34094  11.888  10.403   2.610  1.3202  1.1517 -0.3414
  972MOL0     H34095  12.207  10.536   2.706  1.1209 -1.9271  1.4860
  972MOL0     H34096  12.036  10.563   2.643 -0.8586 -3.2488 -0.7792
  972MOL0     H34097  12.180  10.545   2.536  1.8094 -0.5120  0.1033
  972MOL0     H34098  12.647  10.365   2.643  0.5333  0.9580 -0.9527
  972MOL0     H34099  12.865  10.363   2.536 -0.9171  1.0112 -0.2574
  972MOL0     H34100  12.977  10.360   2.333  0.0217  0.0853 -0.3413
  972MOL0     H34101  13.052  10.299   2.483 -2.1580 -1.0301 -0.6958
  972MOL0     H34102  13.229  10.180   2.349  0.9124 -0.3133 -2.7169
  972MOL0     H34103  13.151  10.228   2.209  0.5864 -2.6851 -0.0039
  972MOL0     H34104  13.259  10.446   2.402 -0.6688 -1.2369  0.5058
  972MOL0     H34105  13.189  10.455   2.233 -3.2032 -1.7718  0.2939
  972MOL0     H34106  13.420  10.281   2.279 -0.3457  0.1997  2.1889
  972MOL0     H34107  13.456  10.459   2.260  1.5995 -1.7554  0.9222
  972MOL0     H34108  13.303  10.320   2.039  0.0674  0.2052 -0.2109
  972MOL0     H34109  13.341  10.481   2.043  0.2317  0.8994  0.2191
  972MOL0     H34110  13.544  10.240   2.060 -0.7041 -0.6987  1.2797
  972MOL0     H34111  13.593  10.400   2.072  1.7288 -0.4306 -1.9835
  972MOL0     H34112  13.557  10.458   1.853 -2.6032  1.7263 -0.2513
  972MOL0     H34113  13.412  10.360   1.836  0.4047 -4.5130  0.2399
  972MOL0     H34114  13.676  10.230   1.863  1.7296  0.1082 -1.8261
  972MOL0     H34115  13.602  10.275   1.703 -0.5604  1.5610  0.5482
  972MOL0     H34116  12.749  10.002   2.328 -2.1405  0.3919  0.4798
  972MOL0     H34117  12.511  10.046   2.383 -1.5097  3.1220 -1.3290
  972MOL0     H34118  12.224  10.055   2.577 -0.2613 -1.3497  2.3251
  972MOL0     H34119  11.990  10.002   2.567 -1.4960  0.1612  2.4400
  972MOL0     H34120  10.254  10.330   1.378 -1.0742 -0.1233  0.4892
  972MOL0     H34121   9.998  10.308   1.373  1.7178  2.4466 -3.3601
  972MOL0     H34122   9.667  10.236   1.240  3.9768 -2.5471  2.7280
  972MOL0     H34123   9.438  10.239   1.170  1.8508 -1.2996 -0.9231
  972MOL0     H34124   9.173  10.275   1.224  1.8974  0.0639 -0.5267
  972MOL0     H34125   9.225  10.169   1.094  2.5248  0.2117  1.3256
  972MOL0     H34126   8.981  10.149   1.272  2.2265 -0.1343  0.3812
  972MOL0     H34127   9.024  10.016   1.158 -0.4238 -0.5397  0.5558
  972MOL0     H34128   8.959  10.312   1.079 -1.4177 -0.6085 -0.2832
  972MOL0     H34129   8.974  10.178   0.961 -0.7415 -0.4985  0.1800
  972MOL0     H34130   8.785  10.058   1.104  3.3419 -1.2712  0.6993
  972MOL0     H34131   8.749  10.198   0.992 -3.5634  2.6444  2.1919
  972MOL0     H34132   8.643  10.386   1.343 -1.8858  0.5712 -2.0588
  972MOL0     H34133   9.351   9.924   1.464  0.8797  0.0672  0.7860
  972MOL0     H34134   9.528   9.785   1.518  0.5458 -0.5853  2.5951
  972MOL0     H34135   9.697   9.861   1.512  1.1865  2.2057 -0.9753
  972MOL0     H34136   9.569   9.924   1.622  1.2501 -1.3756  1.0454
  973MOL0     O34137   4.992   6.488   2.112  0.0248 -0.5107  0.4764
  973MOL0     C34138   5.015   6.588   2.184  0.5605 -0.1622  1.0703
  973MOL0     O34139   5.128   6.661   2.185 -0.3361 -0.4120  0.8071
  973MOL0     C34140   5.235   6.595   2.136 -0.5514  0.2907  0.7180
  973MOL0     C34141   5.289   6.480   2.194  0.4798  0.0894  0.0401
  973MOL0     C34142   5.391   6.405   2.132  0.4544  0.2122  0.5237
  973MOL0     C34143   5.463   6.467   2.029 -0.2385  0.8607  0.0194
  973MOL0     O34144   5.581   6.426   1.971  0.2627 -0.4697 -0.0220
  973MOL0     C34145   5.670   6.336   2.046  0.3046  0.2022  0.0011
  973MOL0     C34146   5.807   6.368   2.003 -0.3335 -0.1188 -0.2820
  973MOL0     C34147   5.921   6.315   2.094  0.1310 -0.3824  0.5252
  973MOL0     C34148   6.043   6.281   2.014  0.4398  0.1389  0.1624
  973MOL0     C34149   6.171   6.294   2.095  1.2095  0.2798 -0.4376
  973MOL0     C34150   6.295   6.246   2.004  0.0840  0.0368 -0.2584
  973MOL0     C34151   6.432   6.221   2.070 -0.0506 -0.6408  0.0088
  973MOL0     C34152   6.427   6.107   2.168  0.0129  0.3622 -0.0587
  973MOL0     N34153   6.565   6.075   2.204 -0.0453 -0.6001 -0.0885
  973MOL0     C34154   6.638   6.136   2.302  0.0892 -0.1993 -0.6485
  973MOL0     C34155   6.764   6.103   2.292  0.0600  0.2021  0.5051
  973MOL0     C34156   6.885   6.150   2.361 -0.8024  0.1316  0.6146
  973MOL0     C34157   6.944   6.040   2.447  0.1068  0.3819 -0.5917
  973MOL0     C34158   7.084   6.093   2.492  0.3362  0.2247 -0.0191
  973MOL0     C34159   7.140   6.022   2.618 -0.2295 -0.5100  0.0367
  973MOL0     O34160   7.164   5.879   2.585  0.6541 -0.1752 -0.5100
  973MOL0     C34161   7.198   5.799   2.686  0.2206  0.1865 -0.5395
  973MOL0     C34162   7.161   5.665   2.684  0.0772 -0.1584  0.3126
  973MOL0     C34163   7.211   5.569   2.773  0.3705  0.5501 -0.4318
  973MOL0     C34164   7.146   5.434   2.772 -0.0691  0.0994  0.0264
  973MOL0     C34165   7.311   5.610   2.877  0.2466 -0.0596 -0.2025
  973MOL0     C34166   7.369   5.518   2.983 -0.6119 -0.1867 -0.8334
  973MOL0     O34167   7.479   5.572   3.056  0.0787  0.1374 -0.0225
  973MOL0     C34168   7.545   5.499   3.153  0.6070  0.3488  0.0852
  973MOL0     C34169   7.637   5.400   3.120  0.2005  0.9069  0.5785
  973MOL0     C34170   7.687   5.317   3.227 -0.2684 -0.1349 -0.1830
  973MOL0     C34171   7.672   5.350   3.371  0.4267  0.0615  0.1858
  973MOL0     O34172   7.732   5.298   3.484 -0.1711  0.2955  0.8958
  973MOL0     C34173   7.843   5.203   3.452 -0.5464  0.8003  0.1751
  973MOL0     C34174   7.942   5.205   3.577 -0.3031 -0.0525  0.8034
  973MOL0     C34175   7.869   5.204   3.712 -0.0588  0.2557 -0.7863
  973MOL0     C34176   7.953   5.143   3.830 -0.3735  0.3063 -0.4525
  973MOL0     C34177   7.863   5.154   3.961  0.5436 -0.0624 -0.4989
  973MOL0     C34178   7.916   5.053   4.061 -0.9706  0.3797 -0.1371
  973MOL0     C34179   7.838   5.050   4.184 -0.7531  0.8112  0.0976
  973MOL0     C34180   7.799   4.911   4.240  0.3355  0.2038  0.0940
  973MOL0    Cl34181   7.765   4.931   4.423  0.6055  0.0830 -0.1864
  973MOL0     C34182   7.588   5.457   3.392 -0.9524  0.1057  0.5737
  973MOL0     C34183   7.522   5.527   3.292 -0.1431 -0.4118  0.0111
  973MOL0     O34184   7.336   5.404   2.986  0.2354  0.6913  0.0019
  973MOL0     C34185   7.338   5.742   2.875 -1.0409 -0.1508 -0.3249
  973MOL0     C34186   7.293   5.833   2.785  0.7800  0.4129  0.7729
  973MOL0     N34187   6.776   6.011   2.186  0.0048 -0.9577 -0.0414
  973MOL0     N34188   6.652   5.996   2.135  0.1846 -0.4175 -0.0135
  973MOL0     C34189   5.423   6.587   1.971 -0.5183 -0.2176  0.1906
  973MOL0     C34190   5.302   6.641   2.023 -0.7153 -0.4134  0.0622
  973MOL0     C34191   4.909   6.653   2.268  0.2532  0.4039  0.5314
  973MOL0     C34192   4.949   6.762   2.350 -0.0798 -0.2086 -0.4961
  973MOL0     C34193   4.858   6.829   2.429 -1.2436 -0.2437 -0.3992
  973MOL0     C34194   4.721   6.799   2.442  0.0228  0.1030  0.3377
  973MOL0     O34195   4.633   6.866   2.527  0.0787  0.4984 -0.0243
  973MOL0     C34196   4.557   6.779   2.620  0.6205 -0.6399 -0.0971
  973MOL0     C34197   4.517   6.851   2.756  0.1630 -0.1235  0.3317
  973MOL0     C34198   4.435   6.975   2.731 -0.2284 -0.0086 -0.3355
  973MOL0     C34199   4.436   7.075   2.852  0.2970 -0.1312  0.7471
  973MOL0     C34200   4.440   7.000   2.979 -1.0103 -0.2923 -0.1614
  973MOL0     C34201   4.430   6.922   3.078  0.6061 -0.8288 -0.0301
  973MOL0     C34202   4.690   6.683   2.365  0.1503  0.8271  0.3330
  973MOL0     C34203   4.773   6.621   2.270  0.9600 -0.0965 -0.6895
  973MOL0     C34204   4.709   6.520   2.194  0.3176 -0.1149  0.9256
  973MOL0     H34205   5.244   6.438   2.283 -1.1714  0.1999 -0.7037
  973MOL0     H34206   5.438   6.318   2.178  3.0681  1.3348  0.1731
  973MOL0     H34207   5.644   6.231   2.032 -0.2434  0.4320 -0.7721
  973MOL0     H34208   5.662   6.350   2.154 -1.2779 -2.0197  0.2497
  973MOL0     H34209   5.822   6.331   1.901  1.5128  0.3028 -0.1938
  973MOL0     H34210   5.814   6.475   1.987 -2.9477  0.8333  3.4235
  973MOL0     H34211   5.941   6.401   2.158 -1.5873 -1.3380  2.4482
  973MOL0     H34212   5.885   6.229   2.152  0.3440  0.6431  2.2373
  973MOL0     H34213   6.035   6.179   1.976 -2.0329 -0.1559  1.2820
  973MOL0     H34214   6.051   6.347   1.927 -1.7924  1.2535  0.7272
  973MOL0     H34215   6.184   6.233   2.185  2.9219 -0.3404 -1.0560
  973MOL0     H34216   6.177   6.400   2.119 -2.4929  0.4482  0.2233
  973MOL0     H34217   6.257   6.156   1.955  3.3255 -1.8288  0.3992
  973MOL0     H34218   6.306   6.311   1.917 -1.0590  0.6637  0.0387
  973MOL0     H34219   6.448   6.312   2.129 -0.4445 -0.1270 -0.6581
  973MOL0     H34220   6.504   6.200   1.991  0.3213  1.8850 -0.4008
  973MOL0     H34221   6.374   6.134   2.260 -0.8173 -1.2193 -0.0492
  973MOL0     H34222   6.375   6.020   2.128 -0.4455  0.6187 -0.0240
  973MOL0     H34223   6.603   6.201   2.382  3.1612 -1.4864  1.9727
  973MOL0     H34224   6.855   6.241   2.414  3.1487  1.9775  0.0498
  973MOL0     H34225   6.947   6.184   2.277 -1.5358 -0.1312 -0.0529
  973MOL0     H34226   6.886   6.011   2.535 -0.2765 -1.4483 -1.3868
  973MOL0     H34227   6.960   5.947   2.392  2.1991  1.5904 -2.1915
  973MOL0     H34228   7.164   6.070   2.420  0.9931  2.2266  0.0302
  973MOL0     H34229   7.070   6.200   2.509  1.2818  0.6287 -1.5865
  973MOL0     H34230   7.235   6.070   2.644  1.4201 -3.7974  0.7335
  973MOL0     H34231   7.081   6.033   2.710 -0.7449  2.4568 -0.5545
  973MOL0     H34232   7.093   5.639   2.603 -0.1370 -2.4311  1.1564
  973MOL0     H34233   7.070   5.422   2.695 -0.8659  2.4588  0.3471
  973MOL0     H34234   7.102   5.429   2.872  1.6469 -0.0553  0.8044
  973MOL0     H34235   7.225   5.361   2.756  0.2085  0.7207 -1.6430
  973MOL0     H34236   7.658   5.385   3.014  0.4474  0.2342  0.7186
  973MOL0     H34237   7.756   5.236   3.204 -2.0864 -1.9179  0.3377
  973MOL0     H34238   7.796   5.105   3.437 -0.7446  1.0194 -0.6914
  973MOL0     H34239   7.895   5.241   3.364  1.1973 -1.9121 -0.0928
  973MOL0     H34240   8.004   5.115   3.574 -0.6767 -0.2961 -0.2091
  973MOL0     H34241   7.992   5.301   3.567 -1.7602  0.7849  1.2630
  973MOL0     H34242   7.783   5.136   3.703  2.8874 -3.5040 -3.5660
  973MOL0     H34243   7.839   5.306   3.737  0.1155 -0.3286  2.1734
  973MOL0     H34244   8.043   5.204   3.845  1.1895 -2.3607  2.0698
  973MOL0     H34245   7.968   5.038   3.803  1.5936  0.4272  0.0051
  973MOL0     H34246   7.860   5.256   4.000 -3.4030 -0.9049  1.9429
  973MOL0     H34247   7.761   5.126   3.933  0.6539 -1.9313  0.7967
  973MOL0     H34248   8.018   5.072   4.094 -0.0022 -2.1948 -1.3677
  973MOL0     H34249   7.916   4.959   4.005 -0.0750  1.5769 -2.2878
  973MOL0     H34250   7.746   5.106   4.166 -1.8540 -1.0043 -0.1487
  973MOL0     H34251   7.883   5.099   4.270 -0.0344  2.4502 -1.1551
  973MOL0     H34252   7.886   4.847   4.224  0.5458  0.4824  0.1161
  973MOL0     H34253   7.715   4.873   4.182  2.3622 -0.4761 -2.5827
  973MOL0     H34254   7.578   5.471   3.499  1.1052 -2.2004  1.1591
  973MOL0     H34255   7.459   5.614   3.310 -0.8815 -0.9778  0.2028
  973MOL0     H34256   7.412   5.777   2.946 -1.0318  0.9576 -0.8697
  973MOL0     H34257   7.320   5.938   2.794 -1.2634  0.9950  0.8167
  973MOL0     H34258   5.464   6.630   1.880 -0.7747 -0.7628 -0.1874
  973MOL0     H34259   5.271   6.728   1.968 -0.1669 -2.7541 -4.3835
  973MOL0     H34260   5.048   6.807   2.341 -1.2155  2.6977  0.1951
  973MOL0     H34261   4.893   6.911   2.491 -0.8444  0.0815 -1.0414
  973MOL0     H34262   4.464   6.750   2.571  0.1230  1.3870 -0.4510
  973MOL0     H34263   4.609   6.687   2.649  2.2475  0.8166  2.0604
  973MOL0     H34264   4.606   6.873   2.815  0.3246  1.7925 -0.5542
  973MOL0     H34265   4.449   6.787   2.813 -0.2365 -2.2669 -2.3179
  973MOL0     H34266   4.471   7.026   2.641 -0.6528  0.0741 -0.4598
  973MOL0     H34267   4.332   6.942   2.715 -0.5827  1.9027 -2.4564
  973MOL0     H34268   4.347   7.138   2.851  2.1571  2.6608 -0.6475
  973MOL0     H34269   4.524   7.140   2.844  0.5039 -0.4977 -0.0960
  973MOL0     H34270   4.414   6.864   3.166  2.2518  1.8651  2.1930
  973MOL0     H34271   4.586   6.658   2.381 -0.1010  1.6444  0.0002
  973MOL0     H34272   4.750   6.535   2.094  0.0599  2.0052  1.0881
  973MOL0     H34273   4.741   6.425   2.239 -1.4667 -1.9308 -1.3576
  973MOL0     H34274   4.600   6.519   2.187  0.3850 -1.3990 -0.4070
  974MOL0     O34275   6.544   5.487   5.102 -0.2675  0.6440  0.6959
  974MOL0     C34276   6.476   5.496   4.998  0.2060  0.5612  1.0932
  974MOL0     O34277   6.472   5.598   4.908 -0.8021 -0.3228 -0.7332
  974MOL0     C34278   6.559   5.701   4.944 -0.6911 -0.2275 -1.2034
  974MOL0     C34279   6.494   5.823   4.994 -0.7781 -0.6687  0.1075
  974MOL0     C34280   6.572   5.933   5.020 -0.2543 -0.0254  0.3713
  974MOL0     C34281   6.708   5.926   4.995  0.8681  0.2032 -0.2916
  974MOL0     O34282   6.779   6.036   5.025  0.1386 -0.3050 -0.0897
  974MOL0     C34283   6.796   6.122   4.912 -0.3099  0.3386 -0.1145
  974MOL0     C34284   6.894   6.230   4.948  0.7383  0.4131  0.2233
  974MOL0     C34285   7.039   6.188   4.983  0.6351  0.7372  0.2975
  974MOL0     C34286   7.118   6.316   4.985  0.6511 -0.4054  0.2650
  974MOL0     C34287   7.245   6.295   5.061  0.5445  0.4101  0.9029
  974MOL0     C34288   7.229   6.291   5.219  0.3387  0.5597  0.3861
  974MOL0     C34289   7.356   6.261   5.304 -0.3277 -0.8349  0.6013
  974MOL0     C34290   7.460   6.373   5.280  0.1850 -0.7503  0.1662
  974MOL0     N34291   7.589   6.307   5.296 -0.3294 -0.4922  0.0348
  974MOL0     C34292   7.647   6.229   5.399  0.6609 -0.1941 -1.2632
  974MOL0     C34293   7.760   6.193   5.343 -0.2198 -0.2426 -0.5885
  974MOL0     C34294   7.882   6.134   5.414  0.8374 -0.2232 -0.3469
  974MOL0     C34295   7.842   6.027   5.509  0.0428  0.9159 -1.0675
  974MOL0     C34296   7.809   5.891   5.441  0.0936  0.5532 -0.3232
  974MOL0     C34297   7.931   5.850   5.354  0.3421 -0.1507  1.1374
  974MOL0     O34298   8.051   5.865   5.423 -0.0482  0.3110  0.3787
  974MOL0     C34299   8.177   5.857   5.360  0.3352  0.2808 -0.2742
  974MOL0     C34300   8.288   5.898   5.436 -0.7069 -0.7636  0.0265
  974MOL0     C34301   8.419   5.905   5.381  0.2809  0.5026  0.0076
  974MOL0     C34302   8.535   5.938   5.475  0.0002  0.3342 -1.2265
  974MOL0     C34303   8.442   5.863   5.244  0.5488  0.0703 -0.2950
  974MOL0     C34304   8.564   5.880   5.165  0.0944  0.1973  0.1686
  974MOL0     O34305   8.552   5.857   5.033 -0.1741  0.3219 -0.2691
  974MOL0     C34306   8.659   5.845   4.946  0.9638 -0.3904 -0.1524
  974MOL0     C34307   8.633   5.872   4.809  0.3013  0.4513  0.1715
  974MOL0     C34308   8.738   5.853   4.714  0.6534  0.9905  0.1165
  974MOL0     C34309   8.861   5.790   4.747  0.0826 -1.0648  0.0278
  974MOL0     O34310   8.955   5.759   4.650 -0.1789 -0.4397  0.3887
  974MOL0     C34311   8.988   5.617   4.647  0.3108 -0.2989 -0.8695
  974MOL0     C34312   9.135   5.603   4.702  1.0403  0.0383 -0.2533
  974MOL0     C34313   9.233   5.661   4.614 -0.4470  0.2902  0.1439
  974MOL0     C34314   9.264   5.807   4.651  0.3332 -0.4522  0.7165
  974MOL0     C34315   9.325   5.892   4.545 -0.4290  0.6448  0.1681
  974MOL0     C34316   9.223   5.945   4.439  0.2918 -0.3072 -0.2452
  974MOL0     C34317   9.291   6.030   4.326  0.0210  0.7388  0.2023
  974MOL0     C34318   9.194   6.121   4.245 -1.2825  0.8832  0.4611
  974MOL0    Cl34319   9.288   6.183   4.097  0.1427  0.1466 -0.0499
  974MOL0     C34320   8.882   5.765   4.877 -1.0547  0.4369  0.1243
  974MOL0     C34321   8.785   5.798   4.981  0.3325 -0.7928 -0.7517
  974MOL0     O34322   8.660   5.939   5.212 -0.1973  0.2649  0.2785
  974MOL0     C34323   8.327   5.797   5.177 -0.1433 -0.1900  0.6453
  974MOL0     C34324   8.196   5.794   5.233 -0.0611  0.2089  0.1710
  974MOL0     N34325   7.775   6.236   5.217  0.3644  0.0254 -0.0042
  974MOL0     N34326   7.669   6.302   5.193  0.0579 -0.2963 -0.1104
  974MOL0     C34327   6.771   5.811   4.949 -0.0079 -0.2580 -0.0652
  974MOL0     C34328   6.690   5.698   4.920 -0.3760 -0.3356  0.0589
  974MOL0     C34329   6.367   5.396   4.987  0.1792  0.3226 -0.6299
  974MOL0     C34330   6.237   5.442   4.962  0.1475  0.2499  0.2227
  974MOL0     C34331   6.122   5.357   4.948 -0.0202  0.7417 -0.2623
  974MOL0     C34332   6.138   5.225   4.977 -0.7847  0.1914  0.4680
  974MOL0     O34333   6.038   5.130   4.985 -0.0181 -0.0087  0.4808
  974MOL0     C34334   5.921   5.137   4.896  0.4025  0.1762 -0.2510
  974MOL0     C34335   5.959   5.059   4.764  0.1026 -0.1745 -0.3733
  974MOL0     C34336   5.846   5.022   4.672 -0.6089 -0.5750 -0.2129
  974MOL0     C34337   5.877   4.910   4.569 -0.6299  0.5994 -0.0615
  974MOL0     C34338   6.004   4.940   4.486  0.8989  0.3335  0.6239
  974MOL0     C34339   6.109   4.966   4.430 -0.2724  1.0991 -0.6242
  974MOL0     C34340   6.268   5.177   5.000 -0.1675 -0.4487  0.2439
  974MOL0     C34341   6.382   5.258   5.009 -0.1164 -0.0603 -0.9621
  974MOL0     C34342   6.508   5.187   5.017 -0.2508 -0.1889  0.0770
  974MOL0     H34343   6.388   5.816   5.015 -0.2857 -4.0811  2.1469
  974MOL0     H34344   6.542   6.029   5.061 -2.8117  0.6880 -2.7920
  974MOL0     H34345   6.702   6.168   4.880 -0.6285 -0.7901 -0.8845
  974MOL0     H34346   6.825   6.070   4.820 -1.3755 -2.6750  1.1252
  974MOL0     H34347   6.914   6.286   4.857 -0.6924 -1.4129 -1.2956
  974MOL0     H34348   6.844   6.291   5.024 -2.7139 -0.6032 -1.0118
  974MOL0     H34349   7.033   6.144   5.082  3.9754  1.3738  0.8902
  974MOL0     H34350   7.072   6.109   4.914 -3.1799 -0.3122 -0.5742
  974MOL0     H34351   7.128   6.341   4.879 -1.5161 -0.2303  0.0476
  974MOL0     H34352   7.061   6.402   5.021 -0.2001 -0.6531 -0.4471
  974MOL0     H34353   7.308   6.381   5.034  0.5740 -0.4534 -2.0925
  974MOL0     H34354   7.290   6.204   5.020 -1.5102 -1.1008  1.8171
  974MOL0     H34355   7.185   6.384   5.257 -2.2225 -0.7859  0.9845
  974MOL0     H34356   7.149   6.223   5.249 -0.6279  1.7673  0.6531
  974MOL0     H34357   7.406   6.169   5.272 -0.4566 -0.7515  0.1560
  974MOL0     H34358   7.334   6.254   5.411  2.5295 -0.3554  1.3163
  974MOL0     H34359   7.447   6.419   5.182 -2.0053  0.4425  0.9640
  974MOL0     H34360   7.454   6.456   5.351 -2.0112 -0.4904 -0.2537
  974MOL0     H34361   7.623   6.221   5.505 -0.3271  2.1397 -1.2282
  974MOL0     H34362   7.910   6.219   5.478 -1.6915 -0.0916  0.7276
  974MOL0     H34363   7.963   6.106   5.347  0.6117  1.8423 -1.5686
  974MOL0     H34364   7.923   6.011   5.581  0.6008  0.9054 -1.6906
  974MOL0     H34365   7.767   6.071   5.575 -1.1259 -1.7705 -0.4416
  974MOL0     H34366   7.784   5.810   5.509 -2.8950  0.6264 -1.1899
  974MOL0     H34367   7.715   5.898   5.386  0.2896 -0.1075 -0.7534
  974MOL0     H34368   7.918   5.747   5.321 -0.4986  0.3250 -0.0912
  974MOL0     H34369   7.941   5.910   5.263  2.0229 -2.3083 -0.2137
  974MOL0     H34370   8.269   5.936   5.536  0.8785  0.4618 -0.0998
  974MOL0     H34371   8.607   6.011   5.436  0.0411  1.5237  0.9548
  974MOL0     H34372   8.590   5.847   5.503  0.7239  0.6639 -1.5469
  974MOL0     H34373   8.503   5.984   5.568  3.7256  0.0253  0.3875
  974MOL0     H34374   8.536   5.896   4.767 -0.9922 -3.9897  0.1671
  974MOL0     H34375   8.717   5.875   4.609 -0.2326  1.2484  0.3414
  974MOL0     H34376   8.924   5.555   4.709  0.8290  0.5215  0.5406
  974MOL0     H34377   8.984   5.563   4.552 -5.2714 -1.9395 -0.0297
  974MOL0     H34378   9.152   5.633   4.806 -0.7655 -3.4093  1.2106
  974MOL0     H34379   9.157   5.496   4.704 -0.4456 -0.2921  0.0109
  974MOL0     H34380   9.182   5.662   4.517 -3.5491 -0.3817  1.6482
  974MOL0     H34381   9.329   5.609   4.620  1.4158  3.5719  2.8258
  974MOL0     H34382   9.337   5.791   4.730  3.0865  1.5314 -1.2108
  974MOL0     H34383   9.180   5.854   4.702  0.4519 -1.3687  1.7784
  974MOL0     H34384   9.393   5.961   4.595  1.0754 -1.7116  1.5816
  974MOL0     H34385   9.389   5.836   4.476  0.2753  3.6335 -1.8129
  974MOL0     H34386   9.144   5.995   4.495 -0.8507 -1.6873 -0.5763
  974MOL0     H34387   9.162   5.863   4.401  0.8361 -0.9828  0.3198
  974MOL0     H34388   9.335   5.951   4.265 -2.3007  0.4977 -1.2512
  974MOL0     H34389   9.368   6.096   4.369 -0.4053 -0.3225  2.8256
  974MOL0     H34390   9.163   6.203   4.310  0.8133  3.0376 -1.1052
  974MOL0     H34391   9.105   6.071   4.205  0.9229  0.4541 -4.6836
  974MOL0     H34392   8.984   5.734   4.898  0.1280  2.9260 -1.4595
  974MOL0     H34393   8.816   5.774   5.082 -1.4632 -3.8495 -0.8086
  974MOL0     H34394   8.348   5.753   5.080  1.6744  0.8797  0.5099
  974MOL0     H34395   8.128   5.749   5.162 -0.4479  0.8888  0.1016
  974MOL0     H34396   6.876   5.822   4.926  0.1443  0.6663  1.0144
  974MOL0     H34397   6.742   5.610   4.884 -0.7955 -1.1032  1.2608
  974MOL0     H34398   6.224   5.547   4.936  3.0940  1.6925  3.7973
  974MOL0     H34399   6.020   5.392   4.937 -0.3735 -0.1359  0.1404
  974MOL0     H34400   5.846   5.082   4.952 -0.3300 -0.4138 -1.7440
  974MOL0     H34401   5.869   5.231   4.875  0.1179 -0.2894 -1.8077
  974MOL0     H34402   6.001   4.961   4.785  0.4134 -0.4146 -1.9900
  974MOL0     H34403   6.024   5.131   4.712 -0.1833 -0.1426 -0.6931
  974MOL0     H34404   5.756   5.001   4.732 -0.3260  1.6975  1.1341
  974MOL0     H34405   5.817   5.116   4.624 -2.8776 -1.3524 -0.4844
  974MOL0     H34406   5.782   4.899   4.515 -0.3095 -0.4384 -0.4252
  974MOL0     H34407   5.887   4.820   4.630  1.2383 -1.0260 -2.5664
  974MOL0     H34408   6.198   5.000   4.380 -0.6501 -0.3473 -2.3687
  974MOL0     H34409   6.275   5.071   5.021  1.8463  0.1870  3.6110
  974MOL0     H34410   6.499   5.130   5.110  0.1105 -0.1259  0.1532
  974MOL0     H34411   6.504   5.121   4.930  1.0297  1.3229 -1.2059
  974MOL0     H34412   6.596   5.253   5.024 -1.1834  1.2065 -0.8204
  975MOL0     O34413   8.397   5.613  10.760 -0.4027  0.4156 -0.1093
  975MOL0     C34414   8.476   5.517  10.779  0.2514 -0.0880 -0.1763
  975MOL0     O34415   8.608   5.510  10.744 -0.0326 -0.0908  0.3879
  975MOL0     C34416   8.669   5.623  10.691 -0.4309 -0.2050 -0.6836
  975MOL0     C34417   8.779   5.671  10.757  0.0894  0.3730 -0.2352
  975MOL0     C34418   8.850   5.788  10.706 -0.1371 -0.2740  1.0480
  975MOL0     C34419   8.805   5.856  10.591 -0.2812 -0.3316  0.3501
  975MOL0     O34420   8.877   5.957  10.543 -0.6745 -0.2327  0.0450
  975MOL0     C34421   8.832   6.029  10.429  0.9126 -0.3130  0.6203
  975MOL0     C34422   8.930   6.140  10.426  0.1943 -0.0758  0.0543
  975MOL0     C34423   8.916   6.224  10.295 -0.8045  0.2374  0.2058
  975MOL0     C34424   8.796   6.312  10.302  0.2698  0.2305  0.3443
  975MOL0     C34425   8.802   6.452  10.230 -0.4491  0.7522  0.4835
  975MOL0     C34426   8.857   6.441  10.087 -0.3097  0.4815  0.2225
  975MOL0     C34427   8.857   6.562   9.994 -0.0906 -0.3001  0.5525
  975MOL0     C34428   8.713   6.620   9.984 -0.8632 -0.3194  0.1455
  975MOL0     N34429   8.684   6.721   9.882  1.3094  0.5366 -0.1945
  975MOL0     C34430   8.741   6.842   9.869 -0.0455  0.4768 -0.2734
  975MOL0     C34431   8.687   6.892   9.752  0.0955 -0.2373 -0.6508
  975MOL0     C34432   8.703   7.035   9.716  0.2362 -0.2485  1.4763
  975MOL0     C34433   8.627   7.077   9.589 -0.5061  0.7212 -0.0090
  975MOL0     C34434   8.648   7.232   9.571  0.1080  0.8677  0.3511
  975MOL0     C34435   8.556   7.305   9.658  0.1223  0.3795  0.4829
  975MOL0     O34436   8.597   7.442   9.652 -0.3250 -0.0880 -0.6173
  975MOL0     C34437   8.620   7.515   9.766  1.0815  0.5580 -0.0085
  975MOL0     C34438   8.550   7.496   9.881  0.0302 -0.1605  0.5799
  975MOL0     C34439   8.569   7.586   9.985 -0.2315  0.0044  0.3016
  975MOL0     C34440   8.488   7.563  10.107  0.8713 -0.2227 -0.3227
  975MOL0     C34441   8.653   7.707   9.971 -0.4576  0.2549 -0.3646
  975MOL0     C34442   8.693   7.791  10.082  0.7174  0.2101  0.4518
  975MOL0     O34443   8.705   7.920  10.059 -0.2449  0.6209 -0.2201
  975MOL0     C34444   8.778   8.002  10.149 -0.3010 -0.1194 -0.0768
  975MOL0     C34445   8.901   8.041  10.103 -0.3142  0.4013  0.3204
  975MOL0     C34446   8.981   8.117  10.176 -0.4686  0.0767 -0.9404
  975MOL0     C34447   8.942   8.166  10.303  0.7074  0.1096  0.1201
  975MOL0     O34448   9.013   8.251  10.382 -0.5128  0.0133  0.1803
  975MOL0     C34449   9.094   8.356  10.327  0.2672 -0.4806  0.5276
  975MOL0     C34450   9.235   8.316  10.303 -0.3419  0.1223 -0.0476
  975MOL0     C34451   9.334   8.427  10.260  0.2642  0.3752  0.5308
  975MOL0     C34452   9.396   8.506  10.377 -0.4755 -0.0217  0.1531
  975MOL0     C34453   9.514   8.577  10.325 -0.4508  0.4506 -0.2992
  975MOL0     C34454   9.570   8.669  10.438  0.2118  0.4679  0.6348
  975MOL0     C34455   9.711   8.709  10.400 -0.4119  0.0527 -0.0627
  975MOL0     C34456   9.769   8.818  10.496  0.1329  0.6299  0.4414
  975MOL0    Cl34457   9.926   8.874  10.442  0.1472  0.7186 -0.2408
  975MOL0     C34458   8.820   8.124  10.352  1.1857  0.5095 -1.1221
  975MOL0     C34459   8.731   8.051  10.278 -0.3666  0.0141  0.1459
  975MOL0     O34460   8.729   7.723  10.176 -0.2905 -0.3970  0.3817
  975MOL0     C34461   8.724   7.721   9.850  0.5622 -0.2040  0.2833
  975MOL0     C34462   8.703   7.626   9.750 -0.4976  0.6177 -0.2994
  975MOL0     N34463   8.605   6.793   9.702  0.3082  0.0396  0.0589
  975MOL0     N34464   8.593   6.702   9.784 -0.0600 -0.4873 -0.3781
  975MOL0     C34465   8.678   5.810  10.539 -0.2775 -0.5617 -0.3466
  975MOL0     C34466   8.618   5.700  10.586  0.7500  0.0436 -1.1382
  975MOL0     C34467   8.424   5.404  10.854  0.3941 -0.4292  1.4758
  975MOL0     C34468   8.514   5.290  10.857  0.6372 -0.1995  0.2524
  975MOL0     C34469   8.468   5.170  10.907 -0.5110 -0.3761 -0.0710
  975MOL0     C34470   8.342   5.151  10.970  0.5408 -0.1573  0.2837
  975MOL0     O34471   8.300   5.024  11.015 -0.8111  0.3798  0.0869
  975MOL0     C34472   8.348   4.990  11.147 -0.0457  0.0763 -0.0358
  975MOL0     C34473   8.286   5.081  11.251 -0.1900  0.0659 -0.4636
  975MOL0     C34474   8.392   5.132  11.352 -0.7122  0.6981  0.4803
  975MOL0     C34475   8.474   5.250  11.300  0.2447 -0.1739 -0.2445
  975MOL0     C34476   8.402   5.373  11.270 -0.7975  0.2804  0.1492
  975MOL0     C34477   8.339   5.477  11.265 -0.3172 -0.3281 -0.4709
  975MOL0     C34478   8.259   5.264  10.973  0.0442  0.3121 -0.4070
  975MOL0     C34479   8.298   5.385  10.919 -0.5913 -0.6473 -1.2870
  975MOL0     C34480   8.228   5.514  10.961  0.7884 -0.4380 -0.4283
  975MOL0     H34481   8.820   5.608  10.836 -0.8591 -2.2112 -1.6862
  975MOL0     H34482   8.944   5.823  10.746  0.4555  0.2497 -0.6883
  975MOL0     H34483   8.738   6.083  10.443  1.0248  0.7471 -2.0760
  975MOL0     H34484   8.830   5.968  10.338 -0.4549  3.4617 -2.1739
  975MOL0     H34485   8.912   6.195  10.519 -1.9444 -3.9317  2.1881
  975MOL0     H34486   9.023   6.083  10.427 -1.0496 -2.2647  1.4427
  975MOL0     H34487   9.007   6.284  10.302 -0.9168  0.4511 -0.1420
  975MOL0     H34488   8.915   6.157  10.208 -0.3621  1.1606 -0.5253
  975MOL0     H34489   8.729   6.248  10.243  3.3505 -2.5251 -0.5017
  975MOL0     H34490   8.762   6.328  10.404 -1.8363 -1.1799 -0.0729
  975MOL0     H34491   8.867   6.522  10.284  0.4227 -0.6499  1.3120
  975MOL0     H34492   8.700   6.492  10.225 -1.2057 -1.1739 -0.8228
  975MOL0     H34493   8.951   6.386  10.096 -1.0583 -0.9198 -0.2212
  975MOL0     H34494   8.795   6.365  10.037  0.5442  0.9797 -1.6939
  975MOL0     H34495   8.902   6.540   9.897  0.9050  0.5662  0.7926
  975MOL0     H34496   8.915   6.639  10.045  1.8477 -0.3827 -1.3519
  975MOL0     H34497   8.646   6.536   9.964 -0.3956 -0.1184 -2.5791
  975MOL0     H34498   8.687   6.668  10.080  1.6646  1.6383 -0.0511
  975MOL0     H34499   8.814   6.893   9.930 -1.6649  3.8661 -0.9405
  975MOL0     H34500   8.802   7.065   9.682 -1.0342  0.0966 -2.4648
  975MOL0     H34501   8.672   7.096   9.802 -0.9380  0.2931  0.6888
  975MOL0     H34502   8.675   7.029   9.504 -0.4684  1.2842 -0.3087
  975MOL0     H34503   8.522   7.046   9.598 -0.2022 -0.9165 -1.5625
  975MOL0     H34504   8.754   7.251   9.589  1.1877 -0.5133 -3.4104
  975MOL0     H34505   8.636   7.266   9.468 -2.1765 -0.3255  0.1569
  975MOL0     H34506   8.460   7.293   9.608  0.5162  3.7132 -1.3669
  975MOL0     H34507   8.546   7.262   9.758  0.9256 -0.3911  0.2437
  975MOL0     H34508   8.475   7.418   9.889 -2.1230  1.6667 -0.5886
  975MOL0     H34509   8.559   7.508  10.170  2.5907  2.7379  0.4877
  975MOL0     H34510   8.406   7.492  10.089  2.4111 -2.7131  1.7942
  975MOL0     H34511   8.451   7.645  10.168 -1.6775 -1.4808 -0.0436
  975MOL0     H34512   8.926   8.007  10.004  0.6541  1.1375  0.2985
  975MOL0     H34513   9.078   8.140  10.133  0.6208 -0.2961  1.1584
  975MOL0     H34514   9.046   8.379  10.231  0.2088  0.7508  0.8278
  975MOL0     H34515   9.094   8.449  10.384  0.6693 -0.9720  1.3394
  975MOL0     H34516   9.277   8.253  10.382  0.0607  1.4201  0.8136
  975MOL0     H34517   9.239   8.247  10.218 -0.0129  2.0992 -1.7336
  975MOL0     H34518   9.282   8.492  10.189 -0.2136  0.1459  0.6662
  975MOL0     H34519   9.411   8.377  10.199  0.4797  0.5205  0.6807
  975MOL0     H34520   9.427   8.446  10.463  0.5396  0.7764  0.3614
  975MOL0     H34521   9.323   8.576  10.419 -1.3555  0.1855 -1.6150
  975MOL0     H34522   9.601   8.518  10.295  1.8904  2.9422  1.0654
  975MOL0     H34523   9.486   8.642  10.241  1.6764  0.4225 -1.0797
  975MOL0     H34524   9.576   8.624  10.537  0.6474  0.4708  0.6148
  975MOL0     H34525   9.508   8.758  10.447  1.6779  1.6766 -0.6951
  975MOL0     H34526   9.703   8.756  10.302 -1.3420 -0.8663 -0.4340
  975MOL0     H34527   9.780   8.626  10.384  0.2030  0.9423 -2.4373
  975MOL0     H34528   9.785   8.771  10.593 -1.4875 -1.7521 -0.3689
  975MOL0     H34529   9.704   8.906  10.494 -0.6520  0.0590  0.4658
  975MOL0     H34530   8.801   8.172  10.447  1.2341 -0.9228 -0.3721
  975MOL0     H34531   8.640   8.016  10.326 -0.1998  1.7018  1.8182
  975MOL0     H34532   8.782   7.811   9.833 -0.1098 -0.2624 -3.2157
  975MOL0     H34533   8.760   7.638   9.659  0.3441  0.8733  0.2516
  975MOL0     H34534   8.627   5.867  10.463 -0.1979  0.0855  0.0708
  975MOL0     H34535   8.530   5.661  10.535  1.5683 -0.2488 -2.3852
  975MOL0     H34536   8.605   5.286  10.798  0.1092  1.9444 -0.8326
  975MOL0     H34537   8.530   5.081  10.906  2.0940  1.1888  2.6913
  975MOL0     H34538   8.328   4.889  11.182  2.7041 -0.7570 -0.6417
  975MOL0     H34539   8.457   4.997  11.143  0.1671 -2.0130  0.6944
  975MOL0     H34540   8.213   5.017  11.302 -0.6351  0.9205  0.0027
  975MOL0     H34541   8.235   5.165  11.204  1.4291  2.0074  1.0447
  975MOL0     H34542   8.341   5.168  11.441 -0.2888  0.2065  0.9359
  975MOL0     H34543   8.452   5.045  11.382  0.1809  1.2297  0.2591
  975MOL0     H34544   8.535   5.224  11.213  1.2588 -0.1378  0.4375
  975MOL0     H34545   8.546   5.276  11.378  0.3036  0.1396 -0.4028
  975MOL0     H34546   8.285   5.570  11.263 -0.3427 -0.3461 -0.6424
  975MOL0     H34547   8.162   5.253  11.021  1.7243 -3.3063  2.7022
  975MOL0     H34548   8.301   5.588  10.994  0.0667 -0.2018  0.7045
  975MOL0     H34549   8.157   5.551  10.887  0.2148 -1.3847 -0.3691
  975MOL0     H34550   8.165   5.491  11.048 -1.7512  0.7433 -1.8702
  976MOL0     O34551   8.262   4.593   2.418  0.1838 -0.1582 -0.0661
  976MOL0     C34552   8.158   4.536   2.393 -0.2843 -0.7948  0.8955
  976MOL0     O34553   8.141   4.407   2.346 -0.8486 -0.6295  0.3390
  976MOL0     C34554   8.253   4.333   2.329  0.1209  0.1778  0.2500
  976MOL0     C34555   8.289   4.229   2.418 -0.6783 -0.4699 -0.4811
  976MOL0     C34556   8.403   4.153   2.388  0.0717  0.4836  0.0835
  976MOL0     C34557   8.479   4.175   2.274  1.0535 -0.4251  0.4819
  976MOL0     O34558   8.582   4.093   2.247 -0.3739  0.1931 -0.1121
  976MOL0     C34559   8.660   4.103   2.127  0.2186  0.1907 -0.2801
  976MOL0     C34560   8.793   4.032   2.149 -0.4515  0.2957  0.2955
  976MOL0     C34561   8.873   4.090   2.265 -0.6326  0.7991  0.1876
  976MOL0     C34562   9.006   4.022   2.303  0.4601 -0.1359  0.8103
  976MOL0     C34563   9.117   4.132   2.302  0.1367  0.0259 -0.0708
  976MOL0     C34564   9.249   4.085   2.356  0.4359  1.0031 -0.6251
  976MOL0     C34565   9.369   4.191   2.360  0.2850  0.0028 -0.1149
  976MOL0     C34566   9.347   4.290   2.470 -0.0183  0.7913 -0.5094
  976MOL0     N34567   9.472   4.375   2.484 -0.2967 -0.1364 -0.7057
  976MOL0     C34568   9.610   4.329   2.477 -1.0399  0.0036 -0.0702
  976MOL0     C34569   9.683   4.448   2.475 -0.4182  0.2003  0.3186
  976MOL0     C34570   9.825   4.478   2.447 -0.4120  0.3511 -0.0121
  976MOL0     C34571   9.890   4.366   2.364 -0.2974  0.6626 -0.5865
  976MOL0     C34572  10.030   4.413   2.324 -0.1885 -1.1476  0.1547
  976MOL0     C34573  10.122   4.296   2.269 -0.1452  0.7427  0.3127
  976MOL0     O34574  10.258   4.315   2.298  0.4223 -0.5258  0.5947
  976MOL0     C34575  10.331   4.402   2.219 -0.1603  0.0031 -0.4916
  976MOL0     C34576  10.441   4.461   2.279 -1.2553 -0.5115 -1.2791
  976MOL0     C34577  10.532   4.559   2.221  0.6301  0.5152 -0.2231
  976MOL0     C34578  10.642   4.608   2.312 -0.9238  0.1177 -0.2694
  976MOL0     C34579  10.498   4.596   2.093 -0.7049  0.0893  0.4607
  976MOL0     C34580  10.579   4.702   2.025  0.2101  0.3514 -0.2732
  976MOL0     O34581  10.712   4.719   2.056  0.2162 -0.4249  0.2657
  976MOL0     C34582  10.771   4.827   1.994 -0.0942 -0.4555 -0.1655
  976MOL0     C34583  10.867   4.798   1.893  0.3185 -0.1073 -0.1319
  976MOL0     C34584  10.947   4.890   1.839 -0.1476 -0.5916 -0.1249
  976MOL0     C34585  10.933   5.022   1.887  0.1026  0.3397  0.2599
  976MOL0     O34586  11.012   5.123   1.834  0.1354  0.0875  0.0535
  976MOL0     C34587  11.151   5.096   1.833 -0.1444 -0.1119 -0.5338
  976MOL0     C34588  11.236   5.225   1.865  0.3623  0.0238 -0.1201
  976MOL0     C34589  11.229   5.343   1.762 -0.0831  0.6932 -0.3899
  976MOL0     C34590  11.255   5.292   1.619  0.0820 -0.3578  1.2141
  976MOL0     C34591  11.400   5.274   1.587  0.1735 -0.8204 -0.3294
  976MOL0     C34592  11.422   5.224   1.451  0.0817 -0.0953 -0.3610
  976MOL0     C34593  11.564   5.231   1.413 -1.0416  0.3755 -0.2276
  976MOL0     C34594  11.624   5.369   1.379  0.3526  0.2317 -0.4762
  976MOL0    Cl34595  11.796   5.352   1.353  0.5666 -0.1474  0.2394
  976MOL0     C34596  10.836   5.057   1.985  0.3355  0.6805 -0.5881
  976MOL0     C34597  10.748   4.959   2.036 -0.5598  0.9413 -0.5313
  976MOL0     O34598  10.516   4.772   1.950  0.3438  0.5657  0.3647
  976MOL0     C34599  10.385   4.533   2.030 -0.9260  0.0884  0.7375
  976MOL0     C34600  10.305   4.442   2.089  0.2935 -0.4295 -0.5916
  976MOL0     N34601   9.590   4.546   2.460 -0.0476  0.2269  0.4600
  976MOL0     N34602   9.464   4.512   2.487 -0.4802 -0.6759 -0.5692
  976MOL0     C34603   8.437   4.274   2.181  0.8358  0.4253 -0.1966
  976MOL0     C34604   8.326   4.353   2.213  0.0151 -0.8077  0.5735
  976MOL0     C34605   8.031   4.617   2.405 -0.0632  0.6148  0.9883
  976MOL0     C34606   7.917   4.552   2.456 -0.0480 -0.0711  0.2440
  976MOL0     C34607   7.790   4.618   2.473  0.8385 -0.8927  0.1849
  976MOL0     C34608   7.765   4.748   2.416 -0.5334 -0.1180 -0.3076
  976MOL0     O34609   7.641   4.807   2.415 -0.5137  0.2025  0.9598
  976MOL0     C34610   7.522   4.734   2.458 -0.4326 -0.3798  0.1296
  976MOL0     C34611   7.503   4.620   2.345 -0.4219  0.4836 -0.2010
  976MOL0     C34612   7.353   4.585   2.324 -0.1910 -0.9333 -0.6909
  976MOL0     C34613   7.305   4.477   2.424  0.4179  0.9819 -0.2347
  976MOL0     C34614   7.178   4.418   2.367 -0.4193  0.8546  0.2071
  976MOL0     C34615   7.090   4.382   2.303 -0.0664  0.6992 -0.6056
  976MOL0     C34616   7.875   4.816   2.354  0.3447 -0.5546 -0.3853
  976MOL0     C34617   8.007   4.752   2.355  0.0965  0.3684  0.0909
  976MOL0     C34618   8.126   4.826   2.327 -0.1162 -0.0052 -0.6861
  976MOL0     H34619   8.216   4.219   2.498 -0.0532 -2.7700 -0.1294
  976MOL0     H34620   8.412   4.061   2.444 -0.8478  1.4458  1.8916
  976MOL0     H34621   8.697   4.204   2.110  5.3641 -1.5671 -1.3512
  976MOL0     H34622   8.606   4.063   2.040 -0.5911 -0.7950  0.6431
  976MOL0     H34623   8.774   3.924   2.156  1.3348 -0.3106 -2.7090
  976MOL0     H34624   8.855   4.047   2.061 -1.0261  1.1872  0.0239
  976MOL0     H34625   8.898   4.191   2.230 -0.7917  1.0359  0.7494
  976MOL0     H34626   8.811   4.092   2.355  0.9563  1.8528  1.3122
  976MOL0     H34627   8.985   3.982   2.402 -3.4759  1.1117  0.6608
  976MOL0     H34628   9.031   3.940   2.235  0.3581  0.0359  0.5649
  976MOL0     H34629   9.084   4.213   2.367  3.2346 -0.9755  3.0816
  976MOL0     H34630   9.140   4.165   2.200  1.3240  3.6610  1.2063
  976MOL0     H34631   9.231   4.049   2.458  0.8552 -0.6446 -1.1041
  976MOL0     H34632   9.288   3.999   2.301  1.0460  0.7224  0.2213
  976MOL0     H34633   9.375   4.240   2.262 -0.1957  1.6243  0.6337
  976MOL0     H34634   9.463   4.137   2.373 -0.7365 -2.8167 -3.1394
  976MOL0     H34635   9.261   4.353   2.446 -0.6179 -0.3492 -1.5305
  976MOL0     H34636   9.340   4.230   2.561 -0.7015 -0.1041 -1.1375
  976MOL0     H34637   9.643   4.225   2.474  0.2454  0.2430  2.7868
  976MOL0     H34638   9.871   4.479   2.546  0.2770 -3.1428 -0.1703
  976MOL0     H34639   9.837   4.578   2.405 -3.0662  0.9211  0.4121
  976MOL0     H34640   9.900   4.273   2.421  0.8769  0.4956 -1.0131
  976MOL0     H34641   9.837   4.350   2.270  0.0912  1.8213 -1.0196
  976MOL0     H34642  10.024   4.502   2.260  1.5668 -0.5449  0.7813
  976MOL0     H34643  10.074   4.448   2.418  0.0103 -1.6808  0.2643
  976MOL0     H34644  10.097   4.208   2.329  1.2066 -0.4887 -0.8659
  976MOL0     H34645  10.099   4.264   2.168  0.9139  2.1106 -0.4042
  976MOL0     H34646  10.457   4.434   2.383  1.3406  0.4581 -1.3627
  976MOL0     H34647  10.728   4.562   2.262 -2.6840 -1.4748 -2.0228
  976MOL0     H34648  10.625   4.563   2.410 -0.4265  0.8908  0.1851
  976MOL0     H34649  10.655   4.715   2.328 -0.1535 -0.1283  0.8322
  976MOL0     H34650  10.869   4.694   1.862  1.4005  0.3150 -1.6149
  976MOL0     H34651  11.024   4.852   1.773 -0.0503  0.4803 -0.6547
  976MOL0     H34652  11.191   5.009   1.886  1.5920  1.1734  0.3796
  976MOL0     H34653  11.187   5.063   1.735  1.1493  0.4379 -0.2665
  976MOL0     H34654  11.212   5.263   1.964 -0.0720  1.3617 -0.7115
  976MOL0     H34655  11.344   5.209   1.873  0.5162 -0.8140 -2.8437
  976MOL0     H34656  11.292   5.426   1.795  1.1129 -0.6964  0.9192
  976MOL0     H34657  11.127   5.382   1.761  0.4300  2.0806 -1.1232
  976MOL0     H34658  11.218   5.365   1.546  5.3675  3.9983  2.2594
  976MOL0     H34659  11.204   5.197   1.606  1.7028 -1.7870  4.2100
  976MOL0     H34660  11.460   5.365   1.602  1.7838 -2.0924  1.3914
  976MOL0     H34661  11.448   5.207   1.658  1.7438 -0.3541 -0.9067
  976MOL0     H34662  11.366   5.288   1.382  3.5365 -0.0570 -3.4137
  976MOL0     H34663  11.380   5.124   1.436  0.2384 -0.2039 -0.0799
  976MOL0     H34664  11.587   5.171   1.324 -0.3438 -2.4516  1.7053
  976MOL0     H34665  11.624   5.190   1.495  1.1771  2.2218 -0.8306
  976MOL0     H34666  11.601   5.442   1.457 -3.6561 -2.4446  1.1523
  976MOL0     H34667  11.567   5.417   1.299  0.6177  1.2796 -0.0558
  976MOL0     H34668  10.830   5.159   2.022  1.7924 -0.1971  2.3825
  976MOL0     H34669  10.699   4.968   2.132  0.5713 -0.3059  0.2104
  976MOL0     H34670  10.368   4.576   1.932 -1.4708 -2.2924 -0.2729
  976MOL0     H34671  10.214   4.398   2.048 -2.1900  3.6897 -0.0575
  976MOL0     H34672   8.497   4.302   2.095 -1.7557  1.5334 -1.7415
  976MOL0     H34673   8.288   4.434   2.151 -0.5628 -2.9839 -2.0988
  976MOL0     H34674   7.936   4.463   2.515  3.0252  1.1233  1.2941
  976MOL0     H34675   7.718   4.556   2.526  1.9060  0.3361  3.2606
  976MOL0     H34676   7.522   4.703   2.563 -1.4833  2.4574  1.0597
  976MOL0     H34677   7.435   4.800   2.467 -0.9654 -1.0179 -0.2184
  976MOL0     H34678   7.578   4.542   2.363 -0.4514  0.6036  0.4776
  976MOL0     H34679   7.535   4.670   2.253  1.8794  2.8400  1.7075
  976MOL0     H34680   7.288   4.673   2.329  0.5257 -0.3377 -1.4044
  976MOL0     H34681   7.336   4.547   2.222 -1.3385 -1.3555 -0.3566
  976MOL0     H34682   7.297   4.510   2.528  0.9315 -0.9437  0.4528
  976MOL0     H34683   7.385   4.404   2.412  1.0851  1.8611 -1.3368
  976MOL0     H34684   7.008   4.340   2.250  1.0980 -1.6382 -0.6910
  976MOL0     H34685   7.847   4.919   2.336 -2.1241 -0.6009  2.5274
  976MOL0     H34686   8.112   4.923   2.280 -0.9289  0.0629 -0.3282
  976MOL0     H34687   8.189   4.837   2.416  1.0678 -1.7262 -1.2541
  976MOL0     H34688   8.172   4.771   2.244 -3.7014 -2.3355 -1.3584
  977MOL0     O34689   9.920  10.567   1.159 -0.4761 -0.2902  0.5400
  977MOL0     C34690   9.891  10.486   1.071  0.1759 -0.1436 -0.5187
  977MOL0     O34691   9.985  10.435   0.987 -0.2275  0.0135  0.1515
  977MOL0     C34692  10.114  10.408   1.024 -0.0807 -0.7573 -0.0636
  977MOL0     C34693  10.150  10.275   1.029 -0.1175  0.4506 -0.3988
  977MOL0     C34694  10.289  10.239   1.052 -0.0764 -0.5172 -0.9429
  977MOL0     C34695  10.389  10.342   1.072 -0.3052  0.1362 -0.4403
  977MOL0     O34696  10.528  10.321   1.102  0.1546 -0.7081 -0.2464
  977MOL0     C34697  10.584  10.193   1.079 -0.8376  0.3966 -0.5844
  977MOL0     C34698  10.730  10.221   1.047  0.1463  0.0205  0.1039
  977MOL0     C34699  10.796  10.283   1.164  0.1360  0.4061  0.0620
  977MOL0     C34700  10.949  10.322   1.129  0.7638  0.0834  0.7202
  977MOL0     C34701  11.046  10.204   1.159 -0.0046 -0.1037  0.2830
  977MOL0     C34702  11.054  10.163   1.308  0.2178  0.1024 -0.4539
  977MOL0     C34703  11.181  10.079   1.330 -0.5169 -0.0034  0.7992
  977MOL0     C34704  11.171  10.017   1.471  0.0984  0.5709  0.0612
  977MOL0     N34705  11.307  10.002   1.533 -0.1944 -0.5111  0.3099
  977MOL0     C34706  11.408   9.926   1.494  0.2908  0.8351 -0.4147
  977MOL0     C34707  11.503   9.933   1.590 -0.4934  0.4930 -0.1654
  977MOL0     C34708  11.638   9.873   1.593  0.1670 -0.1565 -0.9458
  977MOL0     C34709  11.650   9.721   1.625 -0.1823 -0.4873 -0.5220
  977MOL0     C34710  11.774   9.678   1.701  0.2535 -0.3897 -0.5367
  977MOL0     C34711  11.902   9.706   1.633 -0.2204  0.1596 -0.1653
  977MOL0     O34712  11.918   9.619   1.515 -0.3313  0.2936  0.1353
  977MOL0     C34713  12.047   9.604   1.462 -0.3075 -0.0455 -1.1005
  977MOL0     C34714  12.078   9.505   1.376  0.3035  0.2513  0.0506
  977MOL0     C34715  12.201   9.494   1.321 -0.4321  0.1885  0.3471
  977MOL0     C34716  12.236   9.363   1.259  0.2469 -0.2305  0.3289
  977MOL0     C34717  12.293   9.602   1.340  0.2463  0.0992  0.2717
  977MOL0     C34718  12.435   9.605   1.300 -0.5398  0.9867  1.4105
  977MOL0     O34719  12.530   9.525   1.359 -0.0474 -0.6587  0.4458
  977MOL0     C34720  12.662   9.542   1.323 -0.4895  0.0718  0.7678
  977MOL0     C34721  12.724   9.440   1.247  0.7220 -0.2063  0.6082
  977MOL0     C34722  12.867   9.446   1.227 -0.2549  0.7906 -0.7445
  977MOL0     C34723  12.939   9.554   1.276  1.4176  1.1564  0.3874
  977MOL0     O34724  13.069   9.562   1.273  0.3853 -0.6183  0.0198
  977MOL0     C34725  13.139   9.508   1.158  0.5425 -0.3864 -0.6971
  977MOL0     C34726  13.278   9.559   1.155 -0.9021  0.3234 -0.3118
  977MOL0     C34727  13.352   9.551   1.300  0.0981 -0.1674  0.6083
  977MOL0     C34728  13.485   9.477   1.311  0.1438 -0.2705  0.2458
  977MOL0     C34729  13.540   9.508   1.453 -0.1199 -0.3615  0.6161
  977MOL0     C34730  13.666   9.413   1.483  0.3497  0.1499  0.0425
  977MOL0     C34731  13.608   9.273   1.508 -0.2855  0.5718  0.0025
  977MOL0     C34732  13.724   9.201   1.579  0.5435  0.7118  0.5404
  977MOL0    Cl34733  13.851   9.133   1.461  0.2479 -0.4229 -0.0197
  977MOL0     C34734  12.871   9.655   1.353 -0.5291  1.1760 -0.5414
  977MOL0     C34735  12.736   9.653   1.371 -0.3877 -0.2546 -0.8614
  977MOL0     O34736  12.468   9.685   1.212 -0.1759 -0.3161 -0.2105
  977MOL0     C34737  12.253   9.713   1.408  0.1488 -0.1131  0.3815
  977MOL0     C34738  12.136   9.716   1.470  0.7790  0.1898 -1.0714
  977MOL0     N34739  11.449  10.011   1.695  0.8918  0.0941  0.0010
  977MOL0     N34740  11.336  10.053   1.655  0.0240  0.8092  0.7847
  977MOL0     C34741  10.342  10.474   1.063  0.5583  0.9797  0.8152
  977MOL0     C34742  10.210  10.508   1.043 -0.1872  0.8881 -0.2961
  977MOL0     C34743   9.745  10.462   1.040 -0.7387  0.3546  0.4683
  977MOL0     C34744   9.719  10.399   0.920  0.1906  1.0321  0.5104
  977MOL0     C34745   9.584  10.372   0.886 -1.4260  0.6419 -0.4728
  977MOL0     C34746   9.480  10.418   0.965  0.0988 -0.1246 -0.1202
  977MOL0     O34747   9.343  10.424   0.931 -0.7318  0.1730  0.9300
  977MOL0     C34748   9.299  10.383   0.799 -0.4981  0.3443  0.0321
  977MOL0     C34749   9.142  10.381   0.780  0.4753  0.8569  0.2568
  977MOL0     C34750   9.104  10.366   0.631 -0.1583 -0.7854  0.3473
  977MOL0     C34751   8.958  10.393   0.594  0.5426  0.4463 -0.1906
  977MOL0     C34752   8.944  10.363   0.451 -0.1046 -0.0816  0.2210
  977MOL0     C34753   8.933  10.339   0.330  0.0979  0.7053  0.5595
  977MOL0     C34754   9.502  10.493   1.077  0.5695  0.6554 -0.1763
  977MOL0     C34755   9.637  10.512   1.115 -0.5526 -0.2886 -0.4476
  977MOL0     C34756   9.648  10.596   1.245  0.1447  0.8432 -0.3797
  977MOL0     H34757  10.081  10.196   0.998  2.6434 -1.8843 -0.9842
  977MOL0     H34758  10.314  10.133   1.048  0.2969 -0.4682 -0.1715
  977MOL0     H34759  10.539  10.157   0.986  0.2056  1.3244 -1.4787
  977MOL0     H34760  10.580  10.118   1.158 -0.8661 -0.8835 -1.7751
  977MOL0     H34761  10.770  10.124   1.017  0.2830 -0.1883  0.9453
  977MOL0     H34762  10.755  10.283   0.960  1.8438 -0.6267  0.0910
  977MOL0     H34763  10.743  10.365   1.214 -0.1560  0.1136  0.2376
  977MOL0     H34764  10.798  10.214   1.249  2.6298  0.6910  0.2971
  977MOL0     H34765  10.962  10.361   1.028  2.4227 -0.9405  0.5068
  977MOL0     H34766  10.980  10.412   1.183 -1.0464  1.6690 -0.7210
  977MOL0     H34767  11.148  10.226   1.127  0.4007 -0.1435  1.5181
  977MOL0     H34768  11.008  10.134   1.084 -0.7821  1.3244 -0.7026
  977MOL0     H34769  11.065  10.249   1.374  3.5156  0.7298 -1.6340
  977MOL0     H34770  10.970  10.106   1.348 -0.6293  1.3359 -0.4229
  977MOL0     H34771  11.268  10.144   1.320 -0.4039 -0.2749 -0.0928
  977MOL0     H34772  11.199   9.998   1.259 -1.0292 -1.2232  2.0259
  977MOL0     H34773  11.112  10.088   1.530 -2.5962 -0.7881 -0.8355
  977MOL0     H34774  11.121   9.920   1.464  1.3955 -0.0208 -3.2242
  977MOL0     H34775  11.408   9.859   1.409 -0.2487 -1.8595  1.5932
  977MOL0     H34776  11.695   9.930   1.666  1.2883 -2.9662  0.5086
  977MOL0     H34777  11.680   9.893   1.495  3.2868 -0.4764  0.2246
  977MOL0     H34778  11.565   9.704   1.693 -0.8057  3.0325 -0.2502
  977MOL0     H34779  11.640   9.660   1.535  1.1870 -2.0828  0.3542
  977MOL0     H34780  11.787   9.727   1.798  2.5605 -2.3178  0.2276
  977MOL0     H34781  11.772   9.571   1.724  1.9701  0.0367  2.0237
  977MOL0     H34782  11.913   9.811   1.605  0.6060  0.3817  0.8999
  977MOL0     H34783  11.981   9.685   1.706 -1.2802 -2.1974  0.3816
  977MOL0     H34784  11.997   9.434   1.365 -2.1496  2.7024  1.0905
  977MOL0     H34785  12.223   9.370   1.150  2.4962 -0.8328 -0.0300
  977MOL0     H34786  12.180   9.278   1.298  0.5548 -0.1413  0.9715
  977MOL0     H34787  12.340   9.336   1.279  0.1426 -0.2936  0.7941
  977MOL0     H34788  12.667   9.361   1.199  0.5602 -0.4484  1.1955
  977MOL0     H34789  12.914   9.367   1.170  0.5582  1.7996 -1.5126
  977MOL0     H34790  13.136   9.398   1.164  0.0055 -0.3162  2.2949
  977MOL0     H34791  13.090   9.519   1.061 -0.0048 -1.7120 -0.5956
  977MOL0     H34792  13.338   9.504   1.082 -0.5988 -0.1601  0.2900
  977MOL0     H34793  13.279   9.665   1.126  2.4578  0.5285  0.1395
  977MOL0     H34794  13.292   9.491   1.369  0.7937  1.0774  2.3689
  977MOL0     H34795  13.355   9.656   1.329 -1.6175 -0.4246  1.8470
  977MOL0     H34796  13.555   9.529   1.244  1.4054 -0.0690  1.6665
  977MOL0     H34797  13.462   9.375   1.279  1.1979 -0.0506 -1.3753
  977MOL0     H34798  13.574   9.612   1.457 -0.3146 -0.2532 -0.3155
  977MOL0     H34799  13.462   9.488   1.527 -0.6621 -1.6373 -0.2735
  977MOL0     H34800  13.716   9.447   1.574 -2.7579  1.2768  1.4453
  977MOL0     H34801  13.734   9.410   1.397  1.0742  0.0976  0.6037
  977MOL0     H34802  13.583   9.213   1.421  2.0226  1.2340 -1.2082
  977MOL0     H34803  13.514   9.276   1.564 -0.8958  1.1395 -1.0232
  977MOL0     H34804  13.695   9.115   1.640  0.5098 -0.5085 -1.1507
  977MOL0     H34805  13.785   9.266   1.644  3.0548 -2.1270  1.2236
  977MOL0     H34806  12.943   9.717   1.406  2.5836 -2.8200  0.4145
  977MOL0     H34807  12.691   9.728   1.435  0.5722 -2.3157  2.4516
  977MOL0     H34808  12.311   9.804   1.414  0.0979  0.0687 -1.5211
  977MOL0     H34809  12.098   9.806   1.518 -2.2041 -1.1458 -0.7084
  977MOL0     H34810  10.411  10.557   1.057 -0.0648  1.4087 -0.8182
  977MOL0     H34811  10.183  10.612   1.060  1.6132  1.5787 -1.4644
  977MOL0     H34812   9.801  10.356   0.864  3.5554  2.3983  3.9682
  977MOL0     H34813   9.568  10.305   0.802  1.2014 -1.1044  0.3038
  977MOL0     H34814   9.339  10.455   0.727  2.4463  0.4748  1.6774
  977MOL0     H34815   9.341  10.285   0.775  2.0801  1.4192 -0.0984
  977MOL0     H34816   9.096  10.471   0.822 -0.4901  0.4717  0.0659
  977MOL0     H34817   9.104  10.298   0.841 -2.1030  2.2009  0.6333
  977MOL0     H34818   9.157  10.432   0.561 -2.5304  1.7614  0.7657
  977MOL0     H34819   9.123  10.264   0.598 -0.1065 -1.4395  2.2689
  977MOL0     H34820   8.932  10.497   0.614  1.1806  0.2015  2.2117
  977MOL0     H34821   8.883  10.338   0.652 -0.9311  2.3989 -0.1330
  977MOL0     H34822   8.912  10.310   0.229 -1.7371 -1.5805  1.5011
  977MOL0     H34823   9.430  10.540   1.144  0.2729 -1.0595  0.7855
  977MOL0     H34824   9.678  10.699   1.223 -1.3989  1.8462  1.8856
  977MOL0     H34825   9.552  10.594   1.297  0.7911 -1.6805  0.8816
  977MOL0     H34826   9.718  10.553   1.317 -3.2322 -1.2146  1.9797
  978MOL0     O34827   2.488   4.453   8.831  0.7833 -0.0958 -0.0521
  978MOL0     C34828   2.610   4.447   8.858 -0.4008 -0.4185 -0.2773
  978MOL0     O34829   2.680   4.552   8.923 -0.9711 -0.1579  0.8203
  978MOL0     C34830   2.607   4.652   8.993 -0.0306  0.4016 -0.3398
  978MOL0     C34831   2.506   4.611   9.070  0.1481 -0.1696 -0.2530
  978MOL0     C34832   2.429   4.704   9.136 -0.3647  0.6724  0.2408
  978MOL0     C34833   2.441   4.841   9.111  0.0628  0.3898 -0.0260
  978MOL0     O34834   2.361   4.933   9.173 -0.4394  0.3575 -0.5451
  978MOL0     C34835   2.298   5.023   9.076  0.0196  0.1498 -0.2194
  978MOL0     C34836   2.210   5.121   9.138  0.0120 -0.7023 -0.6349
  978MOL0     C34837   2.152   5.231   9.044  0.4830 -0.6420  0.1273
  978MOL0     C34838   2.269   5.308   8.970 -0.4302  0.6945  0.4417
  978MOL0     C34839   2.218   5.425   8.882  0.3539  0.7128 -0.3356
  978MOL0     C34840   2.307   5.490   8.788 -0.3412 -0.0097 -0.4590
  978MOL0     C34841   2.412   5.570   8.866  0.1946 -0.1549 -0.0780
  978MOL0     C34842   2.481   5.667   8.770 -0.7368  0.7418  0.1285
  978MOL0     N34843   2.584   5.605   8.682 -0.4218 -0.1103 -0.7613
  978MOL0     C34844   2.719   5.575   8.703  0.9725 -0.2528 -0.2745
  978MOL0     C34845   2.772   5.504   8.602  0.4621  0.8136 -0.0662
  978MOL0     C34846   2.912   5.442   8.582  0.9914  0.2164 -0.4981
  978MOL0     C34847   3.017   5.545   8.555 -0.9156 -0.3596 -0.8827
  978MOL0     C34848   3.154   5.495   8.509 -0.3286  0.4873 -0.7456
  978MOL0     C34849   3.249   5.610   8.453  0.1394 -0.1652  0.5052
  978MOL0     O34850   3.178   5.683   8.354  0.6193 -0.3322 -0.0476
  978MOL0     C34851   3.175   5.640   8.221  0.8606 -0.5153  0.0025
  978MOL0     C34852   3.290   5.624   8.149  0.5073  0.4687  0.1120
  978MOL0     C34853   3.280   5.580   8.011 -0.1070 -0.0255  0.0212
  978MOL0     C34854   3.411   5.585   7.932 -0.1939  0.8059 -0.8052
  978MOL0     C34855   3.149   5.553   7.957  0.2738  0.6147  0.7164
  978MOL0     C34856   3.141   5.493   7.822  0.3129  0.0687  0.1364
  978MOL0     O34857   3.024   5.522   7.757 -0.5454  0.5797 -0.1334
  978MOL0     C34858   2.999   5.481   7.626  1.1982  0.6612  0.0077
  978MOL0     C34859   3.017   5.352   7.573  0.6228  0.7924 -0.7752
  978MOL0     C34860   2.988   5.314   7.444  0.1171  0.2866 -0.1990
  978MOL0     C34861   2.918   5.411   7.366  0.8669  0.0423  0.3886
  978MOL0     O34862   2.864   5.386   7.243 -0.2708 -0.0709  0.0748
  978MOL0     C34863   2.856   5.250   7.199  0.4204  0.8382  1.0724
  978MOL0     C34864   2.816   5.233   7.054 -0.9121  0.0445  0.6430
  978MOL0     C34865   2.688   5.317   7.020  0.3727  0.2228 -0.3802
  978MOL0     C34866   2.562   5.231   7.014 -0.0337  0.4035  0.1598
  978MOL0     C34867   2.440   5.294   6.956 -0.2060  0.1064  0.2641
  978MOL0     C34868   2.322   5.213   6.979  0.9441  0.6805  0.1467
  978MOL0     C34869   2.280   5.208   7.127 -0.0713 -0.6129  0.0333
  978MOL0     C34870   2.140   5.153   7.151 -0.1669 -0.6146  0.1710
  978MOL0    Cl34871   2.023   5.244   7.042 -0.2269 -0.4514 -0.5123
  978MOL0     C34872   2.892   5.535   7.420 -0.4111  0.3501  0.0451
  978MOL0     C34873   2.937   5.578   7.548  0.7196  0.1164  0.6164
  978MOL0     O34874   3.228   5.412   7.784  0.1619  0.0037 -0.0667
  978MOL0     C34875   3.028   5.570   8.027  0.4903  0.1976  0.1929
  978MOL0     C34876   3.047   5.626   8.160  1.2670  0.0920 -0.3662
  978MOL0     N34877   2.667   5.499   8.510 -0.9055  0.5132 -0.1511
  978MOL0     N34878   2.557   5.556   8.559 -0.3067 -0.1840 -0.3795
  978MOL0     C34879   2.550   4.879   9.032 -0.3405  0.1620 -0.1481
  978MOL0     C34880   2.627   4.783   8.971 -0.5659  0.4757  0.0423
  978MOL0     C34881   2.694   4.339   8.804  0.7639 -0.8813 -0.4912
  978MOL0     C34882   2.833   4.366   8.798 -0.2395 -0.0662 -0.2863
  978MOL0     C34883   2.921   4.267   8.744  0.3332  0.0666 -0.7292
  978MOL0     C34884   2.870   4.137   8.707 -0.2824 -0.3953 -0.0784
  978MOL0     O34885   2.950   4.043   8.654  0.9210 -0.7490  0.4343
  978MOL0     C34886   3.074   4.067   8.592 -0.5557 -0.1764  0.4232
  978MOL0     C34887   3.067   4.139   8.461 -0.3509  0.2568  0.4880
  978MOL0     C34888   2.957   4.059   8.375 -0.5527 -0.2533  0.0714
  978MOL0     C34889   3.037   3.986   8.258 -1.5704  0.3408 -0.1404
  978MOL0     C34890   2.959   3.889   8.172  0.2625 -1.1100 -0.4217
  978MOL0     C34891   2.885   3.819   8.109 -0.3984  0.6027  0.6190
  978MOL0     C34892   2.735   4.115   8.717  0.5759  0.1950 -0.3636
  978MOL0     C34893   2.641   4.208   8.763 -1.2360  1.1561  0.4375
  978MOL0     C34894   2.494   4.172   8.754 -0.7192  0.4134 -1.3212
  978MOL0     H34895   2.490   4.505   9.091 -0.6514 -0.0154 -0.0346
  978MOL0     H34896   2.359   4.671   9.212  0.2003 -0.3216  0.3403
  978MOL0     H34897   2.239   4.968   9.003 -1.5056  0.9603  0.3508
  978MOL0     H34898   2.379   5.071   9.021  0.7646 -3.4922 -2.6321
  978MOL0     H34899   2.132   5.066   9.190  0.7456 -0.3680  0.8660
  978MOL0     H34900   2.263   5.181   9.213 -1.7974  1.6195 -1.1024
  978MOL0     H34901   2.088   5.172   8.978  1.3159 -2.8321  1.1875
  978MOL0     H34902   2.092   5.305   9.099  0.2337 -0.8110  0.0838
  978MOL0     H34903   2.346   5.345   9.039  0.6678 -0.2699 -0.2288
  978MOL0     H34904   2.320   5.241   8.900 -2.6384  0.1382 -0.7049
  978MOL0     H34905   2.184   5.500   8.954  4.1054  0.0511  2.4413
  978MOL0     H34906   2.129   5.393   8.826 -0.1216 -1.7274  1.6053
  978MOL0     H34907   2.351   5.429   8.708 -1.4220  1.1843 -2.0195
  978MOL0     H34908   2.236   5.551   8.731  0.6274  0.5802 -1.0546
  978MOL0     H34909   2.492   5.510   8.912 -0.0078 -1.7018 -1.6304
  978MOL0     H34910   2.355   5.622   8.943 -2.7285 -0.6822 -1.7555
  978MOL0     H34911   2.414   5.722   8.704  1.1042  1.4759 -1.2185
  978MOL0     H34912   2.537   5.738   8.831  0.2032 -1.5045  2.0792
  978MOL0     H34913   2.769   5.605   8.795  1.6937  1.5341 -1.2082
  978MOL0     H34914   2.907   5.383   8.490 -1.1435 -3.7547  1.8985
  978MOL0     H34915   2.941   5.364   8.654 -0.8088 -0.0379 -0.0057
  978MOL0     H34916   2.974   5.607   8.477 -1.1822 -1.3862 -1.5765
  978MOL0     H34917   3.018   5.611   8.642 -1.6330 -1.7874  0.2733
  978MOL0     H34918   3.206   5.440   8.588 -2.3728 -1.2074 -0.4929
  978MOL0     H34919   3.142   5.423   8.429  1.8342  1.2460 -1.8372
  978MOL0     H34920   3.272   5.679   8.534  5.9704 -1.5035  0.3772
  978MOL0     H34921   3.338   5.560   8.414 -0.9652 -1.7585 -0.0573
  978MOL0     H34922   3.390   5.643   8.188 -0.0317 -0.8457  2.3317
  978MOL0     H34923   3.459   5.487   7.930  1.3255  1.5067 -0.4321
  978MOL0     H34924   3.477   5.656   7.984 -1.0742  1.2834 -0.3170
  978MOL0     H34925   3.396   5.613   7.828 -0.4111  0.5861 -0.8319
  978MOL0     H34926   3.069   5.284   7.639 -1.3298 -2.2901 -2.1877
  978MOL0     H34927   3.017   5.216   7.407 -0.3310 -1.0920  2.7868
  978MOL0     H34928   2.951   5.197   7.209 -0.1160 -0.4883 -0.4115
  978MOL0     H34929   2.778   5.195   7.253  0.9487 -0.1974  0.8009
  978MOL0     H34930   2.897   5.253   6.984  0.2549  2.0743  2.4837
  978MOL0     H34931   2.783   5.128   7.045 -2.0811  0.3730  0.8892
  978MOL0     H34932   2.720   5.366   6.928  2.5437  0.9432  0.7079
  978MOL0     H34933   2.671   5.403   7.084  2.3254  0.0212  0.4572
  978MOL0     H34934   2.544   5.193   7.115 -2.2887 -1.8644 -1.0081
  978MOL0     H34935   2.571   5.137   6.959 -0.1631  1.4381 -1.7114
  978MOL0     H34936   2.414   5.393   6.994  0.8682  0.1776  0.8573
  978MOL0     H34937   2.451   5.304   6.848 -1.2099 -2.8924 -0.2264
  978MOL0     H34938   2.340   5.109   6.951 -1.5003 -0.7260  3.1538
  978MOL0     H34939   2.241   5.255   6.918 -0.2854  0.9055  1.8631
  978MOL0     H34940   2.270   5.313   7.158  0.5038 -0.8763  1.1686
  978MOL0     H34941   2.353   5.156   7.190 -0.6688  1.5708  2.7356
  978MOL0     H34942   2.109   5.178   7.253 -1.3125 -0.2619 -0.2457
  978MOL0     H34943   2.135   5.043   7.152 -0.8145 -0.5991  1.8965
  978MOL0     H34944   2.827   5.586   7.349 -0.1625  0.4508 -0.1128
  978MOL0     H34945   2.913   5.675   7.590 -3.6138 -0.8999  1.0361
  978MOL0     H34946   2.931   5.551   7.983  0.9316  1.2277 -1.3037
  978MOL0     H34947   2.959   5.648   8.220 -0.3168 -1.3548 -2.0522
  978MOL0     H34948   2.588   4.979   9.011  1.1263 -0.0096  1.4378
  978MOL0     H34949   2.717   4.801   8.912 -0.1402 -1.5990 -0.0069
  978MOL0     H34950   2.877   4.459   8.832 -0.8785 -0.2034  0.9570
  978MOL0     H34951   3.026   4.295   8.743  0.2413  0.4086 -0.8883
  978MOL0     H34952   3.148   4.117   8.655 -0.9663  0.0404  0.7353
  978MOL0     H34953   3.106   3.963   8.579 -1.2718 -0.8719  3.5127
  978MOL0     H34954   3.164   4.139   8.409 -1.2462 -3.2350 -1.4715
  978MOL0     H34955   3.035   4.243   8.471  0.2843  0.3694  1.4787
  978MOL0     H34956   2.899   3.981   8.426  0.4763 -0.5189  0.8530
  978MOL0     H34957   2.893   4.139   8.334 -1.4559 -1.0981 -0.2135
  978MOL0     H34958   3.119   3.927   8.299 -1.3288  0.2822 -0.6960
  978MOL0     H34959   3.075   4.057   8.184 -2.6406  0.1811 -0.8644
  978MOL0     H34960   2.823   3.767   8.039 -2.4980  2.3333  1.0783
  978MOL0     H34961   2.700   4.017   8.684 -0.1540  0.5976 -0.8085
  978MOL0     H34962   2.496   4.075   8.703  1.4812  0.5009 -1.4995
  978MOL0     H34963   2.458   4.167   8.857  0.4913  0.6089 -0.8703
  978MOL0     H34964   2.437   4.248   8.700 -0.6427 -0.0069 -1.9985
  979MOL0     O34965   9.219   6.757   5.134  0.2970 -0.2268 -0.1763
  979MOL0     C34966   9.138   6.713   5.209 -0.0312  0.6935 -0.1942
  979MOL0     O34967   9.011   6.684   5.175 -0.0355  0.1931  0.3450
  979MOL0     C34968   8.984   6.655   5.041 -0.2928  0.8365 -0.9725
  979MOL0     C34969   9.040   6.547   4.974  0.1705  0.1288 -0.7115
  979MOL0     C34970   9.013   6.525   4.839  0.7163 -0.0744  0.4419
  979MOL0     C34971   8.936   6.615   4.770  0.3103  1.1172  1.0079
  979MOL0     O34972   8.917   6.598   4.630  0.5104  0.6965 -0.1941
  979MOL0     C34973   8.846   6.699   4.556  0.2590 -0.7989  0.1592
  979MOL0     C34974   8.822   6.657   4.409 -0.1815  0.1896  0.4114
  979MOL0     C34975   8.712   6.752   4.340  0.8129 -0.2135 -0.3037
  979MOL0     C34976   8.699   6.710   4.196  0.6328  0.3122 -0.5745
  979MOL0     C34977   8.595   6.794   4.126  0.2409 -0.2030 -0.2029
  979MOL0     C34978   8.538   6.718   4.004  1.0230 -0.4061  0.4796
  979MOL0     C34979   8.412   6.762   3.931 -0.7744 -0.1349  0.8022
  979MOL0     C34980   8.417   6.918   3.901  0.3012 -0.0264  0.1112
  979MOL0     N34981   8.281   6.959   3.856  0.3434  0.0205  0.4130
  979MOL0     C34982   8.174   6.959   3.941  0.1522  0.7518 -0.7375
  979MOL0     C34983   8.074   7.000   3.863  0.1124 -0.1156 -0.3924
  979MOL0     C34984   7.926   7.016   3.894 -0.3978  0.5751 -0.7409
  979MOL0     C34985   7.880   7.018   4.037  0.3958  0.4708  0.3912
  979MOL0     C34986   7.749   7.093   4.039  0.5901 -0.2620  0.2739
  979MOL0     C34987   7.638   7.005   3.975  0.1618 -0.1013  0.2474
  979MOL0     O34988   7.520   7.047   4.048  0.6733 -0.0423  0.0477
  979MOL0     C34989   7.401   6.983   4.020 -0.4284  0.0982  1.6415
  979MOL0     C34990   7.284   7.042   4.082  0.0663  0.2027  0.5944
  979MOL0     C34991   7.157   6.986   4.062 -0.2515  0.0887  0.5418
  979MOL0     C34992   7.054   7.057   4.151  0.1658  0.0670  0.5033
  979MOL0     C34993   7.137   6.879   3.970  0.2796 -0.7914 -0.2900
  979MOL0     C34994   7.003   6.814   3.931 -0.1959  0.2099 -0.0547
  979MOL0     O34995   7.011   6.702   3.857  0.1671  0.0915  0.4339
  979MOL0     C34996   6.896   6.668   3.783 -0.3953  0.5862  0.3503
  979MOL0     C34997   6.804   6.749   3.704  0.4952 -0.0135  0.1332
  979MOL0     C34998   6.703   6.694   3.633  0.4615  0.4612  0.3586
  979MOL0     C34999   6.675   6.557   3.639 -0.3881 -0.1989 -0.7112
  979MOL0     O35000   6.556   6.516   3.575  0.5750 -0.3639  0.0991
  979MOL0     C35001   6.515   6.387   3.603 -0.5143 -0.1878 -0.7063
  979MOL0     C35002   6.386   6.369   3.536  0.3978  0.4254 -0.3370
  979MOL0     C35003   6.328   6.223   3.567  1.1755 -0.1037 -0.0166
  979MOL0     C35004   6.190   6.212   3.503  0.1474 -0.1108 -0.2582
  979MOL0     C35005   6.133   6.071   3.511 -0.1072  1.1073  0.8122
  979MOL0     C35006   5.987   6.067   3.466  0.4378  0.2857  0.0815
  979MOL0     C35007   5.926   5.927   3.488  0.4047  0.9239  0.1398
  979MOL0     C35008   5.987   5.820   3.395 -0.3517  0.1869  0.4298
  979MOL0    Cl35009   5.919   5.831   3.226  0.1346 -0.2853 -0.3290
  979MOL0     C35010   6.772   6.474   3.711 -0.0855 -0.3902  0.0438
  979MOL0     C35011   6.878   6.533   3.776 -0.0298 -0.2761 -0.5445
  979MOL0     O35012   6.899   6.858   3.986 -0.2444  0.1541  0.5009
  979MOL0     C35013   7.259   6.829   3.919  0.8571  0.4472  0.6646
  979MOL0     C35014   7.387   6.872   3.931  0.7629  1.0678  0.3229
  979MOL0     N35015   8.116   7.034   3.740 -0.3597  0.1782 -0.3066
  979MOL0     N35016   8.249   7.017   3.737 -0.2617 -0.5093 -0.3193
  979MOL0     C35017   8.867   6.718   4.838  0.0305  0.5091 -0.9932
  979MOL0     C35018   8.892   6.740   4.974  0.3291 -0.4455  0.6936
  979MOL0     C35019   9.168   6.673   5.344 -0.7417  0.4617 -1.2817
  979MOL0     C35020   9.067   6.612   5.422 -0.0144  0.0662 -0.3506
  979MOL0     C35021   9.090   6.558   5.546 -0.8724 -0.2262  0.4279
  979MOL0     C35022   9.216   6.568   5.610  0.1398 -0.0658 -0.5015
  979MOL0     O35023   9.239   6.510   5.732  0.0447  1.1389  0.1946
  979MOL0     C35024   9.158   6.396   5.771 -0.1886  0.1965  0.4871
  979MOL0     C35025   9.222   6.303   5.878  0.1226 -0.0111 -0.4559
  979MOL0     C35026   9.345   6.225   5.834  0.5514 -0.0057  0.1923
  979MOL0     C35027   9.362   6.102   5.920  0.2085  0.0415 -0.2426
  979MOL0     C35028   9.253   6.008   5.892  0.7099  0.2543 -0.0019
  979MOL0     C35029   9.168   5.927   5.865  1.1513  0.3417  0.3105
  979MOL0     C35030   9.312   6.633   5.541  0.2865 -0.8581  0.3181
  979MOL0     C35031   9.297   6.686   5.408  0.3734 -0.2552  0.0006
  979MOL0     C35032   9.415   6.747   5.351  0.1779  0.0085 -0.1008
  979MOL0     H35033   9.110   6.482   5.026  1.2443 -0.1091 -2.3906
  979MOL0     H35034   9.052   6.439   4.786 -1.0497 -1.1378  0.7956
  979MOL0     H35035   8.906   6.790   4.552  1.5746 -1.4366  3.0499
  979MOL0     H35036   8.750   6.719   4.604  0.3221  2.9702 -0.9574
  979MOL0     H35037   8.916   6.666   4.354 -0.2002 -0.4310  0.2734
  979MOL0     H35038   8.797   6.551   4.408 -0.9194  0.3179  1.9767
  979MOL0     H35039   8.614   6.727   4.382  0.3465 -2.0930 -2.3416
  979MOL0     H35040   8.732   6.859   4.334 -0.1976 -0.0268 -0.5088
  979MOL0     H35041   8.797   6.703   4.148  0.3521  0.5338 -1.1958
  979MOL0     H35042   8.668   6.605   4.189 -1.6613  0.9004 -0.2485
  979MOL0     H35043   8.634   6.890   4.091 -1.2666 -0.4426 -2.7415
  979MOL0     H35044   8.519   6.808   4.203 -1.1848 -3.4954 -0.8518
  979MOL0     H35045   8.617   6.716   3.928 -1.0349  2.1030 -1.9389
  979MOL0     H35046   8.507   6.620   4.040  0.0744  0.2486  1.5067
  979MOL0     H35047   8.333   6.738   4.003 -2.9950  1.6940 -0.8638
  979MOL0     H35048   8.411   6.698   3.842 -0.4544  0.1777  0.5644
  979MOL0     H35049   8.456   6.965   3.991  1.7968 -1.5631  0.3260
  979MOL0     H35050   8.479   6.929   3.811 -0.2110  0.6379 -0.1661
  979MOL0     H35051   8.173   6.936   4.047 -1.3516  0.5341 -0.7800
  979MOL0     H35052   7.868   6.939   3.841 -1.1794  0.8403 -0.2838
  979MOL0     H35053   7.893   7.110   3.849 -3.2837  1.2220  2.3610
  979MOL0     H35054   7.866   6.917   4.078 -1.0344  0.2353 -0.6167
  979MOL0     H35055   7.939   7.076   4.108 -3.8203  0.7726  4.0838
  979MOL0     H35056   7.723   7.124   4.140 -2.1566  0.6792 -0.6142
  979MOL0     H35057   7.752   7.187   3.983  2.3669  1.2636  2.7345
  979MOL0     H35058   7.630   7.021   3.867  2.1032  0.0399  0.0820
  979MOL0     H35059   7.658   6.898   3.981  0.7003 -0.5660 -5.0237
  979MOL0     H35060   7.298   7.137   4.132 -0.4084  2.0497 -2.4637
  979MOL0     H35061   7.095   7.148   4.197 -0.8941  0.9487 -0.2396
  979MOL0     H35062   7.018   6.994   4.233  1.4858  1.7712  2.4905
  979MOL0     H35063   6.970   7.087   4.086  0.2412  1.3568  0.9670
  979MOL0     H35064   6.825   6.855   3.701 -2.3157  0.6136 -0.1240
  979MOL0     H35065   6.642   6.768   3.583  0.7299  0.4215 -0.0265
  979MOL0     H35066   6.589   6.316   3.563  2.2546  0.9976  1.8998
  979MOL0     H35067   6.508   6.365   3.710 -0.2280 -0.8990 -0.8250
  979MOL0     H35068   6.319   6.451   3.564 -0.8439 -0.8220  0.4386
  979MOL0     H35069   6.401   6.369   3.427 -0.4529 -0.0243 -0.4606
  979MOL0     H35070   6.329   6.203   3.675  0.7936  0.7831  0.1589
  979MOL0     H35071   6.386   6.141   3.524  1.7197  0.7855 -1.0030
  979MOL0     H35072   6.194   6.245   3.399 -3.0160  1.9937  0.1262
  979MOL0     H35073   6.125   6.284   3.554  2.2666  0.4733  1.7898
  979MOL0     H35074   6.197   6.003   3.454 -1.0622  1.0282 -0.2260
  979MOL0     H35075   6.135   6.033   3.613 -1.3269 -1.8589 -0.1304
  979MOL0     H35076   5.978   6.091   3.360 -0.9010  0.1982  0.1518
  979MOL0     H35077   5.934   6.138   3.531  1.4909  0.3415  0.8965
  979MOL0     H35078   5.820   5.922   3.462  0.4038 -2.0850  0.3040
  979MOL0     H35079   5.935   5.896   3.593 -1.1747  1.6131  0.5080
  979MOL0     H35080   5.955   5.721   3.428  0.6450 -0.5304 -0.6936
  979MOL0     H35081   6.095   5.835   3.387 -0.3921 -0.0777 -0.7659
  979MOL0     H35082   6.760   6.367   3.720  2.5211 -0.8463 -1.0244
  979MOL0     H35083   6.936   6.467   3.841  0.2663 -0.0811 -0.6089
  979MOL0     H35084   7.252   6.728   3.881  1.3802  0.4750  0.4983
  979MOL0     H35085   7.462   6.808   3.885  2.8216  2.7627  1.1237
  979MOL0     H35086   8.791   6.777   4.789 -3.0738 -1.6700  0.8416
  979MOL0     H35087   8.847   6.821   5.030  1.2294  0.0902  0.6640
  979MOL0     H35088   8.966   6.590   5.389 -2.2131  4.0222  2.7586
  979MOL0     H35089   9.010   6.512   5.603  0.5575  0.0516  2.8105
  979MOL0     H35090   9.062   6.424   5.815  1.4017 -0.9761  5.3186
  979MOL0     H35091   9.141   6.333   5.684  1.4943 -1.4830  1.3085
  979MOL0     H35092   9.145   6.238   5.921 -1.9602  2.4836 -0.1744
  979MOL0     H35093   9.252   6.369   5.959 -1.1173  0.4147 -0.3267
  979MOL0     H35094   9.327   6.201   5.728  0.5142  0.9621 -0.0293
  979MOL0     H35095   9.435   6.287   5.840  0.7933 -0.1853 -1.1557
  979MOL0     H35096   9.371   6.128   6.026  0.9259  1.5609 -0.6428
  979MOL0     H35097   9.452   6.045   5.899 -0.6053 -1.0988 -0.7174
  979MOL0     H35098   9.112   5.840   5.841  2.7241 -0.7082  0.2856
  979MOL0     H35099   9.409   6.619   5.588 -0.0687  4.0550  3.1658
  979MOL0     H35100   9.428   6.723   5.244  3.8059 -1.6889  0.5503
  979MOL0     H35101   9.395   6.853   5.369 -0.4442 -0.1380  0.0635
  979MOL0     H35102   9.510   6.715   5.395  0.6182  1.4562  0.0362
  980MOL0     O35103   5.976   9.836  11.279  0.0868 -0.5350  0.4406
  980MOL0     C35104   5.924   9.833  11.167 -0.5330  0.3981  0.1045
  980MOL0     O35105   5.987   9.823  11.044 -0.5359 -0.5717 -0.0420
  980MOL0     C35106   6.115   9.773  11.044 -0.8141 -0.0998 -0.3625
  980MOL0     C35107   6.138   9.639  11.049 -0.4937  0.3596 -0.1226
  980MOL0     C35108   6.278   9.604  11.060  0.2359  0.0925  0.3208
  980MOL0     C35109   6.388   9.695  11.044  0.2614 -0.1824 -0.0066
  980MOL0     O35110   6.516   9.644  11.037 -0.2064 -0.3090 -0.1756
  980MOL0     C35111   6.614   9.744  10.996 -0.7783  0.0134 -1.1325
  980MOL0     C35112   6.751   9.679  10.973 -0.2350  0.0038 -0.2619
  980MOL0     C35113   6.792   9.591  11.095 -0.3401  0.1266 -0.1485
  980MOL0     C35114   6.943   9.580  11.121  0.3699  0.4961 -0.5512
  980MOL0     C35115   6.965   9.494  11.249  0.4757  0.5006 -0.3429
  980MOL0     C35116   6.920   9.344  11.228 -0.7513  0.4814 -0.2406
  980MOL0     C35117   6.948   9.269  11.350  0.4755  0.5728 -0.2395
  980MOL0     C35118   6.861   9.299  11.465  0.4307 -0.8148  1.0535
  980MOL0     N35119   6.722   9.261  11.439 -0.3878  0.2009 -0.8730
  980MOL0     C35120   6.630   9.341  11.377  0.0240 -0.4459 -0.4349
  980MOL0     C35121   6.515   9.280  11.382  0.3873  0.1319 -0.6428
  980MOL0     C35122   6.383   9.343  11.357  0.7583  0.2354 -0.6649
  980MOL0     C35123   6.325   9.386  11.493 -0.4574  0.0466  0.8338
  980MOL0     C35124   6.274   9.531  11.503  0.2104 -0.2588  0.2132
  980MOL0     C35125   6.369   9.648  11.459 -0.0333  0.7229 -0.0111
  980MOL0     O35126   6.483   9.656  11.551 -0.1229  0.2163 -0.4197
  980MOL0     C35127   6.588   9.730  11.510  0.1489  0.0304  0.5341
  980MOL0     C35128   6.712   9.693  11.562  1.3962 -0.1517 -0.2141
  980MOL0     C35129   6.832   9.749  11.524 -0.2370 -0.3539 -0.8263
  980MOL0     C35130   6.958   9.694  11.593 -0.1796 -1.1424 -0.4933
  980MOL0     C35131   6.830   9.842  11.415 -0.5714  0.3990  0.2175
  980MOL0     C35132   6.961   9.903  11.360 -0.3647 -0.5977 -0.7362
  980MOL0     O35133   6.951   9.975  11.241 -0.3492  0.1212 -1.1409
  980MOL0     C35134   7.066  10.042  11.188  0.2486 -0.2876 -0.0679
  980MOL0     C35135   7.186   9.972  11.157  0.6077 -0.2300  0.1373
  980MOL0     C35136   7.308  10.039  11.117 -0.2000  0.3668 -0.3265
  980MOL0     C35137   7.302  10.179  11.107 -0.0426 -0.4562  0.0212
  980MOL0     O35138   7.417  10.240  11.076 -0.2605  0.7450  0.0028
  980MOL0     C35139   7.434  10.373  11.097 -0.4785 -0.4449 -0.0912
  980MOL0     C35140   7.588  10.411  11.084 -0.1000  0.1651  0.6488
  980MOL0     C35141   7.648  10.394  10.939 -0.6988  0.0478  0.5368
  980MOL0     C35142   7.680  10.245  10.906  0.4349 -0.3630  0.4466
  980MOL0     C35143   7.815  10.207  10.970  0.0175 -0.4513 -0.4006
  980MOL0     C35144   7.923  10.267  10.878  0.2319  0.6010 -0.8001
  980MOL0     C35145   8.064  10.216  10.925 -0.0806 -0.7068  0.9885
  980MOL0     C35146   8.169  10.235  10.813 -0.4837 -0.3538  0.0786
  980MOL0    Cl35147   8.325  10.210  10.885  0.1482 -0.0597  0.0290
  980MOL0     C35148   7.177  10.246  11.125 -0.5007  0.5905  0.1942
  980MOL0     C35149   7.064  10.179  11.172  0.7767  0.9129 -0.1829
  980MOL0     O35150   7.065   9.907  11.425  0.6873 -0.3144  0.2884
  980MOL0     C35151   6.705   9.880  11.362  0.0432 -0.3051  0.0245
  980MOL0     C35152   6.585   9.825  11.408  0.6107  0.1011 -0.3270
  980MOL0     N35153   6.545   9.153  11.441  0.2529  0.9216 -0.2028
  980MOL0     N35154   6.667   9.144  11.497  0.3038 -0.3378 -0.4725
  980MOL0     C35155   6.350   9.828  11.046  0.0144 -0.7293  0.3099
  980MOL0     C35156   6.215   9.864  11.043 -0.9153  0.0002  0.5294
  980MOL0     C35157   5.778   9.834  11.153  0.3288 -0.1585 -1.0694
  980MOL0     C35158   5.722   9.866  11.027  0.5273 -0.1919 -0.0358
  980MOL0     C35159   5.584   9.881  11.006  0.5419  0.2401 -0.2653
  980MOL0     C35160   5.496   9.853  11.115  0.0821  0.5056 -0.6858
  980MOL0     O35161   5.356   9.837  11.099  0.6323 -0.6413 -0.6312
  980MOL0     C35162   5.300   9.880  10.978 -0.8329 -0.2665 -1.1035
  980MOL0     C35163   5.157   9.822  10.967  0.9921 -0.7033 -0.3621
  980MOL0     C35164   5.058   9.912  11.037 -0.6323  0.5413  0.2587
  980MOL0     C35165   5.037  10.061  11.009 -0.3131 -0.2802 -0.0410
  980MOL0     C35166   4.904  10.107  11.043  0.0734 -0.0877  0.4538
  980MOL0     C35167   4.794  10.145  11.079  0.2242 -0.6876  0.3665
  980MOL0     C35168   5.545   9.806  11.238 -0.3713  0.4438  0.7294
  980MOL0     C35169   5.684   9.791  11.260 -0.0631 -0.9226  0.2059
  980MOL0     C35170   5.731   9.744  11.391  0.6331 -0.3115 -0.6087
  980MOL0     H35171   6.061   9.563  11.051 -0.0435 -0.1860 -1.9798
  980MOL0     H35172   6.306   9.499  11.063 -0.3746 -0.1032  3.8078
  980MOL0     H35173   6.623   9.818  11.076 -2.6444 -0.3780 -0.5097
  980MOL0     H35174   6.586   9.807  10.911 -2.7744  0.4880 -0.1715
  980MOL0     H35175   6.743   9.624  10.879 -1.0910 -0.7944  0.2622
  980MOL0     H35176   6.836   9.748  10.965  2.9228 -3.1538  2.7763
  980MOL0     H35177   6.740   9.639  11.178  1.3039  2.1142 -0.1838
  980MOL0     H35178   6.754   9.489  11.083 -1.2781 -0.0808  3.5403
  980MOL0     H35179   6.983   9.531  11.032  0.5577 -0.7876  0.2166
  980MOL0     H35180   6.978   9.684  11.125 -2.6178  1.7664 -2.6967
  980MOL0     H35181   6.912   9.550  11.326 -1.3280 -0.4213 -0.8526
  980MOL0     H35182   7.072   9.499  11.272  0.9912 -0.7186 -2.2502
  980MOL0     H35183   6.813   9.330  11.209 -0.5142 -2.2208  0.0544
  980MOL0     H35184   6.966   9.299  11.139 -1.1052  0.6390 -0.5083
  980MOL0     H35185   7.048   9.281  11.392  0.5040  1.9723 -0.6416
  980MOL0     H35186   6.948   9.162  11.327  0.3916  0.6129 -0.4271
  980MOL0     H35187   6.896   9.240  11.550 -0.6632 -4.7692 -0.9825
  980MOL0     H35188   6.866   9.406  11.484 -0.6698 -0.9962  2.6424
  980MOL0     H35189   6.648   9.446  11.354 -2.2713  0.7427  2.5562
  980MOL0     H35190   6.320   9.274  11.300  0.3582 -0.6529  0.7771
  980MOL0     H35191   6.407   9.428  11.294 -0.9297  0.9564 -0.4085
  980MOL0     H35192   6.240   9.323  11.520 -0.1553 -0.0903  1.4653
  980MOL0     H35193   6.397   9.376  11.575 -0.9343 -0.3005  1.2132
  980MOL0     H35194   6.182   9.544  11.446 -1.1389  0.4773  2.4048
  980MOL0     H35195   6.243   9.545  11.607 -0.1033 -1.9859  0.3922
  980MOL0     H35196   6.411   9.629  11.360 -0.4061  1.9517 -0.4267
  980MOL0     H35197   6.309   9.738  11.447 -1.2435 -0.0900 -0.2410
  980MOL0     H35198   6.693   9.616  11.637 -0.0760  0.8149  0.4596
  980MOL0     H35199   7.026   9.680  11.509  1.1988  2.1207 -0.0843
  980MOL0     H35200   6.947   9.598  11.644  1.2102 -0.5449  1.0391
  980MOL0     H35201   6.979   9.766  11.673 -2.9893 -0.3026 -0.4276
  980MOL0     H35202   7.186   9.865  11.175 -0.3610 -0.8373 -2.7730
  980MOL0     H35203   7.401   9.987  11.098 -0.6889 -0.8807  0.5718
  980MOL0     H35204   7.372  10.435  11.031  2.0668  1.2869 -1.0260
  980MOL0     H35205   7.428  10.388  11.205  1.2815  2.9315 -0.2980
  980MOL0     H35206   7.607  10.516  11.106  0.5463  0.4854 -1.2917
  980MOL0     H35207   7.652  10.354  11.152 -0.3458 -0.4557  0.3700
  980MOL0     H35208   7.743  10.447  10.934 -0.0502 -1.1711 -0.8961
  980MOL0     H35209   7.581  10.417  10.856 -2.0776 -2.2382  0.9274
  980MOL0     H35210   7.692  10.235  10.798 -0.0413  0.7845  0.2665
  980MOL0     H35211   7.597  10.178  10.928 -1.9550  1.3768 -2.4959
  980MOL0     H35212   7.825  10.266  11.062 -0.7196  0.5430 -0.9387
  980MOL0     H35213   7.814  10.101  10.997  0.5096 -0.1598  0.8336
  980MOL0     H35214   7.921  10.376  10.872  0.4773  0.9192  2.7794
  980MOL0     H35215   7.900  10.224  10.780  2.6391 -1.4763 -0.5578
  980MOL0     H35216   8.065  10.110  10.955 -1.4368 -0.7508  0.9067
  980MOL0     H35217   8.094  10.275  11.012 -1.6908 -1.2808  1.9802
  980MOL0     H35218   8.170  10.342  10.789  1.0532 -0.1532  0.9423
  980MOL0     H35219   8.138  10.165  10.735 -0.3894 -2.5698  1.9512
  980MOL0     H35220   7.177  10.350  11.094 -3.3191  1.2030  1.9025
  980MOL0     H35221   6.969  10.226  11.197  0.0383  0.0803 -1.3546
  980MOL0     H35222   6.723   9.959  11.290  0.7973  0.4672  1.0329
  980MOL0     H35223   6.500   9.853  11.347  1.4213  0.0119 -1.5303
  980MOL0     H35224   6.421   9.910  11.040  0.1065 -0.9136 -1.9564
  980MOL0     H35225   6.198   9.968  11.016  2.6805  0.0793 -2.1800
  980MOL0     H35226   5.787   9.890  10.944  2.3919  0.0896  1.4222
  980MOL0     H35227   5.552   9.903  10.905 -0.1511 -2.2986 -0.6746
  980MOL0     H35228   5.296   9.989  10.983 -2.0428 -0.3422  0.7684
  980MOL0     H35229   5.360   9.843  10.895  2.1162 -3.3520  2.0805
  980MOL0     H35230   5.143   9.720  11.003 -2.0452  0.3923  2.1259
  980MOL0     H35231   5.124   9.815  10.863 -1.6108 -1.4006  0.4275
  980MOL0     H35232   4.960   9.867  11.017  1.5325 -3.4684 -2.8392
  980MOL0     H35233   5.084   9.906  11.143  0.1572 -0.4507  0.0269
  980MOL0     H35234   5.066  10.096  10.909  0.3853 -0.3100  0.1411
  980MOL0     H35235   5.114  10.122  11.059 -0.4200 -0.1369 -0.0485
  980MOL0     H35236   4.707  10.190  11.124  0.7894  2.5236 -1.4212
  980MOL0     H35237   5.481   9.773  11.319 -3.1474  0.2066 -1.4146
  980MOL0     H35238   5.765   9.829  11.451  3.7077 -1.2363 -0.8799
  980MOL0     H35239   5.648   9.704  11.450 -0.8472  0.4840 -2.0764
  980MOL0     H35240   5.808   9.669  11.370  0.3924 -0.9355  0.6502
  981MOL0     O35241  11.449   7.731   2.164  0.6082  0.3788  0.3745
  981MOL0     C35242  11.532   7.824   2.148  0.0293 -0.0917  0.9533
  981MOL0     O35243  11.520   7.948   2.194 -0.2313  0.8254  0.0499
  981MOL0     C35244  11.415   7.978   2.272  0.6322  0.3727 -0.0351
  981MOL0     C35245  11.291   8.007   2.210  0.2285 -1.0494  0.2961
  981MOL0     C35246  11.184   8.050   2.283  0.1354 -0.5350  0.5886
  981MOL0     C35247  11.198   8.064   2.422 -0.1412 -0.6656 -0.0605
  981MOL0     O35248  11.100   8.102   2.511  0.0078  0.8858  0.3779
  981MOL0     C35249  10.969   8.170   2.481 -0.7215 -0.1295 -0.3583
  981MOL0     C35250  11.004   8.310   2.443 -0.2353 -0.3430  0.7224
  981MOL0     C35251  10.873   8.392   2.411 -0.7312  0.0815  0.0956
  981MOL0     C35252  10.818   8.452   2.546 -0.7769 -0.2543  0.1309
  981MOL0     C35253  10.670   8.474   2.543  0.4680 -0.5615 -0.2949
  981MOL0     C35254  10.615   8.529   2.677 -0.0670  0.2532  0.0894
  981MOL0     C35255  10.467   8.574   2.662  0.1462  0.1689  0.0864
  981MOL0     C35256  10.421   8.589   2.807  0.3005  0.2266  0.7757
  981MOL0     N35257  10.274   8.604   2.819  0.0877 -0.7231  0.6842
  981MOL0     C35258  10.209   8.724   2.833  0.2342 -0.4769 -0.6678
  981MOL0     C35259  10.079   8.693   2.808 -0.0793 -0.9046  0.2410
  981MOL0     C35260   9.974   8.793   2.829 -0.0072  0.3927  0.1100
  981MOL0     C35261   9.848   8.759   2.754  0.1080 -0.3948 -0.3895
  981MOL0     C35262   9.723   8.818   2.821 -0.1124  0.2542 -0.1493
  981MOL0     C35263   9.599   8.789   2.738 -0.1885  0.2904  0.2556
  981MOL0     O35264   9.495   8.863   2.793  0.4249 -0.3041  0.4347
  981MOL0     C35265   9.373   8.876   2.729  0.2267  1.0168 -0.5917
  981MOL0     C35266   9.277   8.965   2.780 -0.9293  0.4068 -0.6075
  981MOL0     C35267   9.159   8.991   2.706 -0.2562 -0.0453 -0.5475
  981MOL0     C35268   9.071   9.101   2.746 -1.2017 -0.4211 -0.9656
  981MOL0     C35269   9.127   8.913   2.584 -0.1106 -0.8045  0.8525
  981MOL0     C35270   9.006   8.936   2.500 -0.3415  0.4286  0.1913
  981MOL0     O35271   8.964   8.824   2.432 -0.0737  0.2449  0.4162
  981MOL0     C35272   8.862   8.819   2.342  0.2238  0.2932 -0.3355
  981MOL0     C35273   8.885   8.736   2.235  0.3085  0.2220  0.2224
  981MOL0     C35274   8.797   8.725   2.129  0.1162  1.2168 -0.4585
  981MOL0     C35275   8.672   8.791   2.134 -1.0014  0.1345  1.0401
  981MOL0     O35276   8.600   8.795   2.013 -0.6689 -0.0840 -0.6179
  981MOL0     C35277   8.470   8.860   2.010  0.5772 -0.0959  0.0037
  981MOL0     C35278   8.370   8.772   2.090  0.2614 -0.2078  0.4889
  981MOL0     C35279   8.315   8.651   2.004 -0.0602 -0.2491 -1.0792
  981MOL0     C35280   8.184   8.581   2.056  0.4002  0.2975  0.0578
  981MOL0     C35281   8.068   8.681   2.051 -0.1668 -0.3393 -0.1987
  981MOL0     C35282   7.929   8.620   2.073  0.2541 -0.1726  0.2595
  981MOL0     C35283   7.814   8.723   2.063 -0.6149 -0.4016 -0.3086
  981MOL0     C35284   7.677   8.673   2.115 -0.1103 -0.0006 -0.0478
  981MOL0    Cl35285   7.601   8.553   2.007 -0.5653  0.1014  0.1033
  981MOL0     C35286   8.645   8.866   2.248  0.9914 -0.2684 -0.0143
  981MOL0     C35287   8.734   8.876   2.355  0.1280  0.1891  1.2127
  981MOL0     O35288   8.962   9.050   2.484  0.2884 -0.4083  0.0734
  981MOL0     C35289   9.224   8.819   2.548  0.3541  0.8083 -0.7032
  981MOL0     C35290   9.344   8.796   2.618  0.8476  0.5354  0.4264
  981MOL0     N35291  10.068   8.562   2.793 -0.1274  0.1013 -0.0284
  981MOL0     N35292  10.180   8.506   2.817  1.2060  0.2287 -0.3559
  981MOL0     C35293  11.324   8.046   2.487 -0.8394 -0.0825  0.2249
  981MOL0     C35294  11.437   8.006   2.408 -0.2793  0.0835 -0.2976
  981MOL0     C35295  11.646   7.780   2.073 -0.5522  0.2871  0.3306
  981MOL0     C35296  11.650   7.837   1.943  0.5005  0.4618 -0.5147
  981MOL0     C35297  11.741   7.788   1.849 -0.4032 -0.3907  0.5262
  981MOL0     C35298  11.832   7.690   1.889 -0.5630 -0.0199 -0.1485
  981MOL0     O35299  11.929   7.642   1.797  0.0021  0.5144  0.0258
  981MOL0     C35300  12.026   7.544   1.842 -0.0876  0.6376  0.3178
  981MOL0     C35301  12.113   7.503   1.733 -0.0643 -0.7820  0.6980
  981MOL0     C35302  12.204   7.613   1.676 -0.7725  0.0687  0.3049
  981MOL0     C35303  12.316   7.567   1.577 -0.5087 -0.0230  0.5484
  981MOL0     C35304  12.397   7.676   1.523 -0.0754 -0.1304 -0.6267
  981MOL0     C35305  12.470   7.755   1.470 -0.0770  0.7656 -0.2613
  981MOL0     C35306  11.833   7.638   2.020 -0.1683 -0.0079  0.2927
  981MOL0     C35307  11.739   7.683   2.113  0.0167  0.1273  0.4080
  981MOL0     C35308  11.735   7.623   2.251  0.4769  0.5060 -0.2387
  981MOL0     H35309  11.282   7.991   2.103 -2.4400  2.1086 -0.1043
  981MOL0     H35310  11.092   8.080   2.234  0.9590  0.2767 -0.4996
  981MOL0     H35311  10.895   8.170   2.561 -1.2530  0.6654 -0.8416
  981MOL0     H35312  10.925   8.116   2.397  0.8223  0.9515 -1.9313
  981MOL0     H35313  11.074   8.357   2.511  1.0594 -0.3236 -0.5728
  981MOL0     H35314  11.063   8.301   2.351  0.9385  1.8034  1.2119
  981MOL0     H35315  10.900   8.468   2.337 -1.8848  2.4743  2.0103
  981MOL0     H35316  10.807   8.325   2.355  1.1232  0.6295 -3.0183
  981MOL0     H35317  10.837   8.389   2.634 -1.0240  2.1701  2.0267
  981MOL0     H35318  10.869   8.544   2.575  5.7792 -3.5279  0.7800
  981MOL0     H35319  10.614   8.384   2.516 -1.3786  0.7291 -1.0365
  981MOL0     H35320  10.638   8.533   2.457 -0.0259  0.3037  0.4568
  981MOL0     H35321  10.628   8.435   2.732  0.4267  0.1950 -0.1203
  981MOL0     H35322  10.682   8.606   2.716 -1.0062  0.0722  2.1764
  981MOL0     H35323  10.419   8.479   2.636  0.4534 -0.3652  1.3712
  981MOL0     H35324  10.433   8.657   2.600  1.2301  1.2837  0.9333
  981MOL0     H35325  10.444   8.501   2.868  2.3250 -2.5286 -3.4969
  981MOL0     H35326  10.473   8.676   2.849 -1.2674  2.1387 -0.9995
  981MOL0     H35327  10.254   8.822   2.840 -0.2032 -0.3693  0.8472
  981MOL0     H35328  10.012   8.893   2.808  1.3724  0.2395  1.6569
  981MOL0     H35329   9.943   8.803   2.934 -2.5874  1.3597 -0.6520
  981MOL0     H35330   9.858   8.796   2.652  2.9938  0.8399  0.2387
  981MOL0     H35331   9.839   8.650   2.752  2.5461 -0.6439 -1.3989
  981MOL0     H35332   9.708   8.769   2.918 -0.9606  2.4970  0.9235
  981MOL0     H35333   9.723   8.924   2.848  0.9007 -0.2221  2.0073
  981MOL0     H35334   9.618   8.823   2.636  0.1926  2.5176  1.0334
  981MOL0     H35335   9.587   8.680   2.732  1.7845 -0.0504  1.4890
  981MOL0     H35336   9.306   9.030   2.862  0.6584 -2.5660  1.3738
  981MOL0     H35337   9.097   9.143   2.844  1.6552 -1.9103 -0.9784
  981MOL0     H35338   8.965   9.077   2.754 -2.2017  2.9455 -2.1403
  981MOL0     H35339   9.082   9.185   2.675  0.0441  0.5474  0.3011
  981MOL0     H35340   8.980   8.684   2.230  0.2534  0.2826 -2.0985
  981MOL0     H35341   8.827   8.682   2.034 -1.1321 -0.7850 -0.0091
  981MOL0     H35342   8.480   8.962   2.049  1.0224  0.4658 -1.4682
  981MOL0     H35343   8.430   8.875   1.909 -1.4449 -2.0978  0.4367
  981MOL0     H35344   8.429   8.722   2.168 -0.4345 -0.5190  0.8305
  981MOL0     H35345   8.305   8.845   2.139 -4.1395 -2.4062 -1.4695
  981MOL0     H35346   8.402   8.584   2.009  0.2001  0.0544  4.7023
  981MOL0     H35347   8.302   8.682   1.900  1.8798 -2.0405 -1.9309
  981MOL0     H35348   8.197   8.548   2.159  1.3934 -2.1880 -0.7638
  981MOL0     H35349   8.166   8.491   1.996  2.3601  1.2978 -2.2010
  981MOL0     H35350   8.092   8.764   2.119 -0.8957 -1.6559  1.7677
  981MOL0     H35351   8.083   8.722   1.951  2.1350 -0.9912 -0.1855
  981MOL0     H35352   7.925   8.574   2.172 -3.8012 -0.2107  0.2249
  981MOL0     H35353   7.909   8.545   1.996  1.9495 -0.4124  0.0014
  981MOL0     H35354   7.807   8.752   1.957  0.4655  0.9346 -0.0332
  981MOL0     H35355   7.831   8.815   2.119  0.4860 -0.6785 -0.1592
  981MOL0     H35356   7.613   8.760   2.137  1.2600  1.0328 -0.0364
  981MOL0     H35357   7.698   8.615   2.205  2.4206  0.6876 -0.1323
  981MOL0     H35358   8.546   8.909   2.255  2.3754  4.0460 -3.2062
  981MOL0     H35359   8.711   8.945   2.436 -2.1418 -0.4419  1.1558
  981MOL0     H35360   9.212   8.750   2.465  0.3153 -0.3281  0.2120
  981MOL0     H35361   9.416   8.726   2.578 -0.2697 -1.6704  2.0888
  981MOL0     H35362  11.345   8.046   2.594 -0.0022 -1.3162  0.0854
  981MOL0     H35363  11.534   7.988   2.452 -0.5442  2.2641  1.3804
  981MOL0     H35364  11.584   7.922   1.933  0.6681  0.7780  0.9105
  981MOL0     H35365  11.750   7.828   1.749 -2.4716  1.2925  0.9361
  981MOL0     H35366  12.088   7.585   1.922 -1.9711  1.0871  1.6187
  981MOL0     H35367  11.973   7.457   1.883 -1.1875 -0.2013 -2.6224
  981MOL0     H35368  12.049   7.464   1.653 -2.1771 -0.9957  2.4083
  981MOL0     H35369  12.178   7.421   1.764  0.5987 -0.1852  0.9075
  981MOL0     H35370  12.138   7.687   1.630  1.3544  1.0138 -1.4127
  981MOL0     H35371  12.237   7.664   1.767 -0.7467 -0.0909  0.3860
  981MOL0     H35372  12.275   7.510   1.493  0.6271 -0.1046  0.0322
  981MOL0     H35373  12.376   7.489   1.624 -0.6874 -0.7031 -0.3266
  981MOL0     H35374  12.542   7.817   1.420  2.7378 -0.8100  1.5590
  981MOL0     H35375  11.908   7.570   2.060 -0.6207 -0.1546  0.9082
  981MOL0     H35376  11.817   7.554   2.275  0.1649  0.1208 -0.2806
  981MOL0     H35377  11.730   7.703   2.326  1.9793 -0.5356  1.0414
  981MOL0     H35378  11.644   7.564   2.261  0.9462 -0.4450 -1.3300
  982MOL0     O35379   2.558   3.110  11.344  0.4760  0.0742  0.1033
  982MOL0     C35380   2.552   3.212  11.407  0.0285 -0.2577 -0.3667
  982MOL0     O35381   2.661   3.297  11.430  0.1956 -0.1121  0.2174
  982MOL0     C35382   2.780   3.256  11.369  0.0961 -0.6412 -0.0543
  982MOL0     C35383   2.831   3.341  11.276 -0.3983  0.4391  0.0116
  982MOL0     C35384   2.938   3.301  11.197  0.4189  0.3666 -0.5368
  982MOL0     C35385   3.008   3.187  11.228 -0.0655  0.9316 -0.3357
  982MOL0     O35386   3.118   3.155  11.145 -0.3439  0.2835 -0.1453
  982MOL0     C35387   3.201   3.041  11.175  0.2886 -0.3729 -0.8390
  982MOL0     C35388   3.282   3.015  11.052  0.0999 -0.9567  0.6046
  982MOL0     C35389   3.371   2.885  11.066 -0.0752 -1.0716  0.7362
  982MOL0     C35390   3.450   2.858  10.945 -0.4400  0.7236 -0.1229
  982MOL0     C35391   3.531   2.730  10.962 -0.3575  0.1892  0.1247
  982MOL0     C35392   3.585   2.690  10.826  0.1247 -0.5013 -0.2022
  982MOL0     C35393   3.702   2.605  10.843 -0.3408 -0.9305 -0.7561
  982MOL0     C35394   3.735   2.535  10.716  0.5760  0.0275 -0.0444
  982MOL0     N35395   3.816   2.615  10.618 -0.1467  0.2575  0.7104
  982MOL0     C35396   3.947   2.654  10.633  0.0733  0.5423 -0.2935
  982MOL0     C35397   3.976   2.757  10.542 -0.1144  0.2457  0.2794
  982MOL0     C35398   4.109   2.835  10.537 -0.0881 -0.5131  0.2392
  982MOL0     C35399   4.145   2.861  10.396 -0.9640 -0.0337  0.1138
  982MOL0     C35400   4.285   2.932  10.393 -0.9903 -0.0262 -0.2623
  982MOL0     C35401   4.350   2.976  10.265 -0.2090 -0.3018 -0.1080
  982MOL0     O35402   4.477   3.036  10.309  0.2950  0.2909 -0.5518
  982MOL0     C35403   4.593   3.022  10.237  0.0543 -0.4689  0.9854
  982MOL0     C35404   4.597   2.979  10.103 -0.3101  0.0091 -0.6526
  982MOL0     C35405   4.718   2.972  10.021  0.5573  0.3217  0.4308
  982MOL0     C35406   4.703   2.919   9.880 -0.6334 -0.1880 -0.1904
  982MOL0     C35407   4.835   3.034  10.071  0.1434  0.0777 -0.1764
  982MOL0     C35408   4.949   3.064   9.987 -1.1235 -0.1536  0.3881
  982MOL0     O35409   4.939   3.050   9.851  0.1172  0.3414 -0.3663
  982MOL0     C35410   5.042   3.100   9.778 -0.1574 -0.6568  0.3240
  982MOL0     C35411   5.040   3.240   9.743  0.6016  1.3684  0.2478
  982MOL0     C35412   5.149   3.292   9.671  0.5670 -0.3854  0.1319
  982MOL0     C35413   5.255   3.210   9.621  0.0350  1.1849 -1.0203
  982MOL0     O35414   5.345   3.243   9.526 -0.0235  0.1875 -0.5055
  982MOL0     C35415   5.357   3.376   9.496  0.2431 -1.2193 -0.0581
  982MOL0     C35416   5.480   3.404   9.413  0.5637 -1.3490  0.5798
  982MOL0     C35417   5.613   3.384   9.493 -0.1386 -0.0698  0.4809
  982MOL0     C35418   5.731   3.459   9.422  1.5217  0.1382 -0.4588
  982MOL0     C35419   5.868   3.437   9.492  0.3128  0.3867 -0.8063
  982MOL0     C35420   5.855   3.440   9.648 -1.4191 -0.0666 -0.1715
  982MOL0     C35421   5.991   3.461   9.708 -1.3606  0.1903  0.0371
  982MOL0     C35422   5.983   3.456   9.862  0.7356 -0.1353 -0.5481
  982MOL0    Cl35423   5.896   3.601   9.912  0.1937  0.1419  0.1185
  982MOL0     C35424   5.249   3.075   9.662  0.8551 -0.1370  0.4525
  982MOL0     C35425   5.146   3.020   9.740  0.0880 -0.1662 -0.2708
  982MOL0     O35426   5.047   3.116  10.043  0.0170  0.3876 -0.3129
  982MOL0     C35427   4.824   3.080  10.206 -0.2325 -0.2361 -0.3520
  982MOL0     C35428   4.710   3.062  10.292  0.0077  0.4771 -0.0644
  982MOL0     N35429   3.857   2.770  10.467 -0.0726  0.3526  0.9300
  982MOL0     N35430   3.774   2.681  10.508 -0.0792 -0.0693  0.0668
  982MOL0     C35431   2.961   3.106  11.327  0.2252  0.8236 -0.5303
  982MOL0     C35432   2.843   3.132  11.391 -0.2794 -0.7136 -0.2935
  982MOL0     C35433   2.412   3.255  11.451 -0.0504  0.5941 -0.2401
  982MOL0     C35434   2.334   3.157  11.509 -0.2644  0.3499 -0.5832
  982MOL0     C35435   2.206   3.192  11.544 -1.1101 -0.5521 -0.6502
  982MOL0     C35436   2.151   3.313  11.527 -0.9193  0.3843 -0.6037
  982MOL0     O35437   2.027   3.329  11.578  0.2114  0.1667  0.0186
  982MOL0     C35438   1.962   3.461  11.586  0.4094  0.8820 -0.9770
  982MOL0     C35439   1.816   3.447  11.622 -0.4863  0.0495  0.0818
  982MOL0     C35440   1.747   3.571  11.601 -0.1639  0.0823 -0.2544
  982MOL0     C35441   1.609   3.567  11.668  0.5011  0.2474 -1.1297
  982MOL0     C35442   1.524   3.668  11.608 -0.7732 -0.0346 -0.3340
  982MOL0     C35443   1.468   3.744  11.542  0.4523 -0.9301  0.0112
  982MOL0     C35444   2.227   3.409  11.473  0.1108 -0.1345 -0.3548
  982MOL0     C35445   2.363   3.387  11.441  0.0023  0.5142 -0.0060
  982MOL0     C35446   2.442   3.498  11.394 -0.1479  0.1562 -0.1729
  982MOL0     H35447   2.782   3.434  11.249  3.3942  2.0861 -1.9079
  982MOL0     H35448   2.966   3.361  11.110  0.4904 -3.0576 -3.1018
  982MOL0     H35449   3.138   2.952  11.190 -1.2751  1.0267  1.5533
  982MOL0     H35450   3.257   3.048  11.269 -0.0232 -1.8916 -0.5148
  982MOL0     H35451   3.217   3.007  10.965  1.0562 -0.5081 -0.1692
  982MOL0     H35452   3.346   3.101  11.029 -1.6683 -0.1844 -1.8135
  982MOL0     H35453   3.445   2.902  11.145 -1.9685 -1.5749  2.7315
  982MOL0     H35454   3.309   2.796  11.083  1.3428 -2.3207 -0.4439
  982MOL0     H35455   3.378   2.850  10.864  0.2406 -0.9887 -0.6252
  982MOL0     H35456   3.525   2.937  10.936  0.6241 -0.2428 -0.1159
  982MOL0     H35457   3.456   2.658  10.997  0.6851 -0.8146  0.3336
  982MOL0     H35458   3.602   2.739  11.044 -1.0735  1.1241  0.6636
  982MOL0     H35459   3.514   2.629  10.770  1.0007 -0.4127 -1.4460
  982MOL0     H35460   3.600   2.778  10.762 -1.1280 -0.1809 -0.0852
  982MOL0     H35461   3.674   2.522  10.908 -1.6912 -1.0885 -1.5050
  982MOL0     H35462   3.784   2.659  10.892 -0.7195 -1.9180  1.0709
  982MOL0     H35463   3.795   2.446  10.735 -0.2066 -0.5506 -0.2561
  982MOL0     H35464   3.639   2.502  10.675 -0.6759 -0.2256  2.8599
  982MOL0     H35465   4.010   2.606  10.707 -2.2433 -0.7741  0.9113
  982MOL0     H35466   4.179   2.768  10.587 -2.6143 -1.5667  2.5986
  982MOL0     H35467   4.100   2.934  10.581  0.8701  0.3754 -1.4677
  982MOL0     H35468   4.166   2.763  10.352  0.5866  0.2847  0.0982
  982MOL0     H35469   4.075   2.910  10.328  0.4859 -2.4903 -3.4518
  982MOL0     H35470   4.276   3.023  10.452 -3.8704 -0.0485 -0.5345
  982MOL0     H35471   4.357   2.868  10.445 -0.8478  1.1142  1.0025
  982MOL0     H35472   4.366   2.887  10.204 -1.3281 -2.0217  1.9412
  982MOL0     H35473   4.288   3.044  10.207  1.2489  2.9394  1.8802
  982MOL0     H35474   4.506   2.939  10.059  0.5615 -0.8752 -1.6883
  982MOL0     H35475   4.712   3.001   9.808 -1.0515  1.6315  1.7156
  982MOL0     H35476   4.604   2.873   9.872 -0.3083 -1.3276  1.6786
  982MOL0     H35477   4.788   2.856   9.854  0.0922 -0.5781  2.7172
  982MOL0     H35478   4.955   3.296   9.779 -0.0260  0.7563 -0.2458
  982MOL0     H35479   5.148   3.398   9.649 -1.8568 -0.5482 -0.8298
  982MOL0     H35480   5.270   3.420   9.447 -2.4490 -2.7916  2.9444
  982MOL0     H35481   5.372   3.419   9.596 -1.9863 -2.2089  0.7832
  982MOL0     H35482   5.483   3.345   9.321  0.4716 -1.9836  0.9733
  982MOL0     H35483   5.476   3.510   9.388 -1.9707 -1.1608  1.4572
  982MOL0     H35484   5.636   3.277   9.506 -0.0580  0.0017  0.9277
  982MOL0     H35485   5.591   3.411   9.597  0.2168 -3.4723  1.5690
  982MOL0     H35486   5.716   3.567   9.432  3.6155  0.3658  0.8890
  982MOL0     H35487   5.721   3.442   9.314 -0.0839 -1.0632 -0.1609
  982MOL0     H35488   5.916   3.342   9.464  0.5917 -0.7385  2.9422
  982MOL0     H35489   5.935   3.520   9.465  0.0300  1.4321  1.4760
  982MOL0     H35490   5.817   3.344   9.683 -1.1087 -0.1619 -0.0864
  982MOL0     H35491   5.798   3.526   9.685 -1.0209  0.2247 -0.2267
  982MOL0     H35492   6.043   3.550   9.672  0.1028 -1.5339 -2.4198
  982MOL0     H35493   6.048   3.376   9.668 -1.0168  0.7303 -0.6400
  982MOL0     H35494   6.078   3.460   9.916  1.1096  1.9965 -1.2935
  982MOL0     H35495   5.926   3.368   9.893  2.4529 -2.0336 -2.4962
  982MOL0     H35496   5.322   3.011   9.612  0.6348  0.6801 -0.9873
  982MOL0     H35497   5.134   2.915   9.765 -0.3405  0.4666  2.5785
  982MOL0     H35498   4.911   3.126  10.252  0.9037  0.1003 -2.6816
  982MOL0     H35499   4.706   3.091  10.397 -0.0731 -1.1042  0.3868
  982MOL0     H35500   3.019   3.020  11.359 -1.9546 -0.3225  0.5795
  982MOL0     H35501   2.793   3.068  11.463 -0.8018 -0.6417 -0.5864
  982MOL0     H35502   2.368   3.055  11.526 -1.7750  0.1798  2.0665
  982MOL0     H35503   2.158   3.120  11.610 -1.5232  0.8085  0.5998
  982MOL0     H35504   2.028   3.518  11.652  2.4107  0.0076 -2.1179
  982MOL0     H35505   1.964   3.510  11.488  0.1305  1.6283 -0.6110
  982MOL0     H35506   1.809   3.424  11.729  1.6191 -0.2845  0.1831
  982MOL0     H35507   1.758   3.369  11.571 -2.2168 -0.2211  2.3193
  982MOL0     H35508   1.791   3.667  11.630  0.7142 -0.4720  0.3017
  982MOL0     H35509   1.724   3.576  11.495  1.8452  3.2284 -0.6574
  982MOL0     H35510   1.613   3.579  11.777 -0.4782  0.6065 -1.1241
  982MOL0     H35511   1.561   3.469  11.656 -3.3420  1.9308 -0.8452
  982MOL0     H35512   1.433   3.817  11.472 -0.1672 -0.5291  0.7356
  982MOL0     H35513   2.186   3.509  11.461  0.0565 -0.2391 -1.0964
  982MOL0     H35514   2.503   3.535  11.477  1.5472 -0.1162 -1.2424
  982MOL0     H35515   2.509   3.480  11.309 -0.2580  0.0300 -0.2335
  982MOL0     H35516   2.380   3.581  11.360  0.5977  0.8332  0.0973
  983MOL0     O35517   1.667   0.202   5.876 -0.3178 -0.2025  0.1564
  983MOL0     C35518   1.746   0.123   5.847 -0.1216  0.3991 -0.0733
  983MOL0     O35519   1.716   0.019   5.765 -0.1339  0.1463 -1.0626
  983MOL0     C35520   1.608   0.023   5.689  0.5160  0.0724 -0.1932
  983MOL0     C35521   1.522  -0.083   5.695 -0.0878  0.1692 -0.1292
  983MOL0     C35522   1.417  -0.104   5.605 -0.1512  0.0470  0.3408
  983MOL0     C35523   1.379  -0.006   5.515  0.8063 -0.8464  1.1603
  983MOL0     O35524   1.256  -0.014   5.440 -0.2028  0.0018  0.0579
  983MOL0     C35525   1.223   0.090   5.353 -0.0284  0.6977  0.3086
  983MOL0     C35526   1.134   0.206   5.401 -1.0371  0.1577  0.1342
  983MOL0     C35527   1.099   0.292   5.279  0.6719  0.5531  0.9847
  983MOL0     C35528   1.050   0.427   5.317  0.2134  0.3727 -0.1489
  983MOL0     C35529   0.907   0.442   5.370  0.4828  0.0865  0.1290
  983MOL0     C35530   0.887   0.581   5.439 -0.4707 -0.0560 -0.4992
  983MOL0     C35531   0.743   0.623   5.472  0.4688 -0.4357 -0.5550
  983MOL0     C35532   0.722   0.774   5.518  0.2353  0.5128 -0.1635
  983MOL0     N35533   0.712   0.786   5.663 -0.8080 -0.0023  0.0794
  983MOL0     C35534   0.787   0.733   5.758  0.2107  0.3308  0.2586
  983MOL0     C35535   0.726   0.763   5.877 -0.7570  0.1855  0.5372
  983MOL0     C35536   0.766   0.708   6.007  0.8279 -0.0794  0.1558
  983MOL0     C35537   0.851   0.805   6.098 -0.2005  0.5123 -0.4717
  983MOL0     C35538   0.992   0.815   6.030 -0.5729 -0.0881  0.1983
  983MOL0     C35539   1.098   0.871   6.113 -0.5217 -0.6322 -0.6392
  983MOL0     O35540   1.107   0.791   6.230 -0.6808  0.4260  0.2022
  983MOL0     C35541   1.179   0.838   6.342  0.1539  0.5983  0.5598
  983MOL0     C35542   1.252   0.960   6.338 -0.2193  0.5641 -0.2435
  983MOL0     C35543   1.324   1.007   6.445  0.2380 -1.4956  0.8153
  983MOL0     C35544   1.384   1.148   6.429  0.0096  0.2252 -0.3473
  983MOL0     C35545   1.309   0.935   6.568  0.1141  0.2762 -0.0871
  983MOL0     C35546   1.344   0.984   6.700  0.6822 -0.1342 -0.0807
  983MOL0     O35547   1.333   0.904   6.811 -0.3603  0.5430 -0.2272
  983MOL0     C35548   1.372   0.950   6.938  0.1527  0.0385  0.2247
  983MOL0     C35549   1.284   1.009   7.027  0.1054  0.4167 -0.2985
  983MOL0     C35550   1.332   1.048   7.149  0.6138 -0.2018  0.3646
  983MOL0     C35551   1.466   1.044   7.182  0.4667 -0.2187  0.3777
  983MOL0     O35552   1.486   1.083   7.311 -0.7612 -0.7569  0.1649
  983MOL0     C35553   1.614   1.061   7.375 -0.2044  0.4299 -0.9751
  983MOL0     C35554   1.708   1.167   7.339  0.4799 -1.1168 -0.0746
  983MOL0     C35555   1.755   1.257   7.451  0.8324 -0.4169 -0.5965
  983MOL0     C35556   1.649   1.360   7.496 -0.4128 -0.0059  0.0990
  983MOL0     C35557   1.690   1.447   7.619 -0.6717 -0.3231 -0.2651
  983MOL0     C35558   1.793   1.557   7.588  0.2447  0.8461  0.0943
  983MOL0     C35559   1.740   1.656   7.483 -0.3074  0.6619  0.5369
  983MOL0     C35560   1.827   1.784   7.460 -0.1583 -0.9171  0.2200
  983MOL0    Cl35561   1.994   1.741   7.410  0.2679  0.4428  0.0998
  983MOL0     C35562   1.556   0.999   7.083 -0.1992  0.5099 -1.2357
  983MOL0     C35563   1.505   0.949   6.966  0.3502 -0.8196 -0.5170
  983MOL0     O35564   1.374   1.097   6.711  0.0571  0.0244  0.2295
  983MOL0     C35565   1.243   0.812   6.564  0.4190 -0.0193  0.1442
  983MOL0     C35566   1.190   0.755   6.450  0.2069 -1.1691 -0.8479
  983MOL0     N35567   0.604   0.829   5.847 -0.7200 -0.1903  0.5521
  983MOL0     N35568   0.602   0.843   5.717  0.1182 -0.1492 -0.4091
  983MOL0     C35569   1.461   0.109   5.517 -0.3757  0.2234  0.3060
  983MOL0     C35570   1.576   0.124   5.595  0.8740  0.4816 -0.8053
  983MOL0     C35571   1.869   0.109   5.926  0.4790  0.4263  0.2050
  983MOL0     C35572   1.921  -0.018   5.948 -0.0010  0.3396 -0.1914
  983MOL0     C35573   2.025  -0.047   6.036 -0.9793  0.3299  0.8943
  983MOL0     C35574   2.080   0.058   6.112 -0.5974 -0.3768 -0.8508
  983MOL0     O35575   2.172   0.053   6.215  0.1058  0.6590  0.1325
  983MOL0     C35576   2.251  -0.070   6.227  0.3500  0.1145  0.3142
  983MOL0     C35577   2.380  -0.041   6.306  0.0654  0.1403 -0.4434
  983MOL0     C35578   2.456  -0.185   6.330  0.4643 -0.7936 -0.1730
  983MOL0     C35579   2.602  -0.166   6.360  0.1466 -0.2658 -0.3974
  983MOL0     C35580   2.614  -0.072   6.467  0.3417  1.0955 -0.5118
  983MOL0     C35581   2.622   0.003   6.556  0.0387 -1.0021  1.3345
  983MOL0     C35582   2.031   0.184   6.091  0.3954 -0.0849 -0.3606
  983MOL0     C35583   1.934   0.213   5.989  0.4503  0.7991 -0.1585
  983MOL0     C35584   1.891   0.359   5.974  0.1492 -0.1667  0.4143
  983MOL0     H35585   1.551  -0.155   5.771  0.3661  0.0266 -0.4356
  983MOL0     H35586   1.348  -0.187   5.614 -0.0761  0.2208  5.3520
  983MOL0     H35587   1.176   0.044   5.266 -0.0373 -2.9692  2.0453
  983MOL0     H35588   1.316   0.127   5.310 -0.6751  0.6374 -1.2147
  983MOL0     H35589   1.046   0.170   5.455 -0.1893 -0.0411  1.4274
  983MOL0     H35590   1.195   0.271   5.465  0.1963 -0.3279 -0.5165
  983MOL0     H35591   1.190   0.303   5.219  1.1582 -1.3448  1.3245
  983MOL0     H35592   1.031   0.241   5.211  0.7694  2.0934 -0.3204
  983MOL0     H35593   1.121   0.456   5.396 -1.7613 -0.1283  1.8957
  983MOL0     H35594   1.065   0.492   5.230  1.0308  0.1939 -0.1564
  983MOL0     H35595   0.892   0.354   5.433  0.5034  0.3204  0.4619
  983MOL0     H35596   0.838   0.449   5.285  0.0985  2.2037  0.5579
  983MOL0     H35597   0.949   0.585   5.529 -0.1677  0.0829 -0.7151
  983MOL0     H35598   0.927   0.659   5.374 -0.9149  1.1067  0.6022
  983MOL0     H35599   0.706   0.549   5.543  3.4772  0.1659  1.8566
  983MOL0     H35600   0.677   0.612   5.385 -1.4392 -0.4710  0.8465
  983MOL0     H35601   0.803   0.837   5.480  1.3063 -1.0478 -0.5903
  983MOL0     H35602   0.627   0.810   5.479 -0.1023 -0.5583 -0.3560
  983MOL0     H35603   0.872   0.668   5.741  1.3981  2.1069 -0.9772
  983MOL0     H35604   0.804   0.607   5.992 -0.2028 -0.6150  0.9820
  983MOL0     H35605   0.673   0.686   6.060  0.2965 -2.0941 -1.4919
  983MOL0     H35606   0.797   0.898   6.081  1.4999  1.5648 -0.3473
  983MOL0     H35607   0.850   0.770   6.202 -0.0044  2.5926  0.2639
  983MOL0     H35608   1.020   0.719   5.986  0.0509  0.4299 -0.5500
  983MOL0     H35609   0.991   0.879   5.942 -1.6170 -0.0951  0.1851
  983MOL0     H35610   1.196   0.878   6.065 -0.0108  1.2584  0.5815
  983MOL0     H35611   1.078   0.974   6.143  0.5139 -0.2216 -1.3377
  983MOL0     H35612   1.267   1.017   6.247  0.5648 -1.2267 -1.2981
  983MOL0     H35613   1.451   1.175   6.346  0.4955  1.5393  0.4416
  983MOL0     H35614   1.445   1.180   6.514  1.8575 -0.8829 -1.1853
  983MOL0     H35615   1.302   1.219   6.429 -0.4545 -0.2866  0.6324
  983MOL0     H35616   1.179   1.007   6.999  0.2850 -0.5519 -0.9696
  983MOL0     H35617   1.268   1.077   7.232  1.5732  2.4493  0.2701
  983MOL0     H35618   1.605   1.046   7.483  1.7652  1.4327 -0.6247
  983MOL0     H35619   1.654   0.969   7.332  1.5165  3.0594 -5.7057
  983MOL0     H35620   1.789   1.126   7.278 -0.8805 -1.4019 -1.7499
  983MOL0     H35621   1.661   1.242   7.274  1.5960  0.7022  1.1149
  983MOL0     H35622   1.834   1.320   7.411  0.1294  1.0413  0.2256
  983MOL0     H35623   1.800   1.201   7.533 -2.0924 -0.8717  0.8661
  983MOL0     H35624   1.571   1.291   7.531  0.5613  0.1126  2.7233
  983MOL0     H35625   1.599   1.414   7.415 -0.6008 -1.5171 -0.8300
  983MOL0     H35626   1.603   1.503   7.657  1.2836  1.6086  1.6900
  983MOL0     H35627   1.722   1.378   7.697  1.3431 -0.1861 -0.9254
  983MOL0     H35628   1.893   1.526   7.558  0.1405  0.5391  0.0634
  983MOL0     H35629   1.813   1.607   7.683  1.7109 -1.7049  1.2342
  983MOL0     H35630   1.638   1.684   7.511 -0.3097  1.9949 -0.7043
  983MOL0     H35631   1.740   1.597   7.391  1.3117 -0.8074  1.4198
  983MOL0     H35632   1.817   1.844   7.551 -0.4465  1.4933 -1.3135
  983MOL0     H35633   1.777   1.846   7.385  0.5591 -1.5895 -0.8395
  983MOL0     H35634   1.659   0.986   7.113 -0.3055  0.2813 -0.9699
  983MOL0     H35635   1.578   0.916   6.893  0.3599  0.2815 -1.0312
  983MOL0     H35636   1.233   0.758   6.658  1.0526  1.4914  1.1147
  983MOL0     H35637   1.154   0.653   6.445 -0.7210 -0.9379  0.6443
  983MOL0     H35638   1.432   0.191   5.452 -0.6559 -2.0631 -2.7175
  983MOL0     H35639   1.641   0.211   5.595  0.4397  0.9343  2.3307
  983MOL0     H35640   1.877  -0.101   5.894  0.2306  0.0610  0.0444
  983MOL0     H35641   2.062  -0.149   6.044 -1.6628 -0.1019 -0.7947
  983MOL0     H35642   2.183  -0.138   6.279 -0.3201  1.4682  1.2812
  983MOL0     H35643   2.285  -0.102   6.128  2.2950 -0.5016  1.1406
  983MOL0     H35644   2.354   0.002   6.402 -0.9334 -3.9923  1.3759
  983MOL0     H35645   2.452   0.020   6.251  2.1615 -1.8098 -0.0437
  983MOL0     H35646   2.411  -0.249   6.406 -0.6234 -1.4222 -1.3169
  983MOL0     H35647   2.435  -0.249   6.244  0.2539 -1.7092  0.5460
  983MOL0     H35648   2.656  -0.128   6.272 -0.2959 -1.9776 -1.4632
  983MOL0     H35649   2.638  -0.259   6.406  0.7878  0.6509  1.0322
  983MOL0     H35650   2.614   0.066   6.642 -0.9685 -2.7437  2.6099
  983MOL0     H35651   2.059   0.267   6.154 -0.1995  0.1841 -0.4393
  983MOL0     H35652   1.962   0.413   6.037 -0.7292  1.1381  0.3263
  983MOL0     H35653   1.905   0.398   5.872  2.2801 -1.6599  0.0680
  983MOL0     H35654   1.792   0.369   6.018  0.4069  0.1860  0.9194
  984MOL0     O35655   8.266   8.242   2.714  0.4540  0.1247 -0.1867
  984MOL0     C35656   8.213   8.147   2.662  0.6529 -0.2719 -0.1286
  984MOL0     O35657   8.274   8.025   2.624 -0.5789 -0.4937 -0.7443
  984MOL0     C35658   8.412   8.001   2.638 -0.3245  0.0473 -0.2255
  984MOL0     C35659   8.505   8.106   2.634 -0.1959  0.5292 -0.0517
  984MOL0     C35660   8.642   8.063   2.648 -0.2174 -0.3222 -0.0567
  984MOL0     C35661   8.685   7.926   2.657 -0.6298 -0.5618 -0.1080
  984MOL0     O35662   8.818   7.885   2.679 -0.0130  0.1348 -0.3768
  984MOL0     C35663   8.868   7.820   2.562 -0.7000  0.1918  0.9179
  984MOL0     C35664   9.018   7.837   2.569 -0.0022  0.0998  0.4833
  984MOL0     C35665   9.078   7.761   2.449  0.1145  0.3287  0.1769
  984MOL0     C35666   9.227   7.797   2.435 -0.7305 -0.0122  0.0141
  984MOL0     C35667   9.305   7.704   2.350 -0.2211 -0.0793 -0.2530
  984MOL0     C35668   9.365   7.585   2.430 -0.5323  0.4631 -0.0271
  984MOL0     C35669   9.484   7.516   2.358  0.1100  0.0892 -0.6045
  984MOL0     C35670   9.544   7.407   2.440 -0.7713  1.0656  0.2817
  984MOL0     N35671   9.651   7.337   2.360  0.5876 -0.4743 -0.5248
  984MOL0     C35672   9.648   7.303   2.231  1.0236 -0.3187  0.1197
  984MOL0     C35673   9.773   7.268   2.201 -0.1858 -0.5859  0.1762
  984MOL0     C35674   9.815   7.226   2.062  0.6622 -0.4028  0.3766
  984MOL0     C35675   9.759   7.087   2.030  0.1992  0.0465 -0.3863
  984MOL0     C35676   9.621   7.099   1.957  0.1553 -0.3213 -0.9672
  984MOL0     C35677   9.579   6.963   1.905  0.0632 -0.5958 -0.5803
  984MOL0     O35678   9.580   6.861   2.009  0.4090  0.3122  0.0582
  984MOL0     C35679   9.614   6.736   1.963 -0.2988  0.8951  0.2346
  984MOL0     C35680   9.588   6.684   1.830  0.3729  0.9954 -1.1779
  984MOL0     C35681   9.621   6.562   1.780 -0.0883  0.3039  0.8971
  984MOL0     C35682   9.574   6.519   1.642 -0.1806 -0.0972  1.3511
  984MOL0     C35683   9.695   6.480   1.872 -0.3220  0.0368  0.2419
  984MOL0     C35684   9.741   6.341   1.839  0.3815  0.1725  0.0588
  984MOL0     O35685   9.693   6.285   1.723 -0.4733  0.4484 -0.2483
  984MOL0     C35686   9.741   6.167   1.678  0.1829 -0.4368 -0.4211
  984MOL0     C35687   9.864   6.142   1.609  0.4168  1.1381 -0.7663
  984MOL0     C35688   9.887   6.015   1.554  0.2431 -0.4762 -0.0459
  984MOL0     C35689   9.800   5.911   1.565  0.6522  0.0270 -0.2027
  984MOL0     O35690   9.835   5.802   1.495  0.1489 -0.0631  0.5543
  984MOL0     C35691   9.731   5.708   1.490  0.8006  1.0105  0.4888
  984MOL0     C35692   9.784   5.593   1.399 -0.5034 -0.2648 -0.5625
  984MOL0     C35693   9.712   5.464   1.401 -0.8801 -0.0769  0.0158
  984MOL0     C35694   9.776   5.357   1.318 -1.0646 -0.0694  0.2360
  984MOL0     C35695   9.692   5.228   1.326  0.0353 -0.5224  1.1500
  984MOL0     C35696   9.714   5.134   1.196 -0.2827 -0.0445  0.1460
  984MOL0     C35697   9.654   5.001   1.223  0.5337 -0.0207  0.4052
  984MOL0     C35698   9.610   4.904   1.108 -0.1598 -0.2704  0.2550
  984MOL0    Cl35699   9.463   4.978   1.036  0.1286  0.1798 -0.1829
  984MOL0     C35700   9.685   5.938   1.644 -0.2074  0.4511 -1.0622
  984MOL0     C35701   9.652   6.057   1.695  0.3201 -0.1696 -1.0474
  984MOL0     O35702   9.818   6.283   1.916 -0.1503 -0.4466 -0.0875
  984MOL0     C35703   9.743   6.522   2.000  0.2439 -0.2545  0.5601
  984MOL0     C35704   9.693   6.645   2.037  0.2923  1.2318 -0.1946
  984MOL0     N35705   9.849   7.273   2.312  0.2523 -0.9055 -0.1591
  984MOL0     N35706   9.775   7.319   2.406 -0.6157 -0.9119 -0.0657
  984MOL0     C35707   8.583   7.830   2.648 -0.9514  0.1965  0.3521
  984MOL0     C35708   8.451   7.863   2.635  0.1990  0.5386  0.2741
  984MOL0     C35709   8.064   8.151   2.653 -0.7017  0.9634 -0.4672
  984MOL0     C35710   8.010   8.094   2.541  0.0971 -0.0492  0.6801
  984MOL0     C35711   7.872   8.099   2.522 -0.4880  0.9693  0.0167
  984MOL0     C35712   7.784   8.155   2.611 -0.5662 -0.9300 -0.7138
  984MOL0     O35713   7.647   8.162   2.607 -0.0303  0.2125  0.9039
  984MOL0     C35714   7.570   8.101   2.501 -0.0089 -1.1250  0.0162
  984MOL0     C35715   7.433   8.175   2.510 -0.3702 -0.7196  0.1007
  984MOL0     C35716   7.450   8.316   2.452  0.4503  0.3227 -0.3816
  984MOL0     C35717   7.429   8.321   2.294 -0.1450 -0.2214 -0.2593
  984MOL0     C35718   7.388   8.451   2.248 -0.1855  0.8581 -0.1804
  984MOL0     C35719   7.372   8.559   2.193  0.9512  0.7337 -0.3491
  984MOL0     C35720   7.833   8.206   2.728 -0.2669  0.0443  0.8399
  984MOL0     C35721   7.971   8.200   2.754 -0.3416 -0.2685 -0.8311
  984MOL0     C35722   8.016   8.264   2.886 -1.4000  1.0542 -0.2009
  984MOL0     H35723   8.491   8.209   2.602 -0.3855  0.3155 -0.6787
  984MOL0     H35724   8.723   8.135   2.646 -0.2052 -0.3463 -0.5908
  984MOL0     H35725   8.831   7.864   2.469 -3.6508 -0.9474  1.4584
  984MOL0     H35726   8.844   7.716   2.542  0.5393 -0.1218  0.9464
  984MOL0     H35727   9.055   7.940   2.565 -0.8496  0.4032 -3.8682
  984MOL0     H35728   9.045   7.797   2.667 -1.4827 -1.2795  0.3675
  984MOL0     H35729   9.066   7.653   2.463  1.7362  0.1025 -0.0453
  984MOL0     H35730   9.030   7.792   2.355  0.3431  0.6726  0.1734
  984MOL0     H35731   9.210   7.896   2.392 -2.4108 -0.8040 -1.2467
  984MOL0     H35732   9.280   7.802   2.531 -0.1958  2.5505 -0.3445
  984MOL0     H35733   9.381   7.765   2.301 -0.4220 -0.3173 -0.8734
  984MOL0     H35734   9.237   7.665   2.273 -2.0540 -0.1413  1.3201
  984MOL0     H35735   9.398   7.615   2.531  0.5098 -0.0964 -0.1839
  984MOL0     H35736   9.285   7.512   2.443  0.8986 -1.2586 -0.4312
  984MOL0     H35737   9.553   7.600   2.347  0.5656 -0.0395  0.9685
  984MOL0     H35738   9.448   7.467   2.267 -0.2306 -0.9874  0.0927
  984MOL0     H35739   9.590   7.450   2.530 -1.2629 -0.8979  1.5260
  984MOL0     H35740   9.471   7.340   2.485  0.2808  0.6044  1.3700
  984MOL0     H35741   9.561   7.311   2.166  1.2938  1.2782 -0.0728
  984MOL0     H35742   9.924   7.220   2.055  0.8350 -0.5077  2.4742
  984MOL0     H35743   9.775   7.302   1.995  0.9490  0.4610  1.1782
  984MOL0     H35744   9.834   7.042   1.964 -0.0756 -0.1507 -0.5647
  984MOL0     H35745   9.758   7.023   2.119 -0.3040  2.6673  1.5976
  984MOL0     H35746   9.544   7.133   2.028 -0.8920  0.7339 -2.5420
  984MOL0     H35747   9.618   7.170   1.874  0.4727 -0.1628 -0.8439
  984MOL0     H35748   9.476   6.974   1.870 -0.8555  2.2773  2.5278
  984MOL0     H35749   9.644   6.948   1.818 -1.4183 -0.3026 -1.7859
  984MOL0     H35750   9.521   6.750   1.775  0.4938  0.2590 -2.2474
  984MOL0     H35751   9.536   6.599   1.578  3.3346  0.1574 -0.7101
  984MOL0     H35752   9.491   6.448   1.643 -1.6758  1.5261 -0.4115
  984MOL0     H35753   9.655   6.474   1.583 -0.8692 -0.2496  0.4882
  984MOL0     H35754   9.931   6.225   1.593 -1.5178  3.0078  0.2713
  984MOL0     H35755   9.980   6.004   1.500 -0.6535 -1.9180 -1.3613
  984MOL0     H35756   9.703   5.676   1.591 -2.1020  0.3407 -0.4416
  984MOL0     H35757   9.634   5.743   1.453  0.6386  1.2454  1.1278
  984MOL0     H35758   9.790   5.622   1.294 -1.1596  1.5618 -0.1321
  984MOL0     H35759   9.882   5.568   1.441 -0.8255 -0.4429  0.0975
  984MOL0     H35760   9.607   5.475   1.372 -0.2748  2.0594 -1.6156
  984MOL0     H35761   9.709   5.425   1.503  3.6209  1.9836  1.1892
  984MOL0     H35762   9.882   5.341   1.340 -0.3772 -0.2426 -2.7037
  984MOL0     H35763   9.789   5.384   1.213  4.9975 -1.1292  0.3547
  984MOL0     H35764   9.719   5.177   1.419  0.7112  0.5315  1.5596
  984MOL0     H35765   9.588   5.254   1.344 -1.7236 -5.2274 -0.5867
  984MOL0     H35766   9.821   5.119   1.179 -0.5299 -2.7742  0.6749
  984MOL0     H35767   9.672   5.179   1.105 -3.5860  0.4099  1.7198
  984MOL0     H35768   9.568   5.012   1.291 -0.3917  2.2444 -1.0063
  984MOL0     H35769   9.730   4.947   1.280  1.3950 -1.2113 -1.7736
  984MOL0     H35770   9.597   4.800   1.139  1.2082 -1.2033 -2.0311
  984MOL0     H35771   9.694   4.891   1.038  2.1683 -0.4947  2.9182
  984MOL0     H35772   9.617   5.856   1.663 -0.4238  0.3493 -2.2484
  984MOL0     H35773   9.561   6.058   1.753  0.5986 -1.7269 -0.5535
  984MOL0     H35774   9.812   6.470   2.065  0.3762 -0.3250  0.3639
  984MOL0     H35775   9.715   6.680   2.138 -1.8262  1.8449  0.1162
  984MOL0     H35776   8.608   7.725   2.659 -2.6062 -0.3055 -0.4302
  984MOL0     H35777   8.375   7.787   2.626  1.8422 -1.0248 -0.9306
  984MOL0     H35778   8.079   8.048   2.471 -1.7922  0.3631 -1.5543
  984MOL0     H35779   7.841   8.053   2.429  0.1459 -0.6270  0.5665
  984MOL0     H35780   7.615   8.110   2.402  0.5407 -3.0596  0.0445
  984MOL0     H35781   7.555   7.994   2.516  0.7506 -1.0625  1.3791
  984MOL0     H35782   7.414   8.175   2.617  4.2583  1.0588  1.1532
  984MOL0     H35783   7.348   8.129   2.459 -1.0955  1.2920 -0.5982
  984MOL0     H35784   7.388   8.395   2.495  3.2763  2.0332  0.8248
  984MOL0     H35785   7.551   8.352   2.475  0.8597 -0.9682 -0.0352
  984MOL0     H35786   7.355   8.254   2.250 -0.2532  0.9367 -1.9460
  984MOL0     H35787   7.530   8.309   2.253  0.1986  3.5400 -0.9072
  984MOL0     H35788   7.345   8.653   2.149 -1.2481  1.6584  2.5854
  984MOL0     H35789   7.772   8.248   2.807 -0.3791 -0.5568  1.0819
  984MOL0     H35790   8.098   8.200   2.919 -2.9566 -1.7650 -1.4686
  984MOL0     H35791   8.054   8.363   2.860  1.3015 -0.6516 -3.4839
  984MOL0     H35792   7.942   8.269   2.967  0.4403 -0.5769  1.6935
  985MOL0     O35793   8.537   8.060   0.554  0.1012  0.3000 -0.1090
  985MOL0     C35794   8.499   7.972   0.477  0.7134 -0.1648 -1.0983
  985MOL0     O35795   8.571   7.864   0.453  0.4910 -0.6251 -0.6394
  985MOL0     C35796   8.703   7.876   0.444 -0.1265 -0.7332 -0.6177
  985MOL0     C35797   8.790   7.848   0.554 -0.8397  0.5892 -0.0834
  985MOL0     C35798   8.926   7.849   0.537  0.2155 -0.1630  0.4481
  985MOL0     C35799   8.972   7.875   0.412 -0.8666 -0.2111 -0.3347
  985MOL0     O35800   9.102   7.860   0.378  0.2055  0.1571 -0.1226
  985MOL0     C35801   9.206   7.868   0.483 -0.3124  0.6119  0.3484
  985MOL0     C35802   9.343   7.878   0.427 -0.0902 -0.7475  1.1724
  985MOL0     C35803   9.451   7.860   0.535  0.7872  0.3240 -1.2553
  985MOL0     C35804   9.583   7.900   0.490 -1.2835 -0.3338 -0.0425
  985MOL0     C35805   9.691   7.879   0.594  0.3988  0.4260  1.0009
  985MOL0     C35806   9.829   7.910   0.534 -0.2878  0.4799  0.3394
  985MOL0     C35807   9.942   7.932   0.635 -0.6839 -0.0844  0.6306
  985MOL0     C35808  10.002   7.801   0.708  0.5820  0.2377 -0.3993
  985MOL0     N35809   9.906   7.706   0.770  0.7645  0.9093 -0.2571
  985MOL0     C35810   9.863   7.588   0.724 -0.8451 -0.0923 -0.3647
  985MOL0     C35811   9.789   7.518   0.820 -0.2826  0.1278 -0.5445
  985MOL0     C35812   9.719   7.390   0.807  0.2120 -0.4143  0.3967
  985MOL0     C35813   9.769   7.297   0.698  0.3041 -0.4659 -0.5207
  985MOL0     C35814   9.915   7.244   0.712 -1.8255 -0.0213  0.5304
  985MOL0     C35815   9.985   7.193   0.585  0.8878  0.0266 -0.6996
  985MOL0     O35816  10.105   7.129   0.630 -0.2447 -0.5143  0.2462
  985MOL0     C35817  10.214   7.120   0.544  0.6081  0.2956  0.3676
  985MOL0     C35818  10.196   7.157   0.410  0.3229  0.7135 -0.6470
  985MOL0     C35819  10.304   7.130   0.323 -0.3567 -0.3947  1.0412
  985MOL0     C35820  10.307   7.200   0.191  0.5256 -0.6367 -0.0188
  985MOL0     C35821  10.428   7.071   0.368  0.2957 -0.0042 -0.7091
  985MOL0     C35822  10.546   7.043   0.287  0.0224 -0.1081  0.1444
  985MOL0     O35823  10.532   7.015   0.158  0.1978 -0.1677 -0.1613
  985MOL0     C35824  10.646   7.014   0.084  0.7127 -0.0554 -0.0152
  985MOL0     C35825  10.728   6.898   0.071  0.1630  0.0584  0.6971
  985MOL0     C35826  10.840   6.905  -0.006 -0.6003 -0.4070 -0.1754
  985MOL0     C35827  10.870   7.015  -0.089  0.0368 -0.3113 -1.0010
  985MOL0     O35828  10.970   7.007  -0.184  0.0063 -0.0062  0.2904
  985MOL0     C35829  10.979   7.098  -0.284 -0.7044 -1.0184  0.1123
  985MOL0     C35830  10.899   7.058  -0.400  1.3450 -0.5422 -0.9359
  985MOL0     C35831  10.946   6.932  -0.466  0.0528 -0.0859  0.1485
  985MOL0     C35832  10.850   6.894  -0.572 -0.1637  0.8215  0.4289
  985MOL0     C35833  10.885   6.757  -0.632  0.1177 -0.0460 -1.2868
  985MOL0     C35834  10.772   6.725  -0.730 -0.5532 -0.5809  0.7819
  985MOL0     C35835  10.773   6.582  -0.780  0.6867 -0.1998  0.2333
  985MOL0     C35836  10.690   6.562  -0.909  0.9751 -0.1223  0.0890
  985MOL0    Cl35837  10.786   6.610  -1.052  0.1334 -0.1076 -0.1583
  985MOL0     C35838  10.774   7.126  -0.085 -0.6719  0.2743  0.4654
  985MOL0     C35839  10.658   7.117  -0.001 -0.5289 -1.0321  0.0933
  985MOL0     O35840  10.651   7.033   0.345 -0.1688 -0.0671  0.0541
  985MOL0     C35841  10.432   7.038   0.502  0.1938 -0.1731  0.2948
  985MOL0     C35842  10.328   7.056   0.591 -0.4073  0.0970 -1.1322
  985MOL0     N35843   9.783   7.606   0.931  0.0373  0.2761  0.3842
  985MOL0     N35844   9.846   7.717   0.898 -1.3374 -0.1216 -0.5398
  985MOL0     C35845   8.894   7.916   0.307  0.0570  0.7593 -0.2960
  985MOL0     C35846   8.757   7.923   0.328  0.0987 -0.3298 -1.1078
  985MOL0     C35847   8.374   7.988   0.395  0.3518 -0.6286 -0.4542
  985MOL0     C35848   8.360   7.899   0.288  0.4978  0.3173  0.1085
  985MOL0     C35849   8.240   7.894   0.211 -0.0904 -0.6326 -0.7275
  985MOL0     C35850   8.130   7.973   0.258 -0.2091 -0.1013  0.0502
  985MOL0     O35851   7.996   7.960   0.209 -0.0109 -0.0854  0.7808
  985MOL0     C35852   7.958   7.838   0.138 -0.7034 -0.4826 -0.4491
  985MOL0     C35853   7.812   7.829   0.111  0.0486  0.1859 -0.3729
  985MOL0     C35854   7.737   7.953   0.046  0.2386 -0.3654  0.2409
  985MOL0     C35855   7.771   7.960  -0.104 -0.4390 -0.1496 -0.7043
  985MOL0     C35856   7.682   8.048  -0.177  0.0894 -0.1356  0.4859
  985MOL0     C35857   7.615   8.123  -0.248  0.0707  0.2490  0.8600
  985MOL0     C35858   8.145   8.052   0.367 -0.2265  0.3168  0.0040
  985MOL0     C35859   8.265   8.070   0.431  0.2564 -0.5355  0.5169
  985MOL0     C35860   8.272   8.146   0.560  0.3474  0.4291 -0.3173
  985MOL0     H35861   8.743   7.824   0.649  0.1525  0.9201  0.5038
  985MOL0     H35862   8.992   7.827   0.620  0.3516  0.2208  0.4480
  985MOL0     H35863   9.207   7.767   0.525 -2.8447  0.0091 -0.8266
  985MOL0     H35864   9.187   7.942   0.562 -1.3766  0.2655  0.4262
  985MOL0     H35865   9.358   7.801   0.350  0.8208 -0.2309  0.8184
  985MOL0     H35866   9.359   7.976   0.381  1.8774 -2.3065 -1.7539
  985MOL0     H35867   9.429   7.922   0.623  1.9019 -0.2631 -0.5398
  985MOL0     H35868   9.466   7.755   0.563  1.8995  0.3940 -1.5436
  985MOL0     H35869   9.597   7.826   0.411  3.2818 -0.5585  0.7195
  985MOL0     H35870   9.596   7.996   0.439 -0.9761 -0.3233  0.0567
  985MOL0     H35871   9.680   7.774   0.624 -0.1438  0.1354 -0.1761
  985MOL0     H35872   9.671   7.941   0.682 -1.7593  1.6705 -0.2788
  985MOL0     H35873   9.865   7.848   0.452  1.8209  1.5819  0.3669
  985MOL0     H35874   9.823   8.006   0.482 -0.8749  1.9164  2.9036
  985MOL0     H35875   9.912   7.996   0.718 -0.9340  1.5455 -0.6582
  985MOL0     H35876  10.026   7.983   0.587 -0.3916 -0.1943  1.0241
  985MOL0     H35877  10.052   7.747   0.627 -3.0937 -0.1761 -2.6160
  985MOL0     H35878  10.066   7.846   0.785 -0.9974  1.8286  0.0608
  985MOL0     H35879   9.893   7.546   0.628  0.0255  1.0943 -0.6285
  985MOL0     H35880   9.616   7.420   0.782  0.0205 -3.4001 -3.2185
  985MOL0     H35881   9.707   7.331   0.898  0.5216  0.5578  1.0779
  985MOL0     H35882   9.698   7.214   0.691 -0.2290  0.1398 -3.3808
  985MOL0     H35883   9.764   7.356   0.606 -2.5500 -0.0827 -0.1944
  985MOL0     H35884   9.974   7.331   0.745 -1.1017 -0.7182  1.0981
  985MOL0     H35885   9.910   7.163   0.785 -1.2773 -1.2939 -0.7866
  985MOL0     H35886   9.914   7.129   0.531  0.0563  0.3809 -0.0588
  985MOL0     H35887  10.001   7.281   0.522 -2.6633  1.6509  0.4115
  985MOL0     H35888  10.109   7.210   0.373  0.5551  0.7016 -1.2249
  985MOL0     H35889  10.385   7.275   0.203  1.9307 -1.7561 -1.5850
  985MOL0     H35890  10.213   7.246   0.161  0.3684 -2.0231 -1.8264
  985MOL0     H35891  10.322   7.138   0.102 -2.8586  0.7587 -1.6983
  985MOL0     H35892  10.696   6.812   0.128 -3.1241  1.2340  0.8622
  985MOL0     H35893  10.911   6.823  -0.017  1.2842  1.0098  0.7700
  985MOL0     H35894  10.972   7.205  -0.263  2.9432 -0.8276  1.0291
  985MOL0     H35895  11.084   7.086  -0.314 -0.3892 -3.7151  1.8702
  985MOL0     H35896  10.794   7.052  -0.368  1.5255 -1.7258 -0.5187
  985MOL0     H35897  10.910   7.133  -0.479  2.3740 -0.2385 -0.5118
  985MOL0     H35898  10.957   6.860  -0.385 -1.4962  0.8088  1.2047
  985MOL0     H35899  11.044   6.941  -0.514  0.1208  1.9029  0.5736
  985MOL0     H35900  10.858   6.972  -0.649 -1.4546  1.2063  0.6638
  985MOL0     H35901  10.749   6.893  -0.529 -1.4790  1.3311 -2.4016
  985MOL0     H35902  10.983   6.759  -0.681 -0.7951  3.8009 -3.3179
  985MOL0     H35903  10.879   6.681  -0.553 -0.6993  1.1086 -0.1957
  985MOL0     H35904  10.778   6.796  -0.814 -0.0033  1.9791  2.8560
  985MOL0     H35905  10.681   6.762  -0.682  0.3031 -0.5905  2.4903
  985MOL0     H35906  10.729   6.530  -0.694 -0.8018  0.5375 -0.0613
  985MOL0     H35907  10.875   6.549  -0.805  0.6689  0.8297 -1.3190
  985MOL0     H35908  10.596   6.616  -0.897  0.6269 -0.8210  0.5441
  985MOL0     H35909  10.654   6.460  -0.923 -1.8512  0.6030  1.4456
  985MOL0     H35910  10.781   7.206  -0.158 -2.2048 -0.6205 -0.7293
  985MOL0     H35911  10.590   7.202  -0.005 -0.7096 -0.9471  3.0680
  985MOL0     H35912  10.524   6.999   0.545 -0.4151  0.3320  2.1602
  985MOL0     H35913  10.345   7.028   0.694  0.9904  0.2629 -1.2997
  985MOL0     H35914   8.933   7.940   0.208 -1.0000 -2.4414 -1.6346
  985MOL0     H35915   8.700   7.955   0.241  0.3709 -2.6631 -2.2264
  985MOL0     H35916   8.432   7.831   0.244  3.2491  1.7893  2.0601
  985MOL0     H35917   8.234   7.829   0.125  0.8989  0.0945 -1.3590
  985MOL0     H35918   8.001   7.843   0.038 -1.1894 -3.2366 -0.8724
  985MOL0     H35919   8.005   7.752   0.185  0.6900  0.3454 -0.2724
  985MOL0     H35920   7.768   7.799   0.207  0.3918 -1.2974 -0.6532
  985MOL0     H35921   7.792   7.752   0.037 -2.3035 -0.2336  0.6057
  985MOL0     H35922   7.630   7.944   0.064  0.7964 -2.9926  3.1321
  985MOL0     H35923   7.766   8.050   0.087  0.4391 -0.4719  0.3517
  985MOL0     H35924   7.772   7.861  -0.151  4.1988  0.1927 -1.8373
  985MOL0     H35925   7.872   8.003  -0.112 -1.7824  3.1213 -1.5655
  985MOL0     H35926   7.551   8.192  -0.299  1.9102  2.1685  1.0092
  985MOL0     H35927   8.049   8.097   0.391 -1.0559 -0.9845 -0.7593
  985MOL0     H35928   8.354   8.218   0.549 -0.7862  2.0556  1.2890
  985MOL0     H35929   8.187   8.209   0.587 -0.3425 -0.3565 -0.6172
  985MOL0     H35930   8.295   8.083   0.647  3.4754  0.3518 -1.0704
  986MOL0     O35931   3.534   3.309  11.255  0.0450 -0.0475 -0.2688
  986MOL0     C35932   3.536   3.415  11.322  0.0197 -0.4637  1.0181
  986MOL0     O35933   3.645   3.502  11.324 -0.6924  0.0658 -0.1299
  986MOL0     C35934   3.767   3.473  11.265 -0.5181  0.3193 -0.5579
  986MOL0     C35935   3.856   3.576  11.237  0.1399 -0.3773 -0.3929
  986MOL0     C35936   3.976   3.551  11.170 -0.6480 -0.1655  0.0161
  986MOL0     C35937   4.027   3.417  11.152  0.4571 -0.9956  0.8094
  986MOL0     O35938   4.156   3.410  11.097  0.5594 -0.1342  0.5452
  986MOL0     C35939   4.186   3.281  11.031 -0.0655 -0.1905 -0.8819
  986MOL0     C35940   4.331   3.283  10.971 -0.4470  0.7365 -0.6974
  986MOL0     C35941   4.447   3.272  11.077  0.4037 -0.0123  0.3212
  986MOL0     C35942   4.573   3.212  11.013  0.1771  1.0917  0.8265
  986MOL0     C35943   4.699   3.290  11.011  0.4529 -0.7825 -0.0608
  986MOL0     C35944   4.683   3.414  10.921  0.6113  0.5597 -0.3565
  986MOL0     C35945   4.811   3.471  10.864 -0.5902  0.2615 -0.1833
  986MOL0     C35946   4.891   3.523  10.989 -0.3171  0.5542  0.4388
  986MOL0     N35947   5.020   3.574  10.944 -0.7682 -0.5746  0.0932
  986MOL0     C35948   5.070   3.697  10.977  0.4512  0.3787 -0.1998
  986MOL0     C35949   5.202   3.694  10.951 -0.3807  0.2087 -0.1270
  986MOL0     C35950   5.290   3.812  10.968 -0.1583  0.4690  0.1083
  986MOL0     C35951   5.439   3.812  10.935 -0.1395  0.2712 -0.7156
  986MOL0     C35952   5.506   3.702  11.024 -0.1328  0.0438  1.0044
  986MOL0     C35953   5.649   3.729  11.026  0.1008 -0.7118 -0.4654
  986MOL0     O35954   5.703   3.710  10.898  0.8672  0.4186  0.2350
  986MOL0     C35955   5.837   3.739  10.877 -0.1126 -0.6512  0.1864
  986MOL0     C35956   5.924   3.775  10.975 -0.0453  0.0372 -0.7265
  986MOL0     C35957   6.062   3.789  10.955 -0.9178 -0.0418 -0.3127
  986MOL0     C35958   6.152   3.820  11.072 -0.0303  0.3769 -0.9602
  986MOL0     C35959   6.105   3.787  10.817  0.0192 -0.2868 -0.3808
  986MOL0     C35960   6.243   3.820  10.784  0.0072  0.0344  0.4403
  986MOL0     O35961   6.343   3.787  10.876 -0.6778  0.4777  0.7968
  986MOL0     C35962   6.473   3.815  10.866  0.1091 -0.1871 -0.2073
  986MOL0     C35963   6.535   3.915  10.791  0.5568 -0.3211  0.2997
  986MOL0     C35964   6.671   3.945  10.801 -0.0364  0.2593 -0.0308
  986MOL0     C35965   6.754   3.865  10.875  0.2185  0.3420  0.3645
  986MOL0     O35966   6.891   3.862  10.892 -0.9084  0.1350 -0.1260
  986MOL0     C35967   6.966   3.988  10.867  0.4084 -0.6079 -0.1434
  986MOL0     C35968   7.107   3.995  10.933  0.1133  1.2933 -0.5725
  986MOL0     C35969   7.203   4.075  10.853 -0.0717  0.1859  0.0492
  986MOL0     C35970   7.157   4.222  10.830  0.5964  0.3179  0.7839
  986MOL0     C35971   7.265   4.329  10.822 -1.1909  0.3019  0.3712
  986MOL0     C35972   7.215   4.443  10.737  0.6188  0.2177  0.6135
  986MOL0     C35973   7.204   4.426  10.582 -0.4779  0.4970 -0.3819
  986MOL0     C35974   7.171   4.554  10.507  0.0972 -0.2459 -0.0871
  986MOL0    Cl35975   7.314   4.629  10.447 -0.3333  0.0915  0.0064
  986MOL0     C35976   6.694   3.743  10.943 -0.9551 -0.0705 -0.0318
  986MOL0     C35977   6.557   3.728  10.934  0.0629 -1.3301 -0.9429
  986MOL0     O35978   6.259   3.875  10.675 -0.1514  0.0110  0.8144
  986MOL0     C35979   6.015   3.768  10.711 -0.1258  0.2697  0.3538
  986MOL0     C35980   5.883   3.733  10.739 -0.0377  0.4768 -0.1732
  986MOL0     N35981   5.237   3.570  10.900 -0.3833  0.5041  0.2575
  986MOL0     N35982   5.120   3.503  10.893 -1.1631 -0.0857 -0.2495
  986MOL0     C35983   3.947   3.317  11.210  0.0514  0.2002 -0.5051
  986MOL0     C35984   3.814   3.341  11.250  0.0610 -0.1403  0.6749
  986MOL0     C35985   3.412   3.451  11.394  0.2082  0.5109  0.2421
  986MOL0     C35986   3.302   3.355  11.408 -0.8277 -0.1435 -0.0601
  986MOL0     C35987   3.193   3.384  11.483  0.2144  0.0386  0.2233
  986MOL0     C35988   3.175   3.506  11.552 -1.4054  0.8670 -0.6237
  986MOL0     O35989   3.077   3.543  11.632 -0.5182 -0.0533  0.8649
  986MOL0     C35990   2.968   3.460  11.651  1.4723  0.3528 -0.0064
  986MOL0     C35991   2.859   3.547  11.714 -0.1959  0.2658  0.6773
  986MOL0     C35992   2.734   3.468  11.742 -0.6364 -0.9148  0.1191
  986MOL0     C35993   2.614   3.563  11.748  0.4438 -1.0934 -0.6101
  986MOL0     C35994   2.489   3.497  11.761 -0.9303 -0.2060 -0.2154
  986MOL0     C35995   2.382   3.436  11.778 -0.4008 -0.1600  0.3638
  986MOL0     C35996   3.270   3.604  11.519 -0.0384  1.2751 -0.8464
  986MOL0     C35997   3.391   3.579  11.445  0.2004 -0.2544  0.5411
  986MOL0     C35998   3.486   3.697  11.444 -0.6733 -0.5357  0.1930
  986MOL0     H35999   3.829   3.681  11.243  3.5086  0.5703  0.2862
  986MOL0     H36000   4.036   3.639  11.149 -0.9930 -0.3809 -2.1036
  986MOL0     H36001   4.100   3.266  10.965  1.1573 -2.3399 -2.0567
  986MOL0     H36002   4.185   3.200  11.105 -0.9128  1.1044  0.6132
  986MOL0     H36003   4.323   3.196  10.905  1.0437  1.5046 -1.9583
  986MOL0     H36004   4.341   3.366  10.901 -0.9294 -0.7989 -2.7026
  986MOL0     H36005   4.468   3.369  11.122 -0.7908  0.0901  0.6837
  986MOL0     H36006   4.414   3.203  11.156  0.9864  1.4772  1.9417
  986MOL0     H36007   4.595   3.120  11.069  0.3808  1.7791  1.9113
  986MOL0     H36008   4.544   3.171  10.916  1.1454 -0.0091  0.9768
  986MOL0     H36009   4.780   3.226  10.975  0.6070 -0.1183 -0.9240
  986MOL0     H36010   4.729   3.321  11.112 -1.8608  1.2118  0.1173
  986MOL0     H36011   4.632   3.385  10.828 -2.3618  2.5954  0.5152
  986MOL0     H36012   4.620   3.485  10.974  0.6536  0.9928 -0.8789
  986MOL0     H36013   4.791   3.542  10.784  2.0019  3.6890  1.9143
  986MOL0     H36014   4.882   3.398  10.823  0.4647  1.4467 -0.5099
  986MOL0     H36015   4.833   3.606  11.032  0.4850  1.6120 -0.4538
  986MOL0     H36016   4.921   3.442  11.055 -0.2561 -1.6550 -2.1283
  986MOL0     H36017   5.020   3.788  11.008  1.7357  1.3299 -0.8341
  986MOL0     H36018   5.286   3.828  11.076 -0.8309 -0.8698  0.2969
  986MOL0     H36019   5.239   3.896  10.921 -0.2517  0.2079 -0.2588
  986MOL0     H36020   5.454   3.795  10.828  1.3598  3.3018 -1.0740
  986MOL0     H36021   5.484   3.911  10.946 -2.6209  1.4400 -0.2680
  986MOL0     H36022   5.477   3.721  11.127  0.4277  0.6555  1.0554
  986MOL0     H36023   5.487   3.598  10.993  0.8557  0.0678  0.2530
  986MOL0     H36024   5.667   3.827  11.071 -4.1008 -0.2778  0.6476
  986MOL0     H36025   5.692   3.647  11.085 -0.8124 -2.0894 -1.6708
  986MOL0     H36026   5.886   3.779  11.077  0.7292  2.3574 -0.4660
  986MOL0     H36027   6.092   3.807  11.163  2.1868 -0.0355  0.5306
  986MOL0     H36028   6.195   3.920  11.061  1.8425 -0.0723  1.3391
  986MOL0     H36029   6.232   3.747  11.083 -0.4632 -0.1700 -1.3728
  986MOL0     H36030   6.483   3.988  10.730  0.3950  0.7407  1.6588
  986MOL0     H36031   6.703   4.033  10.747 -1.2206  0.4021 -0.5204
  986MOL0     H36032   6.979   3.994  10.758 -0.6410 -3.2029 -0.5033
  986MOL0     H36033   6.917   4.084  10.885 -0.3419 -1.1737  0.9556
  986MOL0     H36034   7.082   4.028  11.034 -0.2737  0.2336 -0.3072
  986MOL0     H36035   7.145   3.893  10.931 -1.6141  0.6251 -1.9376
  986MOL0     H36036   7.224   4.028  10.756  0.5782  3.4829 -1.5819
  986MOL0     H36037   7.297   4.090  10.907  0.4505 -0.1034 -0.7620
  986MOL0     H36038   7.090   4.255  10.909 -0.6851  2.6249 -1.1335
  986MOL0     H36039   7.108   4.218  10.732  1.6398 -0.6761  0.2797
  986MOL0     H36040   7.290   4.361  10.923  0.6326  2.8974 -0.7813
  986MOL0     H36041   7.350   4.297  10.762 -0.5599  2.6637 -0.0995
  986MOL0     H36042   7.289   4.522  10.753  1.0002  0.4799 -2.0371
  986MOL0     H36043   7.120   4.484  10.772  0.9091  0.3589  1.2602
  986MOL0     H36044   7.120   4.361  10.559 -0.9444  0.5207  1.1138
  986MOL0     H36045   7.302   4.386  10.554 -0.4607 -0.2957  0.7169
  986MOL0     H36046   7.127   4.617  10.586  2.4140  0.3262  0.8108
  986MOL0     H36047   7.105   4.531  10.422 -2.2794 -0.8175  1.7737
  986MOL0     H36048   6.756   3.668  10.992  0.8953 -0.0838 -2.1823
  986MOL0     H36049   6.515   3.643  10.986 -0.7648 -0.9274 -0.9351
  986MOL0     H36050   6.044   3.769  10.607 -0.6116  0.9205  0.2143
  986MOL0     H36051   5.816   3.691  10.666  2.6817 -1.3698 -1.7937
  986MOL0     H36052   3.986   3.215  11.215  1.3631  0.5811 -2.2717
  986MOL0     H36053   3.751   3.256  11.273  0.2682 -1.0879 -1.8998
  986MOL0     H36054   3.305   3.260  11.355 -1.7095  0.8383 -1.9601
  986MOL0     H36055   3.127   3.301  11.506 -2.5874  1.3067 -2.4594
  986MOL0     H36056   2.937   3.412  11.558  0.4438 -1.8606  1.3894
  986MOL0     H36057   2.990   3.383  11.725 -0.2372  1.2901  1.5697
  986MOL0     H36058   2.839   3.623  11.639 -0.7207  0.3087  0.8599
  986MOL0     H36059   2.888   3.600  11.805 -1.3972 -0.5453  1.5535
  986MOL0     H36060   2.727   3.391  11.664  3.1783 -0.5463 -0.7444
  986MOL0     H36061   2.755   3.406  11.830  1.2456 -1.0512 -0.3996
  986MOL0     H36062   2.605   3.620  11.655 -0.3064  0.7485  0.5514
  986MOL0     H36063   2.648   3.620  11.834  1.5851 -1.6762 -0.6491
  986MOL0     H36064   2.289   3.383  11.789 -0.1609 -0.5674  0.4710
  986MOL0     H36065   3.249   3.704  11.557  1.0063  2.0571 -2.2145
  986MOL0     H36066   3.520   3.717  11.342  0.7004  0.4289  0.8222
  986MOL0     H36067   3.452   3.785  11.498  1.0077  0.1463  0.1956
  986MOL0     H36068   3.576   3.675  11.502  0.6309  1.6514 -0.8782
  987MOL0     O36069   1.053  10.878   1.260  0.2614  0.9287 -0.2933
  987MOL0     C36070   0.996  10.766   1.287 -0.5537 -0.9660 -0.0510
  987MOL0     O36071   1.041  10.640   1.265 -0.1056 -0.1379  0.5879
  987MOL0     C36072   1.170  10.608   1.217  0.8242  0.0069 -0.8015
  987MOL0     C36073   1.212  10.473   1.229  0.7277 -0.2167 -1.1657
  987MOL0     C36074   1.347  10.436   1.195 -0.0850  0.3855 -0.3341
  987MOL0     C36075   1.438  10.529   1.157 -0.4751  0.0262 -0.1240
  987MOL0     O36076   1.563  10.479   1.123  0.1954  0.4678  0.2474
  987MOL0     C36077   1.675  10.538   1.204 -0.2437 -0.2308 -0.6919
  987MOL0     C36078   1.752  10.415   1.263 -0.2415 -0.1806  0.8696
  987MOL0     C36079   1.849  10.450   1.386 -0.7782  0.4237 -0.9377
  987MOL0     C36080   1.944  10.564   1.349 -0.1341  0.0403  0.2562
  987MOL0     C36081   2.040  10.593   1.472  0.8856 -0.3652 -0.6906
  987MOL0     C36082   2.144  10.707   1.437  0.5515 -0.0593 -0.2898
  987MOL0     C36083   2.219  10.757   1.558  0.9070 -0.2965 -0.1183
  987MOL0     C36084   2.348  10.824   1.504 -0.5906  0.3322  0.1070
  987MOL0     N36085   2.334  10.945   1.430 -0.1466  0.0925  0.4727
  987MOL0     C36086   2.403  10.977   1.312  0.3810  0.6251  0.5210
  987MOL0     C36087   2.410  11.111   1.311 -0.4041 -0.2097  0.5771
  987MOL0     C36088   2.481  11.182   1.206 -0.8369  0.8601  0.2915
  987MOL0     C36089   2.440  11.317   1.184 -0.1414 -0.2933 -0.0314
  987MOL0     C36090   2.505  11.420   1.267  0.8030 -0.7428  0.4387
  987MOL0     C36091   2.438  11.560   1.232  1.1231  1.0267  0.1500
  987MOL0     O36092   2.522  11.651   1.306  0.0177  0.0864  0.5029
  987MOL0     C36093   2.653  11.672   1.264  0.4527 -0.0243 -0.3302
  987MOL0     C36094   2.682  11.704   1.126  0.6665 -0.4608 -0.2278
  987MOL0     C36095   2.807  11.756   1.087  0.4509  0.5005  0.2423
  987MOL0     C36096   2.825  11.789   0.936  0.0107  0.2915  0.5277
  987MOL0     C36097   2.906  11.774   1.183  0.4477  0.5521  0.3816
  987MOL0     C36098   3.043  11.821   1.140  0.2332  0.1073 -0.1885
  987MOL0     O36099   3.101  11.754   1.040  0.1865 -0.4512 -0.2450
  987MOL0     C36100   3.233  11.763   0.999  1.1363 -0.3467  0.0742
  987MOL0     C36101   3.261  11.706   0.873 -0.0658  0.1857 -0.0902
  987MOL0     C36102   3.387  11.691   0.823 -0.7485  0.4583  0.4054
  987MOL0     C36103   3.498  11.731   0.897  1.1679  0.1271  0.1347
  987MOL0     O36104   3.624  11.720   0.847 -0.8314  0.8336 -0.6179
  987MOL0     C36105   3.715  11.811   0.901 -0.2433 -0.4963 -1.1091
  987MOL0     C36106   3.831  11.833   0.804  0.1366 -0.4385  0.0959
  987MOL0     C36107   3.955  11.748   0.828 -0.2411 -0.8547  0.3449
  987MOL0     C36108   4.062  11.759   0.722  0.1723  0.2172 -0.2151
  987MOL0     C36109   4.186  11.665   0.744  0.9741 -0.2371 -0.4256
  987MOL0     C36110   4.312  11.709   0.661  0.0898  0.2145  0.4493
  987MOL0     C36111   4.282  11.719   0.507 -0.3507  0.8195  1.2607
  987MOL0     C36112   4.410  11.747   0.427 -0.4073  0.0256 -0.5713
  987MOL0    Cl36113   4.538  11.622   0.443 -0.5545 -0.1867  0.1776
  987MOL0     C36114   3.466  11.788   1.023 -0.4014  0.2484  0.0696
  987MOL0     C36115   3.339  11.811   1.074  0.0569 -1.1283  0.7519
  987MOL0     O36116   3.093  11.919   1.201  0.0847 -0.2898  0.4561
  987MOL0     C36117   2.874  11.763   1.321  0.1143 -0.7746  0.0717
  987MOL0     C36118   2.749  11.704   1.360  0.4225 -0.8472  0.7459
  987MOL0     N36119   2.338  11.163   1.412 -0.1305 -0.3562  0.0055
  987MOL0     N36120   2.290  11.069   1.474  0.0181 -0.5229 -0.7927
  987MOL0     C36121   1.409  10.663   1.171 -0.6109  0.4837  1.0803
  987MOL0     C36122   1.277  10.700   1.189  1.0074 -0.4012 -0.3655
  987MOL0     C36123   0.854  10.776   1.331 -0.0519  0.1783 -1.3893
  987MOL0     C36124   0.766  10.695   1.258 -0.6707 -0.1988  0.4480
  987MOL0     C36125   0.628  10.702   1.291 -1.1460  0.0180 -0.1740
  987MOL0     C36126   0.587  10.783   1.387 -0.1778  0.6747  0.6228
  987MOL0     O36127   0.457  10.781   1.429  0.3097 -1.0576 -0.8568
  987MOL0     C36128   0.350  10.710   1.362 -0.8631  0.1386  0.4619
  987MOL0     C36129   0.306  10.776   1.229  0.6658 -0.2925 -0.4972
  987MOL0     C36130   0.230  10.921   1.253  0.2944 -0.2657  0.2946
  987MOL0     C36131   0.182  10.959   1.118  0.1993  0.3143  1.1245
  987MOL0     C36132   0.296  11.014   1.042  0.8374  0.7739 -1.0151
  987MOL0     C36133   0.386  11.053   0.975 -0.0494 -0.8548  0.0969
  987MOL0     C36134   0.666  10.877   1.449  0.1844 -0.1385  0.3007
  987MOL0     C36135   0.801  10.866   1.428 -0.1520 -0.6255  0.3581
  987MOL0     C36136   0.881  10.968   1.489  0.1285 -0.1549  0.2453
  987MOL0     H36137   1.138  10.397   1.250  2.2191 -1.1356  1.2090
  987MOL0     H36138   1.373  10.331   1.191 -5.5294 -1.2565  0.5049
  987MOL0     H36139   1.628  10.594   1.286 -1.6842 -0.6987 -1.1638
  987MOL0     H36140   1.737  10.605   1.144 -1.5763  3.3401  1.5905
  987MOL0     H36141   1.692  10.330   1.298 -0.4402  0.6717  2.7341
  987MOL0     H36142   1.811  10.375   1.180 -2.6641 -0.7028 -0.7200
  987MOL0     H36143   1.790  10.490   1.470  1.4988  1.1598  0.4089
  987MOL0     H36144   1.908  10.364   1.418  0.8043  2.1375  1.0675
  987MOL0     H36145   1.989  10.546   1.251 -0.9955  5.0700 -1.3385
  987MOL0     H36146   1.879  10.649   1.327 -0.8178 -0.6725 -0.5150
  987MOL0     H36147   2.084  10.498   1.505  2.1226  0.5038  0.2378
  987MOL0     H36148   1.977  10.627   1.555 -1.7844 -2.1098 -1.8505
  987MOL0     H36149   2.206  10.668   1.356 -1.4952 -1.5630 -1.1945
  987MOL0     H36150   2.088  10.791   1.394  0.1900 -1.2323 -2.2044
  987MOL0     H36151   2.238  10.672   1.624  2.5276 -0.3927 -0.6740
  987MOL0     H36152   2.158  10.830   1.612  0.3840 -2.2165  2.0616
  987MOL0     H36153   2.423  10.842   1.582  1.1849 -2.3985 -0.8279
  987MOL0     H36154   2.400  10.757   1.434  0.7728  1.4594 -0.0079
  987MOL0     H36155   2.460  10.909   1.249  3.3514  1.3228  2.2804
  987MOL0     H36156   2.471  11.127   1.112  2.8666 -0.0535  0.2663
  987MOL0     H36157   2.589  11.172   1.218 -0.7702  1.9818  0.7848
  987MOL0     H36158   2.458  11.348   1.080  0.5329  1.4756  0.5704
  987MOL0     H36159   2.333  11.322   1.206  0.4190  0.8345  2.8326
  987MOL0     H36160   2.493  11.403   1.374 -1.6157 -0.0539  0.3368
  987MOL0     H36161   2.611  11.419   1.241  1.2611  0.1325  2.1289
  987MOL0     H36162   2.451  11.569   1.123 -1.3621  2.1465 -0.1089
  987MOL0     H36163   2.332  11.565   1.257  0.4693 -2.7343 -1.1622
  987MOL0     H36164   2.611  11.701   1.044  1.1077 -0.4668 -0.6165
  987MOL0     H36165   2.898  11.865   0.909 -0.7406  0.9662  0.3779
  987MOL0     H36166   2.733  11.818   0.885 -1.1810 -3.6914  0.0461
  987MOL0     H36167   2.856  11.700   0.880 -0.8774  0.4722 -0.2680
  987MOL0     H36168   3.190  11.651   0.812 -0.7908 -2.1081  2.6049
  987MOL0     H36169   3.398  11.640   0.727  0.5303  1.2578  0.0992
  987MOL0     H36170   3.671  11.910   0.918  0.0870 -0.5119 -0.0336
  987MOL0     H36171   3.743  11.766   0.997 -0.5633  2.7677  0.6923
  987MOL0     H36172   3.790  11.825   0.703  2.8168  2.4596 -1.3855
  987MOL0     H36173   3.865  11.937   0.815  0.1258 -0.4112 -0.1378
  987MOL0     H36174   3.932  11.642   0.845 -3.9330 -0.0859  0.9827
  987MOL0     H36175   3.990  11.782   0.926 -0.6357  0.8151 -0.0758
  987MOL0     H36176   4.094  11.861   0.699  0.4214  0.2503  0.2794
  987MOL0     H36177   4.025  11.722   0.626  1.5840  0.9566 -1.0891
  987MOL0     H36178   4.214  11.674   0.849 -0.4579  1.2855 -0.1297
  987MOL0     H36179   4.153  11.563   0.725  2.7252 -1.2739  1.6443
  987MOL0     H36180   4.387  11.630   0.673 -0.2805 -0.7191 -2.5307
  987MOL0     H36181   4.338  11.805   0.707 -2.1735 -0.1118  2.5995
  987MOL0     H36182   4.209  11.797   0.486 -0.7685 -0.3575 -2.2617
  987MOL0     H36183   4.243  11.623   0.473  0.5154  0.3075  1.6552
  987MOL0     H36184   4.449  11.843   0.460  1.5825  0.1831 -3.0520
  987MOL0     H36185   4.380  11.752   0.321  0.4594  1.0949 -0.7757
  987MOL0     H36186   3.547  11.831   1.081 -0.9031 -0.5676  1.4403
  987MOL0     H36187   3.330  11.848   1.176 -2.3813  1.2750 -0.2058
  987MOL0     H36188   2.954  11.788   1.391  0.0869  1.8428 -0.7119
  987MOL0     H36189   2.724  11.690   1.465 -1.2357  1.1090  0.6682
  987MOL0     H36190   1.487  10.737   1.153 -1.9080  1.1276 -2.7028
  987MOL0     H36191   1.269  10.808   1.193 -1.9872 -0.5346 -0.2743
  987MOL0     H36192   0.818  10.626   1.193  0.9730  0.4775  0.9816
  987MOL0     H36193   0.561  10.636   1.237 -0.4413 -1.9310  1.1980
  987MOL0     H36194   0.365  10.604   1.340  2.7261  0.6520 -0.2084
  987MOL0     H36195   0.267  10.728   1.430 -0.4124 -0.4293  1.1754
  987MOL0     H36196   0.240  10.709   1.173  0.1792  1.3356 -1.9166
  987MOL0     H36197   0.394  10.790   1.167  0.5483  0.2815 -0.5332
  987MOL0     H36198   0.148  10.913   1.325  1.2683 -0.8802  1.3601
  987MOL0     H36199   0.314  10.983   1.284  0.8553 -0.5941 -0.5380
  987MOL0     H36200   0.103  11.035   1.111  0.2547  0.2565 -0.8390
  987MOL0     H36201   0.141  10.872   1.066  1.1055  0.8324 -0.5271
  987MOL0     H36202   0.464  11.097   0.917  0.5097  1.0971  2.1760
  987MOL0     H36203   0.624  10.952   1.515  0.4392  0.5213 -0.2632
  987MOL0     H36204   0.979  10.929   1.519 -0.0415 -0.0325  0.9910
  987MOL0     H36205   0.894  11.053   1.421 -0.8171 -0.4433 -0.3026
  987MOL0     H36206   0.843  11.014   1.581 -0.5536  2.1747 -1.1276
  988MOL0     O36207  10.298   6.923   9.626 -0.4251 -0.0197  0.2249
  988MOL0     C36208  10.214   6.967   9.552  0.1276 -0.1399 -1.4645
  988MOL0     O36209  10.234   7.018   9.433  0.8339 -0.3166  0.0746
  988MOL0     C36210  10.360   7.062   9.414  0.9293 -0.3238  0.2009
  988MOL0     C36211  10.392   7.200   9.432 -0.0861  0.4243  0.1515
  988MOL0     C36212  10.515   7.240   9.396 -0.4557 -0.2516  0.0385
  988MOL0     C36213  10.616   7.151   9.358 -0.3439 -0.1306  0.4528
  988MOL0     O36214  10.740   7.200   9.337 -0.3548  0.4349  0.1466
  988MOL0     C36215  10.817   7.246   9.452  0.3687 -0.4877 -1.4012
  988MOL0     C36216  10.923   7.336   9.400 -0.6074 -0.7133 -0.0862
  988MOL0     C36217  11.067   7.291   9.437 -0.3064 -0.1058  0.1260
  988MOL0     C36218  11.113   7.346   9.577  0.8004  0.4528 -0.7071
  988MOL0     C36219  11.232   7.268   9.631 -0.0440  0.1780 -1.0217
  988MOL0     C36220  11.348   7.257   9.533  0.0761  0.0301 -0.0023
  988MOL0     C36221  11.480   7.227   9.601  0.0586  0.7282 -0.4041
  988MOL0     C36222  11.483   7.090   9.671 -0.1749 -0.6383 -0.5724
  988MOL0     N36223  11.590   7.069   9.764  0.8388  0.6081  0.4201
  988MOL0     C36224  11.640   7.154   9.856 -0.0431  0.3382 -0.8666
  988MOL0     C36225  11.742   7.083   9.916 -0.4536 -0.6065 -0.2899
  988MOL0     C36226  11.832   7.129  10.028 -0.8535 -0.0662 -0.2381
  988MOL0     C36227  11.973   7.141   9.976 -0.3522 -0.4404  0.5114
  988MOL0     C36228  12.062   7.205  10.079  0.3607 -0.1752 -0.2665
  988MOL0     C36229  12.199   7.203  10.037 -0.7284 -0.5187  0.0094
  988MOL0     O36230  12.263   7.077  10.063 -0.6732  0.3033 -0.2958
  988MOL0     C36231  12.398   7.074  10.027 -0.5076  0.7318 -0.1610
  988MOL0     C36232  12.480   7.179   9.992  0.6008 -0.7605 -0.1816
  988MOL0     C36233  12.609   7.160   9.951 -0.7569 -0.7775 -0.2567
  988MOL0     C36234  12.682   7.290   9.896 -0.1259  0.4553  0.2738
  988MOL0     C36235  12.669   7.032   9.957  0.6024 -0.1901 -0.5821
  988MOL0     C36236  12.804   6.997   9.916  0.1649 -0.6602 -0.1680
  988MOL0     O36237  12.831   6.866   9.892 -0.0426 -0.4566  0.0865
  988MOL0     C36238  12.914   6.823   9.788 -0.7957  0.1878 -0.2872
  988MOL0     C36239  12.908   6.689   9.746 -0.1926 -0.3327 -0.0729
  988MOL0     C36240  12.971   6.635   9.635  0.2365  0.0397 -0.3155
  988MOL0     C36241  13.049   6.714   9.547 -0.0235 -0.2383 -0.3763
  988MOL0     O36242  13.106   6.671   9.427 -0.0415 -0.5778  0.0402
  988MOL0     C36243  13.110   6.533   9.391  0.3333 -0.2836  0.3320
  988MOL0     C36244  13.166   6.525   9.248  0.8281  0.4228  0.0746
  988MOL0     C36245  13.058   6.555   9.139  0.4252  0.9435 -0.0651
  988MOL0     C36246  13.107   6.547   8.991  0.5532 -0.1498 -0.0697
  988MOL0     C36247  13.214   6.652   8.977 -0.3218  0.1123  0.3247
  988MOL0     C36248  13.250   6.688   8.828 -1.1199  0.3189 -0.0586
  988MOL0     C36249  13.129   6.738   8.748 -0.2655 -0.4162  0.0113
  988MOL0     C36250  13.152   6.798   8.611 -0.1824  0.2488  0.2159
  988MOL0    Cl36251  12.998   6.888   8.560  0.1701  0.1543  0.1391
  988MOL0     C36252  13.057   6.844   9.587  0.2370 -0.2637  0.0114
  988MOL0     C36253  12.996   6.896   9.703 -0.0602 -0.9951  0.3924
  988MOL0     O36254  12.888   7.094   9.916  0.2278  0.1472 -0.5341
  988MOL0     C36255  12.594   6.929  10.018 -0.2297  0.0281  0.2758
  988MOL0     C36256  12.457   6.945  10.039 -1.0413  0.6861  1.3183
  988MOL0     N36257  11.756   6.967   9.850 -0.2403 -0.2704  0.3373
  988MOL0     N36258  11.666   6.957   9.758  0.2269  0.3405  0.3400
  988MOL0     C36259  10.576   7.026   9.323 -0.1484 -0.7467  0.0603
  988MOL0     C36260  10.448   6.982   9.340  0.2073  0.2269  0.2280
  988MOL0     C36261  10.077   6.932   9.588 -0.1794  0.4595 -0.5219
  988MOL0     C36262   9.991   7.029   9.641 -0.3363  0.0799 -0.9049
  988MOL0     C36263   9.850   6.994   9.652  0.8208 -0.1883  0.1708
  988MOL0     C36264   9.796   6.876   9.615 -0.5813 -0.0488  0.1094
  988MOL0     O36265   9.655   6.868   9.638 -0.7201  0.4419  0.3741
  988MOL0     C36266   9.577   6.746   9.622 -2.1394 -0.9216 -0.4752
  988MOL0     C36267   9.446   6.748   9.710  0.1647 -0.1643 -0.2350
  988MOL0     C36268   9.360   6.620   9.704 -0.1678 -0.6129 -0.2154
  988MOL0     C36269   9.260   6.630   9.820  0.5527  0.0661 -0.0152
  988MOL0     C36270   9.183   6.757   9.844 -0.3920  0.2312  0.0005
  988MOL0     C36271   9.108   6.857   9.853  0.5895  0.4498  1.3288
  988MOL0     C36272   9.888   6.782   9.564  1.2290 -0.2370  0.9121
  988MOL0     C36273  10.027   6.807   9.543 -0.4289  0.2279 -0.5881
  988MOL0     C36274  10.108   6.709   9.469 -0.0247  0.1701  0.5523
  988MOL0     H36275  10.327   7.274   9.478  0.9062  2.4947 -1.5532
  988MOL0     H36276  10.547   7.343   9.404 -1.8092  0.1263  0.9424
  988MOL0     H36277  10.862   7.158   9.498  0.9280 -0.5528 -2.0567
  988MOL0     H36278  10.754   7.297   9.525 -0.1134 -1.0479 -1.4203
  988MOL0     H36279  10.914   7.348   9.291 -0.1219 -0.6276 -0.1182
  988MOL0     H36280  10.895   7.433   9.441 -0.2199 -1.6798  2.6499
  988MOL0     H36281  11.088   7.185   9.422  2.2702  0.4090 -0.4240
  988MOL0     H36282  11.138   7.327   9.361 -2.9778 -1.5018 -3.3403
  988MOL0     H36283  11.156   7.445   9.563  1.7797  0.0804 -0.4373
  988MOL0     H36284  11.031   7.345   9.649  2.2887  0.7343  1.0845
  988MOL0     H36285  11.204   7.165   9.656 -1.4447  0.6760 -0.4315
  988MOL0     H36286  11.264   7.325   9.718 -1.0920 -2.6212  1.3390
  988MOL0     H36287  11.330   7.193   9.447 -0.1511  1.0785 -0.7607
  988MOL0     H36288  11.358   7.359   9.493  3.2544  1.2619  3.3354
  988MOL0     H36289  11.506   7.301   9.678  2.1886  0.1489 -0.4942
  988MOL0     H36290  11.569   7.215   9.539 -0.9795 -2.8614 -1.4114
  988MOL0     H36291  11.390   7.071   9.726  0.6354 -2.8210  0.1284
  988MOL0     H36292  11.495   7.006   9.603  1.4248  0.6691 -1.9734
  988MOL0     H36293  11.610   7.256   9.881  0.3069  0.1827  0.2385
  988MOL0     H36294  11.831   7.065  10.117 -1.6309 -1.6180 -1.3050
  988MOL0     H36295  11.790   7.227  10.055 -0.7218  0.0265 -0.3670
  988MOL0     H36296  12.020   7.048   9.943  1.4001  1.9574 -4.9904
  988MOL0     H36297  11.976   7.203   9.886 -0.5872  3.7118  3.0849
  988MOL0     H36298  12.039   7.311  10.096  2.7349 -0.0845  3.4254
  988MOL0     H36299  12.048   7.156  10.176 -1.2320 -0.9904 -0.8774
  988MOL0     H36300  12.209   7.235   9.933 -1.7594  0.0592  0.0750
  988MOL0     H36301  12.258   7.273  10.097 -0.9897 -2.2187  2.3933
  988MOL0     H36302  12.453   7.283  10.002 -0.4771 -1.0358 -0.0790
  988MOL0     H36303  12.605   7.362   9.866  1.1254  1.3866 -0.8062
  988MOL0     H36304  12.737   7.278   9.803 -2.7000  0.6079 -1.3663
  988MOL0     H36305  12.755   7.332   9.966 -0.4002 -1.1534  1.5941
  988MOL0     H36306  12.842   6.619   9.796 -3.2103  0.4590 -2.6216
  988MOL0     H36307  12.956   6.528   9.625  0.3156 -0.3747  2.8327
  988MOL0     H36308  13.182   6.474   9.449  0.0211 -0.3593  0.6430
  988MOL0     H36309  13.015   6.480   9.390  0.8885 -1.3269  0.7582
  988MOL0     H36310  13.255   6.588   9.249  1.9474 -1.0969 -0.4418
  988MOL0     H36311  13.195   6.421   9.229 -0.4214  0.2622 -1.1209
  988MOL0     H36312  13.003   6.649   9.146 -0.8136  0.1693  1.1052
  988MOL0     H36313  12.972   6.487   9.147  0.5883  0.8349  0.9241
  988MOL0     H36314  13.030   6.567   8.916 -0.0787 -0.1671  0.5665
  988MOL0     H36315  13.157   6.452   8.969  1.9710  0.6053 -0.2286
  988MOL0     H36316  13.186   6.747   9.024 -2.8555 -0.9299  1.0827
  988MOL0     H36317  13.302   6.613   9.028 -1.5481 -2.2739  0.7413
  988MOL0     H36318  13.288   6.593   8.790 -1.7331 -1.1018  2.6812
  988MOL0     H36319  13.334   6.757   8.838  0.7480 -1.8648  0.0482
  988MOL0     H36320  13.090   6.821   8.808  0.2019  0.6525 -1.1250
  988MOL0     H36321  13.058   6.657   8.732 -0.3871 -0.3098  0.0086
  988MOL0     H36322  13.174   6.728   8.530 -1.4419  1.0732 -0.8679
  988MOL0     H36323  13.227   6.876   8.628 -2.6446  2.3905  1.9209
  988MOL0     H36324  13.107   6.908   9.515 -0.6250 -2.3112 -2.5652
  988MOL0     H36325  13.014   7.002   9.717  3.7594 -1.3570 -0.6616
  988MOL0     H36326  12.634   6.833  10.048 -3.8151 -1.5567  0.5146
  988MOL0     H36327  12.407   6.856  10.076  0.2801 -0.1585  1.1354
  988MOL0     H36328  10.647   6.962   9.271  1.7034 -0.7766  2.4829
  988MOL0     H36329  10.422   6.878   9.319 -1.5256  0.7376 -0.2443
  988MOL0     H36330  10.030   7.124   9.676  0.8387 -1.2774  1.7294
  988MOL0     H36331   9.781   7.064   9.699  0.4496 -0.0725 -0.5247
  988MOL0     H36332   9.548   6.737   9.517  1.1965 -2.3749 -1.3792
  988MOL0     H36333   9.637   6.657   9.643  0.1092  0.7028  0.3604
  988MOL0     H36334   9.376   6.830   9.690  0.6831  0.6892  1.2910
  988MOL0     H36335   9.483   6.742   9.813 -2.7269  2.1734  1.0888
  988MOL0     H36336   9.292   6.610   9.619  0.9011 -0.9573 -1.0499
  988MOL0     H36337   9.426   6.534   9.719 -0.0033 -0.1567  2.0610
  988MOL0     H36338   9.320   6.604   9.908  0.5717 -2.3491 -0.6768
  988MOL0     H36339   9.187   6.549   9.829 -0.7019  1.2971  1.6041
  988MOL0     H36340   9.043   6.942   9.859 -0.3034  0.1707 -2.2079
  988MOL0     H36341   9.844   6.688   9.531 -0.0505  0.4062  0.7072
  988MOL0     H36342  10.064   6.609   9.473  0.2673 -0.1091 -1.5937
  988MOL0     H36343  10.107   6.755   9.369  0.4426 -0.6386  0.1618
  988MOL0     H36344  10.208   6.697   9.511 -0.3215 -0.2161  1.1596
  989MOL0     O36345  10.754   8.895   4.962  0.0719 -0.3150  0.0994
  989MOL0     C36346  10.663   8.816   4.953 -0.2459 -0.3691  0.2812
  989MOL0     O36347  10.673   8.690   4.882  0.7178 -0.0454 -0.7722
  989MOL0     C36348  10.780   8.652   4.809  0.3778  0.1639  0.6716
  989MOL0     C36349  10.919   8.675   4.830  0.5874  1.3986 -0.2872
  989MOL0     C36350  11.018   8.610   4.754 -0.4896  0.4301 -0.4503
  989MOL0     C36351  10.986   8.523   4.650  0.4108 -0.7324  0.6624
  989MOL0     O36352  11.086   8.471   4.576  0.0674  0.2523 -0.0175
  989MOL0     C36353  11.068   8.358   4.484  0.3758  0.9332  0.0413
  989MOL0     C36354  11.184   8.336   4.383 -0.0780 -0.3470 -0.2443
  989MOL0     C36355  11.316   8.339   4.459 -0.3732  0.7732  0.7750
  989MOL0     C36356  11.418   8.263   4.380 -0.5195  0.4457 -0.8244
  989MOL0     C36357  11.565   8.288   4.439  0.6276 -0.8259 -0.0690
  989MOL0     C36358  11.659   8.186   4.360 -0.3760 -0.1513  0.0271
  989MOL0     C36359  11.804   8.182   4.422 -0.2125  0.3552  0.1038
  989MOL0     C36360  11.900   8.137   4.311 -0.6316 -0.2173 -0.5585
  989MOL0     N36361  12.038   8.145   4.362 -0.2219 -0.4468  0.9451
  989MOL0     C36362  12.104   8.047   4.433  0.0394  0.6440  0.4910
  989MOL0     C36363  12.228   8.104   4.462 -0.2413 -0.3714 -0.4591
  989MOL0     C36364  12.351   8.052   4.532  0.5250  0.6153 -0.1379
  989MOL0     C36365  12.429   7.936   4.474  0.0547  0.1598  0.1604
  989MOL0     C36366  12.491   7.954   4.340 -0.2082  0.2039 -0.1607
  989MOL0     C36367  12.539   7.816   4.286 -0.4747  0.7970 -0.6786
  989MOL0     O36368  12.652   7.769   4.365  0.6361 -0.7995 -0.1900
  989MOL0     C36369  12.712   7.653   4.329  0.0730  0.7272 -0.8028
  989MOL0     C36370  12.823   7.603   4.408  0.0735  0.0789  0.2657
  989MOL0     C36371  12.890   7.486   4.374 -0.7116  1.4981 -0.1839
  989MOL0     C36372  12.989   7.438   4.473  0.8020 -0.0572  0.2256
  989MOL0     C36373  12.851   7.407   4.260  1.1948  0.0419 -0.6149
  989MOL0     C36374  12.912   7.284   4.226 -0.5610  0.1426 -0.4676
  989MOL0     O36375  13.045   7.247   4.268  0.0214  0.5194  0.2046
  989MOL0     C36376  13.097   7.116   4.243 -0.3999 -0.4667 -0.5820
  989MOL0     C36377  13.229   7.108   4.193 -0.3072 -0.3500 -0.0831
  989MOL0     C36378  13.293   6.987   4.182  0.6185 -1.2033 -0.5080
  989MOL0     C36379  13.231   6.866   4.224  0.4884 -0.6008  0.2381
  989MOL0     O36380  13.301   6.752   4.218  0.0609  0.2279  1.0047
  989MOL0     C36381  13.234   6.625   4.202 -0.1691 -0.3595  0.5423
  989MOL0     C36382  13.325   6.531   4.108  0.1465 -0.0744 -0.0974
  989MOL0     C36383  13.316   6.547   3.959 -0.9827 -0.2840 -0.1618
  989MOL0     C36384  13.344   6.692   3.904 -1.1185  0.2033  0.3338
  989MOL0     C36385  13.321   6.693   3.750 -0.7874  0.5490 -0.2857
  989MOL0     C36386  13.345   6.829   3.677 -0.7435  0.3638  0.8950
  989MOL0     C36387  13.492   6.872   3.675  1.4190  0.0959 -0.2371
  989MOL0     C36388  13.593   6.761   3.640 -0.0085  0.5345  0.4815
  989MOL0    Cl36389  13.750   6.836   3.649  0.0826  0.1048  0.0390
  989MOL0     C36390  13.096   6.873   4.267 -0.6573 -0.2521 -0.0146
  989MOL0     C36391  13.037   6.997   4.282 -0.5938  0.9514  0.1371
  989MOL0     O36392  12.837   7.210   4.173  0.5985 -0.1832 -0.5931
  989MOL0     C36393  12.745   7.455   4.184 -0.7184 -0.3481  0.4004
  989MOL0     C36394  12.677   7.569   4.224  0.5531 -0.5174  0.2828
  989MOL0     N36395  12.222   8.236   4.421 -0.3764  0.5320  0.5740
  989MOL0     N36396  12.115   8.263   4.357  0.8170 -0.3352 -0.4214
  989MOL0     C36397  10.850   8.498   4.627 -1.0607 -0.4503  0.4030
  989MOL0     C36398  10.752   8.566   4.697 -0.8860 -1.2573  0.7495
  989MOL0     C36399  10.537   8.861   5.009 -0.1385 -0.3717 -0.2426
  989MOL0     C36400  10.412   8.788   4.976  0.2973 -0.5540 -0.1788
  989MOL0     C36401  10.292   8.828   5.033 -0.1716 -1.4974  0.6571
  989MOL0     C36402  10.289   8.937   5.119 -0.0616 -0.1157 -0.0010
  989MOL0     O36403  10.169   8.993   5.161 -0.1806 -0.0903 -0.3851
  989MOL0     C36404  10.040   8.928   5.132 -0.6240  0.4700  0.2788
  989MOL0     C36405   9.925   9.001   5.192  0.1665  0.1309  0.2928
  989MOL0     C36406   9.910   9.140   5.125 -0.6948  1.0926  0.2164
  989MOL0     C36407   9.768   9.176   5.122  0.6973  0.3691 -0.2120
  989MOL0     C36408   9.698   9.105   5.007  0.2452 -0.2101 -0.1350
  989MOL0     C36409   9.633   9.040   4.923 -0.1255  0.2451 -0.0758
  989MOL0     C36410  10.403   8.998   5.163  0.4874 -0.7399  0.2599
  989MOL0     C36411  10.524   8.967   5.112  0.3291  0.2561 -0.0466
  989MOL0     C36412  10.641   9.042   5.167 -0.5952 -0.3777  0.4165
  989MOL0     H36413  10.954   8.731   4.916 -1.1024  0.1979  1.2488
  989MOL0     H36414  11.122   8.630   4.780 -0.9432  3.1359 -0.4107
  989MOL0     H36415  10.982   8.367   4.417 -0.2295 -0.2878  0.6315
  989MOL0     H36416  11.060   8.269   4.546  0.9730  0.3262 -0.7399
  989MOL0     H36417  11.171   8.230   4.359 -0.8596 -0.0477 -1.2453
  989MOL0     H36418  11.182   8.403   4.296 -2.3473  1.5988  1.1792
  989MOL0     H36419  11.344   8.442   4.483  2.4341 -0.0662  1.5196
  989MOL0     H36420  11.301   8.282   4.551  2.2853 -0.5689  0.4886
  989MOL0     H36421  11.388   8.158   4.382 -0.0432  0.1422  4.8550
  989MOL0     H36422  11.428   8.298   4.277  2.1602 -0.8238 -1.0777
  989MOL0     H36423  11.565   8.274   4.547  1.8542  2.0999  0.3991
  989MOL0     H36424  11.602   8.390   4.427 -0.2891 -0.7157 -2.5421
  989MOL0     H36425  11.615   8.086   4.363 -0.1576 -0.2668 -0.4735
  989MOL0     H36426  11.674   8.221   4.257  0.2786  1.0752  0.5135
  989MOL0     H36427  11.806   8.116   4.510  2.0976  2.2037  1.5409
  989MOL0     H36428  11.832   8.282   4.455 -1.2273  0.1937  1.5498
  989MOL0     H36429  11.883   8.040   4.264  1.9143 -0.5062 -1.0729
  989MOL0     H36430  11.896   8.212   4.232  2.6081  0.0093 -0.6500
  989MOL0     H36431  12.071   7.949   4.466 -0.2459  0.5989  0.0733
  989MOL0     H36432  12.320   8.018   4.631  1.1220 -1.3334 -0.5651
  989MOL0     H36433  12.409   8.142   4.552  0.3616  0.4148  1.3664
  989MOL0     H36434  12.499   7.905   4.552 -0.8005 -0.9440  0.5124
  989MOL0     H36435  12.361   7.851   4.466  1.1346 -0.8932  1.4981
  989MOL0     H36436  12.418   8.007   4.278  2.0655  1.4954 -1.8510
  989MOL0     H36437  12.581   8.014   4.352  0.4824 -0.9232  0.5576
  989MOL0     H36438  12.454   7.748   4.281  0.9071 -0.8853 -3.1278
  989MOL0     H36439  12.583   7.828   4.186  1.2396 -3.1383 -0.5637
  989MOL0     H36440  12.858   7.662   4.491  3.4464  0.2549 -1.1517
  989MOL0     H36441  13.084   7.419   4.422  1.5313  3.1855  0.1483
  989MOL0     H36442  12.956   7.347   4.525  1.0244 -0.9812 -1.2011
  989MOL0     H36443  13.016   7.514   4.547  0.1034  2.2452 -1.7805
  989MOL0     H36444  13.276   7.201   4.164  0.3749 -0.1709  1.5425
  989MOL0     H36445  13.397   6.983   4.151  1.2732  2.3308  0.7287
  989MOL0     H36446  13.230   6.594   4.307  3.7259  1.5605  1.4117
  989MOL0     H36447  13.131   6.637   4.167  0.0221  1.3793  0.5220
  989MOL0     H36448  13.430   6.540   4.139  1.2759 -1.4261 -3.1654
  989MOL0     H36449  13.286   6.431   4.131  0.2185 -0.1531 -0.3190
  989MOL0     H36450  13.212   6.533   3.927 -0.9915  2.8852 -1.9926
  989MOL0     H36451  13.374   6.474   3.903  0.3825  1.3436 -0.9801
  989MOL0     H36452  13.445   6.726   3.931 -1.1889  0.5327  0.1904
  989MOL0     H36453  13.281   6.763   3.960 -2.2144 -3.2806  3.9751
  989MOL0     H36454  13.388   6.619   3.705  0.4747  0.5059  1.5503
  989MOL0     H36455  13.220   6.661   3.725 -0.9745  1.3504 -0.6026
  989MOL0     H36456  13.294   6.914   3.723  0.4459  1.9445 -0.5891
  989MOL0     H36457  13.315   6.817   3.573  1.8778 -0.1908  0.1234
  989MOL0     H36458  13.508   6.910   3.777 -2.4032 -1.3896  1.0861
  989MOL0     H36459  13.521   6.945   3.599  3.5543 -0.1700  0.2475
  989MOL0     H36460  13.580   6.726   3.537 -1.1821  1.2984  0.3512
  989MOL0     H36461  13.593   6.682   3.715 -0.2843 -0.5721 -0.6555
  989MOL0     H36462  13.043   6.784   4.298 -0.9586  0.1179  0.5486
  989MOL0     H36463  12.945   7.003   4.340  0.1431  1.2757  1.3239
  989MOL0     H36464  12.707   7.393   4.103  3.6291 -1.7631 -0.8390
  989MOL0     H36465  12.594   7.589   4.157  2.8965  2.7546 -1.9642
  989MOL0     H36466  10.825   8.438   4.540 -1.3005  1.9805 -1.2999
  989MOL0     H36467  10.644   8.556   4.689 -1.0613  1.4797 -2.7046
  989MOL0     H36468  10.411   8.707   4.904  0.8611  0.9667 -1.9763
  989MOL0     H36469  10.195   8.786   5.007 -2.0168  2.6288  0.0415
  989MOL0     H36470  10.028   8.908   5.025 -0.7827  0.3880  0.3117
  989MOL0     H36471  10.039   8.828   5.177 -1.4333  0.2121 -0.2831
  989MOL0     H36472   9.927   9.015   5.301 -1.2147  1.3024  0.1973
  989MOL0     H36473   9.834   8.949   5.162  1.3604 -0.8865 -1.8201
  989MOL0     H36474   9.964   9.215   5.183 -1.8909  1.7655  0.4890
  989MOL0     H36475   9.950   9.131   5.024  0.2457 -1.0719  0.7182
  989MOL0     H36476   9.747   9.280   5.099 -0.8258  0.3204  0.8730
  989MOL0     H36477   9.718   9.144   5.213  0.8728 -0.8890 -0.5303
  989MOL0     H36478   9.590   8.966   4.859  0.7647 -0.6606  0.3493
  989MOL0     H36479  10.402   9.078   5.236 -0.6694 -1.1463  0.7242
  989MOL0     H36480  10.600   9.096   5.254  0.0151  2.6584 -1.0370
  989MOL0     H36481  10.729   8.979   5.183 -0.1414 -0.4657 -2.0255
  989MOL0     H36482  10.680   9.119   5.099  0.3529  0.5912  1.9891
  990MOL0     O36483   7.550   2.102   4.352  0.3126 -0.1095 -0.4156
  990MOL0     C36484   7.477   2.027   4.291 -0.1891 -0.4493 -1.1946
  990MOL0     O36485   7.504   1.955   4.179 -1.2189  0.5187  0.5815
  990MOL0     C36486   7.625   1.949   4.114  0.7524 -1.0619  0.1474
  990MOL0     C36487   7.683   2.070   4.069  1.3061  0.4267 -0.6570
  990MOL0     C36488   7.812   2.066   4.017  0.2107 -0.1053 -0.2078
  990MOL0     C36489   7.892   1.952   3.999 -0.9002  1.2105 -0.2034
  990MOL0     O36490   8.013   1.965   3.936  0.0148  0.5021 -0.2700
  990MOL0     C36491   8.134   1.918   4.003 -0.0282 -0.1933  0.2685
  990MOL0     C36492   8.249   1.923   3.902  0.3613 -0.6685 -0.2684
  990MOL0     C36493   8.369   1.857   3.945 -0.1113  0.9686  0.1779
  990MOL0     C36494   8.463   1.939   4.031 -0.6864  0.3592 -0.9715
  990MOL0     C36495   8.596   1.866   4.078  0.1571  0.3893  1.0053
  990MOL0     C36496   8.681   1.955   4.166 -0.3811 -0.1188 -0.5688
  990MOL0     C36497   8.819   1.898   4.206 -0.0972 -0.5424  0.0452
  990MOL0     C36498   8.826   1.775   4.301 -0.1462  1.1169  0.9209
  990MOL0     N36499   8.944   1.688   4.264  0.5761  1.3256 -0.2360
  990MOL0     C36500   9.076   1.731   4.253 -0.0558  0.2359 -0.6926
  990MOL0     C36501   9.155   1.620   4.268  0.7489  0.1474  0.6197
  990MOL0     C36502   9.302   1.605   4.251  0.2811  0.6891  0.0091
  990MOL0     C36503   9.371   1.558   4.385 -0.7010  0.0580  0.7220
  990MOL0     C36504   9.517   1.526   4.355 -0.5316  0.8988 -0.9107
  990MOL0     C36505   9.576   1.458   4.471  0.9619  0.1770  0.1877
  990MOL0     O36506   9.599   1.559   4.574 -0.0182  0.3018  0.3103
  990MOL0     C36507   9.723   1.613   4.598 -0.6946  0.5120  0.3795
  990MOL0     C36508   9.733   1.697   4.700 -0.5818  0.1686 -0.2374
  990MOL0     C36509   9.860   1.755   4.729 -0.3050 -0.3667 -0.3178
  990MOL0     C36510   9.862   1.835   4.861  0.1707  0.3063 -0.1537
  990MOL0     C36511   9.977   1.726   4.655 -0.3609 -0.4009  0.6653
  990MOL0     C36512  10.112   1.782   4.680 -0.2645  0.0135  0.1403
  990MOL0     O36513  10.131   1.887   4.761  0.7085 -0.6689  0.2497
  990MOL0     C36514  10.258   1.925   4.792 -1.2467 -0.2475  0.1624
  990MOL0     C36515  10.332   1.890   4.914  0.2014 -0.2578 -0.3824
  990MOL0     C36516  10.454   1.962   4.945 -0.3454  0.6161  0.3449
  990MOL0     C36517  10.506   2.060   4.858  0.1717  0.2897  1.0632
  990MOL0     O36518  10.614   2.132   4.895 -0.8171 -0.0455 -0.0524
  990MOL0     C36519  10.650   2.254   4.826  0.9923 -0.2815  0.4466
  990MOL0     C36520  10.780   2.319   4.884  0.0278 -0.0695 -0.2772
  990MOL0     C36521  10.832   2.419   4.777 -0.0165 -0.6195  0.0955
  990MOL0     C36522  10.925   2.362   4.666 -0.2525  0.0835  0.0025
  990MOL0     C36523  10.959   2.458   4.557 -0.2940  0.1036  0.0404
  990MOL0     C36524  11.066   2.405   4.466  1.2449  0.2317 -0.5807
  990MOL0     C36525  11.100   2.496   4.355 -0.2558  0.5123  0.2462
  990MOL0     C36526  11.212   2.438   4.271  1.5265  0.2631 -0.0016
  990MOL0    Cl36527  11.175   2.289   4.171  0.0841  0.5124  0.1316
  990MOL0     C36528  10.441   2.079   4.736  0.1781 -0.0406 -0.4302
  990MOL0     C36529  10.319   2.010   4.701 -0.1877  0.7813 -0.7691
  990MOL0     O36530  10.202   1.715   4.633 -0.2041  0.3984 -0.4922
  990MOL0     C36531   9.959   1.638   4.553  0.5493  0.2941 -0.3769
  990MOL0     C36532   9.842   1.582   4.525  0.1264  0.0397  0.0046
  990MOL0     N36533   9.067   1.511   4.282 -0.5279 -0.5445  0.1295
  990MOL0     N36534   8.944   1.552   4.269 -0.1666 -0.0016 -0.0271
  990MOL0     C36535   7.833   1.838   4.050  0.2794  0.4796  0.1023
  990MOL0     C36536   7.700   1.836   4.108  0.4057  0.1300  0.5472
  990MOL0     C36537   7.345   2.009   4.346 -0.0981  0.7650 -0.1418
  990MOL0     C36538   7.242   1.991   4.257 -0.7969  1.1848 -0.0392
  990MOL0     C36539   7.111   1.960   4.301 -0.5399  0.0383 -0.2702
  990MOL0     C36540   7.085   1.955   4.437  0.1655  0.6023 -0.6144
  990MOL0     O36541   6.969   1.913   4.499 -0.6935 -0.0029 -0.0009
  990MOL0     C36542   6.846   1.936   4.425  1.1242 -0.1410 -0.2909
  990MOL0     C36543   6.733   1.973   4.524  0.3165  0.0708  0.5378
  990MOL0     C36544   6.610   2.033   4.455 -0.1171 -0.1779  0.0489
  990MOL0     C36545   6.507   1.934   4.380 -0.0908 -0.4246 -0.0422
  990MOL0     C36546   6.373   1.993   4.357 -1.2368  0.0313  0.6409
  990MOL0     C36547   6.256   2.037   4.343 -0.5322  0.6233  0.9481
  990MOL0     C36548   7.183   1.987   4.523  0.0147 -0.3929  0.0359
  990MOL0     C36549   7.316   2.012   4.487 -0.5679 -0.3539  0.0982
  990MOL0     C36550   7.418   2.053   4.592  0.3573  0.1333  0.3505
  990MOL0     H36551   7.631   2.162   4.094  1.2492  0.5432 -1.1896
  990MOL0     H36552   7.845   2.164   3.982  1.4299  0.3428  2.0274
  990MOL0     H36553   8.117   1.816   4.037 -4.3535 -0.2286 -1.3564
  990MOL0     H36554   8.149   1.981   4.091  0.5134  0.9354 -0.6063
  990MOL0     H36555   8.209   1.867   3.816 -1.5525  0.1575  0.0180
  990MOL0     H36556   8.277   2.027   3.883 -1.0923 -0.5674 -2.1578
  990MOL0     H36557   8.349   1.760   3.991  1.3062  1.0992  1.1715
  990MOL0     H36558   8.432   1.837   3.858  1.6589  2.6498  0.9913
  990MOL0     H36559   8.492   2.021   3.965  0.1345 -1.4178 -2.9481
  990MOL0     H36560   8.418   1.971   4.125  0.8311  2.0281 -0.7703
  990MOL0     H36561   8.656   1.857   3.988 -2.5684  1.8057 -1.1057
  990MOL0     H36562   8.576   1.767   4.120 -1.0092  0.0771 -0.2011
  990MOL0     H36563   8.702   2.048   4.112  0.6534 -1.1390 -1.9921
  990MOL0     H36564   8.633   1.988   4.259  0.9711  1.7447 -0.4769
  990MOL0     H36565   8.875   1.978   4.255  0.0977 -0.5763 -0.1194
  990MOL0     H36566   8.866   1.873   4.110  0.1558  0.9918 -0.2598
  990MOL0     H36567   8.839   1.810   4.403  0.9510  2.9370  0.2017
  990MOL0     H36568   8.730   1.724   4.294 -1.2604  2.9650  2.0886
  990MOL0     H36569   9.109   1.830   4.225  0.8251 -0.4038 -2.0131
  990MOL0     H36570   9.346   1.701   4.222  1.6192  0.7306  1.9692
  990MOL0     H36571   9.325   1.539   4.167 -1.2725 -0.0575  0.1506
  990MOL0     H36572   9.364   1.632   4.465  2.5508 -2.1312  3.3235
  990MOL0     H36573   9.318   1.463   4.399 -1.5417  0.2968 -0.6691
  990MOL0     H36574   9.522   1.460   4.268 -0.7528 -0.9237  0.4049
  990MOL0     H36575   9.564   1.621   4.325 -0.4609  1.7955  1.7621
  990MOL0     H36576   9.509   1.380   4.509 -1.0014  1.7132  0.0890
  990MOL0     H36577   9.666   1.401   4.449  1.6449  0.9030  1.0460
  990MOL0     H36578   9.642   1.712   4.757  0.8043  0.1591  2.1216
  990MOL0     H36579   9.914   1.928   4.836 -0.8897  0.3491 -2.3886
  990MOL0     H36580   9.903   1.776   4.943 -1.7621 -1.0664 -0.1091
  990MOL0     H36581   9.758   1.846   4.892 -0.0716  1.8944 -1.3830
  990MOL0     H36582  10.291   1.822   4.987  1.8532  1.4001  2.2525
  990MOL0     H36583  10.518   1.941   5.030  1.7067  1.3256 -0.9520
  990MOL0     H36584  10.667   2.239   4.719 -0.3045  0.3904  0.1269
  990MOL0     H36585  10.573   2.331   4.838  1.3810  1.1308 -4.1270
  990MOL0     H36586  10.753   2.380   4.971 -0.3313 -0.9557  0.2404
  990MOL0     H36587  10.854   2.241   4.904 -0.2796 -0.7825 -1.7463
  990MOL0     H36588  10.886   2.497   4.831 -2.9956  0.7762  1.3002
  990MOL0     H36589  10.744   2.469   4.733  0.2522 -0.3209 -0.1071
  990MOL0     H36590  10.881   2.279   4.610  2.9461 -0.2540 -2.2892
  990MOL0     H36591  11.019   2.328   4.712  1.5196  1.8953 -2.0441
  990MOL0     H36592  10.872   2.486   4.498  1.6479  0.4849 -2.8749
  990MOL0     H36593  10.990   2.551   4.606 -0.1176  0.6249 -1.0290
  990MOL0     H36594  11.030   2.308   4.430  1.6188 -1.2433  2.6218
  990MOL0     H36595  11.155   2.377   4.523  0.4944 -0.5367  0.2537
  990MOL0     H36596  11.132   2.595   4.388  1.9614  0.0128 -0.2048
  990MOL0     H36597  11.008   2.514   4.299 -1.1937 -0.0368  1.5395
  990MOL0     H36598  11.297   2.411   4.333  1.0542 -1.9059 -0.2347
  990MOL0     H36599  11.244   2.515   4.201 -0.2656  2.9300  1.8914
  990MOL0     H36600  10.474   2.162   4.673 -0.6649 -0.1929 -1.0974
  990MOL0     H36601  10.269   2.034   4.608 -0.5183 -0.2763 -0.8749
  990MOL0     H36602  10.042   1.610   4.488  0.4048 -2.3839  0.4771
  990MOL0     H36603   9.832   1.510   4.445 -2.4262 -0.7605  0.9372
  990MOL0     H36604   7.890   1.746   4.052 -1.0814 -0.3798  1.5598
  990MOL0     H36605   7.665   1.741   4.147 -1.3466  0.0761 -1.0488
  990MOL0     H36606   7.268   1.997   4.152  2.0393 -1.1850  0.3803
  990MOL0     H36607   7.029   1.930   4.236 -2.7282  1.6023  1.5623
  990MOL0     H36608   6.864   2.015   4.352 -3.0872 -0.8088 -2.3678
  990MOL0     H36609   6.818   1.843   4.375  2.3258 -1.3018  1.0916
  990MOL0     H36610   6.767   2.049   4.596 -2.0404  1.8263 -0.0955
  990MOL0     H36611   6.707   1.882   4.579 -0.4403  0.3333  0.6287
  990MOL0     H36612   6.566   2.087   4.539  1.1113 -0.0392  0.6184
  990MOL0     H36613   6.641   2.109   4.383  0.5681  0.9963  1.5262
  990MOL0     H36614   6.497   1.839   4.434  3.9313 -0.3560  1.1543
  990MOL0     H36615   6.546   1.897   4.284  0.7497 -2.2644  0.9542
  990MOL0     H36616   6.163   2.090   4.331 -0.7282  0.2464  0.7881
  990MOL0     H36617   7.152   2.003   4.625 -1.2476  1.0700 -0.5320
  990MOL0     H36618   7.433   2.158   4.565 -1.4384  0.4330  0.4249
  990MOL0     H36619   7.391   2.053   4.698  2.5240  2.2085  0.9996
  990MOL0     H36620   7.503   1.985   4.582  0.3658  0.4610 -2.6766
  991MOL0     O36621  10.420   8.457  10.025 -0.0669  0.0619 -0.1957
  991MOL0     C36622  10.524   8.402   9.995 -0.2491 -0.3676 -0.1321
  991MOL0     O36623  10.542   8.263   9.980  0.2760  0.5828  0.7665
  991MOL0     C36624  10.447   8.163   9.976 -0.1447  0.5329 -0.3536
  991MOL0     C36625  10.319   8.174   9.924  0.7586  0.4450 -0.5460
  991MOL0     C36626  10.225   8.069   9.926 -0.1351  0.1809 -0.1332
  991MOL0     C36627  10.255   7.945   9.981  0.3615 -0.4155 -0.2753
  991MOL0     O36628  10.162   7.841   9.995  0.5768 -0.1023  0.6888
  991MOL0     C36629  10.023   7.868   9.968 -0.3467  0.7534 -0.1135
  991MOL0     C36630   9.961   7.725   9.963 -0.5320 -0.4603 -0.4344
  991MOL0     C36631   9.932   7.689  10.104 -0.1410 -0.3076 -0.5821
  991MOL0     C36632   9.907   7.536  10.117  0.2145 -0.7027  0.9671
  991MOL0     C36633   9.904   7.498  10.264  0.3812  0.4195  0.4511
  991MOL0     C36634  10.044   7.474  10.320 -0.3344  0.5847  0.1716
  991MOL0     C36635  10.047   7.406  10.462 -0.3728  0.5168  0.4135
  991MOL0     C36636  10.193   7.416  10.518 -0.0786 -1.0139  0.7545
  991MOL0     N36637  10.190   7.447  10.663 -0.6568 -0.1960  0.3878
  991MOL0     C36638  10.100   7.416  10.760 -0.2558  0.7619 -0.1025
  991MOL0     C36639  10.132   7.485  10.865 -0.0024  0.2932 -1.0812
  991MOL0     C36640  10.062   7.492  11.007 -0.1431  0.6294  0.4503
  991MOL0     C36641   9.920   7.536  10.995  1.0786 -0.4064  0.2379
  991MOL0     C36642   9.895   7.680  10.953  0.0902  0.1747 -0.2389
  991MOL0     C36643   9.764   7.723  11.001  0.2314 -0.4873 -0.5854
  991MOL0     O36644   9.677   7.650  10.916  1.1597 -0.6297  0.1513
  991MOL0     C36645   9.543   7.643  10.940  0.4797  0.0952 -0.1991
  991MOL0     C36646   9.468   7.566  10.851  0.5318 -0.1648  0.0878
  991MOL0     C36647   9.329   7.555  10.860  0.1432  0.3363  0.5343
  991MOL0     C36648   9.260   7.459  10.764  0.7359 -0.1852 -0.8864
  991MOL0     C36649   9.263   7.621  10.966 -1.0894  0.0547  0.0312
  991MOL0     C36650   9.117   7.599  10.984  0.4669 -0.7039  0.1491
  991MOL0     O36651   9.024   7.614  10.883 -0.4071 -0.6376 -0.4564
  991MOL0     C36652   8.904   7.555  10.900  0.0631 -0.2278 -0.7499
  991MOL0     C36653   8.887   7.418  10.889 -0.5205  0.0945  0.3279
  991MOL0     C36654   8.760   7.366  10.890  0.6379 -0.3476  0.5788
  991MOL0     C36655   8.655   7.441  10.924  0.0829 -0.6115 -0.1412
  991MOL0     O36656   8.536   7.371  10.951  0.1353  0.2505 -0.3082
  991MOL0     C36657   8.412   7.440  10.917  0.3895 -0.3705  0.1386
  991MOL0     C36658   8.391   7.481  10.774  0.5696  0.3271 -0.6865
  991MOL0     C36659   8.285   7.395  10.696 -0.7822  0.4105 -0.3634
  991MOL0     C36660   8.146   7.438  10.726 -0.1303  0.4714  0.6496
  991MOL0     C36661   8.033   7.333  10.677  1.4228 -0.7007 -0.7983
  991MOL0     C36662   7.991   7.356  10.533  0.3288  0.6651 -0.2356
  991MOL0     C36663   7.909   7.240  10.481 -0.6158  0.5233  0.2866
  991MOL0     C36664   7.840   7.266  10.341  1.2425  0.1149  0.4801
  991MOL0    Cl36665   7.779   7.114  10.296  0.3514  0.0211  0.0762
  991MOL0     C36666   8.673   7.581  10.932  0.2392  0.3343 -0.9232
  991MOL0     C36667   8.794   7.635  10.920 -0.1739 -0.3962 -0.2781
  991MOL0     O36668   9.084   7.578  11.099 -0.1403 -0.0561  0.3112
  991MOL0     C36669   9.345   7.688  11.065  0.2960  0.4507  0.2560
  991MOL0     C36670   9.480   7.702  11.052  0.3548  0.1476 -0.1133
  991MOL0     N36671  10.248   7.550  10.837  0.2103 -1.1960  0.2320
  991MOL0     N36672  10.284   7.526  10.717  0.6569 -0.2448 -0.1903
  991MOL0     C36673  10.388   7.927  10.027  0.5880  0.4486 -0.9423
  991MOL0     C36674  10.477   8.034  10.025 -0.1252 -0.3662 -0.7049
  991MOL0     C36675  10.638   8.490   9.962  0.4115 -0.5412  0.3708
  991MOL0     C36676  10.754   8.459  10.031  0.9877  0.0072  0.3672
  991MOL0     C36677  10.860   8.552  10.037 -0.2777  0.3889  0.4279
  991MOL0     C36678  10.849   8.673   9.962 -0.2226  0.4105 -0.5151
  991MOL0     O36679  10.943   8.775   9.958 -0.0066 -0.7374 -0.3062
  991MOL0     C36680  11.042   8.772   9.855 -0.2373 -0.9326 -0.3620
  991MOL0     C36681  11.173   8.707   9.911 -0.1970  0.2903 -0.5266
  991MOL0     C36682  11.226   8.770  10.046  1.0069  0.4512  0.2464
  991MOL0     C36683  11.363   8.722  10.097 -0.3363 -0.4304  0.0787
  991MOL0     C36684  11.369   8.572  10.080  0.7128 -1.1567  0.2376
  991MOL0     C36685  11.355   8.452  10.068  0.3863  0.6074  0.0145
  991MOL0     C36686  10.735   8.685   9.878  0.4578  0.0238  0.2135
  991MOL0     C36687  10.632   8.599   9.881  0.3174  0.5640  0.2755
  991MOL0     C36688  10.518   8.626   9.791  0.5512 -0.6434 -0.3096
  991MOL0     H36689  10.292   8.274   9.892 -1.1722  1.2048  2.9986
  991MOL0     H36690  10.123   8.084   9.892 -1.4389 -2.7454  2.0865
  991MOL0     H36691  10.019   7.904   9.865 -2.3508 -1.0071 -0.7329
  991MOL0     H36692   9.968   7.913  10.051  0.6075  0.2146  0.8383
  991MOL0     H36693   9.870   7.720   9.902 -0.4560  2.1207 -0.8840
  991MOL0     H36694  10.036   7.661   9.917  1.8993  3.0847 -1.8521
  991MOL0     H36695  10.021   7.707  10.164  0.3617 -1.6793 -0.8956
  991MOL0     H36696   9.854   7.747  10.155 -1.9239 -2.4121 -0.7751
  991MOL0     H36697   9.810   7.522  10.069 -0.2986  0.6762  1.5646
  991MOL0     H36698   9.973   7.478  10.053  2.2553  0.8585  1.5522
  991MOL0     H36699   9.847   7.406  10.283  2.5090 -0.6467  2.0401
  991MOL0     H36700   9.867   7.579  10.327  2.0558  1.2151  0.4489
  991MOL0     H36701  10.096   7.400  10.259 -0.4518 -0.6846  1.5560
  991MOL0     H36702  10.108   7.563  10.321  1.1559 -0.4342  1.9130
  991MOL0     H36703  10.008   7.304  10.457  1.0257  0.0146 -1.4891
  991MOL0     H36704   9.982   7.453  10.536  1.3121 -2.1902  3.9761
  991MOL0     H36705  10.247   7.323  10.500 -0.2569 -0.8852 -0.5529
  991MOL0     H36706  10.250   7.492  10.463 -0.5012 -1.5675 -0.4672
  991MOL0     H36707  10.023   7.340  10.749 -1.3023  1.9010 -0.9679
  991MOL0     H36708  10.115   7.568  11.064 -1.1087  1.8974 -0.2788
  991MOL0     H36709  10.077   7.400  11.064 -0.4164 -0.1290 -0.6509
  991MOL0     H36710   9.866   7.474  10.924  2.9005  0.5668 -2.1462
  991MOL0     H36711   9.888   7.522  11.099 -1.7694  1.5971 -0.2438
  991MOL0     H36712   9.963   7.740  11.014 -1.3909 -0.5484  2.2641
  991MOL0     H36713   9.910   7.705  10.848 -0.7731  0.8825 -0.2000
  991MOL0     H36714   9.741   7.709  11.107 -2.8870 -3.5530 -1.4579
  991MOL0     H36715   9.758   7.826  10.965  3.1917  0.7111  1.9031
  991MOL0     H36716   9.526   7.505  10.781 -1.5043 -2.8648  0.5689
  991MOL0     H36717   9.187   7.500  10.694  0.5456 -0.4125 -0.8225
  991MOL0     H36718   9.206   7.382  10.820 -0.6028  2.1537  1.2953
  991MOL0     H36719   9.337   7.406  10.708  2.1385  0.5474  0.2945
  991MOL0     H36720   8.982   7.366  10.876 -0.0006  0.9594  0.6196
  991MOL0     H36721   8.743   7.261  10.868 -1.2450 -1.0575  4.5031
  991MOL0     H36722   8.335   7.368  10.948  1.7269 -1.6102  0.7137
  991MOL0     H36723   8.396   7.527  10.982  2.2811 -0.1588  0.3641
  991MOL0     H36724   8.359   7.586  10.775  0.7071  0.3904  1.6033
  991MOL0     H36725   8.482   7.481  10.712  1.3888  1.2199  0.4797
  991MOL0     H36726   8.304   7.290  10.723  2.4889 -0.6546 -5.3907
  991MOL0     H36727   8.304   7.408  10.589  2.2388  1.4413  0.2168
  991MOL0     H36728   8.125   7.528  10.667 -4.0929 -0.4076  0.4568
  991MOL0     H36729   8.134   7.467  10.831  3.8249  2.7398  0.6838
  991MOL0     H36730   8.080   7.235  10.689  0.5210 -1.0388  0.1810
  991MOL0     H36731   7.948   7.340  10.746  1.5091 -2.3766 -0.4747
  991MOL0     H36732   8.081   7.368  10.471  0.1604 -0.5816 -0.7464
  991MOL0     H36733   7.936   7.449  10.518  0.5603  0.6092 -1.5411
  991MOL0     H36734   7.839   7.215  10.560  0.2330 -2.0359  0.3244
  991MOL0     H36735   7.968   7.150  10.462  0.6793  1.0018  1.7989
  991MOL0     H36736   7.913   7.296  10.267  0.7685 -0.0443 -0.0593
  991MOL0     H36737   7.756   7.335  10.345  0.8058 -0.3968  0.2805
  991MOL0     H36738   8.582   7.641  10.941  0.2766  0.5670 -2.0039
  991MOL0     H36739   8.798   7.743  10.913 -1.9240 -0.3923 -2.2933
  991MOL0     H36740   9.290   7.729  11.150 -4.2505 -2.7488 -0.8246
  991MOL0     H36741   9.539   7.765  11.118  1.2739 -0.2121 -0.5705
  991MOL0     H36742  10.417   7.829  10.064 -1.4568 -0.0875 -0.6379
  991MOL0     H36743  10.578   8.013  10.060 -0.9625 -1.9963  0.9235
  991MOL0     H36744  10.758   8.367  10.090  0.7868  1.5504  2.9154
  991MOL0     H36745  10.949   8.536  10.098  0.5403 -2.0843 -1.2367
  991MOL0     H36746  11.018   8.710   9.768  0.0103  0.3271 -1.3701
  991MOL0     H36747  11.061   8.870   9.809 -0.8607 -0.9134 -0.5901
  991MOL0     H36748  11.247   8.735   9.835  0.9001  0.9810  0.7345
  991MOL0     H36749  11.163   8.599   9.917 -3.3035  0.5566  0.7962
  991MOL0     H36750  11.210   8.878  10.045 -3.2309  0.3138  5.8613
  991MOL0     H36751  11.152   8.736  10.118  1.7752  0.5542  1.1067
  991MOL0     H36752  11.383   8.758  10.198  0.6123 -0.2386 -0.1626
  991MOL0     H36753  11.439   8.764  10.031 -0.7558 -4.8496 -3.7701
  991MOL0     H36754  11.330   8.350  10.050 -0.6031  0.1415  3.3335
  991MOL0     H36755  10.723   8.771   9.812 -1.2124  0.5099  1.0976
  991MOL0     H36756  10.550   8.694   9.711 -0.2201 -2.2904 -2.1050
  991MOL0     H36757  10.485   8.539   9.734 -4.8461  0.4887  0.5431
  991MOL0     H36758  10.431   8.674   9.836 -0.0382 -0.8303 -1.2250
  992MOL0     O36759  10.057   4.417   1.286 -0.1456 -0.0262  0.5292
  992MOL0     C36760   9.939   4.413   1.255 -0.2218  0.1484 -0.2604
  992MOL0     O36761   9.875   4.518   1.212 -0.2290 -1.0447 -0.1651
  992MOL0     C36762   9.926   4.639   1.247 -0.2067  0.1679  0.2949
  992MOL0     C36763  10.019   4.698   1.162  0.0966  0.1741 -1.0311
  992MOL0     C36764  10.086   4.811   1.200 -0.1524  0.2920  0.2735
  992MOL0     C36765  10.057   4.882   1.322 -0.0087  0.4854 -0.5101
  992MOL0     O36766  10.102   5.004   1.360  0.1894  0.5372 -0.1486
  992MOL0     C36767  10.224   5.043   1.303 -0.0779 -0.2143  0.0078
  992MOL0     C36768  10.275   5.171   1.364 -0.2568 -0.1065  0.7404
  992MOL0     C36769  10.224   5.298   1.295 -0.1709 -0.4685  0.6453
  992MOL0     C36770  10.296   5.419   1.355 -0.6378  0.2762 -0.6703
  992MOL0     C36771  10.226   5.542   1.315 -0.0705 -0.4235 -0.5888
  992MOL0     C36772  10.270   5.588   1.182  0.0267  0.1449  0.1675
  992MOL0     C36773  10.164   5.681   1.109  0.4967 -0.0268  0.4702
  992MOL0     C36774  10.144   5.816   1.176  1.0970 -0.8376 -0.1685
  992MOL0     N36775  10.044   5.898   1.110  0.4153  0.6941  0.2303
  992MOL0     C36776  10.074   5.998   1.021  0.4244 -0.5064  0.5999
  992MOL0     C36777   9.947   6.047   0.987 -0.2115 -0.1922  0.3573
  992MOL0     C36778   9.912   6.123   0.868  0.0186  0.6801  0.2469
  992MOL0     C36779   9.843   6.029   0.769  0.4248 -0.3562  0.1670
  992MOL0     C36780   9.943   5.915   0.732  0.7016 -1.0074  0.1047
  992MOL0     C36781   9.875   5.813   0.623  0.2098 -0.0491 -0.4232
  992MOL0     O36782   9.974   5.721   0.572  0.2672 -0.1475 -0.4704
  992MOL0     C36783  10.014   5.614   0.644  0.0832 -0.9378  0.1318
  992MOL0     C36784   9.943   5.567   0.759  0.6315  0.7438 -0.4540
  992MOL0     C36785   9.993   5.461   0.841  0.6492 -0.7384  0.2448
  992MOL0     C36786   9.935   5.444   0.977  0.0923 -0.0363  0.2221
  992MOL0     C36787  10.108   5.392   0.792  0.3746  0.1550  0.4047
  992MOL0     C36788  10.162   5.272   0.861  0.1188 -0.4010 -0.3631
  992MOL0     O36789  10.274   5.210   0.795  0.5350 -0.0464  0.1263
  992MOL0     C36790  10.320   5.107   0.877 -0.4892  0.8467  0.2065
  992MOL0     C36791  10.302   4.971   0.852 -0.3404  0.4633  0.4785
  992MOL0     C36792  10.352   4.864   0.932  0.0585 -0.3505 -0.2266
  992MOL0     C36793  10.435   4.907   1.042  0.1791 -0.1559  0.1052
  992MOL0     O36794  10.480   4.825   1.144  0.3309 -0.2056 -0.2177
  992MOL0     C36795  10.454   4.682   1.137  0.1978  0.4792 -0.1160
  992MOL0     C36796  10.512   4.597   1.253  0.6492 -0.5001  0.6944
  992MOL0     C36797  10.510   4.442   1.228 -0.6378 -0.1201 -0.3409
  992MOL0     C36798  10.539   4.351   1.351  0.3340  0.3007  0.8687
  992MOL0     C36799  10.540   4.206   1.325  0.3039  0.8408  0.4828
  992MOL0     C36800  10.399   4.143   1.329  0.4150  0.0001 -0.3849
  992MOL0     C36801  10.399   3.984   1.339 -0.8274 -0.3022  0.3718
  992MOL0     C36802  10.266   3.914   1.335  0.2798  0.4923 -0.5242
  992MOL0    Cl36803  10.182   3.968   1.483  0.1838 -0.3893  0.5737
  992MOL0     C36804  10.465   5.041   1.058  0.7114  0.4671 -0.1241
  992MOL0     C36805  10.413   5.135   0.984  0.6921 -0.8182  0.3678
  992MOL0     O36806  10.097   5.228   0.956  1.2833 -0.9306  0.6373
  992MOL0     C36807  10.163   5.421   0.665  0.5392  0.4592 -0.5451
  992MOL0     C36808  10.121   5.538   0.600  0.2783  0.8793 -0.5434
  992MOL0     N36809   9.851   5.984   1.064 -0.3308  0.4535 -0.4232
  992MOL0     N36810   9.914   5.895   1.138  0.0155 -0.5164 -0.5795
  992MOL0     C36811   9.956   4.833   1.403 -0.5883 -0.1869  1.3018
  992MOL0     C36812   9.894   4.714   1.357  0.9163  1.1265 -1.4586
  992MOL0     C36813   9.870   4.276   1.249 -0.7175  0.2115  0.3247
  992MOL0     C36814   9.949   4.165   1.263 -0.6420 -0.0834  0.3280
  992MOL0     C36815   9.905   4.037   1.252 -0.0604  0.4253  0.1956
  992MOL0     C36816   9.767   4.011   1.241 -0.5070  0.4859  0.4118
  992MOL0     O36817   9.725   3.877   1.249  0.0195 -0.2114 -0.4574
  992MOL0     C36818   9.590   3.853   1.223  0.0840  0.2640  0.2048
  992MOL0     C36819   9.576   3.700   1.263 -0.8066  0.1734  0.7348
  992MOL0     C36820   9.439   3.647   1.218  0.5736  0.4650  0.8243
  992MOL0     C36821   9.436   3.495   1.231 -0.2246 -0.1993  0.4393
  992MOL0     C36822   9.316   3.432   1.195 -0.4311  0.6710 -0.6657
  992MOL0     C36823   9.220   3.363   1.164 -0.1815 -0.0130 -0.3381
  992MOL0     C36824   9.689   4.121   1.210 -0.0933  0.2799  0.0232
  992MOL0     C36825   9.734   4.253   1.217 -0.3129  0.2896  0.0202
  992MOL0     C36826   9.630   4.370   1.205 -0.1474 -0.0165  0.3210
  992MOL0     H36827  10.051   4.658   1.066 -2.2074  0.8709 -2.1656
  992MOL0     H36828  10.164   4.844   1.132  1.0480 -0.7204  1.1181
  992MOL0     H36829  10.219   5.051   1.194  0.0389 -1.3510 -0.0927
  992MOL0     H36830  10.294   4.961   1.321 -1.2960 -1.2038  0.3882
  992MOL0     H36831  10.252   5.174   1.471  0.6044 -1.0350  0.9654
  992MOL0     H36832  10.384   5.173   1.367 -0.2511 -0.8365  2.8601
  992MOL0     H36833  10.232   5.294   1.186 -3.1578  3.1398  0.0475
  992MOL0     H36834  10.120   5.313   1.325 -0.0720 -0.0043  0.7693
  992MOL0     H36835  10.284   5.407   1.463  0.2218  3.8831 -0.0440
  992MOL0     H36836  10.404   5.419   1.335  0.4137  4.1383  3.3525
  992MOL0     H36837  10.264   5.620   1.382  1.9102  1.3926 -3.5804
  992MOL0     H36838  10.117   5.534   1.310 -0.2606  1.0779  0.4165
  992MOL0     H36839  10.372   5.629   1.187 -0.0253  0.4186 -0.7350
  992MOL0     H36840  10.285   5.500   1.119  2.5172  2.3204 -2.6104
  992MOL0     H36841  10.066   5.634   1.114  1.3446 -1.8788  0.4685
  992MOL0     H36842  10.194   5.704   1.007 -0.2025 -5.0021 -1.1300
  992MOL0     H36843  10.115   5.809   1.281  0.3580  1.9953 -0.0888
  992MOL0     H36844  10.238   5.873   1.178  0.4243  0.3047  1.4758
  992MOL0     H36845  10.171   6.006   0.974 -1.1130 -3.2984 -3.6791
  992MOL0     H36846   9.995   6.176   0.820  1.3099 -0.0684  1.6094
  992MOL0     H36847   9.843   6.202   0.900 -0.4102 -0.8462  3.4585
  992MOL0     H36848   9.754   5.980   0.810  0.7338 -0.7416  0.3848
  992MOL0     H36849   9.811   6.093   0.686  3.7888  1.3382  0.0044
  992MOL0     H36850  10.034   5.954   0.685 -0.9209 -0.0927 -2.5359
  992MOL0     H36851   9.959   5.851   0.819  0.9961 -2.9623 -1.2948
  992MOL0     H36852   9.780   5.773   0.660 -1.4927  3.5934 -0.4093
  992MOL0     H36853   9.846   5.881   0.542 -2.6234 -0.8253 -0.1498
  992MOL0     H36854   9.846   5.607   0.786 -0.8884 -3.6258  1.5272
  992MOL0     H36855   9.859   5.519   1.000 -0.0485 -0.1433  0.1089
  992MOL0     H36856  10.014   5.435   1.051 -1.7454 -2.1364  2.0833
  992MOL0     H36857   9.884   5.347   0.978  2.8925 -1.6205  1.2401
  992MOL0     H36858  10.253   4.939   0.761 -0.0367 -2.3097  1.1897
  992MOL0     H36859  10.331   4.762   0.901  1.3141 -0.7728  0.2713
  992MOL0     H36860  10.347   4.662   1.124  0.3146 -1.7159  1.6843
  992MOL0     H36861  10.514   4.643   1.055 -0.1618 -0.5609  0.0985
  992MOL0     H36862  10.609   4.634   1.287 -0.0709 -2.1418  5.2097
  992MOL0     H36863  10.452   4.623   1.341  1.9964  1.9609  0.9889
  992MOL0     H36864  10.595   4.415   1.164  1.0371 -0.2818  1.8372
  992MOL0     H36865  10.414   4.411   1.185 -1.2708  0.7510  0.3962
  992MOL0     H36866  10.472   4.373   1.435 -2.2463  0.4384 -1.0949
  992MOL0     H36867  10.643   4.381   1.367  1.1620  0.1383 -3.1624
  992MOL0     H36868  10.603   4.182   1.239  0.3571  1.6054  0.2988
  992MOL0     H36869  10.589   4.155   1.409 -0.8817 -3.0703 -1.0093
  992MOL0     H36870  10.333   4.162   1.244 -0.2099 -2.4744 -0.5406
  992MOL0     H36871  10.339   4.176   1.415 -0.2561  2.7415 -1.7807
  992MOL0     H36872  10.449   3.949   1.430  2.7501  0.7038 -1.0312
  992MOL0     H36873  10.469   3.940   1.267  2.6581 -1.2134  3.9773
  992MOL0     H36874  10.283   3.806   1.333 -0.3137  0.3521  0.6570
  992MOL0     H36875  10.201   3.945   1.252  0.2164 -0.2066 -0.7359
  992MOL0     H36876  10.525   5.075   1.142  0.5016 -0.9037  0.6258
  992MOL0     H36877  10.436   5.239   1.007  0.0608 -0.2469 -1.4080
  992MOL0     H36878  10.250   5.367   0.628 -0.4640 -1.6220 -0.0143
  992MOL0     H36879  10.176   5.578   0.515  1.2685  1.1051  0.1962
  992MOL0     H36880   9.924   4.893   1.487 -2.5091  1.1887 -0.3126
  992MOL0     H36881   9.821   4.675   1.427  1.6134 -2.2022 -2.3860
  992MOL0     H36882  10.054   4.190   1.272 -0.3123 -0.6000 -1.5554
  992MOL0     H36883   9.968   3.952   1.274 -0.2604  0.0495 -0.6176
  992MOL0     H36884   9.523   3.919   1.279 -0.7524 -0.7729  0.4419
  992MOL0     H36885   9.570   3.869   1.117 -1.7307  3.8583  0.9140
  992MOL0     H36886   9.594   3.675   1.368 -1.5095 -1.5857  0.4718
  992MOL0     H36887   9.654   3.654   1.202  0.8419  2.5604  0.8761
  992MOL0     H36888   9.358   3.682   1.283  1.7856  2.0822  1.5105
  992MOL0     H36889   9.420   3.670   1.113  0.1665 -0.4555  0.6827
  992MOL0     H36890   9.448   3.472   1.338  2.6333 -4.3119 -0.5565
  992MOL0     H36891   9.516   3.444   1.177 -0.6899 -0.4252 -0.0458
  992MOL0     H36892   9.137   3.300   1.139 -2.6444  3.2149 -0.9533
  992MOL0     H36893   9.585   4.111   1.177 -0.4319 -3.7887  1.7355
  992MOL0     H36894   9.625   4.437   1.291 -0.4220  1.4522 -0.8194
  992MOL0     H36895   9.653   4.432   1.119  0.0567  0.6332  0.8400
  992MOL0     H36896   9.535   4.316   1.195  1.4352 -2.6509 -2.0311
  993MOL0     O36897   3.976   0.341   4.160  0.1535  0.4686 -0.3034
  993MOL0     C36898   3.854   0.327   4.170 -0.7187  0.5644 -0.2156
  993MOL0     O36899   3.768   0.274   4.076 -0.3647  0.0125 -0.0692
  993MOL0     C36900   3.828   0.210   3.968  0.2184 -0.2285  0.2207
  993MOL0     C36901   3.838   0.070   3.969 -0.0094 -1.0256  0.5336
  993MOL0     C36902   3.906   0.025   3.862  0.0020  0.8196  1.2164
  993MOL0     C36903   3.966   0.094   3.757 -0.0068 -0.3367 -0.7369
  993MOL0     O36904   4.035   0.025   3.657 -0.1797 -0.2272  0.1357
  993MOL0     C36905   4.111   0.091   3.559 -0.3065  0.5783  0.9358
  993MOL0     C36906   4.233   0.015   3.516 -0.2354 -0.0676  0.3480
  993MOL0     C36907   4.215  -0.136   3.491  0.9234  0.7580 -0.2042
  993MOL0     C36908   4.342  -0.197   3.421 -0.2081 -0.1111  0.2749
  993MOL0     C36909   4.371  -0.143   3.279  0.3275 -0.3578 -0.2244
  993MOL0     C36910   4.461  -0.253   3.203 -0.8332 -0.4369 -0.0183
  993MOL0     C36911   4.601  -0.204   3.219  0.6232 -0.9444  0.2355
  993MOL0     C36912   4.711  -0.311   3.198 -0.1998  0.1670 -0.1577
  993MOL0     N36913   4.719  -0.362   3.058  0.2323  0.5608 -1.3151
  993MOL0     C36914   4.713  -0.295   2.936  1.2516 -0.2030  0.4254
  993MOL0     C36915   4.741  -0.388   2.843  0.0029  0.3058 -0.4551
  993MOL0     C36916   4.758  -0.348   2.699 -0.0891 -0.3421 -0.5285
  993MOL0     C36917   4.621  -0.347   2.630  0.0682 -0.7648 -0.3773
  993MOL0     C36918   4.625  -0.293   2.484  0.3328  0.2316 -0.9276
  993MOL0     C36919   4.739  -0.352   2.398  0.1306 -0.8943 -1.1244
  993MOL0     O36920   4.692  -0.341   2.258 -0.0868 -0.2223  0.2505
  993MOL0     C36921   4.784  -0.311   2.158 -0.6291 -0.4930 -0.4034
  993MOL0     C36922   4.741  -0.230   2.053 -0.2735 -0.3514  0.0633
  993MOL0     C36923   4.823  -0.209   1.939 -0.0629  0.1833 -0.4030
  993MOL0     C36924   4.756  -0.139   1.822 -0.0341  1.0872  0.8570
  993MOL0     C36925   4.952  -0.248   1.945 -0.5630 -0.3204 -0.8244
  993MOL0     C36926   5.046  -0.211   1.837  0.1337  0.4903 -0.1175
  993MOL0     O36927   5.114  -0.314   1.776  0.1534  1.0063 -0.1135
  993MOL0     C36928   5.227  -0.275   1.704  0.1346 -1.0472 -0.3445
  993MOL0     C36929   5.354  -0.260   1.759  0.3927  1.1060 -0.2032
  993MOL0     C36930   5.459  -0.201   1.693  1.0553 -0.8355  0.0463
  993MOL0     C36931   5.433  -0.128   1.571  0.4679  0.2559 -0.6191
  993MOL0     O36932   5.516  -0.048   1.492  0.1642 -0.2223 -0.2404
  993MOL0     C36933   5.648  -0.027   1.555  1.5724  0.1939  0.5119
  993MOL0     C36934   5.732   0.041   1.449  0.0962 -0.5775  0.2561
  993MOL0     C36935   5.710   0.194   1.466 -0.2851 -0.0423 -0.2286
  993MOL0     C36936   5.764   0.278   1.347  0.6059 -0.2075  0.3776
  993MOL0     C36937   5.732   0.434   1.368  0.8650  0.5476 -1.0742
  993MOL0     C36938   5.758   0.517   1.238  0.4314  1.3300 -0.2481
  993MOL0     C36939   5.762   0.660   1.268  0.5736  0.1017 -0.8081
  993MOL0     C36940   5.750   0.745   1.142  0.0272 -0.0519  0.7658
  993MOL0    Cl36941   5.904   0.746   1.066 -0.0498  0.0108  0.0104
  993MOL0     C36942   5.310  -0.167   1.511  0.0777 -0.1977  0.6040
  993MOL0     C36943   5.208  -0.242   1.572  0.3953 -0.2221  0.4112
  993MOL0     O36944   5.062  -0.091   1.811  0.5380 -0.8230 -0.1440
  993MOL0     C36945   5.010  -0.319   2.055 -0.3363 -0.7558 -0.3377
  993MOL0     C36946   4.920  -0.357   2.155 -0.2658 -0.7263 -0.1926
  993MOL0     N36947   4.752  -0.512   2.909 -1.1653 -0.4728  0.4857
  993MOL0     N36948   4.748  -0.495   3.044  0.2526 -0.2802  0.5745
  993MOL0     C36949   3.950   0.223   3.756 -0.1773 -0.6926  0.3069
  993MOL0     C36950   3.877   0.286   3.860 -0.1126  0.2312  0.1672
  993MOL0     C36951   3.798   0.368   4.300 -0.1080 -0.3389 -0.5606
  993MOL0     C36952   3.657   0.364   4.312  0.2687  0.3006 -0.5912
  993MOL0     C36953   3.589   0.398   4.420 -0.4231 -0.0003 -0.5628
  993MOL0     C36954   3.658   0.433   4.534  0.2484 -0.3420 -1.2877
  993MOL0     O36955   3.569   0.479   4.632  0.0534 -0.1981 -0.3317
  993MOL0     C36956   3.620   0.482   4.768 -0.3658  0.8086 -0.5303
  993MOL0     C36957   3.601   0.350   4.836 -0.8165  0.0199  0.3233
  993MOL0     C36958   3.728   0.259   4.845 -0.7854 -0.2117 -0.7434
  993MOL0     C36959   3.696   0.103   4.865 -0.3302 -0.5725 -0.4308
  993MOL0     C36960   3.629   0.088   4.995  0.2459  0.1364 -1.0947
  993MOL0     C36961   3.570   0.067   5.104  0.2823  0.0745  0.8664
  993MOL0     C36962   3.798   0.431   4.532  0.0588  0.3593 -0.5572
  993MOL0     C36963   3.874   0.389   4.418 -0.4397 -0.1934  0.1774
  993MOL0     C36964   4.023   0.368   4.438  0.7412 -0.7162 -0.5039
  993MOL0     H36965   3.819  -0.001   4.049 -1.3238 -2.6035 -1.1159
  993MOL0     H36966   3.921  -0.082   3.859 -2.9220  0.3302 -0.6156
  993MOL0     H36967   4.137   0.194   3.585  2.6341  0.3418 -0.6266
  993MOL0     H36968   4.043   0.094   3.472  0.0979 -0.4755  0.5742
  993MOL0     H36969   4.276   0.071   3.433  1.3058 -2.0843 -0.3061
  993MOL0     H36970   4.306   0.030   3.597  0.0176  3.8111 -0.4099
  993MOL0     H36971   4.196  -0.191   3.583  1.5339 -1.0457 -1.0994
  993MOL0     H36972   4.132  -0.163   3.424  0.8225  0.1219  0.1615
  993MOL0     H36973   4.427  -0.195   3.491 -0.7893 -1.0740  1.0344
  993MOL0     H36974   4.317  -0.303   3.413 -0.1374 -0.3106  2.1836
  993MOL0     H36975   4.410  -0.041   3.278  1.1949 -0.6817 -0.7478
  993MOL0     H36976   4.274  -0.142   3.227 -0.1983  0.0559  0.7479
  993MOL0     H36977   4.446  -0.353   3.243 -0.5401  0.3787  2.3134
  993MOL0     H36978   4.427  -0.258   3.099  1.3526  2.5319 -1.0243
  993MOL0     H36979   4.610  -0.161   3.319  0.8246 -0.6396  0.0859
  993MOL0     H36980   4.619  -0.117   3.156  0.9017 -1.1557  0.0213
  993MOL0     H36981   4.806  -0.260   3.212  0.3871 -1.1167  0.7847
  993MOL0     H36982   4.706  -0.391   3.273 -0.5061 -2.2878 -2.6202
  993MOL0     H36983   4.695  -0.189   2.925  0.4148 -0.1355  2.1766
  993MOL0     H36984   4.840  -0.391   2.641 -0.5220  1.9168 -3.0285
  993MOL0     H36985   4.778  -0.240   2.699  0.6565 -0.4793 -0.4684
  993MOL0     H36986   4.589  -0.451   2.627 -1.2424 -0.3762 -0.8668
  993MOL0     H36987   4.549  -0.291   2.691  1.0160 -0.7580  0.7650
  993MOL0     H36988   4.529  -0.318   2.438 -0.2330 -0.6652  0.6437
  993MOL0     H36989   4.630  -0.185   2.471  1.7167  0.2926 -0.0324
  993MOL0     H36990   4.839  -0.314   2.424 -0.8366 -0.6615  2.8656
  993MOL0     H36991   4.759  -0.459   2.404 -1.0678 -1.0609  2.4665
  993MOL0     H36992   4.641  -0.189   2.052 -2.2435 -4.5433  0.5401
  993MOL0     H36993   4.838  -0.114   1.753  0.1970  1.1329  1.1491
  993MOL0     H36994   4.716  -0.048   1.867  2.7264  1.5458  2.6420
  993MOL0     H36995   4.680  -0.202   1.774 -0.5046  1.5525  0.9883
  993MOL0     H36996   5.369  -0.301   1.858  2.3907  1.7585 -0.1918
  993MOL0     H36997   5.558  -0.203   1.738  0.4902 -0.9689  1.3434
  993MOL0     H36998   5.638   0.043   1.639  5.4100  3.7301 -1.5529
  993MOL0     H36999   5.683  -0.125   1.586 -2.2311 -2.2771 -2.1732
  993MOL0     H37000   5.834   0.009   1.475 -0.2539  0.6818  3.7611
  993MOL0     H37001   5.710   0.018   1.344 -0.6268 -0.5380  0.3953
  993MOL0     H37002   5.746   0.230   1.563 -2.4409  1.5358  0.0436
  993MOL0     H37003   5.604   0.216   1.479 -0.4858 -1.5913  1.2248
  993MOL0     H37004   5.720   0.244   1.253  0.4477 -0.1644  0.4353
  993MOL0     H37005   5.873   0.265   1.349  0.6458 -0.0666 -0.6094
  993MOL0     H37006   5.630   0.440   1.407  0.5821 -1.4171 -1.3944
  993MOL0     H37007   5.791   0.467   1.454 -1.4115 -1.1970  1.3261
  993MOL0     H37008   5.694   0.486   1.155  0.5971  2.8024 -0.9608
  993MOL0     H37009   5.855   0.482   1.200 -0.3430  0.8114 -1.8475
  993MOL0     H37010   5.859   0.677   1.316 -0.0134 -1.5902  1.1107
  993MOL0     H37011   5.690   0.684   1.346  1.9694 -0.9517  0.8671
  993MOL0     H37012   5.735   0.846   1.182  1.6757  1.1007 -1.3484
  993MOL0     H37013   5.679   0.709   1.067 -0.8869  0.7684  1.2112
  993MOL0     H37014   5.271  -0.118   1.422 -0.9696 -1.0840  0.5542
  993MOL0     H37015   5.120  -0.274   1.518 -0.1397 -0.7040  1.5320
  993MOL0     H37016   5.113  -0.350   2.070  0.5043  1.0429 -2.0077
  993MOL0     H37017   4.947  -0.424   2.236 -3.4616  1.0521  2.5990
  993MOL0     H37018   3.996   0.285   3.680 -3.6728  0.2908 -1.2053
  993MOL0     H37019   3.853   0.391   3.871 -0.8550  0.1387 -0.4493
  993MOL0     H37020   3.595   0.344   4.225  1.7465 -1.2425 -1.3457
  993MOL0     H37021   3.482   0.401   4.404 -0.3824 -0.6600 -0.9930
  993MOL0     H37022   3.722   0.520   4.778 -0.5569  1.6420 -1.6025
  993MOL0     H37023   3.548   0.544   4.823 -0.6127  0.1429 -0.0816
  993MOL0     H37024   3.518   0.303   4.782  1.3859 -3.7837 -0.1013
  993MOL0     H37025   3.570   0.366   4.939  2.8769 -0.7374  1.7016
  993MOL0     H37026   3.793   0.272   4.758 -1.7214  1.4875 -1.2234
  993MOL0     H37027   3.784   0.277   4.936 -0.3798 -2.4907 -0.4788
  993MOL0     H37028   3.784   0.039   4.853  0.2495  0.3479 -1.2284
  993MOL0     H37029   3.624   0.074   4.788  1.3798 -0.8705 -1.9744
  993MOL0     H37030   3.524   0.042   5.198 -1.6503 -2.7931 -0.6630
  993MOL0     H37031   3.842   0.466   4.625 -0.1941  1.2334 -0.7572
  993MOL0     H37032   4.058   0.406   4.535  1.5654 -0.4213 -0.9145
  993MOL0     H37033   4.037   0.260   4.435 -0.8752 -0.9135 -1.8937
  993MOL0     H37034   4.086   0.420   4.366 -0.4593  2.2663  0.4407
  994MOL0     O37035   1.074   6.619   7.873 -0.0071 -0.3770  0.5862
  994MOL0     C37036   1.062   6.567   7.764  0.1520 -0.5628  0.5782
  994MOL0     O37037   1.100   6.630   7.648 -0.1402 -0.2378  0.0634
  994MOL0     C37038   1.204   6.726   7.663  0.7324 -0.4802  0.5445
  994MOL0     C37039   1.328   6.684   7.692  0.5190  1.1678 -0.5383
  994MOL0     C37040   1.429   6.781   7.692 -0.1056  0.0682 -0.4952
  994MOL0     C37041   1.409   6.920   7.685  0.2474 -0.4034  0.0037
  994MOL0     O37042   1.519   7.002   7.699 -0.3482  1.0732 -0.4946
  994MOL0     C37043   1.502   7.129   7.750 -0.3216  0.2815 -0.4051
  994MOL0     C37044   1.643   7.197   7.762  0.4377 -0.3189  0.1197
  994MOL0     C37045   1.622   7.315   7.862 -0.9964 -0.4644 -0.6171
  994MOL0     C37046   1.748   7.402   7.865 -0.3572  0.3979  1.2263
  994MOL0     C37047   1.750   7.487   7.989  0.0143  0.0069  0.4769
  994MOL0     C37048   1.882   7.562   8.013 -0.0384  0.1884 -0.2890
  994MOL0     C37049   1.881   7.634   8.143  0.5096  0.4543 -0.0226
  994MOL0     C37050   2.005   7.715   8.175  0.1355 -0.3698  0.2299
  994MOL0     N37051   2.031   7.824   8.080  0.2417 -0.6462 -0.3327
  994MOL0     C37052   1.958   7.938   8.073 -0.6987  0.3679 -0.7990
  994MOL0     C37053   2.011   8.003   7.970  0.4751 -0.8773 -0.0460
  994MOL0     C37054   1.980   8.151   7.959  0.3153  0.4135 -0.0141
  994MOL0     C37055   2.087   8.229   8.028  0.2830  0.7069 -0.0463
  994MOL0     C37056   2.110   8.181   8.170 -0.0521  0.0336  0.5451
  994MOL0     C37057   2.192   8.277   8.252 -1.1119  0.0036 -0.1716
  994MOL0     O37058   2.327   8.292   8.192  1.0387 -0.0510 -0.3246
  994MOL0     C37059   2.432   8.282   8.280 -0.7703  1.0438  1.1392
  994MOL0     C37060   2.474   8.158   8.329 -0.4715 -0.1290 -0.2035
  994MOL0     C37061   2.590   8.146   8.411  0.9677  0.2439 -0.1171
  994MOL0     C37062   2.622   8.010   8.471 -0.3072  0.4462 -0.8707
  994MOL0     C37063   2.676   8.257   8.429 -0.1388 -0.7806  0.7519
  994MOL0     C37064   2.808   8.261   8.491 -1.0454  0.5304 -0.9154
  994MOL0     O37065   2.877   8.380   8.484 -0.9602  0.4161 -0.1217
  994MOL0     C37066   3.019   8.374   8.478  0.5787  0.1938 -0.4098
  994MOL0     C37067   3.105   8.449   8.562  0.1089  0.3307  0.4215
  994MOL0     C37068   3.239   8.473   8.525  0.6663  0.9457 -0.7903
  994MOL0     C37069   3.294   8.393   8.430 -0.0805  0.0499  0.3111
  994MOL0     O37070   3.430   8.398   8.400  0.4380 -0.2872 -0.0703
  994MOL0     C37071   3.485   8.528   8.388 -0.0318  0.8220 -0.2545
  994MOL0     C37072   3.614   8.516   8.304  0.5871 -0.0534 -0.1896
  994MOL0     C37073   3.643   8.641   8.229  0.2077 -0.7237  0.2646
  994MOL0     C37074   3.683   8.770   8.309 -0.2507  0.7172  0.1947
  994MOL0     C37075   3.745   8.866   8.205  0.0603  1.1603 -0.7849
  994MOL0     C37076   3.884   8.829   8.174  0.3455  0.1462 -0.0096
  994MOL0     C37077   3.947   8.932   8.085 -0.2895  0.2772  0.3325
  994MOL0     C37078   4.002   9.040   8.176 -0.4530 -0.8358 -0.4938
  994MOL0    Cl37079   4.084   9.157   8.076 -0.1167  0.0701  0.4503
  994MOL0     C37080   3.217   8.292   8.360  0.2894 -0.1030  0.6338
  994MOL0     C37081   3.077   8.289   8.377  0.3337 -0.2038 -0.0414
  994MOL0     O37082   2.847   8.161   8.548 -0.0305 -0.3510 -0.5421
  994MOL0     C37083   2.639   8.380   8.357 -0.7362  0.5873 -0.2568
  994MOL0     C37084   2.517   8.390   8.289  0.2529 -1.1082  0.1022
  994MOL0     N37085   2.107   7.936   7.909 -0.2559  0.3774 -1.1372
  994MOL0     N37086   2.116   7.823   7.975 -0.0169  0.4557  0.5296
  994MOL0     C37087   1.278   6.965   7.659 -0.6421 -0.4799  0.1671
  994MOL0     C37088   1.178   6.865   7.647  0.1086 -0.8101 -0.5010
  994MOL0     C37089   0.981   6.449   7.740 -0.1788 -0.1887 -0.6205
  994MOL0     C37090   1.020   6.326   7.792 -0.3519 -0.5097 -0.1121
  994MOL0     C37091   0.949   6.208   7.770  0.0600 -0.4748  0.2890
  994MOL0     C37092   0.827   6.218   7.693 -0.3647 -0.3237 -0.1418
  994MOL0     O37093   0.766   6.101   7.681 -0.5507  0.4745  0.6255
  994MOL0     C37094   0.640   6.092   7.616  0.1780  0.0846 -0.6771
  994MOL0     C37095   0.523   6.084   7.724 -0.2236  0.5791 -0.1136
  994MOL0     C37096   0.384   6.068   7.655 -0.5579 -0.9943  0.0880
  994MOL0     C37097   0.263   6.055   7.741  0.1795 -0.2639 -0.5249
  994MOL0     C37098   0.138   6.049   7.656 -0.0563  0.8351 -0.7085
  994MOL0     C37099   0.040   6.043   7.593  1.1951  0.5239 -0.4378
  994MOL0     C37100   0.781   6.344   7.650  0.1512 -0.3651 -0.9088
  994MOL0     C37101   0.863   6.459   7.665  1.0740  0.5200 -0.5094
  994MOL0     C37102   0.803   6.595   7.614  0.4794  0.3365  0.9075
  994MOL0     H37103   1.344   6.577   7.689  1.0889  1.2405 -0.2450
  994MOL0     H37104   1.527   6.740   7.715  1.2160  3.0136 -0.4662
  994MOL0     H37105   1.465   7.111   7.852 -2.4024 -2.2122 -1.4901
  994MOL0     H37106   1.435   7.187   7.686  0.5024  1.0969 -0.5507
  994MOL0     H37107   1.711   7.121   7.803 -0.6299 -0.4002  1.8122
  994MOL0     H37108   1.687   7.225   7.666  0.8539 -3.1794 -0.6175
  994MOL0     H37109   1.540   7.376   7.823 -2.0199  0.7793  3.0098
  994MOL0     H37110   1.595   7.279   7.962 -3.6738 -0.7990 -1.3894
  994MOL0     H37111   1.844   7.349   7.861 -1.1527 -1.3454  3.1982
  994MOL0     H37112   1.742   7.471   7.781  0.2474  0.2991  1.0972
  994MOL0     H37113   1.729   7.420   8.073  1.1475 -2.0788 -0.8247
  994MOL0     H37114   1.672   7.564   7.985  0.9570  1.0803  1.7097
  994MOL0     H37115   1.974   7.502   8.010  2.3084  3.4774 -0.6855
  994MOL0     H37116   1.895   7.645   7.942 -1.3434  1.2960  0.7018
  994MOL0     H37117   1.864   7.562   8.224  3.0504  0.6938  0.8373
  994MOL0     H37118   1.802   7.708   8.141 -1.0036 -1.0517  1.0178
  994MOL0     H37119   2.001   7.751   8.278 -0.6546 -1.7200  0.6971
  994MOL0     H37120   2.090   7.646   8.168  0.7438  0.2940  0.8826
  994MOL0     H37121   1.887   7.974   8.147 -0.4092 -0.7356  0.0446
  994MOL0     H37122   1.881   8.162   8.004 -0.7518  0.5930 -2.2620
  994MOL0     H37123   1.967   8.179   7.854 -0.9388 -1.5496 -0.4305
  994MOL0     H37124   2.180   8.236   7.971 -1.9860  2.7874 -3.8633
  994MOL0     H37125   2.053   8.333   8.033 -0.8402  0.4028 -0.8889
  994MOL0     H37126   2.013   8.166   8.220 -1.4979 -1.0255 -2.3565
  994MOL0     H37127   2.156   8.082   8.177  0.3037  0.0515 -1.2388
  994MOL0     H37128   2.141   8.373   8.266 -0.9314  0.0572  0.1203
  994MOL0     H37129   2.203   8.234   8.352 -0.5774 -0.0965 -0.2739
  994MOL0     H37130   2.425   8.065   8.305  3.2743 -1.8103 -2.1953
  994MOL0     H37131   2.624   8.014   8.580 -0.6386 -0.4403 -0.8202
  994MOL0     H37132   2.719   7.965   8.448  1.7297  1.7848  3.8503
  994MOL0     H37133   2.547   7.937   8.440 -0.8238  1.0445 -1.0568
  994MOL0     H37134   3.058   8.490   8.651  0.0302 -0.4181  0.7395
  994MOL0     H37135   3.302   8.532   8.590 -0.6381  0.6723  0.8048
  994MOL0     H37136   3.410   8.590   8.338  1.1821 -0.2367 -3.6850
  994MOL0     H37137   3.507   8.561   8.489  1.3841 -0.6008 -0.0593
  994MOL0     H37138   3.697   8.486   8.368 -0.5939  0.2309  1.5564
  994MOL0     H37139   3.603   8.434   8.233 -3.9406 -1.5416  1.8248
  994MOL0     H37140   3.550   8.662   8.177 -0.4558  1.3717  2.1311
  994MOL0     H37141   3.728   8.613   8.166  0.1070 -2.5804  0.9006
  994MOL0     H37142   3.751   8.746   8.391 -0.4349  3.0768  1.0995
  994MOL0     H37143   3.594   8.811   8.356 -1.1775 -1.7317  0.7539
  994MOL0     H37144   3.685   8.865   8.114  0.9575 -0.2297 -1.3991
  994MOL0     H37145   3.745   8.962   8.258  2.1449 -0.7273  3.1285
  994MOL0     H37146   3.884   8.731   8.125 -0.1264 -0.6047  1.4155
  994MOL0     H37147   3.943   8.827   8.266  0.1472  3.6478  0.3397
  994MOL0     H37148   3.888   8.975   8.005 -1.5119  0.5550  1.3536
  994MOL0     H37149   4.026   8.878   8.032 -1.1866 -0.7505 -0.0032
  994MOL0     H37150   4.074   8.990   8.241  1.3233 -0.2226 -1.9041
  994MOL0     H37151   3.927   9.089   8.238  0.3766 -1.0699  0.7366
  994MOL0     H37152   3.262   8.239   8.277 -0.6178 -1.2553  0.8615
  994MOL0     H37153   3.023   8.219   8.314  0.9429 -0.3195 -0.4477
  994MOL0     H37154   2.709   8.462   8.345  1.7581 -1.6420 -2.4598
  994MOL0     H37155   2.481   8.484   8.249 -2.4732 -1.9174  0.4893
  994MOL0     H37156   1.250   7.068   7.642 -0.5342 -0.3736  0.6308
  994MOL0     H37157   1.082   6.893   7.604  0.7221 -1.4798 -2.3986
  994MOL0     H37158   1.110   6.315   7.852  0.0072  1.0818 -0.3007
  994MOL0     H37159   0.975   6.109   7.804 -1.8677 -1.1450 -0.0753
  994MOL0     H37160   0.624   6.166   7.537  1.9956  1.4299  0.1506
  994MOL0     H37161   0.632   5.996   7.564  1.4974 -0.9059  0.8511
  994MOL0     H37162   0.538   6.180   7.774  1.8552  0.0559  0.3354
  994MOL0     H37163   0.537   5.994   7.785 -0.2317 -1.5384 -3.0035
  994MOL0     H37164   0.361   6.151   7.587 -0.5122 -1.5583 -0.6165
  994MOL0     H37165   0.385   5.980   7.591 -2.0416  0.2328 -1.7417
  994MOL0     H37166   0.251   6.135   7.814  0.0769 -1.0408  0.3359
  994MOL0     H37167   0.273   5.970   7.809 -4.6150  1.0167  2.2865
  994MOL0     H37168  -0.054   6.041   7.541  0.0502 -2.1538  1.5136
  994MOL0     H37169   0.688   6.356   7.596 -1.1717 -0.9750  1.1390
  994MOL0     H37170   0.720   6.574   7.546  1.4444 -0.6388 -0.0285
  994MOL0     H37171   0.753   6.656   7.689  0.2152 -1.6484  2.4434
  994MOL0     H37172   0.881   6.642   7.554 -0.0958 -1.9743 -1.8607
  995MOL0     O37173   4.106   1.654   1.257  0.0557 -0.3776  0.3026
  995MOL0     C37174   4.080   1.688   1.144  0.5072  0.3470  0.2558
  995MOL0     O37175   3.964   1.751   1.110  0.2450  0.6702 -0.2252
  995MOL0     C37176   3.864   1.752   1.198  0.9126 -0.1376  0.3256
  995MOL0     C37177   3.747   1.676   1.174  0.0583  1.2625  0.7852
  995MOL0     C37178   3.642   1.675   1.262 -0.5838  0.3366 -0.1556
  995MOL0     C37179   3.653   1.744   1.387 -0.0956 -0.2463  0.4623
  995MOL0     O37180   3.549   1.725   1.470  0.0554 -0.0665  0.0499
  995MOL0     C37181   3.569   1.736   1.613 -0.1903  0.4587  0.6687
  995MOL0     C37182   3.468   1.668   1.704 -0.1648  0.0852  0.1349
  995MOL0     C37183   3.491   1.511   1.697 -0.3394  0.5997 -0.2140
  995MOL0     C37184   3.368   1.435   1.753 -0.2862 -0.2393 -0.7107
  995MOL0     C37185   3.372   1.286   1.704 -0.0010  0.4243 -0.3092
  995MOL0     C37186   3.491   1.202   1.754 -0.1459 -0.2741 -1.0116
  995MOL0     C37187   3.513   1.221   1.907 -0.0915 -0.3678  0.4183
  995MOL0     C37188   3.590   1.106   1.964  0.4927  0.2533 -0.2027
  995MOL0     N37189   3.728   1.084   1.915  0.2695 -0.1571  0.8961
  995MOL0     C37190   3.787   0.970   1.857  0.7555  0.2971 -0.4992
  995MOL0     C37191   3.921   0.989   1.873  0.8525 -0.2698  0.6429
  995MOL0     C37192   4.024   0.892   1.830 -0.1089  0.0191 -0.3121
  995MOL0     C37193   4.140   0.947   1.749  0.1659 -0.2617 -0.6340
  995MOL0     C37194   4.215   0.835   1.681 -0.4067 -0.7317 -0.0924
  995MOL0     C37195   4.346   0.877   1.607 -0.4530  0.5592  0.3040
  995MOL0     O37196   4.420   0.757   1.581 -0.7832 -0.3014  0.4995
  995MOL0     C37197   4.529   0.764   1.492  0.1414 -1.2626 -1.1921
  995MOL0     C37198   4.630   0.675   1.509 -0.4158  0.4414 -0.5441
  995MOL0     C37199   4.750   0.681   1.441  0.8616 -0.4710 -0.0593
  995MOL0     C37200   4.858   0.580   1.460 -0.7189  0.8631 -0.1364
  995MOL0     C37201   4.765   0.785   1.349 -0.4841  0.0871  0.3162
  995MOL0     C37202   4.888   0.798   1.263 -0.6747  0.2477  0.0967
  995MOL0     O37203   5.017   0.744   1.296  0.2307 -0.0963 -0.6787
  995MOL0     C37204   5.128   0.782   1.224 -0.3550 -0.3018  0.0719
  995MOL0     C37205   5.225   0.682   1.201 -0.2327  0.5178 -0.0054
  995MOL0     C37206   5.353   0.702   1.144  0.0312  0.2858 -0.1222
  995MOL0     C37207   5.379   0.837   1.111  0.3803  0.1344  0.5439
  995MOL0     O37208   5.495   0.875   1.055 -0.0316  0.5355  0.6117
  995MOL0     C37209   5.510   0.899   0.918  0.2068  0.7649 -0.8843
  995MOL0     C37210   5.653   0.942   0.896 -0.3699  1.2485 -0.1456
  995MOL0     C37211   5.675   1.025   0.764  0.0164  0.0078 -0.1107
  995MOL0     C37212   5.681   0.933   0.638  0.2975 -0.0210 -0.4367
  995MOL0     C37213   5.758   0.984   0.517 -0.3245 -0.1323 -0.8941
  995MOL0     C37214   5.693   1.109   0.460 -0.2040  0.5026 -0.2793
  995MOL0     C37215   5.766   1.163   0.339 -0.3276  0.0821 -0.4518
  995MOL0     C37216   5.893   1.250   0.370 -0.1249  0.3074 -0.3824
  995MOL0    Cl37217   5.868   1.363   0.499  0.1172  0.0233 -0.0331
  995MOL0     C37218   5.281   0.939   1.124 -0.5239  0.3551 -0.3817
  995MOL0     C37219   5.162   0.912   1.183 -0.1400 -0.7030 -0.7712
  995MOL0     O37220   4.865   0.849   1.149 -0.4319  0.9970  0.1447
  995MOL0     C37221   4.664   0.880   1.330  0.8010  0.5229 -0.0826
  995MOL0     C37222   4.542   0.868   1.397  0.0842 -0.0539 -0.4297
  995MOL0     N37223   3.942   1.116   1.931  0.2181  0.1638 -0.3864
  995MOL0     N37224   3.827   1.167   1.963  0.1667  0.0559  0.0895
  995MOL0     C37225   3.757   1.820   1.410 -0.9505  0.3068  0.0564
  995MOL0     C37226   3.859   1.829   1.309 -0.2051  0.1413  0.4106
  995MOL0     C37227   4.185   1.675   1.038 -0.8371 -0.1528  0.1817
  995MOL0     C37228   4.302   1.606   1.079  0.2469 -0.2120  1.0676
  995MOL0     C37229   4.397   1.585   0.983 -0.1206  0.4679  0.2324
  995MOL0     C37230   4.366   1.597   0.848 -0.0600  0.0215 -0.6655
  995MOL0     O37231   4.458   1.553   0.757  0.5003 -0.6340 -0.5734
  995MOL0     C37232   4.434   1.586   0.616 -0.1313  0.1433  1.1259
  995MOL0     C37233   4.530   1.502   0.531  0.3098 -0.0460  0.6668
  995MOL0     C37234   4.562   1.578   0.404  0.2034  0.1242  0.2584
  995MOL0     C37235   4.447   1.560   0.289 -0.8028  0.0632 -0.3170
  995MOL0     C37236   4.511   1.493   0.174  0.0765  0.1804  0.3315
  995MOL0     C37237   4.557   1.435   0.070 -1.0387 -0.4057 -0.5458
  995MOL0     C37238   4.254   1.660   0.808  0.2022 -0.3006 -1.0704
  995MOL0     C37239   4.167   1.706   0.902 -0.4861  0.6082  0.7435
  995MOL0     C37240   4.037   1.761   0.848 -0.4085 -0.0274 -0.3986
  995MOL0     H37241   3.744   1.605   1.092  0.4991 -0.2206  2.0118
  995MOL0     H37242   3.560   1.605   1.250 -0.4762  0.4869 -2.1277
  995MOL0     H37243   3.577   1.839   1.649  1.0819  0.2151  1.1427
  995MOL0     H37244   3.663   1.689   1.645 -0.4582 -0.9796 -0.5744
  995MOL0     H37245   3.478   1.696   1.809  1.3829  0.9972 -0.2278
  995MOL0     H37246   3.366   1.691   1.670 -0.8508 -2.3819  0.3325
  995MOL0     H37247   3.486   1.493   1.589 -1.0202  0.4535 -0.1638
  995MOL0     H37248   3.585   1.475   1.738  0.8771  2.8933 -0.8108
  995MOL0     H37249   3.361   1.443   1.861  1.7928 -0.2743 -0.5227
  995MOL0     H37250   3.281   1.490   1.717  1.7793  2.5641 -1.7498
  995MOL0     H37251   3.371   1.288   1.595  2.3744 -0.3329 -0.4101
  995MOL0     H37252   3.290   1.242   1.762  1.8653  0.7894  2.8799
  995MOL0     H37253   3.468   1.095   1.749  1.6423 -0.9090  1.7768
  995MOL0     H37254   3.575   1.235   1.692 -1.0631  4.5802 -0.0780
  995MOL0     H37255   3.414   1.217   1.954 -1.2449  2.1424 -1.5901
  995MOL0     H37256   3.553   1.319   1.932 -0.1615  0.1453 -1.3385
  995MOL0     H37257   3.593   1.126   2.071 -0.6765  0.6968 -0.2381
  995MOL0     H37258   3.544   1.008   1.947  0.0335  0.3541  0.4243
  995MOL0     H37259   3.719   0.895   1.818  1.1443 -0.4235  0.1902
  995MOL0     H37260   3.982   0.807   1.775  1.0994 -1.3032  0.7329
  995MOL0     H37261   4.060   0.852   1.925  0.3535 -3.4885 -1.8023
  995MOL0     H37262   4.092   1.016   1.679 -3.1399 -0.3625  1.2917
  995MOL0     H37263   4.205   0.998   1.821 -1.5110 -1.6011  2.0214
  995MOL0     H37264   4.241   0.762   1.758  2.1229  1.2095  1.0627
  995MOL0     H37265   4.151   0.792   1.604  1.4091 -4.0262  0.0952
  995MOL0     H37266   4.321   0.945   1.525 -1.3282 -1.3539 -1.1054
  995MOL0     H37267   4.416   0.935   1.668  0.1593 -0.3032  0.4379
  995MOL0     H37268   4.619   0.595   1.582 -1.9852  2.0506  1.0521
  995MOL0     H37269   4.873   0.531   1.363 -1.7053 -1.4597  0.7908
  995MOL0     H37270   4.814   0.503   1.524  1.3344  0.2660  0.6379
  995MOL0     H37271   4.949   0.626   1.500 -1.8319  2.4548  0.6426
  995MOL0     H37272   5.188   0.580   1.206  0.1193  0.2869 -1.4592
  995MOL0     H37273   5.434   0.631   1.133  0.7677  1.0342  0.3251
  995MOL0     H37274   5.490   0.808   0.860 -1.4889  1.4509 -1.4691
  995MOL0     H37275   5.441   0.978   0.886 -1.4951  0.4726  1.7530
  995MOL0     H37276   5.688   1.012   0.973  2.2074 -1.8791  1.7503
  995MOL0     H37277   5.725   0.860   0.899  1.3678  2.4253 -3.8751
  995MOL0     H37278   5.769   1.079   0.772 -0.3904  0.4997  1.8683
  995MOL0     H37279   5.594   1.097   0.751 -1.2290 -1.0862  1.1348
  995MOL0     H37280   5.581   0.908   0.603  0.5028  0.7738 -1.6494
  995MOL0     H37281   5.728   0.839   0.666  0.3200  0.2581  0.5187
  995MOL0     H37282   5.860   1.012   0.545 -0.7777  1.5556 -0.8055
  995MOL0     H37283   5.771   0.909   0.439  2.0293  0.9377 -1.6268
  995MOL0     H37284   5.682   1.182   0.541  2.4082 -0.9128  1.5122
  995MOL0     H37285   5.592   1.086   0.423  0.2355  1.4744 -2.2025
  995MOL0     H37286   5.696   1.232   0.292 -1.2932  0.9947  2.1716
  995MOL0     H37287   5.779   1.078   0.271 -2.4834  0.1851 -1.0511
  995MOL0     H37288   5.919   1.305   0.279 -1.5862 -0.2465 -1.1602
  995MOL0     H37289   5.975   1.187   0.407 -1.3086 -0.8773  0.3175
  995MOL0     H37290   5.307   1.043   1.104  2.1516 -0.4310 -1.4182
  995MOL0     H37291   5.080   0.981   1.196 -3.1720 -4.3633  1.4636
  995MOL0     H37292   4.684   0.958   1.257  1.1756  0.3942 -0.1208
  995MOL0     H37293   4.474   0.949   1.375  0.1810 -0.3171 -1.8224
  995MOL0     H37294   3.753   1.871   1.505 -0.8920 -1.6666  1.1672
  995MOL0     H37295   3.944   1.896   1.318  0.7067 -0.9497  0.1557
  995MOL0     H37296   4.328   1.595   1.184  0.5387  1.1827  1.1571
  995MOL0     H37297   4.498   1.549   1.004 -0.1525  0.7531  0.9082
  995MOL0     H37298   4.332   1.569   0.581  0.3450  0.1724 -0.3661
  995MOL0     H37299   4.454   1.692   0.597 -2.6462  0.7038  1.3232
  995MOL0     H37300   4.494   1.402   0.505  1.2217  0.2909 -2.2893
  995MOL0     H37301   4.626   1.499   0.584  0.0094  2.8523  1.5560
  995MOL0     H37302   4.576   1.683   0.430  2.0184 -0.6647  2.9819
  995MOL0     H37303   4.654   1.528   0.371  0.6174 -1.2330  3.1508
  995MOL0     H37304   4.419   1.662   0.261  1.6115  1.0075  0.4641
  995MOL0     H37305   4.364   1.501   0.329 -1.7603  1.7572  0.3085
  995MOL0     H37306   4.601   1.411  -0.024 -1.1864 -0.9753 -0.4705
  995MOL0     H37307   4.229   1.680   0.705  0.6967  2.3603 -0.7475
  995MOL0     H37308   4.011   1.858   0.892  1.8814  0.4195  0.0913
  995MOL0     H37309   4.052   1.781   0.742  2.2675 -0.0544 -0.0816
  995MOL0     H37310   3.954   1.692   0.869 -2.1413  2.0322 -0.2015
  996MOL0     O37311  11.165   4.995   9.851  0.0579 -0.5152  0.1051
  996MOL0     C37312  11.255   5.069   9.801  0.1563  0.2636 -0.0157
  996MOL0     O37313  11.387   5.042   9.805  0.4972 -0.1393  0.0986
  996MOL0     C37314  11.436   4.944   9.891  0.1112 -0.1179  0.8860
  996MOL0     C37315  11.384   4.923  10.022  0.5166 -0.5029  0.2730
  996MOL0     C37316  11.429   4.820  10.106 -0.1256 -0.1846 -0.5165
  996MOL0     C37317  11.531   4.739  10.056  0.1345  0.3766  0.4592
  996MOL0     O37318  11.582   4.638  10.126 -0.3528 -0.6579  0.5491
  996MOL0     C37319  11.529   4.505  10.096  0.0347 -0.7478 -0.1283
  996MOL0     C37320  11.558   4.406  10.203 -0.3857 -1.0075 -0.3417
  996MOL0     C37321  11.699   4.341  10.194  0.7769  0.4591 -0.2119
  996MOL0     C37322  11.719   4.261  10.320  0.2278  0.1370  0.6805
  996MOL0     C37323  11.637   4.127  10.301  0.5005 -0.3552  0.4715
  996MOL0     C37324  11.651   4.032  10.182 -0.2574 -0.9790 -1.0153
  996MOL0     C37325  11.569   3.904  10.190 -0.3851  1.0049 -0.9100
  996MOL0     C37326  11.499   3.856  10.062  0.8760  0.1236  0.0446
  996MOL0     N37327  11.358   3.900  10.038 -0.1546 -0.7578 -0.2644
  996MOL0     C37328  11.333   4.034  10.036  0.2696 -0.5469 -0.8381
  996MOL0     C37329  11.202   4.028  10.002  0.0927  1.0317 -0.4538
  996MOL0     C37330  11.105   4.143   9.985 -0.3674  0.0899 -0.5661
  996MOL0     C37331  11.121   4.220   9.858  0.2827 -0.7984  1.3769
  996MOL0     C37332  11.016   4.195   9.741 -0.4815  0.1017  0.1128
  996MOL0     C37333  10.988   4.046   9.709  0.4000 -0.4599 -0.2810
  996MOL0     O37334  10.865   4.042   9.643  0.1391 -0.1192 -0.4015
  996MOL0     C37335  10.817   3.914   9.643 -0.0032  0.2402  0.9717
  996MOL0     C37336  10.828   3.832   9.521 -0.5661 -0.1900  0.0806
  996MOL0     C37337  10.777   3.703   9.519 -0.6805 -0.2491 -0.0659
  996MOL0     C37338  10.809   3.625   9.390  0.3901  0.2264 -0.3133
  996MOL0     C37339  10.706   3.656   9.632  0.8908 -0.8320 -0.9500
  996MOL0     C37340  10.637   3.527   9.635  0.4134  0.0490  0.4024
  996MOL0     O37341  10.610   3.466   9.757 -0.9946 -0.6087 -0.0935
  996MOL0     C37342  10.516   3.369   9.756 -1.0317  0.4485  0.3177
  996MOL0     C37343  10.547   3.232   9.739  0.6440 -0.1076 -0.1703
  996MOL0     C37344  10.446   3.129   9.725  0.6869 -0.6417  0.6925
  996MOL0     C37345  10.313   3.172   9.757  0.0664 -0.1211  0.0912
  996MOL0     O37346  10.195   3.099   9.738  0.3062 -0.0841 -0.2198
  996MOL0     C37347  10.198   2.975   9.675 -0.0390 -0.4086  0.6245
  996MOL0     C37348  10.046   2.940   9.658  0.3549 -0.2072 -0.1213
  996MOL0     C37349  10.031   2.823   9.565  0.9504 -0.7761  0.7915
  996MOL0     C37350   9.877   2.817   9.548 -0.8769  0.1724  0.5526
  996MOL0     C37351   9.839   2.684   9.488 -0.1007  0.6427 -0.6795
  996MOL0     C37352   9.695   2.677   9.426  0.7733  0.1265 -0.1948
  996MOL0     C37353   9.638   2.788   9.347 -0.6196 -0.5588 -0.0536
  996MOL0     C37354   9.508   2.767   9.269  0.6241  0.5085  0.2549
  996MOL0    Cl37355   9.385   2.677   9.372 -0.2446  0.0099 -0.1495
  996MOL0     C37356  10.287   3.304   9.794  0.9758  0.7896  0.0026
  996MOL0     C37357  10.384   3.403   9.785 -0.0484 -0.3413 -0.0833
  996MOL0     O37358  10.585   3.493   9.529  0.6235  0.1223 -0.2801
  996MOL0     C37359  10.694   3.740   9.749 -0.6915 -0.0597 -0.4037
  996MOL0     C37360  10.751   3.862   9.754 -0.8189  0.2629  1.1432
  996MOL0     N37361  11.154   3.896   9.989 -0.4728 -0.0281  0.6988
  996MOL0     N37362  11.255   3.823  10.003  0.1552  0.1178 -0.2497
  996MOL0     C37363  11.589   4.758   9.935  0.1106 -1.0132  0.5928
  996MOL0     C37364  11.542   4.861   9.850 -0.5777 -0.3968 -0.6593
  996MOL0     C37365  11.205   5.183   9.722  0.8467 -0.0093  0.5507
  996MOL0     C37366  11.260   5.215   9.602 -0.0113  0.0222  0.1688
  996MOL0     C37367  11.214   5.325   9.521 -0.3049 -0.7233 -0.2153
  996MOL0     C37368  11.106   5.405   9.568  0.7683 -0.8211  0.6490
  996MOL0     O37369  11.068   5.514   9.497  0.9774  0.3369 -0.0999
  996MOL0     C37370  11.101   5.638   9.560 -0.0316 -0.3457  0.0424
  996MOL0     C37371  11.187   5.726   9.467 -0.3838 -0.0510  0.7305
  996MOL0     C37372  11.316   5.665   9.439 -0.4793  0.6585  0.2014
  996MOL0     C37373  11.339   5.638   9.288  0.4876 -0.4161 -0.2165
  996MOL0     C37374  11.435   5.533   9.266  0.2113 -0.5332 -0.6734
  996MOL0     C37375  11.531   5.455   9.255 -0.2435 -0.0666 -0.2704
  996MOL0     C37376  11.055   5.376   9.690 -0.1579 -0.5215 -0.2770
  996MOL0     C37377  11.088   5.259   9.759 -0.5489 -0.2724 -0.3866
  996MOL0     C37378  10.990   5.231   9.871 -0.1987  0.6991  0.2221
  996MOL0     H37379  11.300   4.980  10.061 -0.4228 -1.6311 -0.0532
  996MOL0     H37380  11.390   4.798  10.205 -1.1555 -0.5110 -0.9810
  996MOL0     H37381  11.572   4.466  10.003 -1.6038 -0.4411 -1.0456
  996MOL0     H37382  11.422   4.507  10.076  0.1846 -1.2757 -1.0444
  996MOL0     H37383  11.539   4.462  10.295 -0.6881 -0.0363 -0.9797
  996MOL0     H37384  11.487   4.323  10.197 -1.0793 -0.5657  1.1244
  996MOL0     H37385  11.721   4.276  10.109 -0.0594 -0.9605  0.6087
  996MOL0     H37386  11.769   4.424  10.183  3.3435 -1.6367 -0.6397
  996MOL0     H37387  11.824   4.234  10.329  0.4194 -0.3127 -1.9101
  996MOL0     H37388  11.685   4.314  10.409 -0.0608  0.3028  0.4757
  996MOL0     H37389  11.534   4.158  10.319  0.2095 -0.2570 -1.1870
  996MOL0     H37390  11.664   4.065  10.387  3.5389 -1.9550 -1.4487
  996MOL0     H37391  11.618   4.092  10.096  1.8396  1.9690  0.0846
  996MOL0     H37392  11.756   4.012  10.159  0.7733  2.7371 -0.2987
  996MOL0     H37393  11.486   3.914  10.261 -0.2034 -0.3976 -0.4607
  996MOL0     H37394  11.639   3.823  10.215  2.6286  3.5062 -0.6751
  996MOL0     H37395  11.562   3.888   9.979 -0.6695  1.7387 -0.5611
  996MOL0     H37396  11.496   3.747  10.068 -1.3833  0.0673 -0.9232
  996MOL0     H37397  11.388   4.123  10.064  0.1724 -0.7755  0.1180
  996MOL0     H37398  11.107   4.210  10.071 -1.3681  0.3790 -0.7505
  996MOL0     H37399  11.004   4.101   9.988 -0.6013  0.6991  0.6492
  996MOL0     H37400  11.115   4.328   9.877  1.5232 -0.1885 -1.1469
  996MOL0     H37401  11.220   4.204   9.814 -0.8158 -3.7568 -0.2821
  996MOL0     H37402  10.921   4.236   9.775  0.3894  3.5067 -1.1605
  996MOL0     H37403  11.045   4.252   9.652 -3.2859 -0.1024 -1.0375
  996MOL0     H37404  11.075   4.023   9.646  0.7767  3.6878 -1.5724
  996MOL0     H37405  10.987   3.987   9.801  0.6707  1.5746  1.0995
  996MOL0     H37406  10.881   3.883   9.441  0.8133 -1.4063  0.1866
  996MOL0     H37407  10.723   3.638   9.323 -1.6803 -0.2627  2.0773
  996MOL0     H37408  10.835   3.521   9.409 -1.8315 -0.1230  1.3048
  996MOL0     H37409  10.899   3.663   9.342  0.9499 -1.6305 -0.7853
  996MOL0     H37410  10.648   3.201   9.717  0.4677 -1.4603  0.7375
  996MOL0     H37411  10.476   3.028   9.699  2.5770  0.2575 -0.8247
  996MOL0     H37412  10.252   2.982   9.581 -2.8590  0.8198 -1.0228
  996MOL0     H37413  10.244   2.902   9.743 -0.7556 -0.4555  1.0795
  996MOL0     H37414  10.009   2.918   9.758  0.8644  4.6825  1.3935
  996MOL0     H37415   9.998   3.034   9.629  0.7437 -0.5072 -1.8797
  996MOL0     H37416  10.065   2.731   9.611  0.2687 -1.9555 -0.9363
  996MOL0     H37417  10.077   2.857   9.472  0.8166  1.9408  1.6272
  996MOL0     H37418   9.840   2.893   9.479  2.8809 -0.0271 -1.9883
  996MOL0     H37419   9.832   2.844   9.644  2.0745  1.6069  1.6618
  996MOL0     H37420   9.917   2.667   9.413  2.0233  2.5275  0.9713
  996MOL0     H37421   9.864   2.610   9.565  5.3930  3.0450  0.3152
  996MOL0     H37422   9.625   2.640   9.502  0.8810 -0.0786 -0.1968
  996MOL0     H37423   9.688   2.598   9.352  0.2333 -0.9675  0.9866
  996MOL0     H37424   9.714   2.811   9.272  1.0204  2.1790  2.2618
  996MOL0     H37425   9.613   2.873   9.411 -0.6132 -1.7917  1.6533
  996MOL0     H37426   9.541   2.705   9.185  0.5368  0.3902  0.3067
  996MOL0     H37427   9.468   2.862   9.231  1.0420  0.4705 -0.2945
  996MOL0     H37428  10.190   3.335   9.830  1.7920  5.2710 -1.0295
  996MOL0     H37429  10.352   3.506   9.796 -0.4260 -0.5693  1.0917
  996MOL0     H37430  10.656   3.701   9.843  0.7071 -2.5574 -0.7563
  996MOL0     H37431  10.756   3.932   9.837  3.0639  1.5250  0.0501
  996MOL0     H37432  11.663   4.686   9.903  2.3435  1.0240  0.8865
  996MOL0     H37433  11.595   4.880   9.757  1.4608  1.6132  0.7921
  996MOL0     H37434  11.352   5.172   9.560 -1.5110 -1.5430 -1.7437
  996MOL0     H37435  11.257   5.358   9.427 -1.8319  1.7690 -0.1259
  996MOL0     H37436  11.004   5.682   9.583  0.7316  1.1246  0.5521
  996MOL0     H37437  11.145   5.633   9.660  0.5029 -0.7423 -0.2055
  996MOL0     H37438  11.195   5.821   9.520 -1.8149 -0.4018  1.6429
  996MOL0     H37439  11.126   5.743   9.378  1.1956  0.6598 -0.2486
  996MOL0     H37440  11.399   5.730   9.469  0.5699 -0.1691 -0.8133
  996MOL0     H37441  11.323   5.572   9.496  0.2649  0.0553 -0.8372
  996MOL0     H37442  11.386   5.732   9.257 -4.1756  2.6175  0.9483
  996MOL0     H37443  11.253   5.632   9.220  0.2747 -0.3584  0.0486
  996MOL0     H37444  11.606   5.380   9.235  1.3629  1.6157 -0.8139
  996MOL0     H37445  10.968   5.434   9.718 -0.3113 -1.2762  0.9217
  996MOL0     H37446  10.900   5.292   9.857  0.5456  1.4651 -1.5732
  996MOL0     H37447  10.953   5.128   9.873 -0.3597  0.7640  0.8929
  996MOL0     H37448  11.045   5.261   9.961  1.3435 -0.5052 -0.2742
  997MOL0     O37449   1.164   3.465  11.106 -0.3682 -0.8654  0.3906
  997MOL0     C37450   1.194   3.587  11.113  0.3879  0.3357 -0.0435
  997MOL0     O37451   1.320   3.635  11.118 -0.5370 -0.1520 -0.3715
  997MOL0     C37452   1.430   3.548  11.112 -0.1001  0.1695  0.6835
  997MOL0     C37453   1.477   3.491  10.990  0.2139 -0.1441 -0.5386
  997MOL0     C37454   1.582   3.406  10.995  0.5652 -0.7457 -0.0330
  997MOL0     C37455   1.646   3.381  11.110  0.1552 -1.1074 -1.1575
  997MOL0     O37456   1.741   3.286  11.125  0.0062  0.9029 -0.2543
  997MOL0     C37457   1.869   3.320  11.067 -1.0450 -0.2218 -0.2931
  997MOL0     C37458   1.966   3.365  11.173 -0.4005 -0.1536  0.2456
  997MOL0     C37459   2.108   3.380  11.108  0.7068 -0.6293 -0.8419
  997MOL0     C37460   2.164   3.249  11.074  0.2939 -1.1795  0.7546
  997MOL0     C37461   2.317   3.257  11.059  0.2235 -0.2677  0.2356
  997MOL0     C37462   2.379   3.347  10.952 -0.3590 -0.4623  0.4194
  997MOL0     C37463   2.530   3.345  10.963 -0.0193  0.3982  0.2622
  997MOL0     C37464   2.596   3.447  10.867  0.4169 -0.7346  0.0339
  997MOL0     N37465   2.747   3.434  10.882 -0.9270 -0.7170  0.1861
  997MOL0     C37466   2.827   3.329  10.846 -1.0266 -0.2049 -0.5477
  997MOL0     C37467   2.957   3.375  10.859  0.3925  0.0046  0.3390
  997MOL0     C37468   3.083   3.292  10.826  0.7755  0.7802 -0.1166
  997MOL0     C37469   3.074   3.226  10.689 -0.5023 -0.3184 -0.2770
  997MOL0     C37470   3.200   3.136  10.663  0.1703 -0.5581 -0.0927
  997MOL0     C37471   3.287   3.173  10.546 -0.0139 -0.6284  0.6814
  997MOL0     O37472   3.393   3.075  10.554 -0.4944 -0.0539 -0.5716
  997MOL0     C37473   3.512   3.106  10.490  0.1528  0.4818 -0.1738
  997MOL0     C37474   3.525   3.176  10.376 -0.0142 -0.0797 -0.0832
  997MOL0     C37475   3.654   3.221  10.320 -0.4629  0.7495 -0.1109
  997MOL0     C37476   3.648   3.314  10.190 -0.0799 -0.8937  0.2486
  997MOL0     C37477   3.777   3.172  10.381  0.1248 -0.0876 -1.2603
  997MOL0     C37478   3.912   3.230  10.344  0.5609 -0.5820 -0.1821
  997MOL0     O37479   3.914   3.349  10.282 -0.2490 -0.3349 -0.1379
  997MOL0     C37480   4.022   3.418  10.240 -0.4585  0.0410  0.1470
  997MOL0     C37481   4.151   3.402  10.306  0.2178  0.4331  0.3837
  997MOL0     C37482   4.254   3.487  10.273  0.2154 -0.2747 -1.0013
  997MOL0     C37483   4.242   3.590  10.175 -0.6428  0.9211 -0.0547
  997MOL0     O37484   4.349   3.670  10.159  0.6957 -0.1368 -0.5413
  997MOL0     C37485   4.353   3.751  10.044 -1.1949  0.0204  0.7116
  997MOL0     C37486   4.499   3.821  10.038  0.5153  0.0790 -0.1506
  997MOL0     C37487   4.521   3.908   9.918 -0.2573 -0.0983 -0.3127
  997MOL0     C37488   4.622   4.021   9.944 -0.3353  0.3729  0.4075
  997MOL0     C37489   4.657   4.081   9.798  0.8895  0.5199 -0.8280
  997MOL0     C37490   4.712   4.220   9.812 -0.6552  0.6867  1.4347
  997MOL0     C37491   4.823   4.233   9.911 -0.1145  0.1418 -0.4606
  997MOL0     C37492   4.879   4.369   9.929  0.0134 -0.1522 -0.0425
  997MOL0    Cl37493   4.937   4.422   9.763 -0.0521  0.2487  0.1840
  997MOL0     C37494   4.124   3.598  10.113  0.0221 -0.8558 -0.0590
  997MOL0     C37495   4.014   3.516  10.138  0.5665  0.2566 -0.6313
  997MOL0     O37496   4.007   3.160  10.382 -0.7275 -0.4768  0.3922
  997MOL0     C37497   3.757   3.096  10.498 -0.1393  0.3084  0.1292
  997MOL0     C37498   3.633   3.076  10.553  0.6158  1.0045  1.2891
  997MOL0     N37499   2.946   3.511  10.897  0.3327  0.4535 -0.8189
  997MOL0     N37500   2.822   3.540  10.916 -0.0834 -0.7707 -0.4474
  997MOL0     C37501   1.610   3.451  11.231  0.5680 -0.1516  0.0195
  997MOL0     C37502   1.498   3.534  11.233  0.0941 -0.1178  0.5360
  997MOL0     C37503   1.087   3.682  11.107  0.3299 -0.6847 -0.4187
  997MOL0     C37504   1.125   3.807  11.057 -0.7490  0.0194 -0.6926
  997MOL0     C37505   1.036   3.901  11.028 -0.2112 -0.4546 -0.0407
  997MOL0     C37506   0.910   3.884  11.078 -0.6913  1.0848 -0.1825
  997MOL0     O37507   0.836   3.994  11.060 -0.5602  0.7692  0.0997
  997MOL0     C37508   0.701   4.002  11.109 -0.1025  0.6739  0.8891
  997MOL0     C37509   0.647   4.136  11.157 -1.1086 -0.4233  0.1958
  997MOL0     C37510   0.714   4.179  11.287 -0.0107  0.2389 -0.0592
  997MOL0     C37511   0.701   4.322  11.298 -0.5280  0.4557 -0.6924
  997MOL0     C37512   0.791   4.398  11.205  0.1488  0.1732 -0.1222
  997MOL0     C37513   0.855   4.457  11.115  0.3207  0.3009 -0.6824
  997MOL0     C37514   0.863   3.759  11.121  0.6906 -0.4212  0.4785
  997MOL0     C37515   0.952   3.658  11.138  0.4470 -1.5473 -0.8848
  997MOL0     C37516   0.898   3.531  11.200  0.9752 -0.0164  0.0238
  997MOL0     H37517   1.417   3.506  10.901  0.7929  0.3279 -0.8624
  997MOL0     H37518   1.626   3.359  10.908  1.3774 -0.7404  0.3667
  997MOL0     H37519   1.859   3.393  10.986 -0.7241 -2.7983 -2.8136
  997MOL0     H37520   1.895   3.219  11.034 -0.9943 -0.7138  1.2018
  997MOL0     H37521   1.932   3.459  11.218  0.2860 -1.4730  3.8846
  997MOL0     H37522   1.943   3.303  11.260 -4.7617  0.1897 -0.4430
  997MOL0     H37523   2.101   3.444  11.021  0.1906  0.1804 -0.2145
  997MOL0     H37524   2.170   3.437  11.178 -3.3123 -0.6384  3.1607
  997MOL0     H37525   2.142   3.184  11.160 -0.4045  0.4671  1.8673
  997MOL0     H37526   2.115   3.199  10.990  0.4936  0.9925 -0.7280
  997MOL0     H37527   2.350   3.157  11.032  2.1728  0.3666  0.1418
  997MOL0     H37528   2.358   3.289  11.155 -4.6182  0.2408  2.4644
  997MOL0     H37529   2.345   3.322  10.851  0.5094  2.0642 -0.5794
  997MOL0     H37530   2.346   3.451  10.959  1.3521  0.0757  1.0808
  997MOL0     H37531   2.572   3.247  10.941  0.1882 -0.4813  3.8305
  997MOL0     H37532   2.568   3.364  11.064  0.8029  1.0634 -0.1663
  997MOL0     H37533   2.572   3.413  10.765  1.6251 -1.1826 -0.1143
  997MOL0     H37534   2.561   3.549  10.886 -0.1477 -0.6218 -1.4324
  997MOL0     H37535   2.795   3.230  10.815  1.2638 -0.9624 -0.6746
  997MOL0     H37536   3.086   3.206  10.893 -0.8439 -0.9829 -2.1587
  997MOL0     H37537   3.179   3.345  10.829  1.0831  0.1987  2.2235
  997MOL0     H37538   2.994   3.151  10.691 -0.7540 -0.3284 -3.8362
  997MOL0     H37539   3.067   3.300  10.609  2.3512 -0.0972 -0.4493
  997MOL0     H37540   3.256   3.140  10.757 -1.7659  1.3849  1.0824
  997MOL0     H37541   3.164   3.034  10.652  0.0581 -0.6444  0.9173
  997MOL0     H37542   3.232   3.145  10.456  2.9086 -3.4336 -0.3995
  997MOL0     H37543   3.324   3.276  10.548 -0.7390 -0.3576  0.5147
  997MOL0     H37544   3.431   3.210  10.332 -1.2798 -3.0877  0.0583
  997MOL0     H37545   3.544   3.329  10.159  0.1977 -2.0726 -1.3723
  997MOL0     H37546   3.704   3.260  10.113 -1.4918  0.3258 -1.7252
  997MOL0     H37547   3.699   3.410  10.190 -0.8446 -0.4770  0.0325
  997MOL0     H37548   4.180   3.327  10.379  1.6342  2.7358  2.3337
  997MOL0     H37549   4.348   3.469  10.324  0.0389 -1.0590 -0.9344
  997MOL0     H37550   4.332   3.694   9.953 -1.5753 -0.7554  1.2702
  997MOL0     H37551   4.279   3.830  10.062 -2.1747 -0.7055 -0.0517
  997MOL0     H37552   4.514   3.878  10.130  1.2953  0.7874 -0.7093
  997MOL0     H37553   4.577   3.745  10.027  0.6066  0.4456 -2.5088
  997MOL0     H37554   4.425   3.952   9.892 -0.2294 -1.3441 -2.7790
  997MOL0     H37555   4.549   3.844   9.834 -2.1293  0.8111 -1.7021
  997MOL0     H37556   4.703   3.983  10.007 -1.2136 -0.3478  1.1474
  997MOL0     H37557   4.568   4.100   9.997 -0.2919  1.1872 -0.7390
  997MOL0     H37558   4.732   4.016   9.751  2.0753 -1.6226  3.5043
  997MOL0     H37559   4.563   4.095   9.743  0.3296 -0.4002 -0.1349
  997MOL0     H37560   4.629   4.291   9.826 -1.5844 -0.6880  3.3374
  997MOL0     H37561   4.757   4.238   9.714 -0.6869 -1.7485  0.9166
  997MOL0     H37562   4.899   4.167   9.870 -0.4772  0.2487 -1.3404
  997MOL0     H37563   4.796   4.202  10.012 -2.2618 -2.0205 -1.5661
  997MOL0     H37564   4.963   4.374   9.998 -0.3562 -0.6237  0.4500
  997MOL0     H37565   4.795   4.436   9.951 -0.2343 -0.0752 -1.1849
  997MOL0     H37566   4.099   3.670  10.036 -2.8567 -3.3215 -1.6251
  997MOL0     H37567   3.921   3.544  10.088  1.6807  1.1746 -2.2649
  997MOL0     H37568   3.846   3.066  10.553  0.2340 -1.5005 -1.3584
  997MOL0     H37569   3.624   3.013  10.641 -1.5488 -4.2637 -2.1967
  997MOL0     H37570   1.660   3.439  11.326 -2.0987 -1.9112  1.3030
  997MOL0     H37571   1.464   3.575  11.328  0.0716  2.3321 -0.4483
  997MOL0     H37572   1.230   3.829  11.043  0.7098 -3.9386  2.2787
  997MOL0     H37573   1.080   3.987  10.978  1.1338 -0.7977  0.5198
  997MOL0     H37574   0.639   3.961  11.029  1.1233 -2.2059  1.2834
  997MOL0     H37575   0.685   3.941  11.199 -1.0213  4.8395  3.8761
  997MOL0     H37576   0.538   4.138  11.171 -0.9928 -0.8327  1.2370
  997MOL0     H37577   0.666   4.211  11.080  1.2101 -1.0833  0.0428
  997MOL0     H37578   0.669   4.140  11.379  1.8516 -1.9123  0.0364
  997MOL0     H37579   0.821   4.155  11.291 -0.3488 -1.2838  1.1124
  997MOL0     H37580   0.722   4.346  11.403  1.7433  0.2037 -1.0349
  997MOL0     H37581   0.599   4.355  11.277 -1.1425 -0.2692  0.9531
  997MOL0     H37582   0.911   4.497  11.033  1.1049  0.8392  0.0912
  997MOL0     H37583   0.759   3.737  11.144  1.2737 -3.5848  0.4695
  997MOL0     H37584   0.951   3.438  11.179 -1.8728 -1.7307  0.0024
  997MOL0     H37585   0.906   3.537  11.309 -2.0990 -1.9990  0.4520
  997MOL0     H37586   0.796   3.517  11.164  0.5348  0.6253  0.9815
  998MOL0     O37587   5.980  10.071   9.070  0.9140 -0.4241 -0.5381
  998MOL0     C37588   6.086  10.025   9.031 -0.3220 -0.3038  0.0029
  998MOL0     O37589   6.104   9.902   8.986 -0.4238  0.1021 -0.3676
  998MOL0     C37590   5.989   9.835   8.984  0.0531 -0.0474 -0.1964
  998MOL0     C37591   5.905   9.848   8.867  0.2159  0.2695 -0.7838
  998MOL0     C37592   5.787   9.772   8.866 -0.2549  0.0762  0.5068
  998MOL0     C37593   5.746   9.686   8.977 -0.6097  0.3731 -0.1007
  998MOL0     O37594   5.633   9.618   8.961 -0.2381 -1.0034 -0.2701
  998MOL0     C37595   5.657   9.490   8.903  0.4079 -0.0033  0.4383
  998MOL0     C37596   5.645   9.382   9.002  0.8349  1.0094 -0.6519
  998MOL0     C37597   5.582   9.262   8.935  0.7496 -0.2352 -0.1621
  998MOL0     C37598   5.521   9.170   9.039 -0.1792 -0.1410 -0.3164
  998MOL0     C37599   5.414   9.075   8.987  0.3188  0.3823 -0.1567
  998MOL0     C37600   5.386   8.965   9.101  0.9723 -0.0339  0.1709
  998MOL0     C37601   5.238   8.924   9.117 -0.9576  0.1636 -0.2067
  998MOL0     C37602   5.190   8.862   8.992  0.0972  0.5943 -0.3336
  998MOL0     N37603   5.048   8.836   8.977  0.0947  0.2631  0.6297
  998MOL0     C37604   4.988   8.726   8.915  0.8002  1.0168  0.0149
  998MOL0     C37605   4.855   8.733   8.946 -1.0616 -0.2614 -0.0269
  998MOL0     C37606   4.760   8.632   8.900  0.1643  0.1748 -0.6420
  998MOL0     C37607   4.710   8.657   8.754 -0.5235 -0.1335  0.7788
  998MOL0     C37608   4.813   8.622   8.648 -0.2693  0.8660  0.8380
  998MOL0     C37609   4.742   8.610   8.509  0.8645  0.2019 -0.5603
  998MOL0     O37610   4.853   8.632   8.423  0.4326 -0.1665 -0.7871
  998MOL0     C37611   4.893   8.758   8.384 -0.3308  1.5583  0.3455
  998MOL0     C37612   4.849   8.882   8.435  0.6045 -0.2520  0.6358
  998MOL0     C37613   4.898   9.007   8.387  0.7022 -0.5026  0.5577
  998MOL0     C37614   4.828   9.130   8.440  0.5410  0.4041 -0.5499
  998MOL0     C37615   5.001   9.015   8.293  0.6286  0.1613  0.5786
  998MOL0     C37616   5.065   9.136   8.244  0.3313 -0.6594  0.4038
  998MOL0     O37617   5.180   9.123   8.186 -0.6975  0.1795  0.0028
  998MOL0     C37618   5.226   9.227   8.104  0.1189 -0.7460 -1.0475
  998MOL0     C37619   5.150   9.281   8.006  0.4175 -0.3940  0.2443
  998MOL0     C37620   5.212   9.376   7.921 -0.6401 -0.8812 -0.3120
  998MOL0     C37621   5.339   9.425   7.958 -0.6915 -0.1331 -0.0239
  998MOL0     O37622   5.392   9.521   7.876 -0.2853  0.5154 -0.5561
  998MOL0     C37623   5.479   9.484   7.773 -0.1960  0.0504  0.6211
  998MOL0     C37624   5.569   9.605   7.746  0.4818  0.6537  0.0857
  998MOL0     C37625   5.676   9.625   7.861  0.3353  0.2961  0.0852
  998MOL0     C37626   5.773   9.730   7.817 -0.1333  0.4151 -0.9738
  998MOL0     C37627   5.906   9.707   7.903 -0.1773 -0.2495 -0.4841
  998MOL0     C37628   6.006   9.819   7.886  0.4867 -0.9677 -0.5436
  998MOL0     C37629   6.132   9.793   7.979 -0.2342 -0.7096 -0.6963
  998MOL0     C37630   6.208   9.918   8.017  0.1863 -0.5295 -0.5373
  998MOL0    Cl37631   6.266   9.998   7.866  0.0987  0.2073  0.0998
  998MOL0     C37632   5.416   9.351   8.041 -0.4665  1.0872 -0.3732
  998MOL0     C37633   5.361   9.260   8.121  0.2985  0.2371 -0.2473
  998MOL0     O37634   4.997   9.240   8.246 -0.0412  0.8581  0.3997
  998MOL0     C37635   5.045   8.893   8.241  0.2527 -0.4058 -0.1100
  998MOL0     C37636   4.995   8.768   8.284 -0.0877 -0.1018 -0.8141
  998MOL0     N37637   4.836   8.851   9.023  0.3107 -0.0476 -0.4476
  998MOL0     N37638   4.951   8.907   9.043 -1.0037 -0.3167  0.5031
  998MOL0     C37639   5.824   9.681   9.089  1.0514 -0.6382  0.0419
  998MOL0     C37640   5.947   9.751   9.092 -0.6147 -0.0710 -0.0923
  998MOL0     C37641   6.221  10.109   9.032  0.6477  0.3187  0.0430
  998MOL0     C37642   6.337  10.044   9.001 -0.8098  0.8881 -0.5549
  998MOL0     C37643   6.463  10.105   8.997  1.0728  0.2237 -0.3206
  998MOL0     C37644   6.462  10.245   9.024  0.0913  0.2876 -0.4361
  998MOL0     O37645   6.577  10.315   9.023 -0.0096 -0.1679 -0.7356
  998MOL0     C37646   6.597  10.388   8.900 -0.3720 -0.6166 -0.1476
  998MOL0     C37647   6.722  10.457   8.910 -0.4480  0.7084  0.6955
  998MOL0     C37648   6.735  10.571   9.017  0.6648 -0.3473  0.1464
  998MOL0     C37649   6.884  10.600   9.057 -0.1380  0.0357 -0.2303
  998MOL0     C37650   6.979  10.627   8.951  0.2322  0.5765 -0.1571
  998MOL0     C37651   7.059  10.639   8.860 -0.2736  0.2894 -0.0938
  998MOL0     C37652   6.344  10.299   9.063  0.1010 -0.3444  0.6539
  998MOL0     C37653   6.222  10.246   9.068 -0.3031 -1.1275 -0.3826
  998MOL0     C37654   6.097  10.331   9.100  0.1176  0.5768 -0.0183
  998MOL0     H37655   5.926   9.915   8.784 -2.6272  0.1379 -1.7416
  998MOL0     H37656   5.721   9.775   8.780 -1.3263 -1.5687  1.2148
  998MOL0     H37657   5.749   9.469   8.848 -1.0468 -0.5402 -1.9468
  998MOL0     H37658   5.581   9.499   8.825  0.8753 -1.9338 -0.3006
  998MOL0     H37659   5.738   9.374   9.060  0.4922 -2.7964 -0.3912
  998MOL0     H37660   5.579   9.421   9.080  0.0596 -0.1004 -0.7416
  998MOL0     H37661   5.496   9.289   8.872  1.1264  1.9028  0.1724
  998MOL0     H37662   5.668   9.219   8.883  1.1259  0.8034 -0.4343
  998MOL0     H37663   5.602   9.115   9.089  1.1161  1.3204 -0.7153
  998MOL0     H37664   5.463   9.223   9.115 -2.3364 -0.7240 -1.4777
  998MOL0     H37665   5.450   9.036   8.892  1.0184 -0.6022  0.4916
  998MOL0     H37666   5.321   9.129   8.966 -0.8740 -1.5576 -0.1443
  998MOL0     H37667   5.448   8.879   9.074  1.2220  0.1701  0.0871
  998MOL0     H37668   5.412   8.997   9.202 -1.6521  2.2838  0.2246
  998MOL0     H37669   5.186   9.017   9.139  1.4570  1.2642  1.2060
  998MOL0     H37670   5.235   8.865   9.209 -0.9405  1.4159  0.6220
  998MOL0     H37671   5.221   8.926   8.910  1.8192 -0.9645 -0.9746
  998MOL0     H37672   5.244   8.768   8.976 -1.1100 -0.0101 -1.0730
  998MOL0     H37673   5.028   8.642   8.858 -2.2641 -0.4748 -0.1395
  998MOL0     H37674   4.668   8.644   8.958  0.3916 -0.6580 -0.1026
  998MOL0     H37675   4.810   8.535   8.902  3.1225  1.5282 -2.2722
  998MOL0     H37676   4.622   8.593   8.742 -0.3702 -0.1179 -0.5205
  998MOL0     H37677   4.671   8.758   8.738  0.5216  0.3626  1.2780
  998MOL0     H37678   4.893   8.696   8.645 -1.8325  2.6161  0.5668
  998MOL0     H37679   4.864   8.525   8.655 -2.1994 -0.7805 -3.8970
  998MOL0     H37680   4.689   8.516   8.490 -0.5919  0.8164  0.2506
  998MOL0     H37681   4.666   8.687   8.493  0.1419  0.1722  2.2238
  998MOL0     H37682   4.773   8.883   8.512  1.6002 -2.6370  1.7459
  998MOL0     H37683   4.909   9.201   8.458  1.5090 -1.3606  2.7631
  998MOL0     H37684   4.782   9.109   8.537  3.2769 -0.3812  0.6555
  998MOL0     H37685   4.751   9.162   8.368  0.0650  0.0409 -0.2114
  998MOL0     H37686   5.043   9.264   7.999 -0.1145  2.5487  0.0621
  998MOL0     H37687   5.167   9.436   7.843 -0.5898 -0.3969  0.0282
  998MOL0     H37688   5.541   9.397   7.794  0.1405 -0.0329 -0.6397
  998MOL0     H37689   5.430   9.460   7.679 -1.0835  1.4154  0.7026
  998MOL0     H37690   5.615   9.598   7.647 -1.6709  2.1696 -1.1137
  998MOL0     H37691   5.512   9.698   7.739 -2.3314 -0.8809  0.8546
  998MOL0     H37692   5.727   9.529   7.872 -1.3773 -0.5805  0.7551
  998MOL0     H37693   5.626   9.643   7.956 -1.6069  3.3970 -1.3402
  998MOL0     H37694   5.726   9.827   7.835 -0.2738 -0.1808  2.7277
  998MOL0     H37695   5.796   9.717   7.711  0.0623  1.8748 -1.1423
  998MOL0     H37696   5.877   9.691   8.007  0.4259 -0.9405 -0.4164
  998MOL0     H37697   5.952   9.614   7.870  4.4425  1.6584 -0.1974
  998MOL0     H37698   5.959   9.912   7.919  0.0756 -1.0763 -0.8124
  998MOL0     H37699   6.037   9.828   7.782  0.0860 -0.0614 -0.5933
  998MOL0     H37700   6.205   9.719   7.946  1.8721  0.8898  0.1779
  998MOL0     H37701   6.086   9.751   8.069  1.0027 -1.6313 -0.4689
  998MOL0     H37702   6.293   9.898   8.083 -0.0086 -2.1065 -0.7234
  998MOL0     H37703   6.146   9.994   8.066  1.3530 -0.2081  0.4988
  998MOL0     H37704   5.520   9.379   8.052  0.7862 -1.0825 -4.3542
  998MOL0     H37705   5.409   9.196   8.195 -0.8317  1.8064  1.9415
  998MOL0     H37706   5.122   8.890   8.166 -0.1694  0.2391 -0.5799
  998MOL0     H37707   5.033   8.672   8.252  1.6206 -0.1740  1.2013
  998MOL0     H37708   5.797   9.621   9.176  1.4268 -2.9508 -1.3464
  998MOL0     H37709   6.003   9.744   9.185 -0.9264  2.2960  0.3243
  998MOL0     H37710   6.339   9.935   8.997 -2.5342  0.8427 -0.8157
  998MOL0     H37711   6.556  10.052   8.978  0.9874  0.3784 -1.2034
  998MOL0     H37712   6.598  10.310   8.823 -1.3365  0.5094 -1.3500
  998MOL0     H37713   6.513  10.455   8.884  0.8451  0.3975 -2.9021
  998MOL0     H37714   6.733  10.511   8.816 -2.2505  1.5287  0.9153
  998MOL0     H37715   6.805  10.392   8.938  0.1902  1.3777  0.3964
  998MOL0     H37716   6.671  10.658   8.996  4.8208  2.7049 -1.1375
  998MOL0     H37717   6.691  10.544   9.114 -0.0341 -2.3374 -0.6746
  998MOL0     H37718   6.919  10.522   9.126 -1.7673 -0.2935  0.2614
  998MOL0     H37719   6.878  10.684   9.127  0.3090 -0.2634  0.1774
  998MOL0     H37720   7.133  10.663   8.786  0.1558 -0.8655 -0.0536
  998MOL0     H37721   6.354  10.406   9.078  1.5594 -0.3658 -0.0677
  998MOL0     H37722   6.019  10.275   9.153  0.1184 -0.5859 -1.2059
  998MOL0     H37723   6.132  10.420   9.155  0.8717  0.1207  0.2519
  998MOL0     H37724   6.060  10.364   9.003  1.3385  0.3203 -0.5850
  999MOL0     O37725   7.178   9.360   5.603 -0.0082 -0.1237  0.4214
  999MOL0     C37726   7.086   9.308   5.541 -0.0663  0.1487  0.2638
  999MOL0     O37727   7.097   9.202   5.456  0.1930  0.0090 -0.2788
  999MOL0     C37728   7.217   9.142   5.457  0.2839  1.1892 -0.6454
  999MOL0     C37729   7.324   9.199   5.386  0.0666  0.4324  0.3647
  999MOL0     C37730   7.445   9.136   5.387 -0.7278 -0.2923  1.4856
  999MOL0     C37731   7.465   9.014   5.448 -0.7892 -0.4088 -0.2685
  999MOL0     O37732   7.590   8.968   5.440 -0.5628  0.2829 -0.0492
  999MOL0     C37733   7.628   8.825   5.448 -0.1214 -0.2104  0.5660
  999MOL0     C37734   7.775   8.837   5.496 -0.3042  0.1704  0.1038
  999MOL0     C37735   7.848   8.697   5.497  0.4513 -0.2608  0.7748
  999MOL0     C37736   7.972   8.718   5.584 -0.5040  0.3864  0.2919
  999MOL0     C37737   8.056   8.589   5.587  0.5539 -0.0333  0.8448
  999MOL0     C37738   8.114   8.556   5.444 -0.9295 -0.4457  0.1764
  999MOL0     C37739   8.211   8.660   5.389 -0.0045 -0.0232 -0.3026
  999MOL0     C37740   8.317   8.596   5.291 -0.2073 -0.1894  0.1861
  999MOL0     N37741   8.402   8.688   5.222 -0.2515  0.4118 -0.4325
  999MOL0     C37742   8.414   8.824   5.259 -0.3355  0.1883 -1.1667
  999MOL0     C37743   8.459   8.890   5.152 -0.4560  0.6375 -0.6483
  999MOL0     C37744   8.506   9.028   5.132  0.6253 -0.5935 -0.6023
  999MOL0     C37745   8.530   9.093   5.267 -0.5066  0.1640  0.1388
  999MOL0     C37746   8.532   9.247   5.253 -0.6457  0.2029 -0.0578
  999MOL0     C37747   8.651   9.296   5.160 -0.6662 -0.1295 -0.1648
  999MOL0     O37748   8.660   9.447   5.185 -0.4495 -0.2215  0.5894
  999MOL0     C37749   8.748   9.466   5.287 -0.0430 -0.0417  0.3900
  999MOL0     C37750   8.715   9.496   5.423 -0.3793  0.5574  0.8535
  999MOL0     C37751   8.807   9.516   5.528 -0.5701 -0.9740 -0.0663
  999MOL0     C37752   8.760   9.553   5.662 -0.4665 -0.4706 -1.5821
  999MOL0     C37753   8.943   9.514   5.494 -0.6025 -0.4679 -0.1521
  999MOL0     C37754   9.053   9.560   5.582  0.1029 -0.1176 -0.0207
  999MOL0     O37755   9.168   9.607   5.526 -0.0966 -0.7775  0.4426
  999MOL0     C37756   9.280   9.640   5.607  0.1546  0.2774 -0.0410
  999MOL0     C37757   9.354   9.753   5.570  0.0245 -0.8914  0.6994
  999MOL0     C37758   9.477   9.784   5.631 -0.9335 -0.0298  0.2119
  999MOL0     C37759   9.521   9.701   5.741  0.6322 -0.2025  0.4553
  999MOL0     O37760   9.626   9.727   5.830 -0.3601  0.3113 -0.0503
  999MOL0     C37761   9.695   9.851   5.835 -0.2251  0.0643  0.2280
  999MOL0     C37762   9.596   9.949   5.906  0.2097 -0.5995  1.0493
  999MOL0     C37763   9.671  10.085   5.887 -0.3714 -0.5016 -0.5349
  999MOL0     C37764   9.584  10.203   5.947  0.2142  0.1899 -1.2732
  999MOL0     C37765   9.652  10.336   5.918 -0.6082 -0.0371 -0.5328
  999MOL0     C37766   9.768  10.370   6.017  0.5495 -0.2376 -0.2433
  999MOL0     C37767   9.837  10.500   5.982 -0.6318  0.0070  0.5860
  999MOL0     C37768   9.959  10.503   6.082 -0.0133 -0.2271 -0.6753
  999MOL0    Cl37769   9.887  10.548   6.243  0.1353 -0.0887  0.0357
  999MOL0     C37770   9.452   9.591   5.776  0.3813  0.2972  0.4355
  999MOL0     C37771   9.327   9.553   5.712  0.8905 -0.3526  0.0693
  999MOL0     O37772   9.030   9.557   5.704  0.5633 -0.3996  0.0969
  999MOL0     C37773   8.980   9.485   5.364  1.0459 -0.3543  0.8729
  999MOL0     C37774   8.885   9.466   5.257 -0.4856 -0.5123  0.4360
  999MOL0     N37775   8.469   8.792   5.051 -0.3185  0.3181 -0.6648
  999MOL0     N37776   8.434   8.678   5.093 -0.1746 -0.2888 -0.4991
  999MOL0     C37777   7.365   8.950   5.522  0.1914 -0.5726 -0.0986
  999MOL0     C37778   7.239   9.017   5.519 -0.0049  0.9966 -0.9202
  999MOL0     C37779   6.950   9.368   5.567  0.8062  0.5533 -0.4258
  999MOL0     C37780   6.842   9.289   5.526  0.5043  0.2697  0.4494
  999MOL0     C37781   6.709   9.329   5.553 -0.4347 -0.1981  0.0402
  999MOL0     C37782   6.689   9.442   5.636 -0.5727  0.0464 -0.0029
  999MOL0     O37783   6.557   9.463   5.678 -0.4379 -0.3008 -0.5366
  999MOL0     C37784   6.442   9.423   5.606  0.3951  0.5839  0.2427
  999MOL0     C37785   6.326   9.520   5.632  0.0003 -0.1210  0.5385
  999MOL0     C37786   6.277   9.478   5.766  0.6520 -0.6612  0.2821
  999MOL0     C37787   6.157   9.561   5.813 -0.3834  0.5092 -0.4705
  999MOL0     C37788   6.051   9.564   5.718 -1.6172  0.1027  0.1867
  999MOL0     C37789   5.976   9.581   5.628 -0.3851 -0.4760  1.2203
  999MOL0     C37790   6.793   9.523   5.664  0.2211 -0.1675  0.2400
  999MOL0     C37791   6.926   9.485   5.643  0.4345  0.4414  0.2194
  999MOL0     C37792   7.024   9.572   5.707  0.1405 -0.2511 -0.1466
  999MOL0     H37793   7.312   9.291   5.330 -2.6184  0.5465  0.9949
  999MOL0     H37794   7.533   9.185   5.345 -1.1154  1.9801  3.1074
  999MOL0     H37795   7.632   8.791   5.344 -2.8643 -0.8376  0.5955
  999MOL0     H37796   7.564   8.761   5.509 -2.5908  1.4789 -0.1056
  999MOL0     H37797   7.819   8.914   5.432  0.1064  0.3237  0.5603
  999MOL0     H37798   7.770   8.872   5.600 -1.9152  0.0696  0.0753
  999MOL0     H37799   7.782   8.624   5.544 -0.4962 -1.2450 -1.8875
  999MOL0     H37800   7.870   8.667   5.394 -1.1920 -1.1577  0.6712
  999MOL0     H37801   8.023   8.800   5.535 -2.7314  0.5985 -1.8545
  999MOL0     H37802   7.951   8.751   5.686 -0.6976 -0.2378  0.4633
  999MOL0     H37803   7.990   8.511   5.624 -0.0946  0.7487  1.3499
  999MOL0     H37804   8.141   8.596   5.655 -0.2769  2.2561  1.7474
  999MOL0     H37805   8.173   8.464   5.447  0.2681  0.3067  0.9154
  999MOL0     H37806   8.034   8.540   5.372  0.7188 -0.9609 -1.6222
  999MOL0     H37807   8.272   8.710   5.465  1.0475 -4.6506  2.2993
  999MOL0     H37808   8.146   8.734   5.342 -3.0317 -2.0123  0.4838
  999MOL0     H37809   8.385   8.535   5.352 -1.7721 -0.0544  2.1893
  999MOL0     H37810   8.283   8.519   5.222  1.3341 -1.8558  1.1846
  999MOL0     H37811   8.401   8.857   5.362 -0.3939 -2.0510 -0.3839
  999MOL0     H37812   8.422   9.072   5.079 -0.4222 -0.7939  0.8359
  999MOL0     H37813   8.586   9.031   5.057  0.7411 -2.5337 -0.6097
  999MOL0     H37814   8.435   9.075   5.319  0.2198 -1.5717  0.9509
  999MOL0     H37815   8.613   9.053   5.325 -2.7884 -1.6007  2.4345
  999MOL0     H37816   8.431   9.276   5.221 -0.9313 -2.6431 -2.1739
  999MOL0     H37817   8.552   9.283   5.354  4.1934  0.1057 -0.7874
  999MOL0     H37818   8.742   9.241   5.186 -1.7996 -1.7630  0.5210
  999MOL0     H37819   8.632   9.283   5.053 -1.4855  3.9079 -0.6535
  999MOL0     H37820   8.608   9.513   5.427 -0.9479 -0.5539 -3.7158
  999MOL0     H37821   8.651   9.551   5.675 -0.4102  1.8096 -0.2153
  999MOL0     H37822   8.792   9.650   5.702 -3.6288  0.0454  0.0906
  999MOL0     H37823   8.797   9.479   5.733  0.4090 -0.3908 -1.9422
  999MOL0     H37824   9.308   9.815   5.493  1.2494 -1.1604 -0.2767
  999MOL0     H37825   9.535   9.870   5.599 -1.7350  0.2341 -0.5776
  999MOL0     H37826   9.782   9.833   5.899  1.4897  0.3392 -1.9224
  999MOL0     H37827   9.727   9.882   5.736  1.1929  0.5643  0.8233
  999MOL0     H37828   9.500   9.950   5.853  0.4253 -1.4802  0.6047
  999MOL0     H37829   9.580   9.923   6.011 -1.2339 -3.8389  0.1740
  999MOL0     H37830   9.676  10.094   5.778 -1.5900  0.4461 -0.5382
  999MOL0     H37831   9.770  10.084   5.932 -1.1288 -3.4993  1.3779
  999MOL0     H37832   9.576  10.184   6.054 -2.3292  2.2550 -0.9869
  999MOL0     H37833   9.486  10.219   5.900 -0.2867  1.1367  0.0412
  999MOL0     H37834   9.680  10.333   5.813 -0.4004  2.1880 -0.5975
  999MOL0     H37835   9.571  10.409   5.933  0.9626  1.7981 -0.6334
  999MOL0     H37836   9.832  10.281   6.014 -0.6865 -1.2586  1.5692
  999MOL0     H37837   9.718  10.377   6.114 -1.6532 -1.6604 -1.2026
  999MOL0     H37838   9.791  10.597   6.000  1.7309  1.2557  0.3254
  999MOL0     H37839   9.866  10.505   5.876  1.2670 -0.5397  1.0371
  999MOL0     H37840  10.029  10.576   6.041  0.9625  0.1558  1.5628
  999MOL0     H37841  10.019  10.414   6.100  1.4342  1.1962  2.2911
  999MOL0     H37842   9.497   9.535   5.858  2.3972  1.1679 -0.0284
  999MOL0     H37843   9.277   9.461   5.740  1.1166 -0.5211 -0.0779
  999MOL0     H37844   9.078   9.502   5.319  0.9976  1.3840  1.3779
  999MOL0     H37845   8.921   9.449   5.156 -0.4586  3.0851 -0.3077
  999MOL0     H37846   7.389   8.860   5.578  1.0048 -0.5303 -0.3637
  999MOL0     H37847   7.158   8.976   5.578 -1.9092  3.5147 -1.6428
  999MOL0     H37848   6.846   9.199   5.466 -0.5378  0.7315 -0.3557
  999MOL0     H37849   6.629   9.261   5.530  1.5743 -2.2327 -1.3648
  999MOL0     H37850   6.474   9.436   5.502 -0.8431 -0.9321 -0.3707
  999MOL0     H37851   6.417   9.318   5.628  1.1899  0.7262  1.9519
  999MOL0     H37852   6.248   9.520   5.556  0.6067 -1.8563 -0.1364
  999MOL0     H37853   6.360   9.624   5.639  2.2591 -0.6950 -0.7956
  999MOL0     H37854   6.243   9.374   5.760  1.0989 -0.7374 -1.9028
  999MOL0     H37855   6.359   9.478   5.839  0.1400 -2.7128  0.9135
  999MOL0     H37856   6.193   9.661   5.838  0.2815 -0.1517  1.4752
  999MOL0     H37857   6.127   9.525   5.912  1.3503 -4.8115 -1.5279
  999MOL0     H37858   5.927   9.601   5.535  0.5555 -5.1732 -0.5615
  999MOL0     H37859   6.764   9.614   5.716  0.2783  0.6941 -1.1911
  999MOL0     H37860   7.109   9.593   5.640 -0.9677  1.7487 -1.0149
  999MOL0     H37861   6.988   9.674   5.726  4.0882  1.0310  1.6791
  999MOL0     H37862   7.042   9.530   5.806  0.4497 -0.0742 -0.1258
 1000MOL0     O37863   0.063   1.920   0.518 -0.8001  0.4437  0.5135
 1000MOL0     C37864   0.085   1.828   0.434 -0.7293  0.9740  0.0442
 1000MOL0     O37865   0.060   1.837   0.301 -0.1482  0.1402 -0.1292
 1000MOL0     C37866  -0.021   1.939   0.253 -0.3508  0.5525  0.0122
 1000MOL0     C37867  -0.156   1.934   0.266 -0.1435 -0.0808 -1.0610
 1000MOL0     C37868  -0.242   2.032   0.234 -0.0345  0.0463 -0.2940
 1000MOL0     C37869  -0.186   2.152   0.192  0.2230  0.2353  0.1198
 1000MOL0     O37870  -0.261   2.260   0.169 -0.3226 -0.0307  0.4633
 1000MOL0     C37871  -0.197   2.390   0.183  0.0178  0.2374 -0.4381
 1000MOL0     C37872  -0.292   2.515   0.184 -0.7815 -0.2618  0.0351
 1000MOL0     C37873  -0.339   2.534   0.033 -0.4046 -0.3565 -0.6345
 1000MOL0     C37874  -0.417   2.668   0.030 -0.4278  0.2496 -0.6371
 1000MOL0     C37875  -0.437   2.727  -0.107 -0.0943  0.2446 -0.0434
 1000MOL0     C37876  -0.478   2.878  -0.113 -0.1860  0.6496 -0.1235
 1000MOL0     C37877  -0.562   2.927  -0.222 -0.0378  0.1014  0.6266
 1000MOL0     C37878  -0.512   2.893  -0.362  0.0653 -1.0869  0.7429
 1000MOL0     N37879  -0.386   2.961  -0.387  0.0173 -0.2685  0.7161
 1000MOL0     C37880  -0.368   3.091  -0.433  0.2137 -0.6733  0.1843
 1000MOL0     C37881  -0.241   3.102  -0.455 -0.3405  0.4191  0.1082
 1000MOL0     C37882  -0.170   3.232  -0.480 -0.4664 -0.3313 -0.3094
 1000MOL0     C37883  -0.221   3.290  -0.611  0.1440 -0.1258 -0.0389
 1000MOL0     C37884  -0.133   3.296  -0.737 -0.3659 -0.8116  0.1073
 1000MOL0     C37885  -0.091   3.148  -0.763  0.0362 -1.2583  0.5189
 1000MOL0     O37886   0.045   3.132  -0.803 -1.1699  0.0853 -0.5499
 1000MOL0     C37887   0.092   3.014  -0.859  0.4744 -0.9889 -0.1283
 1000MOL0     C37888   0.033   2.885  -0.843 -0.2579  0.2292  0.0602
 1000MOL0     C37889   0.081   2.765  -0.889 -0.0743 -0.0223 -1.0301
 1000MOL0     C37890   0.010   2.641  -0.853 -0.1152  0.1802 -0.3288
 1000MOL0     C37891   0.204   2.772  -0.962 -0.2561 -0.2650 -0.5579
 1000MOL0     C37892   0.263   2.658  -1.022  0.4102  0.6030  0.4915
 1000MOL0     O37893   0.402   2.659  -1.030 -0.1445  0.6268  0.3534
 1000MOL0     C37894   0.468   2.544  -1.067  0.6072 -0.8731 -0.2910
 1000MOL0     C37895   0.584   2.545  -1.146  0.0438 -0.3130 -0.1984
 1000MOL0     C37896   0.668   2.437  -1.163  0.2777  0.1593 -0.1354
 1000MOL0     C37897   0.628   2.307  -1.121  0.0717 -1.1743  1.4255
 1000MOL0     O37898   0.704   2.192  -1.138 -0.2209 -0.1046  0.5059
 1000MOL0     C37899   0.848   2.210  -1.148  0.0731  0.2009  0.7194
 1000MOL0     C37900   0.924   2.083  -1.120  0.0695  0.0707  0.1545
 1000MOL0     C37901   1.068   2.083  -1.189  1.0622  0.0130 -0.1337
 1000MOL0     C37902   1.081   2.044  -1.333  0.0373  0.5415 -0.0026
 1000MOL0     C37903   1.228   2.053  -1.381 -0.4683 -0.2628  0.4566
 1000MOL0     C37904   1.259   2.011  -1.522 -0.1739  0.5202  0.1968
 1000MOL0     C37905   1.385   2.085  -1.580  0.9639  0.0336  0.2397
 1000MOL0     C37906   1.446   1.999  -1.692 -0.2424 -0.3793  0.2031
 1000MOL0    Cl37907   1.331   2.008  -1.831  0.0277  0.0944 -0.2031
 1000MOL0     C37908   0.514   2.300  -1.040 -0.7258 -0.2402  1.0168
 1000MOL0     C37909   0.437   2.415  -1.013  0.0706  0.6237  0.4418
 1000MOL0     O37910   0.187   2.562  -1.053 -0.5251 -0.1671 -0.5048
 1000MOL0     C37911   0.269   2.902  -0.984  1.0058 -0.1816  0.5024
 1000MOL0     C37912   0.209   3.020  -0.929  0.3115  0.5472 -0.7041
 1000MOL0     N37913  -0.183   2.976  -0.432 -0.6226 -0.6955 -0.2102
 1000MOL0     N37914  -0.273   2.892  -0.388 -0.6463  0.0756 -0.8034
 1000MOL0     C37915  -0.044   2.149   0.165 -0.4172 -0.2559  0.3782
 1000MOL0     C37916   0.034   2.043   0.192 -0.4373  0.2047 -0.3169
 1000MOL0     C37917   0.159   1.712   0.475  0.1794  0.8238  0.1276
 1000MOL0     C37918   0.233   1.634   0.383  0.0659 -0.5505  0.0655
 1000MOL0     C37919   0.295   1.513   0.411  0.5271 -0.4987 -0.0366
 1000MOL0     C37920   0.277   1.456   0.543  0.6025  0.8710 -0.7873
 1000MOL0     O37921   0.318   1.329   0.571 -0.8966  0.5112 -0.7116
 1000MOL0     C37922   0.413   1.268   0.485  0.6240  0.2138 -0.9316
 1000MOL0     C37923   0.486   1.150   0.550 -0.4924  0.2890 -0.7873
 1000MOL0     C37924   0.542   1.168   0.689 -0.3210 -1.1649 -0.7937
 1000MOL0     C37925   0.614   1.306   0.707 -0.3072  0.7126  0.1585
 1000MOL0     C37926   0.664   1.328   0.847  0.0595  0.8380  0.3754
 1000MOL0     C37927   0.694   1.354   0.968 -0.1342  0.3302  0.3796
 1000MOL0     C37928   0.190   1.527   0.631 -1.0004  0.8774 -0.3480
 1000MOL0     C37929   0.128   1.645   0.604  0.0849  0.0973 -0.1183
 1000MOL0     C37930   0.040   1.693   0.713 -0.5988  0.1099 -0.4990
 1000MOL0     H37931  -0.201   1.857   0.328  1.4479  0.9938  1.5756
 1000MOL0     H37932  -0.349   2.022   0.250 -0.3827  2.1403 -1.0550
 1000MOL0     H37933  -0.124   2.400   0.101  0.8412  0.2970  0.2888
 1000MOL0     H37934  -0.143   2.404   0.277 -0.0481  1.6960 -0.5883
 1000MOL0     H37935  -0.381   2.502   0.247 -1.8811 -1.1938 -1.6220
 1000MOL0     H37936  -0.234   2.596   0.229  0.7055  0.0206 -2.2587
 1000MOL0     H37937  -0.250   2.537  -0.031  2.7509 -2.0069  3.2637
 1000MOL0     H37938  -0.397   2.448  -0.001 -1.8060 -0.5153  1.9514
 1000MOL0     H37939  -0.518   2.640   0.060 -1.8817  1.4201 -3.9795
 1000MOL0     H37940  -0.374   2.749   0.090 -2.5603 -1.3687  3.5131
 1000MOL0     H37941  -0.520   2.676  -0.156  1.3922  0.4271 -2.9760
 1000MOL0     H37942  -0.353   2.714  -0.176  0.4180  1.1673  0.3939
 1000MOL0     H37943  -0.525   2.915  -0.021 -2.2413  0.1679 -0.9269
 1000MOL0     H37944  -0.387   2.938  -0.114 -1.3594  2.5391  0.2166
 1000MOL0     H37945  -0.584   3.033  -0.214  2.4897  0.8634 -1.0261
 1000MOL0     H37946  -0.660   2.881  -0.211 -0.4559 -0.1081 -2.8230
 1000MOL0     H37947  -0.483   2.790  -0.387 -0.2241 -0.6311 -1.6912
 1000MOL0     H37948  -0.582   2.932  -0.436 -1.7675  0.0601  2.9356
 1000MOL0     H37949  -0.437   3.175  -0.439  3.1560  1.9415  0.0535
 1000MOL0     H37950  -0.061   3.233  -0.489 -0.5185  1.4738 -1.1672
 1000MOL0     H37951  -0.192   3.304  -0.401 -0.9587 -1.2296  0.3858
 1000MOL0     H37952  -0.313   3.236  -0.636  1.1326 -1.2451 -1.4343
 1000MOL0     H37953  -0.255   3.390  -0.584  4.6851  1.3365  1.1391
 1000MOL0     H37954  -0.181   3.352  -0.817  2.7338  1.2849 -0.4623
 1000MOL0     H37955  -0.040   3.348  -0.710 -0.9938  0.6412 -0.4386
 1000MOL0     H37956  -0.115   3.078  -0.682  0.0626 -4.3153 -1.9074
 1000MOL0     H37957  -0.155   3.120  -0.847  0.2663 -0.2298 -0.0112
 1000MOL0     H37958  -0.058   2.884  -0.784 -0.6772 -2.0816 -0.5481
 1000MOL0     H37959  -0.037   2.584  -0.934 -0.2978 -1.4660  0.8890
 1000MOL0     H37960  -0.072   2.662  -0.784 -2.9271  1.9277 -3.8305
 1000MOL0     H37961   0.077   2.571  -0.802 -1.3719  1.2251  3.0362
 1000MOL0     H37962   0.618   2.642  -1.182 -0.8628 -0.6774 -2.1490
 1000MOL0     H37963   0.763   2.463  -1.209  1.5245 -0.1606  2.1137
 1000MOL0     H37964   0.878   2.245  -1.248 -0.6943 -0.8315  0.1080
 1000MOL0     H37965   0.876   2.294  -1.083 -0.4030  0.3895  0.6867
 1000MOL0     H37966   0.944   2.083  -1.012 -0.0116 -0.0855  0.1699
 1000MOL0     H37967   0.866   1.993  -1.140  1.5600 -1.6435  2.9436
 1000MOL0     H37968   1.135   2.012  -1.141  1.2236  1.0472  1.2347
 1000MOL0     H37969   1.115   2.181  -1.184 -0.8021  1.0844 -1.7629
 1000MOL0     H37970   1.013   2.110  -1.388 -1.1680  0.0062  0.7929
 1000MOL0     H37971   1.039   1.944  -1.352  2.0869 -1.1516  3.4865
 1000MOL0     H37972   1.258   2.157  -1.372  2.2506 -0.9192 -0.2352
 1000MOL0     H37973   1.296   1.990  -1.323  0.1725 -1.6309 -1.6764
 1000MOL0     H37974   1.173   2.038  -1.583  0.7326 -0.4306 -1.6001
 1000MOL0     H37975   1.268   1.905  -1.548  1.1513  1.1731 -2.4078
 1000MOL0     H37976   1.466   2.109  -1.511  0.9198  0.5397  0.1166
 1000MOL0     H37977   1.350   2.181  -1.619 -2.8779 -0.5228  1.8920
 1000MOL0     H37978   1.459   1.895  -1.660 -0.8757 -1.5158 -2.8398
 1000MOL0     H37979   1.547   2.024  -1.727  0.1651 -2.2507 -0.0947
 1000MOL0     H37980   0.487   2.204  -0.998  1.5678 -1.4594 -0.1044
 1000MOL0     H37981   0.356   2.404  -0.941 -0.7460 -0.3354 -0.5865
 1000MOL0     H37982   0.354   2.897  -1.052  1.1844 -2.0301  0.8055
 1000MOL0     H37983   0.241   3.121  -0.955 -0.0120  0.6862 -0.5662
 1000MOL0     H37984   0.004   2.229   0.110 -2.9425  2.0283  1.2633
 1000MOL0     H37985   0.138   2.056   0.164 -0.4859  2.1412  0.2238
 1000MOL0     H37986   0.251   1.677   0.285  0.8016 -0.6786  0.1362
 1000MOL0     H37987   0.336   1.461   0.325  1.9368  3.6275 -2.1509
 1000MOL0     H37988   0.359   1.235   0.396  0.5426  1.3263 -1.3095
 1000MOL0     H37989   0.487   1.345   0.459  2.7367 -0.9255  1.2737
 1000MOL0     H37990   0.566   1.117   0.483 -0.5523 -1.2157 -0.1644
 1000MOL0     H37991   0.421   1.063   0.563 -0.6643  0.4044 -0.8729
 1000MOL0     H37992   0.459   1.178   0.759  1.9273  2.2214  1.6935
 1000MOL0     H37993   0.611   1.088   0.720  0.1537  0.2599  2.2052
 1000MOL0     H37994   0.533   1.379   0.700 -1.6504 -0.7164  0.1057
 1000MOL0     H37995   0.691   1.311   0.630  0.2077 -2.3602  0.3526
 1000MOL0     H37996   0.734   1.382   1.063 -2.6082  5.4182  0.2499
 1000MOL0     H37997   0.190   1.474   0.725  0.8740 -0.7516 -1.2044
 1000MOL0     H37998  -0.054   1.733   0.673  0.8484  1.3110 -2.8931
 1000MOL0     H37999   0.015   1.615   0.785 -3.2426  1.9432  0.7477
 1000MOL0     H38000   0.087   1.784   0.753 -0.0034 -0.0951 -0.7219
 1001MOL0     O38001   5.112   8.438   6.273 -0.4656  0.2440  0.2974
 1001MOL0     C38002   5.083   8.321   6.241 -0.2558 -0.1071 -0.1834
 1001MOL0     O38003   5.143   8.253   6.140  0.1768 -0.2423  0.0087
 1001MOL0     C38004   5.242   8.306   6.068 -0.2015 -0.1148  0.0579
 1001MOL0     C38005   5.219   8.320   5.938  0.3015 -0.3405  0.2964
 1001MOL0     C38006   5.321   8.367   5.852  0.0034 -0.0532  0.0907
 1001MOL0     C38007   5.455   8.382   5.898 -0.6568  0.2483  0.6240
 1001MOL0     O38008   5.551   8.437   5.823  0.0985 -0.6299 -0.2357
 1001MOL0     C38009   5.572   8.377   5.692 -1.0122 -0.6573  0.1941
 1001MOL0     C38010   5.726   8.387   5.651  0.3066 -0.2328 -0.6781
 1001MOL0     C38011   5.820   8.359   5.770  0.0452  0.3579  0.7711
 1001MOL0     C38012   5.971   8.371   5.735  0.9479  0.5910 -0.0140
 1001MOL0     C38013   6.063   8.371   5.853 -0.0263  0.6457 -0.5679
 1001MOL0     C38014   6.212   8.361   5.822 -0.3215 -0.0212  0.5103
 1001MOL0     C38015   6.314   8.451   5.908  0.4751  0.4337 -0.5727
 1001MOL0     C38016   6.280   8.452   6.057  0.6942 -0.1310  0.6866
 1001MOL0     N38017   6.380   8.514   6.141 -0.3570 -1.1997  0.3822
 1001MOL0     C38018   6.509   8.469   6.179 -0.1407  0.6074 -0.5008
 1001MOL0     C38019   6.574   8.570   6.235  0.6680 -0.6051  0.6131
 1001MOL0     C38020   6.718   8.566   6.268  0.2398  0.5631 -1.2383
 1001MOL0     C38021   6.743   8.481   6.392 -0.3596  0.0039 -0.2780
 1001MOL0     C38022   6.894   8.484   6.433  0.1706 -0.1865 -0.5566
 1001MOL0     C38023   6.943   8.411   6.561  0.0304  0.2695 -0.2771
 1001MOL0     O38024   6.936   8.270   6.531 -0.8656 -0.3278  0.9464
 1001MOL0     C38025   7.032   8.186   6.588 -0.2020 -0.4458 -0.3861
 1001MOL0     C38026   7.120   8.215   6.689  0.2130 -0.6996 -0.1527
 1001MOL0     C38027   7.201   8.110   6.739  0.2520 -0.1964 -0.3976
 1001MOL0     C38028   7.306   8.147   6.844 -0.7747 -0.6266 -0.0423
 1001MOL0     C38029   7.212   7.988   6.673  0.2987  0.2162  0.1360
 1001MOL0     C38030   7.293   7.877   6.742  0.5138 -0.3090  0.8883
 1001MOL0     O38031   7.420   7.892   6.765 -0.4100 -0.7206 -0.8563
 1001MOL0     C38032   7.494   7.795   6.832  0.3605 -1.0521  1.0023
 1001MOL0     C38033   7.499   7.655   6.800 -0.3661 -0.3482  0.0743
 1001MOL0     C38034   7.574   7.567   6.879  0.0776  0.3781 -0.3766
 1001MOL0     C38035   7.655   7.614   6.991  0.5278 -0.3996  0.3293
 1001MOL0     O38036   7.720   7.534   7.080 -1.2638  0.1144 -0.0917
 1001MOL0     C38037   7.756   7.398   7.045  0.3985  0.2438  0.2345
 1001MOL0     C38038   7.788   7.321   7.173  0.4855 -0.2217 -1.1756
 1001MOL0     C38039   7.658   7.296   7.257 -0.4453  0.5196  1.1052
 1001MOL0     C38040   7.686   7.223   7.394  0.3043 -0.1866  0.1693
 1001MOL0     C38041   7.585   7.129   7.450  0.0675 -0.6448  0.1212
 1001MOL0     C38042   7.440   7.177   7.477  0.2349 -0.7357 -0.0863
 1001MOL0     C38043   7.434   7.301   7.555 -0.1310 -0.2618  0.5493
 1001MOL0     C38044   7.288   7.347   7.591 -0.8915  0.3474 -0.0641
 1001MOL0    Cl38045   7.270   7.510   7.659 -0.1785  0.2952  0.2587
 1001MOL0     C38046   7.646   7.748   7.026 -0.0844 -0.6080 -0.1615
 1001MOL0     C38047   7.567   7.838   6.946  0.3852  0.2045 -0.0706
 1001MOL0     O38048   7.228   7.777   6.767 -0.2507  0.2576  0.4225
 1001MOL0     C38049   7.125   7.960   6.566  0.1339  0.0006 -0.6975
 1001MOL0     C38050   7.027   8.052   6.539  0.4192 -0.8745  0.2483
 1001MOL0     N38051   6.485   8.676   6.243  0.2987 -0.7699  0.5723
 1001MOL0     N38052   6.377   8.652   6.174  0.7377  0.3130 -0.4325
 1001MOL0     C38053   5.477   8.369   6.035  0.0782 -0.0333 -0.5443
 1001MOL0     C38054   5.364   8.329   6.122  0.2736 -0.3917 -0.2270
 1001MOL0     C38055   4.972   8.255   6.314  0.2733  0.8127 -0.4717
 1001MOL0     C38056   4.883   8.334   6.382 -0.6724  0.6063  0.3049
 1001MOL0     C38057   4.786   8.281   6.457 -1.1828 -0.2388 -0.8880
 1001MOL0     C38058   4.767   8.150   6.473  0.0211 -0.3501  0.3398
 1001MOL0     O38059   4.673   8.129   6.567  0.3130 -0.5036 -1.0847
 1001MOL0     C38060   4.630   7.997   6.599 -0.2711  0.8558  0.1464
 1001MOL0     C38061   4.513   7.990   6.685 -0.1085  0.5512 -0.5664
 1001MOL0     C38062   4.387   8.069   6.630  0.2423 -0.2879  0.3150
 1001MOL0     C38063   4.331   8.037   6.497  0.9151 -0.1201  0.5036
 1001MOL0     C38064   4.285   7.891   6.488  0.1767 -0.9592 -0.2411
 1001MOL0     C38065   4.271   7.773   6.481  0.5799  0.9260  0.7723
 1001MOL0     C38066   4.849   8.061   6.409 -0.5002 -0.4500 -0.0478
 1001MOL0     C38067   4.948   8.115   6.314 -0.3441  0.3859 -0.7690
 1001MOL0     C38068   5.039   8.019   6.242  0.3146 -0.5323 -0.1956
 1001MOL0     H38069   5.115   8.297   5.914 -0.3444  0.7687  1.8516
 1001MOL0     H38070   5.299   8.394   5.749 -0.7897 -0.3188  0.1824
 1001MOL0     H38071   5.501   8.414   5.617 -0.6570 -1.3633 -0.5047
 1001MOL0     H38072   5.557   8.270   5.706 -0.9036 -0.6698  0.2133
 1001MOL0     H38073   5.734   8.305   5.580 -1.0058  0.1522 -1.2876
 1001MOL0     H38074   5.738   8.487   5.609 -1.0524  0.9104  1.4846
 1001MOL0     H38075   5.808   8.428   5.854  0.3770  1.8773 -0.3843
 1001MOL0     H38076   5.796   8.257   5.801  0.6830 -0.9603 -2.5962
 1001MOL0     H38077   5.994   8.291   5.663 -1.3401 -1.3669  1.2501
 1001MOL0     H38078   5.980   8.460   5.673 -3.0326  0.7582 -0.5959
 1001MOL0     H38079   6.038   8.285   5.916  1.1794  0.3277 -0.4901
 1001MOL0     H38080   6.047   8.467   5.902 -3.4114 -1.2861  2.5888
 1001MOL0     H38081   6.234   8.255   5.837 -0.9921 -0.9867 -3.8701
 1001MOL0     H38082   6.222   8.401   5.721  1.1008 -2.7715 -0.5409
 1001MOL0     H38083   6.317   8.549   5.860  1.0845  0.2114 -1.0037
 1001MOL0     H38084   6.414   8.406   5.910  0.1789 -0.2352 -0.5921
 1001MOL0     H38085   6.194   8.519   6.064  0.9965  0.4364 -0.6569
 1001MOL0     H38086   6.263   8.347   6.080  0.2132 -1.6810 -5.1345
 1001MOL0     H38087   6.545   8.367   6.171  1.2385  1.2114 -3.0614
 1001MOL0     H38088   6.755   8.669   6.276  0.0690  0.7494 -2.5352
 1001MOL0     H38089   6.774   8.522   6.185  0.6492 -2.3381  0.4529
 1001MOL0     H38090   6.691   8.523   6.478 -1.9672 -1.8067 -0.3138
 1001MOL0     H38091   6.703   8.381   6.374 -1.7127  0.6485 -0.9965
 1001MOL0     H38092   6.949   8.437   6.351  0.9843  0.3645 -0.3408
 1001MOL0     H38093   6.930   8.587   6.439 -2.8412  0.8646  2.4389
 1001MOL0     H38094   7.050   8.434   6.554  0.3300 -1.2691 -1.4835
 1001MOL0     H38095   6.883   8.443   6.647 -4.3316 -0.0281 -2.9238
 1001MOL0     H38096   7.132   8.315   6.728  2.6807 -1.2121  0.5671
 1001MOL0     H38097   7.290   8.243   6.895  1.4062  0.1010 -0.6148
 1001MOL0     H38098   7.401   8.160   6.791 -2.0059 -0.8247 -2.4638
 1001MOL0     H38099   7.315   8.077   6.928  0.3488  0.4337  0.7475
 1001MOL0     H38100   7.449   7.604   6.718  2.4010  0.3613 -2.2400
 1001MOL0     H38101   7.589   7.462   6.857 -1.9941  0.1147 -0.7512
 1001MOL0     H38102   7.679   7.337   6.996 -0.5920  0.5383  1.3661
 1001MOL0     H38103   7.837   7.412   6.974 -1.8801  2.6198 -2.1214
 1001MOL0     H38104   7.824   7.221   7.147 -2.1065 -1.3995 -0.5281
 1001MOL0     H38105   7.856   7.375   7.240 -2.4039  4.2891 -1.4018
 1001MOL0     H38106   7.593   7.220   7.211  0.3857  0.1266  0.5511
 1001MOL0     H38107   7.612   7.394   7.270  4.6806  3.2972  0.7803
 1001MOL0     H38108   7.733   7.296   7.460  2.0810 -1.3597  0.2653
 1001MOL0     H38109   7.762   7.152   7.360 -1.1778 -2.3115  1.0955
 1001MOL0     H38110   7.567   7.044   7.383 -3.1893 -1.1875  1.5177
 1001MOL0     H38111   7.613   7.090   7.549 -3.2866 -1.5086  0.8675
 1001MOL0     H38112   7.391   7.095   7.530 -0.9787  1.7558  2.9811
 1001MOL0     H38113   7.393   7.208   7.383  2.2099  2.6988 -0.1144
 1001MOL0     H38114   7.486   7.388   7.515 -2.2201  0.7795 -0.0366
 1001MOL0     H38115   7.493   7.281   7.645  2.4780 -2.3292 -1.4381
 1001MOL0     H38116   7.240   7.280   7.663 -0.4145 -0.7305 -0.7367
 1001MOL0     H38117   7.234   7.348   7.496 -1.5894  0.7852  0.3243
 1001MOL0     H38118   7.682   7.780   7.124  2.5201  0.1498 -1.2794
 1001MOL0     H38119   7.559   7.941   6.977  1.8232 -0.1747  1.7782
 1001MOL0     H38120   7.123   7.864   6.517  1.8877  0.5043 -1.8229
 1001MOL0     H38121   6.952   8.035   6.463  0.7398  2.4956 -0.9505
 1001MOL0     H38122   5.579   8.385   6.068  0.6695  0.3536 -2.4387
 1001MOL0     H38123   5.362   8.311   6.229 -3.8590  0.7118  0.0535
 1001MOL0     H38124   4.882   8.441   6.362 -2.4598  0.5783  0.0155
 1001MOL0     H38125   4.713   8.349   6.499  0.3074  1.0871 -0.3614
 1001MOL0     H38126   4.606   7.952   6.502  2.2390  1.5278 -0.8707
 1001MOL0     H38127   4.710   7.940   6.648 -1.8463 -1.3421  0.3455
 1001MOL0     H38128   4.535   8.053   6.773 -1.5544  0.5230 -0.1605
 1001MOL0     H38129   4.487   7.892   6.726 -3.4012  2.4380  2.4620
 1001MOL0     H38130   4.304   8.043   6.696 -0.5112 -1.0370 -0.9079
 1001MOL0     H38131   4.400   8.177   6.643 -2.0144  0.0226  0.3874
 1001MOL0     H38132   4.407   8.064   6.423 -0.2697 -2.5669 -1.7986
 1001MOL0     H38133   4.241   8.099   6.489 -0.7062 -2.4410 -0.6981
 1001MOL0     H38134   4.237   7.671   6.477  1.4619  0.6247  0.7972
 1001MOL0     H38135   4.831   7.957   6.433 -1.6539 -0.0228  1.0160
 1001MOL0     H38136   5.142   8.029   6.277 -0.9495  0.9379  3.5188
 1001MOL0     H38137   5.011   7.913   6.253  2.5873 -1.1097  0.4858
 1001MOL0     H38138   5.036   8.024   6.133  1.5417 -0.4264 -0.2346
 1002MOL0     O38139   1.480  11.088   9.921 -0.1521  0.7085  0.4326
 1002MOL0     C38140   1.460  11.209   9.903 -0.1861 -0.1733  0.8200
 1002MOL0     O38141   1.540  11.286   9.822  0.1847 -0.6432 -0.2344
 1002MOL0     C38142   1.665  11.240   9.808  1.2472 -0.6946 -0.0140
 1002MOL0     C38143   1.729  11.276   9.691  0.1026 -0.3749 -0.1795
 1002MOL0     C38144   1.867  11.266   9.668  0.5669  0.5073  0.4672
 1002MOL0     C38145   1.951  11.197   9.755 -0.0844  0.4820  0.1428
 1002MOL0     O38146   2.087  11.171   9.716  0.0800 -0.1152  0.9186
 1002MOL0     C38147   2.173  11.124   9.823 -0.2163  0.8153 -0.8960
 1002MOL0     C38148   2.318  11.136   9.778 -0.8644  0.4820  0.5446
 1002MOL0     C38149   2.406  11.099   9.893  0.4791  0.4327  0.1803
 1002MOL0     C38150   2.552  11.105   9.866 -0.0518  0.6011 -0.1509
 1002MOL0     C38151   2.605  10.976   9.811 -0.0528 -0.4506  0.2077
 1002MOL0     C38152   2.760  10.975   9.802  0.2044  0.4890  0.4186
 1002MOL0     C38153   2.808  10.833   9.742 -0.2261 -0.4727 -0.3140
 1002MOL0     C38154   2.824  10.709   9.846  0.3567 -1.2837 -0.1321
 1002MOL0     N38155   2.964  10.725   9.897 -0.1833  0.6433 -0.7394
 1002MOL0     C38156   3.062  10.639   9.854 -0.4431 -0.3878 -0.8456
 1002MOL0     C38157   3.174  10.676   9.930 -0.1846  0.6017  0.6795
 1002MOL0     C38158   3.292  10.595   9.940 -0.1640  0.0245  0.1009
 1002MOL0     C38159   3.385  10.642  10.050 -0.1449 -0.3572  0.2673
 1002MOL0     C38160   3.343  10.575  10.178  0.3653 -0.3925 -0.7754
 1002MOL0     C38161   3.417  10.631  10.307 -1.0919 -0.1346  0.1858
 1002MOL0     O38162   3.360  10.587  10.431 -0.3632  0.0547  0.3824
 1002MOL0     C38163   3.227  10.614  10.463 -0.1721 -0.0056  0.1447
 1002MOL0     C38164   3.166  10.515  10.535 -0.1080 -0.2728  0.3973
 1002MOL0     C38165   3.033  10.532  10.572  0.0668 -0.3620  0.2469
 1002MOL0     C38166   2.970  10.409  10.636 -0.1979 -0.9597  0.2649
 1002MOL0     C38167   2.961  10.642  10.532 -0.7783 -0.4279  0.7194
 1002MOL0     C38168   2.823  10.674  10.578 -0.1141 -0.7450  0.9780
 1002MOL0     O38169   2.753  10.752  10.493  0.0212  0.4512 -0.2767
 1002MOL0     C38170   2.627  10.782  10.538  0.4568  0.1227  0.5131
 1002MOL0     C38171   2.526  10.694  10.501  0.4679  0.6542 -0.2121
 1002MOL0     C38172   2.395  10.711  10.558  0.7845  0.3019 -0.2505
 1002MOL0     C38173   2.360  10.821  10.648  0.0786  0.8627 -0.6662
 1002MOL0     O38174   2.232  10.843  10.693  0.0283  0.2348 -0.0064
 1002MOL0     C38175   2.123  10.755  10.652  0.2168 -1.0082 -0.2229
 1002MOL0     C38176   2.019  10.771  10.763  0.1063 -0.4664  0.2275
 1002MOL0     C38177   1.939  10.897  10.733  0.2449  0.3566  0.2474
 1002MOL0     C38178   1.808  10.866  10.663  0.6981 -0.1883  0.6451
 1002MOL0     C38179   1.718  10.989  10.635  0.1337 -0.1028 -0.1807
 1002MOL0     C38180   1.608  10.951  10.530 -0.3107  0.4810 -0.2003
 1002MOL0     C38181   1.492  10.867  10.585  0.7008  1.1703  0.1074
 1002MOL0     C38182   1.375  10.898  10.489  1.0220  0.6305  0.5232
 1002MOL0    Cl38183   1.420  10.841  10.331  0.0047  0.3944 -0.1355
 1002MOL0     C38184   2.469  10.916  10.663 -0.2085  0.3071  0.0290
 1002MOL0     C38185   2.598  10.892  10.611 -0.2265  0.5996  0.5210
 1002MOL0     O38186   2.780  10.621  10.672  0.3479 -0.0649 -0.1482
 1002MOL0     C38187   3.030  10.729  10.459 -0.2756 -0.7709  0.1588
 1002MOL0     C38188   3.169  10.725  10.432 -0.1115 -0.8925  0.0484
 1002MOL0     N38189   3.128  10.780  10.012  0.3987  0.6070 -0.3403
 1002MOL0     N38190   3.007  10.809   9.987  0.0047 -0.7097  0.2584
 1002MOL0     C38191   1.889  11.170   9.878 -0.8667  0.1793 -0.7319
 1002MOL0     C38192   1.755  11.192   9.907  1.0641 -0.0748  0.4335
 1002MOL0     C38193   1.330  11.277   9.943 -0.1634  0.0590 -0.2011
 1002MOL0     C38194   1.288  11.394   9.869 -0.0519 -0.9314 -0.4189
 1002MOL0     C38195   1.160  11.442   9.902  0.0997  0.4298 -0.0741
 1002MOL0     C38196   1.084  11.392  10.011  0.8741  0.7145  0.8744
 1002MOL0     O38197   0.959  11.450  10.026 -0.0325  0.4700  0.1562
 1002MOL0     C38198   0.879  11.429  10.147 -0.3726 -0.0989  0.4336
 1002MOL0     C38199   0.735  11.429  10.106  0.4539 -0.0963  0.2501
 1002MOL0     C38200   0.703  11.336   9.990  0.1396  0.5632  0.3517
 1002MOL0     C38201   0.552  11.332   9.956  0.1924 -0.0142  1.0251
 1002MOL0     C38202   0.471  11.271  10.065  0.5466 -0.6276 -0.9705
 1002MOL0     C38203   0.397  11.222  10.150 -1.0996 -0.1303 -0.1994
 1002MOL0     C38204   1.138  11.288  10.093 -0.1931 -0.3580  0.4382
 1002MOL0     C38205   1.260  11.230  10.058 -0.9148 -0.3084 -0.2326
 1002MOL0     C38206   1.317  11.133  10.159 -0.2239 -0.1275  1.0641
 1002MOL0     H38207   1.656  11.313   9.620 -0.7377  1.9612  1.7988
 1002MOL0     H38208   1.902  11.300   9.571  2.4143  0.9817  1.2592
 1002MOL0     H38209   2.147  11.021   9.851 -0.9095  0.4070 -2.8285
 1002MOL0     H38210   2.170  11.181   9.916 -0.1770  1.3369 -1.2100
 1002MOL0     H38211   2.342  11.069   9.695 -0.5373  3.9566 -2.3655
 1002MOL0     H38212   2.330  11.241   9.752 -4.4564  0.5785 -1.1857
 1002MOL0     H38213   2.385  11.169   9.974 -1.0261 -1.1242  1.1926
 1002MOL0     H38214   2.372  11.004   9.934  0.0832  0.3458 -0.3335
 1002MOL0     H38215   2.578  11.187   9.798 -1.7009  1.7221  0.4931
 1002MOL0     H38216   2.591  11.128   9.965  2.1848 -1.4743 -0.4553
 1002MOL0     H38217   2.558  10.952   9.715 -0.1344 -4.0770  0.9933
 1002MOL0     H38218   2.577  10.892   9.875 -0.0532 -0.5708  0.0516
 1002MOL0     H38219   2.797  11.056   9.738  1.9552  2.0199  3.1731
 1002MOL0     H38220   2.806  10.989   9.900 -0.6927  2.2417  0.6428
 1002MOL0     H38221   2.907  10.855   9.701  0.5259  1.7348  2.3163
 1002MOL0     H38222   2.739  10.806   9.662  0.7765 -1.0506 -1.0107
 1002MOL0     H38223   2.749  10.730   9.923 -2.1339  1.6854 -3.0646
 1002MOL0     H38224   2.794  10.624   9.784 -3.0062  0.8837 -1.7816
 1002MOL0     H38225   3.042  10.557   9.786  2.2329 -0.6853 -1.3931
 1002MOL0     H38226   3.344  10.594   9.844 -1.1373 -2.2896 -0.4870
 1002MOL0     H38227   3.269  10.489   9.954  1.4500 -0.4633 -0.6628
 1002MOL0     H38228   3.486  10.607  10.025 -0.5916 -1.8641  0.4238
 1002MOL0     H38229   3.387  10.751  10.060 -1.4546 -0.3958  1.2444
 1002MOL0     H38230   3.234  10.581  10.184  0.0858 -3.5244 -1.2333
 1002MOL0     H38231   3.351  10.466  10.182 -0.2287 -0.4120  1.3348
 1002MOL0     H38232   3.523  10.603  10.304 -0.6564  1.3873  0.8750
 1002MOL0     H38233   3.427  10.740  10.304 -1.7490 -0.0823 -1.8576
 1002MOL0     H38234   3.218  10.427  10.572 -3.7802 -3.1454 -0.6660
 1002MOL0     H38235   3.007  10.313  10.597 -2.0433 -1.4613 -0.3410
 1002MOL0     H38236   2.865  10.406  10.607  0.0363 -0.9116 -0.6131
 1002MOL0     H38237   2.971  10.401  10.745 -2.5203 -0.5231  0.3605
 1002MOL0     H38238   2.543  10.610  10.436 -0.6625  1.7034 -1.9289
 1002MOL0     H38239   2.318  10.639  10.531  0.6844  0.9515 -1.7981
 1002MOL0     H38240   2.086  10.794  10.558  2.2263 -0.4555 -0.8424
 1002MOL0     H38241   2.154  10.650  10.657  2.0104 -0.4767  2.9661
 1002MOL0     H38242   1.964  10.678  10.781  0.2795 -0.6789 -0.3231
 1002MOL0     H38243   2.090  10.779  10.846  2.1351 -0.4952 -1.4273
 1002MOL0     H38244   2.004  10.966  10.680 -1.5483  1.2234 -0.9369
 1002MOL0     H38245   1.909  10.950  10.824  0.4506  2.1881 -0.7227
 1002MOL0     H38246   1.743  10.793  10.712 -1.5709  0.8452 -0.6644
 1002MOL0     H38247   1.836  10.818  10.569 -0.6164  0.7282 -0.2448
 1002MOL0     H38248   1.649  11.012  10.717 -0.9852 -0.3529 -1.0289
 1002MOL0     H38249   1.783  11.074  10.612 -0.3260  0.0144 -1.0881
 1002MOL0     H38250   1.650  10.902  10.442  1.3735 -1.8849  1.7930
 1002MOL0     H38251   1.568  11.047  10.495 -2.1167 -0.5978 -1.2092
 1002MOL0     H38252   1.464  10.896  10.687  0.4942 -0.9687  0.7128
 1002MOL0     H38253   1.510  10.759  10.573  1.9455  1.2781  0.8343
 1002MOL0     H38254   1.350  11.004  10.493  2.4468  1.0714 -1.1727
 1002MOL0     H38255   1.284  10.843  10.515  0.8164 -0.7186 -2.6102
 1002MOL0     H38256   2.455  11.010  10.715 -2.2371 -0.4739  1.0087
 1002MOL0     H38257   2.680  10.963  10.617  0.7211 -0.3094 -1.0428
 1002MOL0     H38258   2.982  10.823  10.435 -0.8975 -0.5571  2.0882
 1002MOL0     H38259   3.225  10.805  10.385  0.2433 -0.7656  0.6791
 1002MOL0     H38260   1.949  11.117   9.951 -1.6059 -2.8027 -2.1678
 1002MOL0     H38261   1.716  11.161  10.004 -0.7754  1.0870  0.1225
 1002MOL0     H38262   1.355  11.442   9.799 -1.1897  0.3761 -0.6418
 1002MOL0     H38263   1.114  11.529   9.858 -1.0108 -0.6247 -1.0653
 1002MOL0     H38264   0.894  11.332  10.195 -0.4361 -0.6858 -0.7012
 1002MOL0     H38265   0.906  11.501  10.225  0.1442 -1.8172  1.9011
 1002MOL0     H38266   0.692  11.528  10.084  3.2841  0.5555 -3.2049
 1002MOL0     H38267   0.678  11.397  10.194  1.1313  1.6090  1.3526
 1002MOL0     H38268   0.757  11.361   9.898  0.6004 -3.7574 -0.7686
 1002MOL0     H38269   0.721  11.234  10.023 -1.0136  0.5797  1.0616
 1002MOL0     H38270   0.536  11.281   9.861  2.4952 -1.3815  1.2819
 1002MOL0     H38271   0.506  11.430   9.941  1.4745  0.6555  1.3081
 1002MOL0     H38272   0.333  11.175  10.221 -0.3347 -1.1189 -0.1394
 1002MOL0     H38273   1.086  11.263  10.185 -0.4620  2.0354  1.0216
 1002MOL0     H38274   1.419  11.166  10.179  2.5074 -3.3796 -4.7867
 1002MOL0     H38275   1.256  11.130  10.249 -1.9552  1.7125  0.0351
 1002MOL0     H38276   1.335  11.036  10.112 -0.4128  0.1733  0.3539
 1003MOL0     O38277   2.998   3.927   1.075 -0.0838  0.5472 -0.6251
 1003MOL0     C38278   2.983   3.977   0.962 -0.4739  0.0063 -0.2522
 1003MOL0     O38279   3.087   3.993   0.868 -0.1272 -0.0343  0.1501
 1003MOL0     C38280   3.224   3.980   0.895  0.1714  0.5277  0.5756
 1003MOL0     C38281   3.289   4.004   1.011  0.0360  1.3884 -0.0821
 1003MOL0     C38282   3.418   3.974   1.023 -0.6384 -0.2136 -0.7262
 1003MOL0     C38283   3.496   3.922   0.914  0.8250 -0.3896  0.7378
 1003MOL0     O38284   3.626   3.887   0.932 -0.3031  0.3239  0.3329
 1003MOL0     C38285   3.719   3.927   0.833  0.0581  0.8191 -0.0509
 1003MOL0     C38286   3.856   3.905   0.887 -1.2094 -0.6594 -0.6808
 1003MOL0     C38287   3.906   4.013   0.979  0.2080 -0.8030 -0.5194
 1003MOL0     C38288   4.047   3.977   1.026  0.1065 -0.4939  0.0494
 1003MOL0     C38289   4.110   4.077   1.134  0.4592  0.6707 -1.1445
 1003MOL0     C38290   4.250   4.041   1.162 -0.5789 -0.8764 -0.1857
 1003MOL0     C38291   4.302   4.079   1.304  0.5341 -0.0615  1.2456
 1003MOL0     C38292   4.438   4.020   1.328 -0.5399 -0.4334 -1.0980
 1003MOL0     N38293   4.442   3.880   1.310 -0.7898 -0.2277 -0.9525
 1003MOL0     C38294   4.549   3.823   1.263 -0.6375  0.2493 -0.3355
 1003MOL0     C38295   4.533   3.692   1.280  0.4804 -0.1894  0.1961
 1003MOL0     C38296   4.610   3.575   1.231 -0.6922  0.0012 -0.5205
 1003MOL0     C38297   4.627   3.469   1.333 -0.2929 -0.5092 -0.0803
 1003MOL0     C38298   4.703   3.526   1.449  0.0341 -0.4777  0.1324
 1003MOL0     C38299   4.787   3.430   1.522 -0.9458  0.3833 -0.3298
 1003MOL0     O38300   4.891   3.381   1.438  1.2315  0.1402 -0.1844
 1003MOL0     C38301   5.016   3.405   1.493  0.6997 -0.3375  0.9450
 1003MOL0     C38302   5.095   3.487   1.412  0.5493 -0.6105  0.4200
 1003MOL0     C38303   5.232   3.500   1.452  0.1509  0.3910 -0.0309
 1003MOL0     C38304   5.321   3.572   1.361 -0.6205 -1.0042 -0.9610
 1003MOL0     C38305   5.286   3.443   1.575  0.6818 -0.3697  0.0440
 1003MOL0     C38306   5.431   3.457   1.628  1.1712  0.2759  0.6969
 1003MOL0     O38307   5.451   3.436   1.758 -0.5726 -0.0944 -0.4398
 1003MOL0     C38308   5.569   3.476   1.820 -0.2713  0.1498 -0.2819
 1003MOL0     C38309   5.629   3.394   1.923 -0.5329 -0.7491  0.8229
 1003MOL0     C38310   5.736   3.440   2.000  0.4895  0.5811 -0.0065
 1003MOL0     C38311   5.800   3.561   1.971 -0.7368 -0.2321  0.1048
 1003MOL0     O38312   5.911   3.589   2.051  0.1290  0.2189  0.0595
 1003MOL0     C38313   5.947   3.729   2.084 -0.4878 -0.3063 -0.0977
 1003MOL0     C38314   6.071   3.721   2.167  0.1492 -0.6324 -0.3944
 1003MOL0     C38315   6.170   3.834   2.130 -0.5287 -0.7130 -0.0360
 1003MOL0     C38316   6.280   3.839   2.235  0.0833 -1.1826 -0.1134
 1003MOL0     C38317   6.413   3.896   2.179 -0.8397 -0.6309  0.2853
 1003MOL0     C38318   6.410   4.039   2.115  0.6420 -0.2017 -0.2258
 1003MOL0     C38319   6.535   4.077   2.027 -0.5415 -0.6287 -0.8645
 1003MOL0     C38320   6.675   4.092   2.097  0.2670  1.1264 -0.3069
 1003MOL0    Cl38321   6.673   4.232   2.214 -0.3481 -0.1268 -0.1422
 1003MOL0     C38322   5.759   3.641   1.867  0.8005  0.6417  0.6622
 1003MOL0     C38323   5.640   3.602   1.797 -0.8926  0.8595 -0.2333
 1003MOL0     O38324   5.515   3.479   1.546 -0.0717 -0.6372  0.4478
 1003MOL0     C38325   5.199   3.369   1.652  0.3868  0.0646  0.4802
 1003MOL0     C38326   5.060   3.350   1.609 -1.0533  0.5258  1.2124
 1003MOL0     N38327   4.410   3.670   1.340 -0.1778 -0.3840  0.4661
 1003MOL0     N38328   4.353   3.788   1.350  0.1303  0.3364 -0.0143
 1003MOL0     C38329   3.429   3.906   0.786 -0.6799 -0.8559 -0.0751
 1003MOL0     C38330   3.295   3.944   0.784  1.2294 -1.1826  0.6223
 1003MOL0     C38331   2.843   4.008   0.924  0.1676 -1.3266 -0.1317
 1003MOL0     C38332   2.827   4.058   0.791 -0.4538  0.6415  0.2007
 1003MOL0     C38333   2.702   4.091   0.743 -0.9937  0.9949 -0.4691
 1003MOL0     C38334   2.596   4.084   0.818  0.0205  0.3208 -1.0663
 1003MOL0     O38335   2.481   4.124   0.746  0.4985  0.0486 -0.2122
 1003MOL0     C38336   2.354   4.109   0.820 -1.3132  0.2252  0.1319
 1003MOL0     C38337   2.241   4.154   0.724 -0.0511  0.3640  0.2568
 1003MOL0     C38338   2.230   4.309   0.712  0.1725  0.4265 -0.7690
 1003MOL0     C38339   2.073   4.356   0.686  0.0121 -0.3453 -0.8334
 1003MOL0     C38340   2.010   4.411   0.818 -1.2631  0.7175 -0.3409
 1003MOL0     C38341   1.964   4.453   0.926  0.8378 -0.7172  0.9696
 1003MOL0     C38342   2.611   4.056   0.955  0.2141  0.6009  0.9708
 1003MOL0     C38343   2.730   4.010   1.008 -0.1423  0.0156  0.5525
 1003MOL0     C38344   2.728   3.978   1.163 -0.9611  0.4989 -0.0359
 1003MOL0     H38345   3.239   4.036   1.102 -0.7436 -2.1676  0.9048
 1003MOL0     H38346   3.452   3.977   1.126 -2.8807 -0.9529  0.1004
 1003MOL0     H38347   3.714   4.032   0.803  1.2014  1.0561  0.5438
 1003MOL0     H38348   3.709   3.857   0.749 -1.6692  0.3341  0.5048
 1003MOL0     H38349   3.864   3.809   0.938  2.8367 -0.4492 -0.5480
 1003MOL0     H38350   3.926   3.912   0.803  1.5999  2.2961  1.6407
 1003MOL0     H38351   3.908   4.115   0.940 -0.7438 -0.9379 -0.9302
 1003MOL0     H38352   3.848   4.012   1.072  2.2951  0.5432  0.9150
 1003MOL0     H38353   4.046   3.872   1.058 -0.6683 -0.8212 -0.9839
 1003MOL0     H38354   4.114   3.987   0.940  2.2632 -1.3365  1.5621
 1003MOL0     H38355   4.052   4.063   1.226 -2.7937 -0.0384 -3.1081
 1003MOL0     H38356   4.103   4.183   1.106  0.6517  0.3758 -2.3607
 1003MOL0     H38357   4.273   3.937   1.137 -0.9373 -1.5668  2.1301
 1003MOL0     H38358   4.297   4.101   1.083 -0.5907 -1.6017 -0.7510
 1003MOL0     H38359   4.227   4.046   1.377 -1.5599  0.1465 -0.6926
 1003MOL0     H38360   4.292   4.188   1.310 -0.0410 -0.0041 -0.2326
 1003MOL0     H38361   4.514   4.080   1.277 -0.1094  1.4668  1.5630
 1003MOL0     H38362   4.466   4.033   1.433 -2.3739  2.1637 -0.8292
 1003MOL0     H38363   4.633   3.875   1.217 -0.7692 -0.8831 -1.9047
 1003MOL0     H38364   4.704   3.613   1.191  0.2000 -2.1216 -0.5889
 1003MOL0     H38365   4.551   3.533   1.148 -0.7677 -1.5232  0.2691
 1003MOL0     H38366   4.535   3.421   1.368 -0.8086  1.6345  1.7489
 1003MOL0     H38367   4.682   3.401   1.268 -1.0310  0.3892 -1.7103
 1003MOL0     H38368   4.762   3.611   1.412 -0.3288 -0.7316 -1.0925
 1003MOL0     H38369   4.632   3.570   1.520  1.8538  0.7577  1.2791
 1003MOL0     H38370   4.824   3.477   1.614 -0.8624 -0.4672  0.0885
 1003MOL0     H38371   4.727   3.341   1.545 -1.9345  0.6941 -1.6332
 1003MOL0     H38372   5.064   3.534   1.319  2.5167  1.4577  0.7249
 1003MOL0     H38373   5.401   3.630   1.409 -0.3555  0.0597 -2.6181
 1003MOL0     H38374   5.260   3.645   1.308 -0.1031 -2.0032 -3.0190
 1003MOL0     H38375   5.370   3.496   1.299 -0.3525 -0.4385 -1.4449
 1003MOL0     H38376   5.580   3.297   1.927  1.2668 -1.8433 -1.5173
 1003MOL0     H38377   5.774   3.372   2.076 -0.2819 -1.3942 -1.2951
 1003MOL0     H38378   5.970   3.783   1.991  3.2165 -0.3646  0.6317
 1003MOL0     H38379   5.865   3.776   2.139  0.5151 -0.8577  1.9393
 1003MOL0     H38380   6.043   3.739   2.271 -0.2297 -2.8000 -0.0791
 1003MOL0     H38381   6.122   3.624   2.167  1.2902 -0.0922 -2.0627
 1003MOL0     H38382   6.120   3.931   2.125 -3.0443 -1.5385  4.3519
 1003MOL0     H38383   6.219   3.814   2.034  0.0787  1.9398 -0.3741
 1003MOL0     H38384   6.302   3.738   2.271  1.8591 -1.0787 -0.8111
 1003MOL0     H38385   6.225   3.901   2.306 -4.2832 -0.8492 -3.3875
 1003MOL0     H38386   6.488   3.904   2.258  2.1098  0.3367 -2.3975
 1003MOL0     H38387   6.460   3.827   2.109  3.7252  1.3855  0.9485
 1003MOL0     H38388   6.399   4.118   2.189  0.0764 -0.8762  0.4262
 1003MOL0     H38389   6.330   4.049   2.042 -1.3765  0.2553  1.9197
 1003MOL0     H38390   6.512   4.170   1.975 -1.2556 -1.0854 -1.3911
 1003MOL0     H38391   6.555   3.997   1.954  0.6023 -2.3158  1.1869
 1003MOL0     H38392   6.751   4.106   2.019  0.7805 -2.4095 -0.6029
 1003MOL0     H38393   6.704   3.999   2.146  0.8593  1.3732 -0.1886
 1003MOL0     H38394   5.803   3.735   1.835  0.5004  0.3076 -0.8134
 1003MOL0     H38395   5.598   3.674   1.727 -0.4057  3.4588  1.9839
 1003MOL0     H38396   5.234   3.320   1.742  2.2181  0.5482  0.0652
 1003MOL0     H38397   4.994   3.283   1.663  0.5523 -4.0141 -1.8605
 1003MOL0     H38398   3.480   3.854   0.705  0.1512  0.0248 -0.1419
 1003MOL0     H38399   3.239   3.925   0.693  2.0737 -1.0321  0.0611
 1003MOL0     H38400   2.916   4.072   0.730  0.9348 -0.6335  1.8411
 1003MOL0     H38401   2.691   4.115   0.637 -0.1927 -0.6639 -0.9632
 1003MOL0     H38402   2.336   4.006   0.850 -1.6137  0.2937  0.1956
 1003MOL0     H38403   2.356   4.157   0.918 -1.2872 -3.1655  1.9368
 1003MOL0     H38404   2.147   4.121   0.768  0.2906  0.0362  0.7580
 1003MOL0     H38405   2.260   4.102   0.629  0.6163  2.0806 -0.5970
 1003MOL0     H38406   2.260   4.361   0.803 -0.6673 -2.0375  1.0275
 1003MOL0     H38407   2.291   4.341   0.627 -2.3983  2.0614 -2.1176
 1003MOL0     H38408   2.015   4.271   0.649  2.5999 -2.0458 -1.2483
 1003MOL0     H38409   2.061   4.434   0.611 -2.1918  1.2261  0.9888
 1003MOL0     H38410   1.940   4.489   1.024 -1.7780 -0.2993  0.2389
 1003MOL0     H38411   2.527   4.059   1.024 -0.0595  2.5641  0.6286
 1003MOL0     H38412   2.634   3.994   1.217 -1.2486 -1.4102  0.1121
 1003MOL0     H38413   2.764   3.876   1.180 -0.6223  0.3942 -1.2476
 1003MOL0     H38414   2.795   4.051   1.208 -1.9910  1.9372 -0.7769
 1004MOL0     O38415   9.606   3.761   7.143  0.1142  0.0579 -0.0747
 1004MOL0     C38416   9.602   3.726   7.029  0.1411 -0.3220  0.4206
 1004MOL0     O38417   9.708   3.717   6.934 -0.1481 -0.4870 -0.5131
 1004MOL0     C38418   9.826   3.759   6.974 -0.5473  0.1220  1.1871
 1004MOL0     C38419   9.909   3.689   7.061  0.6373 -0.4201 -0.7344
 1004MOL0     C38420  10.043   3.740   7.081 -0.5925  0.4535 -0.1974
 1004MOL0     C38421  10.088   3.855   7.017  0.1014  1.0094  0.9299
 1004MOL0     O38422  10.212   3.896   7.063 -0.2108 -0.7831 -0.0466
 1004MOL0     C38423  10.290   3.994   6.988 -0.0446  0.2429  1.2762
 1004MOL0     C38424  10.437   3.965   7.002 -0.4028 -0.3850  0.1822
 1004MOL0     C38425  10.483   4.036   7.139  0.0812 -0.3443  0.5506
 1004MOL0     C38426  10.634   4.068   7.128 -0.3030  0.3653  0.5065
 1004MOL0     C38427  10.683   4.143   7.248  0.0368 -0.6450 -0.5534
 1004MOL0     C38428  10.633   4.284   7.268  0.0748 -0.2243  0.3118
 1004MOL0     C38429  10.661   4.382   7.154  0.2132 -0.2020 -0.0987
 1004MOL0     C38430  10.718   4.516   7.208  0.7087  0.0053 -0.6436
 1004MOL0     N38431  10.746   4.613   7.099 -0.1495 -0.2019  0.2385
 1004MOL0     C38432  10.876   4.625   7.062 -0.1402 -0.6406  0.3484
 1004MOL0     C38433  10.877   4.698   6.946 -0.3618 -0.4005 -0.1649
 1004MOL0     C38434  10.995   4.750   6.871 -0.1382 -0.1015 -0.6402
 1004MOL0     C38435  11.106   4.645   6.838  0.4297 -0.0553 -0.1846
 1004MOL0     C38436  11.211   4.702   6.734 -0.3796  1.0588  0.9559
 1004MOL0     C38437  11.185   4.662   6.590  0.2777 -0.4112  0.3578
 1004MOL0     O38438  11.053   4.701   6.550  0.0855  0.5545 -0.3022
 1004MOL0     C38439  10.993   4.634   6.439 -0.0233 -0.7038  0.3861
 1004MOL0     C38440  11.055   4.610   6.317 -0.3145  0.8502  0.3196
 1004MOL0     C38441  10.983   4.533   6.221  0.1770 -0.8553 -0.4681
 1004MOL0     C38442  11.066   4.505   6.097 -0.3498  0.9229 -0.2115
 1004MOL0     C38443  10.850   4.487   6.254  0.3884  0.0726  0.3735
 1004MOL0     C38444  10.760   4.407   6.168 -0.5482 -0.7038 -0.5533
 1004MOL0     O38445  10.652   4.340   6.214  0.3418 -0.1639 -0.6204
 1004MOL0     C38446  10.583   4.255   6.136  0.3701  0.3463  0.3002
 1004MOL0     C38447  10.573   4.125   6.160 -0.4455  0.1000  0.9258
 1004MOL0     C38448  10.503   4.039   6.081 -0.7971  0.5423  0.5159
 1004MOL0     C38449  10.439   4.072   5.966 -0.0527  0.0399  1.1446
 1004MOL0     O38450  10.369   3.972   5.904  0.4530 -0.9283 -0.0894
 1004MOL0     C38451  10.298   4.009   5.787  0.3957 -0.2654  0.5955
 1004MOL0     C38452  10.206   3.893   5.734 -0.1906  0.4211 -0.5006
 1004MOL0     C38453  10.062   3.889   5.800  0.0766  0.0893 -0.6349
 1004MOL0     C38454   9.987   3.758   5.766  0.3225 -0.7914  1.2144
 1004MOL0     C38455   9.842   3.763   5.819  0.0814  0.0296 -0.4732
 1004MOL0     C38456   9.777   3.624   5.787  0.2677  0.9095 -0.8347
 1004MOL0     C38457   9.634   3.609   5.832  0.8858 -0.2053 -0.0907
 1004MOL0     C38458   9.539   3.588   5.718 -0.4429 -0.2445  0.0869
 1004MOL0    Cl38459   9.518   3.738   5.621 -0.1334 -0.2078 -0.1194
 1004MOL0     C38460  10.448   4.211   5.942  0.3058  1.0999  1.0738
 1004MOL0     C38461  10.510   4.298   6.023 -0.3666 -0.2440  0.6548
 1004MOL0     O38462  10.791   4.420   6.052  0.3026  0.3688  0.0706
 1004MOL0     C38463  10.788   4.535   6.373 -0.4450 -0.0450 -0.3375
 1004MOL0     C38464  10.858   4.602   6.460 -0.4539 -0.9772 -0.3903
 1004MOL0     N38465  10.743   4.737   6.926 -0.4413  0.7393  0.2838
 1004MOL0     N38466  10.662   4.680   7.017 -1.0507  0.3660 -0.1099
 1004MOL0     C38467  10.003   3.921   6.933  0.2456 -0.2620 -0.3020
 1004MOL0     C38468   9.877   3.875   6.908  0.0946 -0.0951  0.0482
 1004MOL0     C38469   9.465   3.701   6.978  0.1017 -0.4192 -0.2501
 1004MOL0     C38470   9.447   3.774   6.854  0.8047 -0.1275  0.3241
 1004MOL0     C38471   9.317   3.785   6.794 -0.4905 -0.1739  0.2571
 1004MOL0     C38472   9.213   3.722   6.863 -0.2714 -0.4576 -0.4714
 1004MOL0     O38473   9.085   3.721   6.819  0.8175  0.2529 -0.4092
 1004MOL0     C38474   9.054   3.789   6.695 -0.1286  0.2632 -0.5768
 1004MOL0     C38475   8.910   3.745   6.666  0.5847 -0.1595 -0.2933
 1004MOL0     C38476   8.858   3.796   6.533 -0.0041  0.0255  0.3060
 1004MOL0     C38477   8.703   3.778   6.525 -0.3762 -0.2146  0.4648
 1004MOL0     C38478   8.664   3.637   6.514 -0.7809 -0.8414  0.3067
 1004MOL0     C38479   8.623   3.525   6.505 -0.0965  0.4106 -0.0871
 1004MOL0     C38480   9.238   3.644   6.973  0.7766 -1.0446 -0.5593
 1004MOL0     C38481   9.363   3.629   7.029  0.3163  0.1445 -0.3636
 1004MOL0     C38482   9.368   3.537   7.144  0.2978 -0.1226 -0.1786
 1004MOL0     H38483   9.865   3.623   7.135  0.9917  2.5410  2.4053
 1004MOL0     H38484  10.106   3.679   7.146 -0.8713 -2.1613 -2.2025
 1004MOL0     H38485  10.276   4.095   7.029  2.1695  0.6516  1.1222
 1004MOL0     H38486  10.260   3.998   6.883  1.7863 -0.8662  0.6748
 1004MOL0     H38487  10.456   3.858   7.018 -0.3801 -0.6281 -1.3800
 1004MOL0     H38488  10.491   4.004   6.915 -2.9913  1.8957 -0.5481
 1004MOL0     H38489  10.438   4.134   7.155  1.8652  0.3974  1.3438
 1004MOL0     H38490  10.453   3.981   7.229 -1.4981  2.0408  1.5649
 1004MOL0     H38491  10.687   3.975   7.106 -0.3092  0.5728 -0.4227
 1004MOL0     H38492  10.652   4.121   7.034  2.6589  3.4127  2.5425
 1004MOL0     H38493  10.792   4.144   7.237  0.0876  1.1888 -0.2832
 1004MOL0     H38494  10.663   4.082   7.337  0.4566 -0.7128 -0.5044
 1004MOL0     H38495  10.524   4.290   7.282  0.0920  1.8948 -0.1398
 1004MOL0     H38496  10.668   4.318   7.366  1.1238 -0.3188 -0.0273
 1004MOL0     H38497  10.564   4.405   7.109  0.9059  0.0837 -1.4978
 1004MOL0     H38498  10.727   4.330   7.085 -1.5222 -1.7741 -0.6675
 1004MOL0     H38499  10.641   4.569   7.264  1.7764  0.8033  0.1105
 1004MOL0     H38500  10.802   4.492   7.274 -0.0132 -0.8186 -0.0093
 1004MOL0     H38501  10.964   4.582   7.108  0.3949 -0.3025 -0.3277
 1004MOL0     H38502  11.046   4.829   6.928 -2.2748 -1.3104  3.4071
 1004MOL0     H38503  10.947   4.785   6.779  0.6370  4.1545  0.3491
 1004MOL0     H38504  11.168   4.629   6.927 -0.3857 -1.4245  0.1527
 1004MOL0     H38505  11.073   4.545   6.811 -0.5344  0.3061 -0.3928
 1004MOL0     H38506  11.216   4.810   6.744 -0.4410  1.2133 -0.5353
 1004MOL0     H38507  11.304   4.663   6.777 -1.5033 -1.2026  1.5228
 1004MOL0     H38508  11.257   4.705   6.520 -0.7644 -1.1095 -1.1979
 1004MOL0     H38509  11.195   4.553   6.597  1.2718 -0.2517  1.9066
 1004MOL0     H38510  11.148   4.662   6.296 -0.6467  0.9486 -0.9490
 1004MOL0     H38511  11.086   4.397   6.100  3.5164  1.3029 -3.2875
 1004MOL0     H38512  11.166   4.548   6.109  1.1567 -1.4612 -2.9685
 1004MOL0     H38513  11.019   4.534   6.003  1.7320 -1.3507 -2.0961
 1004MOL0     H38514  10.614   4.080   6.251  1.7386  0.4226  0.1737
 1004MOL0     H38515  10.519   3.937   6.115  3.0753  0.8009 -0.1061
 1004MOL0     H38516  10.240   4.101   5.795  1.2143  0.4773 -1.3288
 1004MOL0     H38517  10.364   4.026   5.701 -1.0730  0.9470 -0.3354
 1004MOL0     H38518  10.186   3.902   5.627  0.9252  0.7144 -0.7022
 1004MOL0     H38519  10.251   3.793   5.738 -3.0898 -1.1402 -2.8892
 1004MOL0     H38520   9.999   3.976   5.778 -0.9812 -0.5951 -0.4051
 1004MOL0     H38521  10.071   3.894   5.908 -5.1031  2.0857  0.0163
 1004MOL0     H38522  10.048   3.678   5.808  2.4493 -0.3499 -0.8566
 1004MOL0     H38523   9.980   3.769   5.657 -1.5553 -1.2266  1.2584
 1004MOL0     H38524   9.847   3.778   5.927  0.8147 -0.7943 -0.3802
 1004MOL0     H38525   9.783   3.844   5.775  1.7235  2.6453  1.8309
 1004MOL0     H38526   9.843   3.549   5.831 -0.5703  0.2648 -0.6651
 1004MOL0     H38527   9.781   3.627   5.678  1.1597 -0.2534 -0.8549
 1004MOL0     H38528   9.599   3.705   5.872  3.1718  1.0307 -0.8311
 1004MOL0     H38529   9.637   3.528   5.904  0.4706  0.2731  0.4690
 1004MOL0     H38530   9.434   3.565   5.742 -0.9549  1.4550 -0.4095
 1004MOL0     H38531   9.573   3.506   5.654 -1.6240 -2.5438  2.1998
 1004MOL0     H38532  10.404   4.250   5.850 -1.9977 -1.3276  1.0182
 1004MOL0     H38533  10.521   4.403   5.997  2.6641 -0.1386  1.9151
 1004MOL0     H38534  10.682   4.523   6.394 -0.1352 -0.6200  1.0144
 1004MOL0     H38535  10.817   4.624   6.558 -0.2000 -2.3886  0.0427
 1004MOL0     H38536  10.043   4.014   6.892  1.0283  0.1991  1.4159
 1004MOL0     H38537   9.809   3.938   6.852 -1.1954 -0.3790  1.2446
 1004MOL0     H38538   9.531   3.821   6.804  1.2819 -1.0837  0.1874
 1004MOL0     H38539   9.331   3.827   6.695  0.7015 -0.9806  0.0581
 1004MOL0     H38540   9.070   3.897   6.699  2.6042 -0.0324 -1.3592
 1004MOL0     H38541   9.109   3.752   6.607 -2.3150  2.3217 -2.9989
 1004MOL0     H38542   8.847   3.775   6.750  1.2367 -3.5964  1.6039
 1004MOL0     H38543   8.898   3.636   6.665 -0.4275 -0.0527 -0.7090
 1004MOL0     H38544   8.870   3.904   6.521  0.6563 -0.1461 -0.6979
 1004MOL0     H38545   8.897   3.748   6.443 -2.9376  2.2968 -2.3994
 1004MOL0     H38546   8.667   3.837   6.441  1.6989  0.7082  0.1644
 1004MOL0     H38547   8.653   3.825   6.610  0.0449 -0.6383  0.9559
 1004MOL0     H38548   8.597   3.424   6.482 -2.3257  1.0810 -0.8451
 1004MOL0     H38549   9.144   3.608   7.013 -0.3037  1.4061 -0.6823
 1004MOL0     H38550   9.361   3.435   7.105 -0.0139 -0.8705  1.7378
 1004MOL0     H38551   9.455   3.554   7.207 -0.1063  2.4657 -0.1952
 1004MOL0     H38552   9.282   3.556   7.209 -0.8964 -1.4906 -1.2712
 1005MOL0     O38553   8.229   4.837   9.934  0.0174  0.6274  0.5213
 1005MOL0     C38554   8.188   4.914   9.857  0.6761  0.8222  0.3323
 1005MOL0     O38555   8.068   4.907   9.792  0.6648 -0.9834  0.2908
 1005MOL0     C38556   7.974   4.821   9.844  0.2682  0.1618 -0.3252
 1005MOL0     C38557   7.980   4.682   9.865 -0.8085  0.3424 -0.0924
 1005MOL0     C38558   7.877   4.615   9.926 -0.3935  0.1976  0.2731
 1005MOL0     C38559   7.751   4.676   9.959 -0.0221  0.5745  0.5509
 1005MOL0     O38560   7.647   4.615  10.015  0.6543 -0.2671 -0.8497
 1005MOL0     C38561   7.614   4.482   9.986  0.5712 -0.4280  0.0736
 1005MOL0     C38562   7.519   4.427  10.088 -0.3294 -0.2835 -0.1304
 1005MOL0     C38563   7.472   4.281  10.077 -0.7257 -0.1178  0.8267
 1005MOL0     C38564   7.398   4.253   9.952  0.6193  0.3472 -0.2909
 1005MOL0     C38565   7.262   4.319   9.960  0.1075 -0.1434 -0.4707
 1005MOL0     C38566   7.150   4.256   9.877  0.0945 -0.5887  0.6846
 1005MOL0     C38567   7.192   4.232   9.719 -0.3259 -0.7509  0.0929
 1005MOL0     C38568   7.206   4.372   9.654 -0.6820 -0.2181  0.7726
 1005MOL0     N38569   7.286   4.357   9.535 -0.6376 -0.1058 -0.1335
 1005MOL0     C38570   7.242   4.343   9.405 -0.6097 -0.2152 -0.4503
 1005MOL0     C38571   7.353   4.324   9.338 -0.0671 -0.4408 -0.3587
 1005MOL0     C38572   7.359   4.282   9.185 -0.3813  0.9491  0.7478
 1005MOL0     C38573   7.276   4.149   9.172  0.1281 -0.5023 -0.0315
 1005MOL0     C38574   7.314   4.048   9.283 -0.2516  0.2899  0.3177
 1005MOL0     C38575   7.466   4.014   9.289  0.1812  0.6868  0.4385
 1005MOL0     O38576   7.533   3.962   9.175 -0.0084  0.4464  0.4890
 1005MOL0     C38577   7.482   3.848   9.119  0.7611 -0.6971  0.1152
 1005MOL0     C38578   7.468   3.725   9.184  0.2303  0.0475 -0.3817
 1005MOL0     C38579   7.398   3.620   9.124  0.1855 -0.7983 -0.1309
 1005MOL0     C38580   7.403   3.488   9.190  0.4438 -0.2786 -1.2171
 1005MOL0     C38581   7.350   3.635   8.993 -0.7184 -0.3165  0.5114
 1005MOL0     C38582   7.264   3.531   8.928 -0.0424 -0.7178  0.8380
 1005MOL0     O38583   7.206   3.579   8.816  0.0032  0.2733  0.3813
 1005MOL0     C38584   7.083   3.515   8.790 -1.3930 -0.3764  0.5344
 1005MOL0     C38585   6.961   3.572   8.811  0.4540 -1.3635  0.2225
 1005MOL0     C38586   6.847   3.515   8.763  0.4499 -0.0184  0.5185
 1005MOL0     C38587   6.850   3.394   8.678 -0.0161 -0.3608 -0.0730
 1005MOL0     O38588   6.736   3.342   8.613  0.6944 -0.5702  0.1894
 1005MOL0     C38589   6.671   3.430   8.519 -0.0475 -0.1855  0.1483
 1005MOL0     C38590   6.594   3.367   8.420 -0.2764 -0.4227  0.2647
 1005MOL0     C38591   6.456   3.313   8.467  0.2598  0.2242  0.0373
 1005MOL0     C38592   6.385   3.237   8.353 -0.3496  0.1679 -0.1566
 1005MOL0     C38593   6.398   3.083   8.377 -0.2579 -0.0164  0.1567
 1005MOL0     C38594   6.354   2.998   8.251 -0.0031  0.9259  0.1133
 1005MOL0     C38595   6.209   3.006   8.224  1.0338 -0.1050 -0.1775
 1005MOL0     C38596   6.173   3.071   8.090  1.0284  0.0313 -0.5594
 1005MOL0    Cl38597   6.011   3.035   8.052 -0.3519  0.4631  0.3504
 1005MOL0     C38598   6.979   3.328   8.674 -0.3554 -0.0145  0.8320
 1005MOL0     C38599   7.093   3.387   8.727 -0.0476  0.0525  0.1743
 1005MOL0     O38600   7.256   3.412   8.968  0.8981 -0.4463 -0.1222
 1005MOL0     C38601   7.355   3.759   8.930 -0.4372 -0.3260  0.4717
 1005MOL0     C38602   7.429   3.866   8.991 -0.1611 -0.1420  0.0408
 1005MOL0     N38603   7.464   4.341   9.424 -0.6978  0.5062  0.0359
 1005MOL0     N38604   7.420   4.342   9.543 -1.0583 -0.5765 -0.1906
 1005MOL0     C38605   7.742   4.812   9.918 -1.1537 -0.2251  0.4178
 1005MOL0     C38606   7.849   4.882   9.863 -0.0391  0.3504 -0.0207
 1005MOL0     C38607   8.271   5.034   9.827  0.9964 -0.2292  0.2916
 1005MOL0     C38608   8.287   5.063   9.693 -0.4901 -0.6170  0.1424
 1005MOL0     C38609   8.358   5.176   9.643  0.4313  0.4991 -0.0165
 1005MOL0     C38610   8.407   5.269   9.731  0.4916  0.3816  0.8295
 1005MOL0     O38611   8.484   5.375   9.695  0.1957 -0.7688 -1.0028
 1005MOL0     C38612   8.580   5.368   9.589 -1.4631 -0.6882  0.2014
 1005MOL0     C38613   8.679   5.257   9.596 -0.4048 -0.2894  0.5963
 1005MOL0     C38614   8.809   5.304   9.519  0.2024 -0.2389  0.1520
 1005MOL0     C38615   8.788   5.322   9.365  0.7770  0.2187  0.4049
 1005MOL0     C38616   8.760   5.462   9.329 -0.0425 -1.2823 -1.0834
 1005MOL0     C38617   8.721   5.578   9.301 -0.2599  0.5100  0.6837
 1005MOL0     C38618   8.381   5.251   9.864 -0.7093  0.7201 -0.7121
 1005MOL0     C38619   8.314   5.132   9.914 -0.0408 -0.7048  0.2093
 1005MOL0     C38620   8.304   5.104  10.070  0.1391  0.0079 -0.4544
 1005MOL0     H38621   8.071   4.634   9.833 -1.6040 -1.2218 -0.1435
 1005MOL0     H38622   7.898   4.510   9.938 -0.0869  0.2387  0.1157
 1005MOL0     H38623   7.703   4.420   9.994  0.9406 -0.1892 -1.6404
 1005MOL0     H38624   7.582   4.481   9.881 -0.7182  1.8785  0.3783
 1005MOL0     H38625   7.563   4.437  10.188 -0.3690 -0.8288 -0.0535
 1005MOL0     H38626   7.433   4.495  10.085  0.2451  0.4099 -1.8605
 1005MOL0     H38627   7.558   4.213  10.070  0.3023  1.2195 -0.3581
 1005MOL0     H38628   7.414   4.257  10.166  1.3691 -1.5951  1.8931
 1005MOL0     H38629   7.454   4.286   9.864 -1.7823 -0.6059 -2.2978
 1005MOL0     H38630   7.375   4.146   9.947 -1.3408  0.5417  2.2321
 1005MOL0     H38631   7.280   4.424   9.936  4.9265 -0.1370  1.9459
 1005MOL0     H38632   7.225   4.329  10.062 -2.2042 -0.8163 -1.1760
 1005MOL0     H38633   7.141   4.151   9.908 -0.8567 -1.1483 -1.3285
 1005MOL0     H38634   7.058   4.314   9.870  0.8510  0.4373 -1.3230
 1005MOL0     H38635   7.120   4.171   9.664 -1.5623  1.8310 -1.3359
 1005MOL0     H38636   7.291   4.185   9.710  0.0201 -0.6115  2.5887
 1005MOL0     H38637   7.104   4.403   9.627 -1.5562 -2.6318  1.0166
 1005MOL0     H38638   7.241   4.451   9.721  0.3006  0.1679 -0.1800
 1005MOL0     H38639   7.140   4.328   9.370  0.1476  0.3807 -3.1141
 1005MOL0     H38640   7.462   4.264   9.153 -1.3061  1.9534 -3.2248
 1005MOL0     H38641   7.327   4.356   9.112  0.5505 -0.0122 -0.6672
 1005MOL0     H38642   7.173   4.184   9.178  0.6505  1.0003  0.4977
 1005MOL0     H38643   7.293   4.101   9.075  3.3250  1.4678 -0.6045
 1005MOL0     H38644   7.292   4.078   9.386  0.4094 -4.4473  2.1017
 1005MOL0     H38645   7.257   3.957   9.261  0.4945  0.1309 -1.0125
 1005MOL0     H38646   7.523   4.107   9.296  0.7994  0.4284 -0.8800
 1005MOL0     H38647   7.482   3.948   9.375 -3.2558  1.5330  1.9011
 1005MOL0     H38648   7.512   3.718   9.283  3.2246  4.3759 -1.1287
 1005MOL0     H38649   7.427   3.401   9.128 -2.3121 -0.2098 -2.5434
 1005MOL0     H38650   7.301   3.468   9.225 -0.4448  2.6938 -1.8500
 1005MOL0     H38651   7.472   3.492   9.275 -0.9889 -0.1457 -0.0108
 1005MOL0     H38652   6.946   3.672   8.849  0.4568  0.0065 -3.0177
 1005MOL0     H38653   6.750   3.556   8.791 -0.4063 -0.4254 -1.6383
 1005MOL0     H38654   6.612   3.505   8.572  2.5020  1.4321  0.8809
 1005MOL0     H38655   6.743   3.483   8.455 -1.0466  0.6040 -0.3583
 1005MOL0     H38656   6.563   3.438   8.343 -4.4456  0.2629  2.2951
 1005MOL0     H38657   6.662   3.288   8.385 -0.9132 -0.6013 -0.6084
 1005MOL0     H38658   6.401   3.400   8.504 -1.7015 -0.3725 -1.2828
 1005MOL0     H38659   6.463   3.249   8.555 -2.0180  2.7651  2.2044
 1005MOL0     H38660   6.423   3.269   8.255 -2.5331 -0.4087 -1.2690
 1005MOL0     H38661   6.282   3.274   8.361 -0.6540 -0.2872 -1.5754
 1005MOL0     H38662   6.507   3.084   8.374 -0.2755 -0.0462 -0.7057
 1005MOL0     H38663   6.361   3.057   8.477  1.3259  0.8356  0.9886
 1005MOL0     H38664   6.385   2.894   8.264  0.4910  1.2645  1.9026
 1005MOL0     H38665   6.410   3.031   8.163 -0.3416 -2.9908 -1.8006
 1005MOL0     H38666   6.164   3.064   8.305  3.3401 -1.3307  2.1527
 1005MOL0     H38667   6.177   2.902   8.234 -2.1258  0.5378 -2.2945
 1005MOL0     H38668   6.246   3.039   8.015  0.9198  0.3458 -0.8023
 1005MOL0     H38669   6.187   3.179   8.099  1.0894 -0.0863  0.8836
 1005MOL0     H38670   6.974   3.236   8.616  1.6871 -0.3119  1.0761
 1005MOL0     H38671   7.193   3.350   8.707 -0.2260 -0.4780  0.2719
 1005MOL0     H38672   7.315   3.781   8.832  1.6686 -2.9691 -1.1055
 1005MOL0     H38673   7.428   3.959   8.937 -0.9802  1.0096  1.9239
 1005MOL0     H38674   7.646   4.861   9.917  0.4673  3.2647  1.4277
 1005MOL0     H38675   7.837   4.984   9.829  0.9613  0.0757 -1.2533
 1005MOL0     H38676   8.251   4.992   9.620  1.1662 -1.8609  0.4771
 1005MOL0     H38677   8.364   5.177   9.535 -1.3453 -3.6107 -0.3364
 1005MOL0     H38678   8.522   5.360   9.497  0.6200 -1.4939 -1.1061
 1005MOL0     H38679   8.635   5.462   9.596  1.4862 -2.2405 -0.6989
 1005MOL0     H38680   8.649   5.160   9.553  1.5143 -0.8583  0.4300
 1005MOL0     H38681   8.705   5.237   9.700  0.0780  1.1186  0.7635
 1005MOL0     H38682   8.848   5.395   9.566 -2.5978  0.2758  1.6905
 1005MOL0     H38683   8.890   5.231   9.521 -0.5814 -1.1081  0.3496
 1005MOL0     H38684   8.698   5.267   9.336  2.2254 -0.7202 -2.7371
 1005MOL0     H38685   8.876   5.285   9.312  2.9157  2.5654  2.0594
 1005MOL0     H38686   8.692   5.673   9.261 -0.4533 -0.9150 -2.9546
 1005MOL0     H38687   8.417   5.325   9.934 -0.2599 -0.9549  0.9181
 1005MOL0     H38688   8.356   5.011  10.095 -0.9748 -0.3281  0.7052
 1005MOL0     H38689   8.344   5.188  10.129 -2.0030  0.6895  0.1196
 1005MOL0     H38690   8.199   5.095  10.099  0.0463  1.9391 -0.0707
 1006MOL0     O38691   2.183   2.875   0.197  0.2607 -0.4703 -0.0177
 1006MOL0     C38692   2.085   2.807   0.199  0.9014  1.1496  0.2926
 1006MOL0     O38693   2.057   2.698   0.280 -0.2728 -0.2291  0.2667
 1006MOL0     C38694   2.168   2.628   0.325  0.2148  0.1987 -0.0155
 1006MOL0     C38695   2.188   2.495   0.286  0.6408  0.2442 -0.7694
 1006MOL0     C38696   2.294   2.420   0.336 -0.2817 -0.3092  0.9141
 1006MOL0     C38697   2.385   2.471   0.429  0.1392 -0.3913  0.5720
 1006MOL0     O38698   2.484   2.400   0.488 -0.4123  0.7956  0.0024
 1006MOL0     C38699   2.553   2.301   0.409  0.1137 -0.9328  0.6217
 1006MOL0     C38700   2.691   2.293   0.468 -1.0779 -0.8566  0.1575
 1006MOL0     C38701   2.764   2.423   0.413  0.2437  0.7028  0.2638
 1006MOL0     C38702   2.909   2.436   0.453  0.3011 -0.0581 -0.1134
 1006MOL0     C38703   2.963   2.551   0.371  0.7602 -0.0414  0.2525
 1006MOL0     C38704   3.117   2.554   0.385  0.7082 -0.6852  0.5116
 1006MOL0     C38705   3.193   2.668   0.307  0.1975 -0.9056 -0.1217
 1006MOL0     C38706   3.179   2.815   0.361  0.5653  0.1303 -0.7475
 1006MOL0     N38707   3.241   2.919   0.285  1.0999 -0.5306  0.3446
 1006MOL0     C38708   3.373   2.940   0.268 -1.3129  0.4906  0.5226
 1006MOL0     C38709   3.370   3.062   0.202 -0.3511 -0.0434  0.0751
 1006MOL0     C38710   3.493   3.141   0.174  0.6100 -1.1878  0.3688
 1006MOL0     C38711   3.577   3.052   0.084  0.8955  0.5828  0.0888
 1006MOL0     C38712   3.709   3.129   0.065 -0.0653 -0.0272 -0.7773
 1006MOL0     C38713   3.807   3.041  -0.010  0.3490  0.9462  0.5873
 1006MOL0     O38714   3.750   3.016  -0.140  0.8972 -0.7694  0.0560
 1006MOL0     C38715   3.840   2.986  -0.236  0.6463 -0.5249  0.0566
 1006MOL0     C38716   3.799   3.004  -0.371  0.5089 -0.5602 -0.8820
 1006MOL0     C38717   3.886   2.981  -0.474 -0.3109  0.0042  0.4871
 1006MOL0     C38718   3.843   3.011  -0.611 -0.0147  0.7674 -0.1940
 1006MOL0     C38719   4.020   2.936  -0.444 -0.9499 -0.0604 -0.1160
 1006MOL0     C38720   4.131   2.904  -0.539  0.1963  1.0110 -0.0928
 1006MOL0     O38721   4.256   2.887  -0.496  0.7573  0.0782 -0.6180
 1006MOL0     C38722   4.366   2.907  -0.581  0.3000 -0.0919  0.2798
 1006MOL0     C38723   4.369   2.973  -0.708  0.5708  0.2808  0.7162
 1006MOL0     C38724   4.485   2.987  -0.784  0.2355 -0.1388 -0.2258
 1006MOL0     C38725   4.610   2.956  -0.716  0.3518 -0.0295  0.8032
 1006MOL0     O38726   4.716   2.984  -0.802  0.7537 -0.3411  0.8203
 1006MOL0     C38727   4.831   2.912  -0.773  0.2164 -0.0753 -0.7352
 1006MOL0     C38728   4.947   2.947  -0.865 -0.3698 -0.2615  0.3199
 1006MOL0     C38729   5.070   2.853  -0.851  0.6049  0.2193  0.9314
 1006MOL0     C38730   5.186   2.907  -0.758  0.4090  0.1418 -0.1301
 1006MOL0     C38731   5.163   2.963  -0.620  0.3440  0.1111 -0.4338
 1006MOL0     C38732   5.292   2.960  -0.525 -0.9205 -0.0553 -0.3468
 1006MOL0     C38733   5.289   3.060  -0.400 -0.0585 -0.1774  0.8801
 1006MOL0     C38734   5.324   2.986  -0.269  0.4964  0.7240 -0.5957
 1006MOL0    Cl38735   5.498   2.934  -0.265 -0.2650  0.3038 -0.1643
 1006MOL0     C38736   4.606   2.891  -0.598 -0.0389  0.6246  0.4207
 1006MOL0     C38737   4.486   2.861  -0.534 -0.1175  1.1563 -0.7107
 1006MOL0     O38738   4.102   2.892  -0.649  0.1778 -0.2054  0.3941
 1006MOL0     C38739   4.056   2.912  -0.311 -1.1959 -0.5578 -0.3860
 1006MOL0     C38740   3.962   2.926  -0.213  0.5127  0.4435  0.3189
 1006MOL0     N38741   3.241   3.100   0.172 -0.4133  0.6673 -0.1910
 1006MOL0     N38742   3.163   3.009   0.223  0.4328 -0.0649  0.7397
 1006MOL0     C38743   2.363   2.598   0.476  0.6134  0.3937 -0.3782
 1006MOL0     C38744   2.257   2.671   0.421  0.3265  0.0163  0.7200
 1006MOL0     C38745   1.970   2.866   0.128 -0.6446  0.3417 -0.9545
 1006MOL0     C38746   1.933   2.993   0.174  0.1367 -0.3225 -0.3188
 1006MOL0     C38747   1.814   3.048   0.121 -0.6355 -0.6125 -0.0994
 1006MOL0     C38748   1.737   2.979   0.018 -1.0845 -0.1746 -0.4174
 1006MOL0     O38749   1.618   3.021  -0.043 -0.3275  0.1662 -0.8408
 1006MOL0     C38750   1.559   3.148   0.006 -1.4862 -0.0256 -0.0860
 1006MOL0     C38751   1.441   3.183  -0.082 -0.6840  0.3111 -0.6085
 1006MOL0     C38752   1.353   3.286  -0.006 -0.7392  0.3388  0.0468
 1006MOL0     C38753   1.232   3.327  -0.084 -0.7557  0.0961 -0.0497
 1006MOL0     C38754   1.158   3.429  -0.004 -0.0610 -0.0761 -1.0533
 1006MOL0     C38755   1.143   3.520   0.078  0.2420 -0.4398 -0.7380
 1006MOL0     C38756   1.789   2.860  -0.023  0.2045  0.1784  0.8662
 1006MOL0     C38757   1.908   2.800   0.021 -0.0128 -0.6815  0.0034
 1006MOL0     C38758   1.956   2.680  -0.049  0.2180 -0.1278  0.4218
 1006MOL0     H38759   2.124   2.456   0.207  0.5561  2.1078 -1.6698
 1006MOL0     H38760   2.298   2.318   0.300  0.8889  0.4627 -1.3880
 1006MOL0     H38761   2.562   2.330   0.304  4.1928 -0.9753  0.7793
 1006MOL0     H38762   2.501   2.206   0.414 -1.3452 -0.3657 -2.0448
 1006MOL0     H38763   2.687   2.284   0.577  0.5166  0.7576  0.4005
 1006MOL0     H38764   2.745   2.206   0.429 -1.5156  0.4289 -3.7799
 1006MOL0     H38765   2.756   2.415   0.305  2.0079  0.1931  0.1568
 1006MOL0     H38766   2.716   2.517   0.444 -1.5241  0.3200 -1.1516
 1006MOL0     H38767   2.925   2.446   0.560  2.4868 -1.7774 -0.2052
 1006MOL0     H38768   2.969   2.349   0.425  0.3218  0.1101 -0.6015
 1006MOL0     H38769   2.918   2.646   0.403 -1.1758 -1.7060  2.9411
 1006MOL0     H38770   2.923   2.531   0.271 -2.4775 -2.5472  1.8454
 1006MOL0     H38771   3.121   2.568   0.494 -2.4393  5.0500  0.2500
 1006MOL0     H38772   3.159   2.461   0.345 -0.3203 -0.3140 -1.5159
 1006MOL0     H38773   3.152   2.676   0.207  0.1584 -0.3540 -0.0628
 1006MOL0     H38774   3.298   2.638   0.295  0.0009 -0.9861 -1.8038
 1006MOL0     H38775   3.072   2.833   0.372  0.3710 -0.1114 -2.0903
 1006MOL0     H38776   3.224   2.827   0.460  0.1780  1.3357 -0.7004
 1006MOL0     H38777   3.456   2.877   0.297 -1.2071 -0.5159 -1.7292
 1006MOL0     H38778   3.540   3.146   0.273  0.1271 -1.4637  0.6160
 1006MOL0     H38779   3.463   3.240   0.139  1.1807  0.0576  3.1592
 1006MOL0     H38780   3.592   2.949   0.116  0.1798 -0.7430 -3.4305
 1006MOL0     H38781   3.520   3.048  -0.009  0.7613  0.5980  0.1702
 1006MOL0     H38782   3.674   3.222   0.020 -0.1858  1.4791  2.2110
 1006MOL0     H38783   3.755   3.153   0.162 -0.4092 -0.9866 -0.3630
 1006MOL0     H38784   3.909   3.082  -0.008  0.4117  0.7803  1.0120
 1006MOL0     H38785   3.808   2.939   0.031 -1.9394 -0.2288 -1.9676
 1006MOL0     H38786   3.696   3.031  -0.392 -0.3726 -1.4847  1.8217
 1006MOL0     H38787   3.814   2.919  -0.662  1.2094 -0.6572  1.5738
 1006MOL0     H38788   3.926   3.065  -0.657  0.2247  1.2242  0.7382
 1006MOL0     H38789   3.748   3.065  -0.608 -1.9434 -2.3824 -0.4439
 1006MOL0     H38790   4.282   3.022  -0.750  0.2824 -1.4273 -0.8542
 1006MOL0     H38791   4.487   3.036  -0.880  0.4251 -2.1798 -1.3243
 1006MOL0     H38792   4.870   2.936  -0.673  1.0704  3.9031 -1.8267
 1006MOL0     H38793   4.806   2.806  -0.776 -1.3199  0.1523  1.3138
 1006MOL0     H38794   4.912   2.949  -0.969  0.1427  1.9743  0.1485
 1006MOL0     H38795   4.984   3.049  -0.853  0.0916 -0.4328  0.3747
 1006MOL0     H38796   5.105   2.824  -0.950  0.4052 -0.3944  1.0390
 1006MOL0     H38797   5.031   2.764  -0.801 -0.3032 -0.4482 -0.8892
 1006MOL0     H38798   5.237   2.991  -0.807 -1.5174  2.7380  2.0067
 1006MOL0     H38799   5.259   2.826  -0.748 -1.2822 -1.2785  1.3402
 1006MOL0     H38800   5.132   3.067  -0.631  0.3159 -0.1259 -3.0070
 1006MOL0     H38801   5.087   2.904  -0.568  0.6945 -0.1066 -0.1624
 1006MOL0     H38802   5.382   2.986  -0.581  2.2638 -2.4934  3.1813
 1006MOL0     H38803   5.308   2.858  -0.491 -0.5121 -0.1203 -0.7357
 1006MOL0     H38804   5.187   3.098  -0.387  0.9455  2.4465  1.7731
 1006MOL0     H38805   5.356   3.145  -0.412  1.0880 -0.7544  2.8430
 1006MOL0     H38806   5.261   2.897  -0.256  1.4521  0.2790  1.2632
 1006MOL0     H38807   5.307   3.053  -0.185 -0.6093 -2.4383  1.9179
 1006MOL0     H38808   4.696   2.867  -0.542 -0.5263  1.6393  1.6906
 1006MOL0     H38809   4.494   2.801  -0.444  1.9695  1.4418 -0.6544
 1006MOL0     H38810   4.154   2.871  -0.289 -1.7847 -0.2149  3.7152
 1006MOL0     H38811   3.988   2.893  -0.113 -2.1734 -0.1635  0.9161
 1006MOL0     H38812   2.439   2.643   0.540 -0.0036  0.8104  0.0789
 1006MOL0     H38813   2.246   2.774   0.454 -0.2411  0.2233 -0.0847
 1006MOL0     H38814   1.987   3.044   0.252  1.6307  0.7690 -2.0148
 1006MOL0     H38815   1.781   3.143   0.163 -0.5964 -0.9672  0.7520
 1006MOL0     H38816   1.546   3.133   0.114  2.1684  1.5460  0.7269
 1006MOL0     H38817   1.636   3.222  -0.015 -0.6756 -1.4581 -2.6180
 1006MOL0     H38818   1.386   3.095  -0.115  3.2145 -2.4188 -0.5656
 1006MOL0     H38819   1.479   3.237  -0.170 -3.3602  2.9250 -0.3133
 1006MOL0     H38820   1.307   3.236   0.080  0.8013  3.0712  2.6612
 1006MOL0     H38821   1.405   3.373   0.036  0.9198 -1.7355  2.5823
 1006MOL0     H38822   1.155   3.252  -0.103  0.4526 -1.1128 -0.3437
 1006MOL0     H38823   1.256   3.367  -0.183  2.7066 -0.5544  0.3972
 1006MOL0     H38824   1.122   3.607   0.137  0.2507 -0.3486 -0.8706
 1006MOL0     H38825   1.724   2.820  -0.100 -3.2394  2.6605  2.1910
 1006MOL0     H38826   1.885   2.638  -0.121  2.5593 -0.0276 -2.0711
 1006MOL0     H38827   2.049   2.703  -0.102  1.1361  2.6893  2.9530
 1006MOL0     H38828   1.968   2.602   0.026 -2.7460 -1.7739 -0.6365
 1007MOL0     O38829   6.279   7.947   4.417 -0.5204 -0.7085 -0.1105
 1007MOL0     C38830   6.284   7.955   4.295  0.8003 -0.5857 -0.6696
 1007MOL0     O38831   6.236   7.858   4.203  0.9047  0.1205  0.3333
 1007MOL0     C38832   6.190   7.736   4.252 -0.6543 -0.5695 -0.0485
 1007MOL0     C38833   6.282   7.658   4.330  0.5173  0.3061  0.1218
 1007MOL0     C38834   6.247   7.527   4.377  0.2840  0.6680  0.5258
 1007MOL0     C38835   6.118   7.481   4.340  0.1657  0.1936  0.1989
 1007MOL0     O38836   6.066   7.362   4.382 -0.0710 -0.3260  0.1747
 1007MOL0     C38837   6.147   7.274   4.457  1.1773 -0.0059 -0.0037
 1007MOL0     C38838   6.104   7.132   4.456  0.4198  0.1494 -0.2413
 1007MOL0     C38839   6.128   7.053   4.327 -0.7228  0.1646  0.5172
 1007MOL0     C38840   6.063   6.912   4.332 -0.7936 -0.3719  0.0807
 1007MOL0     C38841   6.056   6.842   4.196 -0.8023 -0.4020 -0.5729
 1007MOL0     C38842   5.975   6.921   4.090 -0.5030  0.2728 -0.2575
 1007MOL0     C38843   5.965   6.829   3.962 -0.6480 -0.5133  0.6572
 1007MOL0     C38844   5.901   6.902   3.846 -0.4756  1.1038 -0.9947
 1007MOL0     N38845   5.909   6.812   3.726 -0.3996 -0.2830 -0.1299
 1007MOL0     C38846   5.811   6.728   3.679  0.2855  0.2668  0.1744
 1007MOL0     C38847   5.858   6.677   3.563 -0.5547 -0.0816  0.9080
 1007MOL0     C38848   5.777   6.595   3.464 -0.0610  0.8523 -0.7940
 1007MOL0     C38849   5.718   6.469   3.525 -0.4610  0.1992 -0.2836
 1007MOL0     C38850   5.691   6.364   3.420  0.2589  0.2798 -0.4199
 1007MOL0     C38851   5.654   6.223   3.458  0.3124 -0.1300  0.3073
 1007MOL0     O38852   5.514   6.220   3.501 -0.2535 -0.0386  0.8417
 1007MOL0     C38853   5.443   6.098   3.511 -0.5859 -0.5950  0.0326
 1007MOL0     C38854   5.507   5.975   3.537  0.1549  0.0501  0.3685
 1007MOL0     C38855   5.439   5.854   3.538  1.2654  1.1012 -0.4259
 1007MOL0     C38856   5.515   5.722   3.560  0.2609 -0.6836 -0.1944
 1007MOL0     C38857   5.297   5.857   3.505  0.3497  1.0942  0.3328
 1007MOL0     C38858   5.215   5.733   3.486  0.6362  0.3972  0.5694
 1007MOL0     O38859   5.082   5.738   3.507  0.2972  0.5342  0.5285
 1007MOL0     C38860   4.994   5.649   3.443 -0.1697 -0.3368  0.7746
 1007MOL0     C38861   5.014   5.516   3.412  0.4979  0.4215 -0.2353
 1007MOL0     C38862   4.922   5.445   3.328 -0.2342  0.8367 -0.1414
 1007MOL0     C38863   4.801   5.506   3.281 -0.9195  1.1155  0.5247
 1007MOL0     O38864   4.713   5.446   3.195 -0.0275  0.1845 -0.6061
 1007MOL0     C38865   4.691   5.305   3.209  0.4195  0.0722  0.0468
 1007MOL0     C38866   4.554   5.267   3.186 -0.2269  0.6621 -0.2125
 1007MOL0     C38867   4.453   5.345   3.270  0.3235 -0.0787 -0.5487
 1007MOL0     C38868   4.302   5.326   3.225  0.2885 -0.5854  0.8203
 1007MOL0     C38869   4.208   5.423   3.299  0.2547  0.4153  0.1013
 1007MOL0     C38870   4.204   5.434   3.456  0.0466 -0.0654 -0.1917
 1007MOL0     C38871   4.196   5.574   3.508  0.3054 -0.6951 -0.3866
 1007MOL0     C38872   4.321   5.659   3.500 -0.5127 -0.0365  0.1991
 1007MOL0    Cl38873   4.481   5.583   3.563 -0.1348 -0.3188 -0.1230
 1007MOL0     C38874   4.776   5.639   3.308  0.4721 -0.5422 -0.5665
 1007MOL0     C38875   4.870   5.709   3.396 -0.6359 -0.1273  0.1564
 1007MOL0     O38876   5.274   5.645   3.432  0.0120 -0.7517 -0.3711
 1007MOL0     C38877   5.236   5.984   3.504 -0.1545  0.5547 -1.0467
 1007MOL0     C38878   5.306   6.100   3.509 -0.3777 -0.0224 -0.3331
 1007MOL0     N38879   5.979   6.735   3.536 -0.5553  0.3240  0.7136
 1007MOL0     N38880   6.009   6.812   3.629  0.0479  0.1297 -0.0566
 1007MOL0     C38881   6.030   7.555   4.253  0.3137 -0.5231  0.1218
 1007MOL0     C38882   6.063   7.685   4.210  0.1024 -0.1047 -0.4967
 1007MOL0     C38883   6.343   8.081   4.238  0.1819 -0.6054  0.1277
 1007MOL0     C38884   6.353   8.096   4.098 -0.8632  0.6648  0.2975
 1007MOL0     C38885   6.407   8.209   4.043  0.0054 -0.2173 -0.4817
 1007MOL0     C38886   6.444   8.322   4.117  0.6242  0.1221  0.0238
 1007MOL0     O38887   6.497   8.432   4.058  0.2232 -0.0165  0.5029
 1007MOL0     C38888   6.596   8.518   4.113 -0.4065  0.0793  0.6104
 1007MOL0     C38889   6.659   8.591   3.992  0.7549 -0.1263  0.9848
 1007MOL0     C38890   6.773   8.689   4.013 -0.6071 -0.7368  0.5544
 1007MOL0     C38891   6.920   8.624   4.033  1.0617  0.1810 -0.1630
 1007MOL0     C38892   7.020   8.733   4.039 -0.3088 -0.2878  0.1352
 1007MOL0     C38893   7.108   8.810   4.071 -0.2187 -0.3405  0.1600
 1007MOL0     C38894   6.435   8.314   4.255 -0.3731  0.1892  0.0176
 1007MOL0     C38895   6.378   8.196   4.315 -1.0623  0.3995 -0.0760
 1007MOL0     C38896   6.364   8.203   4.460 -0.1365  0.3678 -0.3619
 1007MOL0     H38897   6.381   7.692   4.357  0.9935 -0.3639 -0.7631
 1007MOL0     H38898   6.324   7.471   4.429  0.8659  0.3679 -0.6275
 1007MOL0     H38899   6.148   7.310   4.560 -1.1922 -0.8747  0.3692
 1007MOL0     H38900   6.252   7.263   4.426  1.2440 -2.3507  0.8130
 1007MOL0     H38901   6.153   7.091   4.544  3.0551  1.1645 -1.1344
 1007MOL0     H38902   5.999   7.129   4.486  0.1609  1.9323 -0.8628
 1007MOL0     H38903   6.083   7.118   4.251  2.9644  1.3517 -0.8422
 1007MOL0     H38904   6.236   7.041   4.314 -0.8209 -0.8618  0.5734
 1007MOL0     H38905   6.119   6.849   4.402 -1.8422 -2.6465 -1.0294
 1007MOL0     H38906   5.958   6.916   4.363 -0.9834 -2.3124 -0.1971
 1007MOL0     H38907   6.015   6.740   4.198  0.4669 -0.9226  0.8859
 1007MOL0     H38908   6.157   6.826   4.158 -1.3757  1.2218 -3.0205
 1007MOL0     H38909   5.876   6.937   4.132 -0.7801  0.5942 -1.0173
 1007MOL0     H38910   6.017   7.021   4.073  0.9864 -0.3001 -0.1209
 1007MOL0     H38911   5.900   6.743   3.978  0.4975 -2.3273 -3.2838
 1007MOL0     H38912   6.068   6.814   3.927 -0.3245  1.2821  0.7386
 1007MOL0     H38913   5.798   6.934   3.862 -1.5498 -0.9944 -3.0913
 1007MOL0     H38914   5.965   6.986   3.819  1.8120 -0.1697  0.1821
 1007MOL0     H38915   5.713   6.709   3.721  0.0105  0.2867 -0.4456
 1007MOL0     H38916   5.834   6.571   3.374  0.7680  0.0171 -0.0668
 1007MOL0     H38917   5.694   6.662   3.438 -3.4290 -2.5954  0.0594
 1007MOL0     H38918   5.790   6.419   3.590  0.5098 -0.7121 -1.9911
 1007MOL0     H38919   5.632   6.498   3.587  1.2108  0.1286  2.1925
 1007MOL0     H38920   5.614   6.403   3.353 -0.7251  0.2720  0.6862
 1007MOL0     H38921   5.785   6.360   3.364 -0.2051  0.3899 -1.2375
 1007MOL0     H38922   5.673   6.152   3.377 -2.4320 -2.2291  1.3258
 1007MOL0     H38923   5.720   6.195   3.541 -0.0408 -2.1977 -0.0408
 1007MOL0     H38924   5.614   5.987   3.550  0.1979  2.3649 -1.3964
 1007MOL0     H38925   5.559   5.685   3.467  4.8736  1.8623  0.7046
 1007MOL0     H38926   5.455   5.643   3.607  1.6354 -2.9377 -2.0146
 1007MOL0     H38927   5.598   5.746   3.627  0.2368 -1.7803  0.2616
 1007MOL0     H38928   5.079   5.453   3.470 -0.2954 -0.8178 -0.6613
 1007MOL0     H38929   4.922   5.336   3.326  1.3426  0.7420  1.5097
 1007MOL0     H38930   4.753   5.265   3.128  1.9680  1.1892  0.6427
 1007MOL0     H38931   4.720   5.267   3.308 -2.0166 -1.5637  0.2474
 1007MOL0     H38932   4.527   5.288   3.082 -0.3937  2.4393  0.1657
 1007MOL0     H38933   4.543   5.161   3.212  1.1215  1.2527  3.4145
 1007MOL0     H38934   4.470   5.453   3.260  0.2262  0.1727  1.5428
 1007MOL0     H38935   4.460   5.308   3.372  0.7166 -0.0486 -0.5641
 1007MOL0     H38936   4.273   5.222   3.243  1.6448 -0.8946  1.3751
 1007MOL0     H38937   4.292   5.340   3.118 -2.6521  2.1521  1.3123
 1007MOL0     H38938   4.215   5.524   3.257  1.3610 -0.7968 -2.9002
 1007MOL0     H38939   4.114   5.391   3.251  0.6986 -1.8965  0.6458
 1007MOL0     H38940   4.291   5.383   3.500 -0.8675 -2.0151 -0.5268
 1007MOL0     H38941   4.112   5.385   3.490 -1.9961  2.3167 -1.9818
 1007MOL0     H38942   4.183   5.556   3.615 -0.6483  2.7676  0.2013
 1007MOL0     H38943   4.116   5.629   3.458 -0.1893 -0.9689  0.0927
 1007MOL0     H38944   4.309   5.749   3.561  1.7974 -0.9605  2.1990
 1007MOL0     H38945   4.333   5.679   3.393  1.7156 -0.7641  0.2486
 1007MOL0     H38946   4.688   5.692   3.273  0.2211 -1.2265 -0.9805
 1007MOL0     H38947   4.851   5.815   3.413 -0.2213 -0.3548  2.3731
 1007MOL0     H38948   5.129   6.000   3.498 -0.0146  2.1382  0.0649
 1007MOL0     H38949   5.256   6.196   3.508 -1.9594 -0.8176 -0.9427
 1007MOL0     H38950   5.935   7.513   4.222  0.0910 -0.2393  0.4136
 1007MOL0     H38951   6.008   7.751   4.144  1.8262  2.0055  0.0287
 1007MOL0     H38952   6.339   8.015   4.027  0.7299 -0.2073  0.9329
 1007MOL0     H38953   6.427   8.202   3.937 -0.9238 -3.2708 -0.5367
 1007MOL0     H38954   6.549   8.587   4.184  3.4696  2.4228  1.1483
 1007MOL0     H38955   6.669   8.453   4.162 -0.2543 -0.2851 -0.0910
 1007MOL0     H38956   6.577   8.646   3.945  0.4003  0.9653  2.7959
 1007MOL0     H38957   6.695   8.525   3.913 -0.1907 -0.9343  1.1966
 1007MOL0     H38958   6.778   8.751   3.923  1.2107 -2.3207 -0.5316
 1007MOL0     H38959   6.752   8.735   4.109  2.4482 -3.1132  2.5991
 1007MOL0     H38960   6.947   8.542   3.967  0.6710 -1.7522  1.9336
 1007MOL0     H38961   6.928   8.573   4.130  3.8101 -0.6832 -0.7561
 1007MOL0     H38962   7.186   8.872   4.110 -0.5994  1.5914 -1.9551
 1007MOL0     H38963   6.473   8.397   4.314 -1.4192  1.9448 -1.6714
 1007MOL0     H38964   6.261   8.204   4.497  0.5904  2.8617  1.9359
 1007MOL0     H38965   6.415   8.118   4.505  3.3608  1.3300 -2.1493
 1007MOL0     H38966   6.420   8.286   4.504 -0.2048 -0.4607  1.4023
 1008MOL0     O38967   0.454   6.790   7.118  0.1827 -0.2989 -0.9460
 1008MOL0     C38968   0.507   6.723   7.030 -0.3552  0.3819  0.4472
 1008MOL0     O38969   0.632   6.741   6.982  0.8391 -0.3488  0.0594
 1008MOL0     C38970   0.731   6.805   7.053 -0.2609 -0.0551 -0.7056
 1008MOL0     C38971   0.828   6.880   6.979  0.0671 -0.2942 -0.2956
 1008MOL0     C38972   0.932   6.938   7.057  0.2813  0.3029  0.4522
 1008MOL0     C38973   0.934   6.921   7.194  0.5368 -0.6980 -0.2796
 1008MOL0     O38974   1.025   6.970   7.283  0.7199  0.2954  0.0982
 1008MOL0     C38975   1.135   7.054   7.234  0.7036  0.3336  0.6392
 1008MOL0     C38976   1.253   6.963   7.191 -0.6010  0.3121  0.7162
 1008MOL0     C38977   1.286   6.872   7.307  0.8299  0.0821  0.5131
 1008MOL0     C38978   1.410   6.779   7.275 -1.0565 -0.5395  0.1903
 1008MOL0     C38979   1.474   6.696   7.387 -0.3081  0.3365 -0.4386
 1008MOL0     C38980   1.579   6.596   7.334  0.2942 -0.1709  1.2183
 1008MOL0     C38981   1.654   6.515   7.439  0.6978 -0.4538  0.0123
 1008MOL0     C38982   1.803   6.501   7.429 -0.7878 -0.0935 -0.6169
 1008MOL0     N38983   1.861   6.412   7.532  0.4210 -0.2564  0.9688
 1008MOL0     C38984   1.964   6.449   7.620 -0.5500  0.0426  0.3748
 1008MOL0     C38985   2.017   6.323   7.648  0.5393 -0.2059 -0.0462
 1008MOL0     C38986   2.112   6.292   7.751 -0.1013  0.8361  0.2981
 1008MOL0     C38987   2.244   6.227   7.706  0.1581 -0.6193  0.5180
 1008MOL0     C38988   2.338   6.211   7.819 -0.6579  0.5887 -0.6341
 1008MOL0     C38989   2.416   6.336   7.844 -0.6380  0.1767 -0.4924
 1008MOL0     O38990   2.545   6.295   7.886 -0.2956 -0.3730 -0.4243
 1008MOL0     C38991   2.637   6.402   7.910 -0.6009  1.1038 -0.4723
 1008MOL0     C38992   2.608   6.534   7.908  0.6689 -0.5724  0.0592
 1008MOL0     C38993   2.705   6.625   7.963 -0.5085  0.6084 -0.7408
 1008MOL0     C38994   2.662   6.772   7.984  0.1719 -0.4418  0.0047
 1008MOL0     C38995   2.844   6.580   7.994  0.4008  0.8523  0.0742
 1008MOL0     C38996   2.954   6.669   8.028  0.3826  0.4152 -0.1783
 1008MOL0     O38997   3.069   6.609   8.057 -0.4185 -0.2570 -0.0143
 1008MOL0     C38998   3.199   6.661   8.067 -0.1716  0.7542  0.7003
 1008MOL0     C38999   3.296   6.575   8.125  0.0621  0.5949  0.7691
 1008MOL0     C39000   3.429   6.619   8.140 -0.8360  0.1828 -0.4139
 1008MOL0     C39001   3.465   6.738   8.081  0.0198 -1.1984  0.0436
 1008MOL0     O39002   3.591   6.783   8.105  0.5768  0.5483 -0.4713
 1008MOL0     C39003   3.669   6.789   7.986 -0.2349 -0.1143 -0.0074
 1008MOL0     C39004   3.803   6.841   8.027 -1.2091 -0.3181  0.7825
 1008MOL0     C39005   3.891   6.879   7.905  0.0174 -0.9035 -0.3245
 1008MOL0     C39006   3.983   6.768   7.867 -0.1483 -0.0842 -0.4624
 1008MOL0     C39007   4.093   6.821   7.769 -0.2492  0.5586 -1.6056
 1008MOL0     C39008   4.181   6.701   7.729  0.7155  0.3933  0.4664
 1008MOL0     C39009   4.303   6.755   7.665 -0.3609  0.0347  0.4490
 1008MOL0     C39010   4.390   6.641   7.603 -0.3828  0.7285  0.4866
 1008MOL0    Cl39011   4.456   6.511   7.708  0.5840  0.3521  0.1018
 1008MOL0     C39012   3.375   6.817   7.998  0.4227  0.8571 -0.2340
 1008MOL0     C39013   3.241   6.779   7.995  0.2074  1.1524 -0.0637
 1008MOL0     O39014   2.935   6.795   8.031 -0.2062 -0.5240 -0.5181
 1008MOL0     C39015   2.869   6.443   7.994  0.2640 -0.4192 -0.0827
 1008MOL0     C39016   2.770   6.361   7.952 -0.6781  0.6575  0.6506
 1008MOL0     N39017   1.953   6.217   7.587  0.1638  1.0110  0.3227
 1008MOL0     N39018   1.863   6.273   7.513 -0.0339  0.1016 -1.0124
 1008MOL0     C39019   0.842   6.845   7.260 -0.5538  0.1716 -0.0759
 1008MOL0     C39020   0.746   6.777   7.187  0.2212 -0.0920 -0.5774
 1008MOL0     C39021   0.426   6.605   6.973  0.3457 -1.0574 -0.2405
 1008MOL0     C39022   0.487   6.533   6.867  0.0282 -0.2233 -0.7336
 1008MOL0     C39023   0.444   6.410   6.821  0.8137  0.2077  0.3440
 1008MOL0     C39024   0.331   6.358   6.878  0.0769  0.1913  0.3695
 1008MOL0     O39025   0.286   6.238   6.827  0.5964 -1.0050 -0.8854
 1008MOL0     C39026   0.302   6.123   6.915 -1.0803 -0.0125 -0.5124
 1008MOL0     C39027   0.440   6.069   6.921  0.0549  0.7140 -0.1111
 1008MOL0     C39028   0.478   5.971   6.803 -0.0877  0.1768  0.3398
 1008MOL0     C39029   0.625   5.930   6.809 -0.0577  0.1725 -0.2021
 1008MOL0     C39030   0.662   5.856   6.933  0.3579  0.3987 -0.6517
 1008MOL0     C39031   0.702   5.814   7.041 -0.6173  1.2988  0.6083
 1008MOL0     C39032   0.255   6.426   6.967 -0.2733 -0.1804 -0.1787
 1008MOL0     C39033   0.308   6.552   7.020 -0.8529 -0.1341 -0.1163
 1008MOL0     C39034   0.209   6.618   7.116 -0.3676  0.7719  0.2018
 1008MOL0     H39035   0.805   6.900   6.874 -0.7098 -2.0106 -0.4813
 1008MOL0     H39036   0.996   7.009   7.006 -2.1473  1.4002 -1.2319
 1008MOL0     H39037   1.175   7.122   7.310  1.2012  2.5175 -1.4671
 1008MOL0     H39038   1.108   7.115   7.148 -2.2999  0.5220  1.5975
 1008MOL0     H39039   1.231   6.905   7.100 -3.5729  0.4328  1.2495
 1008MOL0     H39040   1.340   7.022   7.161  0.4812 -2.1465 -1.3521
 1008MOL0     H39041   1.311   6.922   7.401  1.1862 -0.4175  0.6860
 1008MOL0     H39042   1.201   6.805   7.322  1.3683 -1.1424 -1.4596
 1008MOL0     H39043   1.370   6.705   7.205 -2.7298 -1.6680  2.2387
 1008MOL0     H39044   1.483   6.843   7.223 -0.8641 -0.4152  0.6080
 1008MOL0     H39045   1.392   6.633   7.425  0.6713 -1.4395 -1.1386
 1008MOL0     H39046   1.518   6.756   7.467  0.2201 -0.9556  0.2617
 1008MOL0     H39047   1.523   6.528   7.269 -1.2017  0.2471  2.0058
 1008MOL0     H39048   1.653   6.664   7.290  0.4995 -0.8610  0.4852
 1008MOL0     H39049   1.616   6.413   7.453  0.7290 -0.0886  3.8099
 1008MOL0     H39050   1.643   6.564   7.536 -0.3514 -0.1582 -0.2452
 1008MOL0     H39051   1.830   6.461   7.330  3.0238  1.3725 -0.3187
 1008MOL0     H39052   1.859   6.594   7.437  1.9629 -1.4029 -2.7242
 1008MOL0     H39053   1.992   6.547   7.659 -1.1144  0.0347  0.8165
 1008MOL0     H39054   2.074   6.229   7.832  0.9055  0.2271  0.3135
 1008MOL0     H39055   2.148   6.388   7.790  4.1525 -0.4859  0.1703
 1008MOL0     H39056   2.227   6.129   7.661  1.0970 -0.0890 -1.0752
 1008MOL0     H39057   2.289   6.290   7.629 -0.5876 -0.5832  0.1040
 1008MOL0     H39058   2.286   6.174   7.908 -1.8307  0.0978 -1.5062
 1008MOL0     H39059   2.405   6.130   7.790  0.1087  1.2850 -0.8279
 1008MOL0     H39060   2.433   6.393   7.752  0.0583  1.5835  0.4781
 1008MOL0     H39061   2.359   6.396   7.916 -1.2383 -0.4150 -0.4531
 1008MOL0     H39062   2.505   6.554   7.880  0.5413 -2.8080 -1.3382
 1008MOL0     H39063   2.690   6.825   8.075 -0.5981  0.6925 -0.3920
 1008MOL0     H39064   2.553   6.776   7.993  0.2092  1.0840 -0.0550
 1008MOL0     H39065   2.680   6.836   7.897  0.2723  2.8815  2.3065
 1008MOL0     H39066   3.261   6.492   8.185  1.5659  1.9146  3.6693
 1008MOL0     H39067   3.513   6.575   8.194 -1.2043  2.1851  1.9781
 1008MOL0     H39068   3.683   6.692   7.937 -0.2528 -0.6022  0.9318
 1008MOL0     H39069   3.627   6.868   7.922  0.6546  2.5338  2.4471
 1008MOL0     H39070   3.782   6.939   8.072 -1.5289  1.1106 -2.2774
 1008MOL0     H39071   3.849   6.762   8.087 -1.2221  0.8197  2.3658
 1008MOL0     H39072   3.947   6.969   7.932 -0.7017 -0.3515 -0.6426
 1008MOL0     H39073   3.824   6.909   7.824 -1.2522 -1.5123  0.4702
 1008MOL0     H39074   3.926   6.699   7.804  0.5812  1.2806 -2.7315
 1008MOL0     H39075   4.026   6.715   7.952 -0.1682 -0.4173 -0.6592
 1008MOL0     H39076   4.056   6.871   7.679  2.5388  1.2409 -2.4741
 1008MOL0     H39077   4.145   6.899   7.825 -2.7855 -0.0427  1.9392
 1008MOL0     H39078   4.125   6.629   7.668 -0.1943  0.9768  0.5916
 1008MOL0     H39079   4.217   6.651   7.819  4.3840  0.6821 -0.7064
 1008MOL0     H39080   4.355   6.810   7.744  0.6404  4.2999 -2.8148
 1008MOL0     H39081   4.291   6.821   7.578  1.9272 -1.5663 -1.2233
 1008MOL0     H39082   4.480   6.683   7.557 -0.9407 -1.2293 -2.6943
 1008MOL0     H39083   4.338   6.591   7.521  2.2488 -0.2924 -0.6539
 1008MOL0     H39084   3.402   6.912   7.954 -1.8292  1.7155  0.1220
 1008MOL0     H39085   3.175   6.826   7.922  0.3160  0.8353 -0.3736
 1008MOL0     H39086   2.963   6.397   8.023  0.1176  0.5002  2.0275
 1008MOL0     H39087   2.795   6.255   7.952 -0.1764  0.7074 -1.9139
 1008MOL0     H39088   0.848   6.829   7.367 -0.8848  3.0848  0.4754
 1008MOL0     H39089   0.688   6.717   7.256  0.1150 -1.5557 -1.8930
 1008MOL0     H39090   0.583   6.571   6.833  1.1518 -0.0237  2.3665
 1008MOL0     H39091   0.501   6.359   6.745  1.3017 -1.1592  1.5931
 1008MOL0     H39092   0.258   6.135   7.014 -0.7242 -1.4732 -0.1638
 1008MOL0     H39093   0.236   6.046   6.873 -0.3917 -0.8163 -0.1388
 1008MOL0     H39094   0.440   6.012   7.015 -3.1866  2.2371  0.9588
 1008MOL0     H39095   0.520   6.144   6.931  1.7310 -0.8080 -1.4776
 1008MOL0     H39096   0.417   5.880   6.809 -1.7517  1.3425  2.6533
 1008MOL0     H39097   0.461   6.012   6.703  2.0471 -2.3732 -1.1962
 1008MOL0     H39098   0.682   6.023   6.801 -2.7239  1.9302 -0.1890
 1008MOL0     H39099   0.632   5.860   6.726  1.1154 -1.4510  1.1807
 1008MOL0     H39100   0.735   5.778   7.136 -1.4465 -2.8903 -0.4748
 1008MOL0     H39101   0.160   6.379   6.993  1.3024 -5.3057 -2.3915
 1008MOL0     H39102   0.176   6.707   7.061  1.1853 -0.4705 -2.9998
 1008MOL0     H39103   0.117   6.561   7.130 -0.1472  0.1744 -0.6704
 1008MOL0     H39104   0.252   6.656   7.209  0.7749  2.5538 -0.9814
 1009MOL0     O39105   4.059   4.648   3.770  0.6713 -0.0096 -0.5773
 1009MOL0     C39106   4.160   4.629   3.701 -1.0786  0.7079 -0.7715
 1009MOL0     O39107   4.171   4.541   3.605 -0.1760 -0.0857  0.3665
 1009MOL0     C39108   4.048   4.476   3.567  0.4379 -0.1792  0.4500
 1009MOL0     C39109   4.008   4.357   3.625  0.3971  1.0434 -0.2284
 1009MOL0     C39110   3.880   4.311   3.590  0.6181  0.3716 -0.5745
 1009MOL0     C39111   3.797   4.351   3.487 -0.4295 -0.6706 -0.4320
 1009MOL0     O39112   3.670   4.317   3.453 -0.1341  1.0037 -0.5826
 1009MOL0     C39113   3.656   4.172   3.440 -0.7683  0.4222  0.2098
 1009MOL0     C39114   3.518   4.122   3.411 -0.1002  0.4910 -0.0064
 1009MOL0     C39115   3.483   4.159   3.264  0.3856 -0.3923 -0.5464
 1009MOL0     C39116   3.341   4.123   3.220  0.3138  0.9285  0.0349
 1009MOL0     C39117   3.318   4.162   3.064  0.4381  0.3197 -0.3013
 1009MOL0     C39118   3.175   4.134   2.997 -0.1453 -0.1066  0.2505
 1009MOL0     C39119   3.058   4.211   3.076  0.2873  0.2383  0.8851
 1009MOL0     C39120   2.927   4.178   2.996 -0.5773 -0.0643 -0.6409
 1009MOL0     N39121   2.811   4.228   3.065  0.6584 -1.5444 -0.8331
 1009MOL0     C39122   2.811   4.351   3.134  0.0831 -0.5152  0.4370
 1009MOL0     C39123   2.691   4.358   3.191 -1.2428 -0.3246  0.8412
 1009MOL0     C39124   2.653   4.474   3.284 -0.1749 -0.0947 -0.3933
 1009MOL0     C39125   2.764   4.496   3.399 -0.0873 -0.5639  0.3563
 1009MOL0     C39126   2.707   4.579   3.518  0.2475 -0.4674 -0.5745
 1009MOL0     C39127   2.810   4.585   3.634 -0.7097  0.3000  0.5350
 1009MOL0     O39128   2.939   4.599   3.566  0.3455  0.0355  0.1106
 1009MOL0     C39129   3.034   4.675   3.642 -0.4502  0.8549  0.1486
 1009MOL0     C39130   3.128   4.758   3.575  0.2551 -0.4408  0.0819
 1009MOL0     C39131   3.217   4.837   3.645 -0.4433 -0.7641 -0.2427
 1009MOL0     C39132   3.310   4.913   3.557  0.4149  0.0862 -0.0384
 1009MOL0     C39133   3.208   4.838   3.783 -0.0710 -0.4590 -0.5819
 1009MOL0     C39134   3.291   4.931   3.864  0.1671  0.6617 -0.7930
 1009MOL0     O39135   3.356   5.044   3.812  0.1632  0.3113  0.0768
 1009MOL0     C39136   3.396   5.133   3.906  0.5702  0.5198  0.1449
 1009MOL0     C39137   3.333   5.254   3.883 -0.0606 -0.6339  0.2235
 1009MOL0     C39138   3.381   5.364   3.947 -0.2165  0.0545 -1.0056
 1009MOL0     C39139   3.483   5.355   4.052  0.1344  0.0190  0.3112
 1009MOL0     O39140   3.534   5.460   4.116 -0.3437  0.3054 -0.0377
 1009MOL0     C39141   3.535   5.591   4.056 -0.7753  0.1571 -0.5074
 1009MOL0     C39142   3.615   5.676   4.158  0.5384  0.0297 -0.2992
 1009MOL0     C39143   3.774   5.647   4.141  0.5315 -0.7586 -0.1542
 1009MOL0     C39144   3.863   5.734   4.237 -0.1361  0.2830 -0.2646
 1009MOL0     C39145   4.013   5.738   4.189 -0.3482 -0.0205 -0.1396
 1009MOL0     C39146   4.104   5.820   4.289 -0.0580 -0.1954  0.0336
 1009MOL0     C39147   4.128   5.966   4.254  0.0782 -0.5363 -0.3754
 1009MOL0     C39148   4.233   6.037   4.339 -0.6932  0.8981 -0.1384
 1009MOL0    Cl39149   4.191   6.059   4.506  0.1064 -0.0945  0.3343
 1009MOL0     C39150   3.530   5.231   4.079  0.2308  0.1832  0.7042
 1009MOL0     C39151   3.495   5.121   4.004  0.4072  0.3310 -0.5081
 1009MOL0     O39152   3.296   4.893   3.983 -0.0276  0.0018  0.4884
 1009MOL0     C39153   3.123   4.754   3.843 -0.3423 -0.3902 -0.5300
 1009MOL0     C39154   3.034   4.678   3.779  0.4041 -0.6821  0.5955
 1009MOL0     N39155   2.623   4.237   3.160 -0.0418  0.5529 -0.0159
 1009MOL0     N39156   2.693   4.160   3.073  0.1896 -0.8796 -0.0800
 1009MOL0     C39157   3.853   4.459   3.409  0.1484  1.0059 -0.1704
 1009MOL0     C39158   3.984   4.519   3.451 -0.3361  0.9185 -0.2963
 1009MOL0     C39159   4.289   4.695   3.745 -0.3004 -0.1213  0.0937
 1009MOL0     C39160   4.382   4.717   3.637 -0.4451 -0.3141  0.2009
 1009MOL0     C39161   4.512   4.778   3.660  0.7282  0.5056  0.6457
 1009MOL0     C39162   4.542   4.821   3.786  0.1529 -0.5529  0.6328
 1009MOL0     O39163   4.664   4.881   3.792 -0.6762 -0.3521  0.5506
 1009MOL0     C39164   4.736   4.848   3.908 -0.0187  0.1078 -0.1546
 1009MOL0     C39165   4.744   4.979   3.994  0.8067 -0.8444 -0.0491
 1009MOL0     C39166   4.818   4.965   4.130 -1.0519 -0.1245 -0.6461
 1009MOL0     C39167   4.851   5.104   4.180 -0.1491 -0.1431  0.1293
 1009MOL0     C39168   4.965   5.161   4.112 -0.4834  0.9423  0.4610
 1009MOL0     C39169   5.056   5.197   4.044 -0.1579 -0.5482 -0.3341
 1009MOL0     C39170   4.451   4.801   3.893  0.5008 -0.3857 -0.6249
 1009MOL0     C39171   4.327   4.749   3.866 -0.1271  0.0269 -1.1530
 1009MOL0     C39172   4.237   4.714   3.982  0.2312  0.2849  0.8396
 1009MOL0     H39173   4.059   4.310   3.709  0.9766 -1.8599 -2.0509
 1009MOL0     H39174   3.842   4.243   3.665  1.5571  0.5056  0.0385
 1009MOL0     H39175   3.686   4.130   3.537 -0.8460  1.6535  0.7965
 1009MOL0     H39176   3.725   4.129   3.368 -1.0341 -0.2566  0.3567
 1009MOL0     H39177   3.497   4.016   3.426  0.5856  0.1159 -1.5254
 1009MOL0     H39178   3.444   4.175   3.472 -1.8488 -1.0351 -0.6996
 1009MOL0     H39179   3.501   4.266   3.255  3.1860 -0.2951  3.4336
 1009MOL0     H39180   3.551   4.102   3.199  1.4776 -1.0017  1.0615
 1009MOL0     H39181   3.337   4.013   3.225  1.9554  0.8809  1.9382
 1009MOL0     H39182   3.264   4.172   3.279 -2.8109 -1.3441 -1.8480
 1009MOL0     H39183   3.401   4.116   3.010  2.3312  1.8150  1.2074
 1009MOL0     H39184   3.325   4.268   3.040 -2.3174 -0.1092 -3.7869
 1009MOL0     H39185   3.178   4.172   2.895  2.1570 -1.2485 -0.1568
 1009MOL0     H39186   3.155   4.027   2.994 -2.8203  0.2149  2.2195
 1009MOL0     H39187   3.075   4.318   3.064  0.3890 -0.0323 -2.2055
 1009MOL0     H39188   3.055   4.174   3.179  2.3520  0.3568  1.0385
 1009MOL0     H39189   2.917   4.239   2.906  1.2856 -0.5940 -1.2578
 1009MOL0     H39190   2.931   4.069   2.985 -2.7880 -0.5625  2.3166
 1009MOL0     H39191   2.892   4.423   3.130 -1.0605  0.7383 -1.2548
 1009MOL0     H39192   2.571   4.440   3.347  1.4731  1.1937  2.6580
 1009MOL0     H39193   2.627   4.566   3.231 -0.6920  0.3437  0.6114
 1009MOL0     H39194   2.795   4.405   3.452  0.4338 -0.5741  0.0429
 1009MOL0     H39195   2.853   4.537   3.350 -0.3533 -1.1882 -0.6816
 1009MOL0     H39196   2.681   4.677   3.476 -1.4923 -0.2338  0.9225
 1009MOL0     H39197   2.613   4.541   3.560 -2.5242  4.2579 -1.7750
 1009MOL0     H39198   2.796   4.668   3.704  1.8642  1.9558 -0.7773
 1009MOL0     H39199   2.804   4.487   3.681  1.0451 -1.0341 -1.7965
 1009MOL0     H39200   3.153   4.748   3.470  1.1451  2.3466 -0.0312
 1009MOL0     H39201   3.295   5.020   3.571 -0.4773 -0.1575  0.9626
 1009MOL0     H39202   3.305   4.894   3.449 -1.4112  0.1115  0.0163
 1009MOL0     H39203   3.411   4.886   3.591  0.6652  0.6688 -0.3104
 1009MOL0     H39204   3.250   5.257   3.813  0.0565 -1.6035  0.0357
 1009MOL0     H39205   3.337   5.460   3.923 -0.9608 -0.7258 -2.9511
 1009MOL0     H39206   3.579   5.586   3.956  1.8533  0.4054  0.5505
 1009MOL0     H39207   3.433   5.626   4.041  0.1845  2.9561 -1.1410
 1009MOL0     H39208   3.598   5.783   4.140  2.5935  0.1062 -2.4010
 1009MOL0     H39209   3.576   5.657   4.258 -0.5647 -1.1114 -0.9311
 1009MOL0     H39210   3.797   5.674   4.037 -2.1439  1.7751 -0.2312
 1009MOL0     H39211   3.789   5.540   4.150 -2.3254 -1.2448 -0.2910
 1009MOL0     H39212   3.853   5.697   4.340 -1.6450  4.0091  1.1273
 1009MOL0     H39213   3.824   5.836   4.241 -0.3487  0.5569 -4.6307
 1009MOL0     H39214   4.043   5.634   4.174  2.0830  0.7595 -1.1621
 1009MOL0     H39215   4.030   5.786   4.092  3.6583 -1.0100 -0.1171
 1009MOL0     H39216   4.200   5.768   4.296 -1.0104 -2.0386  0.0028
 1009MOL0     H39217   4.055   5.821   4.387  0.0325  1.7596  0.1050
 1009MOL0     H39218   4.035   6.022   4.269 -1.1419 -2.4969 -0.3067
 1009MOL0     H39219   4.158   5.972   4.149  1.7394  0.7761  0.1197
 1009MOL0     H39220   4.243   6.137   4.295  2.3699  0.2300 -1.2332
 1009MOL0     H39221   4.334   6.000   4.319 -0.3696  1.9588 -0.5799
 1009MOL0     H39222   3.620   5.237   4.139 -0.4982  0.8752  1.7416
 1009MOL0     H39223   3.549   5.028   4.017  0.8975  1.0222  3.5801
 1009MOL0     H39224   3.113   4.742   3.950 -0.0346 -2.4352 -0.6913
 1009MOL0     H39225   2.961   4.636   3.847  0.1602 -1.4722 -0.1328
 1009MOL0     H39226   3.806   4.501   3.321  0.2517  0.5933 -0.4239
 1009MOL0     H39227   4.028   4.600   3.394  0.2780 -0.2217 -1.4874
 1009MOL0     H39228   4.359   4.693   3.534  0.7059  2.5026 -0.8304
 1009MOL0     H39229   4.590   4.790   3.585  0.5984  2.1479  0.7353
 1009MOL0     H39230   4.692   4.765   3.965 -1.3994 -0.0372 -1.3769
 1009MOL0     H39231   4.835   4.827   3.866  0.9758 -0.5222  2.3156
 1009MOL0     H39232   4.641   5.004   4.022  0.7520 -1.9268  0.7861
 1009MOL0     H39233   4.801   5.051   3.935  2.0257 -1.7648 -0.0398
 1009MOL0     H39234   4.752   4.912   4.199  2.2682 -1.9341  1.4100
 1009MOL0     H39235   4.912   4.909   4.132  1.0976  3.1185  3.0213
 1009MOL0     H39236   4.875   5.103   4.286 -0.2718  0.9555  0.1786
 1009MOL0     H39237   4.763   5.168   4.167  0.5283  0.9371  0.7047
 1009MOL0     H39238   5.138   5.202   3.975 -0.6567  2.9878 -0.8358
 1009MOL0     H39239   4.478   4.835   3.993  0.3243  1.0263 -1.0295
 1009MOL0     H39240   4.279   4.738   4.080  0.4922 -0.3798  0.8923
 1009MOL0     H39241   4.151   4.782   3.981  0.1176  0.1811  2.1579
 1009MOL0     H39242   4.216   4.607   3.987  0.6844  0.1823  0.5826
 1010MOL0     O39243   8.859   3.976   7.385 -0.2045  0.1910  0.1401
 1010MOL0     C39244   8.927   4.080   7.374  0.1696  0.5039  0.3274
 1010MOL0     O39245   9.056   4.073   7.363  0.0880 -0.1867  0.6848
 1010MOL0     C39246   9.130   3.966   7.407 -0.3547 -0.2098  0.5681
 1010MOL0     C39247   9.099   3.868   7.504  0.1277  0.3465  0.1618
 1010MOL0     C39248   9.195   3.770   7.524 -0.3003  0.3795  0.5211
 1010MOL0     C39249   9.316   3.768   7.460  0.0374  0.5302 -0.9897
 1010MOL0     O39250   9.409   3.671   7.496  0.8012  0.5061 -0.1918
 1010MOL0     C39251   9.546   3.716   7.518  0.2238  0.2617  0.0489
 1010MOL0     C39252   9.615   3.598   7.577  0.7943 -1.1959 -0.2216
 1010MOL0     C39253   9.762   3.627   7.598  0.5394  0.2137  0.5359
 1010MOL0     C39254   9.825   3.520   7.694  0.2414 -0.1688  0.1225
 1010MOL0     C39255   9.970   3.532   7.704  0.1692 -0.2088 -0.2714
 1010MOL0     C39256  10.029   3.414   7.782 -0.5606  0.1332  0.1828
 1010MOL0     C39257  10.164   3.378   7.719  0.0496  0.1401 -0.0841
 1010MOL0     C39258  10.155   3.279   7.607 -0.4021  0.6292  0.1134
 1010MOL0     N39259  10.086   3.316   7.484 -0.1781  0.1965  1.3165
 1010MOL0     C39260   9.969   3.267   7.453 -0.5657  0.1893  0.1594
 1010MOL0     C39261   9.932   3.337   7.348 -0.2952  0.4106  0.0026
 1010MOL0     C39262   9.806   3.301   7.280  0.0122 -0.0544  0.3294
 1010MOL0     C39263   9.827   3.223   7.151  0.0643  0.4141  0.7525
 1010MOL0     C39264   9.949   3.260   7.057 -0.5591 -0.0809 -0.5345
 1010MOL0     C39265  10.080   3.176   7.075 -0.2276 -0.8440 -1.2610
 1010MOL0     O39266  10.055   3.036   7.080  0.1960  0.0992 -0.5583
 1010MOL0     C39267  10.161   2.956   7.109 -0.3455 -0.3433  0.3847
 1010MOL0     C39268  10.281   2.993   7.168  0.4685  0.0834  0.1567
 1010MOL0     C39269  10.385   2.896   7.172 -0.0404  0.1185 -0.0659
 1010MOL0     C39270  10.521   2.945   7.232  0.3624  0.0805 -0.1010
 1010MOL0     C39271  10.379   2.764   7.115  0.4642  0.1024  0.4865
 1010MOL0     C39272  10.481   2.663   7.115  0.4033  0.3621  0.3552
 1010MOL0     O39273  10.605   2.682   7.075 -0.0241  0.0152 -0.0027
 1010MOL0     C39274  10.694   2.583   7.023  0.6441  0.2320 -0.2631
 1010MOL0     C39275  10.822   2.629   6.997 -0.6264  0.6526  1.4515
 1010MOL0     C39276  10.924   2.536   6.976  0.3224  0.4206  0.5349
 1010MOL0     C39277  10.894   2.393   6.967 -0.2853 -0.4388 -0.2829
 1010MOL0     O39278  10.991   2.296   6.957 -0.3772  0.4855 -0.2415
 1010MOL0     C39279  11.128   2.332   6.993 -0.6067  0.0455 -0.6777
 1010MOL0     C39280  11.221   2.214   7.013  0.4432 -0.2381 -0.1335
 1010MOL0     C39281  11.199   2.139   7.143 -0.6027  0.3113 -0.6590
 1010MOL0     C39282  11.336   2.083   7.208 -0.3101 -0.4872 -0.4382
 1010MOL0     C39283  11.304   2.056   7.364 -0.0642 -0.3978  0.4945
 1010MOL0     C39284  11.430   2.017   7.450 -0.3952 -0.3727  0.0142
 1010MOL0     C39285  11.519   2.134   7.487 -0.5023 -0.6520 -0.0746
 1010MOL0     C39286  11.645   2.103   7.578  0.6515  0.2268 -0.0976
 1010MOL0    Cl39287  11.749   2.244   7.583 -0.3003 -0.1172 -0.1569
 1010MOL0     C39288  10.760   2.351   6.971  0.4580 -0.9701 -0.7098
 1010MOL0     C39289  10.659   2.447   7.002  0.3171  0.0584 -0.7283
 1010MOL0     O39290  10.436   2.557   7.161  0.3608  0.1767 -0.3269
 1010MOL0     C39291  10.241   2.725   7.077 -0.9619 -0.1600 -0.1193
 1010MOL0     C39292  10.136   2.819   7.075  0.0097 -0.2530  0.0964
 1010MOL0     N39293  10.031   3.431   7.315  0.8215  0.0418 -0.4571
 1010MOL0     N39294  10.131   3.409   7.391  0.2739 -0.0783  0.0047
 1010MOL0     C39295   9.338   3.841   7.349  0.1017  0.4695  0.1063
 1010MOL0     C39296   9.242   3.944   7.327  0.6000 -0.3563  0.9602
 1010MOL0     C39297   8.864   4.212   7.372 -0.2764 -0.5163 -0.0537
 1010MOL0     C39298   8.948   4.330   7.385  0.4496  0.5985 -0.4015
 1010MOL0     C39299   8.893   4.459   7.389 -0.3219 -0.0484 -0.5582
 1010MOL0     C39300   8.747   4.481   7.386 -0.0542 -0.5359 -0.7749
 1010MOL0     O39301   8.702   4.613   7.386  0.0212  0.2941 -0.0816
 1010MOL0     C39302   8.570   4.634   7.337 -0.1448  0.9403  0.1191
 1010MOL0     C39303   8.537   4.780   7.336  0.7218 -0.5481  0.0633
 1010MOL0     C39304   8.438   4.819   7.218  0.0185  0.5225 -0.1412
 1010MOL0     C39305   8.297   4.753   7.207  0.2081 -0.7841  0.4781
 1010MOL0     C39306   8.220   4.735   7.328 -0.6180  0.0009 -0.2472
 1010MOL0     C39307   8.168   4.733   7.442  1.2894 -0.0831 -0.4162
 1010MOL0     C39308   8.673   4.369   7.381 -0.4633  0.2480 -1.0722
 1010MOL0     C39309   8.725   4.233   7.368 -1.1395  0.2275  0.4925
 1010MOL0     C39310   8.614   4.136   7.372  0.1794 -0.0060  0.3691
 1010MOL0     H39311   9.008   3.865   7.564 -0.0560  0.3895 -0.1101
 1010MOL0     H39312   9.184   3.693   7.601  1.2670 -1.1296 -0.6715
 1010MOL0     H39313   9.546   3.811   7.573  1.2552  1.6092 -2.1285
 1010MOL0     H39314   9.589   3.740   7.420  1.7686 -2.5465 -0.0557
 1010MOL0     H39315   9.568   3.567   7.671 -0.7186 -1.0402 -0.8942
 1010MOL0     H39316   9.600   3.511   7.512 -1.0216 -0.9218 -0.2391
 1010MOL0     H39317   9.803   3.624   7.497 -1.7679  0.2367 -0.4565
 1010MOL0     H39318   9.788   3.728   7.632  1.5042  0.4077 -0.6821
 1010MOL0     H39319   9.780   3.539   7.792 -1.7614 -2.8708 -0.1519
 1010MOL0     H39320   9.789   3.424   7.657 -2.3587  1.1212 -0.9865
 1010MOL0     H39321   9.998   3.621   7.759  1.9380 -2.0496  2.0113
 1010MOL0     H39322  10.014   3.535   7.604 -1.0388 -0.9944 -0.8599
 1010MOL0     H39323  10.037   3.431   7.889 -3.9049  2.6565  0.1959
 1010MOL0     H39324   9.954   3.334   7.781 -0.3192 -0.1020  0.5968
 1010MOL0     H39325  10.230   3.341   7.798  0.6804 -0.0324 -0.6806
 1010MOL0     H39326  10.213   3.469   7.683 -1.2935  2.0658  2.6010
 1010MOL0     H39327  10.254   3.240   7.584 -0.3375  0.5139  0.5770
 1010MOL0     H39328  10.098   3.194   7.648 -2.5769  1.7629 -0.3946
 1010MOL0     H39329   9.932   3.181   7.507  0.8696 -0.3601  0.2951
 1010MOL0     H39330   9.759   3.399   7.265  0.1086 -0.3154 -2.1263
 1010MOL0     H39331   9.742   3.252   7.354  0.8802  2.0634  2.6286
 1010MOL0     H39332   9.825   3.115   7.171  0.0343  0.0746 -0.9222
 1010MOL0     H39333   9.740   3.242   7.087  1.2126  2.1563 -0.3784
 1010MOL0     H39334   9.917   3.253   6.952 -1.7726 -2.1840 -0.0941
 1010MOL0     H39335   9.980   3.364   7.068 -2.5482  0.7034 -1.7532
 1010MOL0     H39336  10.148   3.210   6.997 -0.9846  2.3571 -0.6828
 1010MOL0     H39337  10.128   3.208   7.168 -2.5309  2.0151 -0.9150
 1010MOL0     H39338  10.284   3.093   7.211 -0.8487 -1.5426  4.5476
 1010MOL0     H39339  10.569   2.876   7.302  0.0031  0.9741  1.0533
 1010MOL0     H39340  10.496   3.039   7.283 -3.2109 -0.8209  0.0465
 1010MOL0     H39341  10.596   2.957   7.152  0.1968 -0.8166 -0.3938
 1010MOL0     H39342  10.848   2.734   6.996 -1.4207  0.8617  0.6670
 1010MOL0     H39343  11.020   2.585   6.957  0.0101  0.0867 -2.3110
 1010MOL0     H39344  11.157   2.381   6.899 -0.0126  0.7307 -0.1561
 1010MOL0     H39345  11.123   2.401   7.078 -2.0089  0.5598 -1.1496
 1010MOL0     H39346  11.197   2.140   6.935 -1.7786 -1.1271  1.2884
 1010MOL0     H39347  11.326   2.242   7.007  0.2576  0.3627 -0.7485
 1010MOL0     H39348  11.117   2.069   7.129 -0.8370  0.4578 -0.0413
 1010MOL0     H39349  11.151   2.211   7.210 -1.0632 -0.3244 -0.3075
 1010MOL0     H39350  11.417   2.155   7.197 -1.4353  0.7073 -1.2121
 1010MOL0     H39351  11.362   1.987   7.161  1.7698 -1.1569  1.8464
 1010MOL0     H39352  11.257   2.135   7.424  1.9971 -2.7711  5.9671
 1010MOL0     H39353  11.239   1.969   7.360 -2.6598  1.4273  0.1979
 1010MOL0     H39354  11.485   1.940   7.396 -1.8198  0.1057 -2.2890
 1010MOL0     H39355  11.399   1.966   7.542  1.6150 -1.6792  0.0210
 1010MOL0     H39356  11.455   2.212   7.529 -1.3999 -1.3711 -0.0684
 1010MOL0     H39357  11.561   2.155   7.388 -0.2851 -0.1479  0.1253
 1010MOL0     H39358  11.691   2.016   7.529 -0.4444 -0.4522  0.0486
 1010MOL0     H39359  11.622   2.075   7.681  0.6251  1.7214  0.3242
 1010MOL0     H39360  10.754   2.245   6.991  0.4209 -0.4798  2.2842
 1010MOL0     H39361  10.560   2.409   7.027 -0.5020  3.1220  1.3160
 1010MOL0     H39362  10.213   2.624   7.047  0.0119 -0.8428  1.1448
 1010MOL0     H39363  10.032   2.793   7.055  0.2475 -0.6490 -0.6801
 1010MOL0     H39364   9.427   3.840   7.288  0.2842  1.3927  0.3377
 1010MOL0     H39365   9.251   4.010   7.241 -2.2509 -0.7241  0.2878
 1010MOL0     H39366   9.057   4.326   7.385  0.4440 -2.5853  1.2707
 1010MOL0     H39367   8.957   4.546   7.397  0.1825 -0.0766 -3.3752
 1010MOL0     H39368   8.552   4.585   7.241 -2.2849 -0.4243  1.1478
 1010MOL0     H39369   8.495   4.581   7.396  2.1325  0.1249  2.4993
 1010MOL0     H39370   8.635   4.827   7.336  0.6333  0.0786  4.5655
 1010MOL0     H39371   8.495   4.814   7.431  0.6937 -1.7200  0.4931
 1010MOL0     H39372   8.407   4.923   7.234 -0.6160  1.0078 -3.7907
 1010MOL0     H39373   8.500   4.806   7.129  3.2583  1.5022  1.8272
 1010MOL0     H39374   8.313   4.646   7.188  3.8476 -0.5175  1.3468
 1010MOL0     H39375   8.236   4.794   7.126  0.3014 -1.5651 -0.0046
 1010MOL0     H39376   8.123   4.711   7.536 -0.1790  0.1811 -1.0282
 1010MOL0     H39377   8.566   4.376   7.397 -0.1033  1.5007  1.1647
 1010MOL0     H39378   8.533   4.179   7.312  0.9275 -0.1502 -0.7709
 1010MOL0     H39379   8.642   4.040   7.329 -0.1237  0.3345 -0.6246
 1010MOL0     H39380   8.583   4.107   7.473  0.8842 -0.3716  0.4796
 1011MOL0     O39381   3.631   5.806   5.391  0.5281  0.0836  0.1088
 1011MOL0     C39382   3.538   5.879   5.422 -0.2728 -0.3884 -0.0898
 1011MOL0     O39383   3.547   6.017   5.457 -0.2878 -0.7013  0.0269
 1011MOL0     C39384   3.664   6.091   5.451  0.0844 -0.3442 -0.2484
 1011MOL0     C39385   3.737   6.094   5.335  0.5146  0.6739  0.4836
 1011MOL0     C39386   3.853   6.171   5.319 -0.2845  0.8131 -0.8862
 1011MOL0     C39387   3.886   6.272   5.423 -0.2791  0.9384  0.9252
 1011MOL0     O39388   4.000   6.346   5.429 -0.2091 -0.4405 -0.6947
 1011MOL0     C39389   4.094   6.335   5.329  0.2795  0.3699 -0.3154
 1011MOL0     C39390   4.205   6.434   5.335  0.2083 -0.1612  0.6459
 1011MOL0     C39391   4.314   6.390   5.236 -0.9323 -1.2521 -0.2083
 1011MOL0     C39392   4.380   6.257   5.270 -0.6653  0.9738  0.4128
 1011MOL0     C39393   4.448   6.255   5.402 -0.2451  0.0805  0.0588
 1011MOL0     C39394   4.506   6.130   5.449 -0.1565 -0.1669  1.2609
 1011MOL0     C39395   4.409   6.025   5.483  1.1997 -0.2294 -0.0553
 1011MOL0     C39396   4.485   5.907   5.528  0.4889  0.6082 -0.2647
 1011MOL0     N39397   4.533   5.833   5.418  0.1393 -0.0125  0.1682
 1011MOL0     C39398   4.449   5.758   5.330  0.0961 -0.2203 -0.5145
 1011MOL0     C39399   4.531   5.704   5.242  1.2789 -0.2905 -0.3126
 1011MOL0     C39400   4.502   5.615   5.131 -0.3954 -0.2375  0.0281
 1011MOL0     C39401   4.569   5.482   5.152 -0.9117 -0.1599 -0.6381
 1011MOL0     C39402   4.587   5.399   5.028 -0.8314 -0.6018  0.2824
 1011MOL0     C39403   4.465   5.338   4.967  0.1013  0.7192  0.3060
 1011MOL0     O39404   4.472   5.214   4.895  0.0173 -0.1027  0.0664
 1011MOL0     C39405   4.600   5.187   4.848  0.2449  0.5541  0.0979
 1011MOL0     C39406   4.648   5.265   4.740 -0.0396 -0.3307  0.4919
 1011MOL0     C39407   4.783   5.249   4.695 -0.0827 -0.5012  1.1908
 1011MOL0     C39408   4.840   5.367   4.627 -0.4975  0.7503  0.8992
 1011MOL0     C39409   4.861   5.141   4.749 -0.0422 -0.4201  0.5958
 1011MOL0     C39410   5.001   5.100   4.706  0.2726 -0.4051  0.7901
 1011MOL0     O39411   5.044   5.126   4.579  0.5219  0.2691  0.0673
 1011MOL0     C39412   5.172   5.149   4.556 -0.4358  0.1573 -0.6334
 1011MOL0     C39413   5.251   5.239   4.630  0.0328 -0.2327 -0.4712
 1011MOL0     C39414   5.388   5.246   4.596 -0.0266  0.4115 -0.7587
 1011MOL0     C39415   5.446   5.186   4.490 -0.4160  0.3330  0.1008
 1011MOL0     O39416   5.582   5.197   4.459  0.6106  0.3893  0.5920
 1011MOL0     C39417   5.628   5.184   4.322  0.3253  0.6061 -0.9894
 1011MOL0     C39418   5.741   5.275   4.303  0.6895  0.3282 -0.0745
 1011MOL0     C39419   5.806   5.283   4.164 -1.4067  0.1321 -0.2885
 1011MOL0     C39420   5.884   5.415   4.140  0.4180  0.9549  0.3804
 1011MOL0     C39421   6.029   5.388   4.183  0.2517 -0.7299  0.0933
 1011MOL0     C39422   6.099   5.526   4.186  0.6660 -0.1470 -0.3900
 1011MOL0     C39423   6.248   5.506   4.224  0.3901 -0.3499  0.4876
 1011MOL0     C39424   6.338   5.614   4.171  0.0108  0.6340 -1.4765
 1011MOL0    Cl39425   6.491   5.579   4.255 -0.0639  0.3647  0.0049
 1011MOL0     C39426   5.359   5.110   4.409 -0.3138 -0.5529 -1.0458
 1011MOL0     C39427   5.219   5.095   4.434 -1.0539  0.4697 -0.3734
 1011MOL0     O39428   5.066   5.041   4.794 -0.3451  0.0359  0.5693
 1011MOL0     C39429   4.804   5.061   4.848 -0.7253  0.3966  0.4712
 1011MOL0     C39430   4.679   5.089   4.896 -0.4015 -0.3552  0.0840
 1011MOL0     N39431   4.656   5.754   5.264 -0.0628  0.7834  0.0142
 1011MOL0     N39432   4.657   5.833   5.361  0.6218  0.7527 -0.1450
 1011MOL0     C39433   3.812   6.268   5.541  0.4961  0.6203  0.1540
 1011MOL0     C39434   3.703   6.174   5.556  0.0568 -0.6505 -0.6440
 1011MOL0     C39435   3.408   5.800   5.422 -0.5795 -0.2277 -0.1694
 1011MOL0     C39436   3.406   5.656   5.438  0.1871  1.0814 -1.0430
 1011MOL0     C39437   3.285   5.571   5.431  1.6148 -0.8097 -0.7590
 1011MOL0     C39438   3.165   5.644   5.412 -0.4689 -0.8252 -0.2492
 1011MOL0     O39439   3.048   5.567   5.402  0.7250  1.3005 -0.3201
 1011MOL0     C39440   2.934   5.620   5.465  0.1506 -0.0650  0.6573
 1011MOL0     C39441   2.835   5.514   5.474  0.6508  0.3880  0.9723
 1011MOL0     C39442   2.854   5.402   5.575 -0.0626  0.9226 -0.1340
 1011MOL0     C39443   2.763   5.278   5.572 -0.4856 -0.2642  0.3692
 1011MOL0     C39444   2.621   5.315   5.594  0.3037  0.0505 -0.0329
 1011MOL0     C39445   2.504   5.337   5.608  0.8349 -0.1605 -0.1280
 1011MOL0     C39446   3.163   5.788   5.426  0.1546 -0.0638 -0.0428
 1011MOL0     C39447   3.280   5.863   5.417 -0.4027  0.7795 -0.0115
 1011MOL0     C39448   3.264   6.013   5.406 -0.7225  0.2448 -0.5025
 1011MOL0     H39449   3.704   6.032   5.253  1.7933  0.8328 -0.1755
 1011MOL0     H39450   3.929   6.139   5.247  1.5343 -0.9841  1.6248
 1011MOL0     H39451   4.047   6.347   5.231 -2.5508  0.9485  1.0008
 1011MOL0     H39452   4.137   6.238   5.354 -1.7368  0.0885  2.4980
 1011MOL0     H39453   4.173   6.535   5.309  1.9091  0.1679 -0.2351
 1011MOL0     H39454   4.243   6.443   5.438 -2.0204  2.9184  1.3406
 1011MOL0     H39455   4.280   6.382   5.132  0.7837 -2.5369 -0.7229
 1011MOL0     H39456   4.403   6.453   5.248  0.1756 -2.4482 -1.6765
 1011MOL0     H39457   4.318   6.169   5.250 -0.8097  1.3228 -0.8094
 1011MOL0     H39458   4.462   6.241   5.200  0.7977 -2.5215  2.6865
 1011MOL0     H39459   4.381   6.276   5.486 -2.3276  1.5447 -1.8326
 1011MOL0     H39460   4.529   6.327   5.391  0.5923 -0.8324  0.1310
 1011MOL0     H39461   4.575   6.093   5.373 -1.5015 -2.8068  1.2182
 1011MOL0     H39462   4.569   6.150   5.536  0.5859 -0.4741  0.8040
 1011MOL0     H39463   4.345   5.997   5.398  1.3377  0.7461 -0.4989
 1011MOL0     H39464   4.354   6.071   5.566  2.1555 -1.0855  1.0720
 1011MOL0     H39465   4.562   5.930   5.602  0.0618 -4.1857  2.1009
 1011MOL0     H39466   4.427   5.837   5.589  0.2578  0.9509 -0.0869
 1011MOL0     H39467   4.341   5.744   5.329  0.1393 -1.2604  1.9265
 1011MOL0     H39468   4.523   5.648   5.029 -0.7042 -1.6132 -0.4971
 1011MOL0     H39469   4.394   5.602   5.132 -0.3879 -1.2041 -2.6557
 1011MOL0     H39470   4.669   5.504   5.190 -1.6639  2.6017 -0.0177
 1011MOL0     H39471   4.517   5.418   5.224  0.1470 -3.0638 -2.2952
 1011MOL0     H39472   4.644   5.460   4.958 -0.6162  0.4934  1.3742
 1011MOL0     H39473   4.656   5.320   5.058  0.7553 -0.2778 -2.2355
 1011MOL0     H39474   4.406   5.316   5.057 -0.7309 -2.3933 -0.8616
 1011MOL0     H39475   4.418   5.414   4.905  0.6479  1.0345  0.2693
 1011MOL0     H39476   4.591   5.354   4.713 -0.2673 -0.1704  1.4478
 1011MOL0     H39477   4.942   5.393   4.656  0.7588 -1.9222 -0.7436
 1011MOL0     H39478   4.779   5.458   4.622 -1.1510  0.2690 -0.4755
 1011MOL0     H39479   4.844   5.332   4.523 -0.5007 -1.4104  1.5670
 1011MOL0     H39480   5.208   5.288   4.717  0.4185  2.3872 -1.6668
 1011MOL0     H39481   5.451   5.297   4.669  0.9784 -0.7187 -0.8064
 1011MOL0     H39482   5.647   5.077   4.308  0.3003  0.5666 -0.7254
 1011MOL0     H39483   5.560   5.199   4.237  0.3552 -1.2413 -1.3884
 1011MOL0     H39484   5.711   5.378   4.323  0.9414  0.0833  1.7348
 1011MOL0     H39485   5.819   5.254   4.377  0.0142 -0.4380  0.4407
 1011MOL0     H39486   5.729   5.275   4.086 -1.8520  0.3045  0.1289
 1011MOL0     H39487   5.881   5.208   4.136 -0.8724  1.0868 -1.5145
 1011MOL0     H39488   5.838   5.498   4.193 -0.6594  1.1697 -0.8335
 1011MOL0     H39489   5.884   5.434   4.032 -0.1429 -1.4062 -0.1116
 1011MOL0     H39490   6.032   5.336   4.279 -0.1905  0.0297  0.5316
 1011MOL0     H39491   6.079   5.326   4.109  0.0554  0.5195 -1.1312
 1011MOL0     H39492   6.057   5.583   4.269  1.5675 -2.6265  1.8954
 1011MOL0     H39493   6.086   5.567   4.085  1.7074 -2.0944 -1.3750
 1011MOL0     H39494   6.293   5.414   4.185  0.9224 -0.2963  0.9691
 1011MOL0     H39495   6.254   5.506   4.333  1.3421  0.2979  0.4448
 1011MOL0     H39496   6.294   5.710   4.201 -0.2872 -0.0288  0.3112
 1011MOL0     H39497   6.342   5.616   4.061 -0.3338 -1.8996 -1.6055
 1011MOL0     H39498   5.410   5.060   4.327  2.1617 -0.5685  0.3768
 1011MOL0     H39499   5.164   5.021   4.377 -1.9395  0.1963  0.7844
 1011MOL0     H39500   4.858   4.975   4.887 -3.1098 -0.9667  1.0117
 1011MOL0     H39501   4.639   5.018   4.967  2.8768 -0.9286  1.5168
 1011MOL0     H39502   3.830   6.336   5.624 -0.0892  2.5094 -1.1939
 1011MOL0     H39503   3.645   6.165   5.648  1.3699  0.0146  0.2794
 1011MOL0     H39504   3.494   5.600   5.468 -1.2981 -0.0485  1.6239
 1011MOL0     H39505   3.292   5.463   5.434 -0.6928 -0.9788 -0.2871
 1011MOL0     H39506   2.941   5.657   5.568 -0.8309  0.4773  0.5364
 1011MOL0     H39507   2.899   5.708   5.411  1.0339 -1.6082 -2.6233
 1011MOL0     H39508   2.838   5.486   5.368  3.0553  0.6376  0.9156
 1011MOL0     H39509   2.743   5.571   5.489 -0.3386 -1.1964  1.2299
 1011MOL0     H39510   2.955   5.364   5.557 -1.8421 -2.8976 -3.4731
 1011MOL0     H39511   2.864   5.451   5.672  3.3444 -2.7590  1.6701
 1011MOL0     H39512   2.797   5.213   5.653  0.6228  1.9558  1.7836
 1011MOL0     H39513   2.776   5.223   5.478  3.9673  0.1089  0.5581
 1011MOL0     H39514   2.398   5.347   5.622  1.2602  2.6271  1.8100
 1011MOL0     H39515   3.065   5.835   5.428  0.8794  1.4970  0.8995
 1011MOL0     H39516   3.314   6.059   5.320 -0.9623  0.3086 -0.6087
 1011MOL0     H39517   3.161   6.050   5.405 -1.2832 -0.6426 -5.6308
 1011MOL0     H39518   3.308   6.059   5.495 -0.0062  2.0387 -1.7121
 1012MOL0     O39519   1.287   4.869   6.004 -0.0576 -0.0914  0.3718
 1012MOL0     C39520   1.250   4.936   5.906  0.0180  0.6352 -0.4279
 1012MOL0     O39521   1.332   4.962   5.807 -0.5451 -0.4348  0.5728
 1012MOL0     C39522   1.458   4.919   5.803  0.0813  0.6282  0.8115
 1012MOL0     C39523   1.517   4.803   5.843  0.7653 -0.3288 -0.4102
 1012MOL0     C39524   1.655   4.782   5.828  1.3259 -0.5516  0.3367
 1012MOL0     C39525   1.729   4.884   5.775 -0.3280 -0.4472  0.0630
 1012MOL0     O39526   1.857   4.867   5.752  0.9559 -0.4672  0.5109
 1012MOL0     C39527   1.950   4.977   5.796 -0.9126 -0.9621 -0.0438
 1012MOL0     C39528   2.095   4.962   5.735  0.7353  0.5594 -0.8430
 1012MOL0     C39529   2.117   5.008   5.589 -0.2340  0.0277  0.4799
 1012MOL0     C39530   2.095   5.162   5.577 -0.0793 -0.8009 -0.8461
 1012MOL0     C39531   2.166   5.217   5.451  0.4911  0.4713  0.2712
 1012MOL0     C39532   2.110   5.349   5.407  0.4264 -0.3122 -0.0378
 1012MOL0     C39533   2.204   5.464   5.450 -0.3027 -1.2043 -0.7463
 1012MOL0     C39534   2.134   5.596   5.393 -0.8760  0.7396  0.1822
 1012MOL0     N39535   2.180   5.725   5.459 -0.3734  0.1693 -0.7384
 1012MOL0     C39536   2.098   5.793   5.545 -0.9374 -0.5549  0.3714
 1012MOL0     C39537   2.175   5.900   5.593  0.9501  0.7700  0.3915
 1012MOL0     C39538   2.126   5.978   5.712 -0.6117 -0.3488  0.7374
 1012MOL0     C39539   2.180   6.121   5.683  0.0317  1.0323 -0.0597
 1012MOL0     C39540   2.117   6.213   5.784 -0.0456 -0.0638  0.0050
 1012MOL0     C39541   2.113   6.360   5.740 -0.3298 -0.0262 -0.1463
 1012MOL0     O39542   2.015   6.368   5.633 -1.0723 -0.1375 -0.2662
 1012MOL0     C39543   1.971   6.498   5.602 -0.0097  0.2958  0.5540
 1012MOL0     C39544   1.949   6.533   5.470  0.4769 -0.4965  0.3819
 1012MOL0     C39545   1.879   6.651   5.430 -0.2378  0.1168 -0.1280
 1012MOL0     C39546   1.842   6.678   5.295  0.5357 -0.0597  0.0428
 1012MOL0     C39547   1.850   6.746   5.533 -1.3060  1.2846  0.8908
 1012MOL0     C39548   1.788   6.877   5.507 -0.0799 -1.0754  0.4119
 1012MOL0     O39549   1.698   6.930   5.591  0.6633 -0.3656 -0.2363
 1012MOL0     C39550   1.645   7.060   5.570 -0.2089  0.1234 -0.6875
 1012MOL0     C39551   1.626   7.133   5.683  0.6608  0.1836  0.2010
 1012MOL0     C39552   1.602   7.272   5.683  0.3513 -0.0517 -0.2893
 1012MOL0     C39553   1.594   7.335   5.566  0.3320  0.4900  0.7705
 1012MOL0     O39554   1.581   7.477   5.551 -0.4008  0.2050 -0.7910
 1012MOL0     C39555   1.549   7.545   5.677 -0.3740  0.0391  0.4829
 1012MOL0     C39556   1.566   7.694   5.647  0.7272 -0.0763  0.5421
 1012MOL0     C39557   1.584   7.779   5.773 -1.3027 -0.3302  0.5383
 1012MOL0     C39558   1.724   7.758   5.822 -0.0018  0.4319 -0.4843
 1012MOL0     C39559   1.767   7.832   5.951  0.4835 -0.1964  0.0169
 1012MOL0     C39560   1.687   7.813   6.078  0.4932 -0.2302  0.7732
 1012MOL0     C39561   1.764   7.862   6.199  0.3733  0.1256 -0.4278
 1012MOL0     C39562   1.688   7.835   6.323  0.2072  0.6205 -0.0820
 1012MOL0    Cl39563   1.777   7.894   6.481  0.6019 -0.1763  0.2387
 1012MOL0     C39564   1.605   7.264   5.444 -0.8892  0.2908 -0.2989
 1012MOL0     C39565   1.627   7.126   5.450  0.5508 -0.3674  0.5579
 1012MOL0     O39566   1.837   6.937   5.417 -0.4104 -0.3242 -0.3961
 1012MOL0     C39567   1.873   6.703   5.662  0.5749 -0.7859  0.4792
 1012MOL0     C39568   1.932   6.586   5.698 -1.5728 -0.2959 -0.1880
 1012MOL0     N39569   2.295   5.896   5.533  0.3304  1.1385 -0.3594
 1012MOL0     N39570   2.298   5.796   5.452  0.8763 -0.2450 -0.0107
 1012MOL0     C39571   1.672   5.010   5.730 -0.7017  0.5808 -0.6510
 1012MOL0     C39572   1.540   5.026   5.749  0.6193  0.4111 -0.0541
 1012MOL0     C39573   1.106   4.991   5.897 -0.1698 -0.3065  0.1600
 1012MOL0     C39574   1.072   5.093   5.796 -1.2242  0.0448  0.2224
 1012MOL0     C39575   0.942   5.153   5.785 -0.8183  0.2194 -0.1076
 1012MOL0     C39576   0.842   5.111   5.877  1.4807 -0.4459  0.3472
 1012MOL0     O39577   0.720   5.177   5.883 -0.1168 -0.1779 -0.4719
 1012MOL0     C39578   0.704   5.302   5.814  0.3080 -0.9117  0.2029
 1012MOL0     C39579   0.569   5.347   5.858  1.1613 -0.0230 -0.0263
 1012MOL0     C39580   0.570   5.383   6.007 -0.0537  0.4959 -0.4660
 1012MOL0     C39581   0.448   5.469   6.040  0.0294  0.7687  0.3268
 1012MOL0     C39582   0.445   5.525   6.173 -1.1013 -0.7707 -0.0794
 1012MOL0     C39583   0.434   5.561   6.288 -0.4182 -0.2689  0.8465
 1012MOL0     C39584   0.864   5.005   5.960 -0.6247  0.2873 -0.0065
 1012MOL0     C39585   0.993   4.948   5.975  0.2332  0.2353 -0.1160
 1012MOL0     C39586   0.999   4.846   6.089 -1.0625  0.3346 -0.9500
 1012MOL0     H39587   1.447   4.735   5.891  0.2716  2.3829  3.1447
 1012MOL0     H39588   1.701   4.693   5.869  1.4921 -0.8399 -0.4690
 1012MOL0     H39589   1.944   4.965   5.905 -2.6513 -0.2951 -0.0209
 1012MOL0     H39590   1.915   5.080   5.784  0.6136 -0.1374  1.9767
 1012MOL0     H39591   2.160   5.012   5.807 -1.5281  1.4978  0.6608
 1012MOL0     H39592   2.124   4.857   5.734 -1.7780 -0.2251  0.0794
 1012MOL0     H39593   2.217   4.979   5.555 -0.5329  1.0452 -1.4100
 1012MOL0     H39594   2.037   4.957   5.534 -1.8553  1.8638  1.0548
 1012MOL0     H39595   1.987   5.181   5.572  0.0078  0.1428  0.4437
 1012MOL0     H39596   2.130   5.222   5.661  1.4804 -0.7663 -1.4816
 1012MOL0     H39597   2.145   5.149   5.368 -0.9573  2.8703 -1.4650
 1012MOL0     H39598   2.275   5.211   5.464  0.3520 -2.2468  0.7767
 1012MOL0     H39599   2.096   5.351   5.298  0.1743 -0.2069 -0.0055
 1012MOL0     H39600   2.011   5.363   5.451 -0.6971  0.4917 -2.6233
 1012MOL0     H39601   2.308   5.456   5.416  0.2425 -2.6316  1.1005
 1012MOL0     H39602   2.212   5.457   5.559  2.8831 -0.3147 -0.8211
 1012MOL0     H39603   2.156   5.591   5.286 -0.1689 -2.3898  0.3831
 1012MOL0     H39604   2.026   5.584   5.406 -0.8895  2.5166  2.2230
 1012MOL0     H39605   2.004   5.766   5.592 -1.4648  0.2900 -0.1710
 1012MOL0     H39606   2.183   5.943   5.798 -2.3158 -2.9355  0.9372
 1012MOL0     H39607   2.018   5.964   5.725 -0.9443 -1.1534 -2.1490
 1012MOL0     H39608   2.288   6.119   5.699 -0.0691 -1.6124  0.8356
 1012MOL0     H39609   2.188   6.158   5.580  3.0534  2.3573  0.5508
 1012MOL0     H39610   2.011   6.190   5.797 -1.3435  3.4965 -2.6052
 1012MOL0     H39611   2.164   6.210   5.882 -2.4860  0.7569  1.2943
 1012MOL0     H39612   2.089   6.423   5.825  0.8052 -1.4495  1.2764
 1012MOL0     H39613   2.209   6.400   5.707  0.9152 -0.6710  2.4895
 1012MOL0     H39614   1.977   6.464   5.391  0.0492  0.9849 -1.0987
 1012MOL0     H39615   1.914   6.746   5.249  1.3276  0.3112  1.7676
 1012MOL0     H39616   1.742   6.722   5.294  0.7431  0.5740  2.3598
 1012MOL0     H39617   1.839   6.585   5.238 -2.1655  1.2498 -2.1781
 1012MOL0     H39618   1.639   7.076   5.774  0.0536 -2.1316 -1.0837
 1012MOL0     H39619   1.594   7.305   5.786 -1.4057 -0.1242 -0.3800
 1012MOL0     H39620   1.449   7.520   5.714 -0.3578  2.0866  2.1266
 1012MOL0     H39621   1.623   7.506   5.748 -1.5602 -2.8972  0.2415
 1012MOL0     H39622   1.639   7.713   5.568  0.3715  0.4360  0.3280
 1012MOL0     H39623   1.478   7.728   5.592 -0.6786 -1.0523  2.0593
 1012MOL0     H39624   1.519   7.746   5.854  1.1350  0.3995  2.9781
 1012MOL0     H39625   1.567   7.884   5.749 -1.3344 -0.2339  0.9716
 1012MOL0     H39626   1.797   7.784   5.745  1.0062  1.6343  0.8237
 1012MOL0     H39627   1.731   7.652   5.848 -0.3907 -0.0818 -2.3108
 1012MOL0     H39628   1.869   7.800   5.976  0.6038  0.1398 -0.0368
 1012MOL0     H39629   1.766   7.939   5.928  2.5854 -0.4254 -1.3518
 1012MOL0     H39630   1.673   7.705   6.082 -0.9695 -0.4742 -4.2774
 1012MOL0     H39631   1.585   7.854   6.071 -0.7647 -2.4656  3.9430
 1012MOL0     H39632   1.780   7.968   6.176 -2.6233  1.1504  1.5817
 1012MOL0     H39633   1.863   7.816   6.204 -1.5938 -4.5534  1.9230
 1012MOL0     H39634   1.686   7.726   6.333  4.1778  0.1412 -2.5049
 1012MOL0     H39635   1.591   7.885   6.310  0.0718  1.0651  2.1544
 1012MOL0     H39636   1.589   7.302   5.344 -0.2411 -0.2471 -0.6140
 1012MOL0     H39637   1.640   7.075   5.356 -1.2517  1.2040 -0.6335
 1012MOL0     H39638   1.841   6.776   5.736  0.8667 -0.8259  0.6468
 1012MOL0     H39639   1.946   6.554   5.801  1.6468  1.7935  0.1842
 1012MOL0     H39640   1.736   5.084   5.682  1.4691 -1.0138 -0.4083
 1012MOL0     H39641   1.496   5.118   5.714  1.7995  1.0159  0.0217
 1012MOL0     H39642   1.157   5.130   5.739  1.8892 -0.1989  4.2522
 1012MOL0     H39643   0.929   5.225   5.705  2.0417 -2.8997 -3.7718
 1012MOL0     H39644   0.783   5.371   5.844  1.3156 -1.2011 -1.5997
 1012MOL0     H39645   0.709   5.291   5.705  0.0535 -2.5218  0.3205
 1012MOL0     H39646   0.507   5.259   5.839  1.4913 -0.0214 -1.1736
 1012MOL0     H39647   0.522   5.422   5.794 -0.3551 -2.9568 -2.5796
 1012MOL0     H39648   0.584   5.297   6.073  0.2557  1.8113  1.2549
 1012MOL0     H39649   0.663   5.436   6.031 -0.4258  1.0071 -0.1329
 1012MOL0     H39650   0.357   5.409   6.026 -2.3498  4.2670 -0.7768
 1012MOL0     H39651   0.444   5.557   5.974 -0.6998 -0.0701 -0.7820
 1012MOL0     H39652   0.402   5.599   6.383 -0.3213  3.8387 -0.6025
 1012MOL0     H39653   0.773   4.977   6.012  0.8400 -0.1335  2.4749
 1012MOL0     H39654   1.070   4.766   6.065 -1.6585 -1.4400  2.4771
 1012MOL0     H39655   1.024   4.893   6.185 -0.6090  0.5046 -1.1499
 1012MOL0     H39656   0.902   4.796   6.097  0.5942 -3.3122 -1.7386
 1013MOL0     O39657   5.110   2.920   0.756  0.0022 -0.0503 -0.4494
 1013MOL0     C39658   5.005   2.985   0.739 -0.4058 -0.2506  0.4998
 1013MOL0     O39659   5.001   3.122   0.713  0.6474  0.0039 -0.2702
 1013MOL0     C39660   5.109   3.200   0.716 -0.1240  0.7818  0.6081
 1013MOL0     C39661   5.149   3.281   0.613 -0.0923 -0.7726  0.3527
 1013MOL0     C39662   5.279   3.346   0.614 -0.2228 -0.2873  0.3194
 1013MOL0     C39663   5.361   3.349   0.731  0.4973 -0.2971  0.4601
 1013MOL0     O39664   5.471   3.427   0.734 -0.0169 -0.8907  0.8356
 1013MOL0     C39665   5.582   3.383   0.816 -0.1353 -0.2823  0.8100
 1013MOL0     C39666   5.710   3.458   0.777 -0.3872  0.8763  0.2080
 1013MOL0     C39667   5.831   3.441   0.882 -0.0337  0.2629 -0.3320
 1013MOL0     C39668   5.968   3.464   0.834  1.0197  0.6560  0.0718
 1013MOL0     C39669   6.076   3.470   0.933 -0.2626 -0.7676  0.2296
 1013MOL0     C39670   6.208   3.459   0.864  0.6598 -0.2524 -0.3920
 1013MOL0     C39671   6.318   3.528   0.957 -0.0225 -0.3739  0.2717
 1013MOL0     C39672   6.456   3.475   0.910  0.4652 -0.9154  0.8394
 1013MOL0     N39673   6.563   3.570   0.941  0.0838 -0.4514  0.0799
 1013MOL0     C39674   6.615   3.679   0.874 -0.1410 -0.1219 -0.0149
 1013MOL0     C39675   6.717   3.718   0.949  0.5465  0.0319  0.2314
 1013MOL0     C39676   6.793   3.842   0.925 -0.9435 -0.2695  0.3188
 1013MOL0     C39677   6.853   3.855   0.782  0.6527 -1.2292 -0.3546
 1013MOL0     C39678   6.997   3.799   0.759  0.4280  0.3955 -0.8119
 1013MOL0     C39679   7.009   3.656   0.819 -0.0990 -0.1748  0.0872
 1013MOL0     O39680   7.138   3.600   0.770  0.4770  1.1627 -0.1837
 1013MOL0     C39681   7.213   3.526   0.848 -0.0887  0.8357 -0.7487
 1013MOL0     C39682   7.350   3.535   0.823  1.4305 -0.2393 -0.2128
 1013MOL0     C39683   7.440   3.461   0.906  0.1808  0.4599 -0.1478
 1013MOL0     C39684   7.593   3.490   0.891 -0.4171  0.5117  0.1470
 1013MOL0     C39685   7.391   3.354   0.992  0.2357 -0.1026  0.4751
 1013MOL0     C39686   7.476   3.242   1.031 -0.5496  0.2703 -0.5218
 1013MOL0     O39687   7.426   3.159   1.130  0.1053  0.2841 -0.1457
 1013MOL0     C39688   7.498   3.046   1.179  0.5503  0.3126 -0.0342
 1013MOL0     C39689   7.534   3.036   1.316  0.0149 -0.6671  0.0554
 1013MOL0     C39690   7.590   2.917   1.369 -0.9171 -0.0101  0.2980
 1013MOL0     C39691   7.605   2.802   1.289 -0.0859  0.7714 -0.6039
 1013MOL0     O39692   7.669   2.694   1.344 -0.3284 -0.5862 -0.1692
 1013MOL0     C39693   7.724   2.591   1.263 -0.6532 -0.2393 -0.6440
 1013MOL0     C39694   7.873   2.627   1.227  0.1268 -0.3547 -1.1955
 1013MOL0     C39695   7.960   2.663   1.346 -0.7567 -0.3973 -0.5155
 1013MOL0     C39696   8.107   2.684   1.287  0.1073 -0.2641 -0.7458
 1013MOL0     C39697   8.203   2.704   1.407  0.1646 -0.9324 -0.1107
 1013MOL0     C39698   8.234   2.583   1.485 -0.1534 -0.2479  0.4062
 1013MOL0     C39699   8.352   2.620   1.583 -0.0118  0.0445 -0.7077
 1013MOL0     C39700   8.378   2.494   1.658 -1.1357 -0.1639 -1.1401
 1013MOL0    Cl39701   8.501   2.520   1.784 -0.4990 -0.0594 -0.5542
 1013MOL0     C39702   7.577   2.816   1.150 -0.2245  0.7766 -0.5655
 1013MOL0     C39703   7.524   2.942   1.093 -0.0699 -0.2382 -0.0292
 1013MOL0     O39704   7.582   3.224   0.970 -1.0073  0.5762  0.5818
 1013MOL0     C39705   7.253   3.336   0.994  0.2962 -0.1403  0.5572
 1013MOL0     C39706   7.161   3.428   0.936  0.0764 -0.4087  0.0588
 1013MOL0     N39707   6.725   3.636   1.060 -0.4219 -0.6625 -0.2809
 1013MOL0     N39708   6.632   3.548   1.054  0.3491  0.2662  0.2829
 1013MOL0     C39709   5.311   3.277   0.839 -0.3263 -0.3100 -0.2247
 1013MOL0     C39710   5.189   3.206   0.830  1.0090  0.5033 -0.0077
 1013MOL0     C39711   4.864   2.916   0.747  0.0064  0.2800  0.1159
 1013MOL0     C39712   4.745   2.990   0.767 -0.0441 -0.4990  0.2798
 1013MOL0     C39713   4.619   2.938   0.769 -0.4689  0.3599  0.4409
 1013MOL0     C39714   4.598   2.793   0.768  0.3942 -0.1343  0.1806
 1013MOL0     O39715   4.471   2.743   0.783 -0.0827 -0.2300 -0.4178
 1013MOL0     C39716   4.393   2.732   0.657  0.0230 -0.7135 -0.2011
 1013MOL0     C39717   4.243   2.708   0.695 -0.2613 -0.9250  0.4303
 1013MOL0     C39718   4.182   2.822   0.778  0.1756  0.0981 -0.0251
 1013MOL0     C39719   4.037   2.796   0.778  0.0195  0.1871  0.5915
 1013MOL0     C39720   3.951   2.899   0.837 -0.5312 -0.0059  0.7434
 1013MOL0     C39721   3.880   2.987   0.883 -0.1843  1.0517  0.0582
 1013MOL0     C39722   4.707   2.723   0.730  0.6451  0.8825 -0.9244
 1013MOL0     C39723   4.834   2.779   0.726  0.2957  0.0608 -0.4486
 1013MOL0     C39724   4.950   2.692   0.714 -0.5853  0.2857  0.0286
 1013MOL0     H39725   5.091   3.275   0.521 -0.3865  0.8954  0.3945
 1013MOL0     H39726   5.306   3.400   0.524 -3.6565 -0.9021 -1.2386
 1013MOL0     H39727   5.590   3.275   0.800  1.6665 -0.3680  2.1122
 1013MOL0     H39728   5.562   3.406   0.921 -4.8279  1.0181 -0.1204
 1013MOL0     H39729   5.740   3.422   0.678 -2.2545  0.5893 -0.2807
 1013MOL0     H39730   5.691   3.565   0.764  0.2683  1.2459  2.0188
 1013MOL0     H39731   5.811   3.508   0.967  0.5878  0.9846 -0.7492
 1013MOL0     H39732   5.818   3.335   0.907 -0.6197  0.4444  0.1663
 1013MOL0     H39733   5.981   3.393   0.752 -3.7064 -0.1007 -0.3262
 1013MOL0     H39734   5.964   3.557   0.778 -1.5426 -0.6689 -2.1982
 1013MOL0     H39735   6.072   3.392   1.010  1.0108 -0.7553  0.3269
 1013MOL0     H39736   6.068   3.567   0.984  0.1940 -1.2167  1.1895
 1013MOL0     H39737   6.229   3.352   0.857 -1.8443 -1.0105  1.8681
 1013MOL0     H39738   6.208   3.487   0.759  1.0197 -0.4120 -0.4358
 1013MOL0     H39739   6.310   3.501   1.063  2.4026  1.6244  1.0763
 1013MOL0     H39740   6.309   3.636   0.944  0.5524 -0.3349  0.1627
 1013MOL0     H39741   6.480   3.383   0.964  1.0432 -1.6632 -0.6454
 1013MOL0     H39742   6.453   3.458   0.802 -3.6255  1.7227  0.3118
 1013MOL0     H39743   6.575   3.727   0.785  0.5214  0.2699 -0.1038
 1013MOL0     H39744   6.871   3.854   1.001  1.2947  1.9473 -2.1460
 1013MOL0     H39745   6.729   3.930   0.932 -2.4448 -1.1799 -1.1856
 1013MOL0     H39746   6.784   3.810   0.709  0.4358  0.8774 -1.5355
 1013MOL0     H39747   6.857   3.962   0.760  1.4539 -1.5318 -1.8612
 1013MOL0     H39748   7.009   3.794   0.650  2.2011 -3.5048 -0.6029
 1013MOL0     H39749   7.076   3.866   0.794 -0.1674 -0.0512  1.5293
 1013MOL0     H39750   7.008   3.671   0.927 -3.0504  0.2703  0.0694
 1013MOL0     H39751   6.935   3.579   0.794 -0.4886 -0.0947  0.9778
 1013MOL0     H39752   7.396   3.599   0.748  1.5823  0.7341  0.6910
 1013MOL0     H39753   7.638   3.410   0.833  1.8529  1.6777  0.1699
 1013MOL0     H39754   7.634   3.489   0.993  1.7318  0.7265 -0.6552
 1013MOL0     H39755   7.617   3.589   0.850  1.8014  0.1960  0.5136
 1013MOL0     H39756   7.512   3.126   1.372 -0.1682 -0.8338  0.2540
 1013MOL0     H39757   7.613   2.916   1.475 -4.7912  2.7406  1.3896
 1013MOL0     H39758   7.729   2.511   1.338 -0.5615  0.7925  0.4807
 1013MOL0     H39759   7.669   2.548   1.179 -0.9201 -1.4366  0.1101
 1013MOL0     H39760   7.918   2.538   1.182 -0.7218 -0.4212 -1.9295
 1013MOL0     H39761   7.867   2.709   1.155 -0.1265  1.2029  0.5281
 1013MOL0     H39762   7.950   2.590   1.427 -0.1814  0.2913  0.1945
 1013MOL0     H39763   7.922   2.762   1.373 -3.1030 -0.9445 -1.5534
 1013MOL0     H39764   8.124   2.777   1.232  0.0338  1.3727  1.7827
 1013MOL0     H39765   8.137   2.602   1.223  0.4085  0.0005 -0.9454
 1013MOL0     H39766   8.297   2.739   1.364  0.3181 -3.4105 -2.0080
 1013MOL0     H39767   8.160   2.782   1.470 -0.8748 -1.9722  0.5098
 1013MOL0     H39768   8.277   2.512   1.413 -0.4182  1.0692 -1.1170
 1013MOL0     H39769   8.154   2.541   1.546  0.0594  1.3591  1.8324
 1013MOL0     H39770   8.337   2.710   1.643  0.4575 -0.1820 -0.2395
 1013MOL0     H39771   8.440   2.638   1.520  0.5226 -0.9491 -0.2684
 1013MOL0     H39772   8.412   2.415   1.591  1.1219 -0.7755  0.5924
 1013MOL0     H39773   8.282   2.466   1.704 -0.7036 -0.8026 -0.6094
 1013MOL0     H39774   7.585   2.735   1.079 -3.1302  0.2300 -0.3799
 1013MOL0     H39775   7.498   2.950   0.987  0.9054  1.6749 -0.1759
 1013MOL0     H39776   7.190   3.270   1.052  2.1186  2.0803  5.7332
 1013MOL0     H39777   7.058   3.404   0.962  0.3396  1.5535  3.4435
 1013MOL0     H39778   5.364   3.279   0.934 -0.6212  2.9812 -0.0059
 1013MOL0     H39779   5.160   3.148   0.917  1.2464 -1.2616 -1.0650
 1013MOL0     H39780   4.767   3.096   0.782  0.6846 -0.8858  2.2866
 1013MOL0     H39781   4.538   3.009   0.780 -4.4512 -3.2412 -2.6490
 1013MOL0     H39782   4.410   2.828   0.607  0.0179  0.6068  2.1985
 1013MOL0     H39783   4.425   2.654   0.587 -0.5010 -2.1581  1.1132
 1013MOL0     H39784   4.241   2.612   0.747 -1.6666  0.2737  2.7453
 1013MOL0     H39785   4.187   2.687   0.604  0.0907  2.1903 -0.6397
 1013MOL0     H39786   4.228   2.839   0.875 -0.6727  0.9488  0.2480
 1013MOL0     H39787   4.188   2.915   0.720  0.3582 -0.8128 -1.5030
 1013MOL0     H39788   4.015   2.709   0.841  0.1640  0.4535  1.0179
 1013MOL0     H39789   4.004   2.760   0.680 -0.6141  0.8886  0.5346
 1013MOL0     H39790   3.823   3.074   0.908  1.1385  1.0565  3.4465
 1013MOL0     H39791   4.697   2.616   0.716 -3.1241  1.0149 -0.3799
 1013MOL0     H39792   4.918   2.589   0.695 -1.1716  0.1559  1.5807
 1013MOL0     H39793   5.015   2.722   0.632 -2.2141  0.4795 -1.2540
 1013MOL0     H39794   5.012   2.677   0.803 -0.1153 -1.9067 -0.5947
 1014MOL0     O39795   4.436   3.454   6.027  0.0026 -0.6607  0.8746
 1014MOL0     C39796   4.342   3.373   6.036 -0.0654  0.3389 -0.3452
 1014MOL0     O39797   4.353   3.248   6.094 -0.4339  0.2255 -1.0596
 1014MOL0     C39798   4.468   3.183   6.110 -0.4944  0.5274 -0.4150
 1014MOL0     C39799   4.591   3.199   6.048 -0.9458 -0.4544  0.5360
 1014MOL0     C39800   4.698   3.115   6.064 -0.1248 -0.3324 -0.2377
 1014MOL0     C39801   4.677   2.995   6.140  0.0031  1.0949 -0.1195
 1014MOL0     O39802   4.770   2.904   6.169 -0.5087 -0.0535 -0.7192
 1014MOL0     C39803   4.889   2.879   6.094 -0.5361  0.2750 -0.2906
 1014MOL0     C39804   4.861   2.769   5.992  0.2571 -0.3029  0.4488
 1014MOL0     C39805   4.992   2.737   5.917  0.5358 -0.6857  0.2522
 1014MOL0     C39806   4.987   2.593   5.866  0.3823 -0.2318 -0.7372
 1014MOL0     C39807   5.129   2.549   5.811  0.6534 -0.3809  0.4643
 1014MOL0     C39808   5.152   2.645   5.693 -0.6904  0.0972  0.1576
 1014MOL0     C39809   5.273   2.599   5.616 -0.2350  0.5206 -0.2147
 1014MOL0     C39810   5.264   2.462   5.547  0.8999  0.8187 -0.2707
 1014MOL0     N39811   5.359   2.447   5.436 -0.1993  0.7646  0.4185
 1014MOL0     C39812   5.385   2.534   5.331 -0.4242 -0.6973  0.6883
 1014MOL0     C39813   5.460   2.461   5.239 -0.1484 -0.6013  0.3700
 1014MOL0     C39814   5.500   2.516   5.103  0.3923 -0.5333  0.4135
 1014MOL0     C39815   5.581   2.411   5.030 -0.0227  0.0627 -0.7562
 1014MOL0     C39816   5.641   2.423   4.885  0.1880 -0.0670 -0.7815
 1014MOL0     C39817   5.703   2.561   4.852 -0.2212 -0.7640 -0.4897
 1014MOL0     O39818   5.817   2.571   4.942 -0.3022  0.4629 -0.1887
 1014MOL0     C39819   5.927   2.647   4.902 -0.4289 -0.0064 -0.9549
 1014MOL0     C39820   6.042   2.628   4.976 -0.5118 -0.0453  0.0222
 1014MOL0     C39821   6.160   2.707   4.961 -0.2542  0.3501 -0.0423
 1014MOL0     C39822   6.279   2.694   5.065  0.1841 -0.0483  0.3849
 1014MOL0     C39823   6.166   2.797   4.854 -0.4947  0.0611 -0.9890
 1014MOL0     C39824   6.282   2.869   4.818 -1.4248  0.2312 -1.0522
 1014MOL0     O39825   6.378   2.787   4.765  0.3878  0.6630 -0.6747
 1014MOL0     C39826   6.502   2.842   4.756  0.1572 -1.0431  0.0760
 1014MOL0     C39827   6.526   2.943   4.653 -0.2612 -0.2608 -0.2245
 1014MOL0     C39828   6.651   2.991   4.639  0.5774  0.8802  0.8547
 1014MOL0     C39829   6.762   2.954   4.717  0.4258 -0.5411 -0.5648
 1014MOL0     O39830   6.875   3.039   4.707  0.1641 -0.4501  0.3500
 1014MOL0     C39831   6.995   3.000   4.774  0.9296 -0.8530 -0.8518
 1014MOL0     C39832   7.092   3.107   4.766 -0.4010  0.1407 -0.0954
 1014MOL0     C39833   7.231   3.060   4.795  0.4641  0.1102 -0.2832
 1014MOL0     C39834   7.282   2.965   4.681 -0.4237  0.6197  0.4056
 1014MOL0     C39835   7.415   2.906   4.734  0.3466 -0.0583  0.1677
 1014MOL0     C39836   7.521   3.020   4.777  0.0226 -0.4373 -0.0084
 1014MOL0     C39837   7.670   2.978   4.789 -0.2412 -1.1720  0.0950
 1014MOL0     C39838   7.755   3.084   4.726 -0.2621  0.1601 -0.0421
 1014MOL0    Cl39839   7.751   3.230   4.816  0.0390 -0.0931  0.0174
 1014MOL0     C39840   6.747   2.851   4.815 -0.0346  0.0660 -0.3877
 1014MOL0     C39841   6.612   2.804   4.835  0.2460  0.2235 -0.1495
 1014MOL0     O39842   6.303   2.982   4.858  0.5051  0.5323 -0.0045
 1014MOL0     C39843   6.055   2.817   4.774  0.5100  0.7999 -0.2892
 1014MOL0     C39844   5.938   2.746   4.809  0.3038  0.7184  0.8621
 1014MOL0     N39845   5.477   2.332   5.289 -0.6367  0.2402  0.5214
 1014MOL0     N39846   5.413   2.328   5.403 -0.1277 -0.2463 -0.3943
 1014MOL0     C39847   4.546   2.970   6.199 -0.7241  1.1081  0.3884
 1014MOL0     C39848   4.450   3.064   6.190  0.3224 -1.5400  0.1024
 1014MOL0     C39849   4.203   3.396   5.982  0.4721 -0.3877 -0.7868
 1014MOL0     C39850   4.084   3.334   6.048 -0.6973 -0.0409  0.4628
 1014MOL0     C39851   3.959   3.357   6.001 -0.0635 -0.3315 -0.1420
 1014MOL0     C39852   3.936   3.434   5.885  0.3614 -0.0383  0.2719
 1014MOL0     O39853   3.814   3.462   5.833  0.2837  0.2665 -0.1660
 1014MOL0     C39854   3.729   3.346   5.826  0.0068  0.0017 -0.1056
 1014MOL0     C39855   3.622   3.404   5.742  0.2256 -0.0968 -0.3603
 1014MOL0     C39856   3.541   3.295   5.691 -0.7157 -0.0316 -0.7421
 1014MOL0     C39857   3.598   3.261   5.549 -0.5196 -0.0753  0.3705
 1014MOL0     C39858   3.494   3.190   5.471 -0.3492  0.1899 -0.1661
 1014MOL0     C39859   3.421   3.132   5.394 -0.3849 -0.0145 -0.3409
 1014MOL0     C39860   4.045   3.492   5.822  0.3152  0.2637 -0.1545
 1014MOL0     C39861   4.178   3.481   5.873 -0.2543  0.1402  0.8648
 1014MOL0     C39862   4.272   3.568   5.786 -0.3520 -0.7096 -0.3706
 1014MOL0     H39863   4.591   3.286   5.983 -1.2340 -0.3965  0.6081
 1014MOL0     H39864   4.789   3.149   6.017 -0.3453 -0.6082 -0.8635
 1014MOL0     H39865   4.969   2.837   6.156 -1.2575 -0.9875 -0.1860
 1014MOL0     H39866   4.917   2.976   6.052 -2.5285  1.0666  0.1333
 1014MOL0     H39867   4.834   2.678   6.046  0.4011 -1.3371 -1.1614
 1014MOL0     H39868   4.780   2.806   5.929 -0.3701 -1.2909  0.6644
 1014MOL0     H39869   5.003   2.813   5.839 -1.0084 -0.6064  0.0828
 1014MOL0     H39870   5.081   2.737   5.981  0.2794 -0.2340  0.6148
 1014MOL0     H39871   4.965   2.519   5.943 -0.8867  0.2993 -0.5711
 1014MOL0     H39872   4.912   2.583   5.787  1.2738 -0.7663 -1.5304
 1014MOL0     H39873   5.141   2.445   5.779  0.6534 -1.0492  2.4658
 1014MOL0     H39874   5.214   2.564   5.878  0.4078  2.0829  0.3068
 1014MOL0     H39875   5.071   2.655   5.621  0.3005 -1.8137 -1.3270
 1014MOL0     H39876   5.171   2.749   5.722 -0.0099  0.7178 -2.2778
 1014MOL0     H39877   5.363   2.600   5.678  0.9928  1.9506 -1.8861
 1014MOL0     H39878   5.293   2.682   5.547 -1.0815  0.6817 -0.2728
 1014MOL0     H39879   5.272   2.376   5.615 -1.6944 -1.4395 -2.5821
 1014MOL0     H39880   5.164   2.462   5.505  1.2883  2.2296 -1.2530
 1014MOL0     H39881   5.364   2.640   5.320 -1.5629 -0.9187  0.6567
 1014MOL0     H39882   5.554   2.612   5.108  2.8362 -1.7358 -0.8832
 1014MOL0     H39883   5.404   2.525   5.051  0.2193 -0.5690  0.7246
 1014MOL0     H39884   5.673   2.396   5.088 -1.2318 -1.0287  0.9919
 1014MOL0     H39885   5.531   2.314   5.036 -0.7425  0.5336  1.5872
 1014MOL0     H39886   5.722   2.350   4.880  1.1867  0.9084  0.3568
 1014MOL0     H39887   5.563   2.397   4.814 -0.1021 -2.3260  0.2670
 1014MOL0     H39888   5.738   2.568   4.748  0.3500 -0.5650 -0.2861
 1014MOL0     H39889   5.633   2.642   4.873 -0.7678 -1.3524 -0.0043
 1014MOL0     H39890   6.042   2.548   5.049 -1.1885  0.6192  0.7688
 1014MOL0     H39891   6.328   2.791   5.079 -0.1350  0.0753  0.6603
 1014MOL0     H39892   6.345   2.610   5.041 -1.6867 -1.1806 -1.0889
 1014MOL0     H39893   6.232   2.671   5.161 -1.8320  2.6861  0.1714
 1014MOL0     H39894   6.448   2.977   4.585  1.3456  1.4794 -1.2962
 1014MOL0     H39895   6.679   3.076   4.578  1.6580  0.6142  0.9458
 1014MOL0     H39896   6.982   2.994   4.882  1.7812  0.9177 -0.6148
 1014MOL0     H39897   7.018   2.898   4.743 -4.0990 -2.9907  1.2745
 1014MOL0     H39898   7.100   3.150   4.665 -0.1142  3.4188  1.2109
 1014MOL0     H39899   7.059   3.188   4.831 -0.8409 -2.7620  3.6435
 1014MOL0     H39900   7.228   3.005   4.889  1.3422  0.2605 -0.1519
 1014MOL0     H39901   7.297   3.148   4.799  1.0583 -0.3714  1.7830
 1014MOL0     H39902   7.295   3.008   4.581  0.2630 -1.5398 -0.5040
 1014MOL0     H39903   7.218   2.878   4.665  0.5577 -0.0434 -0.0098
 1014MOL0     H39904   7.389   2.859   4.829  0.7070  2.2307  1.4695
 1014MOL0     H39905   7.467   2.837   4.667  0.9286 -0.8900  1.4257
 1014MOL0     H39906   7.498   3.052   4.878 -3.1562  1.8576 -1.3194
 1014MOL0     H39907   7.491   3.099   4.708  0.9017  0.7830  0.9623
 1014MOL0     H39908   7.692   2.878   4.750 -1.7317 -0.9011 -1.5379
 1014MOL0     H39909   7.694   2.969   4.896 -3.3786 -0.1750  1.0108
 1014MOL0     H39910   7.720   3.102   4.624 -0.0639  2.6125  0.2681
 1014MOL0     H39911   7.856   3.042   4.728 -0.3535 -0.0481  1.1704
 1014MOL0     H39912   6.826   2.820   4.882 -0.0942  1.6988  0.5060
 1014MOL0     H39913   6.597   2.720   4.903  2.3889  0.6342  0.9168
 1014MOL0     H39914   6.043   2.875   4.683 -3.4130 -1.6490 -1.5411
 1014MOL0     H39915   5.849   2.783   4.760  1.1316  2.1327  0.3633
 1014MOL0     H39916   4.533   2.876   6.250 -0.2026 -1.2823 -3.5041
 1014MOL0     H39917   4.351   3.035   6.223 -0.3820 -0.6746 -1.1674
 1014MOL0     H39918   4.099   3.267   6.132 -0.5709  0.1050  0.5573
 1014MOL0     H39919   3.885   3.316   6.069  0.2530 -0.0356  0.3888
 1014MOL0     H39920   3.775   3.272   5.760 -0.2058  1.5466 -2.0709
 1014MOL0     H39921   3.703   3.307   5.925  1.0214 -1.0110 -0.2302
 1014MOL0     H39922   3.656   3.466   5.659  0.3465  1.2187  0.6514
 1014MOL0     H39923   3.557   3.460   5.810 -0.2829  0.4288 -1.2553
 1014MOL0     H39924   3.547   3.217   5.767 -1.4046  2.1692  1.7346
 1014MOL0     H39925   3.435   3.322   5.684 -0.8469  0.6846  2.5956
 1014MOL0     H39926   3.694   3.213   5.573 -1.0162 -0.1763  2.2938
 1014MOL0     H39927   3.620   3.352   5.493 -0.1617  0.8015  1.8802
 1014MOL0     H39928   3.363   3.086   5.317  2.2982 -0.5569 -2.1798
 1014MOL0     H39929   4.033   3.548   5.730  4.7125 -0.8445 -1.6548
 1014MOL0     H39930   4.330   3.518   5.708 -0.6886 -1.6826 -0.0131
 1014MOL0     H39931   4.227   3.658   5.744  0.1821 -0.5342 -0.5839
 1014MOL0     H39932   4.341   3.619   5.854  0.2285  1.1650 -2.2432
 1015MOL0     O39933  10.993   7.788   0.237 -0.1121 -0.5622  0.0738
 1015MOL0     C39934  10.891   7.809   0.171 -0.3560 -0.2166  0.0390
 1015MOL0     O39935  10.897   7.848   0.043 -0.1924 -0.0280  0.2934
 1015MOL0     C39936  11.015   7.853  -0.029 -0.5433 -0.8155  0.7056
 1015MOL0     C39937  11.148   7.859   0.009  0.3680  0.2018  0.0955
 1015MOL0     C39938  11.254   7.887  -0.076 -0.6382  0.0855  0.2865
 1015MOL0     C39939  11.227   7.901  -0.213 -0.9037  0.8271 -0.0515
 1015MOL0     O39940  11.325   7.905  -0.310 -0.3883 -0.1258 -0.2898
 1015MOL0     C39941  11.458   7.925  -0.281 -0.3209  0.3036 -1.4193
 1015MOL0     C39942  11.531   7.798  -0.258  0.7667  0.1772 -0.5473
 1015MOL0     C39943  11.672   7.832  -0.221 -0.3950 -0.0590  0.6209
 1015MOL0     C39944  11.684   7.856  -0.069 -0.6700  0.2464  0.3678
 1015MOL0     C39945  11.833   7.843  -0.015  0.4286  0.3130  0.2866
 1015MOL0     C39946  11.912   7.970  -0.040  0.8248  0.4575  0.3842
 1015MOL0     C39947  12.054   7.963   0.013 -0.9509  0.0197  0.8925
 1015MOL0     C39948  12.064   8.007   0.159  0.1362 -1.0685 -0.6498
 1015MOL0     N39949  12.035   8.147   0.186  0.3312  0.0893 -0.1396
 1015MOL0     C39950  11.918   8.187   0.243 -0.2337  0.8202 -0.5757
 1015MOL0     C39951  11.910   8.322   0.223  0.7625 -0.3826  0.3200
 1015MOL0     C39952  11.797   8.417   0.228 -0.3536 -0.8773  0.0510
 1015MOL0     C39953  11.656   8.350   0.237 -0.4191 -0.4901 -0.1127
 1015MOL0     C39954  11.555   8.463   0.217  0.3096 -0.7666 -0.6248
 1015MOL0     C39955  11.436   8.447   0.308  0.4130 -0.7519 -0.4342
 1015MOL0     O39956  11.461   8.460   0.452 -0.0995 -0.0301  0.2286
 1015MOL0     C39957  11.368   8.444   0.556 -0.0908 -0.6948 -0.5910
 1015MOL0     C39958  11.410   8.458   0.688  0.4590 -0.8868 -0.1029
 1015MOL0     C39959  11.323   8.418   0.792  1.2102 -0.1052 -0.0428
 1015MOL0     C39960  11.378   8.410   0.941 -0.0803 -1.0079 -0.2912
 1015MOL0     C39961  11.189   8.389   0.764  0.3671  0.7375 -0.7669
 1015MOL0     C39962  11.092   8.351   0.871  0.8673 -0.1660 -0.2044
 1015MOL0     O39963  10.993   8.259   0.834 -0.3648  0.7827 -0.5462
 1015MOL0     C39964  10.896   8.245   0.930  0.1404 -0.7956  0.1083
 1015MOL0     C39965  10.921   8.142   1.016 -0.1021 -0.2026 -0.0361
 1015MOL0     C39966  10.828   8.104   1.107 -0.3757  0.3610 -0.1944
 1015MOL0     C39967  10.709   8.177   1.120  0.4233  0.0655  0.4518
 1015MOL0     O39968  10.626   8.154   1.218 -0.5010  0.0823 -0.1381
 1015MOL0     C39969  10.604   8.032   1.288  0.7359  0.0030  0.2774
 1015MOL0     C39970  10.501   8.046   1.407 -0.0450 -0.0636  0.6292
 1015MOL0     C39971  10.556   8.132   1.529 -0.8801 -0.1356 -0.2605
 1015MOL0     C39972  10.465   8.110   1.652 -0.4227 -0.2318  0.8886
 1015MOL0     C39973  10.557   8.140   1.776  0.7051 -0.3333  0.2169
 1015MOL0     C39974  10.472   8.112   1.906  0.2095  0.0973  0.5830
 1015MOL0     C39975  10.522   7.994   2.001 -0.1242  0.2767 -0.8280
 1015MOL0     C39976  10.659   8.030   2.048 -0.1694 -0.7812 -0.2430
 1015MOL0    Cl39977  10.663   8.176   2.152  0.6298 -0.2255 -0.2118
 1015MOL0     C39978  10.689   8.288   1.035  0.7422  0.4406 -0.4311
 1015MOL0     C39979  10.785   8.328   0.944  0.1178 -0.8349  1.0386
 1015MOL0     O39980  11.079   8.422   0.973  0.0890  0.0415 -0.0213
 1015MOL0     C39981  11.151   8.369   0.631 -0.0691  0.7195  0.1898
 1015MOL0     C39982  11.239   8.391   0.527  0.1425  0.0939 -0.1364
 1015MOL0     N39983  12.024   8.364   0.158 -0.5302  0.0391 -0.1238
 1015MOL0     N39984  12.101   8.257   0.148  0.7932  0.0225 -0.5130
 1015MOL0     C39985  11.098   7.888  -0.261  0.1029 -0.1220 -0.5150
 1015MOL0     C39986  10.993   7.874  -0.168  0.0278 -0.5724  0.3189
 1015MOL0     C39987  10.756   7.794   0.225 -0.3794  0.0318  0.2151
 1015MOL0     C39988  10.653   7.835   0.125  0.4180 -0.0002 -1.1768
 1015MOL0     C39989  10.519   7.833   0.165  0.2904 -0.0049  0.1535
 1015MOL0     C39990  10.481   7.778   0.287  0.1272 -0.2774 -1.5039
 1015MOL0     O39991  10.352   7.795   0.318  0.3201 -0.2995  0.0898
 1015MOL0     C39992  10.286   7.738   0.427  1.3266  1.4683  0.0576
 1015MOL0     C39993  10.245   7.584   0.397  0.1759  0.1397 -0.0459
 1015MOL0     C39994  10.172   7.511   0.502  0.2725 -0.2148 -0.4141
 1015MOL0     C39995  10.245   7.525   0.645  0.9499 -0.4014 -0.2648
 1015MOL0     C39996  10.375   7.453   0.630 -0.0789  0.1969 -0.1862
 1015MOL0     C39997  10.472   7.390   0.598  0.3770 -0.2411 -0.5125
 1015MOL0     C39998  10.576   7.724   0.375 -0.3851 -0.2405  0.1112
 1015MOL0     C39999  10.713   7.731   0.346 -1.0036 -0.3473 -0.8980
 1015MOL0     C40000  10.814   7.660   0.433  0.2800  0.9314  0.9085
 1015MOL0     H40001  11.184   7.865   0.111  1.6207  2.7166 -0.4060
 1015MOL0     H40002  11.357   7.874  -0.044  0.4268 -1.6150 -3.2866
 1015MOL0     H40003  11.474   7.996  -0.198  1.6645  0.5429 -1.9369
 1015MOL0     H40004  11.516   7.962  -0.367  0.0124  2.1128 -0.4700
 1015MOL0     H40005  11.476   7.744  -0.181 -0.5193 -0.4411 -1.8369
 1015MOL0     H40006  11.521   7.735  -0.347 -2.7761 -1.4134  0.7761
 1015MOL0     H40007  11.734   7.748  -0.254  0.0471 -0.2416  1.8714
 1015MOL0     H40008  11.702   7.921  -0.278 -0.9372 -1.3847 -1.9095
 1015MOL0     H40009  11.638   7.954  -0.053 -5.1755 -1.7689  1.4317
 1015MOL0     H40010  11.630   7.788  -0.003  0.9901  3.1410  5.2222
 1015MOL0     H40011  11.888   7.770  -0.074  0.9034  0.0941  0.9814
 1015MOL0     H40012  11.831   7.818   0.092  1.9161 -0.4583  0.1540
 1015MOL0     H40013  11.914   8.002  -0.144  1.0927 -2.5249 -0.6210
 1015MOL0     H40014  11.856   8.046   0.016  2.1722  1.9734 -0.2721
 1015MOL0     H40015  12.118   8.040  -0.030 -0.7724 -0.6499 -0.0953
 1015MOL0     H40016  12.103   7.867  -0.008  0.2975  1.1646 -1.9658
 1015MOL0     H40017  12.001   7.936   0.213 -0.4142 -1.2009 -1.4515
 1015MOL0     H40018  12.166   7.977   0.188  0.8501  1.0309 -0.8289
 1015MOL0     H40019  11.844   8.130   0.298 -0.1825 -0.5372 -1.8533
 1015MOL0     H40020  11.806   8.487   0.145 -2.3344  2.5850  2.5065
 1015MOL0     H40021  11.794   8.483   0.315 -2.9033  1.4152 -1.6139
 1015MOL0     H40022  11.634   8.285   0.152  1.0504 -1.7435  0.4318
 1015MOL0     H40023  11.646   8.300   0.334 -1.0944  0.8137  0.5256
 1015MOL0     H40024  11.601   8.562   0.224 -2.9036  0.7127  2.1021
 1015MOL0     H40025  11.515   8.463   0.116  1.2195 -1.9716 -1.0179
 1015MOL0     H40026  11.358   8.517   0.279  1.9854  1.5683  0.6429
 1015MOL0     H40027  11.404   8.342   0.305  2.4164 -1.3978 -1.8844
 1015MOL0     H40028  11.514   8.485   0.704 -0.3547  1.8189  1.3974
 1015MOL0     H40029  11.467   8.471   0.952 -1.0550  0.2353  0.9289
 1015MOL0     H40030  11.391   8.303   0.960 -0.2057 -0.8829  0.5308
 1015MOL0     H40031  11.302   8.447   1.010  0.2024  0.3929 -0.6955
 1015MOL0     H40032  11.005   8.076   0.997  0.6662  0.8776 -0.4636
 1015MOL0     H40033  10.853   8.019   1.169  1.4349  1.9539  1.3812
 1015MOL0     H40034  10.576   7.961   1.210  1.8887  0.8887 -0.9920
 1015MOL0     H40035  10.695   7.995   1.336  0.6170 -0.3626  0.2242
 1015MOL0     H40036  10.406   8.085   1.368  1.1132  1.6966 -0.5585
 1015MOL0     H40037  10.490   7.945   1.446 -3.7372  0.6110  1.7900
 1015MOL0     H40038  10.566   8.239   1.508 -1.8185 -0.0893 -0.5364
 1015MOL0     H40039  10.663   8.117   1.545 -0.7169  1.2010  0.0225
 1015MOL0     H40040  10.431   8.007   1.670  1.0464 -0.4072  3.1883
 1015MOL0     H40041  10.380   8.176   1.635 -0.0001  0.5913  1.8189
 1015MOL0     H40042  10.633   8.061   1.771  1.1479  0.1538 -1.5686
 1015MOL0     H40043  10.608   8.237   1.775 -1.7446  1.1429 -3.3550
 1015MOL0     H40044  10.372   8.083   1.874  0.4908 -0.0198 -0.2148
 1015MOL0     H40045  10.464   8.202   1.968 -0.2282 -1.5589  3.0845
 1015MOL0     H40046  10.524   7.895   1.953 -3.3957 -1.7187  2.6165
 1015MOL0     H40047  10.457   7.965   2.084  2.2871 -2.2357  0.3378
 1015MOL0     H40048  10.729   8.057   1.968 -4.2541  1.4426 -3.4141
 1015MOL0     H40049  10.702   7.940   2.093 -0.6372 -1.0055 -0.2457
 1015MOL0     H40050  10.597   8.342   1.052  1.9098  2.3253  0.2231
 1015MOL0     H40051  10.794   8.425   0.897 -0.3340  0.3361  3.2199
 1015MOL0     H40052  11.051   8.330   0.616  0.5841 -1.8104  1.8790
 1015MOL0     H40053  11.212   8.372   0.423 -0.6041  2.2844 -0.4102
 1015MOL0     H40054  11.062   7.882  -0.363 -1.9716  2.5922 -0.0804
 1015MOL0     H40055  10.895   7.871  -0.213  0.1740  2.5871 -0.4635
 1015MOL0     H40056  10.690   7.879   0.033  0.7072  0.2627 -0.9386
 1015MOL0     H40057  10.453   7.878   0.091  0.8021 -0.5990 -0.6849
 1015MOL0     H40058  10.352   7.752   0.513 -1.8824 -0.4141  3.1174
 1015MOL0     H40059  10.194   7.791   0.454  0.9983  0.8710  0.1428
 1015MOL0     H40060  10.337   7.530   0.371 -0.4572 -0.8503 -0.2779
 1015MOL0     H40061  10.187   7.578   0.304  1.6591  4.3275 -1.4635
 1015MOL0     H40062  10.066   7.535   0.511  0.1864 -0.8799  0.5924
 1015MOL0     H40063  10.172   7.403   0.484  0.4045 -1.0298  3.5570
 1015MOL0     H40064  10.175   7.496   0.725 -0.1245 -0.7944 -1.3270
 1015MOL0     H40065  10.255   7.634   0.654 -1.2043 -0.2202  0.7002
 1015MOL0     H40066  10.539   7.325   0.545 -3.0552 -1.6363 -3.5923
 1015MOL0     H40067  10.557   7.675   0.470 -0.3161 -0.5167 -0.0181
 1015MOL0     H40068  10.869   7.732   0.494  2.1317 -0.9240  1.5656
 1015MOL0     H40069  10.764   7.591   0.503  2.9698 -1.9729  0.2058
 1015MOL0     H40070  10.885   7.591   0.386 -1.1565 -0.1121  0.1850
 1016MOL0     O40071   4.380  11.373   2.495 -0.3132  0.2180 -0.3446
 1016MOL0     C40072   4.313  11.467   2.468  0.1818 -0.1825  0.4775
 1016MOL0     O40073   4.306  11.581   2.538  0.3002  0.9508  0.9133
 1016MOL0     C40074   4.365  11.597   2.657  0.5047  0.4143  0.2005
 1016MOL0     C40075   4.413  11.725   2.691  0.3243  0.5814  0.2228
 1016MOL0     C40076   4.480  11.735   2.811 -0.7910  0.1487 -0.1071
 1016MOL0     C40077   4.491  11.624   2.899 -0.3027  0.4631  0.0855
 1016MOL0     O40078   4.573  11.623   3.009  0.2713 -0.2147  0.9417
 1016MOL0     C40079   4.572  11.744   3.085 -0.7069 -0.4410 -0.4586
 1016MOL0     C40080   4.618  11.712   3.225  0.0596 -0.6196 -0.4754
 1016MOL0     C40081   4.763  11.648   3.220 -0.2884 -0.1485  0.0953
 1016MOL0     C40082   4.830  11.642   3.362  0.0625 -0.3513  0.2871
 1016MOL0     C40083   4.947  11.551   3.366 -0.1793 -0.4019 -0.0001
 1016MOL0     C40084   5.013  11.542   3.506 -0.1359  0.0512  0.2047
 1016MOL0     C40085   5.132  11.450   3.517 -0.5826 -0.0222 -1.1248
 1016MOL0     C40086   5.157  11.425   3.673  0.1117 -0.2044 -0.0301
 1016MOL0     N40087   5.293  11.363   3.686 -0.8091 -0.1201 -0.1554
 1016MOL0     C40088   5.336  11.233   3.680  0.3756 -0.0988 -0.4518
 1016MOL0     C40089   5.468  11.242   3.690  0.3232 -0.1949  0.1503
 1016MOL0     C40090   5.562  11.127   3.673  0.1329 -0.0157  1.0158
 1016MOL0     C40091   5.576  11.079   3.531 -0.5890 -0.2286 -0.4276
 1016MOL0     C40092   5.665  10.948   3.525  0.2619 -0.6675  0.0732
 1016MOL0     C40093   5.802  10.967   3.598  0.4765 -0.3658  1.0515
 1016MOL0     O40094   5.877  11.075   3.535 -1.3087 -0.2135  0.0011
 1016MOL0     C40095   6.014  11.083   3.568 -0.0861 -0.1607  0.6171
 1016MOL0     C40096   6.108  11.133   3.480  0.6028 -0.5508  0.3879
 1016MOL0     C40097   6.245  11.139   3.503  0.2426  0.6667  0.1371
 1016MOL0     C40098   6.338  11.178   3.388 -0.2556  0.5799  0.6263
 1016MOL0     C40099   6.288  11.081   3.631 -0.0006  0.1816  0.1676
 1016MOL0     C40100   6.431  11.071   3.667  0.3255  0.0277  0.2125
 1016MOL0     O40101   6.458  10.979   3.755 -0.6031 -0.3293  0.5444
 1016MOL0     C40102   6.592  10.972   3.795 -0.1610 -0.3427 -1.1058
 1016MOL0     C40103   6.629  11.046   3.911  1.1340 -0.4235  0.2707
 1016MOL0     C40104   6.752  11.038   3.961  0.3077  0.5849 -0.0205
 1016MOL0     C40105   6.857  10.982   3.893 -0.1841 -0.8019  1.0287
 1016MOL0     O40106   6.980  10.995   3.947 -0.0843  0.4023 -0.4443
 1016MOL0     C40107   7.030  11.131   3.967 -0.4376 -1.3237  0.8972
 1016MOL0     C40108   7.179  11.155   4.007  0.3532 -0.3133 -0.6279
 1016MOL0     C40109   7.272  11.136   3.885  0.7910  0.1323 -0.1687
 1016MOL0     C40110   7.413  11.205   3.917 -1.0957 -0.0176  0.3261
 1016MOL0     C40111   7.529  11.142   3.841 -0.3280 -0.4104  1.0587
 1016MOL0     C40112   7.667  11.217   3.867 -0.0263  0.1838  0.6703
 1016MOL0     C40113   7.778  11.126   3.812 -0.7505 -0.1592 -0.1516
 1016MOL0     C40114   7.912  11.197   3.819 -0.1969 -0.4377 -0.5320
 1016MOL0    Cl40115   8.037  11.104   3.735 -0.2818 -0.4028  0.0498
 1016MOL0     C40116   6.827  10.903   3.772 -0.6798  0.5366  0.3413
 1016MOL0     C40117   6.692  10.902   3.732  0.6562 -0.2780  0.5648
 1016MOL0     O40118   6.510  11.155   3.629  0.0142 -0.2643  0.8341
 1016MOL0     C40119   6.194  11.050   3.732 -0.1977  0.9044  0.4958
 1016MOL0     C40120   6.062  11.037   3.691 -0.0401  0.1122 -0.7544
 1016MOL0     N40121   5.496  11.380   3.697  0.2575  0.0828 -0.0166
 1016MOL0     N40122   5.393  11.455   3.691  0.7927 -0.1149  0.2232
 1016MOL0     C40123   4.441  11.498   2.871 -0.1858  0.0097 -0.0718
 1016MOL0     C40124   4.362  11.489   2.750 -0.9226  0.3472  0.0907
 1016MOL0     C40125   4.230  11.456   2.344  1.2147 -0.5976  0.7991
 1016MOL0     C40126   4.139  11.558   2.314  0.5485 -0.6188 -0.8486
 1016MOL0     C40127   4.044  11.550   2.209 -0.4298  0.4074 -0.8728
 1016MOL0     C40128   4.041  11.442   2.123 -0.2949 -0.0990 -0.9292
 1016MOL0     O40129   3.956  11.430   2.023  0.2170 -0.4555  0.1483
 1016MOL0     C40130   3.986  11.528   1.924  1.3868 -0.6089  0.3432
 1016MOL0     C40131   3.886  11.514   1.809  1.0817  1.1522  0.5497
 1016MOL0     C40132   3.748  11.532   1.864  0.3146  0.3969  0.0400
 1016MOL0     C40133   3.705  11.682   1.881 -0.4880  0.0163 -0.1872
 1016MOL0     C40134   3.564  11.711   1.898 -0.1885  0.0575 -0.4376
 1016MOL0     C40135   3.447  11.741   1.891 -0.7000  0.0809 -0.2871
 1016MOL0     C40136   4.138  11.341   2.141  0.0473  0.2223 -0.4932
 1016MOL0     C40137   4.234  11.355   2.248  0.0768  0.3453 -0.6746
 1016MOL0     C40138   4.332  11.242   2.255 -1.1100 -0.3953  0.4377
 1016MOL0     H40139   4.411  11.806   2.619 -1.0366  0.8251  0.5251
 1016MOL0     H40140   4.523  11.830   2.842  0.6165 -0.6906  0.6673
 1016MOL0     H40141   4.473  11.790   3.079  0.8454  3.0874 -2.0258
 1016MOL0     H40142   4.642  11.818   3.045 -0.5958 -0.7791 -0.9019
 1016MOL0     H40143   4.613  11.796   3.295 -2.7840 -3.2916  2.8973
 1016MOL0     H40144   4.565  11.636   3.283 -0.3200  0.1070  0.1517
 1016MOL0     H40145   4.754  11.542   3.194  0.2426 -0.2193  0.1963
 1016MOL0     H40146   4.823  11.686   3.137 -1.6589 -0.1521 -0.9377
 1016MOL0     H40147   4.873  11.730   3.411 -0.7876 -1.4724  3.2535
 1016MOL0     H40148   4.748  11.611   3.428 -0.2847  0.1739  0.1074
 1016MOL0     H40149   5.020  11.573   3.288 -0.7313 -0.7515 -0.6246
 1016MOL0     H40150   4.902  11.452   3.351 -3.1213  0.8105  0.2105
 1016MOL0     H40151   5.049  11.642   3.527  0.3403 -0.1812  0.5026
 1016MOL0     H40152   4.933  11.512   3.574  1.5374 -3.4101  0.8640
 1016MOL0     H40153   5.232  11.483   3.488  1.0797 -2.1343  1.7331
 1016MOL0     H40154   5.109  11.356   3.467 -0.7343 -0.8364  0.4115
 1016MOL0     H40155   5.160  11.520   3.727 -0.3957  0.3723 -0.9862
 1016MOL0     H40156   5.085  11.354   3.716  2.2654 -3.8793 -1.9862
 1016MOL0     H40157   5.296  11.133   3.680 -0.0362  0.0652 -0.3612
 1016MOL0     H40158   5.529  11.046   3.738 -0.0958  1.4520  2.8080
 1016MOL0     H40159   5.660  11.169   3.699 -0.1873  0.2529  1.8174
 1016MOL0     H40160   5.475  11.058   3.494 -0.9334  0.3188  0.1810
 1016MOL0     H40161   5.610  11.157   3.463 -0.0773 -0.0960 -0.0238
 1016MOL0     H40162   5.622  10.853   3.559  0.5774 -1.9184 -2.7435
 1016MOL0     H40163   5.667  10.927   3.418 -6.4920  0.1896 -0.6773
 1016MOL0     H40164   5.787  10.986   3.705  0.1536  1.0264  0.7835
 1016MOL0     H40165   5.857  10.875   3.579  1.6832  0.9163 -2.6679
 1016MOL0     H40166   6.072  11.168   3.384  0.4175  0.6599  0.8861
 1016MOL0     H40167   6.358  11.285   3.400 -2.8663  0.9482  2.5476
 1016MOL0     H40168   6.287  11.152   3.295  2.5756 -1.0888 -0.5887
 1016MOL0     H40169   6.422  11.108   3.398 -1.0868 -0.1955  2.8597
 1016MOL0     H40170   6.559  11.110   3.964  1.4975 -0.4486  0.7850
 1016MOL0     H40171   6.766  11.088   4.056  0.4531  2.0099 -0.7678
 1016MOL0     H40172   7.023  11.193   3.877  3.7739 -1.2171  0.4171
 1016MOL0     H40173   6.976  11.175   4.051 -0.0164 -1.0186  1.0159
 1016MOL0     H40174   7.182  11.260   4.036  3.1660  0.0303 -1.8363
 1016MOL0     H40175   7.218  11.093   4.089  3.1721  3.0403  0.8085
 1016MOL0     H40176   7.232  11.169   3.789 -0.2700 -1.8983 -0.4754
 1016MOL0     H40177   7.291  11.029   3.875  1.4024  0.0207  1.7111
 1016MOL0     H40178   7.431  11.205   4.025 -2.2506  2.3173  0.5688
 1016MOL0     H40179   7.405  11.311   3.894  2.1414  0.6713  1.7872
 1016MOL0     H40180   7.538  11.036   3.867 -0.2776 -0.5815  0.3491
 1016MOL0     H40181   7.521  11.154   3.733  1.7582 -1.1942  0.7746
 1016MOL0     H40182   7.677  11.233   3.975  0.8689  0.8992  0.4907
 1016MOL0     H40183   7.663  11.313   3.816 -1.3446 -1.0742 -1.7575
 1016MOL0     H40184   7.769  11.102   3.705 -2.4496 -0.7630  0.1063
 1016MOL0     H40185   7.768  11.030   3.863  0.3815 -1.1537 -1.6962
 1016MOL0     H40186   7.933  11.211   3.925  0.1394 -1.4474 -0.4515
 1016MOL0     H40187   7.902  11.299   3.781  0.3241 -0.2702 -0.2331
 1016MOL0     H40188   6.909  10.847   3.728 -1.3640 -0.2960  0.1043
 1016MOL0     H40189   6.668  10.853   3.639  1.9690  0.1220 -0.0155
 1016MOL0     H40190   6.243  11.017   3.823  2.1248 -0.2761 -1.0829
 1016MOL0     H40191   5.998  11.010   3.775  1.4588  2.0253  1.1138
 1016MOL0     H40192   4.459  11.422   2.947  2.6713  1.5344  0.9053
 1016MOL0     H40193   4.319  11.392   2.728  1.9156 -0.8515 -0.4989
 1016MOL0     H40194   4.121  11.638   2.385 -0.6099 -1.9626  0.4362
 1016MOL0     H40195   3.961  11.621   2.211  1.1370  2.3040 -0.7731
 1016MOL0     H40196   3.981  11.629   1.966  1.2204 -0.1076 -0.8403
 1016MOL0     H40197   4.089  11.519   1.887  1.8082 -0.1414  1.3864
 1016MOL0     H40198   3.903  11.412   1.773  0.0750  0.8801  0.8106
 1016MOL0     H40199   3.911  11.583   1.728  1.3741 -0.0229 -0.3923
 1016MOL0     H40200   3.668  11.491   1.801 -1.7424  1.5771  1.7411
 1016MOL0     H40201   3.723  11.476   1.955  1.3818 -3.5295 -1.8358
 1016MOL0     H40202   3.744  11.743   1.799  2.0132  0.3967  1.1789
 1016MOL0     H40203   3.765  11.716   1.965  1.6881  3.5444 -2.8886
 1016MOL0     H40204   3.354  11.792   1.902 -0.2525  1.6436 -2.7894
 1016MOL0     H40205   4.144  11.255   2.075 -0.1128  0.8043 -1.2945
 1016MOL0     H40206   4.314  11.171   2.336  1.6822 -1.1540  0.4881
 1016MOL0     H40207   4.333  11.182   2.163  2.1224 -1.8190  1.2536
 1016MOL0     H40208   4.433  11.283   2.262  0.3154 -3.3751 -0.7652
 1017MOL0     O40209   7.438   7.217   4.965 -0.9010 -0.7663 -0.4000
 1017MOL0     C40210   7.519   7.281   4.897 -0.0895  0.3011 -0.4559
 1017MOL0     O40211   7.522   7.420   4.873  0.3691  0.6104 -0.1881
 1017MOL0     C40212   7.403   7.490   4.907 -0.3218  0.2320  0.0549
 1017MOL0     C40213   7.343   7.555   4.803 -0.0134  0.9371  0.0359
 1017MOL0     C40214   7.217   7.617   4.822  0.6456  0.3873 -0.9217
 1017MOL0     C40215   7.136   7.606   4.943  0.2824  0.2127  0.4332
 1017MOL0     O40216   7.011   7.656   4.956 -0.3033 -0.3151  0.8361
 1017MOL0     C40217   6.942   7.732   4.852 -0.7332 -0.8587  0.2688
 1017MOL0     C40218   6.824   7.813   4.910 -0.8320  0.1376 -0.1100
 1017MOL0     C40219   6.694   7.738   4.912 -1.0332 -0.5162 -0.3470
 1017MOL0     C40220   6.707   7.619   5.006  0.9612 -0.1075 -0.7352
 1017MOL0     C40221   6.562   7.595   5.069 -0.3496  0.7381 -0.7862
 1017MOL0     C40222   6.584   7.516   5.200 -0.3092  0.3577 -0.1138
 1017MOL0     C40223   6.457   7.457   5.262 -0.2228 -0.3713  0.0135
 1017MOL0     C40224   6.380   7.364   5.166  0.3334  0.5153  0.2284
 1017MOL0     N40225   6.442   7.233   5.148  0.5821 -0.0094  0.6037
 1017MOL0     C40226   6.525   7.212   5.045  0.4050 -0.9732 -0.3437
 1017MOL0     C40227   6.546   7.082   5.040 -0.6865  0.6131 -0.1598
 1017MOL0     C40228   6.639   7.006   4.952 -0.8695 -0.1432 -0.4089
 1017MOL0     C40229   6.602   6.863   4.900  0.0493 -0.1818 -0.0337
 1017MOL0     C40230   6.705   6.787   4.818  0.5528 -0.1397  0.4405
 1017MOL0     C40231   6.677   6.640   4.797 -0.5053  1.0786 -0.0830
 1017MOL0     O40232   6.691   6.575   4.930 -0.0327 -0.7754 -0.2479
 1017MOL0     C40233   6.600   6.474   4.941 -0.4637 -0.0958  0.0838
 1017MOL0     C40234   6.539   6.405   4.839  0.0763  0.9301  0.0875
 1017MOL0     C40235   6.430   6.320   4.868  0.5925  0.3128  1.0276
 1017MOL0     C40236   6.372   6.251   4.748 -1.0308 -0.5239 -0.0522
 1017MOL0     C40237   6.394   6.287   5.000  1.1086 -0.0162 -0.3493
 1017MOL0     C40238   6.283   6.189   5.034  0.8002 -0.5475  0.1353
 1017MOL0     O40239   6.258   6.082   4.950 -0.0270 -0.0290  0.5423
 1017MOL0     C40240   6.166   5.983   4.972  0.0875 -0.8810 -0.3209
 1017MOL0     C40241   6.091   5.950   4.868  0.1671 -0.4966  0.1523
 1017MOL0     C40242   5.998   5.843   4.881 -0.5835 -0.1916 -0.4845
 1017MOL0     C40243   5.980   5.772   4.997  0.7011  0.7477 -0.1100
 1017MOL0     O40244   5.881   5.677   4.999 -0.5743 -0.0459 -0.0646
 1017MOL0     C40245   5.868   5.589   5.113  0.3617  0.4854 -0.5178
 1017MOL0     C40246   5.739   5.507   5.106  0.5483 -0.0676  0.4785
 1017MOL0     C40247   5.606   5.584   5.076  0.8721 -0.2320  0.2128
 1017MOL0     C40248   5.483   5.496   5.068  0.2294  0.3638 -0.7787
 1017MOL0     C40249   5.360   5.568   5.026  0.5438  0.1546  0.4883
 1017MOL0     C40250   5.254   5.461   5.014 -0.3879  0.5219 -0.1691
 1017MOL0     C40251   5.126   5.522   4.957  0.8276  0.1021 -0.0441
 1017MOL0     C40252   4.999   5.430   4.963  0.1004 -0.7783  0.5485
 1017MOL0    Cl40253   4.955   5.383   5.120 -0.3234 -0.0597 -0.0494
 1017MOL0     C40254   6.071   5.801   5.104 -0.0459  0.1274  0.3449
 1017MOL0     C40255   6.166   5.903   5.086  0.9407  0.3318 -0.2799
 1017MOL0     O40256   6.224   6.202   5.138  0.1086  0.8225  0.0891
 1017MOL0     C40257   6.462   6.354   5.099  0.4370  0.2004 -0.5585
 1017MOL0     C40258   6.576   6.438   5.066  0.4789 -0.1055  0.4329
 1017MOL0     N40259   6.479   7.022   5.148 -0.1331 -0.5778  0.1172
 1017MOL0     N40260   6.410   7.114   5.208 -0.0700 -0.6714 -0.1191
 1017MOL0     C40261   7.205   7.531   5.041 -0.0576  0.4812 -0.2464
 1017MOL0     C40262   7.336   7.482   5.027  0.2737  0.4232 -0.0265
 1017MOL0     C40263   7.643   7.203   4.867  0.6432 -0.0244  0.4307
 1017MOL0     C40264   7.682   7.103   4.951  0.2819 -0.1931 -0.1525
 1017MOL0     C40265   7.799   7.026   4.934 -0.6290  1.4788 -0.4948
 1017MOL0     C40266   7.877   7.037   4.820 -0.1162  0.6279  0.1710
 1017MOL0     O40267   7.998   6.975   4.815  0.2625 -0.1670  0.4160
 1017MOL0     C40268   8.017   6.884   4.703 -0.1611  0.4379  0.3273
 1017MOL0     C40269   7.924   6.766   4.701  0.1771 -0.7524 -0.5013
 1017MOL0     C40270   7.912   6.698   4.569 -0.3659  0.1953 -0.5095
 1017MOL0     C40271   7.799   6.592   4.555 -0.1010 -0.3795  0.2064
 1017MOL0     C40272   7.808   6.525   4.423 -0.3109 -0.0267 -0.7338
 1017MOL0     C40273   7.812   6.453   4.326  0.5822 -0.4589  0.0307
 1017MOL0     C40274   7.842   7.133   4.724 -0.1098  1.0966 -0.3312
 1017MOL0     C40275   7.728   7.218   4.750  0.1095 -0.3097 -0.3646
 1017MOL0     C40276   7.705   7.324   4.644 -0.1418 -0.2045 -0.3593
 1017MOL0     H40277   7.390   7.558   4.705 -1.6668  1.2668 -0.7689
 1017MOL0     H40278   7.179   7.680   4.743 -0.2536 -0.7082 -1.3876
 1017MOL0     H40279   6.910   7.661   4.775  1.5620 -1.7189  0.0370
 1017MOL0     H40280   7.000   7.810   4.802 -0.5226  0.3661  2.3069
 1017MOL0     H40281   6.850   7.834   5.014  1.6999  0.4749 -0.7345
 1017MOL0     H40282   6.808   7.906   4.853  1.6164  0.3346 -0.5929
 1017MOL0     H40283   6.609   7.803   4.937 -0.9148 -1.4225  2.8859
 1017MOL0     H40284   6.678   7.705   4.809  0.6405 -0.0112 -0.8015
 1017MOL0     H40285   6.747   7.530   4.956  2.8036 -0.7347  1.6747
 1017MOL0     H40286   6.781   7.638   5.085 -1.2045  2.9973  0.7552
 1017MOL0     H40287   6.498   7.550   4.993 -1.1455 -3.2631  1.9743
 1017MOL0     H40288   6.529   7.695   5.099  3.0247  1.7118  0.1709
 1017MOL0     H40289   6.647   7.430   5.175 -1.0854 -0.8864  2.0057
 1017MOL0     H40290   6.628   7.588   5.269 -0.0011  0.7879 -0.7418
 1017MOL0     H40291   6.384   7.537   5.280 -1.1155 -0.4902 -2.7477
 1017MOL0     H40292   6.471   7.402   5.356  1.0207 -0.4902 -0.2267
 1017MOL0     H40293   6.285   7.338   5.214 -0.5973  0.1647 -1.6818
 1017MOL0     H40294   6.349   7.416   5.075 -0.2364 -0.8113 -0.3767
 1017MOL0     H40295   6.566   7.291   4.983 -0.6397  0.7153  1.0594
 1017MOL0     H40296   6.728   6.983   5.011 -1.3777 -2.7866 -0.5511
 1017MOL0     H40297   6.666   7.074   4.871 -3.7794 -0.1031 -1.4813
 1017MOL0     H40298   6.573   6.804   4.987 -0.2233  0.2331  0.1606
 1017MOL0     H40299   6.520   6.876   4.829  0.8918  0.2163 -0.9554
 1017MOL0     H40300   6.719   6.826   4.717  1.0398 -2.2365 -0.3704
 1017MOL0     H40301   6.806   6.801   4.858  1.2320  2.5883 -1.9093
 1017MOL0     H40302   6.574   6.632   4.761 -0.7377 -0.4943  0.8611
 1017MOL0     H40303   6.741   6.593   4.722 -1.8100  0.2477 -0.7084
 1017MOL0     H40304   6.557   6.413   4.732 -1.3732  1.5581 -0.1418
 1017MOL0     H40305   6.385   6.311   4.658 -0.7066  2.6810  1.9966
 1017MOL0     H40306   6.265   6.234   4.759 -1.0092  0.7348  3.4774
 1017MOL0     H40307   6.424   6.155   4.740  2.8664  0.7310  4.9023
 1017MOL0     H40308   6.107   6.014   4.782  1.5708  2.4029  2.3776
 1017MOL0     H40309   5.925   5.827   4.802 -0.4812 -1.6958 -0.2889
 1017MOL0     H40310   5.962   5.535   5.127 -0.7150 -1.2167  0.5449
 1017MOL0     H40311   5.869   5.657   5.198 -2.3229  1.4111 -1.1153
 1017MOL0     H40312   5.755   5.438   5.022  1.1520  0.6907 -0.0423
 1017MOL0     H40313   5.740   5.446   5.197  2.6414  0.3846  0.8057
 1017MOL0     H40314   5.614   5.623   4.974  0.4272  3.6586  1.5140
 1017MOL0     H40315   5.605   5.663   5.151  1.8071 -0.5168  0.5427
 1017MOL0     H40316   5.459   5.445   5.162 -1.5840 -1.6994 -2.2535
 1017MOL0     H40317   5.516   5.416   5.000  1.2408 -0.2983  0.4463
 1017MOL0     H40318   5.339   5.639   5.106 -0.6184  1.3122 -0.7717
 1017MOL0     H40319   5.360   5.621   4.930 -0.8906  1.5572  1.2116
 1017MOL0     H40320   5.246   5.421   5.115  0.3979 -0.3629 -0.4365
 1017MOL0     H40321   5.283   5.381   4.944 -0.2890 -0.8851  1.4247
 1017MOL0     H40322   5.138   5.558   4.854 -0.4693  0.7479  0.0147
 1017MOL0     H40323   5.094   5.609   5.015  0.4045 -0.8382  1.1534
 1017MOL0     H40324   5.018   5.338   4.906  2.7537 -0.1817  0.3181
 1017MOL0     H40325   4.922   5.498   4.925  0.4575  1.2728  3.1786
 1017MOL0     H40326   6.065   5.754   5.202  0.0553  0.0848  0.3304
 1017MOL0     H40327   6.234   5.917   5.169  0.7524 -0.6601  0.0557
 1017MOL0     H40328   6.427   6.351   5.202 -0.8078  0.0907 -0.9677
 1017MOL0     H40329   6.616   6.501   5.145 -1.2679  0.3636  0.9983
 1017MOL0     H40330   7.151   7.496   5.128 -0.0322 -0.3627 -0.5600
 1017MOL0     H40331   7.381   7.419   5.103 -1.1704 -1.9391 -1.0247
 1017MOL0     H40332   7.624   7.065   5.035  1.9734  0.7828  1.5481
 1017MOL0     H40333   7.830   6.951   5.006 -0.4000  1.1030 -0.9723
 1017MOL0     H40334   8.016   6.943   4.612 -0.0493  0.4654  0.3435
 1017MOL0     H40335   8.116   6.838   4.711 -0.3796 -0.0105  0.4956
 1017MOL0     H40336   7.824   6.799   4.732  1.6805  2.3596  1.5802
 1017MOL0     H40337   7.959   6.694   4.776 -0.7346  0.4453  1.1508
 1017MOL0     H40338   7.892   6.779   4.498 -1.3613  0.7562  0.3860
 1017MOL0     H40339   7.999   6.643   4.531  0.9529  2.1341 -0.4115
 1017MOL0     H40340   7.712   6.658   4.558 -1.4022 -2.0816  1.9065
 1017MOL0     H40341   7.782   6.525   4.640 -2.5150 -1.2083 -0.8610
 1017MOL0     H40342   7.806   6.407   4.229  0.2820  0.8866 -0.6210
 1017MOL0     H40343   7.901   7.131   4.632 -0.0343 -0.2175 -0.2708
 1017MOL0     H40344   7.796   7.337   4.583 -1.3437 -0.7276 -2.3469
 1017MOL0     H40345   7.620   7.297   4.581 -2.2347  2.0508  1.3202
 1017MOL0     H40346   7.695   7.425   4.685  1.9275 -0.1274  0.0959
 1018MOL0     O40347   3.158   3.568   9.677 -0.0482 -0.1085 -0.3943
 1018MOL0     C40348   3.089   3.656   9.632 -0.8181 -0.3517  0.2790
 1018MOL0     O40349   3.125   3.785   9.608 -0.1163 -0.0110  0.0391
 1018MOL0     C40350   3.205   3.839   9.706 -0.7062  0.5034 -0.0010
 1018MOL0     C40351   3.157   3.895   9.825 -0.4086 -1.0451 -0.3521
 1018MOL0     C40352   3.249   3.958   9.904 -0.3497 -0.2341 -0.6173
 1018MOL0     C40353   3.388   3.967   9.871 -0.1238 -0.3138 -1.0325
 1018MOL0     O40354   3.487   4.036   9.941  0.2370 -0.4678 -0.0547
 1018MOL0     C40355   3.516   3.963  10.064  0.0457  0.5743  0.2307
 1018MOL0     C40356   3.668   3.950  10.082 -0.2513  0.5030 -0.1785
 1018MOL0     C40357   3.746   4.087  10.092 -0.6091  0.3804 -0.1771
 1018MOL0     C40358   3.888   4.060  10.022 -0.4031 -0.2134  0.1082
 1018MOL0     C40359   3.987   4.131  10.110 -0.0401  0.1008 -0.0949
 1018MOL0     C40360   4.123   4.086  10.069 -0.7536 -0.6787 -0.0142
 1018MOL0     C40361   4.234   4.200  10.105  0.0290  1.2544 -0.3722
 1018MOL0     C40362   4.243   4.312  10.000 -1.0287 -0.2197  0.3959
 1018MOL0     N40363   4.307   4.429  10.062  0.0632 -0.1693  0.1839
 1018MOL0     C40364   4.257   4.545  10.112 -0.8783  0.0141  0.0171
 1018MOL0     C40365   4.359   4.594  10.182 -0.3093 -0.0817  0.8397
 1018MOL0     C40366   4.355   4.723  10.258 -0.3803  0.9788  0.0743
 1018MOL0     C40367   4.290   4.840  10.182  0.1520  0.5110 -0.4561
 1018MOL0     C40368   4.325   4.977  10.234  0.0957 -0.0905 -0.5094
 1018MOL0     C40369   4.463   5.028  10.198  0.2510 -0.1006 -0.2025
 1018MOL0     O40370   4.491   5.138  10.284 -0.5411  0.2060 -0.1364
 1018MOL0     C40371   4.618   5.193  10.281  0.6273  0.1893  0.3012
 1018MOL0     C40372   4.741   5.130  10.242  0.4666  0.4856  0.3193
 1018MOL0     C40373   4.858   5.205  10.264  0.6035  0.1632 -1.0605
 1018MOL0     C40374   4.985   5.140  10.216 -1.2257 -0.0218 -0.1729
 1018MOL0     C40375   4.851   5.337  10.318 -0.6343 -0.3786  0.8664
 1018MOL0     C40376   4.970   5.413  10.344 -0.4168 -0.2025 -0.5922
 1018MOL0     O40377   4.969   5.547  10.327  0.0166 -0.4116 -0.3003
 1018MOL0     C40378   5.083   5.624  10.321  0.4839 -0.3071 -0.6632
 1018MOL0     C40379   5.087   5.745  10.396 -0.8431 -0.4107  0.7143
 1018MOL0     C40380   5.202   5.818  10.394 -0.8425 -0.3967 -0.1958
 1018MOL0     C40381   5.308   5.779  10.309 -0.9232 -0.7023  1.1480
 1018MOL0     O40382   5.422   5.851  10.292  0.2309  0.3937  0.0376
 1018MOL0     C40383   5.421   5.998  10.324  0.7216  0.4231  0.3601
 1018MOL0     C40384   5.559   6.052  10.292 -0.2268  0.4883 -0.2188
 1018MOL0     C40385   5.549   6.205  10.285  0.3325 -1.3096 -0.6711
 1018MOL0     C40386   5.695   6.256  10.252  0.5780  0.1020  0.4292
 1018MOL0     C40387   5.691   6.394  10.169 -0.7400  0.5649  1.1008
 1018MOL0     C40388   5.834   6.449  10.136  0.0579 -0.0949 -1.1342
 1018MOL0     C40389   5.855   6.563  10.237 -0.9400 -0.8156 -0.9032
 1018MOL0     C40390   6.003   6.614  10.245 -0.1118  0.2681  0.4188
 1018MOL0    Cl40391   6.006   6.761  10.353 -0.2937 -0.1752 -0.6796
 1018MOL0     C40392   5.307   5.665  10.235  0.3580  0.6907  0.5808
 1018MOL0     C40393   5.188   5.588  10.234  0.6118 -0.1073 -0.9290
 1018MOL0     O40394   5.053   5.352  10.407 -0.0344  0.3570 -0.1230
 1018MOL0     C40395   4.732   5.395  10.347  0.5947 -0.5902  0.0411
 1018MOL0     C40396   4.615   5.324  10.338  0.3026 -0.3243 -0.4721
 1018MOL0     N40397   4.468   4.513  10.183  0.2863 -0.0110  0.3875
 1018MOL0     N40398   4.433   4.410  10.113 -0.1549 -0.5268 -0.2898
 1018MOL0     C40399   3.430   3.913   9.754 -0.2272  0.0328 -0.7915
 1018MOL0     C40400   3.340   3.840   9.681 -0.4206 -1.0051  0.2876
 1018MOL0     C40401   2.947   3.617   9.618  0.3065  0.7301 -0.2388
 1018MOL0     C40402   2.849   3.717   9.633  0.6921 -0.6738 -0.0191
 1018MOL0     C40403   2.718   3.677   9.640  0.1271 -0.0856  0.1400
 1018MOL0     C40404   2.673   3.541   9.619 -0.2654  0.0349 -0.0707
 1018MOL0     O40405   2.539   3.507   9.603  0.2045  0.5440  0.8917
 1018MOL0     C40406   2.426   3.596   9.624 -0.4448 -0.2843 -0.0019
 1018MOL0     C40407   2.403   3.631   9.772  0.7290  0.0518  0.0795
 1018MOL0     C40408   2.364   3.504   9.849  0.2616 -0.4812  1.0194
 1018MOL0     C40409   2.211   3.499   9.858  0.3239  0.0810 -0.4779
 1018MOL0     C40410   2.177   3.361   9.893  1.0717  1.4299 -0.6466
 1018MOL0     C40411   2.144   3.247   9.932  0.6154  0.4804  0.2779
 1018MOL0     C40412   2.772   3.439   9.607  0.7751 -1.7766  0.2719
 1018MOL0     C40413   2.903   3.480   9.600 -0.3065  0.0710 -0.5951
 1018MOL0     C40414   3.004   3.376   9.547  0.5503  0.2903 -0.0216
 1018MOL0     H40415   3.049   3.903   9.835 -0.2686 -0.5449  0.9632
 1018MOL0     H40416   3.218   4.010   9.994  1.0299 -1.5207  0.6655
 1018MOL0     H40417   3.478   3.862  10.046  2.2976 -0.3268  0.3197
 1018MOL0     H40418   3.459   4.007  10.147  0.3825  0.2827  0.6196
 1018MOL0     H40419   3.675   3.892  10.175 -0.6384 -0.6309 -0.8313
 1018MOL0     H40420   3.707   3.883  10.005  0.6764 -0.2406  0.8937
 1018MOL0     H40421   3.712   4.176  10.037  2.9977  3.0039  1.4491
 1018MOL0     H40422   3.758   4.109  10.198  0.0022 -0.3237 -0.1006
 1018MOL0     H40423   3.911   3.954  10.033  1.9071  0.0745 -1.3158
 1018MOL0     H40424   3.899   4.089   9.917  0.2863  1.0266  0.4963
 1018MOL0     H40425   3.966   4.124  10.218 -0.7425 -2.3375 -0.3360
 1018MOL0     H40426   3.977   4.238  10.089 -3.5793 -0.5951 -2.9867
 1018MOL0     H40427   4.144   3.993  10.122  0.4654 -0.0813  0.5998
 1018MOL0     H40428   4.125   4.076   9.960 -0.1245 -2.8439  0.1541
 1018MOL0     H40429   4.327   4.143  10.104 -0.6415  0.0906 -2.4105
 1018MOL0     H40430   4.216   4.234  10.207  0.7521  0.6278 -0.0221
 1018MOL0     H40431   4.312   4.281   9.920  4.0341 -1.7760  4.7677
 1018MOL0     H40432   4.147   4.330   9.951 -1.0976 -1.1825  0.1570
 1018MOL0     H40433   4.152   4.574  10.108 -0.6101  0.8772 -1.5911
 1018MOL0     H40434   4.459   4.753  10.272 -0.9126  3.8554 -1.2922
 1018MOL0     H40435   4.299   4.698  10.349 -5.1453  4.2026 -1.6007
 1018MOL0     H40436   4.312   4.829  10.076 -0.4797 -0.7002 -0.4812
 1018MOL0     H40437   4.182   4.822  10.185  0.3463 -0.9042 -1.1673
 1018MOL0     H40438   4.243   5.046  10.210  0.7081  1.4831  1.6202
 1018MOL0     H40439   4.320   4.971  10.343  2.3901 -1.5623 -0.4341
 1018MOL0     H40440   4.540   4.951  10.210 -1.2255 -1.2607  2.8454
 1018MOL0     H40441   4.465   5.057  10.092  2.4251  3.1967  0.5863
 1018MOL0     H40442   4.742   5.031  10.198  0.5656  1.8952 -3.0986
 1018MOL0     H40443   4.974   5.126  10.108  0.4440  1.1721 -0.5356
 1018MOL0     H40444   5.016   5.048  10.268  1.6362  1.5705  1.1658
 1018MOL0     H40445   5.072   5.206  10.213 -0.3026 -1.2220 -1.4417
 1018MOL0     H40446   5.003   5.778  10.456 -1.0794  1.0928 -0.3904
 1018MOL0     H40447   5.224   5.897  10.465  0.2741 -1.3202  0.5427
 1018MOL0     H40448   5.348   6.051  10.264  0.8471  0.6744  0.4288
 1018MOL0     H40449   5.415   6.016  10.432  1.2520 -0.5927  0.5786
 1018MOL0     H40450   5.628   6.013  10.368 -2.2554 -1.7422  0.6120
 1018MOL0     H40451   5.595   6.017  10.195 -2.7295  1.0268 -1.4175
 1018MOL0     H40452   5.516   6.241  10.383 -1.4591 -2.6923 -0.7183
 1018MOL0     H40453   5.481   6.233  10.204 -0.2690  2.5392  0.9388
 1018MOL0     H40454   5.744   6.181  10.188 -1.1449  0.0705 -0.9471
 1018MOL0     H40455   5.753   6.265  10.344  0.5198  3.7254  0.2429
 1018MOL0     H40456   5.641   6.377  10.074 -1.1002 -0.2926  1.4287
 1018MOL0     H40457   5.633   6.456  10.237  0.1412  1.9240  0.6603
 1018MOL0     H40458   5.833   6.484  10.032  0.1845  3.9761  0.0752
 1018MOL0     H40459   5.901   6.363  10.148 -1.2775 -1.1566 -1.1324
 1018MOL0     H40460   5.834   6.525  10.338  1.1037 -2.5902 -1.0820
 1018MOL0     H40461   5.786   6.643  10.210 -2.1427 -0.5190  2.5490
 1018MOL0     H40462   6.040   6.649  10.148 -2.0278 -0.0585 -0.4882
 1018MOL0     H40463   6.067   6.535  10.284  2.2578  1.5773 -0.5622
 1018MOL0     H40464   5.403   5.644  10.187  0.3801 -0.7541  1.2041
 1018MOL0     H40465   5.181   5.502  10.169 -1.1034 -0.7843  0.0991
 1018MOL0     H40466   4.740   5.498  10.383  0.4481  0.2298 -2.1331
 1018MOL0     H40467   4.524   5.356  10.387  1.9464 -1.3540  3.6594
 1018MOL0     H40468   3.531   3.925   9.716  0.0848 -1.3438 -0.4581
 1018MOL0     H40469   3.378   3.814   9.583  1.5765  4.6980 -0.8373
 1018MOL0     H40470   2.870   3.823   9.641  0.6831 -0.5831 -1.1291
 1018MOL0     H40471   2.643   3.755   9.647 -2.9289 -2.8645  2.1220
 1018MOL0     H40472   2.430   3.691   9.570  0.8956 -0.8568 -0.9865
 1018MOL0     H40473   2.337   3.541   9.594 -0.9803 -0.2367  1.4573
 1018MOL0     H40474   2.329   3.711   9.777  0.8179  0.5957 -3.9125
 1018MOL0     H40475   2.491   3.679   9.815 -0.6557  1.1106  1.8619
 1018MOL0     H40476   2.408   3.424   9.789 -1.4919 -1.7616  1.3831
 1018MOL0     H40477   2.406   3.503   9.949 -0.1356  1.7221  1.2739
 1018MOL0     H40478   2.160   3.523   9.764 -0.7696  1.0130  0.3374
 1018MOL0     H40479   2.186   3.569   9.939  1.6205  1.9058 -1.5704
 1018MOL0     H40480   2.112   3.149   9.962  0.5022  0.2367 -0.6291
 1018MOL0     H40481   2.730   3.339   9.598 -2.5425 -0.3198 -3.5622
 1018MOL0     H40482   2.960   3.325   9.461  2.5745  0.2102 -1.0790
 1018MOL0     H40483   3.094   3.420   9.502  0.8014  0.3417  0.5319
 1018MOL0     H40484   3.032   3.294   9.614  3.0245  1.1438  0.0847
 1019MOL0     O40485   3.039  11.010   4.017  0.0145  0.3862 -0.3905
 1019MOL0     C40486   2.944  10.933   4.012  0.8363  0.0452 -0.3847
 1019MOL0     O40487   2.952  10.807   3.962 -0.1731 -0.4424 -0.7566
 1019MOL0     C40488   3.074  10.777   3.898 -0.0278  0.1056  0.2972
 1019MOL0     C40489   3.199  10.762   3.960  0.5869  0.1960 -0.3563
 1019MOL0     C40490   3.309  10.735   3.870  0.5321 -0.0261 -0.4460
 1019MOL0     C40491   3.292  10.724   3.730 -0.1252  0.0185  0.3603
 1019MOL0     O40492   3.410  10.734   3.665 -0.2369  0.1212  0.8112
 1019MOL0     C40493   3.437  10.638   3.554  0.0387  1.0219 -0.4319
 1019MOL0     C40494   3.486  10.504   3.609  0.7899 -0.6293  1.0057
 1019MOL0     C40495   3.638  10.483   3.595  0.0608 -0.7512  0.0160
 1019MOL0     C40496   3.712  10.573   3.693  0.2393  0.1336 -0.2821
 1019MOL0     C40497   3.854  10.559   3.672  1.0986 -0.0628  0.8570
 1019MOL0     C40498   3.939  10.669   3.745  0.8553  0.9141 -0.1956
 1019MOL0     C40499   3.988  10.623   3.883  0.1202 -1.5839  0.2584
 1019MOL0     C40500   4.059  10.736   3.966 -0.2272 -0.8319 -0.6037
 1019MOL0     N40501   4.191  10.773   3.913 -0.1470  0.4028  0.5625
 1019MOL0     C40502   4.207  10.846   3.796  0.3987  0.1041  0.0218
 1019MOL0     C40503   4.329  10.811   3.748  0.5835  0.5267  0.6119
 1019MOL0     C40504   4.363  10.863   3.612  0.1507 -0.2255  0.5716
 1019MOL0     C40505   4.495  10.808   3.570 -1.3330 -0.4677  0.3497
 1019MOL0     C40506   4.537  10.866   3.429  0.0228 -0.1363  0.5960
 1019MOL0     C40507   4.643  10.774   3.356 -0.1913  0.1556 -0.2056
 1019MOL0     O40508   4.767  10.760   3.433  0.0187  0.4264  0.0376
 1019MOL0     C40509   4.866  10.697   3.366  0.3945  0.8116 -0.6408
 1019MOL0     C40510   4.888  10.557   3.389 -0.3266 -0.8309  0.9288
 1019MOL0     C40511   5.003  10.484   3.343 -0.4096 -0.2258 -0.5390
 1019MOL0     C40512   5.006  10.349   3.387 -0.4241 -0.9437  0.5565
 1019MOL0     C40513   5.101  10.554   3.268  0.6096 -0.0351 -0.0362
 1019MOL0     C40514   5.225  10.493   3.217 -0.3261 -0.1606 -0.1412
 1019MOL0     O40515   5.292  10.572   3.122  0.5810 -0.5424 -0.7450
 1019MOL0     C40516   5.385  10.503   3.050 -0.8894  0.0715 -1.1092
 1019MOL0     C40517   5.366  10.434   2.933  0.0432  0.1030 -0.4471
 1019MOL0     C40518   5.480  10.389   2.856 -0.6660  0.3627 -0.1518
 1019MOL0     C40519   5.610  10.396   2.908 -0.4646 -0.3481  0.3847
 1019MOL0     O40520   5.726  10.338   2.845  0.3770 -0.4854 -0.3481
 1019MOL0     C40521   5.754  10.211   2.908 -0.3322  0.7938  0.2564
 1019MOL0     C40522   5.905  10.175   2.852  1.1382  0.4440 -0.4650
 1019MOL0     C40523   6.012  10.279   2.903 -0.4349  0.9161  0.8036
 1019MOL0     C40524   6.151  10.222   2.909 -0.4870 -0.0691 -0.2074
 1019MOL0     C40525   6.248  10.316   2.982  0.2896  0.2100 -0.2988
 1019MOL0     C40526   6.240  10.331   3.124 -0.5214  0.4331 -0.4327
 1019MOL0     C40527   6.245  10.200   3.207  0.4810 -0.6525 -0.1415
 1019MOL0     C40528   6.237  10.209   3.362  0.2699  0.8689  0.7010
 1019MOL0    Cl40529   6.338  10.342   3.410 -0.3892 -0.1385  0.5270
 1019MOL0     C40530   5.621  10.471   3.028 -0.4991 -0.4133  0.7026
 1019MOL0     C40531   5.516  10.531   3.094 -0.3450 -0.4733 -0.8367
 1019MOL0     O40532   5.263  10.378   3.260  0.7162  0.4133  0.5959
 1019MOL0     C40533   5.072  10.686   3.235  0.3134 -0.3266  0.3318
 1019MOL0     C40534   4.957  10.750   3.281 -0.0966 -0.0823  0.1208
 1019MOL0     N40535   4.387  10.718   3.824  0.1220  0.3769 -0.0401
 1019MOL0     N40536   4.299  10.690   3.922  0.2933  0.5020  0.5984
 1019MOL0     C40537   3.164  10.720   3.678  0.0509  0.4745  0.0871
 1019MOL0     C40538   3.059  10.754   3.759 -0.4464 -0.0344 -0.6399
 1019MOL0     C40539   2.819  10.989   4.065  0.1606 -0.3166 -0.1718
 1019MOL0     C40540   2.784  11.115   4.018  0.0630 -0.1536 -0.0846
 1019MOL0     C40541   2.667  11.186   4.064  0.3968 -0.3154 -0.5829
 1019MOL0     C40542   2.586  11.127   4.166  0.7416 -0.8881  0.3590
 1019MOL0     O40543   2.485  11.212   4.217 -0.0959  0.4804 -0.2912
 1019MOL0     C40544   2.378  11.162   4.301  0.1657  0.9220 -0.7031
 1019MOL0     C40545   2.275  11.075   4.238 -0.4305  0.5197  0.0400
 1019MOL0     C40546   2.135  11.116   4.285  0.2961  0.5498 -0.1425
 1019MOL0     C40547   2.029  11.008   4.273 -0.1097  0.1209 -0.7718
 1019MOL0     C40548   1.950  10.979   4.396  0.1609 -0.4687 -0.7697
 1019MOL0     C40549   1.903  10.966   4.501  0.3843  0.7616 -0.3928
 1019MOL0     C40550   2.621  11.000   4.204 -0.8174  0.0567 -0.5693
 1019MOL0     C40551   2.733  10.928   4.158 -0.6289  0.2772 -1.0187
 1019MOL0     C40552   2.768  10.799   4.228  0.5702  0.6586  0.6255
 1019MOL0     H40553   3.205  10.756   4.068 -1.3373  2.5567 -0.0418
 1019MOL0     H40554   3.400  10.732   3.929 -0.9023  0.3266  1.9150
 1019MOL0     H40555   3.510  10.684   3.486 -0.0944  0.7522 -0.7596
 1019MOL0     H40556   3.345  10.612   3.501  0.6053 -0.4866 -0.7248
 1019MOL0     H40557   3.455  10.487   3.713 -2.5242 -0.2497  0.1770
 1019MOL0     H40558   3.443  10.425   3.547  1.5012  0.1792 -0.5517
 1019MOL0     H40559   3.646  10.380   3.631 -1.0287 -0.9687 -0.3256
 1019MOL0     H40560   3.679  10.488   3.494 -2.0357  0.7644 -0.8419
 1019MOL0     H40561   3.678  10.675   3.674  0.7067  0.2753 -0.3496
 1019MOL0     H40562   3.680  10.542   3.793 -0.8460  2.9772  0.3573
 1019MOL0     H40563   3.862  10.591   3.568 -0.9762  1.7772  1.1725
 1019MOL0     H40564   3.882  10.456   3.693 -0.0515 -0.5350  0.1468
 1019MOL0     H40565   4.020  10.693   3.676  1.0193  2.1387  0.4050
 1019MOL0     H40566   3.883  10.762   3.760 -1.5308 -0.6670  1.5466
 1019MOL0     H40567   4.057  10.538   3.880  1.3184 -0.6530  0.6130
 1019MOL0     H40568   3.906  10.597   3.950 -2.6606  2.8387 -1.0346
 1019MOL0     H40569   3.994  10.824   3.963  1.7191  0.9190  2.9844
 1019MOL0     H40570   4.075  10.709   4.070  0.5775 -2.7447 -1.1721
 1019MOL0     H40571   4.138  10.918   3.753 -0.7408 -2.6838 -3.2617
 1019MOL0     H40572   4.363  10.973   3.619 -1.1203 -0.3322  4.4740
 1019MOL0     H40573   4.293  10.822   3.538  1.8891 -0.5689 -0.9611
 1019MOL0     H40574   4.570  10.844   3.641  0.0724  1.3505 -1.8991
 1019MOL0     H40575   4.488  10.699   3.560 -2.8243 -0.5988  2.2087
 1019MOL0     H40576   4.450  10.875   3.364  1.6677 -2.9457 -2.2994
 1019MOL0     H40577   4.575  10.966   3.447 -0.1392 -0.0501  0.4585
 1019MOL0     H40578   4.607  10.671   3.358  2.0309 -0.6709  2.0162
 1019MOL0     H40579   4.657  10.805   3.252 -0.9779 -0.2036 -0.4267
 1019MOL0     H40580   4.814  10.520   3.459 -3.5462 -1.1557 -2.3359
 1019MOL0     H40581   5.086  10.344   3.461 -0.4379 -0.1717  0.6263
 1019MOL0     H40582   5.017  10.282   3.301 -1.5080  3.7775 -3.7480
 1019MOL0     H40583   4.909  10.327   3.433 -1.4772  1.0130 -0.6052
 1019MOL0     H40584   5.266  10.425   2.893 -0.7886 -0.7545  1.6953
 1019MOL0     H40585   5.465  10.343   2.759 -1.2339  2.2349 -0.9868
 1019MOL0     H40586   5.761  10.209   3.018 -1.5465 -1.6121  0.3345
 1019MOL0     H40587   5.683  10.129   2.897  1.8131 -1.6939  3.1163
 1019MOL0     H40588   5.936  10.074   2.881  3.9408  1.0440 -1.0309
 1019MOL0     H40589   5.897  10.173   2.743 -0.0229 -0.5367 -0.3819
 1019MOL0     H40590   5.987  10.330   2.997 -3.1870 -1.8272  1.7019
 1019MOL0     H40591   6.014  10.362   2.831 -1.1587  1.4485  1.3788
 1019MOL0     H40592   6.189  10.210   2.807  0.2870  0.7143 -0.0200
 1019MOL0     H40593   6.147  10.124   2.957  0.2991 -0.1463 -0.2932
 1019MOL0     H40594   6.348  10.280   2.957 -0.1996 -2.9631  1.7632
 1019MOL0     H40595   6.221  10.416   2.948 -2.6188  0.3680  2.0744
 1019MOL0     H40596   6.143  10.375   3.152  0.4483  1.4984  1.4278
 1019MOL0     H40597   6.323  10.395   3.155  0.1977  0.1881 -1.7588
 1019MOL0     H40598   6.345  10.160   3.186 -0.0018 -0.6887 -2.7053
 1019MOL0     H40599   6.163  10.136   3.176 -1.4357  1.0824  1.1154
 1019MOL0     H40600   6.269  10.117   3.410  1.5642  0.5464 -0.6961
 1019MOL0     H40601   6.133  10.233   3.389 -0.3787 -0.2351 -0.6789
 1019MOL0     H40602   5.722  10.495   3.060 -0.1389 -0.7100 -0.2002
 1019MOL0     H40603   5.526  10.602   3.176 -2.2230 -1.8289  0.6613
 1019MOL0     H40604   5.142  10.738   3.170  0.6370 -1.0400  0.0952
 1019MOL0     H40605   4.943  10.851   3.242 -0.3007 -0.4162 -0.6797
 1019MOL0     H40606   3.140  10.716   3.572 -2.2361  0.9185  0.5408
 1019MOL0     H40607   2.958  10.761   3.722 -1.2823  1.5153  1.6978
 1019MOL0     H40608   2.845  11.158   3.939  0.4662  2.0476  1.3425
 1019MOL0     H40609   2.635  11.279   4.017  2.1449  0.4073 -0.4057
 1019MOL0     H40610   2.416  11.107   4.388 -1.9827 -0.4041 -0.5312
 1019MOL0     H40611   2.330  11.249   4.347  2.1173  1.0204  1.3381
 1019MOL0     H40612   2.302  10.970   4.244  3.1227  1.3548  0.6778
 1019MOL0     H40613   2.283  11.091   4.130 -0.8679 -3.2503 -0.6664
 1019MOL0     H40614   2.147  11.143   4.390  1.1500  1.3449 -0.4280
 1019MOL0     H40615   2.107  11.204   4.226  0.0834  2.3647  2.5003
 1019MOL0     H40616   2.078  10.920   4.230 -0.2533  1.3095 -3.5196
 1019MOL0     H40617   1.959  11.038   4.195 -2.3008 -0.2669  0.9440
 1019MOL0     H40618   1.850  10.949   4.593  1.4133  0.0651  0.0890
 1019MOL0     H40619   2.575  10.945   4.285 -3.1685 -3.5317 -3.9928
 1019MOL0     H40620   2.795  10.829   4.330 -1.4468  1.4895  0.9716
 1019MOL0     H40621   2.683  10.732   4.246  1.0572  0.2078  1.3115
 1019MOL0     H40622   2.851  10.741   4.187  0.5820  1.4976 -0.5751
 1020MOL0     O40623   3.526   9.051   7.360  0.0217 -0.4306  0.4361
 1020MOL0     C40624   3.514   9.118   7.255  0.5459  0.1735  0.3586
 1020MOL0     O40625   3.594   9.232   7.220  0.1060  0.9952  0.4808
 1020MOL0     C40626   3.717   9.244   7.280  0.4710  0.6558  0.6112
 1020MOL0     C40627   3.817   9.151   7.251  0.1123  0.2614  0.6235
 1020MOL0     C40628   3.944   9.158   7.312  0.4363  0.5831  0.5138
 1020MOL0     C40629   3.971   9.264   7.406 -0.6759 -0.1443 -1.0557
 1020MOL0     O40630   4.092   9.272   7.471 -0.0668 -0.0925 -0.0667
 1020MOL0     C40631   4.207   9.200   7.425  0.1114 -1.2408  0.7987
 1020MOL0     C40632   4.302   9.236   7.545 -0.4001 -0.0480  0.5329
 1020MOL0     C40633   4.439   9.176   7.507 -0.5596 -0.0948  0.0222
 1020MOL0     C40634   4.556   9.283   7.506 -1.3337 -0.6778  0.8094
 1020MOL0     C40635   4.672   9.227   7.424 -0.0681  0.5672  0.6292
 1020MOL0     C40636   4.797   9.312   7.427 -0.0195 -0.6350  0.9086
 1020MOL0     C40637   4.891   9.270   7.320 -0.3070  0.6681  0.2973
 1020MOL0     C40638   5.030   9.325   7.366 -0.9871  0.1596 -0.4322
 1020MOL0     N40639   5.137   9.273   7.280 -0.0702 -0.3375 -0.5356
 1020MOL0     C40640   5.154   9.296   7.142 -0.4978 -0.0555  0.8530
 1020MOL0     C40641   5.224   9.191   7.092 -1.4145 -0.8224 -0.5231
 1020MOL0     C40642   5.275   9.185   6.955  0.1648 -0.6389 -0.2605
 1020MOL0     C40643   5.398   9.277   6.925 -0.0664  0.1211 -0.6195
 1020MOL0     C40644   5.502   9.204   6.830  0.4278 -1.8121 -0.4748
 1020MOL0     C40645   5.628   9.281   6.791 -0.4730 -0.7933  0.3310
 1020MOL0     O40646   5.696   9.316   6.912 -0.0989  0.1204  0.6741
 1020MOL0     C40647   5.813   9.388   6.896 -0.5445 -0.0147 -0.3532
 1020MOL0     C40648   5.889   9.419   7.011  0.9416 -0.0030  0.2909
 1020MOL0     C40649   6.007   9.494   7.014 -0.0236  0.3737  1.1121
 1020MOL0     C40650   6.064   9.541   7.142  0.6846  0.5153  0.3798
 1020MOL0     C40651   6.043   9.542   6.890  0.4155 -0.5338 -0.9098
 1020MOL0     C40652   6.158   9.628   6.869  0.1732  0.5102  0.0805
 1020MOL0     O40653   6.242   9.583   6.766 -0.1819  0.2226 -0.5207
 1020MOL0     C40654   6.341   9.672   6.726  0.9709  0.5019  0.1787
 1020MOL0     C40655   6.435   9.727   6.814  0.1340  0.8921  0.5667
 1020MOL0     C40656   6.549   9.792   6.752  1.3455  0.3326  0.2977
 1020MOL0     C40657   6.562   9.804   6.614 -0.0275  0.0594  1.3572
 1020MOL0     O40658   6.666   9.869   6.552  0.3527  0.0468 -0.8473
 1020MOL0     C40659   6.773   9.929   6.624 -0.1631  0.6089  0.2397
 1020MOL0     C40660   6.825  10.049   6.539  0.4056 -0.6063 -0.5027
 1020MOL0     C40661   6.879  10.024   6.398 -1.0091 -0.2236 -0.0268
 1020MOL0     C40662   7.008   9.940   6.396 -0.3485 -0.1972 -0.1392
 1020MOL0     C40663   7.095   9.948   6.276  0.0660 -0.6016  1.3030
 1020MOL0     C40664   7.213   9.845   6.278 -0.2842  0.2516 -0.3247
 1020MOL0     C40665   7.305   9.860   6.163 -0.4758 -0.4273 -0.0286
 1020MOL0     C40666   7.247   9.889   6.021 -1.0792  0.7251  0.2260
 1020MOL0    Cl40667   7.120   9.765   5.970  0.2809 -0.0817  0.3015
 1020MOL0     C40668   6.458   9.754   6.535 -0.3893 -0.3448 -0.2185
 1020MOL0     C40669   6.339   9.694   6.589  0.4396  0.7210  0.4131
 1020MOL0     O40670   6.168   9.728   6.942 -0.1188  1.0180  0.1467
 1020MOL0     C40671   5.988   9.503   6.771 -0.3037  0.4104 -0.9686
 1020MOL0     C40672   5.867   9.433   6.777 -0.4709 -0.1054 -0.1250
 1020MOL0     N40673   5.249   9.109   7.199  1.0167 -0.0156  0.0509
 1020MOL0     N40674   5.191   9.151   7.303  0.1574 -0.2488  0.0083
 1020MOL0     C40675   3.863   9.356   7.451  0.0425 -0.1953  1.0032
 1020MOL0     C40676   3.738   9.345   7.380  0.8364  1.1051 -0.4097
 1020MOL0     C40677   3.393   9.100   7.171 -0.3293  0.1404 -0.2840
 1020MOL0     C40678   3.277   9.074   7.247 -0.7305  0.2205 -0.2702
 1020MOL0     C40679   3.168   9.044   7.173  0.1522  0.5973  0.9066
 1020MOL0     C40680   3.163   9.051   7.037 -0.1922  0.0509  0.3591
 1020MOL0     O40681   3.046   9.006   6.991  0.8138 -0.3035  0.3003
 1020MOL0     C40682   2.998   9.036   6.854 -0.4267 -0.6259 -1.6565
 1020MOL0     C40683   2.912   9.159   6.841  0.0486  0.0600 -0.0217
 1020MOL0     C40684   2.972   9.290   6.882 -0.3103  0.5087 -0.5521
 1020MOL0     C40685   2.913   9.418   6.845  0.4720  0.0513 -0.2815
 1020MOL0     C40686   2.780   9.407   6.872 -0.0088 -0.1497  0.2800
 1020MOL0     C40687   2.662   9.407   6.901  0.2211  0.1800 -0.9453
 1020MOL0     C40688   3.278   9.076   6.961 -0.2286 -0.0569 -0.3705
 1020MOL0     C40689   3.392   9.103   7.031  0.4459  0.3346 -0.2868
 1020MOL0     C40690   3.511   9.126   6.953  0.3161  0.3010  0.3344
 1020MOL0     H40691   3.789   9.075   7.178  0.4844 -0.1103  0.8634
 1020MOL0     H40692   4.014   9.083   7.279 -0.7566 -1.2795  1.9532
 1020MOL0     H40693   4.243   9.245   7.333 -1.1079  0.0478  0.9090
 1020MOL0     H40694   4.181   9.094   7.413 -0.1800 -1.3786  2.3742
 1020MOL0     H40695   4.307   9.344   7.560 -2.4775  0.5166 -2.0057
 1020MOL0     H40696   4.272   9.194   7.641 -1.3081  3.3704  1.8693
 1020MOL0     H40697   4.473   9.099   7.577  1.1400  0.5896 -0.0100
 1020MOL0     H40698   4.420   9.126   7.411  1.4572 -2.4290  0.7078
 1020MOL0     H40699   4.520   9.373   7.455 -0.3725 -0.5643  0.3050
 1020MOL0     H40700   4.584   9.309   7.609 -2.3993 -0.1735  0.9875
 1020MOL0     H40701   4.624   9.199   7.329 -3.1359  2.7601  1.3735
 1020MOL0     H40702   4.701   9.133   7.471  2.9324  0.5973 -0.8990
 1020MOL0     H40703   4.766   9.416   7.412 -0.7425 -1.2259 -2.7854
 1020MOL0     H40704   4.851   9.308   7.522  3.4602 -3.7732 -0.9516
 1020MOL0     H40705   4.871   9.302   7.217  2.2177 -0.4583 -0.6348
 1020MOL0     H40706   4.894   9.161   7.324 -1.9320  0.6331  1.4195
 1020MOL0     H40707   5.038   9.434   7.358  1.8787  0.0011 -0.6341
 1020MOL0     H40708   5.052   9.298   7.470  1.5569  1.3695 -0.5849
 1020MOL0     H40709   5.124   9.382   7.083  0.4665 -0.9170 -0.9893
 1020MOL0     H40710   5.193   9.217   6.889  0.0124 -0.2442  0.1143
 1020MOL0     H40711   5.292   9.079   6.931  0.1827 -0.9468  1.0489
 1020MOL0     H40712   5.369   9.372   6.879  1.6590 -0.4698 -3.1464
 1020MOL0     H40713   5.455   9.293   7.017  0.2915 -0.4568 -0.7364
 1020MOL0     H40714   5.539   9.121   6.890  0.1206  0.3331  2.9875
 1020MOL0     H40715   5.445   9.184   6.739 -0.0432 -0.1848 -0.5727
 1020MOL0     H40716   5.690   9.225   6.720 -0.9880  0.6810 -1.3741
 1020MOL0     H40717   5.593   9.369   6.735 -2.2928 -1.2927  0.6202
 1020MOL0     H40718   5.850   9.385   7.107 -0.2830 -1.4056 -0.6562
 1020MOL0     H40719   6.014   9.634   7.171  1.8347  1.3215 -0.1613
 1020MOL0     H40720   6.173   9.543   7.142  0.7125  1.5096 -1.5308
 1020MOL0     H40721   6.027   9.471   7.218  0.0853  0.9998  0.5404
 1020MOL0     H40722   6.418   9.706   6.919 -1.6406  1.7925  0.5015
 1020MOL0     H40723   6.627   9.819   6.823  1.0007  1.9546  0.0984
 1020MOL0     H40724   6.731   9.970   6.716 -1.0588  2.8090 -1.0612
 1020MOL0     H40725   6.859   9.866   6.651 -0.3177  0.7430  1.0695
 1020MOL0     H40726   6.738  10.114   6.524  2.5299  2.5584 -0.1605
 1020MOL0     H40727   6.902  10.105   6.592  0.2959 -0.0251 -0.9372
 1020MOL0     H40728   6.913  10.121   6.360  0.6606  0.4905  2.9945
 1020MOL0     H40729   6.809   9.979   6.328 -0.8762  0.7875 -0.8350
 1020MOL0     H40730   6.971   9.837   6.402 -0.3206 -0.2045 -0.0847
 1020MOL0     H40731   7.070   9.971   6.481  2.7256 -0.1594 -2.2253
 1020MOL0     H40732   7.042   9.923   6.183  1.4470 -2.0240  0.8627
 1020MOL0     H40733   7.115  10.055   6.272 -0.7868 -0.3203  3.2019
 1020MOL0     H40734   7.172   9.745   6.265 -0.0803  0.2749 -1.2168
 1020MOL0     H40735   7.265   9.861   6.373  1.4159 -1.6139 -0.8800
 1020MOL0     H40736   7.373   9.775   6.156  0.6710  0.5585 -1.5909
 1020MOL0     H40737   7.376   9.942   6.173 -1.3149  0.1673  1.2116
 1020MOL0     H40738   7.329   9.884   5.948 -2.5672 -1.4321 -1.4348
 1020MOL0     H40739   7.207   9.990   6.012 -1.5851  0.5263  0.2351
 1020MOL0     H40740   6.473   9.769   6.428  2.1115  1.3787  0.2890
 1020MOL0     H40741   6.267   9.644   6.526 -0.3178  0.5994  1.3464
 1020MOL0     H40742   6.019   9.529   6.670 -1.5449  1.6790 -1.0541
 1020MOL0     H40743   5.822   9.408   6.681 -0.2620  1.1006 -0.5497
 1020MOL0     H40744   3.873   9.422   7.536  1.1846  3.9839 -2.0716
 1020MOL0     H40745   3.656   9.405   7.416  1.2533  1.8310 -0.6455
 1020MOL0     H40746   3.281   9.062   7.354  2.3878 -3.4872 -0.5920
 1020MOL0     H40747   3.074   9.022   7.223  0.2008  0.0170  0.7430
 1020MOL0     H40748   3.079   9.039   6.782  2.1774  0.5801  1.1125
 1020MOL0     H40749   2.936   8.948   6.831  0.3797 -2.2592  1.7742
 1020MOL0     H40750   2.813   9.158   6.886  1.1346  1.4864  2.5953
 1020MOL0     H40751   2.889   9.171   6.735 -0.5363  1.9051  0.2898
 1020MOL0     H40752   2.973   9.283   6.992 -1.3540 -3.4953 -0.6323
 1020MOL0     H40753   3.076   9.296   6.849 -0.3204  1.7921 -0.3862
 1020MOL0     H40754   2.920   9.420   6.736 -3.3550  0.9677 -0.6520
 1020MOL0     H40755   2.962   9.505   6.890 -2.6390  1.8382 -0.0699
 1020MOL0     H40756   2.561   9.424   6.932  1.0612  1.6063  1.2424
 1020MOL0     H40757   3.288   9.066   6.853  1.3952 -1.9986 -0.0873
 1020MOL0     H40758   3.556   9.222   6.978 -2.5628  1.2991  2.1403
 1020MOL0     H40759   3.586   9.047   6.958 -1.6077 -1.5437  2.7901
 1020MOL0     H40760   3.487   9.135   6.846  1.3241  3.6099  0.2711
 1021MOL0     O40761   9.327   1.769   1.394  0.6848  0.4768  0.0818
 1021MOL0     C40762   9.265   1.818   1.486 -0.3636 -0.7243 -0.3584
 1021MOL0     O40763   9.322   1.866   1.602  0.0553 -0.4799 -0.9994
 1021MOL0     C40764   9.445   1.930   1.592 -0.5826 -0.8886 -0.0061
 1021MOL0     C40765   9.549   1.904   1.689 -0.5905  0.5437  1.2023
 1021MOL0     C40766   9.672   1.966   1.669  0.4751  0.5961 -0.7643
 1021MOL0     C40767   9.697   2.061   1.569  0.8558 -1.1253  0.0277
 1021MOL0     O40768   9.810   2.130   1.545 -0.6171 -0.5329  0.1695
 1021MOL0     C40769   9.920   2.097   1.625 -0.2638  0.4274 -0.3514
 1021MOL0     C40770  10.042   2.133   1.539  0.8764  0.1434 -0.8067
 1021MOL0     C40771  10.165   2.066   1.595 -0.0257 -0.0516 -0.2553
 1021MOL0     C40772  10.300   2.131   1.554 -0.4816  0.0738  0.8537
 1021MOL0     C40773  10.429   2.047   1.595  1.0016 -0.2414 -0.0884
 1021MOL0     C40774  10.555   2.122   1.552  0.1248 -0.2222 -0.6364
 1021MOL0     C40775  10.676   2.045   1.612 -0.6431  0.8603  0.8217
 1021MOL0     C40776  10.800   2.141   1.615 -0.0001 -0.2721  0.8478
 1021MOL0     N40777  10.827   2.182   1.472  0.9756 -0.4501 -0.1258
 1021MOL0     C40778  10.847   2.098   1.368 -0.4817 -0.8878  0.1279
 1021MOL0     C40779  10.897   2.168   1.264  0.2991 -0.2100 -0.1325
 1021MOL0     C40780  10.934   2.095   1.137  0.3487  0.4211  0.1164
 1021MOL0     C40781  11.085   2.094   1.113  0.4629 -0.3058 -0.3982
 1021MOL0     C40782  11.120   2.016   0.986  0.3058  0.1971  0.8052
 1021MOL0     C40783  11.156   1.865   1.006 -0.0611  0.5702 -0.0638
 1021MOL0     O40784  11.277   1.870   1.082  1.0549 -0.1043 -0.7699
 1021MOL0     C40785  11.366   1.768   1.086 -0.1395  0.9246  0.1340
 1021MOL0     C40786  11.485   1.813   1.127  0.4073  0.5660  0.3850
 1021MOL0     C40787  11.601   1.732   1.128 -0.0305 -0.5664 -0.9209
 1021MOL0     C40788  11.726   1.797   1.178  0.2565 -0.3131  0.1741
 1021MOL0     C40789  11.590   1.590   1.101 -0.7849 -0.5986  0.0302
 1021MOL0     C40790  11.700   1.484   1.118 -0.0692  0.0058 -0.7489
 1021MOL0     O40791  11.655   1.360   1.107 -0.3498 -0.6327  0.0012
 1021MOL0     C40792  11.740   1.250   1.112 -0.7124  0.7394 -0.1424
 1021MOL0     C40793  11.880   1.244   1.076 -0.6005  0.0586 -0.2268
 1021MOL0     C40794  11.946   1.118   1.100 -0.7034 -0.8355 -0.5651
 1021MOL0     C40795  11.878   1.008   1.140  0.4769  0.1401  0.1707
 1021MOL0     O40796  11.948   0.887   1.152  0.2305  0.0955 -0.4325
 1021MOL0     C40797  11.880   0.760   1.125 -0.2719 -0.4978 -0.3677
 1021MOL0     C40798  11.976   0.640   1.146 -0.2966 -0.6216 -0.1104
 1021MOL0     C40799  12.122   0.660   1.108  0.1246 -0.3459  0.0490
 1021MOL0     C40800  12.136   0.704   0.961  0.4912 -0.4266 -0.9026
 1021MOL0     C40801  12.280   0.734   0.920 -0.0694 -0.2471  0.0332
 1021MOL0     C40802  12.263   0.828   0.801  0.4326 -0.7015  0.5867
 1021MOL0     C40803  12.383   0.823   0.710 -1.0384  0.2817  0.4836
 1021MOL0     C40804  12.337   0.795   0.568 -0.2797 -0.0755  0.2750
 1021MOL0    Cl40805  12.285   0.949   0.488  0.2890 -0.1158 -0.5843
 1021MOL0     C40806  11.745   1.018   1.166  0.6972  0.3801  0.1098
 1021MOL0     C40807  11.672   1.135   1.152 -0.2892 -0.7401  0.9438
 1021MOL0     O40808  11.815   1.519   1.129  0.1983 -0.1502 -0.7397
 1021MOL0     C40809  11.459   1.545   1.063 -0.2518  0.5286 -0.6653
 1021MOL0     C40810  11.347   1.625   1.062  0.4384  0.6792  0.4051
 1021MOL0     N40811  10.904   2.303   1.308  0.0654  0.4252  0.1995
 1021MOL0     N40812  10.862   2.315   1.430  0.7009 -0.2097  0.6280
 1021MOL0     C40813   9.592   2.085   1.479 -0.4929 -0.5920 -0.2463
 1021MOL0     C40814   9.463   2.026   1.491 -1.3165 -0.7004 -0.4365
 1021MOL0     C40815   9.124   1.819   1.493 -0.0908 -0.0095  0.2035
 1021MOL0     C40816   9.069   1.934   1.561 -0.3676 -0.3722  0.4586
 1021MOL0     C40817   8.932   1.938   1.582  0.1781 -0.5076  0.5994
 1021MOL0     C40818   8.838   1.840   1.526 -0.8220  0.9032  0.2845
 1021MOL0     O40819   8.707   1.848   1.557  0.3525  0.8598  0.0440
 1021MOL0     C40820   8.614   1.737   1.535  0.4760 -1.2369 -0.8357
 1021MOL0     C40821   8.479   1.763   1.606 -0.1512 -1.2044 -0.1632
 1021MOL0     C40822   8.478   1.760   1.756 -0.2667 -0.0534  0.0233
 1021MOL0     C40823   8.358   1.841   1.811  0.1426 -0.0563  1.1320
 1021MOL0     C40824   8.233   1.771   1.801 -0.0844  0.5305 -0.6122
 1021MOL0     C40825   8.138   1.703   1.804 -0.1990 -0.8269 -0.5700
 1021MOL0     C40826   8.899   1.724   1.475 -0.4600 -0.4769 -0.0833
 1021MOL0     C40827   9.036   1.713   1.453  0.7991 -0.3987  0.1500
 1021MOL0     C40828   9.096   1.583   1.399 -0.2599 -0.1994  0.0406
 1021MOL0     H40829   9.534   1.842   1.777  1.5509  0.9968  1.9420
 1021MOL0     H40830   9.747   1.953   1.746  0.3141  1.9466 -0.3598
 1021MOL0     H40831   9.931   1.991   1.648  0.4173 -0.3691 -3.6904
 1021MOL0     H40832   9.919   2.162   1.712  0.1118  1.4259 -1.0794
 1021MOL0     H40833  10.038   2.095   1.437  1.5758 -2.5195  0.0872
 1021MOL0     H40834  10.052   2.242   1.535 -1.6998  0.5256  0.8014
 1021MOL0     H40835  10.157   2.063   1.704 -0.8579 -0.7976 -0.3236
 1021MOL0     H40836  10.161   1.963   1.559  0.6645 -1.7707  3.9694
 1021MOL0     H40837  10.306   2.153   1.447  1.3527 -0.5546  0.7924
 1021MOL0     H40838  10.313   2.232   1.594 -1.4065  1.3045 -1.7106
 1021MOL0     H40839  10.424   1.945   1.554 -1.1748  0.3133 -1.3642
 1021MOL0     H40840  10.415   2.051   1.703 -1.9198  0.6086 -0.4246
 1021MOL0     H40841  10.553   2.141   1.445 -2.3467 -3.1160 -1.2298
 1021MOL0     H40842  10.548   2.222   1.595  2.1173  0.7402 -2.3778
 1021MOL0     H40843  10.703   1.955   1.557  0.9588  2.4507 -1.1466
 1021MOL0     H40844  10.661   2.012   1.716  0.4841 -2.7246 -0.0321
 1021MOL0     H40845  10.768   2.226   1.677 -2.7827 -0.2051 -0.4863
 1021MOL0     H40846  10.888   2.091   1.654 -0.0007 -0.0842  1.0963
 1021MOL0     H40847  10.831   1.991   1.363  1.5544 -1.2997  1.3168
 1021MOL0     H40848  10.881   2.154   1.061  2.4874 -0.1269 -1.9278
 1021MOL0     H40849  10.895   1.994   1.121 -0.7922  0.9763 -0.7155
 1021MOL0     H40850  11.114   2.199   1.111 -1.8123  0.3585 -0.6557
 1021MOL0     H40851  11.132   2.057   1.205 -1.6982 -1.1654  0.4110
 1021MOL0     H40852  11.047   2.022   0.904  2.4767 -2.0421 -1.4571
 1021MOL0     H40853  11.207   2.058   0.934 -2.3278  1.6884 -2.8674
 1021MOL0     H40854  11.077   1.811   1.059 -2.3177  3.0743 -0.6003
 1021MOL0     H40855  11.168   1.834   0.902  1.9467  3.8175 -0.9560
 1021MOL0     H40856  11.480   1.917   1.159  2.0451  0.4600  1.0962
 1021MOL0     H40857  11.797   1.812   1.097  1.5035 -1.0015  1.0911
 1021MOL0     H40858  11.769   1.728   1.252  0.1871  1.2268  1.7255
 1021MOL0     H40859  11.709   1.890   1.233 -0.6297 -1.0352  1.1864
 1021MOL0     H40860  11.935   1.332   1.043  5.7892 -3.1881  0.2393
 1021MOL0     H40861  12.047   1.091   1.070 -1.5903 -2.5213 -2.2302
 1021MOL0     H40862  11.796   0.761   1.194 -2.4785  2.4192 -2.8141
 1021MOL0     H40863  11.846   0.772   1.022  0.2776  0.5568 -0.4398
 1021MOL0     H40864  11.964   0.620   1.253 -0.9754 -1.8935 -0.3948
 1021MOL0     H40865  11.940   0.549   1.096 -0.2649  0.2603 -1.8163
 1021MOL0     H40866  12.166   0.560   1.114 -0.7295 -0.6457  2.0362
 1021MOL0     H40867  12.181   0.721   1.177  1.1830  0.8939 -1.8492
 1021MOL0     H40868  12.071   0.788   0.936 -1.0876 -1.3657 -0.1298
 1021MOL0     H40869  12.083   0.627   0.903 -0.9960  0.0419 -0.2315
 1021MOL0     H40870  12.346   0.791   0.986 -0.1642  0.4785 -0.4941
 1021MOL0     H40871  12.328   0.640   0.890 -0.0306 -0.1604 -0.1748
 1021MOL0     H40872  12.256   0.934   0.826 -1.1503 -0.5541 -0.3263
 1021MOL0     H40873  12.172   0.806   0.745  1.9260  0.0685 -2.3743
 1021MOL0     H40874  12.448   0.743   0.747  1.0499  1.8242  0.3161
 1021MOL0     H40875  12.446   0.911   0.728  2.3837 -1.9375  0.2078
 1021MOL0     H40876  12.249   0.731   0.565 -0.2615 -0.0839 -0.1115
 1021MOL0     H40877  12.416   0.736   0.521  1.7864  0.9309  2.2655
 1021MOL0     H40878  11.688   0.931   1.199 -0.0117  0.9089  0.3082
 1021MOL0     H40879  11.564   1.134   1.161 -0.4236  2.7197  0.8392
 1021MOL0     H40880  11.449   1.443   1.030 -0.6338  0.1772  0.4850
 1021MOL0     H40881  11.254   1.591   1.019  2.5834 -0.4000 -4.0526
 1021MOL0     H40882   9.612   2.151   1.395  0.6295 -1.0088 -0.3257
 1021MOL0     H40883   9.382   2.053   1.424 -1.1002  0.2743 -0.3144
 1021MOL0     H40884   9.134   2.017   1.584 -0.7745 -0.3459  1.6001
 1021MOL0     H40885   8.882   2.025   1.622  1.8276  0.6874  0.1953
 1021MOL0     H40886   8.593   1.735   1.428  0.5139  0.1427 -0.8839
 1021MOL0     H40887   8.653   1.642   1.573  1.8986  0.7970  3.5349
 1021MOL0     H40888   8.406   1.693   1.566  1.3260 -1.1553 -3.3130
 1021MOL0     H40889   8.450   1.862   1.569 -0.7448 -1.4682 -0.4117
 1021MOL0     H40890   8.469   1.660   1.799 -1.6935 -0.0155 -0.1145
 1021MOL0     H40891   8.571   1.808   1.786  1.2579 -1.7127 -1.8149
 1021MOL0     H40892   8.350   1.936   1.758  0.6502 -0.9782 -0.6647
 1021MOL0     H40893   8.382   1.874   1.912  1.6267  0.6671  0.5673
 1021MOL0     H40894   8.056   1.634   1.800  1.1940 -2.5738 -0.2882
 1021MOL0     H40895   8.833   1.638   1.463 -0.9347 -0.0608 -0.5398
 1021MOL0     H40896   9.066   1.592   1.294 -4.0456  0.4002  1.0174
 1021MOL0     H40897   9.200   1.556   1.419  1.1728  1.2591 -4.3305
 1021MOL0     H40898   9.044   1.497   1.441 -0.8112  0.5043  0.8411
 1022MOL0     O40899   6.458   7.155   3.557 -0.3256  0.2945 -0.0502
 1022MOL0     C40900   6.528   7.061   3.523 -0.2297 -0.8515 -0.4520
 1022MOL0     O40901   6.661   7.041   3.564 -0.8119  0.1952  0.3779
 1022MOL0     C40902   6.710   7.132   3.656 -0.3576  0.0191 -0.0406
 1022MOL0     C40903   6.726   7.105   3.793  0.2828  0.4188 -0.7905
 1022MOL0     C40904   6.773   7.194   3.890 -0.2784  0.0809 -0.8616
 1022MOL0     C40905   6.817   7.322   3.844 -0.1363  0.5807  1.3917
 1022MOL0     O40906   6.868   7.420   3.922  0.5958  0.8916 -0.7588
 1022MOL0     C40907   6.835   7.438   4.062  0.0255  0.4671 -0.2765
 1022MOL0     C40908   6.961   7.466   4.146 -0.2560 -0.2012 -0.6273
 1022MOL0     C40909   6.941   7.424   4.289  0.7094  0.4054  0.1182
 1022MOL0     C40910   7.074   7.397   4.367  0.2282  0.1247  0.0838
 1022MOL0     C40911   7.047   7.390   4.517  0.2600  0.8277 -0.1751
 1022MOL0     C40912   7.035   7.244   4.549 -0.4010  0.6670  0.2586
 1022MOL0     C40913   7.000   7.212   4.691  1.0577  0.7988 -0.3579
 1022MOL0     C40914   7.093   7.289   4.786 -0.4704 -0.6578 -0.3987
 1022MOL0     N40915   7.045   7.254   4.921 -0.2971  0.2224  0.1468
 1022MOL0     C40916   7.084   7.166   5.026 -0.1327 -0.0833  0.4852
 1022MOL0     C40917   6.985   7.166   5.112  0.6533  0.4893 -0.9500
 1022MOL0     C40918   6.990   7.088   5.244  0.7062 -0.7042  0.1421
 1022MOL0     C40919   6.851   7.061   5.320  0.1465 -0.5671 -0.6248
 1022MOL0     C40920   6.811   7.184   5.405 -0.3444 -0.4015  0.7760
 1022MOL0     C40921   6.706   7.148   5.511 -0.1763 -0.9532 -0.0097
 1022MOL0     O40922   6.654   7.269   5.574 -0.4824  0.0600 -0.3683
 1022MOL0     C40923   6.725   7.343   5.659  0.4800  0.3213 -1.1417
 1022MOL0     C40924   6.697   7.477   5.685  1.0452 -0.2209 -0.2942
 1022MOL0     C40925   6.771   7.565   5.774  0.7843  0.3189  0.6422
 1022MOL0     C40926   6.735   7.705   5.769  0.8450  0.5766  0.3262
 1022MOL0     C40927   6.892   7.512   5.835 -0.2294  0.5629 -0.2709
 1022MOL0     C40928   6.990   7.594   5.908 -0.2397  0.0754  0.1529
 1022MOL0     O40929   7.118   7.543   5.921 -0.5788 -0.4484  0.2875
 1022MOL0     C40930   7.186   7.579   6.033 -0.4222  0.0154 -0.2057
 1022MOL0     C40931   7.138   7.574   6.171 -0.0076 -0.2413  0.7528
 1022MOL0     C40932   7.230   7.598   6.276  0.4606  0.2646 -0.5260
 1022MOL0     C40933   7.364   7.636   6.244 -0.0407 -0.0436  0.1715
 1022MOL0     O40934   7.456   7.648   6.345 -0.0945 -0.5313 -0.6335
 1022MOL0     C40935   7.565   7.744   6.321 -0.3384 -0.3507 -0.3610
 1022MOL0     C40936   7.619   7.796   6.455  0.5470  0.3012  0.7042
 1022MOL0     C40937   7.748   7.877   6.442  0.5987  0.3764 -0.0881
 1022MOL0     C40938   7.820   7.940   6.564  0.5706 -0.3336 -0.1880
 1022MOL0     C40939   7.909   7.824   6.621  0.0799 -0.4386  0.1884
 1022MOL0     C40940   7.929   7.836   6.771  0.0037 -0.6626  0.3178
 1022MOL0     C40941   7.982   7.703   6.835  0.2985 -0.5755 -0.1136
 1022MOL0     C40942   8.005   7.717   6.986  0.9620  0.8145 -0.4785
 1022MOL0    Cl40943   8.107   7.845   7.026 -0.1369  0.4233 -0.2923
 1022MOL0     C40944   7.407   7.642   6.113 -0.3361 -0.3788 -0.8343
 1022MOL0     C40945   7.320   7.604   6.016  0.1042  0.3023  0.3603
 1022MOL0     O40946   6.956   7.700   5.958  0.4727  0.4459  0.5558
 1022MOL0     C40947   6.929   7.378   5.806  0.6051 -0.1156 -0.7415
 1022MOL0     C40948   6.838   7.295   5.731 -0.6308 -0.3514  0.6101
 1022MOL0     N40949   6.892   7.258   5.067  0.2820  0.6858 -0.0278
 1022MOL0     N40950   6.928   7.308   4.955 -0.3319  0.1282 -0.3282
 1022MOL0     C40951   6.820   7.347   3.706 -0.1276  0.2729  0.0691
 1022MOL0     C40952   6.763   7.253   3.611  0.0778  0.1895 -0.3741
 1022MOL0     C40953   6.473   6.959   3.436  0.1868 -0.2673  0.1382
 1022MOL0     C40954   6.342   6.915   3.460  0.8844 -0.0746 -0.1463
 1022MOL0     C40955   6.271   6.834   3.374 -0.3046 -0.6112  0.5032
 1022MOL0     C40956   6.343   6.790   3.258  0.0938  0.4227  0.2628
 1022MOL0     O40957   6.298   6.712   3.159  0.6058 -0.0881 -0.2215
 1022MOL0     C40958   6.155   6.706   3.143 -0.4171 -0.0790 -0.2559
 1022MOL0     C40959   6.126   6.581   3.072 -0.0435  0.3360 -0.0383
 1022MOL0     C40960   6.180   6.456   3.138 -0.5155 -0.0082  0.2208
 1022MOL0     C40961   6.185   6.337   3.036 -0.0906 -0.9115 -0.2812
 1022MOL0     C40962   6.221   6.210   3.105 -0.6877 -0.5473  0.2900
 1022MOL0     C40963   6.247   6.094   3.141 -0.6500 -0.9152  0.2816
 1022MOL0     C40964   6.481   6.819   3.241 -0.2929 -0.1470 -1.6298
 1022MOL0     C40965   6.544   6.908   3.322  0.8136 -0.5627 -0.5106
 1022MOL0     C40966   6.690   6.934   3.281  0.1952 -0.3931 -0.5455
 1022MOL0     H40967   6.688   7.012   3.833  1.7774 -0.8213 -2.1505
 1022MOL0     H40968   6.775   7.170   3.996 -2.5523 -3.3080 -1.4258
 1022MOL0     H40969   6.778   7.350   4.093  1.3996 -1.2108 -2.2506
 1022MOL0     H40970   6.767   7.522   4.075 -2.0949 -0.9627 -1.5653
 1022MOL0     H40971   7.040   7.397   4.115  0.4791 -0.4909  1.6875
 1022MOL0     H40972   6.993   7.570   4.135  0.1364 -0.0689  1.3917
 1022MOL0     H40973   6.876   7.495   4.343 -2.7439 -0.7838 -2.1523
 1022MOL0     H40974   6.894   7.326   4.298  0.4247  0.5621  0.3909
 1022MOL0     H40975   7.129   7.311   4.328 -0.2495 -0.4289  0.6081
 1022MOL0     H40976   7.146   7.478   4.354  2.2682 -1.0344  3.0855
 1022MOL0     H40977   6.955   7.439   4.550 -0.8490  0.1550 -2.1265
 1022MOL0     H40978   7.138   7.425   4.566 -2.2331  0.9477  5.1706
 1022MOL0     H40979   6.966   7.189   4.483  1.7827  0.7767 -2.2757
 1022MOL0     H40980   7.131   7.197   4.528 -1.7432 -1.9688 -0.4386
 1022MOL0     H40981   7.006   7.103   4.701 -0.1194  0.9539  3.9495
 1022MOL0     H40982   6.894   7.225   4.716  1.3342  0.0789  1.3523
 1022MOL0     H40983   7.188   7.237   4.770  0.1202 -0.7428  2.6673
 1022MOL0     H40984   7.099   7.398   4.780 -2.6352 -0.4605  0.1111
 1022MOL0     H40985   7.167   7.097   5.041 -1.3928 -1.8329 -0.3359
 1022MOL0     H40986   7.074   7.125   5.303 -0.3484  3.1463 -0.4816
 1022MOL0     H40987   7.026   6.990   5.211  1.1673 -0.1196 -1.1759
 1022MOL0     H40988   6.772   7.030   5.251 -0.4378  1.1337 -0.7728
 1022MOL0     H40989   6.869   6.982   5.393 -2.0213 -1.2572 -0.7788
 1022MOL0     H40990   6.896   7.218   5.464  2.6044 -1.5694 -2.4547
 1022MOL0     H40991   6.766   7.268   5.352 -1.6444 -1.0871  0.7443
 1022MOL0     H40992   6.634   7.110   5.439 -0.6806  1.0786 -0.6309
 1022MOL0     H40993   6.735   7.078   5.590 -1.4153  0.1168  1.4575
 1022MOL0     H40994   6.621   7.519   5.620  2.0044  3.8145  0.9202
 1022MOL0     H40995   6.642   7.727   5.716  0.5409  2.3654  1.5177
 1022MOL0     H40996   6.816   7.763   5.724  2.0069 -0.3056  1.1746
 1022MOL0     H40997   6.730   7.746   5.870  0.3916  0.1293  0.4899
 1022MOL0     H40998   7.033   7.556   6.193 -0.0694 -0.3209  0.3864
 1022MOL0     H40999   7.207   7.592   6.382  1.0592  1.7953 -0.2743
 1022MOL0     H41000   7.641   7.696   6.258 -0.6579  0.8621 -1.7158
 1022MOL0     H41001   7.543   7.838   6.270  0.6854 -0.6978 -1.4820
 1022MOL0     H41002   7.534   7.846   6.503 -1.0063 -0.6786 -0.8944
 1022MOL0     H41003   7.654   7.712   6.515  0.4883 -0.8510 -0.8297
 1022MOL0     H41004   7.743   7.955   6.366  1.0275  0.8612  0.3708
 1022MOL0     H41005   7.826   7.817   6.394  1.4357  3.9943 -3.7727
 1022MOL0     H41006   7.747   7.980   6.635  1.8730 -1.0842  1.6668
 1022MOL0     H41007   7.894   8.017   6.538  0.2217 -0.3529 -1.3002
 1022MOL0     H41008   7.854   7.731   6.607  1.1917 -0.9320 -1.2961
 1022MOL0     H41009   8.007   7.814   6.573 -0.1194 -1.6007 -0.0036
 1022MOL0     H41010   7.834   7.848   6.823 -0.4031 -0.5495 -0.4370
 1022MOL0     H41011   7.991   7.924   6.790 -0.1706 -0.3242 -0.6247
 1022MOL0     H41012   8.074   7.669   6.788  1.3486 -0.9866  2.1181
 1022MOL0     H41013   7.906   7.626   6.818  0.8714 -0.8486 -1.5211
 1022MOL0     H41014   8.039   7.622   7.029 -0.4899  0.3638 -0.2609
 1022MOL0     H41015   7.912   7.728   7.043  0.9853 -1.9261  0.2233
 1022MOL0     H41016   7.512   7.652   6.087  0.3610 -0.4622  1.6789
 1022MOL0     H41017   7.351   7.612   5.912 -1.7985  0.9270 -0.2030
 1022MOL0     H41018   7.025   7.340   5.839 -0.6533  0.1012  3.9502
 1022MOL0     H41019   6.866   7.192   5.717 -1.6275 -0.6820  0.9439
 1022MOL0     H41020   6.855   7.440   3.663  0.8607 -0.7457 -1.4115
 1022MOL0     H41021   6.761   7.286   3.508 -1.2987 -0.7813 -0.6823
 1022MOL0     H41022   6.287   6.962   3.541  0.4286 -0.0165 -0.4884
 1022MOL0     H41023   6.169   6.801   3.390 -1.4396  1.8895 -0.8935
 1022MOL0     H41024   6.106   6.688   3.239  0.7080  1.2211  0.5997
 1022MOL0     H41025   6.103   6.790   3.095 -0.3084 -0.6327 -1.3719
 1022MOL0     H41026   6.162   6.584   2.969 -2.1442  3.3222 -0.8157
 1022MOL0     H41027   6.017   6.567   3.067 -0.0315 -1.0187  2.1138
 1022MOL0     H41028   6.283   6.468   3.176  0.3797 -2.5205 -1.2008
 1022MOL0     H41029   6.114   6.419   3.217  0.1963  0.2090  0.9445
 1022MOL0     H41030   6.252   6.362   2.953 -1.5769  0.5446 -1.1033
 1022MOL0     H41031   6.086   6.320   2.993 -0.1378 -1.1231 -0.0886
 1022MOL0     H41032   6.274   5.995   3.170  4.5754 -0.1442 -0.9088
 1022MOL0     H41033   6.545   6.778   3.163  0.4723  0.0927 -1.1430
 1022MOL0     H41034   6.743   6.858   3.340 -0.4728 -1.8145 -1.7316
 1022MOL0     H41035   6.704   6.913   3.175  0.9452 -2.5106 -0.0902
 1022MOL0     H41036   6.725   7.035   3.307 -0.3305  0.5470 -3.2069
 1023MOL0     O41037   0.348   5.262   6.984  0.1493 -0.1568 -0.2665
 1023MOL0     C41038   0.343   5.385   6.956  0.5568 -0.1673  0.2653
 1023MOL0     O41039   0.236   5.470   6.982  0.1158 -0.0597 -0.1540
 1023MOL0     C41040   0.136   5.428   7.058 -0.1004 -0.2201 -0.1052
 1023MOL0     C41041   0.155   5.349   7.171 -0.2907 -0.9026  0.3529
 1023MOL0     C41042   0.050   5.318   7.260 -0.2848 -0.6828 -0.0099
 1023MOL0     C41043  -0.082   5.363   7.233 -0.2438  0.5313  0.7223
 1023MOL0     O41044  -0.191   5.317   7.301  0.5703 -0.0219 -0.4624
 1023MOL0     C41045  -0.184   5.298   7.438 -1.0752  1.0338  0.4305
 1023MOL0     C41046  -0.325   5.328   7.498  1.0289 -0.0515  0.5594
 1023MOL0     C41047  -0.423   5.209   7.456  0.0172  0.4359  0.2940
 1023MOL0     C41048  -0.562   5.229   7.511  0.6148  0.3127  0.1570
 1023MOL0     C41049  -0.676   5.169   7.436  0.3946 -0.2303 -0.0532
 1023MOL0     C41050  -0.636   5.034   7.382 -0.8616 -0.8626 -0.4452
 1023MOL0     C41051  -0.614   4.921   7.481 -0.1758 -0.4148 -0.3453
 1023MOL0     C41052  -0.595   4.788   7.407  0.5444 -0.2862  0.3152
 1023MOL0     N41053  -0.575   4.681   7.503  0.5890 -0.7567  0.4966
 1023MOL0     C41054  -0.461   4.647   7.566  0.3057 -0.0231 -0.3089
 1023MOL0     C41055  -0.495   4.560   7.660 -0.7349  0.2118 -0.4931
 1023MOL0     C41056  -0.408   4.492   7.757 -0.4990  0.1284 -0.4457
 1023MOL0     C41057  -0.459   4.505   7.899  0.2579  0.4395  0.0475
 1023MOL0     C41058  -0.360   4.421   7.979  0.1708 -0.0114 -0.5073
 1023MOL0     C41059  -0.396   4.433   8.125 -0.1015  0.4391  0.4750
 1023MOL0     O41060  -0.395   4.570   8.161 -1.0189 -0.0127 -0.3409
 1023MOL0     C41061  -0.277   4.630   8.210 -0.7994 -0.4469  2.0389
 1023MOL0     C41062  -0.152   4.575   8.223  0.7400 -0.7320 -0.2553
 1023MOL0     C41063  -0.045   4.645   8.281 -1.1508 -0.0160 -0.6402
 1023MOL0     C41064   0.083   4.563   8.300  0.2440  0.1240 -0.3194
 1023MOL0     C41065  -0.064   4.781   8.335 -0.1379  0.1091 -0.3406
 1023MOL0     C41066   0.034   4.869   8.404  0.1903  0.3487  0.6862
 1023MOL0     O41067  -0.001   4.998   8.443 -0.5408 -0.6981  0.1947
 1023MOL0     C41068   0.083   5.072   8.530 -0.3255  0.2765 -0.5910
 1023MOL0     C41069   0.104   5.208   8.502 -1.0848 -0.4795  0.2015
 1023MOL0     C41070   0.170   5.289   8.602 -0.2485  0.3940  0.2231
 1023MOL0     C41071   0.225   5.233   8.718 -0.4514  0.2199  0.6001
 1023MOL0     O41072   0.268   5.324   8.813 -0.1567 -0.2523  0.4550
 1023MOL0     C41073   0.298   5.274   8.941  0.3843 -0.7580  0.7954
 1023MOL0     C41074   0.338   5.377   9.051  0.4098 -0.6699  0.2903
 1023MOL0     C41075   0.480   5.440   9.034 -0.4517 -0.8867  0.0234
 1023MOL0     C41076   0.500   5.559   9.123 -0.7476  0.3231  0.5870
 1023MOL0     C41077   0.492   5.522   9.273  0.3492  0.1569  0.4849
 1023MOL0     C41078   0.578   5.621   9.348  1.3385  0.4907  0.2348
 1023MOL0     C41079   0.585   5.601   9.500  0.2662  0.2679 -1.1019
 1023MOL0     C41080   0.456   5.644   9.577 -0.2428  0.2958  0.0686
 1023MOL0    Cl41081   0.433   5.822   9.566  0.0834 -0.4427 -0.1493
 1023MOL0     C41082   0.221   5.093   8.734  0.1337  0.3695  0.4909
 1023MOL0     C41083   0.143   5.019   8.645 -0.8202 -0.5729  0.5440
 1023MOL0     O41084   0.152   4.825   8.410  0.4460  0.3607  0.2967
 1023MOL0     C41085  -0.192   4.845   8.310 -0.0522 -0.6313 -1.0079
 1023MOL0     C41086  -0.290   4.767   8.247  0.4090 -0.3576 -0.1855
 1023MOL0     N41087  -0.641   4.536   7.644 -0.1445  0.2706 -1.7404
 1023MOL0     N41088  -0.681   4.612   7.557  0.1722 -0.4705  0.6510
 1023MOL0     C41089  -0.101   5.419   7.102 -0.2062 -0.1439 -0.3350
 1023MOL0     C41090   0.003   5.455   7.017  0.2688  0.5814  0.2915
 1023MOL0     C41091   0.443   5.449   6.867 -0.7628 -1.2413  0.6822
 1023MOL0     C41092   0.400   5.517   6.754  0.6051 -0.0748 -0.2567
 1023MOL0     C41093   0.494   5.574   6.674  0.0982 -0.0921 -0.2746
 1023MOL0     C41094   0.632   5.574   6.698  0.1644  0.4617  0.5845
 1023MOL0     O41095   0.732   5.632   6.622 -0.5766 -0.2738 -0.1642
 1023MOL0     C41096   0.686   5.689   6.501 -0.2968 -0.2621  0.5538
 1023MOL0     C41097   0.806   5.760   6.435 -0.3020 -0.7942 -0.0635
 1023MOL0     C41098   0.904   5.670   6.363  0.0758  0.5834 -0.4345
 1023MOL0     C41099   1.002   5.736   6.268 -0.0079 -0.5880  0.2666
 1023MOL0     C41100   1.082   5.840   6.333  1.8623 -0.1873 -0.1937
 1023MOL0     C41101   1.147   5.921   6.387  0.2100 -0.3675  0.4113
 1023MOL0     C41102   0.670   5.501   6.803 -0.0670 -0.6064 -0.0172
 1023MOL0     C41103   0.585   5.446   6.895 -0.2307  0.5052 -0.5228
 1023MOL0     C41104   0.640   5.367   7.006 -0.2777  1.1751  0.7578
 1023MOL0     H41105   0.257   5.333   7.204  0.5788  2.5112 -0.3017
 1023MOL0     H41106   0.065   5.268   7.356  3.2112  0.8012  0.3812
 1023MOL0     H41107  -0.109   5.357   7.492 -2.0220  0.8139  2.0535
 1023MOL0     H41108  -0.161   5.195   7.464 -0.6999  1.4653  1.9085
 1023MOL0     H41109  -0.314   5.332   7.607 -0.1101 -1.3090  0.7522
 1023MOL0     H41110  -0.340   5.433   7.472  2.6359  0.8341  2.8891
 1023MOL0     H41111  -0.432   5.204   7.347 -1.5331  0.4516  0.3982
 1023MOL0     H41112  -0.377   5.113   7.485 -1.5429 -0.1669  0.8669
 1023MOL0     H41113  -0.556   5.203   7.618  0.2402 -0.9398 -0.1135
 1023MOL0     H41114  -0.578   5.337   7.501  2.7278  0.7826  1.2044
 1023MOL0     H41115  -0.694   5.234   7.350  1.2864 -2.5750 -2.1254
 1023MOL0     H41116  -0.768   5.155   7.494  0.3223  1.3464  0.2523
 1023MOL0     H41117  -0.720   5.008   7.317  0.1652 -0.8580 -1.8264
 1023MOL0     H41118  -0.553   5.040   7.311 -0.8383  0.6487 -0.3257
 1023MOL0     H41119  -0.705   4.925   7.542 -0.5560  1.5266 -0.9594
 1023MOL0     H41120  -0.522   4.945   7.535 -1.4567  1.0449  1.2928
 1023MOL0     H41121  -0.676   4.767   7.337 -0.6604 -1.7339  2.0480
 1023MOL0     H41122  -0.499   4.788   7.355 -0.8908  0.7948 -2.5022
 1023MOL0     H41123  -0.367   4.690   7.535  0.6137 -1.2158 -1.1040
 1023MOL0     H41124  -0.306   4.531   7.754  0.1245 -1.4254 -0.4724
 1023MOL0     H41125  -0.389   4.386   7.735  2.4769  0.7223 -1.2212
 1023MOL0     H41126  -0.460   4.607   7.938 -0.6259  0.5551 -0.2458
 1023MOL0     H41127  -0.560   4.464   7.909 -0.1433  1.5951  0.8888
 1023MOL0     H41128  -0.369   4.313   7.963 -1.8247  0.4944 -3.5538
 1023MOL0     H41129  -0.256   4.449   7.958  0.2780 -1.0390 -1.4527
 1023MOL0     H41130  -0.496   4.396   8.146  0.7069 -1.4588  1.2432
 1023MOL0     H41131  -0.327   4.377   8.189 -1.2670 -3.5231 -1.3900
 1023MOL0     H41132  -0.134   4.472   8.193  1.1719 -0.9232  0.6226
 1023MOL0     H41133   0.098   4.533   8.405 -0.3385  0.4475 -0.1413
 1023MOL0     H41134   0.173   4.624   8.288 -0.3801  1.0950 -0.1904
 1023MOL0     H41135   0.075   4.480   8.229  1.7065  1.0846 -1.6857
 1023MOL0     H41136   0.077   5.261   8.411  1.4054  1.3329  0.4217
 1023MOL0     H41137   0.170   5.395   8.581 -3.5056  0.0537 -2.2679
 1023MOL0     H41138   0.214   5.214   8.976 -0.1015 -0.2663  0.4809
 1023MOL0     H41139   0.388   5.211   8.935  1.4558  0.7980 -0.3257
 1023MOL0     H41140   0.264   5.457   9.067 -0.2036 -1.2112  0.1904
 1023MOL0     H41141   0.338   5.318   9.143 -1.0153 -0.4230  0.4724
 1023MOL0     H41142   0.472   5.476   8.931  3.0199  1.6737  0.4755
 1023MOL0     H41143   0.566   5.375   9.051  1.7570  0.6953 -3.8798
 1023MOL0     H41144   0.435   5.644   9.101 -0.4746  0.2039 -0.7474
 1023MOL0     H41145   0.593   5.609   9.095 -0.1144 -0.8782  0.4607
 1023MOL0     H41146   0.389   5.513   9.309  1.2027 -1.8507  2.7278
 1023MOL0     H41147   0.536   5.423   9.289  1.6567  0.5815 -0.3374
 1023MOL0     H41148   0.558   5.726   9.325 -2.7246 -0.2206 -0.1274
 1023MOL0     H41149   0.678   5.600   9.308 -0.1271 -0.5540 -3.2772
 1023MOL0     H41150   0.663   5.662   9.545 -0.4264 -1.2027  2.3974
 1023MOL0     H41151   0.605   5.495   9.520 -0.5811 -0.7420 -4.8105
 1023MOL0     H41152   0.474   5.606   9.678  4.4509  1.4624 -0.1055
 1023MOL0     H41153   0.368   5.606   9.524 -0.2981  2.2268 -1.3430
 1023MOL0     H41154   0.277   5.037   8.808  1.9821 -0.4427 -1.3875
 1023MOL0     H41155   0.145   4.911   8.654 -0.8967 -1.0002 -3.1773
 1023MOL0     H41156  -0.222   4.942   8.348 -2.1554 -1.7349  0.3169
 1023MOL0     H41157  -0.389   4.811   8.239  0.7258  0.1155 -1.7543
 1023MOL0     H41158  -0.204   5.435   7.071 -0.6394  0.1269  1.1900
 1023MOL0     H41159  -0.018   5.504   6.923 -1.9969 -1.7660 -0.5502
 1023MOL0     H41160   0.294   5.508   6.733  0.0812 -2.6269  2.7849
 1023MOL0     H41161   0.449   5.632   6.594 -0.6633 -1.0177 -0.5334
 1023MOL0     H41162   0.660   5.613   6.427  1.6703 -0.9234  0.4726
 1023MOL0     H41163   0.614   5.768   6.521 -0.3731 -0.3616  0.6723
 1023MOL0     H41164   0.847   5.808   6.525 -0.9226 -1.7321  0.7537
 1023MOL0     H41165   0.773   5.835   6.363  0.0099  1.2921  1.8319
 1023MOL0     H41166   0.957   5.602   6.431 -0.3291  1.3900  0.7095
 1023MOL0     H41167   0.838   5.599   6.311  2.1618 -0.8461 -1.2644
 1023MOL0     H41168   0.955   5.774   6.176  2.3890 -2.7591 -2.0512
 1023MOL0     H41169   1.064   5.655   6.227  1.4299  0.9316 -0.6819
 1023MOL0     H41170   1.205   5.982   6.454 -1.5252  0.4218  1.2871
 1023MOL0     H41171   0.774   5.478   6.820  0.0941 -0.1476 -0.3626
 1023MOL0     H41172   0.720   5.428   7.049 -2.4249  2.9710  2.4721
 1023MOL0     H41173   0.576   5.347   7.093  0.4031 -1.0786  0.8087
 1023MOL0     H41174   0.678   5.273   6.965 -0.1220  0.8484  1.6363
 1024MOL0     O41175  11.198   1.961  10.674  0.4398 -0.1092 -0.5771
 1024MOL0     C41176  11.109   1.931  10.596 -0.5956 -0.6567  0.1827
 1024MOL0     O41177  11.129   1.855  10.482  0.0861 -0.4842  0.1758
 1024MOL0     C41178  11.257   1.819  10.456 -0.5197  0.5274 -0.5831
 1024MOL0     C41179  11.330   1.729  10.540 -0.6050 -0.4816 -0.2363
 1024MOL0     C41180  11.459   1.683  10.497  0.6037 -0.0229 -0.1807
 1024MOL0     C41181  11.526   1.764  10.398  0.2394  0.0441  1.2860
 1024MOL0     O41182  11.656   1.755  10.360  0.6916  0.6555 -0.0918
 1024MOL0     C41183  11.729   1.646  10.420  0.4460  0.8144  0.6772
 1024MOL0     C41184  11.879   1.663  10.406 -0.2608 -1.1549 -0.8834
 1024MOL0     C41185  11.922   1.684  10.259 -0.1655 -0.0043 -0.5014
 1024MOL0     C41186  12.034   1.787  10.233 -0.0906  0.6880 -0.1182
 1024MOL0     C41187  12.061   1.797  10.075  0.3403  0.0292  0.4440
 1024MOL0     C41188  12.183   1.882  10.033  1.5393  1.4924  0.4734
 1024MOL0     C41189  12.172   1.888   9.877 -0.1285  0.6289  0.0634
 1024MOL0     C41190  12.266   1.999   9.825 -0.3887  0.2853 -0.0741
 1024MOL0     N41191  12.258   2.025   9.683  0.2037  0.6310 -0.3082
 1024MOL0     C41192  12.162   1.981   9.593  0.3212  0.7816  0.4507
 1024MOL0     C41193  12.167   2.048   9.477  0.2715  0.5619 -0.8720
 1024MOL0     C41194  12.078   2.036   9.359  0.0753  1.1846 -0.4248
 1024MOL0     C41195  12.085   1.895   9.284  0.2077 -0.1900  0.4372
 1024MOL0     C41196  12.227   1.844   9.244  0.1658 -0.1669 -0.4355
 1024MOL0     C41197  12.286   1.911   9.124  0.0014  0.5771  0.6039
 1024MOL0     O41198  12.298   2.054   9.130  0.3240 -0.6342  0.1657
 1024MOL0     C41199  12.423   2.109   9.115 -0.2265 -0.4994  0.8887
 1024MOL0     C41200  12.463   2.184   9.002  0.2108  0.2206 -0.3850
 1024MOL0     C41201  12.587   2.245   8.980 -0.6805 -0.1244  0.0474
 1024MOL0     C41202  12.607   2.342   8.858 -0.0268  0.3529 -0.0502
 1024MOL0     C41203  12.677   2.233   9.089  0.0484  0.4088  0.8980
 1024MOL0     C41204  12.805   2.305   9.099 -0.0177 -0.7884  0.0905
 1024MOL0     O41205  12.863   2.323   9.220  0.3138 -0.0120  0.5553
 1024MOL0     C41206  12.996   2.372   9.226  0.0356  0.5925  0.3173
 1024MOL0     C41207  13.038   2.513   9.231 -0.1118  0.1385  1.0693
 1024MOL0     C41208  13.172   2.550   9.248  0.3365 -0.2627 -1.1750
 1024MOL0     C41209  13.270   2.450   9.274 -1.5308  0.0504 -0.5605
 1024MOL0     O41210  13.404   2.483   9.293 -0.2043 -0.5315  0.3896
 1024MOL0     C41211  13.438   2.518   9.428 -0.4450  1.1141 -0.4326
 1024MOL0     C41212  13.559   2.619   9.435 -1.2101 -0.2478  0.7765
 1024MOL0     C41213  13.529   2.756   9.391  0.3811 -1.0602  0.2498
 1024MOL0     C41214  13.649   2.852   9.382  0.1308  0.6897 -1.3695
 1024MOL0     C41215  13.727   2.879   9.514 -0.4297  0.0901  0.4785
 1024MOL0     C41216  13.838   2.977   9.497 -0.3178  0.4744 -0.4769
 1024MOL0     C41217  13.852   3.066   9.632 -0.2525  0.5395 -0.4075
 1024MOL0     C41218  13.867   2.995   9.763  0.0044  0.6952 -0.8286
 1024MOL0    Cl41219  13.957   3.101   9.880 -0.2933 -0.1235 -0.2026
 1024MOL0     C41220  13.229   2.317   9.267 -0.4968  0.5786  0.2393
 1024MOL0     C41221  13.093   2.275   9.250  0.0116 -0.5315 -0.5695
 1024MOL0     O41222  12.855   2.343   8.994  0.0498 -0.1214 -1.0837
 1024MOL0     C41223  12.631   2.165   9.204 -1.0130  0.3705  0.0844
 1024MOL0     C41224  12.508   2.111   9.223  0.3853 -0.4496 -0.2684
 1024MOL0     N41225  12.276   2.138   9.501 -0.4274  0.0398  0.1632
 1024MOL0     N41226  12.328   2.123   9.618  0.4632 -0.0834 -0.8405
 1024MOL0     C41227  11.453   1.850  10.319 -0.2565 -0.3347 -0.4519
 1024MOL0     C41228  11.320   1.872  10.348  0.0417 -0.1461  0.0763
 1024MOL0     C41229  10.977   1.971  10.636  0.4648  0.2474 -0.0995
 1024MOL0     C41230  10.881   1.931  10.540  0.9154  0.2743 -0.5366
 1024MOL0     C41231  10.745   1.967  10.553  0.0799  0.0164  0.0018
 1024MOL0     C41232  10.707   2.057  10.648 -0.4896 -0.4086 -0.3187
 1024MOL0     O41233  10.576   2.102  10.638 -0.2864 -0.3293  1.0423
 1024MOL0     C41234  10.560   2.244  10.600 -0.9282  0.3736  0.2133
 1024MOL0     C41235  10.544   2.332  10.725  0.3508  0.7265 -0.5298
 1024MOL0     C41236  10.424   2.290  10.812  0.3459 -0.1670  0.6433
 1024MOL0     C41237  10.301   2.259  10.726 -0.4024  0.4815 -0.3318
 1024MOL0     C41238  10.179   2.288  10.807  0.5240 -0.0614  0.0453
 1024MOL0     C41239  10.072   2.295  10.863  0.4427 -1.2366  0.3821
 1024MOL0     C41240  10.799   2.108  10.743 -0.0404 -0.7604  0.2553
 1024MOL0     C41241  10.935   2.053  10.744  0.8033  0.1554 -0.4406
 1024MOL0     C41242  11.023   2.100  10.861 -0.0445  0.1568  0.6939
 1024MOL0     H41243  11.266   1.692  10.619 -0.9758  1.0904  0.2349
 1024MOL0     H41244  11.499   1.611  10.569 -1.2072  0.6085  1.5461
 1024MOL0     H41245  11.713   1.560  10.354 -1.5497  1.9030 -0.3467
 1024MOL0     H41246  11.698   1.631  10.524 -0.3255  1.5347  0.5567
 1024MOL0     H41247  11.909   1.748  10.468 -0.2836 -0.2293 -2.1263
 1024MOL0     H41248  11.930   1.573  10.444  0.4455 -1.5530 -2.6984
 1024MOL0     H41249  11.977   1.593  10.233  0.1792 -0.5885  1.9819
 1024MOL0     H41250  11.833   1.696  10.197 -1.5602 -1.1128  1.1677
 1024MOL0     H41251  12.002   1.884  10.271 -3.0491 -0.6664  1.1394
 1024MOL0     H41252  12.114   1.744  10.294 -2.7142 -6.3302 -0.7173
 1024MOL0     H41253  11.976   1.837  10.020 -0.5391  0.5763  2.1272
 1024MOL0     H41254  12.069   1.697  10.033  0.9489  0.4826 -0.5551
 1024MOL0     H41255  12.175   1.985  10.070 -2.0320  2.3821 -2.2805
 1024MOL0     H41256  12.273   1.827  10.063 -0.5380 -2.1752  0.4048
 1024MOL0     H41257  12.071   1.903   9.838 -0.0163 -0.6630 -0.7724
 1024MOL0     H41258  12.202   1.794   9.832 -0.0697 -1.2707  3.6779
 1024MOL0     H41259  12.225   2.085   9.880 -1.5595 -0.8218  0.8375
 1024MOL0     H41260  12.369   1.989   9.860  0.1096  3.5224 -0.3162
 1024MOL0     H41261  12.095   1.896   9.605 -0.9840  1.0679 -3.3645
 1024MOL0     H41262  12.093   2.115   9.285  1.6006 -0.1757 -1.6360
 1024MOL0     H41263  11.974   2.039   9.396  0.8459  1.6379  1.9105
 1024MOL0     H41264  12.030   1.822   9.343  2.6662 -0.7431  2.2446
 1024MOL0     H41265  12.035   1.901   9.188  0.4962  5.6509  0.3010
 1024MOL0     H41266  12.299   1.855   9.325 -2.0118 -1.2499  1.7961
 1024MOL0     H41267  12.216   1.736   9.228  0.1830 -0.4483  1.2570
 1024MOL0     H41268  12.382   1.864   9.103  0.8900  2.1012  1.2007
 1024MOL0     H41269  12.229   1.891   9.032  0.2654 -0.7093  0.6931
 1024MOL0     H41270  12.389   2.203   8.924 -0.0025 -0.0852 -0.2581
 1024MOL0     H41271  12.516   2.364   8.802 -1.0432 -0.7034  1.1295
 1024MOL0     H41272  12.684   2.311   8.786 -0.3433  2.1454 -1.2162
 1024MOL0     H41273  12.640   2.434   8.906  0.4384  0.5322 -0.6960
 1024MOL0     H41274  12.962   2.590   9.226 -2.9587 -2.5323  0.2561
 1024MOL0     H41275  13.212   2.650   9.260  2.3031 -1.2437  1.3427
 1024MOL0     H41276  13.350   2.545   9.488 -0.1552 -1.6093  1.4043
 1024MOL0     H41277  13.472   2.427   9.478 -2.9841 -0.5816 -1.6264
 1024MOL0     H41278  13.600   2.612   9.536  0.1677 -2.8455  0.1445
 1024MOL0     H41279  13.637   2.584   9.368 -1.1533 -1.0347  1.2402
 1024MOL0     H41280  13.465   2.800   9.468  0.9732  1.7490 -0.7597
 1024MOL0     H41281  13.467   2.744   9.302  0.7071 -0.0370 -0.1236
 1024MOL0     H41282  13.621   2.950   9.341  2.7381  1.8207 -0.6650
 1024MOL0     H41283  13.725   2.810   9.314 -1.1059 -3.1018 -0.6362
 1024MOL0     H41284  13.654   2.923   9.583 -1.1073 -1.9474  1.1424
 1024MOL0     H41285  13.769   2.785   9.552  0.4160 -0.0420 -0.7189
 1024MOL0     H41286  13.813   3.048   9.417 -1.1621 -0.0109 -0.6499
 1024MOL0     H41287  13.930   2.924   9.469 -0.5148  0.1361 -0.4849
 1024MOL0     H41288  13.773   3.139   9.649  0.6371  1.1941  1.1132
 1024MOL0     H41289  13.940   3.126   9.608  0.4608  0.1827  1.1498
 1024MOL0     H41290  13.905   2.893   9.750 -1.8836 -0.0728 -0.6535
 1024MOL0     H41291  13.769   2.976   9.806  1.9850 -3.4992  2.6835
 1024MOL0     H41292  13.295   2.233   9.283 -0.1067  1.2636  2.6042
 1024MOL0     H41293  13.070   2.170   9.235  2.9435 -0.9598 -3.1358
 1024MOL0     H41294  12.706   2.155   9.282 -2.1260 -0.7136  1.0700
 1024MOL0     H41295  12.496   2.065   9.321 -0.2990 -0.4759 -0.3638
 1024MOL0     H41296  11.491   1.918  10.242 -1.4022  2.5104  1.3196
 1024MOL0     H41297  11.271   1.943  10.282  0.4721 -0.2462 -0.3520
 1024MOL0     H41298  10.894   1.857  10.461 -1.9640  2.5408 -3.3742
 1024MOL0     H41299  10.667   1.926  10.490  0.3379  0.6666 -0.7530
 1024MOL0     H41300  10.649   2.282  10.549  0.5017 -2.5085  0.3677
 1024MOL0     H41301  10.477   2.258  10.529 -0.1230  0.0673 -0.8125
 1024MOL0     H41302  10.529   2.434  10.691 -0.5104  0.0426 -2.3042
 1024MOL0     H41303  10.638   2.334  10.782 -1.2921 -1.6955  2.5770
 1024MOL0     H41304  10.451   2.197  10.862 -2.4050 -1.2069  0.4005
 1024MOL0     H41305  10.415   2.363  10.892  0.9949  1.7259 -0.9351
 1024MOL0     H41306  10.306   2.160  10.679  2.2505  0.1360  0.4775
 1024MOL0     H41307  10.306   2.329  10.643  3.5035  1.1907  0.2950
 1024MOL0     H41308   9.978   2.304  10.915 -0.3985  3.5162 -1.4650
 1024MOL0     H41309  10.762   2.184  10.810  2.7487  0.9133  0.0242
 1024MOL0     H41310  10.969   2.172  10.922  0.1045  2.1050 -1.3624
 1024MOL0     H41311  11.054   2.013  10.920  1.3239 -0.6589 -1.1214
 1024MOL0     H41312  11.103   2.156  10.813 -0.7607  0.2996 -0.3814
  11.47299  11.47299  11.47299
